Title
29212
    1ASP      N    1   1.793   2.390   1.662 -0.3732  0.2082 -0.4649
    1ASP    HT1    2   1.830   2.406   1.758  1.7047 -0.0436 -1.1653
    1ASP    HT2    3   1.736   2.475   1.643 -1.8169 -0.6191  0.0622
    1ASP    HT3    4   1.875   2.374   1.599  2.3575 -0.8015  2.9981
    1ASP     CA    5   1.700   2.272   1.662  0.0020  0.0365 -0.0428
    1ASP     HA    6   1.658   2.270   1.761  3.1211 -1.1567  1.3812
    1ASP     CB    7   1.593   2.288   1.558  0.0136  0.7818 -0.6715
    1ASP    HB1    8   1.528   2.198   1.551  0.0794  0.3436  2.7517
    1ASP    HB2    9   1.628   2.320   1.458 -2.1934 -0.5305 -1.9496
    1ASP     CG   10   1.491   2.389   1.610 -1.1125  0.0405  0.3282
    1ASP    OD1   11   1.511   2.463   1.710  0.5896 -0.3793  0.0886
    1ASP    OD2   12   1.389   2.401   1.539  0.2890  0.0182 -0.4952
    1ASP      C   13   1.758   2.136   1.670 -0.2998 -0.1808  0.0596
    1ASP      O   14   1.794   2.094   1.776 -0.2758  0.3211  0.0778
    2GLY      N   15   1.777   2.067   1.555  0.1890  0.1798  0.0989
    2GLY     HN   16   1.740   2.107   1.471 -0.7255  0.5918  0.6873
    2GLY     CA   17   1.809   1.925   1.554 -0.3015  0.7867  0.1706
    2GLY    HA1   18   1.895   1.904   1.615 -1.0834  0.4965  1.1852
    2GLY    HA2   19   1.825   1.902   1.449 -0.1825  0.1398  0.3300
    2GLY      C   20   1.706   1.834   1.617  0.5324 -0.0959  0.8080
    2GLY      O   21   1.616   1.881   1.686 -0.1777 -0.0022  0.2641
    3ASP      N   22   1.716   1.707   1.574  0.0074  0.1962  0.5015
    3ASP     HN   23   1.796   1.691   1.516 -0.1033  0.5506  0.2506
    3ASP     CA   24   1.627   1.595   1.600 -0.1295 -0.1156  0.5964
    3ASP     HA   25   1.528   1.634   1.616  0.6404  2.4235 -0.1924
    3ASP     CB   26   1.643   1.480   1.489  0.6378 -0.0435 -0.6554
    3ASP    HB1   27   1.569   1.400   1.512 -0.3408  0.4335 -1.9691
    3ASP    HB2   28   1.744   1.435   1.500  0.5865 -0.0567 -0.2237
    3ASP     CG   29   1.612   1.516   1.345 -0.4542 -0.1474 -0.1817
    3ASP    OD1   30   1.603   1.635   1.303 -0.8165 -0.4604 -0.4034
    3ASP    OD2   31   1.612   1.422   1.258 -0.0563  0.0085 -0.0909
    3ASP      C   32   1.675   1.547   1.730 -0.0054  0.5523  0.0652
    3ASP      O   33   1.788   1.503   1.752 -0.0346  0.5235  0.1837
    4GLY      N   34   1.587   1.549   1.830  0.2946  0.0921  0.2487
    4GLY     HN   35   1.495   1.584   1.821  0.0350 -0.2266  1.4177
    4GLY     CA   36   1.617   1.495   1.957 -0.3828  0.2552 -0.5648
    4GLY    HA1   37   1.536   1.534   2.018 -0.3176 -1.5183  0.7455
    4GLY    HA2   38   1.717   1.533   1.975 -0.2580  0.5157 -1.7324
    4GLY      C   39   1.608   1.343   1.969 -0.3512 -0.6454  0.4075
    4GLY      O   40   1.592   1.274   1.866 -0.1754 -0.2142  0.1975
    5PRO      N   41   1.614   1.286   2.092  0.4695 -0.0477  0.0487
    5PRO     CD   42   1.664   1.352   2.206  0.0911  0.2971  0.6921
    5PRO    HD1   43   1.605   1.441   2.236 -1.9225 -0.5579 -0.5552
    5PRO    HD2   44   1.767   1.392   2.194  0.1508 -0.4725 -2.0519
    5PRO     CA   45   1.549   1.161   2.130 -0.2536 -0.3335 -0.9329
    5PRO     HA   46   1.612   1.081   2.091 -0.5919 -1.7531  1.2484
    5PRO     CB   47   1.551   1.154   2.289 -0.0729  0.0245 -0.9186
    5PRO    HB1   48   1.567   1.055   2.336  0.2978  1.1893  1.5529
    5PRO    HB2   49   1.456   1.190   2.335  0.5794  0.7269 -0.1038
    5PRO     CG   50   1.662   1.253   2.319 -0.3232  0.0888 -0.3480
    5PRO    HG1   51   1.654   1.305   2.417  4.2084  0.9733 -0.2323
    5PRO    HG2   52   1.759   1.199   2.318 -0.4362 -0.1735  0.8987
    5PRO      C   53   1.405   1.136   2.074 -0.4539  0.1745 -0.6465
    5PRO      O   54   1.324   1.221   2.093 -0.0740 -0.0183  0.6416
    6GLY      N   55   1.373   1.026   2.002  0.3728  0.6024  0.6172
    6GLY     HN   56   1.439   0.953   1.984 -1.3189 -0.7763 -0.2820
    6GLY     CA   57   1.228   0.997   1.981 -0.5224 -0.1630  0.9939
    6GLY    HA1   58   1.227   0.918   1.908  0.6269  1.7335 -1.2163
    6GLY    HA2   59   1.186   1.079   1.925  0.6046  0.1560  0.5867
    6GLY      C   60   1.142   0.967   2.102  0.4791  0.3637 -0.5951
    6GLY      O   61   1.197   0.970   2.215  0.4940  0.2172  0.1841
    7ASP      N   62   1.008   0.944   2.088 -0.0927  0.4416  0.1828
    7ASP     HN   63   0.969   0.952   1.996  0.4710 -0.7821 -0.1844
    7ASP     CA   64   0.908   0.907   2.180  0.7854  0.7972  0.7434
    7ASP     HA   65   0.816   0.924   2.126  1.7662 -0.7067 -1.5344
    7ASP     CB   66   0.905   0.757   2.210  0.4627  0.3088 -0.1769
    7ASP    HB1   67   0.820   0.723   2.274  0.0782  1.6726  0.0719
    7ASP    HB2   68   1.000   0.724   2.257  0.5179  2.4649  1.3592
    7ASP     CG   69   0.896   0.681   2.069 -0.2606 -0.5032  0.0882
    7ASP    OD1   70   0.930   0.565   2.079  0.0368 -0.4107 -0.0230
    7ASP    OD2   71   0.846   0.723   1.958 -0.4786 -0.3361 -0.1156
    7ASP      C   72   0.900   0.992   2.308  0.2311 -0.1665 -0.1528
    7ASP      O   73   0.931   0.942   2.417 -0.6465 -0.3015  0.1914
    8PRO      N   74   0.857   1.121   2.295 -0.0658  0.0450  0.5556
    8PRO     CD   75   0.822   1.177   2.161  0.4466 -0.1894 -0.4135
    8PRO    HD1   76   0.720   1.143   2.134  0.4579  1.0038 -2.1498
    8PRO    HD2   77   0.892   1.158   2.077 -0.1479  1.8391 -1.4501
    8PRO     CA   78   0.833   1.217   2.404  0.1649 -0.3952 -0.2811
    8PRO     HA   79   0.933   1.243   2.436  0.3397 -0.8538 -0.4412
    8PRO     CB   80   0.758   1.328   2.337  0.0603  0.3917 -0.6855
    8PRO    HB1   81   0.775   1.422   2.394  0.4426 -0.6054  0.9124
    8PRO    HB2   82   0.650   1.303   2.335  0.2783 -0.6123 -0.4307
    8PRO     CG   83   0.813   1.325   2.193 -0.0514 -0.0373 -0.8804
    8PRO    HG1   84   0.750   1.369   2.113 -0.9315 -0.6957 -0.5697
    8PRO    HG2   85   0.918   1.360   2.199  0.0953  0.0544 -3.0002
    8PRO      C   86   0.765   1.159   2.528  1.1764 -0.8073  0.6496
    8PRO      O   87   0.679   1.076   2.514 -0.1169  0.0899  0.1830
    9GLY      N   88   0.797   1.217   2.643  0.3053 -0.4746  0.3366
    9GLY     HN   89   0.867   1.288   2.644  0.4731 -0.6343  0.0066
    9GLY     CA   90   0.725   1.204   2.771  0.6659  0.0414  0.4909
    9GLY    HA1   91   0.798   1.191   2.850  1.6411  0.2991 -0.3579
    9GLY    HA2   92   0.656   1.122   2.777 -0.9186  1.1747 -1.1208
    9GLY      C   93   0.646   1.324   2.797  0.1051 -0.4222  0.2439
    9GLY      O   94   0.648   1.418   2.714 -0.7130  0.5065 -0.7353
   10ASP      N   95   0.561   1.327   2.906 -0.0312  0.2999  0.0652
   10ASP     HN   96   0.569   1.253   2.973  0.4168 -0.6927 -1.0332
   10ASP     CA   97   0.459   1.423   2.940  0.1530 -0.3426  0.4421
   10ASP     HA   98   0.388   1.370   3.002 -0.5043 -2.8171 -2.1893
   10ASP     CB   99   0.521   1.540   3.024 -0.5058  1.0194  0.3437
   10ASP    HB1  100   0.434   1.595   3.066 -0.7818  0.5406  0.4078
   10ASP    HB2  101   0.584   1.608   2.964  1.7060 -0.8477  0.4029
   10ASP     CG  102   0.591   1.508   3.154  0.1851  0.5450 -0.1042
   10ASP    OD1  103   0.556   1.402   3.217  0.4633  0.0083  0.1840
   10ASP    OD2  104   0.672   1.583   3.206  0.0302 -0.1827 -0.0837
   10ASP      C  105   0.375   1.477   2.820  0.1567 -0.0640 -0.2552
   10ASP      O  106   0.348   1.413   2.721  0.6857  0.4262 -0.3508
   11GLY      N  107   0.324   1.600   2.838  0.3206 -0.1350 -0.2085
   11GLY     HN  108   0.341   1.648   2.924  0.8659  2.1578 -1.5136
   11GLY     CA  109   0.247   1.673   2.729 -0.4203  0.0038 -0.0618
   11GLY    HA1  110   0.290   1.642   2.635 -2.8170  1.7533 -1.8619
   11GLY    HA2  111   0.250   1.780   2.744  1.2161  0.0279 -0.3925
   11GLY      C  112   0.101   1.625   2.722  0.1648  1.0497  0.0372
   11GLY    OT1  113   0.048   1.589   2.614  0.3967 -0.4854 -0.1670
   11GLY    OT2  114   0.038   1.627   2.832 -0.1344  0.1704  0.5670
   12LIT    LIT  115   5.343   4.471   4.478 -0.2395 -0.4640 -0.2900
   13LIT    LIT  116   3.093   4.990   0.327  0.0450 -0.3604 -0.7508
   14LIT    LIT  117   1.363   2.418   0.012  0.0935 -0.5373 -0.0604
   15LIT    LIT  118   6.428   6.415   3.088 -0.1670 -0.7521 -0.4139
   16LIT    LIT  119   0.082   1.493   2.458 -0.3436  0.1518  0.3581
   17LIT    LIT  120   2.703   5.653   4.556  0.3190 -0.8362  0.6832
   18LIT    LIT  121   1.368   0.059   4.164 -0.4567 -0.7072 -0.1604
   19LIT    LIT  122   1.076   1.728   2.817 -0.6918  0.2059 -1.0106
   20LIT    LIT  123   0.299   2.171   1.514  0.3854 -0.1946 -0.6504
   21LIT    LIT  124   5.561   0.403   1.064  1.1194  0.3525  0.5544
   22LIT    LIT  125   1.425   0.004   5.062  0.4857  0.6617 -0.4425
   23LIT    LIT  126   2.292   5.224   3.795  0.2067  0.4891  0.4546
   24LIT    LIT  127   1.826   5.103   3.585  0.4094  0.1229 -0.3151
   25LIT    LIT  128   0.799   0.535   1.922  0.1985 -0.6662 -0.2406
   26LIT    LIT  129   0.613   1.505   3.376 -0.5731  0.0825 -0.8471
   27LIT    LIT  130   4.465   3.275   5.176 -0.8359 -0.6354  0.5856
   28LIT    LIT  131   1.671   5.992   0.669 -0.8657 -0.3757  1.0654
   29LIT    LIT  132   2.738   2.982   1.769  0.1802 -1.3966  0.4319
   30LIT    LIT  133   5.542   0.437   3.343  0.2490 -0.0377  1.1101
   31LIT    LIT  134   2.630   0.166   3.138  0.2403  0.1019  0.0625
   32LIT    LIT  135   5.357   6.472   0.404 -1.1653 -0.1418  0.6163
   33LIT    LIT  136   1.309   4.734   1.949  0.1649  0.1469  0.1419
   34LIT    LIT  137   0.013   1.159   4.232 -0.1261  0.2190  0.3091
   35LIT    LIT  138   1.243   5.527   2.152 -0.4036  0.6275  0.2731
   36LIT    LIT  139   4.876   6.527   3.319 -0.2106  0.2289 -0.1084
   37LIT    LIT  140   3.892   1.109   2.015 -0.0769  0.5443  0.0434
   38LIT    LIT  141   0.863   4.494   3.257  0.6629  0.0861  0.1085
   39LIT    LIT  142   1.346   2.467   1.370 -0.7074  0.0170  0.3458
   40LIT    LIT  143   2.810   1.051   4.066 -0.1904 -0.0860  0.3826
   41LIT    LIT  144   7.092   1.526   2.796 -0.2737  0.5003  1.1239
   42LIT    LIT  145   1.542   1.556   1.143  0.7482  0.6485  0.4026
   43CLA    CLA  146   2.749   0.842   4.113  0.0631 -0.0852 -0.2436
   44CLA    CLA  147   5.267   0.514   0.688 -0.3751 -0.3146  0.0669
   45CLA    CLA  148   6.558   4.092   1.728 -0.4955  0.1904  0.0928
   46CLA    CLA  149   2.540   5.045   5.795 -0.7187 -0.1240 -0.1518
   47CLA    CLA  150   1.349   2.297   0.582 -0.2381  0.3231 -0.2824
   48CLA    CLA  151   5.708   1.366   1.717 -0.2252  0.1578  0.0321
   49CLA    CLA  152   5.585   4.449   2.238 -0.4147  0.3535 -0.5049
   50CLA    CLA  153   6.022   1.618   1.856  0.0583 -0.0626 -0.1249
   51CLA    CLA  154   6.274   4.391   4.403  0.2581  0.0135 -0.4136
   52CLA    CLA  155   4.571   2.034   5.775  0.3157 -0.1507  0.1581
   53CLA    CLA  156   5.154   6.076   0.631 -0.0051  0.1601  0.0299
   54CLA    CLA  157   6.107   1.630   0.168  0.0974 -0.2721  0.3298
   55CLA    CLA  158   2.250   3.994   2.856 -0.0577 -0.2329 -0.0189
   56CLA    CLA  159   1.488   5.743   3.583  0.0085  0.1353  0.2655
   57CLA    CLA  160   1.318   0.279   4.159 -0.2871 -0.1570  0.2814
   58CLA    CLA  161   1.941   3.566   1.191 -0.2482  0.4590  0.0367
   59CLA    CLA  162   7.155   0.957   4.153 -0.2542 -0.2549 -0.3647
   60CLA    CLA  163   2.335   5.179   2.341 -0.4109 -0.2784 -0.0393
   61CLA    CLA  164   1.724   2.725   1.519  0.2989  0.0602  0.2287
   62CLA    CLA  165   3.570   5.326   0.798 -0.3044 -0.1198 -0.0867
   63CLA    CLA  166   6.858   3.309   4.174 -0.2988  0.0420  0.2580
   64CLA    CLA  167   0.376   3.245   3.892  0.1800  0.1895 -0.1561
   65CLA    CLA  168   2.343   0.188   3.981 -0.0847  0.1756  0.4394
   66CLA    CLA  169   4.031   6.791   2.478 -0.0623  0.0338 -0.0146
   67CLA    CLA  170   0.511   0.833   1.715  0.0952  0.3082 -0.1262
   68CLA    CLA  171   0.978   4.747   2.708  0.3044  0.0165  0.3684
   69CLA    CLA  172   1.714   1.058   4.250  0.2814  0.4027  0.0151
   70TIP3   OH2  173   5.562   6.762   4.940  0.4703 -0.2601  0.2918
   70TIP3    H1  174   5.609   6.839   4.908 -0.0720  0.2722  0.7320
   70TIP3    H2  175   5.541   6.783   5.032 -3.6204  1.1100 -0.7312
   71TIP3   OH2  176   2.309   6.152   2.008  0.2924  0.0650 -0.0076
   71TIP3    H1  177   2.306   6.056   2.012 -0.0154  0.0712 -0.0488
   71TIP3    H2  178   2.363   6.170   1.931 -0.5878 -0.0853 -0.6844
   72TIP3   OH2  179   2.368   5.277   2.038  0.1311  0.2699  0.8611
   72TIP3    H1  180   2.317   5.216   1.985  2.0906 -0.4008 -0.3939
   72TIP3    H2  181   2.360   5.244   2.128 -0.0745 -0.9517  0.4130
   73TIP3   OH2  182   5.736   0.554   5.125 -0.0982  0.1915  0.5109
   73TIP3    H1  183   5.661   0.507   5.090  0.7716 -1.6411  0.9861
   73TIP3    H2  184   5.700   0.638   5.155 -1.5756  0.1371 -0.9881
   74TIP3   OH2  185   5.267   1.459   4.205 -0.1660 -0.2832  0.3155
   74TIP3    H1  186   5.246   1.474   4.113  1.4111  2.5435  0.3120
   74TIP3    H2  187   5.269   1.363   4.214  0.8489 -0.6659 -2.8731
   75TIP3   OH2  188   0.730   3.814   0.307 -0.0268 -0.2753 -0.0512
   75TIP3    H1  189   0.796   3.802   0.374  1.0027 -0.9087 -1.1384
   75TIP3    H2  190   0.675   3.736   0.313 -0.7125  0.2563  0.8586
   76TIP3   OH2  191   1.143   3.461   2.014 -0.3142  0.1270  0.3277
   76TIP3    H1  192   1.125   3.444   1.922 -1.2929 -0.1592  0.5669
   76TIP3    H2  193   1.182   3.549   2.015 -2.0564  0.9358 -0.1638
   77TIP3   OH2  194   4.529   3.167   2.363 -0.1931 -0.0391  0.5333
   77TIP3    H1  195   4.555   3.257   2.385  0.3367  0.6183 -2.3744
   77TIP3    H2  196   4.465   3.178   2.292  0.1491 -1.9708 -0.1226
   78TIP3   OH2  197   0.179   6.613   5.074 -0.5371 -0.9590  0.3505
   78TIP3    H1  198   0.196   6.527   5.111 -0.3860 -1.9359 -1.8278
   78TIP3    H2  199   0.242   6.621   5.003 -0.1820  1.2060  0.8429
   79TIP3   OH2  200   6.581   2.774   5.081 -0.4591 -0.8256  0.0614
   79TIP3    H1  201   6.641   2.845   5.105 -0.0901 -1.0381 -0.2247
   79TIP3    H2  202   6.561   2.732   5.165 -2.1942  0.7710  0.5116
   80TIP3   OH2  203   6.645   4.539   3.281 -0.0716  0.2211 -0.5879
   80TIP3    H1  204   6.631   4.614   3.224 -1.6708 -1.0966 -2.0394
   80TIP3    H2  205   6.582   4.550   3.352 -0.6243  0.0569 -1.0420
   81TIP3   OH2  206   2.425   1.079   3.288 -0.7094 -0.7275  0.1385
   81TIP3    H1  207   2.448   1.171   3.277  0.0708 -1.0994 -1.7538
   81TIP3    H2  208   2.341   1.081   3.332  0.0106  0.8402  1.5720
   82TIP3   OH2  209   3.558   0.483   5.229  0.0127 -0.0072  0.5416
   82TIP3    H1  210   3.611   0.461   5.306  0.8470 -0.9407 -0.2771
   82TIP3    H2  211   3.518   0.400   5.204  0.7335  0.0213 -0.7568
   83TIP3   OH2  212   4.279   5.867   3.072  0.1351  0.1067 -0.6293
   83TIP3    H1  213   4.361   5.885   3.025  0.0286  1.7825 -0.2087
   83TIP3    H2  214   4.246   5.953   3.098 -0.4998 -0.6756  1.3695
   84TIP3   OH2  215   1.461   3.313   2.881 -0.2893  0.6384 -0.2122
   84TIP3    H1  216   1.455   3.406   2.859 -0.2919  1.0034  1.2297
   84TIP3    H2  217   1.526   3.309   2.951 -0.4837 -0.4165 -0.0773
   85TIP3   OH2  218   5.924   3.508   3.554  0.0509 -0.2508  0.1079
   85TIP3    H1  219   5.882   3.449   3.617  1.5855 -1.8060 -0.2427
   85TIP3    H2  220   6.018   3.501   3.572  0.3082  2.4008  0.2619
   86TIP3   OH2  221   3.365   5.001   0.992 -0.3987 -0.5469 -0.6582
   86TIP3    H1  222   3.332   5.016   1.080  0.8076  1.4217 -0.4812
   86TIP3    H2  223   3.381   4.907   0.988  1.3608 -0.4398  1.9195
   87TIP3   OH2  224   0.825   2.930   0.849 -0.1762  0.1415  0.1284
   87TIP3    H1  225   0.760   2.865   0.822 -1.2771  1.5488 -0.7627
   87TIP3    H2  226   0.837   2.913   0.943 -1.5515 -0.4075  0.2334
   88TIP3   OH2  227   3.319   4.382   2.732 -0.2258  0.5221  0.0962
   88TIP3    H1  228   3.313   4.478   2.731  0.9179  0.6031 -0.7889
   88TIP3    H2  229   3.235   4.353   2.767 -0.9346  1.8200 -0.4735
   89TIP3   OH2  230   4.023   1.737   3.728 -0.5432  0.2871  0.0371
   89TIP3    H1  231   4.052   1.732   3.637 -0.5075  1.4382 -0.0318
   89TIP3    H2  232   3.935   1.775   3.723  0.3368  2.5255  0.5862
   90TIP3   OH2  233   5.454   3.033   3.764 -0.3015 -0.0429  0.3523
   90TIP3    H1  234   5.470   3.126   3.748  1.4080 -0.2625  0.5916
   90TIP3    H2  235   5.498   2.988   3.693 -0.7445 -0.6938  0.4777
   91TIP3   OH2  236   5.049   3.158   1.208 -0.8015 -0.4336 -0.0779
   91TIP3    H1  237   5.061   3.117   1.122 -0.8241 -2.4647  0.8168
   91TIP3    H2  238   4.954   3.156   1.222 -1.1170  2.4303 -1.0896
   92TIP3   OH2  239   2.060   1.990   5.690  0.2669  0.4158  0.2108
   92TIP3    H1  240   2.154   1.974   5.685  0.3681 -0.4103  3.0379
   92TIP3    H2  241   2.020   1.904   5.676 -0.0988  0.7342 -0.8154
   93TIP3   OH2  242   1.825   4.663   5.620  0.0006 -0.3400  0.1894
   93TIP3    H1  243   1.791   4.615   5.545  0.8134  0.4093 -0.6933
   93TIP3    H2  244   1.751   4.714   5.652 -0.9343 -2.3057  1.2950
   94TIP3   OH2  245   2.305   5.846   3.375  0.0840 -0.3083 -0.3070
   94TIP3    H1  246   2.349   5.763   3.355  3.1242  1.1799 -0.3283
   94TIP3    H2  247   2.308   5.853   3.470  0.2622 -0.0114 -0.3329
   95TIP3   OH2  248   0.278   5.273   0.963  0.2463 -0.7053  0.0895
   95TIP3    H1  249   0.207   5.208   0.962  0.5950 -1.0823 -0.2478
   95TIP3    H2  250   0.249   5.340   0.901  0.4151 -1.1100 -0.4342
   96TIP3   OH2  251   5.930   3.009   4.737  0.5615 -0.0246 -0.1552
   96TIP3    H1  252   5.996   3.028   4.671  1.1689  0.4039  0.5465
   96TIP3    H2  253   5.978   3.010   4.820 -0.3204  0.2656  0.3718
   97TIP3   OH2  254   0.206   6.569   4.081 -0.3161  0.0041  0.5169
   97TIP3    H1  255   0.124   6.544   4.039 -0.5073 -1.8184  1.8673
   97TIP3    H2  256   0.180   6.627   4.153 -0.0643  2.3095 -1.1231
   98TIP3   OH2  257   1.533   2.964   2.840  0.3748 -0.2392 -0.3617
   98TIP3    H1  258   1.516   3.007   2.924 -1.6631 -0.2968 -0.7034
   98TIP3    H2  259   1.589   3.026   2.793 -1.8132  1.7458 -0.5274
   99TIP3   OH2  260   4.576   2.436   0.194 -0.2008 -0.0088  0.8218
   99TIP3    H1  261   4.650   2.431   0.255  0.1501  0.7723  0.4821
   99TIP3    H2  262   4.504   2.471   0.247  0.3582  1.5711  0.6037
  100TIP3   OH2  263   5.446   4.639   3.032  0.0522 -0.1068  0.0839
  100TIP3    H1  264   5.388   4.669   3.102 -0.4446 -1.1544  0.1396
  100TIP3    H2  265   5.534   4.644   3.070 -0.1511 -0.0179  0.5512
  101TIP3   OH2  266   6.278   0.066   3.109 -0.5730 -0.5451  0.1218
  101TIP3    H1  267   6.332   0.137   3.144 -1.0690  0.5053 -1.1448
  101TIP3    H2  268   6.223   0.109   3.043 -1.3679 -1.9996 -0.1920
  102TIP3   OH2  269   1.396   1.103   1.026 -0.0901  0.1465 -0.4071
  102TIP3    H1  270   1.352   1.152   0.956  1.7285  0.7839 -1.1495
  102TIP3    H2  271   1.386   1.011   1.001 -0.6919  0.2916 -0.7287
  103TIP3   OH2  272   0.935   6.746   3.220 -0.3291 -0.0764 -0.5102
  103TIP3    H1  273   1.006   6.756   3.284 -0.2725 -2.5363 -0.1034
  103TIP3    H2  274   0.862   6.797   3.256 -0.6339 -2.1729  2.0991
  104TIP3   OH2  275   1.757   0.837   4.967  0.1779  0.4099  0.0477
  104TIP3    H1  276   1.801   0.911   5.010  0.5836  1.2292 -1.7098
  104TIP3    H2  277   1.670   0.870   4.945  0.2677  0.2716 -0.5095
  105TIP3   OH2  278   4.469   6.478   0.025 -0.3793 -0.0716  0.0641
  105TIP3    H1  279   4.529   6.407   0.048  1.1685  1.8403  2.4529
  105TIP3    H2  280   4.446   6.462  -0.066  1.2279 -2.6745  0.0249
  106TIP3   OH2  281   2.325   0.321   5.067  0.0289  0.1201 -0.4501
  106TIP3    H1  282   2.254   0.353   5.123 -0.3040 -0.6838 -0.3932
  106TIP3    H2  283   2.403   0.321   5.123 -0.1717 -0.0777 -0.1636
  107TIP3   OH2  284   3.792   5.606   1.919 -0.2243  0.0660 -0.7072
  107TIP3    H1  285   3.868   5.619   1.863  0.7243 -1.2289  0.2219
  107TIP3    H2  286   3.799   5.515   1.950 -0.9587  0.5772  1.1177
  108TIP3   OH2  287   2.740   4.851   1.677 -0.5284 -0.5169  0.1609
  108TIP3    H1  288   2.778   4.938   1.680 -0.7833 -0.4042  0.1587
  108TIP3    H2  289   2.773   4.813   1.595  0.3761 -0.7939  0.6442
  109TIP3   OH2  290   3.434   3.660   3.971  0.1179 -0.0274 -0.1024
  109TIP3    H1  291   3.457   3.687   3.882 -2.1210 -1.5150 -1.2302
  109TIP3    H2  292   3.343   3.689   3.982  0.0074 -0.7971  1.2914
  110TIP3   OH2  293   1.875   5.582   3.998  0.5196 -0.5854 -0.5098
  110TIP3    H1  294   1.795   5.615   3.957 -0.5775 -1.9533  0.4418
  110TIP3    H2  295   1.918   5.660   4.033 -0.5267  0.1429 -0.8058
  111TIP3   OH2  296   3.233   5.003   5.730 -0.0339  0.7466  0.4350
  111TIP3    H1  297   3.217   4.972   5.820  0.4661  2.3218  1.1069
  111TIP3    H2  298   3.171   4.954   5.677 -0.4461 -0.1273  1.6594
  112TIP3   OH2  299   3.591   4.395   5.829 -0.0046  0.6394  0.5893
  112TIP3    H1  300   3.512   4.387   5.775 -0.0111 -1.7590  0.8561
  112TIP3    H2  301   3.620   4.486   5.816 -1.2322  0.7722 -1.7059
  113TIP3   OH2  302   0.634   5.596   2.080 -0.4676  0.1379  0.0343
  113TIP3    H1  303   0.716   5.597   2.030 -1.3377  3.0126 -1.5872
  113TIP3    H2  304   0.580   5.530   2.036  0.3126 -0.4603 -0.0547
  114TIP3   OH2  305   1.123   3.799   2.618  0.2779  0.1913  0.5256
  114TIP3    H1  306   1.214   3.769   2.625  0.7018  0.7567 -1.6107
  114TIP3    H2  307   1.082   3.736   2.558 -0.1578  1.0902 -0.1383
  115TIP3   OH2  308   2.471   5.767   5.441 -0.2120  0.3740  0.2633
  115TIP3    H1  309   2.452   5.859   5.461  0.6912  0.4028  1.0679
  115TIP3    H2  310   2.544   5.745   5.499  1.3774 -0.0525 -1.7774
  116TIP3   OH2  311   6.552   6.655   1.870 -0.0233 -0.5935  0.0712
  116TIP3    H1  312   6.499   6.641   1.791  0.2835 -0.7911 -0.0994
  116TIP3    H2  313   6.511   6.730   1.912 -1.2139 -1.5013  0.5952
  117TIP3   OH2  314   6.113   5.338   0.591 -0.5152  0.3930  0.0290
  117TIP3    H1  315   6.175   5.362   0.522  0.3623 -2.3189 -0.2394
  117TIP3    H2  316   6.128   5.403   0.660  0.3971  1.6523 -1.2988
  118TIP3   OH2  317   3.588   2.127   2.410 -0.2692  0.4144  0.0870
  118TIP3    H1  318   3.632   2.042   2.406  1.6965  1.3784 -0.0121
  118TIP3    H2  319   3.595   2.162   2.321  1.0175  1.6258  0.6254
  119TIP3   OH2  320   5.558   1.124   5.588  0.5122 -0.1301 -0.1785
  119TIP3    H1  321   5.473   1.125   5.631  0.5735  1.0496 -0.0463
  119TIP3    H2  322   5.544   1.074   5.507 -0.1941 -0.3069  0.0477
  120TIP3   OH2  323   3.929   5.391   5.070  0.0304 -0.2138 -0.5949
  120TIP3    H1  324   4.005   5.421   5.019  0.7751 -0.8474  0.0968
  120TIP3    H2  325   3.900   5.468   5.118  0.3194  0.0048 -0.7673
  121TIP3   OH2  326   1.099   1.925   1.896  0.3179 -0.7619  0.1837
  121TIP3    H1  327   1.158   1.912   1.822  0.9659 -1.1539  0.7550
  121TIP3    H2  328   1.109   1.846   1.949 -0.2209 -0.5379  0.6364
  122TIP3   OH2  329   2.220   3.001   0.027 -0.9285  0.4054  0.2891
  122TIP3    H1  330   2.222   3.087  -0.013 -0.1243  0.6689  0.8892
  122TIP3    H2  331   2.301   2.995   0.078 -1.2757 -0.4494  0.7693
  123TIP3   OH2  332   6.741   6.661   1.714 -0.0283  0.2063 -0.7831
  123TIP3    H1  333   6.817   6.651   1.771 -0.3946  3.6975  0.5617
  123TIP3    H2  334   6.666   6.642   1.769 -0.2743  0.6776 -0.9509
  124TIP3   OH2  335   6.114   6.608   3.367 -0.7518  0.1719 -0.1444
  124TIP3    H1  336   6.126   6.513   3.358 -0.2854  0.3632 -1.8779
  124TIP3    H2  337   6.042   6.628   3.308 -0.3149  1.0124 -0.3995
  125TIP3   OH2  338   5.147   5.865   2.205 -0.3454 -0.5245 -0.2745
  125TIP3    H1  339   5.113   5.852   2.117 -2.6802  0.4462  0.3820
  125TIP3    H2  340   5.171   5.778   2.235  0.7470 -0.8263 -1.9326
  126TIP3   OH2  341   0.219   4.196   4.411  0.3282 -0.0194  0.3663
  126TIP3    H1  342   0.247   4.137   4.341  1.1430  1.4324 -0.5817
  126TIP3    H2  343   0.130   4.221   4.388 -0.6663 -2.1485  1.6774
  127TIP3   OH2  344   6.300   1.743   4.192 -0.2998  0.6402 -0.5832
  127TIP3    H1  345   6.266   1.794   4.265  0.2677  0.3484 -0.0978
  127TIP3    H2  346   6.395   1.739   4.208 -0.2560 -0.0061 -0.9619
  128TIP3   OH2  347   0.493   6.487   4.384  0.1228 -0.3056  0.4338
  128TIP3    H1  348   0.432   6.542   4.337 -1.3546 -2.0350  0.2147
  128TIP3    H2  349   0.568   6.544   4.402  0.0180  0.9061 -2.4273
  129TIP3   OH2  350   1.335   4.385   4.212  1.0706 -0.2274  0.5555
  129TIP3    H1  351   1.246   4.353   4.203  0.3379  0.5202  3.7627
  129TIP3    H2  352   1.362   4.408   4.123 -1.2109 -2.2076 -0.7431
  130TIP3   OH2  353   4.493   4.858   2.601 -0.0129  0.1034 -0.1093
  130TIP3    H1  354   4.473   4.826   2.513  0.6549 -0.6540 -0.0005
  130TIP3    H2  355   4.439   4.936   2.611 -0.2304  0.0992 -1.1232
  131TIP3   OH2  356   3.949   2.105   3.755 -0.3933 -0.4763 -0.4280
  131TIP3    H1  357   3.867   2.145   3.725 -1.6164 -1.3649  1.5348
  131TIP3    H2  358   3.946   2.016   3.721 -0.2618 -0.5112 -0.3491
  132TIP3   OH2  359   7.019   2.283   4.726 -1.0098 -0.6605 -0.5997
  132TIP3    H1  360   6.953   2.266   4.659 -0.7241 -1.6594 -0.6504
  132TIP3    H2  361   7.033   2.198   4.767 -0.6371 -0.2070  0.2262
  133TIP3   OH2  362   2.875   0.411   4.160 -0.0905  0.0018  0.1144
  133TIP3    H1  363   2.900   0.329   4.203  0.6257 -0.8686 -1.8456
  133TIP3    H2  364   2.941   0.474   4.190  0.1421 -0.4616  0.5982
  134TIP3   OH2  365   2.130   0.800   4.804 -1.2664 -0.0055  0.6496
  134TIP3    H1  366   2.109   0.888   4.834 -2.5398 -0.6227  1.7042
  134TIP3    H2  367   2.129   0.806   4.709  1.0660  1.6138  0.6515
  135TIP3   OH2  368   0.855   2.372   2.099 -0.5012 -0.3732  0.1368
  135TIP3    H1  369   0.900   2.426   2.163 -0.2960 -0.2157 -0.1418
  135TIP3    H2  370   0.924   2.340   2.040 -0.6737 -0.5975  0.0524
  136TIP3   OH2  371   4.232   2.862   2.579  1.0944 -0.0048  0.3737
  136TIP3    H1  372   4.251   2.769   2.592 -0.1456 -0.5337 -1.1901
  136TIP3    H2  373   4.191   2.866   2.492  1.1018  2.0076  0.4143
  137TIP3   OH2  374   3.000   3.621   4.663 -0.0141  0.5709 -0.0749
  137TIP3    H1  375   3.034   3.566   4.592 -1.2849  1.3119 -1.3282
  137TIP3    H2  376   3.005   3.566   4.741 -1.6427 -1.5556 -1.3449
  138TIP3   OH2  377   3.916   4.512   5.540  1.0877  0.3073  0.1795
  138TIP3    H1  378   3.881   4.428   5.570 -0.1953  0.5490 -0.5791
  138TIP3    H2  379   3.926   4.564   5.620  2.2058 -0.6515  0.6939
  139TIP3   OH2  380   0.932   5.787   5.319  0.1131  0.4943  0.5379
  139TIP3    H1  381   0.992   5.785   5.244  1.0487  1.6471  1.2059
  139TIP3    H2  382   0.974   5.731   5.385  0.6618  1.5678  1.1290
  140TIP3   OH2  383   0.970   4.628   4.352 -1.0000 -0.0595 -0.1652
  140TIP3    H1  384   1.045   4.611   4.296 -0.0010 -1.2607  1.4558
  140TIP3    H2  385   0.937   4.542   4.376 -0.7617  0.3694  1.8730
  141TIP3   OH2  386   1.585   4.841   0.332  0.1328  0.5975  0.0930
  141TIP3    H1  387   1.626   4.858   0.416  0.7317 -2.6329  0.5953
  141TIP3    H2  388   1.657   4.827   0.271 -0.2515  0.1741 -0.2816
  142TIP3   OH2  389   4.699   3.297   4.659 -0.4967  0.0291  0.0564
  142TIP3    H1  390   4.704   3.229   4.727 -1.7241 -0.7530 -0.5867
  142TIP3    H2  391   4.706   3.379   4.707 -0.9600 -0.5166  1.0971
  143TIP3   OH2  392   6.656   3.424   5.725  0.1506  0.1169  0.0378
  143TIP3    H1  393   6.719   3.353   5.733 -1.1052 -1.1208 -0.5654
  143TIP3    H2  394   6.673   3.462   5.639  0.6696  0.4063  0.2636
  144TIP3   OH2  395   4.087   3.456   1.794 -0.1392 -0.5449 -0.4327
  144TIP3    H1  396   4.161   3.406   1.759  0.0279 -0.8909  0.3977
  144TIP3    H2  397   4.064   3.411   1.875  0.6662  1.2724  0.8742
  145TIP3   OH2  398   4.780   0.853   3.248 -0.2298 -0.1011 -0.2486
  145TIP3    H1  399   4.775   0.767   3.207  0.1787  0.6614 -1.9874
  145TIP3    H2  400   4.779   0.835   3.342  0.7122 -2.0614 -0.5652
  146TIP3   OH2  401   1.827   3.326   0.017 -0.8603 -0.4490 -0.2173
  146TIP3    H1  402   1.904   3.270   0.009 -0.8140 -0.5733  0.9189
  146TIP3    H2  403   1.855   3.398   0.073 -0.9013  0.7935 -1.7069
  147TIP3   OH2  404   1.953   0.317   0.557  0.1850  0.4051  0.0963
  147TIP3    H1  405   1.872   0.270   0.536  0.2573 -0.0721  0.8440
  147TIP3    H2  406   1.978   0.359   0.475 -0.7139  0.4003 -0.1952
  148TIP3   OH2  407   7.034   1.555   4.366 -0.3433  0.1326 -0.4098
  148TIP3    H1  408   7.052   1.481   4.308 -0.4877  0.6543 -1.1443
  148TIP3    H2  409   7.093   1.543   4.440  0.8725  0.1984 -1.3314
  149TIP3   OH2  410   1.524   6.346   0.783 -0.0813  0.3810 -0.1652
  149TIP3    H1  411   1.442   6.393   0.771 -0.2216  0.3025  0.4291
  149TIP3    H2  412   1.550   6.319   0.695 -0.2684  1.1168 -0.4513
  150TIP3   OH2  413   4.728   0.351   5.749  0.8074  0.6932  1.0124
  150TIP3    H1  414   4.734   0.447   5.757  0.0761  0.9264 -0.7622
  150TIP3    H2  415   4.682   0.337   5.666  2.1183 -1.2214  0.5402
  151TIP3   OH2  416   4.317   3.350   5.279 -0.1143 -0.0637  0.0313
  151TIP3    H1  417   4.383   3.406   5.320 -0.0704 -1.3865  1.9016
  151TIP3    H2  418   4.235   3.398   5.291  0.0853  0.1709  0.4965
  152TIP3   OH2  419   3.538   1.907   1.412  0.1762 -0.1487  0.9540
  152TIP3    H1  420   3.504   1.947   1.492  0.5677  0.1117  0.9898
  152TIP3    H2  421   3.560   1.980   1.356 -1.8347 -0.3087 -0.1554
  153TIP3   OH2  422   3.996   4.123   0.125 -0.5693 -0.2255  0.4024
  153TIP3    H1  423   3.938   4.048   0.115 -0.8593  0.1060 -0.5535
  153TIP3    H2  424   4.084   4.086   0.125 -0.7399 -0.6353  0.7584
  154TIP3   OH2  425   5.508   3.195   5.167  0.5735  0.5695 -0.5219
  154TIP3    H1  426   5.561   3.254   5.221  1.0285 -0.5865  0.3523
  154TIP3    H2  427   5.506   3.236   5.080  0.0910  2.3113  0.2765
  155TIP3   OH2  428   4.929   0.723   4.063  0.0868 -0.3417 -0.1635
  155TIP3    H1  429   4.977   0.729   4.145 -1.8273 -0.4273  1.0161
  155TIP3    H2  430   4.904   0.630   4.056 -0.2223 -0.2360 -0.5568
  156TIP3   OH2  431   2.913   1.005   1.909  0.3178  0.1294 -0.2556
  156TIP3    H1  432   2.981   1.010   1.976  1.4403 -0.4191 -1.3122
  156TIP3    H2  433   2.927   0.920   1.867  0.5208  0.9956 -2.0543
  157TIP3   OH2  434   1.165   0.878   4.860 -0.4607  0.4077 -0.4068
  157TIP3    H1  435   1.131   0.966   4.841 -0.1166  0.6718  0.1902
  157TIP3    H2  436   1.207   0.887   4.945  0.6280 -0.0551 -0.8910
  158TIP3   OH2  437   7.154   3.325   2.406  0.1196  0.0175 -0.7280
  158TIP3    H1  438   7.212   3.255   2.374  1.4167  1.6520 -2.1043
  158TIP3    H2  439   7.213   3.390   2.444 -0.9078  1.1977 -1.0951
  159TIP3   OH2  440   4.185   1.309   5.808 -0.2547  0.0037  0.5086
  159TIP3    H1  441   4.234   1.263   5.740 -1.2984 -1.2936  0.5918
  159TIP3    H2  442   4.209   1.401   5.798 -0.8090 -0.0681 -1.9843
  160TIP3   OH2  443   2.663   4.708   2.395  0.2142 -1.3077 -1.1037
  160TIP3    H1  444   2.667   4.614   2.414 -2.1256 -1.6557 -1.9145
  160TIP3    H2  445   2.580   4.737   2.434  1.3782  0.6865  0.0452
  161TIP3   OH2  446   4.141   4.957   0.640 -0.1276  0.5098  0.1299
  161TIP3    H1  447   4.046   4.946   0.637 -0.2084  1.1395  0.1325
  161TIP3    H2  448   4.174   4.909   0.564 -0.6746  2.3335 -1.3374
  162TIP3   OH2  449   0.840   4.766   1.534  0.0383 -0.5828  0.5733
  162TIP3    H1  450   0.806   4.854   1.522  1.0625 -0.3791 -1.2749
  162TIP3    H2  451   0.920   4.777   1.585 -0.6386 -0.6354  1.6641
  163TIP3   OH2  452   6.909   2.596   3.541  0.4916 -0.1405  0.2024
  163TIP3    H1  453   6.920   2.620   3.634  1.3425 -0.3974  0.1746
  163TIP3    H2  454   6.823   2.631   3.518  1.7394  3.2050  0.0925
  164TIP3   OH2  455   5.627   0.159   1.618 -0.0514  0.0268 -0.4549
  164TIP3    H1  456   5.581   0.078   1.640 -0.1280  0.2222  0.1319
  164TIP3    H2  457   5.703   0.160   1.675 -0.0661  0.3817 -0.4380
  165TIP3   OH2  458   3.992   1.635   0.404  0.5278 -0.6592  0.0386
  165TIP3    H1  459   4.088   1.643   0.403  0.5919 -1.1305  1.2987
  165TIP3    H2  460   3.962   1.721   0.434  0.5324 -0.4157 -0.6362
  166TIP3   OH2  461   4.005   3.285   1.479  0.3172 -0.5616 -0.1794
  166TIP3    H1  462   3.933   3.342   1.507  0.5952 -0.0214 -0.5389
  166TIP3    H2  463   4.082   3.343   1.479  0.5406 -0.8553 -0.8671
  167TIP3   OH2  464   3.772   3.738   4.354  0.3773 -0.4086  0.0054
  167TIP3    H1  465   3.850   3.762   4.403 -0.2302  0.7341  0.4534
  167TIP3    H2  466   3.789   3.649   4.324  3.5460  1.0569 -3.3037
  168TIP3   OH2  467   2.687   1.032   0.264  0.5528  0.0810 -0.9957
  168TIP3    H1  468   2.698   0.958   0.324 -0.2265  1.9985  1.7129
  168TIP3    H2  469   2.592   1.043   0.256  0.6546  1.2053 -0.7819
  169TIP3   OH2  470   0.933   4.532   4.890 -0.0767 -0.2811 -0.5918
  169TIP3    H1  471   0.883   4.485   4.957 -1.3899  0.6970 -0.8348
  169TIP3    H2  472   0.929   4.476   4.813 -1.0003 -0.1285 -0.6679
  170TIP3   OH2  473   3.245   0.122   5.294 -0.6780  0.4399 -0.0872
  170TIP3    H1  474   3.307   0.183   5.254 -4.1416  2.9604 -2.1900
  170TIP3    H2  475   3.231   0.055   5.228 -0.5031  0.0915  0.2273
  171TIP3   OH2  476   1.055   6.690   1.699  0.3356  0.0669 -0.4178
  171TIP3    H1  477   0.966   6.666   1.724 -1.0661  4.1519 -0.6748
  171TIP3    H2  478   1.057   6.681   1.604 -0.0698  0.5600 -0.4805
  172TIP3   OH2  479   3.677   2.810   3.539  0.3089  0.3764  0.0136
  172TIP3    H1  480   3.734   2.855   3.476 -1.0944  1.1717 -0.7313
  172TIP3    H2  481   3.698   2.850   3.624  1.3706  0.1315 -0.1236
  173TIP3   OH2  482   6.446   1.478   5.819 -0.4169  0.1254  0.0426
  173TIP3    H1  483   6.462   1.384   5.826  0.0735  0.2867  1.4549
  173TIP3    H2  484   6.528   1.514   5.782 -1.1350 -0.1412 -1.9099
  174TIP3   OH2  485   2.472   4.289   3.718 -0.3343 -0.1943 -0.2637
  174TIP3    H1  486   2.561   4.321   3.702 -0.0289 -1.5540 -1.5702
  174TIP3    H2  487   2.484   4.197   3.741 -1.2855  0.1240  1.7178
  175TIP3   OH2  488   6.021   3.186   1.832  0.1889 -0.2600 -0.1207
  175TIP3    H1  489   5.997   3.194   1.739 -0.6433  2.3346  0.2392
  175TIP3    H2  490   6.112   3.157   1.831  0.4472  0.5013 -1.7847
  176TIP3   OH2  491   5.780   0.524   3.622  0.0550 -0.0643 -0.4262
  176TIP3    H1  492   5.861   0.520   3.673 -0.6455 -0.9510  0.6685
  176TIP3    H2  493   5.723   0.582   3.673 -0.4866 -0.5726 -0.4543
  177TIP3   OH2  494   5.433   0.682   0.436  0.1046 -0.0468 -0.1329
  177TIP3    H1  495   5.404   0.640   0.517 -0.1437 -1.2552 -0.8222
  177TIP3    H2  496   5.356   0.728   0.404 -0.3803 -1.1954 -0.6742
  178TIP3   OH2  497   0.643   6.001   1.505  0.3401  0.5211  0.2978
  178TIP3    H1  498   0.620   6.023   1.415  0.4896 -2.0405 -0.4445
  178TIP3    H2  499   0.721   6.055   1.523  0.1283  1.3102 -0.9647
  179TIP3   OH2  500   3.169   2.477   1.136  0.3794  0.0608  0.1008
  179TIP3    H1  501   3.170   2.418   1.211  0.2323  0.0034  0.0578
  179TIP3    H2  502   3.258   2.476   1.103  0.2593 -0.5261 -0.2064
  180TIP3   OH2  503   1.664   1.618   3.418  0.0597 -0.2764 -0.6418
  180TIP3    H1  504   1.725   1.546   3.405  0.4387  0.2986 -2.2341
  180TIP3    H2  505   1.720   1.696   3.425 -0.4108  0.0422 -0.3145
  181TIP3   OH2  506   5.203   4.614   3.706  0.3331  0.1941 -0.3386
  181TIP3    H1  507   5.223   4.576   3.791 -1.0784  0.8939  0.3474
  181TIP3    H2  508   5.127   4.565   3.674 -0.2989  1.1180 -0.3250
  182TIP3   OH2  509   4.067   0.452   3.394 -0.6015 -0.4133  0.0418
  182TIP3    H1  510   4.007   0.468   3.321 -0.9727 -0.0311  0.4252
  182TIP3    H2  511   4.055   0.527   3.452  0.7934  0.0461 -0.2261
  183TIP3   OH2  512   4.941   0.173   2.090 -0.1975 -0.3056  0.3077
  183TIP3    H1  513   5.026   0.216   2.095  1.2102 -2.7738 -0.5639
  183TIP3    H2  514   4.930   0.152   1.997 -1.0843 -1.2260  0.5952
  184TIP3   OH2  515   4.474   3.219   2.853  0.2135  0.3901 -0.2092
  184TIP3    H1  516   4.460   3.254   2.765  0.2293 -1.1244 -0.8406
  184TIP3    H2  517   4.559   3.254   2.880  0.3001  0.7084 -0.8773
  185TIP3   OH2  518   6.212   4.022   4.504 -0.3243 -0.3159 -0.7493
  185TIP3    H1  519   6.302   4.054   4.501 -0.3790 -0.1431 -0.5327
  185TIP3    H2  520   6.173   4.067   4.578 -0.5061 -0.6079 -0.6653
  186TIP3   OH2  521   1.929   3.160   0.640  0.1554 -0.0555  0.1943
  186TIP3    H1  522   1.944   3.252   0.662  2.2092 -0.4187  0.4693
  186TIP3    H2  523   1.966   3.150   0.552  0.4157 -0.7354  0.3732
  187TIP3   OH2  524   0.423   1.292   5.748  0.1025 -0.0439 -0.8513
  187TIP3    H1  525   0.405   1.220   5.808  0.6417  0.3825 -0.1555
  187TIP3    H2  526   0.345   1.348   5.754  0.1277 -0.0355 -0.5854
  188TIP3   OH2  527   5.555   1.972   5.710 -0.3305  0.4989 -0.0401
  188TIP3    H1  528   5.487   2.039   5.718 -0.6310  0.1872  0.0302
  188TIP3    H2  529   5.613   1.987   5.785 -0.7636  0.2649  0.3435
  189TIP3   OH2  530   6.863   5.711   4.356  0.2266 -0.1074  0.0100
  189TIP3    H1  531   6.870   5.652   4.281 -2.8635  0.8386 -1.1644
  189TIP3    H2  532   6.779   5.690   4.396  1.0221  0.5931  2.2122
  190TIP3   OH2  533   0.520   6.220   4.495 -0.6450 -0.2877  0.5725
  190TIP3    H1  534   0.576   6.225   4.572  0.4079 -2.3404  0.0096
  190TIP3    H2  535   0.551   6.292   4.439 -0.5535  0.4015  1.4786
  191TIP3   OH2  536   3.292   4.122   2.117  0.0048  0.2091 -0.2274
  191TIP3    H1  537   3.229   4.113   2.045  1.1776  1.6675 -1.5162
  191TIP3    H2  538   3.274   4.207   2.155  0.3249  0.0605  0.2605
  192TIP3   OH2  539   3.913   5.323   0.725  0.7793  0.5090 -0.0747
  192TIP3    H1  540   3.913   5.383   0.650  0.5546 -1.0031 -1.3336
  192TIP3    H2  541   3.821   5.300   0.738  0.6439  1.7562  1.5599
  193TIP3   OH2  542   4.083   5.892   4.441  0.2384  0.1630 -0.7660
  193TIP3    H1  543   4.094   5.981   4.474 -0.0487  0.0722 -0.4090
  193TIP3    H2  544   4.052   5.903   4.351 -2.6596  0.5112  0.1549
  194TIP3   OH2  545   0.373   3.793   3.998 -0.0170 -0.5218  0.3430
  194TIP3    H1  546   0.343   3.708   4.030 -0.7549  0.6061  2.8969
  194TIP3    H2  547   0.450   3.773   3.944 -0.4060 -2.8036  0.5445
  195TIP3   OH2  548   6.913   6.378   1.881 -0.1532 -0.6227  0.3022
  195TIP3    H1  549   6.846   6.309   1.886 -1.7486  0.8883  0.7123
  195TIP3    H2  550   6.934   6.397   1.972  0.3406 -0.6229  0.1888
  196TIP3   OH2  551   6.141   0.248   5.526  0.4116  0.5449 -0.5193
  196TIP3    H1  552   6.138   0.286   5.438  0.3417  1.8110  0.0018
  196TIP3    H2  553   6.147   0.324   5.584 -0.1848 -0.2395  0.6010
  197TIP3   OH2  554   1.267   6.693   3.732  0.1650  0.0611  0.0881
  197TIP3    H1  555   1.273   6.778   3.688 -0.7782 -1.2637 -2.8911
  197TIP3    H2  556   1.199   6.705   3.799 -0.2462  1.5595 -0.5645
  198TIP3   OH2  557   5.549   0.785   2.629  0.3192  0.0353  0.0501
  198TIP3    H1  558   5.536   0.871   2.588  0.1454 -0.0905 -0.1639
  198TIP3    H2  559   5.640   0.762   2.610 -0.2216 -0.7802 -1.7425
  199TIP3   OH2  560   3.319   0.714   3.873  0.0496  0.1150 -0.4713
  199TIP3    H1  561   3.241   0.666   3.898 -0.4379  0.4726 -1.2610
  199TIP3    H2  562   3.386   0.685   3.935 -1.0804  0.9507  1.2248
  200TIP3   OH2  563   3.601   5.602   4.077  0.5716 -0.3670  0.1557
  200TIP3    H1  564   3.593   5.618   4.172 -0.7465 -0.0295  0.0087
  200TIP3    H2  565   3.512   5.614   4.044  0.6053 -2.4759 -0.8429
  201TIP3   OH2  566   4.941   3.174   0.539 -0.0058  0.1691  0.0720
  201TIP3    H1  567   4.914   3.160   0.630 -2.2939 -2.5142 -0.8623
  201TIP3    H2  568   5.016   3.116   0.526 -0.2843 -0.1809  0.0136
  202TIP3   OH2  569   7.023   5.500   1.642 -0.0807 -0.5621 -0.4533
  202TIP3    H1  570   6.933   5.481   1.615 -0.2914  0.0420 -0.1910
  202TIP3    H2  571   7.072   5.507   1.560  0.0056 -2.1437 -0.5713
  203TIP3   OH2  572   7.106   5.066   2.687 -0.1495  0.1176 -0.2646
  203TIP3    H1  573   7.171   4.999   2.665 -1.1028 -1.0439  0.3154
  203TIP3    H2  574   7.060   5.083   2.605 -1.5747 -1.8594  0.0339
  204TIP3   OH2  575   2.610   6.424   5.152  0.1065 -0.2122 -0.1590
  204TIP3    H1  576   2.663   6.491   5.197 -0.3172 -0.6065  0.9615
  204TIP3    H2  577   2.603   6.352   5.215 -1.3705 -0.3673 -0.4530
  205TIP3   OH2  578   4.054   3.130   1.792  0.2907 -0.3146 -0.2488
  205TIP3    H1  579   4.023   3.180   1.867  1.5061 -0.4224  0.3580
  205TIP3    H2  580   4.101   3.194   1.738  1.5425 -0.7015  0.3510
  206TIP3   OH2  581   6.786   5.548   0.614 -0.2052 -0.2752 -0.4517
  206TIP3    H1  582   6.875   5.533   0.585 -0.9238 -0.7387 -2.6208
  206TIP3    H2  583   6.734   5.479   0.572 -1.6983  0.5012  0.0165
  207TIP3   OH2  584   0.125   0.619   1.495 -0.4649 -0.1681 -0.2829
  207TIP3    H1  585   0.196   0.656   1.442 -0.1310 -1.1406 -0.5464
  207TIP3    H2  586   0.170   0.570   1.564 -0.8915 -0.0159  0.1090
  208TIP3   OH2  587   0.017   6.712   2.016  0.3765 -0.4178  0.6726
  208TIP3    H1  588   0.048   6.790   1.970  0.7094 -0.0963  1.4334
  208TIP3    H2  589  -0.044   6.671   1.954  2.1131 -0.9479 -0.7514
  209TIP3   OH2  590   5.607   3.759   5.604 -0.0413  0.3212 -0.1540
  209TIP3    H1  591   5.543   3.760   5.675  1.1299  1.1155  0.9272
  209TIP3    H2  592   5.586   3.836   5.552  0.8781  1.4109  1.0205
  210TIP3   OH2  593   2.713   5.330   3.119  0.3343 -0.1553  0.0681
  210TIP3    H1  594   2.684   5.380   3.195  1.9546  0.0369  0.6123
  210TIP3    H2  595   2.652   5.257   3.114 -0.4328  0.3932  0.9160
  211TIP3   OH2  596   2.406  -0.037   4.212 -0.0718  0.1913 -0.0633
  211TIP3    H1  597   2.395   0.019   4.289 -0.0230  0.4962 -0.2778
  211TIP3    H2  598   2.430   0.023   4.141  2.1762 -0.3254  0.1938
  212TIP3   OH2  599   5.271   2.586   5.822 -0.0588  0.1314 -0.2995
  212TIP3    H1  600   5.295   2.545   5.739  3.5199  2.3375 -0.5517
  212TIP3    H2  601   5.230   2.669   5.798 -1.7588 -0.5051  0.2249
  213TIP3   OH2  602   4.710   1.166   1.494 -0.2725  0.4249 -0.2974
  213TIP3    H1  603   4.758   1.235   1.450  0.1468  0.8992  0.8594
  213TIP3    H2  604   4.656   1.212   1.559  0.8785 -0.3559  1.2967
  214TIP3   OH2  605   2.841   5.983   5.097  0.3523  0.3465  0.5860
  214TIP3    H1  606   2.816   6.051   5.159  0.0472 -0.7021  1.6515
  214TIP3    H2  607   2.795   5.904   5.127 -2.6416  0.4788 -2.9571
  215TIP3   OH2  608   1.277   2.808   3.341  0.2348 -0.2125 -0.1507
  215TIP3    H1  609   1.208   2.828   3.405 -0.6976  0.1942 -1.2522
  215TIP3    H2  610   1.238   2.741   3.285  0.1583  1.0801 -1.6933
  216TIP3   OH2  611   3.100   3.817   1.772 -0.1809 -0.0128 -0.1979
  216TIP3    H1  612   3.182   3.776   1.744  0.8166  0.3160  2.0101
  216TIP3    H2  613   3.055   3.838   1.690  1.3244 -1.3736 -1.4634
  217TIP3   OH2  614   4.834   4.959   2.726 -0.3113 -0.1798  0.3076
  217TIP3    H1  615   4.927   4.965   2.749 -0.4202  1.5505  0.3835
  217TIP3    H2  616   4.835   4.935   2.633  0.1664 -1.7487  0.6826
  218TIP3   OH2  617   3.424   2.695   1.172 -0.0027 -0.3531 -0.6737
  218TIP3    H1  618   3.513   2.677   1.141 -0.8001 -0.8721 -2.8081
  218TIP3    H2  619   3.414   2.639   1.250  1.0240 -1.4736 -1.3070
  219TIP3   OH2  620   2.084   2.178   0.295  0.4829  0.0261 -0.6096
  219TIP3    H1  621   2.145   2.221   0.236 -0.5950  0.0644 -1.7425
  219TIP3    H2  622   2.004   2.230   0.290  0.4436  0.1928  1.1216
  220TIP3   OH2  623   3.979   1.389   3.098  0.2907  0.5808 -0.2382
  220TIP3    H1  624   4.062   1.379   3.144  0.1618 -2.6605 -0.4893
  220TIP3    H2  625   3.912   1.377   3.165 -0.0025  1.8913 -0.2689
  221TIP3   OH2  626   2.074   5.205   2.157  0.2591  0.0049 -0.3402
  221TIP3    H1  627   2.011   5.186   2.227  0.4569 -1.4816 -0.5271
  221TIP3    H2  628   2.159   5.206   2.201  0.1767  1.5083 -0.1727
  222TIP3   OH2  629   7.173   2.765   0.033 -0.1209 -0.2429 -0.1628
  222TIP3    H1  630   7.112   2.802   0.097 -0.7656 -0.2815 -0.7440
  222TIP3    H2  631   7.250   2.742   0.084 -1.0342 -1.2875  0.7934
  223TIP3   OH2  632   4.259   2.821   4.754  0.0796 -0.3715 -0.9544
  223TIP3    H1  633   4.212   2.767   4.690  0.0220 -1.5683  0.0549
  223TIP3    H2  634   4.196   2.887   4.782 -0.6373 -1.2412 -0.4796
  224TIP3   OH2  635   5.289   2.992   2.193  0.4892  0.0624 -0.4416
  224TIP3    H1  636   5.217   3.033   2.145  0.3550 -1.8179 -1.9652
  224TIP3    H2  637   5.331   3.064   2.239 -1.3749  1.4565 -0.7967
  225TIP3   OH2  638   5.737   1.219   2.135  0.5800 -1.0102 -0.0887
  225TIP3    H1  639   5.829   1.194   2.146  0.9399 -0.4947 -1.7170
  225TIP3    H2  640   5.740   1.303   2.089 -0.6497  0.8047  2.8422
  226TIP3   OH2  641   3.480   0.194   4.279 -0.2560  0.2085 -0.0332
  226TIP3    H1  642   3.413   0.130   4.255 -0.5170  0.5037 -0.0982
  226TIP3    H2  643   3.477   0.196   4.375 -0.2672  0.1478 -0.0321
  227TIP3   OH2  644   6.457   1.755   1.041 -0.1717  0.3344 -0.2914
  227TIP3    H1  645   6.408   1.708   0.974 -1.0860  2.6827 -1.3982
  227TIP3    H2  646   6.534   1.788   0.995  1.6629 -1.8506  1.0148
  228TIP3   OH2  647   6.055   4.748   3.163  0.5223 -0.1552  0.1640
  228TIP3    H1  648   6.057   4.831   3.115  0.7908 -0.4030 -0.2615
  228TIP3    H2  649   6.130   4.699   3.129  1.4428  0.1345  1.7148
  229TIP3   OH2  650  -0.020   0.247   0.993  0.6931 -0.0522 -0.8578
  229TIP3    H1  651   0.041   0.280   0.928  0.9886 -0.9164 -1.0261
  229TIP3    H2  652   0.021   0.167   1.027  0.0296 -0.2153 -0.4120
  230TIP3   OH2  653   4.327   0.050   4.522 -0.1771 -0.1828 -0.3724
  230TIP3    H1  654   4.386   0.039   4.597 -0.6622  3.1374  0.6752
  230TIP3    H2  655   4.372   0.112   4.465 -1.6963  0.8063 -0.5671
  231TIP3   OH2  656   2.406   2.266   5.003  0.2558  0.5611  0.1067
  231TIP3    H1  657   2.395   2.181   4.961  0.1980  1.1558 -1.1525
  231TIP3    H2  658   2.479   2.255   5.063  0.2260 -0.3846 -0.0247
  232TIP3   OH2  659   6.668   0.179   3.099 -0.3869  0.4566 -0.3087
  232TIP3    H1  660   6.648   0.230   3.177 -1.3080 -0.1065 -0.1622
  232TIP3    H2  661   6.741   0.123   3.125 -0.4054  0.5782  0.0059
  233TIP3   OH2  662   5.397   1.489   0.864 -0.0598  0.4176  0.2343
  233TIP3    H1  663   5.473   1.453   0.820 -1.5499 -0.9813 -1.3540
  233TIP3    H2  664   5.367   1.559   0.805 -0.1645  0.7783  0.7121
  234TIP3   OH2  665   5.226   1.464   1.223 -0.0420 -0.8623  0.4695
  234TIP3    H1  666   5.294   1.485   1.286  0.1989  0.2476 -0.1301
  234TIP3    H2  667   5.164   1.537   1.229 -0.9428 -1.6270  0.6771
  235TIP3   OH2  668   4.817   2.241   5.244  0.1946 -0.3337 -0.1161
  235TIP3    H1  669   4.865   2.252   5.161  0.0263 -4.0937 -0.8805
  235TIP3    H2  670   4.741   2.187   5.221 -1.1051  0.3828  2.1653
  236TIP3   OH2  671   0.821   0.560   3.220 -0.0939 -0.1136 -0.2785
  236TIP3    H1  672   0.736   0.592   3.250  1.0937  2.7407  0.4643
  236TIP3    H2  673   0.882   0.587   3.290  1.7752  0.4801 -2.0419
  237TIP3   OH2  674   6.440   5.698   5.388 -0.2641 -0.3134  0.4605
  237TIP3    H1  675   6.460   5.629   5.451  1.3949 -0.8891 -0.6221
  237TIP3    H2  676   6.489   5.773   5.419 -2.4544  0.6304  1.9137
  238TIP3   OH2  677   3.391   4.116   4.786  0.7542 -0.3785 -0.5429
  238TIP3    H1  678   3.414   4.087   4.698 -1.3561 -1.5619 -0.7844
  238TIP3    H2  679   3.301   4.148   4.778  0.6082 -0.2792  1.1264
  239TIP3   OH2  680   1.349   2.094   1.806 -0.2474 -1.0220  0.1946
  239TIP3    H1  681   1.414   2.152   1.845 -1.2060  0.8658 -0.8781
  239TIP3    H2  682   1.368   2.008   1.843  1.9091 -0.2457  1.0259
  240TIP3   OH2  683   2.346   4.205   5.791  0.3846  0.4943 -0.6152
  240TIP3    H1  684   2.303   4.121   5.778  1.1805  0.3201 -2.4451
  240TIP3    H2  685   2.330   4.254   5.710  2.1397  1.0655 -0.6742
  241TIP3   OH2  686   2.731   1.262   3.707  0.0307 -0.1002  0.0327
  241TIP3    H1  687   2.742   1.342   3.759 -0.7494  0.3896 -0.5374
  241TIP3    H2  688   2.821   1.234   3.688  0.3851 -0.8489  2.4381
  242TIP3   OH2  689   2.715   0.369   4.882 -0.0632 -0.3441  0.5572
  242TIP3    H1  690   2.685   0.455   4.853  0.0393 -0.6305 -0.4399
  242TIP3    H2  691   2.764   0.335   4.807  2.5113 -0.0271  1.9595
  243TIP3   OH2  692   2.261   1.961   2.763  0.2975 -0.4582  0.4540
  243TIP3    H1  693   2.196   1.902   2.725  0.1136 -0.0916  0.1936
  243TIP3    H2  694   2.236   1.969   2.855  0.9260 -1.5990  0.7429
  244TIP3   OH2  695   3.641   3.873   5.796  0.4685  0.0085  0.2284
  244TIP3    H1  696   3.620   3.966   5.808  1.6964  0.6713 -2.0994
  244TIP3    H2  697   3.701   3.852   5.868 -1.4497  0.3498  2.0396
  245TIP3   OH2  698   5.686   2.522   4.187  0.3076 -0.0089 -0.7845
  245TIP3    H1  699   5.729   2.553   4.267 -0.8940 -0.2419 -0.0320
  245TIP3    H2  700   5.667   2.430   4.205 -1.7827  0.4289 -0.5140
  246TIP3   OH2  701   2.747   1.185   0.505 -0.1295 -0.2600 -0.5141
  246TIP3    H1  702   2.686   1.182   0.579  1.5951 -3.4451  1.0108
  246TIP3    H2  703   2.708   1.128   0.439  0.2386 -0.7496 -0.3205
  247TIP3   OH2  704   1.094   5.385   2.155 -0.9907  0.2248 -0.6202
  247TIP3    H1  705   1.067   5.342   2.073 -0.3926 -0.9660 -0.2131
  247TIP3    H2  706   1.013   5.391   2.206 -0.7524 -2.6223  0.2784
  248TIP3   OH2  707   3.712   1.140   0.518 -0.5004 -0.0099  0.0675
  248TIP3    H1  708   3.750   1.079   0.455  0.5823 -0.6980  1.3426
  248TIP3    H2  709   3.618   1.133   0.503 -0.2339  0.8718 -2.3751
  249TIP3   OH2  710   2.539   5.479   1.799 -0.3005 -0.1760 -0.1551
  249TIP3    H1  711   2.620   5.530   1.790  0.0450 -0.5563  0.6800
  249TIP3    H2  712   2.567   5.389   1.784 -0.3531 -0.4296  1.1915
  250TIP3   OH2  713   4.693   2.792   2.791  0.3750 -0.2471 -0.1037
  250TIP3    H1  714   4.738   2.877   2.788  1.2001 -0.6863 -1.6175
  250TIP3    H2  715   4.601   2.814   2.779  0.6300  0.4236 -0.9718
  251TIP3   OH2  716   4.283   1.308   0.792  0.8013 -0.4588 -0.0774
  251TIP3    H1  717   4.363   1.354   0.768  0.8884  0.0537  1.1585
  251TIP3    H2  718   4.215   1.376   0.790  0.6507 -0.6002  0.2519
  252TIP3   OH2  719   0.418   4.355   3.661  0.0870 -0.0679  0.3897
  252TIP3    H1  720   0.334   4.399   3.658 -0.9159 -1.9094 -0.3349
  252TIP3    H2  721   0.397   4.264   3.681  1.9788 -0.4174  1.0031
  253TIP3   OH2  722   5.934   0.568   1.459 -0.0058 -0.3163  0.2036
  253TIP3    H1  723   5.934   0.480   1.497 -0.0230 -0.2910  0.2617
  253TIP3    H2  724   6.014   0.571   1.406 -0.6719 -0.8359 -0.8733
  254TIP3   OH2  725   3.188   0.441   3.233  0.2638 -0.6970  0.0374
  254TIP3    H1  726   3.097   0.430   3.258  0.1123 -1.0578 -0.6527
  254TIP3    H2  727   3.190   0.421   3.139  0.3675  2.8701 -0.8792
  255TIP3   OH2  728   0.902   1.058   5.765 -0.5603 -0.0260 -0.0442
  255TIP3    H1  729   0.890   1.007   5.685  2.8414  0.0430 -0.7219
  255TIP3    H2  730   0.833   1.125   5.761 -1.4671 -0.9960 -2.0959
  256TIP3   OH2  731   5.982   4.399   5.856 -0.2090 -0.3519  0.5483
  256TIP3    H1  732   6.035   4.322   5.837 -0.3431 -0.5927  1.1436
  256TIP3    H2  733   6.033   4.449   5.919 -0.4397 -0.3145  0.7074
  257TIP3   OH2  734   0.116   3.058   2.997  0.4420 -0.7479 -0.6759
  257TIP3    H1  735   0.163   3.142   3.007 -2.5449  0.9314  0.5382
  257TIP3    H2  736   0.101   3.029   3.087 -2.5034 -0.1122 -0.8664
  258TIP3   OH2  737   0.561   5.697   0.104 -0.2295  0.6334  0.8088
  258TIP3    H1  738   0.627   5.754   0.063 -1.0602  0.9808 -0.0972
  258TIP3    H2  739   0.574   5.612   0.063 -0.9681  0.9457 -0.1146
  259TIP3   OH2  740   2.060   5.163   4.278 -0.6918  0.1014  0.7934
  259TIP3    H1  741   2.059   5.250   4.318 -0.6486  1.0799 -1.2126
  259TIP3    H2  742   2.152   5.138   4.275 -0.4544  1.0391 -0.6945
  260TIP3   OH2  743   6.151   2.680   4.375  0.0380  0.2931 -0.2440
  260TIP3    H1  744   6.055   2.680   4.380  0.0631  0.0080  0.3600
  260TIP3    H2  745   6.179   2.719   4.458  0.4547 -0.5239  0.0106
  261TIP3   OH2  746   6.622   2.895   1.446 -0.0175  0.0239 -0.2144
  261TIP3    H1  747   6.540   2.926   1.408 -0.4041 -1.0626 -0.2962
  261TIP3    H2  748   6.637   2.810   1.404  0.6831 -0.1937  0.4609
  262TIP3   OH2  749   4.065   4.590   4.719 -0.0797  0.4716  0.5268
  262TIP3    H1  750   4.067   4.601   4.624  0.7672  0.5497  0.5459
  262TIP3    H2  751   4.039   4.499   4.733 -0.1194  0.4359  0.2186
  263TIP3   OH2  752   1.261   6.318   4.927  0.5952 -0.5399 -0.2994
  263TIP3    H1  753   1.220   6.294   5.010 -0.1265 -1.8255 -1.0001
  263TIP3    H2  754   1.354   6.301   4.941  0.6899  0.6614  0.7045
  264TIP3   OH2  755   0.244   3.962   4.750 -0.1573  0.1085  0.1272
  264TIP3    H1  756   0.325   3.914   4.766 -2.0027 -3.2659  0.4913
  264TIP3    H2  757   0.232   3.958   4.655 -0.1859  0.0420  0.1332
  265TIP3   OH2  758   0.328   2.473   5.542  0.3132 -0.1032 -0.8615
  265TIP3    H1  759   0.261   2.494   5.476 -1.4947 -0.0774  0.8897
  265TIP3    H2  760   0.379   2.403   5.502 -1.1487 -0.5642 -2.0312
  266TIP3   OH2  761   2.194   5.426   0.078 -0.7700 -0.2825 -0.3958
  266TIP3    H1  762   2.259   5.370   0.036  0.3023  1.5059 -1.2327
  266TIP3    H2  763   2.230   5.444   0.165 -1.2788 -1.1166  0.0031
  267TIP3   OH2  764   3.321   4.067   5.887 -0.0260  0.2293 -0.2181
  267TIP3    H1  765   3.279   4.128   5.826 -0.3108  1.0560  0.7632
  267TIP3    H2  766   3.415   4.088   5.881  0.0403 -0.2494 -0.9506
  268TIP3   OH2  767   6.131   5.086   2.793 -0.4609  0.5178 -0.5067
  268TIP3    H1  768   6.224   5.086   2.773  0.2215  0.9135  2.2209
  268TIP3    H2  769   6.098   5.004   2.756  0.9318  0.3981 -1.5567
  269TIP3   OH2  770   5.211   1.641   4.629  0.2396 -0.3059 -0.1943
  269TIP3    H1  771   5.215   1.551   4.664 -2.5840 -1.2707 -2.0664
  269TIP3    H2  772   5.274   1.641   4.557  0.2501 -0.8082 -0.1921
  270TIP3   OH2  773   1.466   1.744   1.097 -0.1854 -0.5334  0.6427
  270TIP3    H1  774   1.512   1.806   1.154  0.8942 -1.1848  0.4925
  270TIP3    H2  775   1.448   1.795   1.018  1.7357 -0.6859  0.0451
  271TIP3   OH2  776   5.365   5.626   5.595 -0.6346  0.4669  0.1943
  271TIP3    H1  777   5.378   5.541   5.637 -0.7735  0.9416  1.2362
  271TIP3    H2  778   5.405   5.617   5.508 -1.1282 -0.8213  0.0861
  272TIP3   OH2  779   4.726   4.810   4.727  0.2606  0.5160 -0.6741
  272TIP3    H1  780   4.721   4.752   4.803  2.5815 -0.4393 -1.1592
  272TIP3    H2  781   4.692   4.758   4.654 -0.8744  1.0306 -0.5452
  273TIP3   OH2  782   3.619   3.808   5.313  0.6388 -0.2073 -0.4679
  273TIP3    H1  783   3.613   3.728   5.261  1.1107 -1.6338  1.5131
  273TIP3    H2  784   3.677   3.784   5.386 -0.1192  1.6120  0.8026
  274TIP3   OH2  785   0.202   0.811   3.770  0.0188 -0.0202 -0.3960
  274TIP3    H1  786   0.237   0.765   3.694 -0.3241  0.7841 -1.0431
  274TIP3    H2  787   0.280   0.829   3.824  0.0575 -2.2223  0.3832
  275TIP3   OH2  788   3.079   2.414   4.672  0.0388 -0.2527  0.1270
  275TIP3    H1  789   3.094   2.472   4.597  1.5005 -1.5090 -0.6375
  275TIP3    H2  790   3.085   2.326   4.635 -2.4652 -0.9344  1.1822
  276TIP3   OH2  791   5.579   5.107   1.149 -0.4358  0.0787  0.0502
  276TIP3    H1  792   5.655   5.075   1.198 -1.2958 -1.1476  0.6447
  276TIP3    H2  793   5.610   5.115   1.059  1.2482  2.6012  0.7655
  277TIP3   OH2  794   5.852   5.154   3.836  0.2749 -0.3801  0.1831
  277TIP3    H1  795   5.905   5.120   3.764 -0.2586  0.9457 -0.8687
  277TIP3    H2  796   5.807   5.077   3.870 -1.2927 -0.7504 -2.4658
  278TIP3   OH2  797   6.327   4.438   0.160 -0.4225  0.5614  0.2937
  278TIP3    H1  798   6.324   4.487   0.078 -0.6918 -0.1940 -0.1613
  278TIP3    H2  799   6.380   4.492   0.219  5.6325 -1.6582 -2.2957
  279TIP3   OH2  800   6.885   2.020   3.952  0.3874  0.4563 -0.2766
  279TIP3    H1  801   6.848   1.950   3.897  1.4333 -0.1001 -0.3005
  279TIP3    H2  802   6.934   1.973   4.020  0.9819  1.1731 -0.2042
  280TIP3   OH2  803   1.199   0.741   0.007 -0.2483 -0.6801  0.3220
  280TIP3    H1  804   1.259   0.713   0.076  1.7544 -0.2408 -1.1679
  280TIP3    H2  805   1.206   0.836   0.005 -1.5926 -0.5481  0.6051
  281TIP3   OH2  806   0.797   4.253   4.208  0.3723 -0.7854 -0.0786
  281TIP3    H1  807   0.717   4.205   4.233 -0.4813  0.0856 -1.0807
  281TIP3    H2  808   0.790   4.337   4.253  0.7074 -0.6859 -0.2081
  282TIP3   OH2  809   3.774   6.407   0.677  0.0519 -0.2101 -0.4242
  282TIP3    H1  810   3.737   6.405   0.588 -0.7435  0.0524 -0.1123
  282TIP3    H2  811   3.852   6.352   0.671 -1.3805 -2.3834 -0.6890
  283TIP3   OH2  812   6.828   3.352   4.972 -0.2573 -0.1233  0.4128
  283TIP3    H1  813   6.881   3.430   4.957 -0.0073 -0.5788 -1.1878
  283TIP3    H2  814   6.881   3.279   4.941 -1.3764 -0.7062 -0.2178
  284TIP3   OH2  815   3.806   0.800   3.326 -0.0414  0.0512  0.3943
  284TIP3    H1  816   3.888   0.800   3.276 -0.6928  1.1565 -0.7365
  284TIP3    H2  817   3.777   0.709   3.325  0.6507 -0.1707 -0.0778
  285TIP3   OH2  818   0.306   4.695   1.777 -0.1210  0.4671 -0.5256
  285TIP3    H1  819   0.378   4.658   1.827  0.5859  1.4379 -0.7908
  285TIP3    H2  820   0.288   4.632   1.708 -0.4874 -0.4483  0.3747
  286TIP3   OH2  821   7.052   5.069   2.146 -0.5351  0.4732 -0.2846
  286TIP3    H1  822   6.986   5.116   2.095 -0.3831  1.3287  0.2862
  286TIP3    H2  823   7.126   5.059   2.087 -0.8070  0.3824 -0.6136
  287TIP3   OH2  824   3.678   2.714   0.029 -0.6017  0.2953 -0.2572
  287TIP3    H1  825   3.765   2.715  -0.010 -1.2405 -1.6147 -1.8657
  287TIP3    H2  826   3.685   2.652   0.101 -0.5026  0.5977 -0.0018
  288TIP3   OH2  827   7.213   2.535   4.511 -0.1244  0.1919  0.5565
  288TIP3    H1  828   7.172   2.514   4.427  0.2625  2.7678 -0.3495
  288TIP3    H2  829   7.199   2.456   4.564 -0.6808 -1.3889 -1.7713
  289TIP3   OH2  830   5.470   2.227   1.110 -0.5528  0.4901  0.2573
  289TIP3    H1  831   5.525   2.298   1.076 -2.5318  1.1374 -1.8866
  289TIP3    H2  832   5.504   2.148   1.068  0.7008  0.3623  1.4583
  290TIP3   OH2  833   4.363   0.493   1.647  0.0979 -0.0949 -0.2650
  290TIP3    H1  834   4.288   0.505   1.705 -0.7348 -1.1673 -1.0656
  290TIP3    H2  835   4.415   0.424   1.689 -0.6661 -1.0941 -0.8904
  291TIP3   OH2  836   5.086   0.332   1.780  0.4217 -0.0957  0.3382
  291TIP3    H1  837   5.049   0.246   1.763  0.6904 -0.2738  0.6453
  291TIP3    H2  838   5.011   0.385   1.807  0.4173 -0.5049  1.1429
  292TIP3   OH2  839   1.056   3.779   3.863 -0.1282  0.1096 -0.1464
  292TIP3    H1  840   1.022   3.869   3.861 -0.0552  0.1414 -1.8368
  292TIP3    H2  841   1.011   3.735   3.791  1.5086 -0.5496 -0.8288
  293TIP3   OH2  842   2.860   5.425   1.952 -1.1509  0.4158 -0.3409
  293TIP3    H1  843   2.804   5.485   1.903  0.9534  2.4862 -0.3837
  293TIP3    H2  844   2.852   5.454   2.043 -0.1543  0.7404 -0.3515
  294TIP3   OH2  845   7.034   3.760   4.736  0.7914 -0.1580  0.3592
  294TIP3    H1  846   7.039   3.818   4.659  1.5332 -0.2831  0.3068
  294TIP3    H2  847   7.123   3.725   4.745  0.1608 -1.9661 -0.1218
  295TIP3   OH2  848   2.034   1.136   3.161 -0.4442  0.2872  0.4710
  295TIP3    H1  849   2.059   1.223   3.132  2.5958 -0.7875 -0.6165
  295TIP3    H2  850   1.944   1.125   3.132 -0.2090  2.2954 -1.2232
  296TIP3   OH2  851   7.068   0.769   0.425  0.0234  0.0577 -0.7563
  296TIP3    H1  852   6.997   0.829   0.406 -1.2425  0.8116  4.6775
  296TIP3    H2  853   7.028   0.682   0.418 -0.3804  0.2810 -1.2724
  297TIP3   OH2  854   5.187   1.116   4.732  0.8412 -0.3211 -0.4238
  297TIP3    H1  855   5.173   1.050   4.665  3.3419 -0.9826 -0.3847
  297TIP3    H2  856   5.192   1.199   4.684  1.2826 -0.6203 -0.8952
  298TIP3   OH2  857   4.198   6.027   0.772  0.0647  0.4822  0.0786
  298TIP3    H1  858   4.138   6.055   0.702  1.1625  1.8758 -0.3345
  298TIP3    H2  859   4.285   6.032   0.733  0.7199  1.3952  1.5765
  299TIP3   OH2  860   6.391   2.771   0.260  0.4308  0.2841 -0.3367
  299TIP3    H1  861   6.378   2.755   0.354  2.2470  1.2988  0.1319
  299TIP3    H2  862   6.463   2.834   0.256  1.1424 -0.5679 -2.4573
  300TIP3   OH2  863   2.750   1.803   3.209  0.7511  0.6148  0.0829
  300TIP3    H1  864   2.675   1.859   3.192 -0.9248 -1.1494  1.1613
  300TIP3    H2  865   2.763   1.753   3.128 -0.3863 -0.2664  0.4118
  301TIP3   OH2  866   5.511   4.698   2.104  0.4223  0.2047  0.1406
  301TIP3    H1  867   5.516   4.611   2.144  0.0345  0.2792  0.3569
  301TIP3    H2  868   5.569   4.693   2.028  0.2133 -0.3198  0.0109
  302TIP3   OH2  869   3.653   6.406   5.134 -0.3340  0.4369 -0.2710
  302TIP3    H1  870   3.703   6.416   5.053 -1.4048  0.5130 -0.9275
  302TIP3    H2  871   3.691   6.471   5.193  1.3709 -0.5314 -0.2271
  303TIP3   OH2  872   0.247   2.200   5.411 -0.2115  0.3784  0.4190
  303TIP3    H1  873   0.176   2.184   5.473  1.1957  0.4383  2.1140
  303TIP3    H2  874   0.204   2.239   5.335 -2.3172 -1.7970  0.3638
  304TIP3   OH2  875   3.430   4.211   4.271 -0.3534  0.2994  0.4639
  304TIP3    H1  876   3.386   4.137   4.312  1.1427 -1.8716 -1.6072
  304TIP3    H2  877   3.519   4.208   4.304  0.1660  0.1048 -0.8652
  305TIP3   OH2  878   6.393   4.264   3.536 -0.1317 -0.2289  0.2485
  305TIP3    H1  879   6.391   4.212   3.455  1.7782 -3.2117  1.9251
  305TIP3    H2  880   6.367   4.202   3.604  2.4538  0.9185  2.4257
  306TIP3   OH2  881   2.226   5.611   4.889 -0.4130  0.2027 -0.5627
  306TIP3    H1  882   2.244   5.566   4.972  0.6048  0.0495 -0.8530
  306TIP3    H2  883   2.131   5.614   4.884 -0.4935  0.1691  0.5888
  307TIP3   OH2  884   6.114   5.496   3.788 -0.1182 -0.2100 -0.2843
  307TIP3    H1  885   6.038   5.517   3.733  1.3210  0.0284 -2.2863
  307TIP3    H2  886   6.176   5.567   3.772  0.6645 -0.5561  1.0703
  308TIP3   OH2  887   4.125   1.381   3.556  0.2973  0.1846 -0.1295
  308TIP3    H1  888   4.090   1.466   3.528  2.5004  0.9153 -0.8545
  308TIP3    H2  889   4.213   1.378   3.520  1.1947 -1.3508  1.9892
  309TIP3   OH2  890   0.758   0.441   0.276  0.1013  0.5456  0.1133
  309TIP3    H1  891   0.688   0.376   0.270 -0.9264  1.6064  0.1511
  309TIP3    H2  892   0.810   0.428   0.197  0.7670 -1.2149  0.7804
  310TIP3   OH2  893   6.236   5.704   3.598  0.2699  0.0368  0.2441
  310TIP3    H1  894   6.303   5.637   3.588 -0.7193 -0.7425 -1.7182
  310TIP3    H2  895   6.279   5.784   3.567  1.2016  0.2169  1.8596
  311TIP3   OH2  896   4.916   4.390   1.455  0.3535 -0.1234 -0.3791
  311TIP3    H1  897   4.991   4.416   1.401  0.0494  0.3954 -0.5549
  311TIP3    H2  898   4.841   4.435   1.416  0.3437  1.4996  1.3760
  312TIP3   OH2  899   5.922   3.994   0.695  0.2091  0.2796  0.2649
  312TIP3    H1  900   5.959   4.051   0.762  1.3703 -0.4962  0.3342
  312TIP3    H2  901   5.875   4.052   0.636 -0.8703  0.9757  1.7554
  313TIP3   OH2  902   1.954   3.205   2.922  0.7173 -0.0317  0.0853
  313TIP3    H1  903   1.970   3.293   2.958  0.3967  0.3612 -0.7137
  313TIP3    H2  904   1.908   3.159   2.992  1.4681  0.2181  0.7618
  314TIP3   OH2  905   3.003   3.908   4.819  0.6586 -0.0692 -0.2649
  314TIP3    H1  906   2.961   3.822   4.828 -0.2051  0.4618  1.1323
  314TIP3    H2  907   3.081   3.903   4.874  2.4374 -0.9782 -2.6881
  315TIP3   OH2  908   6.317   2.645   1.016 -0.1926 -0.2764  0.2451
  315TIP3    H1  909   6.408   2.638   1.045 -0.0349  0.7669  0.0267
  315TIP3    H2  910   6.285   2.554   1.017  0.1677 -0.4434  2.4597
  316TIP3   OH2  911   2.028   1.040   4.854 -0.4975 -0.5637 -0.0022
  316TIP3    H1  912   2.071   1.124   4.838 -0.6441 -0.4579  0.1532
  316TIP3    H2  913   1.975   1.055   4.932  1.8398 -1.6861  1.9014
  317TIP3   OH2  914   4.836   1.567   3.684 -0.7408  0.3841  0.2691
  317TIP3    H1  915   4.805   1.509   3.615 -1.1814 -1.4533  1.9451
  317TIP3    H2  916   4.762   1.574   3.745 -0.3331  1.8952  0.6361
  318TIP3   OH2  917   3.165   4.943   0.139  0.8166  0.4376  0.3639
  318TIP3    H1  918   3.137   4.979   0.055  3.0230  2.6342  0.4522
  318TIP3    H2  919   3.237   4.884   0.117  1.9961  1.7012  0.7171
  319TIP3   OH2  920   5.511   2.841   3.214  0.4301 -0.1547 -0.1016
  319TIP3    H1  921   5.560   2.766   3.181 -1.0089 -0.8931 -0.6469
  319TIP3    H2  922   5.435   2.848   3.157 -1.8741 -1.1271  2.5812
  320TIP3   OH2  923   1.155   6.553   3.200 -0.4855  0.3330 -0.4796
  320TIP3    H1  924   1.210   6.507   3.137  1.7146  2.1031  0.0084
  320TIP3    H2  925   1.092   6.602   3.147  0.8028  1.1399 -1.3130
  321TIP3   OH2  926   4.674   0.545   3.452 -0.4375 -0.0859  0.0444
  321TIP3    H1  927   4.610   0.544   3.522 -1.0810 -0.9139 -0.5425
  321TIP3    H2  928   4.661   0.463   3.405  1.7570 -0.7956  0.5317
  322TIP3   OH2  929   2.190   1.674   0.887 -0.1231 -0.9992  0.3645
  322TIP3    H1  930   2.177   1.697   0.795 -0.8370  0.7634  0.8642
  322TIP3    H2  931   2.103   1.682   0.926  0.5991  0.9085  1.7127
  323TIP3   OH2  932   5.797   3.276   0.599  0.4291  0.5470 -0.3494
  323TIP3    H1  933   5.892   3.276   0.602  0.4388 -1.2825  0.6523
  323TIP3    H2  934   5.774   3.205   0.539 -0.3134  1.0172 -0.6453
  324TIP3   OH2  935   5.061   3.653   0.190  0.0034  0.2495  0.3550
  324TIP3    H1  936   5.098   3.570   0.159 -0.0745  0.4266 -0.2241
  324TIP3    H2  937   5.130   3.692   0.244  1.3786  1.3556 -2.0156
  325TIP3   OH2  938   3.460   1.744   5.360 -0.2733 -0.5169  0.1062
  325TIP3    H1  939   3.448   1.669   5.418  1.2437  0.4000  1.7026
  325TIP3    H2  940   3.475   1.818   5.419  0.1292  0.6907 -1.4439
  326TIP3   OH2  941   3.800   4.830   3.545 -0.5620  0.2418  0.1540
  326TIP3    H1  942   3.814   4.917   3.506 -0.6814 -0.4823 -1.5716
  326TIP3    H2  943   3.856   4.772   3.493 -1.1194 -0.8466  0.7607
  327TIP3   OH2  944   2.857   1.709   1.891  0.4114 -0.2391  0.2638
  327TIP3    H1  945   2.830   1.700   1.983  0.9158  1.2550  0.5910
  327TIP3    H2  946   2.802   1.780   1.857 -0.2016 -1.1922 -0.7854
  328TIP3   OH2  947   6.752   3.671   0.750  0.2297  0.4333  0.1125
  328TIP3    H1  948   6.843   3.646   0.770 -0.1757 -0.5850  0.7631
  328TIP3    H2  949   6.728   3.732   0.820  0.2214  0.2376  0.2817
  329TIP3   OH2  950   1.348   3.109   3.354  0.0609 -0.2970  0.2393
  329TIP3    H1  951   1.380   3.123   3.444 -3.0590  0.7030  1.3148
  329TIP3    H2  952   1.306   3.023   3.356 -0.1656 -0.2008 -0.2039
  330TIP3   OH2  953   2.843   5.888   2.359  0.3072  0.3861 -0.1898
  330TIP3    H1  954   2.763   5.910   2.311  0.8978  0.9981 -0.9297
  330TIP3    H2  955   2.846   5.953   2.429 -0.0647  0.0944  0.0978
  331TIP3   OH2  956   0.070   2.153   5.639 -0.4046  0.2065 -0.4533
  331TIP3    H1  957   0.081   2.239   5.679  1.1650 -0.1160 -0.1411
  331TIP3    H2  958  -0.025   2.138   5.640 -0.5716  1.1449  1.1616
  332TIP3   OH2  959   2.527   3.366   4.360 -0.0691  0.3457  0.5965
  332TIP3    H1  960   2.584   3.408   4.425  1.2065  0.5794 -0.6075
  332TIP3    H2  961   2.506   3.281   4.397  0.1835  0.6896  1.5535
  333TIP3   OH2  962   3.285   3.274   0.039 -0.3849 -0.1426 -0.1141
  333TIP3    H1  963   3.309   3.189   0.076 -0.6417  0.1061  0.6398
  333TIP3    H2  964   3.222   3.253  -0.029  1.4154 -0.7627 -1.6890
  334TIP3   OH2  965   7.058   3.238   3.314  0.6140 -0.0626  0.0147
  334TIP3    H1  966   7.145   3.223   3.278  0.4479  0.8029 -0.8124
  334TIP3    H2  967   7.062   3.327   3.350  1.0017 -1.1708  2.9209
  335TIP3   OH2  968   6.786   3.451   1.700  0.0774  0.4298  0.6054
  335TIP3    H1  969   6.730   3.424   1.773 -0.3450 -0.0926  0.1027
  335TIP3    H2  970   6.737   3.521   1.658  1.0654  1.8698  1.7680
  336TIP3   OH2  971   3.291   5.328   1.785  0.0920 -0.1450 -0.0657
  336TIP3    H1  972   3.376   5.372   1.790  0.3104 -0.5617 -0.0498
  336TIP3    H2  973   3.298   5.271   1.708 -0.6015  0.6962 -0.7846
  337TIP3   OH2  974   0.529   2.076   4.025 -0.1783 -0.7657  0.2541
  337TIP3    H1  975   0.527   2.156   4.078 -2.1349 -0.4150 -0.2717
  337TIP3    H2  976   0.612   2.035   4.048  1.0084  1.5074  0.3733
  338TIP3   OH2  977   4.124   0.280   4.348  0.1684 -0.1096 -0.3231
  338TIP3    H1  978   4.161   0.327   4.423 -0.6114 -0.1822  0.1222
  338TIP3    H2  979   4.107   0.348   4.283  2.3281 -0.2281 -1.1051
  339TIP3   OH2  980   6.570   5.016   1.100  0.1838  0.5895  0.2886
  339TIP3    H1  981   6.599   5.085   1.159  1.0439  0.5658 -0.0870
  339TIP3    H2  982   6.651   4.977   1.067 -0.2697  0.7410 -1.0660
  340TIP3   OH2  983   6.009   0.948   4.877  0.1509  0.5652  0.2382
  340TIP3    H1  984   5.979   0.937   4.968  0.7883  0.0084  0.3928
  340TIP3    H2  985   6.103   0.966   4.886  0.0965  1.1153 -0.2863
  341TIP3   OH2  986   7.094   0.209   0.625 -0.2790 -0.3638 -0.7479
  341TIP3    H1  987   7.118   0.301   0.628 -0.5181 -0.2236 -2.2117
  341TIP3    H2  988   7.101   0.186   0.532 -0.6401 -1.7063 -0.4646
  342TIP3   OH2  989   1.859   0.017   0.884  0.3762 -0.2919 -0.0683
  342TIP3    H1  990   1.805  -0.006   0.960 -0.8713 -1.4715 -1.2686
  342TIP3    H2  991   1.861   0.113   0.884  1.6703 -0.2313  2.2892
  343TIP3   OH2  992   4.583   3.598   2.843 -0.4031 -0.6790 -0.3682
  343TIP3    H1  993   4.514   3.658   2.870  0.1669  0.2902 -1.0173
  343TIP3    H2  994   4.634   3.581   2.923 -0.2462  0.1377 -0.2884
  344TIP3   OH2  995   6.140   4.510   2.593  0.0228 -0.1775  0.6571
  344TIP3    H1  996   6.049   4.513   2.621  0.1422 -1.6665  1.2692
  344TIP3    H2  997   6.165   4.418   2.601  1.3288  0.0647 -0.3261
  345TIP3   OH2  998   2.805   6.712   5.493 -0.0607  0.1251 -0.3621
  345TIP3    H1  999   2.783   6.769   5.419  1.5177  0.0701 -0.9085
  345TIP3    H2 1000   2.803   6.771   5.569 -2.8209 -0.0477 -0.2024
  346TIP3   OH2 1001   1.209   2.011   5.192 -0.2987 -0.7905  0.3765
  346TIP3    H1 1002   1.285   1.985   5.245 -0.5094 -2.3776 -0.0470
  346TIP3    H2 1003   1.240   2.087   5.142  0.5897 -0.6184  1.1488
  347TIP3   OH2 1004   0.900   3.342   4.837 -0.1084 -0.0926 -0.2689
  347TIP3    H1 1005   0.942   3.301   4.761 -0.2074 -2.2329  0.7565
  347TIP3    H2 1006   0.823   3.386   4.800  0.5052 -0.0418 -1.5570
  348TIP3   OH2 1007   5.322   4.061   0.889 -0.3740  0.4169  0.2599
  348TIP3    H1 1008   5.358   4.149   0.897 -0.5785  0.6860 -1.3754
  348TIP3    H2 1009   5.303   4.051   0.795  1.7927 -2.2119 -0.0191
  349TIP3   OH2 1010   6.701   5.150   0.702  0.0485 -0.1074  0.2875
  349TIP3    H1 1011   6.734   5.124   0.616 -1.3033  1.1688 -0.6755
  349TIP3    H2 1012   6.629   5.210   0.682 -0.2193  0.3030  2.3263
  350TIP3   OH2 1013   1.776   5.485   1.609  0.3127  0.1525  0.3676
  350TIP3    H1 1014   1.781   5.490   1.704  0.0616  0.6921  0.3591
  350TIP3    H2 1015   1.818   5.403   1.586  0.6641  0.1773  0.9242
  351TIP3   OH2 1016   1.103   4.938   0.599 -0.0240 -0.1589 -0.4782
  351TIP3    H1 1017   1.118   4.867   0.537  0.0322  0.9580 -1.8043
  351TIP3    H2 1018   1.189   4.979   0.609 -0.0845 -0.1761  0.1675
  352TIP3   OH2 1019   0.707   1.862   2.955  0.0113 -0.6270 -0.6468
  352TIP3    H1 1020   0.754   1.945   2.964 -0.4640 -0.2883 -1.1903
  352TIP3    H2 1021   0.686   1.836   3.045 -2.7325  1.5625 -0.5156
  353TIP3   OH2 1022   0.029   1.286   3.895 -0.4132 -0.3057 -0.1322
  353TIP3    H1 1023   0.105   1.243   3.856 -0.5619  1.5108 -2.6376
  353TIP3    H2 1024  -0.043   1.225   3.880 -0.4487  0.2707 -2.8230
  354TIP3   OH2 1025   2.888   6.349   1.424  0.4006 -0.2691  0.1857
  354TIP3    H1 1026   2.919   6.364   1.513 -0.3361  1.1671  0.2322
  354TIP3    H2 1027   2.823   6.279   1.432 -1.6477  1.6454  1.2530
  355TIP3   OH2 1028   6.323   4.296   1.754  0.8380 -0.1978 -0.1513
  355TIP3    H1 1029   6.250   4.240   1.780  1.5374 -0.9598  0.2420
  355TIP3    H2 1030   6.401   4.240   1.763  1.6174  0.9652  0.7288
  356TIP3   OH2 1031   1.593   5.255   5.195  0.2807  0.3758 -0.8102
  356TIP3    H1 1032   1.536   5.318   5.151  0.2568  1.5726  0.8508
  356TIP3    H2 1033   1.667   5.306   5.225  0.3100 -0.3923  0.4926
  357TIP3   OH2 1034   4.573   4.431   2.144 -0.2109 -0.4922 -0.4260
  357TIP3    H1 1035   4.620   4.458   2.065  0.6742 -0.7409  0.0061
  357TIP3    H2 1036   4.604   4.491   2.211 -0.8078 -0.4152 -0.2123
  358TIP3   OH2 1037   0.642   0.032   5.626 -0.4764 -0.2467 -0.3627
  358TIP3    H1 1038   0.715  -0.028   5.642  0.1276  0.4756 -0.3587
  358TIP3    H2 1039   0.593   0.032   5.708  0.5298  0.6028  0.2844
  359TIP3   OH2 1040   5.122   5.633   4.650  0.5968  0.1947 -0.5592
  359TIP3    H1 1041   5.212   5.649   4.679  0.5589  0.9312 -0.8354
  359TIP3    H2 1042   5.068   5.678   4.715  0.5019  1.6997 -1.6391
  360TIP3   OH2 1043   4.669   2.167   4.444 -0.8738  0.4958 -0.1056
  360TIP3    H1 1044   4.735   2.164   4.512 -0.4791 -1.3454 -0.5330
  360TIP3    H2 1045   4.682   2.253   4.402  0.6849  0.5008  0.3391
  361TIP3   OH2 1046   3.294   0.840   5.852  0.0574  0.2101 -0.0952
  361TIP3    H1 1047   3.385   0.847   5.825  0.1471 -2.0387 -0.5315
  361TIP3    H2 1048   3.292   0.881   5.939  1.3050  0.9163 -0.3777
  362TIP3   OH2 1049   3.811   2.861   2.362  0.3017  0.4691  0.1152
  362TIP3    H1 1050   3.763   2.784   2.393  0.5721 -0.5472 -1.8225
  362TIP3    H2 1051   3.758   2.935   2.392 -0.4612 -0.4883  1.2392
  363TIP3   OH2 1052   2.837   2.875   4.858 -0.2080  0.0731  0.1722
  363TIP3    H1 1053   2.906   2.812   4.879 -1.6903 -1.5580  0.3556
  363TIP3    H2 1054   2.760   2.821   4.839 -0.9762  1.7541 -1.8601
  364TIP3   OH2 1055   0.763   5.076   4.358 -0.3529 -0.2936 -0.2369
  364TIP3    H1 1056   0.854   5.104   4.355 -0.5720  0.6352  1.0652
  364TIP3    H2 1057   0.766   4.987   4.394 -0.0216  0.0853  0.6827
  365TIP3   OH2 1058   1.426   4.584   2.002  0.3811  0.2561 -0.1802
  365TIP3    H1 1059   1.515   4.578   2.036  0.2911  0.9171  0.1926
  365TIP3    H2 1060   1.371   4.555   2.075  0.1964  1.5328  0.2189
  366TIP3   OH2 1061   6.351   6.803   4.616  0.6859 -0.0552 -0.1560
  366TIP3    H1 1062   6.325   6.721   4.575 -0.9438  0.6401 -0.5728
  366TIP3    H2 1063   6.431   6.828   4.569  1.2652 -1.4249  0.0511
  367TIP3   OH2 1064   2.402   2.551   1.076 -0.4196  0.0347 -0.3689
  367TIP3    H1 1065   2.315   2.584   1.053  0.2781  3.0752  0.8471
  367TIP3    H2 1066   2.442   2.530   0.991 -1.0999  2.1660 -1.3057
  368TIP3   OH2 1067   0.610   2.249   2.210  0.4271  0.6878  0.2470
  368TIP3    H1 1068   0.679   2.259   2.144 -1.6855  0.4237 -2.1643
  368TIP3    H2 1069   0.552   2.323   2.195 -0.3615  0.3678  1.5501
  369TIP3   OH2 1070   3.743   2.571   5.734  0.1334  0.0727  0.2422
  369TIP3    H1 1071   3.734   2.537   5.823 -0.4361 -1.0363 -0.2252
  369TIP3    H2 1072   3.835   2.596   5.727  0.1651  0.2497  1.1603
  370TIP3   OH2 1073   2.248   6.191   4.785 -0.5886 -0.6409 -0.1591
  370TIP3    H1 1074   2.208   6.276   4.802  1.4586  0.2650  0.4245
  370TIP3    H2 1075   2.308   6.207   4.712  1.9081 -0.8459  1.7532
  371TIP3   OH2 1076   1.485   6.324   3.514 -0.3447  0.1735 -0.1474
  371TIP3    H1 1077   1.546   6.287   3.451 -0.2399  0.3466 -0.1485
  371TIP3    H2 1078   1.445   6.248   3.557  1.2434  0.0303  1.1916
  372TIP3   OH2 1079   4.817   5.423   3.664 -0.2245  0.3184  0.1986
  372TIP3    H1 1080   4.790   5.470   3.743  2.3428  0.0031  1.3828
  372TIP3    H2 1081   4.848   5.338   3.696 -0.2198 -0.2871 -1.3103
  373TIP3   OH2 1082   1.520   1.880   4.974  0.3116  0.4194 -0.4543
  373TIP3    H1 1083   1.534   1.786   4.977  2.2765  0.6950  0.6814
  373TIP3    H2 1084   1.585   1.916   5.033 -0.4283  2.5084 -0.8153
  374TIP3   OH2 1085   5.461   6.179   1.622  0.1039  0.4642  0.2074
  374TIP3    H1 1086   5.479   6.242   1.692  2.5871 -0.9756  0.9841
  374TIP3    H2 1087   5.414   6.108   1.665  1.3201 -0.2593  0.3856
  375TIP3   OH2 1088   4.641   2.720   5.139 -0.0945  0.2610  0.1679
  375TIP3    H1 1089   4.630   2.680   5.225 -1.2270 -0.1157 -0.1430
  375TIP3    H2 1090   4.663   2.647   5.081  1.0170  0.5614  0.1856
  376TIP3   OH2 1091   2.983   6.457   0.186 -0.4158  0.2374  0.2536
  376TIP3    H1 1092   3.060   6.510   0.164  1.1574 -0.6278  3.0857
  376TIP3    H2 1093   2.913   6.492   0.131  1.6638  1.9891 -1.4759
  377TIP3   OH2 1094   6.042   0.700   4.743  0.0478  0.1607  0.6136
  377TIP3    H1 1095   5.998   0.765   4.796  0.5462 -0.6805  2.1063
  377TIP3    H2 1096   6.111   0.664   4.799  1.6597  0.3490 -1.1197
  378TIP3   OH2 1097   0.042   4.053   4.131  0.4880 -0.0447  0.0969
  378TIP3    H1 1098  -0.007   4.064   4.212  0.0160 -1.3174 -0.0025
  378TIP3    H2 1099  -0.019   4.011   4.070  0.3675  2.1403 -1.4148
  379TIP3   OH2 1100   1.348   5.589   0.015 -0.2159 -0.1787  0.4327
  379TIP3    H1 1101   1.338   5.494   0.015  0.0911 -0.2140  0.5713
  379TIP3    H2 1102   1.432   5.604  -0.029 -0.2580  0.0284  0.4213
  380TIP3   OH2 1103   4.833   4.108   2.806 -0.0882  0.1523 -0.1923
  380TIP3    H1 1104   4.825   4.176   2.874  0.9962 -1.3379  1.4984
  380TIP3    H2 1105   4.761   4.127   2.746 -1.2580  1.4194  1.4818
  381TIP3   OH2 1106   0.773   0.517   2.665 -0.2104  0.5092  0.0856
  381TIP3    H1 1107   0.763   0.599   2.617  2.8555  0.5234 -0.7056
  381TIP3    H2 1108   0.727   0.452   2.611 -1.8221  1.4689  0.2222
  382TIP3   OH2 1109   3.222   4.147   5.355  0.0655 -0.2166 -0.6096
  382TIP3    H1 1110   3.298   4.130   5.299  1.2806  0.8856  0.6352
  382TIP3    H2 1111   3.235   4.091   5.431 -0.2415  0.1889 -0.2571
  383TIP3   OH2 1112   2.040   3.295   2.674 -0.6267  0.3733 -0.0371
  383TIP3    H1 1113   2.021   3.281   2.767 -1.8097 -0.9601 -0.4462
  383TIP3    H2 1114   2.012   3.385   2.658 -1.2393  0.3364  0.7176
  384TIP3   OH2 1115   2.277   2.263   1.998  0.0311  0.0308 -0.2823
  384TIP3    H1 1116   2.185   2.239   1.993  0.0442  0.1949 -1.6814
  384TIP3    H2 1117   2.313   2.239   1.913  1.4420 -0.6322  0.4718
  385TIP3   OH2 1118   6.822   1.502   2.237  0.1744  0.7238 -0.2297
  385TIP3    H1 1119   6.763   1.531   2.307  1.3849  1.6987  0.4153
  385TIP3    H2 1120   6.767   1.445   2.183 -0.5455 -0.8537  2.0169
  386TIP3   OH2 1121   5.733   0.481   2.098 -0.2575  0.6890  0.2808
  386TIP3    H1 1122   5.820   0.456   2.067  0.2654  1.5436  1.0375
  386TIP3    H2 1123   5.707   0.409   2.156  1.1458  1.6814  2.2609
  387TIP3   OH2 1124   0.197   3.018   3.544  0.9879 -0.3610 -0.4210
  387TIP3    H1 1125   0.138   3.025   3.619 -1.3658 -2.0416 -1.9745
  387TIP3    H2 1126   0.253   2.944   3.564  1.5496  0.2795  0.4055
  388TIP3   OH2 1127   4.123   5.840   5.141  0.2320  0.6162 -0.2588
  388TIP3    H1 1128   4.121   5.935   5.151 -0.7098  0.5738  0.1023
  388TIP3    H2 1129   4.105   5.825   5.048 -3.8956  0.7538  0.3047
  389TIP3   OH2 1130   1.841   0.861   2.949 -0.0877 -0.1839 -0.8734
  389TIP3    H1 1131   1.803   0.773   2.956 -1.8417  0.4503 -1.8531
  389TIP3    H2 1132   1.928   0.852   2.989 -0.6904 -2.0504  0.1809
  390TIP3   OH2 1133   6.188   3.603   2.430  0.5002 -0.3216 -0.4178
  390TIP3    H1 1134   6.172   3.682   2.379 -2.6015 -1.2485 -1.0899
  390TIP3    H2 1135   6.150   3.622   2.516  1.7938 -0.3343  0.1876
  391TIP3   OH2 1136   1.759   4.836   3.965 -0.4776  0.3777  0.2883
  391TIP3    H1 1137   1.744   4.923   3.929 -2.0697 -0.3843 -0.9662
  391TIP3    H2 1138   1.786   4.852   4.056  0.2641  2.1867 -0.2119
  392TIP3   OH2 1139   6.348   6.576   3.561 -0.2325 -0.4568 -0.2805
  392TIP3    H1 1140   6.272   6.538   3.517  0.5123 -2.4161  0.0102
  392TIP3    H2 1141   6.404   6.607   3.490 -1.2207  0.9061 -0.4983
  393TIP3   OH2 1142   6.203   0.965   3.071  0.0013 -0.0479  0.1889
  393TIP3    H1 1143   6.155   0.910   3.009 -0.4132 -0.5815  0.9744
  393TIP3    H2 1144   6.216   1.047   3.024 -0.1085 -0.5185 -0.6887
  394TIP3   OH2 1145   4.102   4.266   5.184 -0.4123  0.2632 -0.2999
  394TIP3    H1 1146   4.034   4.222   5.134 -1.5512  0.7924  0.7445
  394TIP3    H2 1147   4.142   4.197   5.236  0.0353 -0.0936 -1.1052
  395TIP3   OH2 1148   3.246   2.829   0.796 -0.1047  0.0267  0.2932
  395TIP3    H1 1149   3.305   2.873   0.735 -1.4285  0.5796 -0.6333
  395TIP3    H2 1150   3.189   2.775   0.741 -0.2966 -0.7065  1.1869
  396TIP3   OH2 1151   3.806   1.837   2.049 -0.4202 -0.0006  0.1681
  396TIP3    H1 1152   3.767   1.831   1.962 -1.1593  1.0920  0.4074
  396TIP3    H2 1153   3.886   1.888   2.035 -1.1043  1.1460  0.2756
  397TIP3   OH2 1154   3.131   5.939   1.043  0.2095  0.0281  0.7052
  397TIP3    H1 1155   3.053   5.884   1.046  0.7329 -0.6771  2.2960
  397TIP3    H2 1156   3.203   5.880   1.063  1.3128  0.4729 -1.6186
  398TIP3   OH2 1157   3.434   1.498   2.872  0.2662 -0.2369  0.0560
  398TIP3    H1 1158   3.522   1.468   2.850  0.0381  0.4581 -2.0756
  398TIP3    H2 1159   3.444   1.591   2.891 -0.3872  0.9652 -4.2711
  399TIP3   OH2 1160   2.627   3.192   4.152 -0.1859 -0.2698  0.2407
  399TIP3    H1 1161   2.577   3.261   4.196  0.7585  0.8549 -0.3917
  399TIP3    H2 1162   2.686   3.159   4.219 -1.6692 -1.5812  0.9830
  400TIP3   OH2 1163   2.035   0.957   0.372 -0.5916  0.0481  0.0595
  400TIP3    H1 1164   2.079   1.020   0.315 -0.4686  0.1308  0.2437
  400TIP3    H2 1165   2.025   0.878   0.319 -2.8453  0.9419 -1.0107
  401TIP3   OH2 1166   6.636   2.325   1.716 -0.3585  0.6997  0.0057
  401TIP3    H1 1167   6.547   2.361   1.716 -1.1290 -1.1087 -0.9052
  401TIP3    H2 1168   6.633   2.253   1.654  2.2894  1.8170 -1.5790
  402TIP3   OH2 1169   3.746   4.387   2.530  0.3203  0.4792 -0.5136
  402TIP3    H1 1170   3.781   4.461   2.579 -0.2439  1.0414 -0.9485
  402TIP3    H2 1171   3.809   4.374   2.459  0.2719  0.7241 -0.6028
  403TIP3   OH2 1172   1.738   5.430   0.051  0.4746 -0.5010  0.3814
  403TIP3    H1 1173   1.808   5.391   0.104 -0.9530 -3.6105  0.2357
  403TIP3    H2 1174   1.773   5.433  -0.037  0.8708 -0.8803  0.5221
  404TIP3   OH2 1175   4.139   1.974   4.950  0.0806 -0.4814 -0.3339
  404TIP3    H1 1176   4.105   1.920   5.021  1.0696 -0.5123  0.1357
  404TIP3    H2 1177   4.232   1.984   4.970 -0.1938  2.0634  0.0361
  405TIP3   OH2 1178   5.380   5.034   4.480  0.3198 -0.1219 -0.5289
  405TIP3    H1 1179   5.348   5.123   4.494 -1.1082 -0.5560 -0.8899
  405TIP3    H2 1180   5.321   4.979   4.531  0.5332 -0.9597 -1.1672
  406TIP3   OH2 1181   4.799   6.607   5.116  0.4576  0.0018  0.2180
  406TIP3    H1 1182   4.728   6.585   5.176 -1.3903  2.8886 -0.7097
  406TIP3    H2 1183   4.851   6.673   5.162 -1.3138  2.6830 -1.3477
  407TIP3   OH2 1184   4.305   3.597   3.082  0.0100  0.2506  0.3631
  407TIP3    H1 1185   4.338   3.509   3.096 -0.5736 -0.0482 -0.0743
  407TIP3    H2 1186   4.237   3.587   3.015 -0.9935  0.8248  1.2489
  408TIP3   OH2 1187   3.076   5.662   2.745 -0.0146  0.4726  0.1820
  408TIP3    H1 1188   3.073   5.615   2.828  1.6616  2.0028  1.1706
  408TIP3    H2 1189   3.055   5.596   2.679 -0.5790 -0.9568  1.7337
  409TIP3   OH2 1190   3.660   6.021   2.887  0.6510 -0.1247 -0.0056
  409TIP3    H1 1191   3.599   6.088   2.917 -0.0843  0.4513 -2.5397
  409TIP3    H2 1192   3.604   5.953   2.849  1.5054 -0.1486 -1.2768
  410TIP3   OH2 1193   1.181   5.457   4.278 -0.1964 -0.1325  0.6512
  410TIP3    H1 1194   1.120   5.432   4.348 -2.2977 -1.3411 -1.4816
  410TIP3    H2 1195   1.264   5.415   4.303 -0.9930 -0.8667  2.2024
  411TIP3   OH2 1196   7.023   1.755   0.958 -0.3934  0.5096  0.4138
  411TIP3    H1 1197   7.086   1.808   1.008 -1.7055  0.5510  2.1013
  411TIP3    H2 1198   7.074   1.680   0.928  0.8911  1.4465  0.1461
  412TIP3   OH2 1199   1.900   1.986   1.127 -0.3938  0.7751 -0.3355
  412TIP3    H1 1200   1.912   1.941   1.044  0.2236 -0.0972  0.2152
  412TIP3    H2 1201   1.861   1.920   1.185 -2.0936  1.7519 -0.3005
  413TIP3   OH2 1202   6.824   4.359   4.197  0.1310 -0.2987 -0.2470
  413TIP3    H1 1203   6.752   4.323   4.250 -0.6379  0.4499 -0.7524
  413TIP3    H2 1204   6.865   4.423   4.255  0.5134 -0.8637  0.1101
  414TIP3   OH2 1205   1.880   1.728   0.540 -0.0556  0.1771 -0.4204
  414TIP3    H1 1206   1.857   1.759   0.452  0.1101 -0.3062 -0.6373
  414TIP3    H2 1207   1.821   1.776   0.598 -2.0061 -1.4165 -0.9940
  415TIP3   OH2 1208   1.626   5.629   3.843 -0.0948  0.3112  0.1087
  415TIP3    H1 1209   1.591   5.650   3.756  1.2878 -0.8594 -0.7624
  415TIP3    H2 1210   1.596   5.540   3.859 -0.9279  0.7585  1.1756
  416TIP3   OH2 1211   3.554   3.531   4.632 -0.1494  0.1196  0.0454
  416TIP3    H1 1212   3.537   3.623   4.650 -1.2610 -0.1543  0.4502
  416TIP3    H2 1213   3.650   3.525   4.629  0.0999  0.7437  3.1164
  417TIP3   OH2 1214   7.178   5.312   3.605 -0.0153 -0.0209 -0.2583
  417TIP3    H1 1215   7.176   5.218   3.625  0.1764  0.0850  0.2680
  417TIP3    H2 1216   7.204   5.354   3.687  1.0984  0.3994 -0.8101
  418TIP3   OH2 1217   5.336   5.788   5.842  0.5009  0.1543 -0.1705
  418TIP3    H1 1218   5.370   5.752   5.760 -0.2085  0.2679 -0.5170
  418TIP3    H2 1219   5.268   5.850   5.816 -0.5431 -0.6552  0.5341
  419TIP3   OH2 1220   0.190   1.095   1.932  0.1987  0.3478  0.9556
  419TIP3    H1 1221   0.155   1.046   2.007 -0.0123 -0.2483  0.4741
  419TIP3    H2 1222   0.285   1.091   1.943  0.1690  0.2346  1.1720
  420TIP3   OH2 1223   3.787   4.640   0.804 -0.6911 -0.1535  0.2779
  420TIP3    H1 1224   3.791   4.664   0.897 -0.1778  0.8754  0.0092
  420TIP3    H2 1225   3.710   4.585   0.797 -1.5486  0.8940  1.0767
  421TIP3   OH2 1226   6.614   6.469   4.490 -0.6322 -0.8954 -0.1049
  421TIP3    H1 1227   6.547   6.441   4.552 -0.6450 -1.4653 -0.3661
  421TIP3    H2 1228   6.567   6.526   4.429 -0.1656  1.5506  1.6818
  422TIP3   OH2 1229   5.552   6.469   0.862  0.0454 -0.2579 -0.4655
  422TIP3    H1 1230   5.575   6.482   0.954 -0.3082  0.3111 -0.4526
  422TIP3    H2 1231   5.517   6.380   0.858  3.7245 -1.8679 -0.7872
  423TIP3   OH2 1232   1.817   1.866   2.897  0.5922 -0.3503 -0.4810
  423TIP3    H1 1233   1.780   1.897   2.979 -2.2091 -2.0871 -0.9427
  423TIP3    H2 1234   1.909   1.891   2.901  0.1413  1.2644  2.3219
  424TIP3   OH2 1235   0.545   2.856   5.854 -0.4632 -0.3587  0.2977
  424TIP3    H1 1236   0.614   2.856   5.788  0.2063  1.2446  0.9526
  424TIP3    H2 1237   0.588   2.889   5.933 -2.0221  0.8440  0.6760
  425TIP3   OH2 1238   4.665   5.250   1.623 -0.8052 -0.7592  0.2962
  425TIP3    H1 1239   4.733   5.273   1.559 -1.5126 -0.0530 -0.2268
  425TIP3    H2 1240   4.695   5.167   1.661  0.4639 -0.3489  0.2558
  426TIP3   OH2 1241   3.840   5.053   5.685 -0.4995 -0.3548  0.1111
  426TIP3    H1 1242   3.867   5.062   5.777  0.3502 -1.1859 -0.0452
  426TIP3    H2 1243   3.904   4.993   5.647 -1.5031 -0.9036 -0.7553
  427TIP3   OH2 1244   0.827   4.875   2.307 -0.5098 -0.0629 -0.5929
  427TIP3    H1 1245   0.746   4.859   2.354  0.1288 -1.5278  0.0536
  427TIP3    H2 1246   0.875   4.937   2.362 -0.5914 -0.2878 -0.2692
  428TIP3   OH2 1247   3.477   3.189   0.535 -0.0225  0.7962 -0.3468
  428TIP3    H1 1248   3.503   3.219   0.448  1.5600  0.4001 -0.0534
  428TIP3    H2 1249   3.540   3.231   0.595 -0.3030  0.0947  0.4682
  429TIP3   OH2 1250   4.036   2.968   1.029 -0.2232 -0.3633  0.8286
  429TIP3    H1 1251   4.101   2.938   1.093  0.6946 -0.3252 -0.0496
  429TIP3    H2 1252   3.996   3.044   1.070  0.2143 -0.4458  1.4402
  430TIP3   OH2 1253   4.162   6.160   4.232  0.0035 -0.3778 -0.1488
  430TIP3    H1 1254   4.241   6.205   4.204 -0.2382 -1.0756 -2.1274
  430TIP3    H2 1255   4.091   6.223   4.215 -0.1135 -0.6820 -0.7964
  431TIP3   OH2 1256   5.420   2.977   1.409 -0.9891 -0.3999 -0.2288
  431TIP3    H1 1257   5.498   3.018   1.447 -1.3582 -0.2674  0.3927
  431TIP3    H2 1258   5.419   3.007   1.318 -0.5836 -0.0180 -0.1089
  432TIP3   OH2 1259   3.429   4.859   0.009  0.0732  0.6466 -0.1361
  432TIP3    H1 1260   3.480   4.829   0.085  1.4143 -0.3210 -1.3567
  432TIP3    H2 1261   3.463   4.947  -0.008 -0.8435  1.2228  0.8682
  433TIP3   OH2 1262   3.134   4.828   4.160 -0.5709  0.0722 -0.5594
  433TIP3    H1 1263   3.149   4.891   4.090 -0.2571  1.5366  0.7861
  433TIP3    H2 1264   3.145   4.878   4.241  0.3593 -1.8434  0.5746
  434TIP3   OH2 1265   6.481   0.112   5.786  0.2866  0.3414  0.0117
  434TIP3    H1 1266   6.518   0.051   5.849 -0.6450 -0.0573  0.1832
  434TIP3    H2 1267   6.516   0.084   5.701 -1.0916 -1.2276 -0.0864
  435TIP3   OH2 1268   4.489   3.025   4.145  0.4481 -0.1488  0.5501
  435TIP3    H1 1269   4.547   3.009   4.071 -0.4680 -0.1495 -0.1844
  435TIP3    H2 1270   4.547   3.054   4.215  1.3004  0.1369 -0.2529
  436TIP3   OH2 1271   2.617   2.040   4.166  0.1430  0.4950  0.3648
  436TIP3    H1 1272   2.571   2.104   4.221 -0.3564  0.5856 -0.1505
  436TIP3    H2 1273   2.612   1.958   4.216 -1.7207  0.1888 -0.2429
  437TIP3   OH2 1274   0.951   3.088   5.778 -0.2730 -0.6743  0.0507
  437TIP3    H1 1275   0.937   2.995   5.800  0.2871 -0.7090  0.2684
  437TIP3    H2 1276   0.948   3.132   5.863 -0.9379 -0.4309 -0.0879
  438TIP3   OH2 1277   0.095   5.018   2.385  0.4046 -0.0369  0.2389
  438TIP3    H1 1278   0.089   4.983   2.474  0.8276 -2.1372 -0.4967
  438TIP3    H2 1279   0.046   4.956   2.331  2.3879 -0.3448 -1.3508
  439TIP3   OH2 1280   1.786   2.977   0.116 -0.2540  0.0725 -0.0250
  439TIP3    H1 1281   1.732   3.018   0.048 -0.3975  1.3899  0.8505
  439TIP3    H2 1282   1.869   3.023   0.113  0.9278 -1.9902 -1.4034
  440TIP3   OH2 1283   3.569   3.443   3.876 -0.4408 -0.6833  0.1866
  440TIP3    H1 1284   3.506   3.384   3.917 -1.4473  0.1060 -0.1742
  440TIP3    H2 1285   3.540   3.531   3.902 -1.2723 -0.1196 -2.3021
  441TIP3   OH2 1286   1.985   4.355   2.367  0.5705  0.0821 -0.0469
  441TIP3    H1 1287   1.955   4.305   2.291  0.0899 -1.1393  0.9255
  441TIP3    H2 1288   1.925   4.430   2.372 -0.6432 -0.8898  0.2874
  442TIP3   OH2 1289   6.856   2.710   2.561  0.8338 -0.0508 -0.2058
  442TIP3    H1 1290   6.932   2.736   2.613  0.1449  1.1068  0.2852
  442TIP3    H2 1291   6.891   2.690   2.474  1.6324  1.0600 -0.1654
  443TIP3   OH2 1292   2.290   1.325   2.451  0.7875  0.4841 -0.5629
  443TIP3    H1 1293   2.296   1.233   2.474  1.5540  0.7995  0.5585
  443TIP3    H2 1294   2.242   1.326   2.367  0.0560 -0.8594 -0.1829
  444TIP3   OH2 1295   3.239   2.921   1.368  0.8335  0.3304  0.1182
  444TIP3    H1 1296   3.283   2.989   1.317  0.1984 -0.1828 -1.1726
  444TIP3    H2 1297   3.266   2.839   1.327 -2.4282  0.0180 -1.8012
  445TIP3   OH2 1298   5.140   2.996   2.815 -0.8233  0.0043  0.0152
  445TIP3    H1 1299   5.192   3.071   2.842  1.3520 -2.1416  2.2549
  445TIP3    H2 1300   5.059   3.004   2.866  0.1054 -0.0152  1.5509
  446TIP3   OH2 1301   0.098   2.679   0.640  0.0731 -0.4357 -0.4263
  446TIP3    H1 1302   0.003   2.668   0.640  0.1438 -1.1203 -0.6858
  446TIP3    H2 1303   0.115   2.743   0.571 -0.3201  1.0171  0.7648
  447TIP3   OH2 1304   4.722   6.331   0.837  0.2931  0.1049  0.3429
  447TIP3    H1 1305   4.745   6.362   0.925  1.8920  1.8784 -0.6257
  447TIP3    H2 1306   4.665   6.400   0.802 -0.6640 -0.7793  0.0911
  448TIP3   OH2 1307   0.833   6.331   0.027  0.8656 -0.1661  0.3523
  448TIP3    H1 1308   0.814   6.272   0.100 -1.9575 -0.9954 -0.8916
  448TIP3    H2 1309   0.828   6.275  -0.051 -0.7031  1.4183 -0.7735
  449TIP3   OH2 1310   4.516   4.442   0.347  0.5003 -0.2503  0.2179
  449TIP3    H1 1311   4.587   4.460   0.409  0.4630  0.3227  0.1063
  449TIP3    H2 1312   4.541   4.489   0.268 -1.2355  2.2373  1.0101
  450TIP3   OH2 1313   5.649   2.748   1.723  0.0354 -0.4429 -0.5039
  450TIP3    H1 1314   5.692   2.671   1.761  1.8309 -0.2629 -2.0420
  450TIP3    H2 1315   5.566   2.755   1.771  1.7154 -0.7276  2.6999
  451TIP3   OH2 1316   2.876   2.904   2.259 -0.3484 -0.4232  0.0588
  451TIP3    H1 1317   2.909   2.992   2.240 -0.5657 -0.4733 -0.5751
  451TIP3    H2 1318   2.807   2.919   2.324  1.3827 -0.3934  1.9800
  452TIP3   OH2 1319   6.320   0.981   3.747  0.5778 -0.0445 -0.2314
  452TIP3    H1 1320   6.270   1.038   3.687  1.6566  0.5520 -0.5886
  452TIP3    H2 1321   6.267   0.978   3.826  0.2452  1.0697 -0.3825
  453TIP3   OH2 1322   5.242   0.019   0.456 -0.1394  0.1138 -0.2039
  453TIP3    H1 1323   5.221   0.092   0.398 -2.3292 -1.5559 -1.6590
  453TIP3    H2 1324   5.158  -0.010   0.490  0.6304 -1.9002  0.1377
  454TIP3   OH2 1325   6.505   4.208   2.412 -0.4116  0.4945 -0.0301
  454TIP3    H1 1326   6.580   4.252   2.374 -0.7285  0.0870 -1.1818
  454TIP3    H2 1327   6.489   4.133   2.354 -2.1728  1.0139 -0.2917
  455TIP3   OH2 1328   1.996   6.083   0.966  0.1367  0.7985  0.0992
  455TIP3    H1 1329   2.030   6.109   1.051 -0.0525  3.7112 -0.5935
  455TIP3    H2 1330   1.931   6.015   0.985  2.4865 -1.1311  1.8721
  456TIP3   OH2 1331   3.142   3.062   1.858 -0.3416 -0.2804 -0.5627
  456TIP3    H1 1332   3.166   3.140   1.907 -2.6588  0.4639 -0.5174
  456TIP3    H2 1333   3.167   3.082   1.768 -0.7579  0.4689 -0.5226
  457TIP3   OH2 1334   3.789   0.640   1.338 -0.5852 -0.0114 -0.3181
  457TIP3    H1 1335   3.804   0.577   1.268 -0.8370  0.0820 -0.4584
  457TIP3    H2 1336   3.771   0.723   1.292  2.6550  0.9149 -0.1708
  458TIP3   OH2 1337   1.852   0.730   2.470  0.1463  0.1049 -0.2846
  458TIP3    H1 1338   1.767   0.762   2.501 -0.6040 -2.4145  0.4580
  458TIP3    H2 1339   1.834   0.695   2.382  0.2348 -1.0082  0.1248
  459TIP3   OH2 1340   2.782   2.796   5.754 -0.2022 -0.0256 -0.5318
  459TIP3    H1 1341   2.862   2.828   5.796 -0.1442  0.4502 -0.9881
  459TIP3    H2 1342   2.711   2.823   5.813 -0.2616  1.9855 -1.4276
  460TIP3   OH2 1343   2.686   1.318   0.862  0.0603 -0.0770  0.3614
  460TIP3    H1 1344   2.613   1.318   0.800  1.9422 -0.3039 -1.9752
  460TIP3    H2 1345   2.737   1.395   0.839  0.3178  0.3813  2.3166
  461TIP3   OH2 1346   2.187   2.663   0.440 -0.0219 -0.9384 -0.2050
  461TIP3    H1 1347   2.133   2.741   0.449 -0.4409 -1.3734  1.2916
  461TIP3    H2 1348   2.273   2.696   0.411 -0.6273 -0.1091 -1.1244
  462TIP3   OH2 1349   1.408   0.863   0.930  0.0017  0.6050  0.4341
  462TIP3    H1 1350   1.341   0.819   0.982 -0.8803  0.0928 -1.1007
  462TIP3    H2 1351   1.370   0.872   0.843  2.1686 -0.3170 -0.6873
  463TIP3   OH2 1352   6.870   1.201   5.528  0.1225 -0.2026  0.1108
  463TIP3    H1 1353   6.812   1.232   5.598  1.4300  0.8410  0.7794
  463TIP3    H2 1354   6.815   1.203   5.449 -0.3630  2.2356  0.4230
  464TIP3   OH2 1355   4.377   0.279   2.754 -0.6227  0.3149 -0.4638
  464TIP3    H1 1356   4.358   0.373   2.758 -1.4898  0.1785 -1.1159
  464TIP3    H2 1357   4.439   0.264   2.826 -1.5890  1.1283  0.5642
  465TIP3   OH2 1358   2.947   0.384   1.145 -0.1636 -0.4208 -0.0345
  465TIP3    H1 1359   2.889   0.372   1.070 -0.7445 -0.1679  0.3642
  465TIP3    H2 1360   3.005   0.308   1.143  0.5289  0.1086 -1.3371
  466TIP3   OH2 1361   4.673   5.302   4.556 -0.3903 -0.0977 -0.2763
  466TIP3    H1 1362   4.723   5.308   4.475 -3.2917  0.1232 -2.1926
  466TIP3    H2 1363   4.631   5.388   4.565 -1.8269 -0.8234  0.2278
  467TIP3   OH2 1364   5.554   1.302   1.266  0.2735  0.0007 -0.5225
  467TIP3    H1 1365   5.604   1.304   1.184  0.3769 -2.0681 -0.5789
  467TIP3    H2 1366   5.524   1.211   1.273 -1.7223  0.6835  0.5718
  468TIP3   OH2 1367   0.465   1.911   2.813 -0.2862  0.0496  0.3334
  468TIP3    H1 1368   0.428   1.974   2.875  0.3103  1.6486 -0.8763
  468TIP3    H2 1369   0.547   1.883   2.853  1.2910  2.8600 -0.6782
  469TIP3   OH2 1370   2.861   2.795   4.087  0.3875  0.1985 -0.2348
  469TIP3    H1 1371   2.802   2.734   4.131 -0.4364  0.9573 -0.2648
  469TIP3    H2 1372   2.948   2.772   4.119 -0.2236  1.0337  2.2082
  470TIP3   OH2 1373   4.149   5.378   1.284 -0.4533  0.4921  0.8237
  470TIP3    H1 1374   4.151   5.372   1.379 -2.7219  2.0141  1.0313
  470TIP3    H2 1375   4.167   5.469   1.264 -0.4771  0.2986 -0.1773
  471TIP3   OH2 1376   7.128   1.564   1.640 -0.6961  0.3841  0.4340
  471TIP3    H1 1377   7.145   1.656   1.658 -0.9212  0.5314 -0.1040
  471TIP3    H2 1378   7.212   1.520   1.659 -1.2261  0.3286  3.0458
  472TIP3   OH2 1379   3.540   4.464   3.515  0.2171  0.3977 -0.5039
  472TIP3    H1 1380   3.528   4.559   3.524 -1.1158  0.1773  0.3746
  472TIP3    H2 1381   3.524   4.430   3.603  0.6988 -0.6445 -0.8111
  473TIP3   OH2 1382   0.298   5.779   0.054  0.1004  0.5184  0.1625
  473TIP3    H1 1383   0.350   5.700   0.063  0.7273  1.1256  2.1777
  473TIP3    H2 1384   0.357   5.843   0.014 -0.4919 -0.0448 -1.7454
  474TIP3   OH2 1385   2.797   2.245   1.916  0.5408 -0.0601  0.7656
  474TIP3    H1 1386   2.782   2.254   2.010  0.9912 -0.0928  0.8439
  474TIP3    H2 1387   2.724   2.291   1.875  0.3415 -0.0487  1.1327
  475TIP3   OH2 1388   5.937   5.188   1.151  0.3163 -0.1913 -0.4762
  475TIP3    H1 1389   5.900   5.156   1.233 -0.1014 -0.1356 -0.6415
  475TIP3    H2 1390   5.877   5.256   1.122 -0.2540 -1.0765 -1.4731
  476TIP3   OH2 1391   1.500   1.624   3.991 -0.1007 -0.3630 -0.0211
  476TIP3    H1 1392   1.456   1.705   3.966  0.1460 -0.3061 -0.2828
  476TIP3    H2 1393   1.580   1.623   3.937 -0.5535 -1.2312 -0.6989
  477TIP3   OH2 1394   5.132   6.330   4.662 -0.2350  0.2719 -0.6606
  477TIP3    H1 1395   5.137   6.415   4.618  0.9032 -0.5594 -2.2295
  477TIP3    H2 1396   5.173   6.269   4.602 -0.2620 -1.2721  0.8026
  478TIP3   OH2 1397   1.093   5.859   0.529  0.0503 -0.2360 -0.1300
  478TIP3    H1 1398   1.021   5.910   0.566  0.3223  0.8883 -1.1069
  478TIP3    H2 1399   1.058   5.823   0.448  0.7091  0.6892 -0.8435
  479TIP3   OH2 1400   4.196   2.880   1.227  0.5213 -0.5361  0.1804
  479TIP3    H1 1401   4.254   2.811   1.261 -1.4119 -1.6498  1.3882
  479TIP3    H2 1402   4.148   2.911   1.304 -0.5709  0.2652 -0.7919
  480TIP3   OH2 1403   0.707   3.836   1.252 -0.0190  0.2444  0.2932
  480TIP3    H1 1404   0.634   3.775   1.240 -0.7953  1.1904  0.1294
  480TIP3    H2 1405   0.729   3.866   1.164  2.4798 -2.1502 -0.0252
  481TIP3   OH2 1406   5.101   0.328   2.866 -0.0735 -0.5291 -0.1712
  481TIP3    H1 1407   5.029   0.389   2.850 -0.8202 -2.1480 -4.1212
  481TIP3    H2 1408   5.125   0.343   2.958 -2.3178  3.3083  0.0112
  482TIP3   OH2 1409   2.168   5.700   0.178 -0.2118  0.2485 -0.4563
  482TIP3    H1 1410   2.121   5.645   0.114 -1.0525 -0.0601  0.4028
  482TIP3    H2 1411   2.218   5.761   0.124 -1.9578  0.8915 -1.4381
  483TIP3   OH2 1412   4.800   2.579   3.297  0.2867 -0.1924 -0.0011
  483TIP3    H1 1413   4.856   2.632   3.241  0.9689  0.0150  0.8482
  483TIP3    H2 1414   4.861   2.534   3.356 -0.2887 -1.6783 -0.4821
  484TIP3   OH2 1415   3.065   6.529   4.665  0.8644 -0.4382  0.4835
  484TIP3    H1 1416   3.066   6.451   4.609  1.6231  0.3206 -0.5889
  484TIP3    H2 1417   3.007   6.590   4.622  0.5212 -0.2757  1.1580
  485TIP3   OH2 1418   3.655   4.153   4.417  0.2922 -0.5196  0.0857
  485TIP3    H1 1419   3.620   4.085   4.475  0.8778 -1.8086 -1.0241
  485TIP3    H2 1420   3.745   4.126   4.400 -0.0350 -0.5164 -1.8873
  486TIP3   OH2 1421   3.319   4.771   1.461  0.2149  0.2259 -0.1075
  486TIP3    H1 1422   3.316   4.727   1.546 -0.2023 -0.5610 -0.5125
  486TIP3    H2 1423   3.382   4.720   1.410  0.0011  0.3115 -0.4622
  487TIP3   OH2 1424   3.989   4.648   0.587  0.0034 -0.3897  0.1198
  487TIP3    H1 1425   3.957   4.702   0.659  0.7492  0.6133 -0.2722
  487TIP3    H2 1426   3.916   4.591   0.566 -0.5594 -0.0397  1.0364
  488TIP3   OH2 1427   5.662   0.861   4.610 -0.4319 -0.8750 -0.0925
  488TIP3    H1 1428   5.756   0.876   4.596 -0.3150 -1.0844  0.4440
  488TIP3    H2 1429   5.654   0.766   4.614 -0.6421 -0.8493  0.0664
  489TIP3   OH2 1430   5.093   4.693   1.854 -0.1873 -0.2909 -0.2261
  489TIP3    H1 1431   5.133   4.609   1.878 -0.4839 -0.2591  0.4081
  489TIP3    H2 1432   5.114   4.705   1.761  1.3909 -0.2065  0.1240
  490TIP3   OH2 1433   0.371   3.388   2.863  0.1797  0.5317 -0.9617
  490TIP3    H1 1434   0.354   3.318   2.800  0.2725 -0.3610 -0.0136
  490TIP3    H2 1435   0.292   3.393   2.916  1.0125 -0.4438  0.4433
  491TIP3   OH2 1436   2.496   4.235   2.117 -0.6170  0.2271  0.0232
  491TIP3    H1 1437   2.522   4.289   2.044 -0.3937  2.2189  1.4978
  491TIP3    H2 1438   2.462   4.296   2.182  1.5069 -1.1037  2.6174
  492TIP3   OH2 1439   2.130   4.007   4.746 -0.3226  0.2181  0.4115
  492TIP3    H1 1440   2.190   4.029   4.675  0.2436 -2.4743 -0.0280
  492TIP3    H2 1441   2.043   4.029   4.711 -0.0769 -1.2844 -1.2747
  493TIP3   OH2 1442   4.495   2.916   1.048  0.0922  0.1053  0.0972
  493TIP3    H1 1443   4.449   2.848   1.098  0.0632 -1.6941 -2.1876
  493TIP3    H2 1444   4.529   2.976   1.114  1.6501 -3.0554  2.4345
  494TIP3   OH2 1445   1.928   4.746   0.684 -0.6411  0.1716 -0.5208
  494TIP3    H1 1446   1.903   4.835   0.662  1.6730  0.9130 -0.4343
  494TIP3    H2 1447   1.971   4.713   0.605 -0.5601 -0.5015 -0.2054
  495TIP3   OH2 1448   4.084   4.310   1.313  0.2831  0.6769  0.0449
  495TIP3    H1 1449   4.076   4.406   1.309 -0.8534  0.5454 -1.8844
  495TIP3    H2 1450   4.136   4.294   1.392 -0.0218  2.8473  0.7555
  496TIP3   OH2 1451   3.053   4.026   0.756 -0.4584  0.2442  0.0161
  496TIP3    H1 1452   3.146   4.007   0.744 -0.7985 -1.3864 -0.3415
  496TIP3    H2 1453   3.042   4.114   0.722  0.6863 -0.0950 -1.3244
  497TIP3   OH2 1454   6.754   4.118   5.520  0.7241  0.5369 -0.3607
  497TIP3    H1 1455   6.808   4.149   5.447  0.5422  0.4179 -0.5478
  497TIP3    H2 1456   6.693   4.190   5.537  2.1360  1.4557  1.0867
  498TIP3   OH2 1457   1.455   6.739   3.243  1.0241 -0.1367 -0.1541
  498TIP3    H1 1458   1.438   6.674   3.311  1.1285 -1.2320 -1.1368
  498TIP3    H2 1459   1.465   6.822   3.290 -0.2985 -0.6186  1.0244
  499TIP3   OH2 1460   5.214   5.629   0.421 -0.3417 -0.2144 -0.0444
  499TIP3    H1 1461   5.172   5.600   0.503  0.2007 -1.2117 -0.1136
  499TIP3    H2 1462   5.306   5.640   0.444 -0.1143 -0.8852 -0.6136
  500TIP3   OH2 1463   4.529   2.523   5.742  0.0323 -0.0363 -0.3781
  500TIP3    H1 1464   4.542   2.519   5.647 -0.5345  0.6974 -0.4978
  500TIP3    H2 1465   4.541   2.615   5.764  1.1198 -0.3583  0.4203
  501TIP3   OH2 1466   2.965   0.816   1.334  0.5873  0.2345  0.0642
  501TIP3    H1 1467   2.931   0.883   1.275 -1.9408  0.1141  1.2742
  501TIP3    H2 1468   2.996   0.746   1.276  4.8633  2.8578 -1.3673
  502TIP3   OH2 1469   5.942   6.759   2.920 -0.0105 -0.4618 -0.3765
  502TIP3    H1 1470   5.924   6.853   2.914  0.7542 -0.3354 -0.8334
  502TIP3    H2 1471   5.859   6.717   2.900 -0.4892  0.1219  0.3490
  503TIP3   OH2 1472   0.760   4.209   1.520 -0.1065  0.2426 -0.1319
  503TIP3    H1 1473   0.668   4.181   1.519  0.0233 -0.1668 -1.1312
  503TIP3    H2 1474   0.809   4.133   1.490  0.5432  0.5539  0.1112
  504TIP3   OH2 1475   0.400   5.535   3.410 -0.2334  0.3437  0.1101
  504TIP3    H1 1476   0.432   5.445   3.419  0.9713  0.8238  0.7967
  504TIP3    H2 1477   0.314   5.534   3.452 -0.5419 -0.6421 -0.5206
  505TIP3   OH2 1478   0.128   3.343   2.103  0.3524  0.4002 -0.2756
  505TIP3    H1 1479   0.092   3.427   2.129 -0.8813 -0.6827  1.7101
  505TIP3    H2 1480   0.183   3.316   2.176  0.2592 -0.7879 -0.6223
  506TIP3   OH2 1481   2.471   2.970   4.085 -0.0076  0.1846 -0.3817
  506TIP3    H1 1482   2.437   2.920   4.159 -0.1348 -0.1165 -0.6425
  506TIP3    H2 1483   2.505   3.051   4.124  0.8043 -0.3842  0.1217
  507TIP3   OH2 1484   4.187   0.611   5.506 -0.4401 -0.2195  0.1809
  507TIP3    H1 1485   4.202   0.532   5.558 -1.1855  0.1816  1.0301
  507TIP3    H2 1486   4.093   0.609   5.485 -0.0095 -0.8243 -1.9324
  508TIP3   OH2 1487   5.540   3.061   2.947 -0.2132  0.7692  0.2340
  508TIP3    H1 1488   5.559   3.111   2.868  0.4282 -0.3616 -0.3644
  508TIP3    H2 1489   5.617   3.073   3.003  0.3425 -0.2118 -0.2848
  509TIP3   OH2 1490   3.841   6.705   4.083  0.0210 -0.2187  0.1196
  509TIP3    H1 1491   3.861   6.621   4.041  0.2358 -0.2670  0.3148
  509TIP3    H2 1492   3.746   6.712   4.078  0.0966  0.2212 -1.2186
  510TIP3   OH2 1493   0.919   3.823   4.370 -0.3766 -0.1827 -0.2796
  510TIP3    H1 1494   0.937   3.800   4.461 -0.4517 -0.9074 -0.4496
  510TIP3    H2 1495   0.904   3.918   4.373  3.2461  0.5456 -0.0473
  511TIP3   OH2 1496   5.223   6.287   3.051 -0.1473  0.5541  0.3425
  511TIP3    H1 1497   5.156   6.226   3.018 -1.4007  2.0357  0.0288
  511TIP3    H2 1498   5.207   6.291   3.145 -0.1142  0.4546  0.3524
  512TIP3   OH2 1499   6.229   3.984   1.639 -0.9707  0.4181  0.2437
  512TIP3    H1 1500   6.173   4.011   1.713 -0.2784 -0.4710  1.1239
  512TIP3    H2 1501   6.318   3.994   1.672 -0.5812  1.8283 -1.1556
  513TIP3   OH2 1502   1.831   0.788   4.667 -0.3596  0.2010  0.2443
  513TIP3    H1 1503   1.796   0.847   4.734 -0.0829  0.6510 -0.0070
  513TIP3    H2 1504   1.858   0.845   4.596 -3.4608 -0.4296 -1.5992
  514TIP3   OH2 1505   4.034   5.430   3.896 -0.0677 -0.0979 -0.0917
  514TIP3    H1 1506   4.104   5.392   3.842  0.2524 -0.9071  0.8646
  514TIP3    H2 1507   3.969   5.361   3.904 -0.8565  0.5440 -0.7039
  515TIP3   OH2 1508   1.280   5.511   2.860 -0.3122 -0.1695  0.3742
  515TIP3    H1 1509   1.264   5.440   2.922  1.2046  0.1683  1.1982
  515TIP3    H2 1510   1.316   5.582   2.914 -1.8342  1.2680 -0.4139
  516TIP3   OH2 1511   1.841   4.093   3.419 -0.3064  0.3526  0.2472
  516TIP3    H1 1512   1.823   4.177   3.377 -0.0217  1.3859  2.0909
  516TIP3    H2 1513   1.756   4.060   3.446 -0.1910  2.1105  3.1828
  517TIP3   OH2 1514   4.211  -0.020   3.625  0.6241 -0.2601 -0.5908
  517TIP3    H1 1515   4.118  -0.004   3.637  0.3297 -2.4428  0.2978
  517TIP3    H2 1516   4.233   0.028   3.544 -1.5973 -0.9490 -1.6731
  518TIP3   OH2 1517   1.486   2.374   5.609  0.5051 -0.2953 -0.4107
  518TIP3    H1 1518   1.570   2.351   5.650 -0.5167 -1.2954  1.2767
  518TIP3    H2 1519   1.425   2.380   5.683 -0.5900  2.1038 -1.4046
  519TIP3   OH2 1520   6.969   0.035   5.603 -0.5771 -0.0661  0.3616
  519TIP3    H1 1521   7.064   0.041   5.604 -0.4722 -1.4250  0.1591
  519TIP3    H2 1522   6.945   0.039   5.510 -0.8242  1.3288  0.4562
  520TIP3   OH2 1523   3.272   6.602   0.207  0.1130  0.6511  0.1813
  520TIP3    H1 1524   3.255   6.653   0.286  0.8509  0.0561  0.7333
  520TIP3    H2 1525   3.316   6.664   0.148  2.8594  0.1846  1.6035
  521TIP3   OH2 1526   5.298   4.097   4.756  0.5135  0.2616 -0.4921
  521TIP3    H1 1527   5.327   4.051   4.677  0.9279  0.3512 -0.3968
  521TIP3    H2 1528   5.343   4.052   4.828 -1.9110 -1.5648  0.0023
  522TIP3   OH2 1529   3.943   4.056   1.249 -0.0365 -0.0789 -0.2427
  522TIP3    H1 1530   3.980   4.004   1.178 -0.1936 -0.0968 -0.3098
  522TIP3    H2 1531   3.985   4.142   1.241 -1.3090  0.4657 -1.3942
  523TIP3   OH2 1532   0.026   0.301   3.294  0.3359 -0.5790  0.3391
  523TIP3    H1 1533   0.015   0.343   3.379  0.2332 -0.5352  0.3041
  523TIP3    H2 1534   0.085   0.358   3.246 -2.3061  1.3295 -0.9163
  524TIP3   OH2 1535   0.671   6.517   0.154  0.0155  0.1963 -0.0034
  524TIP3    H1 1536   0.664   6.582   0.083  3.1510  2.0633  1.1473
  524TIP3    H2 1537   0.716   6.443   0.114  0.4670  0.6422 -0.3450
  525TIP3   OH2 1538   6.582   0.939   2.114 -0.4160  0.5593  0.0264
  525TIP3    H1 1539   6.627   0.858   2.089  0.1548  1.1221 -0.7857
  525TIP3    H2 1540   6.584   0.993   2.036 -3.5686  0.1804 -0.4490
  526TIP3   OH2 1541   2.624   1.321   4.770  0.0509 -0.0885 -0.1705
  526TIP3    H1 1542   2.640   1.346   4.861  1.1780  0.4976 -0.5163
  526TIP3    H2 1543   2.593   1.231   4.776 -2.0317  0.6331  0.9375
  527TIP3   OH2 1544   1.150   3.136   1.939  0.1139  0.1380 -0.0243
  527TIP3    H1 1545   1.185   3.111   1.854 -0.2137  1.5929 -0.6144
  527TIP3    H2 1546   1.066   3.090   1.945  0.6752 -0.9119  0.0595
  528TIP3   OH2 1547   5.712   3.152   2.098  1.4412  0.5211 -0.1329
  528TIP3    H1 1548   5.639   3.138   2.039  1.2144  0.0827  0.2465
  528TIP3    H2 1549   5.710   3.246   2.117  0.8184  0.4751  0.0695
  529TIP3   OH2 1550   2.372   5.648   3.932 -0.2806  0.4030  0.1994
  529TIP3    H1 1551   2.284   5.682   3.914 -0.1718  0.2466 -0.6816
  529TIP3    H2 1552   2.385   5.580   3.866  0.4899  0.4042  0.3421
  530TIP3   OH2 1553   1.974   6.751   0.736  0.2368 -0.1883  0.2721
  530TIP3    H1 1554   2.045   6.709   0.687 -0.0724 -0.7241  0.2722
  530TIP3    H2 1555   1.973   6.705   0.820  1.0641  1.0314  0.9775
  531TIP3   OH2 1556   5.046   0.194   2.634  0.3338  0.3087 -0.1849
  531TIP3    H1 1557   5.089   0.222   2.714  0.9272 -0.5061 -0.2061
  531TIP3    H2 1558   4.953   0.190   2.657  0.2769  1.7427 -0.0406
  532TIP3   OH2 1559   2.910   3.556   0.679 -0.1460  0.8151 -0.0226
  532TIP3    H1 1560   2.840   3.555   0.745  0.4917  1.0179  0.6694
  532TIP3    H2 1561   2.987   3.589   0.726  0.9516 -1.3158 -0.2266
  533TIP3   OH2 1562   4.444   4.830   4.493 -0.6965  0.0188  0.0953
  533TIP3    H1 1563   4.396   4.873   4.565  0.2882 -0.3328  0.9927
  533TIP3    H2 1564   4.497   4.763   4.537 -0.5667 -0.6406 -1.0468
  534TIP3   OH2 1565   2.837   5.921   1.224  0.3601  0.1580  0.0205
  534TIP3    H1 1566   2.844   6.004   1.178  0.2850  0.5468  0.6865
  534TIP3    H2 1567   2.869   5.856   1.162 -1.9092  0.3318 -1.4676
  535TIP3   OH2 1568   7.187   6.358   4.587 -0.0846  0.1648 -0.3451
  535TIP3    H1 1569   7.257   6.354   4.522 -1.5691  0.5137 -2.0642
  535TIP3    H2 1570   7.190   6.448   4.620  0.2714  0.1862 -0.4358
  536TIP3   OH2 1571   5.527   5.897   2.089  0.1555 -0.1209  1.0568
  536TIP3    H1 1572   5.559   5.812   2.058  1.5231  0.4826  0.7287
  536TIP3    H2 1573   5.557   5.902   2.180 -0.6481 -0.3314  1.3386
  537TIP3   OH2 1574   2.732   2.417   3.959 -0.5707 -0.4334 -0.1414
  537TIP3    H1 1575   2.795   2.429   4.030  0.2015 -2.0622 -0.5010
  537TIP3    H2 1576   2.712   2.323   3.961 -2.0070 -0.1684 -0.8721
  538TIP3   OH2 1577   1.820   5.806   3.568 -0.1634 -0.2637 -0.5524
  538TIP3    H1 1578   1.728   5.778   3.574 -0.5290 -0.1430 -3.6468
  538TIP3    H2 1579   1.815   5.901   3.567  0.0707 -0.2469  0.0230
  539TIP3   OH2 1580   3.569   3.500   1.153 -0.3399  0.3246 -0.2097
  539TIP3    H1 1581   3.482   3.483   1.189 -0.3983 -0.2289 -0.6112
  539TIP3    H2 1582   3.580   3.595   1.162 -1.5049  0.5936 -1.2857
  540TIP3   OH2 1583   4.336   4.905   4.737 -0.1242  0.8322  0.1960
  540TIP3    H1 1584   4.277   4.980   4.724 -0.6141  0.6640  1.3696
  540TIP3    H2 1585   4.302   4.861   4.814  2.9012  2.0681  2.4096
  541TIP3   OH2 1586   0.530   5.140   4.207  0.0342 -0.3556 -0.0113
  541TIP3    H1 1587   0.612   5.106   4.244 -0.5316 -0.7284  0.9475
  541TIP3    H2 1588   0.542   5.235   4.206  0.7043 -0.4377 -0.4432
  542TIP3   OH2 1589   0.036   2.784   0.974  0.4175  0.1359  0.6790
  542TIP3    H1 1590  -0.035   2.834   0.933 -0.3649 -1.5730 -0.1759
  542TIP3    H2 1591   0.116   2.831   0.949 -0.3427  1.5705  0.8670
  543TIP3   OH2 1592   7.139   5.162   5.586 -0.1663  0.2597  0.4400
  543TIP3    H1 1593   7.208   5.106   5.620  0.0768 -1.2060 -2.2199
  543TIP3    H2 1594   7.185   5.236   5.545 -0.2342  0.0781  0.0280
  544TIP3   OH2 1595   0.646   0.665   4.985  0.1912  0.3202 -0.2632
  544TIP3    H1 1596   0.699   0.586   4.979  0.6113  0.4247  1.4998
  544TIP3    H2 1597   0.708   0.737   4.977  0.0835  0.4574  0.1244
  545TIP3   OH2 1598   3.824   4.471   0.486  0.0747 -0.4155 -0.1945
  545TIP3    H1 1599   3.855   4.392   0.440 -1.6198 -1.6605  0.6866
  545TIP3    H2 1600   3.734   4.449   0.512 -0.0459  1.4101  1.0606
  546TIP3   OH2 1601   0.903   1.315   1.053  0.6622 -0.0952 -0.5858
  546TIP3    H1 1602   0.866   1.245   1.107  1.8607 -0.8365 -0.6735
  546TIP3    H2 1603   0.991   1.284   1.031  0.5033  0.5468 -2.2978
  547TIP3   OH2 1604   2.499   4.065   3.960 -0.0729 -0.1063 -0.2189
  547TIP3    H1 1605   2.592   4.085   3.949  0.2883 -0.7166  1.4230
  547TIP3    H2 1606   2.495   3.969   3.961 -0.6729 -0.0856 -0.0310
  548TIP3   OH2 1607   6.136   1.568   4.054  0.2006 -0.4160  1.0914
  548TIP3    H1 1608   6.206   1.508   4.028  0.0072 -0.7319  1.2901
  548TIP3    H2 1609   6.181   1.635   4.107  0.4077 -0.4156  0.9168
  549TIP3   OH2 1610   1.938   5.828   4.129 -0.8578 -0.0452 -0.2773
  549TIP3    H1 1611   1.858   5.880   4.132  0.4789  2.1893 -0.8693
  549TIP3    H2 1612   1.993   5.864   4.199 -0.1869 -1.2328 -0.1635
  550TIP3   OH2 1613   1.201   0.305   1.105 -0.2798  0.1118  0.0594
  550TIP3    H1 1614   1.145   0.265   1.039  0.4955 -1.5273  0.3609
  550TIP3    H2 1615   1.289   0.301   1.067  0.3157 -1.6427  1.4890
  551TIP3   OH2 1616   2.405   5.404   2.576  0.0041  0.4205 -0.2877
  551TIP3    H1 1617   2.392   5.322   2.528  1.1639  0.2935 -0.4149
  551TIP3    H2 1618   2.342   5.464   2.537 -2.1825 -0.8661  1.0325
  552TIP3   OH2 1619   6.014   4.268   4.875  0.4378  0.4256 -0.0081
  552TIP3    H1 1620   6.083   4.330   4.853  0.4719 -0.2121 -1.9003
  552TIP3    H2 1621   6.046   4.224   4.954  1.7262  0.8420 -0.2668
  553TIP3   OH2 1622   0.966   2.326   1.317  0.7752  0.2252  0.4993
  553TIP3    H1 1623   0.878   2.357   1.296 -0.3184 -2.5329  0.5323
  553TIP3    H2 1624   0.993   2.277   1.239  0.5115 -2.3388  1.9086
  554TIP3   OH2 1625   5.851   2.063   5.186  0.1036 -0.9798 -0.2626
  554TIP3    H1 1626   5.863   2.140   5.242 -0.7562  0.3588 -1.8308
  554TIP3    H2 1627   5.797   2.094   5.113  0.2177 -2.9375 -1.2569
  555TIP3   OH2 1628   3.564   6.707   4.042  0.4245  0.3790  0.3862
  555TIP3    H1 1629   3.520   6.708   4.127  1.2159  0.4105  0.8063
  555TIP3    H2 1630   3.512   6.647   3.989 -0.3993  0.7861  0.7075
  556TIP3   OH2 1631   4.096   0.723   0.725  0.7174 -0.0022  0.1320
  556TIP3    H1 1632   4.004   0.696   0.733  1.1024 -0.8137  2.2373
  556TIP3    H2 1633   4.120   0.697   0.636 -0.7095 -1.0010 -0.0050
  557TIP3   OH2 1634   6.303   6.809   4.884 -0.2542  0.4757 -0.0090
  557TIP3    H1 1635   6.304   6.780   4.793 -0.2145 -0.6402  0.3251
  557TIP3    H2 1636   6.396   6.807   4.910 -0.3812 -0.4385  0.4109
  558TIP3   OH2 1637   2.908   0.202   3.526  0.1851 -0.0115 -0.0879
  558TIP3    H1 1638   2.824   0.245   3.547  0.0506 -0.1986 -0.2419
  558TIP3    H2 1639   2.883   0.114   3.500  0.4763 -0.2388  0.3847
  559TIP3   OH2 1640   4.221   3.161   0.451 -0.2371  0.8870  0.0651
  559TIP3    H1 1641   4.261   3.081   0.483 -0.1971  1.3144  1.1151
  559TIP3    H2 1642   4.169   3.194   0.524 -3.0155  0.0786 -1.3733
  560TIP3   OH2 1643   5.076   1.262   5.812  0.1933 -0.7368  0.0832
  560TIP3    H1 1644   5.135   1.311   5.869 -0.1563 -0.6379  0.3618
  560TIP3    H2 1645   5.110   1.277   5.724  0.6826 -0.8180  0.2555
  561TIP3   OH2 1646   3.759   0.248   3.034 -0.4468 -0.5400  0.4836
  561TIP3    H1 1647   3.701   0.275   3.106 -0.9667 -2.1442  0.7216
  561TIP3    H2 1648   3.713   0.174   2.994 -0.1170  0.2515 -1.4674
  562TIP3   OH2 1649   0.743   5.399   3.257  1.0490 -0.2356 -1.0264
  562TIP3    H1 1650   0.688   5.409   3.180 -0.4158  0.8333  0.0931
  562TIP3    H2 1651   0.753   5.304   3.267  1.3926 -0.3899 -2.5810
  563TIP3   OH2 1652   3.041   2.675   4.865  0.3657  0.0988  0.1062
  563TIP3    H1 1653   3.023   2.624   4.786  0.0682 -1.0161  0.8633
  563TIP3    H2 1654   3.100   2.619   4.916  2.1787  1.6270 -0.1739
  564TIP3   OH2 1655   2.183   5.355   3.709  0.0605  0.2657 -0.4541
  564TIP3    H1 1656   2.191   5.400   3.625 -1.5903  0.3964 -0.5856
  564TIP3    H2 1657   2.090   5.362   3.731  0.5001  0.4803  1.5292
  565TIP3   OH2 1658   6.869   5.500   2.682 -0.4407  0.5618  0.4408
  565TIP3    H1 1659   6.886   5.475   2.591  0.8635 -1.5816  1.2029
  565TIP3    H2 1660   6.817   5.580   2.675 -1.1960 -0.0474 -2.1912
  566TIP3   OH2 1661   6.923   4.473   5.710 -0.5278  0.3967  0.3695
  566TIP3    H1 1662   6.831   4.495   5.696 -1.1172 -0.5020  2.4278
  566TIP3    H2 1663   6.965   4.556   5.732 -1.0708  0.6479  0.4744
  567TIP3   OH2 1664   4.604   3.768   4.590  0.3514  0.4766  0.1629
  567TIP3    H1 1665   4.591   3.719   4.510  0.7283 -0.7335  0.8181
  567TIP3    H2 1666   4.578   3.858   4.568  0.0328  0.0771 -1.1669
  568TIP3   OH2 1667   0.834   2.446   0.345 -0.0714  0.6100 -0.0414
  568TIP3    H1 1668   0.858   2.421   0.255 -4.7852 -2.3782 -0.8050
  568TIP3    H2 1669   0.854   2.369   0.398 -2.5023  0.0726  0.2304
  569TIP3   OH2 1670   0.996   5.403   1.389 -0.0050 -0.3126 -0.1623
  569TIP3    H1 1671   0.923   5.458   1.359  0.0457  0.5482  1.2100
  569TIP3    H2 1672   0.963   5.363   1.470  1.6557  1.5898  1.5588
  570TIP3   OH2 1673   3.988   2.097   3.081 -0.4428 -0.2168  0.4219
  570TIP3    H1 1674   4.003   2.074   3.172 -0.2022  0.5941  0.5936
  570TIP3    H2 1675   4.075   2.118   3.047 -0.9039  3.4893  1.1306
  571TIP3   OH2 1676   3.040   1.088   0.862  0.0252  0.2419 -0.2180
  571TIP3    H1 1677   3.072   1.021   0.922  1.0345  0.0935 -0.8944
  571TIP3    H2 1678   3.021   1.163   0.917 -2.8233 -1.1089  0.8180
  572TIP3   OH2 1679   6.982   6.423   2.524  0.7004  0.2039  0.2090
  572TIP3    H1 1680   7.020   6.419   2.611  1.1472  0.8547  0.0484
  572TIP3    H2 1681   7.016   6.345   2.479  0.6633 -0.0015  0.5312
  573TIP3   OH2 1682   3.199   6.395   4.845  0.2187 -0.3087 -0.2980
  573TIP3    H1 1683   3.184   6.312   4.801 -0.3270  0.7511 -2.2397
  573TIP3    H2 1684   3.151   6.459   4.793  0.8700  1.2830  0.9507
  574TIP3   OH2 1685   1.915   0.114   2.530 -0.4248  0.1693 -0.5675
  574TIP3    H1 1686   1.839   0.141   2.479 -0.3915  3.1764  0.7740
  574TIP3    H2 1687   1.939   0.029   2.494 -3.2132  0.0039 -2.3314
  575TIP3   OH2 1688   6.234   6.315   3.448  0.0297 -0.4489 -0.4266
  575TIP3    H1 1689   6.316   6.285   3.487 -0.0926 -0.5494 -0.2430
  575TIP3    H2 1690   6.168   6.296   3.515 -0.3158 -1.4271 -1.0283
  576TIP3   OH2 1691   2.567   0.382   2.117 -0.5272 -0.0343 -0.6273
  576TIP3    H1 1692   2.497   0.444   2.095 -1.1337 -0.5794 -0.2849
  576TIP3    H2 1693   2.539   0.300   2.078 -1.9032 -1.1847  2.4167
  577TIP3   OH2 1694   0.366   6.512   3.245 -0.3914 -0.2077 -0.2259
  577TIP3    H1 1695   0.443   6.534   3.192  0.9156 -0.9739  1.2907
  577TIP3    H2 1696   0.371   6.417   3.255 -0.9185 -0.1323  0.7969
  578TIP3   OH2 1697   3.526   0.427   0.606 -0.2585  0.2923 -0.1873
  578TIP3    H1 1698   3.539   0.420   0.511  2.1924  0.7009  0.0382
  578TIP3    H2 1699   3.604   0.385   0.643 -1.2138  0.0826  1.6524
  579TIP3   OH2 1700   6.006   6.247   4.386 -0.4005 -0.0295  0.0171
  579TIP3    H1 1701   5.912   6.257   4.366 -0.1273  0.2779 -1.1895
  579TIP3    H2 1702   6.039   6.191   4.316  0.0895 -1.2193  1.1555
  580TIP3   OH2 1703   2.745   0.340   0.359  0.3857  0.0917  0.6654
  580TIP3    H1 1704   2.724   0.343   0.452  1.0659  1.3982  0.7876
  580TIP3    H2 1705   2.840   0.353   0.355  0.1201  2.0258 -0.3006
  581TIP3   OH2 1706   3.451   4.069   0.498  0.2935 -0.2765 -0.1720
  581TIP3    H1 1707   3.519   4.012   0.462 -0.5577 -2.2058  1.0726
  581TIP3    H2 1708   3.396   4.091   0.422  0.6685 -1.1058 -0.7039
  582TIP3   OH2 1709   0.187   0.565   3.243  0.1770  0.4407 -0.2937
  582TIP3    H1 1710   0.182   0.642   3.186  2.7778  1.3539  0.5290
  582TIP3    H2 1711   0.280   0.559   3.266 -0.3687 -1.4013  1.7852
  583TIP3   OH2 1712   3.159   2.167   1.838  0.6060 -0.2631 -0.6892
  583TIP3    H1 1713   3.166   2.074   1.858  2.8862 -0.3523 -1.6294
  583TIP3    H2 1714   3.245   2.203   1.858 -0.5162  1.9123  0.6694
  584TIP3   OH2 1715   3.386   2.720   2.575 -0.3797  0.2194  0.2260
  584TIP3    H1 1716   3.446   2.791   2.599 -1.3584  1.6526 -1.3682
  584TIP3    H2 1717   3.354   2.686   2.659  0.0974  1.6830  1.0313
  585TIP3   OH2 1718   5.923   6.610   0.986 -0.1190  0.2625  0.2254
  585TIP3    H1 1719   5.913   6.589   1.079 -0.9313  1.5921  0.4659
  585TIP3    H2 1720   5.850   6.668   0.966 -0.6012 -0.8488 -1.5446
  586TIP3   OH2 1721   0.659   5.266   5.653  0.1182  0.2887  0.3134
  586TIP3    H1 1722   0.733   5.247   5.711  1.1789  0.1906 -1.0268
  586TIP3    H2 1723   0.669   5.359   5.633  0.2772  0.1202 -0.4007
  587TIP3   OH2 1724   3.919   4.111   4.326 -0.7282 -0.4810  0.0680
  587TIP3    H1 1725   3.952   4.064   4.402  1.1388  1.6687  0.7135
  587TIP3    H2 1726   3.910   4.044   4.258 -2.5676 -2.4756  2.1289
  588TIP3   OH2 1727   0.570   3.984   4.465  0.3041  0.0273 -0.2267
  588TIP3    H1 1728   0.594   3.970   4.374  0.8029 -0.6368  0.0012
  588TIP3    H2 1729   0.489   4.034   4.461  0.0320 -0.4627 -1.0397
  589TIP3   OH2 1730   3.905   3.608   2.724  0.2538 -0.3134  0.1054
  589TIP3    H1 1731   3.925   3.697   2.695 -1.1212  0.0943  0.3134
  589TIP3    H2 1732   3.836   3.578   2.665 -1.2155 -0.1912  1.6618
  590TIP3   OH2 1733   3.153   3.190   5.414  0.0894  0.6203  0.4359
  590TIP3    H1 1734   3.175   3.203   5.322 -0.3721  0.2648  0.2723
  590TIP3    H2 1735   3.096   3.114   5.415 -0.8328  1.2925  0.8781
  591TIP3   OH2 1736   3.982   5.904   3.906  0.3056 -0.3350  0.0743
  591TIP3    H1 1737   3.896   5.903   3.864  0.1215 -2.9651  0.3710
  591TIP3    H2 1738   4.017   5.816   3.891  2.2425  0.1510  1.4041
  592TIP3   OH2 1739   0.600  -0.003   3.862 -0.5043  0.5014 -0.5297
  592TIP3    H1 1740   0.508   0.021   3.857 -0.0769  1.9118 -2.7213
  592TIP3    H2 1741   0.646   0.063   3.811  1.7478 -0.1879  0.4475
  593TIP3   OH2 1742   3.522   6.035   4.738  0.2971 -0.4586  0.9657
  593TIP3    H1 1743   3.488   6.072   4.819  0.9102  0.4120  0.8454
  593TIP3    H2 1744   3.516   6.106   4.675 -2.2752 -1.7648 -0.4057
  594TIP3   OH2 1745   0.835   6.501   3.287  0.1738  0.2390 -0.1129
  594TIP3    H1 1746   0.888   6.580   3.275  0.9403 -0.3053 -0.4606
  594TIP3    H2 1747   0.892   6.442   3.335  0.7241 -1.1523 -2.3299
  595TIP3   OH2 1748   1.695   3.533   0.718  0.0313  0.3867 -0.4202
  595TIP3    H1 1749   1.785   3.516   0.688 -0.1851 -1.6953 -0.0741
  595TIP3    H2 1750   1.640   3.506   0.645 -0.3590 -0.1142  0.0527
  596TIP3   OH2 1751   3.336   2.595   2.948  0.1337  0.2607  0.3619
  596TIP3    H1 1752   3.431   2.604   2.950  0.1751 -0.0687  0.0625
  596TIP3    H2 1753   3.315   2.555   3.033  0.1080  1.6276  1.0133
  597TIP3   OH2 1754   1.997   5.074   3.485 -0.7218  0.2448 -0.6636
  597TIP3    H1 1755   1.964   5.058   3.397 -1.1184 -0.2181 -0.4321
  597TIP3    H2 1756   2.092   5.066   3.476 -0.6034  2.0779 -1.4277
  598TIP3   OH2 1757   6.432   4.008   5.337  0.5649  0.6749  0.0281
  598TIP3    H1 1758   6.525   4.010   5.316  0.2254  1.2217 -1.5238
  598TIP3    H2 1759   6.429   3.988   5.431  2.1901 -0.8366 -0.1999
  599TIP3   OH2 1760   3.719   6.234   0.460 -0.2759  0.1934 -0.2371
  599TIP3    H1 1761   3.739   6.141   0.446 -0.3702 -0.1552  1.6909
  599TIP3    H2 1762   3.738   6.275   0.375  1.9946 -1.2146 -0.5158
  600TIP3   OH2 1763   3.241   1.197   0.483 -0.3784  0.0645  0.3152
  600TIP3    H1 1764   3.247   1.152   0.399  0.2120 -0.4611  0.6329
  600TIP3    H2 1765   3.155   1.174   0.517 -2.0543  2.8620 -1.5806
  601TIP3   OH2 1766   1.621   6.315   3.781  0.2992 -0.8380  0.1758
  601TIP3    H1 1767   1.577   6.369   3.846 -0.0812 -0.2670 -0.5347
  601TIP3    H2 1768   1.567   6.325   3.702 -0.1013 -2.6880  0.1650
  602TIP3   OH2 1769   0.041   4.067   0.803  0.1240 -0.4846  0.0081
  602TIP3    H1 1770   0.066   4.143   0.855  4.0671 -1.0060 -0.7745
  602TIP3    H2 1771   0.021   4.101   0.716  0.1023 -0.1913  0.1295
  603TIP3   OH2 1772   3.009   4.565   4.159 -0.3277  0.1472  0.5459
  603TIP3    H1 1773   3.072   4.522   4.216 -2.4775 -1.6157  1.7404
  603TIP3    H2 1774   3.057   4.638   4.120  2.6546 -1.6062  0.6836
  604TIP3   OH2 1775   5.836   3.725   3.766  0.1462 -0.2355  0.5146
  604TIP3    H1 1776   5.876   3.660   3.707 -0.4973  0.2334 -0.4539
  604TIP3    H2 1777   5.762   3.760   3.717 -1.1088 -0.6491  2.0519
  605TIP3   OH2 1778   5.201   2.749   0.058 -0.4614 -0.6207 -0.7214
  605TIP3    H1 1779   5.292   2.742   0.087 -0.4780 -0.1156 -0.5474
  605TIP3    H2 1780   5.158   2.673   0.098 -0.6335  0.4014  1.1743
  606TIP3   OH2 1781   6.320   3.025   4.050  0.3968  0.5589 -0.1511
  606TIP3    H1 1782   6.325   2.946   3.997  1.5743 -0.7873  1.8624
  606TIP3    H2 1783   6.268   3.000   4.127 -1.1194  2.4098 -0.4730
  607TIP3   OH2 1784   5.911   0.946   4.213  0.5915 -0.3037 -0.6572
  607TIP3    H1 1785   5.938   1.038   4.214 -2.1198  0.5849 -0.8510
  607TIP3    H2 1786   5.916   0.918   4.304  2.7685 -0.4733 -0.7701
  608TIP3   OH2 1787   4.108   6.147   4.573 -0.2418  0.7602 -0.1939
  608TIP3    H1 1788   4.202   6.150   4.590 -0.2682  1.8306 -0.1389
  608TIP3    H2 1789   4.090   6.228   4.524 -1.1085  0.5034 -0.3219
  609TIP3   OH2 1790   1.944   5.034   3.211 -0.1857 -0.2970 -0.3379
  609TIP3    H1 1791   1.867   5.037   3.154 -0.6454  0.1719  0.2825
  609TIP3    H2 1792   2.001   5.103   3.179 -0.2602 -0.3005 -0.4773
  610TIP3   OH2 1793   2.280   3.636   5.108  0.1247  0.2874 -0.3856
  610TIP3    H1 1794   2.303   3.658   5.018  1.0790  0.5903 -0.0807
  610TIP3    H2 1795   2.200   3.585   5.101  0.1016  0.4500 -1.3928
  611TIP3   OH2 1796   4.393   0.726   2.133  0.2206 -0.6379  0.3037
  611TIP3    H1 1797   4.399   0.731   2.038 -1.3915 -2.8803 -0.0043
  611TIP3    H2 1798   4.470   0.675   2.159  1.7095  1.5685  0.4868
  612TIP3   OH2 1799   2.902   4.370   5.487 -0.3335 -0.1418  0.1758
  612TIP3    H1 1800   2.987   4.382   5.443  0.3696 -2.6742  0.6590
  612TIP3    H2 1801   2.922   4.378   5.580 -0.0974 -2.8180  0.4339
  613TIP3   OH2 1802   0.757   2.252   0.032 -0.4936 -0.1372  0.1068
  613TIP3    H1 1803   0.699   2.217  -0.036  0.0379 -0.8756  0.0166
  613TIP3    H2 1804   0.719   2.219   0.114 -0.6439  0.0295  0.1040
  614TIP3   OH2 1805   4.477   6.591   4.637 -0.0667 -0.1183  0.1371
  614TIP3    H1 1806   4.450   6.605   4.728  0.9539  2.0191  0.1737
  614TIP3    H2 1807   4.540   6.519   4.641 -1.0481 -0.9557  0.9048
  615TIP3   OH2 1808   3.745   1.474   1.845 -0.0317 -0.1087 -0.0601
  615TIP3    H1 1809   3.667   1.497   1.895  0.0269 -0.4135  0.1788
  615TIP3    H2 1810   3.712   1.449   1.759 -0.0910  0.9059 -0.3456
  616TIP3   OH2 1811   2.445   2.929   2.046 -0.5204 -0.0348  0.2263
  616TIP3    H1 1812   2.474   3.012   2.084  1.1004 -0.8607  0.9463
  616TIP3    H2 1813   2.495   2.920   1.965 -2.7364  0.9331 -1.3377
  617TIP3   OH2 1814   2.894   4.849   5.224 -0.3219  0.2939 -0.1591
  617TIP3    H1 1815   2.881   4.813   5.311 -1.1207 -2.4436 -1.3052
  617TIP3    H2 1816   2.837   4.926   5.220 -0.5486  0.2376  1.5771
  618TIP3   OH2 1817   6.217   6.179   0.084 -0.0365  0.1946  0.2772
  618TIP3    H1 1818   6.300   6.195   0.129  0.3735 -1.5974  0.2165
  618TIP3    H2 1819   6.227   6.222  -0.001  0.2923  1.1365  0.7791
  619TIP3   OH2 1820   3.475   5.895   0.859 -0.3817 -0.2115 -0.1815
  619TIP3    H1 1821   3.432   5.979   0.845 -2.0867 -0.8536  0.9565
  619TIP3    H2 1822   3.431   5.834   0.800  0.1300 -0.5303 -0.2414
  620TIP3   OH2 1823   0.297   5.030   4.225  0.1323 -0.2204  0.0307
  620TIP3    H1 1824   0.240   5.102   4.251  1.4391  0.0677  2.3152
  620TIP3    H2 1825   0.380   5.072   4.203 -0.0746 -0.7620 -1.9928
  621TIP3   OH2 1826   1.604   3.550   5.347 -0.8081 -0.5146  0.0887
  621TIP3    H1 1827   1.581   3.460   5.321  2.0592 -1.4342  0.2941
  621TIP3    H2 1828   1.670   3.576   5.283 -0.1670  0.6771  1.2066
  622TIP3   OH2 1829   5.589   5.360   5.869 -0.4234 -0.7587  0.1496
  622TIP3    H1 1830   5.535   5.359   5.948 -0.4756 -0.1905  0.1249
  622TIP3    H2 1831   5.577   5.272   5.831 -1.2474 -0.6772  0.1951
  623TIP3   OH2 1832   3.847   0.860   1.046  0.1251 -0.3054  0.3829
  623TIP3    H1 1833   3.929   0.891   1.083 -0.0994  0.0331  0.6025
  623TIP3    H2 1834   3.802   0.939   1.017  0.4902 -0.5935 -1.0366
  624TIP3   OH2 1835   3.531   2.855   1.948 -0.4298 -0.0552  0.2294
  624TIP3    H1 1836   3.489   2.769   1.948 -0.3312 -0.1207 -0.6070
  624TIP3    H2 1837   3.620   2.837   1.916 -0.5063  0.3970 -0.2458
  625TIP3   OH2 1838   0.195   2.191   3.979  0.1008  0.3106  0.3673
  625TIP3    H1 1839   0.167   2.244   4.053  0.4321 -1.2173  1.6286
  625TIP3    H2 1840   0.284   2.165   3.999  0.2706  0.0278 -0.6642
  626TIP3   OH2 1841   6.900   1.342   1.201  0.0087 -0.0895 -0.7306
  626TIP3    H1 1842   6.960   1.280   1.159 -0.0664  0.5938 -1.8875
  626TIP3    H2 1843   6.952   1.383   1.270 -0.3489 -2.4622  1.0964
  627TIP3   OH2 1844   3.485   5.393  -0.004 -0.4376 -0.1400 -0.0535
  627TIP3    H1 1845   3.465   5.482   0.024  1.8685  1.0362 -1.8211
  627TIP3    H2 1846   3.492   5.343   0.078 -4.4688  0.5406  0.8956
  628TIP3   OH2 1847   0.577   1.860   5.258  0.1549  0.0340  0.0509
  628TIP3    H1 1848   0.513   1.892   5.194  0.3851  0.7970  0.2008
  628TIP3    H2 1849   0.546   1.893   5.342 -0.1282 -0.9383  0.3441
  629TIP3   OH2 1850   1.770   2.736   0.255  0.0023 -0.0936  0.1726
  629TIP3    H1 1851   1.770   2.818   0.205 -0.6549  1.0947  2.0474
  629TIP3    H2 1852   1.861   2.726   0.283  0.4922 -1.0399 -1.6054
  630TIP3   OH2 1853   3.906   4.123   2.781  0.1738  0.2502  0.7567
  630TIP3    H1 1854   3.844   4.123   2.853  1.0169  0.6971  1.5040
  630TIP3    H2 1855   3.911   4.214   2.753 -0.5732  0.0013 -0.2684
  631TIP3   OH2 1856   3.834   1.196   3.743 -0.0225  0.2882 -0.3405
  631TIP3    H1 1857   3.910   1.173   3.796 -0.2591  0.3535  0.0317
  631TIP3    H2 1858   3.793   1.268   3.790 -1.3291 -0.9215  0.4346
  632TIP3   OH2 1859   1.633   3.619   4.976 -0.2718  0.3761 -0.2540
  632TIP3    H1 1860   1.679   3.640   5.058  0.7841  0.5886 -0.8908
  632TIP3    H2 1861   1.589   3.536   4.995  0.8228 -0.1326  0.2153
  633TIP3   OH2 1862   4.036   0.763   5.868 -0.3013 -0.4764 -0.7003
  633TIP3    H1 1863   4.105   0.748   5.804  0.9581  0.1175  0.4735
  633TIP3    H2 1864   4.074   0.824   5.931 -1.6528 -0.6914  0.3763
  634TIP3   OH2 1865   4.830   0.470   1.695 -0.5470  0.3195 -0.0245
  634TIP3    H1 1866   4.848   0.458   1.602 -0.8089 -1.3385  0.1081
  634TIP3    H2 1867   4.846   0.563   1.711 -2.6167  1.1443 -2.1723
  635TIP3   OH2 1868   5.722   0.180   5.305 -0.1169  0.1670 -0.0137
  635TIP3    H1 1869   5.768   0.244   5.359  2.3007 -0.2697 -1.3987
  635TIP3    H2 1870   5.630   0.192   5.327  0.6185  0.7245  3.3639
  636TIP3   OH2 1871   3.670   5.686   3.695 -0.6202  0.1679 -0.2176
  636TIP3    H1 1872   3.717   5.643   3.767 -1.8385  0.0263  0.5098
  636TIP3    H2 1873   3.678   5.779   3.714  0.4739  0.2179 -0.8192
  637TIP3   OH2 1874   3.673   3.253   0.741 -0.7960 -0.6367  0.1417
  637TIP3    H1 1875   3.754   3.294   0.710 -1.0675 -1.2558 -1.4927
  637TIP3    H2 1876   3.689   3.236   0.833  0.8537 -0.5377 -0.0914
  638TIP3   OH2 1877   6.178   3.751   0.458  0.1516 -0.0756 -0.1168
  638TIP3    H1 1878   6.250   3.734   0.397 -0.5930  0.3206 -1.1338
  638TIP3    H2 1879   6.099   3.727   0.409 -0.4431 -0.0464  0.8096
  639TIP3   OH2 1880   2.703   0.446   1.285  0.2343  0.0391 -0.1274
  639TIP3    H1 1881   2.794   0.425   1.264  0.1712 -0.2938 -0.0740
  639TIP3    H2 1882   2.701   0.453   1.380  0.0113 -0.9151 -0.0465
  640TIP3   OH2 1883   3.688   1.570   3.536 -0.1676  0.0457  0.1236
  640TIP3    H1 1884   3.637   1.612   3.605  0.4076 -0.2660  0.7544
  640TIP3    H2 1885   3.684   1.477   3.556  0.4327 -0.0035  0.0393
  641TIP3   OH2 1886   6.444   1.278   1.078  0.6220  0.1270  0.8685
  641TIP3    H1 1887   6.366   1.235   1.113  0.9212  0.2855  1.7728
  641TIP3    H2 1888   6.444   1.365   1.118  0.5056  0.6450 -0.2472
  642TIP3   OH2 1889   1.647   1.524   0.980 -0.3099  0.0749 -0.3539
  642TIP3    H1 1890   1.622   1.579   0.906 -1.0130 -0.0279 -0.1915
  642TIP3    H2 1891   1.728   1.481   0.952  0.9126  2.0206 -0.0986
  643TIP3   OH2 1892   5.698   5.728   2.723  0.0232  0.1600  0.4042
  643TIP3    H1 1893   5.759   5.657   2.746  0.9261  0.2357 -1.5070
  643TIP3    H2 1894   5.647   5.692   2.650  0.7793  1.5559 -0.8775
  644TIP3   OH2 1895   4.624   4.120   0.930 -0.4915  0.5309 -0.3980
  644TIP3    H1 1896   4.534   4.151   0.940 -0.6072  0.2198 -0.4569
  644TIP3    H2 1897   4.622   4.030   0.962 -0.6696 -0.1987 -2.2908
  645TIP3   OH2 1898   2.761   3.937   4.130 -0.5450 -0.2460 -0.1582
  645TIP3    H1 1899   2.756   4.021   4.175 -2.4720  0.4316 -1.5097
  645TIP3    H2 1900   2.845   3.938   4.085  0.1297  0.2715  1.0734
  646TIP3   OH2 1901   4.450   6.418   2.722  0.3095  0.0959 -0.0201
  646TIP3    H1 1902   4.517   6.350   2.725  0.6101  0.4050  0.4291
  646TIP3    H2 1903   4.499   6.500   2.714  0.0114  0.3628  0.7964
  647TIP3   OH2 1904   4.802   5.591   2.859 -0.2201 -0.8432  0.0562
  647TIP3    H1 1905   4.728   5.589   2.920 -1.2597  0.0907 -1.1274
  647TIP3    H2 1906   4.812   5.684   2.836  0.2219 -1.1588 -1.0973
  648TIP3   OH2 1907   2.067   4.046   0.111 -0.3502  0.1073  0.3355
  648TIP3    H1 1908   2.008   4.027   0.038  1.0413 -0.9607 -0.5955
  648TIP3    H2 1909   2.018   4.023   0.189 -0.9892 -1.3242 -0.4408
  649TIP3   OH2 1910   0.058   3.163   1.827 -0.0440  0.4971 -0.2311
  649TIP3    H1 1911  -0.032   3.162   1.794  0.3591  1.0632 -1.3778
  649TIP3    H2 1912   0.049   3.186   1.920 -1.1687 -0.7924  0.0196
  650TIP3   OH2 1913   3.346   0.119   0.369 -0.2191  0.5065 -0.5149
  650TIP3    H1 1914   3.358   0.043   0.425  0.3591  0.0615 -1.2263
  650TIP3    H2 1915   3.253   0.142   0.379  0.1632  1.2961  1.6721
  651TIP3   OH2 1916   1.244   2.916   0.969 -0.4889  0.5435  0.7341
  651TIP3    H1 1917   1.326   2.953   0.935  0.4016  0.6098  2.8045
  651TIP3    H2 1918   1.178   2.943   0.906  1.0992  0.2560 -1.1711
  652TIP3   OH2 1919   1.610   3.336   3.904 -0.0332 -0.2197  0.8026
  652TIP3    H1 1920   1.590   3.429   3.908  0.8432  0.0317 -0.0750
  652TIP3    H2 1921   1.525   3.292   3.899 -0.4735  0.4822  1.9247
  653TIP3   OH2 1922   0.692   4.554   5.820  0.3399 -0.6131  0.0143
  653TIP3    H1 1923   0.781   4.575   5.794  0.2944 -0.4370 -0.0022
  653TIP3    H2 1924   0.701   4.494   5.895  0.4731  0.1089  0.5820
  654TIP3   OH2 1925   6.227   2.776   4.723  0.0472 -0.1120  0.0606
  654TIP3    H1 1926   6.267   2.722   4.792 -1.1977 -0.6738  0.3803
  654TIP3    H2 1927   6.238   2.866   4.754 -0.1948 -0.3395  0.8328
  655TIP3   OH2 1928   2.633   4.113   1.348 -0.1909  0.4558  0.0591
  655TIP3    H1 1929   2.659   4.077   1.433 -0.0324  1.4758  0.4559
  655TIP3    H2 1930   2.545   4.078   1.333  0.0125 -0.2040  0.3566
  656TIP3   OH2 1931   6.402   2.622   1.325 -0.0050 -0.4681 -0.4490
  656TIP3    H1 1932   6.480   2.586   1.283  0.5208 -1.5905  1.3842
  656TIP3    H2 1933   6.415   2.605   1.418 -2.5455 -0.8454 -0.1014
  657TIP3   OH2 1934   2.863   2.277   1.411 -0.4946 -0.4126 -0.3175
  657TIP3    H1 1935   2.886   2.227   1.489 -2.5936 -1.3426 -0.2131
  657TIP3    H2 1936   2.869   2.213   1.339  0.0784  0.0822 -0.7186
  658TIP3   OH2 1937   3.215   3.898   0.081 -0.2756 -0.2071  0.0020
  658TIP3    H1 1938   3.217   3.815   0.128 -0.1560  0.0561  0.4772
  658TIP3    H2 1939   3.175   3.878  -0.003 -2.0590 -0.3756  0.8562
  659TIP3   OH2 1940   2.382   5.294   3.119  0.4095  0.1600  0.3269
  659TIP3    H1 1941   2.400   5.283   3.026 -3.4864  2.0067 -0.8564
  659TIP3    H2 1942   2.353   5.207   3.148 -0.1079 -0.0239 -0.7002
  660TIP3   OH2 1943   5.279   3.691   0.341  0.5075  0.5138 -0.1770
  660TIP3    H1 1944   5.367   3.698   0.305  0.5493 -0.9626 -0.3931
  660TIP3    H2 1945   5.282   3.614   0.397 -0.4839  0.8193  0.3126
  661TIP3   OH2 1946   3.250   0.132   0.065 -0.2612  0.2591  0.1154
  661TIP3    H1 1947   3.310   0.182   0.120 -0.2020 -0.7690  1.0181
  661TIP3    H2 1948   3.164   0.171   0.082  0.0576  1.3600 -0.7414
  662TIP3   OH2 1949   5.602   5.393   1.671  0.2013 -0.1876 -0.4604
  662TIP3    H1 1950   5.546   5.432   1.738  1.7265 -0.4783  1.0441
  662TIP3    H2 1951   5.576   5.300   1.670  1.3194 -0.5485  0.9981
  663TIP3   OH2 1952   2.079   2.662   3.430  0.0394  0.2426 -0.2256
  663TIP3    H1 1953   2.078   2.755   3.408  0.1968  0.0373 -1.1249
  663TIP3    H2 1954   1.996   2.647   3.476  0.4834  1.0391  0.8717
  664TIP3   OH2 1955   3.919   0.652   5.528 -0.0854 -0.2219 -0.1369
  664TIP3    H1 1956   3.839   0.613   5.565 -0.3103  1.4863  1.3018
  664TIP3    H2 1957   3.931   0.733   5.576  1.5965  0.4184 -1.5182
  665TIP3   OH2 1958   3.372   2.711   2.304 -0.1207 -0.1618 -0.5306
  665TIP3    H1 1959   3.371   2.708   2.400  0.7615 -0.8535 -0.5238
  665TIP3    H2 1960   3.411   2.795   2.283  1.5489 -0.8255 -0.2376
  666TIP3   OH2 1961   2.315   1.767   5.063 -0.0573 -0.5231  0.2011
  666TIP3    H1 1962   2.233   1.799   5.100  1.5226  2.6613  1.3511
  666TIP3    H2 1963   2.374   1.762   5.138  1.2710 -1.0777 -0.8364
  667TIP3   OH2 1964   2.941   2.250   2.857 -0.2075 -0.6304 -0.2657
  667TIP3    H1 1965   2.883   2.274   2.785 -0.4155  0.8130  0.3531
  667TIP3    H2 1966   3.029   2.264   2.822 -0.3159  0.5105 -0.1115
  668TIP3   OH2 1967   2.185   1.424   3.303 -0.2375  0.1246 -0.5010
  668TIP3    H1 1968   2.163   1.377   3.384  1.6154 -0.2140 -0.1394
  668TIP3    H2 1969   2.265   1.381   3.273 -1.9390 -1.1576 -3.6848
  669TIP3   OH2 1970   1.090   1.801   4.747  0.0378 -0.2278  0.0007
  669TIP3    H1 1971   1.107   1.832   4.836  2.5950  1.7067 -1.0564
  669TIP3    H2 1972   1.037   1.870   4.707 -1.0511 -1.0608 -0.0439
  670TIP3   OH2 1973   5.344   2.890   5.898 -0.3031 -0.0900 -0.3296
  670TIP3    H1 1974   5.291   2.944   5.840 -0.1123  0.7422  0.2523
  670TIP3    H2 1975   5.282   2.825   5.933 -0.8873  0.6965  0.1331
  671TIP3   OH2 1976   2.534   2.846   5.096 -0.2839 -0.4915  0.3697
  671TIP3    H1 1977   2.578   2.925   5.126  0.0465 -0.2823 -0.6271
  671TIP3    H2 1978   2.604   2.782   5.084 -0.2403 -0.1974 -1.0938
  672TIP3   OH2 1979   3.249   4.758   4.700 -0.0722 -0.4562 -0.4417
  672TIP3    H1 1980   3.277   4.816   4.771  2.6471 -0.4067 -1.4695
  672TIP3    H2 1981   3.155   4.777   4.690  0.4190  2.8918  0.0755
  673TIP3   OH2 1982   6.815   1.361   0.603  0.1783  0.1028  0.0029
  673TIP3    H1 1983   6.745   1.370   0.668  0.0751 -0.4522 -0.0271
  673TIP3    H2 1984   6.804   1.436   0.545 -0.6014 -0.1654 -0.1987
  674TIP3   OH2 1985   3.177   5.134   2.890  0.0039  0.2573 -0.9201
  674TIP3    H1 1986   3.259   5.157   2.933 -1.2128  3.4593  0.0138
  674TIP3    H2 1987   3.184   5.170   2.802 -0.9599  2.1857 -0.2731
  675TIP3   OH2 1988   0.600   5.725   3.683  0.0813 -0.2265 -0.4279
  675TIP3    H1 1989   0.571   5.816   3.688  0.3860 -0.1903  0.9853
  675TIP3    H2 1990   0.526   5.674   3.713 -0.6900 -0.6184 -2.7592
  676TIP3   OH2 1991   3.536   2.463   3.630  0.1123  0.2712  0.1337
  676TIP3    H1 1992   3.445   2.483   3.606  0.3482 -0.8945 -1.9156
  676TIP3    H2 1993   3.567   2.543   3.672 -1.6997  0.8801  0.4190
  677TIP3   OH2 1994   6.507   1.186   3.807 -0.4008 -0.0727  0.1738
  677TIP3    H1 1995   6.480   1.094   3.799  2.3485 -0.8173 -3.3618
  677TIP3    H2 1996   6.483   1.225   3.723 -1.0518  2.3916  1.4227
  678TIP3   OH2 1997   4.120   4.807   4.874  0.0305 -0.4022 -0.5122
  678TIP3    H1 1998   4.113   4.738   4.809  0.8451 -1.3844  0.4028
  678TIP3    H2 1999   4.079   4.771   4.953  3.0673 -1.1140  0.8914
  679TIP3   OH2 2000   0.624   6.816   4.428  0.0320  0.0591  0.5977
  679TIP3    H1 2001   0.663   6.732   4.452 -0.0885 -0.3922 -0.7065
  679TIP3    H2 2002   0.540   6.817   4.472  0.5411  0.0469  1.6060
  680TIP3   OH2 2003   2.239   1.110   1.227 -0.3603  0.0897  0.5764
  680TIP3    H1 2004   2.304   1.175   1.256  2.3519 -2.7398  1.3942
  680TIP3    H2 2005   2.205   1.146   1.145  0.9196  2.5723  1.0127
  681TIP3   OH2 2006   2.939   2.463   5.794  0.0823  0.3724  0.2841
  681TIP3    H1 2007   2.872   2.501   5.851  0.1627  0.6776  0.1811
  681TIP3    H2 2008   3.018   2.515   5.812 -0.2741  1.5093 -1.2200
  682TIP3   OH2 2009   1.188   6.285   5.207  0.6406  0.3629 -0.1524
  682TIP3    H1 2010   1.166   6.193   5.188  2.2575 -0.2286  0.6852
  682TIP3    H2 2011   1.113   6.317   5.257 -1.6401  0.6343 -3.4214
  683TIP3   OH2 2012   1.030   0.402   4.131 -0.1082 -0.3309  0.5741
  683TIP3    H1 2013   0.973   0.328   4.108  0.9938 -1.4623  1.3952
  683TIP3    H2 2014   1.118   0.365   4.136  0.4514  1.0015  1.2111
  684TIP3   OH2 2015   2.817   5.134   3.342  0.1511  0.1881 -0.6550
  684TIP3    H1 2016   2.903   5.146   3.302 -0.5054  1.8130 -1.6868
  684TIP3    H2 2017   2.768   5.082   3.277  0.1298 -0.1131 -0.3990
  685TIP3   OH2 2018   5.692   2.396   1.057 -0.0769  0.3767  0.0423
  685TIP3    H1 2019   5.676   2.482   1.096  0.7696  0.7207 -0.3207
  685TIP3    H2 2020   5.745   2.416   0.979 -1.0516 -0.3491 -0.8399
  686TIP3   OH2 2021   2.854   3.855   2.061 -0.0452  0.0833  0.1543
  686TIP3    H1 2022   2.859   3.919   2.132 -1.7804  1.2930 -0.7369
  686TIP3    H2 2023   2.766   3.818   2.069 -0.5322  0.7391 -1.7408
  687TIP3   OH2 2024   0.711   5.133   3.161 -0.8659  0.0653 -0.1136
  687TIP3    H1 2025   0.770   5.075   3.113  0.5908  0.1183  1.4774
  687TIP3    H2 2026   0.635   5.078   3.182 -1.3307 -0.0746 -1.9962
  688TIP3   OH2 2027   1.747   4.398   4.509  0.1019  0.2268 -0.4341
  688TIP3    H1 2028   1.653   4.403   4.491  0.2776  0.6276 -1.2516
  688TIP3    H2 2029   1.786   4.369   4.427  0.8265  1.3185 -0.4986
  689TIP3   OH2 2030   7.161   3.048   5.023  0.0991 -0.3937 -0.1227
  689TIP3    H1 2031   7.152   3.136   5.060 -0.6014 -0.9015  0.9804
  689TIP3    H2 2032   7.209   3.061   4.941 -0.8821  1.1342 -0.5073
  690TIP3   OH2 2033   5.728   3.963   3.202 -0.5189 -0.4697  0.4987
  690TIP3    H1 2034   5.740   3.870   3.185 -1.2421 -0.2227 -1.6525
  690TIP3    H2 2035   5.747   4.006   3.119 -0.0211  1.3411  1.4875
  691TIP3   OH2 2036   1.898   6.578   5.032  0.3031 -1.3129 -1.0864
  691TIP3    H1 2037   1.962   6.511   5.008  2.4361  0.1704  0.1512
  691TIP3    H2 2038   1.920   6.653   4.976 -1.4909 -1.2993 -1.8337
  692TIP3   OH2 2039   0.626   0.949   4.089  0.1679 -0.0478  0.5311
  692TIP3    H1 2040   0.615   0.902   4.171  0.8089 -1.0608  0.0579
  692TIP3    H2 2041   0.720   0.963   4.081  0.1268 -0.0696 -0.0806
  693TIP3   OH2 2042   1.379   5.070   0.928  0.0448  0.4016 -0.3368
  693TIP3    H1 2043   1.403   5.076   1.021  1.2817 -1.0180 -0.5167
  693TIP3    H2 2044   1.318   5.142   0.914  1.8774  2.3305  0.9417
  694TIP3   OH2 2045   3.615   1.021   3.360 -0.0807  0.8607 -0.3016
  694TIP3    H1 2046   3.668   1.052   3.433 -0.7178 -1.5540  1.3165
  694TIP3    H2 2047   3.664   0.947   3.324 -1.2730 -0.0123 -0.1996
  695TIP3   OH2 2048   4.640   4.327   5.521 -0.1014  0.0442  0.2264
  695TIP3    H1 2049   4.688   4.314   5.603 -0.6152  2.6048  1.0046
  695TIP3    H2 2050   4.676   4.408   5.485  0.4896 -1.2682 -2.4235
  696TIP3   OH2 2051   3.216   2.811   3.578 -0.1922  0.1121 -0.2111
  696TIP3    H1 2052   3.123   2.802   3.598 -0.3954  0.4924 -0.9538
  696TIP3    H2 2053   3.220   2.884   3.517  0.4140 -0.9783 -1.5134
  697TIP3   OH2 2054   2.279   6.372   2.716  0.2260  0.8417  0.3836
  697TIP3    H1 2055   2.201   6.412   2.756 -0.8501 -0.6603 -0.0947
  697TIP3    H2 2056   2.300   6.299   2.774 -0.7043 -0.7063 -1.1480
  698TIP3   OH2 2057   3.702  -0.021   0.716  0.5594  0.0175  0.4750
  698TIP3    H1 2058   3.702   0.071   0.690 -2.2926 -0.0846 -0.2220
  698TIP3    H2 2059   3.767  -0.026   0.785  1.2389  2.4216  0.1140
  699TIP3   OH2 2060   4.751   6.457   1.893 -0.8019 -0.1532  0.1241
  699TIP3    H1 2061   4.800   6.413   1.963  0.5597 -1.7190 -1.7382
  699TIP3    H2 2062   4.666   6.412   1.892 -1.1356  0.3942  1.2046
  700TIP3   OH2 2063   4.455   4.987   1.903 -0.0353 -0.9983  0.1940
  700TIP3    H1 2064   4.364   4.956   1.908 -0.1803 -0.8861 -1.2086
  700TIP3    H2 2065   4.473   4.990   1.809  1.8226 -2.1515  0.4711
  701TIP3   OH2 2066   0.509   0.213   1.235  0.2400 -0.2196  0.0408
  701TIP3    H1 2067   0.469   0.140   1.188  0.3621 -0.8399  0.8750
  701TIP3    H2 2068   0.569   0.252   1.172  0.8759 -1.4259 -0.1227
  702TIP3   OH2 2069   3.548   4.936   4.090 -0.2553 -0.7093  0.1328
  702TIP3    H1 2070   3.502   5.018   4.109  0.1823 -0.5365  0.4545
  702TIP3    H2 2071   3.548   4.930   3.994 -0.4542 -0.4300  0.1139
  703TIP3   OH2 2072   2.928   6.437   0.457 -0.0774 -0.0941 -0.0149
  703TIP3    H1 2073   2.969   6.447   0.371 -3.0274  2.0312 -1.3397
  703TIP3    H2 2074   2.885   6.351   0.453  2.4070 -1.4835  0.6935
  704TIP3   OH2 2075   6.531   6.752   0.427 -0.4711  0.0391  0.2135
  704TIP3    H1 2076   6.537   6.695   0.504  1.8486 -1.6105 -1.0588
  704TIP3    H2 2077   6.468   6.709   0.370 -0.5654  0.1090  0.2629
  705TIP3   OH2 2078   4.592   0.582   0.408  0.5124  0.0657 -0.4844
  705TIP3    H1 2079   4.674   0.624   0.434  0.6656 -0.5874  0.1176
  705TIP3    H2 2080   4.558   0.637   0.337  1.5276  0.2712 -0.8227
  706TIP3   OH2 2081   3.682   3.835   1.562  0.0443 -0.6055  0.1250
  706TIP3    H1 2082   3.637   3.919   1.555 -0.6005 -1.0355 -1.1604
  706TIP3    H2 2083   3.719   3.821   1.475 -1.5059 -2.5497 -0.2805
  707TIP3   OH2 2084   7.216   2.470   4.803 -0.6045  0.9182  0.0933
  707TIP3    H1 2085   7.159   2.401   4.770  0.3420  0.5678 -0.8720
  707TIP3    H2 2086   7.174   2.499   4.884 -0.2472 -1.8666  1.4024
  708TIP3   OH2 2087   0.071   3.846   2.147  0.1049  0.5721  0.1719
  708TIP3    H1 2088   0.046   3.884   2.063 -1.2157 -2.4523 -0.9428
  708TIP3    H2 2089  -0.011   3.817   2.186  0.6499  2.2007  2.7684
  709TIP3   OH2 2090   6.794   1.818   3.051  0.1841 -0.4735 -0.5988
  709TIP3    H1 2091   6.730   1.887   3.070  1.6667  0.5964  0.7269
  709TIP3    H2 2092   6.754   1.769   2.979 -1.7035  0.7013 -0.4432
  710TIP3   OH2 2093   3.936   4.709   2.902  0.1876 -0.3608 -0.5982
  710TIP3    H1 2094   3.996   4.780   2.879 -0.5444  0.9548  1.2996
  710TIP3    H2 2095   3.969   4.677   2.986 -0.2398 -1.4179 -0.8211
  711TIP3   OH2 2096   1.084   5.245   0.450  0.0462 -0.4442  0.5051
  711TIP3    H1 2097   1.020   5.174   0.448 -0.7854  0.1898  2.0899
  711TIP3    H2 2098   1.136   5.234   0.371 -2.1307 -0.9052 -0.9258
  712TIP3   OH2 2099   0.588   1.452   4.341 -0.0275 -0.8363 -0.0672
  712TIP3    H1 2100   0.661   1.510   4.364 -0.9374 -0.2983  1.6435
  712TIP3    H2 2101   0.612   1.368   4.379  0.0524 -0.8687 -0.1882
  713TIP3   OH2 2102   5.099   4.059   2.718 -0.2966  0.1752  0.2743
  713TIP3    H1 2103   5.110   4.076   2.625  0.0274 -1.3186  0.0178
  713TIP3    H2 2104   5.005   4.042   2.729 -0.2111 -0.4566  0.0648
  714TIP3   OH2 2105   2.639   5.327   5.429 -0.3143 -0.2216 -0.2502
  714TIP3    H1 2106   2.717   5.364   5.470 -1.3230 -1.1140  2.6738
  714TIP3    H2 2107   2.585   5.404   5.409  1.0292  0.3731 -1.9125
  715TIP3   OH2 2108   2.002   6.177   4.138 -0.0559 -0.0163 -0.1273
  715TIP3    H1 2109   1.922   6.193   4.188 -0.7819  0.5140 -1.4061
  715TIP3    H2 2110   1.978   6.196   4.047  1.1945 -1.0106 -0.7087
  716TIP3   OH2 2111   4.311   6.626   5.564  0.5416  0.1301 -0.5799
  716TIP3    H1 2112   4.403   6.601   5.548  0.7354  1.1931 -1.2058
  716TIP3    H2 2113   4.275   6.553   5.614  0.9492 -1.6503 -2.7167
  717TIP3   OH2 2114   0.272   4.189   4.884  0.2236 -0.0517  0.3791
  717TIP3    H1 2115   0.349   4.195   4.941 -0.4550  2.2557  1.1368
  717TIP3    H2 2116   0.268   4.096   4.860  2.6364 -0.4171  1.1272
  718TIP3   OH2 2117   2.413   5.879   0.382 -0.2090 -0.2270  0.4856
  718TIP3    H1 2118   2.408   5.817   0.455  0.3137  0.4772  1.1392
  718TIP3    H2 2119   2.506   5.900   0.375 -0.2668 -0.2525 -0.3614
  719TIP3   OH2 2120   7.079   4.246   1.174 -0.1999 -0.3182 -0.5631
  719TIP3    H1 2121   6.983   4.239   1.173 -0.2459 -1.3716  2.0250
  719TIP3    H2 2122   7.096   4.338   1.196 -0.7808 -0.6489  1.5844
  720TIP3   OH2 2123   6.588   4.137   2.044 -0.0233 -0.1144  0.0862
  720TIP3    H1 2124   6.597   4.099   1.957 -1.0913 -1.5458  0.5459
  720TIP3    H2 2125   6.517   4.200   2.036  0.9068  0.8880 -0.4057
  721TIP3   OH2 2126   5.013   2.499   5.515  0.2380 -0.0258 -0.0730
  721TIP3    H1 2127   5.059   2.579   5.488 -0.4583  1.0648  1.7552
  721TIP3    H2 2128   4.958   2.527   5.588 -0.8057 -1.9917 -0.0422
  722TIP3   OH2 2129   6.455   5.636   0.405 -0.5547 -0.2797 -0.2654
  722TIP3    H1 2130   6.397   5.708   0.382 -0.0671 -0.3619 -1.8539
  722TIP3    H2 2131   6.519   5.633   0.334 -0.2464 -1.9447  0.0400
  723TIP3   OH2 2132   5.090   2.942   2.423  0.1689  0.1142 -0.5057
  723TIP3    H1 2133   5.172   2.895   2.409  0.8895  1.1930 -0.0436
  723TIP3    H2 2134   5.116   3.025   2.463 -1.1740  0.3756 -0.1192
  724TIP3   OH2 2135   4.582   3.176   5.284  0.4308  0.2373  0.9255
  724TIP3    H1 2136   4.571   3.082   5.298  0.4150 -0.1001 -0.9964
  724TIP3    H2 2137   4.671   3.195   5.314  0.6465 -0.5239  0.7801
  725TIP3   OH2 2138   3.563   5.924   4.187 -0.4736  0.4972  0.4612
  725TIP3    H1 2139   3.581   5.976   4.108 -0.2556  1.6462  1.2364
  725TIP3    H2 2140   3.496   5.974   4.233  2.4463  2.2868  3.1672
  726TIP3   OH2 2141   3.157   4.951   5.159 -0.1175  0.1688  0.2018
  726TIP3    H1 2142   3.066   4.925   5.177  0.2078 -2.0342 -0.9433
  726TIP3    H2 2143   3.173   4.919   5.070  2.3090 -1.0853  1.0126
  727TIP3   OH2 2144   1.707   5.962   0.197  0.8024 -0.1554  0.7179
  727TIP3    H1 2145   1.797   5.973   0.166  1.0954 -2.2244  0.7089
  727TIP3    H2 2146   1.663   5.916   0.126 -0.1395  0.3871  0.9337
  728TIP3   OH2 2147   4.018   1.117   1.442  0.2865 -0.7683 -0.2270
  728TIP3    H1 2148   4.078   1.171   1.492  0.1924 -0.9845  0.1293
  728TIP3    H2 2149   4.030   1.029   1.477 -1.4172 -0.5610  1.0385
  729TIP3   OH2 2150   0.388   1.970   5.462  0.3614  0.1430 -0.1101
  729TIP3    H1 2151   0.356   2.055   5.432 -0.8249 -0.4748 -0.6421
  729TIP3    H2 2152   0.458   1.992   5.524 -2.2516  1.6500  2.5592
  730TIP3   OH2 2153   0.048   5.384   0.779  0.5665  0.0642 -0.5772
  730TIP3    H1 2154  -0.021   5.345   0.726  0.5087 -0.1811 -0.3275
  730TIP3    H2 2155   0.003   5.413   0.859  0.7425 -0.0565 -0.4329
  731TIP3   OH2 2156   7.117   5.652   3.581 -0.4878  0.5076 -0.3245
  731TIP3    H1 2157   7.076   5.732   3.549  0.4106  0.9003 -0.5421
  731TIP3    H2 2158   7.133   5.668   3.674 -1.2431  0.1664 -0.1278
  732TIP3   OH2 2159   0.762   5.210   3.558 -0.4158  0.3008  0.1515
  732TIP3    H1 2160   0.834   5.272   3.569  0.7755 -1.0840  0.5130
  732TIP3    H2 2161   0.737   5.186   3.647 -0.0625 -0.5853  0.0288
  733TIP3   OH2 2162   4.561   1.515   5.030  0.5725 -0.2214  0.4864
  733TIP3    H1 2163   4.648   1.550   5.011  0.5781 -1.1164 -1.3807
  733TIP3    H2 2164   4.576   1.445   5.094  0.8106  1.5674  2.5167
  734TIP3   OH2 2165   3.481   5.322   1.096  0.0969 -0.4347 -0.2310
  734TIP3    H1 2166   3.499   5.339   1.003  0.4677  0.8287  0.0609
  734TIP3    H2 2167   3.510   5.401   1.141 -0.3206 -0.9354  0.9430
  735TIP3   OH2 2168   1.294   3.423   4.413 -0.4112 -0.1568 -0.3376
  735TIP3    H1 2169   1.315   3.363   4.485 -0.6273 -0.0377 -0.1736
  735TIP3    H2 2170   1.199   3.413   4.401 -0.4579  0.2038 -0.2616
  736TIP3   OH2 2171   6.911   3.190   0.919 -0.1801 -0.6286 -0.4005
  736TIP3    H1 2172   6.820   3.173   0.894 -0.6072 -0.5923  1.0572
  736TIP3    H2 2173   6.912   3.282   0.944  0.3650 -0.5197 -0.8034
  737TIP3   OH2 2174   4.643   1.140   4.758  0.3717  0.1895  0.2016
  737TIP3    H1 2175   4.548   1.132   4.769  0.6386 -1.0021  2.0332
  737TIP3    H2 2176   4.672   1.052   4.733  1.0762  0.3916  0.2816
  738TIP3   OH2 2177   3.107   6.270   4.533 -0.2234 -0.2085 -0.3900
  738TIP3    H1 2178   3.197   6.285   4.505  1.1233 -1.5553  2.7271
  738TIP3    H2 2179   3.094   6.176   4.526 -0.9089 -0.1914  0.3951
  739TIP3   OH2 2180   4.635   0.186   2.368 -0.3412 -0.0830 -0.2943
  739TIP3    H1 2181   4.680   0.242   2.304  1.5818 -0.4323  0.6824
  739TIP3    H2 2182   4.700   0.120   2.391 -1.8382 -1.4125  0.2267
  740TIP3   OH2 2183   4.052   1.151   3.916 -0.6165  0.8845  0.1565
  740TIP3    H1 2184   4.086   1.087   3.978 -0.2173 -0.3171 -1.2486
  740TIP3    H2 2185   4.099   1.232   3.936  2.3110 -0.4034 -0.9475
  741TIP3   OH2 2186   4.681   5.316   3.463  0.1574 -0.3304 -0.5140
  741TIP3    H1 2187   4.732   5.307   3.383  0.5216 -0.7634 -0.2422
  741TIP3    H2 2188   4.741   5.356   3.525  0.0233 -0.4219 -0.3240
  742TIP3   OH2 2189   1.199   6.520   1.285  0.3375  0.1519 -0.4110
  742TIP3    H1 2190   1.201   6.615   1.271 -0.5532  0.2892  0.3327
  742TIP3    H2 2191   1.263   6.485   1.223  1.9433  1.3920  0.4577
  743TIP3   OH2 2192   2.698   2.479   0.522 -0.1492  0.0846  0.0954
  743TIP3    H1 2193   2.629   2.527   0.569  0.4787  0.9561  0.1504
  743TIP3    H2 2194   2.720   2.407   0.581 -0.7222  0.0366  0.2636
  744TIP3   OH2 2195   4.210   0.374   5.658 -0.1798  0.3718 -0.4858
  744TIP3    H1 2196   4.133   0.350   5.708  0.6458  0.3358  0.8287
  744TIP3    H2 2197   4.282   0.371   5.722  1.2910 -1.6812 -2.0585
  745TIP3   OH2 2198   6.704   1.429   4.301 -0.0711 -0.1455 -0.6088
  745TIP3    H1 2199   6.726   1.384   4.219  0.9808 -3.4396  1.3018
  745TIP3    H2 2200   6.788   1.435   4.348 -0.9680 -0.1907  1.0708
  746TIP3   OH2 2201   6.118   3.674   3.063 -0.0670  0.0276 -0.1027
  746TIP3    H1 2202   6.172   3.607   3.023 -1.0705  0.2958 -2.0037
  746TIP3    H2 2203   6.179   3.742   3.090  0.5895  0.3609 -2.2768
  747TIP3   OH2 2204   6.266   4.259   2.566 -0.1476  0.1090  0.4764
  747TIP3    H1 2205   6.336   4.262   2.501 -0.9187  2.5436 -0.3762
  747TIP3    H2 2206   6.222   4.175   2.550  1.6409 -0.8096  0.0758
  748TIP3   OH2 2207   0.468   4.056   5.428  0.6249 -0.0196 -0.1092
  748TIP3    H1 2208   0.430   4.091   5.347 -0.0778  0.1603  0.2922
  748TIP3    H2 2209   0.447   4.122   5.495  0.5980 -0.4943  0.3534
  749TIP3   OH2 2210   6.262   4.358   3.916  0.5232  0.0636 -0.3202
  749TIP3    H1 2211   6.202   4.324   3.981 -0.2498  0.9379 -0.5430
  749TIP3    H2 2212   6.349   4.352   3.956 -0.0053  1.2003  1.0801
  750TIP3   OH2 2213   4.019   5.804   0.557 -0.4334  0.1898  0.1683
  750TIP3    H1 2214   4.002   5.717   0.521 -1.4940  0.8438 -1.0046
  750TIP3    H2 2215   4.108   5.824   0.528 -0.1434 -0.5438  0.5388
  751TIP3   OH2 2216   2.913   2.087   3.291 -0.2899 -0.4840  0.5459
  751TIP3    H1 2217   2.870   2.101   3.206  0.2162  2.9486  0.7065
  751TIP3    H2 2218   2.994   2.041   3.269 -0.5913 -0.4652 -0.7019
  752TIP3   OH2 2219   6.594   4.431   3.924  0.1921 -0.0589  0.1689
  752TIP3    H1 2220   6.687   4.434   3.903 -0.1519  1.1676 -1.3697
  752TIP3    H2 2221   6.591   4.431   4.020  1.7667  2.8509  0.3380
  753TIP3   OH2 2222   4.813   3.571   0.398 -0.2079 -0.0503  0.2833
  753TIP3    H1 2223   4.727   3.609   0.380  0.0497 -0.1173 -1.2216
  753TIP3    H2 2224   4.875   3.636   0.366  0.2652 -0.8822 -0.5161
  754TIP3   OH2 2225   4.812   2.056   5.002 -0.6323  0.1165  0.2821
  754TIP3    H1 2226   4.866   1.995   5.052  1.9608  1.1672 -1.0314
  754TIP3    H2 2227   4.777   2.005   4.929  0.8662 -0.0217 -0.3672
  755TIP3   OH2 2228   4.357   4.625   2.729 -0.2185 -0.2358  0.2255
  755TIP3    H1 2229   4.358   4.714   2.695 -0.9261  0.1609  1.1783
  755TIP3    H2 2230   4.353   4.636   2.824  3.0090 -1.2745  0.6049
  756TIP3   OH2 2231   6.126   0.886   0.643  0.7956 -0.4051 -0.1721
  756TIP3    H1 2232   6.184   0.815   0.616  0.6888 -0.1073 -1.2431
  756TIP3    H2 2233   6.057   0.887   0.577 -0.6700 -1.0006  1.2823
  757TIP3   OH2 2234   0.627   2.175   2.736  0.2274  0.8293 -0.3740
  757TIP3    H1 2235   0.713   2.216   2.739 -1.1271  4.0093 -0.9867
  757TIP3    H2 2236   0.590   2.204   2.653 -2.0625  0.9623  0.6330
  758TIP3   OH2 2237   0.268   1.136   2.342  0.3123  0.6754  0.7098
  758TIP3    H1 2238   0.196   1.074   2.329  0.4237  0.7375 -0.2643
  758TIP3    H2 2239   0.229   1.222   2.327  0.4952  0.7418  0.6152
  759TIP3   OH2 2240   4.814   4.534   0.844 -0.1144  0.2109  0.4020
  759TIP3    H1 2241   4.816   4.562   0.936 -1.3313  1.6112  0.0455
  759TIP3    H2 2242   4.802   4.615   0.795 -1.2352 -0.6836 -0.8708
  760TIP3   OH2 2243   0.795   5.480   2.695 -0.2874 -0.0934  0.0448
  760TIP3    H1 2244   0.702   5.496   2.706 -0.5689  0.0773 -2.2025
  760TIP3    H2 2245   0.812   5.403   2.749 -1.3352  0.8401  1.7987
  761TIP3   OH2 2246   2.202   3.701   1.733  0.1434  0.3678 -0.1492
  761TIP3    H1 2247   2.217   3.788   1.770 -1.6889  0.7342 -0.1926
  761TIP3    H2 2248   2.201   3.715   1.638  2.2841 -0.1486 -0.3003
  762TIP3   OH2 2249   0.939   2.789   2.589  0.0531 -0.2540 -0.3493
  762TIP3    H1 2250   0.985   2.708   2.563 -1.7039 -1.4577  0.1009
  762TIP3    H2 2251   1.004   2.858   2.577  1.1026 -1.4940 -2.4493
  763TIP3   OH2 2252   2.351   4.345   1.007  0.4884 -0.4163 -0.1216
  763TIP3    H1 2253   2.421   4.404   0.979  1.6049 -2.2296 -1.4427
  763TIP3    H2 2254   2.283   4.354   0.940  0.6210 -0.5790 -0.2772
  764TIP3   OH2 2255   3.003   0.692   5.718  0.2814  0.0314  0.2356
  764TIP3    H1 2256   2.941   0.703   5.646 -0.1407 -1.0725  0.4158
  764TIP3    H2 2257   3.087   0.722   5.682  0.0687 -0.4687 -0.7091
  765TIP3   OH2 2258   5.964   5.892   2.910 -0.2738 -0.1135  0.1743
  765TIP3    H1 2259   6.012   5.918   2.831 -0.3261 -0.6225 -0.0271
  765TIP3    H2 2260   5.876   5.927   2.896 -0.2059  0.0447  0.1361
  766TIP3   OH2 2261   2.874   2.403   5.119 -0.7041 -0.0892 -0.1053
  766TIP3    H1 2262   2.958   2.448   5.125 -0.2721 -1.0184  2.3184
  766TIP3    H2 2263   2.891   2.329   5.060  0.2511 -0.3709  0.5026
  767TIP3   OH2 2264   6.167   6.289   3.999  0.1191 -0.0640  0.0600
  767TIP3    H1 2265   6.219   6.272   3.920  0.7297 -2.9469  0.9834
  767TIP3    H2 2266   6.159   6.204   4.042 -2.2455  0.9619  1.9073
  768TIP3   OH2 2267   3.431   3.432   1.454  0.3751 -0.2880 -0.0515
  768TIP3    H1 2268   3.461   3.522   1.437 -0.6524 -0.1764 -1.4433
  768TIP3    H2 2269   3.371   3.441   1.528  1.1462 -0.0238  0.5667
  769TIP3   OH2 2270   2.836   2.086   3.041 -0.2729  0.0744 -0.5451
  769TIP3    H1 2271   2.830   2.004   2.994 -0.7177 -0.3700  0.2663
  769TIP3    H2 2272   2.882   2.145   2.981  0.3160 -0.8444 -1.0146
  770TIP3   OH2 2273   4.540   0.226   2.974  0.3356  0.1286 -0.0498
  770TIP3    H1 2274   4.504   0.232   3.062  0.5176 -0.5063  0.0729
  770TIP3    H2 2275   4.624   0.182   2.985 -0.0563 -0.7904 -0.6423
  771TIP3   OH2 2276   3.598   2.448   4.197 -0.2114 -0.6001  0.3296
  771TIP3    H1 2277   3.509   2.462   4.163 -0.6163 -0.3639  1.4509
  771TIP3    H2 2278   3.644   2.531   4.179 -0.5803 -0.2841  0.8066
  772TIP3   OH2 2279   5.886   5.812   4.864  0.6790 -0.0060 -0.2389
  772TIP3    H1 2280   5.876   5.717   4.853  0.0146 -0.2259  1.8471
  772TIP3    H2 2281   5.858   5.829   4.954  0.7855  2.1847 -0.5612
  773TIP3   OH2 2282   7.035   4.968   4.075 -0.2024  0.0034 -0.0038
  773TIP3    H1 2283   6.941   4.974   4.055 -0.1464  0.2713 -0.1995
  773TIP3    H2 2284   7.041   4.905   4.146 -0.6081  0.5766  0.5525
  774TIP3   OH2 2285   5.434   6.465   0.213  0.1794  0.3518  0.1362
  774TIP3    H1 2286   5.370   6.502   0.152 -1.4229 -2.2437  0.0665
  774TIP3    H2 2287   5.515   6.457   0.162 -0.2746  0.9677 -0.6966
  775TIP3   OH2 2288   3.109   6.252   5.254 -0.1065 -0.6032  0.2787
  775TIP3    H1 2289   3.192   6.269   5.209 -0.7250 -1.2622 -1.1590
  775TIP3    H2 2290   3.130   6.263   5.347  1.6642 -1.0009 -0.0305
  776TIP3   OH2 2291   5.867   0.972   2.703  0.2176  0.1895  0.3091
  776TIP3    H1 2292   5.915   0.921   2.638 -0.6433 -0.4968  0.1886
  776TIP3    H2 2293   5.824   1.041   2.653 -1.0947 -0.8053 -0.0260
  777TIP3   OH2 2294   4.579   6.327   0.409 -0.3493 -0.1918  0.3851
  777TIP3    H1 2295   4.558   6.420   0.420 -1.9565 -0.0565 -2.7359
  777TIP3    H2 2296   4.669   6.327   0.377 -0.3350  0.2766  0.4183
  778TIP3   OH2 2297   3.895   6.208   2.233  0.8350  0.6626 -0.3094
  778TIP3    H1 2298   3.932   6.287   2.193  1.9827  0.1693 -0.2488
  778TIP3    H2 2299   3.939   6.201   2.318  0.4532  0.1752 -0.1509
  779TIP3   OH2 2300   6.296   4.798   3.296  0.0323  0.2550 -0.0947
  779TIP3    H1 2301   6.220   4.786   3.353  1.1456  1.0813  1.6740
  779TIP3    H2 2302   6.363   4.740   3.333  0.3269 -0.4071 -1.5753
  780TIP3   OH2 2303   2.404   4.076   1.052 -0.1439 -0.2451  0.1311
  780TIP3    H1 2304   2.316   4.058   1.019 -0.1244 -1.0388  0.4912
  780TIP3    H2 2305   2.416   4.170   1.039 -1.0239 -0.1401  0.0359
  781TIP3   OH2 2306   5.975   2.477   3.750  0.2457  0.0311 -0.0592
  781TIP3    H1 2307   5.999   2.521   3.668  0.8062 -2.5803 -1.3949
  781TIP3    H2 2308   5.947   2.390   3.723 -3.2975  0.2704  2.2249
  782TIP3   OH2 2309   4.974   4.705   0.037  0.4160  0.0955  0.1965
  782TIP3    H1 2310   4.945   4.629  -0.013  0.3859 -0.0299  0.4088
  782TIP3    H2 2311   4.918   4.707   0.114  0.1411  0.5674 -0.0106
  783TIP3   OH2 2312   6.288   2.875   3.636 -0.2243 -0.4628 -0.2397
  783TIP3    H1 2313   6.379   2.900   3.653 -0.3689 -0.8391  1.1876
  783TIP3    H2 2314   6.274   2.899   3.544  1.0206  0.4749 -0.2191
  784TIP3   OH2 2315   5.090   1.276   3.637 -0.0363  0.4049 -0.1625
  784TIP3    H1 2316   4.996   1.296   3.644  0.1432  0.6020  2.5419
  784TIP3    H2 2317   5.094   1.208   3.569 -2.0835  0.6188 -0.5881
  785TIP3   OH2 2318   2.604   4.512   3.914 -0.3263  0.0699  0.4343
  785TIP3    H1 2319   2.699   4.515   3.915 -0.2127 -2.3322  0.7327
  785TIP3    H2 2320   2.582   4.460   3.837 -1.4548  1.1488 -0.0160
  786TIP3   OH2 2321   4.650   3.491   3.417  0.0314  0.0354 -0.4505
  786TIP3    H1 2322   4.671   3.582   3.396 -1.1189  0.6541  0.8715
  786TIP3    H2 2323   4.624   3.494   3.509 -0.3128 -1.5932 -0.4723
  787TIP3   OH2 2324   3.446   0.390   2.790 -0.7250  0.4450 -0.2807
  787TIP3    H1 2325   3.538   0.370   2.774 -0.6721  0.3255  0.1747
  787TIP3    H2 2326   3.398   0.329   2.733 -0.5095  1.3962 -1.5111
  788TIP3   OH2 2327   3.561   5.449   4.981  0.0964 -0.0963 -0.4200
  788TIP3    H1 2328   3.606   5.380   5.029  2.2352 -0.0842 -2.2816
  788TIP3    H2 2329   3.585   5.435   4.890 -1.2757  1.7576 -1.1316
  789TIP3   OH2 2330   6.043   5.750   5.507 -0.3401 -0.4145  0.2637
  789TIP3    H1 2331   6.051   5.664   5.548  0.6887  0.3484  1.7771
  789TIP3    H2 2332   5.966   5.789   5.548 -1.5791 -1.0632 -1.3643
  790TIP3   OH2 2333   0.899   5.023   2.513 -0.0504  0.2340 -0.5797
  790TIP3    H1 2334   0.929   5.113   2.504 -2.4823  1.1399 -0.5916
  790TIP3    H2 2335   0.953   4.986   2.582  1.1134  1.6404 -0.6939
  791TIP3   OH2 2336   4.622   6.363   1.569  0.2921  0.3610 -0.0253
  791TIP3    H1 2337   4.593   6.425   1.636  0.6435  1.6706 -1.0475
  791TIP3    H2 2338   4.696   6.317   1.610 -1.0286 -0.6550  1.3718
  792TIP3   OH2 2339   6.049   0.392   1.071 -0.0228 -0.0285 -0.6262
  792TIP3    H1 2340   5.992   0.321   1.099 -1.1596  1.5438  1.2428
  792TIP3    H2 2341   6.121   0.348   1.026 -1.6906 -2.2006 -1.3552
  793TIP3   OH2 2342   7.183   6.164   1.859 -0.3778  0.3384  0.0262
  793TIP3    H1 2343   7.262   6.122   1.892  1.0629  3.3052  0.6253
  793TIP3    H2 2344   7.193   6.162   1.764 -0.4631 -0.7842  0.0212
  794TIP3   OH2 2345   2.705   4.029   5.607  0.0846 -0.1215 -0.3543
  794TIP3    H1 2346   2.639   4.021   5.675 -1.1168  2.7258 -1.0640
  794TIP3    H2 2347   2.657   4.016   5.525  0.2574  2.2386 -0.8974
  795TIP3   OH2 2348   3.440   5.142   0.557  0.1434 -0.3410  0.2894
  795TIP3    H1 2349   3.456   5.214   0.617  1.1502  0.2437 -0.6557
  795TIP3    H2 2350   3.457   5.063   0.609 -0.4462  0.0963  1.1738
  796TIP3   OH2 2351   4.500   1.268   2.428 -0.5105 -0.2215 -0.1468
  796TIP3    H1 2352   4.445   1.337   2.392 -1.4315 -0.9897 -0.2454
  796TIP3    H2 2353   4.494   1.197   2.365  1.7797  0.1812 -0.9030
  797TIP3   OH2 2354   6.990   3.617   1.568 -0.1260 -0.2051  0.3974
  797TIP3    H1 2355   6.952   3.605   1.655 -0.2448 -0.1513  0.3536
  797TIP3    H2 2356   6.940   3.558   1.512  0.0150 -0.3109  0.3838
  798TIP3   OH2 2357   6.686   2.323   4.710 -0.3745  0.5483  0.8363
  798TIP3    H1 2358   6.667   2.355   4.798 -0.0704  1.2950  0.6447
  798TIP3    H2 2359   6.695   2.403   4.658  3.1820  0.3111  0.8931
  799TIP3   OH2 2360   2.465   2.621   3.033  0.0684  0.1147  0.3716
  799TIP3    H1 2361   2.397   2.563   3.066 -0.3489  1.6776  2.3848
  799TIP3    H2 2362   2.542   2.564   3.024 -0.3235 -0.7860  2.2822
  800TIP3   OH2 2363   4.217   2.539   2.203 -0.2829 -0.2995 -0.0049
  800TIP3    H1 2364   4.256   2.620   2.236 -0.9903  0.5133 -1.0764
  800TIP3    H2 2365   4.126   2.542   2.234 -1.1039  0.7200 -2.2548
  801TIP3   OH2 2366   1.233   0.610   5.241  0.2393  0.3049 -0.0912
  801TIP3    H1 2367   1.273   0.697   5.246 -0.2191  0.4975  0.3457
  801TIP3    H2 2368   1.178   0.604   5.319  0.0873 -0.2887 -0.2364
  802TIP3   OH2 2369   1.391   5.660   5.770  0.6814 -0.3826 -0.8195
  802TIP3    H1 2370   1.469   5.619   5.734 -0.5097 -1.0861 -2.7528
  802TIP3    H2 2371   1.370   5.731   5.709 -0.9158 -1.0658 -1.1405
  803TIP3   OH2 2372   3.054   5.086   2.421 -0.5323 -0.0383 -0.3723
  803TIP3    H1 2373   3.036   5.003   2.377 -0.8601 -0.3149  0.2686
  803TIP3    H2 2374   3.038   5.153   2.355  1.4707 -0.5403 -1.4578
  804TIP3   OH2 2375   2.532   0.109   5.085  0.0894 -0.4803 -0.1836
  804TIP3    H1 2376   2.530   0.014   5.078  0.5127 -0.5245  0.2427
  804TIP3    H2 2377   2.498   0.140   5.001  0.1533 -1.0034 -0.4058
  805TIP3   OH2 2378   2.962   6.368   1.953  0.0425  0.9243 -0.1697
  805TIP3    H1 2379   2.911   6.316   2.015 -1.1013  2.3305  0.1363
  805TIP3    H2 2380   3.045   6.385   1.998 -0.4786  1.2873  0.6690
  806TIP3   OH2 2381   6.162   1.326   4.784  0.5687 -0.7146  0.4681
  806TIP3    H1 2382   6.124   1.360   4.866  0.1084  0.7815 -0.3278
  806TIP3    H2 2383   6.086   1.316   4.726  1.1612  1.0123 -0.6970
  807TIP3   OH2 2384   6.177   1.676   5.108  0.2689  0.2457  0.3251
  807TIP3    H1 2385   6.125   1.734   5.164  1.3492  2.2852 -0.6572
  807TIP3    H2 2386   6.185   1.725   5.025 -0.3898 -2.1892 -1.2746
  808TIP3   OH2 2387   3.112   5.618   4.082 -0.7031 -0.4558 -0.5963
  808TIP3    H1 2388   3.101   5.559   4.156  0.0568 -3.2563 -2.5597
  808TIP3    H2 2389   3.027   5.618   4.038 -0.7481  0.0547 -0.5139
  809TIP3   OH2 2390   4.378   4.314   5.809 -0.2908  0.5340  0.2308
  809TIP3    H1 2391   4.373   4.231   5.762  2.3087  0.6840 -0.4646
  809TIP3    H2 2392   4.339   4.296   5.894 -0.1930 -1.2752 -0.0749
  810TIP3   OH2 2393   3.346   1.189   4.678 -0.8987  0.1927  0.7367
  810TIP3    H1 2394   3.280   1.210   4.612 -0.2041 -0.6966 -0.2744
  810TIP3    H2 2395   3.383   1.274   4.702  0.7905  0.4346 -2.1487
  811TIP3   OH2 2396   0.152   0.067   3.407  0.3990 -0.1126 -0.3612
  811TIP3    H1 2397   0.238   0.076   3.365 -0.0829 -0.7294 -1.5469
  811TIP3    H2 2398   0.107   0.149   3.386  1.6356  1.4846  2.6938
  812TIP3   OH2 2399   3.479   6.682   0.063 -0.3388 -0.0691  0.4256
  812TIP3    H1 2400   3.486   6.755   0.124  0.8578 -2.1212  2.9112
  812TIP3    H2 2401   3.561   6.686   0.012 -0.0030 -0.0341  0.9629
  813TIP3   OH2 2402   0.173   5.518   1.701 -0.0123  0.6975  0.1305
  813TIP3    H1 2403   0.170   5.422   1.700  0.0035  0.6363  2.1608
  813TIP3    H2 2404   0.137   5.544   1.616 -0.5314 -1.0927 -0.2393
  814TIP3   OH2 2405   1.172   6.303   2.713 -0.2077  0.1384 -0.2326
  814TIP3    H1 2406   1.145   6.295   2.621  0.4164 -0.3357 -0.3849
  814TIP3    H2 2407   1.164   6.214   2.748  0.3482  0.1501 -0.0609
  815TIP3   OH2 2408   3.071   4.274   0.635 -0.3690 -0.3680 -0.2090
  815TIP3    H1 2409   3.046   4.290   0.544 -3.6680  0.1038  0.6434
  815TIP3    H2 2410   2.988   4.263   0.681  1.1856 -0.9820  2.7155
  816TIP3   OH2 2411   5.936   1.511   0.789 -0.0465 -0.0894  0.1923
  816TIP3    H1 2412   5.929   1.597   0.830  1.2024  0.4172 -0.6098
  816TIP3    H2 2413   5.946   1.529   0.696  0.8458 -1.0794  0.0788
  817TIP3   OH2 2414   6.688   2.355   5.036  0.2945  0.0017  0.3820
  817TIP3    H1 2415   6.700   2.450   5.030 -1.8294  0.3249  0.4434
  817TIP3    H2 2416   6.621   2.344   5.104  0.1424 -1.5131  0.0114
  818TIP3   OH2 2417   0.413   6.183   0.811  0.1081 -0.1587 -0.5942
  818TIP3    H1 2418   0.493   6.151   0.851 -1.1974 -0.8605  1.6680
  818TIP3    H2 2419   0.385   6.255   0.867 -2.2219 -1.6909  0.3532
  819TIP3   OH2 2420   1.156   2.514   1.370  0.4507 -0.0597  0.6923
  819TIP3    H1 2421   1.105   2.438   1.399  0.6606  0.0836  1.4562
  819TIP3    H2 2422   1.091   2.576   1.338  0.2302 -0.2991  0.6734
  820TIP3   OH2 2423   3.655   5.677   2.520  0.3028 -0.0444  0.0253
  820TIP3    H1 2424   3.715   5.751   2.520 -2.2605  2.1963  0.0943
  820TIP3    H2 2425   3.681   5.625   2.444  0.8813  2.1418 -1.3786
  821TIP3   OH2 2426   1.550   1.356   0.168 -0.0823 -0.3708  0.7761
  821TIP3    H1 2427   1.466   1.403   0.173 -0.0037 -0.2370  0.8360
  821TIP3    H2 2428   1.558   1.312   0.252  0.1299 -0.0054  0.9482
  822TIP3   OH2 2429   0.083   0.109   2.127 -0.0702  0.1699  0.2354
  822TIP3    H1 2430   0.149   0.061   2.076 -0.0555 -2.1112  2.2670
  822TIP3    H2 2431   0.001   0.093   2.080  0.1855 -0.5252  0.0051
  823TIP3   OH2 2432   6.605   2.339   2.078  0.0613  0.0759  0.3224
  823TIP3    H1 2433   6.581   2.430   2.095  1.2443  0.2379  1.2250
  823TIP3    H2 2434   6.568   2.291   2.152  0.1876 -0.0548  0.3001
  824TIP3   OH2 2435   6.439   2.032   5.350  0.0574  0.3546  0.3167
  824TIP3    H1 2436   6.445   1.936   5.351 -1.8025  0.1385 -1.8011
  824TIP3    H2 2437   6.393   2.053   5.432 -0.7807 -0.7175  0.1513
  825TIP3   OH2 2438   6.972   1.438   4.047 -0.0293  0.8488  0.2324
  825TIP3    H1 2439   6.987   1.456   3.954 -0.2592  2.1686  0.4295
  825TIP3    H2 2440   6.915   1.509   4.076 -0.5623  0.0338  1.2191
  826TIP3   OH2 2441   7.043   3.287   2.923  0.3915  0.0836  0.6869
  826TIP3    H1 2442   7.011   3.197   2.932 -1.0937  0.6324  1.2894
  826TIP3    H2 2443   6.987   3.338   2.981 -1.0014  1.9029 -2.0399
  827TIP3   OH2 2444   5.856   0.923   3.608 -0.2065  0.3885  0.2543
  827TIP3    H1 2445   5.785   0.893   3.664 -1.8537 -0.4154 -2.0826
  827TIP3    H2 2446   5.841   1.017   3.599 -1.5097  0.1122 -0.8156
  828TIP3   OH2 2447   5.580   6.319   3.567 -0.3520 -0.1193 -0.4215
  828TIP3    H1 2448   5.498   6.285   3.602 -1.0461 -0.9126 -2.6347
  828TIP3    H2 2449   5.607   6.386   3.629 -1.3792 -1.5106  1.6348
  829TIP3   OH2 2450   7.172   3.253   0.211  0.3565 -0.1118  0.5824
  829TIP3    H1 2451   7.083   3.285   0.198  0.1910 -0.4121  0.9594
  829TIP3    H2 2452   7.164   3.184   0.277  1.0493  0.7751  1.6282
  830TIP3   OH2 2453   0.288   3.552   4.571 -0.3647 -0.0784  0.2265
  830TIP3    H1 2454   0.369   3.559   4.520  0.1664  1.0576  1.1729
  830TIP3    H2 2455   0.315   3.513   4.654 -1.1872 -1.7180 -0.2340
  831TIP3   OH2 2456   6.073   1.610   5.443 -0.0824  0.6326  0.6963
  831TIP3    H1 2457   6.033   1.619   5.530  0.2819 -0.0097  0.9394
  831TIP3    H2 2458   6.054   1.693   5.399  1.2876  1.7310  2.0491
  832TIP3   OH2 2459   1.862   5.894   5.901  0.0951 -0.2933  0.1643
  832TIP3    H1 2460   1.777   5.900   5.857 -0.0385  0.1150  0.4721
  832TIP3    H2 2461   1.914   5.837   5.844 -0.4804 -0.7964  0.1311
  833TIP3   OH2 2462   2.238   6.359   3.729  0.3193 -0.6688  0.1986
  833TIP3    H1 2463   2.264   6.335   3.639 -0.8397 -0.0093 -0.3365
  833TIP3    H2 2464   2.145   6.378   3.722  0.4706  0.5592  1.3080
  834TIP3   OH2 2465   3.089   3.661   0.837 -0.0230 -0.0317 -0.2559
  834TIP3    H1 2466   3.179   3.689   0.848  0.0252  0.1155 -1.0205
  834TIP3    H2 2467   3.051   3.667   0.925  0.6187  0.2090  0.0068
  835TIP3   OH2 2468   4.910   3.886   4.990  0.0670 -0.6631  0.0205
  835TIP3    H1 2469   4.955   3.937   4.923  0.4052 -0.4793  0.3839
  835TIP3    H2 2470   4.822   3.873   4.955 -0.1782  0.5800  0.1356
  836TIP3   OH2 2471   5.963   2.530   1.770 -0.2362  0.2819 -0.4085
  836TIP3    H1 2472   5.902   2.581   1.823  0.3715 -0.7644  1.3524
  836TIP3    H2 2473   5.960   2.572   1.684 -0.3880  2.7483  0.7277
  837TIP3   OH2 2474   0.855   3.950   2.041 -0.2041  0.6351 -0.2382
  837TIP3    H1 2475   0.884   3.861   2.023 -0.9964  0.1542  0.7585
  837TIP3    H2 2476   0.908   3.979   2.115 -1.4591  0.1402  0.8970
  838TIP3   OH2 2477   7.183   4.467   1.411 -0.2924  0.0716 -0.5349
  838TIP3    H1 2478   7.130   4.530   1.460  1.3922  0.4750  0.9041
  838TIP3    H2 2479   7.205   4.399   1.475  1.2208  0.1254 -0.9588
  839TIP3   OH2 2480   5.460   2.688   4.150 -0.1180 -0.3952 -0.4832
  839TIP3    H1 2481   5.466   2.770   4.199 -0.0003 -0.7040  0.0349
  839TIP3    H2 2482   5.548   2.652   4.153 -0.3825 -1.0310  0.1839
  840TIP3   OH2 2483   6.629   3.520   3.005 -0.0739  0.0672  0.1770
  840TIP3    H1 2484   6.654   3.430   2.984  0.5399  0.5014 -1.0785
  840TIP3    H2 2485   6.677   3.541   3.085 -1.8560 -1.3919  1.7078
  841TIP3   OH2 2486   3.183   3.693   0.552  0.2480 -0.2217  0.2339
  841TIP3    H1 2487   3.211   3.770   0.602  1.1626 -0.2894 -0.1523
  841TIP3    H2 2488   3.207   3.618   0.606 -0.6108 -0.2504  0.5936
  842TIP3   OH2 2489   3.811   6.423   4.685  0.2483  0.1146 -0.0720
  842TIP3    H1 2490   3.902   6.412   4.715 -0.3141 -0.1241  1.6526
  842TIP3    H2 2491   3.798   6.349   4.625  0.5728 -1.1290  1.3072
  843TIP3   OH2 2492   0.684   5.552   4.392 -0.0516 -0.3822 -0.5379
  843TIP3    H1 2493   0.704   5.592   4.307  0.9932  0.4330  0.0651
  843TIP3    H2 2494   0.628   5.477   4.371 -0.0771 -0.0004 -1.9091
  844TIP3   OH2 2495   6.698   5.800   4.829 -0.1839 -0.2587  0.3928
  844TIP3    H1 2496   6.728   5.716   4.865  1.2857  0.0919  0.0088
  844TIP3    H2 2497   6.654   5.776   4.747 -0.7655 -0.7481  0.8357
  845TIP3   OH2 2498   3.729   6.741   3.299 -0.3616  0.1066  0.4671
  845TIP3    H1 2499   3.792   6.763   3.231  0.9548 -1.6355  1.0560
  845TIP3    H2 2500   3.723   6.819   3.353 -2.0562  1.8354 -2.0287
  846TIP3   OH2 2501   6.916   2.191   3.141 -0.1425  0.2181  0.2855
  846TIP3    H1 2502   6.835   2.159   3.100 -0.1497  0.2786  0.2525
  846TIP3    H2 2503   6.892   2.206   3.233  0.4481 -2.0852  0.8729
  847TIP3   OH2 2504   6.502   4.272   5.642 -0.5054  0.0190 -0.2067
  847TIP3    H1 2505   6.490   4.321   5.561  1.7097  0.6270 -0.2148
  847TIP3    H2 2506   6.466   4.185   5.623 -0.7121  0.3856 -1.5711
  848TIP3   OH2 2507   6.296   6.588   4.450  0.1450  0.0925 -0.0511
  848TIP3    H1 2508   6.345   6.556   4.374 -0.5198  0.0370 -0.4608
  848TIP3    H2 2509   6.235   6.518   4.470  0.8356 -0.2193  1.0197
  849TIP3   OH2 2510   3.549   3.233   4.551  0.4203  0.4659  0.3830
  849TIP3    H1 2511   3.572   3.211   4.461  0.0126 -1.5924  0.7314
  849TIP3    H2 2512   3.555   3.328   4.555  2.5554  0.4756 -1.2343
  850TIP3   OH2 2513   3.084   1.795   0.961 -0.4488  0.0682  0.2866
  850TIP3    H1 2514   3.071   1.790   0.866 -2.0293 -1.5002  0.5524
  850TIP3    H2 2515   3.141   1.721   0.981 -0.4157  0.1834  0.6255
  851TIP3   OH2 2516   6.719   0.102   2.566 -0.8286 -0.1213  0.0335
  851TIP3    H1 2517   6.716   0.170   2.498 -1.6461  0.8762  1.0413
  851TIP3    H2 2518   6.634   0.059   2.561  0.0520 -1.8453 -1.3117
  852TIP3   OH2 2519   1.090   1.901   0.861 -0.4948 -0.0472  0.3135
  852TIP3    H1 2520   1.044   1.903   0.946 -1.4419  1.6062 -0.1974
  852TIP3    H2 2521   1.100   1.992   0.836 -0.8271 -0.4984 -1.6745
  853TIP3   OH2 2522   0.919   2.070   2.951 -0.6349  0.2482  0.0581
  853TIP3    H1 2523   0.901   2.104   2.864  0.5073  0.0774 -0.2650
  853TIP3    H2 2524   0.878   2.133   3.011  1.0603  2.0245 -0.5366
  854TIP3   OH2 2525   4.272   4.981   5.662 -0.6205 -0.8253  0.2720
  854TIP3    H1 2526   4.323   4.960   5.584  0.5047 -3.1408  1.5266
  854TIP3    H2 2527   4.185   4.947   5.643 -0.1600 -2.0385  0.2950
  855TIP3   OH2 2528   1.751   5.911   0.492  0.8729 -0.1915  0.0076
  855TIP3    H1 2529   1.844   5.897   0.474  1.4629  0.0882  2.4978
  855TIP3    H2 2530   1.711   5.922   0.406  3.0718 -0.6947 -1.1381
  856TIP3   OH2 2531   7.152   0.718   4.348 -0.0365 -0.4092  0.3781
  856TIP3    H1 2532   7.194   0.643   4.305 -1.2382 -0.2811 -1.1136
  856TIP3    H2 2533   7.128   0.776   4.277 -1.1973  0.3091  1.3202
  857TIP3   OH2 2534   6.732   4.010   3.497  0.0803  0.1501  0.0868
  857TIP3    H1 2535   6.648   3.972   3.524  0.7595 -1.1219  0.5051
  857TIP3    H2 2536   6.763   4.057   3.573 -0.1359  0.4200  0.0102
  858TIP3   OH2 2537   6.100   3.428   5.853 -0.4436 -0.0312 -0.5613
  858TIP3    H1 2538   6.164   3.462   5.915 -0.3029 -2.0693  0.5162
  858TIP3    H2 2539   6.151   3.374   5.793 -0.8428  0.3424 -1.2438
  859TIP3   OH2 2540   6.823   4.945   1.017 -0.8574  0.0727 -0.1346
  859TIP3    H1 2541   6.892   4.892   0.978 -0.0664 -0.0493  1.3579
  859TIP3    H2 2542   6.827   5.028   0.970 -1.6231 -0.8799 -1.9999
  860TIP3   OH2 2543   0.704   3.990   3.386 -0.1164 -0.8006  0.3261
  860TIP3    H1 2544   0.623   3.998   3.335  0.2132  1.2888  0.0629
  860TIP3    H2 2545   0.773   4.011   3.324  0.6546 -2.2481  0.6362
  861TIP3   OH2 2546   4.848   0.668   4.686  0.6067  0.3623 -0.1315
  861TIP3    H1 2547   4.856   0.720   4.767  0.5312 -0.6978  0.5775
  861TIP3    H2 2548   4.757   0.639   4.686  0.9655 -0.7826  0.1269
  862TIP3   OH2 2549   6.195   1.559   3.635  0.4988  0.1889  0.4211
  862TIP3    H1 2550   6.234   1.646   3.642 -0.3993  0.6017  0.5189
  862TIP3    H2 2551   6.109   1.575   3.596  0.8456 -0.8037 -0.8266
  863TIP3   OH2 2552   5.055   1.192   4.458 -0.1036  0.1210  0.2778
  863TIP3    H1 2553   5.031   1.169   4.368  0.6262 -0.9705  0.3417
  863TIP3    H2 2554   5.098   1.113   4.493  1.3155  1.1347  0.9608
  864TIP3   OH2 2555   5.075   1.131   3.884 -0.4007 -0.0046 -0.1627
  864TIP3    H1 2556   5.033   1.045   3.886 -1.1120  0.3050 -0.9500
  864TIP3    H2 2557   5.149   1.120   3.825  0.1512 -0.3430  0.5807
  865TIP3   OH2 2558   5.712   5.769   1.232 -1.1397  0.2500 -0.1764
  865TIP3    H1 2559   5.804   5.743   1.240 -0.8819  1.4455  0.8886
  865TIP3    H2 2560   5.667   5.721   1.302 -1.6285 -1.4538 -1.5670
  866TIP3   OH2 2561   4.378   2.398   4.551 -0.2974  0.3591 -0.5716
  866TIP3    H1 2562   4.387   2.464   4.483  0.1042  0.3754 -0.5062
  866TIP3    H2 2563   4.328   2.328   4.510  0.1180  0.2805 -0.9505
  867TIP3   OH2 2564   4.843   2.120   3.860 -0.6610  0.5958  0.3517
  867TIP3    H1 2565   4.756   2.159   3.860 -0.6756  0.5731 -0.0632
  867TIP3    H2 2566   4.829   2.030   3.831 -0.5212  0.5420  0.4491
  868TIP3   OH2 2567   5.995   4.578   1.300 -0.3723 -0.5977 -0.5228
  868TIP3    H1 2568   5.980   4.662   1.257 -1.1652 -1.1559 -1.3462
  868TIP3    H2 2569   6.078   4.591   1.347 -1.1371  1.0818  0.4747
  869TIP3   OH2 2570   0.038   4.413   2.360  0.2177 -0.7047 -0.1223
  869TIP3    H1 2571  -0.020   4.409   2.436 -0.2588 -1.6568 -0.5146
  869TIP3    H2 2572   0.046   4.322   2.331 -0.9751 -0.2363 -2.2006
  870TIP3   OH2 2573   5.592   3.870   0.600  0.0210  0.4371  0.1016
  870TIP3    H1 2574   5.677   3.827   0.587  1.2957  2.6694  0.6055
  870TIP3    H2 2575   5.560   3.835   0.683  1.1179  0.5964  0.6052
  871TIP3   OH2 2576   5.167   2.956   3.802 -0.0194 -0.3679  0.4118
  871TIP3    H1 2577   5.256   2.946   3.836  0.0955 -2.1982 -0.3214
  871TIP3    H2 2578   5.171   2.924   3.712 -0.7098  2.7762 -0.8647
  872TIP3   OH2 2579   5.309   1.110   4.195  0.3988 -0.6576 -0.5354
  872TIP3    H1 2580   5.217   1.129   4.176  0.1443 -0.8791  0.4038
  872TIP3    H2 2581   5.317   1.015   4.184  0.3188 -0.7469  0.0865
  873TIP3   OH2 2582   2.768   4.545   4.308 -0.2409 -0.2967  0.7676
  873TIP3    H1 2583   2.787   4.518   4.398  1.5004 -2.2837 -0.1143
  873TIP3    H2 2584   2.854   4.548   4.265 -0.5194  4.2339 -0.0140
  874TIP3   OH2 2585   5.009   4.871   0.752 -0.4767 -0.6839 -0.7009
  874TIP3    H1 2586   4.937   4.870   0.815 -0.3060  0.5029 -0.4636
  874TIP3    H2 2587   5.073   4.808   0.786 -0.4013 -0.0732  0.3115
  875TIP3   OH2 2588   4.867   0.467   3.980  0.2461  0.3736  0.1860
  875TIP3    H1 2589   4.786   0.463   4.032  0.5436 -0.8818  0.5808
  875TIP3    H2 2590   4.860   0.393   3.921  1.3658 -0.0806  0.6066
  876TIP3   OH2 2591   1.472   3.464   0.484  0.1541  0.1531  0.4336
  876TIP3    H1 2592   1.501   3.372   0.481 -1.3895 -0.3475  0.0946
  876TIP3    H2 2593   1.500   3.501   0.400  0.5962 -0.0494  0.4857
  877TIP3   OH2 2594   5.327   1.396   5.755 -0.6258  0.5508  0.6071
  877TIP3    H1 2595   5.318   1.390   5.660 -2.3599  0.4838  0.7522
  877TIP3    H2 2596   5.349   1.488   5.771 -0.5245  0.6099  0.1543
  878TIP3   OH2 2597   6.130   5.148   0.811  0.3599  0.1028  0.4383
  878TIP3    H1 2598   6.095   5.211   0.748  2.5377  1.0346  0.0653
  878TIP3    H2 2599   6.190   5.199   0.865 -1.5731 -0.6101  3.5150
  879TIP3   OH2 2600   5.448   5.690   3.317  0.2385 -0.0971  0.1854
  879TIP3    H1 2601   5.438   5.628   3.389  1.7506 -1.1135 -0.4303
  879TIP3    H2 2602   5.440   5.637   3.238 -2.9318  1.2199 -0.5374
  880TIP3   OH2 2603   3.438   4.590   4.249  0.1438 -0.7359  0.2980
  880TIP3    H1 2604   3.462   4.520   4.310  0.7291 -0.4007  0.4656
  880TIP3    H2 2605   3.482   4.668   4.284 -1.9420  0.1394  1.1555
  881TIP3   OH2 2606   2.464   2.670   0.283  0.1404  0.0150 -0.5881
  881TIP3    H1 2607   2.557   2.663   0.304  0.1516  1.5672  0.0096
  881TIP3    H2 2608   2.429   2.731   0.348 -1.5191 -1.2507 -0.1878
  882TIP3   OH2 2609   4.299   3.276   1.705  0.8380 -0.2173  0.2943
  882TIP3    H1 2610   4.360   3.229   1.762  1.6557  0.6100  0.1256
  882TIP3    H2 2611   4.337   3.266   1.617  0.1685 -0.5631  0.0354
  883TIP3   OH2 2612   3.124   2.288   0.126 -0.2650 -0.5056 -0.3220
  883TIP3    H1 2613   3.126   2.254   0.216 -1.9196  4.3885  1.9205
  883TIP3    H2 2614   3.034   2.319   0.114  0.0969 -0.3409 -3.4686
  884TIP3   OH2 2615   5.969   6.706   1.912 -0.4289  0.6270 -0.2075
  884TIP3    H1 2616   5.892   6.697   1.855 -0.1789  0.9062 -0.5869
  884TIP3    H2 2617   5.933   6.701   2.001 -0.8284  0.2609 -0.3837
  885TIP3   OH2 2618   2.518   2.288   1.495 -0.1106  0.1899 -0.2223
  885TIP3    H1 2619   2.605   2.329   1.495  0.5151 -1.0925 -0.2293
  885TIP3    H2 2620   2.479   2.316   1.413  0.7087 -0.0367 -0.7017
  886TIP3   OH2 2621   2.735   3.769   4.833 -0.3034  0.1645  0.1778
  886TIP3    H1 2622   2.725   3.694   4.892  1.6518  0.6676  1.2511
  886TIP3    H2 2623   2.676   3.835   4.868  0.5660  0.3275  1.4138
  887TIP3   OH2 2624   5.200   0.269   2.133  0.3891 -0.1095 -0.5694
  887TIP3    H1 2625   5.282   0.259   2.084  0.4861  1.0014 -0.6418
  887TIP3    H2 2626   5.222   0.240   2.222  1.2153  1.3730 -0.2670
  888TIP3   OH2 2627   2.889   6.101   0.856 -0.1528  0.5153  0.1221
  888TIP3    H1 2628   2.892   6.157   0.934 -0.8173  1.3573 -0.4331
  888TIP3    H2 2629   2.966   6.044   0.864 -0.7744 -0.1351  1.9015
  889TIP3   OH2 2630   2.530   3.123   3.842  0.2046  0.3879 -0.2757
  889TIP3    H1 2631   2.508   3.061   3.911 -0.1608  0.2487 -0.5158
  889TIP3    H2 2632   2.499   3.208   3.874 -2.5746 -0.0877 -1.4485
  890TIP3   OH2 2633   3.904   2.479   5.349 -0.3150  0.1510  0.4154
  890TIP3    H1 2634   3.854   2.445   5.275  0.6684 -0.1108 -0.1449
  890TIP3    H2 2635   3.894   2.412   5.417  1.3275 -1.1924 -0.5613
  891TIP3   OH2 2636   2.289   3.323   2.927 -0.8380 -0.2148 -0.0935
  891TIP3    H1 2637   2.209   3.363   2.959 -0.6043  0.1477  0.0439
  891TIP3    H2 2638   2.342   3.309   3.006 -1.3708 -1.8430  0.0120
  892TIP3   OH2 2639   5.301   2.873   5.509 -0.0056  0.4926 -0.2455
  892TIP3    H1 2640   5.327   2.909   5.424  0.8698  0.8840  0.1758
  892TIP3    H2 2641   5.271   2.949   5.559 -0.4561  0.2718 -0.1801
  893TIP3   OH2 2642   6.925   1.798   5.744 -0.2355  0.3875 -0.1670
  893TIP3    H1 2643   7.005   1.755   5.716  0.2701  0.5967  0.9154
  893TIP3    H2 2644   6.885   1.829   5.663  0.9579  0.5955 -0.6947
  894TIP3   OH2 2645   5.834   0.967   3.962 -0.3790  0.3773  0.3631
  894TIP3    H1 2646   5.849   0.951   4.056  2.1882  0.1026 -0.0142
  894TIP3    H2 2647   5.780   0.893   3.933  0.8482 -0.8776  1.1637
  895TIP3   OH2 2648   1.512   6.252   4.643 -0.2176 -0.1148  0.6407
  895TIP3    H1 2649   1.553   6.285   4.723  1.2013 -0.5125  0.1078
  895TIP3    H2 2650   1.535   6.159   4.641  0.1122 -0.0284 -0.4183
  896TIP3   OH2 2651   7.042   1.435   0.706 -0.2774  0.6968 -0.0936
  896TIP3    H1 2652   7.052   1.518   0.660 -1.2991  1.1356  0.4457
  896TIP3    H2 2653   6.951   1.409   0.690  0.0855 -0.4286 -0.4294
  897TIP3   OH2 2654   6.021   2.938   0.233  0.1120 -0.0386 -0.1745
  897TIP3    H1 2655   6.007   2.947   0.139  1.0785 -0.2238 -0.3470
  897TIP3    H2 2656   6.084   3.007   0.254  0.6722 -0.6449  0.1452
  898TIP3   OH2 2657   4.316   1.209   4.345  0.2387 -0.0986 -0.1329
  898TIP3    H1 2658   4.271   1.175   4.422  0.8595  1.3212  0.9211
  898TIP3    H2 2659   4.409   1.189   4.361  0.6893  2.3063  0.7544
  899TIP3   OH2 2660   4.325   3.058   5.448  0.0724 -0.3910 -0.4377
  899TIP3    H1 2661   4.391   2.989   5.440 -0.2805 -0.6732 -0.9130
  899TIP3    H2 2662   4.266   3.044   5.374 -0.8959 -0.5419  0.3332
  900TIP3   OH2 2663   1.537   1.603   4.935  0.0002 -0.7075  0.1863
  900TIP3    H1 2664   1.449   1.569   4.952  0.5715 -1.7963  1.1271
  900TIP3    H2 2665   1.591   1.524   4.926  0.8019 -0.0556 -0.8105
  901TIP3   OH2 2666   2.523   4.973   3.387 -0.2906 -0.5710  0.2344
  901TIP3    H1 2667   2.575   4.963   3.466  3.3177 -0.5005 -1.9218
  901TIP3    H2 2668   2.517   4.884   3.351  0.9078 -0.2138 -0.9507
  902TIP3   OH2 2669   4.558   5.516   0.934  0.5712 -0.8863  0.3694
  902TIP3    H1 2670   4.542   5.501   1.027 -0.9975 -0.2420  0.2340
  902TIP3    H2 2671   4.652   5.530   0.928  0.6270 -0.3972  1.9449
  903TIP3   OH2 2672   1.613   1.615   5.494 -0.1972  0.4156 -0.0507
  903TIP3    H1 2673   1.628   1.702   5.532 -2.5439  0.4396  0.9671
  903TIP3    H2 2674   1.525   1.620   5.457 -1.0112 -1.9321  1.3589
  904TIP3   OH2 2675   6.762   5.071   4.180  0.3432  0.5425 -0.0843
  904TIP3    H1 2676   6.707   5.142   4.213 -1.2138 -0.9742  0.7694
  904TIP3    H2 2677   6.824   5.054   4.251  1.4018  1.6526 -0.6907
  905TIP3   OH2 2678   4.124   1.906   3.500 -0.0199 -0.1599  0.2822
  905TIP3    H1 2679   4.166   1.870   3.421 -0.3137  1.9237 -0.8829
  905TIP3    H2 2680   4.031   1.902   3.481 -0.1542 -0.6642  1.0155
  906TIP3   OH2 2681   3.711   3.150   4.995 -0.0394  0.1895 -0.1182
  906TIP3    H1 2682   3.668   3.151   5.080  0.7589  1.6414  0.3122
  906TIP3    H2 2683   3.736   3.241   4.979  0.4913 -0.1672 -1.5673
  907TIP3   OH2 2684   1.589   0.725   3.938  0.1508 -0.2866  0.7000
  907TIP3    H1 2685   1.658   0.669   3.901  1.3743  1.3940  0.3243
  907TIP3    H2 2686   1.610   0.731   4.031 -0.5880 -1.2375  0.9513
  908TIP3   OH2 2687   0.460   4.468   4.757 -0.5474  0.6323  0.3621
  908TIP3    H1 2688   0.436   4.404   4.690 -0.7194 -0.6581  1.6144
  908TIP3    H2 2689   0.443   4.423   4.840  1.5741  1.4546  1.2983
  909TIP3   OH2 2690   5.913   2.229   0.468 -0.3274  0.9916 -1.1625
  909TIP3    H1 2691   5.891   2.316   0.435 -0.2187  1.9176  1.0854
  909TIP3    H2 2692   6.006   2.219   0.448 -0.4542  1.1579 -1.8752
  910TIP3   OH2 2693   6.864   2.186   5.334 -0.0554 -0.0939  0.2313
  910TIP3    H1 2694   6.916   2.245   5.279  0.1586  0.2323  0.7671
  910TIP3    H2 2695   6.794   2.155   5.277  0.4510 -0.1573 -0.3635
  911TIP3   OH2 2696   5.117   6.647   2.136  0.0185 -0.1297  0.3351
  911TIP3    H1 2697   5.185   6.580   2.139  1.4320  1.1587 -1.2137
  911TIP3    H2 2698   5.089   6.649   2.045 -1.3733  0.1147  0.7319
  912TIP3   OH2 2699   5.169   4.587   2.876  0.5486 -0.3942 -0.3199
  912TIP3    H1 2700   5.144   4.643   2.949 -1.3447  0.5616 -1.6042
  912TIP3    H2 2701   5.192   4.503   2.916  0.1350  0.2766  1.3933
  913TIP3   OH2 2702   2.298   2.073   3.314  0.1147  0.1402 -0.1322
  913TIP3    H1 2703   2.256   2.138   3.372  1.2448  2.4548 -1.7378
  913TIP3    H2 2704   2.384   2.058   3.354  0.5323  1.0282 -0.6581
  914TIP3   OH2 2705   7.049   5.201   0.328 -0.1613 -0.2392 -0.2047
  914TIP3    H1 2706   6.981   5.266   0.315  1.6170  1.6290 -0.6910
  914TIP3    H2 2707   7.091   5.193   0.243  1.0037 -0.4022  0.3640
  915TIP3   OH2 2708   3.421   3.729   4.764  0.6038 -0.6698 -0.3500
  915TIP3    H1 2709   3.458   3.817   4.774 -0.0934 -0.4665  0.5695
  915TIP3    H2 2710   3.328   3.744   4.748  0.6581 -1.2207 -1.2064
  916TIP3   OH2 2711   3.062   4.575   0.890  0.5452  0.0464  0.2029
  916TIP3    H1 2712   3.006   4.584   0.967  1.4859 -0.9879  1.0264
  916TIP3    H2 2713   3.147   4.608   0.918  1.2544 -1.5876  0.0423
  917TIP3   OH2 2714   2.877   0.372   3.872 -0.0341  0.0711  0.2196
  917TIP3    H1 2715   2.915   0.287   3.850  1.5820  0.4002  1.5373
  917TIP3    H2 2716   2.852   0.363   3.964  0.3904  1.1042  0.4393
  918TIP3   OH2 2717   6.976   4.206   4.966  0.4649 -0.1150 -0.3537
  918TIP3    H1 2718   6.896   4.199   5.018 -0.0002  0.7389 -0.9423
  918TIP3    H2 2719   6.958   4.156   4.887  0.7148 -0.3688 -0.2524
  919TIP3   OH2 2720   6.930   5.573   4.792  0.1273 -0.1592 -0.1298
  919TIP3    H1 2721   6.948   5.664   4.770 -0.7075  0.0391 -0.0517
  919TIP3    H2 2722   6.982   5.521   4.731  2.0501  0.3469  1.0020
  920TIP3   OH2 2723   2.369   6.148   2.845 -0.0474 -0.1753 -0.0883
  920TIP3    H1 2724   2.410   6.157   2.931 -0.8644  1.9381  0.1500
  920TIP3    H2 2725   2.413   6.074   2.804  2.4017  0.5749  1.0223
  921TIP3   OH2 2726   5.699   6.363   3.863  0.4545 -0.3726  0.1975
  921TIP3    H1 2727   5.726   6.325   3.947  1.5193  0.9654  0.4908
  921TIP3    H2 2728   5.698   6.458   3.879 -1.1018 -0.1922 -0.8033
  922TIP3   OH2 2729   7.106   3.859   1.491 -0.3238 -0.3614 -0.0886
  922TIP3    H1 2730   7.057   3.779   1.506 -0.0739 -0.0892  2.6455
  922TIP3    H2 2731   7.046   3.914   1.440 -1.0412 -1.7153 -0.7656
  923TIP3   OH2 2732   0.422   2.344   1.923 -0.7198  0.5495 -0.1904
  923TIP3    H1 2733   0.402   2.398   2.000 -1.0436  0.8662 -0.4898
  923TIP3    H2 2734   0.505   2.380   1.890 -1.4544  1.5858 -1.0019
  924TIP3   OH2 2735   3.810   3.088   1.683  0.4722  0.7691  0.3185
  924TIP3    H1 2736   3.841   3.026   1.617 -0.1015 -1.0971  1.7005
  924TIP3    H2 2737   3.888   3.109   1.735  0.3517 -0.2317  0.9276
  925TIP3   OH2 2738   5.153   1.374   4.629  0.5610 -0.0133  0.1698
  925TIP3    H1 2739   5.108   1.305   4.580 -0.7983  0.0833  1.2423
  925TIP3    H2 2740   5.219   1.407   4.568 -0.2749 -0.7169 -1.1597
  926TIP3   OH2 2741   5.135   6.757   4.027 -0.0111  0.1966 -0.0310
  926TIP3    H1 2742   5.178   6.672   4.020 -1.3137 -0.4091 -1.0768
  926TIP3    H2 2743   5.150   6.784   4.118  0.1580 -1.2899  0.4147
  927TIP3   OH2 2744   6.083   1.374   3.844  0.7319 -0.4469  0.2236
  927TIP3    H1 2745   6.082   1.453   3.789  1.6565  0.7917  1.9005
  927TIP3    H2 2746   6.173   1.368   3.876  0.1250 -0.8226  1.9787
  928TIP3   OH2 2747   3.148   2.630   3.230  0.1288 -0.3785 -0.0340
  928TIP3    H1 2748   3.096   2.664   3.304  1.3905 -0.3475  0.8680
  928TIP3    H2 2749   3.088   2.572   3.184 -1.0395  0.4703  0.3532
  929TIP3   OH2 2750   3.315   3.380   0.897 -0.2699 -0.3668  0.2034
  929TIP3    H1 2751   3.304   3.422   0.982  1.3144  0.2509  0.1193
  929TIP3    H2 2752   3.367   3.302   0.915 -0.4209 -0.5466 -0.1279
  930TIP3   OH2 2753   0.473   3.612   2.692  0.1038 -0.1967  0.0320
  930TIP3    H1 2754   0.463   3.525   2.730  0.3237  0.0302  0.6202
  930TIP3    H2 2755   0.428   3.607   2.608  1.4078 -1.3406 -0.6403
  931TIP3   OH2 2756   3.684   4.380   2.108  0.4730  0.1413 -0.1538
  931TIP3    H1 2757   3.624   4.389   2.182 -0.8390  1.4225 -1.3070
  931TIP3    H2 2758   3.683   4.466   2.066  0.9177 -0.6374 -1.8541
  932TIP3   OH2 2759   6.403   6.440   4.949  0.5010  0.1801 -0.3064
  932TIP3    H1 2760   6.415   6.350   4.980 -2.4955  0.2279  1.3473
  932TIP3    H2 2761   6.491   6.468   4.923  1.8427 -2.5896  0.7997
  933TIP3   OH2 2762   0.253   4.656   3.348  0.2807  0.0254 -0.0502
  933TIP3    H1 2763   0.266   4.680   3.440  0.7949 -1.4522  0.2934
  933TIP3    H2 2764   0.240   4.739   3.303 -0.2117  0.7640  1.3948
  934TIP3   OH2 2765   1.880   2.668   2.289 -0.1238 -0.0048 -0.3359
  934TIP3    H1 2766   1.799   2.670   2.340 -0.5567 -3.5024 -0.6272
  934TIP3    H2 2767   1.949   2.674   2.354 -0.5711  1.7767  0.0275
  935TIP3   OH2 2768   5.038   2.540   3.684 -0.1420 -0.0941 -0.9796
  935TIP3    H1 2769   5.050   2.449   3.710  1.0790 -0.6629 -3.2251
  935TIP3    H2 2770   4.944   2.548   3.667 -0.7281 -0.0897  1.8643
  936TIP3   OH2 2771   5.816   1.251   4.844 -0.0048  0.3880 -0.1231
  936TIP3    H1 2772   5.727   1.216   4.831 -0.3890  1.6132 -1.0490
  936TIP3    H2 2773   5.874   1.184   4.808 -0.4367 -1.0048  1.6315
  937TIP3   OH2 2774   3.554   6.409   1.754 -0.4740 -0.5279 -0.3363
  937TIP3    H1 2775   3.645   6.436   1.743  0.0377 -2.2183 -0.3800
  937TIP3    H2 2776   3.521   6.464   1.825 -0.9533  3.6392 -3.3926
  938TIP3   OH2 2777   5.245   4.927   2.600 -0.0971 -0.1561 -0.7546
  938TIP3    H1 2778   5.313   4.944   2.535  1.2798 -0.2954  0.6094
  938TIP3    H2 2779   5.207   5.013   2.618  0.9923  0.2174 -0.1672
  939TIP3   OH2 2780   1.942   6.189   5.378  0.3998  0.2065  0.0845
  939TIP3    H1 2781   1.875   6.127   5.405  1.9979 -1.5739  0.1123
  939TIP3    H2 2782   1.899   6.243   5.311 -1.9108  1.0678  2.1210
  940TIP3   OH2 2783   0.428   6.740   3.563 -0.0184 -0.3606 -0.8426
  940TIP3    H1 2784   0.350   6.753   3.616  0.9851  1.9579  0.1922
  940TIP3    H2 2785   0.464   6.656   3.593 -0.3551  0.1176  1.0458
  941TIP3   OH2 2786   4.280   6.107   2.478  0.1864  0.3029  0.2055
  941TIP3    H1 2787   4.365   6.148   2.493 -0.8176  3.0291 -0.9291
  941TIP3    H2 2788   4.258   6.129   2.387 -1.0323 -1.7766 -0.0753
  942TIP3   OH2 2789   4.689   0.199   0.532 -0.6376  0.1589  0.3989
  942TIP3    H1 2790   4.716   0.275   0.482  1.5328 -0.0245  1.1920
  942TIP3    H2 2791   4.745   0.199   0.609 -1.7904 -1.2701  1.3111
  943TIP3   OH2 2792   1.163   1.209   2.332 -0.4090 -0.1160 -0.0111
  943TIP3    H1 2793   1.188   1.164   2.252 -0.0705 -1.2069  0.6813
  943TIP3    H2 2794   1.165   1.141   2.400  0.6084  1.0309  1.1710
  944TIP3   OH2 2795   2.101   6.250   2.166 -0.3602 -0.0482  0.4089
  944TIP3    H1 2796   2.036   6.267   2.098 -0.5117  0.1355  0.6005
  944TIP3    H2 2797   2.164   6.190   2.124 -0.8366 -0.5028  0.3362
  945TIP3   OH2 2798   0.814   3.838   0.994  0.1172  0.1010  0.0795
  945TIP3    H1 2799   0.810   3.743   0.999 -3.8248  0.0872 -0.3048
  945TIP3    H2 2800   0.826   3.858   0.901  0.8213  0.0128  0.1460
  946TIP3   OH2 2801   4.980   4.877   0.478 -0.2846  0.1402 -0.3140
  946TIP3    H1 2802   4.953   4.967   0.463  1.5733  0.6101 -1.1173
  946TIP3    H2 2803   4.992   4.871   0.573  0.6956  1.1033 -0.3616
  947TIP3   OH2 2804   4.969   6.158   2.445  0.3163  0.3291  0.4317
  947TIP3    H1 2805   5.064   6.152   2.460  0.5849 -0.5913 -1.3703
  947TIP3    H2 2806   4.959   6.146   2.351 -1.6931 -0.8732  0.7334
  948TIP3   OH2 2807   3.910   4.053   0.489 -0.2951  0.0713 -0.3577
  948TIP3    H1 2808   3.934   4.136   0.448 -0.5207 -0.1312 -0.9135
  948TIP3    H2 2809   3.954   4.054   0.573 -0.8300  1.0577 -0.0737
  949TIP3   OH2 2810   6.556   4.958   2.123  0.3637  0.1914 -0.1055
  949TIP3    H1 2811   6.542   4.948   2.029 -1.2568  1.7909 -0.0899
  949TIP3    H2 2812   6.648   4.937   2.136  0.7118  0.3000 -2.1113
  950TIP3   OH2 2813   5.411   1.431   1.653 -0.2421  0.2615 -0.1322
  950TIP3    H1 2814   5.504   1.449   1.663 -0.2520 -0.2460  1.0447
  950TIP3    H2 2815   5.403   1.337   1.665 -0.8800  0.2671 -0.4547
  951TIP3   OH2 2816   2.443   1.718   2.079  0.4253 -0.4493 -0.2894
  951TIP3    H1 2817   2.495   1.779   2.132  0.6367 -0.9327  0.0683
  951TIP3    H2 2818   2.508   1.662   2.036  0.2318 -0.4931 -0.5233
  952TIP3   OH2 2819   5.146   0.785   1.838  0.3393 -0.2410  0.4113
  952TIP3    H1 2820   5.087   0.735   1.894 -1.7446 -0.3444 -1.7008
  952TIP3    H2 2821   5.113   0.875   1.843 -0.0841 -0.3045 -0.8271
  953TIP3   OH2 2822   5.743   0.019   4.557  0.6675  0.0949 -0.1049
  953TIP3    H1 2823   5.790   0.101   4.572 -0.4092  1.1105 -1.9741
  953TIP3    H2 2824   5.795  -0.026   4.491  0.5627 -0.1341 -0.0316
  954TIP3   OH2 2825   1.749   5.202   4.834  0.5279  0.3856  0.1920
  954TIP3    H1 2826   1.751   5.111   4.804 -0.9050  0.3938 -0.0351
  954TIP3    H2 2827   1.764   5.196   4.928 -2.4071 -0.4412  0.7238
  955TIP3   OH2 2828   6.702   4.586   2.983 -0.5998  0.4270  0.0994
  955TIP3    H1 2829   6.619   4.628   2.959 -1.4077 -0.8611  0.5338
  955TIP3    H2 2830   6.717   4.522   2.914 -1.2205 -0.9776  1.2083
  956TIP3   OH2 2831   0.115   5.819   5.098 -0.5281  0.1991  0.3097
  956TIP3    H1 2832   0.142   5.894   5.045  0.2654 -0.5227 -0.3326
  956TIP3    H2 2833   0.195   5.790   5.141 -0.7466 -0.5264  0.2397
  957TIP3   OH2 2834   0.309   0.734   3.513  0.4712  0.0902  0.2738
  957TIP3    H1 2835   0.299   0.814   3.461 -0.3245 -0.0122  0.2577
  957TIP3    H2 2836   0.361   0.676   3.458  1.0590  0.5852  0.2835
  958TIP3   OH2 2837   0.533   1.528   4.616 -0.2121  0.2644  0.2234
  958TIP3    H1 2838   0.572   1.611   4.588  2.7430 -1.2124 -0.3216
  958TIP3    H2 2839   0.523   1.478   4.535  0.9831 -1.0530  0.8548
  959TIP3   OH2 2840   3.007   3.787   1.490 -0.0997  0.2349 -0.8219
  959TIP3    H1 2841   2.966   3.794   1.404  1.2566 -0.1492 -1.5122
  959TIP3    H2 2842   3.056   3.705   1.487  0.2506  0.3915  0.2041
  960TIP3   OH2 2843   1.575   5.290   1.091 -0.2246 -0.2062 -0.2951
  960TIP3    H1 2844   1.566   5.367   1.148  0.9550 -0.2439 -0.0336
  960TIP3    H2 2845   1.545   5.320   1.005 -0.4796  0.3218 -0.0292
  961TIP3   OH2 2846   6.618   5.152   1.319  0.6954  0.2160 -0.4072
  961TIP3    H1 2847   6.582   5.086   1.378  1.4608 -0.8834 -1.1286
  961TIP3    H2 2848   6.700   5.178   1.360  0.3834  0.7564 -0.1119
  962TIP3   OH2 2849   2.778   4.884   0.938 -0.1807 -0.2017 -0.3368
  962TIP3    H1 2850   2.810   4.929   0.860 -1.0693 -1.3064 -1.3755
  962TIP3    H2 2851   2.717   4.818   0.904 -1.4054 -0.0003  1.3711
  963TIP3   OH2 2852   4.261   4.892   1.173  0.1436 -0.0051 -0.6208
  963TIP3    H1 2853   4.199   4.907   1.102 -1.4488  0.1982  0.7335
  963TIP3    H2 2854   4.247   4.965   1.233  1.3814 -0.2091 -0.0534
  964TIP3   OH2 2855   3.163   1.206   4.431 -0.2858 -0.2727  0.4340
  964TIP3    H1 2856   3.074   1.176   4.449 -1.0411  0.3165 -2.0633
  964TIP3    H2 2857   3.191   1.155   4.355  0.5665  1.2955 -0.3364
  965TIP3   OH2 2858   5.735   4.900   5.194 -0.0586 -0.0642 -0.3011
  965TIP3    H1 2859   5.735   4.837   5.122 -0.2420  1.2165 -1.4478
  965TIP3    H2 2860   5.643   4.923   5.207 -0.0802 -0.6354  0.6829
  966TIP3   OH2 2861   0.648   1.005   3.539  0.7986  0.2203 -0.2008
  966TIP3    H1 2862   0.690   1.045   3.615 -0.1779  0.0075  0.4694
  966TIP3    H2 2863   0.555   1.026   3.549  0.2218 -2.2165  0.2122
  967TIP3   OH2 2864   5.351   1.003   5.742 -0.3710 -0.1622 -0.4492
  967TIP3    H1 2865   5.263   0.988   5.705 -1.2143  0.1427  1.3369
  967TIP3    H2 2866   5.375   0.920   5.782 -0.2159  0.0180 -0.1710
  968TIP3   OH2 2867   5.520   2.911   3.505 -0.4841  0.1127  0.3747
  968TIP3    H1 2868   5.563   2.864   3.434  0.3879  1.1755  0.1881
  968TIP3    H2 2869   5.456   2.967   3.461 -0.8729 -0.1877  0.5399
  969TIP3   OH2 2870   3.319   6.563   5.256  0.3107 -0.2054  0.3495
  969TIP3    H1 2871   3.258   6.632   5.283  1.0753  0.9471 -0.7320
  969TIP3    H2 2872   3.400   6.610   5.235  1.0291 -1.5041  0.0914
  970TIP3   OH2 2873   0.862   3.384   1.316  0.4813  0.5657 -0.7644
  970TIP3    H1 2874   0.878   3.461   1.261  1.2130  0.0801 -1.2537
  970TIP3    H2 2875   0.864   3.418   1.406  2.1405  0.9172 -0.8990
  971TIP3   OH2 2876   7.048   1.298   1.944 -0.0748 -0.5053 -0.3180
  971TIP3    H1 2877   7.079   1.264   2.028  0.1500  0.5866  0.0552
  971TIP3    H2 2878   7.010   1.222   1.900  0.2038 -1.1836  0.5826
  972TIP3   OH2 2879   3.371   6.412   3.523 -0.1153  0.2398  0.4221
  972TIP3    H1 2880   3.353   6.323   3.555  1.8444 -0.2174  0.3427
  972TIP3    H2 2881   3.405   6.399   3.434  0.8986  1.0053  0.6833
  973TIP3   OH2 2882   1.434   1.609   2.400  0.5349  0.3276 -0.4833
  973TIP3    H1 2883   1.427   1.691   2.448  0.8192 -0.5164  1.0625
  973TIP3    H2 2884   1.468   1.546   2.464 -1.3689 -1.4376 -1.0889
  974TIP3   OH2 2885   5.540   6.603   4.659  0.0295 -0.1922 -0.1611
  974TIP3    H1 2886   5.527   6.669   4.727 -0.9208  0.3505 -0.8447
  974TIP3    H2 2887   5.477   6.626   4.591  1.6175 -0.1091 -1.6998
  975TIP3   OH2 2888   4.485   5.875   0.605 -0.1007 -0.4672  0.1961
  975TIP3    H1 2889   4.535   5.952   0.575  0.3681 -1.3151 -1.3178
  975TIP3    H2 2890   4.531   5.845   0.683  1.2100 -0.6414 -0.6045
  976TIP3   OH2 2891   1.744   4.469   0.212  0.2136 -0.2405 -0.5886
  976TIP3    H1 2892   1.827   4.517   0.217 -0.1671  0.5889 -1.7870
  976TIP3    H2 2893   1.754   4.411   0.137  0.4096 -1.5992  0.4381
  977TIP3   OH2 2894   6.788   1.612   1.069  0.1095  0.0310 -0.1516
  977TIP3    H1 2895   6.854   1.676   1.040 -0.1830  0.1704 -0.5201
  977TIP3    H2 2896   6.800   1.537   1.011  0.1824 -0.0857  0.0149
  978TIP3   OH2 2897   3.252   0.324   4.074 -0.0633  0.1946 -0.3413
  978TIP3    H1 2898   3.202   0.312   4.155 -0.8193  1.2393 -0.6446
  978TIP3    H2 2899   3.338   0.353   4.104  0.0619 -0.6233  0.1332
  979TIP3   OH2 2900   0.621   0.173   2.256 -0.6381 -0.2333  0.2904
  979TIP3    H1 2901   0.576   0.257   2.242  0.1433  0.2536  0.6439
  979TIP3    H2 2902   0.599   0.148   2.345 -1.3934 -0.7286 -0.0335
  980TIP3   OH2 2903   3.585   1.544   5.759  0.9626 -0.6744 -0.1554
  980TIP3    H1 2904   3.490   1.532   5.759  1.1772 -2.6616 -0.3678
  980TIP3    H2 2905   3.597   1.638   5.774 -1.0098 -0.5316  0.8621
  981TIP3   OH2 2906   5.564   6.182   0.209  0.4321  0.4771  0.0331
  981TIP3    H1 2907   5.578   6.099   0.255 -0.7749  0.4049  0.2809
  981TIP3    H2 2908   5.469   6.194   0.208  0.5373  1.3489 -0.9081
  982TIP3   OH2 2909   5.174   1.660   5.108  0.1788  0.2272 -0.2013
  982TIP3    H1 2910   5.207   1.721   5.175 -0.2101 -0.3180  0.5004
  982TIP3    H2 2911   5.112   1.604   5.155 -2.6651  1.9099 -1.6379
  983TIP3   OH2 2912   4.049   2.297   0.515 -0.3120 -0.1579 -0.8131
  983TIP3    H1 2913   4.122   2.287   0.575 -0.9555 -1.0858 -0.1595
  983TIP3    H2 2914   4.090   2.315   0.430  0.8037 -2.5624 -0.8717
  984TIP3   OH2 2915   3.733   6.583   4.437 -0.0109  0.6529  0.2693
  984TIP3    H1 2916   3.785   6.663   4.443 -0.6869  1.1418 -0.2855
  984TIP3    H2 2917   3.771   6.525   4.503 -0.4001  1.9437  1.6722
  985TIP3   OH2 2918   3.220   2.606   2.087 -0.8914  0.2969  0.5406
  985TIP3    H1 2919   3.168   2.677   2.051 -1.1950  0.8057  1.9380
  985TIP3    H2 2920   3.266   2.644   2.162 -1.1771 -0.9949  1.4117
  986TIP3   OH2 2921   6.118   4.058   4.222 -0.2548  0.2529  0.7157
  986TIP3    H1 2922   6.085   3.970   4.202  2.4089 -1.0571  1.6058
  986TIP3    H2 2923   6.134   4.056   4.317  1.7493  0.9535  0.4298
  987TIP3   OH2 2924   2.863   6.490   3.618 -0.8213 -0.0623 -0.0854
  987TIP3    H1 2925   2.786   6.529   3.660  0.0633  0.2814  1.2736
  987TIP3    H2 2926   2.883   6.414   3.672 -1.9350 -1.9227 -2.1377
  988TIP3   OH2 2927   0.259   3.408   1.613  0.1434 -0.2988 -0.4982
  988TIP3    H1 2928   0.269   3.429   1.706 -1.1887 -0.4973 -0.2818
  988TIP3    H2 2929   0.165   3.419   1.596  0.4685  0.4079 -1.9918
  989TIP3   OH2 2930   3.314   4.147   3.283  0.7665 -0.0137  0.1780
  989TIP3    H1 2931   3.230   4.122   3.245  0.4000 -0.9431  1.5338
  989TIP3    H2 2932   3.362   4.186   3.211 -0.3976 -0.5117 -0.9029
  990TIP3   OH2 2933   6.101   6.570   1.551 -0.1862  0.2861 -0.0018
  990TIP3    H1 2934   6.036   6.568   1.481 -1.5833  4.7087  0.8893
  990TIP3    H2 2935   6.075   6.497   1.608 -2.7872  0.2734 -1.0260
  991TIP3   OH2 2936   4.209   1.108   2.132 -0.0012  0.3589  0.6646
  991TIP3    H1 2937   4.262   1.073   2.060 -1.0050 -0.3367  0.2331
  991TIP3    H2 2938   4.207   1.202   2.117 -0.1921  0.2263 -0.2381
  992TIP3   OH2 2939   0.098   3.466   4.111 -0.5240 -0.0640 -0.3417
  992TIP3    H1 2940   0.110   3.377   4.142  1.8855  0.3470  0.1481
  992TIP3    H2 2941   0.187   3.495   4.089 -1.0121  2.6963  0.9066
  993TIP3   OH2 2942   4.716   3.309   1.627 -0.4664 -0.4331  0.2888
  993TIP3    H1 2943   4.718   3.403   1.609  0.4185 -0.7419 -1.4686
  993TIP3    H2 2944   4.628   3.282   1.601  0.2629 -0.5732 -2.3516
  994TIP3   OH2 2945   2.583   1.228   2.801  0.4142 -0.0307 -0.8932
  994TIP3    H1 2946   2.515   1.295   2.792  0.1382 -0.2576 -0.5274
  994TIP3    H2 2947   2.662   1.270   2.769  0.1157  0.2620 -1.2523
  995TIP3   OH2 2948   5.563   0.730   0.767  0.3758 -0.4137  0.2284
  995TIP3    H1 2949   5.512   0.655   0.797  2.1253 -1.7959 -0.1272
  995TIP3    H2 2950   5.654   0.706   0.784  0.9377  2.2087  1.3711
  996TIP3   OH2 2951   1.905   0.912   0.740  0.0408  0.0815  0.0298
  996TIP3    H1 2952   1.839   0.923   0.809  1.1988  0.9959  1.0385
  996TIP3    H2 2953   1.890   0.985   0.680 -1.0291 -0.7680 -0.7773
  997TIP3   OH2 2954   5.201   1.001   2.125 -0.1012  0.7355 -0.2920
  997TIP3    H1 2955   5.290   0.968   2.113  0.3072  1.1728  1.3262
  997TIP3    H2 2956   5.193   1.072   2.061  0.3599  0.0914 -1.0932
  998TIP3   OH2 2957   2.033   1.446   3.569 -0.5685 -0.4936  0.6385
  998TIP3    H1 2958   2.007   1.538   3.569 -0.0085 -0.3259  1.7807
  998TIP3    H2 2959   1.953   1.399   3.545 -1.5406  0.1396  2.4495
  999TIP3   OH2 2960   4.412   1.252   3.783  0.6073 -0.0041  0.3885
  999TIP3    H1 2961   4.421   1.165   3.746 -2.4198 -0.3485  0.1964
  999TIP3    H2 2962   4.362   1.301   3.717 -1.4023  0.5667  2.2420
 1000TIP3   OH2 2963   6.095   1.350   3.413  0.2472 -0.4112  0.4234
 1000TIP3    H1 2964   6.012   1.393   3.390 -0.2517 -1.2115  0.6926
 1000TIP3    H2 2965   6.126   1.313   3.330  0.9055  0.8174  0.0978
 1001TIP3   OH2 2966   5.049   6.710   2.381  0.4231  0.3856 -0.1121
 1001TIP3    H1 2967   4.960   6.744   2.371  0.1297 -0.0888  0.7258
 1001TIP3    H2 2968   5.085   6.708   2.293 -0.2035  1.0988 -0.3971
 1002TIP3   OH2 2969   6.635   2.686   5.800  0.6078 -0.0433  0.3078
 1002TIP3    H1 2970   6.624   2.620   5.732 -1.7106  0.7634 -0.1925
 1002TIP3    H2 2971   6.551   2.731   5.803  1.8858  2.4443  1.1110
 1003TIP3   OH2 2972   0.587   4.505   5.342 -0.2311  0.1054 -0.6776
 1003TIP3    H1 2973   0.529   4.536   5.411  1.9318  0.9070  0.9182
 1003TIP3    H2 2974   0.668   4.556   5.354  0.6701 -0.6318 -3.0316
 1004TIP3   OH2 2975   4.381   5.796   1.955 -0.5165  0.4463 -0.6808
 1004TIP3    H1 2976   4.350   5.706   1.946  2.0455 -0.5615 -0.0656
 1004TIP3    H2 2977   4.360   5.820   2.045  1.2048 -0.5513  0.0157
 1005TIP3   OH2 2978   4.493   3.372   4.079 -0.2483 -0.0063  0.2718
 1005TIP3    H1 2979   4.487   3.313   4.154  0.9444  2.1227  2.1685
 1005TIP3    H2 2980   4.581   3.359   4.045  0.2789  1.1616  1.1556
 1006TIP3   OH2 2981   4.928   3.329   0.323 -0.4699  0.0523  0.2275
 1006TIP3    H1 2982   4.925   3.279   0.405 -1.8836  1.0368  0.8108
 1006TIP3    H2 2983   4.878   3.408   0.341 -0.3885  0.5261 -1.4488
 1007TIP3   OH2 2984   5.505   3.180   0.770  0.0232  0.1395 -0.6981
 1007TIP3    H1 2985   5.480   3.198   0.679  2.6063  0.6876 -1.3832
 1007TIP3    H2 2986   5.555   3.098   0.765 -1.0536 -0.6229  0.4949
 1008TIP3   OH2 2987   4.073   3.767   1.898  0.1883  1.0961 -0.2808
 1008TIP3    H1 2988   4.013   3.705   1.939  1.5233  1.2330  2.0573
 1008TIP3    H2 2989   4.040   3.777   1.808 -1.6409 -0.8684  0.0989
 1009TIP3   OH2 2990   3.281   5.249   4.685  0.1231 -0.1863 -0.3633
 1009TIP3    H1 2991   3.323   5.195   4.752  0.9379  0.0451 -0.6765
 1009TIP3    H2 2992   3.351   5.267   4.621 -0.6589 -0.5031 -1.3406
 1010TIP3   OH2 2993   6.191   3.691   5.355  0.0335  0.4537 -0.2134
 1010TIP3    H1 2994   6.138   3.635   5.412 -2.2087  2.7468  0.1073
 1010TIP3    H2 2995   6.233   3.753   5.414 -2.4437  2.9602 -0.8825
 1011TIP3   OH2 2996   1.930   4.602   2.005 -0.4381 -0.0625 -0.3577
 1011TIP3    H1 2997   1.992   4.642   2.066 -1.1345 -1.2271  1.1829
 1011TIP3    H2 2998   1.983   4.577   1.929  0.8172 -0.2068  0.5382
 1012TIP3   OH2 2999   4.145   1.413   4.043  0.2416 -0.4014  0.8896
 1012TIP3    H1 3000   4.235   1.443   4.050  0.2440 -0.5633  1.6303
 1012TIP3    H2 3001   4.107   1.466   3.973  1.0769 -0.7639  0.1452
 1013TIP3   OH2 3002   0.412   0.519   0.741  0.2921  0.5010 -0.0162
 1013TIP3    H1 3003   0.486   0.552   0.792  0.3277  2.4704 -1.2476
 1013TIP3    H2 3004   0.359   0.596   0.723 -1.1354 -0.5973 -0.6631
 1014TIP3   OH2 3005   2.435   5.258   2.872 -0.0172 -0.1272 -0.1266
 1014TIP3    H1 3006   2.448   5.297   2.786  0.1907  1.4431  0.5858
 1014TIP3    H2 3007   2.390   5.175   2.854  0.1574  0.0994 -1.7448
 1015TIP3   OH2 3008   0.708   5.272   1.338  0.8539  0.4892  0.0179
 1015TIP3    H1 3009   0.614   5.286   1.352  0.5626 -0.6513 -0.6144
 1015TIP3    H2 3010   0.740   5.356   1.304 -0.1464  0.6077 -0.7093
 1016TIP3   OH2 3011   2.179   1.174   2.181 -0.5068  0.3140  0.3655
 1016TIP3    H1 3012   2.171   1.190   2.087 -0.9469  0.3383  0.4039
 1016TIP3    H2 3013   2.090   1.153   2.210 -0.3735  0.2893  0.7738
 1017TIP3   OH2 3014   3.976   1.349   2.571  0.5477  0.4114  0.4568
 1017TIP3    H1 3015   4.011   1.373   2.657  1.3418 -0.3736  0.3616
 1017TIP3    H2 3016   3.966   1.254   2.574 -2.0193  0.5981  0.6292
 1018TIP3   OH2 3017   5.326   1.859   5.227 -0.1328  0.0912 -0.2058
 1018TIP3    H1 3018   5.376   1.865   5.309  0.8643 -0.2770 -0.7816
 1018TIP3    H2 3019   5.391   1.839   5.160 -0.7932  1.2955 -1.2522
 1019TIP3   OH2 3020   1.107   4.606   2.976 -0.3996 -0.3242 -0.0746
 1019TIP3    H1 3021   1.089   4.653   2.895 -0.9957  0.7450  0.6606
 1019TIP3    H2 3022   1.188   4.645   3.009 -0.9726  0.2998  0.6124
 1020TIP3   OH2 3023   1.429   5.388   4.651  0.3549  0.1256 -0.7260
 1020TIP3    H1 3024   1.419   5.294   4.662  1.3253  0.2053  1.3556
 1020TIP3    H2 3025   1.494   5.397   4.581  0.1599 -0.7394 -1.0301
 1021TIP3   OH2 3026   5.612   5.331   3.668 -0.2470  0.4667 -0.2588
 1021TIP3    H1 3027   5.698   5.355   3.634  0.9405 -1.7236  1.0160
 1021TIP3    H2 3028   5.628   5.304   3.758 -1.8678 -2.0193 -0.6109
 1022TIP3   OH2 3029   6.000   5.040   3.622  0.1534  0.2591 -0.1954
 1022TIP3    H1 3030   6.036   4.970   3.567 -2.2608 -0.6465 -0.7524
 1022TIP3    H2 3031   5.967   5.105   3.559  2.4085  2.0181  0.3150
 1023TIP3   OH2 3032   5.264   2.371   1.214 -0.4205  0.0326 -0.3811
 1023TIP3    H1 3033   5.337   2.318   1.183 -0.6431 -1.4785  1.5369
 1023TIP3    H2 3034   5.190   2.311   1.217 -1.2457  1.0290 -0.2705
 1024TIP3   OH2 3035   5.484   0.657   2.304 -0.5071 -0.2768  0.1649
 1024TIP3    H1 3036   5.407   0.686   2.352  0.2856  0.7095  0.8873
 1024TIP3    H2 3037   5.476   0.562   2.301 -0.2459 -0.4622  2.9230
 1025TIP3   OH2 3038   6.845   5.278   1.369  0.4094  0.3700  0.0655
 1025TIP3    H1 3039   6.923   5.239   1.409  0.4793  0.1440 -0.2863
 1025TIP3    H2 3040   6.872   5.299   1.279  0.5017  1.6270  0.3705
 1026TIP3   OH2 3041   0.910   1.526   3.800 -0.2832  0.0871  0.0171
 1026TIP3    H1 3042   0.950   1.533   3.713  0.5986 -0.2920  0.3768
 1026TIP3    H2 3043   0.909   1.616   3.833  1.4298 -0.0421  0.4901
 1027TIP3   OH2 3044   4.578   0.652   5.049  0.2425 -0.0080  0.3744
 1027TIP3    H1 3045   4.643   0.586   5.027  1.1391  0.9695  0.0093
 1027TIP3    H2 3046   4.563   0.641   5.143  0.2853 -0.7964  0.2979
 1028TIP3   OH2 3047   0.165   3.627   0.973  0.0702 -0.0300 -0.4090
 1028TIP3    H1 3048   0.111   3.702   0.949  0.8469  0.1151 -1.7859
 1028TIP3    H2 3049   0.184   3.640   1.066 -0.1038  1.2941 -0.5378
 1029TIP3   OH2 3050   4.737   5.989   1.988  0.9645 -0.7911 -0.0290
 1029TIP3    H1 3051   4.779   5.913   2.028  0.0951 -0.8690  0.8008
 1029TIP3    H2 3052   4.687   5.953   1.915  0.9288 -0.9553  0.0751
 1030TIP3   OH2 3053   2.840   1.677   5.316  0.6181  0.6824 -0.0381
 1030TIP3    H1 3054   2.905   1.642   5.376  0.9667  0.2585 -0.6542
 1030TIP3    H2 3055   2.875   1.762   5.289  2.0697 -0.5020 -2.1210
 1031TIP3   OH2 3056   5.683   2.935   4.134  0.5160  0.0785  0.1387
 1031TIP3    H1 3057   5.618   2.994   4.097  1.3509  1.1289  0.3067
 1031TIP3    H2 3058   5.706   2.974   4.218 -0.6010 -1.7219  1.3732
 1032TIP3   OH2 3059   3.024   3.561   1.905 -0.3801 -0.2446 -0.0325
 1032TIP3    H1 3060   2.999   3.602   1.823 -1.7151 -1.4779 -0.2787
 1032TIP3    H2 3061   3.106   3.605   1.930 -1.2834  1.9269 -0.6919
 1033TIP3   OH2 3062   5.864   5.230   0.607 -0.6367 -0.1872  0.7379
 1033TIP3    H1 3063   5.934   5.270   0.557  0.0668 -0.4503  1.4882
 1033TIP3    H2 3064   5.828   5.301   0.660 -0.8572 -0.0817  0.4501
 1034TIP3   OH2 3065   5.877   0.089   0.246 -0.2250  0.0664  0.1372
 1034TIP3    H1 3066   5.930   0.165   0.223 -1.3356  0.5352 -0.9368
 1034TIP3    H2 3067   5.814   0.121   0.310 -2.5815  0.8442 -2.3919
 1035TIP3   OH2 3068   3.735   6.618   0.870 -0.1491 -0.0808  0.1204
 1035TIP3    H1 3069   3.800   6.591   0.935 -1.7672 -1.2805  1.3427
 1035TIP3    H2 3070   3.758   6.568   0.792  1.7128  1.2388 -0.2430
 1036TIP3   OH2 3071   4.407   5.992   1.488 -0.2152 -0.2614  0.0685
 1036TIP3    H1 3072   4.348   5.998   1.413 -1.2960 -0.7720  0.8483
 1036TIP3    H2 3073   4.430   6.083   1.507  0.5832 -0.1658 -1.2580
 1037TIP3   OH2 3074   4.597   2.616   2.347  0.0724 -0.2022 -0.0075
 1037TIP3    H1 3075   4.666   2.566   2.389  0.2500  0.1556  0.1375
 1037TIP3    H2 3076   4.578   2.687   2.409 -1.3572 -1.0547  0.5547
 1038TIP3   OH2 3077   7.164   0.780   3.880 -0.5611  0.0107  0.3235
 1038TIP3    H1 3078   7.114   0.849   3.924 -0.6443  0.3375 -0.2707
 1038TIP3    H2 3079   7.249   0.820   3.861 -0.4006 -0.2427  0.4995
 1039TIP3   OH2 3080   2.560   2.060   0.670  0.3398  0.0920  0.5068
 1039TIP3    H1 3081   2.501   1.986   0.682 -1.1802  0.9387 -1.3029
 1039TIP3    H2 3082   2.505   2.137   0.680  0.8968  0.9052 -1.9237
 1040TIP3   OH2 3083   5.650   4.177   4.938 -0.5961 -0.0779 -0.0731
 1040TIP3    H1 3084   5.662   4.108   4.874 -0.2167  0.3675 -0.4889
 1040TIP3    H2 3085   5.683   4.141   5.020  1.7336  0.3871 -0.7443
 1041TIP3   OH2 3086   6.532   0.519   1.464 -0.1107  0.3782  0.3800
 1041TIP3    H1 3087   6.601   0.556   1.518 -0.2289  0.0706  0.7513
 1041TIP3    H2 3088   6.570   0.512   1.377  1.0916 -1.7635  1.0083
 1042TIP3   OH2 3089   4.231   6.658   0.456  0.2406  0.2630  0.0546
 1042TIP3    H1 3090   4.209   6.630   0.544 -2.6650  0.1079 -0.6182
 1042TIP3    H2 3091   4.175   6.734   0.440  0.0282 -0.2532 -1.9498
 1043TIP3   OH2 3092   2.352   6.482   5.386  0.5030  0.5542 -0.2096
 1043TIP3    H1 3093   2.382   6.471   5.296  0.0414  1.0234 -0.4208
 1043TIP3    H2 3094   2.427   6.457   5.439  0.0288 -2.2075 -0.6676
 1044TIP3   OH2 3095   3.045   5.575   4.768 -0.0855 -0.0490  0.5173
 1044TIP3    H1 3096   3.066   5.657   4.723 -0.9166 -0.2981 -0.3310
 1044TIP3    H2 3097   3.131   5.535   4.786  0.3362  1.0427  1.0439
 1045TIP3   OH2 3098   5.671   2.505   2.903  0.8946  0.6739 -0.3027
 1045TIP3    H1 3099   5.629   2.545   2.827 -2.4671  0.6557  1.3576
 1045TIP3    H2 3100   5.700   2.579   2.957 -1.5907  0.9462  0.8088
 1046TIP3   OH2 3101   5.430   5.419   0.274 -0.3109 -0.7379 -0.9060
 1046TIP3    H1 3102   5.463   5.418   0.185 -2.0616  2.3584 -1.7137
 1046TIP3    H2 3103   5.341   5.384   0.268  0.2580 -2.4797  0.0514
 1047TIP3   OH2 3104   2.533   1.992   2.920 -0.2338 -0.5435  0.5203
 1047TIP3    H1 3105   2.496   2.080   2.916  0.2659 -0.2381  1.9166
 1047TIP3    H2 3106   2.482   1.941   2.857 -0.7064  0.6713 -0.1161
 1048TIP3   OH2 3107   5.045   1.657   4.275 -0.1241 -0.7366  0.0884
 1048TIP3    H1 3108   5.130   1.613   4.283  0.5144  0.1330 -1.4476
 1048TIP3    H2 3109   4.987   1.591   4.238  0.6461 -0.5675 -1.5311
 1049TIP3   OH2 3110   4.466   3.127   3.734  0.0266 -0.3402 -0.4058
 1049TIP3    H1 3111   4.462   3.032   3.717 -0.8343 -0.3983  0.0764
 1049TIP3    H2 3112   4.506   3.163   3.655  1.0728 -1.1773 -0.2956
 1050TIP3   OH2 3113   0.062   3.089   3.269 -0.2613  0.1859 -0.0495
 1050TIP3    H1 3114   0.058   3.024   3.340  1.4006  0.0626 -0.0334
 1050TIP3    H2 3115   0.143   3.137   3.285 -0.7549  1.3455 -0.8769
 1051TIP3   OH2 3116   2.382   4.276   0.103 -0.5760 -0.0917  0.2353
 1051TIP3    H1 3117   2.404   4.198   0.154  0.2500  0.1204  0.2019
 1051TIP3    H2 3118   2.421   4.349   0.152  4.2649 -0.1937 -2.8401
 1052TIP3   OH2 3119   0.355   5.427   2.286 -0.2396 -0.2598  0.4301
 1052TIP3    H1 3120   0.432   5.373   2.304 -0.4910 -0.3053  1.4163
 1052TIP3    H2 3121   0.289   5.364   2.257 -1.1379 -0.8413  3.3824
 1053TIP3   OH2 3122   2.722   5.452   4.915 -0.8463  0.4818 -0.4892
 1053TIP3    H1 3123   2.692   5.420   5.001 -0.9517  0.4819 -0.5262
 1053TIP3    H2 3124   2.786   5.520   4.936  0.2236 -0.5174 -0.3960
 1054TIP3   OH2 3125   5.427   1.908   1.194  0.4568  0.3270  0.0881
 1054TIP3    H1 3126   5.449   1.973   1.128  0.7732 -0.1385 -0.2716
 1054TIP3    H2 3127   5.435   1.824   1.149 -0.8934  0.0776  0.2842
 1055TIP3   OH2 3128   5.793   5.674   0.155 -0.1508 -0.2035 -0.3527
 1055TIP3    H1 3129   5.832   5.630   0.230 -0.8072  0.5998  0.4761
 1055TIP3    H2 3130   5.720   5.618   0.128  0.4402 -0.7864 -0.7720
 1056TIP3   OH2 3131   1.216   1.099   5.575  0.0600 -0.4197  0.1066
 1056TIP3    H1 3132   1.154   1.119   5.505 -1.0475  0.2348  1.2233
 1056TIP3    H2 3133   1.224   1.181   5.624 -0.1303 -1.1649  1.4337
 1057TIP3   OH2 3134   1.383   1.015   0.678 -0.3425 -0.0301 -0.1832
 1057TIP3    H1 3135   1.426   1.099   0.660 -0.6806 -0.2340 -2.1776
 1057TIP3    H2 3136   1.291   1.031   0.656 -0.7683 -0.4069  1.2711
 1058TIP3   OH2 3137   1.074   6.277   1.732 -0.5057 -0.5284  0.0464
 1058TIP3    H1 3138   1.081   6.287   1.637  1.5646  0.9887  0.2952
 1058TIP3    H2 3139   1.034   6.358   1.762  1.3335  0.2009  0.6655
 1059TIP3   OH2 3140   5.273   2.941   0.479 -0.5324  0.3955 -0.0802
 1059TIP3    H1 3141   5.216   2.908   0.548  0.1137 -0.7489 -0.0635
 1059TIP3    H2 3142   5.327   2.866   0.455  0.2098  1.1580 -0.8623
 1060TIP3   OH2 3143   2.870   1.485   3.805 -0.0827 -0.5955 -0.3592
 1060TIP3    H1 3144   2.952   1.467   3.851  0.7682 -0.2102 -1.6354
 1060TIP3    H2 3145   2.883   1.573   3.767 -0.3007 -1.2759 -2.1270
 1061TIP3   OH2 3146   1.535   3.770   1.320 -0.2123 -0.7096  0.1943
 1061TIP3    H1 3147   1.604   3.722   1.365 -0.2496 -1.1198 -0.1839
 1061TIP3    H2 3148   1.572   3.791   1.234  0.1661  0.7981  0.6978
 1062TIP3   OH2 3149   4.127   6.135   3.832 -0.2751  0.6657 -0.5180
 1062TIP3    H1 3150   4.094   6.175   3.752 -0.9354  0.7172 -0.2275
 1062TIP3    H2 3151   4.088   6.047   3.833  0.5294  0.2943 -0.7515
 1063TIP3   OH2 3152   0.186   3.007   2.753  0.2112 -0.2040 -0.0111
 1063TIP3    H1 3153   0.157   3.030   2.841  0.2840 -1.7976  0.4621
 1063TIP3    H2 3154   0.272   3.049   2.745  0.9805 -1.4093  1.3488
 1064TIP3   OH2 3155   2.300   6.689   1.745  0.4110 -0.1701 -0.1752
 1064TIP3    H1 3156   2.294   6.597   1.768 -0.6067 -0.2412 -0.7045
 1064TIP3    H2 3157   2.213   6.713   1.714  0.9627  0.6646 -1.1660
 1065TIP3   OH2 3158   2.299   0.807   5.168  0.7138  0.2803 -0.6452
 1065TIP3    H1 3159   2.313   0.766   5.254  0.4113  3.0432  0.8472
 1065TIP3    H2 3160   2.352   0.755   5.108  1.2365 -1.5416  1.2685
 1066TIP3   OH2 3161   3.650   6.548   2.369  0.3214 -0.2719 -0.8581
 1066TIP3    H1 3162   3.624   6.481   2.306 -2.1428  0.3491 -0.6098
 1066TIP3    H2 3163   3.598   6.529   2.447  0.7624  0.9898 -0.2223
 1067TIP3   OH2 3164   3.623   6.292   1.153 -0.3574 -0.1450  0.6115
 1067TIP3    H1 3165   3.558   6.360   1.135 -0.1088 -0.0783 -0.0711
 1067TIP3    H2 3166   3.594   6.217   1.101  0.8443  0.3302 -0.8319
 1068TIP3   OH2 3167   3.771   0.755   1.591  0.1231 -0.0394  0.3222
 1068TIP3    H1 3168   3.775   0.706   1.510 -2.2935 -0.0880  0.1696
 1068TIP3    H2 3169   3.843   0.721   1.644  1.0015 -0.8279 -1.3254
 1069TIP3   OH2 3170   1.931   5.645   1.051 -0.2938 -0.4255  0.1955
 1069TIP3    H1 3171   2.003   5.589   1.078  0.0628  0.0335  0.1894
 1069TIP3    H2 3172   1.960   5.684   0.969 -1.0229 -1.1492 -0.4398
 1070TIP3   OH2 3173   5.362   3.396   2.577 -0.3493  0.4090 -0.0780
 1070TIP3    H1 3174   5.399   3.479   2.547 -0.0037  0.6851  1.0333
 1070TIP3    H2 3175   5.286   3.422   2.629 -0.5465  0.0051 -0.1688
 1071TIP3   OH2 3176   5.081   2.745   5.400 -0.4026  0.6691 -0.0960
 1071TIP3    H1 3177   5.131   2.797   5.464 -0.8080 -0.4830  1.2171
 1071TIP3    H2 3178   5.125   2.761   5.317  0.9719  1.1992  0.6915
 1072TIP3   OH2 3179   3.747   5.351   4.513  0.2691 -0.2867  0.0310
 1072TIP3    H1 3180   3.771   5.360   4.605 -0.6233  3.2957  0.0604
 1072TIP3    H2 3181   3.802   5.414   4.467 -1.6297  0.5050 -1.3327
 1073TIP3   OH2 3182   6.904   6.442   1.074 -0.2590 -0.1582 -0.3586
 1073TIP3    H1 3183   6.907   6.517   1.013  1.3754 -0.5637 -0.8267
 1073TIP3    H2 3184   6.981   6.391   1.052 -0.7575 -1.4137  0.7169
 1074TIP3   OH2 3185   6.011   3.528   5.483 -0.0738  0.1873  0.3827
 1074TIP3    H1 3186   5.926   3.548   5.523  0.2579  0.8411  0.7736
 1074TIP3    H2 3187   6.071   3.521   5.557  0.0189 -1.3498  0.1897
 1075TIP3   OH2 3188   2.795   6.077   3.540  0.1169 -0.3903  0.5989
 1075TIP3    H1 3189   2.789   5.982   3.551 -1.2154 -0.2689  1.0814
 1075TIP3    H2 3190   2.790   6.112   3.629 -0.6072  0.1675  0.3525
 1076TIP3   OH2 3191   6.274  -0.014   5.460 -0.2889  0.3466  0.3336
 1076TIP3    H1 3192   6.321  -0.008   5.377  3.2595  1.1427  2.2441
 1076TIP3    H2 3193   6.233   0.072   5.470 -0.3643  0.4011 -0.3576
 1077TIP3   OH2 3194   6.480   1.273   0.161  0.1358 -0.3419  0.1266
 1077TIP3    H1 3195   6.486   1.178   0.176 -0.4483 -0.4877 -0.4998
 1077TIP3    H2 3196   6.407   1.302   0.216  1.1707 -0.0038  1.3703
 1078TIP3   OH2 3197   6.593   4.881   4.345 -0.3759  0.0696  0.3662
 1078TIP3    H1 3198   6.614   4.798   4.303 -1.5914 -0.2790  0.3959
 1078TIP3    H2 3199   6.672   4.933   4.336  0.2495 -0.9247 -0.0682
 1079TIP3   OH2 3200   4.222   4.919   1.775  0.3247  0.6254  0.2409
 1079TIP3    H1 3201   4.174   4.912   1.693  0.1563 -0.7828  0.4487
 1079TIP3    H2 3202   4.157   4.902   1.843  0.5803  1.2652  0.6637
 1080TIP3   OH2 3203   2.425   2.293   4.249  0.7226 -0.2001 -0.3772
 1080TIP3    H1 3204   2.406   2.321   4.338  0.7331 -2.0099  0.2446
 1080TIP3    H2 3205   2.446   2.374   4.202  1.6462  0.7115  1.4810
 1081TIP3   OH2 3206   4.201   5.635   1.163 -0.0135 -0.2920  0.1335
 1081TIP3    H1 3207   4.129   5.688   1.128  0.6513  0.5931  0.0775
 1081TIP3    H2 3208   4.255   5.615   1.087 -0.4307 -1.3431  0.1024
 1082TIP3   OH2 3209   1.097   3.326   2.270 -0.4638  0.2178 -0.3839
 1082TIP3    H1 3210   1.109   3.233   2.249  2.0579  0.0475  1.4004
 1082TIP3    H2 3211   1.120   3.372   2.189  4.0382 -0.5945  0.1700
 1083TIP3   OH2 3212   1.458   1.008   5.497  0.5919  0.3216  0.2790
 1083TIP3    H1 3213   1.456   1.068   5.422  1.1468  1.5248  1.2013
 1083TIP3    H2 3214   1.384   1.034   5.551  0.7082  0.0245  0.5850
 1084TIP3   OH2 3215   6.319   6.698   2.079  0.7032  0.0907 -0.9318
 1084TIP3    H1 3216   6.312   6.785   2.039 -0.2511 -0.2318 -1.5120
 1084TIP3    H2 3217   6.283   6.710   2.167  1.8496  0.5767 -0.5179
 1085TIP3   OH2 3218   2.133   4.031   3.456  0.1740  0.4409 -0.4066
 1085TIP3    H1 3219   2.167   3.950   3.417 -1.2100 -0.4219  0.1170
 1085TIP3    H2 3220   2.042   4.034   3.429 -0.7547 -0.0043  2.3785
 1086TIP3   OH2 3221   4.456   4.347   5.299  0.1090  0.0845 -0.2757
 1086TIP3    H1 3222   4.535   4.320   5.345 -0.4904  0.6024  1.0898
 1086TIP3    H2 3223   4.414   4.411   5.356  0.3091  2.2760 -2.4038
 1087TIP3   OH2 3224   7.099   5.226   3.331  0.5875  0.2020  0.4813
 1087TIP3    H1 3225   7.108   5.300   3.390 -1.3626  1.5929 -0.7906
 1087TIP3    H2 3226   7.025   5.176   3.366 -0.5280  0.9915 -0.6513
 1088TIP3   OH2 3227   4.026   1.615   3.423  0.5160  0.2562  0.4059
 1088TIP3    H1 3228   3.949   1.666   3.446  0.4733 -0.3953  1.8333
 1088TIP3    H2 3229   4.031   1.619   3.327  0.7730  3.2731  0.4630
 1089TIP3   OH2 3230   1.306   4.164   4.591 -0.1270 -0.1071 -0.1954
 1089TIP3    H1 3231   1.324   4.181   4.684  0.8909  1.4377 -0.6361
 1089TIP3    H2 3232   1.329   4.072   4.578  1.2170  0.0664  0.7509
 1090TIP3   OH2 3233   3.558   2.161   0.486  0.1420 -0.4431  0.1358
 1090TIP3    H1 3234   3.527   2.248   0.460 -0.9146 -1.2401 -1.4445
 1090TIP3    H2 3235   3.650   2.174   0.508 -0.1296  1.1565  0.4110
 1091TIP3   OH2 3236   5.275   2.341   0.088 -0.1305 -0.6660  0.5464
 1091TIP3    H1 3237   5.249   2.284   0.160  1.0370 -0.0268  1.5026
 1091TIP3    H2 3238   5.332   2.406   0.128  2.1352 -1.4109 -1.2606
 1092TIP3   OH2 3239   4.759   2.749   4.240 -0.3284  0.1682  0.0256
 1092TIP3    H1 3240   4.816   2.801   4.298  0.2440 -1.6580  1.1988
 1092TIP3    H2 3241   4.819   2.709   4.177 -0.6622  0.3543 -0.4109
 1093TIP3   OH2 3242   7.081   2.590   1.646  0.5527  0.0334  0.1360
 1093TIP3    H1 3243   7.054   2.590   1.738  0.7423  1.4666  0.2193
 1093TIP3    H2 3244   7.049   2.673   1.612 -1.0026 -1.2011 -1.5736
 1094TIP3   OH2 3245   1.769   4.931   4.805  0.7188  0.5847 -0.0744
 1094TIP3    H1 3246   1.733   4.901   4.889  0.1083 -0.5828 -0.7232
 1094TIP3    H2 3247   1.853   4.885   4.798  0.7039  0.5718 -0.1625
 1095TIP3   OH2 3248   0.894   3.021   1.897 -0.5699  0.0478  0.8411
 1095TIP3    H1 3249   0.852   3.102   1.926 -2.0606 -0.5811  0.5188
 1095TIP3    H2 3250   0.900   3.030   1.802 -0.8731 -0.2940  0.7920
 1096TIP3   OH2 3251   3.540   0.060   2.548  0.0260 -0.0718 -0.2920
 1096TIP3    H1 3252   3.472   0.016   2.497 -1.4946  1.1750  0.5805
 1096TIP3    H2 3253   3.492   0.116   2.609  1.8393  1.6755 -0.3570
 1097TIP3   OH2 3254   0.741   2.804   5.625  0.2384  1.0355  0.1632
 1097TIP3    H1 3255   0.837   2.800   5.616  0.1069  1.3152 -2.0023
 1097TIP3    H2 3256   0.719   2.893   5.598 -0.6334  1.0646  0.9288
 1098TIP3   OH2 3257   2.596   4.576   5.822 -0.4344 -0.0352 -0.0686
 1098TIP3    H1 3258   2.580   4.489   5.786 -0.7292 -0.9503  2.1166
 1098TIP3    H2 3259   2.660   4.563   5.892 -1.4576  1.2524  1.1859
 1099TIP3   OH2 3260   6.943   5.597   0.248  0.0966  0.5624 -0.4172
 1099TIP3    H1 3261   6.869   5.540   0.228 -2.7595  3.0881  1.9008
 1099TIP3    H2 3262   6.965   5.639   0.165 -1.2774 -0.0206 -1.1021
 1100TIP3   OH2 3263   4.750   6.534   3.690 -0.4415 -0.3585 -0.0555
 1100TIP3    H1 3264   4.747   6.630   3.686 -0.2643 -0.3182  0.6395
 1100TIP3    H2 3265   4.779   6.507   3.603 -0.4828  0.2232 -0.2525
 1101TIP3   OH2 3266   0.967   2.470   2.926 -0.1802 -0.3460  0.2939
 1101TIP3    H1 3267   1.051   2.508   2.905  0.1815 -0.9513  0.6110
 1101TIP3    H2 3268   0.913   2.486   2.849  0.3940 -0.4391 -0.1312
 1102TIP3   OH2 3269   0.134   4.858   3.981 -0.1570  0.6770  0.6305
 1102TIP3    H1 3270   0.093   4.789   4.033 -0.8256 -0.2825 -1.0584
 1102TIP3    H2 3271   0.108   4.940   4.023 -0.5697 -0.0502  1.8333
 1103TIP3   OH2 3272   7.156   1.496   0.948  0.2774 -0.6020 -0.1649
 1103TIP3    H1 3273   7.205   1.422   0.982  1.6866 -0.1912 -1.2035
 1103TIP3    H2 3274   7.105   1.460   0.875 -0.1988 -0.8273  0.2725
 1104TIP3   OH2 3275   6.867   5.247   2.019 -0.2594  0.3820  0.0559
 1104TIP3    H1 3276   6.817   5.284   2.092 -1.5395  0.4388 -0.8039
 1104TIP3    H2 3277   6.898   5.324   1.971 -0.1522  0.3449  0.0672
 1105TIP3   OH2 3278   0.622   1.165   1.432  0.0457 -0.2557  0.5191
 1105TIP3    H1 3279   0.638   1.251   1.393  0.4764 -0.1089  1.0042
 1105TIP3    H2 3280   0.584   1.185   1.518  0.5601 -0.5440  0.8161
 1106TIP3   OH2 3281   0.159   0.092   0.340 -0.0872  0.0731  0.2172
 1106TIP3    H1 3282   0.176   0.064   0.250  1.5045  0.1752  0.4683
 1106TIP3    H2 3283   0.099   0.026   0.375  0.7565 -1.0138 -0.3330
 1107TIP3   OH2 3284   1.939   6.354   3.693 -0.0353  0.7069  0.0143
 1107TIP3    H1 3285   1.885   6.320   3.765 -0.5374 -2.4388 -1.6516
 1107TIP3    H2 3286   1.879   6.408   3.641 -0.6059  0.2069  0.1398
 1108TIP3   OH2 3287   7.092   0.545   5.307 -0.2840 -0.1059 -0.1075
 1108TIP3    H1 3288   7.128   0.619   5.356  0.7956  0.0805 -1.1360
 1108TIP3    H2 3289   7.051   0.586   5.230  0.6320 -0.5866 -0.8650
 1109TIP3   OH2 3290   6.247   2.071   3.748 -0.1766 -0.7100  0.7181
 1109TIP3    H1 3291   6.182   2.007   3.778  1.1161 -1.6214  1.6707
 1109TIP3    H2 3292   6.313   2.073   3.817  0.5130  0.6595  0.0621
 1110TIP3   OH2 3293   1.469   1.577   3.101  0.1271  0.0976 -0.6720
 1110TIP3    H1 3294   1.496   1.669   3.097 -1.4635  0.5827 -1.1131
 1110TIP3    H2 3295   1.407   1.574   3.175 -0.9152 -0.2852 -1.5361
 1111TIP3   OH2 3296   6.838   6.119   5.466 -0.0252 -0.0083 -0.1993
 1111TIP3    H1 3297   6.932   6.137   5.455 -0.2275  0.7840 -0.8007
 1111TIP3    H2 3298   6.815   6.161   5.548  0.3498 -1.0940  0.4758
 1112TIP3   OH2 3299   2.935   0.310   5.711  0.3660  0.0178  0.2463
 1112TIP3    H1 3300   2.983   0.276   5.635 -0.9144 -0.6939 -0.2634
 1112TIP3    H2 3301   2.901   0.232   5.755 -1.0215  0.5363  0.1368
 1113TIP3   OH2 3302   3.305   2.756   1.640 -0.0331  0.2193 -0.6881
 1113TIP3    H1 3303   3.215   2.761   1.671  0.5601  0.7336  1.0818
 1113TIP3    H2 3304   3.302   2.695   1.567 -1.6554 -0.5537 -0.0305
 1114TIP3   OH2 3305   6.137   4.527   4.847 -0.3433 -0.3016 -0.7718
 1114TIP3    H1 3306   6.209   4.583   4.818 -0.5371 -0.3199 -1.2942
 1114TIP3    H2 3307   6.117   4.557   4.935  0.9248 -0.9002 -0.2481
 1115TIP3   OH2 3308   6.981   4.583   2.682 -0.1988 -0.0687  0.5561
 1115TIP3    H1 3309   6.890   4.562   2.700 -0.9333  1.3594 -1.2410
 1115TIP3    H2 3310   7.007   4.641   2.755 -1.7819  2.1397 -0.5105
 1116TIP3   OH2 3311   5.339   1.580   1.965  0.3667  0.6783  0.1884
 1116TIP3    H1 3312   5.307   1.629   2.041  0.6337  0.6635  0.3125
 1116TIP3    H2 3313   5.428   1.613   1.951  0.4347  0.4507  0.0804
 1117TIP3   OH2 3314   5.201   2.191   0.296  0.2313 -0.0032  0.1377
 1117TIP3    H1 3315   5.150   2.233   0.366 -0.4607  0.6052 -0.7199
 1117TIP3    H2 3316   5.176   2.099   0.301 -0.8356  0.2573 -0.1529
 1118TIP3   OH2 3317   5.086   3.674   1.723 -0.5953  0.2274 -0.8009
 1118TIP3    H1 3318   5.004   3.693   1.769  0.6253 -1.5649  2.4155
 1118TIP3    H2 3319   5.078   3.582   1.698  0.2268  0.1689 -0.8673
 1119TIP3   OH2 3320   6.830   4.652   3.738 -0.2232  0.8131  0.3707
 1119TIP3    H1 3321   6.845   4.654   3.833  1.6716 -2.1332  0.2646
 1119TIP3    H2 3322   6.825   4.558   3.717 -0.7524  1.3919 -2.4561
 1120TIP3   OH2 3323   0.344   0.820   0.301  0.0550 -0.2155  0.9844
 1120TIP3    H1 3324   0.352   0.727   0.278 -0.4117 -0.0687  0.2122
 1120TIP3    H2 3325   0.250   0.837   0.302  0.1215  0.1352  1.6096
 1121TIP3   OH2 3326   4.694   0.259   2.732  0.2092 -0.1464 -0.0172
 1121TIP3    H1 3327   4.728   0.202   2.801  1.0541  0.5867  0.1868
 1121TIP3    H2 3328   4.622   0.209   2.693  0.5550 -1.1016  0.5393
 1122TIP3   OH2 3329   1.926   1.276   1.767 -0.0244 -0.2782  0.2045
 1122TIP3    H1 3330   1.846   1.328   1.770  0.5931  0.6542  1.0895
 1122TIP3    H2 3331   1.963   1.295   1.681 -0.0964  0.3145  0.2992
 1123TIP3   OH2 3332   2.783   2.036   0.834  0.3360  0.0901  0.8035
 1123TIP3    H1 3333   2.699   2.059   0.794  0.0711 -1.6466  0.2769
 1123TIP3    H2 3334   2.759   1.986   0.912  0.8610 -0.8720  0.3661
 1124TIP3   OH2 3335   1.918   6.543   0.278 -0.1557 -0.8796  0.1354
 1124TIP3    H1 3336   1.906   6.623   0.226 -0.3712 -0.5707  0.6604
 1124TIP3    H2 3337   1.911   6.472   0.214  0.0445 -0.4797 -0.3363
 1125TIP3   OH2 3338   0.712   6.524   2.330  0.0935 -0.0108 -0.2138
 1125TIP3    H1 3339   0.624   6.542   2.298 -0.2249  1.0262  1.1871
 1125TIP3    H2 3340   0.714   6.429   2.343  0.2633 -0.5282 -3.2270
 1126TIP3   OH2 3341   0.511   2.251   0.553  0.2123 -0.1510 -0.0078
 1126TIP3    H1 3342   0.424   2.239   0.590  0.4559 -1.2997  0.2386
 1126TIP3    H2 3343   0.569   2.200   0.610  1.4813  2.6406  1.4051
 1127TIP3   OH2 3344   2.934   2.230   2.342 -0.2916  0.0715 -0.1434
 1127TIP3    H1 3345   2.962   2.162   2.280  2.2190  0.4096  0.5330
 1127TIP3    H2 3346   2.985   2.307   2.317 -0.1805  0.5736  1.5429
 1128TIP3   OH2 3347   0.934   0.773   1.254  0.1418 -0.0804 -0.0570
 1128TIP3    H1 3348   0.959   0.689   1.215 -0.8166 -0.1334 -0.5735
 1128TIP3    H2 3349   1.011   0.829   1.241  0.5277 -0.6661 -0.3287
 1129TIP3   OH2 3350   6.425   0.844   3.172 -0.7487 -0.7282  0.3056
 1129TIP3    H1 3351   6.365   0.907   3.132 -1.0389 -0.9005  0.4633
 1129TIP3    H2 3352   6.482   0.817   3.100  0.1939  0.6341  0.4993
 1130TIP3   OH2 3353   2.171   3.764   4.881  0.5056 -0.5894 -0.0723
 1130TIP3    H1 3354   2.085   3.722   4.876  0.9841 -1.7204  0.7275
 1130TIP3    H2 3355   2.162   3.845   4.831 -1.6521  0.3904  1.7556
 1131TIP3   OH2 3356   1.491   4.544   4.647 -0.3123  0.0641 -0.2542
 1131TIP3    H1 3357   1.583   4.553   4.673 -0.4341  3.1116 -0.5523
 1131TIP3    H2 3358   1.493   4.482   4.574  1.2772 -1.0367  0.6623
 1132TIP3   OH2 3359   4.693   1.358   4.571 -0.1289 -0.9136  0.3260
 1132TIP3    H1 3360   4.689   1.307   4.651 -2.3089 -0.2470  0.6964
 1132TIP3    H2 3361   4.781   1.396   4.571  0.3938 -2.0543  1.6606
 1133TIP3   OH2 3362   1.042   3.343   4.320  0.0019  0.3784 -0.3978
 1133TIP3    H1 3363   1.020   3.264   4.369 -1.7711  1.0995  0.0477
 1133TIP3    H2 3364   1.067   3.311   4.233  1.4262 -0.7849  0.3951
 1134TIP3   OH2 3365   2.837   3.260   1.282  0.0297  0.2510 -0.2513
 1134TIP3    H1 3366   2.896   3.299   1.218 -0.5838  0.7244 -0.5400
 1134TIP3    H2 3367   2.750   3.287   1.254 -0.2285  0.8254  1.0100
 1135TIP3   OH2 3368   3.708   0.723   2.434 -0.1466 -0.1375  0.5422
 1135TIP3    H1 3369   3.656   0.649   2.403 -0.0489  0.5850 -1.4439
 1135TIP3    H2 3370   3.643   0.787   2.465 -0.2175 -1.4037  3.3923
 1136TIP3   OH2 3371   4.387   4.985   5.902 -0.1020 -0.2665  0.2278
 1136TIP3    H1 3372   4.367   4.897   5.934 -1.7478 -0.0595 -0.1668
 1136TIP3    H2 3373   4.339   4.992   5.820  0.5504  0.7701 -0.0728
 1137TIP3   OH2 3374   4.138   1.530   0.678 -0.4684 -1.0218 -0.3109
 1137TIP3    H1 3375   4.125   1.623   0.663 -1.0919 -1.0473  0.0122
 1137TIP3    H2 3376   4.178   1.498   0.597  1.1373 -0.2159  0.1384
 1138TIP3   OH2 3377   3.544   4.475   2.353  0.0629  0.5763 -0.0600
 1138TIP3    H1 3378   3.563   4.568   2.342  0.1927  0.8627  2.1639
 1138TIP3    H2 3379   3.604   4.446   2.421 -0.3236 -1.0293 -0.3581
 1139TIP3   OH2 3380   2.286   2.286   1.689 -0.3459 -0.1590  0.1987
 1139TIP3    H1 3381   2.287   2.382   1.693 -0.5717 -0.1622  0.3635
 1139TIP3    H2 3382   2.375   2.262   1.666  0.2156 -0.0015  2.0841
 1140TIP3   OH2 3383   3.935   6.621   0.479  0.1311  0.7205  0.4461
 1140TIP3    H1 3384   3.921   6.716   0.470 -0.8095  0.8224  2.2584
 1140TIP3    H2 3385   3.869   6.582   0.422  0.9120  1.1465 -0.7642
 1141TIP3   OH2 3386   5.491   0.323   4.761  0.1259 -0.0724 -0.1486
 1141TIP3    H1 3387   5.445   0.240   4.770  1.2503 -0.7812 -0.6317
 1141TIP3    H2 3388   5.544   0.330   4.840 -0.3684  0.4553  0.1421
 1142TIP3   OH2 3389   6.815   3.881   5.411  0.6979  0.3423 -0.8583
 1142TIP3    H1 3390   6.776   3.926   5.485 -0.4475  2.2190 -2.5064
 1142TIP3    H2 3391   6.800   3.939   5.336  1.1476 -1.7772 -2.7201
 1143TIP3   OH2 3392   0.430   6.227   3.200  0.2662  0.1369 -0.1034
 1143TIP3    H1 3393   0.449   6.229   3.107  0.6980  1.4165 -0.0022
 1143TIP3    H2 3394   0.446   6.136   3.226 -0.8445 -0.4760 -1.4535
 1144TIP3   OH2 3395   1.683   2.119   1.291  0.0116 -0.2214 -0.2461
 1144TIP3    H1 3396   1.749   2.092   1.227  1.7022  3.2787 -0.2205
 1144TIP3    H2 3397   1.636   2.191   1.249  0.6939  1.7112  2.0205
 1145TIP3   OH2 3398   0.500   4.528   1.205 -0.2792  0.2925 -0.0952
 1145TIP3    H1 3399   0.483   4.601   1.146 -2.5260 -0.3944 -0.3879
 1145TIP3    H2 3400   0.458   4.554   1.287  1.4862  0.5656  0.7678
 1146TIP3   OH2 3401   5.822   0.536   0.705 -0.1505  0.1782 -0.2448
 1146TIP3    H1 3402   5.828   0.443   0.725  0.5264  0.4918  1.0865
 1146TIP3    H2 3403   5.913   0.562   0.688 -0.2492  0.7400  0.0838
 1147TIP3   OH2 3404   1.187   5.252   0.909  0.4760  0.2215 -0.5011
 1147TIP3    H1 3405   1.122   5.282   0.845  0.3708  2.5942  0.6145
 1147TIP3    H2 3406   1.139   5.247   0.992  1.3818  0.5446  0.0551
 1148TIP3   OH2 3407   5.794   3.335   3.963 -0.1509 -0.4288 -0.0468
 1148TIP3    H1 3408   5.729   3.339   4.034 -0.3466 -0.1438 -0.2402
 1148TIP3    H2 3409   5.874   3.369   4.001 -0.3070 -0.0904 -0.0187
 1149TIP3   OH2 3410   1.318   0.310   3.795  0.0272  0.0564  0.2380
 1149TIP3    H1 3411   1.350   0.263   3.718  0.7501 -0.0252  0.5808
 1149TIP3    H2 3412   1.278   0.242   3.850  1.7513 -0.3353  1.0932
 1150TIP3   OH2 3413   2.931   2.464   4.145 -0.6316 -0.6094 -0.1645
 1150TIP3    H1 3414   2.926   2.485   4.239 -0.3566  0.7238 -0.4224
 1150TIP3    H2 3415   2.989   2.388   4.141  0.8345  0.3900  0.6546
 1151TIP3   OH2 3416   6.545   2.108   0.578 -0.1500  0.8075 -0.2233
 1151TIP3    H1 3417   6.507   2.023   0.605  1.2322 -0.4516 -2.0256
 1151TIP3    H2 3418   6.580   2.144   0.659 -0.8579 -0.2826  0.6158
 1152TIP3   OH2 3419   7.098   0.503   5.801 -0.0486  0.1747  0.4528
 1152TIP3    H1 3420   7.086   0.465   5.714  1.1041 -1.1566  0.8478
 1152TIP3    H2 3421   7.009   0.523   5.830 -0.5114 -0.1323 -0.6952
 1153TIP3   OH2 3422   1.430   4.162   4.848  0.4625 -0.0982 -0.1774
 1153TIP3    H1 3423   1.408   4.125   4.933  1.5452 -1.4887 -0.4738
 1153TIP3    H2 3424   1.411   4.256   4.857 -1.9716 -0.5967  0.7307
 1154TIP3   OH2 3425   3.709   5.231   5.074  0.2491 -0.0208  0.5853
 1154TIP3    H1 3426   3.780   5.293   5.060 -0.2225  0.4209  0.0669
 1154TIP3    H2 3427   3.735   5.153   5.025 -0.9540  1.1827 -2.1880
 1155TIP3   OH2 3428   2.639   4.167   0.039  0.1236 -0.6102  0.1556
 1155TIP3    H1 3429   2.681   4.088   0.075 -0.0881 -0.5878  0.4497
 1155TIP3    H2 3430   2.635   4.151  -0.055  2.3079  0.0786 -0.1173
 1156TIP3   OH2 3431   6.650   2.211   1.231 -0.0579  0.4509 -0.6601
 1156TIP3    H1 3432   6.602   2.136   1.196  0.0592  0.0113  0.1011
 1156TIP3    H2 3433   6.582   2.275   1.254 -0.1174  0.9005 -2.0101
 1157TIP3   OH2 3434   4.869   1.289   2.902  0.3901  0.1455 -0.2385
 1157TIP3    H1 3435   4.806   1.335   2.847  1.4447  1.0150 -0.7726
 1157TIP3    H2 3436   4.899   1.355   2.964  0.1558 -0.4878  0.5674
 1158TIP3   OH2 3437   2.881   5.288   3.860  0.1640  1.0971  0.1073
 1158TIP3    H1 3438   2.829   5.232   3.917  1.8675  0.1371  0.8178
 1158TIP3    H2 3439   2.860   5.259   3.772 -0.5777  0.8067  0.3724
 1159TIP3   OH2 3440   3.319   6.190   3.887 -0.4381  0.0297 -0.0328
 1159TIP3    H1 3441   3.259   6.258   3.854 -0.8255  0.3402  1.2537
 1159TIP3    H2 3442   3.368   6.163   3.810 -0.5831  1.4615 -0.6716
 1160TIP3   OH2 3443   6.985   0.407   3.249 -0.4193 -0.0880  0.1015
 1160TIP3    H1 3444   6.935   0.415   3.330 -0.7901  2.2896 -0.2880
 1160TIP3    H2 3445   7.066   0.364   3.275 -1.2639 -1.0154  1.3637
 1161TIP3   OH2 3446   4.403   6.810   4.124 -0.1752  0.3502 -0.0925
 1161TIP3    H1 3447   4.313   6.776   4.121 -0.7017  1.5412  1.3908
 1161TIP3    H2 3448   4.446   6.760   4.193  0.7926 -1.2381 -1.7611
 1162TIP3   OH2 3449   4.047   4.757   1.927  0.4773 -0.1826 -0.3236
 1162TIP3    H1 3450   4.072   4.691   1.862 -0.1150 -0.4446 -0.2980
 1162TIP3    H2 3451   4.052   4.712   2.011  3.6657  0.8234  0.1552
 1163TIP3   OH2 3452   1.436   4.438   0.056  0.1127  0.3877  0.0204
 1163TIP3    H1 3453   1.368   4.493   0.019 -0.1070  0.7958  1.0126
 1163TIP3    H2 3454   1.445   4.467   0.147  0.3797 -0.8363  0.4075
 1164TIP3   OH2 3455   5.741   3.334   1.231 -0.5501 -0.0864  0.2908
 1164TIP3    H1 3456   5.747   3.334   1.135 -1.1282 -0.6424  0.2470
 1164TIP3    H2 3457   5.733   3.242   1.254 -0.7830  0.0736  0.8572
 1165TIP3   OH2 3458   1.034   6.161   1.972 -0.2483 -0.3601 -0.0587
 1165TIP3    H1 3459   0.976   6.086   1.967  0.0285 -0.5280 -1.1205
 1165TIP3    H2 3460   1.024   6.205   1.887  2.8205 -1.6744 -1.2414
 1166TIP3   OH2 3461   3.704   5.774   0.717  0.5594 -0.1312  0.0923
 1166TIP3    H1 3462   3.796   5.799   0.725  0.6429 -0.6530  1.0300
 1166TIP3    H2 3463   3.659   5.825   0.785  0.1979 -0.0491 -0.2067
 1167TIP3   OH2 3464   7.010   0.338   1.957 -0.3411 -0.0423 -0.9050
 1167TIP3    H1 3465   7.042   0.293   1.878  2.1405 -2.0620  1.1020
 1167TIP3    H2 3466   7.088   0.372   1.999 -1.3497 -0.7392  1.6969
 1168TIP3   OH2 3467   4.231   0.515   3.112 -0.5289 -0.0577 -0.0887
 1168TIP3    H1 3468   4.140   0.493   3.093 -0.5470  0.1676 -0.2662
 1168TIP3    H2 3469   4.274   0.430   3.122 -1.1155 -0.1866  1.7221
 1169TIP3   OH2 3470   2.580   1.509   3.434  0.1516  0.1031 -0.2817
 1169TIP3    H1 3471   2.563   1.432   3.488  1.5572  0.0227  0.0731
 1169TIP3    H2 3472   2.559   1.480   3.345 -0.0792 -0.4460 -0.0533
 1170TIP3   OH2 3473   6.443   0.449   0.205 -0.8588  0.3900  0.1578
 1170TIP3    H1 3474   6.423   0.476   0.294 -2.1457  0.2898 -0.0797
 1170TIP3    H2 3475   6.536   0.428   0.206 -1.3646 -2.2338  2.1845
 1171TIP3   OH2 3476   2.266   0.312   4.568 -0.2977 -0.2726  0.2124
 1171TIP3    H1 3477   2.321   0.308   4.646  1.2281  0.4382 -0.7817
 1171TIP3    H2 3478   2.220   0.396   4.575  0.6505  0.2890 -0.1561
 1172TIP3   OH2 3479   3.355   4.900   4.482  0.0505 -0.9417  0.1393
 1172TIP3    H1 3480   3.434   4.858   4.446  0.4677 -0.7696  0.8454
 1172TIP3    H2 3481   3.320   4.836   4.544  0.4183 -0.4518  0.8596
 1173TIP3   OH2 3482   7.114   0.043   4.150 -0.0942 -0.0125 -0.4235
 1173TIP3    H1 3483   7.166   0.010   4.224 -0.9874  2.5898  1.5385
 1173TIP3    H2 3484   7.078  -0.035   4.109  0.7574 -1.6084  1.6823
 1174TIP3   OH2 3485   2.977   2.586   0.513 -0.7836  0.1444  0.3273
 1174TIP3    H1 3486   2.946   2.514   0.458  1.7238 -0.5706 -0.3093
 1174TIP3    H2 3487   2.899   2.618   0.558 -2.1680 -2.2512 -0.2104
 1175TIP3   OH2 3488   5.156   1.862   3.169  0.2663  0.4834 -0.9899
 1175TIP3    H1 3489   5.211   1.832   3.242  0.1937 -0.2165 -1.2181
 1175TIP3    H2 3490   5.111   1.940   3.203  0.7500  0.5621 -0.5170
 1176TIP3   OH2 3491   3.369   4.021   4.497  0.1297 -0.3249  0.2108
 1176TIP3    H1 3492   3.293   4.069   4.465 -0.0705 -1.8732 -1.8355
 1176TIP3    H2 3493   3.337   3.932   4.512  1.8691 -1.5620 -2.6809
 1177TIP3   OH2 3494   1.170   2.876   1.551 -0.4123 -0.3315  0.4516
 1177TIP3    H1 3495   1.235   2.809   1.570 -0.8561 -0.6044  1.0367
 1177TIP3    H2 3496   1.218   2.944   1.503 -0.1685 -1.4992 -1.0393
 1178TIP3   OH2 3497   0.350   2.292   2.569 -0.2219  0.6944 -0.2138
 1178TIP3    H1 3498   0.445   2.303   2.571  0.1246 -1.7910  0.0244
 1178TIP3    H2 3499   0.326   2.275   2.661 -0.3881 -1.7834 -0.6472
 1179TIP3   OH2 3500   0.568   2.460   0.212 -0.5989  0.0113 -0.1090
 1179TIP3    H1 3501   0.601   2.465   0.301 -1.2431  2.4761  0.0646
 1179TIP3    H2 3502   0.548   2.367   0.199  0.2654 -0.5314  1.9938
 1180TIP3   OH2 3503   6.945   5.270   2.817 -0.6935  0.6681 -0.7391
 1180TIP3    H1 3504   7.004   5.204   2.780  0.1232  0.7845  0.2967
 1180TIP3    H2 3505   6.911   5.318   2.742 -0.9669 -0.6601 -1.4726
 1181TIP3   OH2 3506   0.383   3.509   1.392 -0.6859 -0.1173  0.0701
 1181TIP3    H1 3507   0.361   3.459   1.471 -0.5707 -0.0518  0.1438
 1181TIP3    H2 3508   0.299   3.520   1.347 -0.7373 -0.2348  0.1361
 1182TIP3   OH2 3509   0.317   3.211   3.284 -0.1558 -0.1676  0.1410
 1182TIP3    H1 3510   0.357   3.234   3.368  1.2362  1.2774 -0.8641
 1182TIP3    H2 3511   0.315   3.292   3.234  0.6386 -1.2775 -1.8436
 1183TIP3   OH2 3512   6.443   2.578   1.595  0.2061  0.3268  0.2319
 1183TIP3    H1 3513   6.502   2.576   1.671  0.5526  2.0835  0.0390
 1183TIP3    H2 3514   6.414   2.487   1.585  1.6916 -0.2966  1.2660
 1184TIP3   OH2 3515   4.787   0.522   4.936 -0.5694 -0.0041  0.0277
 1184TIP3    H1 3516   4.815   0.432   4.919  1.3076  0.8965 -2.2731
 1184TIP3    H2 3517   4.852   0.558   4.995 -3.0293 -0.9251  3.6118
 1185TIP3   OH2 3518   6.328   1.652   0.771 -0.5358  0.7666  0.1852
 1185TIP3    H1 3519   6.321   1.588   0.701 -1.1325  0.8646  0.1476
 1185TIP3    H2 3520   6.391   1.717   0.739  0.1729  0.1342  0.2812
 1186TIP3   OH2 3521   4.572   5.195   0.544 -0.4870 -0.2045  0.4796
 1186TIP3    H1 3522   4.664   5.185   0.520 -0.1678 -0.0622  1.6172
 1186TIP3    H2 3523   4.567   5.280   0.587 -0.7609 -1.0298  2.1616
 1187TIP3   OH2 3524   6.062   3.148   3.934  0.0786  0.4997 -0.4008
 1187TIP3    H1 3525   6.092   3.071   3.983 -0.1508 -0.8073 -2.2447
 1187TIP3    H2 3526   5.969   3.155   3.954  0.0804  0.2436 -0.3079
 1188TIP3   OH2 3527   3.324   2.577   1.429  0.2713  0.5986  0.2104
 1188TIP3    H1 3528   3.255   2.512   1.420  0.4888  0.3180  0.5315
 1188TIP3    H2 3529   3.404   2.526   1.439  0.6645  0.9180 -1.0915
 1189TIP3   OH2 3530   5.733   4.911   2.673  0.3989 -0.2652 -0.0585
 1189TIP3    H1 3531   5.680   4.970   2.620  1.7335  0.2170 -0.9139
 1189TIP3    H2 3532   5.670   4.862   2.725 -0.8684  0.2533 -1.0567
 1190TIP3   OH2 3533   3.528   6.520   3.776  0.3838 -0.4614  0.0538
 1190TIP3    H1 3534   3.446   6.483   3.742  0.2438 -0.3399  0.2595
 1190TIP3    H2 3535   3.567   6.564   3.701 -1.1850  2.0866  0.6029
 1191TIP3   OH2 3536   5.029   4.478   5.259 -0.1815 -0.0300 -0.6095
 1191TIP3    H1 3537   4.936   4.468   5.238 -0.5198 -1.1127  1.1475
 1191TIP3    H2 3538   5.073   4.476   5.175 -1.8294  2.1152 -1.6295
 1192TIP3   OH2 3539   1.545   4.088   1.877 -0.0015 -0.1699 -0.4745
 1192TIP3    H1 3540   1.511   4.049   1.796  0.6220 -0.0016 -0.8225
 1192TIP3    H2 3541   1.502   4.173   1.882  1.3289  0.6190 -1.6229
 1193TIP3   OH2 3542   0.688   0.872   2.796  0.0812  0.1705  0.1717
 1193TIP3    H1 3543   0.727   0.803   2.849  0.9885  0.6109  0.1044
 1193TIP3    H2 3544   0.716   0.853   2.706 -2.6418 -1.4158 -0.4767
 1194TIP3   OH2 3545   1.344   4.573   2.299  0.0985  0.5076 -0.0859
 1194TIP3    H1 3546   1.283   4.548   2.369 -0.8656 -0.0696 -1.1000
 1194TIP3    H2 3547   1.385   4.653   2.331 -2.0502  1.5839  0.1645
 1195TIP3   OH2 3548   5.001   4.234   0.753  0.4953 -0.7313  0.5358
 1195TIP3    H1 3549   5.064   4.300   0.722 -0.1948  0.4658  1.5739
 1195TIP3    H2 3550   4.915   4.272   0.733  0.0524 -0.5194  2.6382
 1196TIP3   OH2 3551   0.304   3.321   5.531 -0.1086 -0.3482  0.3792
 1196TIP3    H1 3552   0.219   3.324   5.575 -0.4601 -0.5923 -0.2770
 1196TIP3    H2 3553   0.344   3.239   5.561 -0.9249 -1.2013 -0.7988
 1197TIP3   OH2 3554   6.289   2.719   2.456 -0.0421 -0.1726  0.4327
 1197TIP3    H1 3555   6.255   2.636   2.424 -0.9489  0.1009  0.6653
 1197TIP3    H2 3556   6.378   2.724   2.420 -0.2121 -0.9347 -0.1084
 1198TIP3   OH2 3557   1.157   2.048   5.636  0.0369 -0.3036  0.0672
 1198TIP3    H1 3558   1.251   2.035   5.643  0.2189  0.5558 -0.5670
 1198TIP3    H2 3559   1.124   2.033   5.724  0.6861 -1.1840  0.1704
 1199TIP3   OH2 3560   4.723   3.342   0.091 -0.1183  0.1773  0.4718
 1199TIP3    H1 3561   4.688   3.314   0.007 -0.1979 -0.4090  0.6945
 1199TIP3    H2 3562   4.760   3.263   0.129 -0.4736  0.3426  1.1819
 1200TIP3   OH2 3563   0.261   5.063   0.386  0.3488 -0.4009  0.6312
 1200TIP3    H1 3564   0.299   5.048   0.473 -2.0977 -1.7272  1.5718
 1200TIP3    H2 3565   0.273   4.979   0.341  3.1307  0.7719 -1.0528
 1201TIP3   OH2 3566   4.411   6.423   4.218 -0.2140  0.1174 -0.2691
 1201TIP3    H1 3567   4.367   6.464   4.293  3.0215  0.4459  1.5968
 1201TIP3    H2 3568   4.388   6.479   4.144 -0.5435  1.9784  1.1605
 1202TIP3   OH2 3569   1.985   2.981   2.159 -0.2963 -0.0063  0.4924
 1202TIP3    H1 3570   2.040   2.971   2.236 -0.8862 -0.5638  0.8581
 1202TIP3    H2 3571   2.044   2.968   2.085  0.0992 -0.3683  0.8682
 1203TIP3   OH2 3572   0.070   0.529   4.185 -0.0909  0.4450 -0.3928
 1203TIP3    H1 3573   0.105   0.577   4.110 -1.6561 -0.9566 -2.1014
 1203TIP3    H2 3574   0.116   0.445   4.184 -1.2182 -0.1735 -0.7225
 1204TIP3   OH2 3575   3.940   2.256   4.422  0.2217 -0.0275  0.5795
 1204TIP3    H1 3576   3.988   2.321   4.372 -2.5706  0.0071 -2.4246
 1204TIP3    H2 3577   3.868   2.304   4.462 -1.5207 -0.9857 -1.1746
 1205TIP3   OH2 3578   5.521   4.677   3.901 -0.8341 -0.3250 -0.1400
 1205TIP3    H1 3579   5.442   4.666   3.953 -1.4961  0.1772 -1.0118
 1205TIP3    H2 3580   5.550   4.588   3.881 -1.9732 -0.5332 -0.9797
 1206TIP3   OH2 3581   0.580   1.600   2.103 -0.6781  0.5731 -0.0619
 1206TIP3    H1 3582   0.635   1.650   2.042  0.4781 -1.5315 -0.8267
 1206TIP3    H2 3583   0.616   1.620   2.190  0.2430  0.4811 -0.4202
 1207TIP3   OH2 3584   1.764   6.441   5.235  0.4309 -0.0679  0.5255
 1207TIP3    H1 3585   1.802   6.516   5.189  0.1514 -1.1177 -1.5130
 1207TIP3    H2 3586   1.670   6.449   5.221  0.3703 -0.6264  0.5792
 1208TIP3   OH2 3587   2.432   0.357   0.343 -0.0809  0.3184 -0.4807
 1208TIP3    H1 3588   2.462   0.363   0.252 -1.6275  0.1176 -1.0407
 1208TIP3    H2 3589   2.393   0.443   0.360 -2.6848 -0.6484 -1.1374
 1209TIP3   OH2 3590   4.236   0.561   5.095  0.4495 -0.3085  0.1018
 1209TIP3    H1 3591   4.215   0.635   5.152 -0.2247 -0.0514 -0.4759
 1209TIP3    H2 3592   4.253   0.489   5.156 -2.4597 -0.6480  0.6483
 1210TIP3   OH2 3593   2.224   5.817   5.244 -0.2501  0.3467 -0.6487
 1210TIP3    H1 3594   2.283   5.879   5.287 -0.2333 -1.0954  1.5024
 1210TIP3    H2 3595   2.279   5.774   5.178  0.9360 -0.3770  0.7553
 1211TIP3   OH2 3596   1.320   6.094   0.781  0.0510 -0.0872 -0.6365
 1211TIP3    H1 3597   1.335   6.087   0.876  2.0511  1.2867 -0.7758
 1211TIP3    H2 3598   1.268   6.173   0.770  0.9805  0.5264 -0.7385
 1212TIP3   OH2 3599   3.153   1.917   1.519  0.0699  0.0150  0.1522
 1212TIP3    H1 3600   3.093   1.885   1.586 -0.8024 -0.4146 -0.7950
 1212TIP3    H2 3601   3.187   1.838   1.477 -0.1329  0.2721 -0.5221
 1213TIP3   OH2 3602   1.830   5.992   2.571 -0.2511 -0.2013 -0.5536
 1213TIP3    H1 3603   1.835   5.927   2.641  0.2901  0.1128 -0.2926
 1213TIP3    H2 3604   1.811   6.074   2.616  3.0228  0.5981 -0.3754
 1214TIP3   OH2 3605   6.610   4.474   2.503  0.6131  0.1204  0.1280
 1214TIP3    H1 3606   6.541   4.485   2.570  1.6537  0.7723  1.1407
 1214TIP3    H2 3607   6.565   4.437   2.428 -0.4208 -1.6846  1.5558
 1215TIP3   OH2 3608   0.320   6.624   4.840  0.2798  0.1934  0.3085
 1215TIP3    H1 3609   0.321   6.551   4.778  1.3398 -0.5823  1.1734
 1215TIP3    H2 3610   0.387   6.684   4.808 -0.5006  0.7329 -0.3317
 1216TIP3   OH2 3611   5.340   4.761   1.548 -0.2256 -0.2763 -0.0651
 1216TIP3    H1 3612   5.328   4.671   1.577  1.0456 -0.6510 -0.6218
 1216TIP3    H2 3613   5.435   4.770   1.537 -0.2903  1.2646  0.4004
 1217TIP3   OH2 3614   2.551   0.656   5.721 -0.7782  0.0826 -0.1209
 1217TIP3    H1 3615   2.526   0.606   5.798 -1.9047 -1.1850 -1.2524
 1217TIP3    H2 3616   2.612   0.599   5.674  0.4620  1.1287  0.1271
 1218TIP3   OH2 3617   0.322   2.180   3.281 -0.1766  0.4209  0.5341
 1218TIP3    H1 3618   0.257   2.124   3.322 -0.1194 -0.7774 -0.9312
 1218TIP3    H2 3619   0.334   2.144   3.193 -1.2357  3.5772 -1.0665
 1219TIP3   OH2 3620   5.190   0.515   0.041  0.3685 -0.4981 -0.7791
 1219TIP3    H1 3621   5.105   0.524  -0.002  0.6606 -1.7543 -1.6722
 1219TIP3    H2 3622   5.175   0.454   0.113 -0.1021  1.5426  0.9435
 1220TIP3   OH2 3623   4.026   4.437   2.792  0.1976 -0.7267 -0.3548
 1220TIP3    H1 3624   4.066   4.463   2.709  0.5805  1.0797  0.3523
 1220TIP3    H2 3625   3.980   4.515   2.822  1.7447 -0.6407  2.0984
 1221TIP3   OH2 3626   3.393   3.028   0.135  0.0984 -0.4347  0.2641
 1221TIP3    H1 3627   3.413   2.953   0.078  1.1029 -0.6795  0.9103
 1221TIP3    H2 3628   3.340   2.990   0.206  0.1493 -0.4320  0.3038
 1222TIP3   OH2 3629   6.554   2.406   0.251  0.0565 -0.3139 -0.7007
 1222TIP3    H1 3630   6.585   2.460   0.179 -0.0029 -0.3910 -0.7842
 1222TIP3    H2 3631   6.505   2.335   0.209 -0.1506 -0.2464 -0.5749
 1223TIP3   OH2 3632   3.777   3.796   1.305 -0.0242 -0.4127 -0.8484
 1223TIP3    H1 3633   3.852   3.747   1.269  1.0775  0.2446  0.4696
 1223TIP3    H2 3634   3.801   3.888   1.294 -1.1423 -0.1737 -1.3936
 1224TIP3   OH2 3635   5.061   2.414   0.753  0.2254 -0.2005 -0.0811
 1224TIP3    H1 3636   4.996   2.482   0.768 -0.3631 -1.0253  1.3000
 1224TIP3    H2 3637   5.134   2.459   0.709 -0.4262  1.1504  0.1834
 1225TIP3   OH2 3638   6.261   6.293   5.489  0.2869  0.7500 -0.8456
 1225TIP3    H1 3639   6.175   6.258   5.464  0.3658 -0.4716  0.4675
 1225TIP3    H2 3640   6.324   6.240   5.441  0.3520  0.5540 -0.5443
 1226TIP3   OH2 3641   6.678   6.409   4.188 -0.2968  0.2649  0.3263
 1226TIP3    H1 3642   6.731   6.349   4.241 -1.3093 -0.9993 -0.0253
 1226TIP3    H2 3643   6.625   6.457   4.251 -1.4388 -1.1731  0.5375
 1227TIP3   OH2 3644   4.434   6.000   2.683  0.0793 -0.1143  0.4450
 1227TIP3    H1 3645   4.487   5.947   2.624  0.6512  0.2337  0.6391
 1227TIP3    H2 3646   4.345   5.991   2.650  0.3156 -0.3910 -0.1233
 1228TIP3   OH2 3647   1.628   0.927   2.712  0.2288 -0.0579  0.0202
 1228TIP3    H1 3648   1.707   0.980   2.701  0.5039 -0.3516  0.5342
 1228TIP3    H2 3649   1.566   0.986   2.754  0.1695  0.1715 -0.3775
 1229TIP3   OH2 3650   6.880   5.390   5.858  0.1600  0.8768  0.3021
 1229TIP3    H1 3651   6.823   5.347   5.923 -2.1202  0.4964 -1.8028
 1229TIP3    H2 3652   6.956   5.331   5.851 -0.3612  0.0310  1.3595
 1230TIP3   OH2 3653   7.219   5.414   3.871 -0.3468 -0.7371  0.0453
 1230TIP3    H1 3654   7.252   5.360   3.943  1.3518  0.4487  0.2193
 1230TIP3    H2 3655   7.146   5.462   3.908 -0.9640 -1.8327  0.2927
 1231TIP3   OH2 3656   1.320   4.290   2.301  0.3331  0.0074  0.0838
 1231TIP3    H1 3657   1.288   4.232   2.232  0.3689 -1.2317  1.0854
 1231TIP3    H2 3658   1.332   4.375   2.257 -0.9293 -0.3981 -1.1175
 1232TIP3   OH2 3659   6.045   0.091   1.867  0.1123 -0.0462 -0.5397
 1232TIP3    H1 3660   6.056   0.186   1.870 -0.5382  0.0649 -1.2540
 1232TIP3    H2 3661   6.128   0.059   1.832  0.1243  0.3205 -0.8634
 1233TIP3   OH2 3662   3.037   3.001   4.632 -0.0961  0.3359 -0.3693
 1233TIP3    H1 3663   3.124   3.040   4.627 -0.5044  1.5411  1.0888
 1233TIP3    H2 3664   3.027   2.977   4.724 -1.0995 -0.2941 -0.6293
 1234TIP3   OH2 3665   1.495   2.493   0.128  0.7951  0.2432  0.2025
 1234TIP3    H1 3666   1.557   2.545   0.077 -0.1046  0.8587 -0.2908
 1234TIP3    H2 3667   1.522   2.505   0.219  0.6560  1.5301  0.0866
 1235TIP3   OH2 3668   1.495   3.798   5.378  0.0570  0.0539 -0.5044
 1235TIP3    H1 3669   1.517   3.706   5.390  1.0048  0.0099 -2.2285
 1235TIP3    H2 3670   1.579   3.843   5.373 -0.3907  1.1214  0.8184
 1236TIP3   OH2 3671   2.196   3.643   4.200 -0.2978 -0.0060 -0.7005
 1236TIP3    H1 3672   2.157   3.619   4.284  1.9332  1.5110  0.9122
 1236TIP3    H2 3673   2.284   3.606   4.203 -0.6315 -1.1774 -3.0845
 1237TIP3   OH2 3674   0.436   4.133   1.826  0.7370 -0.1538 -0.1292
 1237TIP3    H1 3675   0.354   4.094   1.799  0.2266 -0.5178  1.7998
 1237TIP3    H2 3676   0.449   4.206   1.766 -2.0819  1.2273  0.7750
 1238TIP3   OH2 3677   4.417   6.237   3.058 -0.4833  0.2344  0.1336
 1238TIP3    H1 3678   4.362   6.307   3.023 -0.8384 -0.4035 -0.6079
 1238TIP3    H2 3679   4.357   6.181   3.106 -0.1860  0.4667  0.7951
 1239TIP3   OH2 3680   7.199   1.207   0.795  0.0879 -0.0239  0.1226
 1239TIP3    H1 3681   7.280   1.173   0.757  0.5583 -0.3219  1.3363
 1239TIP3    H2 3682   7.166   1.269   0.731  2.2135  1.4482  0.3581
 1240TIP3   OH2 3683   3.791   5.550   5.574  0.4744  0.0058 -0.0685
 1240TIP3    H1 3684   3.765   5.463   5.605  0.6905  0.0788  0.3273
 1240TIP3    H2 3685   3.799   5.540   5.480 -2.9936  0.4836 -0.5148
 1241TIP3   OH2 3686   4.832   4.829   0.978  0.3636  0.2344  0.4726
 1241TIP3    H1 3687   4.870   4.769   1.042  0.0421  0.4661  0.8840
 1241TIP3    H2 3688   4.740   4.836   1.004 -0.4652 -1.7164 -1.5162
 1242TIP3   OH2 3689   2.790   3.733   3.583  0.0683  0.0547  0.1725
 1242TIP3    H1 3690   2.729   3.774   3.521  0.8687  1.1645  0.0796
 1242TIP3    H2 3691   2.738   3.716   3.661 -0.6060  0.0137 -0.2846
 1243TIP3   OH2 3692   4.902   3.320   2.346  0.1671  0.0564 -0.0631
 1243TIP3    H1 3693   4.839   3.383   2.380  0.0498 -0.5193  0.7936
 1243TIP3    H2 3694   4.911   3.344   2.253  0.1974  1.3859  0.2608
 1244TIP3   OH2 3695   2.321   2.506   4.855 -0.3366 -0.4298 -0.4994
 1244TIP3    H1 3696   2.410   2.525   4.827 -0.1923  0.3469  0.4406
 1244TIP3    H2 3697   2.331   2.459   4.938 -0.7944 -0.7863 -0.6409
 1245TIP3   OH2 3698   6.647   6.345   2.506 -0.1677  0.7014  0.1220
 1245TIP3    H1 3699   6.658   6.337   2.600 -1.3263  1.9422  0.3820
 1245TIP3    H2 3700   6.679   6.262   2.471 -0.7228 -0.1993  1.6835
 1246TIP3   OH2 3701   0.797   4.808   4.471 -0.5487  0.2683  0.1541
 1246TIP3    H1 3702   0.820   4.792   4.563 -0.8645  1.6872  0.5132
 1246TIP3    H2 3703   0.858   4.754   4.421  0.9902  0.9985  1.1600
 1247TIP3   OH2 3704   7.088   3.270   1.165  0.3781 -0.3858  0.3609
 1247TIP3    H1 3705   7.069   3.351   1.118  0.1901 -0.3314  0.5312
 1247TIP3    H2 3706   7.003   3.229   1.177  0.4565 -0.5314  0.4149
 1248TIP3   OH2 3707   4.552   4.871   4.028  0.3826 -0.2571 -0.1246
 1248TIP3    H1 3708   4.517   4.813   4.096 -2.7911  0.0925 -1.2725
 1248TIP3    H2 3709   4.602   4.937   4.076 -0.1839 -1.0789  1.6775
 1249TIP3   OH2 3710   1.314   5.908   0.133 -0.2981  0.6424  0.3517
 1249TIP3    H1 3711   1.402   5.885   0.103 -0.6272  1.1167 -1.0291
 1249TIP3    H2 3712   1.261   5.910   0.054 -1.7524 -0.4045  1.2535
 1250TIP3   OH2 3713   4.101   5.347   4.567  0.3293 -0.4644 -0.4839
 1250TIP3    H1 3714   4.045   5.333   4.644  0.1770 -0.4589 -0.5920
 1250TIP3    H2 3715   4.079   5.436   4.538  1.2049 -0.0366  0.1283
 1251TIP3   OH2 3716   3.277   3.724   2.378 -0.6423 -0.3713 -0.0301
 1251TIP3    H1 3717   3.358   3.716   2.328 -0.1711 -0.3561  0.7148
 1251TIP3    H2 3718   3.220   3.777   2.323 -0.6277 -1.4868 -1.1348
 1252TIP3   OH2 3719   1.718   5.423   2.867 -0.0998 -0.2942  0.2737
 1252TIP3    H1 3720   1.768   5.449   2.789 -0.5052  0.8800  0.3801
 1252TIP3    H2 3721   1.669   5.346   2.839 -0.0709 -0.0137 -0.5763
 1253TIP3   OH2 3722   5.369   1.059   4.934  0.2753  0.2405  0.1163
 1253TIP3    H1 3723   5.319   1.101   4.865 -0.1663  0.4701  0.5690
 1253TIP3    H2 3724   5.331   0.971   4.940  0.7473 -0.0058 -0.3673
 1254TIP3   OH2 3725   1.932   1.365   2.559 -0.3278 -0.0645  0.1896
 1254TIP3    H1 3726   1.853   1.359   2.612 -0.4005 -0.7013  0.0110
 1254TIP3    H2 3727   2.002   1.384   2.621 -0.3168 -1.3703  0.5975
 1255TIP3   OH2 3728   6.738   6.503   5.374 -0.4631  0.0093 -0.5665
 1255TIP3    H1 3729   6.756   6.475   5.464  0.2624 -1.4689 -1.1440
 1255TIP3    H2 3730   6.768   6.594   5.372  0.0014 -0.0954  0.5455
 1256TIP3   OH2 3731   4.948   4.985   1.887 -0.8640 -0.0545 -0.9096
 1256TIP3    H1 3732   5.005   4.907   1.883 -1.6501 -0.6940  0.0350
 1256TIP3    H2 3733   5.007   5.056   1.910 -0.6115 -0.9547  1.5476
 1257TIP3   OH2 3734   6.781   2.756   0.457  0.3970 -0.0896 -0.3199
 1257TIP3    H1 3735   6.746   2.687   0.514  0.5915 -0.4298 -0.6053
 1257TIP3    H2 3736   6.785   2.833   0.512  0.2429 -0.3277  0.0275
 1258TIP3   OH2 3737   4.526   0.577   1.396 -0.4963  0.5623  0.3364
 1258TIP3    H1 3738   4.486   0.556   1.312  2.0814 -1.9434 -0.4452
 1258TIP3    H2 3739   4.462   0.545   1.461 -1.0376 -0.6883 -0.7597
 1259TIP3   OH2 3740   4.385   5.859   4.403  0.5436 -0.2229  0.2620
 1259TIP3    H1 3741   4.294   5.889   4.409  0.8847  1.2524 -1.1880
 1259TIP3    H2 3742   4.412   5.845   4.494 -1.2188 -1.0382  0.6958
 1260TIP3   OH2 3743   2.141   4.146   3.694 -0.3694  0.0286  0.0993
 1260TIP3    H1 3744   2.150   4.105   3.608  1.6021  0.2891  0.1357
 1260TIP3    H2 3745   2.081   4.089   3.741 -1.3698 -0.1966 -1.3886
 1261TIP3   OH2 3746   2.658   5.120   4.743  0.1432 -0.3087 -0.6220
 1261TIP3    H1 3747   2.614   5.204   4.729  1.5384  0.2892 -1.6045
 1261TIP3    H2 3748   2.647   5.103   4.836 -0.9827  0.4898 -0.5836
 1262TIP3   OH2 3749   5.541   2.510   1.615  0.2188  0.6319 -0.4869
 1262TIP3    H1 3750   5.554   2.480   1.525  0.0684 -0.4907 -0.1409
 1262TIP3    H2 3751   5.534   2.606   1.607  1.8889  0.7131 -1.4620
 1263TIP3   OH2 3752   3.062   3.125   0.600 -0.4937  0.0906 -0.0879
 1263TIP3    H1 3753   3.069   3.180   0.679  1.0972  1.9149 -1.4023
 1263TIP3    H2 3754   2.985   3.071   0.616  0.3054 -0.3231  3.1234
 1264TIP3   OH2 3755   2.558   1.061   1.512  0.3183  0.0519 -0.1224
 1264TIP3    H1 3756   2.618   0.993   1.541  0.2601  0.4621  0.9936
 1264TIP3    H2 3757   2.614   1.129   1.474  0.4739 -0.0207 -0.0219
 1265TIP3   OH2 3758   6.949   1.684   4.873 -0.2173  0.3566 -0.0495
 1265TIP3    H1 3759   6.993   1.654   4.793 -0.8243 -2.0176  0.4284
 1265TIP3    H2 3760   6.856   1.684   4.851 -0.4907 -1.4588  0.9435
 1266TIP3   OH2 3761   0.721   0.677   5.543  0.1006 -0.4853  0.3089
 1266TIP3    H1 3762   0.667   0.728   5.483  0.5236 -0.1756  0.1908
 1266TIP3    H2 3763   0.720   0.726   5.625 -0.1064 -0.6762  0.4226
 1267TIP3   OH2 3764   6.831   0.227   4.953 -0.3019 -0.3232  0.2566
 1267TIP3    H1 3765   6.802   0.158   4.893 -1.3241  1.2713 -1.2036
 1267TIP3    H2 3766   6.926   0.231   4.942 -0.6053  1.2343 -2.8971
 1268TIP3   OH2 3767   6.608   0.887   4.440  0.3361  0.4084  0.0453
 1268TIP3    H1 3768   6.523   0.907   4.400  0.4078  0.2684 -0.1793
 1268TIP3    H2 3769   6.671   0.926   4.380  0.4321  0.5012  0.2060
 1269TIP3   OH2 3770   2.753   1.578   4.109 -0.0180  0.0479 -0.0972
 1269TIP3    H1 3771   2.832   1.538   4.073  0.1545  0.4296 -0.1493
 1269TIP3    H2 3772   2.683   1.552   4.049 -0.1011 -1.0400  0.4349
 1270TIP3   OH2 3773   0.980   5.761   3.480  0.1456 -0.5962  0.0317
 1270TIP3    H1 3774   0.903   5.813   3.456  0.2523 -0.1287  0.6699
 1270TIP3    H2 3775   1.043   5.825   3.513  0.4065 -1.0950  0.5233
 1271TIP3   OH2 3776   3.685   3.588   5.129 -0.0298 -0.1689  0.6757
 1271TIP3    H1 3777   3.738   3.510   5.114  2.0975  1.7108 -2.6987
 1271TIP3    H2 3778   3.609   3.578   5.071 -0.1283 -0.0412  0.7788
 1272TIP3   OH2 3779   3.564   0.471   4.310 -0.2555 -0.1312 -0.9234
 1272TIP3    H1 3780   3.638   0.466   4.370 -0.2313  0.4037 -0.9016
 1272TIP3    H2 3781   3.544   0.380   4.289  0.4924 -0.2777 -1.0347
 1273TIP3   OH2 3782   3.528   4.903   3.110 -0.0226 -0.2295  0.2761
 1273TIP3    H1 3783   3.477   4.823   3.125  0.4795 -0.3373  1.5252
 1273TIP3    H2 3784   3.613   4.885   3.151  0.1244  0.9012  0.4897
 1274TIP3   OH2 3785   3.028   0.499   2.864  0.1618 -0.1373 -0.2579
 1274TIP3    H1 3786   3.063   0.413   2.885  2.6791  0.7105 -0.5834
 1274TIP3    H2 3787   3.027   0.546   2.948 -0.8401 -0.3588 -0.1432
 1275TIP3   OH2 3788   5.367   2.419   4.172  0.0846  0.5912  0.4183
 1275TIP3    H1 3789   5.441   2.367   4.203 -1.2649 -0.5466  1.9780
 1275TIP3    H2 3790   5.403   2.505   4.154  1.7865  0.0639  1.1157
 1276TIP3   OH2 3791   2.225   3.686   2.660  0.0651  0.2178  0.0855
 1276TIP3    H1 3792   2.263   3.758   2.610 -0.2508 -0.4177 -1.1211
 1276TIP3    H2 3793   2.255   3.700   2.749  1.0657  1.1251 -0.3671
 1277TIP3   OH2 3794   6.828   6.639   2.532 -0.3834 -0.2005  0.6926
 1277TIP3    H1 3795   6.876   6.557   2.537 -0.0027 -0.0062  0.3680
 1277TIP3    H2 3796   6.819   6.656   2.438 -0.8764 -0.1108  0.7538
 1278TIP3   OH2 3797   5.780   5.126   1.363  0.3119 -0.3893 -0.2743
 1278TIP3    H1 3798   5.796   5.032   1.364  3.2974  0.0009  1.2723
 1278TIP3    H2 3799   5.764   5.149   1.454  4.2438  1.0700  0.2564
 1279TIP3   OH2 3800   0.017   1.855   4.972  0.5543 -0.2475 -0.4283
 1279TIP3    H1 3801   0.097   1.822   4.933  1.7707  1.3554  0.5655
 1279TIP3    H2 3802  -0.015   1.921   4.911  1.8318  1.4418  0.6449
 1280TIP3   OH2 3803   1.871   0.630   3.884 -0.2943 -0.2327  0.8682
 1280TIP3    H1 3804   1.950   0.605   3.931 -0.5531 -1.5770  0.6430
 1280TIP3    H2 3805   1.903   0.679   3.808  0.1941  0.8061  1.7273
 1281TIP3   OH2 3806   1.222   4.746   1.168  0.1408 -0.0811 -0.1247
 1281TIP3    H1 3807   1.128   4.740   1.152 -0.1766 -0.4254  1.6682
 1281TIP3    H2 3808   1.256   4.790   1.090 -1.3894 -0.5424 -1.1220
 1282TIP3   OH2 3809   4.384   2.582   4.231  0.1464 -0.6463 -0.1155
 1282TIP3    H1 3810   4.369   2.611   4.141  0.9603 -1.1079 -0.4129
 1282TIP3    H2 3811   4.412   2.491   4.223  0.0902 -0.7374  0.6158
 1283TIP3   OH2 3812   0.052   3.961   2.523 -0.4779  0.1750  0.4040
 1283TIP3    H1 3813   0.036   3.914   2.605  0.1648 -1.2688 -0.2613
 1283TIP3    H2 3814   0.095   4.042   2.550 -1.5560  0.3959  1.5808
 1284TIP3   OH2 3815   5.871   5.366   1.960  0.2825 -0.2830  0.2148
 1284TIP3    H1 3816   5.901   5.276   1.970  2.3916  0.4246  0.8148
 1284TIP3    H2 3817   5.832   5.388   2.044  2.1804  0.1373  1.0541
 1285TIP3   OH2 3818   4.034   5.280   2.858  0.7473  0.1576  0.5034
 1285TIP3    H1 3819   4.025   5.364   2.814  0.8925  0.0380  0.2468
 1285TIP3    H2 3820   4.126   5.276   2.884  1.3373 -0.9254 -1.5297
 1286TIP3   OH2 3821   3.178   1.537   3.545  0.1724 -0.1131  0.3938
 1286TIP3    H1 3822   3.197   1.552   3.452 -3.2993  0.8652 -0.3088
 1286TIP3    H2 3823   3.116   1.606   3.568  0.2531 -0.8641  3.2493
 1287TIP3   OH2 3824   7.112   0.226   4.389  0.2411  0.0089  0.2626
 1287TIP3    H1 3825   7.077   0.207   4.302 -0.3211 -0.9994  0.6933
 1287TIP3    H2 3826   7.068   0.164   4.447  0.6875  0.5967  1.2540
 1288TIP3   OH2 3827   0.884   1.998   2.191 -0.4019  1.0597  0.7147
 1288TIP3    H1 3828   0.795   1.991   2.157 -0.4694 -0.2531  1.1029
 1288TIP3    H2 3829   0.929   2.056   2.130 -1.0200  0.2298 -0.5603
 1289TIP3   OH2 3830   0.748   2.552   2.450 -0.2900  0.3877  0.3482
 1289TIP3    H1 3831   0.827   2.564   2.398  1.0546 -2.4807  1.4829
 1289TIP3    H2 3832   0.775   2.569   2.540 -1.1603  0.1269  0.6671
 1290TIP3   OH2 3833   7.110   6.461   3.562 -0.1332 -0.3135  0.0118
 1290TIP3    H1 3834   7.183   6.490   3.508  0.3130 -0.0587  0.7441
 1290TIP3    H2 3835   7.138   6.377   3.598 -0.2445 -0.2727  0.1988
 1291TIP3   OH2 3836   2.544   5.623   2.334  0.0673  0.8799  0.0758
 1291TIP3    H1 3837   2.525   5.715   2.317 -2.0401  0.3657 -0.7324
 1291TIP3    H2 3838   2.463   5.577   2.308 -0.0546 -0.9044  3.1842
 1292TIP3   OH2 3839   2.442   3.895   3.095 -0.3065 -0.2672  0.4336
 1292TIP3    H1 3840   2.381   3.928   3.029  1.1516 -0.9245 -1.3218
 1292TIP3    H2 3841   2.508   3.964   3.102 -0.6957  0.0067  1.6040
 1293TIP3   OH2 3842   4.908   3.310   4.470 -0.9370 -0.1195 -0.7405
 1293TIP3    H1 3843   4.867   3.298   4.556  1.0774 -0.0046  0.2761
 1293TIP3    H2 3844   4.920   3.405   4.462  1.3504 -0.2890  0.1017
 1294TIP3   OH2 3845   2.226   1.413   0.106  0.1995 -0.4408  0.0439
 1294TIP3    H1 3846   2.170   1.454   0.040  0.4098 -0.3692 -0.0909
 1294TIP3    H2 3847   2.235   1.480   0.174  0.0858 -0.4687  0.0869
 1295TIP3   OH2 3848   4.307   3.221   1.196  0.1055  0.0051  0.6800
 1295TIP3    H1 3849   4.248   3.153   1.227 -0.8213 -0.2619 -1.4607
 1295TIP3    H2 3850   4.252   3.276   1.139  1.5764  0.6072 -0.2172
 1296TIP3   OH2 3851   6.149   4.507   1.926  0.0665  0.4473 -0.2659
 1296TIP3    H1 3852   6.168   4.472   1.839  1.1981 -0.6388  0.3833
 1296TIP3    H2 3853   6.109   4.433   1.972 -0.2053  0.9084  0.2377
 1297TIP3   OH2 3854   5.809   0.190   4.136 -0.0801  0.1898  0.1169
 1297TIP3    H1 3855   5.820   0.279   4.170  1.1281 -0.1571  0.6963
 1297TIP3    H2 3856   5.885   0.177   4.079  0.0572 -0.6562  0.4789
 1298TIP3   OH2 3857   1.897   5.162   2.345 -0.1172  0.3188 -0.1253
 1298TIP3    H1 3858   1.945   5.103   2.404 -1.4676  0.0262  0.7136
 1298TIP3    H2 3859   1.852   5.222   2.404 -1.8083 -0.2116 -0.8271
 1299TIP3   OH2 3860   6.915  -0.027   3.479  0.1121 -0.0853  0.1677
 1299TIP3    H1 3861   6.823  -0.032   3.503  0.5164 -1.2702  1.6175
 1299TIP3    H2 3862   6.932   0.067   3.469 -1.7079  0.0835 -2.2095
 1300TIP3   OH2 3863   3.388   6.785   0.698 -0.2353 -0.5228  0.1204
 1300TIP3    H1 3864   3.397   6.737   0.780 -0.6362  0.4041  0.7244
 1300TIP3    H2 3865   3.432   6.730   0.633 -2.4488 -2.7361  0.3447
 1301TIP3   OH2 3866   2.169   1.081   3.383  0.4079 -0.2277  0.0693
 1301TIP3    H1 3867   2.130   1.097   3.298 -1.1472  1.1235  0.9731
 1301TIP3    H2 3868   2.097   1.097   3.445  1.4750 -1.2183  1.6233
 1302TIP3   OH2 3869   5.876   6.389   4.854  0.0465  0.0894 -0.1050
 1302TIP3    H1 3870   5.972   6.397   4.859  0.0059  0.2595  0.5462
 1302TIP3    H2 3871   5.851   6.352   4.939 -0.7202  2.7123  0.9059
 1303TIP3   OH2 3872   3.771   6.085   0.057 -1.1336 -0.7183 -0.2278
 1303TIP3    H1 3873   3.753   5.993   0.077  1.3887 -1.1702  0.3491
 1303TIP3    H2 3874   3.709   6.134   0.112 -0.9698 -2.0733  1.2416
 1304TIP3   OH2 3875   6.477   6.029   2.256 -0.3098  0.5262  0.1429
 1304TIP3    H1 3876   6.511   6.104   2.207  1.0344 -0.5616 -0.6515
 1304TIP3    H2 3877   6.383   6.046   2.264  0.1019  2.7851  0.8858
 1305TIP3   OH2 3878   3.240   0.955   3.756 -0.2497  0.5349 -0.4472
 1305TIP3    H1 3879   3.284   0.870   3.766 -1.4036 -0.0971 -0.6438
 1305TIP3    H2 3880   3.294   1.002   3.693  0.2646 -0.1485 -0.5337
 1306TIP3   OH2 3881   0.822   2.596   1.513  0.3582 -0.0540 -0.0408
 1306TIP3    H1 3882   0.736   2.558   1.526 -0.1172  0.9950 -0.0690
 1306TIP3    H2 3883   0.877   2.555   1.580  0.1334 -1.5882 -0.7507
 1307TIP3   OH2 3884   1.265   3.852   0.079 -0.2990 -0.1598  0.4093
 1307TIP3    H1 3885   1.202   3.896   0.136 -0.5962  0.6470 -0.5094
 1307TIP3    H2 3886   1.226   3.766   0.062 -0.9448  0.1708  0.1974
 1308TIP3   OH2 3887   2.465   2.579   4.140 -0.5251  0.1300 -0.0365
 1308TIP3    H1 3888   2.505   2.632   4.070 -0.5081 -0.0489 -0.1638
 1308TIP3    H2 3889   2.386   2.626   4.163  0.0933  0.8420  0.6789
 1309TIP3   OH2 3890   2.653   0.346   3.085 -0.2393  0.0926  0.5181
 1309TIP3    H1 3891   2.687   0.382   3.003  1.3383  0.0918  1.1420
 1309TIP3    H2 3892   2.657   0.419   3.147  0.1553 -0.3499  1.0216
 1310TIP3   OH2 3893   6.922   4.095   0.045 -0.3174 -0.3384 -0.3511
 1310TIP3    H1 3894   6.931   4.189   0.027  0.6205 -0.5380 -1.0082
 1310TIP3    H2 3895   7.007   4.058   0.020 -0.6193 -1.3393  0.0696
 1311TIP3   OH2 3896   2.212   0.303   3.122 -0.2867 -0.2763 -0.2038
 1311TIP3    H1 3897   2.126   0.345   3.117 -1.3372 -2.2799  0.0213
 1311TIP3    H2 3898   2.214   0.261   3.208  0.8666 -0.4059 -0.2699
 1312TIP3   OH2 3899   2.476   0.453   1.114  0.5302 -0.6184 -0.1076
 1312TIP3    H1 3900   2.545   0.426   1.175  1.9001  0.4906 -1.1160
 1312TIP3    H2 3901   2.433   0.527   1.156 -0.7888 -1.9446  0.9897
 1313TIP3   OH2 3902   5.486   2.615   2.700  0.0351  0.1184  0.0900
 1313TIP3    H1 3903   5.407   2.670   2.697  0.7479  1.1469 -1.7431
 1313TIP3    H2 3904   5.462   2.536   2.652  0.2067  0.6388 -0.9037
 1314TIP3   OH2 3905   6.678   3.270   3.004  0.4042  0.2318  0.0930
 1314TIP3    H1 3906   6.587   3.262   3.034  0.3111 -0.0437 -0.2519
 1314TIP3    H2 3907   6.727   3.208   3.057 -0.0327 -1.4855 -1.4224
 1315TIP3   OH2 3908   5.845   6.077   4.830 -0.0346  0.3194 -0.4512
 1315TIP3    H1 3909   5.858   5.982   4.834  0.8651  0.4169 -0.8541
 1315TIP3    H2 3910   5.933   6.113   4.816 -0.0321  1.3623  1.7116
 1316TIP3   OH2 3911   3.797   0.527   3.650 -0.6187 -0.0522  0.5090
 1316TIP3    H1 3912   3.809   0.598   3.587  0.7290  1.0316  1.9092
 1316TIP3    H2 3913   3.713   0.488   3.626 -0.8449  1.2640 -1.0152
 1317TIP3   OH2 3914   1.627   3.438   1.219  0.2697  0.2830 -0.3448
 1317TIP3    H1 3915   1.591   3.455   1.305 -1.0977 -2.1099 -0.3577
 1317TIP3    H2 3916   1.690   3.509   1.205 -1.1846  2.0710  1.5721
 1318TIP3   OH2 3917   3.484   1.517   1.943 -0.1092 -0.4620  0.1897
 1318TIP3    H1 3918   3.435   1.558   2.014  0.0449 -0.6588  0.4132
 1318TIP3    H2 3919   3.422   1.455   1.904 -0.0385 -0.7233  0.4831
 1319TIP3   OH2 3920   6.156   0.871   4.064 -0.9700 -0.3818 -0.6195
 1319TIP3    H1 3921   6.132   0.943   4.006 -1.4734  0.5355  0.6847
 1319TIP3    H2 3922   6.091   0.874   4.135  1.0068  0.0745  1.2717
 1320TIP3   OH2 3923   3.750   5.716   2.948 -0.0948 -0.6432  0.0313
 1320TIP3    H1 3924   3.843   5.727   2.930  0.1057 -1.2580  0.6334
 1320TIP3    H2 3925   3.710   5.798   2.920  0.7464 -0.0292  0.5744
 1321TIP3   OH2 3926   1.653   5.028   3.564 -0.0536 -0.1155  0.1271
 1321TIP3    H1 3927   1.657   4.933   3.575  2.3002  0.0419  1.1752
 1321TIP3    H2 3928   1.579   5.055   3.618  0.5825 -1.1735  1.6041
 1322TIP3   OH2 3929   3.794   2.443   4.613 -0.0349  0.5315  0.2016
 1322TIP3    H1 3930   3.881   2.460   4.649  0.5113  0.1281 -0.8770
 1322TIP3    H2 3931   3.740   2.515   4.645  0.9167  1.2837  0.1590
 1323TIP3   OH2 3932   0.558   3.386   0.852 -0.1380 -0.0191  0.1826
 1323TIP3    H1 3933   0.600   3.402   0.936  0.8137  0.6369 -0.3988
 1323TIP3    H2 3934   0.583   3.461   0.798  0.6951 -1.2579 -1.2227
 1324TIP3   OH2 3935   3.558   2.911   2.649  0.0199 -0.4565  0.3347
 1324TIP3    H1 3936   3.525   2.981   2.705 -0.1792 -0.1535 -0.1545
 1324TIP3    H2 3937   3.652   2.907   2.668 -0.0828 -0.5134  0.8539
 1325TIP3   OH2 3938   6.763   2.927   1.671 -0.1776  0.4603 -0.5384
 1325TIP3    H1 3939   6.854   2.908   1.648 -0.4828  0.5891 -1.8908
 1325TIP3    H2 3940   6.713   2.904   1.593 -1.1142  2.0565 -0.4423
 1326TIP3   OH2 3941   6.800   2.090   2.261 -0.4662 -0.5412 -0.0226
 1326TIP3    H1 3942   6.792   2.122   2.172 -1.7792  0.1987  0.3218
 1326TIP3    H2 3943   6.750   2.008   2.262 -1.2612 -0.0731  0.2231
 1327TIP3   OH2 3944   1.564   4.010   3.525 -0.2524 -0.4207  0.2577
 1327TIP3    H1 3945   1.502   4.032   3.455  0.9457 -0.2956 -0.8130
 1327TIP3    H2 3946   1.561   4.085   3.585 -0.0722  0.2724 -0.5750
 1328TIP3   OH2 3947   5.240   4.920   4.195 -0.7607 -0.0410  0.1706
 1328TIP3    H1 3948   5.305   4.859   4.160 -0.6142 -0.3828  1.0118
 1328TIP3    H2 3949   5.282   4.958   4.273 -1.9760 -1.1304  1.4035
 1329TIP3   OH2 3950   2.865   2.304   0.208  0.2648  0.5847 -0.1038
 1329TIP3    H1 3951   2.858   2.289   0.114  1.1554  0.1130 -0.1075
 1329TIP3    H2 3952   2.814   2.233   0.247 -0.7881  1.2495 -0.2298
 1330TIP3   OH2 3953   5.519   4.369   3.025  0.1117 -0.8685 -0.0836
 1330TIP3    H1 3954   5.500   4.342   2.935  0.4191  0.1858 -0.4797
 1330TIP3    H2 3955   5.491   4.460   3.028 -2.0583 -1.4879  1.5578
 1331TIP3   OH2 3956   0.632   1.657   2.599  0.4042  0.4775 -0.3297
 1331TIP3    H1 3957   0.691   1.726   2.630  0.3113  0.1325  0.6350
 1331TIP3    H2 3958   0.641   1.586   2.662 -1.5429  0.6765  0.2399
 1332TIP3   OH2 3959   1.413   5.912   3.839  0.0632  0.0812  1.1298
 1332TIP3    H1 3960   1.358   5.845   3.880 -0.9517 -1.1923 -1.9993
 1332TIP3    H2 3961   1.462   5.865   3.772  0.5267  2.1859 -0.1213
 1333TIP3   OH2 3962   5.307   3.206   2.866  0.6441 -0.1788 -0.5394
 1333TIP3    H1 3963   5.317   3.300   2.854  0.9484  0.2199  2.1644
 1333TIP3    H2 3964   5.394   3.175   2.892 -0.2258 -0.4221  2.4866
 1334TIP3   OH2 3965   7.035   5.895   4.472 -0.6310 -0.0137  0.6002
 1334TIP3    H1 3966   7.105   5.884   4.407 -0.8179  2.3458 -0.0853
 1334TIP3    H2 3967   6.963   5.841   4.438  0.2632 -1.1184  0.4142
 1335TIP3   OH2 3968   2.001   4.496   5.002 -0.3041  0.0092 -0.2923
 1335TIP3    H1 3969   2.014   4.560   5.072 -0.3029 -0.4714  0.1491
 1335TIP3    H2 3970   2.086   4.492   4.957 -0.2888  0.2753 -0.2914
 1336TIP3   OH2 3971   0.106   4.136   2.256  0.4096  0.1298  0.2180
 1336TIP3    H1 3972   0.198   4.137   2.228  0.0176  0.9546 -1.1067
 1336TIP3    H2 3973   0.064   4.072   2.199 -0.1542  0.9609 -0.3295
 1337TIP3   OH2 3974   6.295   3.589   1.314  0.2323 -0.2926 -0.7115
 1337TIP3    H1 3975   6.232   3.642   1.265  0.5491  0.8924  0.1105
 1337TIP3    H2 3976   6.275   3.608   1.406  1.9573  0.3320 -0.4384
 1338TIP3   OH2 3977   6.038   2.076   2.535  0.3603  0.4984  0.0739
 1338TIP3    H1 3978   6.064   2.112   2.620 -1.0423  1.4337  0.1356
 1338TIP3    H2 3979   6.114   2.090   2.479  0.9328  0.7887  0.9027
 1339TIP3   OH2 3980   4.813   1.671   0.971 -0.4915 -0.2421 -0.0735
 1339TIP3    H1 3981   4.763   1.643   1.048 -0.0358  1.5696  0.9290
 1339TIP3    H2 3982   4.904   1.656   0.994 -0.3593  0.1826 -0.3040
 1340TIP3   OH2 3983   3.425   1.618   3.923  0.5898 -0.1294 -0.4268
 1340TIP3    H1 3984   3.479   1.552   3.967  1.3491  1.1405  0.6596
 1340TIP3    H2 3985   3.358   1.640   3.988  0.5787  0.4195 -0.6222
 1341TIP3   OH2 3986   6.585   0.186   4.006 -0.1829 -0.5472 -0.0761
 1341TIP3    H1 3987   6.643   0.250   3.966 -0.7566 -0.1441 -0.2753
 1341TIP3    H2 3988   6.640   0.109   4.022  0.6863  0.2361  0.8219
 1342TIP3   OH2 3989   4.061   6.070   5.414 -0.1650  0.2081  0.3779
 1342TIP3    H1 3990   4.012   6.104   5.339  0.0893 -0.5503 -0.1440
 1342TIP3    H2 3991   4.033   6.125   5.487 -0.8910  0.5602 -0.1455
 1343TIP3   OH2 3992   3.373   6.265   0.000  0.1665  0.2957  0.3703
 1343TIP3    H1 3993   3.444   6.210  -0.030 -0.3428 -0.9201  1.3114
 1343TIP3    H2 3994   3.394   6.284   0.092 -0.7506 -0.1511  0.6829
 1344TIP3   OH2 3995   7.061   1.781   3.171 -0.3706  0.3078 -0.7584
 1344TIP3    H1 3996   6.979   1.803   3.127 -0.5393  0.6201 -0.2884
 1344TIP3    H2 3997   7.129   1.807   3.108 -0.6110  0.7261 -0.8483
 1345TIP3   OH2 3998   2.745   1.723   4.555  0.1151 -0.1986  0.1201
 1345TIP3    H1 3999   2.778   1.634   4.549  0.1750 -0.1898  0.3018
 1345TIP3    H2 4000   2.668   1.716   4.612  1.2064  0.1519  1.6832
 1346TIP3   OH2 4001   6.925   5.064   3.471  0.1216 -0.0771  0.3487
 1346TIP3    H1 4002   6.832   5.054   3.450 -0.0831 -0.2710  1.2915
 1346TIP3    H2 4003   6.953   4.975   3.495  0.5404 -0.0139  0.0936
 1347TIP3   OH2 4004   6.335   6.630   0.243 -0.4080  0.4626  0.5500
 1347TIP3    H1 4005   6.288   6.707   0.213  1.0576  1.4622  0.6876
 1347TIP3    H2 4006   6.268   6.573   0.282 -2.2024 -0.2627 -3.1789
 1348TIP3   OH2 4007   3.171   5.571   0.957  0.6108 -0.0469 -0.4200
 1348TIP3    H1 4008   3.090   5.533   0.989  1.2137 -0.4984  0.6077
 1348TIP3    H2 4009   3.159   5.576   0.862  0.5973 -3.0427 -0.6539
 1349TIP3   OH2 4010   2.121   3.542   1.442 -0.2694 -0.2155  0.2289
 1349TIP3    H1 4011   2.124   3.635   1.467 -2.4844 -0.3754  1.2526
 1349TIP3    H2 4012   2.073   3.541   1.359 -0.6070 -0.4697  0.4246
 1350TIP3   OH2 4013   1.385   4.681   3.697 -0.5307  0.2121 -0.0053
 1350TIP3    H1 4014   1.441   4.620   3.745  1.1498 -0.0654 -2.1620
 1350TIP3    H2 4015   1.352   4.741   3.764 -0.1404 -1.4702  1.7942
 1351TIP3   OH2 4016   4.111   3.141   2.301 -0.2200 -0.0851  0.1679
 1351TIP3    H1 4017   4.190   3.166   2.254 -0.8534 -1.1275 -1.5236
 1351TIP3    H2 4018   4.079   3.222   2.340  1.6319  0.3641  0.8690
 1352TIP3   OH2 4019   1.625   0.297   4.375  0.0339  0.3564  0.0226
 1352TIP3    H1 4020   1.617   0.338   4.289 -3.1885 -0.3348 -0.1053
 1352TIP3    H2 4021   1.589   0.361   4.436  2.5175  0.9487  1.0304
 1353TIP3   OH2 4022   4.102   6.208   4.972 -0.2838 -0.0964  0.4006
 1353TIP3    H1 4023   4.124   6.285   4.920 -1.3378 -0.9058 -1.3155
 1353TIP3    H2 4024   4.090   6.137   4.908 -1.2577 -1.2304  1.7530
 1354TIP3   OH2 4025   5.426   4.889   5.271 -0.9311 -0.2732 -0.4143
 1354TIP3    H1 4026   5.363   4.866   5.203  0.7331  0.5212 -2.2963
 1354TIP3    H2 4027   5.407   4.981   5.292 -0.8609 -0.2561 -0.4273
 1355TIP3   OH2 4028   5.634   4.729   1.540  0.3044  0.4098  0.1242
 1355TIP3    H1 4029   5.650   4.634   1.539 -0.9122  0.1898 -1.2813
 1355TIP3    H2 4030   5.698   4.763   1.603  0.1320 -1.4448  1.3878
 1356TIP3   OH2 4031   0.657   4.279   4.564  0.0756 -0.0300  0.4208
 1356TIP3    H1 4032   0.574   4.269   4.612  0.0031  0.6001  0.4320
 1356TIP3    H2 4033   0.709   4.204   4.591  0.9293  1.4574  3.2915
 1357TIP3   OH2 4034   5.290   3.196   4.363  0.7648  0.1022 -0.3054
 1357TIP3    H1 4035   5.292   3.258   4.290 -0.2680 -0.3114 -0.7020
 1357TIP3    H2 4036   5.382   3.184   4.387  1.1685 -0.1951 -1.9034
 1358TIP3   OH2 4037   6.630   4.734   1.959  0.3207  0.5939 -0.2998
 1358TIP3    H1 4038   6.600   4.682   1.885  2.1260 -1.4745  0.3247
 1358TIP3    H2 4039   6.725   4.723   1.960  0.3761  0.7135  2.1876
 1359TIP3   OH2 4040   2.233   4.741   0.129  0.7569  0.2634  0.1872
 1359TIP3    H1 4041   2.228   4.835   0.115  1.2789  0.3267  0.3746
 1359TIP3    H2 4042   2.264   4.706   0.045  1.5110  0.3746  0.4042
 1360TIP3   OH2 4043   5.292   3.393   5.293 -0.1146  0.2807 -0.1551
 1360TIP3    H1 4044   5.323   3.461   5.353  0.2464  1.3387 -1.4725
 1360TIP3    H2 4045   5.373   3.355   5.257 -0.3194  0.0264 -0.3431
 1361TIP3   OH2 4046   2.635   4.457  -0.024 -0.0948  0.0905 -0.1746
 1361TIP3    H1 4047   2.721   4.455   0.019 -0.8948  1.3845  1.6319
 1361TIP3    H2 4048   2.582   4.396   0.026 -0.7679  0.8549  0.0735
 1362TIP3   OH2 4049   0.083   2.174   0.768  0.4923 -0.1735  0.7808
 1362TIP3    H1 4050   0.136   2.228   0.710 -1.3782  0.2532 -0.6228
 1362TIP3    H2 4051   0.104   2.084   0.744 -0.0034 -0.0007 -0.3536
 1363TIP3   OH2 4052   3.501   0.431   1.246 -0.1193 -0.1864  0.3725
 1363TIP3    H1 4053   3.417   0.385   1.245  0.1161 -0.6208 -0.5675
 1363TIP3    H2 4054   3.562   0.370   1.206  0.6269  0.1713  0.9469
 1364TIP3   OH2 4055   1.275   3.786   1.622 -0.0766 -0.3745 -0.2569
 1364TIP3    H1 4056   1.265   3.724   1.550 -0.6567 -2.3303  1.4267
 1364TIP3    H2 4057   1.186   3.806   1.649  0.1362 -1.4171  1.3176
 1365TIP3   OH2 4058   2.716   0.685   2.026 -0.3119 -0.0299  0.2623
 1365TIP3    H1 4059   2.711   0.755   2.092 -0.6783  1.4641 -1.2922
 1365TIP3    H2 4060   2.625   0.655   2.017 -1.0047  2.3866 -2.1792
 1366TIP3   OH2 4061   5.355   4.333   5.086 -0.0435  0.0710 -0.3413
 1366TIP3    H1 4062   5.394   4.304   5.003 -0.3122  0.8962 -0.7709
 1366TIP3    H2 4063   5.263   4.349   5.064 -0.0724  0.4805  0.0695
 1367TIP3   OH2 4064   4.366   6.153   0.448 -0.5856  0.0121 -0.3331
 1367TIP3    H1 4065   4.329   6.155   0.359 -0.7865  0.4441 -0.2423
 1367TIP3    H2 4066   4.458   6.180   0.436 -1.0629  1.8599 -0.2029
 1368TIP3   OH2 4067   0.466   4.092   1.370  0.4627  0.2801  0.4911
 1368TIP3    H1 4068   0.513   4.088   1.287 -0.5012 -0.2201 -0.0366
 1368TIP3    H2 4069   0.495   4.014   1.417  0.4459  0.1732  0.3238
 1369TIP3   OH2 4070   2.084   0.796   3.056 -0.3502 -0.1834  0.3362
 1369TIP3    H1 4071   2.054   0.809   3.146 -1.5216  0.7320 -0.1554
 1369TIP3    H2 4072   2.168   0.841   3.052 -1.5452  2.2431  0.2981
 1370TIP3   OH2 4073   5.872   3.850   1.681  0.0207 -0.2325 -0.0217
 1370TIP3    H1 4074   5.917   3.775   1.720 -2.1614 -1.6564 -0.1035
 1370TIP3    H2 4075   5.850   3.822   1.592  1.5650  1.5801 -1.0633
 1371TIP3   OH2 4076   1.875   0.028   4.187 -0.4280  0.0284  0.3567
 1371TIP3    H1 4077   1.886   0.123   4.188  2.3342 -0.2054 -0.3307
 1371TIP3    H2 4078   1.942  -0.003   4.127 -0.6179 -2.4373  1.3060
 1372TIP3   OH2 4079   0.751   5.168   1.915  0.6402  0.2605  0.2914
 1372TIP3    H1 4080   0.692   5.141   1.986  0.3806  0.4610  0.1526
 1372TIP3    H2 4081   0.695   5.217   1.855  0.6982 -0.5689 -0.4501
 1373TIP3   OH2 4082   6.393   1.228   0.558 -0.3475  0.2860 -0.0342
 1373TIP3    H1 4083   6.425   1.150   0.602  0.0649  0.5561  0.1561
 1373TIP3    H2 4084   6.361   1.284   0.628 -0.8936  0.1759 -0.1937
 1374TIP3   OH2 4085   0.251   6.671   4.363 -0.2050 -0.1493  0.0835
 1374TIP3    H1 4086   0.222   6.759   4.387 -2.4290  0.3062 -3.4725
 1374TIP3    H2 4087   0.170   6.621   4.356  0.8277 -1.8519 -0.1557
 1375TIP3   OH2 4088   6.952   1.622   2.703  0.1292 -0.0242 -0.0646
 1375TIP3    H1 4089   6.877   1.678   2.723  0.4723  0.7027 -0.8059
 1375TIP3    H2 4090   7.006   1.673   2.643  0.2934 -1.2567 -1.0186
 1376TIP3   OH2 4091   2.440   3.368   5.101 -0.4612 -0.0178 -0.0314
 1376TIP3    H1 4092   2.458   3.320   5.181  1.3755 -1.1609 -1.0585
 1376TIP3    H2 4093   2.409   3.454   5.130  1.6308  0.1431  1.9122
 1377TIP3   OH2 4094   1.459   5.324   1.377 -0.7399 -0.2277  0.3384
 1377TIP3    H1 4095   1.408   5.372   1.311 -1.9171 -1.0344  0.6152
 1377TIP3    H2 4096   1.427   5.358   1.461 -0.1411 -0.0828  0.5069
 1378TIP3   OH2 4097   6.740   0.471   0.936 -0.3093 -0.2730  0.1556
 1378TIP3    H1 4098   6.806   0.423   0.886  1.6805  2.3153  0.0643
 1378TIP3    H2 4099   6.778   0.479   1.024  0.1216  2.1768 -0.1769
 1379TIP3   OH2 4100   6.189   4.797   5.338  0.1357  0.2138 -0.2250
 1379TIP3    H1 4101   6.236   4.858   5.395  1.0370  0.5137 -1.2599
 1379TIP3    H2 4102   6.203   4.711   5.377  1.2547  0.3441 -0.3266
 1380TIP3   OH2 4103   5.175   4.837   3.589 -0.1527 -0.5399 -0.0227
 1380TIP3    H1 4104   5.240   4.889   3.637  0.6484 -2.2146  0.7912
 1380TIP3    H2 4105   5.194   4.746   3.614 -2.1390 -1.1583 -0.6136
 1381TIP3   OH2 4106   0.904   2.266   4.970 -0.3504 -0.2668 -0.3202
 1381TIP3    H1 4107   0.837   2.317   5.014  0.7639  2.3993 -1.4590
 1381TIP3    H2 4108   0.872   2.256   4.880 -1.5313 -3.6110  0.3298
 1382TIP3   OH2 4109   3.823   2.577   0.458 -0.0190  0.1870 -0.5329
 1382TIP3    H1 4110   3.794   2.601   0.546  0.3809 -0.4916 -0.2108
 1382TIP3    H2 4111   3.913   2.547   0.470 -0.1696 -0.4956 -1.0868
 1383TIP3   OH2 4112   2.268   5.060   3.415  0.2220  0.1511  0.5671
 1383TIP3    H1 4113   2.237   5.030   3.329 -0.2539 -0.8791  1.0793
 1383TIP3    H2 4114   2.361   5.037   3.417  0.3113  0.4675  0.2146
 1384TIP3   OH2 4115   1.525   0.406   1.477 -0.8971  0.6054  0.2330
 1384TIP3    H1 4116   1.440   0.371   1.450 -0.9496  0.8990  0.0180
 1384TIP3    H2 4117   1.516   0.501   1.467  0.8697  0.5365 -4.0477
 1385TIP3   OH2 4118   5.467   4.608   1.809 -0.6318  0.6614  0.0203
 1385TIP3    H1 4119   5.524   4.575   1.740  1.5733  1.8913  1.1201
 1385TIP3    H2 4120   5.514   4.684   1.844 -1.2912 -0.2429  3.2686
 1386TIP3   OH2 4121   3.512   5.888   4.477 -0.8747 -0.6955  1.0708
 1386TIP3    H1 4122   3.509   5.854   4.567  1.1400 -2.4268  0.5566
 1386TIP3    H2 4123   3.538   5.812   4.424  3.0823  1.3478 -0.2813
 1387TIP3   OH2 4124   1.492   1.987   5.293  0.8779 -0.5638 -0.4437
 1387TIP3    H1 4125   1.571   2.024   5.253  0.7373 -1.7691 -1.9623
 1387TIP3    H2 4126   1.464   2.052   5.357  2.5569  0.3251 -0.5607
 1388TIP3   OH2 4127   2.479   1.371   3.200  0.6677 -0.7599 -0.4808
 1388TIP3    H1 4128   2.548   1.313   3.167 -0.4322 -1.2087 -2.1008
 1388TIP3    H2 4129   2.459   1.429   3.127  0.0363  0.0697  0.3189
 1389TIP3   OH2 4130   0.815   3.974   0.101  0.7692  0.3715  0.1772
 1389TIP3    H1 4131   0.793   3.931   0.183  1.2553 -0.0057  0.1115
 1389TIP3    H2 4132   0.863   3.908   0.051 -3.2427 -1.0339 -2.2945
 1390TIP3   OH2 4133   0.660   3.929   1.673 -0.5981 -0.0081  0.2993
 1390TIP3    H1 4134   0.605   3.876   1.616 -1.9712  0.7017  0.9049
 1390TIP3    H2 4135   0.638   3.901   1.761 -2.5088  2.5112  0.7349
 1391TIP3   OH2 4136   6.475   3.775   3.088  0.0099 -0.6691  0.1278
 1391TIP3    H1 4137   6.401   3.779   3.148  0.0591  2.2102  0.1598
 1391TIP3    H2 4138   6.549   3.748   3.142 -0.3267  0.0003  0.9512
 1392TIP3   OH2 4139   4.140   0.623   2.380 -0.6425  0.1627 -0.3695
 1392TIP3    H1 4140   4.077   0.562   2.418 -0.6359  0.9766  1.0235
 1392TIP3    H2 4141   4.225   0.584   2.398 -0.6139  0.7918  0.9778
 1393TIP3   OH2 4142   4.490   2.105   0.715 -0.0498  0.3103 -0.0564
 1393TIP3    H1 4143   4.423   2.042   0.688 -0.4695  0.9818 -0.6017
 1393TIP3    H2 4144   4.570   2.076   0.670 -0.2389  0.1537 -0.2936
 1394TIP3   OH2 4145   0.384   5.567   3.697 -0.3690 -0.6585  0.6658
 1394TIP3    H1 4146   0.415   5.479   3.678 -2.0727 -0.8124 -1.8243
 1394TIP3    H2 4147   0.315   5.554   3.763 -0.4739 -1.1644  0.4613
 1395TIP3   OH2 4148   5.455   5.272   0.042 -0.0408  0.1762 -0.2718
 1395TIP3    H1 4149   5.414   5.186   0.037  1.5857 -0.5956 -1.0285
 1395TIP3    H2 4150   5.384   5.333   0.021 -1.2071 -0.9604  0.2332
 1396TIP3   OH2 4151   3.406   4.601   0.569 -0.0594 -0.3263  0.7283
 1396TIP3    H1 4152   3.353   4.539   0.619  0.7210 -1.0239  0.7287
 1396TIP3    H2 4153   3.485   4.551   0.547 -0.0092  0.2388 -0.4433
 1397TIP3   OH2 4154   0.670   6.712   0.651  0.1106 -0.0785  0.4373
 1397TIP3    H1 4155   0.652   6.749   0.737 -0.5386 -0.8919  0.6618
 1397TIP3    H2 4156   0.764   6.725   0.639  0.3778 -0.7374  1.6511
 1398TIP3   OH2 4157   0.668   3.114   4.613  0.0855 -0.0383  0.1171
 1398TIP3    H1 4158   0.723   3.139   4.539  1.0847  0.1582  0.9019
 1398TIP3    H2 4159   0.704   3.030   4.642 -1.4492 -1.0404 -0.7269
 1399TIP3   OH2 4160   3.521   1.360   4.463  0.4938 -0.4441  0.0680
 1399TIP3    H1 4161   3.444   1.376   4.407  0.0933 -3.5063 -0.4543
 1399TIP3    H2 4162   3.588   1.328   4.403  0.7875 -1.6857  1.0050
 1400TIP3   OH2 4163   1.276   6.062   4.110 -0.0491  0.1509  0.0156
 1400TIP3    H1 4164   1.358   6.069   4.061  0.9913  0.8625  1.7940
 1400TIP3    H2 4165   1.283   5.980   4.158 -0.2298  0.3873  0.4456
 1401TIP3   OH2 4166   1.957   3.389   5.834 -0.3113  0.2628 -0.1828
 1401TIP3    H1 4167   1.956   3.433   5.749  0.1085  1.2258  0.2934
 1401TIP3    H2 4168   2.014   3.313   5.821 -0.5559  0.1886 -0.8594
 1402TIP3   OH2 4169   1.704   4.790   5.048 -0.4603  0.1723 -0.2581
 1402TIP3    H1 4170   1.677   4.870   5.092 -1.3745  0.0611 -0.5900
 1402TIP3    H2 4171   1.666   4.719   5.100 -0.7847  0.0072 -0.7160
 1403TIP3   OH2 4172   1.987   1.068   1.031  0.2399  0.5918 -0.7222
 1403TIP3    H1 4173   2.044   1.049   0.957  0.4674  0.7719 -0.5931
 1403TIP3    H2 4174   1.913   1.008   1.021  0.0092  0.9708 -1.3933
 1404TIP3   OH2 4175   6.719   5.853   1.465 -0.2587 -0.5037 -0.2954
 1404TIP3    H1 4176   6.720   5.783   1.399  0.3704  0.2078 -1.0553
 1404TIP3    H2 4177   6.781   5.918   1.433  0.6869 -0.4904  1.4021
 1405TIP3   OH2 4178   3.656   2.238   1.651  0.1566  0.5377  0.2409
 1405TIP3    H1 4179   3.633   2.152   1.687  1.5392  0.4288  0.9500
 1405TIP3    H2 4180   3.653   2.226   1.556 -3.1766  0.7215  0.2247
 1406TIP3   OH2 4181   0.424   4.239   5.633 -0.3650  0.5016 -0.6297
 1406TIP3    H1 4182   0.489   4.307   5.617  0.4465 -0.4214 -1.4531
 1406TIP3    H2 4183   0.440   4.210   5.723 -0.0921  0.7617 -0.5954
 1407TIP3   OH2 4184   3.010   2.943   3.899 -0.0992 -0.2712 -0.0110
 1407TIP3    H1 4185   2.967   2.889   3.965  0.1362  0.3325  0.6537
 1407TIP3    H2 4186   2.973   2.914   3.816 -1.8919  0.3081  0.5416
 1408TIP3   OH2 4187   6.519   1.551   1.891 -0.3869  0.4892 -0.3939
 1408TIP3    H1 4188   6.490   1.461   1.876 -1.1144  0.6654 -0.0754
 1408TIP3    H2 4189   6.457   1.586   1.955 -0.8723  1.6241 -1.4526
 1409TIP3   OH2 4190   3.731   5.749   0.430 -0.2090 -0.4412  0.7682
 1409TIP3    H1 4191   3.709   5.754   0.523 -0.4131  1.5963  0.6627
 1409TIP3    H2 4192   3.715   5.838   0.397 -0.1096 -1.1119 -1.2085
 1410TIP3   OH2 4193   6.253   2.432   3.465 -0.0394  0.5560 -0.1632
 1410TIP3    H1 4194   6.172   2.381   3.470 -0.1574  0.7425 -0.1241
 1410TIP3    H2 4195   6.319   2.377   3.506 -0.5528  1.2166  1.6131
 1411TIP3   OH2 4196   6.320   1.539   3.327 -0.1776  0.3256  0.2087
 1411TIP3    H1 4197   6.303   1.629   3.353  0.0377  0.5792 -0.5195
 1411TIP3    H2 4198   6.237   1.494   3.343 -0.2564  0.6282  0.6636
 1412TIP3   OH2 4199   6.578   5.888   5.547  0.0400  0.3939  0.0201
 1412TIP3    H1 4200   6.631   5.921   5.475  1.7587 -0.9602  0.5922
 1412TIP3    H2 4201   6.588   5.954   5.616 -0.0344  0.7447 -0.2991
 1413TIP3   OH2 4202   0.215   3.543   1.854 -0.0439 -0.0340  0.1276
 1413TIP3    H1 4203   0.151   3.475   1.873 -1.1588  1.0280  0.3042
 1413TIP3    H2 4204   0.244   3.574   1.940  1.1423 -0.8785  0.0541
 1414TIP3   OH2 4205   6.637   4.221   5.890  0.6645  0.1537  0.5038
 1414TIP3    H1 4206   6.723   4.213   5.849  0.1461 -0.8064 -0.4518
 1414TIP3    H2 4207   6.579   4.249   5.819  0.0601  0.1708  0.9919
 1415TIP3   OH2 4208   2.704   4.769   4.563  0.0920 -0.0623 -0.9967
 1415TIP3    H1 4209   2.692   4.863   4.570  1.0440 -0.0566  1.3264
 1415TIP3    H2 4210   2.616   4.733   4.551 -0.7417  0.8868  1.7644
 1416TIP3   OH2 4211   6.390   1.299   1.874  0.5840 -0.5213 -0.7608
 1416TIP3    H1 4212   6.330   1.314   1.947  2.0511 -1.4258  0.7145
 1416TIP3    H2 4213   6.337   1.254   1.809 -1.4403  2.5019 -1.4112
 1417TIP3   OH2 4214   4.235   0.883   0.873  0.3605 -0.2921 -0.1286
 1417TIP3    H1 4215   4.314   0.907   0.825 -0.8751  4.0910 -0.4932
 1417TIP3    H2 4216   4.189   0.822   0.816  1.9829 -0.3630 -1.4164
 1418TIP3   OH2 4217   5.383   1.250   3.722  0.3418 -0.2162 -0.2054
 1418TIP3    H1 4218   5.288   1.260   3.723  0.0691 -2.1667  1.8905
 1418TIP3    H2 4219   5.405   1.232   3.631 -1.5460 -1.4872 -0.4632
 1419TIP3   OH2 4220   3.521   2.582   5.365  0.8665  0.2530  0.3501
 1419TIP3    H1 4221   3.428   2.569   5.387 -0.2138  0.8158 -3.2538
 1419TIP3    H2 4222   3.565   2.504   5.399 -1.1247 -0.6297  1.0621
 1420TIP3   OH2 4223   0.283   2.669   0.087 -0.4895  0.4460  0.4697
 1420TIP3    H1 4224   0.377   2.650   0.089 -0.7346 -0.8086  0.9403
 1420TIP3    H2 4225   0.275   2.754   0.131  0.7789  2.4783 -2.8662
 1421TIP3   OH2 4226   6.441   0.234   5.052 -0.3937 -0.5414 -0.6552
 1421TIP3    H1 4227   6.485   0.289   5.117  1.7687 -0.2216 -2.2479
 1421TIP3    H2 4228   6.472   0.145   5.071 -1.2994 -0.7465 -0.0886
 1422TIP3   OH2 4229   2.804   5.560   3.974  0.1873 -0.4861  0.1584
 1422TIP3    H1 4230   2.852   5.484   3.943  0.9676  0.1840 -0.3173
 1422TIP3    H2 4231   2.779   5.607   3.894  0.1484  0.0175  0.4617
 1423TIP3   OH2 4232   2.513   1.944   3.466  0.6491 -0.0955  0.3997
 1423TIP3    H1 4233   2.568   1.940   3.388  0.3174  0.0245  0.1593
 1423TIP3    H2 4234   2.447   1.876   3.452 -0.4418  1.0554 -0.2127
 1424TIP3   OH2 4235   2.196   5.635   1.515 -0.2059  0.7267  0.1710
 1424TIP3    H1 4236   2.290   5.625   1.497 -0.1511  0.7893  0.4134
 1424TIP3    H2 4237   2.158   5.551   1.489 -0.1480  0.8592 -0.3406
 1425TIP3   OH2 4238   5.563   4.916   5.788  0.5473  0.0599 -0.2941
 1425TIP3    H1 4239   5.523   4.866   5.859  1.0973 -1.8463 -1.2561
 1425TIP3    H2 4240   5.502   4.907   5.715  1.1969 -0.1883 -0.8182
 1426TIP3   OH2 4241   0.714   0.244   3.779 -0.1418  0.3435  0.2107
 1426TIP3    H1 4242   0.710   0.261   3.873 -1.6855 -1.7032  0.6023
 1426TIP3    H2 4243   0.806   0.230   3.761  0.0888 -0.2066  1.6421
 1427TIP3   OH2 4244   6.893   6.369   3.905 -0.5283  0.1080  0.4165
 1427TIP3    H1 4245   6.829   6.440   3.900 -2.1314 -1.2626  0.1304
 1427TIP3    H2 4246   6.877   6.328   3.990  0.0633 -0.1709  0.3969
 1428TIP3   OH2 4247   1.254   1.598   3.626 -0.3496  0.2484 -0.0839
 1428TIP3    H1 4248   1.330   1.655   3.619 -0.6258  0.6495  0.1728
 1428TIP3    H2 4249   1.248   1.578   3.719 -2.3729  2.7334  0.4239
 1429TIP3   OH2 4250   1.396   6.154   0.029 -0.1248 -0.3763  0.6105
 1429TIP3    H1 4251   1.356   6.208   0.097  0.0551  0.0361  0.3888
 1429TIP3    H2 4252   1.402   6.067   0.069  0.4736 -0.0219  1.3258
 1430TIP3   OH2 4253   0.376   3.244   3.592 -0.1007 -0.2411 -0.2221
 1430TIP3    H1 4254   0.403   3.253   3.683  0.6311 -0.6663 -0.3917
 1430TIP3    H2 4255   0.298   3.189   3.596  0.5860 -1.2282  0.0680
 1431TIP3   OH2 4256   6.927   0.506   0.492 -0.1889  0.4692  0.1945
 1431TIP3    H1 4257   6.966   0.536   0.574 -2.3823  3.4100  0.3340
 1431TIP3    H2 4258   6.858   0.446   0.520  0.6799 -0.5040  0.2950
 1432TIP3   OH2 4259   2.933   1.343   2.501  0.5999 -0.0726  0.4320
 1432TIP3    H1 4260   2.947   1.345   2.406 -0.3533  1.0195  0.2821
 1432TIP3    H2 4261   2.982   1.267   2.531  0.2293 -0.9546 -1.0595
 1433TIP3   OH2 4262   4.265   5.492   1.808  0.0592  0.2777 -0.3209
 1433TIP3    H1 4263   4.192   5.520   1.751 -1.5020 -2.1159  0.3564
 1433TIP3    H2 4264   4.275   5.399   1.790  1.7482  0.1657  0.9723
 1434TIP3   OH2 4265   0.337   6.331   4.052 -0.5314  0.2272  0.2676
 1434TIP3    H1 4266   0.411   6.358   4.106 -0.3195  0.3715 -0.0901
 1434TIP3    H2 4267   0.281   6.408   4.047 -0.9911 -0.0476  0.9969
 1435TIP3   OH2 4268   5.010   6.653   3.805  0.9196  0.2227  0.1398
 1435TIP3    H1 4269   5.026   6.737   3.848 -0.1864  0.5267  0.0071
 1435TIP3    H2 4270   4.924   6.626   3.839  0.0064  0.4628 -1.8255
 1436TIP3   OH2 4271   0.763   5.149   5.404  0.3404 -0.4040  0.3421
 1436TIP3    H1 4272   0.695   5.187   5.460  0.0349 -1.3071  0.5988
 1436TIP3    H2 4273   0.756   5.198   5.322  0.9736  1.1302  1.1445
 1437TIP3   OH2 4274   5.120   4.104   5.443 -0.4830 -0.1103 -0.6968
 1437TIP3    H1 4275   5.099   4.180   5.498 -0.3125 -0.0236 -0.7491
 1437TIP3    H2 4276   5.037   4.059   5.431 -0.5754  0.0390 -0.6179
 1438TIP3   OH2 4277   1.275   0.491   2.558  0.7970  0.4469 -0.3121
 1438TIP3    H1 4278   1.293   0.406   2.518 -0.3651 -0.6445  1.3685
 1438TIP3    H2 4279   1.325   0.490   2.640 -0.7136  0.5599  0.6468
 1439TIP3   OH2 4280   3.523   2.189   4.253 -0.1978 -0.4072  0.0109
 1439TIP3    H1 4281   3.577   2.117   4.223  0.8815  0.5310 -0.3730
 1439TIP3    H2 4282   3.566   2.268   4.219 -1.1485  0.4393  0.6893
 1440TIP3   OH2 4283   2.990   3.508   2.908  0.4857 -0.1403 -0.3469
 1440TIP3    H1 4284   3.082   3.533   2.917 -0.0072  1.5798  0.2147
 1440TIP3    H2 4285   2.944   3.590   2.893 -1.0623 -0.8893  0.0886
 1441TIP3   OH2 4286   2.072   1.784   2.688 -0.4458 -0.0621  0.0418
 1441TIP3    H1 4287   2.150   1.730   2.687 -0.1794  0.3160  0.2658
 1441TIP3    H2 4288   2.004   1.727   2.726  0.0597  0.0579  1.1688
 1442TIP3   OH2 4289   2.610   4.246   4.952  0.0949 -0.5631 -0.0868
 1442TIP3    H1 4290   2.656   4.200   5.022  2.4095 -1.5627 -2.1146
 1442TIP3    H2 4291   2.618   4.189   4.876 -0.4062  1.4143 -1.7209
 1443TIP3   OH2 4292   2.363   2.689   1.334  0.0462 -0.3705  0.0531
 1443TIP3    H1 4293   2.361   2.634   1.256  0.7126 -0.8163  0.3448
 1443TIP3    H2 4294   2.455   2.709   1.348 -0.0479 -0.4274  0.8226
 1444TIP3   OH2 4295   3.577   3.300   2.495 -0.4245 -0.2704 -0.4147
 1444TIP3    H1 4296   3.616   3.386   2.512 -0.8647 -0.2819  0.7622
 1444TIP3    H2 4297   3.483   3.317   2.488 -0.4472 -0.5673 -0.8897
 1445TIP3   OH2 4298   0.748   2.885   0.192 -0.2425 -0.0539 -0.1291
 1445TIP3    H1 4299   0.755   2.974   0.157  1.7010  1.1122  2.8269
 1445TIP3    H2 4300   0.671   2.888   0.249  0.6047  0.2431  1.0540
 1446TIP3   OH2 4301   2.315   1.349   5.220 -0.1789 -0.6524 -0.4833
 1446TIP3    H1 4302   2.363   1.308   5.292  0.5790  1.5054  0.3349
 1446TIP3    H2 4303   2.258   1.413   5.263 -1.2113 -0.7345 -1.6808
 1447TIP3   OH2 4304   3.402   2.737   5.640 -0.1319  0.1796 -0.0484
 1447TIP3    H1 4305   3.460   2.761   5.712  0.3282 -0.1073 -0.3193
 1447TIP3    H2 4306   3.348   2.666   5.675 -0.0617  0.1926  0.0861
 1448TIP3   OH2 4307   6.676   1.711   5.830 -0.2182 -0.1072 -0.3724
 1448TIP3    H1 4308   6.703   1.690   5.919 -1.4228 -0.7160 -0.1370
 1448TIP3    H2 4309   6.758   1.736   5.786  0.5741 -0.9663  0.5624
 1449TIP3   OH2 4310   3.198   4.790   1.976 -0.0671  0.2068  0.4183
 1449TIP3    H1 4311   3.224   4.871   1.932  0.6759 -0.5411 -0.5798
 1449TIP3    H2 4312   3.176   4.817   2.065 -0.5105  1.6004 -0.0833
 1450TIP3   OH2 4313   1.517   3.598   2.862 -0.1359  0.2621 -0.1831
 1450TIP3    H1 4314   1.569   3.562   2.790 -1.8891 -0.2811 -1.2546
 1450TIP3    H2 4315   1.581   3.634   2.923  1.5434 -1.7762 -0.6433
 1451TIP3   OH2 4316   4.127   5.267   3.491  0.1951 -0.0986  0.3014
 1451TIP3    H1 4317   4.123   5.179   3.527 -0.6336 -0.3232 -0.3013
 1451TIP3    H2 4318   4.213   5.273   3.451  1.0188  0.0614  2.0318
 1452TIP3   OH2 4319   7.004   3.243   1.717  0.3818 -0.0172 -0.8065
 1452TIP3    H1 4320   6.979   3.283   1.800 -1.4029 -0.0243 -1.2834
 1452TIP3    H2 4321   7.021   3.317   1.659  3.6087  0.0217  0.0145
 1453TIP3   OH2 4322   4.346   4.752   0.113 -0.3857 -0.1974 -0.0947
 1453TIP3    H1 4323   4.417   4.695   0.140  0.2299  0.4169 -0.3939
 1453TIP3    H2 4324   4.305   4.706   0.039  0.8614  0.2769 -1.1249
 1454TIP3   OH2 4325   3.086   2.767   0.141 -0.6346 -0.2057 -0.2749
 1454TIP3    H1 4326   3.020   2.722   0.194 -0.3891 -0.3459 -0.0887
 1454TIP3    H2 4327   3.053   2.762   0.052 -1.4031  0.6295 -0.0564
 1455TIP3   OH2 4328   1.725   2.939   1.184 -0.1959 -0.0794 -0.5186
 1455TIP3    H1 4329   1.681   2.916   1.266  1.0525 -0.5611  0.0349
 1455TIP3    H2 4330   1.692   3.026   1.163 -0.7629 -0.0756  0.3307
 1456TIP3   OH2 4331   4.738   2.158   2.511 -0.6672 -0.0273 -0.0859
 1456TIP3    H1 4332   4.646   2.138   2.494 -0.9281  2.3784 -2.0739
 1456TIP3    H2 4333   4.779   2.157   2.424  0.3955  2.3442  0.3221
 1457TIP3   OH2 4334   4.881   2.460   1.052  0.4411  0.2468  0.5397
 1457TIP3    H1 4335   4.930   2.536   1.084  1.1036 -0.0827  0.3273
 1457TIP3    H2 4336   4.790   2.491   1.047  0.7076  1.0481  0.4004
 1458TIP3   OH2 4337   0.588   6.421   3.872  0.3398 -0.7569 -0.3624
 1458TIP3    H1 4338   0.544   6.486   3.928  0.5985 -1.1774  0.3387
 1458TIP3    H2 4339   0.681   6.435   3.889  0.4529 -0.4016 -1.2477
 1459TIP3   OH2 4340   5.925   4.647   0.586  0.0540 -0.2728 -0.2550
 1459TIP3    H1 4341   5.945   4.567   0.538 -0.1442 -0.3011 -0.2945
 1459TIP3    H2 4342   5.844   4.678   0.546 -1.0754 -1.2228  1.1650
 1460TIP3   OH2 4343   4.582   2.890   0.060 -0.1800  0.2027  0.3175
 1460TIP3    H1 4344   4.507   2.949   0.054  0.3151  0.8361  0.2882
 1460TIP3    H2 4345   4.658   2.948   0.069  0.1332 -0.4534  2.2550
 1461TIP3   OH2 4346   7.200   1.109   2.585  0.0569 -0.2830 -0.0483
 1461TIP3    H1 4347   7.251   1.058   2.522  0.3464  0.1944 -0.2044
 1461TIP3    H2 4348   7.156   1.043   2.640 -1.1076 -0.7324 -1.4523
 1462TIP3   OH2 4349   4.187   0.525   1.389  0.2286 -0.1115  0.1168
 1462TIP3    H1 4350   4.215   0.546   1.478  0.9460  0.2367 -0.1836
 1462TIP3    H2 4351   4.197   0.607   1.341  1.1776 -0.6219 -0.6065
 1463TIP3   OH2 4352   0.458   1.456   3.486 -0.0815  0.3080 -0.0291
 1463TIP3    H1 4353   0.371   1.495   3.498  0.0147  1.1316 -1.7800
 1463TIP3    H2 4354   0.474   1.410   3.569 -1.2181  2.0066  1.2172
 1464TIP3   OH2 4355   2.551   1.570   3.916 -0.3766  0.0239 -0.3804
 1464TIP3    H1 4356   2.473   1.518   3.896 -1.3403  1.8920 -1.8026
 1464TIP3    H2 4357   2.584   1.598   3.830 -0.6463  2.7161  0.2874
 1465TIP3   OH2 4358   1.400   2.079   5.775 -0.1574 -0.1768  0.0004
 1465TIP3    H1 4359   1.476   2.119   5.816 -0.6560 -0.2063  1.0013
 1465TIP3    H2 4360   1.367   2.017   5.840  0.1235 -1.6448 -1.2015
 1466TIP3   OH2 4361   3.817   0.715   0.693 -0.1124 -0.0903 -0.0866
 1466TIP3    H1 4362   3.754   0.784   0.713  0.0687  0.0246  0.0906
 1466TIP3    H2 4363   3.792   0.642   0.750  0.3327  0.1963  0.4935
 1467TIP3   OH2 4364   5.953   0.757   5.702 -0.6448  0.1070  0.6389
 1467TIP3    H1 4365   6.034   0.725   5.740  0.2724  0.2380 -1.1031
 1467TIP3    H2 4366   5.891   0.685   5.713  0.6174 -1.2827 -0.7795
 1468TIP3   OH2 4367   4.353   5.535   0.199 -1.1610  0.1625 -0.2694
 1468TIP3    H1 4368   4.436   5.487   0.202 -1.2325 -0.1343 -2.0686
 1468TIP3    H2 4369   4.309   5.511   0.280  0.4829  0.2994  0.7098
 1469TIP3   OH2 4370   3.215   2.268   0.692  0.0348  0.5798  0.0416
 1469TIP3    H1 4371   3.261   2.336   0.643  1.1843  0.3957  0.8204
 1469TIP3    H2 4372   3.167   2.315   0.761 -2.6152  0.9703 -1.9115
 1470TIP3   OH2 4373   5.591   1.821   0.789  0.0318  0.0075 -0.0942
 1470TIP3    H1 4374   5.621   1.830   0.699 -0.1832  0.9665 -0.0794
 1470TIP3    H2 4375   5.575   1.727   0.800  0.2958 -0.1459 -0.9701
 1471TIP3   OH2 4376   4.152   5.373   3.166  0.5041 -0.5337  0.0008
 1471TIP3    H1 4377   4.175   5.300   3.224  0.3551 -1.6536 -1.2899
 1471TIP3    H2 4378   4.065   5.401   3.195  0.0954 -1.5962 -0.1670
 1472TIP3   OH2 4379   1.184   6.772   3.376  0.0920  0.6447  0.1421
 1472TIP3    H1 4380   1.218   6.733   3.295 -0.6644 -1.5941  0.8532
 1472TIP3    H2 4381   1.261   6.779   3.433  0.1289 -0.4202  0.2302
 1473TIP3   OH2 4382   0.460   3.954   0.432 -0.1149  0.0900  0.0484
 1473TIP3    H1 4383   0.369   3.950   0.464 -0.3105  0.0749 -0.4978
 1473TIP3    H2 4384   0.455   3.919   0.343 -0.2099  3.2484 -1.3287
 1474TIP3   OH2 4385   5.522   4.952   4.827  0.5093 -0.2451 -0.0654
 1474TIP3    H1 4386   5.547   5.026   4.771 -1.1417  0.0827 -0.4389
 1474TIP3    H2 4387   5.604   4.922   4.866  1.2131  1.9761  0.3381
 1475TIP3   OH2 4388   4.534   2.734   4.396 -0.0212  0.5019 -0.3010
 1475TIP3    H1 4389   4.613   2.730   4.342  0.1831 -0.3004  0.0457
 1475TIP3    H2 4390   4.471   2.677   4.351  0.1963 -0.2858  0.3667
 1476TIP3   OH2 4391   0.949   5.105   5.585  0.4244  0.1554  0.0173
 1476TIP3    H1 4392   0.891   5.105   5.509  1.1612  2.4093 -0.6306
 1476TIP3    H2 4393   0.904   5.160   5.649  1.4701  1.3428 -0.2321
 1477TIP3   OH2 4394   0.684   1.584   1.592  0.4798 -0.2011 -0.5832
 1477TIP3    H1 4395   0.610   1.526   1.578  0.1071 -0.3330  1.5711
 1477TIP3    H2 4396   0.760   1.534   1.563 -0.0949 -0.7872 -1.0907
 1478TIP3   OH2 4397   6.063   4.908   5.799  0.2616  0.3864 -0.4114
 1478TIP3    H1 4398   5.978   4.902   5.842  1.1331 -0.7717  1.2511
 1478TIP3    H2 4399   6.057   4.987   5.745 -1.0507  1.6667  1.4872
 1479TIP3   OH2 4400   3.532   3.689   2.262 -0.6656 -0.4527 -0.5550
 1479TIP3    H1 4401   3.510   3.771   2.217 -1.7432 -0.8916 -0.8643
 1479TIP3    H2 4402   3.603   3.713   2.321 -0.4813  0.5485 -1.1489
 1480TIP3   OH2 4403   4.462   3.529   1.090  0.0772 -0.1002 -0.7680
 1480TIP3    H1 4404   4.418   3.479   1.021 -0.1530 -0.6280 -0.2520
 1480TIP3    H2 4405   4.540   3.478   1.111  0.4540  0.3602 -1.0393
 1481TIP3   OH2 4406   1.783   1.969   0.759 -0.2252  0.5586  0.0579
 1481TIP3    H1 4407   1.744   2.023   0.690 -0.5103  0.5715  0.2293
 1481TIP3    H2 4408   1.877   1.986   0.752 -0.0306 -0.8642 -1.5561
 1482TIP3   OH2 4409   1.286   1.476   0.163 -0.2578  0.1064 -0.7664
 1482TIP3    H1 4410   1.235   1.407   0.205 -1.1103  0.6497 -0.8635
 1482TIP3    H2 4411   1.233   1.555   0.176  1.2204  0.9541  0.3102
 1483TIP3   OH2 4412   4.166   2.676   3.466  0.1324  0.2538  0.2559
 1483TIP3    H1 4413   4.075   2.671   3.438  0.1745  1.3246 -0.1360
 1483TIP3    H2 4414   4.215   2.694   3.385  0.6830 -0.2239  0.4747
 1484TIP3   OH2 4415   3.612   4.939   1.892  0.1351  0.1684  0.1274
 1484TIP3    H1 4416   3.575   4.993   1.962  1.0230 -0.1691  0.8859
 1484TIP3    H2 4417   3.686   4.989   1.860 -0.6053  0.5810 -0.9945
 1485TIP3   OH2 4418   4.029   2.972   1.444  0.3251 -1.1030 -0.5288
 1485TIP3    H1 4419   3.994   3.059   1.423  2.2834  0.2144  1.2518
 1485TIP3    H2 4420   3.952   2.917   1.454 -1.0175  0.6080 -0.9452
 1486TIP3   OH2 4421   1.906   2.125   2.532  0.1845  0.2130  0.1999
 1486TIP3    H1 4422   1.861   2.045   2.502 -1.8358  1.0421  0.8546
 1486TIP3    H2 4423   1.917   2.177   2.453  1.6512 -0.7247 -0.2593
 1487TIP3   OH2 4424   4.561   2.103   2.801  0.0154 -0.4913 -0.1784
 1487TIP3    H1 4425   4.643   2.120   2.755 -0.5670  3.5670 -0.0405
 1487TIP3    H2 4426   4.500   2.076   2.732  0.8711 -1.2775 -0.6434
 1488TIP3   OH2 4427   6.131   1.349   1.979  0.0677  0.9126 -0.1599
 1488TIP3    H1 4428   6.126   1.437   1.942  2.3408  0.4089 -1.9139
 1488TIP3    H2 4429   6.107   1.291   1.907 -0.9779  0.0482  0.8483
 1489TIP3   OH2 4430   0.071   3.201   3.782  0.1130 -0.0737 -0.3474
 1489TIP3    H1 4431   0.005   3.196   3.852 -0.1249  0.5979 -0.5123
 1489TIP3    H2 4432   0.152   3.224   3.827  0.0444 -0.0259 -0.2478
 1490TIP3   OH2 4433   5.150   2.377   2.122 -0.0394  0.0495  0.7819
 1490TIP3    H1 4434   5.180   2.308   2.063  0.3812  0.8814  0.0012
 1490TIP3    H2 4435   5.084   2.335   2.177 -1.4771 -0.3993 -1.2179
 1491TIP3   OH2 4436   6.575   6.055   2.936 -0.0263 -0.1573  0.3769
 1491TIP3    H1 4437   6.661   6.050   2.895 -0.3520  2.0921 -0.7565
 1491TIP3    H2 4438   6.581   5.999   3.013  2.0145 -1.0798 -0.3986
 1492TIP3   OH2 4439   0.984   1.576   3.538  0.5278 -0.8326  0.2939
 1492TIP3    H1 4440   1.073   1.590   3.569  1.0701 -2.2271 -0.5726
 1492TIP3    H2 4441   0.993   1.559   3.445 -0.6513 -1.0122  0.1924
 1493TIP3   OH2 4442   7.017   5.843   4.751  0.6188 -0.3387 -0.5719
 1493TIP3    H1 4443   6.977   5.916   4.798 -1.0076 -1.1958 -0.5386
 1493TIP3    H2 4444   7.021   5.871   4.660 -1.2000 -0.6508 -0.7818
 1494TIP3   OH2 4445   1.267   6.298   3.921 -0.4172  0.7946 -0.2914
 1494TIP3    H1 4446   1.188   6.249   3.943 -1.6046  2.3504 -0.8877
 1494TIP3    H2 4447   1.256   6.383   3.965  1.8081  0.4201  1.1500
 1495TIP3   OH2 4448   0.943   4.415   3.083 -0.2772  0.0874  0.0078
 1495TIP3    H1 4449   0.972   4.336   3.038 -0.1248  1.3432 -2.2584
 1495TIP3    H2 4450   0.993   4.486   3.041 -0.9477  1.4741  1.4527
 1496TIP3   OH2 4451   2.409   4.736   3.688 -0.2755 -0.4746  0.2994
 1496TIP3    H1 4452   2.400   4.668   3.622  0.6859 -0.4077  0.0954
 1496TIP3    H2 4453   2.478   4.794   3.655  0.7514 -0.8484  1.6952
 1497TIP3   OH2 4454   1.906   4.887   4.200  0.0219  0.6354 -0.1190
 1497TIP3    H1 4455   1.900   4.929   4.285  0.1806 -1.3247  0.9189
 1497TIP3    H2 4456   1.999   4.872   4.187  0.3065  3.2901 -1.9355
 1498TIP3   OH2 4457   4.195   3.754   3.609  0.1778 -0.6476  0.1122
 1498TIP3    H1 4458   4.148   3.707   3.541  0.4445 -1.1197  0.2491
 1498TIP3    H2 4459   4.187   3.847   3.585 -2.0187 -0.5784  0.8999
 1499TIP3   OH2 4460   1.417   3.023   4.031  0.1098  0.2525  0.2655
 1499TIP3    H1 4461   1.489   2.992   4.085  0.0724  0.0077  0.1744
 1499TIP3    H2 4462   1.394   3.108   4.069  0.3381  0.2582  0.3943
 1500TIP3   OH2 4463   6.637   0.371   3.304  0.3133 -0.1804  0.6430
 1500TIP3    H1 4464   6.634   0.349   3.398 -0.1473 -0.0827  0.6505
 1500TIP3    H2 4465   6.638   0.467   3.302 -0.5933 -0.1716  0.5198
 1501TIP3   OH2 4466   2.305   3.894   3.661 -0.0584  0.4283 -0.3655
 1501TIP3    H1 4467   2.228   3.918   3.611 -0.3086  2.6063  0.9459
 1501TIP3    H2 4468   2.296   3.941   3.744  0.9967 -1.9578  1.2437
 1502TIP3   OH2 4469   0.291   3.004   4.627  0.5560 -0.2883  0.3702
 1502TIP3    H1 4470   0.220   3.055   4.666  0.0277 -0.0929 -0.8078
 1502TIP3    H2 4471   0.319   2.945   4.697 -0.2496  0.1616  1.0908
 1503TIP3   OH2 4472   3.723   3.907   0.727  0.0687 -0.1124 -0.1328
 1503TIP3    H1 4473   3.748   3.879   0.639  0.1949 -1.5741  0.3421
 1503TIP3    H2 4474   3.735   3.829   0.781  1.2483  1.0935  1.4351
 1504TIP3   OH2 4475   2.143   2.295   3.688 -0.0384  0.1165 -0.0058
 1504TIP3    H1 4476   2.186   2.219   3.727  1.1005  0.7995  0.1019
 1504TIP3    H2 4477   2.165   2.368   3.746 -0.2589  0.7253 -0.6674
 1505TIP3   OH2 4478   0.894   6.681   2.447  0.0788  0.0482 -0.5377
 1505TIP3    H1 4479   0.939   6.631   2.516 -0.7251 -0.7325 -0.5555
 1505TIP3    H2 4480   0.822   6.624   2.420 -1.2305  1.4582 -0.1629
 1506TIP3   OH2 4481   3.128   2.710   4.130 -0.1831  0.1511 -0.2747
 1506TIP3    H1 4482   3.198   2.670   4.182 -0.1993  0.7679  0.2265
 1506TIP3    H2 4483   3.141   2.674   4.042 -0.3152 -1.1128  0.1949
 1507TIP3   OH2 4484   2.192   4.556   0.793  0.1866  0.4428 -0.6170
 1507TIP3    H1 4485   2.281   4.548   0.828  0.0549  0.1736 -0.3368
 1507TIP3    H2 4486   2.149   4.616   0.854 -0.5863 -1.4525  0.7787
 1508TIP3   OH2 4487   0.096   6.598   4.670 -0.1021 -0.0064  0.2299
 1508TIP3    H1 4488   0.141   6.609   4.754 -1.6096 -0.1802  1.1045
 1508TIP3    H2 4489   0.026   6.663   4.671 -1.9657 -1.8862  0.4387
 1509TIP3   OH2 4490   1.720   2.000   5.115 -0.1498  0.3128  0.3202
 1509TIP3    H1 4491   1.724   2.092   5.086 -0.9692  0.9416  2.1039
 1509TIP3    H2 4492   1.774   1.953   5.051 -0.0450  1.9655 -0.8711
 1510TIP3   OH2 4493   0.636   3.693   3.827 -0.4299 -0.4467  0.1702
 1510TIP3    H1 4494   0.633   3.599   3.810  0.8001 -0.1212 -2.2121
 1510TIP3    H2 4495   0.610   3.734   3.745 -1.5845  1.3337  1.3542
 1511TIP3   OH2 4496   2.618   0.130   3.801  0.3512 -0.2098  0.0005
 1511TIP3    H1 4497   2.538   0.144   3.852 -0.4542  0.3047 -1.3325
 1511TIP3    H2 4498   2.631   0.212   3.754  0.8170 -0.7931 -0.9288
 1512TIP3   OH2 4499   0.874   3.482   1.573 -0.2456  0.4347 -0.6727
 1512TIP3    H1 4500   0.811   3.415   1.599  0.1386 -0.1279 -1.1517
 1512TIP3    H2 4501   0.821   3.560   1.557 -0.6360  0.3905  0.3776
 1513TIP3   OH2 4502   4.031   1.823   1.284 -0.2384  0.7997 -0.0102
 1513TIP3    H1 4503   4.004   1.762   1.216 -1.1293  0.8942  0.2525
 1513TIP3    H2 4504   4.114   1.787   1.316 -0.1714  0.3681 -0.6529
 1514TIP3   OH2 4505   5.567   6.543   3.057 -0.1681  0.3206 -0.6937
 1514TIP3    H1 4506   5.560   6.450   3.080 -2.0816  0.2720 -1.3183
 1514TIP3    H2 4507   5.537   6.589   3.135 -1.9918  0.2930 -1.3344
 1515TIP3   OH2 4508   5.123   4.938   5.223  0.2007 -0.0230 -0.0966
 1515TIP3    H1 4509   5.147   4.892   5.143  1.2457 -0.4071  0.4213
 1515TIP3    H2 4510   5.063   5.007   5.194  0.6295 -0.0992 -1.2207
 1516TIP3   OH2 4511   4.790   1.743   5.157  0.3274  0.0843  0.1929
 1516TIP3    H1 4512   4.845   1.752   5.235  0.2747 -0.0176  0.2426
 1516TIP3    H2 4513   4.700   1.751   5.190  0.2327 -1.2634  0.3529
 1517TIP3   OH2 4514   6.926   5.870   4.128  0.1053 -0.6260  0.1924
 1517TIP3    H1 4515   6.863   5.817   4.176  1.6545 -1.8017  1.0104
 1517TIP3    H2 4516   6.930   5.831   4.041  0.0036 -0.7944  0.2638
 1518TIP3   OH2 4517   2.185   5.739   3.726 -0.1938  0.4747 -0.3697
 1518TIP3    H1 4518   2.264   5.785   3.696 -0.7239  1.2299 -0.6559
 1518TIP3    H2 4519   2.134   5.807   3.771 -0.0699 -0.3205  0.9862
 1519TIP3   OH2 4520   3.068   6.395   3.277  0.6335  0.2394  0.0764
 1519TIP3    H1 4521   3.050   6.363   3.189  1.4391 -2.9963  0.9573
 1519TIP3    H2 4522   2.987   6.376   3.326  0.5481  1.1061  0.2976
 1520TIP3   OH2 4523   2.547   0.207   3.311  0.5459  0.0562  0.1011
 1520TIP3    H1 4524   2.513   0.132   3.360 -0.9131  0.7750  0.2388
 1520TIP3    H2 4525   2.529   0.282   3.366  0.8814  0.6438 -0.5771
 1521TIP3   OH2 4526   3.660   5.029   0.070 -0.7640  0.4315  0.1288
 1521TIP3    H1 4527   3.675   5.089  -0.003 -0.0209 -1.4582 -1.3490
 1521TIP3    H2 4528   3.734   5.044   0.129 -1.2164  1.7659  0.3926
 1522TIP3   OH2 4529   0.079   5.620   0.005 -0.2716  0.3344 -0.5942
 1522TIP3    H1 4530   0.139   5.662   0.068 -1.8263  0.6113  0.7587
 1522TIP3    H2 4531  -0.008   5.650   0.031 -1.2688 -2.1375 -0.8421
 1523TIP3   OH2 4532   3.158   6.004   3.485  0.0609 -0.1187  0.9145
 1523TIP3    H1 4533   3.076   5.985   3.440  1.0963  1.2692 -1.7887
 1523TIP3    H2 4534   3.198   5.918   3.500 -0.6989 -0.6871 -0.1871
 1524TIP3   OH2 4535   5.768   1.200   2.605 -0.8894 -0.4411 -0.6614
 1524TIP3    H1 4536   5.746   1.247   2.686  3.9315  0.0988  0.6474
 1524TIP3    H2 4537   5.705   1.233   2.541 -2.3601  2.2639  1.8979
 1525TIP3   OH2 4538   2.418   0.599   2.038 -0.3078  0.1884 -0.5222
 1525TIP3    H1 4539   2.366   0.674   2.067 -0.7544  0.5366 -2.0959
 1525TIP3    H2 4540   2.401   0.593   1.944  0.2744 -1.4644 -0.5619
 1526TIP3   OH2 4541   4.120   0.378   0.295 -0.3121  0.8681  0.3716
 1526TIP3    H1 4542   4.196   0.323   0.273 -0.5441  0.6652  0.0544
 1526TIP3    H2 4543   4.123   0.449   0.232 -0.2628  0.9765  0.4974
 1527TIP3   OH2 4544   2.177   4.718   4.536  0.0256  0.0857  0.4386
 1527TIP3    H1 4545   2.086   4.696   4.556  0.0107  0.5616  0.8983
 1527TIP3    H2 4546   2.173   4.762   4.451 -0.4828  2.3112  1.5540
 1528TIP3   OH2 4547   4.645   0.682   4.050  0.3630 -0.1422  0.0269
 1528TIP3    H1 4548   4.663   0.773   4.025  1.6441 -0.4002 -0.0611
 1528TIP3    H2 4549   4.574   0.655   3.992  1.0270  0.3255 -1.0531
 1529TIP3   OH2 4550   2.868   2.407   2.583 -0.7640  0.3284  0.1944
 1529TIP3    H1 4551   2.910   2.341   2.528 -1.1128  1.6520 -1.7663
 1529TIP3    H2 4552   2.778   2.410   2.552 -1.4101  0.0322  1.9388
 1530TIP3   OH2 4553   3.873   3.395   5.093  0.6705 -0.0198  0.2053
 1530TIP3    H1 4554   3.839   3.402   5.003  0.0025  0.5685  0.4933
 1530TIP3    H2 4555   3.891   3.302   5.105 -0.1063 -0.2383 -0.2322
 1531TIP3   OH2 4556   6.874   6.058   2.886  0.2316  0.3865  0.6959
 1531TIP3    H1 4557   6.854   5.966   2.903  1.3535  0.1628  0.8604
 1531TIP3    H2 4558   6.970   6.062   2.879  0.0970  1.0861 -1.9728
 1532TIP3   OH2 4559   6.746   0.417   1.928  0.2997  0.1193  0.2147
 1532TIP3    H1 4560   6.738   0.367   1.847  0.6762  0.5489 -0.0931
 1532TIP3    H2 4561   6.838   0.411   1.952  0.0881 -0.4750  0.9264
 1533TIP3   OH2 4562   2.971   1.164   3.658  0.0612  0.1390 -0.0252
 1533TIP3    H1 4563   3.051   1.210   3.683  0.5917 -0.8060  0.0543
 1533TIP3    H2 4564   2.952   1.198   3.570 -0.9063  2.2539  0.9217
 1534TIP3   OH2 4565   3.469   4.757   0.913  0.0001  0.3811  0.1544
 1534TIP3    H1 4566   3.556   4.744   0.951 -0.8495  1.5869  2.7513
 1534TIP3    H2 4567   3.422   4.677   0.934  0.6257 -0.6673 -2.0453
 1535TIP3   OH2 4568   5.464   3.971   3.059  0.4649  0.2206  0.3675
 1535TIP3    H1 4569   5.493   4.056   3.090 -1.0040  0.7116  0.4612
 1535TIP3    H2 4570   5.435   3.925   3.138  1.5198 -0.5061  0.3610
 1536TIP3   OH2 4571   6.821   3.800  -0.021 -0.7391  0.2581 -0.1005
 1536TIP3    H1 4572   6.856   3.879   0.019 -2.2320  1.6568 -1.4458
 1536TIP3    H2 4573   6.879   3.730   0.010  0.5733  1.8365  1.1821
 1537TIP3   OH2 4574   0.057   1.040   5.063 -0.4038  0.4684 -0.3005
 1537TIP3    H1 4575   0.147   1.073   5.060 -0.0974 -0.1335  1.4598
 1537TIP3    H2 4576   0.054   0.972   4.996  0.8049 -0.3029  0.3977
 1538TIP3   OH2 4577   6.112  -0.001   4.752  0.6554 -0.1246  0.1879
 1538TIP3    H1 4578   6.115  -0.023   4.658 -3.8332 -0.2380 -0.1431
 1538TIP3    H2 4579   6.154   0.085   4.758  2.1243 -0.6447 -1.6822
 1539TIP3   OH2 4580   3.390   1.977   0.619  0.3254  0.0321  0.1296
 1539TIP3    H1 4581   3.458   2.032   0.580 -0.0753 -0.0649 -0.7232
 1539TIP3    H2 4582   3.312   2.033   0.622  0.7803  0.6642  2.5218
 1540TIP3   OH2 4583   4.666   0.720   1.107 -0.2337  0.0304 -0.1536
 1540TIP3    H1 4584   4.698   0.796   1.154 -0.7286  0.1320  0.0268
 1540TIP3    H2 4585   4.745   0.676   1.075  0.0759  0.3069  0.2261
 1541TIP3   OH2 4586   5.124   5.452   0.957  0.3689  0.5189  0.6625
 1541TIP3    H1 4587   5.181   5.475   1.030 -1.6948  1.7531  1.9945
 1541TIP3    H2 4588   5.038   5.438   0.997 -0.7544  0.8205 -1.4914
 1542TIP3   OH2 4589   2.445   0.859   5.503  0.1101 -0.3273 -0.2147
 1542TIP3    H1 4590   2.483   0.821   5.582 -0.8311 -1.0400 -0.0898
 1542TIP3    H2 4591   2.379   0.796   5.475 -1.2057  1.0070 -0.2389
 1543TIP3   OH2 4592   6.543   3.506   2.256  0.6560 -0.0126 -0.6663
 1543TIP3    H1 4593   6.512   3.550   2.176  0.9009  1.3104 -0.0483
 1543TIP3    H2 4594   6.485   3.429   2.264  0.9038 -0.4252 -2.3349
 1544TIP3   OH2 4595   5.483   3.437   2.955 -0.2221  0.1161 -0.7738
 1544TIP3    H1 4596   5.537   3.436   2.876  0.1579  0.8003 -0.5226
 1544TIP3    H2 4597   5.539   3.399   3.023  0.1602  1.3511 -0.3799
 1545TIP3   OH2 4598   4.112   2.583   1.073 -0.4288 -0.9292 -0.0260
 1545TIP3    H1 4599   4.099   2.493   1.101  1.0652 -0.7703  1.3451
 1545TIP3    H2 4600   4.029   2.627   1.093 -0.8589 -1.7996  0.1257
 1546TIP3   OH2 4601   5.309   0.707   2.514  0.3876  0.6422 -0.2151
 1546TIP3    H1 4602   5.250   0.776   2.545 -0.1816 -0.5767  1.5634
 1546TIP3    H2 4603   5.396   0.738   2.536  0.1831  1.0393  0.0358
 1547TIP3   OH2 4604   0.432   0.706   1.981  0.2553  0.2597  0.0905
 1547TIP3    H1 4605   0.461   0.749   1.900 -1.1545 -0.7808 -1.0270
 1547TIP3    H2 4606   0.354   0.754   2.008 -1.1020 -1.2239 -0.9520
 1548TIP3   OH2 4607   5.942   1.367   1.047  0.4175 -0.1168 -0.1034
 1548TIP3    H1 4608   5.957   1.417   0.966 -0.1518  0.1370 -0.0553
 1548TIP3    H2 4609   5.947   1.432   1.117 -0.3445 -0.1179 -0.0422
 1549TIP3   OH2 4610   6.594   3.004   3.384  0.4459 -0.7917 -0.0112
 1549TIP3    H1 4611   6.621   3.017   3.293  1.4676 -0.3282  0.3407
 1549TIP3    H2 4612   6.517   3.059   3.395  0.0361 -1.2187 -0.7217
 1550TIP3   OH2 4613   1.696   6.677   2.290 -0.9648 -0.6558  0.0411
 1550TIP3    H1 4614   1.686   6.617   2.363  0.8511 -1.3346 -0.2244
 1550TIP3    H2 4615   1.664   6.761   2.324 -1.1171 -1.1827  1.2521
 1551TIP3   OH2 4616   3.281   6.388   4.223 -0.5357  0.2234  0.5251
 1551TIP3    H1 4617   3.259   6.412   4.133 -1.6771  0.7191  0.9224
 1551TIP3    H2 4618   3.367   6.427   4.237 -1.0466  1.5327  0.1634
 1552TIP3   OH2 4619   0.160   5.191   2.197 -0.7893  0.3701 -0.3846
 1552TIP3    H1 4620   0.081   5.168   2.147 -1.5987  2.5006 -0.2053
 1552TIP3    H2 4621   0.165   5.125   2.266 -0.5639 -1.6885 -2.2673
 1553TIP3   OH2 4622   3.597   0.062   1.872 -0.2549 -0.3432  0.1925
 1553TIP3    H1 4623   3.554  -0.001   1.814 -0.0788 -1.2507  1.0227
 1553TIP3    H2 4624   3.589   0.146   1.826 -0.4096 -0.9748 -0.9790
 1554TIP3   OH2 4625   2.581   3.317   5.691 -0.3301 -0.6984  0.6758
 1554TIP3    H1 4626   2.632   3.265   5.629 -0.9618  0.1531 -0.5981
 1554TIP3    H2 4627   2.546   3.389   5.639 -0.2545  0.4850  2.1966
 1555TIP3   OH2 4628   1.901   1.041   5.515  0.5461 -0.4118  0.3646
 1555TIP3    H1 4629   1.900   1.008   5.425 -1.2110  0.1309  0.1395
 1555TIP3    H2 4630   1.822   1.005   5.554 -0.9180  2.5639  0.4218
 1556TIP3   OH2 4631   4.246   5.953   4.870  0.0974 -0.6519 -1.3924
 1556TIP3    H1 4632   4.297   5.897   4.929  1.1979 -0.2158 -1.9127
 1556TIP3    H2 4633   4.277   5.931   4.782  1.6920  1.7832 -1.5532
 1557TIP3   OH2 4634   1.611   2.271   4.105  0.1846 -0.0878 -0.5607
 1557TIP3    H1 4635   1.608   2.191   4.157 -0.0421  1.3654  1.7881
 1557TIP3    H2 4636   1.679   2.324   4.146 -0.8638  1.6308 -0.9475
 1558TIP3   OH2 4637   1.161   2.682   5.150 -0.0266 -0.3606  0.2452
 1558TIP3    H1 4638   1.066   2.688   5.136 -0.5938 -2.9352  2.2231
 1558TIP3    H2 4639   1.171   2.688   5.245  1.5547 -2.0726  0.2336
 1559TIP3   OH2 4640   4.611   4.725   0.787 -0.7661  0.6587  0.0116
 1559TIP3    H1 4641   4.575   4.804   0.746  2.0111  2.1575  0.2433
 1559TIP3    H2 4642   4.602   4.741   0.881 -1.5410 -0.0102  0.0631
 1560TIP3   OH2 4643   2.342   4.669   2.515  0.0643 -0.2722  0.4638
 1560TIP3    H1 4644   2.341   4.751   2.467  1.0059 -0.1391  0.6332
 1560TIP3    H2 4645   2.289   4.609   2.463 -0.7407  0.4789  0.4091
 1561TIP3   OH2 4646   1.413   4.604   5.558 -0.3851  0.0018  0.1919
 1561TIP3    H1 4647   1.466   4.545   5.610 -0.3614 -0.3418 -0.2126
 1561TIP3    H2 4648   1.475   4.645   5.497 -0.6854 -1.0287 -0.8572
 1562TIP3   OH2 4649   1.062   5.831   2.350  0.0072  0.3338  0.2740
 1562TIP3    H1 4650   1.060   5.920   2.386  1.1364  0.4178  0.1731
 1562TIP3    H2 4651   0.982   5.825   2.298 -1.0048  0.6617  1.7008
 1563TIP3   OH2 4652   2.952   4.492   1.518 -0.3173 -0.4568 -0.0675
 1563TIP3    H1 4653   2.920   4.411   1.558  0.1795 -0.8517 -0.4548
 1563TIP3    H2 4654   2.909   4.562   1.567 -1.3524 -0.9646 -0.2309
 1564TIP3   OH2 4655   6.904   0.965   2.220 -0.8441  0.0382 -0.1844
 1564TIP3    H1 4656   6.886   1.059   2.224 -2.4713 -0.2441  0.0650
 1564TIP3    H2 4657   6.907   0.938   2.312 -1.1314 -0.2705 -0.2640
 1565TIP3   OH2 4658   5.337   6.031   2.727 -0.1269  0.0305  0.0951
 1565TIP3    H1 4659   5.326   6.010   2.820 -0.5756  0.1662  0.0729
 1565TIP3    H2 4660   5.249   6.053   2.696 -0.1249 -0.8200 -0.5631
 1566TIP3   OH2 4661   6.687   3.915   2.181  0.4346 -0.4269  0.3267
 1566TIP3    H1 4662   6.697   4.002   2.142  0.8906 -0.3591  0.5896
 1566TIP3    H2 4663   6.622   3.926   2.249  0.5878 -0.2633  0.4466
 1567TIP3   OH2 4664   5.665   4.671   0.862  0.3701 -0.1608  0.1234
 1567TIP3    H1 4665   5.761   4.662   0.861  0.2307 -2.5310  1.1490
 1567TIP3    H2 4666   5.642   4.668   0.955 -0.7368  0.2753 -0.1217
 1568TIP3   OH2 4667   4.592   6.088   5.344 -0.1606 -0.3047  0.5266
 1568TIP3    H1 4668   4.596   6.071   5.250 -0.3426  3.0094 -0.2019
 1568TIP3    H2 4669   4.506   6.056   5.371 -0.6155 -0.2009 -0.7324
 1569TIP3   OH2 4670   4.136   3.451   5.660 -0.0110  0.3182  0.5070
 1569TIP3    H1 4671   4.059   3.452   5.604  0.5186  0.2315 -0.2358
 1569TIP3    H2 4672   4.118   3.383   5.725 -0.9806  0.9780  0.9534
 1570TIP3   OH2 4673   2.121   3.899   4.137  0.4432  0.2406 -0.4319
 1570TIP3    H1 4674   2.150   3.808   4.145 -0.7546 -0.1490 -0.3242
 1570TIP3    H2 4675   2.095   3.923   4.226 -0.5174  0.2385 -0.7095
 1571TIP3   OH2 4676   2.617   5.570   5.598  0.0103  0.3660  0.9090
 1571TIP3    H1 4677   2.705   5.537   5.616  0.4515  1.2909  0.5587
 1571TIP3    H2 4678   2.558   5.500   5.626  0.8764 -0.4885  0.6485
 1572TIP3   OH2 4679   3.866   2.801   0.870  0.5044  0.1789  0.1610
 1572TIP3    H1 4680   3.789   2.840   0.911  0.2187 -0.5618  0.3342
 1572TIP3    H2 4681   3.939   2.828   0.925  0.2578  0.1160  0.5186
 1573TIP3   OH2 4682   5.419   4.030   0.243  0.3074  0.0839  0.5007
 1573TIP3    H1 4683   5.400   4.114   0.201 -0.3964 -0.7135 -0.8551
 1573TIP3    H2 4684   5.367   3.966   0.194  0.7372 -1.1369  1.5702
 1574TIP3   OH2 4685   6.714   0.544   5.815  0.1788 -0.1352 -0.0359
 1574TIP3    H1 4686   6.761   0.475   5.767  0.6806 -0.0020  0.2551
 1574TIP3    H2 4687   6.623   0.515   5.814  0.1745 -0.1284 -1.0838
 1575TIP3   OH2 4688   7.047   4.158   2.740  0.7139  0.0927  0.3958
 1575TIP3    H1 4689   7.137   4.131   2.719  1.0253  0.8806  0.6471
 1575TIP3    H2 4690   7.040   4.146   2.834  1.3408  2.1391  0.7570
 1576TIP3   OH2 4691   5.243   0.716   4.600 -0.6918 -0.1026  0.0351
 1576TIP3    H1 4692   5.187   0.638   4.603 -0.6109 -0.1762 -0.3105
 1576TIP3    H2 4693   5.332   0.681   4.604 -0.6188 -0.1063 -1.1164
 1577TIP3   OH2 4694   0.777   5.915   3.387  0.1238 -0.1237 -0.4009
 1577TIP3    H1 4695   0.710   5.851   3.361 -0.6022  0.5099 -0.1345
 1577TIP3    H2 4696   0.735   5.966   3.456  0.8017  0.4509 -0.4066
 1578TIP3   OH2 4697   4.820   1.285   2.491 -0.2718  0.2115 -0.2160
 1578TIP3    H1 4698   4.727   1.303   2.506 -0.0546 -0.3098  2.2723
 1578TIP3    H2 4699   4.863   1.369   2.508 -0.2216  0.2499 -0.5366
 1579TIP3   OH2 4700   2.719   0.942   3.267  0.3709 -0.3747 -0.0364
 1579TIP3    H1 4701   2.683   1.024   3.301 -0.0929 -1.5653  2.5648
 1579TIP3    H2 4702   2.810   0.963   3.245 -0.3571  1.3679 -1.7379
 1580TIP3   OH2 4703   0.125   2.244   1.036  0.3451 -0.2483  0.0486
 1580TIP3    H1 4704   0.164   2.315   0.987  2.4954 -0.9894  0.5913
 1580TIP3    H2 4705   0.099   2.180   0.969  1.5106 -0.4250 -0.2426
 1581TIP3   OH2 4706   0.797   0.337   3.045 -0.0857 -0.3529  0.2204
 1581TIP3    H1 4707   0.821   0.409   3.104  0.0414 -1.6901  1.9009
 1581TIP3    H2 4708   0.881   0.303   3.014 -0.1153 -0.1959 -0.0286
 1582TIP3   OH2 4709   1.333   4.935   3.505 -0.4190  0.2738 -0.1706
 1582TIP3    H1 4710   1.363   4.903   3.420 -0.5062 -1.0144  0.2638
 1582TIP3    H2 4711   1.398   4.903   3.567 -1.9397 -1.4593  0.6252
 1583TIP3   OH2 4712   3.163   5.404   2.028  0.3181  0.1389 -0.2653
 1583TIP3    H1 4713   3.218   5.381   1.953  1.4669  0.5160  0.4330
 1583TIP3    H2 4714   3.075   5.409   1.992  0.7965 -0.0070 -1.5265
 1584TIP3   OH2 4715   1.962   2.624   1.736 -0.0947 -0.6468  0.1415
 1584TIP3    H1 4716   1.957   2.664   1.823  0.3656 -0.7139  0.1990
 1584TIP3    H2 4717   1.910   2.682   1.681 -0.6663 -0.7797  0.5236
 1585TIP3   OH2 4718   2.444   3.393   3.213  0.1672  0.1090  0.0433
 1585TIP3    H1 4719   2.379   3.437   3.268 -0.2431 -0.9666  0.4467
 1585TIP3    H2 4720   2.466   3.458   3.146 -3.9724 -0.5223 -2.3239
 1586TIP3   OH2 4721   0.331   0.918   3.286 -0.4032  0.1851 -0.5981
 1586TIP3    H1 4722   0.337   1.010   3.259 -0.2501  0.1404 -0.7204
 1586TIP3    H2 4723   0.285   0.875   3.214  1.1118 -0.1758 -1.4054
 1587TIP3   OH2 4724   2.239   3.049   5.560  0.1288 -0.1188  0.3936
 1587TIP3    H1 4725   2.172   3.000   5.606  1.6866 -1.8367  0.9681
 1587TIP3    H2 4726   2.200   3.070   5.475 -1.0391 -1.2529  0.6271
 1588TIP3   OH2 4727   6.321   1.572   5.549 -0.3536 -0.1906  0.0182
 1588TIP3    H1 4728   6.232   1.584   5.518 -0.5235  2.6466  1.3168
 1588TIP3    H2 4729   6.312   1.518   5.628 -0.7393 -1.0513 -0.6034
 1589TIP3   OH2 4730   0.140   3.345   2.997  0.3059  0.1655  0.3587
 1589TIP3    H1 4731   0.092   3.383   3.070 -0.8220 -0.9804  0.2598
 1589TIP3    H2 4732   0.072   3.322   2.933  1.2283  0.7359 -0.8584
 1590TIP3   OH2 4733   3.978   5.269   4.338 -0.4956 -0.1614  0.4995
 1590TIP3    H1 4734   3.935   5.355   4.345 -3.2627 -1.4878  1.0680
 1590TIP3    H2 4735   4.042   5.269   4.409 -1.2405  1.0488  1.2151
 1591TIP3   OH2 4736   1.635   3.525   4.158  0.7204  0.2513  0.1982
 1591TIP3    H1 4737   1.553   3.572   4.142  1.1054  0.7149 -0.4564
 1591TIP3    H2 4738   1.702   3.578   4.115  1.3604 -0.1479  0.6874
 1592TIP3   OH2 4739   4.442   0.573   3.894  0.0227  0.4857  0.1127
 1592TIP3    H1 4740   4.419   0.492   3.940  0.8554  0.3577  0.3311
 1592TIP3    H2 4741   4.360   0.604   3.857 -0.4423 -0.0675  0.6553
 1593TIP3   OH2 4742   6.806   0.855   3.759  0.1996 -0.5042 -0.4237
 1593TIP3    H1 4743   6.873   0.794   3.729  0.1837 -0.4788 -0.5104
 1593TIP3    H2 4744   6.731   0.839   3.702 -0.5535 -1.8685  0.8979
 1594TIP3   OH2 4745   6.539   6.227   5.049 -0.3614 -0.2480 -0.1616
 1594TIP3    H1 4746   6.591   6.184   4.981 -0.0095 -0.4210  0.2189
 1594TIP3    H2 4747   6.599   6.238   5.123 -0.8042 -0.2706  0.2057
 1595TIP3   OH2 4748   2.784   6.320   3.393  0.3094  0.4143  0.3751
 1595TIP3    H1 4749   2.778   6.254   3.463 -0.7805 -0.0045 -0.0858
 1595TIP3    H2 4750   2.761   6.402   3.436 -0.8996  0.0778  0.4288
 1596TIP3   OH2 4751   6.033   2.980   2.947 -0.4541 -0.2611 -0.1867
 1596TIP3    H1 4752   6.055   3.066   2.981 -0.4973  0.9271 -2.9362
 1596TIP3    H2 4753   6.095   2.920   2.990  0.6172  1.3419  0.5875
 1597TIP3   OH2 4754   1.933   1.131   3.504  0.1433  0.3203  0.0110
 1597TIP3    H1 4755   1.895   1.152   3.589  1.3097  1.5530  0.2720
 1597TIP3    H2 4756   1.859   1.102   3.450 -0.7527  0.4020  1.1594
 1598TIP3   OH2 4757   1.274   3.719   2.925 -0.2090  0.8157  0.2116
 1598TIP3    H1 4758   1.366   3.697   2.907  0.0855  2.6390 -0.7347
 1598TIP3    H2 4759   1.224   3.654   2.875  0.5824  0.7183 -0.4823
 1599TIP3   OH2 4760   6.539   3.973   0.385 -0.0326  0.2747 -0.5539
 1599TIP3    H1 4761   6.591   3.940   0.311  0.0210  2.2668 -1.4593
 1599TIP3    H2 4762   6.493   4.049   0.350 -0.0122  1.2704  1.4596
 1600TIP3   OH2 4763   5.977   2.624   4.773 -0.0291 -0.7215  0.0799
 1600TIP3    H1 4764   6.070   2.644   4.759  0.1041 -0.6371  0.9894
 1600TIP3    H2 4765   5.931   2.673   4.705  0.6824 -1.9236 -1.3004
 1601TIP3   OH2 4766   0.520   3.387   2.476  0.0054 -0.0782 -0.6720
 1601TIP3    H1 4767   0.600   3.405   2.526 -0.7228  1.0288  0.1589
 1601TIP3    H2 4768   0.522   3.450   2.404  1.0502 -1.6693 -2.1079
 1602TIP3   OH2 4769   1.602   4.456   2.512  0.1387  0.0472 -0.3258
 1602TIP3    H1 4770   1.524   4.512   2.517 -0.6286 -0.7139 -2.7635
 1602TIP3    H2 4771   1.622   4.435   2.604 -2.9894 -0.3747  0.3611
 1603TIP3   OH2 4772   6.862   5.329   2.460 -0.3659 -0.2815 -0.1266
 1603TIP3    H1 4773   6.928   5.262   2.476 -0.9842 -0.7587  0.5201
 1603TIP3    H2 4774   6.875   5.355   2.369  0.6164 -0.4638 -0.0423
 1604TIP3   OH2 4775   3.977   1.617   0.090 -0.7954  0.2235 -0.3360
 1604TIP3    H1 4776   3.938   1.700   0.119 -1.4147  0.8595 -2.7617
 1604TIP3    H2 4777   3.989   1.567   0.171 -0.8277  2.4802  1.1648
 1605TIP3   OH2 4778   4.799   0.744   5.403  0.1769  0.7707 -0.2802
 1605TIP3    H1 4779   4.849   0.664   5.421  0.6131  1.1191  0.0737
 1605TIP3    H2 4780   4.754   0.764   5.485 -0.7772  0.3062 -0.6768
 1606TIP3   OH2 4781   4.504   5.615   2.251  0.5492  0.7525  0.3205
 1606TIP3    H1 4782   4.454   5.594   2.172  0.8063  1.3201 -0.0002
 1606TIP3    H2 4783   4.439   5.619   2.321  0.5328 -1.6566  0.5447
 1607TIP3   OH2 4784   2.987   6.294   4.205 -0.1540  0.2445 -0.0728
 1607TIP3    H1 4785   2.999   6.300   4.299  0.8633  0.5119 -0.2141
 1607TIP3    H2 4786   3.006   6.203   4.183  0.3770  0.3633 -0.1192
 1608TIP3   OH2 4787   0.917   3.678   4.600 -0.0126 -0.3616 -0.3517
 1608TIP3    H1 4788   0.885   3.735   4.669  0.6253  0.5312 -0.7760
 1608TIP3    H2 4789   0.986   3.626   4.641 -0.0863 -0.3014 -0.1526
 1609TIP3   OH2 4790   0.335   1.776   2.260 -0.7223 -0.4508  0.2225
 1609TIP3    H1 4791   0.311   1.748   2.172 -0.4276  1.4518 -0.5132
 1609TIP3    H2 4792   0.393   1.851   2.247  1.4405 -1.6784  2.0069
 1610TIP3   OH2 4793   5.992   0.186   2.299  0.1852 -0.0397  0.0919
 1610TIP3    H1 4794   6.043   0.106   2.294  1.3853  0.6862  0.4361
 1610TIP3    H2 4795   6.017   0.226   2.382 -0.6497  0.5340  0.0851
 1611TIP3   OH2 4796   5.349   5.995   2.999 -0.0496  0.5684 -0.1859
 1611TIP3    H1 4797   5.283   6.063   2.990 -1.1611 -0.4795 -0.2159
 1611TIP3    H2 4798   5.359   5.983   3.093  2.2452  2.6956 -0.0609
 1612TIP3   OH2 4799   6.731   2.476   3.877  0.5543 -0.7712 -0.1159
 1612TIP3    H1 4800   6.696   2.525   3.803 -1.5905 -1.7204  0.2060
 1612TIP3    H2 4801   6.740   2.541   3.947  0.6332 -0.2631 -0.5916
 1613TIP3   OH2 4802   2.973   3.821   2.650 -0.0063  0.2584  0.4807
 1613TIP3    H1 4803   2.935   3.880   2.584  0.7899  0.6280  0.3416
 1613TIP3    H2 4804   2.898   3.773   2.684 -0.4829  0.3058 -0.4527
 1614TIP3   OH2 4805   1.315   5.983   1.337 -0.5786 -0.0106 -0.2353
 1614TIP3    H1 4806   1.296   5.892   1.315 -1.9217  0.2721 -0.3276
 1614TIP3    H2 4807   1.244   6.009   1.397 -0.4994  1.1206 -0.6097
 1615TIP3   OH2 4808   3.376   1.767   2.916  0.1567  0.3974 -0.0772
 1615TIP3    H1 4809   3.374   1.792   3.008 -1.6836  0.9436 -0.2123
 1615TIP3    H2 4810   3.345   1.845   2.869 -0.1588 -0.2750 -1.0337
 1616TIP3   OH2 4811   6.828   4.169   2.973  0.5926 -0.4088 -0.7846
 1616TIP3    H1 4812   6.791   4.082   2.959 -0.4716 -0.0198 -0.5331
 1616TIP3    H2 4813   6.770   4.209   3.038  1.0407  0.5061 -0.9284
 1617TIP3   OH2 4814   3.663   1.858   3.947  0.4235  0.2600  0.6565
 1617TIP3    H1 4815   3.611   1.799   3.892  0.9249  0.4173 -0.0049
 1617TIP3    H2 4816   3.649   1.827   4.036 -1.3544  0.7349  0.5696
 1618TIP3   OH2 4817   2.031   0.350   2.857  0.5111  0.2224  0.2933
 1618TIP3    H1 4818   2.000   0.410   2.924 -0.6542  0.1802 -0.1886
 1618TIP3    H2 4819   1.992   0.382   2.776 -0.3042 -1.3016  0.0611
 1619TIP3   OH2 4820   5.749   2.076   3.041  0.5164  0.3921  0.1222
 1619TIP3    H1 4821   5.672   2.041   2.996  0.8251  0.7584 -0.7228
 1619TIP3    H2 4822   5.787   2.138   2.978  1.9262 -0.3458  0.2066
 1620TIP3   OH2 4823   5.526   5.416   4.363  0.1325 -0.2302  0.4859
 1620TIP3    H1 4824   5.452   5.437   4.305 -0.8838 -2.1024  1.0118
 1620TIP3    H2 4825   5.592   5.378   4.305  1.1950  2.3604 -0.1537
 1621TIP3   OH2 4826   6.755   4.526   4.655  0.1785  0.4689 -0.4133
 1621TIP3    H1 4827   6.831   4.469   4.647  0.6409  0.8573  0.9716
 1621TIP3    H2 4828   6.689   4.486   4.598  1.5872  0.4609 -2.0925
 1622TIP3   OH2 4829   4.455   4.520   1.308  0.3496  0.1182  0.0412
 1622TIP3    H1 4830   4.490   4.471   1.234  0.2051  0.2130 -0.0911
 1622TIP3    H2 4831   4.392   4.581   1.269  0.7067  0.5765  0.1740
 1623TIP3   OH2 4832   4.875   6.301   1.722  0.2521 -0.0939  0.0819
 1623TIP3    H1 4833   4.876   6.363   1.649 -1.3845  0.1060  0.1869
 1623TIP3    H2 4834   4.830   6.348   1.792  0.8256 -0.6800  0.8511
 1624TIP3   OH2 4835   2.757   3.991   0.218  0.1205 -0.5190 -0.0272
 1624TIP3    H1 4836   2.832   3.969   0.163 -0.2293 -2.5762  0.2143
 1624TIP3    H2 4837   2.746   3.914   0.275 -2.0891 -0.2468  0.0004
 1625TIP3   OH2 4838   0.684   2.907   2.612 -0.4418 -0.4696  0.1216
 1625TIP3    H1 4839   0.774   2.874   2.618 -0.7535 -1.1518  1.2548
 1625TIP3    H2 4840   0.642   2.850   2.548 -0.2376 -0.5361  0.0435
 1626TIP3   OH2 4841   6.176   3.734   3.901  0.0973  0.2739  0.5390
 1626TIP3    H1 4842   6.125   3.801   3.856  2.0755  2.0608  0.7508
 1626TIP3    H2 4843   6.249   3.783   3.940  1.5426 -1.9991  0.8663
 1627TIP3   OH2 4844   6.224   3.058   4.727  0.1548  0.2757 -0.0796
 1627TIP3    H1 4845   6.317   3.058   4.708  0.2571  1.4348  0.3100
 1627TIP3    H2 4846   6.214   3.122   4.798 -0.7108 -1.0432  1.0414
 1628TIP3   OH2 4847   7.012   6.672   4.430 -0.1731 -0.4057 -0.2119
 1628TIP3    H1 4848   6.989   6.633   4.346  0.4215 -2.1409  0.3841
 1628TIP3    H2 4849   7.093   6.721   4.412 -0.7148  0.2753 -0.8859
 1629TIP3   OH2 4850   6.979   2.612   2.936  0.2418  0.2927 -0.3558
 1629TIP3    H1 4851   7.013   2.701   2.942 -1.9651  1.1595  0.8555
 1629TIP3    H2 4852   6.973   2.582   3.027  1.3294 -1.2848 -0.7612
 1630TIP3   OH2 4853   2.743   4.490   1.146 -0.6306  0.1347  0.1970
 1630TIP3    H1 4854   2.804   4.426   1.183 -2.2442 -0.6606  1.6787
 1630TIP3    H2 4855   2.796   4.568   1.130  0.7101 -0.3905  1.7604
 1631TIP3   OH2 4856   2.253   6.490   4.303 -0.2559  0.2133  0.0987
 1631TIP3    H1 4857   2.277   6.399   4.292 -1.6851 -0.2375  0.4569
 1631TIP3    H2 4858   2.188   6.507   4.234  1.7865  1.7183 -1.5987
 1632TIP3   OH2 4859   2.723   6.734   3.488  0.2970  0.1383 -0.1997
 1632TIP3    H1 4860   2.717   6.757   3.581  0.0427 -1.4611  0.2229
 1632TIP3    H2 4861   2.813   6.755   3.464  0.0946  1.4707  0.1265
 1633TIP3   OH2 4862   0.171   6.051   0.836 -0.1104  0.5218  0.2255
 1633TIP3    H1 4863   0.257   6.092   0.824  0.3978 -0.4446  0.4082
 1633TIP3    H2 4864   0.183   5.962   0.803 -0.2211 -0.5002  2.7519
 1634TIP3   OH2 4865   0.109   6.512   3.762  0.0905  0.4092  0.0836
 1634TIP3    H1 4866   0.025   6.523   3.806  0.0481  0.8825 -0.1001
 1634TIP3    H2 4867   0.126   6.418   3.765 -0.2878  0.3472  0.4079
 1635TIP3   OH2 4868   1.366   6.582   0.543  0.4018 -0.3061  0.4841
 1635TIP3    H1 4869   1.351   6.677   0.543  0.0172 -0.3623 -0.1929
 1635TIP3    H2 4870   1.461   6.573   0.534  0.4627  0.0135  0.7742
 1636TIP3   OH2 4871   3.549   3.878   2.884 -0.5944 -0.2668 -0.0203
 1636TIP3    H1 4872   3.459   3.906   2.899 -1.0219 -1.3213 -0.5968
 1636TIP3    H2 4873   3.570   3.912   2.797 -0.5270 -0.2778 -0.0081
 1637TIP3   OH2 4874   5.829   1.966   0.304 -0.4445 -0.3325 -0.7503
 1637TIP3    H1 4875   5.822   2.002   0.393  1.3612  0.1902 -0.7828
 1637TIP3    H2 4876   5.872   2.036   0.254 -3.9363  0.5732 -2.8052
 1638TIP3   OH2 4877   3.859   0.136   0.153 -0.2189  0.1767  0.4019
 1638TIP3    H1 4878   3.917   0.115   0.227  0.7418  1.1493 -0.0397
 1638TIP3    H2 4879   3.916   0.130   0.076 -1.0692 -0.2534 -0.2086
 1639TIP3   OH2 4880   5.682   5.838   3.339  0.0281 -0.1966  0.4119
 1639TIP3    H1 4881   5.613   5.776   3.312  0.7026 -1.7383  2.0156
 1639TIP3    H2 4882   5.665   5.916   3.287 -1.9672 -1.0920 -0.4096
 1640TIP3   OH2 4883   2.532   1.359   2.066 -0.4548 -0.4172 -0.0616
 1640TIP3    H1 4884   2.517   1.452   2.053  0.2851 -0.5240 -2.0406
 1640TIP3    H2 4885   2.624   1.353   2.092 -0.6540 -0.5694  0.6297
 1641TIP3   OH2 4886   3.527   3.798   3.741  0.3035 -0.5247 -0.6907
 1641TIP3    H1 4887   3.552   3.745   3.666  1.1526  0.0699 -0.8458
 1641TIP3    H2 4888   3.595   3.865   3.747 -0.0434 -0.2335  0.2801
 1642TIP3   OH2 4889   3.118   3.955   1.987  0.2080  0.6787 -0.2140
 1642TIP3    H1 4890   3.038   3.914   2.020 -1.6632  3.3693 -1.1372
 1642TIP3    H2 4891   3.127   3.921   1.898  1.0628 -0.8557  0.4221
 1643TIP3   OH2 4892   2.540   5.749   1.210 -0.4425  0.1834 -0.3460
 1643TIP3    H1 4893   2.445   5.737   1.207 -0.7086  0.9427  2.2164
 1643TIP3    H2 4894   2.555   5.833   1.167 -0.7374 -0.4921 -1.8421
 1644TIP3   OH2 4895   6.091   1.530   5.863  0.1781 -0.1216 -0.1228
 1644TIP3    H1 4896   6.097   1.435   5.873 -0.9456 -0.2663 -0.7466
 1644TIP3    H2 4897   6.176   1.562   5.893  1.3277 -1.4707 -1.7562
 1645TIP3   OH2 4898   4.834   5.685   3.208 -0.3514  0.1022  0.0103
 1645TIP3    H1 4899   4.820   5.763   3.261 -1.1627  0.2575 -0.4309
 1645TIP3    H2 4900   4.747   5.648   3.195  0.0457 -1.0741  0.4989
 1646TIP3   OH2 4901   4.727   5.074   4.808 -0.3050  0.0207  0.2924
 1646TIP3    H1 4902   4.725   4.996   4.753  1.3312 -0.2283  0.5213
 1646TIP3    H2 4903   4.708   5.042   4.896  2.0593 -0.5014  0.7027
 1647TIP3   OH2 4904   2.478   2.591   5.258 -0.0249 -0.0463  0.3189
 1647TIP3    H1 4905   2.532   2.518   5.288 -0.7345 -0.0760  1.5769
 1647TIP3    H2 4906   2.519   2.668   5.299  1.3760  0.4601 -1.8520
 1648TIP3   OH2 4907   2.708   6.192   0.015  0.3065  0.1850 -0.4621
 1648TIP3    H1 4908   2.724   6.098   0.006 -1.1554 -0.0754 -0.5391
 1648TIP3    H2 4909   2.792   6.233  -0.008  1.0445 -1.1022 -0.1406
 1649TIP3   OH2 4910   0.247   2.475   2.390 -0.4005 -0.0417 -0.4724
 1649TIP3    H1 4911   0.203   2.531   2.455 -2.2411 -2.2046  0.2737
 1649TIP3    H2 4912   0.289   2.406   2.442 -1.2747 -1.3936 -1.4948
 1650TIP3   OH2 4913   7.032   1.097   3.876 -0.0642 -0.2998  0.2293
 1650TIP3    H1 4914   7.054   1.041   3.951 -1.4682  0.3250  1.1482
 1650TIP3    H2 4915   6.937   1.094   3.872 -0.1768  1.9199  0.2473
 1651TIP3   OH2 4916   4.820   1.548   3.288  0.2342  0.0210 -0.4157
 1651TIP3    H1 4917   4.829   1.642   3.303 -0.2687 -0.0014  0.0787
 1651TIP3    H2 4918   4.726   1.535   3.276  0.2169 -0.5097  0.2208
 1652TIP3   OH2 4919   6.698   2.859   4.047 -0.2979 -0.2290 -0.4356
 1652TIP3    H1 4920   6.648   2.940   4.034  1.7858  0.7037 -3.9521
 1652TIP3    H2 4921   6.781   2.888   4.084 -0.1205 -0.9562 -0.2510
 1653TIP3   OH2 4922   5.288   4.954   1.757  0.6045  0.1742  0.5773
 1653TIP3    H1 4923   5.282   4.915   1.844 -1.2185  0.1439  0.4771
 1653TIP3    H2 4924   5.322   4.884   1.702  1.8166  0.2072  1.2413
 1654TIP3   OH2 4925   1.075   2.472   5.541  0.3304 -0.5983 -0.3274
 1654TIP3    H1 4926   0.984   2.502   5.545 -0.2692 -2.3963  0.4000
 1654TIP3    H2 4927   1.074   2.400   5.478  1.6033  0.4017 -1.5494
 1655TIP3   OH2 4928   3.454   0.431   5.692 -0.0207  0.0965  0.0783
 1655TIP3    H1 4929   3.408   0.347   5.693 -1.3406  0.7864  0.2927
 1655TIP3    H2 4930   3.403   0.487   5.751  1.8550  0.5450  1.3654
 1656TIP3   OH2 4931   0.740   5.751   3.109 -0.4095 -0.3482  0.2113
 1656TIP3    H1 4932   0.834   5.762   3.094  0.3676 -4.1568  1.1532
 1656TIP3    H2 4933   0.733   5.729   3.202 -2.5371  1.6899  0.6271
 1657TIP3   OH2 4934   0.165   4.820   1.472 -0.2870 -0.2419  0.0724
 1657TIP3    H1 4935   0.120   4.834   1.389 -1.0889 -1.9340  0.1929
 1657TIP3    H2 4936   0.234   4.757   1.452 -0.5931 -0.7951  0.7036
 1658TIP3   OH2 4937   1.014   5.615   4.127 -0.0235 -0.3343 -0.4764
 1658TIP3    H1 4938   1.039   5.695   4.173 -0.0392  0.1270 -1.2435
 1658TIP3    H2 4939   1.061   5.545   4.172  0.7124  0.2248 -0.3539
 1659TIP3   OH2 4940   6.046   1.995   5.610 -0.2980 -0.0861 -0.6232
 1659TIP3    H1 4941   6.076   1.934   5.543 -1.0997 -1.2319  0.0279
 1659TIP3    H2 4942   6.019   1.939   5.683  0.5014  1.1262  0.6509
 1660TIP3   OH2 4943   6.027   4.812   3.466 -0.1723 -0.5038  0.4796
 1660TIP3    H1 4944   5.941   4.786   3.498 -0.2265 -0.8000  0.0965
 1660TIP3    H2 4945   6.011   4.842   3.376  0.3056 -1.7148 -0.0296
 1661TIP3   OH2 4946   1.544   6.579   5.014 -0.6779  0.1337  0.3132
 1661TIP3    H1 4947   1.606   6.652   5.018  1.1300 -1.3232 -0.1405
 1661TIP3    H2 4948   1.461   6.617   5.044  0.3416  2.2132  0.6770
 1662TIP3   OH2 4949   5.500   5.137   1.693 -0.2410 -0.1307 -0.5882
 1662TIP3    H1 4950   5.555   5.101   1.762  1.8630  1.2982 -1.4447
 1662TIP3    H2 4951   5.420   5.084   1.696  1.0265 -2.0752  0.9048
 1663TIP3   OH2 4952   3.994   6.405   2.085 -0.3465  0.4853 -0.6223
 1663TIP3    H1 4953   4.038   6.465   2.144 -1.2849  2.2394 -1.6168
 1663TIP3    H2 4954   4.030   6.425   1.999  0.2279 -1.2928 -0.8436
 1664TIP3   OH2 4955   0.752   3.415   2.647 -0.5582 -0.2604 -0.4820
 1664TIP3    H1 4956   0.742   3.404   2.741  1.7362  0.0025 -0.1567
 1664TIP3    H2 4957   0.760   3.325   2.613  0.2920 -0.3137 -0.1739
 1665TIP3   OH2 4958   1.684   5.893   4.207  0.0112  0.1652 -0.3310
 1665TIP3    H1 4959   1.672   5.919   4.298 -0.6911 -0.9079 -0.0929
 1665TIP3    H2 4960   1.613   5.937   4.159 -0.4507 -0.3451 -0.1270
 1666TIP3   OH2 4961   1.977   4.773   0.946  0.3251 -0.0595 -0.3873
 1666TIP3    H1 4962   1.901   4.729   0.982  0.2996  0.7122  0.5297
 1666TIP3    H2 4963   1.965   4.767   0.851 -2.7101  2.9744 -0.4136
 1667TIP3   OH2 4964   2.338   3.462   2.547 -0.7530  0.2743  1.1033
 1667TIP3    H1 4965   2.282   3.477   2.471  1.0664  0.9561 -0.1756
 1667TIP3    H2 4966   2.309   3.526   2.612 -1.3291  0.7248  0.4172
 1668TIP3   OH2 4967   6.341   5.940   3.549  0.2433  0.0623 -0.4047
 1668TIP3    H1 4968   6.341   5.961   3.455  1.9482  2.8080  0.0911
 1668TIP3    H2 4969   6.398   6.006   3.588 -0.5372 -0.8972  2.6270
 1669TIP3   OH2 4970   4.045   0.624   4.261  0.0890 -0.1951 -0.2152
 1669TIP3    H1 4971   4.124   0.642   4.211  0.8227 -1.0139  0.6064
 1669TIP3    H2 4972   4.065   0.658   4.349 -0.4103 -0.5333  0.0326
 1670TIP3   OH2 4973   1.294   0.902   5.764 -0.1802  0.3577  0.2218
 1670TIP3    H1 4974   1.273   0.972   5.702  0.4834  1.9902  1.7486
 1670TIP3    H2 4975   1.306   0.825   5.710 -1.6739  1.2458 -1.4664
 1671TIP3   OH2 4976   3.010   0.581   4.730  0.7837 -0.2454  0.0097
 1671TIP3    H1 4977   2.986   0.609   4.819 -1.6819  0.9657 -0.9377
 1671TIP3    H2 4978   3.030   0.663   4.684  0.0162 -0.6489 -1.0692
 1672TIP3   OH2 4979   2.206   6.173   0.132 -0.3129  0.4257 -0.1700
 1672TIP3    H1 4980   2.233   6.264   0.128 -1.2998  0.7113 -0.9848
 1672TIP3    H2 4981   2.230   6.144   0.220  0.5220  1.2954 -0.0976
 1673TIP3   OH2 4982   3.650   1.300   3.562 -0.0009  0.4926  0.5955
 1673TIP3    H1 4983   3.571   1.288   3.615  0.4789 -1.1584  0.9908
 1673TIP3    H2 4984   3.722   1.273   3.620  0.6843  0.2862 -0.3275
 1674TIP3   OH2 4985   0.469   1.940   2.551 -0.3939  0.0583  0.0683
 1674TIP3    H1 4986   0.465   1.916   2.643 -2.3276  0.4504  0.1184
 1674TIP3    H2 4987   0.379   1.934   2.520  0.2964 -0.6518 -1.9730
 1675TIP3   OH2 4988   5.982   6.034   5.657 -0.0042  0.6341 -0.3842
 1675TIP3    H1 4989   6.000   6.103   5.593 -0.0096  0.8773 -0.1244
 1675TIP3    H2 4990   6.043   6.051   5.729  0.5398 -0.0955 -0.6597
 1676TIP3   OH2 4991   0.281   2.285   1.352 -0.5941  0.4215  0.2679
 1676TIP3    H1 4992   0.294   2.226   1.278  3.1275 -0.5867  1.4552
 1676TIP3    H2 4993   0.314   2.370   1.322  1.2933 -0.0804  0.7240
 1677TIP3   OH2 4994   1.713   6.063   5.455 -0.2330  0.1893  0.1113
 1677TIP3    H1 4995   1.701   6.117   5.533 -1.7893  1.7481 -1.1258
 1677TIP3    H2 4996   1.654   5.988   5.469  1.2357 -0.7896  1.4095
 1678TIP3   OH2 4997   4.962   1.953   2.824  0.4106  0.1264 -0.6974
 1678TIP3    H1 4998   4.935   2.041   2.848  0.0318 -0.3238  0.5683
 1678TIP3    H2 4999   4.995   1.962   2.734  1.0832  1.6833 -0.3201
 1679TIP3   OH2 5000   4.220   4.863   2.589 -0.0325  0.2333 -0.1568
 1679TIP3    H1 5001   4.163   4.923   2.541 -2.4886 -1.5165  0.3947
 1679TIP3    H2 5002   4.220   4.783   2.537  1.8443  0.1011 -0.0349
 1680TIP3   OH2 5003   2.832   0.001   1.552  0.2627  0.2237 -0.6278
 1680TIP3    H1 5004   2.847   0.095   1.551 -0.4189  0.3347 -0.6086
 1680TIP3    H2 5005   2.737  -0.009   1.558  0.2302 -0.4591 -1.9243
 1681TIP3   OH2 5006   4.218   6.740   0.748  0.3444  0.3746 -0.2710
 1681TIP3    H1 5007   4.207   6.653   0.787  0.0224  0.8071  0.6449
 1681TIP3    H2 5008   4.312   6.755   0.747  0.3862  0.1157 -0.1848
 1682TIP3   OH2 5009   1.210   0.615   0.579  0.1956 -0.0248  0.3897
 1682TIP3    H1 5010   1.173   0.546   0.633 -1.1055  1.9700  2.2235
 1682TIP3    H2 5011   1.302   0.590   0.568  0.2496 -1.0505  2.6626
 1683TIP3   OH2 5012   3.623   4.918   1.538 -0.5136  0.2823 -0.0065
 1683TIP3    H1 5013   3.634   4.995   1.594 -1.4299  1.1456 -0.9491
 1683TIP3    H2 5014   3.564   4.860   1.586  1.0169 -0.3408  1.1757
 1684TIP3   OH2 5015   3.605   0.211   1.148  0.5366 -0.1127 -0.0231
 1684TIP3    H1 5016   3.678   0.213   1.210  1.8670 -2.5711 -1.3811
 1684TIP3    H2 5017   3.573   0.121   1.151  1.3010 -0.6225 -3.5302
 1685TIP3   OH2 5018   3.533   5.120   2.124  0.4304 -0.4066  0.6639
 1685TIP3    H1 5019   3.492   5.075   2.198 -1.0744 -0.1450  0.0211
 1685TIP3    H2 5020   3.517   5.213   2.141 -0.9007 -0.3936 -0.5052
 1686TIP3   OH2 5021   1.592   5.688   2.188  0.1506 -0.6892 -0.3409
 1686TIP3    H1 5022   1.521   5.751   2.197  0.3415 -0.2445 -1.7168
 1686TIP3    H2 5023   1.667   5.731   2.229 -0.1161 -0.7546  0.2375
 1687TIP3   OH2 5024   0.442   2.041   1.529  0.0905  0.3619  0.0286
 1687TIP3    H1 5025   0.492   2.072   1.454 -0.3903  0.9718 -0.0424
 1687TIP3    H2 5026   0.484   1.958   1.553 -0.7516 -0.7132 -1.9525
 1688TIP3   OH2 5027   5.912   3.379   1.536 -0.3013 -0.1183 -0.0482
 1688TIP3    H1 5028   5.960   3.297   1.551 -0.7574 -0.1148  1.6656
 1688TIP3    H2 5029   5.929   3.400   1.444  0.8623 -1.4650 -0.1844
 1689TIP3   OH2 5030   5.814   5.643   2.361 -0.0494 -0.1737  0.1716
 1689TIP3    H1 5031   5.723   5.626   2.338 -0.1911 -1.2662  1.4123
 1689TIP3    H2 5032   5.838   5.570   2.418  0.7362  1.5141  2.1216
 1690TIP3   OH2 5033   0.666   2.699   0.758  0.0763 -0.2050  0.2019
 1690TIP3    H1 5034   0.673   2.636   0.830  1.0220 -0.0252  0.2762
 1690TIP3    H2 5035   0.644   2.646   0.682 -2.6816 -0.2296  0.8855
 1691TIP3   OH2 5036   7.108   2.650   4.046  0.0289  0.3144 -0.0526
 1691TIP3    H1 5037   7.158   2.614   4.119  0.6915 -3.1542 -2.0237
 1691TIP3    H2 5038   7.020   2.665   4.082  0.3600 -1.1821  1.4882
 1692TIP3   OH2 5039   6.094   1.099   0.802  0.1868  0.0299 -0.2300
 1692TIP3    H1 5040   6.099   1.015   0.756 -1.0699  0.1392 -0.5812
 1692TIP3    H2 5041   6.055   1.078   0.887  0.4179  0.1753 -0.0856
 1693TIP3   OH2 5042   3.431   2.589   0.764  0.2879  0.1326  0.0222
 1693TIP3    H1 5043   3.371   2.609   0.692  0.4194  0.7554  0.0773
 1693TIP3    H2 5044   3.427   2.666   0.821  0.7215 -0.0534  0.3106
 1694TIP3   OH2 5045   2.002   1.672   1.452 -0.4629 -0.0284  0.2923
 1694TIP3    H1 5046   2.065   1.739   1.478 -1.3508  0.1498  2.1604
 1694TIP3    H2 5047   1.972   1.699   1.365  0.4641  1.0214  0.2796
 1695TIP3   OH2 5048   5.719   0.630   1.656  0.1208 -0.1602  0.1114
 1695TIP3    H1 5049   5.692   0.548   1.697  1.4891  0.4037  2.2657
 1695TIP3    H2 5050   5.793   0.606   1.600 -0.4483 -0.5981 -0.4772
 1696TIP3   OH2 5051   4.182   4.662   3.762  0.5531 -0.2484  0.0896
 1696TIP3    H1 5052   4.122   4.736   3.773  2.3811  1.2728  0.6046
 1696TIP3    H2 5053   4.181   4.643   3.668 -0.5466 -0.1191  0.0667
 1697TIP3   OH2 5054   2.481   4.324   4.077 -0.1901 -0.3227  0.4017
 1697TIP3    H1 5055   2.484   4.246   4.022 -1.6268  0.4356 -0.8368
 1697TIP3    H2 5056   2.539   4.387   4.033 -1.2848  0.2600 -0.2529
 1698TIP3   OH2 5057   5.176   3.778   2.842  0.4563 -0.4485 -0.1115
 1698TIP3    H1 5058   5.198   3.835   2.768  1.8336 -1.0206 -0.1505
 1698TIP3    H2 5059   5.083   3.757   2.828  0.2131  0.8841 -0.6941
 1699TIP3   OH2 5060   4.509   1.463   5.377 -0.2175  0.0709 -0.5135
 1699TIP3    H1 5061   4.580   1.433   5.322  1.0658  0.8298  0.6662
 1699TIP3    H2 5062   4.548   1.473   5.464 -2.1191 -0.9180  0.5291
 1700TIP3   OH2 5063   1.828   6.524   3.519 -0.8603 -0.2331 -0.0477
 1700TIP3    H1 5064   1.803   6.613   3.546 -0.1008 -0.2522  0.7713
 1700TIP3    H2 5065   1.775   6.507   3.441 -1.7894  0.5312  0.3951
 1701TIP3   OH2 5066   4.743   1.286   4.224 -0.3819  0.7102  0.0596
 1701TIP3    H1 5067   4.692   1.300   4.144 -1.8354  0.3296  0.8679
 1701TIP3    H2 5068   4.705   1.207   4.262  1.1364  0.1642  0.4888
 1702TIP3   OH2 5069   6.018   4.036   3.283  0.6936 -0.0725  1.1403
 1702TIP3    H1 5070   5.976   4.067   3.363 -1.3396  1.1897 -0.3282
 1702TIP3    H2 5071   5.946   4.020   3.223  2.1948 -0.3751 -0.6652
 1703TIP3   OH2 5072   5.846   3.141   2.794 -0.2635  0.5579 -0.2569
 1703TIP3    H1 5073   5.783   3.088   2.745 -0.2818 -0.5130  0.8830
 1703TIP3    H2 5074   5.924   3.086   2.799  0.0991  1.0906  0.0111
 1704TIP3   OH2 5075   6.453   6.175   5.295 -0.1890 -0.1609 -0.7529
 1704TIP3    H1 5076   6.446   6.125   5.213 -1.7627 -0.3988 -0.5098
 1704TIP3    H2 5077   6.542   6.211   5.294  1.1504 -3.1646 -0.8350
 1705TIP3   OH2 5078   2.440   1.803   0.090  0.0782 -0.1471 -0.6641
 1705TIP3    H1 5079   2.353   1.784   0.054 -0.3450  0.6007 -0.0828
 1705TIP3    H2 5080   2.451   1.898   0.078  1.0169 -0.3036 -1.1426
 1706TIP3   OH2 5081   4.049   1.568   5.533  0.3770 -0.1178 -0.7783
 1706TIP3    H1 5082   4.101   1.491   5.510 -0.2546 -0.3540 -1.4680
 1706TIP3    H2 5083   4.111   1.641   5.529  1.0238 -0.6069  0.0665
 1707TIP3   OH2 5084   3.402   4.005   5.207  0.1226  0.4476  0.4952
 1707TIP3    H1 5085   3.470   4.040   5.148 -0.5544  0.4147 -0.3282
 1707TIP3    H2 5086   3.450   3.948   5.267  0.6851 -0.6263 -0.9019
 1708TIP3   OH2 5087   2.226   3.282   4.285  0.3706  0.4102  0.0324
 1708TIP3    H1 5088   2.146   3.323   4.317  0.7228  0.5460  0.7876
 1708TIP3    H2 5089   2.294   3.315   4.344  0.6046 -1.6055  1.0012
 1709TIP3   OH2 5090   4.066   0.091   1.089  0.0538  0.6327  0.6287
 1709TIP3    H1 5091   4.111   0.054   1.165 -1.9613  1.1230  2.1728
 1709TIP3    H2 5092   4.125   0.158   1.056  0.6168  1.0537  2.3634
 1710TIP3   OH2 5093   5.678   2.134   0.867 -0.1174 -0.0510  0.2391
 1710TIP3    H1 5094   5.584   2.131   0.848  0.0516 -1.2837 -0.5215
 1710TIP3    H2 5095   5.693   2.059   0.925  0.3669  0.2886  0.5643
 1711TIP3   OH2 5096   0.483   4.693   2.937  0.0620 -0.2407  0.6823
 1711TIP3    H1 5097   0.431   4.763   2.976 -0.8269 -1.5849  2.0201
 1711TIP3    H2 5098   0.574   4.713   2.962 -0.2025  0.3073  1.2131
 1712TIP3   OH2 5099   4.278   3.199   4.466  0.0976 -0.4651 -0.4475
 1712TIP3    H1 5100   4.325   3.281   4.451 -1.7468  0.6307 -0.4913
 1712TIP3    H2 5101   4.337   3.147   4.520  0.3396  1.8760  1.6968
 1713TIP3   OH2 5102   0.910   2.495   0.029 -0.4915  0.1753 -1.2106
 1713TIP3    H1 5103   0.881   2.583   0.005  0.0673  0.9561  0.8297
 1713TIP3    H2 5104   0.833   2.440   0.014 -2.1824  1.7098  1.2762
 1714TIP3   OH2 5105   5.765   4.856   1.318 -0.2381 -0.1927  0.5166
 1714TIP3    H1 5106   5.785   4.808   1.239 -1.3163  0.4501 -0.1663
 1714TIP3    H2 5107   5.704   4.801   1.366 -0.9304  0.1706  0.0658
 1715TIP3   OH2 5108   6.825   2.632   4.137 -0.4346 -0.4968 -0.4090
 1715TIP3    H1 5109   6.831   2.610   4.230 -0.0959  0.6781 -0.1310
 1715TIP3    H2 5110   6.780   2.716   4.135  0.3224 -0.0941 -1.2392
 1716TIP3   OH2 5111   0.661   3.158   2.290  0.5732 -0.7808 -0.3489
 1716TIP3    H1 5112   0.690   3.075   2.252  0.5032  0.1303 -2.5493
 1716TIP3    H2 5113   0.626   3.207   2.215  2.2171  1.9216  0.5220
 1717TIP3   OH2 5114   3.732   2.164   4.637  0.5498  0.3428 -0.4529
 1717TIP3    H1 5115   3.806   2.133   4.688  0.6029 -0.3938 -0.9638
 1717TIP3    H2 5116   3.743   2.259   4.633  1.5441  0.2264 -0.6389
 1718TIP3   OH2 5117   7.093   0.869   5.725  0.9687  0.5552  0.0706
 1718TIP3    H1 5118   7.142   0.863   5.807  0.2396 -3.0974  0.3983
 1718TIP3    H2 5119   7.136   0.806   5.666  0.4174  1.8385 -1.7991
 1719TIP3   OH2 5120   5.139   1.878   0.839  0.5204  0.1933  0.2899
 1719TIP3    H1 5121   5.059   1.856   0.791  1.9546  2.9930 -3.9169
 1719TIP3    H2 5122   5.110   1.938   0.907 -1.1314 -0.3368  0.1084
 1720TIP3   OH2 5123   6.244   0.663   2.768 -0.1777  0.1282  0.3358
 1720TIP3    H1 5124   6.325   0.618   2.791  0.0038 -0.2682 -0.9797
 1720TIP3    H2 5125   6.176   0.598   2.780  0.0844 -0.5518 -1.5659
 1721TIP3   OH2 5126   2.885   3.126   0.947 -0.2454  0.4638  0.0352
 1721TIP3    H1 5127   2.796   3.161   0.948  0.2981  1.8965 -0.1589
 1721TIP3    H2 5128   2.941   3.203   0.939  1.0016 -0.4523 -0.2657
 1722TIP3   OH2 5129   5.654   2.159   4.974  0.2369 -0.0831 -0.5125
 1722TIP3    H1 5130   5.633   2.083   4.919 -0.4985  0.2541 -0.7056
 1722TIP3    H2 5131   5.598   2.229   4.941  2.1243  1.0487 -1.4477
 1723TIP3   OH2 5132   3.419   6.477   1.183  0.0765  0.1171 -0.0967
 1723TIP3    H1 5133   3.343   6.477   1.125  0.7155  0.7546 -0.9834
 1723TIP3    H2 5134   3.384   6.458   1.270 -1.0254 -0.0460 -0.5600
 1724TIP3   OH2 5135   5.975   4.948   0.383  0.0358  0.2077 -0.3146
 1724TIP3    H1 5136   5.910   4.999   0.431  0.0037  1.1187 -1.2946
 1724TIP3    H2 5137   5.924   4.891   0.326 -0.0060  2.5717 -2.8308
 1725TIP3   OH2 5138   4.498   0.086   5.219  0.3935 -0.1286 -0.1513
 1725TIP3    H1 5139   4.562   0.033   5.267  0.1815  0.5044  0.8731
 1725TIP3    H2 5140   4.415   0.040   5.231  0.7129 -1.2174 -1.9004
 1726TIP3   OH2 5141   1.570   3.986   0.156 -0.4165  0.0196 -0.5502
 1726TIP3    H1 5142   1.494   4.015   0.207  0.1928 -0.4265  0.6490
 1726TIP3    H2 5143   1.593   4.062   0.102 -0.8366  0.6577  0.1509
 1727TIP3   OH2 5144   5.273   3.471   0.494  0.3780 -0.2691  0.0848
 1727TIP3    H1 5145   5.366   3.480   0.514  0.1802 -0.5921  1.2191
 1727TIP3    H2 5146   5.254   3.378   0.507  0.2510 -0.5474 -1.8181
 1728TIP3   OH2 5147   0.865   0.763   1.601  0.2806  0.1965  0.2940
 1728TIP3    H1 5148   0.803   0.744   1.672  0.3360 -1.4880 -0.0645
 1728TIP3    H2 5149   0.902   0.677   1.579  2.8828  1.1564  0.6077
 1729TIP3   OH2 5150   5.440   2.582   5.307 -0.6246  0.2336  0.2586
 1729TIP3    H1 5151   5.477   2.513   5.253  0.7899  0.7408  0.5432
 1729TIP3    H2 5152   5.386   2.633   5.247  0.9084  0.7888 -0.7036
 1730TIP3   OH2 5153   4.659   4.231   2.619  0.3741  0.2501  0.3404
 1730TIP3    H1 5154   4.594   4.236   2.689  0.0106  1.3089 -0.0508
 1730TIP3    H2 5155   4.608   4.243   2.539  1.2748  3.6200  0.1455
 1731TIP3   OH2 5156   4.509   3.087   1.736 -0.1684  0.6341 -0.3740
 1731TIP3    H1 5157   4.500   2.999   1.774  0.4923  0.9725  0.6044
 1731TIP3    H2 5158   4.481   3.076   1.645  1.9713 -1.1064 -0.9355
 1732TIP3   OH2 5159   5.783   2.778   3.768  0.2922 -0.5540  0.2823
 1732TIP3    H1 5160   5.735   2.857   3.794  1.0263 -0.0786  0.2383
 1732TIP3    H2 5161   5.727   2.705   3.795 -0.3888 -0.0134  0.3337
 1733TIP3   OH2 5162   6.427   1.720   0.342  0.0265 -0.3374  0.1820
 1733TIP3    H1 5163   6.359   1.709   0.275  0.6940 -1.1573 -0.3754
 1733TIP3    H2 5164   6.497   1.769   0.297 -0.0338  0.1907  0.6501
 1734TIP3   OH2 5165   3.291   1.984   4.058 -0.0788  0.2318  0.1546
 1734TIP3    H1 5166   3.326   2.034   3.984  0.8379 -0.9677 -0.2523
 1734TIP3    H2 5167   3.196   1.999   4.054  0.0752  1.0816 -0.5805
 1735TIP3   OH2 5168   3.453   0.734   2.982 -0.2133  0.3202  0.1275
 1735TIP3    H1 5169   3.540   0.773   2.972 -0.7445  1.6377  0.3116
 1735TIP3    H2 5170   3.460   0.648   2.942  1.1617  0.4249  0.0923
 1736TIP3   OH2 5171   4.530   6.598   2.169  0.3972  0.4319 -0.0622
 1736TIP3    H1 5172   4.466   6.579   2.237 -0.0188  1.7339 -0.0539
 1736TIP3    H2 5173   4.580   6.517   2.159  0.5281  0.2281  1.8453
 1737TIP3   OH2 5174   5.127   5.148   2.016 -0.1672 -0.3717 -0.2365
 1737TIP3    H1 5175   5.185   5.072   2.009  0.3044 -0.0622  0.2927
 1737TIP3    H2 5176   5.186   5.223   2.018 -0.4657 -0.1337  2.1420
 1738TIP3   OH2 5177   5.787   6.644   0.272 -0.7721  0.0034  0.2296
 1738TIP3    H1 5178   5.763   6.557   0.241 -3.2721  0.5718  0.3475
 1738TIP3    H2 5179   5.797   6.634   0.366  0.1797 -0.3840  0.0956
 1739TIP3   OH2 5180   3.899   2.889   4.677 -0.0771  0.2966 -0.4069
 1739TIP3    H1 5181   3.973   2.897   4.737 -0.3997  0.0010  0.0379
 1739TIP3    H2 5182   3.854   2.809   4.704 -0.7269  0.6269 -0.4722
 1740TIP3   OH2 5183   0.240   6.327   5.438  0.1406  0.1453  0.2367
 1740TIP3    H1 5184   0.207   6.412   5.408 -1.3859 -0.0133  1.3206
 1740TIP3    H2 5185   0.213   6.323   5.530  0.6949 -1.2750  0.3533
 1741TIP3   OH2 5186   0.881   3.107   4.411 -0.2149  0.3151  0.1008
 1741TIP3    H1 5187   0.933   3.032   4.440  0.7451  0.0888 -2.0627
 1741TIP3    H2 5188   0.802   3.068   4.373 -1.0882  0.5849  1.5188
 1742TIP3   OH2 5189   4.983   0.286   5.853 -0.1230  0.6026 -0.8018
 1742TIP3    H1 5190   4.968   0.315   5.943 -0.7058  2.4876 -1.4568
 1742TIP3    H2 5191   4.900   0.303   5.808 -0.1131 -1.0725 -1.5482
 1743TIP3   OH2 5192   1.580   1.609   2.837  0.0290  0.2794 -0.6481
 1743TIP3    H1 5193   1.531   1.560   2.772 -1.0249  0.2824  0.1233
 1743TIP3    H2 5194   1.581   1.552   2.914 -1.1021  1.4041  0.2202
 1744TIP3   OH2 5195   6.515   6.369   1.707  0.6189  0.2106 -0.4266
 1744TIP3    H1 5196   6.565   6.339   1.783  0.8416  2.8539  0.5802
 1744TIP3    H2 5197   6.437   6.314   1.707  0.9435 -0.3209  1.3372
 1745TIP3   OH2 5198   5.103   4.929   5.505  0.1579 -0.3626  0.7430
 1745TIP3    H1 5199   5.014   4.965   5.515 -0.0487 -0.7103  0.2187
 1745TIP3    H2 5200   5.129   4.955   5.417 -0.1201 -1.7327  0.2228
 1746TIP3   OH2 5201   5.914   3.392   1.967 -0.2413 -0.1335 -0.2028
 1746TIP3    H1 5202   5.948   3.325   1.908  3.4276  0.7298  0.7042
 1746TIP3    H2 5203   5.907   3.471   1.913 -0.5162 -0.2252 -0.3048
 1747TIP3   OH2 5204   4.918   5.744   1.716  0.1642  0.1098 -0.1222
 1747TIP3    H1 5205   4.897   5.832   1.687  1.5871  0.2695 -0.7617
 1747TIP3    H2 5206   5.013   5.745   1.730  0.4385 -1.6803 -1.5250
 1748TIP3   OH2 5207   5.919   1.996   2.760 -0.2761 -0.2477  0.1417
 1748TIP3    H1 5208   5.852   2.064   2.773 -0.1476 -0.0114 -0.3979
 1748TIP3    H2 5209   5.951   2.011   2.671  0.0655 -0.7439  0.1780
 1749TIP3   OH2 5210   3.575   4.806   4.332 -0.3436 -0.1790 -0.2599
 1749TIP3    H1 5211   3.668   4.811   4.354  0.1350 -2.8052 -1.2784
 1749TIP3    H2 5212   3.567   4.856   4.251 -0.0737  0.9315  0.3699
 1750TIP3   OH2 5213   0.053   4.867   2.617 -0.2862  0.1286  0.2058
 1750TIP3    H1 5214   0.125   4.866   2.680 -0.9946 -1.2996  1.0556
 1750TIP3    H2 5215   0.060   4.783   2.572 -1.1549  0.1586 -0.0030
 1751TIP3   OH2 5216   1.958   0.427   4.379  0.4923 -0.6333 -0.9686
 1751TIP3    H1 5217   1.898   0.449   4.451  2.1379  1.5134 -0.1667
 1751TIP3    H2 5218   1.912   0.358   4.331 -2.2786  0.3365  0.0487
 1752TIP3   OH2 5219   1.272   1.799   4.999 -0.1372 -0.2247 -0.1624
 1752TIP3    H1 5220   1.222   1.861   5.052 -0.3317  0.1267 -0.7459
 1752TIP3    H2 5221   1.354   1.845   4.979 -0.8947  0.4884 -1.8751
 1753TIP3   OH2 5222   6.903   0.181   1.335  0.5080  0.2560  0.5759
 1753TIP3    H1 5223   6.951   0.246   1.284  1.5093  0.8342  2.1806
 1753TIP3    H2 5224   6.969   0.142   1.392 -0.7909  0.6418  2.4243
 1754TIP3   OH2 5225   6.003   4.867   3.965 -0.1478  0.1631 -0.0773
 1754TIP3    H1 5226   5.932   4.833   3.911 -0.3644  2.2426 -1.1797
 1754TIP3    H2 5227   6.082   4.822   3.933 -0.5954 -0.3291 -0.5115
 1755TIP3   OH2 5228   7.155   1.502   5.342  0.0545 -0.7000 -0.5594
 1755TIP3    H1 5229   7.132   1.438   5.275 -0.7702 -2.7377  1.5314
 1755TIP3    H2 5230   7.234   1.468   5.382  1.3498  1.2292 -1.3334
 1756TIP3   OH2 5231   2.170   4.029   0.917 -0.1240  0.1033  0.2567
 1756TIP3    H1 5232   2.135   3.964   0.856 -0.7728  0.2805  0.4257
 1756TIP3    H2 5233   2.163   4.112   0.871  0.8021  0.0472  0.0012
 1757TIP3   OH2 5234   4.209   6.255   0.963 -0.1061 -0.6308 -0.0746
 1757TIP3    H1 5235   4.236   6.209   0.883 -2.2346  0.3879 -1.4731
 1757TIP3    H2 5236   4.142   6.198   1.002 -0.2576 -0.3469  0.0807
 1758TIP3   OH2 5237   6.453   5.755   1.001  0.1206  0.5306  0.7679
 1758TIP3    H1 5238   6.510   5.737   0.926 -3.3126  0.4853 -2.1087
 1758TIP3    H2 5239   6.399   5.829   0.973 -1.4355  0.3967  3.1396
 1759TIP3   OH2 5240   2.826   0.092   5.421  0.0125  0.0200 -0.9044
 1759TIP3    H1 5241   2.797   0.062   5.507  0.9798 -2.7245 -1.4261
 1759TIP3    H2 5242   2.757   0.066   5.361  0.7402 -0.9390 -1.3443
 1760TIP3   OH2 5243   4.387   4.443   4.406 -0.0123  0.6250 -0.0059
 1760TIP3    H1 5244   4.309   4.386   4.409  0.5710 -0.1856  0.0769
 1760TIP3    H2 5245   4.383   4.484   4.320  0.4101 -0.8032 -0.7426
 1761TIP3   OH2 5246   1.864   1.461   1.171 -0.2192 -0.0755  0.3255
 1761TIP3    H1 5247   1.774   1.437   1.194  0.0375 -0.8731  0.5679
 1761TIP3    H2 5248   1.881   1.415   1.089 -0.9989  2.4585 -1.3696
 1762TIP3   OH2 5249   0.755   0.961   4.469  0.0730  0.1208  0.9223
 1762TIP3    H1 5250   0.676   0.915   4.440 -0.2621  0.6038  1.0531
 1762TIP3    H2 5251   0.826   0.899   4.453 -0.0757  0.3863 -1.0037
 1763TIP3   OH2 5252   0.174   0.132   4.432  0.1006 -0.0452 -0.1826
 1763TIP3    H1 5253   0.091   0.170   4.406 -0.1472 -0.2490  0.2942
 1763TIP3    H2 5254   0.201   0.182   4.510  1.4521  1.3979 -1.5054
 1764TIP3   OH2 5255   1.366   4.968   5.542 -0.5073  0.1402  0.1270
 1764TIP3    H1 5256   1.436   4.939   5.483 -1.0651 -0.8146 -0.0773
 1764TIP3    H2 5257   1.412   5.011   5.614  0.2430  0.2817 -0.4234
 1765TIP3   OH2 5258   2.656   4.996   3.137  0.8861  0.2889  0.2035
 1765TIP3    H1 5259   2.686   4.921   3.086  0.1975  1.0482 -1.4042
 1765TIP3    H2 5260   2.566   4.975   3.160  0.5063  0.8463 -0.7389
 1766TIP3   OH2 5261   4.875   3.576   4.036 -0.2757  0.0990  0.2459
 1766TIP3    H1 5262   4.926   3.516   4.091  1.3536  0.1872 -1.1019
 1766TIP3    H2 5263   4.893   3.548   3.946  0.5064  2.5347 -0.4382
 1767TIP3   OH2 5264   3.036   2.063   0.664  0.2533  0.1908 -0.5142
 1767TIP3    H1 5265   3.106   2.127   0.677 -0.2558  1.0600 -1.8533
 1767TIP3    H2 5266   3.000   2.049   0.751  1.8131  0.0301  0.1389
 1768TIP3   OH2 5267   5.507   3.983   3.472  0.0513 -0.2338 -0.0233
 1768TIP3    H1 5268   5.524   4.025   3.387  0.7574  0.5353  0.4793
 1768TIP3    H2 5269   5.413   3.994   3.485 -0.2698 -1.3564 -1.2113
 1769TIP3   OH2 5270   1.242   5.331   3.041  0.4681 -0.8272  0.1814
 1769TIP3    H1 5271   1.292   5.265   3.090 -0.3286 -1.1146  0.6319
 1769TIP3    H2 5272   1.192   5.377   3.108 -1.0176 -1.5456 -0.3854
 1770TIP3   OH2 5273   6.082   5.798   1.036 -0.2754 -0.4761 -0.3297
 1770TIP3    H1 5274   6.079   5.881   1.084 -2.0115 -0.5998 -0.1546
 1770TIP3    H2 5275   6.144   5.814   0.965 -1.2541  1.2967 -0.8458
 1771TIP3   OH2 5276   1.836   3.829   2.648  0.0655 -0.2378 -0.0752
 1771TIP3    H1 5277   1.811   3.901   2.590 -0.0867  0.2712  0.6036
 1771TIP3    H2 5278   1.756   3.778   2.659 -0.0342 -0.0559  0.0657
 1772TIP3   OH2 5279   5.086   0.683   3.213  0.3716 -0.3497  0.2754
 1772TIP3    H1 5280   5.100   0.725   3.129  1.0263  0.9988  1.0274
 1772TIP3    H2 5281   4.991   0.676   3.222  0.3042 -0.5978 -0.6059
 1773TIP3   OH2 5282   5.781   1.541   0.499 -0.1646 -0.1277  0.5654
 1773TIP3    H1 5283   5.764   1.492   0.418  1.1353 -0.5198  0.5203
 1773TIP3    H2 5284   5.876   1.542   0.508 -0.2854 -0.3865  2.2775
 1774TIP3   OH2 5285   6.246   5.705   4.761 -0.1248 -0.3012 -0.0423
 1774TIP3    H1 5286   6.201   5.642   4.817 -0.2940 -0.5670 -0.4712
 1774TIP3    H2 5287   6.278   5.773   4.821  0.3372 -0.9542  0.4646
 1775TIP3   OH2 5288   6.128   0.029   0.320  0.0010 -0.4740 -0.0732
 1775TIP3    H1 5289   6.042   0.061   0.292 -0.1158 -1.0660 -0.4227
 1775TIP3    H2 5290   6.123   0.026   0.416 -0.6067 -1.1288 -0.1153
 1776TIP3   OH2 5291   1.914   1.461   0.457  0.2266 -0.1186  0.2384
 1776TIP3    H1 5292   1.861   1.476   0.380 -0.3377 -0.5909  0.5294
 1776TIP3    H2 5293   1.928   1.548   0.495  0.4451  0.1049 -0.3438
 1777TIP3   OH2 5294   1.396   0.969   1.298 -0.4616  0.5928 -0.3287
 1777TIP3    H1 5295   1.370   1.024   1.372 -2.0477 -0.7378  0.1524
 1777TIP3    H2 5296   1.403   1.030   1.225 -2.6381  1.4297  0.0722
 1778TIP3   OH2 5297   5.474   0.278   3.701 -0.0673 -0.3492  0.2624
 1778TIP3    H1 5298   5.537   0.268   3.773 -2.0516  0.6881  2.2616
 1778TIP3    H2 5299   5.460   0.189   3.669  1.6020 -0.7169  0.4668
 1779TIP3   OH2 5300   1.867   3.845   4.613 -0.2351 -0.2320 -0.0267
 1779TIP3    H1 5301   1.864   3.928   4.660  1.4623 -0.6581  0.9173
 1779TIP3    H2 5302   1.775   3.824   4.595 -1.0171 -0.0707  3.1750
 1780TIP3   OH2 5303   2.839   4.481   0.148 -0.7722 -0.0597  0.1650
 1780TIP3    H1 5304   2.934   4.482   0.136 -0.6453  2.3521  0.7629
 1780TIP3    H2 5305   2.821   4.402   0.198  0.8933 -0.6502 -0.1259
 1781TIP3   OH2 5306   5.544   3.203   4.452 -0.1402 -0.4835  0.2592
 1781TIP3    H1 5307   5.617   3.161   4.407  0.9863  1.2747  0.3697
 1781TIP3    H2 5308   5.564   3.193   4.545 -0.4954 -0.7455  0.3115
 1782TIP3   OH2 5309   2.563   2.536   2.045 -0.5514  0.4706  0.1880
 1782TIP3    H1 5310   2.474   2.568   2.060 -0.9341 -0.4559 -0.0876
 1782TIP3    H2 5311   2.618   2.614   2.055 -1.4687  1.2179 -0.4652
 1783TIP3   OH2 5312   3.176   5.559   2.991  0.0491  0.1608 -0.1130
 1783TIP3    H1 5313   3.136   5.523   3.070  0.8074 -0.6562 -0.0904
 1783TIP3    H2 5314   3.269   5.567   3.012  0.0256  1.3837 -0.4055
 1784TIP3   OH2 5315   1.157   6.720   0.194  0.3063  0.2003  0.6677
 1784TIP3    H1 5316   1.079   6.696   0.144  0.0133  0.2754  1.0839
 1784TIP3    H2 5317   1.209   6.773   0.133 -0.3348  0.8092  0.6434
 1785TIP3   OH2 5318   0.057   1.344   5.152 -0.0834  0.2014  0.2691
 1785TIP3    H1 5319   0.082   1.287   5.225  1.6060  0.0063 -0.4068
 1785TIP3    H2 5320   0.133   1.400   5.139 -1.0120  1.3696 -0.2740
 1786TIP3   OH2 5321   1.306   1.484   2.187 -0.1285  0.3759  0.3740
 1786TIP3    H1 5322   1.317   1.505   2.280  0.4889 -1.1114  0.6663
 1786TIP3    H2 5323   1.327   1.390   2.181 -0.9736  0.2528 -1.1272
 1787TIP3   OH2 5324   4.583   5.532   3.000 -0.2402  0.0832 -0.1875
 1787TIP3    H1 5325   4.598   5.503   3.090 -1.5846  0.3565  0.1553
 1787TIP3    H2 5326   4.488   5.547   2.996 -0.4514 -1.3536 -2.0730
 1788TIP3   OH2 5327   3.284   4.240   2.496 -0.0249  0.3685 -0.2734
 1788TIP3    H1 5328   3.310   4.298   2.568 -0.7710  0.9909 -0.4912
 1788TIP3    H2 5329   3.298   4.292   2.417  2.0661 -0.7716 -0.7100
 1789TIP3   OH2 5330   5.970   3.680   2.594  0.6373  0.0708 -0.3947
 1789TIP3    H1 5331   5.939   3.619   2.661  3.0572 -1.2683 -0.3834
 1789TIP3    H2 5332   5.915   3.758   2.605 -1.3631 -1.3991  0.7826
 1790TIP3   OH2 5333   4.678   5.251   5.576  0.4337  0.2209 -0.3840
 1790TIP3    H1 5334   4.704   5.343   5.577  1.7230 -0.0851  2.3036
 1790TIP3    H2 5335   4.761   5.203   5.576 -0.2079 -0.9128 -0.1174
 1791TIP3   OH2 5336   5.673   4.085   4.389 -0.2561 -0.1403  0.0909
 1791TIP3    H1 5337   5.741   4.044   4.335  0.9655  0.5276  1.0636
 1791TIP3    H2 5338   5.643   4.159   4.338  0.2094 -0.0675 -0.0827
 1792TIP3   OH2 5339   4.072   6.516   5.054  0.2921  0.0696  0.3125
 1792TIP3    H1 5340   4.126   6.497   4.978 -1.7426 -1.5819 -0.8325
 1792TIP3    H2 5341   3.982   6.496   5.026 -0.7096  0.7992  2.6929
 1793TIP3   OH2 5342   1.258   5.855   4.864 -0.5175 -0.1217 -0.3883
 1793TIP3    H1 5343   1.271   5.761   4.874  0.3266  0.1497  1.6368
 1793TIP3    H2 5344   1.338   5.894   4.899 -1.0708  1.3645 -0.6879
 1794TIP3   OH2 5345   2.499   2.695   0.626  0.0049  0.3601 -0.0685
 1794TIP3    H1 5346   2.581   2.699   0.675 -0.2468  1.9858  0.3011
 1794TIP3    H2 5347   2.431   2.708   0.692 -0.4211  1.0070 -0.6141
 1795TIP3   OH2 5348   1.552   6.782   2.938  0.2136  0.2225  0.1157
 1795TIP3    H1 5349   1.640   6.754   2.961  0.9372  3.0835  1.1404
 1795TIP3    H2 5350   1.505   6.788   3.021 -0.3996  0.4776 -0.2348
 1796TIP3   OH2 5351   1.582   4.534   5.774  0.0283 -0.5510  0.0408
 1796TIP3    H1 5352   1.521   4.498   5.838 -0.6333  0.6141  0.1020
 1796TIP3    H2 5353   1.658   4.476   5.777 -0.3231 -0.9708  1.3032
 1797TIP3   OH2 5354   5.997   0.333   0.209  0.1323  0.2282  0.2329
 1797TIP3    H1 5355   6.045   0.369   0.283  1.9435  2.5003 -1.8741
 1797TIP3    H2 5356   5.939   0.404   0.181  0.3740 -0.1082 -1.2298
 1798TIP3   OH2 5357   2.905   6.034   5.570  0.4244  0.0845  0.0841
 1798TIP3    H1 5358   2.999   6.024   5.583  0.3918 -0.8316 -0.2787
 1798TIP3    H2 5359   2.878   5.952   5.528 -0.1465  1.2771 -1.9816
 1799TIP3   OH2 5360   4.763   6.659   3.413  0.3032  0.3104  0.3929
 1799TIP3    H1 5361   4.673   6.686   3.429  0.5782  1.5080  0.0276
 1799TIP3    H2 5362   4.815   6.737   3.433  1.1384  0.0756 -0.7917
 1800TIP3   OH2 5363   3.812   3.413   5.807 -0.7318 -0.2368  0.0753
 1800TIP3    H1 5364   3.818   3.434   5.714 -0.9574  1.3493  0.3750
 1800TIP3    H2 5365   3.808   3.318   5.811 -1.3994 -0.3048 -1.5736
 1801TIP3   OH2 5366   1.790   3.420   2.272  0.6241 -0.3051  0.5458
 1801TIP3    H1 5367   1.815   3.395   2.361 -0.9944 -1.3723  0.7473
 1801TIP3    H2 5368   1.794   3.338   2.222 -0.9192 -0.2534  0.2708
 1802TIP3   OH2 5369   6.891   1.030   1.911 -0.4119 -0.9442 -0.0050
 1802TIP3    H1 5370   6.810   1.080   1.898 -0.0447 -0.5975 -1.0116
 1802TIP3    H2 5371   6.889   1.007   2.004 -2.2123 -1.9125 -0.2359
 1803TIP3   OH2 5372   0.971   2.118   1.120  0.4425 -0.2527 -0.3218
 1803TIP3    H1 5373   0.915   2.120   1.042  1.5322  2.4784 -1.1524
 1803TIP3    H2 5374   1.060   2.124   1.086  1.0597 -1.0164  1.0942
 1804TIP3   OH2 5375   1.978   3.493   0.764  0.5658 -0.1884  0.2467
 1804TIP3    H1 5376   2.016   3.566   0.813  0.8402  0.6323 -1.1196
 1804TIP3    H2 5377   2.029   3.491   0.682  0.1854 -1.5539  0.0238
 1805TIP3   OH2 5378   5.885   2.341   2.970  0.1100  0.6078 -0.3692
 1805TIP3    H1 5379   5.921   2.391   2.897  0.0377  1.2232  0.0143
 1805TIP3    H2 5380   5.800   2.381   2.987  0.2709  0.6876  0.2673
 1806TIP3   OH2 5381   1.138   0.592   3.332  0.1560 -0.0788 -0.8612
 1806TIP3    H1 5382   1.228   0.622   3.347  0.1800 -0.1755 -0.8105
 1806TIP3    H2 5383   1.084   0.657   3.376  0.2505 -0.7511  0.3139
 1807TIP3   OH2 5384   0.146   6.308   1.143  0.1594  0.3354  0.1444
 1807TIP3    H1 5385   0.088   6.233   1.129 -2.5125  2.3321 -0.4683
 1807TIP3    H2 5386   0.151   6.318   1.238 -0.4633  0.0995  0.2040
 1808TIP3   OH2 5387   2.802   3.413   5.174  0.0241 -0.2175  0.0673
 1808TIP3    H1 5388   2.773   3.372   5.256  0.5473 -0.5858  0.0723
 1808TIP3    H2 5389   2.871   3.473   5.201  0.8078 -0.9805 -0.1957
 1809TIP3   OH2 5390   2.801   2.856   5.430 -0.2463  0.7759  0.2176
 1809TIP3    H1 5391   2.777   2.908   5.354  0.8459 -1.7676 -2.0038
 1809TIP3    H2 5392   2.722   2.804   5.449  0.6016 -1.4370 -1.7840
 1810TIP3   OH2 5393   6.726   2.751   3.408 -0.7050 -0.3125  0.1113
 1810TIP3    H1 5394   6.670   2.714   3.340 -0.8598 -1.6280  0.9122
 1810TIP3    H2 5395   6.705   2.844   3.409 -1.5323 -0.4705 -0.8433
 1811TIP3   OH2 5396   5.349   0.471   5.238 -0.5345 -0.3568  0.1124
 1811TIP3    H1 5397   5.356   0.488   5.331  1.9284  0.9443 -0.2361
 1811TIP3    H2 5398   5.298   0.545   5.204  0.8222  0.6214  0.1139
 1812TIP3   OH2 5399   4.942   2.642   4.031 -0.3432  0.0123 -0.2114
 1812TIP3    H1 5400   5.007   2.578   4.003 -0.3642  0.3653 -1.0974
 1812TIP3    H2 5401   4.992   2.713   4.071 -0.2214  0.0613 -0.4525
 1813TIP3   OH2 5402   1.707   0.434   3.749  0.0974 -0.0732  0.4330
 1813TIP3    H1 5403   1.719   0.350   3.794  1.6472  0.0684  0.3158
 1813TIP3    H2 5404   1.762   0.495   3.796 -0.1728  0.6391 -0.1560
 1814TIP3   OH2 5405   2.904   5.197   2.225 -0.2867 -0.2313 -0.1057
 1814TIP3    H1 5406   2.827   5.253   2.216  0.6745  0.8501 -2.4700
 1814TIP3    H2 5407   2.885   5.121   2.169 -0.1476 -0.5617  0.2914
 1815TIP3   OH2 5408   1.326   3.332   1.326 -0.1631  0.3734 -0.1998
 1815TIP3    H1 5409   1.308   3.426   1.322  2.3150  0.9070 -0.5669
 1815TIP3    H2 5410   1.371   3.313   1.243  1.5648 -0.5752  0.8861
 1816TIP3   OH2 5411   2.695   1.891   1.053  0.2711  0.0688 -0.3550
 1816TIP3    H1 5412   2.625   1.838   1.015  1.0615 -0.2416 -1.4530
 1816TIP3    H2 5413   2.694   1.869   1.146 -0.8660 -0.1749 -0.4121
 1817TIP3   OH2 5414   6.716   1.746   4.780 -0.4961 -0.1644  0.0788
 1817TIP3    H1 5415   6.642   1.763   4.839  0.2872  2.9650  0.3106
 1817TIP3    H2 5416   6.677   1.748   4.692 -0.9401 -0.2023  0.2712
 1818TIP3   OH2 5417   1.016   5.773   3.168  0.0385  0.7439 -0.3731
 1818TIP3    H1 5418   1.002   5.718   3.245 -2.2736  1.3156 -0.3186
 1818TIP3    H2 5419   1.062   5.850   3.201  0.9143  0.0585  0.0322
 1819TIP3   OH2 5420   4.320   0.971   1.942 -0.3952 -0.1128  0.6816
 1819TIP3    H1 5421   4.307   0.958   1.849 -0.2668  1.3639  0.4381
 1819TIP3    H2 5422   4.414   0.984   1.952 -0.5485  0.9728  0.8336
 1820TIP3   OH2 5423   1.012   6.467   4.257  0.8256 -0.2722  0.2423
 1820TIP3    H1 5424   1.085   6.519   4.222  0.1282  0.4285 -0.1945
 1820TIP3    H2 5425   0.993   6.506   4.342 -0.4599  0.9759 -0.5794
 1821TIP3   OH2 5426   1.650   5.517   0.471  0.0309 -0.0533 -0.8785
 1821TIP3    H1 5427   1.592   5.590   0.451 -2.3559 -1.2216  1.1727
 1821TIP3    H2 5428   1.600   5.439   0.447  1.3766 -1.0872 -0.4526
 1822TIP3   OH2 5429   4.589   1.070   3.555  0.4201  1.1507 -0.2056
 1822TIP3    H1 5430   4.594   1.147   3.498 -0.8257  1.4317  0.0428
 1822TIP3    H2 5431   4.673   1.025   3.541 -0.0829  0.8596 -2.7458
 1823TIP3   OH2 5432   2.511   1.080   5.727 -0.1904  0.4493  0.4421
 1823TIP3    H1 5433   2.569   1.014   5.763 -0.1565  0.0336 -0.3412
 1823TIP3    H2 5434   2.555   1.109   5.647 -0.5644  0.8780  0.3857
 1824TIP3   OH2 5435   3.168   1.780   5.323  0.5220 -0.0880 -0.1589
 1824TIP3    H1 5436   3.118   1.724   5.382  0.0303  0.6711  0.1597
 1824TIP3    H2 5437   3.244   1.728   5.299  0.3528 -0.6798  0.5649
 1825TIP3   OH2 5438   4.146   1.015   0.460 -0.0555  0.0270 -0.3817
 1825TIP3    H1 5439   4.152   0.928   0.419 -0.0383 -0.8260  1.3249
 1825TIP3    H2 5440   4.092   1.000   0.538  0.9994  1.2693  0.6285
 1826TIP3   OH2 5441   4.649   4.992   0.347  0.0185  0.5295 -0.2475
 1826TIP3    H1 5442   4.585   4.926   0.373 -1.2104  2.3282  1.6228
 1826TIP3    H2 5443   4.599   5.057   0.298  0.7967  0.9989 -0.4504
 1827TIP3   OH2 5444   5.100   1.545   3.686 -0.1022 -0.0823  0.1644
 1827TIP3    H1 5445   5.009   1.564   3.664 -0.2964  0.0067  0.9962
 1827TIP3    H2 5446   5.112   1.453   3.664 -0.7377 -0.4053  1.1071
 1828TIP3   OH2 5447   1.673   5.880   5.153 -0.4174 -0.1299  0.7589
 1828TIP3    H1 5448   1.631   5.861   5.237  1.7562 -0.5777  1.7922
 1828TIP3    H2 5449   1.762   5.847   5.162 -0.3180 -0.8259 -1.9974
 1829TIP3   OH2 5450   2.161   3.896   5.418  0.1501 -0.4632 -0.8400
 1829TIP3    H1 5451   2.216   3.959   5.465  0.0496 -0.7458 -0.3305
 1829TIP3    H2 5452   2.175   3.916   5.326 -0.3171  0.6800 -0.6830
 1830TIP3   OH2 5453   2.976   6.727   5.251 -0.1223  0.0598  0.5363
 1830TIP3    H1 5454   2.943   6.637   5.253 -2.0451  0.6646 -0.6579
 1830TIP3    H2 5455   3.020   6.739   5.335  1.5808 -2.4531  0.1000
 1831TIP3   OH2 5456   2.241   5.108   5.678 -0.0344  0.6963 -0.3201
 1831TIP3    H1 5457   2.217   5.021   5.709 -0.4143  1.1496  0.6812
 1831TIP3    H2 5458   2.324   5.126   5.722 -0.5347  1.3085  0.3917
 1832TIP3   OH2 5459   1.275   6.569   5.276 -0.6991  0.0447  0.6723
 1832TIP3    H1 5460   1.232   6.560   5.361 -1.9701 -0.8775 -0.0313
 1832TIP3    H2 5461   1.364   6.599   5.297 -0.9843 -0.1562  2.3087
 1833TIP3   OH2 5462   4.695   0.365   1.158 -0.2124 -0.1110 -0.0676
 1833TIP3    H1 5463   4.733   0.379   1.244 -2.3791  1.2312  0.7590
 1833TIP3    H2 5464   4.747   0.421   1.100 -0.7570  1.5906  0.9993
 1834TIP3   OH2 5465   3.641   6.540   2.975  0.0427 -0.3123 -0.8386
 1834TIP3    H1 5466   3.732   6.553   3.004 -0.1084 -2.1723  0.7217
 1834TIP3    H2 5467   3.644   6.460   2.922 -0.4661  0.5138 -2.1591
 1835TIP3   OH2 5468   5.238   5.624   2.283  0.1545  0.0317 -0.0073
 1835TIP3    H1 5469   5.313   5.671   2.321 -0.2669 -0.2697  1.2210
 1835TIP3    H2 5470   5.237   5.540   2.329 -0.9210  0.0250 -0.0356
 1836TIP3   OH2 5471   5.910   5.561   0.369 -0.0973 -0.5850  0.0843
 1836TIP3    H1 5472   5.955   5.638   0.403 -1.2826  1.3692 -2.4201
 1836TIP3    H2 5473   5.851   5.533   0.440  1.6420 -0.3583  1.6812
 1837TIP3   OH2 5474   6.624   6.634   0.663  1.0371  0.7828 -0.1313
 1837TIP3    H1 5475   6.594   6.699   0.727  0.5802  0.1303  0.3292
 1837TIP3    H2 5476   6.715   6.618   0.685  0.5615 -0.3380  1.1542
 1838TIP3   OH2 5477   5.862   2.366   5.308  0.2932 -0.1101  0.4761
 1838TIP3    H1 5478   5.890   2.400   5.392 -0.0790 -1.0602  1.0010
 1838TIP3    H2 5479   5.846   2.443   5.254  0.4234  0.5008  1.3068
 1839TIP3   OH2 5480   0.796   2.918   4.716  0.3492  0.3394 -0.0239
 1839TIP3    H1 5481   0.740   2.874   4.780  0.3994  1.1881  0.6244
 1839TIP3    H2 5482   0.870   2.858   4.705 -0.2141 -0.3430 -0.1561
 1840TIP3   OH2 5483   5.756   1.194   3.826 -0.3051  0.2516  0.0566
 1840TIP3    H1 5484   5.718   1.260   3.884 -0.4713 -0.0034  0.2426
 1840TIP3    H2 5485   5.776   1.120   3.884  0.9179  0.5484  0.0537
 1841TIP3   OH2 5486   2.475   4.595   0.912 -0.5975  0.2677 -0.4649
 1841TIP3    H1 5487   2.543   4.629   0.854  0.7649 -1.3715  0.0954
 1841TIP3    H2 5488   2.479   4.652   0.989 -0.0408  0.3393 -0.5448
 1842TIP3   OH2 5489   2.205   0.668   0.456 -0.0299  0.3259 -0.1662
 1842TIP3    H1 5490   2.171   0.699   0.372  1.1832  2.5975  0.1261
 1842TIP3    H2 5491   2.291   0.633   0.436 -0.3633 -0.5647 -0.0849
 1843TIP3   OH2 5492   6.481   5.440   3.037  0.0065  0.0045 -0.1376
 1843TIP3    H1 5493   6.393   5.401   3.043 -0.0436  0.2300  0.6662
 1843TIP3    H2 5494   6.468   5.519   2.985 -0.2362 -0.0491 -0.1626
 1844TIP3   OH2 5495   3.436   4.809   1.712  0.0184 -0.4549  0.0623
 1844TIP3    H1 5496   3.499   4.808   1.784  1.4633  2.4489 -0.9935
 1844TIP3    H2 5497   3.375   4.879   1.735  0.6315  0.6770 -1.5337
 1845TIP3   OH2 5498   0.088   2.493   1.158 -0.0618 -0.5787  0.0411
 1845TIP3    H1 5499   0.069   2.400   1.143  0.4668 -0.4691 -1.4875
 1845TIP3    H2 5500   0.035   2.517   1.234 -1.2926 -1.7715 -0.4087
 1846TIP3   OH2 5501   5.503   4.537   3.564 -0.0198 -0.3979 -0.4787
 1846TIP3    H1 5502   5.476   4.607   3.624 -1.7574 -0.1925 -1.4397
 1846TIP3    H2 5503   5.539   4.583   3.488  1.8008 -0.6500  0.1861
 1847TIP3   OH2 5504   4.017   2.147   0.148  0.0573 -0.8389  0.4639
 1847TIP3    H1 5505   4.063   2.184   0.223 -0.2005 -0.4410  0.4313
 1847TIP3    H2 5506   4.062   2.183   0.071 -1.8037  1.6378  0.3760
 1848TIP3   OH2 5507   5.239   2.078   4.506  0.5272 -0.4095 -0.1548
 1848TIP3    H1 5508   5.322   2.050   4.468 -0.5616 -0.1153 -2.9372
 1848TIP3    H2 5509   5.183   2.001   4.503 -0.0528  0.0206 -0.5657
 1849TIP3   OH2 5510   3.459   5.545   2.658 -0.0670 -0.3476  0.6601
 1849TIP3    H1 5511   3.378   5.593   2.640 -0.1873 -0.8990 -0.3254
 1849TIP3    H2 5512   3.525   5.587   2.604  0.4410  0.4091  1.8186
 1850TIP3   OH2 5513   0.549   4.498   5.058 -0.2347  0.0640  0.1125
 1850TIP3    H1 5514   0.636   4.488   5.019 -0.7568 -0.1279 -1.0411
 1850TIP3    H2 5515   0.566   4.529   5.147  1.0406 -0.9655  0.2554
 1851TIP3   OH2 5516   0.723   4.312   3.289 -0.1997  0.0056  0.2975
 1851TIP3    H1 5517   0.703   4.290   3.380  0.4906 -0.6042  0.3118
 1851TIP3    H2 5518   0.641   4.346   3.254 -0.2859  0.9439  1.3489
 1852TIP3   OH2 5519   2.187   2.165   2.610  0.1959 -0.1639 -0.3359
 1852TIP3    H1 5520   2.099   2.131   2.625 -0.0668  0.2319 -0.9587
 1852TIP3    H2 5521   2.241   2.120   2.675 -0.3459 -0.9004 -0.3805
 1853TIP3   OH2 5522   3.313   1.527   0.996 -0.1001 -0.1478 -0.0983
 1853TIP3    H1 5523   3.349   1.599   1.048 -0.4555  0.1447 -0.2536
 1853TIP3    H2 5524   3.362   1.450   1.025  0.5380  0.2189 -0.1956
 1854TIP3   OH2 5525   5.256   6.548   5.235 -0.1346  0.4344 -0.2552
 1854TIP3    H1 5526   5.324   6.483   5.249  1.3498  1.3440 -2.6940
 1854TIP3    H2 5527   5.247   6.553   5.139 -2.8700  1.1424 -0.0415
 1855TIP3   OH2 5528   3.109   2.822   2.581 -0.2379 -0.6762 -0.0530
 1855TIP3    H1 5529   3.075   2.749   2.528 -0.5080 -0.6478  0.0777
 1855TIP3    H2 5530   3.204   2.817   2.571 -0.3305  0.0788 -1.5300
 1856TIP3   OH2 5531   3.623   4.483   1.483  0.1096 -0.1875 -0.3970
 1856TIP3    H1 5532   3.642   4.414   1.547 -0.3832  0.8135  0.8751
 1856TIP3    H2 5533   3.699   4.542   1.488 -0.6856  0.7931  0.5344
 1857TIP3   OH2 5534   1.745   3.057   3.037 -0.0701 -1.0457  0.0201
 1857TIP3    H1 5535   1.665   3.078   3.084  0.2451 -1.6500  0.8460
 1857TIP3    H2 5536   1.737   2.964   3.015 -0.1448 -0.8140 -1.0067
 1858TIP3   OH2 5537   4.102   1.430   1.305  0.0771  0.0729  0.3210
 1858TIP3    H1 5538   4.021   1.460   1.347  0.6525  1.7125  0.3526
 1858TIP3    H2 5539   4.073   1.363   1.242 -1.4036  1.0715 -0.1328
 1859TIP3   OH2 5540   3.029   2.729   1.693 -0.4807  0.2733 -0.1300
 1859TIP3    H1 5541   2.995   2.745   1.605 -0.7407  0.6827  0.0379
 1859TIP3    H2 5542   3.002   2.640   1.713 -0.9424  0.3818 -0.2399
 1860TIP3   OH2 5543   2.931   4.831   2.325 -0.1637  0.3015  0.0042
 1860TIP3    H1 5544   2.836   4.828   2.338 -0.2989 -2.1885 -0.8671
 1860TIP3    H2 5545   2.951   4.747   2.283  2.3872  0.9309 -0.1740
 1861TIP3   OH2 5546   0.923   0.401   0.076  0.1744 -0.0684  0.2751
 1861TIP3    H1 5547   0.893   0.363  -0.007 -2.0360  1.1074  0.4766
 1861TIP3    H2 5548   0.909   0.495   0.066  2.1947  0.3862  1.1257
 1862TIP3   OH2 5549   2.778   1.462   4.560 -0.1856 -0.1808  0.3633
 1862TIP3    H1 5550   2.733   1.444   4.643 -0.5635  0.0551  0.2114
 1862TIP3    H2 5551   2.749   1.392   4.502 -0.0826 -0.2256  0.3644
 1863TIP3   OH2 5552   4.840   3.568   5.036 -0.3587  0.1005 -0.4871
 1863TIP3    H1 5553   4.901   3.589   4.965  1.6490 -2.0821  0.4683
 1863TIP3    H2 5554   4.860   3.632   5.105  1.2395 -0.8386 -0.0225
 1864TIP3   OH2 5555   6.322   1.545   0.517 -0.1576  0.2086 -0.0257
 1864TIP3    H1 5556   6.363   1.600   0.450 -0.6162 -0.3542 -0.7937
 1864TIP3    H2 5557   6.329   1.456   0.482  1.6132 -0.3961  1.7231
 1865TIP3   OH2 5558   5.657   6.613   3.554  0.5435  0.1198  0.0115
 1865TIP3    H1 5559   5.708   6.641   3.478  1.4230  0.3459  0.6579
 1865TIP3    H2 5560   5.713   6.634   3.629  0.3858 -1.5651  0.6470
 1866TIP3   OH2 5561   1.248   0.567   1.625 -0.2355 -0.2019 -0.0118
 1866TIP3    H1 5562   1.235   0.658   1.653  0.0852  0.0982 -0.8124
 1866TIP3    H2 5563   1.162   0.541   1.592 -0.2419 -0.0665 -0.1068
 1867TIP3   OH2 5564   3.825   4.708   1.521  0.4424 -0.1993 -0.1230
 1867TIP3    H1 5565   3.844   4.671   1.435 -0.0478 -0.3360 -0.1779
 1867TIP3    H2 5566   3.761   4.777   1.503  0.3255 -0.2419  0.1347
 1868TIP3   OH2 5567   6.342   5.293   4.603 -0.1120  0.2290 -0.0421
 1868TIP3    H1 5568   6.308   5.282   4.692 -0.7172 -1.1954 -0.4213
 1868TIP3    H2 5569   6.404   5.221   4.591  0.9609  1.1708 -0.3427
 1869TIP3   OH2 5570   2.559   3.488  -0.004 -0.0615  0.3416 -0.2143
 1869TIP3    H1 5571   2.575   3.423   0.065  1.2778 -0.4867 -1.2663
 1869TIP3    H2 5572   2.548   3.570   0.043 -1.4884 -0.5606  1.1366
 1870TIP3   OH2 5573   1.487   0.821   3.086 -0.2862  0.4141  0.0927
 1870TIP3    H1 5574   1.523   0.796   3.171 -1.5658  0.4015  0.6599
 1870TIP3    H2 5575   1.459   0.738   3.047 -1.8013  0.6066  0.6844
 1871TIP3   OH2 5576   4.718   4.645   0.477  0.3002  0.1090  0.9976
 1871TIP3    H1 5577   4.697   4.597   0.557 -1.8634 -3.5289 -1.4961
 1871TIP3    H2 5578   4.639   4.696   0.458 -0.2002 -1.0610 -0.1179
 1872TIP3   OH2 5579   3.953   2.970   3.505  0.4292 -0.0551 -0.6239
 1872TIP3    H1 5580   3.976   2.960   3.412 -3.1573  1.4893 -1.8515
 1872TIP3    H2 5581   3.889   3.040   3.506  1.1794  0.7802  3.2780
 1873TIP3   OH2 5582   7.077   1.686   0.609  0.2637 -0.2759  0.3643
 1873TIP3    H1 5583   7.047   1.775   0.631  0.7171 -0.2075  0.7009
 1873TIP3    H2 5584   7.172   1.694   0.600  0.3725 -0.8405  0.9359
 1874TIP3   OH2 5585   7.118   1.873   3.604 -0.1517  0.3855 -0.0454
 1874TIP3    H1 5586   7.120   1.920   3.521  3.2861 -0.2615 -0.4964
 1874TIP3    H2 5587   7.141   1.939   3.669 -1.8488  0.6734  0.2947
 1875TIP3   OH2 5588   4.416   4.496   0.799 -0.1269  0.1454 -0.7249
 1875TIP3    H1 5589   4.467   4.565   0.756  0.1413  0.1707 -0.3763
 1875TIP3    H2 5590   4.384   4.442   0.728  1.4352 -0.5923 -0.9070
 1876TIP3   OH2 5591   0.693   4.129   1.944 -0.1130 -0.4459 -0.7891
 1876TIP3    H1 5592   0.600   4.109   1.941 -0.0121 -0.9889 -0.3500
 1876TIP3    H2 5593   0.736   4.046   1.962  0.4237 -0.1195 -0.5181
 1877TIP3   OH2 5594   1.206   6.392   5.589 -0.3947  0.1142  0.3524
 1877TIP3    H1 5595   1.299   6.394   5.567 -0.9308  1.1644 -2.1186
 1877TIP3    H2 5596   1.165   6.343   5.517 -1.7768 -0.2941  1.3645
 1878TIP3   OH2 5597   6.662   6.487   4.848 -0.0144  0.1148 -0.3697
 1878TIP3    H1 5598   6.703   6.486   4.762  1.6540  0.8209  0.3818
 1878TIP3    H2 5599   6.734   6.475   4.910 -1.1991 -0.6353  0.9413
 1879TIP3   OH2 5600   0.646   4.387   5.600  0.0912  0.2861 -0.5777
 1879TIP3    H1 5601   0.577   4.441   5.562  1.2622  1.8963 -0.5345
 1879TIP3    H2 5602   0.653   4.417   5.690 -0.9454 -1.7566  0.2290
 1880TIP3   OH2 5603   5.492   6.234   2.635  0.7462 -0.5265  0.0842
 1880TIP3    H1 5604   5.449   6.269   2.557  1.9672  0.0494 -0.3500
 1880TIP3    H2 5605   5.449   6.150   2.650  0.4529 -0.6192 -1.1819
 1881TIP3   OH2 5606   3.650   3.339   2.971 -0.2482 -0.0862 -0.3542
 1881TIP3    H1 5607   3.746   3.331   2.969 -0.3681 -2.2209 -2.4331
 1881TIP3    H2 5608   3.634   3.433   2.964  1.6496  0.4986  1.9556
 1882TIP3   OH2 5609   0.323   1.771   1.717  0.2196  0.0715 -0.4307
 1882TIP3    H1 5610   0.398   1.718   1.690 -0.7463 -1.0988 -0.8840
 1882TIP3    H2 5611   0.265   1.771   1.641 -0.5672  0.3672  0.1606
 1883TIP3   OH2 5612   0.132   2.481   1.707  0.4087  0.2248 -0.0309
 1883TIP3    H1 5613   0.102   2.531   1.783 -1.4378 -0.9270  0.0555
 1883TIP3    H2 5614   0.052   2.442   1.671  1.1549  1.0258 -2.8046
 1884TIP3   OH2 5615   7.129   3.623   5.545  0.4391 -0.4373  0.4156
 1884TIP3    H1 5616   7.087   3.588   5.467 -0.8581 -0.6067  1.1480
 1884TIP3    H2 5617   7.089   3.574   5.617 -1.6319  2.5860  1.5286
 1885TIP3   OH2 5618   6.258   3.348   4.022 -0.4829  0.0746 -0.2413
 1885TIP3    H1 5619   6.322   3.357   4.092  0.7344 -0.9342 -1.1625
 1885TIP3    H2 5620   6.222   3.260   4.034 -1.2934  0.4238 -0.0644
 1886TIP3   OH2 5621   4.206   4.214   5.498  0.7510  0.1101 -0.1873
 1886TIP3    H1 5622   4.252   4.142   5.454  0.0638 -0.8049  0.5519
 1886TIP3    H2 5623   4.261   4.290   5.482  2.6686 -0.9704  0.8462
 1887TIP3   OH2 5624   4.437   6.729   1.219  0.7626 -0.8554 -0.2115
 1887TIP3    H1 5625   4.383   6.745   1.142  0.6038 -0.0574  0.0607
 1887TIP3    H2 5626   4.457   6.816   1.254  1.5052 -1.1728  0.1899
 1888TIP3   OH2 5627   6.549   4.623   0.197 -0.4743  0.4941 -0.4472
 1888TIP3    H1 5628   6.628   4.625   0.252 -0.2364 -1.4353 -0.6313
 1888TIP3    H2 5629   6.579   4.652   0.111  1.3980 -4.6707 -1.9105
 1889TIP3   OH2 5630   0.571   3.025   5.365 -0.1593  0.1262  0.5198
 1889TIP3    H1 5631   0.611   3.055   5.447  0.8473 -1.0269  0.4691
 1889TIP3    H2 5632   0.538   3.105   5.324 -0.1648  0.7901  1.7707
 1890TIP3   OH2 5633   0.290   4.724   2.128  0.2675  0.2103  0.6772
 1890TIP3    H1 5634   0.238   4.648   2.105 -0.0919  0.4283  0.7678
 1890TIP3    H2 5635   0.297   4.721   2.223  0.2251  0.3081  0.6832
 1891TIP3   OH2 5636   4.026   3.087   0.238  0.1823  0.0447  0.0448
 1891TIP3    H1 5637   3.969   3.023   0.279  1.6985 -3.2562 -2.5566
 1891TIP3    H2 5638   4.099   3.098   0.299 -0.2338 -0.4953  0.6373
 1892TIP3   OH2 5639   2.924   3.611   5.308 -0.5494  0.4413 -0.0886
 1892TIP3    H1 5640   2.895   3.696   5.342 -2.0128 -0.2103  0.3816
 1892TIP3    H2 5641   3.019   3.619   5.301 -0.7077  2.2884 -0.5567
 1893TIP3   OH2 5642   5.890   1.356   4.063 -0.0486  0.0102 -0.2589
 1893TIP3    H1 5643   5.941   1.382   3.986  0.2909 -1.1044 -0.4246
 1893TIP3    H2 5644   5.952   1.309   4.118 -0.9441 -1.6975 -0.6294
 1894TIP3   OH2 5645   4.656   1.611   0.400 -0.0772  0.6192 -0.2311
 1894TIP3    H1 5646   4.573   1.657   0.397  0.5012  2.2558  3.4444
 1894TIP3    H2 5647   4.635   1.525   0.436 -0.2808  0.7716  0.0185
 1895TIP3   OH2 5648   7.169   1.050   0.514 -0.4176  0.1162 -0.0561
 1895TIP3    H1 5649   7.115   0.992   0.462 -3.5557  0.5989  2.3700
 1895TIP3    H2 5650   7.149   1.138   0.482 -0.9071  0.2776  0.6611
 1896TIP3   OH2 5651   6.817   2.107   1.408  0.0024 -0.0122 -0.9675
 1896TIP3    H1 5652   6.773   2.163   1.344 -0.8679 -0.3642 -0.6957
 1896TIP3    H2 5653   6.835   2.026   1.359 -0.5621 -0.2393 -0.8113
 1897TIP3   OH2 5654   0.487   3.820   5.552  0.3370  0.1594 -0.0898
 1897TIP3    H1 5655   0.488   3.778   5.466 -1.0074 -0.5595  0.2132
 1897TIP3    H2 5656   0.464   3.911   5.534 -3.5780 -0.6808 -0.3446
 1898TIP3   OH2 5657   4.852   1.360   3.497  0.0407 -0.0493 -0.5334
 1898TIP3    H1 5658   4.774   1.310   3.474 -0.8017  0.2982  1.3559
 1898TIP3    H2 5659   4.860   1.426   3.429 -2.6130  1.2859  0.2994
 1899TIP3   OH2 5660   4.357   6.187   5.560 -0.1285 -0.4209  0.0019
 1899TIP3    H1 5661   4.351   6.101   5.519  0.4929 -0.6764  0.4389
 1899TIP3    H2 5662   4.375   6.169   5.652 -2.2620  0.1148  0.6052
 1900TIP3   OH2 5663   1.779   5.251   3.465 -0.1867 -0.1113 -0.6148
 1900TIP3    H1 5664   1.820   5.253   3.378  0.3833 -0.7594 -0.3737
 1900TIP3    H2 5665   1.738   5.337   3.475  3.0387  1.5142  0.0405
 1901TIP3   OH2 5666   2.953   1.322   2.223  0.2257  0.4638 -0.1500
 1901TIP3    H1 5667   2.860   1.307   2.239  0.5306 -0.4888  0.9100
 1901TIP3    H2 5668   2.982   1.243   2.177  0.9658 -0.3861  1.6497
 1902TIP3   OH2 5669   3.818   0.748   4.146 -0.3269  0.3717  0.6278
 1902TIP3    H1 5670   3.848   0.720   4.059  0.2160  0.4643  0.7773
 1902TIP3    H2 5671   3.884   0.713   4.206 -0.5176  0.5947  0.9682
 1903TIP3   OH2 5672   4.470   6.674   2.616 -0.2403 -0.7939 -0.0150
 1903TIP3    H1 5673   4.530   6.713   2.680  0.2631 -1.0107 -0.3468
 1903TIP3    H2 5674   4.435   6.749   2.567  0.2102 -0.7041 -0.2056
 1904TIP3   OH2 5675   0.101   3.055   0.051 -0.3124  0.0727  0.3637
 1904TIP3    H1 5676   0.080   3.117   0.121 -0.3197  0.3715  0.1004
 1904TIP3    H2 5677   0.139   2.980   0.096 -0.1138  0.3545  0.6707
 1905TIP3   OH2 5678   3.319   1.235   1.829  0.0092  0.5165  0.0153
 1905TIP3    H1 5679   3.320   1.249   1.924  0.7257  0.6139 -0.0029
 1905TIP3    H2 5680   3.290   1.318   1.793  0.8847  0.8635  0.0927
 1906TIP3   OH2 5681   2.318   3.332   2.252 -0.0026 -0.4154 -0.2200
 1906TIP3    H1 5682   2.361   3.275   2.314  1.5121 -0.9246 -1.6657
 1906TIP3    H2 5683   2.236   3.357   2.295  0.2322 -2.0312  1.2707
 1907TIP3   OH2 5684   1.662   5.182   0.186  0.2052  0.0581 -0.4787
 1907TIP3    H1 5685   1.591   5.160   0.126 -0.4756  1.9829 -0.4319
 1907TIP3    H2 5686   1.693   5.268   0.158 -0.4173  1.2317  2.1061
 1908TIP3   OH2 5687   2.122   0.546   4.651  0.5243  0.0376  0.4835
 1908TIP3    H1 5688   2.046   0.509   4.606  0.2323  0.9523  0.2180
 1908TIP3    H2 5689   2.085   0.596   4.724  0.8562  0.6529  0.2349
 1909TIP3   OH2 5690   3.378   5.743   4.660 -1.1156  0.5552  0.1132
 1909TIP3    H1 5691   3.374   5.648   4.653  0.1614  0.3948  1.0794
 1909TIP3    H2 5692   3.398   5.759   4.753  3.5469  1.5019 -0.8032
 1910TIP3   OH2 5693   6.764   2.801   2.185 -0.4687  0.5979  1.2244
 1910TIP3    H1 5694   6.819   2.869   2.223 -2.3143  2.5530  0.5548
 1910TIP3    H2 5695   6.771   2.814   2.091 -1.9867  0.8444  1.1239
 1911TIP3   OH2 5696   5.168   1.325   5.515  0.3373  0.5091 -0.5907
 1911TIP3    H1 5697   5.218   1.395   5.473  0.5526  0.9220  0.3137
 1911TIP3    H2 5698   5.083   1.327   5.472  0.3951  1.2413 -0.6859
 1912TIP3   OH2 5699   5.290   0.587   1.216  0.6179 -0.3024 -0.3089
 1912TIP3    H1 5700   5.331   0.564   1.300  1.0029  0.3700 -0.3048
 1912TIP3    H2 5701   5.266   0.679   1.226  0.6705 -0.2175 -0.9410
 1913TIP3   OH2 5702   1.551   1.367   4.116  0.1805  0.2612 -0.0942
 1913TIP3    H1 5703   1.636   1.364   4.160  0.5556  0.2483 -0.8092
 1913TIP3    H2 5704   1.550   1.452   4.072 -0.1888  0.2728 -0.0673
 1914TIP3   OH2 5705   1.565   3.933   2.855 -0.7388  0.3108  0.6612
 1914TIP3    H1 5706   1.570   3.913   2.761  0.8554 -0.7249  0.9380
 1914TIP3    H2 5707   1.471   3.938   2.873 -1.1050  2.0971 -1.2763
 1915TIP3   OH2 5708   0.792   4.621   0.465  0.7800 -0.4629 -0.4602
 1915TIP3    H1 5709   0.847   4.695   0.439 -0.3347  0.9692  1.0693
 1915TIP3    H2 5710   0.707   4.637   0.423  0.1926 -0.2574  0.7713
 1916TIP3   OH2 5711   1.718   5.150   3.081 -0.0698  0.1039 -0.0404
 1916TIP3    H1 5712   1.660   5.146   3.157 -0.6267  0.9787 -0.4164
 1916TIP3    H2 5713   1.738   5.243   3.070  0.8148 -0.1105 -0.3682
 1917TIP3   OH2 5714   1.440   1.048   2.863  0.3319  0.2859 -0.2169
 1917TIP3    H1 5715   1.423   0.983   2.932 -0.0328  1.1646  0.5332
 1917TIP3    H2 5716   1.354   1.070   2.828  0.3146  1.4249  0.5162
 1918TIP3   OH2 5717   6.783   4.824   2.310  0.0814  0.3043 -0.2209
 1918TIP3    H1 5718   6.835   4.752   2.346 -1.3953 -0.6081  0.1545
 1918TIP3    H2 5719   6.698   4.817   2.353 -0.3375  1.8400 -0.7215
 1919TIP3   OH2 5720   5.894   5.364   1.670 -0.5608 -0.1349  0.3206
 1919TIP3    H1 5721   5.905   5.384   1.763  0.6439 -1.1045  0.4027
 1919TIP3    H2 5722   5.799   5.362   1.658 -0.8017 -1.8465  1.9558
 1920TIP3   OH2 5723   6.711   5.508   4.934 -0.2622  0.2328 -0.5045
 1920TIP3    H1 5724   6.800   5.495   4.902  0.8896  2.4653  1.4618
 1920TIP3    H2 5725   6.656   5.504   4.856  1.5538 -0.9374 -1.8083
 1921TIP3   OH2 5726   2.273   1.657   1.691  0.5091  0.0565  0.1173
 1921TIP3    H1 5727   2.208   1.706   1.741  2.0462  1.7720  0.5429
 1921TIP3    H2 5728   2.222   1.608   1.626 -1.0898  3.1805 -1.1847
 1922TIP3   OH2 5729   4.476   5.783   4.666  0.3251 -0.2500  0.3574
 1922TIP3    H1 5730   4.547   5.770   4.728  1.1932 -2.9312 -0.9987
 1922TIP3    H2 5731   4.406   5.726   4.697  0.3856 -0.8297 -0.5205
 1923TIP3   OH2 5732   6.103   5.042   5.049  0.5242  0.1164  0.3238
 1923TIP3    H1 5733   6.042   5.116   5.042  0.0878 -0.1664  1.0401
 1923TIP3    H2 5734   6.104   5.003   4.961 -0.5618 -0.0631  0.3850
 1924TIP3   OH2 5735   3.808   0.408   1.515 -0.4851 -0.1877  0.2590
 1924TIP3    H1 5736   3.891   0.450   1.539  0.1275  0.8624 -3.0865
 1924TIP3    H2 5737   3.767   0.469   1.454 -2.7070 -1.6490  0.1708
 1925TIP3   OH2 5738   2.883   4.105   4.455 -0.2759  0.1228 -0.2534
 1925TIP3    H1 5739   2.819   4.156   4.505  1.9086  1.7040  1.1280
 1925TIP3    H2 5740   2.856   4.014   4.467 -0.8110  0.5622  2.4658
 1926TIP3   OH2 5741   0.591   1.777   4.352 -0.3799  0.1430 -0.0176
 1926TIP3    H1 5742   0.663   1.750   4.295 -0.3724  0.5792 -0.2250
 1926TIP3    H2 5743   0.629   1.783   4.439 -0.4609 -0.8211  0.0905
 1927TIP3   OH2 5744   1.450   2.075   4.376  0.1791  0.1876 -0.2770
 1927TIP3    H1 5745   1.394   2.027   4.314  1.2121  0.0330 -1.1182
 1927TIP3    H2 5746   1.539   2.049   4.353  0.5698 -1.4675  2.5959
 1928TIP3   OH2 5747   4.527   6.503   0.730 -0.0872 -0.6710 -0.3982
 1928TIP3    H1 5748   4.534   6.554   0.649  1.2164 -0.4266 -0.1712
 1928TIP3    H2 5749   4.535   6.568   0.799 -0.8434 -0.9183 -0.0757
 1929TIP3   OH2 5750   6.860   3.672   5.141  0.0851  0.0126 -0.2259
 1929TIP3    H1 5751   6.787   3.732   5.121 -1.5199 -2.0317 -0.8260
 1929TIP3    H2 5752   6.937   3.728   5.141 -1.3583  2.1351 -0.4849
 1930TIP3   OH2 5753   6.652   1.302   4.569 -0.3737  0.3534 -0.3024
 1930TIP3    H1 5754   6.685   1.366   4.505  1.0603 -0.4314 -0.3875
 1930TIP3    H2 5755   6.608   1.236   4.515 -3.4790  2.0759 -0.1097
 1931TIP3   OH2 5756   5.786   4.930   4.904  0.6123  0.0899  0.4788
 1931TIP3    H1 5757   5.820   4.855   4.953 -1.0633 -0.8517  0.2884
 1931TIP3    H2 5758   5.807   4.911   4.813  0.2753 -0.1201  0.4413
 1932TIP3   OH2 5759   6.667   2.894   2.793 -0.2263 -0.7241 -0.6307
 1932TIP3    H1 5760   6.760   2.888   2.815 -0.2176 -1.3562 -0.8142
 1932TIP3    H2 5761   6.656   2.834   2.719 -0.8790 -1.0636 -0.2708
 1933TIP3   OH2 5762   2.366   2.686   2.175 -0.3225 -0.2402 -0.3495
 1933TIP3    H1 5763   2.378   2.776   2.143 -2.7157  0.1880 -0.2197
 1933TIP3    H2 5764   2.290   2.653   2.126 -1.8984 -0.8033  2.2654
 1934TIP3   OH2 5765   3.076   6.647   5.515  0.0784 -0.1489  0.1908
 1934TIP3    H1 5766   3.078   6.582   5.585  2.7501  0.5244  0.8943
 1934TIP3    H2 5767   2.989   6.687   5.521 -0.1157 -0.7737  2.5217
 1935TIP3   OH2 5768   3.337   3.466   3.530 -0.2881 -0.5186  0.2483
 1935TIP3    H1 5769   3.324   3.406   3.604 -1.0569  1.4722  1.8344
 1935TIP3    H2 5770   3.248   3.489   3.502 -0.0720  1.1551  0.8202
 1936TIP3   OH2 5771   4.594   4.511   5.842  0.2102 -0.4847  0.1358
 1936TIP3    H1 5772   4.508   4.477   5.818  0.4879 -0.2786 -1.2309
 1936TIP3    H2 5773   4.656   4.442   5.816  0.5751  0.0364 -0.4246
 1937TIP3   OH2 5774   4.845   5.736   5.647 -0.2125  0.4007 -0.3297
 1937TIP3    H1 5775   4.933   5.747   5.611  0.3382 -0.6171  0.6202
 1937TIP3    H2 5776   4.825   5.819   5.690  1.3301 -0.1148  1.5508
 1938TIP3   OH2 5777   6.564   4.734   2.466  0.2460  0.1234  0.2349
 1938TIP3    H1 5778   6.599   4.644   2.464  1.9832  0.7500  0.1647
 1938TIP3    H2 5779   6.498   4.736   2.397  0.9745 -0.8218 -0.5261
 1939TIP3   OH2 5780   0.655   0.354   1.621 -0.5838  1.0597  0.3463
 1939TIP3    H1 5781   0.590   0.292   1.588 -2.0402  2.5059  0.3572
 1939TIP3    H2 5782   0.696   0.391   1.543 -0.1330  0.5245  0.3261
 1940TIP3   OH2 5783   5.535   0.357   5.054  0.3557  0.1832  0.0805
 1940TIP3    H1 5784   5.548   0.263   5.065 -1.8296 -0.2677 -0.5630
 1940TIP3    H2 5785   5.470   0.380   5.121  2.0127  1.6075  1.2870
 1941TIP3   OH2 5786   2.414   0.133   5.429  0.1370 -0.0231 -0.0003
 1941TIP3    H1 5787   2.395   0.094   5.514 -0.1267 -0.6080 -0.3269
 1941TIP3    H2 5788   2.485   0.080   5.394  1.4762  1.2776  0.5982
 1942TIP3   OH2 5789   5.199   0.846   1.229  0.2611 -0.1215 -0.4036
 1942TIP3    H1 5790   5.109   0.873   1.212  0.0108 -0.9826 -0.5042
 1942TIP3    H2 5791   5.239   0.920   1.275 -0.5378  0.2119 -0.2391
 1943TIP3   OH2 5792   1.039   3.783   5.812  0.0994  0.0665 -0.0976
 1943TIP3    H1 5793   1.010   3.800   5.722 -0.6186  0.8798  0.2586
 1943TIP3    H2 5794   1.113   3.843   5.825  1.8882 -1.8715 -0.9437
 1944TIP3   OH2 5795   6.914   1.149   3.465 -0.4494 -0.0885  0.0688
 1944TIP3    H1 5796   6.934   1.136   3.557 -0.9176 -0.4173  0.1213
 1944TIP3    H2 5797   6.830   1.195   3.464 -0.4979 -0.1800 -0.1977
 1945TIP3   OH2 5798   5.626   4.393   3.794  0.2732 -0.1033  0.0665
 1945TIP3    H1 5799   5.706   4.362   3.752  0.6882  1.5678 -0.4744
 1945TIP3    H2 5800   5.566   4.409   3.721 -0.2958 -0.6471  0.4137
 1946TIP3   OH2 5801   5.139   0.237   3.994  0.3021 -0.4125  0.1717
 1946TIP3    H1 5802   5.234   0.247   3.989  0.4015 -1.1509  0.4354
 1946TIP3    H2 5803   5.116   0.271   4.080  0.2811  0.0875 -0.0300
 1947TIP3   OH2 5804   1.733   0.707   3.541 -0.4067 -0.3536 -0.3694
 1947TIP3    H1 5805   1.671   0.770   3.577  0.8245  0.4567  0.4354
 1947TIP3    H2 5806   1.819   0.746   3.558  0.3463 -1.6575 -1.0136
 1948TIP3   OH2 5807   1.599   2.324   4.859 -0.0565 -0.0297 -0.2922
 1948TIP3    H1 5808   1.539   2.386   4.816  0.2451 -0.1877 -0.9569
 1948TIP3    H2 5809   1.583   2.241   4.815  0.6640 -0.0687 -0.4931
 1949TIP3   OH2 5810   6.304   0.659   1.570 -0.0614  0.2823  0.2121
 1949TIP3    H1 5811   6.355   0.595   1.520  0.7952 -0.4031  1.8716
 1949TIP3    H2 5812   6.231   0.609   1.606 -0.4915  0.6973 -0.0675
 1950TIP3   OH2 5813   1.028   2.359   0.545  0.3255  0.8230 -0.3080
 1950TIP3    H1 5814   1.022   2.453   0.564  1.3380  0.7863  0.2932
 1950TIP3    H2 5815   1.121   2.344   0.529  0.4409 -0.3478  1.2042
 1951TIP3   OH2 5816   6.731   1.464   2.964  0.3373 -0.1168  0.5850
 1951TIP3    H1 5817   6.692   1.489   3.048  1.7257  0.9217  0.9705
 1951TIP3    H2 5818   6.669   1.495   2.899  0.0814  0.7135  1.2006
 1952TIP3   OH2 5819   6.687   2.219   3.956 -0.2203 -0.0661  0.8366
 1952TIP3    H1 5820   6.758   2.159   3.936 -0.1792  0.4550 -0.6829
 1952TIP3    H2 5821   6.701   2.294   3.898 -0.5933  1.1831  2.2716
 1953TIP3   OH2 5822   5.380   5.299   1.043 -0.2907  0.4488  0.7082
 1953TIP3    H1 5823   5.448   5.252   1.090  0.3586  1.0325  0.3829
 1953TIP3    H2 5824   5.391   5.272   0.952 -0.5403  0.4914  0.6659
 1954TIP3   OH2 5825   2.898   0.903   2.886 -0.2033 -0.5230  0.2957
 1954TIP3    H1 5826   2.858   0.913   2.800 -0.0258 -0.8015  0.1786
 1954TIP3    H2 5827   2.955   0.979   2.895 -0.9667  0.0283  0.5840
 1955TIP3   OH2 5828   3.347   3.125   5.762  0.3014  0.0452 -0.0981
 1955TIP3    H1 5829   3.430   3.173   5.756 -0.4209  1.2922 -0.4828
 1955TIP3    H2 5830   3.345   3.091   5.851  0.8087  0.7763  0.1973
 1956TIP3   OH2 5831   4.170   3.300   2.760  0.1722 -0.6148  0.4438
 1956TIP3    H1 5832   4.150   3.210   2.734 -0.7217  0.2451 -2.0812
 1956TIP3    H2 5833   4.221   3.290   2.841 -1.5863 -3.2867  1.3477
 1957TIP3   OH2 5834   3.139   5.246   0.614 -0.4091 -0.1870 -0.2961
 1957TIP3    H1 5835   3.155   5.169   0.561 -0.5729  0.4360 -1.2702
 1957TIP3    H2 5836   3.198   5.236   0.689  1.6192  0.0701 -1.7549
 1958TIP3   OH2 5837   0.500   4.565   1.934  0.1544  0.3707 -0.4824
 1958TIP3    H1 5838   0.445   4.506   1.986 -0.2634  0.8320 -0.3997
 1958TIP3    H2 5839   0.544   4.507   1.871 -0.6341  0.0311 -0.7353
 1959TIP3   OH2 5840   1.216   2.696   3.830  0.5849 -0.3624  0.1742
 1959TIP3    H1 5841   1.281   2.697   3.759 -0.3759 -1.7856 -0.7697
 1959TIP3    H2 5842   1.148   2.757   3.799  0.2339 -0.8745 -0.0682
 1960TIP3   OH2 5843   6.578   3.483   3.410 -0.3383 -0.3939 -0.3743
 1960TIP3    H1 5844   6.640   3.421   3.447  0.8676  0.6972 -0.4763
 1960TIP3    H2 5845   6.531   3.520   3.485 -1.5927 -1.9134 -0.3634
 1961TIP3   OH2 5846   6.600   0.131   0.073 -0.3193 -0.4529 -1.0705
 1961TIP3    H1 5847   6.647   0.060   0.030  1.6849 -0.4883  1.0007
 1961TIP3    H2 5848   6.554   0.090   0.146  2.4223  0.4685  1.3495
 1962TIP3   OH2 5849   3.606   0.673   1.051 -0.8202 -0.8600  0.5084
 1962TIP3    H1 5850   3.586   0.587   1.087  0.6719 -1.5599 -0.2330
 1962TIP3    H2 5851   3.672   0.656   0.983 -4.3713  0.1392 -3.6089
 1963TIP3   OH2 5852   5.996   2.419   4.311  0.3381 -0.1014 -0.5331
 1963TIP3    H1 5853   6.067   2.480   4.290  1.4514 -1.7349 -1.8055
 1963TIP3    H2 5854   5.937   2.424   4.236 -0.0136 -0.0092 -0.2562
 1964TIP3   OH2 5855   3.141   2.353   3.772 -0.0140  0.5369 -0.1530
 1964TIP3    H1 5856   3.111   2.270   3.808  0.5399  0.5049  0.2600
 1964TIP3    H2 5857   3.161   2.335   3.680  1.6973 -0.2336  0.3207
 1965TIP3   OH2 5858   6.682   4.047   5.237  0.4081  0.1443  0.3106
 1965TIP3    H1 5859   6.676   3.987   5.163 -0.3365  0.8600 -0.2285
 1965TIP3    H2 5860   6.730   4.123   5.203 -2.4639  1.8156 -0.4347
 1966TIP3   OH2 5861   7.055   2.011   3.360  0.3102  0.0575 -0.1932
 1966TIP3    H1 5862   7.002   2.082   3.323  0.6585  0.4755  0.0907
 1966TIP3    H2 5863   7.042   1.938   3.300 -2.3045 -0.5813  0.9994
 1967TIP3   OH2 5864   6.831   1.074   0.931  0.3490  0.3408  0.6223
 1967TIP3    H1 5865   6.744   1.095   0.965  0.0469  1.2290 -0.6435
 1967TIP3    H2 5866   6.816   1.011   0.861  1.0974 -2.7326  3.0020
 1968TIP3   OH2 5867   6.845   2.216   3.406  0.6990 -0.1260 -0.2078
 1968TIP3    H1 5868   6.790   2.140   3.423  1.2621 -1.2682 -2.9556
 1968TIP3    H2 5869   6.789   2.291   3.426 -1.8635 -1.2205 -2.6723
 1969TIP3   OH2 5870   5.921   0.306   0.533  0.0580  0.4258 -0.1814
 1969TIP3    H1 5871   5.871   0.323   0.613 -0.6981  0.7674 -0.7095
 1969TIP3    H2 5872   5.856   0.270   0.472  1.0529 -1.8240  0.0028
 1970TIP3   OH2 5873   1.143   0.926   1.136 -0.4024  0.0736  0.3126
 1970TIP3    H1 5874   1.217   0.922   1.196 -0.6220  1.6899  0.7381
 1970TIP3    H2 5875   1.156   0.852   1.077  0.1018 -1.2523  1.9956
 1971TIP3   OH2 5876   2.616   2.301   4.627  0.3629  0.1281  0.2481
 1971TIP3    H1 5877   2.553   2.372   4.637  0.7001  0.3488  0.8893
 1971TIP3    H2 5878   2.693   2.331   4.676  0.4131 -0.7873  0.7605
 1972TIP3   OH2 5879   4.787   2.283   4.828  0.1027  0.6045 -0.2027
 1972TIP3    H1 5880   4.802   2.198   4.870 -1.2151 -0.3459 -1.5441
 1972TIP3    H2 5881   4.853   2.341   4.867  2.4523 -1.5087 -0.7430
 1973TIP3   OH2 5882   5.851   4.529   5.492 -0.1410 -0.0888 -0.4222
 1973TIP3    H1 5883   5.852   4.618   5.458 -0.3704 -0.5084 -1.5743
 1973TIP3    H2 5884   5.804   4.536   5.575 -0.6605  0.7800 -0.7737
 1974TIP3   OH2 5885   1.495   2.457   3.947 -0.2843  0.1850 -0.3559
 1974TIP3    H1 5886   1.523   2.389   4.008  1.5881  0.8830 -0.3878
 1974TIP3    H2 5887   1.457   2.408   3.874 -0.3332 -0.7571  0.2728
 1975TIP3   OH2 5888   1.436   5.447   5.052 -0.2633  1.0732 -0.1654
 1975TIP3    H1 5889   1.406   5.531   5.017 -0.4761  0.5692 -1.2068
 1975TIP3    H2 5890   1.396   5.381   4.996 -1.1439  0.1970  1.4045
 1976TIP3   OH2 5891   0.755   4.452   4.402  0.5807 -0.2482 -0.0994
 1976TIP3    H1 5892   0.682   4.477   4.345  0.7083  0.6274  0.1127
 1976TIP3    H2 5893   0.714   4.403   4.473  0.1654  0.4602  0.1514
 1977TIP3   OH2 5894   6.241   3.867   3.257  0.2986 -0.1542 -0.0520
 1977TIP3    H1 5895   6.241   3.797   3.323 -0.4255 -0.5257 -0.4367
 1977TIP3    H2 5896   6.152   3.903   3.260  0.5086  0.3866 -0.2407
 1978TIP3   OH2 5897   5.672   4.687   5.662 -0.3258  0.6223 -0.2064
 1978TIP3    H1 5898   5.592   4.678   5.611  0.2383 -0.4131 -0.9387
 1978TIP3    H2 5899   5.666   4.775   5.699 -1.6738  0.6644 -0.4494
 1979TIP3   OH2 5900   5.869   4.381   4.266  0.2425  0.3423  0.3023
 1979TIP3    H1 5901   5.945   4.354   4.214 -1.7486 -1.1291 -2.0573
 1979TIP3    H2 5902   5.872   4.477   4.265  1.6557  0.3197 -0.3722
 1980TIP3   OH2 5903   2.830   2.536   1.277 -0.0630  0.4873  0.1598
 1980TIP3    H1 5904   2.812   2.508   1.187  0.2210  1.2532 -0.1365
 1980TIP3    H2 5905   2.838   2.454   1.326  0.4655  0.0469 -0.6414
 1981TIP3   OH2 5906   5.095   4.745   3.086  0.2877  0.3616  1.0731
 1981TIP3    H1 5907   5.098   4.703   3.172 -1.6806  0.8475  1.4259
 1981TIP3    H2 5908   5.144   4.826   3.097  0.5236  0.1547  1.5747
 1982TIP3   OH2 5909   5.787   5.155   4.391 -0.3349 -0.3361 -0.3449
 1982TIP3    H1 5910   5.810   5.248   4.402  1.6660 -0.8884  0.5737
 1982TIP3    H2 5911   5.837   5.127   4.315 -3.4482  0.0437 -2.7112
 1983TIP3   OH2 5912   5.001   2.742   3.160  0.0820 -0.1194  0.2989
 1983TIP3    H1 5913   5.083   2.779   3.194  0.5549  0.1045 -1.0190
 1983TIP3    H2 5914   4.957   2.816   3.118 -0.4907 -0.3777  0.4384
 1984TIP3   OH2 5915   1.922   4.633   5.883 -0.5447 -0.3020 -0.2135
 1984TIP3    H1 5916   1.890   4.663   5.797 -0.0285  0.3974 -0.1700
 1984TIP3    H2 5917   1.843   4.624   5.936 -0.7776  0.2501 -0.4592
 1985TIP3   OH2 5918   5.605   5.091   0.297 -0.4456  0.8107 -0.2366
 1985TIP3    H1 5919   5.623   5.131   0.212 -0.9100 -0.4667 -0.9584
 1985TIP3    H2 5920   5.533   5.031   0.280  0.5785 -0.7318  0.6749
 1986TIP3   OH2 5921   5.093   1.886   2.498 -0.0297  0.1969  0.1463
 1986TIP3    H1 5922   5.064   1.966   2.542 -0.5267 -0.0606  0.3004
 1986TIP3    H2 5923   5.126   1.830   2.569 -0.8291 -0.2171  0.2019
 1987TIP3   OH2 5924   7.023   2.179   1.098 -0.3716  0.3071  0.3014
 1987TIP3    H1 5925   7.013   2.231   1.019 -0.1023  1.3198  0.9154
 1987TIP3    H2 5926   6.987   2.233   1.168  0.9107  0.1574  1.1215
 1988TIP3   OH2 5927   3.301   4.337   5.695  0.4148  0.6098  1.2921
 1988TIP3    H1 5928   3.312   4.415   5.640  0.7494  0.2847  0.8915
 1988TIP3    H2 5929   3.209   4.340   5.722  0.5046  1.3020  1.5270
 1989TIP3   OH2 5930   0.471   6.657   5.154  0.5406  0.4084  0.0570
 1989TIP3    H1 5931   0.507   6.746   5.153  0.0773  0.6557  1.9922
 1989TIP3    H2 5932   0.459   6.637   5.247 -0.7124 -1.1299 -0.3971
 1990TIP3   OH2 5933   1.434   1.855   1.430  0.2147 -0.0437 -0.0172
 1990TIP3    H1 5934   1.412   1.909   1.354  2.5662  1.0157 -0.0439
 1990TIP3    H2 5935   1.500   1.793   1.397 -0.0902 -0.7970  0.7533
 1991TIP3   OH2 5936   5.616   0.919   1.426 -0.3044 -0.3554  0.5142
 1991TIP3    H1 5937   5.639   1.012   1.417  0.3878 -0.5621  0.0193
 1991TIP3    H2 5938   5.572   0.913   1.511 -3.6309  1.0356 -0.9543
 1992TIP3   OH2 5939   0.589   5.830   1.897 -0.0120  0.6092  0.5859
 1992TIP3    H1 5940   0.577   5.774   1.974  1.2067  0.4723  0.7052
 1992TIP3    H2 5941   0.639   5.776   1.836 -1.2475  0.5979 -0.4614
 1993TIP3   OH2 5942   4.649   2.469   4.651  0.3529  0.3787  0.0693
 1993TIP3    H1 5943   4.577   2.437   4.597  0.4924  0.7230 -0.3315
 1993TIP3    H2 5944   4.695   2.390   4.679 -1.2457  0.0402  1.8757
 1994TIP3   OH2 5945   5.636   1.416   0.714  0.2347  0.0543  0.2911
 1994TIP3    H1 5946   5.713   1.436   0.767  0.4024  1.2869 -0.3666
 1994TIP3    H2 5947   5.652   1.463   0.632 -0.2867 -1.3150 -0.6238
 1995TIP3   OH2 5948   5.846   6.680   1.234 -0.2780 -0.2329 -0.3874
 1995TIP3    H1 5949   5.787   6.737   1.185 -1.0097 -0.3845  0.3008
 1995TIP3    H2 5950   5.923   6.734   1.250 -0.0894 -0.1324 -1.5594
 1996TIP3   OH2 5951   6.440   0.290   2.563 -0.3506  0.2106  0.1429
 1996TIP3    H1 5952   6.518   0.341   2.540 -0.1226  1.2223  2.7653
 1996TIP3    H2 5953   6.450   0.208   2.515  1.4887  0.9524 -0.8620
 1997TIP3   OH2 5954   6.329   1.676   1.408  0.2646 -0.1685  0.0185
 1997TIP3    H1 5955   6.327   1.653   1.501 -0.3064  0.8110  0.2618
 1997TIP3    H2 5956   6.416   1.650   1.378  0.2831 -0.9422  0.6983
 1998TIP3   OH2 5957   4.525   5.534   4.513 -0.0923 -0.4046 -0.4967
 1998TIP3    H1 5958   4.574   5.616   4.520  0.3061 -0.6384 -0.5639
 1998TIP3    H2 5959   4.443   5.552   4.559 -0.3756  0.3169 -1.2501
 1999TIP3   OH2 5960   6.011   2.721   3.911  0.1703 -0.3951 -0.1706
 1999TIP3    H1 5961   5.938   2.749   3.855 -0.3633 -0.4912  0.4612
 1999TIP3    H2 5962   5.985   2.634   3.943  0.9118 -0.7631 -0.5357
 2000TIP3   OH2 5963   0.480   6.071   1.929 -0.2077  0.2739  0.0352
 2000TIP3    H1 5964   0.392   6.043   1.905 -0.8022 -0.4850  2.7825
 2000TIP3    H2 5965   0.528   5.990   1.944  0.7532  0.6917 -0.7191
 2001TIP3   OH2 5966   0.837   5.930   3.800  0.7239  0.2439  1.0836
 2001TIP3    H1 5967   0.843   5.837   3.821 -0.5005 -0.0177  0.3426
 2001TIP3    H2 5968   0.921   5.966   3.829  3.1975 -1.8661 -2.6663
 2002TIP3   OH2 5969   2.181   4.912   0.483 -0.0350 -0.1255  0.1803
 2002TIP3    H1 5970   2.188   4.960   0.565 -0.2129 -1.5662  1.0755
 2002TIP3    H2 5971   2.177   4.820   0.509  0.8498 -0.6836 -1.4995
 2003TIP3   OH2 5972   1.392   4.286   3.856  0.3667 -0.1299 -0.2930
 2003TIP3    H1 5973   1.371   4.335   3.776  0.6289 -0.1333 -0.3658
 2003TIP3    H2 5974   1.311   4.241   3.878  0.6869 -1.3324 -1.4134
 2004TIP3   OH2 5975   4.584   3.074   0.846  0.4595 -0.5631 -0.2125
 2004TIP3    H1 5976   4.552   3.028   0.924 -1.7464  0.8528 -0.1891
 2004TIP3    H2 5977   4.546   3.026   0.773  0.5884 -0.5374 -0.2946
 2005TIP3   OH2 5978   2.072   0.820   1.975 -0.0424  0.2170 -0.2969
 2005TIP3    H1 5979   2.035   0.892   2.026 -0.5226 -0.8821  0.9364
 2005TIP3    H2 5980   2.162   0.848   1.957 -0.1449  1.0232  0.3576
 2006TIP3   OH2 5981   6.970   0.858   4.966 -0.1874 -0.5305 -1.0282
 2006TIP3    H1 5982   7.060   0.887   4.949  0.0838 -0.6281  0.1445
 2006TIP3    H2 5983   6.937   0.831   4.880  0.0013  1.9398 -1.9512
 2007TIP3   OH2 5984   3.040   2.090   3.816  0.3385 -0.2322  0.2227
 2007TIP3    H1 5985   3.018   2.048   3.733 -2.0151  2.2605 -0.5723
 2007TIP3    H2 5986   2.982   2.047   3.880 -1.8712  1.4022 -0.5376
 2008TIP3   OH2 5987   5.601   2.337   0.576  0.6887  0.2264  0.2997
 2008TIP3    H1 5988   5.609   2.371   0.487  0.1338  0.3138  0.2784
 2008TIP3    H2 5989   5.535   2.268   0.569 -0.3014  1.0941  0.8749
 2009TIP3   OH2 5990   3.296   5.496   4.832 -0.0367  0.0642  0.4175
 2009TIP3    H1 5991   3.366   5.534   4.885 -1.1530  0.2120  1.8477
 2009TIP3    H2 5992   3.336   5.419   4.792  1.5794  1.3902 -0.6326
 2010TIP3   OH2 5993   3.855   5.796   3.389 -0.2000 -0.2606 -0.1459
 2010TIP3    H1 5994   3.934   5.799   3.443  1.5667  1.4466 -2.6247
 2010TIP3    H2 5995   3.823   5.886   3.389 -2.2639 -0.9401  0.8680
 2011TIP3   OH2 5996   5.375   6.774   2.098  0.5823 -0.4545  0.5352
 2011TIP3    H1 5997   5.286   6.754   2.126  0.8965 -1.0034  1.1869
 2011TIP3    H2 5998   5.402   6.846   2.155  0.2303  0.3468 -0.3013
 2012TIP3   OH2 5999   2.164   4.253   4.557  0.0961 -0.0028 -0.1677
 2012TIP3    H1 6000   2.221   4.181   4.530  0.4221  0.8080 -1.7255
 2012TIP3    H2 6001   2.220   4.330   4.554 -0.1345  0.3045  1.8983
 2013TIP3   OH2 6002   2.175   2.952   3.657  0.4715 -0.0285  0.2920
 2013TIP3    H1 6003   2.259   2.916   3.629  0.9526  0.8260  0.6149
 2013TIP3    H2 6004   2.175   2.945   3.752  0.5297  0.7314  0.3510
 2014TIP3   OH2 6005   4.199   5.898   1.012 -0.8141  0.2069 -0.1049
 2014TIP3    H1 6006   4.271   5.838   0.993 -0.0296  0.5921  1.5343
 2014TIP3    H2 6007   4.193   5.954   0.934  0.5760  0.1010 -0.3064
 2015TIP3   OH2 6008   5.572   5.140   2.580 -0.1690  0.1273  0.3166
 2015TIP3    H1 6009   5.664   5.163   2.566  0.2424 -1.6373 -0.2061
 2015TIP3    H2 6010   5.545   5.190   2.657  0.6889  2.0060 -0.5421
 2016TIP3   OH2 6011   5.003   0.367   2.435 -0.1138 -0.2663  0.4112
 2016TIP3    H1 6012   5.007   0.294   2.496 -2.7045  0.4501  1.5980
 2016TIP3    H2 6013   5.052   0.437   2.478 -0.7601 -0.1935  1.0463
 2017TIP3   OH2 6014   2.836  -0.000   0.196 -0.1843 -0.4210 -0.2945
 2017TIP3    H1 6015   2.821  -0.022   0.287 -5.1798  2.5918 -0.0456
 2017TIP3    H2 6016   2.854   0.094   0.196  1.2364 -0.6032 -2.4339
 2018TIP3   OH2 6017   0.429   5.423   5.917  0.7068 -0.3404 -0.0094
 2018TIP3    H1 6018   0.410   5.337   5.880 -2.8480 -0.4779  1.6798
 2018TIP3    H2 6019   0.375   5.484   5.866  0.8981  0.4152  0.6660
 2019TIP3   OH2 6020   6.634   6.167   1.370  0.3439  0.2591  0.0010
 2019TIP3    H1 6021   6.613   6.249   1.325 -1.2472  0.7364  1.5199
 2019TIP3    H2 6022   6.730   6.167   1.375  0.4705  1.1120 -1.6283
 2020TIP3   OH2 6023   4.626   1.929   1.332  0.2865 -0.1418 -0.5296
 2020TIP3    H1 6024   4.658   1.872   1.402  0.2024 -0.2565 -0.5854
 2020TIP3    H2 6025   4.658   2.017   1.357 -0.3244 -0.0657  0.0058
 2021TIP3   OH2 6026   6.768   0.784   1.153 -0.5757  0.1990 -0.2432
 2021TIP3    H1 6027   6.681   0.810   1.184 -0.3017  0.1446  0.6219
 2021TIP3    H2 6028   6.821   0.863   1.165 -0.5900  0.3446 -1.1264
 2022TIP3   OH2 6029   1.262   2.040   2.605  0.0229  0.3989 -0.5321
 2022TIP3    H1 6030   1.190   2.020   2.545 -1.9744  1.0247  1.4774
 2022TIP3    H2 6031   1.260   2.135   2.614 -1.1421  0.2158  2.0130
 2023TIP3   OH2 6032   3.789   2.163   2.739 -0.5213  0.7246  0.4372
 2023TIP3    H1 6033   3.748   2.082   2.766 -0.5857  1.3165  2.2439
 2023TIP3    H2 6034   3.745   2.231   2.790  0.9182  1.6583  0.4987
 2024TIP3   OH2 6035   1.140   2.016   1.399 -0.3764 -0.5067 -0.1492
 2024TIP3    H1 6036   1.177   1.949   1.457  0.1374 -0.5159 -0.4776
 2024TIP3    H2 6037   1.089   2.072   1.456 -2.3431 -2.2014 -0.0961
 2025TIP3   OH2 6038   5.762   6.188   4.107  0.0907  0.0667  0.0086
 2025TIP3    H1 6039   5.686   6.131   4.093 -0.0613  0.7535 -2.6439
 2025TIP3    H2 6040   5.837   6.128   4.103 -0.2314 -0.5141  1.9032
 2026TIP3   OH2 6041   4.926   6.145   4.599 -0.1844  0.2517 -0.2480
 2026TIP3    H1 6042   4.998   6.151   4.535  2.0341 -0.9615  1.9466
 2026TIP3    H2 6043   4.945   6.215   4.662 -0.1612 -0.8622  1.0317
 2027TIP3   OH2 6044   6.700   5.138   4.888  0.6851  0.3644  0.4598
 2027TIP3    H1 6045   6.605   5.147   4.885  0.8675  2.7299 -0.2715
 2027TIP3    H2 6046   6.731   5.216   4.934  2.4149  1.6107 -2.5176
 2028TIP3   OH2 6047   4.108   5.524   5.453 -0.3690 -0.3742 -0.0878
 2028TIP3    H1 6048   4.089   5.494   5.364  0.5310  0.4012 -0.5616
 2028TIP3    H2 6049   4.184   5.582   5.443 -0.5756  0.1316  1.1191
 2029TIP3   OH2 6050   4.257   5.345   3.716  0.3298  0.3240 -0.1687
 2029TIP3    H1 6051   4.227   5.366   3.628  0.8496 -0.9344 -0.6677
 2029TIP3    H2 6052   4.323   5.278   3.704 -0.1253 -0.4253  1.2261
 2030TIP3   OH2 6053   2.600   6.788   4.612 -0.3179  0.0526  0.0217
 2030TIP3    H1 6054   2.526   6.812   4.668  0.1354 -1.7011  1.4753
 2030TIP3    H2 6055   2.561   6.735   4.542 -0.7735  1.5488 -0.8998
 2031TIP3   OH2 6056   4.163   4.858   0.905  0.1142 -0.2634 -0.4587
 2031TIP3    H1 6057   4.070   4.838   0.910  0.2065 -0.4011  1.1720
 2031TIP3    H2 6058   4.183   4.853   0.812 -1.0972 -2.0944 -0.6790
 2032TIP3   OH2 6059   2.372   6.804   5.243 -0.4851 -0.3184  0.1588
 2032TIP3    H1 6060   2.401   6.776   5.330  1.0564  1.3785  0.2574
 2032TIP3    H2 6061   2.413   6.742   5.183 -2.5348 -2.2533  0.6122
 2033TIP3   OH2 6062   5.636   3.442   2.733 -0.3066 -0.1183  0.2166
 2033TIP3    H1 6063   5.718   3.483   2.760 -0.1734  0.2891 -0.7782
 2033TIP3    H2 6064   5.592   3.508   2.679  0.2259 -1.4563 -1.9813
 2034TIP3   OH2 6065   6.835   3.160   1.243  0.4378  0.1987 -0.4985
 2034TIP3    H1 6066   6.751   3.161   1.198 -0.6688 -1.4658  1.4001
 2034TIP3    H2 6067   6.886   3.094   1.195 -0.2632 -0.6235 -0.1388
 2035TIP3   OH2 6068   4.371   5.251   4.782  0.2003 -0.4561 -0.5343
 2035TIP3    H1 6069   4.362   5.247   4.877 -2.0743 -0.0099 -0.6839
 2035TIP3    H2 6070   4.460   5.284   4.768  0.7745 -1.0815  1.4091
 2036TIP3   OH2 6071   4.457   1.070   2.261  0.1756 -0.0446  0.1506
 2036TIP3    H1 6072   4.376   1.070   2.211  0.3818 -0.4424 -0.1876
 2036TIP3    H2 6073   4.455   0.989   2.311  0.0957  0.2234  0.5897
 2037TIP3   OH2 6074   2.854   2.915   2.675  0.3879 -0.4922 -0.2990
 2037TIP3    H1 6075   2.938   2.879   2.646 -0.0967 -2.1871  0.2724
 2037TIP3    H2 6076   2.875   2.961   2.757  0.4463 -3.0952  1.2745
 2038TIP3   OH2 6077   3.868   5.785   2.176 -0.3186 -0.5225  0.0521
 2038TIP3    H1 6078   3.840   5.744   2.258 -0.6221  0.5235  0.4967
 2038TIP3    H2 6079   3.793   5.776   2.118 -0.4170 -0.5047  0.1764
 2039TIP3   OH2 6080   1.696   2.883   0.807 -0.1745 -0.0436 -0.1547
 2039TIP3    H1 6081   1.787   2.856   0.792 -0.7505 -1.5342 -1.1742
 2039TIP3    H2 6082   1.664   2.821   0.873 -0.2865  0.8876  0.6929
 2040TIP3   OH2 6083   6.780   3.727   4.837  0.0918  0.1976  0.1952
 2040TIP3    H1 6084   6.742   3.758   4.755 -1.6304 -0.0968  0.8265
 2040TIP3    H2 6085   6.874   3.725   4.822 -0.2159 -0.2603 -1.9099
 2041TIP3   OH2 6086   1.348   5.614   5.351  0.4619 -0.4597  0.0999
 2041TIP3    H1 6087   1.384   5.525   5.343 -0.9202 -1.1215  0.8644
 2041TIP3    H2 6088   1.278   5.606   5.415  1.8356  1.7018  2.0166
 2042TIP3   OH2 6089   6.798   0.030   1.899 -0.1856 -0.3184  0.3403
 2042TIP3    H1 6090   6.779  -0.051   1.946  1.4060  0.5186  2.6410
 2042TIP3    H2 6091   6.716   0.079   1.901 -0.5394 -0.9159  1.0329
 2043TIP3   OH2 6092   4.753   6.747   2.350  0.0794  0.1225 -0.4773
 2043TIP3    H1 6093   4.680   6.743   2.289  0.1164 -0.7237 -0.4735
 2043TIP3    H2 6094   4.756   6.839   2.378 -0.9095  0.1851 -0.5539
 2044TIP3   OH2 6095   1.970   5.037   5.764 -0.0808 -0.6193 -0.0924
 2044TIP3    H1 6096   1.996   5.058   5.854  2.0442  0.2752 -0.8641
 2044TIP3    H2 6097   2.023   4.961   5.741  1.8293  1.0719 -1.6033
 2045TIP3   OH2 6098   2.765   3.611   4.067 -0.4223  0.2935  0.2441
 2045TIP3    H1 6099   2.809   3.551   4.127  2.6785  0.9034 -1.2117
 2045TIP3    H2 6100   2.719   3.672   4.124 -0.2558 -1.0153  1.8709
 2046TIP3   OH2 6101   0.224   1.978   3.459 -0.2865 -0.3574 -0.1776
 2046TIP3    H1 6102   0.171   2.048   3.498 -0.3094  1.0828 -2.6065
 2046TIP3    H2 6103   0.240   1.918   3.532 -0.8165  1.8122  1.8922
 2047TIP3   OH2 6104   1.745   5.897   2.338 -1.0498  0.7375  0.5029
 2047TIP3    H1 6105   1.736   5.989   2.312 -0.3172  0.5979 -0.2879
 2047TIP3    H2 6106   1.790   5.900   2.422 -0.7192  1.0937  0.3168
 2048TIP3   OH2 6107   5.225   6.324   0.430  0.1243 -0.3972  0.8276
 2048TIP3    H1 6108   5.212   6.295   0.340  0.0650  1.6551  0.1044
 2048TIP3    H2 6109   5.209   6.246   0.483 -2.2749 -1.1455 -0.7814
 2049TIP3   OH2 6110   2.452   6.018   5.511 -0.0129 -0.1176  0.2166
 2049TIP3    H1 6111   2.532   6.007   5.562 -1.0389 -1.0631  1.6892
 2049TIP3    H2 6112   2.392   6.066   5.568 -0.0141  2.0269 -1.4553
 2050TIP3   OH2 6113   5.100   5.647   1.311  0.1347  0.6289  0.2332
 2050TIP3    H1 6114   5.193   5.625   1.305 -0.2696 -0.9929 -0.7784
 2050TIP3    H2 6115   5.081   5.647   1.404  1.4491  2.5548  0.5726
 2051TIP3   OH2 6116   1.600   0.455   2.581 -0.2115 -0.9700 -0.3470
 2051TIP3    H1 6117   1.618   0.467   2.674 -0.4244  2.6423 -0.6105
 2051TIP3    H2 6118   1.522   0.507   2.564  0.7086 -0.2056 -2.7685
 2052TIP3   OH2 6119   6.324   0.550   5.065 -0.2500 -0.0208  0.4412
 2052TIP3    H1 6120   6.365   0.563   5.150 -0.9649  0.2592  0.7543
 2052TIP3    H2 6121   6.283   0.634   5.044  1.0312  0.3277 -0.8143
 2053TIP3   OH2 6122   6.009   1.199   2.189 -0.3268  0.5269 -0.3657
 2053TIP3    H1 6123   6.064   1.229   2.261  1.3248 -0.1164 -1.2967
 2053TIP3    H2 6124   6.047   1.239   2.111  1.4685 -3.1119 -1.5646
 2054TIP3   OH2 6125   2.686   3.016   1.348 -0.2245  0.7146 -0.0944
 2054TIP3    H1 6126   2.617   3.044   1.288  0.0268  1.3298 -0.1088
 2054TIP3    H2 6127   2.706   3.095   1.399  1.9137  1.1674 -1.5067
 2055TIP3   OH2 6128   1.999   3.140   0.119  0.3970 -0.2934  0.1762
 2055TIP3    H1 6129   2.057   3.065   0.127  1.4510  0.6460  2.1026
 2055TIP3    H2 6130   2.058   3.215   0.107 -0.4877  0.4733  0.4761
 2056TIP3   OH2 6131   4.868   3.769   4.237  0.6672 -0.1326  0.3848
 2056TIP3    H1 6132   4.864   3.732   4.148 -0.4520  1.8650 -0.4661
 2056TIP3    H2 6133   4.922   3.847   4.228  1.3543 -0.4346  1.7013
 2057TIP3   OH2 6134   6.032   3.071   3.427 -0.1536  0.1349  0.4194
 2057TIP3    H1 6135   6.070   3.086   3.513  0.2381  1.4723  0.0307
 2057TIP3    H2 6136   6.012   2.977   3.426  1.1324 -0.1725  1.4252
 2058TIP3   OH2 6137   3.095   1.482   4.491 -0.4756  0.3013 -0.0766
 2058TIP3    H1 6138   3.013   1.462   4.537  1.1973  0.3043  3.1578
 2058TIP3    H2 6139   3.120   1.399   4.451 -0.4827 -0.6096  1.6879
 2059TIP3   OH2 6140   1.886   2.388   3.712  0.6923  0.1604  0.0116
 2059TIP3    H1 6141   1.978   2.387   3.686  1.1697  0.6804  1.5653
 2059TIP3    H2 6142   1.860   2.480   3.708 -0.0513 -0.0863 -1.3141
 2060TIP3   OH2 6143   5.213   2.825   3.330 -0.4817 -0.1137 -0.0567
 2060TIP3    H1 6144   5.275   2.894   3.305 -1.3497  0.3149 -1.1226
 2060TIP3    H2 6145   5.244   2.747   3.284 -0.3759 -0.0541 -0.0853
 2061TIP3   OH2 6146   2.066   5.842   1.379  0.0066 -0.0361  0.3336
 2061TIP3    H1 6147   1.973   5.841   1.402 -0.2349 -1.1857 -0.5794
 2061TIP3    H2 6148   2.109   5.799   1.453 -0.1779  0.4942  0.7580
 2062TIP3   OH2 6149   0.586   1.816   0.973 -0.1879  0.1695 -0.1016
 2062TIP3    H1 6150   0.653   1.799   1.039 -0.3366  0.5694  0.1582
 2062TIP3    H2 6151   0.514   1.757   0.995 -0.1913  0.2222  0.0309
 2063TIP3   OH2 6152   2.230   5.724   3.088  0.5571 -0.5434 -0.6989
 2063TIP3    H1 6153   2.316   5.767   3.097 -0.9484  2.7978 -0.9048
 2063TIP3    H2 6154   2.176   5.766   3.154 -1.5058 -0.9535 -2.0498
 2064TIP3   OH2 6155  -0.019   0.576   1.851  0.2501  0.5084 -0.5245
 2064TIP3    H1 6156   0.075   0.592   1.840  1.0207 -1.8166  1.6427
 2064TIP3    H2 6157  -0.050   0.554   1.763  1.8904  0.5467 -1.1498
 2065TIP3   OH2 6158   3.074   2.730   5.802 -0.0243  0.0185  1.1314
 2065TIP3    H1 6159   3.146   2.667   5.812 -1.1974 -1.3119  1.5624
 2065TIP3    H2 6160   3.118   2.814   5.788  1.5982 -0.9980 -0.2689
 2066TIP3   OH2 6161   2.462   1.120   0.976  0.4342  0.2200  0.3379
 2066TIP3    H1 6162   2.512   1.081   1.048 -1.3472  1.5689  2.4360
 2066TIP3    H2 6163   2.522   1.120   0.902  1.7862 -2.8904  1.2563
 2067TIP3   OH2 6164   6.837   1.854   5.077 -0.1251 -0.0975  0.0375
 2067TIP3    H1 6165   6.832   1.946   5.050 -2.4323 -0.1646  0.0612
 2067TIP3    H2 6166   6.865   1.807   4.998 -0.9911  0.3934 -0.5759
 2068TIP3   OH2 6167   3.956   3.617   0.980 -0.7401  0.0053 -0.1279
 2068TIP3    H1 6168   3.959   3.530   0.940  0.6969 -0.1263  0.2322
 2068TIP3    H2 6169   4.017   3.612   1.054 -0.7034  1.2927 -0.0534
 2069TIP3   OH2 6170   4.602   4.591   1.857  0.1708 -0.2872 -0.2994
 2069TIP3    H1 6171   4.537   4.630   1.799  0.2733  0.1409 -0.1318
 2069TIP3    H2 6172   4.643   4.522   1.804  1.8755  1.5912 -1.5804
 2070TIP3   OH2 6173   1.807   4.403   1.726 -0.3750  0.1971 -0.1376
 2070TIP3    H1 6174   1.878   4.370   1.782 -1.2380 -0.0974  0.8260
 2070TIP3    H2 6175   1.761   4.324   1.698 -0.1394  0.3659 -1.0414
 2071TIP3   OH2 6176   6.383   6.533   1.544 -0.1399  0.1078  0.1693
 2071TIP3    H1 6177   6.417   6.464   1.601 -1.7785  1.4998  3.0072
 2071TIP3    H2 6178   6.288   6.525   1.551 -0.3851  1.0388 -1.5767
 2072TIP3   OH2 6179   5.650   2.850   0.460  0.5287  0.3689 -0.9688
 2072TIP3    H1 6180   5.563   2.824   0.429  0.3731 -0.1894 -0.0753
 2072TIP3    H2 6181   5.710   2.786   0.422  0.6934  1.2953 -2.3629
 2073TIP3   OH2 6182   2.335   6.367   0.715 -0.3182 -0.0998 -0.1502
 2073TIP3    H1 6183   2.246   6.335   0.704 -1.1430  1.7157  0.8884
 2073TIP3    H2 6184   2.326   6.461   0.725  1.6279  0.0238  0.9314
 2074TIP3   OH2 6185   0.537   5.842   4.143 -0.2781  0.4264  0.0135
 2074TIP3    H1 6186   0.602   5.772   4.145 -1.3280 -0.5357  1.5921
 2074TIP3    H2 6187   0.587   5.922   4.161  0.9120  0.1402 -1.7235
 2075TIP3   OH2 6188   3.427   2.905   0.590 -0.3765 -0.3211  0.2942
 2075TIP3    H1 6189   3.423   2.853   0.510 -0.8369 -1.7996  1.2337
 2075TIP3    H2 6190   3.461   2.990   0.562 -1.5150 -0.4429 -1.6310
 2076TIP3   OH2 6191   2.743   6.234   2.041  0.1160 -0.2572  0.1398
 2076TIP3    H1 6192   2.739   6.171   1.969 -0.5418  0.0987 -0.1414
 2076TIP3    H2 6193   2.671   6.295   2.024 -1.0407 -1.0326  1.9097
 2077TIP3   OH2 6194   5.152   6.400   4.244 -0.2611 -0.2728  0.5099
 2077TIP3    H1 6195   5.188   6.486   4.266  0.3919 -0.4121  0.0029
 2077TIP3    H2 6196   5.217   6.338   4.277  0.0785 -0.5221 -0.6022
 2078TIP3   OH2 6197   0.165   4.194   3.454  0.0022  1.5567 -0.5240
 2078TIP3    H1 6198   0.078   4.171   3.487  0.3383  0.1895 -0.5443
 2078TIP3    H2 6199   0.188   4.273   3.502 -0.9774  1.5644 -0.0379
 2079TIP3   OH2 6200   6.957   1.363   3.264 -0.3011 -0.6253  0.3794
 2079TIP3    H1 6201   6.951   1.458   3.269  1.4622 -0.4103 -0.7173
 2079TIP3    H2 6202   6.968   1.335   3.355 -1.1487  0.1688  0.7440
 2080TIP3   OH2 6203   7.114   6.207   1.337 -0.1708 -0.1210 -0.4001
 2080TIP3    H1 6204   7.168   6.147   1.287  0.2923 -0.8785  0.9380
 2080TIP3    H2 6205   7.175   6.273   1.370 -0.6035  0.8577 -1.4785
 2081TIP3   OH2 6206   3.418   2.031   2.828 -0.1286  0.2283 -0.2380
 2081TIP3    H1 6207   3.414   2.058   2.920  0.6019  1.2036 -0.4740
 2081TIP3    H2 6208   3.415   2.113   2.779  3.1984  0.0619 -0.9503
 2082TIP3   OH2 6209   6.245   6.313   2.206 -0.1644 -0.2260  0.0991
 2082TIP3    H1 6210   6.251   6.236   2.149 -2.7453 -0.3312 -0.1424
 2082TIP3    H2 6211   6.329   6.358   2.194  1.2605 -2.7680 -0.0419
 2083TIP3   OH2 6212   6.484   1.005   0.250  0.1829  0.1450  0.3453
 2083TIP3    H1 6213   6.575   0.999   0.278  0.5010  0.4072 -0.5672
 2083TIP3    H2 6214   6.434   1.012   0.331  1.1778  2.7130  0.8557
 2084TIP3   OH2 6215   7.188   4.202   5.786 -0.5994 -0.4443  0.2542
 2084TIP3    H1 6216   7.205   4.279   5.840  0.6251  0.0283 -0.7696
 2084TIP3    H2 6217   7.194   4.233   5.696  1.0533 -1.9301 -0.2003
 2085TIP3   OH2 6218   0.555   3.730   3.187 -0.4946  0.3331 -0.1060
 2085TIP3    H1 6219   0.550   3.696   3.098  0.9930  1.3177 -0.6102
 2085TIP3    H2 6220   0.530   3.822   3.180 -1.0934  0.2382  0.6305
 2086TIP3   OH2 6221   1.328   4.708   0.291  0.2487  0.1519 -0.3646
 2086TIP3    H1 6222   1.399   4.644   0.299 -0.5549 -1.0492 -2.1007
 2086TIP3    H2 6223   1.372   4.792   0.280  1.3914 -0.4687 -0.6718
 2087TIP3   OH2 6224   3.236   2.269   4.966 -0.0128  0.3216 -0.3608
 2087TIP3    H1 6225   3.280   2.190   4.935 -0.6338  0.3268 -1.3065
 2087TIP3    H2 6226   3.254   2.335   4.899 -2.0879  0.0972 -1.2381
 2088TIP3   OH2 6227   0.373   5.137   3.929  0.3364 -0.2471  0.2630
 2088TIP3    H1 6228   0.385   5.208   3.991 -1.3021 -0.3112  0.6917
 2088TIP3    H2 6229   0.293   5.093   3.957 -0.4906 -0.2605 -1.9126
 2089TIP3   OH2 6230   0.211   4.872   5.548  0.0086 -0.0440  0.2282
 2089TIP3    H1 6231   0.277   4.873   5.618  0.4193  0.6081 -0.1575
 2089TIP3    H2 6232   0.206   4.963   5.519 -0.2938 -0.2795 -0.4632
 2090TIP3   OH2 6233   3.670   1.185   0.147  0.4714 -0.0024  0.6696
 2090TIP3    H1 6234   3.761   1.161   0.166  0.4883  0.4693  1.2000
 2090TIP3    H2 6235   3.669   1.280   0.153 -0.2787 -0.0630  1.6351
 2091TIP3   OH2 6236   1.007   3.141   1.361  0.0590 -0.0159 -0.4067
 2091TIP3    H1 6237   1.085   3.180   1.400  0.2224  0.5543 -1.2731
 2091TIP3    H2 6238   0.939   3.208   1.374 -0.6054 -0.9704  1.3696
 2092TIP3   OH2 6239   5.396   0.337   0.430 -0.1071 -0.5930 -0.2483
 2092TIP3    H1 6240   5.359   0.353   0.516  1.6910  0.2725  0.4039
 2092TIP3    H2 6241   5.466   0.401   0.421  0.5179 -1.4331 -1.8752
 2093TIP3   OH2 6242   0.998   0.686   2.761 -0.6847  0.3017 -0.6004
 2093TIP3    H1 6243   0.919   0.637   2.783 -0.4356 -0.0132 -0.4088
 2093TIP3    H2 6244   1.014   0.666   2.669 -0.4352 -0.1832 -0.4525
 2094TIP3   OH2 6245   7.156   0.986   3.370  0.6259 -0.5092  0.1258
 2094TIP3    H1 6246   7.188   0.970   3.458  0.9230  0.6964  0.2599
 2094TIP3    H2 6247   7.066   1.017   3.382  0.8005  0.0377  0.0371
 2095TIP3   OH2 6248   0.163   3.982   1.193  0.3988 -0.2674 -0.4870
 2095TIP3    H1 6249   0.170   4.072   1.226  0.9021 -0.9205  1.2930
 2095TIP3    H2 6250   0.249   3.963   1.157  0.6415 -0.3767  0.1274
 2096TIP3   OH2 6251   0.178   2.239   4.284  0.5901  0.0309 -0.3889
 2096TIP3    H1 6252   0.162   2.152   4.320  2.0613 -0.1947 -0.1997
 2096TIP3    H2 6253   0.203   2.292   4.360 -1.5030  0.9800 -0.2996
 2097TIP3   OH2 6254   5.321   2.545   2.001 -0.1020 -0.7181 -0.0359
 2097TIP3    H1 6255   5.280   2.631   2.008 -1.6201 -1.3760 -0.5558
 2097TIP3    H2 6256   5.252   2.483   2.021  1.3157 -1.8363  1.7939
 2098TIP3   OH2 6257   0.716   5.628   1.030  0.4279 -0.1912 -0.0831
 2098TIP3    H1 6258   0.699   5.554   0.971  0.5098  0.1490 -0.5371
 2098TIP3    H2 6259   0.695   5.705   0.978  0.1882  0.1024  0.4443
 2099TIP3   OH2 6260   4.704   5.870   1.483  0.3668  0.6251 -0.2424
 2099TIP3    H1 6261   4.609   5.878   1.485  0.4253  1.1898  1.2783
 2099TIP3    H2 6262   4.734   5.950   1.440  0.1502  0.0888 -1.4499
 2100TIP3   OH2 6263   5.060   0.186   5.269 -0.5475  0.0970  0.0760
 2100TIP3    H1 6264   4.976   0.156   5.304  1.3969 -1.8547  3.7073
 2100TIP3    H2 6265   5.077   0.268   5.315 -0.4587  0.5127 -0.6878
 2101TIP3   OH2 6266   1.416   2.634   5.399 -0.3627  1.0817  0.3233
 2101TIP3    H1 6267   1.466   2.591   5.469  0.9274  0.0720 -1.1586
 2101TIP3    H2 6268   1.392   2.563   5.340  1.3812  2.2553 -1.9400
 2102TIP3   OH2 6269   2.745   5.685   0.343 -0.0890  0.3109  0.7181
 2102TIP3    H1 6270   2.734   5.726   0.429  0.1411 -0.0350  0.9151
 2102TIP3    H2 6271   2.658   5.689   0.303 -0.3728 -0.1896  1.2657
 2103TIP3   OH2 6272   5.610   2.796   5.072 -0.0199 -0.1295  0.9834
 2103TIP3    H1 6273   5.657   2.872   5.108 -0.2759  1.1158 -1.1449
 2103TIP3    H2 6274   5.544   2.834   5.015 -1.0497 -1.9637  0.9030
 2104TIP3   OH2 6275   2.064   6.611   0.954  0.7021  0.1691  0.4037
 2104TIP3    H1 6276   2.046   6.555   1.029 -0.8067  0.4854  0.3179
 2104TIP3    H2 6277   2.152   6.645   0.970  0.2340  0.6328  2.2962
 2105TIP3   OH2 6278   6.622   4.228   3.196 -0.0113  0.6075 -0.3731
 2105TIP3    H1 6279   6.590   4.318   3.210 -1.3202 -0.0069  0.8389
 2105TIP3    H2 6280   6.550   4.172   3.224  0.1593 -0.8653 -2.6128
 2106TIP3   OH2 6281   6.007   6.379   3.111 -0.2605  0.6321  0.1981
 2106TIP3    H1 6282   5.941   6.340   3.168 -2.5655  0.5824 -2.2684
 2106TIP3    H2 6283   5.959   6.398   3.030  2.7549  0.7758 -1.6919
 2107TIP3   OH2 6284   5.358   1.871   5.499  0.0870  0.1894 -0.0477
 2107TIP3    H1 6285   5.327   1.957   5.526  0.0005 -0.0296  0.5586
 2107TIP3    H2 6286   5.454   1.877   5.504  0.1080  0.4705 -0.7002
 2108TIP3   OH2 6287   6.414   3.170   5.503  0.7174  0.3849 -0.1828
 2108TIP3    H1 6288   6.475   3.100   5.480  0.4322  0.7774 -2.2666
 2108TIP3    H2 6289   6.428   3.238   5.437 -0.4464  1.4402  0.6003
 2109TIP3   OH2 6290   1.960   2.388   2.167  0.1381  0.3584  0.1518
 2109TIP3    H1 6291   1.916   2.441   2.233 -1.3184 -0.0925 -0.4124
 2109TIP3    H2 6292   1.931   2.298   2.185  0.8951  0.0281 -0.2036
 2110TIP3   OH2 6293   6.335   1.531   4.673  0.1080 -0.2945 -0.4654
 2110TIP3    H1 6294   6.374   1.594   4.734  1.3502 -0.5199 -1.0110
 2110TIP3    H2 6295   6.276   1.478   4.727  0.2803  0.2819  0.2978
 2111TIP3   OH2 6296   3.847   0.440   2.149 -0.4493  0.9629 -0.2138
 2111TIP3    H1 6297   3.768   0.492   2.140 -1.9713 -1.1212  0.2375
 2111TIP3    H2 6298   3.835   0.366   2.088  1.3780  0.8315 -0.4954
 2112TIP3   OH2 6299   5.070   3.078   0.916 -0.5969 -0.1406  0.5795
 2112TIP3    H1 6300   5.105   3.020   0.848 -1.1173  2.0681 -1.7292
 2112TIP3    H2 6301   4.979   3.091   0.892 -0.3427  2.0816  0.6389
 2113TIP3   OH2 6302   5.589   0.092   5.027 -0.2218  0.1935 -0.5899
 2113TIP3    H1 6303   5.620   0.053   4.946  0.7060  1.1786 -0.7135
 2113TIP3    H2 6304   5.538   0.022   5.069  1.6183 -1.2615 -0.6793
 2114TIP3   OH2 6305   0.887   3.770   0.690 -0.3634 -0.2992 -0.9108
 2114TIP3    H1 6306   0.883   3.865   0.677  1.4143 -0.1387 -0.5242
 2114TIP3    H2 6307   0.973   3.745   0.657 -0.8605 -1.8041 -1.1088
 2115TIP3   OH2 6308   2.873   3.147   0.029  0.6085  0.1974 -0.0350
 2115TIP3    H1 6309   2.944   3.138   0.093 -0.2815  1.9916  1.2818
 2115TIP3    H2 6310   2.811   3.078   0.053  2.1297 -1.9018 -1.6718
 2116TIP3   OH2 6311   3.153   1.954   3.161  0.2127 -0.1868  0.4013
 2116TIP3    H1 6312   3.127   1.905   3.083  0.5950 -1.9418  1.3139
 2116TIP3    H2 6313   3.245   1.930   3.175  0.6991  1.5662  0.3536
 2117TIP3   OH2 6314   6.295   3.889   2.542  0.2503 -0.1289 -0.1572
 2117TIP3    H1 6315   6.299   3.874   2.636 -0.9627  0.0833 -0.0496
 2117TIP3    H2 6316   6.375   3.850   2.507  0.7955 -0.0539  0.9771
 2118TIP3   OH2 6317   3.383   4.532   4.612 -0.1742 -0.4406  0.2889
 2118TIP3    H1 6318   3.432   4.503   4.689 -0.8074 -0.4980  0.6764
 2118TIP3    H2 6319   3.343   4.614   4.639  0.9018  0.3732 -0.5178
 2119TIP3   OH2 6320   4.340   3.034   2.987 -0.1342  0.0294 -0.4322
 2119TIP3    H1 6321   4.386   3.112   2.957 -0.2120 -0.0388 -0.7360
 2119TIP3    H2 6322   4.250   3.046   2.955  0.0181 -0.5101 -1.0931
 2120TIP3   OH2 6323   3.078   0.964   2.515 -0.3891  0.4855  0.3224
 2120TIP3    H1 6324   3.104   1.040   2.567 -1.6012  0.6172  0.7715
 2120TIP3    H2 6325   3.039   0.904   2.579 -0.8658  0.1595 -0.2679
 2121TIP3   OH2 6326   3.412   6.608   0.900  0.0360  0.0538  0.1334
 2121TIP3    H1 6327   3.405   6.516   0.873 -1.2846  0.5204 -1.2117
 2121TIP3    H2 6328   3.496   6.613   0.945  0.3699 -1.7048 -0.2251
 2122TIP3   OH2 6329   5.189   3.115   1.760 -0.0413 -0.3089  0.5916
 2122TIP3    H1 6330   5.149   3.054   1.698  0.5217 -0.4775  0.3822
 2122TIP3    H2 6331   5.274   3.136   1.721  0.0254  0.1327  0.9654
 2123TIP3   OH2 6332   3.313   2.120   2.218 -0.6916 -0.1877  0.5453
 2123TIP3    H1 6333   3.253   2.183   2.178 -0.6060 -1.1633 -1.2287
 2123TIP3    H2 6334   3.399   2.159   2.206 -0.8087  0.5021  1.7378
 2124TIP3   OH2 6335   5.506   6.549   4.198 -0.6659 -1.0587 -0.4237
 2124TIP3    H1 6336   5.465   6.531   4.114 -1.0910  0.8579 -0.6900
 2124TIP3    H2 6337   5.437   6.592   4.250  0.5106  0.9154 -0.3668
 2125TIP3   OH2 6338   2.001   6.517   3.109 -0.6404  0.0496  0.0523
 2125TIP3    H1 6339   2.040   6.470   3.036 -0.1670  1.6339 -0.7544
 2125TIP3    H2 6340   2.021   6.463   3.186 -0.5561 -1.2897 -0.8845
 2126TIP3   OH2 6341   0.809   3.400   2.304  0.0484  0.0511  0.0655
 2126TIP3    H1 6342   0.741   3.333   2.305  0.4581 -0.3933 -0.7029
 2126TIP3    H2 6343   0.891   3.351   2.298  0.3520  0.6213 -0.5019
 2127TIP3   OH2 6344   5.590   5.153   5.664  0.3588  0.1469  0.0560
 2127TIP3    H1 6345   5.598   5.090   5.735  1.0130  0.8177  0.5959
 2127TIP3    H2 6346   5.635   5.112   5.590  0.4169 -0.1936  0.2793
 2128TIP3   OH2 6347   2.636   4.030   3.631  0.4287 -0.4921  0.8888
 2128TIP3    H1 6348   2.614   4.005   3.541  2.3317  0.2957  0.1391
 2128TIP3    H2 6349   2.607   3.956   3.684 -0.1786 -1.2539 -0.4535
 2129TIP3   OH2 6350   4.882   2.563   5.743  0.2906  0.4250 -0.3946
 2129TIP3    H1 6351   4.803   2.611   5.768 -0.4349 -1.3528  0.9354
 2129TIP3    H2 6352   4.897   2.502   5.815 -0.0621 -2.7772 -2.8431
 2130TIP3   OH2 6353   0.659   0.165   0.757  0.3379 -0.4404 -0.6246
 2130TIP3    H1 6354   0.693   0.123   0.678  0.4022 -2.6048  0.4941
 2130TIP3    H2 6355   0.631   0.093   0.813 -2.8493  1.1148 -0.0062
 2131TIP3   OH2 6356   6.283   2.489   4.216 -0.2774  0.5696 -0.0439
 2131TIP3    H1 6357   6.243   2.540   4.287 -0.5042 -0.2429  0.4163
 2131TIP3    H2 6358   6.377   2.497   4.231 -0.2875 -2.0039  2.1561
 2132TIP3   OH2 6359   6.621   6.098   3.347 -0.0079  0.0776  0.0228
 2132TIP3    H1 6360   6.716   6.097   3.343  0.1302  0.0455  2.0906
 2132TIP3    H2 6361   6.593   6.019   3.301  1.0280 -0.4375  0.2529
 2133TIP3   OH2 6362   2.119   0.249   4.870 -0.1000 -0.0911 -0.8237
 2133TIP3    H1 6363   2.131   0.156   4.885 -3.2875 -0.3431  1.1049
 2133TIP3    H2 6364   2.196   0.290   4.908  0.1664 -1.8454  0.6737
 2134TIP3   OH2 6365   4.893   5.723   0.291  0.1583 -0.4450  0.4997
 2134TIP3    H1 6366   4.816   5.740   0.345 -0.4495  2.6750 -1.1031
 2134TIP3    H2 6367   4.947   5.801   0.301  0.8930 -0.5561 -1.9122
 2135TIP3   OH2 6368   1.695   2.498   1.151 -0.0828 -0.1199 -0.0922
 2135TIP3    H1 6369   1.635   2.423   1.154  0.6262 -0.8362 -2.1641
 2135TIP3    H2 6370   1.763   2.476   1.214 -0.1121 -1.0324 -0.3542
 2136TIP3   OH2 6371   0.109   6.679   5.742 -0.1243  0.5618 -0.4472
 2136TIP3    H1 6372   0.066   6.594   5.735  1.0247 -0.2740  1.6236
 2136TIP3    H2 6373   0.042   6.742   5.715 -1.5923 -0.8835 -0.3397
 2137TIP3   OH2 6374   7.133   2.178   0.422 -0.2017 -0.1037  0.4935
 2137TIP3    H1 6375   7.050   2.162   0.377 -1.1057 -0.5798  2.2389
 2137TIP3    H2 6376   7.160   2.266   0.393 -1.2553  0.0173 -0.1632
 2138TIP3   OH2 6377   1.196   2.318   2.622 -0.3829 -0.5016  0.1885
 2138TIP3    H1 6378   1.213   2.411   2.634  1.5279 -0.8026  0.1375
 2138TIP3    H2 6379   1.118   2.315   2.565  0.7563  1.1129 -1.5708
 2139TIP3   OH2 6380   1.009   2.566   4.012  0.0203 -0.0253 -0.6471
 2139TIP3    H1 6381   1.077   2.616   3.968  1.9163 -0.0911  1.9614
 2139TIP3    H2 6382   0.964   2.629   4.068 -0.7316 -0.3745 -0.8435
 2140TIP3   OH2 6383   6.670   5.772   1.731 -0.5917 -0.2748  0.3245
 2140TIP3    H1 6384   6.657   5.776   1.637 -0.8729  0.6064  0.3971
 2140TIP3    H2 6385   6.763   5.793   1.744 -1.2169  2.8376  0.4328
 2141TIP3   OH2 6386   3.500   3.701   1.357  0.2756  0.1785  0.2105
 2141TIP3    H1 6387   3.570   3.746   1.310  1.7902 -1.1230  1.0984
 2141TIP3    H2 6388   3.509   3.732   1.448  0.3806 -0.7652  0.5331
 2142TIP3   OH2 6389   3.567   1.324   2.202  0.3757 -0.0553  0.6420
 2142TIP3    H1 6390   3.507   1.358   2.269 -0.0993  0.1929  0.0960
 2142TIP3    H2 6391   3.630   1.395   2.190 -1.1078  1.0409 -1.1114
 2143TIP3   OH2 6392   0.149   4.664   2.404 -0.3970 -0.3352 -0.2816
 2143TIP3    H1 6393   0.087   4.712   2.349 -0.9961 -0.0825  0.5927
 2143TIP3    H2 6394   0.119   4.574   2.403 -1.3680 -0.0524  0.8948
 2144TIP3   OH2 6395   0.459   2.154   3.618  0.5607 -0.1763  0.8759
 2144TIP3    H1 6396   0.504   2.118   3.542 -1.4346 -0.5232 -0.1899
 2144TIP3    H2 6397   0.495   2.104   3.692  2.8486  0.4677  0.2934
 2145TIP3   OH2 6398   1.176   3.310   3.305 -0.1538 -0.2140 -0.0920
 2145TIP3    H1 6399   1.232   3.233   3.307  1.0564  0.5854 -1.6167
 2145TIP3    H2 6400   1.137   3.309   3.218 -1.2160  0.1635  0.3632
 2146TIP3   OH2 6401   4.696   1.212   3.816  0.3827 -0.4216 -0.1501
 2146TIP3    H1 6402   4.671   1.141   3.875  1.7930  0.4005  1.5233
 2146TIP3    H2 6403   4.698   1.172   3.729 -2.8796 -1.4120  0.0830
 2147TIP3   OH2 6404   6.628   0.700   2.010  0.0571 -0.7636 -0.1106
 2147TIP3    H1 6405   6.687   0.632   1.978  1.6280  0.8434 -0.7522
 2147TIP3    H2 6406   6.592   0.739   1.930  1.6901  1.2792  0.0720
 2148TIP3   OH2 6407   3.668   0.547   4.988 -0.3290  0.3438 -0.2573
 2148TIP3    H1 6408   3.627   0.516   5.069 -0.4305  1.1260  0.0032
 2148TIP3    H2 6409   3.705   0.632   5.012  1.8593 -0.5058 -0.3322
 2149TIP3   OH2 6410   4.785   0.693   2.002  0.0688  0.2020  0.2349
 2149TIP3    H1 6411   4.828   0.684   1.917 -0.4722  2.1388 -0.2968
 2149TIP3    H2 6412   4.857   0.696   2.065  0.6668  1.8065 -0.4830
 2150TIP3   OH2 6413   3.453   5.266   2.633 -0.2254 -0.2673 -0.3141
 2150TIP3    H1 6414   3.358   5.274   2.622 -0.2967  1.6193  1.0930
 2150TIP3    H2 6415   3.483   5.356   2.643  1.3441 -0.9585  1.9023
 2151TIP3   OH2 6416   1.231   0.300   0.131  0.1546 -0.5528 -0.2839
 2151TIP3    H1 6417   1.137   0.281   0.122  0.2957 -1.6149  0.3500
 2151TIP3    H2 6418   1.238   0.348   0.213 -0.1318  1.9048 -1.6139
 2152TIP3   OH2 6419   2.370   1.427   0.443  0.4507  0.1658  0.1367
 2152TIP3    H1 6420   2.355   1.511   0.399 -0.5818 -0.9690 -1.8508
 2152TIP3    H2 6421   2.283   1.399   0.471  0.8872  0.0782  1.4498
 2153TIP3   OH2 6422   1.105   2.385   4.688 -0.1609  0.0567 -0.3286
 2153TIP3    H1 6423   1.119   2.379   4.594 -0.4456  0.1194 -0.3754
 2153TIP3    H2 6424   1.181   2.341   4.726 -0.5823 -0.9355 -0.6084
 2154TIP3   OH2 6425   2.575   2.989   1.052  0.3917  0.4102 -0.0629
 2154TIP3    H1 6426   2.491   2.954   1.081 -0.0769  0.8952 -0.7791
 2154TIP3    H2 6427   2.632   2.912   1.043  0.1832  0.1313  0.8977
 2155TIP3   OH2 6428   0.127   3.218   4.148  0.4873  0.0304 -0.3536
 2155TIP3    H1 6429   0.201   3.218   4.086 -0.8816 -0.5498 -2.0651
 2155TIP3    H2 6430   0.153   3.156   4.216  0.2629 -2.8648 -2.6827
 2156TIP3   OH2 6431   0.687   1.708   4.052 -0.2080  0.4811 -0.4418
 2156TIP3    H1 6432   0.693   1.799   4.080 -2.7788 -0.1718  2.7836
 2156TIP3    H2 6433   0.763   1.666   4.091 -0.0193  0.8903 -0.3584
 2157TIP3   OH2 6434   0.555   3.459   3.048  0.1373  0.3989  0.0844
 2157TIP3    H1 6435   0.645   3.466   3.017  0.8597 -1.8538  1.4504
 2157TIP3    H2 6436   0.505   3.432   2.971  0.6435  1.4260 -0.6261
 2158TIP3   OH2 6437   1.931   6.770   1.180  0.4621 -0.1292 -0.2888
 2158TIP3    H1 6438   1.965   6.689   1.219 -1.5730 -1.0315 -0.2736
 2158TIP3    H2 6439   2.007   6.828   1.175  1.9287 -1.9479 -0.0854
 2159TIP3   OH2 6440   1.269   1.305   0.820  0.2966  0.0345 -0.0894
 2159TIP3    H1 6441   1.209   1.369   0.857 -0.2124 -0.9482  0.8560
 2159TIP3    H2 6442   1.212   1.243   0.774  0.7407  0.0325 -0.6438
 2160TIP3   OH2 6443   4.504   0.489   3.649 -0.0371 -0.0767  0.0867
 2160TIP3    H1 6444   4.501   0.535   3.732  2.3571 -1.1456  0.8475
 2160TIP3    H2 6445   4.431   0.427   3.653  0.3200 -0.4311  1.5927
 2161TIP3   OH2 6446   5.064   0.372   1.273 -0.4525  0.5369  1.0405
 2161TIP3    H1 6447   5.034   0.322   1.198 -3.2990  2.0449  1.0232
 2161TIP3    H2 6448   5.154   0.398   1.251 -1.3029  1.2162 -2.0061
 2162TIP3   OH2 6449   2.419   6.724   2.088  0.1334 -0.5252 -0.5117
 2162TIP3    H1 6450   2.491   6.708   2.027 -1.1167 -0.7809 -1.9612
 2162TIP3    H2 6451   2.440   6.808   2.128  0.9186 -0.2940 -1.3824
 2163TIP3   OH2 6452   3.376   3.047   5.497 -0.1942 -0.1554 -0.2009
 2163TIP3    H1 6453   3.388   3.057   5.591 -0.6113 -0.8832 -0.0585
 2163TIP3    H2 6454   3.311   3.114   5.474  1.5442  1.5722 -0.4074
 2164TIP3   OH2 6455   3.322   6.709   2.209 -0.0897  0.1500  0.9630
 2164TIP3    H1 6456   3.345   6.660   2.130 -1.1319  0.3655  0.5084
 2164TIP3    H2 6457   3.406   6.739   2.243  0.3082  1.3761 -0.9207
 2165TIP3   OH2 6458   1.403   2.714   1.603  0.5684  0.6885 -0.0763
 2165TIP3    H1 6459   1.408   2.619   1.616  0.6996  1.0441  3.1468
 2165TIP3    H2 6460   1.490   2.738   1.571  1.4860 -0.0131  1.7403
 2166TIP3   OH2 6461   2.683   3.577   0.405 -0.2619 -0.5035  0.4635
 2166TIP3    H1 6462   2.773   3.605   0.421 -0.3456 -0.6573  1.2812
 2166TIP3    H2 6463   2.646   3.644   0.349  0.1355 -0.0255  0.7641
 2167TIP3   OH2 6464   4.224   2.314   0.704 -0.2882  0.4042 -0.8258
 2167TIP3    H1 6465   4.196   2.282   0.790  0.5312 -0.8241 -1.0012
 2167TIP3    H2 6466   4.317   2.334   0.715  0.4981 -2.2301 -2.0657
 2168TIP3   OH2 6467   1.643   2.902   3.336 -0.1506 -0.1795 -0.1761
 2168TIP3    H1 6468   1.658   2.901   3.431  0.3381 -0.4581 -0.2488
 2168TIP3    H2 6469   1.658   2.811   3.309 -1.7455 -0.4209 -0.3087
 2169TIP3   OH2 6470   1.197   4.640   0.526 -0.3883 -0.4953 -0.0620
 2169TIP3    H1 6471   1.228   4.680   0.445  0.8273 -2.1962 -0.4824
 2169TIP3    H2 6472   1.258   4.671   0.593 -1.1108  0.5300  0.1465
 2170TIP3   OH2 6473   2.674   4.689   0.756  0.2378  0.4603 -0.0677
 2170TIP3    H1 6474   2.631   4.723   0.678  0.2558 -2.6420 -1.5897
 2170TIP3    H2 6475   2.767   4.688   0.733  0.2120 -0.7661 -0.2014
 2171TIP3   OH2 6476   0.412   3.276   0.192  0.0477 -0.1366 -0.0409
 2171TIP3    H1 6477   0.361   3.354   0.171 -0.8402 -0.8780 -0.7404
 2171TIP3    H2 6478   0.398   3.262   0.286 -1.4849 -0.6062 -0.3084
 2172TIP3   OH2 6479   0.235   6.340   2.887  0.6736  0.4275  0.5091
 2172TIP3    H1 6480   0.329   6.321   2.888  0.5836 -0.8349 -2.9015
 2172TIP3    H2 6481   0.230   6.433   2.862  1.0050  0.4359  0.4625
 2173TIP3   OH2 6482   4.427   2.995   5.729 -0.6472  0.4300  0.5982
 2173TIP3    H1 6483   4.476   3.055   5.673 -0.9282  0.3767  0.2904
 2173TIP3    H2 6484   4.428   2.912   5.681 -0.1542  0.1531  1.0775
 2174TIP3   OH2 6485   0.965   4.376   4.663  0.3660 -0.2865 -0.1472
 2174TIP3    H1 6486   0.889   4.410   4.615 -0.0912 -0.0874  0.6950
 2174TIP3    H2 6487   1.034   4.371   4.597  0.5583  2.5587 -0.2647
 2175TIP3   OH2 6488   4.829   5.646   3.817 -0.0122 -0.2364  0.0339
 2175TIP3    H1 6489   4.869   5.662   3.731  1.0466  2.3368  0.8890
 2175TIP3    H2 6490   4.897   5.600   3.867  0.6791  1.1603  0.4424
 2176TIP3   OH2 6491   6.405   2.678   3.451 -0.1317  0.3069  0.3099
 2176TIP3    H1 6492   6.451   2.663   3.534 -0.0926 -0.8178  0.1085
 2176TIP3    H2 6493   6.326   2.625   3.458 -0.3617  0.5850 -0.1761
 2177TIP3   OH2 6494   5.849   4.603   2.122  0.0430 -0.4635  0.0072
 2177TIP3    H1 6495   5.910   4.559   2.181 -1.4694 -0.9484  1.2944
 2177TIP3    H2 6496   5.763   4.570   2.148 -0.8339  0.6849 -1.2951
 2178TIP3   OH2 6497   6.671   2.475   1.153 -0.4799 -0.2556 -0.0582
 2178TIP3    H1 6498   6.696   2.383   1.165  0.7334  0.1192  0.4202
 2178TIP3    H2 6499   6.673   2.512   1.241 -1.1383  0.1904 -0.2276
 2179TIP3   OH2 6500   3.840   0.888   5.722 -0.0266  0.8205 -0.0573
 2179TIP3    H1 6501   3.883   0.830   5.786 -1.3027  0.2281  0.3054
 2179TIP3    H2 6502   3.912   0.925   5.671  0.9195  0.0282  0.6548
 2180TIP3   OH2 6503   3.646   4.114   5.490 -0.5011 -0.0767 -0.3464
 2180TIP3    H1 6504   3.686   4.028   5.480 -0.1958 -0.0700  0.7010
 2180TIP3    H2 6505   3.561   4.097   5.531 -1.0645  0.0096 -1.4552
 2181TIP3   OH2 6506   3.315   0.546   4.375 -0.3330 -0.3159  0.3324
 2181TIP3    H1 6507   3.405   0.534   4.346  0.2258  0.7987  1.5466
 2181TIP3    H2 6508   3.299   0.472   4.434 -0.4288 -0.8370 -0.3310
 2182TIP3   OH2 6509   5.621   0.023   4.225  0.0125  0.6115  0.2931
 2182TIP3    H1 6510   5.680  -0.008   4.294 -0.9078  1.6897  1.6323
 2182TIP3    H2 6511   5.655   0.109   4.201  0.9395 -0.1942 -1.3951
 2183TIP3   OH2 6512   1.225   5.395   1.781 -0.5147 -0.0923 -0.1160
 2183TIP3    H1 6513   1.252   5.411   1.691  0.4551  1.4681  0.4078
 2183TIP3    H2 6514   1.182   5.477   1.807  1.5966  0.5500  1.6515
 2184TIP3   OH2 6515   3.781   0.902   0.319 -0.1146  0.3081 -0.5837
 2184TIP3    H1 6516   3.843   0.894   0.246  0.6493  0.1843  0.0753
 2184TIP3    H2 6517   3.765   0.812   0.347 -0.3990  0.3571 -0.5868
 2185TIP3   OH2 6518   1.909   3.602   0.061  0.0352  0.2051  0.0422
 2185TIP3    H1 6519   1.883   3.630  -0.026 -2.2860 -1.6358  0.0379
 2185TIP3    H2 6520   1.846   3.645   0.120  0.1472 -0.3306  0.5678
 2186TIP3   OH2 6521   0.872   0.212   1.101  0.7262 -0.1004 -0.0438
 2186TIP3    H1 6522   0.858   0.212   1.196 -0.9735 -0.4628 -0.2618
 2186TIP3    H2 6523   0.939   0.280   1.087 -1.5264  2.5872  1.1111
 2187TIP3   OH2 6524   2.711   0.873   4.851 -0.1249  0.0808  0.3913
 2187TIP3    H1 6525   2.771   0.820   4.903 -1.7491 -0.4535  1.8172
 2187TIP3    H2 6526   2.676   0.812   4.786  1.3260  0.5602 -0.8938
 2188TIP3   OH2 6527   6.450   2.777   0.801  0.1732 -0.2936 -0.1517
 2188TIP3    H1 6528   6.375   2.734   0.843 -0.4399  0.2945 -0.6274
 2188TIP3    H2 6529   6.514   2.788   0.872  1.0081 -3.3293 -0.2880
 2189TIP3   OH2 6530   2.993   2.618   2.435 -0.2030  0.7786 -0.5190
 2189TIP3    H1 6531   2.954   2.548   2.487  0.9603  0.6213  0.1797
 2189TIP3    H2 6532   2.920   2.677   2.415 -0.6538  1.0120  1.5653
 2190TIP3   OH2 6533   3.124   3.189   2.566 -0.3118 -0.1451 -0.3138
 2190TIP3    H1 6534   3.168   3.175   2.650  0.3273  1.2630 -0.3889
 2190TIP3    H2 6535   3.039   3.227   2.590  0.0704  0.7296 -0.3015
 2191TIP3   OH2 6536   2.885   4.638   3.372  0.2002 -0.8478 -0.0254
 2191TIP3    H1 6537   2.863   4.676   3.287 -1.7157  0.5931  1.0368
 2191TIP3    H2 6538   2.940   4.704   3.414  0.3002 -1.1069  0.2522
 2192TIP3   OH2 6539   0.680   1.747   1.248  0.5021 -0.1876 -0.6859
 2192TIP3    H1 6540   0.754   1.800   1.276  1.3838 -1.2009 -1.0687
 2192TIP3    H2 6541   0.715   1.659   1.237 -0.6240 -0.5683 -1.4474
 2193TIP3   OH2 6542   6.771   1.138   3.742 -0.1077  0.2811 -0.0825
 2193TIP3    H1 6543   6.679   1.147   3.766 -0.4355 -1.0560 -0.7509
 2193TIP3    H2 6544   6.782   1.045   3.724  1.8624  0.0243  1.9338
 2194TIP3   OH2 6545   2.319   2.873   1.138 -0.1414  0.3927 -1.0718
 2194TIP3    H1 6546   2.346   2.818   1.211  3.1160  1.8065 -1.0420
 2194TIP3    H2 6547   2.224   2.880   1.147 -0.3785 -2.9576  0.4185
 2195TIP3   OH2 6548   0.442   1.120   2.012  0.7340 -0.0964 -0.0005
 2195TIP3    H1 6549   0.449   1.215   2.018  1.9778 -0.2057  0.7734
 2195TIP3    H2 6550   0.497   1.087   2.083 -2.0985 -1.3877  1.7547
 2196TIP3   OH2 6551   4.677   6.169   3.810 -0.0634  0.3401  0.4560
 2196TIP3    H1 6552   4.591   6.208   3.822 -0.9130 -0.8804 -1.2881
 2196TIP3    H2 6553   4.664   6.076   3.831  0.7220  0.0639 -0.2502
 2197TIP3   OH2 6554   5.975   3.478   1.278  0.2026  0.1320 -0.1984
 2197TIP3    H1 6555   6.033   3.483   1.202 -0.1661  4.0831 -0.3997
 2197TIP3    H2 6556   5.895   3.437   1.244  0.9069 -0.4182 -1.2671
 2198TIP3   OH2 6557   4.889   4.028   2.169 -0.3036  0.6861  0.1294
 2198TIP3    H1 6558   4.827   4.046   2.098  0.5000  0.3156 -0.6845
 2198TIP3    H2 6559   4.931   4.112   2.187  0.1941  0.5817 -0.5220
 2199TIP3   OH2 6560   1.952   5.520   2.125 -0.3800  0.1711  0.4756
 2199TIP3    H1 6561   2.009   5.595   2.141  0.4202 -0.0069 -1.3843
 2199TIP3    H2 6562   1.924   5.493   2.213  1.2889  1.1063  1.3523
 2200TIP3   OH2 6563   6.386   5.192   0.949  0.1042  0.5988 -0.3683
 2200TIP3    H1 6564   6.452   5.144   0.999 -0.9924 -1.3423 -0.6904
 2200TIP3    H2 6565   6.308   5.191   1.004 -0.2955  0.9574 -0.9131
 2201TIP3   OH2 6566   0.295   3.219   4.441  0.5247 -0.2827 -0.1599
 2201TIP3    H1 6567   0.321   3.141   4.490 -1.1038  0.2632  1.7047
 2201TIP3    H2 6568   0.356   3.286   4.470 -0.9072  0.2458  1.9093
 2202TIP3   OH2 6569   2.132   6.170   5.183 -0.3754 -0.2510 -0.1181
 2202TIP3    H1 6570   2.082   6.113   5.125  0.5595 -1.0232 -0.1679
 2202TIP3    H2 6571   2.084   6.166   5.266 -1.5119  0.5819 -0.6874
 2203TIP3   OH2 6572   6.153   6.731   3.722 -0.0925  0.2744  0.4780
 2203TIP3    H1 6573   6.137   6.813   3.676 -0.1348  0.7977  1.3960
 2203TIP3    H2 6574   6.234   6.697   3.685 -1.3474 -0.5577 -1.6679
 2204TIP3   OH2 6575   4.383   4.904   2.985 -0.3741  0.2658  0.6657
 2204TIP3    H1 6576   4.417   4.914   3.074  0.0512 -1.3240  0.7105
 2204TIP3    H2 6577   4.288   4.913   2.994 -0.3585 -0.1634  1.3323
 2205TIP3   OH2 6578   0.033   6.426   5.667 -0.0203  0.1367 -0.2669
 2205TIP3    H1 6579  -0.019   6.432   5.586  0.1071  0.5892 -0.3153
 2205TIP3    H2 6580   0.015   6.338   5.700 -0.3770  0.0869 -0.5852
 2206TIP3   OH2 6581   5.157   3.042   5.669  0.0375  0.2737  0.0683
 2206TIP3    H1 6582   5.065   3.055   5.692 -0.1133  2.1358 -1.3108
 2206TIP3    H2 6583   5.196   3.130   5.674  1.0827 -0.0208 -1.8796
 2207TIP3   OH2 6584   0.931   2.604   2.256 -0.5662  0.6690  1.1091
 2207TIP3    H1 6585   0.889   2.656   2.187  1.0797  1.4145  0.6251
 2207TIP3    H2 6586   1.023   2.630   2.253  0.3366 -2.1628  0.9330
 2208TIP3   OH2 6587   5.023   2.669   2.545 -0.5897 -0.0248  0.0198
 2208TIP3    H1 6588   4.990   2.758   2.529 -0.7010 -0.0713 -0.0139
 2208TIP3    H2 6589   5.066   2.644   2.463  1.9284  1.0588  0.9112
 2209TIP3   OH2 6590   5.481   1.099   2.959 -0.5098 -0.2581  0.2526
 2209TIP3    H1 6591   5.467   1.051   3.041  2.0008 -1.9101 -0.2019
 2209TIP3    H2 6592   5.437   1.046   2.892 -0.9463  0.1070  0.2396
 2210TIP3   OH2 6593   0.903   5.570   0.679  0.4013 -0.1371 -0.2053
 2210TIP3    H1 6594   0.816   5.604   0.658 -0.1669 -1.4574 -0.0847
 2210TIP3    H2 6595   0.948   5.569   0.594 -0.5306 -1.6884 -0.7207
 2211TIP3   OH2 6596   2.841   3.859   5.345 -0.4669 -0.2639 -0.3222
 2211TIP3    H1 6597   2.904   3.897   5.283  0.7730 -3.0023 -0.8918
 2211TIP3    H2 6598   2.848   3.915   5.423 -0.1805  1.7531 -1.7069
 2212TIP3   OH2 6599   3.234   6.727   4.823 -0.0321 -0.6375  0.0253
 2212TIP3    H1 6600   3.159   6.670   4.806 -1.1115  0.9859 -0.8983
 2212TIP3    H2 6601   3.266   6.751   4.736 -0.9389  1.8091  0.2841
 2213TIP3   OH2 6602   5.348   5.473   3.913 -0.1130 -0.1585  0.0992
 2213TIP3    H1 6603   5.432   5.512   3.889  0.2239 -0.5839  0.5598
 2213TIP3    H2 6604   5.309   5.448   3.829  1.0783 -1.6969 -0.0360
 2214TIP3   OH2 6605   3.961   2.999   3.924  0.0163  0.7850  0.4356
 2214TIP3    H1 6606   3.949   3.078   3.977  0.7533  1.1306  0.0914
 2214TIP3    H2 6607   4.055   2.994   3.908 -0.1998  0.7658 -0.9586
 2215TIP3   OH2 6608   3.062   0.731   1.897  0.2466  0.2370  0.1884
 2215TIP3    H1 6609   3.042   0.677   1.973  0.4006 -0.5714 -0.3381
 2215TIP3    H2 6610   3.073   0.669   1.825  2.5552  0.7907 -0.0025
 2216TIP3   OH2 6611   7.034   2.250   4.016 -0.0088  1.0486 -0.5854
 2216TIP3    H1 6612   6.987   2.180   3.971  3.3349 -1.5550 -0.3505
 2216TIP3    H2 6613   7.095   2.284   3.952  1.1605  0.9529  0.4456
 2217TIP3   OH2 6614   1.216   1.433   3.070 -0.2792  0.6272  0.0367
 2217TIP3    H1 6615   1.173   1.348   3.069 -0.8025  0.8803 -1.0678
 2217TIP3    H2 6616   1.208   1.464   3.160  0.0253 -0.5287  0.4809
 2218TIP3   OH2 6617   1.202   5.744   2.593  0.0473  0.1730  0.4618
 2218TIP3    H1 6618   1.132   5.701   2.641  0.4107  0.0706  0.9132
 2218TIP3    H2 6619   1.173   5.745   2.502 -0.3165 -0.3064  0.5714
 2219TIP3   OH2 6620   4.298   4.093   0.106  0.1190  0.2087 -0.3893
 2219TIP3    H1 6621   4.284   4.187   0.118 -0.1181  0.2692 -1.0987
 2219TIP3    H2 6622   4.393   4.081   0.114  0.1584  0.5277 -0.3975
 2220TIP3   OH2 6623   5.333   5.338   2.334 -0.1261 -0.0828  0.4361
 2220TIP3    H1 6624   5.315   5.245   2.344  1.0389 -0.3112  0.5560
 2220TIP3    H2 6625   5.305   5.377   2.417  2.1037 -0.7862  1.5949
 2221TIP3   OH2 6626   0.416   0.803   3.961  0.8038  1.1071  0.1093
 2221TIP3    H1 6627   0.466   0.742   3.907 -0.3429  1.7904 -1.8251
 2221TIP3    H2 6628   0.482   0.863   3.997  1.5942  0.6013 -0.4650
 2222TIP3   OH2 6629   5.364   3.757   3.234  0.3113 -0.1205  0.5976
 2222TIP3    H1 6630   5.322   3.681   3.192  0.1719  0.9355 -1.2590
 2222TIP3    H2 6631   5.316   3.767   3.317  0.6775 -2.3337  1.1632
 2223TIP3   OH2 6632   4.716   5.622   0.068 -0.1917 -0.5517  0.1610
 2223TIP3    H1 6633   4.754   5.546   0.114  3.1143  0.0703 -1.2477
 2223TIP3    H2 6634   4.697   5.589  -0.020  3.2648  0.5631 -1.1556
 2224TIP3   OH2 6635   5.776   5.540   4.850  1.0491  0.1416  0.2158
 2224TIP3    H1 6636   5.735   5.593   4.782  1.2244 -0.3608 -0.2939
 2224TIP3    H2 6637   5.779   5.452   4.812  0.2451 -0.3537  1.2605
 2225TIP3   OH2 6638   3.000   4.084   1.363  0.0682 -0.3288 -0.2663
 2225TIP3    H1 6639   2.960   4.141   1.298 -1.0056 -0.7655 -0.0169
 2225TIP3    H2 6640   2.937   4.082   1.435  0.5799 -0.9822  0.1803
 2226TIP3   OH2 6641   1.276   3.644   5.807 -0.0218  0.1353  0.2370
 2226TIP3    H1 6642   1.327   3.690   5.874  0.5597  2.0878 -1.4041
 2226TIP3    H2 6643   1.185   3.665   5.827  0.2200  2.0947 -0.4121
 2227TIP3   OH2 6644   2.863   2.869   1.196 -0.0132 -0.2293 -0.5605
 2227TIP3    H1 6645   2.797   2.937   1.210 -0.8411 -1.1745  0.3198
 2227TIP3    H2 6646   2.814   2.796   1.158  0.3941 -1.1407  0.6129
 2228TIP3   OH2 6647   2.220   4.420   2.681 -0.2449 -0.3623  0.1427
 2228TIP3    H1 6648   2.258   4.426   2.769  0.1578  1.2434 -0.0925
 2228TIP3    H2 6649   2.175   4.504   2.669  1.1454  0.1923 -1.7795
 2229TIP3   OH2 6650   5.787   6.756   4.687  0.4123 -0.2020  0.0376
 2229TIP3    H1 6651   5.763   6.709   4.607 -0.7107  2.0621 -1.0646
 2229TIP3    H2 6652   5.765   6.696   4.758 -1.0978 -1.2752 -1.2640
 2230TIP3   OH2 6653   0.694   0.699   1.365  0.1815  0.2540  0.2045
 2230TIP3    H1 6654   0.655   0.781   1.396 -1.1280  0.1335 -1.0035
 2230TIP3    H2 6655   0.779   0.725   1.330  0.4950  0.8150  1.3148
 2231TIP3   OH2 6656   2.685   4.494   5.372  0.2966 -0.0123 -0.6081
 2231TIP3    H1 6657   2.744   4.450   5.433 -0.2278  0.7213  0.4707
 2231TIP3    H2 6658   2.692   4.587   5.395  0.1986  0.2908 -1.7810
 2232TIP3   OH2 6659   3.302   6.573   1.958 -0.7954  0.3445 -0.0280
 2232TIP3    H1 6660   3.208   6.576   1.944 -0.8798  1.6915  0.6790
 2232TIP3    H2 6661   3.339   6.624   1.886 -0.5173 -0.9806 -0.8508
 2233TIP3   OH2 6662   5.011   4.699   4.663  0.2116  0.4534 -0.4308
 2233TIP3    H1 6663   4.931   4.742   4.694  0.7550  2.1620 -1.2514
 2233TIP3    H2 6664   5.082   4.758   4.691  1.1011 -0.5099 -0.5962
 2234TIP3   OH2 6665   5.214   1.848   2.040  0.1971  0.1368  0.3378
 2234TIP3    H1 6666   5.148   1.866   1.973 -0.6950  0.4994  1.2971
 2234TIP3    H2 6667   5.290   1.899   2.012 -0.5913  1.3071  0.2580
 2235TIP3   OH2 6668   4.255   4.045   5.288 -0.1885 -0.1347 -0.4074
 2235TIP3    H1 6669   4.267   3.953   5.312 -0.2398 -0.1569 -0.4666
 2235TIP3    H2 6670   4.301   4.055   5.205 -0.0017 -0.0554 -0.2931
 2236TIP3   OH2 6671   4.605   6.673   5.859 -0.2914 -0.4149  0.2955
 2236TIP3    H1 6672   4.597   6.715   5.774 -1.1709 -1.1689 -0.0118
 2236TIP3    H2 6673   4.576   6.739   5.922  2.4913  0.9586  0.2779
 2237TIP3   OH2 6674   5.958   1.860   3.794 -0.0716  0.0111  0.2627
 2237TIP3    H1 6675   5.878   1.912   3.780 -0.0317  0.0199  0.0635
 2237TIP3    H2 6676   5.945   1.820   3.880 -0.3264 -0.0490  0.1991
 2238TIP3   OH2 6677   0.871   1.079   0.564  0.1928  0.2513  0.5787
 2238TIP3    H1 6678   0.871   0.983   0.559  0.2243  0.3208 -1.1497
 2238TIP3    H2 6679   0.810   1.099   0.636 -0.1302 -1.0414  0.6916
 2239TIP3   OH2 6680   5.409   5.639   0.799  0.5268  0.3159 -0.1462
 2239TIP3    H1 6681   5.424   5.609   0.889  1.5842  1.4936  0.0977
 2239TIP3    H2 6682   5.339   5.583   0.767  0.8283 -0.8131  1.0689
 2240TIP3   OH2 6683   4.756   5.876   3.451 -0.1288 -0.3800  0.0738
 2240TIP3    H1 6684   4.679   5.886   3.506  1.0334  1.5566  1.4476
 2240TIP3    H2 6685   4.818   5.826   3.504  1.4835  2.5764  1.2076
 2241TIP3   OH2 6686   4.016   2.750   2.065  0.2356  0.4291 -0.1502
 2241TIP3    H1 6687   3.937   2.727   2.114 -0.9211  0.8135 -1.7343
 2241TIP3    H2 6688   4.048   2.667   2.029 -0.8757  0.5349 -1.4798
 2242TIP3   OH2 6689   0.228   0.927   5.454 -0.2471  0.0117 -0.4989
 2242TIP3    H1 6690   0.153   0.938   5.395 -0.8246 -0.5242  0.1158
 2242TIP3    H2 6691   0.236   1.011   5.498 -0.9068 -0.1392 -0.0880
 2243TIP3   OH2 6692   5.906   2.919   1.590  0.5861  0.2872 -0.0102
 2243TIP3    H1 6693   5.820   2.896   1.624  0.4949  1.4051  0.5793
 2243TIP3    H2 6694   5.930   2.847   1.532 -0.2930 -0.5297  0.6150
 2244TIP3   OH2 6695   1.475   0.504   5.914  0.3240  0.1495  0.1940
 2244TIP3    H1 6696   1.567   0.479   5.904  0.4618  0.7498 -0.1280
 2244TIP3    H2 6697   1.440   0.502   5.825 -0.1695 -0.7652  0.3969
 2245TIP3   OH2 6698   4.421   4.990   0.927 -0.5113  0.3176  0.4780
 2245TIP3    H1 6699   4.343   4.967   0.977 -0.5271  1.0782  0.8061
 2245TIP3    H2 6700   4.445   5.077   0.957  0.8790 -0.1786  0.8858
 2246TIP3   OH2 6701   4.500   6.431   3.290 -0.6669  0.1846  0.5607
 2246TIP3    H1 6702   4.590   6.402   3.307  0.8223  3.4956 -0.6453
 2246TIP3    H2 6703   4.482   6.402   3.200 -0.7479 -0.4018  0.7687
 2247TIP3   OH2 6704   5.580   0.395   1.761 -0.6624  0.2411 -0.5351
 2247TIP3    H1 6705   5.666   0.362   1.784 -0.9355  0.4991  0.9698
 2247TIP3    H2 6706   5.566   0.365   1.671  1.4438  1.1502 -1.2264
 2248TIP3   OH2 6707   2.537   3.812   1.036  0.4360  0.0594  0.1966
 2248TIP3    H1 6708   2.478   3.761   0.981  1.0971  0.2712 -0.7330
 2248TIP3    H2 6709   2.496   3.898   1.044 -0.2360 -0.3235  1.0238
 2249TIP3   OH2 6710   3.088   2.208   4.153 -0.0932  0.3413 -0.5002
 2249TIP3    H1 6711   3.014   2.150   4.134 -1.2744  1.5247  0.3115
 2249TIP3    H2 6712   3.125   2.173   4.234  0.5118 -0.5030 -1.1328
 2250TIP3   OH2 6713   2.055   1.875   4.259  0.5860 -0.0853  0.2021
 2250TIP3    H1 6714   2.112   1.887   4.183  0.9155 -1.3612  0.2252
 2250TIP3    H2 6715   1.982   1.822   4.226  0.3063  0.0615  0.5776
 2251TIP3   OH2 6716   6.430   4.842   1.384  0.2258  0.6581  0.2664
 2251TIP3    H1 6717   6.454   4.857   1.292  1.4813  0.8766  0.6231
 2251TIP3    H2 6718   6.369   4.913   1.405  1.4167  1.7316  0.1608
 2252TIP3   OH2 6719   4.098   6.051   1.591  0.6053  0.3267 -0.4886
 2252TIP3    H1 6720   4.178   6.104   1.588  0.3766  0.8064  1.0846
 2252TIP3    H2 6721   4.069   6.057   1.682 -0.0988 -1.5293 -0.5522
 2253TIP3   OH2 6722   3.490   0.298   3.851 -0.7107 -0.0852  0.3395
 2253TIP3    H1 6723   3.555   0.288   3.921  0.1469 -2.8851 -0.7133
 2253TIP3    H2 6724   3.406   0.283   3.894 -0.6452  2.4078  1.4939
 2254TIP3   OH2 6725   2.635   2.732   3.323 -0.1203  0.2017 -0.1044
 2254TIP3    H1 6726   2.719   2.777   3.327  0.0084 -0.0474  0.0595
 2254TIP3    H2 6727   2.633   2.679   3.402 -0.5284  0.3720  0.0025
 2255TIP3   OH2 6728   0.815   3.735   1.476 -0.0854 -0.0944  0.2353
 2255TIP3    H1 6729   0.888   3.718   1.417 -1.0548 -1.7738 -0.5459
 2255TIP3    H2 6730   0.760   3.797   1.429 -0.3658 -0.6857 -0.2300
 2256TIP3   OH2 6731   3.679   4.648   5.819 -0.2402  0.1522 -0.1752
 2256TIP3    H1 6732   3.618   4.722   5.811  0.8696  1.1736  0.4028
 2256TIP3    H2 6733   3.762   4.683   5.788  0.7060 -0.3268  1.6782
 2257TIP3   OH2 6734   2.189   2.787   5.320  0.2387  0.3163  0.0921
 2257TIP3    H1 6735   2.253   2.754   5.383  0.7278 -1.0967 -1.0791
 2257TIP3    H2 6736   2.239   2.851   5.268 -0.3132  1.8932  1.4358
 2258TIP3   OH2 6737   5.550   3.295   5.855  0.0867  0.1493  0.7803
 2258TIP3    H1 6738   5.604   3.250   5.790 -0.9928  1.7876 -1.3846
 2258TIP3    H2 6739   5.613   3.338   5.913  1.1116  0.1393 -0.2944
 2259TIP3   OH2 6740   5.206   6.274   1.513  0.8308 -0.1105  0.2197
 2259TIP3    H1 6741   5.205   6.324   1.595  0.9187  0.2529  0.0023
 2259TIP3    H2 6742   5.295   6.241   1.506  0.9299  0.1830  0.0785
 2260TIP3   OH2 6743   1.051   0.220   2.944  0.1184 -0.1247 -0.4162
 2260TIP3    H1 6744   1.053   0.280   2.869  1.7830 -0.1316 -0.4129
 2260TIP3    H2 6745   1.093   0.267   3.015 -1.4394 -0.1240  0.5673
 2261TIP3   OH2 6746   2.667   1.547   3.038  0.2937  0.2133  0.1279
 2261TIP3    H1 6747   2.686   1.573   2.948 -0.0580 -0.3589 -0.1210
 2261TIP3    H2 6748   2.751   1.519   3.074  0.7069  1.7454  0.4406
 2262TIP3   OH2 6749   6.757   2.616   4.919  0.1020  0.1866  0.1149
 2262TIP3    H1 6750   6.694   2.676   4.958  0.0275  0.3649 -0.2754
 2262TIP3    H2 6751   6.788   2.661   4.840 -0.4517 -0.5613 -0.5475
 2263TIP3   OH2 6752   5.226   1.439   3.032  0.4583 -0.1683  0.2119
 2263TIP3    H1 6753   5.220   1.362   2.976  0.2061 -0.6387  0.8818
 2263TIP3    H2 6754   5.139   1.477   3.031  0.5191 -0.0323  0.0792
 2264TIP3   OH2 6755   5.242   2.628   2.984 -0.5879  0.2280  0.3186
 2264TIP3    H1 6756   5.263   2.720   2.967  0.5711  0.1819  1.3550
 2264TIP3    H2 6757   5.156   2.631   3.026 -0.7576  0.7937 -0.0525
 2265TIP3   OH2 6758   0.962   6.768   2.795 -0.3602  0.1069 -0.2706
 2265TIP3    H1 6759   0.968   6.820   2.875  0.4244  0.2773 -0.4283
 2265TIP3    H2 6760   0.998   6.682   2.819  2.1166  0.8643 -1.0078
 2266TIP3   OH2 6761   2.275   1.582   2.634 -0.1093 -0.2810  0.4308
 2266TIP3    H1 6762   2.351   1.527   2.613  0.2645  1.1300 -2.3291
 2266TIP3    H2 6763   2.200   1.523   2.623  0.4707 -1.4357  2.2437
 2267TIP3   OH2 6764   0.222   2.955   1.357  0.2703 -0.1383  0.6810
 2267TIP3    H1 6765   0.139   2.913   1.338  0.6383 -0.4210 -0.3409
 2267TIP3    H2 6766   0.198   3.037   1.401 -0.5530 -0.0306  0.0448
 2268TIP3   OH2 6767   5.862   3.613   0.818  0.5353 -0.5338  0.0063
 2268TIP3    H1 6768   5.863   3.614   0.914 -0.0667  0.6006  0.0163
 2268TIP3    H2 6769   5.780   3.569   0.795 -0.0571  0.5166  0.0417
 2269TIP3   OH2 6770   2.871   5.803   3.169 -0.3963 -0.4835 -0.1221
 2269TIP3    H1 6771   2.926   5.881   3.167 -1.0644  0.0377  0.8925
 2269TIP3    H2 6772   2.782   5.836   3.154 -0.6782 -1.0512  0.2407
 2270TIP3   OH2 6773   4.112   5.269   1.563 -0.0510  0.1485  0.1431
 2270TIP3    H1 6774   4.024   5.265   1.600 -0.8342 -0.9803 -1.7558
 2270TIP3    H2 6775   4.169   5.271   1.640 -1.6809  0.1114  1.4131
 2271TIP3   OH2 6776   5.212   5.367   5.790  0.0660  0.6568 -0.1296
 2271TIP3    H1 6777   5.183   5.276   5.797 -2.4623  1.2994 -1.2866
 2271TIP3    H2 6778   5.278   5.364   5.721 -0.5555 -0.2039 -0.7158
 2272TIP3   OH2 6779   4.446   5.648   5.897 -0.0725 -0.3517  0.4470
 2272TIP3    H1 6780   4.376   5.702   5.934  0.8286  0.8530  0.4640
 2272TIP3    H2 6781   4.481   5.700   5.825  2.4337  0.2543  1.9737
 2273TIP3   OH2 6782   0.755   1.279   5.785  0.5105 -0.1192 -0.6199
 2273TIP3    H1 6783   0.678   1.333   5.803 -0.1022 -0.8003 -1.1048
 2273TIP3    H2 6784   0.816   1.337   5.741  0.1108  0.3330 -0.5867
 2274TIP3   OH2 6785   6.089   3.977   1.295  0.0019 -0.2468 -0.0145
 2274TIP3    H1 6786   6.041   3.899   1.325  0.8741 -1.1928 -1.0168
 2274TIP3    H2 6787   6.030   4.018   1.232 -0.3942 -0.1664  0.3985
 2275TIP3   OH2 6788   7.019   3.650   0.088  0.2011  0.4107  0.0811
 2275TIP3    H1 6789   7.047   3.685   0.173  2.1334 -0.8968  0.0366
 2275TIP3    H2 6790   7.080   3.687   0.025  0.4954 -0.7593 -0.3464
 2276TIP3   OH2 6791   2.687   2.763   2.816  0.1983  0.0106  0.2180
 2276TIP3    H1 6792   2.751   2.822   2.777  1.0073 -1.3038 -0.5099
 2276TIP3    H2 6793   2.654   2.810   2.893  1.5263  0.9945  0.2150
 2277TIP3   OH2 6794   3.359   5.164   1.585 -0.1091  0.4337  0.4197
 2277TIP3    H1 6795   3.425   5.114   1.634  0.0945  1.3099  1.0519
 2277TIP3    H2 6796   3.382   5.148   1.493 -1.4978 -2.6101  0.4570
 2278TIP3   OH2 6797   4.208   6.094   3.195  0.3094  0.0861 -0.1316
 2278TIP3    H1 6798   4.137   6.158   3.194  0.1916 -0.0555 -0.7875
 2278TIP3    H2 6799   4.212   6.065   3.286 -0.2529  0.3403 -0.0219
 2279TIP3   OH2 6800   3.665   4.250   1.865  0.0442  0.1858 -0.0068
 2279TIP3    H1 6801   3.737   4.187   1.863  1.2566  1.5036 -0.0875
 2279TIP3    H2 6802   3.645   4.261   1.958 -0.2105 -0.3700  0.0015
 2280TIP3   OH2 6803   6.035   0.465   3.708  0.0490  0.1045 -0.4255
 2280TIP3    H1 6804   6.066   0.536   3.653  0.9680 -1.4074 -1.9697
 2280TIP3    H2 6805   6.109   0.404   3.712 -0.2033 -0.1510  2.0128
 2281TIP3   OH2 6806   1.189   5.739   1.559 -0.2028 -0.7531 -0.5282
 2281TIP3    H1 6807   1.265   5.783   1.521  0.7982  0.7280  2.7989
 2281TIP3    H2 6808   1.115   5.770   1.508  1.1414 -0.0797 -2.1570
 2282TIP3   OH2 6809   6.211   5.348   5.657  0.1097 -0.6450  0.7485
 2282TIP3    H1 6810   6.182   5.276   5.714  0.3276 -2.0782 -0.8555
 2282TIP3    H2 6811   6.277   5.308   5.601 -0.3440  0.5968 -0.7356
 2283TIP3   OH2 6812   2.786   3.342   3.740  0.4800  0.4966  0.1483
 2283TIP3    H1 6813   2.778   3.371   3.649 -0.1732  2.1992  0.7065
 2283TIP3    H2 6814   2.716   3.389   3.786  0.9504 -0.1569  1.5683
 2284TIP3   OH2 6815   5.539   6.028   4.105  0.0204 -0.6839  0.5500
 2284TIP3    H1 6816   5.543   5.956   4.042  0.1643 -0.7430  0.6274
 2284TIP3    H2 6817   5.514   5.986   4.187 -0.9458 -0.4996  0.3598
 2285TIP3   OH2 6818   6.458   1.891   1.886  0.4688 -0.3068  0.0169
 2285TIP3    H1 6819   6.520   1.840   1.834 -0.1628  0.2051 -1.2678
 2285TIP3    H2 6820   6.390   1.828   1.911 -0.4793 -0.0823 -1.8429
 2286TIP3   OH2 6821   4.000   1.325   4.257 -0.2596  0.2520 -0.1946
 2286TIP3    H1 6822   4.034   1.329   4.167  0.9125  2.4198  0.2707
 2286TIP3    H2 6823   4.058   1.264   4.302  1.5139  1.9084 -0.0807
 2287TIP3   OH2 6824   2.709   3.071   2.428  0.4540  0.1714  0.2555
 2287TIP3    H1 6825   2.724   3.047   2.520 -0.9070  0.5560  0.6028
 2287TIP3    H2 6826   2.779   3.133   2.408  1.9590 -1.3920  0.3919
 2288TIP3   OH2 6827   0.905   4.136   0.528 -0.3503  0.1273  0.0138
 2288TIP3    H1 6828   1.001   4.139   0.527 -0.3197 -0.5796  0.3804
 2288TIP3    H2 6829   0.883   4.082   0.604 -1.1200  2.9488  1.9771
 2289TIP3   OH2 6830   5.870   5.391   2.491 -0.3914  0.3562 -0.0684
 2289TIP3    H1 6831   5.951   5.342   2.472 -0.5777  0.3361 -0.8531
 2289TIP3    H2 6832   5.836   5.351   2.571  0.0541 -0.0448 -0.0729
 2290TIP3   OH2 6833   1.021   6.071   0.990  0.0994 -0.2441 -0.4614
 2290TIP3    H1 6834   1.100   6.116   1.018  0.1501  1.0139 -2.4401
 2290TIP3    H2 6835   0.981   6.129   0.925 -3.1142 -0.2887  1.2788
 2291TIP3   OH2 6836   6.874   0.906   0.708  0.1990 -0.6072  0.1937
 2291TIP3    H1 6837   6.800   0.856   0.674  1.2253 -1.2636 -1.2143
 2291TIP3    H2 6838   6.915   0.943   0.630  1.3123 -0.1990  0.9451
 2292TIP3   OH2 6839   5.782   3.303   3.693 -0.4449 -0.4651 -0.1079
 2292TIP3    H1 6840   5.788   3.209   3.678  0.2859 -0.2965 -0.9684
 2292TIP3    H2 6841   5.801   3.314   3.786  2.1406 -0.9757 -0.4942
 2293TIP3   OH2 6842   3.947   0.409   1.043 -0.0117  0.1831 -0.3546
 2293TIP3    H1 6843   3.955   0.347   1.116 -1.8177 -0.0523 -0.3225
 2293TIP3    H2 6844   3.990   0.489   1.074  0.1161 -0.2353  0.5752
 2294TIP3   OH2 6845   5.677   2.190   2.741 -0.3652 -0.3611  0.4513
 2294TIP3    H1 6846   5.652   2.281   2.726  1.8501  0.2635  0.1926
 2294TIP3    H2 6847   5.631   2.165   2.821  0.8634  1.8022  1.9163
 2295TIP3   OH2 6848   2.062   6.293   0.758  0.2908  0.2892 -0.0275
 2295TIP3    H1 6849   1.982   6.342   0.777  2.1743  3.5876  0.2000
 2295TIP3    H2 6850   2.062   6.221   0.820 -1.2631  1.6974  1.7167
 2296TIP3   OH2 6851   4.433   1.597   4.074  0.1430 -0.2120 -0.6235
 2296TIP3    H1 6852   4.460   1.674   4.024 -0.0246 -0.4796 -1.1421
 2296TIP3    H2 6853   4.349   1.621   4.113  1.0183  0.5704  0.8688
 2297TIP3   OH2 6854   7.200   4.418   3.061  0.6655  1.3536 -0.2404
 2297TIP3    H1 6855   7.123   4.474   3.056 -0.8261 -0.4879  0.8340
 2297TIP3    H2 6856   7.226   4.422   3.153 -0.1356 -0.5276  0.0961
 2298TIP3   OH2 6857   4.144   4.435   4.202  0.4634 -0.0615 -0.0435
 2298TIP3    H1 6858   4.096   4.441   4.284 -1.1040 -1.5872 -0.7938
 2298TIP3    H2 6859   4.108   4.505   4.147 -0.4195 -0.7307 -0.3414
 2299TIP3   OH2 6860   5.287   4.904   2.050 -0.3846 -0.1256  0.5784
 2299TIP3    H1 6861   5.242   4.912   2.134 -1.7835 -1.9931  0.0565
 2299TIP3    H2 6862   5.340   4.825   2.059  1.3639  0.9677  0.4830
 2300TIP3   OH2 6863   6.777   5.028   1.543 -0.5141  0.0609 -0.0112
 2300TIP3    H1 6864   6.836   4.987   1.606  0.2807  3.2523  1.5057
 2300TIP3    H2 6865   6.805   4.993   1.458  1.2458 -1.1358  0.9964
 2301TIP3   OH2 6866   3.864   3.123   2.985  0.0313  0.2720 -0.1430
 2301TIP3    H1 6867   3.848   3.176   2.907  0.5258  1.7614  0.7230
 2301TIP3    H2 6868   3.903   3.184   3.048  0.6932 -1.1492  0.8855
 2302TIP3   OH2 6869   3.876   1.691   5.323 -0.0225 -0.1776 -0.0953
 2302TIP3    H1 6870   3.942   1.651   5.380 -0.4151  1.0841  1.3274
 2302TIP3    H2 6871   3.793   1.654   5.352 -0.5032  2.1806  1.8739
 2303TIP3   OH2 6872   2.396   0.925   3.830 -0.6473  0.0702  0.1484
 2303TIP3    H1 6873   2.399   0.933   3.925 -0.5387  1.0250  0.0712
 2303TIP3    H2 6874   2.480   0.885   3.806 -0.6795 -0.1796  0.4543
 2304TIP3   OH2 6875   5.429   1.207   5.918  0.6671  0.7458 -0.0551
 2304TIP3    H1 6876   5.379   1.275   5.873 -0.5356 -0.4238 -0.5581
 2304TIP3    H2 6877   5.434   1.135   5.854 -0.6743 -0.7688  1.4418
 2305TIP3   OH2 6878   3.804   3.450   4.271 -0.1498 -0.0839 -0.3411
 2305TIP3    H1 6879   3.716   3.431   4.303 -0.3081  1.1235  0.0071
 2305TIP3    H2 6880   3.805   3.416   4.182 -0.4837 -1.3850  0.1385
 2306TIP3   OH2 6881   6.815   6.327   3.211 -0.0808 -0.0682  0.6567
 2306TIP3    H1 6882   6.899   6.325   3.166  0.1863  0.7423  1.1002
 2306TIP3    H2 6883   6.833   6.291   3.298 -0.6122 -1.7042  0.1314
 2307TIP3   OH2 6884   1.787   0.197   3.899 -0.1017 -0.1460  0.0540
 2307TIP3    H1 6885   1.865   0.213   3.846  0.6418  0.6890  1.3438
 2307TIP3    H2 6886   1.810   0.121   3.952 -1.5519 -2.2210 -2.0705
 2308TIP3   OH2 6887   4.364   3.972   3.244 -0.1738  0.7073 -0.0912
 2308TIP3    H1 6888   4.318   4.055   3.230  1.6371  1.2824 -4.0252
 2308TIP3    H2 6889   4.451   3.986   3.205  2.1949 -1.4502  3.7506
 2309TIP3   OH2 6890   1.522   0.679   1.533 -0.5692 -0.3460  0.2065
 2309TIP3    H1 6891   1.500   0.772   1.530 -1.9059 -0.6784 -1.2544
 2309TIP3    H2 6892   1.474   0.645   1.608 -2.0202 -0.3066 -0.6824
 2310TIP3   OH2 6893   6.761   6.492   0.063 -0.7093  0.2377 -0.3564
 2310TIP3    H1 6894   6.811   6.574   0.070 -0.0628 -0.1795  0.0416
 2310TIP3    H2 6895   6.793   6.451  -0.017  0.7371 -0.7642  0.6956
 2311TIP3   OH2 6896   4.514   5.239   3.657 -0.5154  0.5487  0.6497
 2311TIP3    H1 6897   4.530   5.306   3.590  0.1335 -0.7351 -0.5267
 2311TIP3    H2 6898   4.592   5.242   3.712  0.4176 -0.4876 -0.5409
 2312TIP3   OH2 6899   2.189   1.030   0.850  0.2415  0.2770  0.2193
 2312TIP3    H1 6900   2.270   1.044   0.900 -0.8709  1.5228  1.7609
 2312TIP3    H2 6901   2.220   1.005   0.762  2.3414  2.2419  0.2951
 2313TIP3   OH2 6902   6.033   6.770   4.248  0.6165  0.3862  0.3392
 2313TIP3    H1 6903   5.963   6.808   4.301  0.1826 -1.1443  0.8973
 2313TIP3    H2 6904   6.022   6.675   4.256  2.3367  0.0996 -0.1205
 2314TIP3   OH2 6905   2.053   0.016   3.729  0.7052  0.2276  0.1203
 2314TIP3    H1 6906   2.134   0.038   3.684  0.0385 -0.5291 -1.5104
 2314TIP3    H2 6907   1.984   0.054   3.675 -0.1955 -1.7191 -0.1723
 2315TIP3   OH2 6908   3.906   4.021   2.476 -0.0882  0.5590 -0.1889
 2315TIP3    H1 6909   3.822   4.026   2.430 -0.0847 -2.1952 -0.6776
 2315TIP3    H2 6910   3.884   4.042   2.567 -1.5377 -0.9654 -0.1303
 2316TIP3   OH2 6911   6.839   2.573   2.331  0.4790  0.1863  0.4113
 2316TIP3    H1 6912   6.796   2.640   2.277  0.3390 -0.4377 -0.2707
 2316TIP3    H2 6913   6.897   2.527   2.270  0.5738 -0.3145  0.8720
 2317TIP3   OH2 6914   6.457   6.025   4.693 -0.5985  0.0417  0.1621
 2317TIP3    H1 6915   6.400   6.012   4.769  0.9022  2.1552  1.7762
 2317TIP3    H2 6916   6.409   6.087   4.637 -0.0394  1.7159  1.4550
 2318TIP3   OH2 6917   4.970   4.492   0.421  0.2043  0.2004  0.3527
 2318TIP3    H1 6918   4.915   4.569   0.405  0.0480 -0.3346 -2.2176
 2318TIP3    H2 6919   4.908   4.419   0.430  0.4063 -0.0484 -0.2060
 2319TIP3   OH2 6920   0.618   1.834   3.227 -0.2109  0.1947  0.1194
 2319TIP3    H1 6921   0.663   1.750   3.213  0.8312  0.7841 -0.1265
 2319TIP3    H2 6922   0.538   1.810   3.275  0.6325 -0.8162  1.0801
 2320TIP3   OH2 6923   5.524   5.908   2.596 -0.5876 -0.6386  0.5818
 2320TIP3    H1 6924   5.465   5.951   2.658  0.6054  0.9693  0.6555
 2320TIP3    H2 6925   5.600   5.884   2.649 -0.9309 -2.2563  0.3873
 2321TIP3   OH2 6926   5.130   1.239   1.495  0.1971  0.1864 -0.4435
 2321TIP3    H1 6927   5.120   1.321   1.544  1.2659 -0.4390  0.9288
 2321TIP3    H2 6928   5.077   1.176   1.544  1.6026 -0.5426  0.2249
 2322TIP3   OH2 6929   1.897   5.842   2.103  0.5038 -0.0375 -0.0473
 2322TIP3    H1 6930   1.973   5.799   2.144  0.2708 -1.8558 -1.3886
 2322TIP3    H2 6931   1.849   5.881   2.176  1.2276 -1.3263  1.1607
 2323TIP3   OH2 6932   5.414   5.043   2.388 -0.5364  0.2280  0.4331
 2323TIP3    H1 6933   5.485   5.086   2.436 -0.1942  1.4647 -1.0915
 2323TIP3    H2 6934   5.452   4.962   2.356 -0.3755  0.0194  1.1308
 2324TIP3   OH2 6935   1.641   4.875   2.635 -0.1639  0.0488  0.3667
 2324TIP3    H1 6936   1.603   4.805   2.582  1.7912 -1.3381  0.6909
 2324TIP3    H2 6937   1.687   4.930   2.573  2.4455 -1.7868  0.5408
 2325TIP3   OH2 6938   0.015   4.084   2.006 -0.5177 -0.1650 -0.0791
 2325TIP3    H1 6939  -0.038   4.079   1.927 -0.5479  0.1052 -0.0795
 2325TIP3    H2 6940   0.045   4.175   2.008 -0.4741 -0.1850  0.1922
 2326TIP3   OH2 6941   0.440   4.187   2.760  0.5729 -0.1583  0.3622
 2326TIP3    H1 6942   0.488   4.269   2.758  1.1104 -0.4351 -2.1696
 2326TIP3    H2 6943   0.465   4.143   2.679 -1.8018 -1.5958  0.3129
 2327TIP3   OH2 6944   0.290   0.022   0.579  0.0331  1.1524 -0.2323
 2327TIP3    H1 6945   0.296   0.112   0.547 -1.6735  1.0803 -0.8598
 2327TIP3    H2 6946   0.298   0.030   0.674  0.1419  1.9433 -0.3011
 2328TIP3   OH2 6947   2.741   4.750   0.237 -0.4150  0.1985  0.2579
 2328TIP3    H1 6948   2.792   4.678   0.200  0.8524 -0.3421  2.8190
 2328TIP3    H2 6949   2.658   4.710   0.261 -0.3656  0.0018  0.1036
 2329TIP3   OH2 6950   0.229   6.178   3.514 -0.5008  0.0380 -0.3981
 2329TIP3    H1 6951   0.211   6.169   3.608  1.4598  1.6907  0.2018
 2329TIP3    H2 6952   0.324   6.191   3.509 -0.2813 -1.8332 -2.7944
 2330TIP3   OH2 6953   5.127   3.149   0.072  0.0552  0.2244  0.0508
 2330TIP3    H1 6954   5.066   3.220   0.058  0.1789  0.2228 -0.5082
 2330TIP3    H2 6955   5.074   3.078   0.107 -0.2215  0.3049 -0.2021
 2331TIP3   OH2 6956   5.801   4.186   3.696 -0.0479  0.0241  0.5297
 2331TIP3    H1 6957   5.798   4.125   3.622  0.8240  1.0914 -0.4074
 2331TIP3    H2 6958   5.894   4.204   3.709 -0.0846 -1.0094  2.6541
 2332TIP3   OH2 6959   0.972   2.348   2.461  0.0495 -0.5774 -0.0512
 2332TIP3    H1 6960   1.017   2.330   2.379  0.7439  0.3140  0.1201
 2332TIP3    H2 6961   0.879   2.343   2.439  0.2077  0.7892 -1.1715
 2333TIP3   OH2 6962   0.707   4.184   3.581  0.0857 -0.4137  0.0668
 2333TIP3    H1 6963   0.699   4.110   3.521  1.6630 -0.7724  0.2712
 2333TIP3    H2 6964   0.625   4.183   3.631  0.2204 -2.2260  0.2982
 2334TIP3   OH2 6965   0.796   6.629   1.837 -0.3552  0.3938 -0.0925
 2334TIP3    H1 6966   0.756   6.715   1.829  0.1084  0.5592 -0.6523
 2334TIP3    H2 6967   0.830   6.627   1.926  0.0155  0.9527 -0.2198
 2335TIP3   OH2 6968   4.592   1.055   0.281 -0.1329  0.1605  0.7673
 2335TIP3    H1 6969   4.525   1.096   0.227 -0.6460 -1.8364 -0.2131
 2335TIP3    H2 6970   4.553   1.050   0.368 -0.9509 -0.2737  0.3833
 2336TIP3   OH2 6971   3.806   1.024   3.544 -0.3206  0.3738  0.2180
 2336TIP3    H1 6972   3.805   1.086   3.617  1.7351  0.3894  0.2684
 2336TIP3    H2 6973   3.877   1.054   3.487 -0.7943 -0.6113 -0.9485
 2337TIP3   OH2 6974   0.864   5.563   2.290 -0.2398  0.7237 -0.4479
 2337TIP3    H1 6975   0.838   5.627   2.224 -1.6490  0.3597 -0.2780
 2337TIP3    H2 6976   0.782   5.523   2.318  0.6236 -1.5347 -0.9370
 2338TIP3   OH2 6977   4.388   1.168   5.558  0.1320 -0.1183 -0.1472
 2338TIP3    H1 6978   4.480   1.156   5.535  0.1390 -0.0892 -0.1352
 2338TIP3    H2 6979   4.369   1.097   5.620  0.0063 -0.4303 -0.5433
 2339TIP3   OH2 6980   3.176   5.999   5.637 -0.5381  0.4308 -1.0875
 2339TIP3    H1 6981   3.194   6.022   5.728 -1.0298 -0.2552 -0.8066
 2339TIP3    H2 6982   3.207   5.909   5.628  0.1120  0.7160 -1.7864
 2340TIP3   OH2 6983   4.901   1.558   2.311 -0.2059 -0.1847 -0.4946
 2340TIP3    H1 6984   4.957   1.634   2.293  0.0741 -0.1468  0.4359
 2340TIP3    H2 6985   4.907   1.547   2.406 -1.1554 -0.6717 -0.4796
 2341TIP3   OH2 6986   2.611   5.718   2.773  0.2587 -0.4921  0.1253
 2341TIP3    H1 6987   2.656   5.778   2.832 -1.4504  0.9640  0.0228
 2341TIP3    H2 6988   2.581   5.646   2.829  0.9157 -0.4504  0.5402
 2342TIP3   OH2 6989   5.142   3.434   3.648  0.1776  0.7379 -0.1284
 2342TIP3    H1 6990   5.069   3.424   3.587 -1.0204  0.9226  1.2084
 2342TIP3    H2 6991   5.219   3.447   3.593 -0.3957 -1.7020 -1.6842
 2343TIP3   OH2 6992   6.832   1.598   3.245 -0.2437 -0.0185 -0.1669
 2343TIP3    H1 6993   6.812   1.658   3.172 -2.2250 -0.2732  0.1112
 2343TIP3    H2 6994   6.843   1.656   3.321  0.8757  0.1767 -0.4577
 2344TIP3   OH2 6995   1.640   0.976   0.471  0.5676  0.1811 -0.1147
 2344TIP3    H1 6996   1.597   1.009   0.392  1.2494 -0.1095 -0.6089
 2344TIP3    H2 6997   1.710   1.039   0.489  2.3028 -1.2698 -1.4348
 2345TIP3   OH2 6998   5.552   5.626   3.753  0.1010 -0.6338  0.1272
 2345TIP3    H1 6999   5.631   5.584   3.719  1.4450  1.6856  0.2397
 2345TIP3    H2 7000   5.492   5.627   3.678  2.1038  2.1603 -1.6390
 2346TIP3   OH2 7001   5.991   2.535   5.759  0.0349 -0.5810  0.1662
 2346TIP3    H1 7002   5.974   2.514   5.667 -0.9688 -0.7338  0.3755
 2346TIP3    H2 7003   5.949   2.620   5.773 -0.2025 -0.7628  0.5905
 2347TIP3   OH2 7004   5.682   4.355   0.216  0.6270 -0.8216 -0.6004
 2347TIP3    H1 7005   5.753   4.329   0.275  0.3705 -0.9560 -0.3496
 2347TIP3    H2 7006   5.628   4.414   0.269  1.1929  0.2192 -1.1532
 2348TIP3   OH2 7007   2.837   2.630   3.117 -0.3835 -0.5161 -0.6074
 2348TIP3    H1 7008   2.861   2.722   3.131  2.9573 -1.4183  0.5192
 2348TIP3    H2 7009   2.766   2.615   3.179  0.7801  0.6899  1.1155
 2349TIP3   OH2 7010   6.455   4.468   2.280 -0.2386  0.0517  0.0497
 2349TIP3    H1 7011   6.436   4.561   2.268 -0.0618 -0.0001 -0.6362
 2349TIP3    H2 7012   6.412   4.425   2.206  1.0455 -0.2452 -0.5436
 2350TIP3   OH2 7013   2.926   3.044   5.055 -0.2850  0.2297 -0.1545
 2350TIP3    H1 7014   3.003   2.995   5.084  1.7632  2.3040 -1.7194
 2350TIP3    H2 7015   2.892   2.993   4.982 -0.2178 -0.5230  0.3208
 2351TIP3   OH2 7016   5.116   0.332   5.502  0.0626 -0.0462  0.6548
 2351TIP3    H1 7017   5.196   0.384   5.510 -0.0998 -0.0075  2.6017
 2351TIP3    H2 7018   5.142   0.245   5.533 -0.2604 -0.4864 -0.2880
 2352TIP3   OH2 7019   6.672   3.482   2.567  0.4053  0.6859  0.3241
 2352TIP3    H1 7020   6.700   3.491   2.658 -0.6150  1.9756  0.5369
 2352TIP3    H2 7021   6.750   3.451   2.521  1.0843  0.5382  1.5426
 2353TIP3   OH2 7022   0.763   1.914   3.659 -0.3100  0.0974 -0.2014
 2353TIP3    H1 7023   0.836   1.969   3.689 -1.9160  1.5885  1.1748
 2353TIP3    H2 7024   0.739   1.951   3.574  0.1561 -0.0504 -0.4035
 2354TIP3   OH2 7025   2.386   1.138   5.419  0.8740  0.6159 -0.0263
 2354TIP3    H1 7026   2.435   1.056   5.421  0.5559  0.4374  0.8473
 2354TIP3    H2 7027   2.301   1.116   5.458 -0.7092  0.4337 -3.2228
 2355TIP3   OH2 7028   7.174   1.002   0.099  0.3159  0.1707  0.4797
 2355TIP3    H1 7029   7.199   0.955   0.020  2.8281  1.3559  0.4779
 2355TIP3    H2 7030   7.078   1.000   0.099  0.2679 -2.4563 -0.9529
 2356TIP3   OH2 7031   3.465   0.444   0.343  0.2686  0.0775 -0.0946
 2356TIP3    H1 7032   3.527   0.398   0.286  0.3922  0.7132 -0.4865
 2356TIP3    H2 7033   3.383   0.395   0.333 -0.2685  1.3110 -2.3964
 2357TIP3   OH2 7034   2.275   1.545   4.904 -0.4926  0.1381  0.2208
 2357TIP3    H1 7035   2.309   1.619   4.955 -0.3398 -0.8834  1.6850
 2357TIP3    H2 7036   2.182   1.562   4.895  0.0246  2.1979 -2.4905
 2358TIP3   OH2 7037   0.322   1.680   4.022  0.2402  0.3990 -0.4562
 2358TIP3    H1 7038   0.235   1.720   4.020  0.1242  0.3467  1.4189
 2358TIP3    H2 7039   0.377   1.746   4.065  0.4800 -0.6188  0.8835
 2359TIP3   OH2 7040   5.679   5.565   4.076  0.3611 -0.0936 -0.2650
 2359TIP3    H1 7041   5.628   5.495   4.116  0.1901  0.4507  0.5071
 2359TIP3    H2 7042   5.770   5.546   4.099  0.3133 -0.0514 -0.0433
 2360TIP3   OH2 7043   5.385   3.213   1.598  0.1432 -0.5331 -0.2433
 2360TIP3    H1 7044   5.354   3.204   1.508  0.3877  2.3344 -0.7098
 2360TIP3    H2 7045   5.478   3.233   1.590  0.2354 -0.5417  0.6549
 2361TIP3   OH2 7046   2.998   5.982   4.298  0.2460  0.4552  0.2082
 2361TIP3    H1 7047   2.931   6.018   4.357 -0.8704  0.4098 -0.9672
 2361TIP3    H2 7048   2.954   5.910   4.254  0.6227  1.2364 -1.5320
 2362TIP3   OH2 7049   0.059   6.268   0.360  0.3299  0.4525 -0.3986
 2362TIP3    H1 7050   0.135   6.211   0.368  0.5033  0.7617  0.1889
 2362TIP3    H2 7051  -0.012   6.219   0.403 -0.3582 -0.7958 -2.8147
 2363TIP3   OH2 7052   4.414   3.748   4.907  0.1170  0.5970  0.0766
 2363TIP3    H1 7053   4.392   3.658   4.882  0.5941 -0.0383  1.7901
 2363TIP3    H2 7054   4.332   3.796   4.901 -0.0407  0.1883 -1.3624
 2364TIP3   OH2 7055   3.879   0.571   4.640 -0.2650  0.1544  0.8910
 2364TIP3    H1 7056   3.825   0.647   4.662 -1.6295 -0.5016 -0.0923
 2364TIP3    H2 7057   3.866   0.511   4.714  1.9774  1.3804  2.4193
 2365TIP3   OH2 7058   2.133   2.485   0.791 -0.5782 -0.1787 -0.2184
 2365TIP3    H1 7059   2.119   2.451   0.703 -0.1883 -0.1906 -0.2776
 2365TIP3    H2 7060   2.108   2.413   0.849  1.8693 -1.2506 -0.3563
 2366TIP3   OH2 7061   1.686   1.408   4.514 -0.3495  0.6594  0.7329
 2366TIP3    H1 7062   1.690   1.326   4.563 -1.5635  0.3511  0.3617
 2366TIP3    H2 7063   1.595   1.436   4.522  0.4983  3.2083  2.7721
 2367TIP3   OH2 7064   4.691   3.990   3.617  0.0739  0.0360  0.2899
 2367TIP3    H1 7065   4.604   3.952   3.605  0.1665  0.1302 -0.7432
 2367TIP3    H2 7066   4.683   4.041   3.698 -0.3272 -1.3440  1.1598
 2368TIP3   OH2 7067   6.447   1.056   1.410  0.0315 -0.1576  0.5922
 2368TIP3    H1 7068   6.428   1.149   1.403 -0.1657 -0.1783  0.8275
 2368TIP3    H2 7069   6.362   1.016   1.431 -0.2333 -0.5927 -1.1762
 2369TIP3   OH2 7070   2.271   2.928   0.666 -0.0045  0.9030  0.2384
 2369TIP3    H1 7071   2.187   2.907   0.706 -0.1118 -0.4636 -0.6386
 2369TIP3    H2 7072   2.336   2.881   0.719  0.1713  1.5963  0.6488
 2370TIP3   OH2 7073   1.225   6.545   4.030 -0.1886  0.3224  0.7339
 2370TIP3    H1 7074   1.179   6.629   4.036 -0.2222  0.2779  1.1678
 2370TIP3    H2 7075   1.284   6.555   3.956 -0.0981  0.7789  0.8651
 2371TIP3   OH2 7076   5.335   5.507   4.194  0.1990  0.5304 -0.2545
 2371TIP3    H1 7077   5.356   5.514   4.101 -0.9241  0.6122 -0.5077
 2371TIP3    H2 7078   5.279   5.583   4.212 -1.0010 -0.4158  0.0855
 2372TIP3   OH2 7079   0.524   5.812   2.549 -0.3183  0.2965 -0.6399
 2372TIP3    H1 7080   0.619   5.817   2.538  0.3573 -2.8090  2.1197
 2372TIP3    H2 7081   0.494   5.761   2.474  0.4037  0.2584 -0.9138
 2373TIP3   OH2 7082   1.450   4.239   2.700 -0.6709 -0.2825 -0.4774
 2373TIP3    H1 7083   1.387   4.290   2.649  0.3483 -0.7622 -2.3069
 2373TIP3    H2 7084   1.481   4.172   2.639  0.1458 -1.3035  0.9954
 2374TIP3   OH2 7085   3.734   4.448   4.139  0.4278 -0.3573 -0.1231
 2374TIP3    H1 7086   3.711   4.455   4.046  0.5784  1.8003 -0.0451
 2374TIP3    H2 7087   3.798   4.376   4.142  1.1144  0.1143 -1.8311
 2375TIP3   OH2 7088   3.780   4.151   4.759  0.3744  0.0807 -0.4252
 2375TIP3    H1 7089   3.778   4.241   4.727  1.2300  0.6796  1.0961
 2375TIP3    H2 7090   3.820   4.157   4.845  3.3456 -2.1662 -1.4958
 2376TIP3   OH2 7091   2.914   0.896   3.697  0.0481  0.5141 -0.5570
 2376TIP3    H1 7092   2.941   0.981   3.663 -1.8050  0.8098 -1.4282
 2376TIP3    H2 7093   2.990   0.863   3.745  0.6251  2.8889  0.2611
 2377TIP3   OH2 7094   1.535   5.702   1.359  0.6502  0.3339  0.1690
 2377TIP3    H1 7095   1.515   5.717   1.452 -0.6671  2.1011 -0.3531
 2377TIP3    H2 7096   1.466   5.748   1.312  0.3923 -1.8096 -1.7280
 2378TIP3   OH2 7097   4.119   2.208   4.002  0.1562 -0.3740 -0.1191
 2378TIP3    H1 7098   4.079   2.192   3.917 -1.2535 -2.6726  0.8882
 2378TIP3    H2 7099   4.203   2.163   3.998 -0.0275 -0.7087 -0.2038
 2379TIP3   OH2 7100   0.433   0.332   3.054  0.2288  0.4247  0.2943
 2379TIP3    H1 7101   0.491   0.335   3.130  1.3915  0.3150 -0.5654
 2379TIP3    H2 7102   0.465   0.402   2.997 -1.1978  1.0991  0.2831
 2380TIP3   OH2 7103   1.762   5.124   0.984  0.3187  0.2348  0.0928
 2380TIP3    H1 7104   1.823   5.179   0.936 -1.2077  0.0895 -2.2230
 2380TIP3    H2 7105   1.706   5.185   1.031 -1.5224  0.8591 -2.6497
 2381TIP3   OH2 7106   4.334   5.277   5.304 -0.4213 -0.1235  0.1949
 2381TIP3    H1 7107   4.394   5.202   5.302 -0.5633 -0.2348 -0.3452
 2381TIP3    H2 7108   4.269   5.255   5.371  0.1648  0.0210  0.8158
 2382TIP3   OH2 7109   6.990   4.370   4.628  0.0376  0.0237  0.5803
 2382TIP3    H1 7110   7.082   4.369   4.653 -0.1968  0.1705  1.4860
 2382TIP3    H2 7111   6.954   4.289   4.663 -0.8873  1.4140  3.1735
 2383TIP3   OH2 7112   1.918   4.624   4.583  0.6014 -0.4129  0.3405
 2383TIP3    H1 7113   1.856   4.630   4.655 -0.0055  1.0551 -0.2711
 2383TIP3    H2 7114   1.879   4.561   4.523 -1.1387  1.5639 -0.7563
 2384TIP3   OH2 7115   4.512   1.033   5.309  0.6779 -0.3369  0.5739
 2384TIP3    H1 7116   4.426   1.050   5.349  0.9057 -0.1059  0.9774
 2384TIP3    H2 7117   4.574   1.080   5.366  1.0257 -0.1248  0.0210
 2385TIP3   OH2 7118   3.976   4.446   1.551  0.2369  0.1202 -0.2265
 2385TIP3    H1 7119   4.031   4.523   1.563  1.7822 -0.6637 -1.6799
 2385TIP3    H2 7120   4.028   4.374   1.588 -1.7487 -0.1186  2.3488
 2386TIP3   OH2 7121   4.630   6.189   4.534 -0.1639  0.4446 -0.1332
 2386TIP3    H1 7122   4.716   6.159   4.565  0.2713 -0.6383 -2.1966
 2386TIP3    H2 7123   4.604   6.256   4.597  2.0272  0.5335  0.7809
 2387TIP3   OH2 7124   1.925   2.662   0.678  0.4242 -0.2555 -0.1894
 2387TIP3    H1 7125   1.928   2.621   0.764 -0.3512  1.5970  0.7873
 2387TIP3    H2 7126   1.968   2.747   0.691 -0.6035  0.4757 -1.3441
 2388TIP3   OH2 7127   4.098   2.316   1.219 -0.2161 -0.3429 -0.5282
 2388TIP3    H1 7128   4.037   2.244   1.239  1.3105 -1.7247 -0.6334
 2388TIP3    H2 7129   4.169   2.306   1.283  0.4235  0.5852 -1.0681
 2389TIP3   OH2 7130   2.647   2.561   4.827  0.2102  0.0947  0.2887
 2389TIP3    H1 7131   2.653   2.586   4.919  1.5226 -0.4391  0.3645
 2389TIP3    H2 7132   2.721   2.502   4.813 -1.1473 -1.4647 -0.6030
 2390TIP3   OH2 7133   2.472   2.053   1.800 -0.2802 -0.2980  0.0734
 2390TIP3    H1 7134   2.403   1.992   1.827  1.1056 -1.6918  0.6123
 2390TIP3    H2 7135   2.489   2.105   1.878 -1.2810  0.6527 -0.3112
 2391TIP3   OH2 7136   1.533   3.594   3.833  0.2517  0.3275  0.3088
 2391TIP3    H1 7137   1.484   3.623   3.909  1.2397  0.1663  1.0226
 2391TIP3    H2 7138   1.561   3.674   3.790 -1.9962  0.4783 -1.0706
 2392TIP3   OH2 7139   5.950   4.191   2.347 -0.1489  0.2443 -0.7815
 2392TIP3    H1 7140   5.979   4.128   2.412 -1.3740  0.8227  0.3899
 2392TIP3    H2 7141   5.864   4.159   2.319 -1.3657  1.9181  0.7247
 2393TIP3   OH2 7142   6.634   5.608   3.584  0.0532  0.4547 -0.3398
 2393TIP3    H1 7143   6.569   5.538   3.570 -0.1151  0.6502 -0.5536
 2393TIP3    H2 7144   6.683   5.580   3.661  0.0970  0.0165 -0.5228
 2394TIP3   OH2 7145   4.030   5.943   4.175  0.2866  0.4558  0.1814
 2394TIP3    H1 7146   4.042   5.928   4.082 -0.5728  2.0819 -0.2180
 2394TIP3    H2 7147   4.076   6.025   4.193 -0.6477  0.8500  0.8931
 2395TIP3   OH2 7148   2.551   3.641   2.525 -0.0935  0.5129  0.6551
 2395TIP3    H1 7149   2.507   3.654   2.441 -1.0438  0.3391  1.1091
 2395TIP3    H2 7150   2.620   3.577   2.506 -1.8667 -1.4778  0.4550
 2396TIP3   OH2 7151   5.486   0.180   2.570 -0.1178  0.3942 -0.4012
 2396TIP3    H1 7152   5.545   0.122   2.619  0.9562  1.2201 -0.6746
 2396TIP3    H2 7153   5.408   0.187   2.625  0.1481 -0.4900  0.1151
 2397TIP3   OH2 7154   3.104   4.345   5.094 -0.4049  0.2305  0.7412
 2397TIP3    H1 7155   3.165   4.405   5.052 -0.9645 -0.1525 -0.7163
 2397TIP3    H2 7156   3.033   4.401   5.127 -0.0148  0.5305  1.0786
 2398TIP3   OH2 7157   2.733   1.970   5.109 -0.1299 -0.2346 -0.0178
 2398TIP3    H1 7158   2.808   1.933   5.157 -0.4801 -0.6904  0.1832
 2398TIP3    H2 7159   2.663   1.977   5.174 -0.0226  0.9755 -0.0051
 2399TIP3   OH2 7160   5.642   3.328   1.545  0.3480  0.0989 -0.1942
 2399TIP3    H1 7161   5.686   3.279   1.476  0.7456  0.4684 -0.2062
 2399TIP3    H2 7162   5.711   3.351   1.607 -0.1088 -0.7803  0.6637
 2400TIP3   OH2 7163   5.205   6.027   4.236 -0.0356  0.1476  0.2473
 2400TIP3    H1 7164   5.259   5.956   4.201 -0.9947  0.1394 -1.3295
 2400TIP3    H2 7165   5.119   5.987   4.248  0.0839  0.3454  2.0494
 2401TIP3   OH2 7166   1.321   5.171   4.475  0.2576  0.0676  0.0296
 2401TIP3    H1 7167   1.395   5.144   4.529 -0.8634 -2.1572  0.5478
 2401TIP3    H2 7168   1.250   5.111   4.498 -0.8336  0.1871 -2.5744
 2402TIP3   OH2 7169   6.523   1.454   2.783 -0.1783 -0.3421  0.2095
 2402TIP3    H1 7170   6.471   1.455   2.702  0.3760 -0.5101 -0.1524
 2402TIP3    H2 7171   6.463   1.488   2.850 -0.3664  0.6720 -0.4436
 2403TIP3   OH2 7172   6.101   4.538   2.312  0.0633  0.2421  0.1069
 2403TIP3    H1 7173   6.176   4.525   2.371 -1.7577  0.1604  2.5439
 2403TIP3    H2 7174   6.068   4.625   2.335 -1.0939 -0.0763 -0.2853
 2404TIP3   OH2 7175   4.988   3.238   3.110  0.1496 -0.0575  0.2992
 2404TIP3    H1 7176   5.014   3.317   3.157 -1.1105  0.8472 -0.4656
 2404TIP3    H2 7177   4.976   3.267   3.020  1.1037 -1.4571 -0.3102
 2405TIP3   OH2 7178   6.031   0.647   5.089  0.0940  0.4318 -0.3987
 2405TIP3    H1 7179   6.091   0.652   5.164 -2.3269 -2.1015  1.9380
 2405TIP3    H2 7180   5.944   0.657   5.127 -1.1819  0.4127 -3.1140
 2406TIP3   OH2 7181   2.450   3.206   2.021 -0.3401  0.0058  0.2461
 2406TIP3    H1 7182   2.366   3.241   2.051 -1.0409 -0.7342 -0.7710
 2406TIP3    H2 7183   2.515   3.246   2.078 -1.2498  1.6896  0.1481
 2407TIP3   OH2 7184   2.033   5.036   2.567  0.5262  0.2903 -0.0316
 2407TIP3    H1 7185   2.125   5.021   2.547 -0.3436 -0.4673 -4.5623
 2407TIP3    H2 7186   2.001   4.951   2.598  1.2527  0.5582  1.5683
 2408TIP3   OH2 7187   1.930   0.239   3.558 -0.1350 -0.2829  0.2231
 2408TIP3    H1 7188   1.929   0.335   3.561 -0.6261 -0.2228 -1.1308
 2408TIP3    H2 7189   1.986   0.218   3.483  0.8392 -1.0982  1.1460
 2409TIP3   OH2 7190   4.490   4.782   0.427 -0.1101 -0.3569 -0.0157
 2409TIP3    H1 7191   4.475   4.810   0.517  1.4911 -2.9837  1.1698
 2409TIP3    H2 7192   4.426   4.713   0.413 -1.3770  1.0299 -1.5167
 2410TIP3   OH2 7193   3.857   2.332   1.822 -0.3050 -0.9146 -0.2490
 2410TIP3    H1 7194   3.811   2.273   1.761 -2.1647  1.6648 -1.5265
 2410TIP3    H2 7195   3.787   2.379   1.867  1.1026  0.6619  0.3705
 2411TIP3   OH2 7196   4.457   4.990   3.560  0.0336  0.0395  0.3597
 2411TIP3    H1 7197   4.421   4.994   3.472  0.4601 -0.0366  0.1789
 2411TIP3    H2 7198   4.477   5.081   3.582  0.7644 -0.0325  0.0220
 2412TIP3   OH2 7199   4.113   3.647   4.061  0.3223 -0.3086 -0.1785
 2412TIP3    H1 7200   4.076   3.582   4.002 -1.3960 -1.0508  1.6141
 2412TIP3    H2 7201   4.076   3.730   4.032  1.8386 -0.1878 -1.9311
 2413TIP3   OH2 7202   2.870   3.209   4.524  0.3189  0.0756 -0.5771
 2413TIP3    H1 7203   2.929   3.142   4.559 -1.7708 -1.9603 -0.6636
 2413TIP3    H2 7204   2.877   3.198   4.429 -0.6503 -0.6737 -0.5814
 2414TIP3   OH2 7205   2.748   3.591   2.344  0.3684  0.4758  0.4533
 2414TIP3    H1 7206   2.715   3.590   2.254 -1.3276  0.5646  1.0557
 2414TIP3    H2 7207   2.800   3.671   2.349 -0.8470  1.3204  0.0013
 2415TIP3   OH2 7208   4.853   2.707   0.347 -0.0755  0.5340  0.1338
 2415TIP3    H1 7209   4.854   2.615   0.322  2.0787  0.6528 -0.3951
 2415TIP3    H2 7210   4.762   2.734   0.334 -0.9963 -1.7302  1.2264
 2416TIP3   OH2 7211   4.399   4.189   2.143  0.2047 -0.5757 -0.7267
 2416TIP3    H1 7212   4.411   4.152   2.056  4.0887  0.4637 -0.8059
 2416TIP3    H2 7213   4.415   4.283   2.132 -1.7096 -0.0019  0.7641
 2417TIP3   OH2 7214   3.967   5.506   2.433  0.1980  0.7321 -0.8224
 2417TIP3    H1 7215   3.974   5.536   2.524 -1.0274 -0.8623 -0.1655
 2417TIP3    H2 7216   3.875   5.523   2.410 -0.2856 -1.5434 -0.7418
 2418TIP3   OH2 7217   2.423   6.334   2.498 -0.7086 -0.4789 -0.0288
 2418TIP3    H1 7218   2.418   6.397   2.427  0.7092  0.3854  0.5906
 2418TIP3    H2 7219   2.358   6.363   2.561  0.5250  0.9421  0.6517
 2419TIP3   OH2 7220   2.139   4.822   1.719 -0.4178  0.1573 -0.2151
 2419TIP3    H1 7221   2.192   4.815   1.640  1.2253  1.5736  0.7005
 2419TIP3    H2 7222   2.143   4.735   1.759 -0.3249 -0.2472 -1.0907
 2420TIP3   OH2 7223   2.435   0.369   5.713  0.4204 -0.1145  0.1253
 2420TIP3    H1 7224   2.476   0.409   5.636 -0.2712  0.0666 -0.1533
 2420TIP3    H2 7225   2.505   0.365   5.777  0.9388 -0.0127 -0.4207
 2421TIP3   OH2 7226   1.384   4.216   0.274  0.8381 -0.1916  0.3883
 2421TIP3    H1 7227   1.324   4.247   0.206  0.7658 -1.1921 -0.0092
 2421TIP3    H2 7228   1.446   4.289   0.285  1.4708 -0.3868 -1.4928
 2422TIP3   OH2 7229   4.427   5.205   1.218 -0.1356 -0.0782  0.7901
 2422TIP3    H1 7230   4.430   5.216   1.123 -1.2835 -0.1541  0.7326
 2422TIP3    H2 7231   4.476   5.279   1.253  0.0715  0.0878  0.1505
 2423TIP3   OH2 7232   1.506   1.420   2.577 -0.0942  0.5485 -0.0178
 2423TIP3    H1 7233   1.504   1.357   2.505 -0.5656  0.3240  0.1877
 2423TIP3    H2 7234   1.424   1.406   2.624 -0.1670  1.2649  0.0821
 2424TIP3   OH2 7235   0.411   2.403   0.881 -0.0425  0.2259  0.0749
 2424TIP3    H1 7236   0.393   2.322   0.928  0.1524 -0.0245 -0.2723
 2424TIP3    H2 7237   0.333   2.457   0.894 -0.1394  0.0162  0.3734
 2425TIP3   OH2 7238   2.875   0.213   2.856  0.0172 -0.0513 -0.9003
 2425TIP3    H1 7239   2.861   0.161   2.777 -2.2326 -1.0648  0.0855
 2425TIP3    H2 7240   2.848   0.302   2.833  1.5266  0.1815 -1.8785
 2426TIP3   OH2 7241   7.065   1.159   1.656 -0.2993  0.2429 -0.0736
 2426TIP3    H1 7242   7.087   1.076   1.697 -0.0666  0.2101 -0.2634
 2426TIP3    H2 7243   6.971   1.153   1.637 -0.1487 -0.2381 -0.6886
 2427TIP3   OH2 7244   3.029   5.415   1.693  0.4158 -0.1326  0.0706
 2427TIP3    H1 7245   3.003   5.325   1.711 -2.0349  0.5763  0.4062
 2427TIP3    H2 7246   3.098   5.433   1.757 -2.3405 -0.3298  3.3938
 2428TIP3   OH2 7247   6.159   3.393   3.606  0.0515 -0.5294 -0.4430
 2428TIP3    H1 7248   6.240   3.423   3.647 -0.0236 -0.6625 -0.1932
 2428TIP3    H2 7249   6.149   3.303   3.637  0.8225 -1.1813 -2.0211
 2429TIP3   OH2 7250   1.996   0.797   3.700 -0.5459 -0.2024  0.0368
 2429TIP3    H1 7251   1.961   0.881   3.728 -0.8140  0.9704 -3.3702
 2429TIP3    H2 7252   2.089   0.814   3.683 -1.0642  0.2569 -3.0281
 2430TIP3   OH2 7253   5.808   1.803   1.954  0.4731 -0.0893 -0.0493
 2430TIP3    H1 7254   5.850   1.732   1.905  0.3315 -0.7053  0.7143
 2430TIP3    H2 7255   5.878   1.838   2.010  0.7378  0.8683 -0.9304
 2431TIP3   OH2 7256   2.408   2.751   5.486 -0.3453 -0.2967 -0.0141
 2431TIP3    H1 7257   2.426   2.667   5.527  1.6313 -0.0942 -0.3286
 2431TIP3    H2 7258   2.414   2.814   5.558  0.3152 -0.2316 -0.1152
 2432TIP3   OH2 7259   1.721   6.511   2.072  0.6381  0.0592 -0.2133
 2432TIP3    H1 7260   1.717   6.577   2.141  0.1869 -0.6616  0.4682
 2432TIP3    H2 7261   1.683   6.553   1.995  2.1298  1.2395 -0.3461
 2433TIP3   OH2 7262   6.208   1.847   4.880 -0.4868  0.1523 -0.5322
 2433TIP3    H1 7263   6.204   1.911   4.951 -0.2711 -0.3633 -0.0477
 2433TIP3    H2 7264   6.263   1.890   4.813 -1.2428  0.9121 -0.6843
 2434TIP3   OH2 7265   6.492   2.734   4.706  0.0610 -0.1461  0.2772
 2434TIP3    H1 7266   6.446   2.677   4.768 -0.2609  0.0332  0.2027
 2434TIP3    H2 7267   6.425   2.793   4.672  0.3208  0.0395  0.0776
 2435TIP3   OH2 7268   5.199   3.309   1.391 -0.0072 -0.0291 -0.2969
 2435TIP3    H1 7269   5.164   3.258   1.317 -1.2086  1.2253 -0.6274
 2435TIP3    H2 7270   5.237   3.387   1.351  0.6975 -0.0562  0.3026
 2436TIP3   OH2 7271   0.699   3.518   4.516  0.3091 -0.4216 -0.0140
 2436TIP3    H1 7272   0.780   3.568   4.511  1.2459 -1.9437 -0.7520
 2436TIP3    H2 7273   0.641   3.562   4.453  1.2307 -0.4481 -0.9180
 2437TIP3   OH2 7274   2.617   2.431   3.235  0.2629  0.3824 -0.0748
 2437TIP3    H1 7275   2.589   2.508   3.285 -2.0620 -0.8905  0.7313
 2437TIP3    H2 7276   2.686   2.392   3.288  0.3228  1.0177  0.3276
 2438TIP3   OH2 7277   4.789   6.744   4.783 -0.1404  0.1916 -0.3899
 2438TIP3    H1 7278   4.737   6.770   4.859  0.7389  0.6429  0.0713
 2438TIP3    H2 7279   4.877   6.728   4.818 -0.2311 -1.7918 -0.9395
 2439TIP3   OH2 7280   6.415   4.488   2.713  0.0029  0.1398  0.0617
 2439TIP3    H1 7281   6.415   4.407   2.763 -0.2347  0.0428 -0.0896
 2439TIP3    H2 7282   6.326   4.492   2.676  0.2914  0.0204 -0.6567
 2440TIP3   OH2 7283   3.718   4.574   0.189  0.0646 -0.1146  0.3085
 2440TIP3    H1 7284   3.721   4.511   0.260 -1.3889  1.5726  1.9702
 2440TIP3    H2 7285   3.783   4.641   0.213 -0.7146  0.6676  0.2848
 2441TIP3   OH2 7286   6.430   5.579   2.546  0.1208 -0.0233  0.4426
 2441TIP3    H1 7287   6.430   5.632   2.466 -1.1694 -0.4218  0.1671
 2441TIP3    H2 7288   6.485   5.503   2.524  0.8699  0.5143  0.3993
 2442TIP3   OH2 7289   1.487   4.824   4.649 -0.1058  0.0116  0.3800
 2442TIP3    H1 7290   1.545   4.826   4.573 -0.2942 -0.7603  0.2060
 2442TIP3    H2 7291   1.453   4.735   4.651 -0.5563  0.1880  1.0333
 2443TIP3   OH2 7292   4.035   1.550   1.866 -0.0299  0.4815  0.1969
 2443TIP3    H1 7293   4.035   1.600   1.947  1.4497  2.1692 -0.7789
 2443TIP3    H2 7294   3.942   1.534   1.847 -0.3849 -1.2483  2.9064
 2444TIP3   OH2 7295   2.468   2.322   5.371 -0.6121 -0.4186  0.2811
 2444TIP3    H1 7296   2.399   2.338   5.306 -0.0104 -0.1586 -0.3185
 2444TIP3    H2 7297   2.539   2.283   5.320 -0.7783 -1.9044  1.1196
 2445TIP3   OH2 7298   4.774   4.345   5.750  0.0098  0.4028 -0.0324
 2445TIP3    H1 7299   4.848   4.404   5.763  1.4612 -1.4463  0.5235
 2445TIP3    H2 7300   4.806   4.259   5.778 -1.4036 -1.0294 -2.4372
 2446TIP3   OH2 7301   2.253   1.814   3.188  0.1990  0.9063  0.1033
 2446TIP3    H1 7302   2.270   1.890   3.243  0.9713 -0.5103  1.9422
 2446TIP3    H2 7303   2.335   1.799   3.141 -0.6665  2.5144 -2.0579
 2447TIP3   OH2 7304   3.230   4.469   3.143 -0.1111  0.2068 -0.1844
 2447TIP3    H1 7305   3.187   4.549   3.112  1.1490  2.0932  2.4924
 2447TIP3    H2 7306   3.198   4.459   3.233  0.3198 -1.9649 -0.2171
 2448TIP3   OH2 7307   7.221   0.552   2.140 -0.0802  0.1737 -0.0933
 2448TIP3    H1 7308   7.181   0.614   2.079 -0.4506  0.1802  0.1551
 2448TIP3    H2 7309   7.149   0.496   2.167  0.1071  0.1030  0.2533
 2449TIP3   OH2 7310   5.566   5.977   0.379  0.0678 -0.2725 -0.3888
 2449TIP3    H1 7311   5.563   6.001   0.471  2.2023 -0.8288 -0.1201
 2449TIP3    H2 7312   5.511   5.898   0.373  0.2572 -0.4789  0.4889
 2450TIP3   OH2 7313   0.900   6.476   5.814 -0.5849  0.4371  0.2241
 2450TIP3    H1 7314   0.822   6.485   5.760 -0.9345 -3.1510 -0.1619
 2450TIP3    H2 7315   0.875   6.415   5.884  2.1416 -2.3091 -0.9266
 2451TIP3   OH2 7316   1.430   2.932   0.565 -0.0119  0.6148  0.2698
 2451TIP3    H1 7317   1.500   2.961   0.506  0.4276 -0.1768  0.3800
 2451TIP3    H2 7318   1.439   2.837   0.567  0.4230  0.6539  2.1310
 2452TIP3   OH2 7319   6.048   3.526   4.003 -0.3646 -0.1440  0.1809
 2452TIP3    H1 7320   6.121   3.465   3.998 -0.4116 -0.1202 -2.8402
 2452TIP3    H2 7321   6.077   3.602   3.953 -1.4623  1.0459  1.2799
 2453TIP3   OH2 7322   3.243   3.685   3.094  0.0785 -0.9621 -0.0414
 2453TIP3    H1 7323   3.201   3.677   3.179  2.4414  2.4566  1.7311
 2453TIP3    H2 7324   3.195   3.755   3.050  0.3854 -1.0023 -0.4490
 2454TIP3   OH2 7325   2.485   5.706   5.176 -0.1873 -0.5026  0.5712
 2454TIP3    H1 7326   2.581   5.708   5.173 -0.2061 -0.6766 -0.3188
 2454TIP3    H2 7327   2.463   5.744   5.261  0.6121  1.0565  0.1169
 2455TIP3   OH2 7328   0.275   0.894   2.153 -0.0236  0.8760  0.1023
 2455TIP3    H1 7329   0.319   0.977   2.169 -0.3958  0.9458  0.7816
 2455TIP3    H2 7330   0.224   0.878   2.232  0.3173 -0.1696  0.1259
 2456TIP3   OH2 7331   6.276   3.510   4.749 -0.3572 -0.2729  0.2877
 2456TIP3    H1 7332   6.319   3.588   4.714  1.6402 -0.0969  2.7943
 2456TIP3    H2 7333   6.326   3.437   4.713  0.0834 -0.1918  0.7089
 2457TIP3   OH2 7334   4.624   5.964   5.662  0.8373  0.5041  0.1734
 2457TIP3    H1 7335   4.543   6.010   5.685  0.4476  0.8343 -1.7440
 2457TIP3    H2 7336   4.597   5.873   5.649  0.8233  0.5686 -0.2408
 2458TIP3   OH2 7337   4.142   2.307   2.455  0.1841 -0.3214  0.3050
 2458TIP3    H1 7338   4.134   2.251   2.378  1.6793 -0.7257  0.4153
 2458TIP3    H2 7339   4.081   2.379   2.439  2.2390  0.9678 -2.4915
 2459TIP3   OH2 7340   0.329   4.200   1.576 -0.1890  0.5492  0.3064
 2459TIP3    H1 7341   0.385   4.173   1.503 -0.7432 -0.8119  0.3407
 2459TIP3    H2 7342   0.256   4.138   1.573 -0.4035  0.7099  1.7953
 2460TIP3   OH2 7343   2.525   3.281   3.597 -0.5390 -0.4447  0.2230
 2460TIP3    H1 7344   2.568   3.209   3.550 -1.7098 -1.4442  0.6426
 2460TIP3    H2 7345   2.503   3.243   3.682 -1.8624  0.1709  0.1663
 2461TIP3   OH2 7346   5.945   1.801   1.582 -0.0254 -0.5116  0.0918
 2461TIP3    H1 7347   5.869   1.750   1.554 -1.3434  0.2534  2.0441
 2461TIP3    H2 7348   5.981   1.752   1.656  1.7803 -1.1490 -1.1422
 2462TIP3   OH2 7349   7.083   6.726   2.333  0.2190  0.0555 -0.6479
 2462TIP3    H1 7350   7.018   6.794   2.348 -0.0108 -0.0402 -1.1821
 2462TIP3    H2 7351   7.123   6.749   2.249  1.5284  0.6319  0.0908
 2463TIP3   OH2 7352   0.188   6.482   3.481 -0.2813 -0.3149 -0.1177
 2463TIP3    H1 7353   0.253   6.477   3.411 -0.7361 -0.6230 -0.5214
 2463TIP3    H2 7354   0.236   6.519   3.555  0.7225 -1.7829  0.0126
 2464TIP3   OH2 7355   1.436   3.920   4.032 -0.2364  0.3265 -0.5277
 2464TIP3    H1 7356   1.475   3.987   4.088 -1.5651  1.4638 -0.9178
 2464TIP3    H2 7357   1.464   3.945   3.943 -1.1885  0.6985 -0.7286
 2465TIP3   OH2 7358   2.539   5.925   2.240  0.1540 -0.0967 -0.3732
 2465TIP3    H1 7359   2.460   5.973   2.266 -0.2325 -0.9666  0.0917
 2465TIP3    H2 7360   2.538   5.927   2.144 -0.4079 -0.0516 -0.3693
 2466TIP3   OH2 7361   2.709   3.021   5.235  0.4028  0.0502  0.3111
 2466TIP3    H1 7362   2.775   3.052   5.173 -1.5950  1.2746 -1.3565
 2466TIP3    H2 7363   2.678   3.101   5.278  0.1502 -0.5268  1.2264
 2467TIP3   OH2 7364   7.202   3.459   1.632 -0.0797 -0.2089 -0.0594
 2467TIP3    H1 7365   7.178   3.521   1.701  0.0453 -0.0163 -0.1859
 2467TIP3    H2 7366   7.156   3.492   1.555  0.7994  0.3283 -0.3754
 2468TIP3   OH2 7367   0.029   6.149   5.723 -0.1304  0.1953 -0.7888
 2468TIP3    H1 7368  -0.036   6.123   5.788  0.6472 -0.1395 -0.1334
 2468TIP3    H2 7369   0.071   6.067   5.698  3.4459  0.7967  2.4439
 2469TIP3   OH2 7370   1.437   5.079   2.370 -0.5269  0.3950 -0.0248
 2469TIP3    H1 7371   1.490   5.119   2.301 -1.0838 -0.8158 -1.2057
 2469TIP3    H2 7372   1.347   5.104   2.348 -0.8089 -0.8540 -0.3724
 2470TIP3   OH2 7373   6.623   0.892   5.018 -0.0568 -0.2430  0.5428
 2470TIP3    H1 7374   6.627   0.902   4.922  3.6573 -0.5199  0.5020
 2470TIP3    H2 7375   6.613   0.982   5.051  1.1385  0.1584 -0.1208
 2471TIP3   OH2 7376   5.131   3.203   2.507 -0.1118 -0.1541  0.1888
 2471TIP3    H1 7377   5.078   3.267   2.461  0.9583  0.9409  0.4182
 2471TIP3    H2 7378   5.187   3.255   2.565  0.4709 -1.3205  0.7221
 2472TIP3   OH2 7379   2.524   2.264   0.351 -0.0544 -0.3274  1.0584
 2472TIP3    H1 7380   2.598   2.325   0.349 -0.5079  0.2909 -1.8808
 2472TIP3    H2 7381   2.563   2.178   0.334  0.2909 -0.5119  2.6453
 2473TIP3   OH2 7382   1.003   1.612   5.209 -0.2890  0.1298 -0.1206
 2473TIP3    H1 7383   0.926   1.645   5.256 -0.1716 -1.0861  1.0181
 2473TIP3    H2 7384   0.976   1.609   5.117 -2.0437 -1.3503  0.3820
 2474TIP3   OH2 7385   0.104   5.968   3.388  0.3225  0.4182 -0.3001
 2474TIP3    H1 7386   0.032   6.025   3.358 -0.6699 -0.2285  0.7763
 2474TIP3    H2 7387   0.163   6.027   3.435  0.5650  0.9739 -1.2685
 2475TIP3   OH2 7388   5.472   2.918   4.866  0.4359 -0.2782 -0.1438
 2475TIP3    H1 7389   5.389   2.963   4.882 -0.5295 -2.0107 -0.0727
 2475TIP3    H2 7390   5.447   2.829   4.840  2.2785 -0.9578  0.2463
 2476TIP3   OH2 7391   4.201   4.896   0.298 -0.1054  0.0699 -0.1654
 2476TIP3    H1 7392   4.238   4.983   0.313 -1.2724  0.4789  0.5223
 2476TIP3    H2 7393   4.256   4.858   0.229  0.3168  1.4211 -0.6179
 2477TIP3   OH2 7394   6.093   6.263   2.433 -0.0984 -0.2106 -0.0093
 2477TIP3    H1 7395   6.162   6.276   2.368  0.3733  0.2527  0.5663
 2477TIP3    H2 7396   6.130   6.297   2.515  0.1363 -2.6881  1.0107
 2478TIP3   OH2 7397   5.678   6.642   3.879 -0.1859  0.0418  0.3779
 2478TIP3    H1 7398   5.608   6.703   3.858 -0.7270 -1.0123 -1.0605
 2478TIP3    H2 7399   5.759   6.691   3.864 -0.5853  0.0700 -2.0640
 2479TIP3   OH2 7400   2.158   1.744   0.629 -0.0260 -0.5039  0.3242
 2479TIP3    H1 7401   2.064   1.739   0.613  0.1434 -0.2038 -0.8012
 2479TIP3    H2 7402   2.192   1.799   0.559  1.1684 -1.6237 -0.0046
 2480TIP3   OH2 7403   2.028   3.832   4.397  0.4720 -0.6177 -0.1678
 2480TIP3    H1 7404   1.991   3.866   4.479 -0.5549  0.8330 -1.1877
 2480TIP3    H2 7405   2.045   3.740   4.416  0.4126 -0.2893  1.7244
 2481TIP3   OH2 7406   3.665   3.806   4.079 -0.1282  0.1954  0.6508
 2481TIP3    H1 7407   3.675   3.777   4.170 -0.8412 -0.0181  0.6700
 2481TIP3    H2 7408   3.600   3.746   4.042  0.6999 -0.1919 -0.2233
 2482TIP3   OH2 7409   4.490   4.702   3.551  0.0332  0.5260  0.5045
 2482TIP3    H1 7410   4.400   4.687   3.579  0.3818  0.5064  1.6889
 2482TIP3    H2 7411   4.495   4.796   3.535  0.5356  1.0904  3.4019
 2483TIP3   OH2 7412   0.398   5.911   1.717 -0.0583  0.1362 -0.0050
 2483TIP3    H1 7413   0.404   5.866   1.633 -1.2710  0.5074 -0.3211
 2483TIP3    H2 7414   0.485   5.902   1.756 -0.0987 -1.9972 -0.2771
 2484TIP3   OH2 7415   1.340   2.191   3.867  0.3819 -0.2891  0.0641
 2484TIP3    H1 7416   1.302   2.246   3.798  1.3853 -0.5426 -0.7214
 2484TIP3    H2 7417   1.413   2.147   3.824 -0.0476 -1.8146  0.8233
 2485TIP3   OH2 7418   0.845   6.510   3.812 -0.0533  0.7190 -0.5187
 2485TIP3    H1 7419   0.812   6.543   3.729 -0.4556  2.5247  0.3119
 2485TIP3    H2 7420   0.827   6.580   3.875  1.8884  0.1782  0.7413
 2486TIP3   OH2 7421   1.065   6.082   1.471 -0.1830 -0.2461 -0.2256
 2486TIP3    H1 7422   1.071   6.177   1.457 -0.3953 -0.1727  0.1718
 2486TIP3    H2 7423   1.011   6.073   1.549 -0.0746 -0.6940 -0.2026
 2487TIP3   OH2 7424   0.756   1.562   0.339  0.1798  0.4072 -0.2720
 2487TIP3    H1 7425   0.762   1.520   0.253 -0.6071 -0.1949 -0.0418
 2487TIP3    H2 7426   0.668   1.541   0.370  1.0619 -0.9602  1.4795
 2488TIP3   OH2 7427   6.763   4.923   2.821 -0.1746 -0.3454  0.1657
 2488TIP3    H1 7428   6.700   4.851   2.810  0.2744 -0.7561  0.2903
 2488TIP3    H2 7429   6.765   4.965   2.735 -0.5146 -0.4152  0.1202
 2489TIP3   OH2 7430   0.848   4.477   4.027 -0.8686  0.2827 -0.5562
 2489TIP3    H1 7431   0.781   4.510   4.087 -0.5427 -0.3097  0.1611
 2489TIP3    H2 7432   0.836   4.382   4.029  0.8384  0.0306  0.6648
 2490TIP3   OH2 7433   4.505   6.565   1.725  0.1519  0.2549 -0.4702
 2490TIP3    H1 7434   4.454   6.613   1.659  1.6042  1.4489 -0.7690
 2490TIP3    H2 7435   4.443   6.551   1.796 -0.6170  1.6941 -0.8125
 2491TIP3   OH2 7436   5.365   2.128   1.742  0.5206  0.4319  0.2233
 2491TIP3    H1 7437   5.306   2.100   1.672  0.8513 -0.9124  0.4447
 2491TIP3    H2 7438   5.436   2.064   1.740  0.6315  0.4768  1.6584
 2492TIP3   OH2 7439   3.457   4.602   1.286 -0.0364 -0.1062  0.3775
 2492TIP3    H1 7440   3.523   4.542   1.319  0.1480  0.0727  0.3330
 2492TIP3    H2 7441   3.505   4.682   1.265 -0.2688  0.0306  0.3634
 2493TIP3   OH2 7442   0.456   4.972   3.004  0.0719 -0.4976 -0.4943
 2493TIP3    H1 7443   0.411   5.056   3.016 -0.6268 -0.6135 -2.0412
 2493TIP3    H2 7444   0.488   4.949   3.091 -0.1409  1.1339  0.0517
 2494TIP3   OH2 7445   4.033   4.881   5.607 -0.4306  0.0022  0.4082
 2494TIP3    H1 7446   3.988   4.805   5.644 -1.3505  0.5549  0.4529
 2494TIP3    H2 7447   4.053   4.856   5.517 -1.8823  0.1573  0.0121
 2495TIP3   OH2 7448   5.529   2.764   5.734 -0.1786 -0.1233 -0.0736
 2495TIP3    H1 7449   5.447   2.761   5.783  1.1334 -2.4424  2.1875
 2495TIP3    H2 7450   5.514   2.704   5.660 -0.0338 -1.8925  1.2761
 2496TIP3   OH2 7451   0.933   4.763   3.611  0.0851  0.5546  0.2844
 2496TIP3    H1 7452   0.928   4.749   3.705 -0.0831 -1.0847  0.0620
 2496TIP3    H2 7453   0.851   4.728   3.577  0.9566 -0.6712 -0.6512
 2497TIP3   OH2 7454   0.783   3.394   5.102 -0.3985  0.4956 -0.3440
 2497TIP3    H1 7455   0.816   3.353   5.022  0.1771 -0.5949  0.4410
 2497TIP3    H2 7456   0.736   3.324   5.147 -1.2576  1.2659 -0.0154
 2498TIP3   OH2 7457   2.360   6.334   5.078  0.0432 -0.1475  0.1553
 2498TIP3    H1 7458   2.305   6.292   5.144  0.6599 -0.1166  0.6977
 2498TIP3    H2 7459   2.396   6.261   5.027  0.1666 -0.2161  0.3391
 2499TIP3   OH2 7460   4.752   4.717   2.265 -0.0363  0.6430 -0.0182
 2499TIP3    H1 7461   4.799   4.730   2.184  0.3944 -0.9150 -0.0489
 2499TIP3    H2 7462   4.659   4.722   2.241  0.0846 -0.2492 -0.6993
 2500TIP3   OH2 7463   2.621   0.988   1.863  0.8482 -0.0025 -0.1440
 2500TIP3    H1 7464   2.684   1.020   1.927 -0.2538  0.3174  0.8211
 2500TIP3    H2 7465   2.669   0.923   1.812  2.2341  0.9368 -0.1072
 2501TIP3   OH2 7466   6.913   3.458   0.984 -0.5216 -0.0483 -0.8019
 2501TIP3    H1 7467   6.826   3.494   0.966 -1.0712 -0.1302  1.4555
 2501TIP3    H2 7468   6.973   3.513   0.933 -1.6793  1.6032 -0.4505
 2502TIP3   OH2 7469   4.780   1.412   0.704 -0.0591  0.2435 -0.4656
 2502TIP3    H1 7470   4.808   1.344   0.765 -0.2902  0.1883 -0.4196
 2502TIP3    H2 7471   4.854   1.471   0.698  0.0764  0.0835 -0.3657
 2503TIP3   OH2 7472   4.653   0.310   0.097  0.3461 -0.6620 -0.2138
 2503TIP3    H1 7473   4.735   0.293   0.143  0.7733  1.2819 -0.1639
 2503TIP3    H2 7474   4.680   0.349   0.014 -0.5049 -1.0328 -0.6737
 2504TIP3   OH2 7475   1.476   3.618   0.933 -0.6469  0.3672  0.3936
 2504TIP3    H1 7476   1.569   3.627   0.956 -0.6729  0.0532  0.6276
 2504TIP3    H2 7477   1.467   3.666   0.851 -0.5266  1.4202  0.9782
 2505TIP3   OH2 7478   6.262   6.321   4.285 -0.2625 -0.6011 -0.0114
 2505TIP3    H1 7479   6.250   6.235   4.244 -0.3528  0.2192 -1.7780
 2505TIP3    H2 7480   6.175   6.360   4.284 -0.2501 -0.5320  0.9295
 2506TIP3   OH2 7481   4.550   2.151   0.282 -0.3483 -0.0800 -0.3711
 2506TIP3    H1 7482   4.633   2.186   0.247 -0.3500 -0.4845 -0.7849
 2506TIP3    H2 7483   4.557   2.057   0.271  0.1576 -0.3538  1.8282
 2507TIP3   OH2 7484   5.976   0.911   2.034  0.1319 -0.0649 -0.1661
 2507TIP3    H1 7485   6.013   0.969   2.100 -1.9478 -0.6748  1.6660
 2507TIP3    H2 7486   5.968   0.965   1.955  2.1954  0.8297  0.1939
 2508TIP3   OH2 7487   4.015   5.023   3.557 -0.6929 -0.1053  0.2807
 2508TIP3    H1 7488   3.939   5.080   3.556 -0.0363  0.9136  2.2641
 2508TIP3    H2 7489   3.987   4.947   3.609 -1.0467 -0.8158 -0.9304
 2509TIP3   OH2 7490   6.704   3.121   3.757 -0.4356 -0.7687 -0.6463
 2509TIP3    H1 7491   6.797   3.118   3.778 -0.6924 -0.6589  0.5379
 2509TIP3    H2 7492   6.661   3.138   3.840 -1.3816  1.3047 -1.4670
 2510TIP3   OH2 7493   4.262   2.793   1.728  0.4785  0.3645 -0.1437
 2510TIP3    H1 7494   4.251   2.844   1.809 -0.3042 -0.5901  0.3757
 2510TIP3    H2 7495   4.291   2.707   1.758  1.2632  0.3312 -0.9725
 2511TIP3   OH2 7496   0.744   6.108   3.590  0.0775  0.2974  0.4226
 2511TIP3    H1 7497   0.824   6.161   3.582  0.9295 -0.8331  1.1146
 2511TIP3    H2 7498   0.754   6.063   3.673 -0.3659 -1.3225 -0.3667
 2512TIP3   OH2 7499   7.146   4.062   1.753  0.3930  0.1177 -0.0973
 2512TIP3    H1 7500   7.107   4.013   1.680  0.5144  0.8271 -0.6552
 2512TIP3    H2 7501   7.239   4.067   1.731  0.6910 -0.9109  0.8462
 2513TIP3   OH2 7502   4.570   6.098   2.310  0.2348 -0.1831 -0.1834
 2513TIP3    H1 7503   4.516   6.110   2.232 -0.3895  0.7322  0.3692
 2513TIP3    H2 7504   4.641   6.041   2.282 -0.3462 -0.4074 -1.2458
 2514TIP3   OH2 7505   5.759   2.144   4.523 -0.4464  0.0391  0.7719
 2514TIP3    H1 7506   5.812   2.064   4.527  0.4378  0.5654 -0.0379
 2514TIP3    H2 7507   5.807   2.207   4.576  0.8377  1.1072 -1.5096
 2515TIP3   OH2 7508   3.911   2.854   3.033 -0.2663  0.4815 -0.5359
 2515TIP3    H1 7509   3.881   2.937   2.995  1.5478  1.1048 -0.7266
 2515TIP3    H2 7510   3.862   2.847   3.115 -0.5345  1.6916 -0.5687
 2516TIP3   OH2 7511   6.898   5.164   4.681  0.5156  0.3165 -0.1292
 2516TIP3    H1 7512   6.929   5.254   4.689  1.3819  0.0265 -0.1842
 2516TIP3    H2 7513   6.858   5.144   4.765  0.1498  0.8124 -0.1814
 2517TIP3   OH2 7514   1.176   1.439   2.477  0.3734 -0.3678 -0.0432
 2517TIP3    H1 7515   1.094   1.424   2.525 -0.1227  0.6207 -0.5361
 2517TIP3    H2 7516   1.187   1.361   2.422  0.2979 -0.9532  0.7622
 2518TIP3   OH2 7517   4.397   2.109   4.044 -0.0684  0.0008  0.4726
 2518TIP3    H1 7518   4.473   2.142   3.995 -0.6459  1.3643  0.4528
 2518TIP3    H2 7519   4.435   2.059   4.116  0.9200  1.5041  1.0583
 2519TIP3   OH2 7520   3.679   1.879   3.193  0.3605  0.0810  0.0427
 2519TIP3    H1 7521   3.674   1.812   3.124 -1.4926 -1.2096  1.3301
 2519TIP3    H2 7522   3.678   1.962   3.145  1.4861 -0.7665 -1.5549
 2520TIP3   OH2 7523   3.966   2.198   5.182  0.4941  0.0801 -0.0129
 2520TIP3    H1 7524   3.954   2.113   5.223 -0.2234  0.5846  0.8586
 2520TIP3    H2 7525   4.061   2.208   5.175  0.5844 -1.0704 -0.7692
 2521TIP3   OH2 7526   0.283   3.938   0.851  0.0509 -0.1297 -0.0803
 2521TIP3    H1 7527   0.311   3.908   0.937  0.5989  2.0388  0.5734
 2521TIP3    H2 7528   0.191   3.962   0.862  0.6994  2.2948  0.5993
 2522TIP3   OH2 7529   4.401   1.061   0.483 -0.0670  0.5188 -0.3486
 2522TIP3    H1 7530   4.418   1.028   0.571  1.5459  0.8905 -0.4887
 2522TIP3    H2 7531   4.306   1.070   0.479 -0.4261 -2.1726  0.3637
 2523TIP3   OH2 7532   5.356   0.063   2.783  0.1421 -0.2128  0.1154
 2523TIP3    H1 7533   5.387   0.100   2.866 -0.2720 -2.4007  1.3408
 2523TIP3    H2 7534   5.411  -0.014   2.770 -1.0180 -0.9344 -0.6558
 2524TIP3   OH2 7535   0.247   0.845   4.197 -0.1334  1.2599  0.3966
 2524TIP3    H1 7536   0.164   0.889   4.178  0.0074  1.3478 -0.0279
 2524TIP3    H2 7537   0.294   0.846   4.114 -1.2417 -2.2152 -0.4374
 2525TIP3   OH2 7538   5.523   6.732   3.259 -0.3934  0.1172 -0.1599
 2525TIP3    H1 7539   5.471   6.674   3.314 -2.0512  0.8231 -0.9301
 2525TIP3    H2 7540   5.580   6.778   3.322 -0.3444 -0.9911  0.6453
 2526TIP3   OH2 7541   6.957   4.452   2.248 -0.5550  0.5025 -0.0586
 2526TIP3    H1 7542   6.888   4.392   2.276 -0.7238  1.2401  1.1844
 2526TIP3    H2 7543   6.973   4.429   2.157 -1.5408 -0.5384  0.0051
 2527TIP3   OH2 7544   6.276   5.897   1.920  0.5539 -0.5132  0.6693
 2527TIP3    H1 7545   6.217   5.823   1.909 -0.7153  0.6684 -0.9716
 2527TIP3    H2 7546   6.360   5.858   1.943  0.0540 -2.5068 -0.6835
 2528TIP3   OH2 7547   3.072   3.126   5.755 -0.1457  0.6926 -0.0153
 2528TIP3    H1 7548   3.057   3.073   5.676  1.5701 -1.2471  0.8677
 2528TIP3    H2 7549   3.167   3.140   5.756 -0.0722  0.3171  1.8996
 2529TIP3   OH2 7550   4.669   4.171   3.382 -0.0800  0.3592  0.6592
 2529TIP3    H1 7551   4.653   4.257   3.422 -0.9470 -0.0623  1.2469
 2529TIP3    H2 7552   4.672   4.110   3.456 -1.7972 -0.4469  0.1235
 2530TIP3   OH2 7553   0.071   3.989   3.731  0.3124  0.0124  0.6818
 2530TIP3    H1 7554   0.003   4.038   3.684 -1.3241  0.5472  3.3823
 2530TIP3    H2 7555   0.102   3.925   3.667 -2.3927  0.0497 -0.8471
 2531TIP3   OH2 7556   7.135   4.725   1.934  0.2399  0.5218 -0.4243
 2531TIP3    H1 7557   7.160   4.743   1.844  0.2844  0.3091 -0.4546
 2531TIP3    H2 7558   7.141   4.630   1.943 -0.0053  0.5204 -0.2672
 2532TIP3   OH2 7559   1.748   5.682   5.731 -0.0669  0.2091 -0.0693
 2532TIP3    H1 7560   1.817   5.633   5.776 -0.2940  0.7700  0.9263
 2532TIP3    H2 7561   1.787   5.706   5.647  0.5369 -0.4749  0.0126
 2533TIP3   OH2 7562   7.025   4.512   1.127 -0.0306 -0.2076 -0.3309
 2533TIP3    H1 7563   6.949   4.563   1.156  0.2692 -0.0617  0.2187
 2533TIP3    H2 7564   7.095   4.577   1.120 -0.3201 -0.0601 -2.3393
 2534TIP3   OH2 7565   1.450   5.627   0.312  0.4770  0.2505  0.3287
 2534TIP3    H1 7566   1.363   5.639   0.274  1.4878  1.9358 -1.7255
 2534TIP3    H2 7567   1.508   5.618   0.236  2.0583 -1.2839  1.6424
 2535TIP3   OH2 7568   0.504   4.346   0.705  0.7622  0.0732 -0.5922
 2535TIP3    H1 7569   0.524   4.402   0.780  0.3902 -0.9567  0.3038
 2535TIP3    H2 7570   0.576   4.283   0.702 -0.0030 -0.8406 -0.1355
 2536TIP3   OH2 7571   6.643   1.497   3.664 -0.4468  0.0959 -0.1484
 2536TIP3    H1 7572   6.715   1.539   3.617  0.8323 -1.0571  0.6978
 2536TIP3    H2 7573   6.614   1.426   3.605 -0.4256  0.1230 -0.1911
 2537TIP3   OH2 7574   0.570   4.959   1.662 -0.4826 -0.1421  0.0596
 2537TIP3    H1 7575   0.477   4.937   1.660 -0.2256 -1.3341  0.1527
 2537TIP3    H2 7576   0.606   4.906   1.733  0.2429  0.4204  0.1250
 2538TIP3   OH2 7577   4.634   0.951   1.316  0.6547 -0.2954 -0.4856
 2538TIP3    H1 7578   4.539   0.964   1.322  0.5724 -1.1360  0.1354
 2538TIP3    H2 7579   4.671   1.024   1.367  0.4263  1.0512 -2.1593
 2539TIP3   OH2 7580   4.661   0.319   5.217  0.0092 -0.3455  0.1535
 2539TIP3    H1 7581   4.696   0.353   5.134  0.5111  0.9239  0.8675
 2539TIP3    H2 7582   4.623   0.235   5.193  0.1565 -0.0145 -1.3744
 2540TIP3   OH2 7583   7.160   2.974   4.202  0.2194 -0.2827 -0.4950
 2540TIP3    H1 7584   7.208   2.955   4.122  0.5707 -0.5292 -0.2287
 2540TIP3    H2 7585   7.227   2.973   4.271  0.1178  1.0639 -0.3521
 2541TIP3   OH2 7586   4.415   3.993   3.537  0.2965  0.3915 -0.0269
 2541TIP3    H1 7587   4.403   3.942   3.457 -1.1578  0.5905  0.0541
 2541TIP3    H2 7588   4.400   4.084   3.510  0.9877  0.5929  0.2344
 2542TIP3   OH2 7589   4.782   3.828   5.763  0.0306  0.1669  0.2810
 2542TIP3    H1 7590   4.868   3.816   5.802 -0.6698 -0.9182  1.6041
 2542TIP3    H2 7591   4.725   3.769   5.813 -1.5492  1.1291 -0.3028
 2543TIP3   OH2 7592   3.862   1.357   4.797  0.4411  0.2011 -0.2036
 2543TIP3    H1 7593   3.928   1.329   4.860  0.1237 -0.5293 -0.1853
 2543TIP3    H2 7594   3.913   1.386   4.721  0.7908 -0.1455 -0.1042
 2544TIP3   OH2 7595   1.681   3.531   2.676 -0.2687 -0.6691  0.0212
 2544TIP3    H1 7596   1.764   3.485   2.692  1.2224  2.0469  0.7349
 2544TIP3    H2 7597   1.695   3.579   2.594  0.3388  2.5559  1.8156
 2545TIP3   OH2 7598   4.226   4.636   0.434 -0.2684 -0.2515 -0.4409
 2545TIP3    H1 7599   4.163   4.629   0.506  1.0792  1.7910  1.0617
 2545TIP3    H2 7600   4.193   4.707   0.379 -0.5293 -0.8282 -1.0394
 2546TIP3   OH2 7601   6.805   2.801   1.916  0.4188 -0.3427 -0.1580
 2546TIP3    H1 7602   6.786   2.859   1.842 -0.6040 -0.6096 -0.1156
 2546TIP3    H2 7603   6.773   2.715   1.888 -0.9239 -0.2426  0.9642
 2547TIP3   OH2 7604   0.811   6.386   1.037  0.1816  0.1910 -0.2453
 2547TIP3    H1 7605   0.773   6.445   1.102 -0.3861 -0.7370  0.2835
 2547TIP3    H2 7606   0.892   6.429   1.010 -0.1894  1.1776  0.1699
 2548TIP3   OH2 7607   3.626   5.109   4.600  0.1398 -0.0323 -0.3364
 2548TIP3    H1 7608   3.693   5.176   4.586  0.8276 -0.8107 -0.9274
 2548TIP3    H2 7609   3.559   5.128   4.535  0.8876 -0.5865 -1.3004
 2549TIP3   OH2 7610   1.022   5.825   2.889  0.1727 -0.7015 -0.4472
 2549TIP3    H1 7611   1.028   5.775   2.970  1.0793  0.5151  0.2738
 2549TIP3    H2 7612   0.960   5.776   2.835 -0.3666 -1.5994  0.9295
 2550TIP3   OH2 7613   1.947   5.809   5.197 -0.1888  0.8057  0.1230
 2550TIP3    H1 7614   1.984   5.827   5.283 -1.0128  1.0103  0.4410
 2550TIP3    H2 7615   2.013   5.754   5.154 -0.7976 -1.3074  1.7407
 2551TIP3   OH2 7616   3.850   2.590   2.193 -0.6831 -0.0820  0.3881
 2551TIP3    H1 7617   3.869   2.601   2.286  0.2868  0.3092  0.1541
 2551TIP3    H2 7618   3.851   2.496   2.178 -0.4887 -0.1304  0.7077
 2552TIP3   OH2 7619   7.131   6.430   5.431 -0.1892  0.3089  0.0393
 2552TIP3    H1 7620   7.135   6.340   5.400  0.8859  0.7792 -1.2626
 2552TIP3    H2 7621   7.092   6.479   5.358  0.7921  1.1576  0.0564
 2553TIP3   OH2 7622   0.165   1.902   5.606 -0.6462 -0.0072 -0.0731
 2553TIP3    H1 7623   0.133   1.990   5.623 -0.5647 -0.3384  2.0979
 2553TIP3    H2 7624   0.241   1.914   5.550 -0.9026  1.2587 -0.1699
 2554TIP3   OH2 7625   2.962   4.906   1.299  0.7450  0.8822  0.0738
 2554TIP3    H1 7626   2.921   4.899   1.386 -1.8971  0.6118 -1.1026
 2554TIP3    H2 7627   2.911   4.973   1.254 -0.2476 -1.3228 -2.3832
 2555TIP3   OH2 7628   5.085   6.647   4.582  0.8149  0.3621  0.0752
 2555TIP3    H1 7629   5.046   6.613   4.663  0.5380 -0.5067 -0.4102
 2555TIP3    H2 7630   5.074   6.742   4.588  2.1529  0.4483  1.7366
 2556TIP3   OH2 7631   4.942   0.422   3.700  0.4226  0.5502 -0.0177
 2556TIP3    H1 7632   4.974   0.339   3.664 -0.1731  0.0143  0.6442
 2556TIP3    H2 7633   5.017   0.459   3.747  1.5924  1.8595 -2.7140
 2557TIP3   OH2 7634   1.778   6.214   4.283 -0.3750 -0.2371 -0.2057
 2557TIP3    H1 7635   1.691   6.232   4.249 -0.3186 -1.9605 -1.3995
 2557TIP3    H2 7636   1.765   6.195   4.375 -0.9122  1.7627  0.1832
 2558TIP3   OH2 7637   1.293   0.448   5.674  0.3775 -0.8718 -0.2789
 2558TIP3    H1 7638   1.268   0.472   5.763  2.1310 -0.7544  0.2335
 2558TIP3    H2 7639   1.279   0.353   5.670  1.5449 -1.1240  0.6252
 2559TIP3   OH2 7640   1.860   2.467   1.365 -0.1402  0.0009  0.4143
 2559TIP3    H1 7641   1.804   2.530   1.410  2.4196  1.3882  1.9088
 2559TIP3    H2 7642   1.949   2.501   1.378  1.1995 -2.8405 -0.5284
 2560TIP3   OH2 7643   0.446   2.784   1.417 -0.3304 -0.1379 -0.4805
 2560TIP3    H1 7644   0.526   2.836   1.415 -0.4546  0.1106  0.6879
 2560TIP3    H2 7645   0.376   2.847   1.399 -0.6106  0.4149  2.1844
 2561TIP3   OH2 7646   1.246   1.909   1.639  0.1992 -0.1792  0.0791
 2561TIP3    H1 7647   1.298   1.982   1.671 -0.9631  0.5429  0.3491
 2561TIP3    H2 7648   1.306   1.861   1.581  0.6905  1.5205 -0.8850
 2562TIP3   OH2 7649   2.126   5.976   0.755 -0.4942 -0.6903 -0.3395
 2562TIP3    H1 7650   2.105   6.026   0.834  0.1557 -0.1077 -0.5185
 2562TIP3    H2 7651   2.136   5.886   0.785 -1.1481 -0.6243  0.0852
 2563TIP3   OH2 7652   1.785   1.883   3.410  0.2250 -0.8747 -0.1093
 2563TIP3    H1 7653   1.818   1.912   3.326  0.9277 -1.1062  0.0792
 2563TIP3    H2 7654   1.769   1.963   3.460 -0.7042 -0.7180 -0.6461
 2564TIP3   OH2 7655   5.506   1.344   1.996 -0.1759 -0.1795 -0.1051
 2564TIP3    H1 7656   5.575   1.333   1.930  0.2915  0.9597  0.1694
 2564TIP3    H2 7657   5.459   1.423   1.967 -0.1305  0.1754  0.7673
 2565TIP3   OH2 7658   0.491   6.245   2.942  0.1142 -0.1530  0.3839
 2565TIP3    H1 7659   0.531   6.325   2.911 -0.5027  1.0612  2.5149
 2565TIP3    H2 7660   0.557   6.177   2.928  0.8599  0.8163 -0.9392
 2566TIP3   OH2 7661   2.983   4.380   4.665 -0.0897 -0.0009 -0.6509
 2566TIP3    H1 7662   3.055   4.402   4.606  0.1984 -1.1214 -0.7323
 2566TIP3    H2 7663   3.022   4.320   4.729 -1.2171 -1.7060 -1.4792
 2567TIP3   OH2 7664   5.171   5.247   1.393 -0.0770 -0.0422  0.3616
 2567TIP3    H1 7665   5.231   5.201   1.333  0.9748  2.5085 -0.6780
 2567TIP3    H2 7666   5.229   5.292   1.454 -0.6865  3.6214 -1.5025
 2568TIP3   OH2 7667   5.054   2.465   3.399  0.2349 -0.6639  0.3653
 2568TIP3    H1 7668   5.077   2.480   3.491  1.4225  0.5991 -0.1207
 2568TIP3    H2 7669   5.127   2.500   3.349 -0.6208 -0.8732 -1.0970
 2569TIP3   OH2 7670   2.591   5.003   2.386 -0.0459  0.0460  0.3167
 2569TIP3    H1 7671   2.513   5.044   2.350 -0.8470 -2.3016 -0.8254
 2569TIP3    H2 7672   2.663   5.059   2.360 -1.0266  0.4930 -1.5494
 2570TIP3   OH2 7673   5.314   2.524   3.275 -0.2996 -0.2921  0.5679
 2570TIP3    H1 7674   5.330   2.513   3.181 -0.3986 -1.1596  0.6376
 2570TIP3    H2 7675   5.339   2.439   3.312 -3.0688 -1.0358  0.9464
 2571TIP3   OH2 7676   5.987   2.623   3.032  0.0642  0.1443  0.3107
 2571TIP3    H1 7677   5.974   2.588   2.944  1.2388 -0.2311  0.2627
 2571TIP3    H2 7678   6.072   2.666   3.028 -0.9164  2.2116  0.6415
 2572TIP3   OH2 7679   4.418   6.211   0.714  0.2472  0.2972  0.3124
 2572TIP3    H1 7680   4.399   6.198   0.621  2.9433 -0.2601 -0.2707
 2572TIP3    H2 7681   4.434   6.305   0.723 -2.1724  0.7197  0.7495
 2573TIP3   OH2 7682   3.160   1.297   3.236  0.2390 -0.6199  0.3888
 2573TIP3    H1 7683   3.214   1.218   3.243  0.8775 -0.3608 -1.3129
 2573TIP3    H2 7684   3.222   1.369   3.231 -0.2091 -0.3223 -1.6497
 2574TIP3   OH2 7685   5.046   5.404   5.569  0.6906 -0.0311  0.4178
 2574TIP3    H1 7686   5.046   5.499   5.558  0.2088  0.1080  1.5470
 2574TIP3    H2 7687   5.088   5.390   5.654  0.1879 -0.7900  0.5465
 2575TIP3   OH2 7688   0.325   2.919   3.898  0.2611 -0.7611  0.0822
 2575TIP3    H1 7689   0.339   3.011   3.923  1.5779 -0.4790 -1.5237
 2575TIP3    H2 7690   0.235   2.901   3.924  0.2759  0.6783  1.3071
 2576TIP3   OH2 7691   4.566   2.411   3.287  0.5434 -0.1802 -0.2483
 2576TIP3    H1 7692   4.626   2.480   3.259  0.2274 -0.4160 -1.5800
 2576TIP3    H2 7693   4.515   2.452   3.357  0.6159  0.8297 -0.7553
 2577TIP3   OH2 7694   2.246   4.071   0.329  0.2205 -0.2657 -0.1374
 2577TIP3    H1 7695   2.342   4.078   0.331  0.1096  1.7329  1.0426
 2577TIP3    H2 7696   2.225   4.063   0.236  1.5125 -0.8746 -0.4116
 2578TIP3   OH2 7697   4.716   1.779   2.416  0.5915 -0.0876 -0.1882
 2578TIP3    H1 7698   4.811   1.784   2.427  0.7989  0.9055 -2.0290
 2578TIP3    H2 7699   4.704   1.756   2.324 -0.9613 -0.2765  0.0418
 2579TIP3   OH2 7700   6.398   1.527   1.642  0.0141  0.3322 -0.2855
 2579TIP3    H1 7701   6.388   1.438   1.674 -0.2125  0.9762  1.5717
 2579TIP3    H2 7702   6.453   1.570   1.707  0.1248  1.5556 -1.1424
 2580TIP3   OH2 7703   0.821   6.120   0.252  0.2267 -0.5458 -0.0864
 2580TIP3    H1 7704   0.875   6.041   0.253 -0.2398 -1.0238 -3.2866
 2580TIP3    H2 7705   0.731   6.088   0.243 -0.2815  0.3447  1.3850
 2581TIP3   OH2 7706   3.570   2.456   1.440 -0.2697  0.2303  0.3105
 2581TIP3    H1 7707   3.619   2.400   1.500 -0.1279 -0.9541 -0.8609
 2581TIP3    H2 7708   3.615   2.446   1.356 -1.7813  0.0881 -0.5147
 2582TIP3   OH2 7709   0.856   6.109   1.645 -0.5128  0.3985 -0.0359
 2582TIP3    H1 7710   0.888   6.190   1.683 -2.8498  0.5730  1.7825
 2582TIP3    H2 7711   0.868   6.044   1.714 -0.7159 -0.3113 -0.6573
 2583TIP3   OH2 7712   6.497   3.457   0.037  0.0792 -0.8461 -0.4008
 2583TIP3    H1 7713   6.417   3.409   0.058  0.1949 -0.4339  1.0918
 2583TIP3    H2 7714   6.467   3.543   0.008 -0.0325  0.1823  2.4751
 2584TIP3   OH2 7715   3.863   4.887   0.989  0.1647 -0.0264 -0.1523
 2584TIP3    H1 7716   3.828   4.820   1.047  1.1761 -1.0029 -0.6261
 2584TIP3    H2 7717   3.790   4.947   0.974 -0.6534 -0.8107  0.5889
 2585TIP3   OH2 7718   3.371   1.522   0.470 -0.2026  0.2533 -0.2560
 2585TIP3    H1 7719   3.339   1.504   0.558  0.0118 -1.0710 -0.4329
 2585TIP3    H2 7720   3.410   1.440   0.441 -0.8856  0.4525 -1.8486
 2586TIP3   OH2 7721   3.260   4.986   0.402  0.1016  0.3337 -0.4414
 2586TIP3    H1 7722   3.326   4.931   0.360  0.5742 -0.7469  1.5896
 2586TIP3    H2 7723   3.309   5.043   0.461 -0.6951  0.2524  0.3271
 2587TIP3   OH2 7724   3.036   1.615   1.392 -0.2533 -0.1118 -0.1313
 2587TIP3    H1 7725   3.111   1.661   1.428 -0.0967  0.3281 -0.9878
 2587TIP3    H2 7726   2.988   1.682   1.343 -1.7333 -0.1690  1.1849
 2588TIP3   OH2 7727   5.811   4.010   2.939  0.1039  0.5925 -0.1678
 2588TIP3    H1 7728   5.792   4.090   2.890 -0.9482  0.9988  0.8380
 2588TIP3    H2 7729   5.884   3.969   2.892  0.7335  2.1862 -0.6448
 2589TIP3   OH2 7730   5.891   6.126   0.628 -0.0526  0.2082  0.4756
 2589TIP3    H1 7731   5.838   6.060   0.672 -0.8603 -0.6262 -1.6150
 2589TIP3    H2 7732   5.836   6.204   0.627  0.3943  0.5662  1.8180
 2590TIP3   OH2 7733   1.919   4.895   2.131  0.6039  0.1410  0.0917
 2590TIP3    H1 7734   1.991   4.834   2.122  1.8051  1.4098  0.6671
 2590TIP3    H2 7735   1.858   4.852   2.190  0.8030 -1.0207 -0.5324
 2591TIP3   OH2 7736   1.913   3.673   1.691 -0.0478 -0.0134  0.5244
 2591TIP3    H1 7737   1.956   3.668   1.777 -0.6686 -2.1568  0.7824
 2591TIP3    H2 7738   1.926   3.763   1.663  1.3218  0.4013  2.2778
 2592TIP3   OH2 7739   0.318   6.017   4.445 -0.1834  0.3174  0.0495
 2592TIP3    H1 7740   0.315   6.028   4.350 -1.2065  0.5807  0.0993
 2592TIP3    H2 7741   0.358   6.098   4.476 -0.1070  0.3525 -0.1338
 2593TIP3   OH2 7742   5.311   0.518   4.181  0.4666  0.5745 -0.4088
 2593TIP3    H1 7743   5.347   0.480   4.101  0.0235 -0.0385 -0.3260
 2593TIP3    H2 7744   5.388   0.545   4.232  0.8550 -1.1384 -0.0246
 2594TIP3   OH2 7745   7.144   5.749   0.389 -0.4740 -0.1338 -0.9689
 2594TIP3    H1 7746   7.172   5.680   0.329 -1.6848 -1.9706  0.4644
 2594TIP3    H2 7747   7.054   5.768   0.364 -1.1298 -1.1998  0.4327
 2595TIP3   OH2 7748   0.467   1.437   2.487 -0.0927 -0.0549  0.2807
 2595TIP3    H1 7749   0.431   1.407   2.571  2.3246 -1.3921  0.9386
 2595TIP3    H2 7750   0.524   1.510   2.511 -0.7357  0.7048 -0.4588
 2596TIP3   OH2 7751   1.760   1.540   3.088 -0.2082  0.0039  0.1459
 2596TIP3    H1 7752   1.826   1.591   3.136 -1.2914  2.7816 -1.0943
 2596TIP3    H2 7753   1.677   1.582   3.111 -0.9815 -0.0524 -2.2943
 2597TIP3   OH2 7754   1.305   3.097   1.723 -0.0786  0.0233 -0.0372
 2597TIP3    H1 7755   1.397   3.112   1.703  0.3936 -0.2031  1.8205
 2597TIP3    H2 7756   1.302   3.007   1.756 -1.1052 -0.2344 -0.7749
 2598TIP3   OH2 7757   4.073   5.132   4.994  0.2639  0.5456  0.0119
 2598TIP3    H1 7758   4.035   5.052   5.029 -0.1211  1.2740  1.3466
 2598TIP3    H2 7759   4.043   5.201   5.054  1.4434  1.5402 -0.4956
 2599TIP3   OH2 7760   0.176   4.557   2.900  0.2444  0.5480 -0.1528
 2599TIP3    H1 7761   0.254   4.524   2.944 -0.4946 -2.3261 -0.7655
 2599TIP3    H2 7762   0.103   4.514   2.946 -0.7130  0.1568 -1.9358
 2600TIP3   OH2 7763   0.430   2.002   1.841  0.2938 -0.3248 -0.0866
 2600TIP3    H1 7764   0.336   2.011   1.825  0.3811 -1.0864 -1.0417
 2600TIP3    H2 7765   0.455   1.923   1.794  1.5780  0.3307 -0.5355
 2601TIP3   OH2 7766   5.838   5.534   1.456 -0.3296 -0.2463 -0.1856
 2601TIP3    H1 7767   5.899   5.497   1.519 -0.4647  1.1712  0.8139
 2601TIP3    H2 7768   5.892   5.590   1.400 -0.5699  0.3697  0.1883
 2602TIP3   OH2 7769   1.002   5.313   0.717 -0.6756 -0.6532  0.1242
 2602TIP3    H1 7770   1.018   5.291   0.625  1.5496 -1.6859  0.6980
 2602TIP3    H2 7771   0.945   5.389   0.714  1.0462  0.6663 -2.1757
 2603TIP3   OH2 7772   1.149   5.487   5.699  0.5802 -0.0459 -0.1626
 2603TIP3    H1 7773   1.142   5.539   5.779  0.1284 -0.9182  0.3811
 2603TIP3    H2 7774   1.147   5.397   5.729  0.8237 -0.3875 -1.1344
 2604TIP3   OH2 7775   4.312   1.833   1.207  0.5936  0.9896  0.3645
 2604TIP3    H1 7776   4.283   1.747   1.238  1.5726  0.2483 -0.6750
 2604TIP3    H2 7777   4.382   1.857   1.266 -0.4422  1.6311  1.3633
 2605TIP3   OH2 7778   4.976   5.116   4.169 -0.6028  0.3532  0.2541
 2605TIP3    H1 7779   5.015   5.029   4.180 -0.4791 -0.1024 -2.8319
 2605TIP3    H2 7780   5.034   5.175   4.216  0.5785 -0.9751  0.5147
 2606TIP3   OH2 7781   1.083   4.961   4.301 -0.0863 -0.1683 -0.2703
 2606TIP3    H1 7782   1.129   4.877   4.302 -1.6809 -1.0985 -1.1911
 2606TIP3    H2 7783   1.063   4.979   4.393  0.3466 -0.7524 -0.0587
 2607TIP3   OH2 7784   1.143   4.373   0.075 -0.3243 -0.0132  0.4954
 2607TIP3    H1 7785   1.105   4.375  -0.013  1.0539 -1.4544 -0.1784
 2607TIP3    H2 7786   1.097   4.301   0.119  0.3055 -0.5392  0.3030
 2608TIP3   OH2 7787   0.013   2.740   4.697 -0.1449 -0.4371 -0.4282
 2608TIP3    H1 7788  -0.007   2.708   4.785  0.9043 -0.4123 -0.1618
 2608TIP3    H2 7789  -0.004   2.665   4.640  0.6459 -0.9516 -0.0118
 2609TIP3   OH2 7790   1.944   2.965   4.282  0.1432  0.3294  0.4299
 2609TIP3    H1 7791   1.901   3.009   4.209  0.1428  0.6846  0.6382
 2609TIP3    H2 7792   2.028   3.010   4.291  0.4600 -0.2018  0.1773
 2610TIP3   OH2 7793   6.516   0.813   2.765  0.5592 -0.4382  0.3142
 2610TIP3    H1 7794   6.498   0.763   2.845  0.1470 -0.2597  0.3370
 2610TIP3    H2 7795   6.445   0.877   2.760  1.6153  0.8429  0.8391
 2611TIP3   OH2 7796   6.030   0.657   4.409 -0.6413 -0.3116  0.7334
 2611TIP3    H1 7797   6.065   0.569   4.399 -1.0078 -0.2380 -1.6632
 2611TIP3    H2 7798   6.100   0.705   4.455  1.2021 -0.9159 -1.2716
 2612TIP3   OH2 7799   6.459   0.652   2.966 -0.2790 -0.4511 -0.6707
 2612TIP3    H1 7800   6.377   0.626   3.008  0.7877  0.7463  2.4396
 2612TIP3    H2 7801   6.508   0.570   2.957 -0.5390 -0.7529  0.5011
 2613TIP3   OH2 7802   3.776   2.912   3.265  0.5773  0.4289  0.7569
 2613TIP3    H1 7803   3.702   2.906   3.204 -0.4421 -0.4881  2.0294
 2613TIP3    H2 7804   3.778   3.005   3.289  1.1877  0.8743 -0.8425
 2614TIP3   OH2 7805   0.652   0.016   0.302 -0.5343  0.7524  0.0355
 2614TIP3    H1 7806   0.689  -0.013   0.218  2.0473  1.0412  0.9904
 2614TIP3    H2 7807   0.607   0.098   0.281 -2.0678 -0.3766 -1.4487
 2615TIP3   OH2 7808   5.226   0.227   0.242  0.1568  0.4453  0.0240
 2615TIP3    H1 7809   5.306   0.193   0.202  0.0702 -1.3184  1.2719
 2615TIP3    H2 7810   5.255   0.299   0.298  0.7757  0.2886 -0.0913
 2616TIP3   OH2 7811   5.705   3.942   0.302 -0.4857  0.2305  0.8604
 2616TIP3    H1 7812   5.682   3.944   0.209  1.1238 -0.6288  0.4063
 2616TIP3    H2 7813   5.625   3.911   0.346 -1.3474  0.8895 -0.1764
 2617TIP3   OH2 7814   2.936   3.435   1.081 -0.0908 -0.5091  0.2790
 2617TIP3    H1 7815   2.888   3.497   1.026  1.1047 -0.6784 -1.0202
 2617TIP3    H2 7816   3.011   3.410   1.028  0.9749 -0.9027  1.9096
 2618TIP3   OH2 7817   6.935   1.544   1.863  0.0849  0.2521  0.1441
 2618TIP3    H1 7818   6.941   1.481   1.935 -0.9223  1.5037  1.3783
 2618TIP3    H2 7819   7.023   1.545   1.825  0.5154 -0.7698  1.0543
 2619TIP3   OH2 7820   4.902   4.469   2.874 -0.1017 -0.3932  0.0810
 2619TIP3    H1 7821   4.822   4.514   2.847 -1.1327 -2.5868 -0.7375
 2619TIP3    H2 7822   4.972   4.513   2.826 -0.7661  1.5169  0.7608
 2620TIP3   OH2 7823   1.533   5.963   3.375 -0.3097 -0.6060 -0.3550
 2620TIP3    H1 7824   1.486   5.962   3.291 -0.3576 -3.5131 -0.3631
 2620TIP3    H2 7825   1.485   5.901   3.430  1.2111 -0.6301  0.9942
 2621TIP3   OH2 7826   6.132   2.087   3.498 -0.5211 -0.5848 -0.3953
 2621TIP3    H1 7827   6.043   2.060   3.520 -1.4187  1.2648 -1.4550
 2621TIP3    H2 7828   6.171   2.113   3.581 -1.4248 -0.2597 -0.0639
 2622TIP3   OH2 7829   0.897   1.522   3.094  0.1269 -0.9107  0.3454
 2622TIP3    H1 7830   0.957   1.516   3.168 -0.3092  1.2511  0.9409
 2622TIP3    H2 7831   0.813   1.545   3.133 -0.5797 -1.6555 -0.6779
 2623TIP3   OH2 7832   5.867   0.222   5.089 -0.3002  0.1713  0.2764
 2623TIP3    H1 7833   5.801   0.187   5.148 -0.9573 -0.9098 -1.0393
 2623TIP3    H2 7834   5.899   0.146   5.041  0.5775  0.9463 -0.4133
 2624TIP3   OH2 7835   4.531   4.096   1.915  0.5361 -0.0218 -0.2204
 2624TIP3    H1 7836   4.563   4.115   1.827  0.1165 -0.1323 -0.4016
 2624TIP3    H2 7837   4.571   4.163   1.971 -1.9911  2.3232 -1.0349
 2625TIP3   OH2 7838   3.082   6.794   0.347 -0.0524  0.0468 -0.2175
 2625TIP3    H1 7839   3.057   6.809   0.256  1.0632 -1.3983 -0.8111
 2625TIP3    H2 7840   2.999   6.791   0.395 -0.6887  0.2881 -1.2785
 2626TIP3   OH2 7841   2.863   6.168   1.126 -0.2012 -0.4144  0.1301
 2626TIP3    H1 7842   2.941   6.203   1.170 -1.2213  1.2301  0.7276
 2626TIP3    H2 7843   2.796   6.235   1.140 -1.0527 -0.6025 -2.5309
 2627TIP3   OH2 7844   1.974   2.338   5.323 -0.1361  0.1163 -0.1374
 2627TIP3    H1 7845   1.950   2.411   5.265  0.6162  1.7624  1.5275
 2627TIP3    H2 7846   2.068   2.325   5.308 -0.4279 -1.1767 -1.0730
 2628TIP3   OH2 7847   6.882   3.000   4.956 -0.1289  0.0201 -0.6412
 2628TIP3    H1 7848   6.924   3.061   4.895  2.5294 -0.9418  0.0596
 2628TIP3    H2 7849   6.955   2.961   5.004 -1.9944 -0.4478  2.0449
 2629TIP3   OH2 7850   2.335   2.000   2.392  0.4425  0.1166  0.0207
 2629TIP3    H1 7851   2.243   2.014   2.369  1.0193  1.0103 -1.9512
 2629TIP3    H2 7852   2.368   2.087   2.412  1.0561 -0.0964 -0.0529
 2630TIP3   OH2 7853   1.867   1.950   0.370  0.6021  0.7458  0.3076
 2630TIP3    H1 7854   1.852   1.942   0.276  1.3259  0.0488  0.2392
 2630TIP3    H2 7855   1.865   2.044   0.387  1.2722  0.9316 -0.5526
 2631TIP3   OH2 7856   6.546   3.113   0.178 -0.3390 -0.2102 -0.1024
 2631TIP3    H1 7857   6.562   3.106   0.084 -1.5610 -1.5608 -0.2352
 2631TIP3    H2 7858   6.615   3.060   0.218  0.8851  1.2904 -0.1343
 2632TIP3   OH2 7859   5.312   6.058   2.004  0.0232  0.3405  0.3759
 2632TIP3    H1 7860   5.235   6.043   2.059  0.0110  0.3573  0.3631
 2632TIP3    H2 7861   5.383   6.015   2.052 -0.6143 -3.0745 -1.4049
 2633TIP3   OH2 7862   2.151   6.638   3.960 -0.2285  0.7286  0.0514
 2633TIP3    H1 7863   2.098   6.582   4.017  1.5584  0.7818  1.8559
 2633TIP3    H2 7864   2.095   6.653   3.883 -1.0438 -2.9264 -0.2251
 2634TIP3   OH2 7865   2.791   4.419   5.076  0.4858  0.6343  0.1888
 2634TIP3    H1 7866   2.706   4.416   5.033  0.2246  5.3621 -0.1331
 2634TIP3    H2 7867   2.772   4.402   5.168 -0.2920 -1.0023 -0.2316
 2635TIP3   OH2 7868   1.537   3.928   2.593  0.0087  0.6035 -0.3466
 2635TIP3    H1 7869   1.464   3.948   2.534  0.2230  0.2752 -0.7220
 2635TIP3    H2 7870   1.615   3.952   2.544  0.1023  3.1492  0.8944
 2636TIP3   OH2 7871   7.003   3.524   5.325  0.1827  0.2862  0.2654
 2636TIP3    H1 7872   6.979   3.434   5.349  1.9586  0.0667  1.4374
 2636TIP3    H2 7873   6.933   3.553   5.267 -0.2469 -1.9900 -0.4496
 2637TIP3   OH2 7874   1.104   1.610   3.299 -0.6492  0.0291  0.1973
 2637TIP3    H1 7875   1.193   1.612   3.333 -0.3678 -2.6826 -0.1063
 2637TIP3    H2 7876   1.080   1.702   3.288  2.0770  0.8558  0.3445
 2638TIP3   OH2 7877   1.867   4.489   2.921 -0.6039 -0.1895 -0.0220
 2638TIP3    H1 7878   1.886   4.403   2.961 -1.4747  0.3335  1.6206
 2638TIP3    H2 7879   1.804   4.470   2.852 -1.1024 -0.8500  0.5964
 2639TIP3   OH2 7880   4.287   2.715   3.981  0.2166 -0.4209 -0.4223
 2639TIP3    H1 7881   4.225   2.683   3.915  0.2894 -0.7112 -0.3510
 2639TIP3    H2 7882   4.373   2.692   3.946  0.3304  0.6346 -0.8719
 2640TIP3   OH2 7883   0.964   1.797   3.884  0.3043  0.5456  0.1818
 2640TIP3    H1 7884   0.970   1.846   3.966  0.0593 -0.5868  0.8978
 2640TIP3    H2 7885   0.903   1.848   3.830  1.1777  1.7946  0.3263
 2641TIP3   OH2 7886   4.249   2.148   4.518 -0.2996  0.2527  0.3016
 2641TIP3    H1 7887   4.257   2.087   4.445 -0.9799  0.8820 -0.3099
 2641TIP3    H2 7888   4.161   2.132   4.553  0.0658 -0.1367  1.0832
 2642TIP3   OH2 7889   3.368   0.908   4.674 -0.3663 -0.0137  0.2525
 2642TIP3    H1 7890   3.381   1.001   4.692  1.5739  0.1294 -1.4434
 2642TIP3    H2 7891   3.374   0.865   4.759  1.0587  1.2084  0.8044
 2643TIP3   OH2 7892   6.795   1.363   1.730  0.9231 -0.1879  0.1952
 2643TIP3    H1 7893   6.798   1.359   1.635  0.1150 -2.1193  0.1844
 2643TIP3    H2 7894   6.830   1.449   1.753 -0.7445  1.1387 -1.9195
 2644TIP3   OH2 7895   2.739   3.116   0.583 -0.3156  0.3384 -0.3591
 2644TIP3    H1 7896   2.692   3.182   0.634 -0.6086 -0.5076  0.5074
 2644TIP3    H2 7897   2.779   3.165   0.511  0.8949  1.7683  1.1813
 2645TIP3   OH2 7898   2.845   0.710   3.057  0.1262  0.3231  0.3092
 2645TIP3    H1 7899   2.858   0.781   2.994  0.1710  0.1925  0.1691
 2645TIP3    H2 7900   2.924   0.709   3.110  0.6429 -0.3733 -0.4452
 2646TIP3   OH2 7901   1.013   0.598   0.964  0.1892 -0.2316  0.2813
 2646TIP3    H1 7902   1.085   0.650   0.929 -0.2446  0.8907  0.9906
 2646TIP3    H2 7903   0.934   0.640   0.928 -0.1658 -0.4711  0.7707
 2647TIP3   OH2 7904   2.961   4.849   3.589 -0.2661 -0.4899 -0.1694
 2647TIP3    H1 7905   2.905   4.801   3.651  0.5582 -2.7421 -1.0401
 2647TIP3    H2 7906   3.047   4.851   3.631 -0.4927  1.1359  0.2656
 2648TIP3   OH2 7907   3.378   2.053   3.382 -0.0152  0.2483  0.3003
 2648TIP3    H1 7908   3.463   2.017   3.407  0.8361  0.7940 -1.6746
 2648TIP3    H2 7909   3.375   2.139   3.425  0.6519  0.4411 -0.0243
 2649TIP3   OH2 7910   7.066   4.751   5.344  0.3015  0.9493 -0.0255
 2649TIP3    H1 7911   7.139   4.726   5.288 -0.4453  0.4461 -0.7816
 2649TIP3    H2 7912   7.056   4.845   5.330  0.3853  0.9005 -0.4126
 2650TIP3   OH2 7913   1.749   2.307   5.658 -0.2078 -0.5497 -0.3106
 2650TIP3    H1 7914   1.831   2.277   5.698  0.9002  0.6567 -1.5626
 2650TIP3    H2 7915   1.766   2.306   5.564 -1.1212  1.1204 -0.5356
 2651TIP3   OH2 7916   5.656   0.713   1.955  0.0104  0.5027  0.1427
 2651TIP3    H1 7917   5.577   0.689   1.907 -0.0767  1.5476 -0.2698
 2651TIP3    H2 7918   5.668   0.643   2.020 -1.1498  0.2429  0.0905
 2652TIP3   OH2 7919   5.716   0.388   4.360 -0.3258 -0.4271  0.0278
 2652TIP3    H1 7920   5.712   0.483   4.348 -1.3754 -0.4457  0.1459
 2652TIP3    H2 7921   5.625   0.361   4.374  0.1285 -1.2064  1.8859
 2653TIP3   OH2 7922   7.103   5.747   1.258  0.1768  0.0224  0.2825
 2653TIP3    H1 7923   7.081   5.750   1.165  0.4035 -0.4579  0.2161
 2653TIP3    H2 7924   7.023   5.777   1.302 -0.4373 -1.1808  0.0104
 2654TIP3   OH2 7925   0.466   5.684   0.350 -0.0062 -0.2308 -0.5537
 2654TIP3    H1 7926   0.479   5.682   0.256 -0.8767  2.4985 -0.8190
 2654TIP3    H2 7927   0.482   5.776   0.375 -1.8350 -0.3997  1.5958
 2655TIP3   OH2 7928   5.348   4.326   1.141 -0.4389 -0.6999 -0.4607
 2655TIP3    H1 7929   5.360   4.333   1.047  0.4789 -1.1670 -0.3904
 2655TIP3    H2 7930   5.419   4.379   1.179 -0.9589 -0.2989 -0.0355
 2656TIP3   OH2 7931   6.613   4.611   1.445 -0.3321  0.6983 -0.4082
 2656TIP3    H1 7932   6.565   4.552   1.504  1.8959  0.6235  1.4902
 2656TIP3    H2 7933   6.577   4.697   1.464 -0.1690  0.5720  0.5594
 2657TIP3   OH2 7934   6.447   5.047   4.508  0.4635 -0.0577 -0.1267
 2657TIP3    H1 7935   6.475   4.981   4.445  0.2944  0.2538 -0.5251
 2657TIP3    H2 7936   6.351   5.040   4.509  0.4662 -0.0938  0.1307
 2658TIP3   OH2 7937   2.470   1.991   1.532 -0.0641  0.2939 -0.3966
 2658TIP3    H1 7938   2.447   2.026   1.618 -0.5862  0.0063 -0.4192
 2658TIP3    H2 7939   2.503   2.067   1.483  0.7532  0.3549  0.2288
 2659TIP3   OH2 7940   6.514   3.603   0.615  0.6836 -1.1742  0.0819
 2659TIP3    H1 7941   6.600   3.613   0.656  0.2421  1.6297  0.5898
 2659TIP3    H2 7942   6.462   3.556   0.680  0.6732  1.0831  1.8775
 2660TIP3   OH2 7943   5.901   0.424   4.892  0.2568  0.6050 -0.5660
 2660TIP3    H1 7944   5.961   0.490   4.929  2.9875 -1.5434 -0.8048
 2660TIP3    H2 7945   5.873   0.372   4.968  1.9476 -0.7954 -0.8368
 2661TIP3   OH2 7946   3.249   3.690   4.371  0.5620  0.7411  0.2745
 2661TIP3    H1 7947   3.345   3.692   4.366  0.4876  1.1602 -1.3847
 2661TIP3    H2 7948   3.221   3.774   4.335 -0.4788 -0.1054 -0.9754
 2662TIP3   OH2 7949   0.432   2.422   3.377 -0.7030  0.1608  0.0288
 2662TIP3    H1 7950   0.401   2.416   3.467 -1.7995 -0.9522 -0.3846
 2662TIP3    H2 7951   0.404   2.339   3.337  0.1442  0.4470 -1.2165
 2663TIP3   OH2 7952   4.924   1.309   4.865 -0.0915 -0.8197 -0.7387
 2663TIP3    H1 7953   4.882   1.394   4.882 -1.4042 -1.3463 -1.2183
 2663TIP3    H2 7954   4.936   1.307   4.770 -0.4849 -1.3567 -0.7792
 2664TIP3   OH2 7955   3.517   5.913   3.472 -0.2381 -0.6383 -0.2262
 2664TIP3    H1 7956   3.558   5.837   3.514  1.0966 -0.3332 -0.9217
 2664TIP3    H2 7957   3.478   5.878   3.392  2.4316 -0.3021 -1.8137
 2665TIP3   OH2 7958   6.298   6.396   4.686  0.0794  0.1627 -0.6223
 2665TIP3    H1 7959   6.332   6.412   4.774  0.3040  0.0003 -0.6781
 2665TIP3    H2 7960   6.337   6.312   4.661 -1.7315 -0.9450  0.0183
 2666TIP3   OH2 7961   3.999   0.319   2.513 -0.5139 -0.3724 -0.4723
 2666TIP3    H1 7962   4.028   0.391   2.569 -1.4963 -0.3746  0.0673
 2666TIP3    H2 7963   3.976   0.249   2.574 -0.1540 -0.9342 -0.9654
 2667TIP3   OH2 7964   6.709   2.607   2.820 -0.4917  0.0601  0.3176
 2667TIP3    H1 7965   6.801   2.590   2.840 -0.6770 -0.7773  0.4849
 2667TIP3    H2 7966   6.663   2.527   2.846 -0.9338 -0.5771 -2.1304
 2668TIP3   OH2 7967   0.662   6.244   2.010  0.8320 -0.3655  0.0136
 2668TIP3    H1 7968   0.616   6.325   1.987  0.8879 -0.3069  0.1028
 2668TIP3    H2 7969   0.611   6.174   1.970  0.2660 -0.3633  0.7019
 2669TIP3   OH2 7970   6.428   6.202   4.481  0.1188 -0.1914 -0.0188
 2669TIP3    H1 7971   6.518   6.219   4.453 -0.0722 -0.6110 -0.9116
 2669TIP3    H2 7972   6.374   6.252   4.420 -0.2285  1.9317  1.8964
 2670TIP3   OH2 7973   3.723   5.935   3.804 -0.4457  0.1746  0.3967
 2670TIP3    H1 7974   3.760   6.002   3.747 -0.9301 -1.4326 -1.9644
 2670TIP3    H2 7975   3.666   5.983   3.864  0.0658  1.9654 -0.4771
 2671TIP3   OH2 7976   0.609   2.396   5.399 -0.0301 -0.3995 -0.3097
 2671TIP3    H1 7977   0.613   2.443   5.483  0.1253  1.3360 -1.2408
 2671TIP3    H2 7978   0.618   2.304   5.423 -0.8391 -0.0249  1.6487
 2672TIP3   OH2 7979   2.792   2.032   2.453  0.3430  0.2255  0.3579
 2672TIP3    H1 7980   2.699   2.049   2.465  0.0685 -0.7656 -0.2591
 2672TIP3    H2 7981   2.827   2.112   2.414 -0.3459  0.4219  0.1468
 2673TIP3   OH2 7982   0.864   5.131   4.760 -0.6260  0.0763  0.6924
 2673TIP3    H1 7983   0.840   5.217   4.726  2.0401  0.5372 -0.2676
 2673TIP3    H2 7984   0.880   5.145   4.853 -1.3466  0.3326  0.7852
 2674TIP3   OH2 7985   1.135   4.990   1.365 -0.1849 -0.2085  0.3291
 2674TIP3    H1 7986   1.107   4.952   1.449 -0.4639  0.0241  0.3413
 2674TIP3    H2 7987   1.068   5.055   1.345  0.4961  0.5583  0.5025
 2675TIP3   OH2 7988   1.255   0.163   3.298 -0.5719 -0.2442 -0.2351
 2675TIP3    H1 7989   1.222   0.073   3.288  2.3255 -1.5928  0.9060
 2675TIP3    H2 7990   1.278   0.190   3.210 -2.0067 -0.3564 -0.6690
 2676TIP3   OH2 7991   6.453   3.123   2.771  0.3546  0.2728 -0.2881
 2676TIP3    H1 7992   6.374   3.073   2.748 -0.3227  0.4727  1.4476
 2676TIP3    H2 7993   6.526   3.069   2.741 -0.4162 -0.1053 -1.5671
 2677TIP3   OH2 7994   6.662   1.305   3.446  0.1961 -0.0780 -0.0694
 2677TIP3    H1 7995   6.590   1.251   3.479  0.6123 -1.2062 -0.9668
 2677TIP3    H2 7996   6.638   1.325   3.356  1.2128 -0.8467 -0.5222
 2678TIP3   OH2 7997   0.079   5.374   5.503 -0.1353 -0.0401 -0.4429
 2678TIP3    H1 7998   0.063   5.415   5.418  2.2209  0.4378 -0.7330
 2678TIP3    H2 7999   0.099   5.447   5.562 -0.5956 -0.4479  0.2339
 2679TIP3   OH2 8000   6.996   2.895   0.170  0.5377  0.3720 -0.2679
 2679TIP3    H1 8001   6.964   2.972   0.219  0.8289  0.4035 -0.1232
 2679TIP3    H2 8002   6.917   2.845   0.150  0.3278  0.7969 -0.5118
 2680TIP3   OH2 8003   2.417   4.759   3.205 -0.2676 -0.2157  0.5745
 2680TIP3    H1 8004   2.338   4.721   3.166  0.2846  0.3390 -1.1512
 2680TIP3    H2 8005   2.479   4.686   3.211 -0.7340 -0.5517  1.5152
 2681TIP3   OH2 8006   2.303   2.974   5.154  0.1010 -0.3104  0.3831
 2681TIP3    H1 8007   2.377   2.919   5.130 -1.8161 -2.2146 -1.6709
 2681TIP3    H2 8008   2.299   3.041   5.085  1.2369  1.2890  1.7881
 2682TIP3   OH2 8009   6.576   0.297   5.395 -1.1303  0.0410  0.4271
 2682TIP3    H1 8010   6.582   0.203   5.411  3.1859  0.3452  2.0064
 2682TIP3    H2 8011   6.625   0.311   5.314 -0.9420  0.9652  0.6831
 2683TIP3   OH2 8012   6.941   2.926   2.330  0.3293 -0.4792 -0.1192
 2683TIP3    H1 8013   6.931   2.986   2.404  0.5037  0.5355 -0.9103
 2683TIP3    H2 8014   7.003   2.860   2.362  2.0991  1.1353 -0.0433
 2684TIP3   OH2 8015   0.550   4.626   3.802 -0.1527  0.0887  0.5096
 2684TIP3    H1 8016   0.543   4.705   3.855  1.7126 -1.3265  3.0806
 2684TIP3    H2 8017   0.614   4.649   3.734  4.0609 -0.3062  3.9308
 2685TIP3   OH2 8018   1.270   5.465   2.565 -0.1521 -0.2435 -0.1636
 2685TIP3    H1 8019   1.290   5.475   2.658 -0.7696 -2.7750  0.3131
 2685TIP3    H2 8020   1.175   5.466   2.561 -0.2697 -3.0672 -0.2636
 2686TIP3   OH2 8021   2.580   4.960   0.130  0.7729 -0.5498 -0.5485
 2686TIP3    H1 8022   2.497   4.992   0.165  1.4534  0.0023  0.6541
 2686TIP3    H2 8023   2.601   4.884   0.185  1.4533 -0.1831 -0.2842
 2687TIP3   OH2 8024   5.390   0.407   3.934 -0.0180 -0.0889  0.7528
 2687TIP3    H1 8025   5.377   0.406   3.839  0.2864 -0.7429  0.7079
 2687TIP3    H2 8026   5.480   0.437   3.946 -0.2273  0.5047  0.8631
 2688TIP3   OH2 8027   3.418   0.807   2.198 -0.9055 -0.0685 -0.2380
 2688TIP3    H1 8028   3.470   0.878   2.237 -0.2462 -1.9344  2.5450
 2688TIP3    H2 8029   3.335   0.810   2.245 -0.9630 -0.9532 -0.2734
 2689TIP3   OH2 8030   7.140   0.966   1.326  0.1851 -0.4794  0.0719
 2689TIP3    H1 8031   7.123   0.944   1.417 -0.1438  2.1827  0.7415
 2689TIP3    H2 8032   7.229   0.999   1.325  0.3405 -0.8838 -0.6714
 2690TIP3   OH2 8033   6.372   3.451   5.416 -0.2785 -0.6657 -0.6157
 2690TIP3    H1 8034   6.353   3.520   5.480  0.5750 -0.8201 -0.1726
 2690TIP3    H2 8035   6.288   3.431   5.376 -0.5479  0.6546 -0.7706
 2691TIP3   OH2 8036   2.817   5.804   4.157  0.1105 -0.1516 -0.9636
 2691TIP3    H1 8037   2.818   5.731   4.096  0.6169 -1.7361  0.8493
 2691TIP3    H2 8038   2.741   5.788   4.213  0.8686  0.0637  0.1578
 2692TIP3   OH2 8039   3.118   1.590   2.569 -0.2817 -0.2346 -0.6814
 2692TIP3    H1 8040   3.058   1.664   2.573 -1.0893 -0.5360 -3.9965
 2692TIP3    H2 8041   3.076   1.523   2.623 -1.6436  0.4275 -0.8673
 2693TIP3   OH2 8042   4.118   4.805   5.336 -0.2935 -0.0531  0.0542
 2693TIP3    H1 8043   4.108   4.712   5.315 -0.9708  0.3980 -1.7827
 2693TIP3    H2 8044   4.205   4.827   5.303 -0.9322  0.4076 -1.3892
 2694TIP3   OH2 8045   5.887   5.543   2.836  0.7003  0.0418  0.1876
 2694TIP3    H1 8046   5.969   5.551   2.788  1.3642 -1.6864  0.9495
 2694TIP3    H2 8047   5.905   5.584   2.921 -0.2274  2.3909 -0.6711
 2695TIP3   OH2 8048   2.077   1.919   2.196  0.2094  0.2262  0.4121
 2695TIP3    H1 8049   2.119   1.840   2.163 -2.4184 -1.8310  1.5558
 2695TIP3    H2 8050   2.034   1.891   2.277 -0.2570  3.0243  1.2368
 2696TIP3   OH2 8051   4.381   6.080   4.071  0.0950  0.3117 -0.1607
 2696TIP3    H1 8052   4.412   5.997   4.034 -0.8125 -0.7764  1.4097
 2696TIP3    H2 8053   4.435   6.093   4.149 -0.1007  0.9535 -0.1271
 2697TIP3   OH2 8054   3.015   1.065   0.588 -0.0152 -0.1572  0.7574
 2697TIP3    H1 8055   3.011   1.086   0.681 -1.1853 -2.2430  1.2538
 2697TIP3    H2 8056   2.923   1.067   0.559  0.2744 -0.1444 -0.2046
 2698TIP3   OH2 8057   6.080   1.071   5.510  0.5694  0.0025 -0.3567
 2698TIP3    H1 8058   5.997   1.028   5.492  1.1892 -0.6741 -1.8007
 2698TIP3    H2 8059   6.136   1.001   5.545  0.3793  0.5784  1.1536
 2699TIP3   OH2 8060   4.025   0.234   3.055  0.4479 -0.2262  0.2410
 2699TIP3    H1 8061   3.942   0.277   3.037 -0.3897 -2.0736 -0.6273
 2699TIP3    H2 8062   4.029   0.163   2.990  1.8022 -1.3562  1.4979
 2700TIP3   OH2 8063   2.342   0.885   3.134 -0.1712  0.0892 -0.3444
 2700TIP3    H1 8064   2.417   0.835   3.101 -1.3004 -0.8915 -1.5624
 2700TIP3    H2 8065   2.380   0.968   3.164  1.5090 -0.7288 -0.0493
 2701TIP3   OH2 8066   0.041   2.681   1.870 -0.1511 -0.0386  0.0182
 2701TIP3    H1 8067   0.063   2.759   1.819 -0.7245 -0.0949 -0.3307
 2701TIP3    H2 8068  -0.012   2.714   1.943 -1.4313 -0.2111 -0.7964
 2702TIP3   OH2 8069   6.951   1.242   2.512 -0.1984 -0.2377  0.2312
 2702TIP3    H1 8070   6.884   1.273   2.572 -2.2770 -0.8976 -1.6178
 2702TIP3    H2 8071   6.968   1.152   2.540 -1.2469 -0.5828 -0.2007
 2703TIP3   OH2 8072   1.308   0.009   1.226 -0.0427 -0.3331  0.2168
 2703TIP3    H1 8073   1.314   0.068   1.301  3.3614  1.4473 -1.2554
 2703TIP3    H2 8074   1.387  -0.045   1.232 -0.4758 -1.1931 -1.3049
 2704TIP3   OH2 8075   2.935   3.670   1.233 -0.1891 -0.3748 -0.5248
 2704TIP3    H1 8076   3.030   3.665   1.232 -0.1990 -1.8427  1.2034
 2704TIP3    H2 8077   2.906   3.591   1.187 -0.5561 -0.5694  0.0307
 2705TIP3   OH2 8078   2.213   5.389   3.397 -0.5790 -0.6239  0.3413
 2705TIP3    H1 8079   2.231   5.295   3.396 -2.2591 -0.9721  0.1622
 2705TIP3    H2 8080   2.118   5.396   3.386 -0.7958  1.0133  2.5941
 2706TIP3   OH2 8081   0.504   2.103  -0.019  0.5328  0.6205 -0.5165
 2706TIP3    H1 8082   0.446   2.176   0.003  0.1514  0.3681 -0.6600
 2706TIP3    H2 8083   0.491   2.039   0.051  0.8634  0.6934 -0.3920
 2707TIP3   OH2 8084   2.279   0.655   5.394  0.0039 -0.0194 -0.7633
 2707TIP3    H1 8085   2.343   0.585   5.407  0.5702  0.4476 -1.0185
 2707TIP3    H2 8086   2.197   0.619   5.429  0.3691 -0.6722 -0.5644
 2708TIP3   OH2 8087   3.379   0.299   3.366  0.2560  0.2605  0.5969
 2708TIP3    H1 8088   3.346   0.362   3.301  0.7558 -1.3786 -1.3754
 2708TIP3    H2 8089   3.316   0.227   3.363 -0.1945  0.5214  2.6584
 2709TIP3   OH2 8090   3.002   1.401   0.682  0.2032 -0.3413  0.1310
 2709TIP3    H1 8091   2.981   1.328   0.625 -0.1690  0.9433 -1.4655
 2709TIP3    H2 8092   3.096   1.396   0.695  0.3291 -0.5289 -0.8048
 2710TIP3   OH2 8093   1.838   1.750   1.243  0.1679 -0.3700 -0.2404
 2710TIP3    H1 8094   1.882   1.694   1.179 -0.6549 -0.3983 -0.8079
 2710TIP3    H2 8095   1.753   1.707   1.257  0.9199 -1.2510  2.1018
 2711TIP3   OH2 8096   1.229   2.171   1.021  0.1960 -0.1358  0.5696
 2711TIP3    H1 8097   1.312   2.172   0.974 -1.0407 -0.1093 -1.7618
 2711TIP3    H2 8098   1.188   2.255   0.999 -0.3431 -0.0281  1.9041
 2712TIP3   OH2 8099   5.317   6.341   2.424 -0.5636  0.4003 -0.0602
 2712TIP3    H1 8100   5.238   6.380   2.464 -0.6899 -0.7429  0.8555
 2712TIP3    H2 8101   5.285   6.262   2.380  0.0855 -0.1853  0.4897
 2713TIP3   OH2 8102   5.390   2.778   1.789  0.4677  0.3509  0.3028
 2713TIP3    H1 8103   5.352   2.779   1.877 -0.0152  0.8047  0.0954
 2713TIP3    H2 8104   5.317   2.753   1.732  1.4238 -2.8385  0.3089
 2714TIP3   OH2 8105   4.147   5.099   4.733 -0.4920  0.2252  0.4193
 2714TIP3    H1 8106   4.216   5.158   4.763 -1.0866  0.9953  0.3068
 2714TIP3    H2 8107   4.090   5.088   4.809 -0.7410  0.3248  0.2477
 2715TIP3   OH2 8108   3.640   1.524   1.119  0.0269  0.0076  0.0656
 2715TIP3    H1 8109   3.603   1.436   1.111  0.4770 -0.2004  0.2176
 2715TIP3    H2 8110   3.587   1.578   1.060 -0.2137 -0.3769 -0.0740
 2716TIP3   OH2 8111   0.485   3.824   1.505 -0.0477 -0.3569  0.2052
 2716TIP3    H1 8112   0.508   3.742   1.463 -1.0495 -0.7109  0.3294
 2716TIP3    H2 8113   0.412   3.803   1.563 -0.1704  0.5657  0.4145
 2717TIP3   OH2 8114   4.262  -0.035   0.105  0.3965 -0.0288 -0.3526
 2717TIP3    H1 8115   4.248   0.011   0.022  1.4360  0.0941 -0.4639
 2717TIP3    H2 8116   4.307   0.029   0.160 -0.6831  0.0461  0.4777
 2718TIP3   OH2 8117   2.758   3.572   5.527  0.0947 -0.5608  0.0910
 2718TIP3    H1 8118   2.739   3.484   5.494 -1.0075  0.5581 -2.6053
 2718TIP3    H2 8119   2.837   3.598   5.479  0.8812 -0.3318  1.4684
 2719TIP3   OH2 8120   2.029   5.333   1.898  0.7222 -0.2329 -0.2026
 2719TIP3    H1 8121   2.018   5.427   1.913  0.8460 -0.1959 -0.3374
 2719TIP3    H2 8122   2.023   5.294   1.985  0.6885 -0.0981 -0.1438
 2720TIP3   OH2 8123   0.034   5.351   1.216  0.6620  0.2575  0.2454
 2720TIP3    H1 8124   0.128   5.367   1.211  0.7464 -0.4974 -0.7989
 2720TIP3    H2 8125   0.021   5.315   1.304  1.6822 -1.6396 -0.3405
 2721TIP3   OH2 8126   1.688   0.253   2.426  0.2314  0.0896  0.0860
 2721TIP3    H1 8127   1.629   0.187   2.464  0.1592  0.5217  0.7338
 2721TIP3    H2 8128   1.675   0.330   2.480 -1.4645  1.4337 -2.0547
 2722TIP3   OH2 8129   0.588   5.728   1.399 -0.3266  0.5371 -0.0346
 2722TIP3    H1 8130   0.528   5.779   1.344 -0.1763 -0.7765 -1.4780
 2722TIP3    H2 8131   0.633   5.794   1.452 -0.4081  1.8749 -1.5645
 2723TIP3   OH2 8132   5.233   2.721   5.167  0.5035 -0.3791  0.0403
 2723TIP3    H1 8133   5.302   2.749   5.108 -0.5971  0.0082 -1.1084
 2723TIP3    H2 8134   5.162   2.694   5.109 -0.8969  0.7314  1.1665
 2724TIP3   OH2 8135   3.697   0.549   3.295  0.0689 -0.3558  0.0666
 2724TIP3    H1 8136   3.627   0.604   3.329  1.5774  0.4885  2.0486
 2724TIP3    H2 8137   3.652   0.472   3.259 -1.8683  0.1744  1.1930
 2725TIP3   OH2 8138   4.775   2.581   1.932  0.3176  0.1732  0.3266
 2725TIP3    H1 8139   4.839   2.651   1.917  0.4213 -0.4576 -3.0197
 2725TIP3    H2 8140   4.699   2.627   1.968  0.7270  1.9141 -0.8580
 2726TIP3   OH2 8141   1.597   2.604   1.917  0.3084 -0.0795 -0.0065
 2726TIP3    H1 8142   1.587   2.550   1.838  2.1685 -0.2785 -0.1435
 2726TIP3    H2 8143   1.628   2.688   1.884 -0.7850  0.4998  0.3776
 2727TIP3   OH2 8144   2.045   6.757   3.305 -0.4246  0.0131 -0.9664
 2727TIP3    H1 8145   2.059   6.696   3.233  0.3933  0.5207 -1.2518
 2727TIP3    H2 8146   1.974   6.718   3.356  1.0388 -1.9173 -0.3021
 2728TIP3   OH2 8147   1.739   6.162   2.259  0.2717 -0.1266  0.4260
 2728TIP3    H1 8148   1.795   6.219   2.311  0.1667  1.1895 -0.8483
 2728TIP3    H2 8149   1.663   6.215   2.238  0.3786 -0.5602 -1.1793
 2729TIP3   OH2 8150   3.970   5.401   1.996 -0.1990 -0.3250 -0.4820
 2729TIP3    H1 8151   3.950   5.310   2.020  0.6565 -0.3827  0.0736
 2729TIP3    H2 8152   4.025   5.433   2.068 -1.3916  0.9982 -0.1162
 2730TIP3   OH2 8153   2.459   6.584   2.349 -0.2111 -0.7547 -0.3274
 2730TIP3    H1 8154   2.517   6.658   2.367 -1.2046  0.2788 -1.1616
 2730TIP3    H2 8155   2.446   6.586   2.254 -0.3802 -1.9170 -0.3400
 2731TIP3   OH2 8156   2.658   0.344   4.542  0.1525 -0.7920 -0.2094
 2731TIP3    H1 8157   2.564   0.352   4.524 -0.8498 -0.0651  4.1777
 2731TIP3    H2 8158   2.694   0.431   4.523 -0.3079 -0.6851 -0.6192
 2732TIP3   OH2 8159   4.867   5.604   0.650 -0.1917  0.2438  0.1799
 2732TIP3    H1 8160   4.847   5.519   0.689 -0.5325 -0.0939 -0.7016
 2732TIP3    H2 8161   4.782   5.637   0.619  0.0276  0.6395 -0.0120
 2733TIP3   OH2 8162   4.665   5.940   4.329 -0.3318  0.0817  0.5620
 2733TIP3    H1 8163   4.661   6.012   4.266 -0.3734  0.3033  0.8192
 2733TIP3    H2 8164   4.576   5.935   4.365 -0.9506 -1.5023 -1.0237
 2734TIP3   OH2 8165   4.520   2.882   5.363 -0.2092  0.1786  0.1831
 2734TIP3    H1 8166   4.585   2.852   5.427  1.2962  1.8665 -0.4859
 2734TIP3    H2 8167   4.485   2.801   5.325  1.7431 -0.7962  0.3463
 2735TIP3   OH2 8168   0.245   4.303   0.713 -0.1986 -0.4383 -0.4385
 2735TIP3    H1 8169   0.209   4.310   0.801  2.0388  0.0162  0.5266
 2735TIP3    H2 8170   0.337   4.329   0.723  0.1506 -0.4685 -2.8977
 2736TIP3   OH2 8171   2.172   6.710   4.987  0.4821 -0.1047 -0.4490
 2736TIP3    H1 8172   2.165   6.792   5.036  1.3842 -0.2651 -0.0312
 2736TIP3    H2 8173   2.252   6.669   5.019 -1.2578 -2.4178  1.2591
 2737TIP3   OH2 8174   3.212   1.044   5.076  0.0772  0.2070  0.1561
 2737TIP3    H1 8175   3.117   1.046   5.064  0.1171  0.7184 -0.0919
 2737TIP3    H2 8176   3.242   1.131   5.049  0.3061  1.0262  2.6965
 2738TIP3   OH2 8177   3.784   3.147   3.392 -0.2012  0.6760  0.3672
 2738TIP3    H1 8178   3.709   3.194   3.355 -0.3956 -0.2619 -0.4816
 2738TIP3    H2 8179   3.858   3.204   3.378 -0.5607  1.0726  0.0736
 2739TIP3   OH2 8180   1.521   4.723   2.844 -0.5411 -0.4971 -0.3844
 2739TIP3    H1 8181   1.568   4.786   2.789  0.7770 -1.4218 -0.3505
 2739TIP3    H2 8182   1.489   4.657   2.782 -2.8062  0.6470 -0.5613
 2740TIP3   OH2 8183   0.267   4.332   5.223 -0.2333 -0.5367 -0.0418
 2740TIP3    H1 8184   0.324   4.392   5.272  0.5229 -1.1124 -0.2040
 2740TIP3    H2 8185   0.227   4.278   5.290  1.3276 -1.7872 -0.0567
 2741TIP3   OH2 8186   2.081   3.429   0.164 -0.4845 -0.4902  0.2349
 2741TIP3    H1 8187   2.126   3.480   0.232  2.0441 -0.8010 -1.0791
 2741TIP3    H2 8188   2.030   3.494   0.116  1.7225  0.6614 -0.6566
 2742TIP3   OH2 8189   5.581   0.800   4.088 -0.0334  0.1111  0.1611
 2742TIP3    H1 8190   5.574   0.863   4.160 -1.1579 -2.0113  2.0526
 2742TIP3    H2 8191   5.497   0.754   4.089 -0.1745  0.1295 -2.7261
 2743TIP3   OH2 8192   2.811   5.412   0.354  0.2804 -0.4445  0.3298
 2743TIP3    H1 8193   2.824   5.505   0.373  0.6447 -0.5467  0.5814
 2743TIP3    H2 8194   2.812   5.407   0.258  0.3536 -0.2048  0.3167
 2744TIP3   OH2 8195   6.318   4.883   1.045 -0.2214  0.5004  0.8294
 2744TIP3    H1 8196   6.407   4.895   1.078 -0.3720  0.8919  1.0991
 2744TIP3    H2 8197   6.324   4.898   0.951  0.0745  0.1064  0.7813
 2745TIP3   OH2 8198   6.674   2.085   2.981  0.1095 -0.0784 -0.3514
 2745TIP3    H1 8199   6.693   2.088   2.888  0.9698  0.9887 -0.1573
 2745TIP3    H2 8200   6.578   2.083   2.986  0.0315  0.6765 -1.2425
 2746TIP3   OH2 8201   3.880   6.430   3.583 -0.2456  0.0641  0.0473
 2746TIP3    H1 8202   3.943   6.501   3.568 -0.9800  1.0800  1.5228
 2746TIP3    H2 8203   3.795   6.470   3.568 -0.6818 -0.4870  0.9897
 2747TIP3   OH2 8204   4.581   6.243   1.879 -0.1617  0.0794 -0.5514
 2747TIP3    H1 8205   4.497   6.207   1.908 -0.1609  0.7008  0.2413
 2747TIP3    H2 8206   4.636   6.165   1.864 -0.1387 -0.2779  1.2018
 2748TIP3   OH2 8207   5.014   1.065   5.188 -0.0014  0.3268 -0.1068
 2748TIP3    H1 8208   5.106   1.052   5.209 -0.4127 -0.2195  1.5165
 2748TIP3    H2 8209   5.006   1.039   5.096  1.1547 -1.2331  0.1949
 2749TIP3   OH2 8210   3.757   0.517   0.869  0.4206  0.1776 -0.2643
 2749TIP3    H1 8211   3.675   0.467   0.867  0.0970  0.6712  0.4010
 2749TIP3    H2 8212   3.811   0.472   0.934 -0.0403  0.9332  0.6632
 2750TIP3   OH2 8213   0.043   1.231   1.464 -0.1742 -0.2571  0.4262
 2750TIP3    H1 8214   0.121   1.176   1.469 -0.3138 -0.6525 -1.2598
 2750TIP3    H2 8215  -0.019   1.191   1.526 -0.6297 -2.6571 -1.4350
 2751TIP3   OH2 8216   1.632   1.216   1.073  0.2811  0.2428  0.3151
 2751TIP3    H1 8217   1.612   1.299   1.118 -0.2004 -0.2806  1.0965
 2751TIP3    H2 8218   1.547   1.176   1.058  0.5257 -0.2069  0.1239
 2752TIP3   OH2 8219   6.680   1.186   1.894  0.0890 -0.0971  0.4029
 2752TIP3    H1 8220   6.598   1.161   1.851  0.2727 -0.9293  0.5255
 2752TIP3    H2 8221   6.723   1.245   1.833 -0.5254  0.2147  0.2662
 2753TIP3   OH2 8222   0.217   4.545   4.609 -0.1129 -0.4504 -0.3485
 2753TIP3    H1 8223   0.236   4.614   4.547 -1.6277  0.2932 -0.0221
 2753TIP3    H2 8224   0.267   4.568   4.688 -2.4596  1.6662  0.6278
 2754TIP3   OH2 8225   1.529   3.009   4.562 -0.1127  0.4618 -0.1975
 2754TIP3    H1 8226   1.623   2.990   4.565 -0.1189  0.5464  1.5860
 2754TIP3    H2 8227   1.488   2.925   4.580 -0.4737  0.0467 -2.6681
 2755TIP3   OH2 8228   0.355   6.451   1.525  0.3009 -0.4775  0.2033
 2755TIP3    H1 8229   0.407   6.506   1.467 -1.8924  0.5206 -0.9583
 2755TIP3    H2 8230   0.418   6.394   1.569  2.3896  1.1809 -0.5218
 2756TIP3   OH2 8231   3.302   2.278   3.517 -0.4821 -0.3858  0.4319
 2756TIP3    H1 8232   3.324   2.367   3.491  1.3165 -1.0155 -0.3787
 2756TIP3    H2 8233   3.228   2.255   3.462  0.3523 -0.0803 -0.8762
 2757TIP3   OH2 8234   4.286   5.589   4.687 -0.1617  0.3458 -0.3923
 2757TIP3    H1 8235   4.205   5.630   4.657 -0.0427 -0.5812 -2.1563
 2757TIP3    H2 8236   4.259   5.505   4.722  0.0628 -0.1975 -1.4867
 2758TIP3   OH2 8237   4.502   0.432   4.459  0.7385  0.1458 -0.8242
 2758TIP3    H1 8238   4.526   0.386   4.540  0.4626  1.1084 -0.1755
 2758TIP3    H2 8239   4.519   0.524   4.478 -2.4921  0.8066 -0.6317
 2759TIP3   OH2 8240   6.352   0.312   1.329  0.0754 -0.0928  0.1003
 2759TIP3    H1 8241   6.325   0.224   1.355  2.5143 -0.9523  0.0548
 2759TIP3    H2 8242   6.388   0.350   1.409  0.9809  0.0262 -0.3488
 2760TIP3   OH2 8243   6.524   1.413   5.396 -0.1676  0.2397  0.9106
 2760TIP3    H1 8244   6.485   1.466   5.466 -0.4635  1.9141 -0.4562
 2760TIP3    H2 8245   6.456   1.349   5.374 -1.5028  1.9202 -0.1536
 2761TIP3   OH2 8246   1.716   0.494   0.450  1.1015  0.3689 -0.0233
 2761TIP3    H1 8247   1.728   0.402   0.474 -0.6461 -0.1608 -1.0487
 2761TIP3    H2 8248   1.798   0.536   0.476  2.2671 -1.6259 -0.2862
 2762TIP3   OH2 8249   4.174   2.029   4.273  0.2641 -0.1483  0.1684
 2762TIP3    H1 8250   4.173   2.058   4.182  0.7388  1.6770  0.6962
 2762TIP3    H2 8251   4.204   1.939   4.270  1.9987  0.4256 -1.3587
 2763TIP3   OH2 8252   5.101   1.824   3.666  0.6211  0.4583 -0.1667
 2763TIP3    H1 8253   5.119   1.730   3.679 -1.0594  0.2569  0.9336
 2763TIP3    H2 8254   5.135   1.865   3.745  0.4292  0.6625 -0.1931
 2764TIP3   OH2 8255   4.490   0.202   4.310  0.0788 -0.2027 -0.2214
 2764TIP3    H1 8256   4.488   0.295   4.332 -2.2192 -0.1481 -0.5042
 2764TIP3    H2 8257   4.579   0.187   4.279 -0.2350  2.5241 -2.8394
 2765TIP3   OH2 8258   1.013   6.297   2.232 -0.1408 -0.4319  0.2183
 2765TIP3    H1 8259   1.037   6.256   2.149 -2.3705  0.5128 -0.9893
 2765TIP3    H2 8260   0.924   6.266   2.249 -1.4805  2.7828 -0.1609
 2766TIP3   OH2 8261   0.947   2.985   1.603 -0.5463  0.1571 -0.0829
 2766TIP3    H1 8262   0.955   3.047   1.531  0.7149 -0.7393 -0.7563
 2766TIP3    H2 8263   1.028   2.934   1.600 -0.8558 -0.4871  1.4270
 2767TIP3   OH2 8264   6.495   0.115   1.875  0.0553 -0.2745  0.1111
 2767TIP3    H1 8265   6.476   0.186   1.812  0.1245 -0.0933  0.2944
 2767TIP3    H2 8266   6.468   0.151   1.960  1.0013 -0.1032  0.3479
 2768TIP3   OH2 8267   0.472   5.550   0.868  0.0202  0.1513  0.7478
 2768TIP3    H1 8268   0.435   5.480   0.921  1.3646  0.1599  1.7541
 2768TIP3    H2 8269   0.485   5.511   0.782  0.4090 -0.7347  1.1964
 2769TIP3   OH2 8270   5.195   3.779   4.648  0.0442  0.0325  0.8957
 2769TIP3    H1 8271   5.179   3.690   4.616  0.9822  0.4114 -0.7075
 2769TIP3    H2 8272   5.288   3.793   4.634 -0.2386  1.5379  0.4177
 2770TIP3   OH2 8273   4.008   6.361   0.431  0.5725  0.2362 -0.5332
 2770TIP3    H1 8274   3.988   6.351   0.338  0.3638  1.4670 -0.6496
 2770TIP3    H2 8275   4.005   6.456   0.445 -0.9870  0.0045  1.0775
 2771TIP3   OH2 8276   4.931   6.042   1.708  0.0896 -0.4104  0.2355
 2771TIP3    H1 8277   4.921   6.136   1.721  2.4737 -0.0385 -0.1373
 2771TIP3    H2 8278   4.948   6.033   1.614  1.0260 -1.0583  0.4539
 2772TIP3   OH2 8279   5.238   5.825   1.656 -0.1135 -0.2561  0.4225
 2772TIP3    H1 8280   5.309   5.855   1.712 -0.4390 -1.0372  1.2804
 2772TIP3    H2 8281   5.253   5.870   1.572  1.4725 -0.5291  0.5234
 2773TIP3   OH2 8282   4.386   0.826   2.397 -0.1723  0.0976 -0.8040
 2773TIP3    H1 8283   4.368   0.806   2.305 -1.5663  0.9742 -0.7500
 2773TIP3    H2 8284   4.409   0.742   2.436  0.3399 -0.3077 -1.9229
 2774TIP3   OH2 8285   3.836   5.550   1.629 -0.0947 -0.0095 -0.4507
 2774TIP3    H1 8286   3.875   5.637   1.632 -0.7826  0.2816  0.4582
 2774TIP3    H2 8287   3.742   5.565   1.645 -0.0508 -0.9970  0.9478
 2775TIP3   OH2 8288   0.787   2.294   3.046  0.0764  0.3797 -0.2772
 2775TIP3    H1 8289   0.853   2.334   2.990  0.3178  1.9453  1.0361
 2775TIP3    H2 8290   0.759   2.365   3.105 -0.2813 -1.1135  1.4646
 2776TIP3   OH2 8291   4.687   4.706   2.785 -0.3291 -0.6056 -0.0335
 2776TIP3    H1 8292   4.607   4.742   2.746 -0.5387 -1.2796 -0.2329
 2776TIP3    H2 8293   4.747   4.780   2.788 -2.3221  1.1966  4.1425
 2777TIP3   OH2 8294   4.217   1.791   5.560 -0.5794  0.2249  0.0788
 2777TIP3    H1 8295   4.308   1.775   5.585 -0.5903 -0.3646 -0.2417
 2777TIP3    H2 8296   4.223   1.859   5.492 -0.2343 -0.9373 -1.1028
 2778TIP3   OH2 8297   5.071   6.790   2.657 -0.5318  0.4832  0.3229
 2778TIP3    H1 8298   5.068   6.748   2.571 -2.3297  0.3074  0.4364
 2778TIP3    H2 8299   5.124   6.731   2.711 -0.7599 -0.2531 -0.2428
 2779TIP3   OH2 8300   0.370   3.619   5.288  0.4794  0.0693 -0.1462
 2779TIP3    H1 8301   0.357   3.685   5.220  1.1165 -0.8512 -1.2048
 2779TIP3    H2 8302   0.289   3.619   5.338 -0.4609  0.0109 -1.6166
 2780TIP3   OH2 8303   1.056   4.049   2.757 -0.4841  0.1337 -0.2925
 2780TIP3    H1 8304   1.071   3.964   2.716  0.6436 -0.3393  1.0187
 2780TIP3    H2 8305   0.995   4.094   2.698 -0.9587 -1.4978 -1.1111
 2781TIP3   OH2 8306   4.291   0.950   1.673 -0.0162 -0.0915  0.0872
 2781TIP3    H1 8307   4.346   0.975   1.599 -0.6390  0.2927 -0.2556
 2781TIP3    H2 8308   4.213   0.911   1.633 -0.9651  1.3336  0.4758
 2782TIP3   OH2 8309   1.924   1.003   5.844 -0.5407  0.5858  0.3308
 2782TIP3    H1 8310   1.894   0.975   5.757  0.4652  1.1906 -0.2311
 2782TIP3    H2 8311   2.014   1.032   5.830 -0.0513 -0.1353  1.7538
 2783TIP3   OH2 8312   3.967   6.138   1.071  0.1461 -0.2065  0.0301
 2783TIP3    H1 8313   3.950   6.159   1.163 -0.5408  3.0074 -0.7009
 2783TIP3    H2 8314   3.882   6.111   1.037  0.2875 -0.8567  0.1647
 2784TIP3   OH2 8315   6.619   1.791   1.508  0.0948 -0.3968 -0.5502
 2784TIP3    H1 8316   6.662   1.758   1.587 -0.9282 -2.2611 -0.7172
 2784TIP3    H2 8317   6.683   1.778   1.438  0.1803 -0.8532 -0.3901
 2785TIP3   OH2 8318   6.230   1.389   0.289  0.3920  0.6183  0.4550
 2785TIP3    H1 8319   6.148   1.342   0.276  0.8107  0.5666 -2.8080
 2785TIP3    H2 8320   6.211   1.479   0.262  1.1646  0.8587  0.6807
 2786TIP3   OH2 8321   3.705   5.905   1.629 -0.4785 -0.6276 -0.1434
 2786TIP3    H1 8322   3.752   5.875   1.552  0.1952  1.2655 -0.4987
 2786TIP3    H2 8323   3.704   6.000   1.622  0.7524 -0.2804  2.8309
 2787TIP3   OH2 8324   6.507   0.921   4.716 -0.2005 -0.1893 -0.4214
 2787TIP3    H1 8325   6.457   0.926   4.635 -0.7951  0.3075 -0.0282
 2787TIP3    H2 8326   6.495   1.007   4.757  3.3225  1.1226 -1.6921
 2788TIP3   OH2 8327   2.759   2.816   0.635 -0.3202  0.4146 -0.1391
 2788TIP3    H1 8328   2.720   2.899   0.609 -0.3937  0.4164 -0.0257
 2788TIP3    H2 8329   2.829   2.841   0.695  0.4667  0.4668 -1.0654
 2789TIP3   OH2 8330   4.240   6.018   1.250 -0.3869 -0.6985  0.5767
 2789TIP3    H1 8331   4.160   6.062   1.277 -1.5883 -2.6028  0.2628
 2789TIP3    H2 8332   4.219   5.980   1.165  0.6703 -1.6855  0.7301
 2790TIP3   OH2 8333   0.835   3.556   5.837  0.4041  0.4264  0.1688
 2790TIP3    H1 8334   0.914   3.516   5.801  0.7827  2.0109 -0.9081
 2790TIP3    H2 8335   0.861   3.646   5.856 -0.6021  0.4199  1.7506
 2791TIP3   OH2 8336   5.946   1.589   1.229 -0.4318  0.5357  0.2732
 2791TIP3    H1 8337   6.025   1.644   1.222  0.9380 -1.5055 -1.7189
 2791TIP3    H2 8338   5.966   1.527   1.298 -0.0119 -0.3195 -0.5891
 2792TIP3   OH2 8339   5.729   1.187   1.470 -0.0479 -0.0148 -0.3660
 2792TIP3    H1 8340   5.733   1.224   1.558 -0.2707 -0.1893 -0.2806
 2792TIP3    H2 8341   5.695   1.258   1.416  0.9649  0.3896 -0.4810
 2793TIP3   OH2 8342   0.272   5.831   0.709 -0.1883  0.0557  0.4879
 2793TIP3    H1 8343   0.359   5.832   0.669 -0.4602 -0.0830 -0.1092
 2793TIP3    H2 8344   0.234   5.747   0.683 -0.3042 -0.1110  1.1828
 2794TIP3   OH2 8345   4.357   2.673   0.304  0.4052 -0.5067 -0.0791
 2794TIP3    H1 8346   4.312   2.664   0.220  1.1421 -0.6568 -0.4695
 2794TIP3    H2 8347   4.291   2.649   0.369 -0.9291  1.9005 -0.4219
 2795TIP3   OH2 8348   0.154   1.346   2.553  0.7220  0.2952 -0.0236
 2795TIP3    H1 8349   0.179   1.360   2.644  0.6712 -0.6017  0.1370
 2795TIP3    H2 8350   0.138   1.252   2.546  0.5322  0.3778 -0.9117
 2796TIP3   OH2 8351   4.836   3.189   1.871 -0.5636 -0.5070 -0.0585
 2796TIP3    H1 8352   4.792   3.228   1.796 -0.9222 -1.2281 -0.2181
 2796TIP3    H2 8353   4.883   3.114   1.836 -0.9580 -1.0150  0.4803
 2797TIP3   OH2 8354   0.094   1.412   3.547 -0.9449  0.2515 -0.0455
 2797TIP3    H1 8355   0.044   1.494   3.546 -1.8359 -0.2811  0.4609
 2797TIP3    H2 8356   0.157   1.423   3.618 -0.2949  0.9377 -0.7077
 2798TIP3   OH2 8357   3.130   3.739   3.329  0.1173 -0.3126 -0.4331
 2798TIP3    H1 8358   3.050   3.705   3.290 -1.4571  0.8612  1.5377
 2798TIP3    H2 8359   3.127   3.707   3.420  2.5562 -1.2628 -0.6201
 2799TIP3   OH2 8360   7.071   2.609   5.363 -0.1896 -0.1437  0.1988
 2799TIP3    H1 8361   7.111   2.682   5.315  1.3738 -0.6562  0.6384
 2799TIP3    H2 8362   7.005   2.650   5.418 -0.5577  0.7089 -0.8438
 2800TIP3   OH2 8363   4.131   4.684   4.466  0.5750  0.0903 -0.1903
 2800TIP3    H1 8364   4.183   4.743   4.521 -1.5625  2.5057 -0.5528
 2800TIP3    H2 8365   4.155   4.707   4.377  0.6258 -0.4949 -0.3302
 2801TIP3   OH2 8366   0.490   1.199   1.719 -0.5971 -0.4554 -0.0187
 2801TIP3    H1 8367   0.465   1.215   1.810 -1.0312  1.2100 -0.4132
 2801TIP3    H2 8368   0.446   1.117   1.697 -1.7551 -0.0751  0.7959
 2802TIP3   OH2 8369   4.101   1.086   3.644 -0.4752 -0.0269  0.8837
 2802TIP3    H1 8370   4.109   1.181   3.643 -1.2319  0.0461 -0.2188
 2802TIP3    H2 8371   4.071   1.065   3.732  0.3366  0.6881  1.3414
 2803TIP3   OH2 8372   4.956   5.265   4.784 -0.4321  0.9407 -0.2033
 2803TIP3    H1 8373   4.883   5.205   4.768 -0.7871  1.3204 -0.0344
 2803TIP3    H2 8374   4.985   5.291   4.696  0.4418 -0.3163 -0.3111
 2804TIP3   OH2 8375   5.264   4.163   3.954  0.2536 -0.0007  0.5212
 2804TIP3    H1 8376   5.215   4.242   3.933  0.0670 -0.2890 -0.1522
 2804TIP3    H2 8377   5.201   4.092   3.944  0.7007 -0.3391  0.0146
 2805TIP3   OH2 8378   6.870   0.070   0.723 -0.4308  0.3184  0.1594
 2805TIP3    H1 8379   6.822   0.153   0.728 -1.9281 -0.5372  0.9282
 2805TIP3    H2 8380   6.961   0.095   0.710 -1.1983  2.0174 -2.7965
 2806TIP3   OH2 8381   4.962   4.238   3.609 -0.3313  0.3190 -0.0344
 2806TIP3    H1 8382   5.006   4.169   3.561  1.0060  0.3063  1.1496
 2806TIP3    H2 8383   4.876   4.201   3.630 -0.5551 -0.0420 -1.4824
 2807TIP3   OH2 8384   2.361   4.472   2.060 -0.3648  0.2593  0.3564
 2807TIP3    H1 8385   2.378   4.561   2.090  2.1618 -0.2717  0.7443
 2807TIP3    H2 8386   2.371   4.476   1.965 -2.1374  0.7110  0.1549
 2808TIP3   OH2 8387   4.949   6.570   0.738  0.1421 -0.0731  0.1206
 2808TIP3    H1 8388   4.953   6.476   0.718  2.2131 -0.0259  0.0944
 2808TIP3    H2 8389   4.967   6.613   0.654  0.3044  0.3179  0.3555
 2809TIP3   OH2 8390   1.974   2.780   5.501  0.3060  0.0157 -0.4769
 2809TIP3    H1 8391   1.892   2.734   5.486 -1.6613  3.5114 -1.5480
 2809TIP3    H2 8392   2.013   2.789   5.413  1.8831 -1.5687  0.0110
 2810TIP3   OH2 8393   0.994   2.036   4.638 -0.1843  0.0560 -0.5282
 2810TIP3    H1 8394   0.951   2.082   4.567 -0.5955 -0.4177 -0.5983
 2810TIP3    H2 8395   1.075   2.084   4.654 -0.8449  1.1110 -0.2359
 2811TIP3   OH2 8396   4.510   0.073   1.473  0.1000 -0.1419 -0.1891
 2811TIP3    H1 8397   4.443   0.124   1.427 -0.7303 -0.4947  0.5934
 2811TIP3    H2 8398   4.566   0.138   1.515 -0.3276  0.1520 -0.0704
 2812TIP3   OH2 8399   1.900   3.400   1.720  0.1426  0.3666 -0.1672
 2812TIP3    H1 8400   1.914   3.492   1.698 -0.4909  0.0697 -1.9492
 2812TIP3    H2 8401   1.827   3.402   1.782 -0.0036  1.0523 -0.3492
 2813TIP3   OH2 8402   6.410   3.905   2.013  0.4649 -0.3784 -0.1751
 2813TIP3    H1 8403   6.488   3.909   1.958 -1.6435  0.4824 -3.3531
 2813TIP3    H2 8404   6.409   3.816   2.047  2.6084 -0.4953 -0.2854
 2814TIP3   OH2 8405   2.577   4.934   1.412  0.3042 -0.1218 -0.1559
 2814TIP3    H1 8406   2.527   5.006   1.450  0.4685 -0.4617  0.7500
 2814TIP3    H2 8407   2.574   4.949   1.318 -2.4370 -0.7016 -0.2488
 2815TIP3   OH2 8408   4.272   2.465   5.714 -0.1925 -0.5717 -0.0895
 2815TIP3    H1 8409   4.283   2.372   5.736  0.1033  0.0555  2.7652
 2815TIP3    H2 8410   4.361   2.500   5.714 -0.3617 -0.1399 -0.4357
 2816TIP3   OH2 8411   3.685   3.410   3.638 -0.1520  0.1732  0.4516
 2816TIP3    H1 8412   3.772   3.370   3.646  0.6874  1.1280 -2.5071
 2816TIP3    H2 8413   3.658   3.427   3.728  3.1497  0.6741  1.4914
 2817TIP3   OH2 8414   4.586   5.408   0.290 -0.2784 -0.3241  0.7881
 2817TIP3    H1 8415   4.658   5.436   0.346 -0.8813  1.6383  0.6520
 2817TIP3    H2 8416   4.622   5.336   0.239  1.4559  0.3364  1.0196
 2818TIP3   OH2 8417   3.931   0.990   0.652  0.3672 -0.0277  0.2934
 2818TIP3    H1 8418   3.927   0.901   0.687 -0.1395 -0.5796 -1.1309
 2818TIP3    H2 8419   3.842   1.009   0.624  0.6754  0.5796 -0.3023
 2819TIP3   OH2 8420   0.899   4.944   2.929 -0.5938  0.2927 -0.0166
 2819TIP3    H1 8421   0.937   4.896   2.856 -1.5238  0.3009 -0.5208
 2819TIP3    H2 8422   0.965   4.938   2.998 -0.4453 -1.2548 -0.2478
 2820TIP3   OH2 8423   1.478   6.430   0.186  0.0669  0.8109 -0.3595
 2820TIP3    H1 8424   1.390   6.421   0.222 -0.4320 -0.6766 -1.8627
 2820TIP3    H2 8425   1.535   6.393   0.253 -0.6942 -0.4360 -0.3648
 2821TIP3   OH2 8426   5.963   5.665   3.065  0.3370 -0.2218 -0.2575
 2821TIP3    H1 8427   5.959   5.753   3.027 -0.0237 -1.1967 -2.6029
 2821TIP3    H2 8428   6.037   5.669   3.126  0.6516  1.5471 -0.7054
 2822TIP3   OH2 8429   5.042   4.200   1.025 -0.1300 -0.6950 -0.2988
 2822TIP3    H1 8430   5.029   4.223   0.933 -0.3836  2.8141  0.4789
 2822TIP3    H2 8431   4.957   4.213   1.066  0.3264 -0.6944  0.6950
 2823TIP3   OH2 8432   2.516   2.573   1.606 -0.2916 -0.0063  0.2446
 2823TIP3    H1 8433   2.425   2.587   1.633 -0.2644  0.1677  0.2517
 2823TIP3    H2 8434   2.521   2.611   1.518 -0.0311  0.7059  0.5547
 2824TIP3   OH2 8435   0.823   5.262   2.862  0.0167 -0.1155  0.2612
 2824TIP3    H1 8436   0.769   5.186   2.838  0.5131 -1.0277  1.8779
 2824TIP3    H2 8437   0.912   5.227   2.867  0.7235  1.2207 -1.6901
 2825TIP3   OH2 8438   5.930   2.830   0.643  0.9478 -0.8801  0.1153
 2825TIP3    H1 8439   5.960   2.782   0.720  0.8870 -0.2812  0.5159
 2825TIP3    H2 8440   5.867   2.772   0.601  1.8403 -1.7072 -0.1352
 2826TIP3   OH2 8441   6.652   3.902   0.865 -0.6377  0.4273  0.0374
 2826TIP3    H1 8442   6.642   3.954   0.945  1.4160  1.1524 -0.1197
 2826TIP3    H2 8443   6.590   3.941   0.803 -1.0840  0.8967  0.7573
 2827TIP3   OH2 8444   3.383   6.088   5.014 -0.5745  0.0885  0.4789
 2827TIP3    H1 8445   3.306   6.034   4.995  0.1341 -1.2905  1.3442
 2827TIP3    H2 8446   3.348   6.165   5.057 -1.4935 -0.4704  0.7618
 2828TIP3   OH2 8447   0.752   1.660   5.282 -0.0900 -0.0997  0.1478
 2828TIP3    H1 8448   0.778   1.714   5.356 -1.4310 -1.1772  1.4704
 2828TIP3    H2 8449   0.686   1.713   5.236  0.1370  0.2302  0.1958
 2829TIP3   OH2 8450   4.943   3.068   3.328  0.1295  0.1812 -0.4679
 2829TIP3    H1 8451   4.918   2.985   3.288  3.5527 -1.1561 -0.2025
 2829TIP3    H2 8452   4.963   3.126   3.254  1.3724 -0.5510 -0.7405
 2830TIP3   OH2 8453   2.891   6.471   5.252  0.2478  0.5145  0.6279
 2830TIP3    H1 8454   2.913   6.407   5.185 -0.9986  2.0942 -1.4256
 2830TIP3    H2 8455   2.916   6.430   5.334  0.9588 -1.9111 -0.7133
 2831TIP3   OH2 8456   4.481   0.869   0.702  0.2175  0.3186  0.7646
 2831TIP3    H1 8457   4.448   0.799   0.647 -1.2948  1.3212  0.3213
 2831TIP3    H2 8458   4.576   0.864   0.694  0.0847 -0.7356 -0.4245
 2832TIP3   OH2 8459   1.078   0.197   0.883  0.2400 -0.4131  0.2133
 2832TIP3    H1 8460   1.053   0.105   0.892 -1.4249  0.0868  1.2979
 2832TIP3    H2 8461   1.001   0.238   0.842  1.1389  0.4298 -0.6777
 2833TIP3   OH2 8462   5.407   4.482   5.788  0.3471 -0.0476 -0.2192
 2833TIP3    H1 8463   5.373   4.526   5.710  0.2301  0.8826  0.3529
 2833TIP3    H2 8464   5.500   4.470   5.770  0.7551  2.0120  0.3208
 2834TIP3   OH2 8465   4.371   4.783   5.206  0.4918 -0.3206  0.5625
 2834TIP3    H1 8466   4.328   4.750   5.128  1.2485 -0.3911  0.1619
 2834TIP3    H2 8467   4.448   4.727   5.217  0.8927  0.2650  0.8255
 2835TIP3   OH2 8468   6.445   4.030   4.332 -0.2782  0.0701 -0.7536
 2835TIP3    H1 8469   6.451   3.944   4.291 -1.5121  0.5546 -2.0289
 2835TIP3    H2 8470   6.353   4.055   4.323  0.2566  1.9794 -1.4212
 2836TIP3   OH2 8471   3.452   2.368   0.917  0.5638  0.7401 -0.4740
 2836TIP3    H1 8472   3.512   2.307   0.874  0.2879  1.2274 -1.5952
 2836TIP3    H2 8473   3.455   2.446   0.862 -1.8807  0.4134 -1.1580
 2837TIP3   OH2 8474   0.335   5.815   3.519  0.0106  0.3443 -0.1438
 2837TIP3    H1 8475   0.365   5.725   3.536 -1.3254 -0.4140 -1.5201
 2837TIP3    H2 8476   0.256   5.804   3.467 -1.2705  2.2985  1.2538
 2838TIP3   OH2 8477   7.077   3.937   4.530 -0.2559 -0.3220  0.3718
 2838TIP3    H1 8478   7.066   3.875   4.458  0.8880  1.7886 -1.7773
 2838TIP3    H2 8479   7.098   4.020   4.487  2.3074  0.6794  3.2167
 2839TIP3   OH2 8480   4.087   3.534   4.768  0.3606  0.6369 -0.3175
 2839TIP3    H1 8481   4.179   3.556   4.786  0.5782 -1.0547  0.9255
 2839TIP3    H2 8482   4.089   3.491   4.683  0.6393  1.0079 -0.5053
 2840TIP3   OH2 8483   4.555   2.676   3.911  0.0817  0.5839 -0.3145
 2840TIP3    H1 8484   4.589   2.764   3.925 -0.1724  0.6478 -0.1087
 2840TIP3    H2 8485   4.599   2.622   3.978  1.5670  0.2106 -1.5196
 2841TIP3   OH2 8486   7.118   6.173   2.551 -0.0534  0.0850 -0.0108
 2841TIP3    H1 8487   7.208   6.147   2.534  0.0473  1.1033 -1.1724
 2841TIP3    H2 8488   7.114   6.187   2.645  1.1411  0.5019 -0.0099
 2842TIP3   OH2 8489   2.372   1.700   3.407  0.3745  0.1654 -0.1339
 2842TIP3    H1 8490   2.350   1.699   3.314 -0.0074 -0.2087 -0.0427
 2842TIP3    H2 8491   2.436   1.630   3.418 -0.2689 -0.4091  0.0422
 2843TIP3   OH2 8492   0.598   5.822   0.874  0.2730  0.0209  0.1338
 2843TIP3    H1 8493   0.557   5.736   0.879 -0.3083  0.2585 -0.4587
 2843TIP3    H2 8494   0.594   5.846   0.781  0.7608  0.5267  0.2346
 2844TIP3   OH2 8495   4.819   4.924   2.424 -0.0516 -0.2592 -0.3176
 2844TIP3    H1 8496   4.808   4.842   2.377 -0.9288  0.2889 -1.1023
 2844TIP3    H2 8497   4.736   4.971   2.410  1.0034  1.4176 -1.2069
 2845TIP3   OH2 8498   3.286   0.199   2.671  0.4684  0.3380 -0.2853
 2845TIP3    H1 8499   3.303   0.116   2.715  0.6772 -0.7477 -2.2876
 2845TIP3    H2 8500   3.221   0.177   2.603 -1.1643  2.2757  0.5353
 2846TIP3   OH2 8501   2.476   6.117   3.660 -0.2680  0.3715  0.3348
 2846TIP3    H1 8502   2.388   6.102   3.695  0.4995 -1.6866  1.5864
 2846TIP3    H2 8503   2.532   6.124   3.738  1.0279 -1.1151 -0.3987
 2847TIP3   OH2 8504   3.948   1.618   2.478  0.4230  0.2236  0.1913
 2847TIP3    H1 8505   3.955   1.539   2.532 -2.9189 -0.1478  0.2795
 2847TIP3    H2 8506   3.914   1.684   2.538  2.6293  1.6338 -0.0282
 2848TIP3   OH2 8507   1.910   4.259   3.030  0.2915  0.1891 -0.8796
 2848TIP3    H1 8508   1.984   4.202   3.054 -0.0213 -0.4342 -1.3683
 2848TIP3    H2 8509   1.834   4.202   3.036 -0.1724  0.8581 -0.2703
 2849TIP3   OH2 8510   1.690   4.925   0.583  0.1835  0.6701 -0.6297
 2849TIP3    H1 8511   1.711   5.018   0.585 -1.1392  1.0168 -1.5479
 2849TIP3    H2 8512   1.669   4.903   0.674  0.5785  1.2412 -0.3958
 2850TIP3   OH2 8513   1.973   5.333   0.239 -0.3318  0.4742  0.7331
 2850TIP3    H1 8514   2.041   5.359   0.177 -0.3972  2.3464  1.3608
 2850TIP3    H2 8515   2.015   5.268   0.295  0.6568  0.9245  0.5420
 2851TIP3   OH2 8516   0.618   2.678   2.058 -0.8255  0.6118  0.1739
 2851TIP3    H1 8517   0.615   2.637   1.971 -0.3428 -0.3899  0.6067
 2851TIP3    H2 8518   0.592   2.608   2.118  1.7951  0.3239  1.1176
 2852TIP3   OH2 8519   0.003   6.076   1.557  0.0128  0.0563 -0.2759
 2852TIP3    H1 8520  -0.042   6.124   1.487  2.2590  0.6706 -1.3996
 2852TIP3    H2 8521   0.071   6.027   1.512  0.0218 -1.4265  1.2649
 2853TIP3   OH2 8522   5.912   4.995   3.317 -0.3145 -0.0098  0.2136
 2853TIP3    H1 8523   5.823   4.960   3.315  0.7594 -3.1145 -2.7360
 2853TIP3    H2 8524   5.916   5.056   3.244 -0.1538  0.6262  0.7417
 2854TIP3   OH2 8525   6.151   3.845   0.019  0.2403  0.4171  0.5967
 2854TIP3    H1 8526   6.082   3.899   0.058 -1.1166 -1.7022  1.2983
 2854TIP3    H2 8527   6.142   3.859  -0.075 -0.7671  0.6310  0.7146
 2855TIP3   OH2 8528   6.978   4.687   0.770 -0.5810  0.4321  0.2883
 2855TIP3    H1 8529   6.927   4.611   0.799  2.1474 -1.2041  1.0959
 2855TIP3    H2 8530   6.926   4.725   0.699 -2.2553 -1.8873  0.1602
 2856TIP3   OH2 8531   0.310   5.759   2.741  0.6953 -0.4445  0.5656
 2856TIP3    H1 8532   0.364   5.800   2.674 -0.3200 -1.2312 -0.7871
 2856TIP3    H2 8533   0.371   5.706   2.793  1.2095 -1.5965 -1.1444
 2857TIP3   OH2 8534   6.534   5.107   2.354 -0.4250 -0.2246 -0.0719
 2857TIP3    H1 8535   6.560   5.055   2.279 -0.9341  0.0103 -0.4183
 2857TIP3    H2 8536   6.438   5.112   2.348 -0.3991  0.6067  0.0446
 2858TIP3   OH2 8537   6.704   5.299   3.585 -0.7193 -0.3301 -0.2052
 2858TIP3    H1 8538   6.719   5.340   3.500  2.6826 -1.2736 -0.2415
 2858TIP3    H2 8539   6.658   5.218   3.564 -1.6729  0.3577 -0.8761
 2859TIP3   OH2 8540   3.496   0.857   5.492  0.0143 -0.4141  0.3258
 2859TIP3    H1 8541   3.525   0.848   5.401 -4.0112  1.3135 -1.4046
 2859TIP3    H2 8542   3.498   0.951   5.508 -1.8879 -0.4427  0.9557
 2860TIP3   OH2 8543   0.008   6.614   2.649 -0.0491 -0.0912  0.2108
 2860TIP3    H1 8544   0.046   6.577   2.569 -0.2746 -0.9887  0.5139
 2860TIP3    H2 8545  -0.044   6.688   2.618  1.4840  0.8484 -0.2670
 2861TIP3   OH2 8546   1.603   0.603   1.849 -0.4464 -0.4025 -0.1500
 2861TIP3    H1 8547   1.648   0.623   1.931  0.2261 -0.7655 -0.4229
 2861TIP3    H2 8548   1.573   0.688   1.815 -1.7994 -0.3546  1.0586
 2862TIP3   OH2 8549   0.604   2.568   5.638  0.4499 -0.1527  0.0234
 2862TIP3    H1 8550   0.662   2.643   5.621  0.0480 -0.0610 -0.9706
 2862TIP3    H2 8551   0.517   2.600   5.616  0.1370 -0.5858  0.6262
 2863TIP3   OH2 8552   1.180   0.776   2.952  0.4003  0.6543 -0.7321
 2863TIP3    H1 8553   1.108   0.713   2.943 -0.8281  1.5321  1.9252
 2863TIP3    H2 8554   1.141   0.860   2.928  0.0954  1.3156  1.7875
 2864TIP3   OH2 8555   1.142   2.588   2.519  0.3432 -0.1309  0.4692
 2864TIP3    H1 8556   1.096   2.511   2.485  0.0538 -0.2072  1.0367
 2864TIP3    H2 8557   1.151   2.645   2.443 -2.2876  0.6818  0.6950
 2865TIP3   OH2 8558   3.277   0.818   0.399  0.1244  0.2230 -0.3951
 2865TIP3    H1 8559   3.350   0.875   0.374 -1.5375  2.7900  0.1501
 2865TIP3    H2 8560   3.238   0.791   0.316  1.6435 -1.2346 -0.6954
 2866TIP3   OH2 8561   0.776   6.333   2.769  0.0280 -0.0251  0.6320
 2866TIP3    H1 8562   0.816   6.316   2.854 -2.2240 -0.0287  1.7587
 2866TIP3    H2 8563   0.733   6.418   2.779  0.9855  0.7190 -1.0336
 2867TIP3   OH2 8564   3.270   3.112   1.585  0.1590 -0.2889  0.4166
 2867TIP3    H1 8565   3.252   3.043   1.521 -0.2479  0.2213 -0.0252
 2867TIP3    H2 8566   3.336   3.074   1.643  0.6118 -0.7208 -0.3713
 2868TIP3   OH2 8567   5.898   2.218   3.663  0.3648 -0.1356 -0.4120
 2868TIP3    H1 8568   5.867   2.222   3.573 -1.0463  1.9113  0.0837
 2868TIP3    H2 8569   5.843   2.152   3.705  1.0984 -1.1686 -1.0531
 2869TIP3   OH2 8570   2.102   4.448   4.187 -0.7274  0.3968 -0.7460
 2869TIP3    H1 8571   2.091   4.385   4.116 -0.6438 -0.7286  0.1952
 2869TIP3    H2 8572   2.196   4.465   4.190 -0.4884 -0.8492  0.1057
 2870TIP3   OH2 8573   6.711   2.929   4.623  0.1797  0.1765 -0.5035
 2870TIP3    H1 8574   6.790   2.877   4.639  0.9149  1.0439 -1.2304
 2870TIP3    H2 8575   6.640   2.865   4.622  0.5576 -0.4166  2.2244
 2871TIP3   OH2 8576   5.842   3.217   4.943  0.1189 -0.0097  0.1026
 2871TIP3    H1 8577   5.827   3.186   4.855 -0.9039  0.0413  0.2512
 2871TIP3    H2 8578   5.895   3.149   4.985  1.8017  0.5823 -0.9324
 2872TIP3   OH2 8579   5.637   5.153   4.644 -0.0130  0.6192  0.1515
 2872TIP3    H1 8580   5.665   5.090   4.577 -0.2826  0.3198  0.3200
 2872TIP3    H2 8581   5.635   5.237   4.598 -2.3084  0.1068 -0.8224
 2873TIP3   OH2 8582   5.267   5.284   4.459 -0.0726 -0.3292 -0.2765
 2873TIP3    H1 8583   5.297   5.366   4.499 -1.3901  0.5468 -1.0265
 2873TIP3    H2 8584   5.244   5.308   4.369 -0.8361 -1.4495 -0.3929
 2874TIP3   OH2 8585   2.891   6.623   2.900  0.3408  0.2665 -0.0009
 2874TIP3    H1 8586   2.836   6.600   2.974  1.6507  0.7142  1.1620
 2874TIP3    H2 8587   2.859   6.569   2.828 -1.8964  0.8528  0.4794
 2875TIP3   OH2 8588   5.436   3.595   5.757  0.2822  0.4342  0.5156
 2875TIP3    H1 8589   5.361   3.608   5.815 -0.2191  1.7693 -0.3797
 2875TIP3    H2 8590   5.464   3.506   5.774 -1.8079 -0.2783  0.5611
 2876TIP3   OH2 8591   2.145   5.094   0.133  0.5819  0.1622  0.2484
 2876TIP3    H1 8592   2.062   5.053   0.159  0.0539  1.3031  0.4630
 2876TIP3    H2 8593   2.130   5.123   0.043  0.9120 -0.0413  0.1286
 2877TIP3   OH2 8594   6.131   4.160   5.821 -0.0701 -0.3116  0.3941
 2877TIP3    H1 8595   6.082   4.090   5.863 -0.9128  0.7729  1.2776
 2877TIP3    H2 8596   6.219   4.154   5.860 -0.3421 -0.4254  1.0069
 2878TIP3   OH2 8597   5.906   5.131   4.139  0.2732  0.4494 -0.4418
 2878TIP3    H1 8598   5.948   5.053   4.103 -0.0405  0.0679 -0.0061
 2878TIP3    H2 8599   5.941   5.204   4.088 -0.4035 -0.1001 -1.7225
 2879TIP3   OH2 8600   1.685   2.988   0.512 -0.0048 -0.5672  0.4032
 2879TIP3    H1 8601   1.741   3.065   0.521  0.3718 -0.8933  0.8551
 2879TIP3    H2 8602   1.692   2.942   0.596 -2.4899  0.4002  1.2539
 2880TIP3   OH2 8603   1.881   0.086   2.891 -0.2831  0.0285 -0.2457
 2880TIP3    H1 8604   1.934   0.018   2.850 -1.3605  0.1170 -1.9058
 2880TIP3    H2 8605   1.920   0.168   2.861 -1.5520  0.0956 -1.8618
 2881TIP3   OH2 8606   0.110   1.336   4.805  0.4989 -0.2856 -0.0866
 2881TIP3    H1 8607   0.090   1.250   4.767  0.2627 -0.4924  0.4843
 2881TIP3    H2 8608   0.108   1.321   4.900 -0.6447  0.5889  0.0510
 2882TIP3   OH2 8609   3.782   5.800   4.590  0.0495 -0.0253  0.0611
 2882TIP3    H1 8610   3.762   5.893   4.594  0.8728  0.1700 -0.1982
 2882TIP3    H2 8611   3.764   5.775   4.499 -2.2042 -0.6106  0.6239
 2883TIP3   OH2 8612   0.408   3.022   1.123  0.0468  0.0449  0.2746
 2883TIP3    H1 8613   0.365   2.984   1.200  0.8220 -0.4094  0.4977
 2883TIP3    H2 8614   0.423   3.113   1.147 -0.7419  0.1957  0.2105
 2884TIP3   OH2 8615   0.225   4.072   5.252 -0.0966 -0.6828 -0.5070
 2884TIP3    H1 8616   0.247   3.987   5.215 -0.9075 -1.1859  0.1122
 2884TIP3    H2 8617   0.157   4.107   5.195 -1.2982 -1.4281  0.4176
 2885TIP3   OH2 8618   0.907   1.667   2.864 -0.3311  0.3945 -0.0376
 2885TIP3    H1 8619   0.830   1.721   2.882  1.2825  2.4422  1.1125
 2885TIP3    H2 8620   0.917   1.612   2.941  1.1648  2.4805  1.3576
 2886TIP3   OH2 8621   4.507   5.722   5.608 -0.0180  0.3480 -0.2627
 2886TIP3    H1 8622   4.438   5.728   5.542  0.9135  1.6703 -1.1524
 2886TIP3    H2 8623   4.553   5.641   5.586 -1.4624 -0.7836  0.5930
 2887TIP3   OH2 8624   3.393   4.540   5.317  0.0032 -0.4403 -0.4466
 2887TIP3    H1 8625   3.414   4.631   5.340 -0.2690 -0.8750  1.6883
 2887TIP3    H2 8626   3.478   4.500   5.299  0.2354 -0.0584 -0.2296
 2888TIP3   OH2 8627   6.879   2.991   4.243 -0.5508  0.1645  1.0790
 2888TIP3    H1 8628   6.873   3.087   4.239 -0.8497  0.1019 -0.5238
 2888TIP3    H2 8629   6.971   2.972   4.225 -0.6816  0.1163  0.4554
 2889TIP3   OH2 8630   6.874   0.593   4.763  0.2658  0.4401 -0.1725
 2889TIP3    H1 8631   6.804   0.547   4.808  0.3044  1.3754  0.8975
 2889TIP3    H2 8632   6.829   0.660   4.711  0.3089  0.3344 -0.3476
 2890TIP3   OH2 8633   5.415   5.527   4.640  0.2972 -0.0441 -0.3188
 2890TIP3    H1 8634   5.490   5.479   4.608 -0.0599 -0.8400  0.0176
 2890TIP3    H2 8635   5.386   5.479   4.717 -1.8446 -1.0084 -1.6425
 2891TIP3   OH2 8636   7.085   3.578   3.426  0.1157  0.8015 -0.9603
 2891TIP3    H1 8637   7.001   3.590   3.469  0.6880  3.0088 -0.3323
 2891TIP3    H2 8638   7.127   3.507   3.474 -0.7737  0.7079 -0.3013
 2892TIP3   OH2 8639   5.090   4.398   1.235  0.4096 -0.0108  0.1247
 2892TIP3    H1 8640   5.087   4.328   1.170 -1.8514 -0.5469  0.7203
 2892TIP3    H2 8641   5.181   4.428   1.234  0.9578 -1.5505 -1.6102
 2893TIP3   OH2 8642   1.510   2.716   0.371 -0.5226 -0.5582  0.1951
 2893TIP3    H1 8643   1.502   2.673   0.456 -1.8144  1.0528  0.9322
 2893TIP3    H2 8644   1.604   2.713   0.352 -0.1475 -0.5188  1.9118
 2894TIP3   OH2 8645   0.128   0.945   2.804  0.2208 -0.2513 -0.0943
 2894TIP3    H1 8646   0.169   1.029   2.823 -0.8174  0.2330  0.0690
 2894TIP3    H2 8647   0.072   0.928   2.879 -1.2784  0.0013 -1.1120
 2895TIP3   OH2 8648   6.236   4.947   3.743 -0.1906  0.3425  0.0545
 2895TIP3    H1 8649   6.147   4.962   3.711  0.1314 -1.0574 -1.5953
 2895TIP3    H2 8650   6.288   5.017   3.704  0.4058 -1.9319 -3.6080
 2896TIP3   OH2 8651   4.811   0.361   2.242  0.9391 -0.4031  0.4029
 2896TIP3    H1 8652   4.877   0.372   2.310  1.2930 -3.9451  0.8240
 2896TIP3    H2 8653   4.859   0.322   2.168 -0.2112 -0.7348 -0.1962
 2897TIP3   OH2 8654   0.556   1.164   0.909 -0.0627  0.4545  0.3636
 2897TIP3    H1 8655   0.478   1.195   0.956  0.5698  0.8620  1.1602
 2897TIP3    H2 8656   0.604   1.244   0.886 -0.5785  0.2980 -1.4040
 2898TIP3   OH2 8657   4.679   2.868   1.854 -0.0351  0.4137 -0.6390
 2898TIP3    H1 8658   4.732   2.915   1.790  2.5937 -1.1020  0.2576
 2898TIP3    H2 8659   4.678   2.925   1.931 -1.3583  1.2671 -1.2535
 2899TIP3   OH2 8660   0.755   3.664   2.333  0.3023  0.8371 -0.0931
 2899TIP3    H1 8661   0.753   3.569   2.345  1.0542  0.9234  0.8847
 2899TIP3    H2 8662   0.663   3.689   2.325 -0.0187  0.2061  1.2910
 2900TIP3   OH2 8663   7.126   3.511   3.904 -0.5179 -0.5684 -0.3208
 2900TIP3    H1 8664   7.196   3.565   3.869  0.8528 -0.8957  1.7404
 2900TIP3    H2 8665   7.166   3.464   3.977 -2.6162 -1.6065  0.2407
 2901TIP3   OH2 8666   2.904   5.093   1.643 -0.3143  0.0477 -0.8683
 2901TIP3    H1 8667   2.937   5.126   1.726 -1.4393 -1.2706  0.1651
 2901TIP3    H2 8668   2.980   5.053   1.601  0.1048  0.0224 -0.0976
 2902TIP3   OH2 8669   7.040   0.009   2.783 -0.0104 -0.7890 -0.0911
 2902TIP3    H1 8670   7.076   0.094   2.807  0.4002 -1.0413  0.2068
 2902TIP3    H2 8671   7.064  -0.049   2.856  0.4258 -1.3504 -0.6639
 2903TIP3   OH2 8672   7.035   5.170   1.137  0.0202  0.1987 -0.1660
 2903TIP3    H1 8673   6.984   5.198   1.061  0.2134  0.1875 -0.3033
 2903TIP3    H2 8674   7.083   5.248   1.164  0.2812  0.0941 -0.3234
 2904TIP3   OH2 8675   7.135   5.781   3.290  0.4722  0.3076  0.7732
 2904TIP3    H1 8676   7.210   5.832   3.320 -0.4632  1.5130  1.1502
 2904TIP3    H2 8677   7.099   5.831   3.217  0.0063 -0.2427  0.6146
 2905TIP3   OH2 8678   0.423   0.382   2.229 -0.1500  0.0761  0.4338
 2905TIP3    H1 8679   0.395   0.351   2.315 -2.3955 -1.1279 -0.6351
 2905TIP3    H2 8680   0.357   0.447   2.205  0.1494  0.0204 -0.5802
 2906TIP3   OH2 8681   1.972   0.667   1.054 -0.2221  0.2109  0.3129
 2906TIP3    H1 8682   1.996   0.745   1.105  1.0492 -0.6859  1.1712
 2906TIP3    H2 8683   2.033   0.668   0.980  0.4860 -0.4806  0.8713
 2907TIP3   OH2 8684   1.617   1.523   3.726  0.5338  0.6604  0.2911
 2907TIP3    H1 8685   1.559   1.450   3.748 -0.0107  1.4261  1.5306
 2907TIP3    H2 8686   1.609   1.533   3.631 -1.8007  1.0666  0.4710
 2908TIP3   OH2 8687   0.286   5.479   0.385 -0.3157  0.4915  0.1789
 2908TIP3    H1 8688   0.235   5.446   0.459 -0.5451 -1.7511 -0.8962
 2908TIP3    H2 8689   0.342   5.546   0.423 -1.1672  0.1475  2.1855
 2909TIP3   OH2 8690   6.300   5.501   0.772 -0.2384  0.4568 -0.5948
 2909TIP3    H1 8691   6.362   5.519   0.843 -0.4868 -1.6550  0.2352
 2909TIP3    H2 8692   6.287   5.586   0.730  1.4621  1.3904  0.6195
 2910TIP3   OH2 8693   1.529   3.495   3.578  0.7695  0.3991 -0.8344
 2910TIP3    H1 8694   1.542   3.497   3.673  0.5416 -1.1306 -0.7523
 2910TIP3    H2 8695   1.451   3.550   3.564 -0.2654 -0.7647  0.0915
 2911TIP3   OH2 8696   1.595   1.838   0.526  0.2324 -0.2992  0.3459
 2911TIP3    H1 8697   1.546   1.920   0.518  0.5696  0.0101  1.2266
 2911TIP3    H2 8698   1.640   1.828   0.443 -0.9123 -0.3216 -0.2879
 2912TIP3   OH2 8699   0.795   6.158   5.312  0.0590  0.3155  0.4610
 2912TIP3    H1 8700   0.712   6.124   5.278 -0.1161  0.6706  0.5259
 2912TIP3    H2 8701   0.792   6.139   5.406 -0.5514  1.5202  0.7032
 2913TIP3   OH2 8702   4.080   1.289   1.705 -0.5137 -0.0345  0.0877
 2913TIP3    H1 8703   4.018   1.218   1.726  0.6681 -0.9691  0.5585
 2913TIP3    H2 8704   4.054   1.361   1.762 -0.3836 -0.8694  1.2375
 2914TIP3   OH2 8705   3.956   6.427   5.310  0.2581 -0.5703 -0.3002
 2914TIP3    H1 8706   4.027   6.458   5.254  1.7541 -1.4003  1.0600
 2914TIP3    H2 8707   3.919   6.352   5.262  0.1965 -0.0554 -1.0708
 2915TIP3   OH2 8708   2.761   1.798   3.953  0.1626  0.3492  0.3517
 2915TIP3    H1 8709   2.778   1.727   4.015  1.4521  0.1826 -0.1660
 2915TIP3    H2 8710   2.665   1.799   3.943 -0.1034  0.5044  2.4576
 2916TIP3   OH2 8711   4.268   2.862   4.216 -0.5092 -0.6758  0.0851
 2916TIP3    H1 8712   4.341   2.923   4.222 -0.5284 -0.5757 -0.5561
 2916TIP3    H2 8713   4.280   2.820   4.130 -1.9859  0.3664 -0.6667
 2917TIP3   OH2 8714   1.167   1.482   4.434  0.1546  0.3068  0.0192
 2917TIP3    H1 8715   1.125   1.403   4.398  1.2644 -0.9813  1.4084
 2917TIP3    H2 8716   1.213   1.521   4.360  0.9260 -1.2799 -0.3838
 2918TIP3   OH2 8717   1.482   1.088   5.210  0.1306  0.1705  0.1914
 2918TIP3    H1 8718   1.555   1.030   5.229  0.0170  0.5701  2.0553
 2918TIP3    H2 8719   1.522   1.174   5.198  0.2901 -0.2036 -2.4780
 2919TIP3   OH2 8720   3.897   3.425   2.497  0.1335  0.3907 -0.3166
 2919TIP3    H1 8721   3.898   3.388   2.409 -1.6102 -0.8322  0.1268
 2919TIP3    H2 8722   3.812   3.467   2.505 -0.0717 -0.2203  1.0483
 2920TIP3   OH2 8723   4.137   2.379   1.584  0.1726  0.1864  0.3096
 2920TIP3    H1 8724   4.084   2.302   1.606 -1.3534  0.4384 -2.1141
 2920TIP3    H2 8725   4.190   2.351   1.509 -1.6292  1.8575 -1.7193
 2921TIP3   OH2 8726   6.237   1.998   4.412 -0.0015  0.1430 -0.0449
 2921TIP3    H1 8727   6.144   2.019   4.419  0.1150  0.5372  0.3726
 2921TIP3    H2 8728   6.266   1.988   4.503 -0.3440 -3.2140 -0.1808
 2922TIP3   OH2 8729   2.911   0.092   3.868 -0.1353 -0.6822 -0.6337
 2922TIP3    H1 8730   2.897   0.057   3.957 -0.9626  0.6999 -0.1839
 2922TIP3    H2 8731   2.822   0.100   3.832  0.0517  0.6142 -0.8366
 2923TIP3   OH2 8732   6.011   4.321   5.454  0.7667  0.4760 -0.0006
 2923TIP3    H1 8733   5.952   4.391   5.482  0.2130  0.1677 -0.3712
 2923TIP3    H2 8734   6.022   4.335   5.360 -1.1638 -1.2327 -0.5444
 2924TIP3   OH2 8735   6.032   3.099   4.452 -0.0689 -0.1610  0.1839
 2924TIP3    H1 8736   6.076   3.177   4.487 -1.5997  1.7342 -1.9026
 2924TIP3    H2 8737   6.103   3.048   4.413  0.7442  1.1655 -0.1580
 2925TIP3   OH2 8738   1.442   3.611   2.336 -0.3281 -0.6463 -0.1063
 2925TIP3    H1 8739   1.414   3.688   2.287 -0.5000 -0.6417 -0.0027
 2925TIP3    H2 8740   1.447   3.541   2.271  1.4500 -0.1789 -0.5278
 2926TIP3   OH2 8741   2.991   2.844   4.405 -0.3677  0.0201  0.6736
 2926TIP3    H1 8742   3.064   2.834   4.344  0.3315 -0.5964  1.5842
 2926TIP3    H2 8743   3.023   2.904   4.472 -1.1071  0.6481  0.4677
 2927TIP3   OH2 8744   1.044   4.928   1.647  0.3349  0.2527 -0.3652
 2927TIP3    H1 8745   1.099   4.996   1.685 -1.1666  2.1891 -1.4691
 2927TIP3    H2 8746   0.995   4.893   1.721  0.5456  0.9547  0.1169
 2928TIP3   OH2 8747   1.314   4.041   0.462 -0.3456 -0.3238 -0.2773
 2928TIP3    H1 8748   1.323   4.131   0.430  0.3879 -0.9682 -2.0183
 2928TIP3    H2 8749   1.330   4.047   0.556 -0.0891  1.3310 -0.3984
 2929TIP3   OH2 8750   1.486   6.787   0.884  0.1999  0.2514 -0.2208
 2929TIP3    H1 8751   1.569   6.782   0.836  0.3724  1.7001 -0.1175
 2929TIP3    H2 8752   1.510   6.827   0.967 -0.4918 -0.0572  0.1314
 2930TIP3   OH2 8753   5.897   2.816   3.511 -0.3628 -0.0359  0.0745
 2930TIP3    H1 8754   5.924   2.731   3.477 -0.9037 -1.0543  2.0227
 2930TIP3    H2 8755   5.851   2.795   3.593  1.0814  2.2397  1.5575
 2931TIP3   OH2 8756   1.411   4.470   0.891 -0.5539  0.2852 -0.3894
 2931TIP3    H1 8757   1.389   4.548   0.941 -2.7879 -1.3131  1.3569
 2931TIP3    H2 8758   1.336   4.458   0.832 -1.5126 -1.8267  1.1410
 2932TIP3   OH2 8759   5.337   0.105   2.335  0.4452  0.5534 -0.5422
 2932TIP3    H1 8760   5.334   0.052   2.414  0.2709 -0.4311 -1.1809
 2932TIP3    H2 8761   5.391   0.180   2.357 -0.2230  0.6761  0.7313
 2933TIP3   OH2 8762   1.316   2.428   5.172 -0.2787 -0.2281  0.1494
 2933TIP3    H1 8763   1.276   2.512   5.150  0.5963  0.5191  1.3004
 2933TIP3    H2 8764   1.249   2.382   5.223 -0.2687  0.3643  0.7149
 2934TIP3   OH2 8765   6.631   3.361   5.341  0.2449 -0.2441 -0.3344
 2934TIP3    H1 8766   6.619   3.335   5.250 -1.0855 -1.5102  0.1605
 2934TIP3    H2 8767   6.552   3.412   5.362  1.8231  2.5049 -0.6521
 2935TIP3   OH2 8768   3.148   0.782   0.162 -0.1367  0.2549 -0.2283
 2935TIP3    H1 8769   3.171   0.740   0.079 -0.1732 -0.7436  0.2455
 2935TIP3    H2 8770   3.071   0.835   0.143  0.2778  0.5898 -0.9843
 2936TIP3   OH2 8771   3.290   4.547   2.046 -0.0450  0.1987 -0.3314
 2936TIP3    H1 8772   3.367   4.517   1.999 -0.2075 -0.6655 -0.0656
 2936TIP3    H2 8773   3.264   4.627   2.001  1.1448  0.6445 -0.2657
 2937TIP3   OH2 8774   4.789   4.198   4.293 -0.4632 -0.3447 -0.5347
 2937TIP3    H1 8775   4.848   4.261   4.254 -0.7350  1.4261  1.7160
 2937TIP3    H2 8776   4.844   4.122   4.314  1.1012  1.2449  1.4889
 2938TIP3   OH2 8777   2.104   4.481   3.188 -0.5746  0.2849  0.0553
 2938TIP3    H1 8778   2.187   4.491   3.142  0.8564  0.0297  2.4183
 2938TIP3    H2 8779   2.076   4.571   3.205 -0.5073  0.3684 -0.2617
 2939TIP3   OH2 8780   5.842   1.469   3.485  0.0082 -0.0307 -0.1733
 2939TIP3    H1 8781   5.907   1.531   3.517  0.3560 -0.1244 -0.6818
 2939TIP3    H2 8782   5.759   1.501   3.519  0.3766 -0.1979  0.9161
 2940TIP3   OH2 8783   5.762   4.294   3.324  0.0346  0.5082 -0.4357
 2940TIP3    H1 8784   5.847   4.336   3.308 -0.6431  2.4908  0.7018
 2940TIP3    H2 8785   5.772   4.251   3.409 -0.2362  1.2325 -0.0255
 2941TIP3   OH2 8786   1.774   1.790   1.928 -0.0810 -0.3819 -0.1710
 2941TIP3    H1 8787   1.832   1.754   1.861  0.4681 -0.0807  0.1395
 2941TIP3    H2 8788   1.744   1.873   1.891  0.6283  0.0336  0.1600
 2942TIP3   OH2 8789   6.240   1.481   2.906  0.2771  0.1022 -0.2716
 2942TIP3    H1 8790   6.192   1.497   2.824  0.4435  1.5417 -0.1156
 2942TIP3    H2 8791   6.189   1.529   2.972  0.2960 -0.8253  0.4261
 2943TIP3   OH2 8792   2.997   1.054   3.298  0.3032  0.2855 -0.3416
 2943TIP3    H1 8793   3.034   1.134   3.337 -0.3629  0.0795  0.7707
 2943TIP3    H2 8794   3.051   0.983   3.332 -0.2688  0.1056  0.2195
 2944TIP3   OH2 8795   6.961   1.485   5.592  0.1858  0.0246 -0.4791
 2944TIP3    H1 8796   6.994   1.400   5.619  1.3221  0.1883 -1.2726
 2944TIP3    H2 8797   7.040   1.537   5.577 -0.4293  1.9391  2.1042
 2945TIP3   OH2 8798   1.818   5.748   1.517  0.2496 -0.2837  0.1414
 2945TIP3    H1 8799   1.805   5.698   1.598  0.1185 -0.6308 -0.0922
 2945TIP3    H2 8800   1.758   5.708   1.454 -0.4031  0.6404  0.1541
 2946TIP3   OH2 8801   1.500   6.132   1.535 -0.7053 -0.1261 -0.6737
 2946TIP3    H1 8802   1.558   6.078   1.587 -0.6388  2.0685  1.7093
 2946TIP3    H2 8803   1.412   6.103   1.559 -0.7195  1.7061  1.8015
 2947TIP3   OH2 8804   7.133   4.237   4.374  0.1408 -0.3058 -0.3421
 2947TIP3    H1 8805   7.102   4.234   4.465  0.2814  0.3800 -0.2701
 2947TIP3    H2 8806   7.178   4.321   4.366 -0.7554  0.1069 -1.3341
 2948TIP3   OH2 8807   6.953   5.615   2.916 -0.1391 -0.8411 -0.7344
 2948TIP3    H1 8808   6.997   5.545   2.964 -2.2200 -1.1444  0.8992
 2948TIP3    H2 8809   6.916   5.572   2.839  0.4931 -1.0345 -0.9369
 2949TIP3   OH2 8810   7.068   4.992   3.170 -0.1216  0.0310 -0.1725
 2949TIP3    H1 8811   7.093   5.077   3.204  0.8177  0.2053 -1.2305
 2949TIP3    H2 8812   6.987   5.008   3.121  0.8947  0.6746 -1.7226
 2950TIP3   OH2 8813   0.923   0.698   3.713  0.5483 -0.7690 -0.1278
 2950TIP3    H1 8814   0.965   0.622   3.752 -0.3301 -0.5386  1.3734
 2950TIP3    H2 8815   0.977   0.772   3.741 -0.6701 -0.4835  1.7196
 2951TIP3   OH2 8816   2.992   3.460   0.437 -0.1325  0.3292 -0.7511
 2951TIP3    H1 8817   3.081   3.448   0.470  0.4392  2.5131 -1.3207
 2951TIP3    H2 8818   2.940   3.480   0.514  0.5838  2.3534 -0.7354
 2952TIP3   OH2 8819   5.147   3.364   5.526  0.1070  0.0661 -0.1258
 2952TIP3    H1 8820   5.194   3.354   5.609  1.7727 -2.8973 -1.2664
 2952TIP3    H2 8821   5.216   3.370   5.460 -1.1745  2.4463 -1.3796
 2953TIP3   OH2 8822   5.712   3.206   5.641 -0.0364  0.2075 -0.4036
 2953TIP3    H1 8823   5.675   3.118   5.631  0.3409 -0.3157  2.1136
 2953TIP3    H2 8824   5.792   3.192   5.692  0.5614  1.9206 -0.8209
 2954TIP3   OH2 8825   0.511   0.847   5.458  0.1042  0.1162  0.2416
 2954TIP3    H1 8826   0.528   0.921   5.516  0.6660 -1.2285  1.8491
 2954TIP3    H2 8827   0.415   0.845   5.450  0.0055  0.1874  1.3023
 2955TIP3   OH2 8828   2.118   5.916   4.342  0.5360 -0.0974 -0.2198
 2955TIP3    H1 8829   2.096   5.965   4.421 -0.8895 -0.6423 -0.2450
 2955TIP3    H2 8830   2.186   5.968   4.299  0.5750  0.7411  0.8317
 2956TIP3   OH2 8831   5.230   3.964   3.530  0.4708  0.0052  0.0420
 2956TIP3    H1 8832   5.188   3.991   3.612  0.9901  0.6083  0.1146
 2956TIP3    H2 8833   5.174   3.999   3.461 -0.8733 -1.8785  0.0963
 2957TIP3   OH2 8834   0.789   3.622   3.282  0.2553 -0.6386 -0.2195
 2957TIP3    H1 8835   0.841   3.600   3.205 -1.0249 -2.2412 -0.6764
 2957TIP3    H2 8836   0.709   3.660   3.247 -0.3987 -1.5147  0.2803
 2958TIP3   OH2 8837   2.502   5.095   5.494  0.6281 -0.1087  0.1600
 2958TIP3    H1 8838   2.519   5.057   5.580 -1.8064  0.6427  1.0265
 2958TIP3    H2 8839   2.546   5.180   5.496  2.2360 -0.8864 -0.1238
 2959TIP3   OH2 8840   5.152   0.465   4.576 -0.5384 -0.6470  0.4161
 2959TIP3    H1 8841   5.145   0.387   4.520  1.0379 -0.3684 -0.2288
 2959TIP3    H2 8842   5.128   0.434   4.663 -0.3824 -1.7442  0.0865
 2960TIP3   OH2 8843   3.340   0.140   0.832 -0.0140  0.1291 -0.6257
 2960TIP3    H1 8844   3.294   0.187   0.763 -0.3672  1.3147  0.3860
 2960TIP3    H2 8845   3.320   0.048   0.816 -0.3448  0.4056 -1.9024
 2961TIP3   OH2 8846   5.966   0.506   2.912  0.0353 -0.1900  0.3236
 2961TIP3    H1 8847   5.946   0.487   2.820  0.5367 -0.6683  0.3100
 2961TIP3    H2 8848   5.888   0.552   2.944 -0.2296 -0.2028 -0.2841
 2962TIP3   OH2 8849   1.084   3.558   4.767  0.4467 -0.5521 -0.0159
 2962TIP3    H1 8850   1.025   3.486   4.792  0.7081 -1.2004 -1.1740
 2962TIP3    H2 8851   1.171   3.516   4.761  1.1241  0.4410  1.9504
 2963TIP3   OH2 8852   0.002   3.515   0.351  0.2475  0.3574  0.8455
 2963TIP3    H1 8853   0.076   3.535   0.409  1.9352 -1.2119 -0.5912
 2963TIP3    H2 8854   0.022   3.427   0.319 -0.9107  0.9247 -1.6220
 2964TIP3   OH2 8855   4.417   0.688   1.860 -0.0073 -0.5883 -0.1368
 2964TIP3    H1 8856   4.506   0.665   1.886 -0.0039 -0.3242  0.0931
 2964TIP3    H2 8857   4.428   0.737   1.778  0.0011 -1.2060 -0.5051
 2965TIP3   OH2 8858   6.865   5.070   3.012 -0.4205  0.2568 -0.0415
 2965TIP3    H1 8859   6.829   5.158   3.000 -1.8213 -0.0250  1.6668
 2965TIP3    H2 8860   6.833   5.020   2.937 -1.5167  0.6674  0.1359
 2966TIP3   OH2 8861   6.978   6.359   4.757 -0.1031 -0.4697 -0.1408
 2966TIP3    H1 8862   6.925   6.418   4.703 -0.0088  0.8363  1.0992
 2966TIP3    H2 8863   7.055   6.340   4.704 -0.2746  0.3094 -0.6969
 2967TIP3   OH2 8864   4.616   2.159   1.813 -0.3872 -0.3362  0.6639
 2967TIP3    H1 8865   4.658   2.103   1.879 -0.7589 -0.5260  0.7407
 2967TIP3    H2 8866   4.573   2.228   1.864 -0.0229 -0.0382  0.5756
 2968TIP3   OH2 8867   0.736   0.014   5.227 -0.6891  0.1153 -0.5777
 2968TIP3    H1 8868   0.772   0.071   5.295  0.6114 -0.6231 -0.6221
 2968TIP3    H2 8869   0.644   0.003   5.252 -0.6713  1.2498  0.0843
 2969TIP3   OH2 8870   0.463   1.373   3.762 -0.2258 -0.5043 -0.0920
 2969TIP3    H1 8871   0.496   1.346   3.848  0.0854  0.9080  0.2675
 2969TIP3    H2 8872   0.472   1.469   3.762 -0.7788 -0.4249 -1.4732
 2970TIP3   OH2 8873   2.389   2.315   2.261  0.4123 -0.1338 -0.0614
 2970TIP3    H1 8874   2.419   2.394   2.216  3.2479 -0.3219  1.2565
 2970TIP3    H2 8875   2.382   2.248   2.193 -0.2956  0.7845 -0.9133
 2971TIP3   OH2 8876   1.391   2.484   2.317  0.1428  0.2920  0.6774
 2971TIP3    H1 8877   1.468   2.500   2.263  0.4148  2.2819  1.5700
 2971TIP3    H2 8878   1.424   2.431   2.390  0.1476 -0.8432 -0.1231
 2972TIP3   OH2 8879   6.084   5.312   3.427 -0.1496 -0.6655  0.9400
 2972TIP3    H1 8880   6.171   5.279   3.446  0.6653  1.5329  1.3004
 2972TIP3    H2 8881   6.087   5.334   3.333  0.4097  1.2535  1.3556
 2973TIP3   OH2 8882   0.496   0.308   3.617  0.8851  0.0489  0.2715
 2973TIP3    H1 8883   0.580   0.273   3.647  0.6555 -0.6693  0.1074
 2973TIP3    H2 8884   0.431   0.256   3.663  0.5153 -1.0846 -1.4196
 2974TIP3   OH2 8885   3.298   3.222   2.839 -0.0868  0.2928 -0.1713
 2974TIP3    H1 8886   3.305   3.317   2.851 -0.7748  0.3728 -0.3657
 2974TIP3    H2 8887   3.252   3.191   2.918  0.2656  0.1018 -0.0398
 2975TIP3   OH2 8888   0.714   6.015   2.963  0.3068  0.2794 -0.3213
 2975TIP3    H1 8889   0.738   5.998   3.054 -0.9171 -1.1336 -0.2213
 2975TIP3    H2 8890   0.658   5.941   2.939  0.8173  0.4912 -2.3116
 2976TIP3   OH2 8891   2.843   1.603   3.398  0.1193 -0.1019 -0.1487
 2976TIP3    H1 8892   2.759   1.556   3.403  1.1033 -1.8712  0.9969
 2976TIP3    H2 8893   2.823   1.682   3.348 -2.2364 -0.4397  0.1158
 2977TIP3   OH2 8894   2.132   3.720   0.626  0.5255  0.0321  0.0951
 2977TIP3    H1 8895   2.214   3.721   0.674  0.7536  0.9188 -0.3080
 2977TIP3    H2 8896   2.077   3.786   0.668  0.1826 -0.2287  0.0705
 2978TIP3   OH2 8897   0.660   1.965   0.348  0.0860 -0.0661 -0.4570
 2978TIP3    H1 8898   0.569   1.949   0.322 -0.2414  0.5200  0.2838
 2978TIP3    H2 8899   0.701   1.879   0.347 -0.4769 -0.3362 -0.7933
 2979TIP3   OH2 8900   4.109   2.673   3.094 -0.5636 -0.2287  0.4026
 2979TIP3    H1 8901   4.088   2.593   3.045 -0.0515  0.0536 -0.2845
 2979TIP3    H2 8902   4.054   2.740   3.054  0.8175  0.2945 -0.7248
 2980TIP3   OH2 8903   1.323   4.292   1.119 -0.0546 -0.1953  0.3464
 2980TIP3    H1 8904   1.364   4.251   1.043 -0.3895 -0.3357  0.2361
 2980TIP3    H2 8905   1.391   4.347   1.158 -0.5926  2.0447 -1.6224
 2981TIP3   OH2 8906   3.947   1.055   2.663  0.4249 -0.0261  0.0173
 2981TIP3    H1 8907   4.026   1.040   2.611  1.0920 -0.2578  1.0572
 2981TIP3    H2 8908   3.903   0.970   2.664  0.0661  0.1463 -0.7058
 2982TIP3   OH2 8909   2.440   3.876   4.934 -0.2195 -0.7963 -0.1328
 2982TIP3    H1 8910   2.447   3.947   4.871  0.8250 -0.0649  0.7736
 2982TIP3    H2 8911   2.353   3.839   4.919 -0.5784  0.3409 -0.9528
 2983TIP3   OH2 8912   1.292   4.072   5.097  0.3508 -0.4157  0.2637
 2983TIP3    H1 8913   1.233   4.106   5.164  2.2897  1.2503  1.2234
 2983TIP3    H2 8914   1.304   3.980   5.121 -3.0440 -1.3109 -0.9404
 2984TIP3   OH2 8915   3.785   4.299   5.655  0.2893 -0.2358 -0.4893
 2984TIP3    H1 8916   3.742   4.230   5.605  0.2989 -0.3830 -0.2966
 2984TIP3    H2 8917   3.721   4.324   5.722  0.3612 -0.1998 -0.4330
 2985TIP3   OH2 8918   2.815   5.030   3.986  0.7542 -0.2468  0.2935
 2985TIP3    H1 8919   2.766   4.947   3.993 -0.4562  0.3514 -0.6915
 2985TIP3    H2 8920   2.871   5.031   4.064 -0.6236 -1.1049  1.3478
 2986TIP3   OH2 8921   3.255   4.902   2.542  0.8069  0.3650 -0.2445
 2986TIP3    H1 8922   3.191   4.970   2.522  0.9554  0.7398  0.5128
 2986TIP3    H2 8923   3.217   4.853   2.615  2.5829  2.4352  2.2876
 2987TIP3   OH2 8924   1.614   4.920   0.863 -0.4301 -0.2545  0.3991
 2987TIP3    H1 8925   1.666   4.980   0.916  0.2387  1.5033 -2.0910
 2987TIP3    H2 8926   1.523   4.939   0.888 -0.1324  0.4040  1.0189
 2988TIP3   OH2 8927   5.927   4.128   1.592 -0.4397 -0.3040  0.7065
 2988TIP3    H1 8928   5.896   4.041   1.618 -0.0829 -0.2187  1.4335
 2988TIP3    H2 8929   6.014   4.113   1.555 -0.0582 -0.1747  1.5301
 2989TIP3   OH2 8930   6.794   5.525   4.175  0.1495 -0.1049 -0.0637
 2989TIP3    H1 8931   6.821   5.456   4.115 -1.0735  1.2229 -2.2738
 2989TIP3    H2 8932   6.699   5.519   4.178 -0.0735  1.9193 -0.9968
 2990TIP3   OH2 8933   6.040   5.994   2.434  0.6200 -0.3274 -0.1109
 2990TIP3    H1 8934   6.090   6.071   2.409  1.5263 -1.1831 -1.0173
 2990TIP3    H2 8935   5.959   6.001   2.383  0.9163 -0.2342 -0.5707
 2991TIP3   OH2 8936   4.335   3.338   0.147  0.2391  0.1083 -0.3740
 2991TIP3    H1 8937   4.373   3.346   0.235  2.3744 -4.5530 -0.5506
 2991TIP3    H2 8938   4.251   3.383   0.153  1.3124  2.0492  3.2921
 2992TIP3   OH2 8939   2.097   0.708   2.772  0.0093 -0.1984 -0.2515
 2992TIP3    H1 8940   2.184   0.734   2.800  0.4854 -0.7460 -1.1913
 2992TIP3    H2 8941   2.041   0.725   2.848  0.3637  3.0313 -0.5715
 2993TIP3   OH2 8942   2.974   4.086   5.709 -0.2749 -0.2954  0.8092
 2993TIP3    H1 8943   2.907   4.064   5.644  1.2608  1.4146 -1.5085
 2993TIP3    H2 8944   3.049   4.031   5.686  0.3881  0.5289  0.9315
 2994TIP3   OH2 8945   0.228   5.360   1.947 -0.4964  0.0095 -0.2427
 2994TIP3    H1 8946   0.201   5.293   2.010  0.7603  1.4090  1.9340
 2994TIP3    H2 8947   0.226   5.316   1.862 -2.6664 -1.8586  0.6791
 2995TIP3   OH2 8948   2.779   1.715   2.150  0.2135  0.3047 -0.1113
 2995TIP3    H1 8949   2.741   1.638   2.193  0.1845  1.3412  1.8696
 2995TIP3    H2 8950   2.726   1.788   2.181  1.0078  1.2670 -0.9528
 2996TIP3   OH2 8951   1.565   4.343   5.052  0.0710  0.2087 -0.2774
 2996TIP3    H1 8952   1.497   4.377   4.994 -0.4641 -1.2596 -0.5303
 2996TIP3    H2 8953   1.631   4.306   4.992 -0.8099 -1.9414  0.0180
 2997TIP3   OH2 8954   1.422   4.536   1.222  0.0796  0.3350  0.2583
 2997TIP3    H1 8955   1.462   4.597   1.283 -1.7161  0.0419  1.8236
 2997TIP3    H2 8956   1.343   4.581   1.191 -0.2063 -0.3980 -0.1216
 2998TIP3   OH2 8957   3.208   0.730   5.534 -0.6888  0.2054  0.1707
 2998TIP3    H1 8958   3.210   0.781   5.453 -1.2600 -1.4858 -0.9586
 2998TIP3    H2 8959   3.292   0.749   5.576 -0.2381  0.8503 -0.9738
 2999TIP3   OH2 8960   5.700   3.079   2.458  0.0517  0.0357  0.3503
 2999TIP3    H1 8961   5.695   2.993   2.416  0.0869  0.9787 -1.6901
 2999TIP3    H2 8962   5.793   3.103   2.452  0.1172  0.0466  1.2983
 3000TIP3   OH2 8963   1.851   1.753   4.622  0.7747 -0.0652  0.8177
 3000TIP3    H1 8964   1.807   1.770   4.538 -0.2440  0.1669  1.3747
 3000TIP3    H2 8965   1.881   1.839   4.650  1.3031 -0.1757  0.5908
 3001TIP3   OH2 8966   1.993   3.568   2.722  0.7299  0.4874  0.4064
 3001TIP3    H1 8967   1.953   3.629   2.784  1.0997  2.7963 -1.4891
 3001TIP3    H2 8968   2.070   3.614   2.690  2.0496 -1.7430  0.1496
 3002TIP3   OH2 8969   1.313   1.684   1.857  0.1698  0.1218 -0.0545
 3002TIP3    H1 8970   1.254   1.676   1.782 -1.2966  2.4343  0.7335
 3002TIP3    H2 8971   1.253   1.688   1.933  1.4929  0.0049  1.0293
 3003TIP3   OH2 8972   4.638   6.203   2.757  0.2101 -0.4160 -0.3816
 3003TIP3    H1 8973   4.598   6.118   2.776 -1.4378  0.3948 -0.0363
 3003TIP3    H2 8974   4.704   6.184   2.690 -0.2456 -1.9264 -0.4456
 3004TIP3   OH2 8975   3.849   3.557   1.669  0.6593 -0.4048  0.0191
 3004TIP3    H1 8976   3.790   3.489   1.636  0.4998 -0.0049 -0.5164
 3004TIP3    H2 8977   3.916   3.508   1.717 -1.1963 -0.7732  2.4429
 3005TIP3   OH2 8978   6.849   6.202   0.908 -0.0147  0.3437  0.0728
 3005TIP3    H1 8979   6.833   6.233   0.998 -1.3839 -1.4809  0.5274
 3005TIP3    H2 8980   6.796   6.260   0.853 -3.5735 -1.7021  1.0123
 3006TIP3   OH2 8981   6.303   5.966   0.989 -0.0569 -0.3786  0.2790
 3006TIP3    H1 8982   6.242   6.007   1.050  1.0736 -0.6806  1.6689
 3006TIP3    H2 8983   6.314   6.029   0.919 -2.2818 -0.4946 -0.2447
 3007TIP3   OH2 8984   0.924   0.404   2.298  0.3071 -0.4005 -0.5659
 3007TIP3    H1 8985   0.941   0.474   2.235  0.4992  0.8064  0.7503
 3007TIP3    H2 8986   0.830   0.410   2.316  0.1352 -1.1560 -1.2015
 3008TIP3   OH2 8987   4.874   6.815   1.142  0.2394  0.5239  0.2684
 3008TIP3    H1 8988   4.856   6.741   1.084 -0.0400  0.5774  0.2871
 3008TIP3    H2 8989   4.969   6.811   1.157  0.0919 -0.4261  1.0672
 3009TIP3   OH2 8990   3.062   0.052   1.798  0.0739  0.2840  0.0324
 3009TIP3    H1 8991   3.112   0.129   1.774  0.4478 -0.2491 -0.9489
 3009TIP3    H2 8992   2.970   0.079   1.791  0.2073  0.7980  0.2557
 3010TIP3   OH2 8993   2.571   4.426   1.375 -0.4883  0.0068  0.1796
 3010TIP3    H1 8994   2.603   4.459   1.291 -1.5342  0.4954 -0.0480
 3010TIP3    H2 8995   2.624   4.348   1.392  1.5566  1.3543  0.3683
 3011TIP3   OH2 8996   5.956   1.486   3.205  0.6931  0.2672 -0.3263
 3011TIP3    H1 8997   5.978   1.426   3.134 -0.1220 -0.4044 -0.0313
 3011TIP3    H2 8998   5.979   1.572   3.172 -0.6407  0.0804 -1.8240
 3012TIP3   OH2 8999   6.298   2.495   2.771 -0.2183 -0.1938  0.0972
 3012TIP3    H1 9000   6.339   2.567   2.820 -0.3647  0.0789 -0.1732
 3012TIP3    H2 9001   6.353   2.486   2.693 -1.0586  0.6551 -0.6258
 3013TIP3   OH2 9002   3.902   5.548   4.393  0.4675 -0.2870  0.1365
 3013TIP3    H1 9003   3.854   5.631   4.387 -0.4460 -0.8398 -0.5941
 3013TIP3    H2 9004   3.978   5.560   4.337 -0.6066 -0.5265 -1.4582
 3014TIP3   OH2 9005   4.161   1.732   4.122 -0.0847  0.3671 -0.4138
 3014TIP3    H1 9006   4.136   1.775   4.041 -0.2619  0.2552 -0.4188
 3014TIP3    H2 9007   4.079   1.702   4.160  0.0542 -0.1253 -0.4974
 3015TIP3   OH2 9008   4.445   1.792   2.442  0.1448 -0.1198  0.0428
 3015TIP3    H1 9009   4.540   1.782   2.429 -0.2971 -2.5838 -2.3673
 3015TIP3    H2 9010   4.433   1.885   2.463  2.8930  0.9699 -2.4201
 3016TIP3   OH2 9011   6.816   0.347   2.747 -0.1408 -0.5324  0.6902
 3016TIP3    H1 9012   6.770   0.265   2.728  1.4721 -1.9668  2.5755
 3016TIP3    H2 9013   6.896   0.343   2.694 -0.2824  0.1067  0.4083
 3017TIP3   OH2 9014   2.418   3.240   2.705 -0.0779  0.2341 -0.8897
 3017TIP3    H1 9015   2.364   3.258   2.781  0.9627  1.3281 -0.3823
 3017TIP3    H2 9016   2.406   3.316   2.648  2.7403  1.7384  0.3344
 3018TIP3   OH2 9017   3.895   4.973   1.816 -0.2123 -0.0680  0.0277
 3018TIP3    H1 9018   3.919   4.905   1.879 -0.9808  0.5918  1.0718
 3018TIP3    H2 9019   3.918   4.936   1.731 -1.9165 -2.2588  0.4117
 3019TIP3   OH2 9020   5.041   0.278   4.245  0.1278 -0.0446 -0.1094
 3019TIP3    H1 9021   5.093   0.267   4.324  0.8349  0.9482 -0.4100
 3019TIP3    H2 9022   4.960   0.320   4.275  0.2003 -0.0913  0.1490
 3020TIP3   OH2 9023   2.309   5.937   0.025 -0.1795 -0.5591 -0.2076
 3020TIP3    H1 9024   2.237   6.000   0.017 -0.0474 -0.5907 -1.8514
 3020TIP3    H2 9025   2.381   5.988   0.062 -1.0658 -0.5696  1.6514
 3021TIP3   OH2 9026   1.741   2.223   4.451 -0.2909 -0.6364  0.3731
 3021TIP3    H1 9027   1.681   2.207   4.525 -0.2685  3.9797  1.6571
 3021TIP3    H2 9028   1.820   2.257   4.492  0.3155  0.5524 -1.6755
 3022TIP3   OH2 9029   5.484   5.546   1.042 -0.7385  0.0509  0.0525
 3022TIP3    H1 9030   5.461   5.453   1.033  1.0429 -0.4502  0.2390
 3022TIP3    H2 9031   5.449   5.571   1.128  1.3357 -1.3416  1.4052
 3023TIP3   OH2 9032   1.278   3.106   0.179 -0.4912  0.1879  0.0310
 3023TIP3    H1 9033   1.208   3.105   0.244 -0.4491  1.9565  0.1601
 3023TIP3    H2 9034   1.315   3.018   0.183  0.2667  0.5104  3.2662
 3024TIP3   OH2 9035   1.476   0.542   0.608  0.2481  0.2181 -0.8141
 3024TIP3    H1 9036   1.516   0.593   0.678 -2.0215  0.2903  0.5632
 3024TIP3    H2 9037   1.549   0.498   0.565  1.9237  1.7932  0.2734
 3025TIP3   OH2 9038   1.362   2.659   4.078 -0.1276  0.1912 -0.7088
 3025TIP3    H1 9039   1.334   2.724   4.013  2.1375  0.8083 -1.1684
 3025TIP3    H2 9040   1.415   2.597   4.028 -0.9803 -1.1585  0.0218
 3026TIP3   OH2 9041   0.619   4.969   3.503 -0.6156  0.1219 -0.2843
 3026TIP3    H1 9042   0.676   5.041   3.531 -1.2602  1.1375 -1.4498
 3026TIP3    H2 9043   0.543   4.975   3.560  0.8123 -1.9201  2.0168
 3027TIP3   OH2 9044   5.069   5.591   5.853 -0.0783  0.4252  0.2329
 3027TIP3    H1 9045   5.123   5.519   5.818  1.5906  1.5928  0.2838
 3027TIP3    H2 9046   5.075   5.659   5.786  0.1812  1.3366  1.1684
 3028TIP3   OH2 9047   7.131   6.291   2.814  0.0426 -0.4494 -0.0641
 3028TIP3    H1 9048   7.145   6.201   2.842  1.0967 -0.5774 -0.9428
 3028TIP3    H2 9049   7.218   6.332   2.818  0.0747 -0.2060 -2.1167
 3029TIP3   OH2 9050   6.951   2.697   5.591  0.3127  0.8457 -0.0328
 3029TIP3    H1 9051   6.889   2.630   5.622  0.0040  0.5660 -1.2215
 3029TIP3    H2 9052   6.908   2.780   5.612 -1.0376  0.6742 -1.8293
 3030TIP3   OH2 9053   4.320   0.767   3.170  0.6138 -0.6773 -0.9226
 3030TIP3    H1 9054   4.324   0.749   3.264 -0.6001  0.0838 -0.7142
 3030TIP3    H2 9055   4.277   0.690   3.132 -2.5251  0.6681 -0.3180
 3031TIP3   OH2 9056   1.958   4.373   5.275  0.4105 -0.3993 -0.1537
 3031TIP3    H1 9057   2.008   4.296   5.304  0.5614  0.3489  1.7176
 3031TIP3    H2 9058   1.983   4.385   5.183  0.9766 -2.1082 -0.2531
 3032TIP3   OH2 9059   0.045   4.688   5.177  0.1674 -0.6391 -0.3152
 3032TIP3    H1 9060   0.137   4.682   5.150  0.6654  2.0259  0.4089
 3032TIP3    H2 9061   0.002   4.732   5.104  0.5299  2.2939  1.0901
 3033TIP3   OH2 9062   5.512   3.632   0.171  0.0419 -0.5041  0.1162
 3033TIP3    H1 9063   5.591   3.579   0.157  0.6429  0.7292 -1.5466
 3033TIP3    H2 9064   5.463   3.623   0.089 -1.5765 -1.2162  1.1065
 3034TIP3   OH2 9065   3.213   2.781   5.442 -0.5587 -0.0750  0.2892
 3034TIP3    H1 9066   3.199   2.687   5.454  0.7084 -0.1917  0.9199
 3034TIP3    H2 9067   3.303   2.796   5.470 -1.5630  1.7991  2.9160
 3035TIP3   OH2 9068   2.594   5.393   1.422  0.1049 -0.6938  0.1426
 3035TIP3    H1 9069   2.517   5.429   1.380  0.6325 -1.0826 -1.2368
 3035TIP3    H2 9070   2.565   5.310   1.460 -0.3558 -0.3950  0.4442
 3036TIP3   OH2 9071   6.939   0.516   0.124  0.1715  0.1320 -0.4610
 3036TIP3    H1 9072   6.893   0.560   0.052 -0.6096  4.8279  2.4883
 3036TIP3    H2 9073   6.872   0.462   0.166 -0.1030 -0.3576 -1.4942
 3037TIP3   OH2 9074   4.913   5.071   3.258  0.0710  0.2475 -0.1723
 3037TIP3    H1 9075   4.989   5.053   3.315  0.2130 -2.1680 -1.0206
 3037TIP3    H2 9076   4.950   5.119   3.184  1.1450 -2.1104 -1.2711
 3038TIP3   OH2 9077   0.232   3.907   0.584  0.3083 -0.4113  0.0753
 3038TIP3    H1 9078   0.190   3.986   0.550 -0.9419 -1.7427 -1.7047
 3038TIP3    H2 9079   0.247   3.925   0.676  0.6486  2.1207 -0.4064
 3039TIP3   OH2 9080   3.289   0.534   0.002 -0.2126 -0.2260  0.0686
 3039TIP3    H1 9081   3.280   0.516   0.096 -0.3532 -1.5486 -0.1800
 3039TIP3    H2 9082   3.342   0.462  -0.031 -0.3494  0.1102 -0.9092
 3040TIP3   OH2 9083   2.937   4.672   5.026  0.1881  0.1645 -0.2793
 3040TIP3    H1 9084   2.869   4.607   5.045  1.2406 -0.6541  0.8337
 3040TIP3    H2 9085   2.930   4.735   5.097  0.3437  0.2940 -0.3787
 3041TIP3   OH2 9086   0.283   4.530   3.880  0.2994  0.2939 -0.2809
 3041TIP3    H1 9087   0.377   4.516   3.868  0.1374 -1.3570  0.1486
 3041TIP3    H2 9088   0.275   4.558   3.972  0.3264  0.0569 -0.2075
 3042TIP3   OH2 9089   1.297   3.694   1.951 -0.0271 -0.1631  0.2277
 3042TIP3    H1 9090   1.370   3.715   2.010 -0.6682 -0.8553  1.3042
 3042TIP3    H2 9091   1.337   3.691   1.864  0.9891  0.6874  0.6305
 3043TIP3   OH2 9092   5.197   2.720   4.261  0.0101  0.5861  0.1495
 3043TIP3    H1 9093   5.166   2.794   4.208  0.5270  0.4077 -0.4071
 3043TIP3    H2 9094   5.288   2.708   4.234 -0.7098 -1.7600 -1.4810
 3044TIP3   OH2 9095   4.182   3.295   4.941  0.0833  0.5561 -0.5511
 3044TIP3    H1 9096   4.126   3.265   5.012 -1.2201  1.8670 -0.9856
 3044TIP3    H2 9097   4.125   3.348   4.886  1.1532 -0.1423 -2.4047
 3045TIP3   OH2 9098   1.264   0.680   1.070 -0.3698  0.6895  0.2081
 3045TIP3    H1 9099   1.259   0.677   1.165 -1.3571  1.0980  0.1799
 3045TIP3    H2 9100   1.321   0.607   1.047 -0.1589  0.5572  1.1057
 3046TIP3   OH2 9101   5.187   5.266   4.191  0.5167 -0.6881  0.2610
 3046TIP3    H1 9102   5.224   5.350   4.162 -0.3297  0.0009  1.1160
 3046TIP3    H2 9103   5.175   5.216   4.110 -2.3746  1.4242 -0.8043
 3047TIP3   OH2 9104   4.114   2.943   3.277  0.2688 -0.4586  0.3696
 3047TIP3    H1 9105   4.056   2.889   3.223  0.5665  1.5868 -2.1990
 3047TIP3    H2 9106   4.190   2.961   3.220  0.4566  2.0953  1.2797
 3048TIP3   OH2 9107   4.786   5.916   2.286  0.0438 -0.6864  0.3699
 3048TIP3    H1 9108   4.841   5.990   2.262 -1.7562  1.2252  1.7865
 3048TIP3    H2 9109   4.801   5.851   2.217  0.6245  1.5622 -1.7461
 3049TIP3   OH2 9110   5.513   4.566   4.433  0.2555 -0.4829  0.1450
 3049TIP3    H1 9111   5.603   4.556   4.465  0.6729 -0.0051 -0.8606
 3049TIP3    H2 9112   5.521   4.614   4.351 -0.8438 -1.1597 -0.3909
 3050TIP3   OH2 9113   0.617   3.621   5.099 -0.0297  0.4469 -0.2975
 3050TIP3    H1 9114   0.548   3.616   5.165  1.0369 -0.1460  0.8078
 3050TIP3    H2 9115   0.655   3.534   5.097  0.7176  0.7750 -0.8677
 3051TIP3   OH2 9116   1.840   6.304   3.952 -0.2146 -0.6516  0.1887
 3051TIP3    H1 9117   1.759   6.300   3.901  0.3094 -2.0658 -0.5695
 3051TIP3    H2 9118   1.833   6.386   4.001 -0.9121  0.5563 -1.8264
 3052TIP3   OH2 9119   3.273   1.172   5.550 -0.6505 -0.6222  0.0223
 3052TIP3    H1 9120   3.362   1.156   5.582 -0.6150  1.3117  1.0137
 3052TIP3    H2 9121   3.278   1.160   5.455  0.2051 -2.3973  0.2560
 3053TIP3   OH2 9122   1.313   3.254   1.061 -0.0888 -0.1207  0.3887
 3053TIP3    H1 9123   1.233   3.201   1.063  0.3242 -0.7302  1.3795
 3053TIP3    H2 9124   1.369   3.211   0.997  0.3557 -1.0643  1.3936
 3054TIP3   OH2 9125   4.289   3.423   2.036  0.2530 -0.3324 -0.0927
 3054TIP3    H1 9126   4.276   3.420   2.131  2.9451 -0.9542  0.3500
 3054TIP3    H2 9127   4.269   3.334   2.007  1.9356 -0.9003  0.3600
 3055TIP3   OH2 9128   2.184   5.801   2.784  0.1589  0.1950 -0.7522
 3055TIP3    H1 9129   2.114   5.759   2.834 -0.8592  1.8151 -0.7425
 3055TIP3    H2 9130   2.264   5.758   2.815 -0.4719  0.7011  1.8929
 3056TIP3   OH2 9131   5.164   4.948   3.357 -0.2981  0.0859  0.7592
 3056TIP3    H1 9132   5.250   4.914   3.329 -0.0381  0.4386  1.1111
 3056TIP3    H2 9133   5.153   4.914   3.446  0.6991  2.1773  1.7552
 3057TIP3   OH2 9134   0.738   1.825   4.855  0.0876  0.2961 -0.2658
 3057TIP3    H1 9135   0.658   1.872   4.876  0.2672  0.7417 -0.5754
 3057TIP3    H2 9136   0.808   1.879   4.891  0.3047  0.3396 -0.7494
 3058TIP3   OH2 9137   1.379   6.705   2.637  0.6911  0.4140 -0.5292
 3058TIP3    H1 9138   1.393   6.652   2.558  2.6884 -1.8919  1.2125
 3058TIP3    H2 9139   1.303   6.759   2.616 -0.3657 -1.8399 -3.1506
 3059TIP3   OH2 9140   6.028   0.107   3.866 -1.0797 -0.4058 -0.2816
 3059TIP3    H1 9141   5.971   0.089   3.792  0.0160 -1.5144 -0.8885
 3059TIP3    H2 9142   6.015   0.032   3.925 -1.2026 -0.0290  0.1763
 3060TIP3   OH2 9143   6.397   4.413   1.515 -0.4990 -0.1121 -0.1533
 3060TIP3    H1 9144   6.370   4.375   1.599  0.1617 -1.3076 -0.4593
 3060TIP3    H2 9145   6.454   4.346   1.476  0.7517  1.2134 -0.6929
 3061TIP3   OH2 9146   4.172   1.558   1.045  0.1054 -0.2048 -0.0039
 3061TIP3    H1 9147   4.122   1.502   0.986 -1.1634 -0.2990  1.1233
 3061TIP3    H2 9148   4.157   1.522   1.132  1.7077  0.1082  0.4361
 3062TIP3   OH2 9149   5.328   0.841   4.202  0.1579  0.0270 -0.3887
 3062TIP3    H1 9150   5.389   0.845   4.275 -0.1904 -1.0362 -0.0166
 3062TIP3    H2 9151   5.284   0.756   4.212 -0.3689  0.1560 -1.4501
 3063TIP3   OH2 9152   1.909   1.300   4.023  0.1236  0.0451 -0.1216
 3063TIP3    H1 9153   1.893   1.331   4.113 -1.5847  2.2581 -1.0710
 3063TIP3    H2 9154   1.833   1.246   4.003  0.0977  0.2218 -0.4976
 3064TIP3   OH2 9155   2.556   0.952   1.177  0.2180 -0.0428 -0.6770
 3064TIP3    H1 9156   2.639   0.999   1.176  2.0557 -3.0281 -1.9279
 3064TIP3    H2 9157   2.542   0.930   1.269  0.5824  0.7755 -0.4152
 3065TIP3   OH2 9158   5.407   2.780   2.294  0.3750  0.2453  0.2955
 3065TIP3    H1 9159   5.488   2.822   2.264 -0.6138  1.3231 -1.0245
 3065TIP3    H2 9160   5.337   2.832   2.254 -1.0232  0.1481  2.4578
 3066TIP3   OH2 9161   1.189   2.513   0.048 -0.0844 -0.0584  0.1812
 3066TIP3    H1 9162   1.097   2.494   0.030 -0.6809  2.7622 -0.2684
 3066TIP3    H2 9163   1.190   2.543   0.139  0.4607 -0.4482  0.3078
 3067TIP3   OH2 9164   0.601   2.303   2.487  0.2601 -0.3116  0.2014
 3067TIP3    H1 9165   0.596   2.242   2.413  1.2487 -0.5586  0.3279
 3067TIP3    H2 9166   0.628   2.386   2.448  2.2715 -0.8140  0.4581
 3068TIP3   OH2 9167   2.972   1.083   5.214  0.0978 -0.2131  0.2384
 3068TIP3    H1 9168   2.917   1.146   5.261 -0.5675  0.5554 -1.4825
 3068TIP3    H2 9169   2.915   1.049   5.145  0.8209 -1.8522  0.3988
 3069TIP3   OH2 9170   0.699   4.825   5.846 -0.0081 -0.4228  0.1492
 3069TIP3    H1 9171   0.691   4.730   5.834  1.0862 -0.7200  1.4006
 3069TIP3    H2 9172   0.790   4.844   5.823 -0.3861  0.4386 -0.6746
 3070TIP3   OH2 9173   6.745   5.446   1.594  0.3470 -0.1174  0.1785
 3070TIP3    H1 9174   6.739   5.400   1.510  0.1274 -0.1323  0.2013
 3070TIP3    H2 9175   6.673   5.510   1.591  1.0346  0.6707 -0.1269
 3071TIP3   OH2 9176   3.666   4.682   2.912  0.2671  0.1778 -0.3591
 3071TIP3    H1 9177   3.657   4.607   2.972  0.5309 -0.7056 -1.3828
 3071TIP3    H2 9178   3.753   4.717   2.930 -0.6286  1.5834  1.5790
 3072TIP3   OH2 9179   5.868   4.525   0.128 -0.0635  0.0534 -0.3255
 3072TIP3    H1 9180   5.943   4.480   0.168  0.8121 -0.9490 -2.8364
 3072TIP3    H2 9181   5.797   4.461   0.133 -0.2109  0.2700  0.3811
 3073TIP3   OH2 9182   6.297   5.442   2.089  0.3047 -0.2031 -0.1336
 3073TIP3    H1 9183   6.290   5.523   2.139  0.4210  0.8738 -1.7749
 3073TIP3    H2 9184   6.289   5.372   2.154 -1.5016  1.0914  1.1133
 3074TIP3   OH2 9185   0.447   4.914   1.279 -0.0830 -0.5846 -0.4403
 3074TIP3    H1 9186   0.490   4.863   1.210 -0.5246 -1.0036 -0.4032
 3074TIP3    H2 9187   0.420   4.850   1.344 -0.7733 -0.3246 -0.4610
 3075TIP3   OH2 9188   5.624   6.211   4.925  0.6452 -0.7006  0.7836
 3075TIP3    H1 9189   5.698   6.157   4.900  1.3299  0.5655 -0.0182
 3075TIP3    H2 9190   5.633   6.291   4.873 -1.2050 -0.4519  0.7608
 3076TIP3   OH2 9191   2.984   0.231   0.183  0.8771 -0.8201 -0.1487
 3076TIP3    H1 9192   3.038   0.211   0.259 -0.2073 -0.9738  0.6003
 3076TIP3    H2 9193   3.010   0.320   0.158  0.6508 -0.4457  0.9169
 3077TIP3   OH2 9194   5.480   1.729   5.032 -0.4013 -0.1330 -0.1029
 3077TIP3    H1 9195   5.411   1.707   4.970 -0.0139 -2.0986  0.0921
 3077TIP3    H2 9196   5.534   1.794   4.986 -2.0840  1.1049 -0.4123
 3078TIP3   OH2 9197   5.360   4.148   1.776 -0.1733  0.1688  0.2326
 3078TIP3    H1 9198   5.393   4.236   1.795 -0.9819  0.6912 -0.6914
 3078TIP3    H2 9199   5.384   4.096   1.853 -0.1596  1.3262  1.0305
 3079TIP3   OH2 9200   0.609   2.548   1.011  0.4951  0.2393  0.3848
 3079TIP3    H1 9201   0.553   2.482   0.970  1.1216 -0.4970  0.6664
 3079TIP3    H2 9202   0.548   2.612   1.048 -0.1348 -0.2300  0.1850
 3080TIP3   OH2 9203   2.580   5.277   0.422  0.2241  0.0405 -0.4160
 3080TIP3    H1 9204   2.667   5.313   0.440 -0.5423  1.8680 -0.1291
 3080TIP3    H2 9205   2.560   5.305   0.332  0.0593 -0.6384 -0.5945
 3081TIP3   OH2 9206   2.224   3.414   3.394  0.2926 -0.1399  0.0339
 3081TIP3    H1 9207   2.136   3.449   3.409  0.6766  0.6420  0.5286
 3081TIP3    H2 9208   2.209   3.327   3.358 -0.6869  0.1033 -0.1843
 3082TIP3   OH2 9209   6.152   0.285   5.253  0.0062  0.1623 -0.1295
 3082TIP3    H1 9210   6.163   0.213   5.191  0.5156  0.2807 -0.1793
 3082TIP3    H2 9211   6.147   0.363   5.199  1.7831  0.4183  0.0145
 3083TIP3   OH2 9212   4.615   3.497   3.704 -0.1601  0.2172 -0.8973
 3083TIP3    H1 9213   4.566   3.433   3.754  2.3741  0.3036  1.9818
 3083TIP3    H2 9214   4.556   3.573   3.698 -0.9204 -0.1197  1.2883
 3084TIP3   OH2 9215   3.297   6.744   1.318  0.1600 -0.0079  0.4070
 3084TIP3    H1 9216   3.273   6.787   1.236  1.4744 -0.4168 -0.2162
 3084TIP3    H2 9217   3.355   6.806   1.362  1.1924 -0.6537  0.0019
 3085TIP3   OH2 9218   0.789   6.644   5.377 -0.1793  0.4357  0.0397
 3085TIP3    H1 9219   0.782   6.624   5.284  0.3986  2.2498 -0.4381
 3085TIP3    H2 9220   0.785   6.740   5.381 -1.0731  0.3653  1.9640
 3086TIP3   OH2 9221   4.352   0.275   2.398 -0.0466  0.3300 -0.3798
 3086TIP3    H1 9222   4.442   0.256   2.374  0.2870  0.9578  0.3407
 3086TIP3    H2 9223   4.329   0.207   2.461 -0.8292 -1.1472 -2.1340
 3087TIP3   OH2 9224   5.935   0.621   1.863 -0.8636  0.2431 -0.5541
 3087TIP3    H1 9225   5.955   0.661   1.947 -0.8520 -1.0321  0.0766
 3087TIP3    H2 9226   5.848   0.655   1.840 -0.5982  1.0830 -0.3436
 3088TIP3   OH2 9227   2.669   3.328   5.397  0.8933 -0.1516 -0.3333
 3088TIP3    H1 9228   2.673   3.244   5.443  1.7125 -0.8358 -1.5905
 3088TIP3    H2 9229   2.576   3.350   5.395  0.8645  0.2219  2.1447
 3089TIP3   OH2 9230   1.389   1.363   5.815 -0.5836 -0.5882  0.6109
 3089TIP3    H1 9231   1.454   1.293   5.809  1.3063  1.0671  0.7165
 3089TIP3    H2 9232   1.384   1.383   5.909 -0.8900 -0.3795  0.5509
 3090TIP3   OH2 9233   6.409   4.290   2.929  0.2798  0.1816  0.0701
 3090TIP3    H1 9234   6.329   4.257   2.972  0.6537  0.5010  1.0416
 3090TIP3    H2 9235   6.475   4.223   2.947 -0.2576 -1.2232 -2.6637
 3091TIP3   OH2 9236   3.677   6.707   2.729  0.1709 -0.0753 -0.3044
 3091TIP3    H1 9237   3.661   6.670   2.817  0.5622  0.1383 -0.1436
 3091TIP3    H2 9238   3.633   6.646   2.670  0.1942 -0.4076  0.0159
 3092TIP3   OH2 9239   3.853   1.748   1.550 -0.4094  0.2579 -0.2394
 3092TIP3    H1 9240   3.899   1.761   1.467 -1.0127 -0.2764 -0.6606
 3092TIP3    H2 9241   3.842   1.653   1.557 -2.0216  0.3983 -0.4711
 3093TIP3   OH2 9242   2.191   0.278   0.043  0.1520 -0.5839 -0.6957
 3093TIP3    H1 9243   2.225   0.209   0.101  1.4888  1.4281  1.0792
 3093TIP3    H2 9244   2.125   0.323   0.096  0.5202  0.5410 -1.1670
 3094TIP3   OH2 9245   0.123   2.885   2.386  0.8669 -0.6485 -0.1719
 3094TIP3    H1 9246   0.212   2.902   2.356  0.6378  0.9549 -0.0242
 3094TIP3    H2 9247   0.104   2.957   2.446 -0.3848 -1.2029  0.1185
 3095TIP3   OH2 9248   4.490   4.137   5.628  0.0317  0.5245  0.0256
 3095TIP3    H1 9249   4.503   4.093   5.544 -0.9559 -0.4395  0.3517
 3095TIP3    H2 9250   4.523   4.225   5.614 -1.3925  0.8258 -1.8291
 3096TIP3   OH2 9251   4.045   0.768   1.818  0.6515  0.2999  0.1064
 3096TIP3    H1 9252   3.977   0.737   1.878  0.7091 -2.5147 -1.0991
 3096TIP3    H2 9253   4.127   0.737   1.857  1.0349  1.5349  0.3142
 3097TIP3   OH2 9254   4.923   6.175   0.036  0.2766 -0.3136 -0.3094
 3097TIP3    H1 9255   4.836   6.136   0.044  0.7286 -1.1346  0.9737
 3097TIP3    H2 9256   4.979   6.118   0.089  1.3231  1.0230  0.0680
 3098TIP3   OH2 9257   3.965   3.922   5.799 -0.5314  0.2140 -0.3366
 3098TIP3    H1 9258   4.009   3.915   5.884  1.0146 -0.0394 -1.1266
 3098TIP3    H2 9259   3.982   4.011   5.770  0.3792 -0.1975 -1.1137
 3099TIP3   OH2 9260   6.346   3.468   3.778 -0.3934 -0.1576  0.4475
 3099TIP3    H1 9261   6.298   3.436   3.854  1.0332 -0.2006  1.3677
 3099TIP3    H2 9262   6.434   3.434   3.790 -0.0702  0.0887 -1.0873
 3100TIP3   OH2 9263   5.890   6.126   1.509 -0.5961  0.2350  0.6461
 3100TIP3    H1 9264   5.913   6.111   1.417 -0.0871 -0.0425  0.8129
 3100TIP3    H2 9265   5.957   6.079   1.558  0.2604  1.9420  1.1932
 3101TIP3   OH2 9266   2.159   4.832   5.737  0.0740  0.0154  0.4991
 3101TIP3    H1 9267   2.147   4.786   5.654 -1.4626 -1.3192  1.3896
 3101TIP3    H2 9268   2.236   4.790   5.776  1.8606  1.8011 -0.9198
 3102TIP3   OH2 9269   4.295   4.702   5.630  0.0171 -0.4073  0.0485
 3102TIP3    H1 9270   4.337   4.780   5.594 -1.4699 -0.2608 -1.4721
 3102TIP3    H2 9271   4.284   4.722   5.723  1.1639  0.4808  0.0215
 3103TIP3   OH2 9272   7.137   6.014   2.831  0.1695  0.3709 -0.1455
 3103TIP3    H1 9273   7.231   6.022   2.851  0.4110 -0.3274 -0.9505
 3103TIP3    H2 9274   7.129   5.929   2.789 -0.9766  0.0470  0.7039
 3104TIP3   OH2 9275   5.807   3.818   4.650 -0.0009  0.5128  0.2598
 3104TIP3    H1 9276   5.869   3.890   4.639 -1.6887  2.0810  0.3851
 3104TIP3    H2 9277   5.751   3.846   4.723 -1.0214 -0.7064 -0.0148
 3105TIP3   OH2 9278   6.233   6.092   4.841  0.6965 -0.6108 -0.0032
 3105TIP3    H1 9279   6.186   6.021   4.885  0.8804 -0.8870 -0.2480
 3105TIP3    H2 9280   6.184   6.107   4.760 -0.1234  0.4550  0.6518
 3106TIP3   OH2 9281   5.163   1.474   3.949 -0.2002  0.1234  0.2894
 3106TIP3    H1 9282   5.151   1.527   3.870  0.0076 -0.9810 -0.5096
 3106TIP3    H2 9283   5.079   1.428   3.960  0.7997 -2.2413 -1.2411
 3107TIP3   OH2 9284   0.356   1.292   0.208  0.4963  0.0685  0.1860
 3107TIP3    H1 9285   0.266   1.320   0.222  0.8696  0.9100  1.1187
 3107TIP3    H2 9286   0.362   1.207   0.251  0.1430  0.0120  0.1197
 3108TIP3   OH2 9287   5.976   3.203   2.418 -0.2904 -0.1316 -0.4175
 3108TIP3    H1 9288   6.045   3.143   2.445  0.8429  1.7826  1.2235
 3108TIP3    H2 9289   6.016   3.257   2.350 -1.0112 -0.6403 -1.2626
 3109TIP3   OH2 9290   0.413   5.470   5.504  0.4704 -0.3240 -0.1800
 3109TIP3    H1 9291   0.352   5.532   5.543  0.1446 -1.0411  0.4827
 3109TIP3    H2 9292   0.499   5.497   5.536  0.1899 -1.0582  1.3204
 3110TIP3   OH2 9293   3.256   6.489   2.670 -0.0561  0.2232 -0.0768
 3110TIP3    H1 9294   3.168   6.480   2.635 -0.1819  3.2310 -0.7920
 3110TIP3    H2 9295   3.255   6.439   2.752 -0.7587 -4.1866 -2.4897
 3111TIP3   OH2 9296   2.501   4.170   1.657  0.1766  0.4611  0.4129
 3111TIP3    H1 9297   2.434   4.180   1.590  1.0993  1.1335 -0.4359
 3111TIP3    H2 9298   2.508   4.076   1.671  1.5160  0.0961 -2.0905
 3112TIP3   OH2 9299   2.025   3.580   1.966  0.2011  0.1925  0.2023
 3112TIP3    H1 9300   2.111   3.602   2.003  1.2274 -1.3757 -1.0761
 3112TIP3    H2 9301   2.035   3.489   1.936 -1.4968  0.3976 -1.1232
 3113TIP3   OH2 9302   5.098   3.593   2.357  0.6237 -0.0302 -0.1831
 3113TIP3    H1 9303   5.150   3.674   2.353  0.3197  0.2130  0.6905
 3113TIP3    H2 9304   5.138   3.537   2.291  1.9504  0.1874  0.3910
 3114TIP3   OH2 9305   1.343   6.645   2.386 -0.4433 -0.6746  0.0300
 3114TIP3    H1 9306   1.346   6.735   2.355 -0.2154 -0.2925  1.0965
 3114TIP3    H2 9307   1.318   6.593   2.310 -1.8692  0.4357 -0.2886
 3115TIP3   OH2 9308   0.540   2.035   0.817  0.5116 -0.1815 -0.4029
 3115TIP3    H1 9309   0.463   2.024   0.761  0.2797  0.7031 -0.2664
 3115TIP3    H2 9310   0.543   1.955   0.869  0.4795 -0.8341 -1.3615
 3116TIP3   OH2 9311   5.259   6.329   3.328  0.9510 -0.4849 -0.5662
 3116TIP3    H1 9312   5.249   6.248   3.378 -1.0216  0.2805  0.4108
 3116TIP3    H2 9313   5.344   6.363   3.354  0.1214 -0.2635  2.1712
 3117TIP3   OH2 9314   5.123   0.039   3.777  0.5931  0.3095  0.1215
 3117TIP3    H1 9315   5.209  -0.003   3.777 -0.3036 -1.6264 -0.8280
 3117TIP3    H2 9316   5.129   0.105   3.846  2.2504 -0.9774  1.2903
 3118TIP3   OH2 9317   2.904   5.823   1.743  0.8225  0.6387 -0.4606
 3118TIP3    H1 9318   2.847   5.822   1.667  1.1223  1.0507 -0.6955
 3118TIP3    H2 9319   2.989   5.793   1.711  1.1345  1.4693 -0.4523
 3119TIP3   OH2 9320   0.065   3.262   5.383 -0.2380  0.0935  0.2185
 3119TIP3    H1 9321   0.044   3.308   5.464  0.8898  1.3169 -0.1365
 3119TIP3    H2 9322   0.157   3.284   5.367  0.1670 -1.8112 -0.3118
 3120TIP3   OH2 9323   1.201   5.927   3.570  0.3223  0.3150  0.6656
 3120TIP3    H1 9324   1.274   5.871   3.597 -0.5716 -0.1147  2.3625
 3120TIP3    H2 9325   1.235   6.016   3.578  1.2354  0.0884 -0.4422
 3121TIP3   OH2 9326   2.361   1.427   2.876  0.1968  0.0498 -0.1491
 3121TIP3    H1 9327   2.270   1.410   2.854  0.1173 -0.7160  0.7521
 3121TIP3    H2 9328   2.377   1.516   2.843 -1.1355  0.5592  0.5130
 3122TIP3   OH2 9329   3.870   5.282   5.508  0.3867 -0.0862  0.1653
 3122TIP3    H1 9330   3.966   5.283   5.504  0.3755  0.8549 -0.1023
 3122TIP3    H2 9331   3.850   5.217   5.576  1.2041 -0.3813  0.1383
 3123TIP3   OH2 9332   6.657   3.435   3.955  0.2733 -0.3070  0.0609
 3123TIP3    H1 9333   6.734   3.396   3.995  0.7434  0.4323 -0.1080
 3123TIP3    H2 9334   6.624   3.497   4.020  0.9309  0.7595 -0.6015
 3124TIP3   OH2 9335   6.550   5.051   3.518  0.1996 -0.6972 -0.4148
 3124TIP3    H1 9336   6.604   5.024   3.593 -1.5043 -1.9431  0.4516
 3124TIP3    H2 9337   6.538   4.970   3.468 -1.4264 -0.6444 -0.1641
 3125TIP3   OH2 9338   0.115   5.319   5.893 -0.1857 -0.0866 -0.3314
 3125TIP3    H1 9339   0.204   5.301   5.864 -0.3150  0.9998 -1.4927
 3125TIP3    H2 9340   0.059   5.274   5.829 -0.4714  0.6647 -0.6181
 3126TIP3   OH2 9341   6.665   1.160   0.384 -0.4380 -0.3496 -0.2208
 3126TIP3    H1 9342   6.620   1.132   0.464 -1.3405  0.8053 -0.2969
 3126TIP3    H2 9343   6.616   1.237   0.355  1.1956  0.5596 -0.6792
 3127TIP3   OH2 9344   2.081   5.984   5.533  0.6264  0.7149 -0.0875
 3127TIP3    H1 9345   2.121   6.033   5.605 -0.0028  0.6659  0.2936
 3127TIP3    H2 9346   2.036   6.050   5.481 -0.1530  0.5537  0.3803
 3128TIP3   OH2 9347   2.100  -0.010   4.026  0.0894  0.5144  0.5517
 3128TIP3    H1 9348   2.108   0.002   3.932  2.3985 -1.7960  0.3535
 3128TIP3    H2 9349   2.169   0.046   4.063 -0.3589  0.8784  0.8546
 3129TIP3   OH2 9350   6.665   4.498   5.622 -0.3873 -0.1054 -0.2486
 3129TIP3    H1 9351   6.609   4.424   5.644  0.2561 -1.2949 -2.2967
 3129TIP3    H2 9352   6.605   4.572   5.611 -1.1403 -0.5124  0.9771
 3130TIP3   OH2 9353   4.738   1.975   3.164 -0.5789  0.1042  0.0044
 3130TIP3    H1 9354   4.784   2.044   3.117 -1.2721 -0.4205 -1.5057
 3130TIP3    H2 9355   4.808   1.923   3.205  0.0652  0.4248 -0.6665
 3131TIP3   OH2 9356   3.369   6.438   2.998  0.5163 -0.2594 -0.5705
 3131TIP3    H1 9357   3.404   6.527   3.002  1.6635 -0.6874 -0.5447
 3131TIP3    H2 9358   3.275   6.448   3.011  0.4402  1.0723 -1.8226
 3132TIP3   OH2 9359   4.298   6.295   3.932  0.3128  0.3124 -0.6290
 3132TIP3    H1 9360   4.326   6.224   3.988 -0.1502  0.9338  0.4176
 3132TIP3    H2 9361   4.231   6.256   3.876 -1.2792  0.3061  1.1737
 3133TIP3   OH2 9362   4.947   3.330   4.144  0.3955 -0.2336  0.1090
 3133TIP3    H1 9363   5.013   3.261   4.130  1.6352  1.0516 -0.6535
 3133TIP3    H2 9364   4.942   3.340   4.239  0.0301 -1.5133  0.2398
 3134TIP3   OH2 9365   1.234   3.521   1.018 -0.0175 -0.0506  0.3620
 3134TIP3    H1 9366   1.316   3.559   0.986  0.5168 -0.6434  1.0068
 3134TIP3    H2 9367   1.244   3.427   1.005 -1.5731 -0.0098 -1.7893
 3135TIP3   OH2 9368   5.477   6.102   0.638  0.5220  0.5051  0.2305
 3135TIP3    H1 9369   5.455   6.106   0.731  1.6564  1.8483  0.4729
 3135TIP3    H2 9370   5.396   6.075   0.595 -0.6547  2.0571  1.3902
 3136TIP3   OH2 9371   2.994   3.524   0.180 -0.2673  0.5359 -0.0366
 3136TIP3    H1 9372   3.033   3.610   0.167  0.8227  0.1207  0.3519
 3136TIP3    H2 9373   2.996   3.510   0.275 -1.0025  0.3333 -0.0443
 3137TIP3   OH2 9374   1.152   1.556   1.015 -0.0741  0.1665 -0.5127
 3137TIP3    H1 9375   1.154   1.645   1.051  0.9699  0.2482 -0.7356
 3137TIP3    H2 9376   1.086   1.560   0.945 -0.3888  0.6259 -0.1975
 3138TIP3   OH2 9377   4.470   3.704   3.602 -0.2813 -0.0855 -0.3633
 3138TIP3    H1 9378   4.460   3.708   3.507 -0.6018 -0.2190 -0.3378
 3138TIP3    H2 9379   4.393   3.748   3.636 -0.4560 -0.5364 -0.1598
 3139TIP3   OH2 9380   3.768   4.396   4.639 -0.3975  0.4320 -0.2578
 3139TIP3    H1 9381   3.728   4.407   4.553 -0.0925 -0.5894 -0.5420
 3139TIP3    H2 9382   3.742   4.474   4.688  0.2415  1.5086 -1.5852
 3140TIP3   OH2 9383   6.633   5.719   1.206 -0.2586  0.0064 -1.0663
 3140TIP3    H1 9384   6.591   5.781   1.265 -0.0169 -2.1453  1.5408
 3140TIP3    H2 9385   6.576   5.717   1.129 -2.1473  0.8535  0.2312
 3141TIP3   OH2 9386   0.589   5.321   1.741 -0.4575 -0.1011 -0.1625
 3141TIP3    H1 9387   0.580   5.393   1.678  0.0922  0.9783  0.9537
 3141TIP3    H2 9388   0.523   5.339   1.807 -0.6072 -0.8793 -0.0938
 3142TIP3   OH2 9389   0.038   5.663   3.019 -0.1056 -0.1149 -0.3123
 3142TIP3    H1 9390   0.057   5.702   2.934 -0.7353 -0.2384 -0.5159
 3142TIP3    H2 9391  -0.052   5.631   3.011 -0.7046  1.1814  0.8914
 3143TIP3   OH2 9392   4.439   1.789   0.319 -0.0220 -0.2767 -0.3116
 3143TIP3    H1 9393   4.403   1.743   0.243  1.0038 -0.2242 -0.8566
 3143TIP3    H2 9394   4.519   1.830   0.286  1.4411 -1.7366  1.2082
 3144TIP3   OH2 9395   0.960   3.283   3.094 -0.2185 -0.1994  0.2453
 3144TIP3    H1 9396   0.961   3.379   3.089  0.0495 -0.2663 -1.2657
 3144TIP3    H2 9397   1.015   3.254   3.022 -0.9534 -1.5112  0.1760
 3145TIP3   OH2 9398   0.920   4.938   4.083 -0.2586  0.5391 -0.5852
 3145TIP3    H1 9399   0.992   4.916   4.142 -0.8070  0.3686  0.0352
 3145TIP3    H2 9400   0.917   5.034   4.084 -1.3914  0.5197  1.0859
 3146TIP3   OH2 9401   0.718   3.314   1.687  0.9306  0.2723 -0.1640
 3146TIP3    H1 9402   0.767   3.330   1.768  1.9310  0.1000 -0.7179
 3146TIP3    H2 9403   0.648   3.254   1.712  1.1660  0.3094  0.6000
 3147TIP3   OH2 9404   0.024   1.578   2.023 -0.6729  0.0732  0.0765
 3147TIP3    H1 9405  -0.051   1.626   2.059 -0.2124  0.4419  0.5401
 3147TIP3    H2 9406   0.095   1.641   2.020 -0.1950 -0.4469  0.2270
 3148TIP3   OH2 9407   3.966   4.025   5.455  0.0198 -0.0935  0.0164
 3148TIP3    H1 9408   3.928   4.000   5.371  1.1241 -0.5086 -0.3767
 3148TIP3    H2 9409   4.060   4.024   5.441  0.2028  1.4871  0.8007
 3149TIP3   OH2 9410   5.647   2.549   3.318 -0.1749 -0.2098  0.0374
 3149TIP3    H1 9411   5.580   2.569   3.383 -0.4666 -0.7947 -0.0735
 3149TIP3    H2 9412   5.626   2.460   3.288  0.9927 -0.6342  0.4289
 3150TIP3   OH2 9413   6.592   3.135   4.021 -0.2945  0.1168 -0.1020
 3150TIP3    H1 9414   6.499   3.113   4.031  0.1554 -1.3414  1.4418
 3150TIP3    H2 9415   6.599   3.224   4.054 -1.0262 -0.0641  0.5917
 3151TIP3   OH2 9416   3.166   6.711   5.810 -0.4365 -0.6112  0.4069
 3151TIP3    H1 9417   3.093   6.658   5.842  0.1779 -0.8083  1.5235
 3151TIP3    H2 9418   3.244   6.671   5.849  0.2850 -0.4289 -0.7992
 3152TIP3   OH2 9419   4.914   1.523   4.560  0.4764  0.2492 -0.1506
 3152TIP3    H1 9420   5.003   1.494   4.580 -0.4021 -1.8250  1.1371
 3152TIP3    H2 9421   4.905   1.607   4.606  2.0946  1.0774 -1.2687
 3153TIP3   OH2 9422   1.703   2.149   0.582 -0.9364  0.2451 -0.0187
 3153TIP3    H1 9423   1.645   2.198   0.524 -0.3696 -0.0404 -0.8499
 3153TIP3    H2 9424   1.771   2.211   0.607 -1.6794  0.6363  1.1135
 3154TIP3   OH2 9425   6.132   0.100   4.303  0.2311  0.1309  0.0590
 3154TIP3    H1 9426   6.178   0.110   4.387  0.1065 -2.0513  0.4357
 3154TIP3    H2 9427   6.201   0.111   4.237  0.6593  0.1774  0.5035
 3155TIP3   OH2 9428   3.269   0.388   4.935 -0.2145 -0.2989 -0.2394
 3155TIP3    H1 9429   3.175   0.393   4.953 -0.2740 -0.9469 -0.3387
 3155TIP3    H2 9430   3.309   0.443   5.002 -0.5588 -1.2210  0.7441
 3156TIP3   OH2 9431   2.930   1.432   2.922  0.2028  0.0242 -0.2580
 3156TIP3    H1 9432   3.016   1.461   2.952  0.8786 -2.2022  0.1870
 3156TIP3    H2 9433   2.897   1.378   2.994 -1.6520  0.9737 -0.3634
 3157TIP3   OH2 9434   1.727   0.053   3.126  0.1442 -0.0276 -0.6523
 3157TIP3    H1 9435   1.696   0.144   3.127  1.9932  0.6833 -1.6944
 3157TIP3    H2 9436   1.783   0.048   3.049  2.2875 -1.2379  0.8487
 3158TIP3   OH2 9437   0.298   3.255   0.908 -0.0067  0.2988 -0.0683
 3158TIP3    H1 9438   0.377   3.308   0.899  0.2657  0.4525  2.5087
 3158TIP3    H2 9439   0.331   3.165   0.919 -0.1080  0.3949  1.2596
 3159TIP3   OH2 9440   1.176   3.073   5.605  0.6421 -0.5744  0.0755
 3159TIP3    H1 9441   1.172   3.143   5.540  1.3430 -1.3693 -0.8559
 3159TIP3    H2 9442   1.089   3.072   5.645  0.2309  0.0032 -0.7756
 3160TIP3   OH2 9443   6.140   6.823   1.699  0.1237  0.2627  0.2249
 3160TIP3    H1 9444   6.135   6.740   1.650 -2.6653  1.0992 -1.1430
 3160TIP3    H2 9445   6.112   6.800   1.787  0.2155 -0.4192  0.0835
 3161TIP3   OH2 9446   5.180   3.529   4.472  0.2699 -0.9131 -0.4439
 3161TIP3    H1 9447   5.088   3.545   4.450  0.3599  1.5588  0.6716
 3161TIP3    H2 9448   5.228   3.547   4.391 -0.1288 -1.1673 -0.7394
 3162TIP3   OH2 9449   5.572   0.969   4.334 -0.5494 -0.7395 -0.0354
 3162TIP3    H1 9450   5.655   1.015   4.340  0.3737 -2.1137 -1.5308
 3162TIP3    H2 9451   5.553   0.943   4.424  0.2467  0.2336  0.4352
 3163TIP3   OH2 9452   0.243   5.251   5.195 -0.6514 -0.5964 -0.1609
 3163TIP3    H1 9453   0.211   5.165   5.223  0.0077 -0.4419  1.1181
 3163TIP3    H2 9454   0.185   5.275   5.122 -0.8604 -2.1004 -0.5241
 3164TIP3   OH2 9455   4.907   6.367   2.663 -0.1251  0.2456  0.1117
 3164TIP3    H1 9456   4.844   6.412   2.607 -0.2669  0.0858  0.1423
 3164TIP3    H2 9457   4.885   6.396   2.752 -0.1778  0.1645  0.1255
 3165TIP3   OH2 9458   4.938   5.426   0.397 -0.1820 -1.1033 -0.8326
 3165TIP3    H1 9459   4.929   5.488   0.469 -0.2913 -0.3192 -1.5129
 3165TIP3    H2 9460   4.954   5.480   0.320  2.3790 -2.0164 -1.0510
 3166TIP3   OH2 9461   6.319   6.800   2.466  0.3544 -0.0738 -0.5364
 3166TIP3    H1 9462   6.259   6.790   2.392 -0.0918  0.3277 -0.2310
 3166TIP3    H2 9463   6.329   6.711   2.500 -1.0528  0.0111  0.1685
 3167TIP3   OH2 9464   2.674   0.174   4.341  0.0665  0.0908 -0.0280
 3167TIP3    H1 9465   2.687   0.238   4.411 -1.7843  0.3907  0.1013
 3167TIP3    H2 9466   2.623   0.221   4.276  0.6896 -0.5755 -1.0171
 3168TIP3   OH2 9467   6.137   3.120   2.677  0.2424  0.0393  0.0706
 3168TIP3    H1 9468   6.144   3.075   2.593  0.4130  0.6695 -0.2627
 3168TIP3    H2 9469   6.139   3.213   2.654  1.8500  0.2514  0.8779
 3169TIP3   OH2 9470   0.489   4.844   1.003  0.7452  0.0021 -0.0166
 3169TIP3    H1 9471   0.564   4.799   0.962  2.3012  2.1782  0.2598
 3169TIP3    H2 9472   0.491   4.932   0.965 -0.6227  0.6383  1.3041
 3170TIP3   OH2 9473   6.456   3.661   5.193  0.2994  0.0092  0.1945
 3170TIP3    H1 9474   6.484   3.610   5.269 -1.3708 -1.0868  0.1294
 3170TIP3    H2 9475   6.378   3.708   5.223 -0.3630 -0.4161 -0.8028
 3171TIP3   OH2 9476   4.814   4.762   0.245 -0.2823 -0.2742  0.8008
 3171TIP3    H1 9477   4.795   4.741   0.336 -1.7097  0.4040  0.6872
 3171TIP3    H2 9478   4.774   4.848   0.230  0.2070 -0.2204 -0.3744
 3172TIP3   OH2 9479   0.120   4.144   0.529 -0.3513  0.3073 -0.1644
 3172TIP3    H1 9480   0.168   4.220   0.563  0.2994 -0.6407  1.0999
 3172TIP3    H2 9481   0.066   4.180   0.458  0.3086  1.8568  0.0762
 3173TIP3   OH2 9482   6.527   2.694   4.364 -0.4196 -0.2156  0.6327
 3173TIP3    H1 9483   6.502   2.684   4.272  1.6066 -1.8321  0.1755
 3173TIP3    H2 9484   6.545   2.787   4.374 -0.1434 -0.1008 -0.7610
 3174TIP3   OH2 9485   4.656   2.551   1.512 -0.0590 -1.1194  0.4902
 3174TIP3    H1 9486   4.604   2.595   1.579 -1.2334 -0.5306 -0.7463
 3174TIP3    H2 9487   4.746   2.578   1.530 -0.6857  1.6898 -0.0488
 3175TIP3   OH2 9488   0.011   5.586   1.448 -0.3122 -0.1965  0.2339
 3175TIP3    H1 9489  -0.041   5.610   1.371 -2.3192 -0.2532  1.5141
 3175TIP3    H2 9490   0.100   5.575   1.414 -0.6857  1.9508 -1.6752
 3176TIP3   OH2 9491   1.943   5.589   4.884 -0.1222 -0.2643 -0.5226
 3176TIP3    H1 9492   1.868   5.595   4.944 -0.4441 -0.0475 -0.9400
 3176TIP3    H2 9493   1.904   5.563   4.800  0.3899 -1.1016 -0.5114
 3177TIP3   OH2 9494   3.207   4.405   1.659 -0.1390  0.0284 -0.0839
 3177TIP3    H1 9495   3.146   4.342   1.619  0.0770 -0.2399  0.0046
 3177TIP3    H2 9496   3.154   4.483   1.674 -0.2760  0.0693 -0.7217
 3178TIP3   OH2 9497   4.258   2.326   4.789  0.4064 -0.1165 -0.0312
 3178TIP3    H1 9498   4.319   2.289   4.852  1.0951 -0.3046 -0.7908
 3178TIP3    H2 9499   4.312   2.346   4.712 -0.4123  0.0965 -0.5647
 3179TIP3   OH2 9500   2.823   2.301   0.737  1.0815  0.5833 -0.1951
 3179TIP3    H1 9501   2.818   2.209   0.763 -1.2419  0.9172  0.7480
 3179TIP3    H2 9502   2.878   2.342   0.803 -1.4655  0.6413  2.0252
 3180TIP3   OH2 9503   0.867   3.095   3.880 -0.1301  0.0068  0.0356
 3180TIP3    H1 9504   0.830   3.182   3.866 -2.7385 -1.1605 -1.0360
 3180TIP3    H2 9505   0.811   3.056   3.947  0.3112 -1.1919 -0.2720
 3181TIP3   OH2 9506   3.080   6.106   1.850 -0.2602  0.5556  0.9766
 3181TIP3    H1 9507   3.138   6.179   1.869 -0.2009  0.1073  2.6936
 3181TIP3    H2 9508   3.110   6.036   1.909 -0.2153 -0.9163 -0.7050
 3182TIP3   OH2 9509   6.638   1.868   4.073  0.1549  0.1240 -0.3210
 3182TIP3    H1 9510   6.562   1.862   4.015 -0.1856 -0.3544  0.1581
 3182TIP3    H2 9511   6.690   1.940   4.038 -1.0561  1.1764 -0.0295
 3183TIP3   OH2 9512   3.619   5.500   3.495 -0.7766 -0.3437 -0.1593
 3183TIP3    H1 9513   3.647   5.546   3.416  0.5042 -2.3233 -0.9091
 3183TIP3    H2 9514   3.638   5.561   3.566  0.9065  0.2930 -1.1114
 3184TIP3   OH2 9515   0.295   2.540   2.864 -0.0259  0.0786 -0.0950
 3184TIP3    H1 9516   0.367   2.559   2.924  0.8217  0.2254 -1.1410
 3184TIP3    H2 9517   0.260   2.456   2.894 -0.2228  0.5702  1.1550
 3185TIP3   OH2 9518   4.823   2.984   5.335  0.4035 -0.1872  0.1011
 3185TIP3    H1 9519   4.797   2.921   5.403 -2.0506  0.9412  0.3491
 3185TIP3    H2 9520   4.871   3.051   5.383  0.2617 -0.3016  0.4101
 3186TIP3   OH2 9521   4.044   2.318   3.518  0.3261  0.7831 -0.1465
 3186TIP3    H1 9522   4.068   2.325   3.611 -1.9052 -0.4172  0.5982
 3186TIP3    H2 9523   4.018   2.407   3.494 -0.6289  0.8102  0.8914
 3187TIP3   OH2 9524   5.062   1.223   0.892 -0.0556 -0.0062 -0.2541
 3187TIP3    H1 9525   5.100   1.170   0.822  0.1728 -0.9048  0.5225
 3187TIP3    H2 9526   5.117   1.204   0.968 -1.2777 -0.3309  0.5768
 3188TIP3   OH2 9527   4.093   5.020   4.452 -0.1071  0.0395 -0.0450
 3188TIP3    H1 9528   4.112   5.074   4.529 -1.5438  1.8317 -0.8712
 3188TIP3    H2 9529   4.171   5.029   4.398  0.0653  0.5148  0.2643
 3189TIP3   OH2 9530   4.244   2.283   1.993  0.4386 -0.3052 -0.1097
 3189TIP3    H1 9531   4.261   2.203   1.943 -2.1426 -0.5635 -0.7295
 3189TIP3    H2 9532   4.228   2.252   2.083  1.9228 -0.1768  0.2211
 3190TIP3   OH2 9533   1.632   3.890   4.297  0.5562 -0.3588 -0.9116
 3190TIP3    H1 9534   1.647   3.924   4.385 -0.3200 -1.7734 -0.1726
 3190TIP3    H2 9535   1.602   3.800   4.311  1.0444 -0.8378 -2.6899
 3191TIP3   OH2 9536   0.296   4.148   2.991  0.4181 -0.5199 -0.0807
 3191TIP3    H1 9537   0.281   4.192   3.075  0.5054 -0.3407 -0.1572
 3191TIP3    H2 9538   0.365   4.200   2.949 -0.4707  0.1210 -0.7910
 3192TIP3   OH2 9539   1.125   4.313   4.439 -0.4583  0.8556  0.4712
 3192TIP3    H1 9540   1.138   4.309   4.344  1.3049  0.1541  0.7134
 3192TIP3    H2 9541   1.202   4.270   4.476 -0.5836  2.0526  2.2633
 3193TIP3   OH2 9542   5.639   1.649   4.804 -0.3150 -0.7006 -0.2660
 3193TIP3    H1 9543   5.679   1.605   4.878  2.8411  1.2108 -0.6482
 3193TIP3    H2 9544   5.650   1.588   4.731 -0.0888 -1.1113  0.1069
 3194TIP3   OH2 9545   2.526   0.120   2.305 -0.7476 -0.2931 -0.5498
 3194TIP3    H1 9546   2.596   0.184   2.314 -0.8794 -0.3052  0.7116
 3194TIP3    H2 9547   2.450   0.162   2.346 -0.7913 -1.3212  0.4545
 3195TIP3   OH2 9548   5.320   3.770   0.917  0.2506  0.0704 -0.4293
 3195TIP3    H1 9549   5.233   3.730   0.918  0.4669 -0.4277 -0.9495
 3195TIP3    H2 9550   5.305   3.862   0.939 -0.3182 -0.1759  0.2252
 3196TIP3   OH2 9551   0.915   1.896   1.664 -0.5421 -0.2198  0.0530
 3196TIP3    H1 9552   0.978   1.948   1.615 -2.5782  2.0807 -0.3530
 3196TIP3    H2 9553   0.920   1.931   1.754  1.0946 -2.3925  0.8816
 3197TIP3   OH2 9554   2.357   0.988   1.751  0.0599 -0.1531  0.7528
 3197TIP3    H1 9555   2.336   0.976   1.659  0.9784  0.4376  0.4520
 3197TIP3    H2 9556   2.452   0.991   1.754  0.0302  1.0277  1.5524
 3198TIP3   OH2 9557   6.975   3.801   0.479  0.0856  0.0224  0.7350
 3198TIP3    H1 9558   6.997   3.862   0.550 -1.5050 -0.7301  1.9199
 3198TIP3    H2 9559   6.887   3.828   0.451  0.0620 -0.6860  0.1011
 3199TIP3   OH2 9560   5.131   4.742   5.836  0.4338 -0.2617  0.2750
 3199TIP3    H1 9561   5.197   4.792   5.789 -0.6921  1.9386  0.9087
 3199TIP3    H2 9562   5.047   4.770   5.798 -0.2597 -1.4443  0.8633
 3200TIP3   OH2 9563   1.688   2.373   0.818 -0.3366  0.1382  0.1393
 3200TIP3    H1 9564   1.688   2.329   0.733 -0.6820 -0.5129  0.4671
 3200TIP3    H2 9565   1.595   2.392   0.835 -0.2023  0.9170  0.0456
 3201TIP3   OH2 9566   5.463   2.035   0.575 -0.0712 -0.0343  0.0769
 3201TIP3    H1 9567   5.420   1.963   0.530 -1.0947 -0.5598  1.8064
 3201TIP3    H2 9568   5.553   2.004   0.588 -0.4466 -0.9540  0.6301
 3202TIP3   OH2 9569   0.344   3.072   5.673  0.8274 -0.5462  0.3061
 3202TIP3    H1 9570   0.386   3.072   5.759 -1.1908  4.2940  1.6062
 3202TIP3    H2 9571   0.256   3.039   5.690  0.6900 -0.3844 -0.0852
 3203TIP3   OH2 9572   6.993   4.146   0.586 -0.1997  0.3443 -0.1809
 3203TIP3    H1 9573   6.985   4.227   0.635  1.8093  1.2090 -1.1924
 3203TIP3    H2 9574   6.964   4.078   0.647 -0.0145  1.6023  1.3646
 3204TIP3   OH2 9575   4.031   1.865   5.745  0.1434 -0.4609  0.1741
 3204TIP3    H1 9576   3.981   1.783   5.749 -1.6893  0.6496  0.9272
 3204TIP3    H2 9577   4.089   1.854   5.669 -0.2399 -2.3357  0.0994
 3205TIP3   OH2 9578   0.876   2.269   5.701 -0.1201 -0.0294  0.6751
 3205TIP3    H1 9579   0.926   2.274   5.782 -0.5812 -0.3169  0.9782
 3205TIP3    H2 9580   0.940   2.292   5.632 -0.1611  2.0746  1.2641
 3206TIP3   OH2 9581   5.460   0.380   2.273 -0.9161  0.3866  0.1566
 3206TIP3    H1 9582   5.438   0.382   2.179 -1.8831 -0.4787  0.3466
 3206TIP3    H2 9583   5.550   0.349   2.275 -0.0357  2.6614 -0.5788
 3207TIP3   OH2 9584   0.032   1.827   1.666 -0.2396  0.0393  0.2570
 3207TIP3    H1 9585   0.085   1.827   1.587  0.7197 -0.5537  0.8787
 3207TIP3    H2 9586   0.077   1.886   1.726 -1.0707  0.6502  0.3047
 3208TIP3   OH2 9587   2.275   5.500   5.704  0.1918  0.1788  0.1552
 3208TIP3    H1 9588   2.272   5.467   5.615 -1.6049 -0.5387  0.4497
 3208TIP3    H2 9589   2.330   5.438   5.752 -0.9916 -0.9313  0.1098
 3209TIP3   OH2 9590   6.703   3.826   4.015 -0.7014 -0.1417 -0.3276
 3209TIP3    H1 9591   6.749   3.748   4.046 -1.2833 -0.4934 -0.3332
 3209TIP3    H2 9592   6.752   3.899   4.053  0.9568 -0.4194 -1.7993
 3210TIP3   OH2 9593   6.354   5.267   5.421  0.2150  0.4723  0.2789
 3210TIP3    H1 9594   6.270   5.272   5.375 -0.3137  2.1951  1.2975
 3210TIP3    H2 9595   6.418   5.248   5.353 -1.1009 -2.0219 -0.3584
 3211TIP3   OH2 9596   5.478   2.824   0.159  0.1149  0.0183 -0.0689
 3211TIP3    H1 9597   5.448   2.913   0.177 -1.0129 -0.3478 -0.0119
 3211TIP3    H2 9598   5.561   2.835   0.113  0.2250  1.0819  0.3467
 3212TIP3   OH2 9599   1.298   6.058   0.385 -0.2422 -0.2863  0.1189
 3212TIP3    H1 9600   1.302   5.999   0.310 -0.5283  2.5347 -2.2821
 3212TIP3    H2 9601   1.215   6.038   0.427  0.7880 -3.2444  0.9705
 3213TIP3   OH2 9602   5.146   1.034   0.452  0.2644  0.2133 -0.2551
 3213TIP3    H1 9603   5.156   0.985   0.534  0.3527 -0.9829 -0.9534
 3213TIP3    H2 9604   5.229   1.079   0.440  0.8845 -0.9597 -0.5192
 3214TIP3   OH2 9605   2.486   1.614   1.198  0.0831 -0.2514  0.0247
 3214TIP3    H1 9606   2.452   1.655   1.278  1.0822  0.1834  0.2454
 3214TIP3    H2 9607   2.542   1.543   1.230  0.7467  0.1283 -0.2667
 3215TIP3   OH2 9608   3.177   0.399   0.265  0.0501 -0.3952  0.0231
 3215TIP3    H1 9609   3.169   0.335   0.336 -1.3933 -2.4302 -1.8533
 3215TIP3    H2 9610   3.106   0.461   0.280 -1.5264 -1.9550 -0.6564
 3216TIP3   OH2 9611   2.004   6.787   1.929  0.6221  0.2861 -0.8450
 3216TIP3    H1 9612   1.952   6.826   1.999 -1.4832 -0.6918 -1.7754
 3216TIP3    H2 9613   2.049   6.714   1.969 -1.0589 -0.6565 -0.5800
 3217TIP3   OH2 9614   6.550   0.807   3.650 -0.1166 -0.5857 -0.4725
 3217TIP3    H1 9615   6.524   0.796   3.559  0.8601 -1.9911 -0.6217
 3217TIP3    H2 9616   6.470   0.834   3.695 -1.0813 -1.7575 -1.4142
 3218TIP3   OH2 9617   2.223   0.078   2.672  0.1030 -0.0239 -0.4094
 3218TIP3    H1 9618   2.147   0.038   2.715  0.2307  0.0774 -0.0852
 3218TIP3    H2 9619   2.186   0.149   2.620 -0.0418 -0.0711 -0.3725
 3219TIP3   OH2 9620   1.969   3.738   2.317 -0.5274 -0.3165 -0.0403
 3219TIP3    H1 9621   1.960   3.754   2.411 -0.2426 -1.4746  0.2061
 3219TIP3    H2 9622   1.894   3.783   2.278 -0.6659  0.1597  0.7492
 3220TIP3   OH2 9623   2.396   4.902   4.447  0.2865  0.4300 -0.3431
 3220TIP3    H1 9624   2.465   4.858   4.396 -0.5176 -0.4000 -0.7596
 3220TIP3    H2 9625   2.367   4.836   4.509  0.4472  1.0623  0.4186
 3221TIP3   OH2 9626   1.472   2.730   3.091 -0.2699 -0.1033 -0.0240
 3221TIP3    H1 9627   1.443   2.808   3.139 -1.5273 -1.1562  0.9807
 3221TIP3    H2 9628   1.547   2.761   3.039 -0.5214  1.6869  0.6035
 3222TIP3   OH2 9629   4.727   1.541   5.561 -0.1458 -0.2258 -0.3121
 3222TIP3    H1 9630   4.706   1.561   5.652 -0.7920  0.2110 -0.5496
 3222TIP3    H2 9631   4.773   1.618   5.529 -0.6057 -0.0533 -0.5713
 3223TIP3   OH2 9632   6.270   6.251   1.693  0.1262  0.0202  0.1585
 3223TIP3    H1 9633   6.260   6.160   1.665  0.4176 -0.4178  1.4183
 3223TIP3    H2 9634   6.180   6.282   1.706  0.0501 -0.3015  0.3945
 3224TIP3   OH2 9635   5.050   0.957   4.929 -0.5332  0.0962  0.2564
 3224TIP3    H1 9636   5.112   0.885   4.923  0.1843  0.5922  1.3993
 3224TIP3    H2 9637   5.081   1.021   4.865 -1.1511 -0.5625 -0.7331
 3225TIP3   OH2 9638   5.324   6.345   5.645  0.4880 -0.0029 -0.1531
 3225TIP3    H1 9639   5.356   6.355   5.555  0.7794  0.9474  0.0508
 3225TIP3    H2 9640   5.264   6.418   5.658  1.8828  0.9789  1.0329
 3226TIP3   OH2 9641   5.561   0.473   1.246  0.0148  0.5159  0.1570
 3226TIP3    H1 9642   5.549   0.454   1.338  2.7166 -0.9437  0.3106
 3226TIP3    H2 9643   5.612   0.555   1.245  0.3965  0.2774 -0.0172
 3227TIP3   OH2 9644   5.139   1.943   0.383  0.3504 -0.6014  0.5822
 3227TIP3    H1 9645   5.193   1.864   0.389  0.8220 -0.2954  0.3922
 3227TIP3    H2 9646   5.050   1.909   0.374  0.7157 -1.1654 -1.4918
 3228TIP3   OH2 9647   4.546   0.351   4.711  0.2024 -0.8085 -1.0311
 3228TIP3    H1 9648   4.520   0.326   4.800  1.8086  0.8627 -0.0143
 3228TIP3    H2 9649   4.640   0.335   4.707  0.9969  2.8330 -0.9242
 3229TIP3   OH2 9650   0.943   3.581   1.008  0.4702  0.2534 -0.4550
 3229TIP3    H1 9651   0.898   3.499   0.988  0.4615  0.1575 -0.0594
 3229TIP3    H2 9652   1.036   3.561   0.994  0.5788 -0.1694  0.7223
 3230TIP3   OH2 9653   1.403   0.812   5.294  0.0917 -0.1474 -0.5072
 3230TIP3    H1 9654   1.488   0.774   5.313  1.3847  2.2283 -1.0818
 3230TIP3    H2 9655   1.407   0.900   5.332 -0.9907  1.0496 -2.9247
 3231TIP3   OH2 9656   4.329   2.519   5.058 -0.2329 -0.7370  1.0095
 3231TIP3    H1 9657   4.347   2.426   5.064  0.3713 -0.6595  0.4969
 3231TIP3    H2 9658   4.398   2.554   5.002 -1.0689 -0.1631  0.3042
 3232TIP3   OH2 9659   5.470   3.305   3.638 -0.4318 -0.5098 -0.2986
 3232TIP3    H1 9660   5.565   3.304   3.636 -0.4157 -0.7302  0.5098
 3232TIP3    H2 9661   5.444   3.290   3.547  0.2893 -2.2250 -0.2617
 3233TIP3   OH2 9662   5.049   4.996   4.883  0.4938 -0.2414 -0.1000
 3233TIP3    H1 9663   4.984   5.060   4.856  2.4211  1.1111 -1.8605
 3233TIP3    H2 9664   5.133   5.041   4.872  1.9151 -2.8470 -0.8646
 3234TIP3   OH2 9665   3.803   0.191   1.358 -0.0507 -0.6984  0.5337
 3234TIP3    H1 9666   3.786   0.265   1.417  0.4371  0.1256 -0.3259
 3234TIP3    H2 9667   3.859   0.228   1.289 -0.9963 -1.5050 -0.7139
 3235TIP3   OH2 9668   4.581   3.421   0.675  0.5656 -0.4091 -0.1365
 3235TIP3    H1 9669   4.667   3.421   0.632  0.4849 -1.3626 -0.3164
 3235TIP3    H2 9670   4.554   3.513   0.673  1.7519 -0.0314  0.2807
 3236TIP3   OH2 9671   2.239   2.111   3.051  0.2707 -0.4817 -0.1596
 3236TIP3    H1 9672   2.310   2.154   3.004 -1.7740  1.4896 -1.6374
 3236TIP3    H2 9673   2.253   2.135   3.143  1.8490 -0.7021 -0.3236
 3237TIP3   OH2 9674   6.862   2.644   5.201  0.3651 -0.2713 -0.3309
 3237TIP3    H1 9675   6.857   2.624   5.108 -1.2960 -1.0732 -0.1196
 3237TIP3    H2 9676   6.953   2.628   5.225  0.1042 -3.8313 -1.0628
 3238TIP3   OH2 9677   1.325   5.081   0.644  0.0734  0.3538 -0.0891
 3238TIP3    H1 9678   1.379   5.060   0.720  1.1581  1.5371 -0.5001
 3238TIP3    H2 9679   1.313   5.176   0.648 -2.5650  0.0768  0.3420
 3239TIP3   OH2 9680   6.389   2.952   4.973 -0.4658 -0.2089  0.1343
 3239TIP3    H1 9681   6.433   2.993   4.898 -1.1271  0.3821  0.0643
 3239TIP3    H2 9682   6.435   2.869   4.985  1.4770  0.8873  0.8131
 3240TIP3   OH2 9683   2.468   0.339   1.692  0.1252 -0.2034  0.8783
 3240TIP3    H1 9684   2.377   0.318   1.668  0.2525 -0.7586  0.8786
 3240TIP3    H2 9685   2.463   0.427   1.729 -0.3102  0.0541  0.2330
 3241TIP3   OH2 9686   3.747   3.005   0.126 -0.5407  0.4346  0.1206
 3241TIP3    H1 9687   3.683   2.950   0.081 -1.9352  1.0885  1.2156
 3241TIP3    H2 9688   3.800   2.943   0.177 -2.3506  0.0548  1.6619
 3242TIP3   OH2 9689   3.448   5.108   3.524  0.4020  0.3226 -0.4542
 3242TIP3    H1 9690   3.357   5.138   3.529  0.1238 -0.1737 -1.9112
 3242TIP3    H2 9691   3.441   5.014   3.506  1.1511  0.5380 -2.0506
 3243TIP3   OH2 9692   4.717   5.829   2.752  0.0041 -0.4293  0.0673
 3243TIP3    H1 9693   4.765   5.889   2.695  0.2601 -1.0623 -0.4052
 3243TIP3    H2 9694   4.660   5.780   2.692  0.1898 -1.0208  0.3586
 3244TIP3   OH2 9695   6.494   6.483   3.764  0.3278  0.0805 -0.0222
 3244TIP3    H1 9696   6.489   6.393   3.733  1.4642  0.3136 -0.9032
 3244TIP3    H2 9697   6.444   6.533   3.699  0.8423  0.2699 -0.2704
 3245TIP3   OH2 9698   0.329   1.250   1.050  0.1794  0.0145  0.2830
 3245TIP3    H1 9699   0.381   1.296   1.116 -0.4921  1.4000 -0.1120
 3245TIP3    H2 9700   0.243   1.292   1.054  0.0165 -0.1186 -1.2094
 3246TIP3   OH2 9701   7.077   4.243   5.371 -0.2508 -0.5052  0.1593
 3246TIP3    H1 9702   7.148   4.278   5.424 -1.4008  3.5490 -0.6251
 3246TIP3    H2 9703   7.087   4.285   5.286 -3.2084 -0.2056 -0.1602
 3247TIP3   OH2 9704   0.787   1.081   3.794  0.0861 -0.2491 -0.3354
 3247TIP3    H1 9705   0.815   1.016   3.859 -1.6192 -1.1193 -0.4066
 3247TIP3    H2 9706   0.758   1.156   3.845  1.0288  0.0443 -0.2106
 3248TIP3   OH2 9707   4.433   1.691   1.743 -0.8711  0.0842 -0.3600
 3248TIP3    H1 9708   4.433   1.730   1.831 -1.1532 -1.5895  0.4381
 3248TIP3    H2 9709   4.506   1.628   1.746 -0.3011  0.6634 -1.6508
 3249TIP3   OH2 9710   4.682   4.701   4.991  0.1139  0.0510 -0.1122
 3249TIP3    H1 9711   4.633   4.624   4.961  1.2181 -1.1398  1.0469
 3249TIP3    H2 9712   4.614   4.766   5.008 -0.7958 -0.3661 -1.8318
 3250TIP3   OH2 9713   3.292   3.218   3.392  0.5592 -0.0153 -0.6240
 3250TIP3    H1 9714   3.354   3.166   3.443  1.1303  1.3541  0.1388
 3250TIP3    H2 9715   3.334   3.228   3.307  0.8542 -0.0536 -0.4853
 3251TIP3   OH2 9716   3.715   6.624   1.545  0.5494  0.3676 -0.1179
 3251TIP3    H1 9717   3.692   6.611   1.453  0.1589  1.4749 -0.1866
 3251TIP3    H2 9718   3.792   6.568   1.558  0.2818 -0.2164 -0.9681
 3252TIP3   OH2 9719   6.255   6.259   0.949 -0.0094 -0.3353  0.9386
 3252TIP3    H1 9720   6.217   6.343   0.975 -0.0829  0.3766 -1.2622
 3252TIP3    H2 9721   6.349   6.269   0.967 -0.0125  0.2598  0.6774
 3253TIP3   OH2 9722   2.787   4.265   0.312 -0.0140  0.1824  0.0579
 3253TIP3    H1 9723   2.724   4.221   0.255 -0.0186 -1.3672  1.1997
 3253TIP3    H2 9724   2.872   4.229   0.287 -0.1158 -1.3483  1.6602
 3254TIP3   OH2 9725   1.780   0.685   5.570  0.1896  0.2778 -0.4531
 3254TIP3    H1 9726   1.708   0.652   5.516 -0.9678 -0.4085  1.4116
 3254TIP3    H2 9727   1.745   0.765   5.609  0.1964 -0.3693  0.9203
 3255TIP3   OH2 9728   4.420   5.215   4.512  0.5895 -0.4726 -0.3700
 3255TIP3    H1 9729   4.367   5.209   4.592  0.8966 -1.1019 -0.2062
 3255TIP3    H2 9730   4.510   5.221   4.545  0.6532  0.2150 -0.6533
 3256TIP3   OH2 9731   1.116   5.191   5.339  0.1663  0.5061  0.6808
 3256TIP3    H1 9732   1.123   5.286   5.347  1.7554  0.5220 -0.4309
 3256TIP3    H2 9733   1.065   5.164   5.415 -0.3593  2.2422  0.9896
 3257TIP3   OH2 9734   2.841   2.173   5.619 -0.5640  0.1275  0.1749
 3257TIP3    H1 9735   2.840   2.234   5.545  1.0771  0.0573  0.0480
 3257TIP3    H2 9736   2.820   2.088   5.579  2.2955 -0.2947 -0.6921
 3258TIP3   OH2 9737   2.505   3.791   3.508 -0.3423  0.4250 -0.0087
 3258TIP3    H1 9738   2.482   3.699   3.517 -0.2670  0.4520  0.4424
 3258TIP3    H2 9739   2.428   3.838   3.538 -0.2894  0.5122 -0.0084
 3259TIP3   OH2 9740   3.371   1.384   1.384  0.0395  0.3399  0.2446
 3259TIP3    H1 9741   3.342   1.340   1.464  1.0505  0.4514  0.6856
 3259TIP3    H2 9742   3.441   1.328   1.350  0.0698  0.6430 -0.1994
 3260TIP3   OH2 9743   0.187   5.075   0.033  0.3766 -0.1547  0.7315
 3260TIP3    H1 9744   0.128   5.081  -0.042  0.0040 -0.6947  0.9753
 3260TIP3    H2 9745   0.188   5.163   0.071  1.5867  0.4818 -0.6600
 3261TIP3   OH2 9746   1.172   5.227   5.735  0.4602  0.2471  0.2631
 3261TIP3    H1 9747   1.242   5.169   5.764  0.6863  0.5669  0.3570
 3261TIP3    H2 9748   1.097   5.168   5.721  1.1639 -0.3493 -1.3492
 3262TIP3   OH2 9749   5.028   1.521   0.664  0.0612  0.3686 -0.3524
 3262TIP3    H1 9750   5.098   1.463   0.635 -1.3827 -1.4067 -0.5318
 3262TIP3    H2 9751   5.060   1.559   0.746  1.4928  0.1457 -0.7963
 3263TIP3   OH2 9752   6.776   0.545   3.058  0.0515 -0.6229  0.4723
 3263TIP3    H1 9753   6.724   0.493   2.996 -1.1192  1.0065  0.0388
 3263TIP3    H2 9754   6.807   0.480   3.122 -1.5052 -1.8618  0.0614
 3264TIP3   OH2 9755   3.213   0.100   2.129 -0.3609 -0.3884  0.6471
 3264TIP3    H1 9756   3.130   0.058   2.107 -0.9237  0.3129  1.3877
 3264TIP3    H2 9757   3.213   0.181   2.078  1.0633 -1.5746 -1.3735
 3265TIP3   OH2 9758   2.500   4.770   0.554  0.4902  0.0883  0.8799
 3265TIP3    H1 9759   2.415   4.741   0.587  0.4377  0.0632  0.7230
 3265TIP3    H2 9760   2.498   4.866   0.562 -0.1220  0.2125 -0.4648
 3266TIP3   OH2 9761   6.461   0.475   0.475 -0.1259  0.2271  0.3463
 3266TIP3    H1 9762   6.476   0.416   0.549  0.2697 -1.5336 -1.0549
 3266TIP3    H2 9763   6.549   0.495   0.442 -0.2969 -1.5431 -1.4570
 3267TIP3   OH2 9764   0.471   1.059   4.800 -0.2615 -0.0288  0.2904
 3267TIP3    H1 9765   0.535   0.991   4.777 -0.2609 -1.1570  3.2028
 3267TIP3    H2 9766   0.386   1.016   4.788 -0.3941  0.4613 -0.6297
 3268TIP3   OH2 9767   6.206   4.108   3.684 -0.6433 -0.2374  0.4444
 3268TIP3    H1 9768   6.146   4.181   3.699 -1.0923 -0.0445 -1.9054
 3268TIP3    H2 9769   6.150   4.030   3.681 -0.7027 -0.1629 -0.9166
 3269TIP3   OH2 9770   0.714   6.751   5.830 -0.4395 -0.3665  0.4691
 3269TIP3    H1 9771   0.792   6.807   5.828  2.4048 -3.8818  1.6533
 3269TIP3    H2 9772   0.730   6.685   5.763 -1.6607 -2.0242  1.7058
 3270TIP3   OH2 9773   1.044   6.598   5.099 -0.0275  0.0469 -0.2118
 3270TIP3    H1 9774   1.111   6.563   5.158  0.5543 -0.0898 -0.9393
 3270TIP3    H2 9775   0.982   6.526   5.087  0.8538 -0.5685 -1.2421
 3271TIP3   OH2 9776   0.518   4.785   4.497  0.0419  0.4444 -0.1481
 3271TIP3    H1 9777   0.606   4.812   4.471 -0.1244  1.1713  0.0356
 3271TIP3    H2 9778   0.527   4.756   4.587  0.1205  0.3815 -0.1767
 3272TIP3   OH2 9779   4.623   6.263   0.085  0.4496  0.1893  0.4390
 3272TIP3    H1 9780   4.662   6.183   0.050 -3.3763 -0.7314 -2.3704
 3272TIP3    H2 9781   4.614   6.246   0.179  1.2587 -1.9917  0.1794
 3273TIP3   OH2 9782   1.467   6.528   3.865  0.1511 -0.2423  0.0141
 3273TIP3    H1 9783   1.483   6.602   3.924  1.0394 -0.4481  0.0346
 3273TIP3    H2 9784   1.423   6.567   3.790  0.6853  0.3237 -0.0102
 3274TIP3   OH2 9785   0.181   1.910   2.524  0.0903 -0.3701  0.4003
 3274TIP3    H1 9786   0.207   1.987   2.473  0.0104 -0.4379  0.2571
 3274TIP3    H2 9787   0.216   1.835   2.475  0.9773 -0.3834  1.0162
 3275TIP3   OH2 9788   6.358   0.142   3.468 -0.0520 -0.4254  0.4207
 3275TIP3    H1 9789   6.299   0.193   3.413  1.0930 -0.0403 -0.4850
 3275TIP3    H2 9790   6.418   0.206   3.506 -0.2674 -0.7920  1.4143
 3276TIP3   OH2 9791   5.507   6.169   4.524 -0.4043 -0.2320 -0.1836
 3276TIP3    H1 9792   5.513   6.260   4.552 -0.9479 -0.1950 -0.1927
 3276TIP3    H2 9793   5.570   6.123   4.580 -0.2272  0.1267 -0.0883
 3277TIP3   OH2 9794   2.644   0.536   4.108  0.1074 -0.0478  0.3647
 3277TIP3    H1 9795   2.675   0.626   4.097  0.9596 -0.2653  0.8887
 3277TIP3    H2 9796   2.723   0.486   4.128 -0.6998 -0.4146  2.9722
 3278TIP3   OH2 9797   6.667   6.243   3.730  0.2465 -0.4178  0.4228
 3278TIP3    H1 9798   6.729   6.315   3.718 -1.7748  1.5840  1.4376
 3278TIP3    H2 9799   6.718   6.165   3.708  2.4562  1.2855 -1.0138
 3279TIP3   OH2 9800   2.878   0.263   1.549 -0.0455  0.4101 -0.0506
 3279TIP3    H1 9801   2.962   0.305   1.527  0.3401 -0.9459 -1.3711
 3279TIP3    H2 9802   2.812   0.320   1.511  0.5052 -0.5370 -2.6093
 3280TIP3   OH2 9803   2.151   5.718   5.523  0.2104 -0.2768  0.2665
 3280TIP3    H1 9804   2.244   5.716   5.498  0.2491 -0.4588  0.4230
 3280TIP3    H2 9805   2.124   5.809   5.509  0.1218 -0.4592 -0.8420
 3281TIP3   OH2 9806   6.951   0.617   1.042 -0.5856  0.3080  0.3357
 3281TIP3    H1 9807   6.971   0.624   0.948 -0.1942 -0.8163  0.3165
 3281TIP3    H2 9808   6.890   0.688   1.059 -1.1025  0.1839 -0.9017
 3282TIP3   OH2 9809   2.606   0.752   1.001  0.2205  0.2405  0.2134
 3282TIP3    H1 9810   2.621   0.835   1.046 -0.2036  0.3806  0.1053
 3282TIP3    H2 9811   2.644   0.686   1.059  0.6502  0.5198  0.2484
 3283TIP3   OH2 9812   6.871   4.950   5.728 -0.2466  0.1472 -0.1005
 3283TIP3    H1 9813   6.792   4.897   5.721  0.1340 -0.5744  0.8626
 3283TIP3    H2 9814   6.934   4.908   5.670  0.0557 -0.4939  0.6632
 3284TIP3   OH2 9815   1.591   4.924   2.101  0.1565  0.0350  0.0552
 3284TIP3    H1 9816   1.544   4.903   2.021  0.2409 -0.6843  0.1905
 3284TIP3    H2 9817   1.641   5.003   2.080 -2.0371  1.6131  0.2553
 3285TIP3   OH2 9818   5.517   5.534   2.622  0.5628 -0.1742  0.4614
 3285TIP3    H1 9819   5.554   5.500   2.540  0.0575  1.2363 -0.4026
 3285TIP3    H2 9820   5.441   5.479   2.638  0.6810 -0.4875 -0.0045
 3286TIP3   OH2 9821   5.218   2.198   2.356 -0.1235  0.2137 -0.4846
 3286TIP3    H1 9822   5.242   2.128   2.416  0.4790 -0.2146 -1.2166
 3286TIP3    H2 9823   5.274   2.186   2.279 -1.5276  0.1683 -1.5573
 3287TIP3   OH2 9824   6.165   2.914   0.551 -0.1095  0.1391 -0.2735
 3287TIP3    H1 9825   6.195   2.833   0.509 -1.3327  1.1274 -3.3279
 3287TIP3    H2 9826   6.071   2.902   0.563  0.1074  0.1066  1.9156
 3288TIP3   OH2 9827   4.658   4.910   1.330 -0.0672 -0.2062  0.0748
 3288TIP3    H1 9828   4.748   4.878   1.337 -0.0102 -0.9475 -2.6548
 3288TIP3    H2 9829   4.666   4.994   1.284 -0.8000 -1.5014 -2.6701
 3289TIP3   OH2 9830   3.197   6.135   4.804 -1.0185 -0.7067 -0.4397
 3289TIP3    H1 9831   3.256   6.083   4.751 -0.8821 -0.1500 -0.8402
 3289TIP3    H2 9832   3.156   6.072   4.863  0.0461 -1.0820 -0.0800
 3290TIP3   OH2 9833   4.353   5.521   5.174 -0.1894  0.2036 -0.0281
 3290TIP3    H1 9834   4.443   5.549   5.191 -0.4314  0.2507  1.3343
 3290TIP3    H2 9835   4.345   5.439   5.223 -1.3418  1.0058  1.1760
 3291TIP3   OH2 9836   4.690   4.258   3.785  0.4920  0.1220  0.1997
 3291TIP3    H1 9837   4.685   4.347   3.749 -0.2060 -0.1672 -0.4449
 3291TIP3    H2 9838   4.622   4.256   3.852  1.1774  0.3742  0.9178
 3292TIP3   OH2 9839   2.811   1.312   5.289  0.0288  0.1176  0.0045
 3292TIP3    H1 9840   2.853   1.364   5.221  1.0981 -0.1564  0.4349
 3292TIP3    H2 9841   2.718   1.337   5.285 -0.3339 -1.3176 -2.8486
 3293TIP3   OH2 9842   2.939   5.606   5.004 -0.0443 -0.0801  0.2562
 3293TIP3    H1 9843   3.017   5.586   5.056  0.2499  1.5261  0.4923
 3293TIP3    H2 9844   2.970   5.605   4.914  0.9057  2.9205  0.4541
 3294TIP3   OH2 9845   2.957   6.300   5.037  0.1807 -0.2068  0.1712
 3294TIP3    H1 9846   3.017   6.255   5.095  0.9931 -0.6918 -1.0039
 3294TIP3    H2 9847   3.013   6.347   4.975 -0.6532  1.6135  0.7369
 3295TIP3   OH2 9848   6.165   5.682  -0.019  0.4491  0.1366  0.1416
 3295TIP3    H1 9849   6.212   5.746   0.034 -1.7070  1.8741  0.1045
 3295TIP3    H2 9850   6.133   5.618   0.044 -0.1416  0.9307  0.6762
 3296TIP3   OH2 9851   4.689   5.515   5.673  0.2932 -0.6196 -0.1477
 3296TIP3    H1 9852   4.735   5.598   5.664 -0.4078 -0.3128 -1.2470
 3296TIP3    H2 9853   4.708   5.485   5.762  1.1083  0.3752  0.0279
 3297TIP3   OH2 9854   5.814   4.696   5.023  0.2355  0.4974  0.0155
 3297TIP3    H1 9855   5.781   4.613   4.990 -1.7447  1.6821 -1.2042
 3297TIP3    H2 9856   5.870   4.672   5.097 -1.4211 -1.8285  0.6262
 3298TIP3   OH2 9857   1.604   5.511   2.536 -0.1967 -0.4687  0.2628
 3298TIP3    H1 9858   1.581   5.419   2.552 -0.1239 -0.3819  0.8835
 3298TIP3    H2 9859   1.694   5.518   2.568 -0.2083 -0.1734  0.2260
 3299TIP3   OH2 9860   3.951   1.035   2.177  0.0896  0.5478  0.2824
 3299TIP3    H1 9861   3.932   0.956   2.229 -0.2389  0.3064 -0.1992
 3299TIP3    H2 9862   4.044   1.052   2.193 -0.0282  0.5281  1.0248
 3300TIP3   OH2 9863   3.082   5.717   3.751  0.0048 -0.4373 -0.0954
 3300TIP3    H1 9864   3.109   5.794   3.802 -0.5504  1.4642 -2.5224
 3300TIP3    H2 9865   3.140   5.717   3.675 -1.1301 -1.4323 -0.9849
 3301TIP3   OH2 9866   4.641   5.597   4.244  0.0573  0.2563  0.5845
 3301TIP3    H1 9867   4.659   5.691   4.238 -1.0756  0.4053 -1.2471
 3301TIP3    H2 9868   4.566   5.590   4.302  0.4849  0.4290  1.1615
 3302TIP3   OH2 9869   4.904   1.374   5.414 -0.5522  0.2498  0.1515
 3302TIP3    H1 9870   4.854   1.424   5.479 -0.0313 -0.3584  1.0351
 3302TIP3    H2 9871   4.932   1.440   5.350  1.0593  1.3196  1.8567
 3303TIP3   OH2 9872   5.767   3.084   4.353 -0.7753 -0.0969 -0.4232
 3303TIP3    H1 9873   5.842   3.059   4.407 -1.4488 -0.9301  0.1519
 3303TIP3    H2 9874   5.776   3.178   4.341 -0.2087 -0.0237  0.5172
 3304TIP3   OH2 9875   5.172   1.141   2.362  0.1344  0.1096  0.3070
 3304TIP3    H1 9876   5.154   1.230   2.332  0.6594  0.0991 -0.0583
 3304TIP3    H2 9877   5.156   1.086   2.286 -2.4761 -0.4140  1.1305
 3305TIP3   OH2 9878   4.641   6.625   3.008  0.2769 -0.4193  0.0163
 3305TIP3    H1 9879   4.654   6.705   3.060 -0.2960 -1.6674  2.2317
 3305TIP3    H2 9880   4.553   6.596   3.032  0.5119 -1.7648 -0.6672
 3306TIP3   OH2 9881   3.450   3.923   5.601  0.0032  0.5793 -0.0593
 3306TIP3    H1 9882   3.508   3.886   5.668  1.3079  0.8342 -1.0211
 3306TIP3    H2 9883   3.427   3.848   5.546  1.4530  0.8935 -1.1360
 3307TIP3   OH2 9884   4.356   6.329   5.319  0.3470 -0.4477 -0.3150
 3307TIP3    H1 9885   4.357   6.280   5.402 -0.2284 -0.7520 -0.4810
 3307TIP3    H2 9886   4.412   6.405   5.335 -1.5968  0.7745  1.1513
 3308TIP3   OH2 9887   1.100   6.224   3.271 -0.0479 -0.2035 -0.0821
 3308TIP3    H1 9888   1.138   6.277   3.341 -0.5053 -0.0991  0.0913
 3308TIP3    H2 9889   1.141   6.258   3.191  0.0869  0.0321  0.0848
 3309TIP3   OH2 9890   1.031   3.421   0.275 -0.2399 -0.5036  0.2222
 3309TIP3    H1 9891   0.999   3.361   0.208  0.3450 -1.1738  0.5372
 3309TIP3    H2 9892   1.116   3.385   0.302  0.6694  1.0865 -0.3916
 3310TIP3   OH2 9893   6.704   2.228   0.760  0.1732  1.0191 -0.4802
 3310TIP3    H1 9894   6.794   2.226   0.790  0.1522  1.7923 -0.3473
 3310TIP3    H2 9895   6.666   2.306   0.801 -0.6484  0.5297 -0.2765
 3311TIP3   OH2 9896   4.819   3.351   5.211  0.3848  0.3464 -0.5813
 3311TIP3    H1 9897   4.911   3.334   5.235  0.7006  0.4824 -1.6216
 3311TIP3    H2 9898   4.824   3.424   5.148 -0.3269 -0.3541 -1.4786
 3312TIP3   OH2 9899   0.789   1.028   0.902  0.7846  0.7982  0.2626
 3312TIP3    H1 9900   0.701   1.065   0.905  0.3139  0.4562 -3.8730
 3312TIP3    H2 9901   0.776   0.933   0.899  1.5901  0.5145  2.7963
 3313TIP3   OH2 9902   4.124   3.406   0.327  0.4533  0.2284  0.1791
 3313TIP3    H1 9903   4.199   3.460   0.353  0.7284  0.1300 -0.3753
 3313TIP3    H2 9904   4.139   3.321   0.368 -0.3339  0.7652  1.6196
 3314TIP3   OH2 9905   6.408   1.836   5.641  0.3739  0.4612 -0.2421
 3314TIP3    H1 9906   6.493   1.800   5.668 -0.4625 -1.6438 -0.2255
 3314TIP3    H2 9907   6.385   1.786   5.562 -1.6694 -0.3166  0.7838
 3315TIP3   OH2 9908   1.515   5.397   4.129  0.7745  0.2969  0.2919
 3315TIP3    H1 9909   1.496   5.322   4.186  0.4679 -1.0059 -1.4275
 3315TIP3    H2 9910   1.551   5.463   4.188  1.3278 -1.2982  1.8523
 3316TIP3   OH2 9911   5.731   2.806   4.721 -0.5079 -0.0333 -0.4297
 3316TIP3    H1 9912   5.723   2.786   4.814 -1.5850 -1.6781 -0.8313
 3316TIP3    H2 9913   5.819   2.843   4.711  0.4093 -1.7223  0.9358
 3317TIP3   OH2 9914   5.722   1.973   4.037  0.4427 -0.0944 -0.0347
 3317TIP3    H1 9915   5.636   1.960   4.077  0.2343 -2.8475 -1.1579
 3317TIP3    H2 9916   5.779   1.911   4.083  1.2071 -0.1597 -1.0508
 3318TIP3   OH2 9917   3.455   5.319   0.306 -0.2915 -0.3071 -0.3756
 3318TIP3    H1 9918   3.482   5.393   0.359 -1.8938 -0.2297  0.3989
 3318TIP3    H2 9919   3.493   5.243   0.350  1.3275  0.0097 -1.1541
 3319TIP3   OH2 9920   1.770   5.864   1.024 -0.1127 -0.3382 -0.2688
 3319TIP3    H1 9921   1.803   5.784   1.066  0.6387  0.4074  0.6089
 3319TIP3    H2 9922   1.728   5.913   1.094  0.6055  0.6451 -0.5010
 3320TIP3   OH2 9923   5.207   2.329   1.799 -0.1341 -0.1037 -0.1972
 3320TIP3    H1 9924   5.275   2.388   1.831  0.5170 -1.1104  0.3077
 3320TIP3    H2 9925   5.247   2.242   1.802 -1.2411 -0.6386 -0.4666
 3321TIP3   OH2 9926   1.467   1.214   4.375  0.4884  0.4234 -0.1092
 3321TIP3    H1 9927   1.449   1.287   4.315 -0.5932 -0.9201 -1.5231
 3321TIP3    H2 9928   1.537   1.164   4.331  2.5928  1.5504  1.7527
 3322TIP3   OH2 9929   6.082   3.422   2.169  0.0402  0.3593  0.6733
 3322TIP3    H1 9930   6.025   3.488   2.210 -0.2321  1.2186 -1.0103
 3322TIP3    H2 9931   6.026   3.379   2.104 -0.3833 -2.9485  2.9647
 3323TIP3   OH2 9932   5.572   1.816   3.547  0.0053  0.9873  0.4346
 3323TIP3    H1 9933   5.593   1.737   3.496 -3.1254 -0.0394  0.5113
 3323TIP3    H2 9934   5.645   1.875   3.531  1.4126 -1.0959 -1.4274
 3324TIP3   OH2 9935   4.635   3.445   2.405 -0.2435  0.1266 -0.1093
 3324TIP3    H1 9936   4.620   3.475   2.315  1.6055 -0.5947 -0.7119
 3324TIP3    H2 9937   4.686   3.515   2.446 -1.3644  0.6034  0.5142
 3325TIP3   OH2 9938   5.032   0.682   1.428 -0.5349 -0.4623 -0.5026
 3325TIP3    H1 9939   4.937   0.690   1.419 -0.7950 -1.5181  0.8768
 3325TIP3    H2 9940   5.068   0.753   1.375 -2.1166  0.6233 -0.1644
 3326TIP3   OH2 9941   2.270   4.613   4.872  0.0903  0.2837 -0.0107
 3326TIP3    H1 9942   2.295   4.628   4.963  0.5504 -0.9159  0.0873
 3326TIP3    H2 9943   2.329   4.544   4.843  0.1924  0.9072 -1.3420
 3327TIP3   OH2 9944   1.295   3.047   4.345  0.0339 -0.1890 -0.0723
 3327TIP3    H1 9945   1.385   3.018   4.330  0.5105  0.8269  0.7589
 3327TIP3    H2 9946   1.289   3.132   4.302 -0.8650 -0.7147 -1.0410
 3328TIP3   OH2 9947   6.677   4.908   3.961 -0.4132  0.2589  0.1036
 3328TIP3    H1 9948   6.582   4.902   3.957 -0.4443  1.2092 -1.6352
 3328TIP3    H2 9949   6.695   4.947   4.046 -1.5828  0.2283  0.3827
 3329TIP3   OH2 9950   3.030   6.027   3.160  0.0181 -0.0101 -0.2527
 3329TIP3    H1 9951   2.991   6.115   3.154  0.0519 -0.0028 -0.3614
 3329TIP3    H2 9952   3.069   6.012   3.074  0.3090  0.0071 -0.1250
 3330TIP3   OH2 9953   2.418   1.080   0.176 -0.5811 -0.1980 -0.3594
 3330TIP3    H1 9954   2.354   1.121   0.235 -1.0014 -1.2971 -0.0331
 3330TIP3    H2 9955   2.450   1.152   0.122 -1.5726  0.4954 -0.0474
 3331TIP3   OH2 9956   7.001   1.440   4.733  0.3214 -0.2708  0.1627
 3331TIP3    H1 9957   6.952   1.384   4.673  1.0272 -1.8471  0.9903
 3331TIP3    H2 9958   6.994   1.396   4.818  0.9193  0.8946  0.8443
 3332TIP3   OH2 9959   5.288   6.653   0.425  0.1777  0.1557 -0.7132
 3332TIP3    H1 9960   5.224   6.718   0.456 -0.4803  0.1651 -2.0186
 3332TIP3    H2 9961   5.361   6.706   0.392  0.7723  0.1501  0.5300
 3333TIP3   OH2 9962   0.165   6.161   2.466  0.7587 -0.1333 -0.0597
 3333TIP3    H1 9963   0.202   6.249   2.457 -0.5399  0.4356  0.0290
 3333TIP3    H2 9964   0.153   6.130   2.376 -2.2352  1.2979 -0.2584
 3334TIP3   OH2 9965   0.820   0.913   3.070  0.3618 -0.0041  0.3986
 3334TIP3    H1 9966   0.802   0.821   3.086 -1.0247  0.0840 -0.5049
 3334TIP3    H2 9967   0.746   0.959   3.107  1.5344  0.8607  1.7674
 3335TIP3   OH2 9968   6.542   5.774   4.598 -0.2803 -0.0196  0.1489
 3335TIP3    H1 9969   6.518   5.761   4.506 -1.3762  0.8052  0.2804
 3335TIP3    H2 9970   6.526   5.868   4.613  2.5187  0.4805  0.4705
 3336TIP3   OH2 9971   3.893   2.597   3.443  1.3681  0.2250 -0.3446
 3336TIP3    H1 9972   3.863   2.585   3.353  2.9207 -0.8110 -0.7795
 3336TIP3    H2 9973   3.813   2.607   3.495  0.3786 -0.8332 -1.6128
 3337TIP3   OH2 9974   0.962   5.833   1.437 -0.0245 -0.1724  0.5098
 3337TIP3    H1 9975   0.972   5.813   1.344 -0.8572 -0.2817  0.4397
 3337TIP3    H2 9976   0.988   5.925   1.445  0.3290 -0.2456  0.2221
 3338TIP3   OH2 9977   1.584   5.851   0.785 -0.1877  0.6298  0.0168
 3338TIP3    H1 9978   1.640   5.825   0.858 -1.1911 -0.2369  0.5105
 3338TIP3    H2 9979   1.496   5.829   0.814 -0.4602 -1.8050 -2.2714
 3339TIP3   OH2 9980   2.947   0.065   0.840 -0.5217  0.0227 -0.0314
 3339TIP3    H1 9981   2.910   0.084   0.753  1.1674  3.2882 -0.2025
 3339TIP3    H2 9982   2.874   0.079   0.900 -1.1218  0.1287 -0.7644
 3340TIP3   OH2 9983   2.518   4.103   0.302 -0.0411  0.2221  0.1473
 3340TIP3    H1 9984   2.520   4.101   0.398 -0.4894 -1.6067  0.1614
 3340TIP3    H2 9985   2.600   4.059   0.276 -0.6548 -0.7010 -0.2714
 3341TIP3   OH2 9986   2.108   0.757   0.834 -0.1425 -0.3900  0.0295
 3341TIP3    H1 9987   2.160   0.786   0.908  1.1692 -1.6908 -0.3310
 3341TIP3    H2 9988   2.075   0.838   0.794  0.4148  0.3909  1.1077
 3342TIP3   OH2 9989   1.882   0.957   2.183  0.0143  0.4233  0.2726
 3342TIP3    H1 9990   1.921   1.012   2.251 -0.6490  0.2745  0.7794
 3342TIP3    H2 9991   1.815   0.906   2.228  0.6298 -0.8446 -0.1661
 3343TIP3   OH2 9992   3.294   2.821   0.301  0.0142 -0.1804  0.3224
 3343TIP3    H1 9993   3.252   2.903   0.329  0.6425  0.8069 -1.4683
 3343TIP3    H2 9994   3.232   2.783   0.239 -0.1915 -0.9875  1.0146
 3344TIP3   OH2 9995   0.861   0.417   0.789  0.7109 -0.3682  0.0348
 3344TIP3    H1 9996   0.894   0.477   0.856 -2.4038  0.5437  0.9302
 3344TIP3    H2 9997   0.815   0.474   0.727 -0.0859 -1.5986 -0.5429
 3345TIP3   OH2 9998   5.804   5.283   2.737 -0.0721  0.0897  0.1581
 3345TIP3    H1 9999   5.851   5.361   2.770 -3.1830  1.4715  1.7243
 3345TIP3    H210000   5.825   5.215   2.801  1.1349  0.1701 -0.1279
 3346TIP3   OH210001   2.799   0.042   4.646  0.8595  0.1534 -0.7476
 3346TIP3    H110002   2.736   0.087   4.590 -0.8057  0.2821  1.1273
 3346TIP3    H210003   2.866   0.108   4.664  1.3579  0.1489 -2.4051
 3347TIP3   OH210004   3.841   1.938   1.738  0.2058  0.1920 -0.3392
 3347TIP3    H110005   3.848   1.865   1.677  0.8398  0.1931 -0.2672
 3347TIP3    H210006   3.747   1.944   1.757  0.0185  0.1271 -1.2260
 3348TIP3   OH210007   6.431   3.329   4.239 -1.1328 -0.6054  0.2656
 3348TIP3    H110008   6.452   3.246   4.283  1.5437 -0.2262 -0.1078
 3348TIP3    H210009   6.361   3.367   4.292 -1.4524 -2.4478  1.2539
 3349TIP3   OH210010   5.902   5.736   3.466  0.2223 -0.2291  0.0028
 3349TIP3    H110011   5.954   5.815   3.451  1.0520 -1.1356 -2.2613
 3349TIP3    H210012   5.819   5.754   3.422  0.1743 -0.3844  0.0310
 3350TIP3   OH210013   4.564   6.566   5.475  0.4883 -1.0124 -0.7421
 3350TIP3    H110014   4.634   6.505   5.449  1.1267 -0.5977 -0.0493
 3350TIP3    H210015   4.592   6.650   5.438  1.8067 -0.2441  1.8089
 3351TIP3   OH210016   6.947   4.506   5.431  0.7128  0.0318  0.0145
 3351TIP3    H110017   7.018   4.456   5.470  1.2367  0.4558 -0.3911
 3351TIP3    H210018   6.990   4.579   5.386  0.0103  0.4213 -0.0387
 3352TIP3   OH210019   4.661   5.844   0.803 -0.4893 -0.4402  0.1468
 3352TIP3    H110020   4.676   5.911   0.870 -2.6876  1.3942 -1.0639
 3352TIP3    H210021   4.748   5.831   0.764  0.1723  1.1022  0.9735
 3353TIP3   OH210022   2.182   4.164   1.659 -0.0282  0.1732 -0.7040
 3353TIP3    H110023   2.091   4.194   1.652  0.1321  0.5485 -1.2337
 3353TIP3    H210024   2.229   4.213   1.591  0.3435 -0.8964 -1.2339
 3354TIP3   OH210025   3.042   6.619   1.912  0.3674  0.1642  0.1771
 3354TIP3    H110026   2.992   6.538   1.912  0.6649 -0.0278 -0.4572
 3354TIP3    H210027   3.000   6.673   1.978 -0.1129 -0.3375  0.2910
 3355TIP3   OH210028   5.775   3.953   1.211 -0.0781 -0.4881 -0.4977
 3355TIP3    H110029   5.752   3.948   1.304  0.2115 -0.8233 -0.4444
 3355TIP3    H210030   5.700   3.998   1.171  1.0639  2.3760  0.3454
 3356TIP3   OH210031   0.527   3.557   0.014  0.1680  0.2382 -0.5029
 3356TIP3    H110032   0.487   3.634   0.055 -0.2382  0.2657 -0.9469
 3356TIP3    H210033   0.581   3.519   0.084  1.9923  2.0270 -0.8383
 3357TIP3   OH210034   0.846   1.400   0.554 -0.2488 -0.4722 -0.6878
 3357TIP3    H110035   0.814   1.448   0.478 -0.5805 -0.0721 -0.3010
 3357TIP3    H210036   0.824   1.308   0.535 -2.2960 -0.1599 -0.1562
 3358TIP3   OH210037   5.680   2.155   1.955  0.2051 -0.2941  0.1080
 3358TIP3    H110038   5.708   2.091   1.890 -0.7939 -0.2541 -0.3917
 3358TIP3    H210039   5.657   2.233   1.904  2.2617  0.8090  0.7868
 3359TIP3   OH210040   1.507   6.410   1.465  0.6210 -0.5060  0.2307
 3359TIP3    H110041   1.426   6.435   1.421 -0.0364  1.1910  2.2716
 3359TIP3    H210042   1.494   6.318   1.489 -0.0255 -0.7049 -0.8254
 3360TIP3   OH210043   2.349   2.429   4.457 -0.0610 -0.4080  0.1433
 3360TIP3    H110044   2.390   2.514   4.474  0.1407 -0.5055  0.1486
 3360TIP3    H210045   2.272   2.428   4.514 -0.4860  0.0775 -0.3982
 3361TIP3   OH210046   4.555   2.893   2.452  0.7980 -0.5661 -0.0418
 3361TIP3    H110047   4.564   2.986   2.431 -1.7254 -0.3371 -0.3685
 3361TIP3    H210048   4.538   2.891   2.546  0.6774 -0.6831 -0.0661
 3362TIP3   OH210049   5.755   3.013   3.599 -0.0899 -0.5360  0.0384
 3362TIP3    H110050   5.805   2.959   3.537 -1.2895  1.5510 -2.9702
 3362TIP3    H210051   5.665   2.982   3.591 -0.3499  0.1323  0.2834
 3363TIP3   OH210052   0.321   4.714   3.603 -0.2691  0.4178 -0.2279
 3363TIP3    H110053   0.289   4.667   3.679 -0.7944  0.5264 -0.3804
 3363TIP3    H210054   0.324   4.806   3.631  1.0445  0.2807  0.1698
 3364TIP3   OH210055   0.126   1.236   3.340  0.1275  0.5942  0.1081
 3364TIP3    H110056   0.071   1.157   3.332 -1.4417  1.6062  0.4477
 3364TIP3    H210057   0.085   1.286   3.410  0.9104  1.8587 -0.3146
 3365TIP3   OH210058   5.093   6.598   1.262  0.5400  0.3322 -0.2314
 3365TIP3    H110059   5.109   6.640   1.177  0.5734 -1.3284 -1.0865
 3365TIP3    H210060   5.109   6.667   1.326  2.8494  1.0226 -1.4528
 3366TIP3   OH210061   3.882   0.958   5.248  0.5683 -0.0556  0.2204
 3366TIP3    H110062   3.898   1.051   5.233 -1.4193  0.1743 -0.8414
 3366TIP3    H210063   3.889   0.948   5.343 -0.8078  1.5466  0.5391
 3367TIP3   OH210064   3.611   2.672   2.983  0.6004  0.4440  0.0598
 3367TIP3    H110065   3.671   2.690   2.910  0.4107 -0.5440 -0.3599
 3367TIP3    H210066   3.600   2.757   3.027  0.6829  1.0709 -1.0854
 3368TIP3   OH210067   6.511   4.415   4.185  0.7244 -0.6230  0.1215
 3368TIP3    H110068   6.497   4.325   4.155  1.9233 -0.3237 -1.5082
 3368TIP3    H210069   6.455   4.424   4.262 -1.0877 -2.0773 -0.9411
 3369TIP3   OH210070   4.074   6.416   4.474 -0.1662 -0.4840 -0.4157
 3369TIP3    H110071   4.048   6.401   4.383 -1.6592 -1.1712  0.0904
 3369TIP3    H210072   4.123   6.498   4.472 -2.2972  0.8555 -1.5089
 3370TIP3   OH210073   1.773   1.720   2.179 -0.0628  0.2073  0.0431
 3370TIP3    H110074   1.791   1.772   2.101  1.6381  1.2442  1.0856
 3370TIP3    H210075   1.839   1.650   2.177  1.3646  1.4396  1.5735
 3371TIP3   OH210076   4.951   1.724   5.607 -0.2312  0.1377 -0.2087
 3371TIP3    H110077   5.033   1.682   5.580 -0.1215  0.9845 -1.2944
 3371TIP3    H210078   4.947   1.803   5.554 -1.7873  0.0815 -0.2188
 3372TIP3   OH210079   6.454   6.228   2.775 -0.1287  0.1213 -0.1790
 3372TIP3    H110080   6.392   6.177   2.722  0.1775 -0.4555  0.0155
 3372TIP3    H210081   6.497   6.163   2.830 -1.3490  0.8369  1.7299
 3373TIP3   OH210082   0.585   3.096   1.830  0.2571 -0.5827  0.4648
 3373TIP3    H110083   0.615   3.096   1.921  1.1533  2.3306  0.2822
 3373TIP3    H210084   0.493   3.119   1.835  0.9822  2.8467  0.6576
 3374TIP3   OH210085   4.132   6.739   2.980  0.3158 -0.1313  0.0111
 3374TIP3    H110086   4.164   6.829   2.982  2.8990 -0.9773  1.1573
 3374TIP3    H210087   4.071   6.737   2.906  0.5707  2.4076 -0.3538
 3375TIP3   OH210088   4.759   1.313   5.732 -0.7016  0.0420  0.3625
 3375TIP3    H110089   4.850   1.339   5.746 -0.6804 -0.5159  1.4380
 3375TIP3    H210090   4.716   1.390   5.695  0.9340 -0.6966 -3.5485
 3376TIP3   OH210091   1.837   2.672   3.549  0.2893  0.2627 -0.3723
 3376TIP3    H110092   1.765   2.673   3.486  0.9288  2.0818 -1.1423
 3376TIP3    H210093   1.812   2.736   3.616  1.6177  1.7019 -1.2026
 3377TIP3   OH210094   4.925   6.227   4.282  0.0101 -0.5408 -0.1020
 3377TIP3    H110095   4.902   6.188   4.198  1.5433 -2.0957  0.1656
 3377TIP3    H210096   5.006   6.275   4.265 -0.4665  0.4080  0.1852
 3378TIP3   OH210097   4.305   2.294   1.392  0.9589  0.3083  0.5008
 3378TIP3    H110098   4.386   2.326   1.354  1.0355 -0.6248 -0.1487
 3378TIP3    H210099   4.331   2.258   1.477  1.0276  1.0255  0.7930
 3379TIP3   OH210100   0.888   3.326   0.963  0.0926  0.1309 -0.0300
 3379TIP3    H110101   0.922   3.245   0.999  1.3849  0.4960 -0.3888
 3379TIP3    H210102   0.900   3.318   0.869 -1.9425 -0.2129 -0.3142
 3380TIP3   OH210103   3.870   0.094   1.721 -0.3968  0.2375 -0.6602
 3380TIP3    H110104   3.774   0.091   1.722 -0.3836 -0.9755  0.5163
 3380TIP3    H210105   3.895   0.023   1.663 -0.1739  1.8076 -2.5978
 3381TIP3   OH210106   5.589   2.597   3.861  0.4821  0.2481  0.2895
 3381TIP3    H110107   5.494   2.602   3.847  0.4001  0.0307  0.7719
 3381TIP3    H210108   5.606   2.505   3.881  0.6312  0.5031  1.3777
 3382TIP3   OH210109   2.073   6.569   0.539 -0.7907 -0.6130  0.4737
 3382TIP3    H110110   2.045   6.557   0.448 -0.0504 -0.3423  0.2013
 3382TIP3    H210111   2.033   6.496   0.586 -0.4347 -1.2809 -0.2376
 3383TIP3   OH210112   5.037   2.134   2.608  0.6991 -0.0468 -0.1031
 3383TIP3    H110113   5.074   2.215   2.643  1.0591  0.1135 -0.8527
 3383TIP3    H210114   5.005   2.158   2.521  0.4118 -0.6076 -0.1524
 3384TIP3   OH210115   6.766   5.125   0.242  0.8289 -0.4728  0.2248
 3384TIP3    H110116   6.777   5.078   0.325  2.0187 -1.1442 -0.2837
 3384TIP3    H210117   6.675   5.107   0.216  0.5128 -0.4338  1.2606
 3385TIP3   OH210118   0.634   6.118   3.915  0.2176 -0.4304  0.2832
 3385TIP3    H110119   0.608   6.197   3.870  1.0355 -0.8267 -0.9299
 3385TIP3    H210120   0.714   6.090   3.872  1.0266 -0.8666  1.9529
 3386TIP3   OH210121   2.716   4.487   0.510  0.0468 -0.2529  0.3976
 3386TIP3    H110122   2.737   4.396   0.488 -0.1428 -0.7981  2.2696
 3386TIP3    H210123   2.799   4.527   0.532  0.2102  0.2380 -0.9820
 3387TIP3   OH210124   5.016   0.787   2.155  0.0674 -0.4125  0.2241
 3387TIP3    H110125   5.091   0.847   2.152 -0.8678  0.7404 -1.1320
 3387TIP3    H210126   4.963   0.818   2.229 -0.5756  0.6789 -0.6660
 3388TIP3   OH210127   0.386   6.242   4.939 -0.2691  0.1509  0.3087
 3388TIP3    H110128   0.449   6.309   4.965 -1.7810  1.8289 -0.1884
 3388TIP3    H210129   0.354   6.269   4.853 -2.1919 -0.2155  0.8436
 3389TIP3   OH210130   1.993   1.539   2.334  0.2254 -0.2471 -0.2054
 3389TIP3    H110131   1.981   1.491   2.416  0.4068  1.0581  0.6224
 3389TIP3    H210132   2.001   1.631   2.361  0.1680  0.2284 -1.7000
 3390TIP3   OH210133   3.025   0.647   4.331  0.1368 -0.6710 -0.6223
 3390TIP3    H110134   3.014   0.714   4.398 -2.1293 -0.7197 -0.8792
 3390TIP3    H210135   3.120   0.636   4.323  0.5179  1.4575  0.4347
 3391TIP3   OH210136   1.318   6.115   1.065  0.4471  0.3087  0.2129
 3391TIP3    H110137   1.375   6.191   1.079  1.0800 -0.3730  1.5205
 3391TIP3    H210138   1.323   6.066   1.147 -1.6994 -0.0036  0.2276
 3392TIP3   OH210139   6.091   6.063   1.144 -0.2198  0.4256  0.2045
 3392TIP3    H110140   6.001   6.035   1.161 -0.7978  2.3641  0.6244
 3392TIP3    H210141   6.100   6.144   1.194  1.8050  0.2209  0.2414
 3393TIP3   OH210142   0.538   2.596   1.590 -0.7104 -0.0309  0.1095
 3393TIP3    H110143   0.544   2.645   1.672  0.6515  0.5216 -0.2889
 3393TIP3    H210144   0.527   2.664   1.523 -0.3654 -0.3818 -0.3019
 3394TIP3   OH210145   0.266   2.709   4.571 -0.0069 -0.5218  0.7460
 3394TIP3    H110146   0.316   2.750   4.642  0.9768 -2.9171  1.5235
 3394TIP3    H210147   0.174   2.723   4.596  0.2878  0.7373  1.2125
 3395TIP3   OH210148   1.100   0.482   4.979  0.3049 -0.4003  0.3866
 3395TIP3    H110149   1.024   0.530   4.945  1.8499  1.7591 -0.1697
 3395TIP3    H210150   1.124   0.528   5.059  0.7052 -1.4296  0.8780
 3396TIP3   OH210151   2.614   1.983   5.376  0.1749  0.0813 -0.1121
 3396TIP3    H110152   2.561   2.029   5.440  1.5502  1.8435 -0.1470
 3396TIP3    H210153   2.685   1.943   5.427 -1.3056 -2.6555 -0.0005
 3397TIP3   OH210154   6.932   5.256   5.248 -0.7141  0.8619  0.3244
 3397TIP3    H110155   6.978   5.332   5.213 -0.5358  0.8731  0.5804
 3397TIP3    H210156   6.856   5.245   5.190 -0.5905  1.0664  0.1225
 3398TIP3   OH210157   2.892   6.296   5.478 -0.0049  0.5097 -0.0303
 3398TIP3    H110158   2.940   6.338   5.549 -0.6041  0.7718  0.2320
 3398TIP3    H210159   2.886   6.204   5.503 -2.8572  1.0691  1.8574
 3399TIP3   OH210160   6.508   5.344   4.171  0.2104  0.1890 -0.7880
 3399TIP3    H110161   6.566   5.307   4.237  1.3275 -2.0086 -2.8419
 3399TIP3    H210162   6.435   5.282   4.166 -0.4254  0.9269 -0.8788
 3400TIP3   OH210163   7.107   0.478   0.733  0.0427 -0.1882 -0.0411
 3400TIP3    H110164   7.148   0.558   0.766  0.7643 -0.2970 -0.6442
 3400TIP3    H210165   7.134   0.411   0.796  0.1294 -0.1157 -0.0002
 3401TIP3   OH210166   3.328   0.168   5.757  0.2899  0.4499 -0.1760
 3401TIP3    H110167   3.343   0.172   5.851  1.0491  0.2588 -0.2794
 3401TIP3    H210168   3.364   0.083   5.731  0.3219  0.6105 -0.6739
 3402TIP3   OH210169   3.153   2.157   1.373  0.0011  0.0910 -0.1309
 3402TIP3    H110170   3.168   2.084   1.433 -0.0009 -0.2916 -0.5884
 3402TIP3    H210171   3.167   2.235   1.427 -0.3344 -0.2400  0.4491
 3403TIP3   OH210172   2.814   2.359   5.427 -0.5810  0.1970  0.2264
 3403TIP3    H110173   2.804   2.447   5.462  0.8880  0.1948  0.7260
 3403TIP3    H210174   2.868   2.370   5.349 -0.7856 -0.2127  0.0213
 3404TIP3   OH210175   1.634   5.748   2.950  0.1124  0.3026  0.4247
 3404TIP3    H110176   1.583   5.686   2.899  0.6583  0.5460 -0.4263
 3404TIP3    H210177   1.616   5.724   3.041 -2.2756  0.9795  0.1946
 3405TIP3   OH210178   4.092   3.479   4.285 -0.0214  0.3898  0.6174
 3405TIP3    H110179   4.000   3.476   4.260 -0.0864  0.3772  0.8548
 3405TIP3    H210180   4.138   3.497   4.204  0.0387 -2.9071 -0.2116
 3406TIP3   OH210181   4.382   3.654   4.427 -0.1454  0.0700 -0.3162
 3406TIP3    H110182   4.332   3.593   4.373  0.7350  0.3601 -1.5161
 3406TIP3    H210183   4.441   3.697   4.365  1.9661 -0.6330  1.0947
 3407TIP3   OH210184   6.501   5.924   5.127  0.1996  0.0525  0.4092
 3407TIP3    H110185   6.552   6.001   5.101  0.7375 -0.5597 -0.3840
 3407TIP3    H210186   6.555   5.881   5.193  0.0158  0.2074  0.6649
 3408TIP3   OH210187   3.559   1.138   5.521 -0.0034  0.1818 -0.4424
 3408TIP3    H110188   3.555   1.168   5.431 -2.6522  1.9372  0.1389
 3408TIP3    H210189   3.623   1.195   5.563 -2.2324  2.6878 -0.2222
 3409TIP3   OH210190   3.858   4.089   1.541 -0.1104 -0.3972 -0.1904
 3409TIP3    H110191   3.762   4.094   1.539 -0.0652  2.1327  0.7828
 3409TIP3    H210192   3.885   4.127   1.457  0.0272  2.6015  1.1091
 3410TIP3   OH210193   5.508   0.841   1.681  0.3837 -0.4087 -0.2885
 3410TIP3    H110194   5.564   0.764   1.696  0.2970 -0.8175 -1.7875
 3410TIP3    H210195   5.422   0.804   1.661  0.1177  0.1225 -0.1392
 3411TIP3   OH210196   3.730   3.186   2.694 -0.3650  0.5258  0.0146
 3411TIP3    H110197   3.670   3.224   2.630  0.1222  2.7404  0.7833
 3411TIP3    H210198   3.789   3.258   2.718  0.7415 -0.7826  1.4519
 3412TIP3   OH210199   4.335   5.667   0.923 -1.1544 -0.3450 -0.0937
 3412TIP3    H110200   4.424   5.633   0.921 -0.1356  2.1048 -0.0484
 3412TIP3    H210201   4.301   5.652   0.835 -1.7143 -3.5506  0.5409
 3413TIP3   OH210202   2.338   1.125   3.666  0.7072  0.0817  0.4599
 3413TIP3    H110203   2.253   1.165   3.682  1.3982  0.8049  2.7318
 3413TIP3    H210204   2.352   1.068   3.742  1.7941 -0.8772 -0.4233
 3414TIP3   OH210205   2.252   0.769   3.635  0.4727 -0.9366  0.0605
 3414TIP3    H110206   2.303   0.828   3.691  1.3622 -1.1889 -0.4485
 3414TIP3    H210207   2.300   0.769   3.552 -0.9485 -0.3964 -0.7870
 3415TIP3   OH210208   0.463   6.195   0.555 -0.1451  0.7519  0.3194
 3415TIP3    H110209   0.425   6.258   0.494  1.0372  0.4000 -0.8287
 3415TIP3    H210210   0.420   6.214   0.638 -1.3385  1.6730 -0.4595
 3416TIP3   OH210211   3.303   5.850   5.196 -0.4378 -0.8751  0.0629
 3416TIP3    H110212   3.340   5.766   5.224 -1.7820 -1.3835  0.3624
 3416TIP3    H210213   3.284   5.896   5.277 -1.2271 -0.9767 -0.0518
 3417TIP3   OH210214   3.783   0.773   5.062  0.1456 -0.1916  0.5370
 3417TIP3    H110215   3.825   0.830   4.997  2.9722 -0.3919  2.0251
 3417TIP3    H210216   3.800   0.816   5.145  1.5489 -2.6262  1.6283
 3418TIP3   OH210217   3.687   6.137   5.070 -0.3146 -0.0911  0.2491
 3418TIP3    H110218   3.685   6.221   5.116 -1.4453 -0.8460  1.6791
 3418TIP3    H210219   3.596   6.105   5.075 -0.3765 -0.4280 -2.1592
 3419TIP3   OH210220   2.726   6.614   0.076 -0.7833 -0.2727 -0.0840
 3419TIP3    H110221   2.695   6.704   0.081  2.0025  0.7332  0.7060
 3419TIP3    H210222   2.688   6.571   0.153  1.0630  1.4214  1.9191
 3420TIP3   OH210223   7.235   4.934   3.427  0.3076  0.1413  0.0589
 3420TIP3    H110224   7.175   4.920   3.353  0.8392 -2.3394 -0.0035
 3420TIP3    H210225   7.189   4.996   3.484 -1.6047 -0.4401 -0.7618
 3421TIP3   OH210226   1.280   4.284   2.908  0.1125 -0.0649 -0.5369
 3421TIP3    H110227   1.345   4.336   2.956  0.6133  0.0678 -1.3416
 3421TIP3    H210228   1.329   4.248   2.834 -0.0581 -2.1730  0.2899
 3422TIP3   OH210229   7.159   0.073   1.412  0.5458 -0.6068  0.2125
 3422TIP3    H110230   7.209   0.056   1.332 -0.1957  0.3396 -0.4678
 3422TIP3    H210231   7.181   0.163   1.435 -0.7606 -0.1996 -0.0596
 3423TIP3   OH210232   3.026   0.552   2.106 -0.5313 -0.0505 -0.6217
 3423TIP3    H110233   3.110   0.510   2.091 -0.0776  1.5062 -3.1040
 3423TIP3    H210234   2.962   0.481   2.101  0.4096 -0.8591 -1.6429
 3424TIP3   OH210235   2.064   3.437   3.082 -0.6901 -0.0329  0.4156
 3424TIP3    H110236   2.051   3.532   3.083 -1.0398 -0.0683 -0.3604
 3424TIP3    H210237   2.012   3.406   3.157 -0.5694  0.3848  0.6772
 3425TIP3   OH210238   6.500   4.477   3.672 -0.2179  0.5335 -0.6437
 3425TIP3    H110239   6.450   4.398   3.654 -0.0022  0.0966  0.5949
 3425TIP3    H210240   6.528   4.468   3.763  0.8853  1.4408 -0.8649
 3426TIP3   OH210241   1.644   4.582   2.173  0.5305 -0.2868  0.3202
 3426TIP3    H110242   1.733   4.577   2.139  0.0857 -0.4157 -0.8621
 3426TIP3    H210243   1.632   4.500   2.221  0.1930 -1.4738 -1.7110
 3427TIP3   OH210244   5.687   1.915   1.036  0.3618 -0.1641 -0.4253
 3427TIP3    H110245   5.675   1.840   1.094 -1.5051  0.5565  0.1721
 3427TIP3    H210246   5.661   1.883   0.950  0.3137 -0.4127 -0.3184
 3428TIP3   OH210247   2.770   3.907   2.481  0.4593 -0.3819 -0.5640
 3428TIP3    H110248   2.737   3.984   2.435  0.7849  1.3444  1.8866
 3428TIP3    H210249   2.698   3.844   2.479 -0.8412  1.0627 -0.2663
 3429TIP3   OH210250   6.974   4.565   3.054  0.0121 -0.1545  0.4705
 3429TIP3    H110251   7.025   4.635   3.013  1.0024  0.9505  3.2856
 3429TIP3    H210252   6.883   4.589   3.038  0.3301  0.2089 -0.9690
 3430TIP3   OH210253   2.848   1.265   0.166 -0.3856 -0.2738  0.1199
 3430TIP3    H110254   2.817   1.186   0.209 -1.5636  0.7386  1.1817
 3430TIP3    H210255   2.778   1.290   0.106 -0.6758  0.7470  0.8459
 3431TIP3   OH210256   6.593   2.750   1.080  0.0760  0.9254  0.6150
 3431TIP3    H110257   6.681   2.713   1.078 -0.5764 -0.7122  0.8323
 3431TIP3    H210258   6.607   2.845   1.079  1.8030  0.6945 -0.2200
 3432TIP3   OH210259   1.091   1.039   4.439  0.1319  0.5695  0.4838
 3432TIP3    H110260   1.184   1.036   4.417  0.2383  0.3408  0.9482
 3432TIP3    H210261   1.064   0.947   4.441  0.1319  0.5823  1.3273
 3433TIP3   OH210262   1.529   0.610   0.886  0.2647  1.1684  0.5607
 3433TIP3    H110263   1.623   0.595   0.877  0.3227  2.0156 -0.4908
 3433TIP3    H210264   1.516   0.700   0.854 -0.8596  1.1745  0.9775
 3434TIP3   OH210265   6.874   6.480   1.462 -0.2513  0.0237 -0.4263
 3434TIP3    H110266   6.824   6.475   1.381  2.4196  0.1318 -2.2225
 3434TIP3    H210267   6.815   6.520   1.526 -2.5494 -0.3697 -2.2071
 3435TIP3   OH210268   6.530   4.973   0.217  0.6833  0.3190 -0.6571
 3435TIP3    H110269   6.480   4.986   0.297  0.6321  2.3640 -0.9488
 3435TIP3    H210270   6.467   4.934   0.156 -0.2881  1.8121 -0.6735
 3436TIP3   OH210271   6.121   6.087   4.596  0.2740  0.6077  0.6725
 3436TIP3    H110272   6.070   6.135   4.531  0.5806 -0.1152 -0.1200
 3436TIP3    H210273   6.138   6.002   4.555  1.4256  0.5436  1.2556
 3437TIP3   OH210274   1.610   4.095   4.661 -0.4519 -0.6615  0.2208
 3437TIP3    H110275   1.564   4.106   4.745 -0.2547 -0.1516  0.2657
 3437TIP3    H210276   1.567   4.020   4.620  0.0763 -1.5293  1.2036
 3438TIP3   OH210277   2.752   0.277   2.383  0.3593 -0.1286 -0.3075
 3438TIP3    H110278   2.774   0.316   2.299 -0.3676  1.7458  0.3180
 3438TIP3    H210279   2.836   0.256   2.423  0.7126 -0.9780 -1.4398
 3439TIP3   OH210280   3.705   5.866   1.945 -0.3939 -0.1469  0.2664
 3439TIP3    H110281   3.712   5.916   1.864 -1.8061  0.8462  0.7223
 3439TIP3    H210282   3.726   5.776   1.919 -2.3528 -0.1577 -1.5829
 3440TIP3   OH210283   2.660   6.633   4.853  0.1181 -0.5539 -0.1727
 3440TIP3    H110284   2.733   6.690   4.878  0.0506  0.0769 -1.3208
 3440TIP3    H210285   2.608   6.687   4.794 -0.8177 -1.2898 -0.0285
 3441TIP3   OH210286   0.759   4.705   2.969 -0.7426 -0.2578 -0.0428
 3441TIP3    H110287   0.810   4.785   2.963 -0.9109  0.1276  2.5940
 3441TIP3    H210288   0.819   4.635   2.942 -0.0871  0.5614 -0.7464
 3442TIP3   OH210289   0.705   2.966   4.262 -0.6653 -0.3144 -0.1041
 3442TIP3    H110290   0.648   2.924   4.326  1.0170 -0.2978  1.5161
 3442TIP3    H210291   0.646   3.000   4.195 -2.3648 -1.9292  0.4820
 3443TIP3   OH210292   2.079   1.284   3.792  0.5945  0.0177  0.3739
 3443TIP3    H110293   2.048   1.358   3.739 -1.3134  0.0467  1.4506
 3443TIP3    H210294   2.055   1.306   3.881  1.2101 -1.3209  0.9052
 3444TIP3   OH210295   1.430   4.124   0.770 -0.2488  0.6418 -0.3424
 3444TIP3    H110296   1.518   4.162   0.768 -0.0659  0.4371  1.7126
 3444TIP3    H210297   1.372   4.197   0.749  0.3846  0.6808 -2.1969
 3445TIP3   OH210298   1.917   6.288   2.418  0.2543  0.3414  0.1480
 3445TIP3    H110299   1.971   6.296   2.340 -0.4144 -1.5616 -0.5627
 3445TIP3    H210300   1.963   6.226   2.474 -1.7188 -2.4294 -1.0716
 3446TIP3   OH210301   0.597   2.536   4.696 -0.1772 -0.6518 -0.2007
 3446TIP3    H110302   0.693   2.542   4.694  0.0843 -3.4097 -1.4527
 3446TIP3    H210303   0.575   2.479   4.622 -2.9845  1.3622 -1.0775
 3447TIP3   OH210304   4.402   5.265   0.952  0.0129 -0.0875 -0.4315
 3447TIP3    H110305   4.480   5.316   0.929 -0.2115 -0.1461 -1.3676
 3447TIP3    H210306   4.337   5.290   0.886 -1.3071  1.1576  1.2509
 3448TIP3   OH210307   3.401   1.675   3.420  0.1813 -0.0789 -0.1877
 3448TIP3    H110308   3.468   1.726   3.464  1.5871 -1.4187 -0.6917
 3448TIP3    H210309   3.344   1.644   3.490  0.1626  0.9540  0.2645
 3449TIP3   OH210310   2.151   3.072   4.631  0.2788 -0.3028  0.3365
 3449TIP3    H110311   2.222   3.009   4.644 -1.0787 -1.5175  2.4937
 3449TIP3    H210312   2.083   3.044   4.692 -0.7328  2.8020  0.8237
 3450TIP3   OH210313   3.824   5.394   5.824  0.1135  0.0726 -0.4855
 3450TIP3    H110314   3.731   5.385   5.804 -0.5803  0.6893  2.0844
 3450TIP3    H210315   3.854   5.305   5.840 -0.2968 -0.0449 -0.3539
 3451TIP3   OH210316   0.438   0.622   2.992 -0.6738  0.2715 -0.2340
 3451TIP3    H110317   0.424   0.706   2.947 -2.4929  0.8584  1.2997
 3451TIP3    H210318   0.409   0.556   2.929 -0.3236  0.8604 -1.0294
 3452TIP3   OH210319   7.063   4.578   0.438 -0.5822 -0.0512 -0.0228
 3452TIP3    H110320   7.051   4.536   0.523  0.4831 -0.8124 -0.2411
 3452TIP3    H210321   7.147   4.624   0.444 -0.8714  0.5501 -0.4042
 3453TIP3   OH210322   3.456   0.183   1.460 -0.0248  0.2810 -0.0943
 3453TIP3    H110323   3.405   0.236   1.398  0.9144  1.3157 -0.0046
 3453TIP3    H210324   3.420   0.095   1.451 -0.7706  0.6748 -1.1695
 3454TIP3   OH210325   5.592   2.611   1.970 -0.1743  0.1994 -0.3613
 3454TIP3    H110326   5.624   2.695   2.003 -1.0220  1.2221 -1.9505
 3454TIP3    H210327   5.496   2.621   1.970 -0.2457 -0.2704 -1.6923
 3455TIP3   OH210328   6.490   5.336   0.225 -0.4648  0.2614 -0.0175
 3455TIP3    H110329   6.445   5.252   0.221  2.4183 -1.4663  1.2129
 3455TIP3    H210330   6.552   5.334   0.152  1.1034  0.3552  1.2750
 3456TIP3   OH210331   3.134   2.931   5.218 -0.1474 -0.4498 -0.0242
 3456TIP3    H110332   3.061   2.870   5.226 -0.2442 -0.4747 -0.9895
 3456TIP3    H210333   3.201   2.896   5.277  0.6468 -2.7677 -2.1488
 3457TIP3   OH210334   4.843   1.862   0.757 -0.1781  0.0317 -0.5589
 3457TIP3    H110335   4.798   1.815   0.827  0.7451  0.3167  0.2387
 3457TIP3    H210336   4.783   1.933   0.733 -0.4913 -0.0608 -0.0577
 3458TIP3   OH210337   2.567   5.053   2.674  0.1929  0.2791 -0.1749
 3458TIP3    H110338   2.604   5.140   2.687  0.1326  0.5034 -1.3828
 3458TIP3    H210339   2.574   5.038   2.580 -2.7478  0.3364 -0.4859
 3459TIP3   OH210340   6.555   6.650  -0.026 -0.1355 -0.1757 -0.1106
 3459TIP3    H110341   6.478   6.650   0.032 -0.0053  0.4869  0.0758
 3459TIP3    H210342   6.618   6.593   0.018 -0.5720 -0.8522 -0.3431
 3460TIP3   OH210343   0.476   0.473   4.154  0.1033  0.2619 -0.2467
 3460TIP3    H110344   0.507   0.520   4.077  0.3769 -0.1400 -0.3853
 3460TIP3    H210345   0.390   0.439   4.128  0.6994 -0.8661 -0.7919
 3461TIP3   OH210346   5.332   4.844   5.648  0.1840  0.1769  0.3548
 3461TIP3    H110347   5.280   4.900   5.590  2.2557  1.4089 -0.3908
 3461TIP3    H210348   5.345   4.764   5.598  2.6309  1.5254 -1.3404
 3462TIP3   OH210349   1.545   4.066   1.411  0.3540 -0.0885  0.0464
 3462TIP3    H110350   1.555   4.009   1.335 -1.3481  0.5341 -0.6699
 3462TIP3    H210351   1.593   4.145   1.388  2.0845 -0.8779  0.7404
 3463TIP3   OH210352   2.710   0.126   0.673 -0.9718  0.4047  0.7231
 3463TIP3    H110353   2.663   0.206   0.649 -3.2570 -0.9225  0.4963
 3463TIP3    H210354   2.655   0.087   0.741 -0.4186 -1.4385  0.1421
 3464TIP3   OH210355   0.702   2.897   1.546  0.1175  0.4598  0.4898
 3464TIP3    H110356   0.741   2.816   1.513 -1.5146 -1.4863  2.9649
 3464TIP3    H210357   0.776   2.947   1.580  1.1155 -0.1768 -0.6646
 3465TIP3   OH210358   3.469   0.371   2.235 -0.7046 -0.2026  0.5065
 3465TIP3    H110359   3.485   0.278   2.249 -1.9330 -0.4299  0.4934
 3465TIP3    H210360   3.494   0.413   2.317 -0.0992 -0.5279  0.4949
 3466TIP3   OH210361   5.619   3.461   5.543  0.1290  0.0782 -0.7711
 3466TIP3    H110362   5.626   3.546   5.586  0.3805 -0.4191  0.2141
 3466TIP3    H210363   5.614   3.398   5.615 -1.4236 -0.6556 -1.4748
 3467TIP3   OH210364   0.358   4.412   2.142 -0.5115 -0.3336  0.1815
 3467TIP3    H110365   0.350   4.321   2.112 -2.5862 -0.2420  0.3474
 3467TIP3    H210366   0.352   4.406   2.237  1.3510 -0.1584  0.3618
 3468TIP3   OH210367   1.585   3.219   2.667  0.3754 -0.0823 -0.4485
 3468TIP3    H110368   1.552   3.244   2.753  0.2436 -1.9664  0.0948
 3468TIP3    H210369   1.514   3.240   2.606 -0.4656 -0.9212  0.2329
 3469TIP3   OH210370   2.742   5.545   1.254 -0.1026  0.0549  0.5602
 3469TIP3    H110371   2.689   5.618   1.286 -0.4782 -0.9056  2.2207
 3469TIP3    H210372   2.716   5.470   1.307  0.5988 -1.2106 -0.7928
 3470TIP3   OH210373   6.328   2.512   3.864 -0.1062 -0.3262 -0.3838
 3470TIP3    H110374   6.264   2.445   3.889  0.5998 -0.5070  1.0177
 3470TIP3    H210375   6.291   2.594   3.899  0.0514 -0.3035 -0.2738
 3471TIP3   OH210376   4.780   0.082   4.747 -0.4542 -0.3168  1.0531
 3471TIP3    H110377   4.838   0.090   4.823 -1.0062 -1.1473  1.5836
 3471TIP3    H210378   4.773   0.171   4.712  0.6994 -0.1123  1.2981
 3472TIP3   OH210379   5.810   5.842   5.604  0.0517  0.7881 -0.0834
 3472TIP3    H110380   5.777   5.781   5.670 -1.3271 -0.1334 -1.5567
 3472TIP3    H210381   5.854   5.910   5.654 -1.6738  0.5818  1.8437
 3473TIP3   OH210382   2.528   6.561   2.793 -0.1109  0.3167 -0.2846
 3473TIP3    H110383   2.499   6.476   2.762 -0.3299 -0.0682  0.9283
 3473TIP3    H210384   2.458   6.591   2.850 -0.1315  1.4182 -0.8581
 3474TIP3   OH210385   5.517   6.385   5.087  0.5754 -1.0575 -0.5010
 3474TIP3    H110386   5.586   6.449   5.069  0.5551 -0.9901 -0.3403
 3474TIP3    H210387   5.559   6.300   5.072  1.3216 -1.1251  1.5842
 3475TIP3   OH210388   5.788   3.170   3.315 -0.3923 -0.5343 -0.4340
 3475TIP3    H110389   5.788   3.108   3.243 -0.3180  1.1724 -1.9737
 3475TIP3    H210390   5.848   3.131   3.380 -1.1069 -2.4973 -0.8793
 3476TIP3   OH210391   4.824   6.575   1.001 -0.2350 -0.2868  0.1819
 3476TIP3    H110392   4.875   6.576   0.919  0.0223  1.8120  0.3121
 3476TIP3    H210393   4.854   6.496   1.046  0.7396 -0.6790 -1.0705
 3477TIP3   OH210394   0.042   5.093   2.961 -0.5765  0.1267 -0.3604
 3477TIP3    H110395  -0.046   5.056   2.965 -0.7134  0.5469  2.1605
 3477TIP3    H210396   0.100   5.018   2.978 -0.6186  0.3157  0.6534
 3478TIP3   OH210397   1.656   5.156   1.300 -0.2515 -0.0953 -0.2858
 3478TIP3    H110398   1.588   5.159   1.233  0.4635  2.5604 -1.0182
 3478TIP3    H210399   1.623   5.214   1.369  0.8925  0.6075 -0.3065
 3479TIP3   OH210400   1.357   3.477   4.736  0.2030  0.4005 -0.3172
 3479TIP3    H110401   1.407   3.444   4.811 -0.0320 -0.0757 -0.3615
 3479TIP3    H210402   1.418   3.472   4.662 -0.1793 -1.1203 -0.5755
 3480TIP3   OH210403   2.366   5.931   4.208 -0.5958 -0.0863 -0.5899
 3480TIP3    H110404   2.410   5.943   4.124  1.6667 -0.8494  0.3894
 3480TIP3    H210405   2.403   5.850   4.243 -4.4638 -2.0892 -0.5782
 3481TIP3   OH210406   6.201   2.293   2.118  0.2373  0.2286 -0.3066
 3481TIP3    H110407   6.120   2.308   2.068 -1.1258 -2.5357  0.8851
 3481TIP3    H210408   6.246   2.223   2.071  0.9414  0.3295  0.1997
 3482TIP3   OH210409   3.118   0.268   4.344 -0.0692  0.1819 -0.1322
 3482TIP3    H110410   3.152   0.300   4.428  1.7627 -0.3079 -0.6499
 3482TIP3    H210411   3.094   0.177   4.360  2.6919 -0.7237 -0.7019
 3483TIP3   OH210412   2.238   0.218   1.543 -0.1381 -0.1461  0.0624
 3483TIP3    H110413   2.158   0.249   1.586 -0.2001  2.8695 -1.8914
 3483TIP3    H210414   2.210   0.141   1.493 -0.7563 -1.7372  2.6486
 3484TIP3   OH210415   4.839   2.095   0.435  0.4853 -0.6253  0.6120
 3484TIP3    H110416   4.928   2.118   0.461 -0.4921  0.5430  3.3751
 3484TIP3    H210417   4.788   2.174   0.452 -0.8968 -0.7593 -2.3569
 3485TIP3   OH210418   5.303   6.492   2.900 -0.2337 -0.6957  0.3894
 3485TIP3    H110419   5.394   6.475   2.874 -0.5817 -0.0210 -1.3978
 3485TIP3    H210420   5.284   6.424   2.965  2.3388  0.6604  2.8433
 3486TIP3   OH210421   3.814   5.633   3.909  0.0334 -0.0168 -0.3470
 3486TIP3    H110422   3.756   5.640   3.985 -2.0119 -0.5535 -1.7620
 3486TIP3    H210423   3.865   5.553   3.925  2.1591  1.6797  1.9982
 3487TIP3   OH210424   3.394   1.444   4.800  0.3653 -0.0259 -0.5590
 3487TIP3    H110425   3.381   1.523   4.746 -0.6990 -1.2024 -2.1163
 3487TIP3    H210426   3.486   1.449   4.827 -0.1949  2.8635  1.3105
 3488TIP3   OH210427   3.946   0.363   5.346  0.7004  0.1850 -0.3799
 3488TIP3    H110428   3.929   0.448   5.386  0.4013  0.6043 -1.3576
 3488TIP3    H210429   4.036   0.343   5.369  0.3251  0.0621  1.0891
 3489TIP3   OH210430   6.239   0.593   2.499 -0.0046 -0.2955  0.1622
 3489TIP3    H110431   6.191   0.511   2.495  0.3832 -0.5345  0.3703
 3489TIP3    H210432   6.251   0.610   2.592  0.9085 -0.5982  0.1171
 3490TIP3   OH210433   1.225   3.449   5.068  0.2133 -0.4162  0.5209
 3490TIP3    H110434   1.231   3.428   5.161  0.4456  0.3405  0.6788
 3490TIP3    H210435   1.209   3.543   5.065 -0.1194 -0.4847 -0.2014
 3491TIP3   OH210436   4.796   2.622   4.815  0.3745 -0.1918  0.2931
 3491TIP3    H110437   4.784   2.714   4.791 -1.0573  0.2130  2.3062
 3491TIP3    H210438   4.737   2.574   4.758 -0.4199  0.3730  0.6216
 3492TIP3   OH210439   0.773   0.951   1.873  0.1608  0.5299  0.5870
 3492TIP3    H110440   0.823   0.871   1.890 -0.0929  0.6132  1.8728
 3492TIP3    H210441   0.693   0.920   1.830 -0.7382 -0.1612  2.6156
 3493TIP3   OH210442   1.993   6.019   5.020 -0.1369 -0.0099 -0.5412
 3493TIP3    H110443   1.918   6.071   5.048  0.2975 -0.5268  1.7798
 3493TIP3    H210444   1.986   5.938   5.070  1.7476 -0.2493 -0.5904
 3494TIP3   OH210445   5.112   5.389   3.466 -0.1778  0.5422 -0.8351
 3494TIP3    H110446   5.020   5.406   3.450 -0.5346 -0.8143 -0.3732
 3494TIP3    H210447   5.153   5.391   3.380 -0.8550 -0.0488 -1.1761
 3495TIP3   OH210448   0.528   3.047   3.483  0.1524  0.4672 -0.3319
 3495TIP3    H110449   0.476   3.118   3.521  0.7919  1.3814 -1.1170
 3495TIP3    H210450   0.483   2.967   3.510  0.3405  1.0761  1.9825
 3496TIP3   OH210451   0.072   1.373   0.353 -0.2309  0.0017 -0.1172
 3496TIP3    H110452  -0.018   1.359   0.382 -0.3367  1.6633  0.4861
 3496TIP3    H210453   0.068   1.455   0.303  1.1153  0.6491  0.8004
 3497TIP3   OH210454   7.067   5.528   4.052  0.1826 -0.5672 -0.4219
 3497TIP3    H110455   7.118   5.514   4.132 -0.6894  1.7959  0.6283
 3497TIP3    H210456   7.000   5.459   4.054  1.7124 -2.1348 -0.5231
 3498TIP3   OH210457   5.730   2.703   1.119  0.6103 -0.5407  0.2681
 3498TIP3    H110458   5.816   2.694   1.077  0.4427 -0.4286 -0.0955
 3498TIP3    H210459   5.711   2.796   1.116 -0.7014 -0.8157 -2.0010
 3499TIP3   OH210460   1.861   5.767   3.244 -0.0269 -0.1938  0.3707
 3499TIP3    H110461   1.808   5.697   3.206 -0.8409  0.6574 -0.0913
 3499TIP3    H210462   1.872   5.742   3.336  0.1745 -1.2102  0.0753
 3500TIP3   OH210463   2.363   0.888   2.025  0.2304  0.4448  0.2946
 3500TIP3    H110464   2.397   0.864   1.939 -0.6372  0.1079  0.0354
 3500TIP3    H210465   2.374   0.983   2.029 -0.1591  0.5312 -0.3978
 3501TIP3   OH210466   1.318   2.294   1.274  0.3803  0.1684 -0.5681
 3501TIP3    H110467   1.388   2.234   1.250 -0.0753 -1.3986  1.7340
 3501TIP3    H210468   1.238   2.242   1.268  0.0938 -0.0105  2.7223
 3502TIP3   OH210469   6.293   3.680   0.902  0.6368 -0.5742 -0.4537
 3502TIP3    H110470   6.243   3.632   0.836  0.6403  0.9361 -1.6076
 3502TIP3    H210471   6.282   3.772   0.878  0.2703  0.0558  1.9449
 3503TIP3   OH210472   2.140   0.604   4.024 -0.3679 -0.2341 -0.5682
 3503TIP3    H110473   2.178   0.558   4.099 -1.5816  0.3543  0.4613
 3503TIP3    H210474   2.179   0.563   3.947  0.6843 -1.0667  0.3823
 3504TIP3   OH210475   2.058   4.735   3.285  0.1946 -0.1974  0.2780
 3504TIP3    H110476   2.033   4.754   3.376 -0.8369  0.1169 -0.0610
 3504TIP3    H210477   1.993   4.781   3.232  0.1107 -1.3112 -0.6191
 3505TIP3   OH210478   2.465   4.760   1.626  0.2041 -0.0006  0.5413
 3505TIP3    H110479   2.527   4.828   1.598  1.3020 -1.3473 -0.4007
 3505TIP3    H210480   2.382   4.785   1.585 -0.3424  2.5359  2.8309
 3506TIP3   OH210481   6.972   5.411   4.344 -0.1054 -0.0024  0.4291
 3506TIP3    H110482   6.892   5.453   4.313 -0.0441 -0.1971  0.0069
 3506TIP3    H210483   7.042   5.473   4.325 -0.0618 -0.1419  0.1363
 3507TIP3   OH210484   6.258   6.613   5.101  0.5199  0.3085 -0.8585
 3507TIP3    H110485   6.205   6.564   5.164  0.1391  0.9735 -0.6517
 3507TIP3    H210486   6.298   6.545   5.046  1.8768 -0.3815  0.8576
 3508TIP3   OH210487   6.353   0.377   2.801 -0.0011  0.2383  0.3603
 3508TIP3    H110488   6.433   0.359   2.852 -1.1921 -3.2790  1.2587
 3508TIP3    H210489   6.368   0.334   2.717 -0.8677 -0.3151  0.4777
 3509TIP3   OH210490   2.608   0.921   4.430 -0.5704  0.8562  0.0202
 3509TIP3    H110491   2.651   0.892   4.349 -1.1327 -0.5783  0.2077
 3509TIP3    H210492   2.530   0.867   4.436 -0.6476  1.0841  1.4277
 3510TIP3   OH210493   4.716   0.960   4.053 -0.2353  0.0562 -0.4071
 3510TIP3    H110494   4.811   0.961   4.048 -0.1175  3.6812 -0.5305
 3510TIP3    H210495   4.686   0.939   3.965  0.4117 -1.1338 -0.3562
 3511TIP3   OH210496   4.915   3.419   3.494  0.3949  0.2123 -0.2810
 3511TIP3    H110497   4.903   3.333   3.536  0.0802 -0.5008 -1.7689
 3511TIP3    H210498   4.839   3.428   3.437  0.3030  1.6131  0.0390
 3512TIP3   OH210499   3.782   2.502   0.192 -0.2810  0.5482  0.0415
 3512TIP3    H110500   3.687   2.496   0.202 -0.2613  0.4022  0.1489
 3512TIP3    H210501   3.815   2.523   0.280 -0.1962  0.3614  0.0568
 3513TIP3   OH210502   6.876   5.458   2.218  0.1465 -0.2895  0.2281
 3513TIP3    H110503   6.970   5.440   2.223 -0.1140 -1.5819  0.9763
 3513TIP3    H210504   6.869   5.552   2.237  1.1729 -0.4714  1.7422
 3514TIP3   OH210505   4.321   1.042   0.162  0.2260 -0.0555  0.3908
 3514TIP3    H110506   4.337   0.966   0.106 -0.6415 -0.3101  0.4662
 3514TIP3    H210507   4.305   1.004   0.249 -0.2838  0.1994  0.4129
 3515TIP3   OH210508   2.745   4.507   4.614 -0.3747  0.7811  0.1269
 3515TIP3    H110509   2.833   4.498   4.651  0.4129 -0.3948 -1.8597
 3515TIP3    H210510   2.737   4.601   4.595 -0.2303  1.1605  1.7961
 3516TIP3   OH210511   2.764   5.547   0.069  0.2544 -0.6842 -0.2169
 3516TIP3    H110512   2.825   5.581   0.004 -0.0979 -0.5642 -0.4891
 3516TIP3    H210513   2.793   5.585   0.152 -0.3520  0.5896 -0.5652
 3517TIP3   OH210514   5.057   5.116   0.096 -0.0155 -0.2012 -0.6704
 3517TIP3    H110515   5.115   5.047   0.128  0.4697  0.2624 -0.5536
 3517TIP3    H210516   5.062   5.109   0.000 -1.0788 -1.2576 -0.6730
 3518TIP3   OH210517   2.664   3.808   3.841 -0.5382 -0.2622  0.0158
 3518TIP3    H110518   2.740   3.820   3.898  0.0485 -0.5085 -0.6973
 3518TIP3    H210519   2.591   3.794   3.901 -0.2788  1.2937  0.7519
 3519TIP3   OH210520   4.076   3.372   4.559  0.5098  0.1785  0.1501
 3519TIP3    H110521   4.146   3.309   4.540 -1.1885 -1.7047 -0.1940
 3519TIP3    H210522   4.073   3.428   4.482  0.7049 -0.6541 -0.4796
 3520TIP3   OH210523   7.151   0.646   4.707 -0.6003  0.0907  0.3301
 3520TIP3    H110524   7.185   0.559   4.684 -0.7854 -0.2842  1.4177
 3520TIP3    H210525   7.061   0.630   4.735 -0.2481  0.4524  1.7166
 3521TIP3   OH210526   4.987   2.249   1.215  0.3684  0.3562 -0.1307
 3521TIP3    H110527   4.946   2.293   1.141 -0.0969 -0.9756 -0.7026
 3521TIP3    H210528   4.924   2.182   1.241 -0.1170  1.6777  2.4107
 3522TIP3   OH210529   2.455   0.422   5.435  0.5302  0.2209 -0.0379
 3522TIP3    H110530   2.432   0.330   5.447  1.8988 -0.3398 -1.2624
 3522TIP3    H210531   2.505   0.423   5.353  1.7763  1.8287  0.6851
 3523TIP3   OH210532   2.128   1.440   5.415 -0.3388  0.6286 -0.5475
 3523TIP3    H110533   2.045   1.483   5.396  0.4015  0.9501 -3.6464
 3523TIP3    H210534   2.187   1.512   5.439 -0.8425  0.4242  1.4389
 3524TIP3   OH210535   1.920   2.554   5.113 -0.0752  0.1223  0.2924
 3524TIP3    H110536   1.970   2.608   5.052 -0.0917 -0.3560 -0.1525
 3524TIP3    H210537   1.839   2.603   5.128  0.0155  0.3362  0.0851
 3525TIP3   OH210538   4.285   2.203   5.775 -0.5028  0.1646 -0.0956
 3525TIP3    H110539   4.358   2.143   5.788  0.4784  1.2770 -0.2632
 3525TIP3    H210540   4.209   2.147   5.760  0.4896 -1.0131 -0.8617
 3526TIP3   OH210541   4.803   6.076   4.070  0.3224 -0.2499  0.2917
 3526TIP3    H110542   4.760   6.002   4.028  0.9160 -0.9803  0.9445
 3526TIP3    H210543   4.884   6.087   4.020 -1.0995  1.9163 -1.7388
 3527TIP3   OH210544   4.793   3.048   0.154  0.0618 -0.1580  0.3928
 3527TIP3    H110545   4.760   3.051   0.244  0.4747  0.0371  0.5412
 3527TIP3    H210546   4.869   2.990   0.158 -0.0494 -0.3212  0.1273
 3528TIP3   OH210547   3.174   1.863   2.138 -0.0008 -0.1003 -0.2385
 3528TIP3    H110548   3.150   1.815   2.216 -2.5649 -0.2846 -1.0524
 3528TIP3    H210549   3.205   1.948   2.170  0.2021 -0.6277  0.9956
 3529TIP3   OH210550   4.008   5.761   2.836 -0.2803 -0.3822 -0.5889
 3529TIP3    H110551   4.045   5.826   2.777 -0.4699  1.3908  1.1532
 3529TIP3    H210552   4.068   5.757   2.909 -1.3632 -0.5979  0.3209
 3530TIP3   OH210553   4.851   1.860   4.207  0.4100  0.2288  0.2566
 3530TIP3    H110554   4.913   1.791   4.230 -0.3256  0.0306  1.7637
 3530TIP3    H210555   4.808   1.881   4.289  0.1666  2.0472 -0.2985
 3531TIP3   OH210556   4.125   6.427   4.765 -0.2615 -0.0603 -0.6468
 3531TIP3    H110557   4.177   6.507   4.771  2.0730 -1.5897  1.3811
 3531TIP3    H210558   4.172   6.372   4.703 -0.6395 -0.6877 -0.3817
 3532TIP3   OH210559   0.303   2.363   3.678  0.1237 -0.1210  0.6619
 3532TIP3    H110560   0.349   2.280   3.669 -0.7379 -0.4738 -0.7845
 3532TIP3    H210561   0.278   2.367   3.770 -0.0782 -1.5916  0.6879
 3533TIP3   OH210562   0.319   6.645   2.515 -0.3573 -0.1997  0.5043
 3533TIP3    H110563   0.229   6.633   2.484 -0.4098  1.1329  0.0617
 3533TIP3    H210564   0.374   6.618   2.441 -0.3686 -1.4007  0.9184
 3534TIP3   OH210565   5.566   1.315   4.524 -0.0964  0.1738 -0.5136
 3534TIP3    H110566   5.643   1.364   4.554  0.6641 -0.3039 -1.6092
 3534TIP3    H210567   5.548   1.254   4.595  0.4017  0.4458 -0.1434
 3535TIP3   OH210568   1.772   6.163   4.547  0.1150 -0.1689  0.3328
 3535TIP3    H110569   1.840   6.096   4.560  1.1339  0.6914 -0.3405
 3535TIP3    H210570   1.802   6.237   4.599  0.9807  1.0749 -1.8126
 3536TIP3   OH210571   4.362   4.458   5.538 -0.7715  0.4170 -0.0115
 3536TIP3    H110572   4.331   4.548   5.544 -2.2896 -0.1361  1.2021
 3536TIP3    H210573   4.347   4.423   5.626  1.7527 -0.4261  0.1507
 3537TIP3   OH210574   3.180   5.493   4.453 -0.0765  0.2723  0.0043
 3537TIP3    H110575   3.158   5.427   4.387 -0.3411  1.5828 -1.2696
 3537TIP3    H210576   3.275   5.489   4.461  0.0005  0.3602 -0.7739
 3538TIP3   OH210577   0.373   0.064   4.272 -0.1674  0.1753  0.0157
 3538TIP3    H110578   0.405   0.141   4.226  0.0067 -0.5505 -1.1177
 3538TIP3    H210579   0.307   0.098   4.333  2.1226  1.6148  1.8618
 3539TIP3   OH210580   1.877   6.611   5.427 -0.1871 -0.1935 -0.0355
 3539TIP3    H110581   1.860   6.533   5.373 -2.5638  0.9824 -1.1489
 3539TIP3    H210582   1.972   6.616   5.431  0.0503 -2.3550 -1.1157
 3540TIP3   OH210583   0.377   4.136   2.100  0.5448 -0.2467 -0.1579
 3540TIP3    H110584   0.391   4.138   2.006  0.1415  0.5296 -0.2115
 3540TIP3    H210585   0.423   4.058   2.130 -0.6008 -1.3557 -1.1944
 3541TIP3   OH210586   5.834   1.101   0.979  0.6506 -0.5213 -0.4871
 3541TIP3    H110587   5.855   1.193   0.997 -2.3246  0.4082 -1.2206
 3541TIP3    H210588   5.777   1.075   1.052 -0.2385 -1.0875 -1.3576
 3542TIP3   OH210589   1.727   2.254   3.329  0.2170 -0.3725 -0.0200
 3542TIP3    H110590   1.638   2.262   3.293 -0.2848  1.5491  1.4934
 3542TIP3    H210591   1.773   2.330   3.294  1.3403 -1.3812 -0.8270
 3543TIP3   OH210592   1.445   5.088   5.791 -0.3865  0.1783 -0.1411
 3543TIP3    H110593   1.501   5.013   5.809  0.4755  0.6852 -0.6702
 3543TIP3    H210594   1.378   5.085   5.860  0.0726 -0.6369  0.2817
 3544TIP3   OH210595   3.083   1.175   2.696 -0.7926  0.1728  0.0942
 3544TIP3    H110596   3.163   1.226   2.684 -1.4714  1.0603 -0.8709
 3544TIP3    H210597   3.080   1.157   2.790  0.2998  0.5256  0.2102
 3545TIP3   OH210598   1.368   5.653   4.080 -0.0124 -0.1580  0.0847
 3545TIP3    H110599   1.302   5.709   4.039 -0.1510 -0.2881  0.1300
 3545TIP3    H210600   1.322   5.571   4.098 -0.1203  0.1016  1.0551
 3546TIP3   OH210601   6.863   1.821   0.259 -0.3609  0.4015  0.1566
 3546TIP3    H110602   6.774   1.852   0.244 -1.4881 -2.4460  0.3193
 3546TIP3    H210603   6.886   1.775   0.179  0.7171  0.5569  0.3672
 3547TIP3   OH210604   5.446   0.128   3.080 -0.1084  0.0702 -0.1872
 3547TIP3    H110605   5.385   0.069   3.125  1.9792 -0.2493  2.4750
 3547TIP3    H210606   5.519   0.073   3.054  0.5282  0.9745 -0.3814
 3548TIP3   OH210607   1.436   4.992   5.214  0.3694  0.0118 -0.3588
 3548TIP3    H110608   1.462   5.084   5.221  0.2740 -0.0488  1.0716
 3548TIP3    H210609   1.370   4.991   5.144 -0.9095  1.3338  0.7676
 3549TIP3   OH210610   2.079   1.894   2.964 -0.0860  0.2358 -0.2810
 3549TIP3    H110611   2.076   1.814   3.016 -0.7886 -0.2764 -1.0818
 3549TIP3    H210612   2.097   1.963   3.028 -0.3532 -0.4460  0.5551
 3550TIP3   OH210613   0.114   0.757   5.161  0.2441  0.4816 -0.0321
 3550TIP3    H110614   0.126   0.789   5.072  0.3610 -0.5472 -0.4008
 3550TIP3    H210615   0.083   0.833   5.210 -0.5235  0.8776 -1.1011
 3551TIP3   OH210616   6.267   0.629   3.946 -0.4984  0.2039 -0.2422
 3551TIP3    H110617   6.318   0.661   4.021 -0.0341 -0.5924 -0.2114
 3551TIP3    H210618   6.178   0.661   3.963 -0.2475  0.6484  0.2764
 3552TIP3   OH210619   4.096   1.812   2.333  0.5378  0.2620  0.2111
 3552TIP3    H110620   4.119   1.864   2.410  1.1416 -0.4879  0.5495
 3552TIP3    H210621   4.034   1.747   2.365 -0.9439  1.2955 -0.3941
 3553TIP3   OH210622   4.379   3.155   5.040 -0.5296 -0.3386 -0.5404
 3553TIP3    H110623   4.359   3.063   5.022 -2.5584  0.2259 -1.5041
 3553TIP3    H210624   4.318   3.204   4.985  0.3909  1.5973  0.0677
 3554TIP3   OH210625   5.212   0.446   5.788  0.2873  0.1272 -0.1943
 3554TIP3    H110626   5.125   0.406   5.787  0.8876 -1.2566 -0.8854
 3554TIP3    H210627   5.212   0.507   5.715 -0.0669  0.0244 -0.2809
 3555TIP3   OH210628   0.140   1.353   2.170  0.4721  0.4484  0.9840
 3555TIP3    H110629   0.224   1.335   2.128 -0.4882 -1.1048 -0.3501
 3555TIP3    H210630   0.105   1.427   2.121  0.6359  0.5088  0.9554
 3556TIP3   OH210631   6.225   0.622   0.146 -0.0132  0.5333  0.0872
 3556TIP3    H110632   6.288   0.556   0.177 -1.8516 -0.7662  1.2986
 3556TIP3    H210633   6.190   0.661   0.226  1.4929  3.5685 -0.5971
 3557TIP3   OH210634   6.793   3.625   5.576  0.3313 -0.6069 -0.1137
 3557TIP3    H110635   6.880   3.597   5.604  0.7381  1.0212  0.3141
 3557TIP3    H210636   6.809   3.685   5.503 -0.4451 -0.3630 -0.0961
 3558TIP3   OH210637   6.720   0.354   0.189  0.6924 -0.0034  0.0428
 3558TIP3    H110638   6.663   0.289   0.147 -0.3059  0.8072  0.1100
 3558TIP3    H210639   6.756   0.307   0.265 -2.1320  0.2337  1.6986
 3559TIP3   OH210640   3.572   1.951   1.782  0.1543 -0.3736 -0.2862
 3559TIP3    H110641   3.536   1.920   1.864 -0.3468 -0.7034 -0.6310
 3559TIP3    H210642   3.496   1.974   1.729  0.4800  2.2507  0.2421
 3560TIP3   OH210643   5.038   0.566   1.986  0.1834 -0.3685  0.6572
 3560TIP3    H110644   5.086   0.484   1.985 -1.1385 -1.1564 -0.0359
 3560TIP3    H210645   5.047   0.598   2.076 -0.7131 -2.1280  1.3957
 3561TIP3   OH210646   5.053   2.631   4.959  0.2268  0.4280  0.4399
 3561TIP3    H110647   4.958   2.636   4.947  0.1945 -0.8955 -0.0207
 3561TIP3    H210648   5.089   2.675   4.882  0.0100  1.8606  1.1232
 3562TIP3   OH210649   1.800   4.328   3.293 -0.4776 -0.0071 -0.3417
 3562TIP3    H110650   1.857   4.335   3.217 -0.4149 -0.2674 -0.3199
 3562TIP3    H210651   1.787   4.418   3.322 -0.3819  0.0805 -0.5720
 3563TIP3   OH210652   1.793   1.361   4.270 -0.0391  0.1000 -0.0730
 3563TIP3    H110653   1.765   1.402   4.351 -0.7044  0.4124 -0.4566
 3563TIP3    H210654   1.800   1.268   4.292 -0.5781  0.1291  0.2502
 3564TIP3   OH210655   3.297   4.390   2.268  0.1800  0.3863  0.5905
 3564TIP3    H110656   3.268   4.442   2.193  0.7833 -0.4421 -0.2335
 3564TIP3    H210657   3.377   4.434   2.298 -0.7393  1.4667  1.5845
 3565TIP3   OH210658   4.933   4.374   1.905  0.2475 -0.3837  0.0278
 3565TIP3    H110659   4.905   4.413   1.822 -2.3788 -1.7772  0.1319
 3565TIP3    H210660   5.027   4.388   1.908  0.0729  1.8526 -2.0242
 3566TIP3   OH210661   1.240   6.344   4.619  0.7311  0.3809  0.2849
 3566TIP3    H110662   1.329   6.311   4.626 -0.1942 -2.0607  2.1880
 3566TIP3    H210663   1.224   6.390   4.701  0.0075  0.0442  0.3469
 3567TIP3   OH210664   4.811   6.684   4.369 -0.3819 -0.2086  0.0298
 3567TIP3    H110665   4.766   6.601   4.351  1.4029 -0.9644 -1.1882
 3567TIP3    H210666   4.886   6.659   4.422  0.6602  0.4720 -1.0744
 3568TIP3   OH210667   4.298   4.370   2.907  0.4627 -0.1276 -0.1401
 3568TIP3    H110668   4.205   4.364   2.888  0.6240 -0.4464 -0.8655
 3568TIP3    H210669   4.333   4.429   2.840  0.8539 -0.3445 -0.1312
 3569TIP3   OH210670   1.740   4.506   5.393 -0.1367 -0.4295  0.3209
 3569TIP3    H110671   1.675   4.549   5.336  1.1077 -0.4786 -1.1976
 3569TIP3    H210672   1.809   4.477   5.333  1.6641  0.2759  1.9531
 3570TIP3   OH210673   3.804   1.279   1.398 -0.1071  0.3045 -0.0217
 3570TIP3    H110674   3.888   1.234   1.387 -0.0285 -0.0057  1.6094
 3570TIP3    H210675   3.814   1.362   1.351  1.3665  0.5824  0.7559
 3571TIP3   OH210676   3.590   4.454   0.797  0.5777 -0.7012  0.0371
 3571TIP3    H110677   3.622   4.371   0.761 -0.5994 -0.5678 -1.4196
 3571TIP3    H210678   3.504   4.466   0.757  0.7476  1.2562  0.1483
 3572TIP3   OH210679   6.853   5.844   1.038  0.3926 -0.1744 -0.3501
 3572TIP3    H110680   6.810   5.787   1.103 -2.8674  1.2744 -1.0072
 3572TIP3    H210681   6.798   5.837   0.960  1.4845  1.7331 -1.3755
 3573TIP3   OH210682   1.332   3.169   3.620 -0.0645 -0.0988  0.0137
 3573TIP3    H110683   1.366   3.199   3.704  1.2051  0.7729 -0.7688
 3573TIP3    H210684   1.251   3.219   3.607 -0.0849  0.0112  0.5592
 3574TIP3   OH210685   4.364   6.226   4.630  0.0698  0.0844  0.1656
 3574TIP3    H110686   4.440   6.191   4.584 -0.8431 -1.0731 -0.5157
 3574TIP3    H210687   4.380   6.204   4.722  0.2594 -0.7868 -0.0601
 3575TIP3   OH210688   6.809   4.431   1.630 -0.3215  0.8798  0.4336
 3575TIP3    H110689   6.809   4.378   1.710 -1.2973  1.0755  0.5696
 3575TIP3    H210690   6.764   4.511   1.655 -0.3189  1.0893 -0.2279
 3576TIP3   OH210691   5.675   2.080   0.053 -0.5028  0.0489  0.5155
 3576TIP3    H110692   5.755   2.060   0.102 -1.1343  1.4065  2.2389
 3576TIP3    H210693   5.609   2.024   0.092 -1.3560  2.2192  2.4813
 3577TIP3   OH210694   2.515   6.055   0.140 -0.3009 -0.4549  0.3408
 3577TIP3    H110695   2.517   6.048   0.235 -0.5830  0.8505  0.4526
 3577TIP3    H210696   2.572   6.128   0.119  0.2631 -1.1313 -0.5540
 3578TIP3   OH210697   7.204   6.098   4.576  0.5951  0.0067 -0.7907
 3578TIP3    H110698   7.167   6.186   4.567  0.8203  0.0806 -1.0033
 3578TIP3    H210699   7.135   6.040   4.541  0.7690  0.1627 -1.4026
 3579TIP3   OH210700   6.869   4.003   1.708  0.0997  0.1765 -0.0942
 3579TIP3    H110701   6.940   4.052   1.751 -0.6718 -0.1412  1.6334
 3579TIP3    H210702   6.790   4.033   1.752 -0.6877 -0.6241 -0.9213
 3580TIP3   OH210703   6.040   2.059   0.955  0.2612 -0.1606  0.2864
 3580TIP3    H110704   6.108   2.043   1.020 -0.3176 -0.6262  0.7852
 3580TIP3    H210705   5.958   2.053   1.004 -0.1321  0.7789 -0.2259
 3581TIP3   OH210706   6.464   2.076   3.926 -0.1510 -0.3813  0.2950
 3581TIP3    H110707   6.544   2.126   3.946 -0.3636 -0.3522  1.1306
 3581TIP3    H210708   6.424   2.060   4.012 -1.4328  0.2407 -0.1570
 3582TIP3   OH210709   4.613   6.594   4.019 -0.1820  0.0718  0.3724
 3582TIP3    H110710   4.583   6.598   3.929  0.0277 -0.6102  0.2707
 3582TIP3    H210711   4.664   6.514   4.025 -0.6538 -0.1806  1.2418
 3583TIP3   OH210712   4.329   6.134   0.180  0.0414  0.6689  0.1265
 3583TIP3    H110713   4.395   6.186   0.135 -1.3305  2.2962 -0.1065
 3583TIP3    H210714   4.260   6.122   0.115 -0.5701  0.3159  0.8272
 3584TIP3   OH210715   4.947   1.567   2.571 -0.5329 -0.4338 -0.1932
 3584TIP3    H110716   4.884   1.598   2.636  1.1251 -1.4555  2.0380
 3584TIP3    H210717   5.029   1.610   2.594  0.9387 -3.4301  0.7214
 3585TIP3   OH210718   5.450   5.333   3.405  0.1216 -0.2388 -0.4602
 3585TIP3    H110719   5.465   5.240   3.392  0.3532 -0.3344  0.4287
 3585TIP3    H210720   5.510   5.358   3.476  0.5559  0.7306 -1.1387
 3586TIP3   OH210721   6.564   6.632   2.654 -0.1806  0.1479  0.3551
 3586TIP3    H110722   6.604   6.554   2.691 -0.9225 -1.6978 -2.4226
 3586TIP3    H210723   6.630   6.701   2.666  1.4409 -1.4308  0.9083
 3587TIP3   OH210724   4.979   5.867   4.249 -0.0453  0.4534  0.1459
 3587TIP3    H110725   4.986   5.798   4.315 -0.4838  0.8439  0.6091
 3587TIP3    H210726   4.890   5.900   4.258  0.3900  1.5905  0.4509
 3588TIP3   OH210727   3.391   5.465   5.200 -0.3129  0.2196  0.1100
 3588TIP3    H110728   3.439   5.452   5.118  0.4326 -2.0848  0.8358
 3588TIP3    H210729   3.367   5.377   5.228 -1.2880  1.0231  1.9552
 3589TIP3   OH210730   0.729   1.661   1.890 -0.0049  0.0578  0.4188
 3589TIP3    H110731   0.699   1.617   1.810  0.3203  1.1498 -0.3194
 3589TIP3    H210732   0.817   1.626   1.904  0.2667  0.4787 -0.1880
 3590TIP3   OH210733   0.683   4.694   3.544 -0.0271 -0.3283  0.5430
 3590TIP3    H110734   0.685   4.788   3.523  0.5022 -0.2686  0.8673
 3590TIP3    H210735   0.640   4.654   3.468 -0.8641  0.2519  0.6938
 3591TIP3   OH210736   0.596   3.104   4.080 -0.8358  0.3383 -0.0603
 3591TIP3    H110737   0.638   3.190   4.085  0.7659 -0.3914 -0.4628
 3591TIP3    H210738   0.531   3.113   4.011  0.6499  0.7193 -1.4669
 3592TIP3   OH210739   6.591   4.863   0.770  0.2826 -0.1623 -1.0456
 3592TIP3    H110740   6.634   4.949   0.769  0.7070 -0.3343  0.1391
 3592TIP3    H210741   6.499   4.882   0.754  0.3326  0.5561 -0.5382
 3593TIP3   OH210742   4.040   0.957   5.523 -0.1916 -0.1091  0.1294
 3593TIP3    H110743   4.021   1.051   5.527 -1.3222 -0.3217  0.2600
 3593TIP3    H210744   4.113   0.950   5.463  0.3824  0.9234  0.6661
 3594TIP3   OH210745   0.216   2.864   0.257 -0.5019  0.5736 -0.1145
 3594TIP3    H110746   0.129   2.845   0.291 -0.6554  0.3307 -0.6390
 3594TIP3    H210747   0.273   2.863   0.334 -0.8482  0.0392  0.1360
 3595TIP3   OH210748   0.365   0.485   2.764 -0.0523  0.2568 -0.1931
 3595TIP3    H110749   0.352   0.522   2.677 -1.1018  0.7705  0.1657
 3595TIP3    H210750   0.389   0.393   2.747 -0.8331  0.1878 -1.0185
 3596TIP3   OH210751   0.135   1.692   0.953 -0.6522 -0.4033  0.3674
 3596TIP3    H110752   0.219   1.652   0.931 -0.5544  0.1587 -0.3167
 3596TIP3    H210753   0.070   1.623   0.939 -0.1409 -1.5187  2.9210
 3597TIP3   OH210754   3.652   3.651   3.127 -0.1602  0.0297  0.3338
 3597TIP3    H110755   3.668   3.744   3.110  0.4253 -0.4315 -1.9566
 3597TIP3    H210756   3.609   3.619   3.047 -0.0660 -1.7268  0.9440
 3598TIP3   OH210757   2.440   3.751   3.971 -0.1110  0.1179 -0.3102
 3598TIP3    H110758   2.403   3.723   3.887  0.8568  1.9221 -1.4059
 3598TIP3    H210759   2.440   3.672   4.025 -0.5088 -1.1645 -2.0986
 3599TIP3   OH210760   1.339   1.289   1.324  0.5379  0.8177 -0.1799
 3599TIP3    H110761   1.433   1.301   1.307  0.6828  2.0026  1.2020
 3599TIP3    H210762   1.335   1.223   1.393  0.4644  1.7544  0.7365
 3600TIP3   OH210763   0.302   3.650   2.463 -0.1313 -0.1090  0.3506
 3600TIP3    H110764   0.211   3.621   2.457  0.4740 -1.8724 -3.2909
 3600TIP3    H210765   0.301   3.737   2.423 -0.2232 -0.0625  0.4523
 3601TIP3   OH210766   2.921   0.807   1.006 -0.3504 -0.0777  0.5588
 3601TIP3    H110767   3.016   0.800   1.011 -0.1733  1.7572  0.2136
 3601TIP3    H210768   2.895   0.737   0.946  0.4629 -2.3064  2.6330
 3602TIP3   OH210769   0.206   5.299   0.579 -0.5175 -0.2892  0.0925
 3602TIP3    H110770   0.225   5.212   0.545  2.2198 -0.5544  1.9799
 3602TIP3    H210771   0.123   5.289   0.625 -0.7481 -1.6219 -0.5739
 3603TIP3   OH210772   7.050   0.232   0.043  0.1477  0.4061 -0.3765
 3603TIP3    H110773   6.961   0.257   0.069  0.1143 -0.7391  0.6705
 3603TIP3    H210774   7.107   0.283   0.101  0.1026 -0.7678  0.7493
 3604TIP3   OH210775   1.484   1.969   3.434  0.8036 -0.2737 -0.0574
 3604TIP3    H110776   1.479   2.038   3.501  0.7653  0.2789 -0.6168
 3604TIP3    H210777   1.475   1.887   3.483 -0.3038  0.1534  0.4934
 3605TIP3   OH210778   2.154   4.118   0.591  0.5124 -0.5326 -0.1686
 3605TIP3    H110779   2.143   4.110   0.496 -0.3580 -1.6089 -0.0056
 3605TIP3    H210780   2.243   4.149   0.603  0.4084  0.2844 -1.3588
 3606TIP3   OH210781   7.128   2.450   5.627  0.7308  0.4699  0.0117
 3606TIP3    H110782   7.130   2.472   5.721  0.5370  2.0566 -0.3316
 3606TIP3    H210783   7.128   2.534   5.583  1.2375 -0.2610 -1.4485
 3607TIP3   OH210784   5.788   1.487   4.993 -0.0841  0.1971 -0.1231
 3607TIP3    H110785   5.871   1.527   4.967 -0.8550  1.9750  0.0746
 3607TIP3    H210786   5.797   1.395   4.965  1.6001  0.5455 -0.8680
 3608TIP3   OH210787   0.840   5.918   5.002  0.0808  0.3742  0.3560
 3608TIP3    H110788   0.915   5.863   5.024 -0.7231 -0.8217  0.2296
 3608TIP3    H210789   0.769   5.855   4.985 -1.5919  1.5042  2.7132
 3609TIP3   OH210790   3.715   0.853   2.972  0.7418  0.5602  0.2678
 3609TIP3    H110791   3.757   0.850   2.886  1.7865  1.9434  0.7057
 3609TIP3    H210792   3.748   0.933   3.013 -0.2602  0.2846  1.7001
 3610TIP3   OH210793   5.496   5.562   1.487 -0.1258 -0.0183 -0.3434
 3610TIP3    H110794   5.448   5.590   1.565 -0.1711  0.1185 -0.4205
 3610TIP3    H210795   5.571   5.513   1.522  0.8809  1.5834 -0.1330
 3611TIP3   OH210796   0.258   2.937   5.275 -0.6442 -0.1875 -0.1271
 3611TIP3    H110797   0.313   2.895   5.342  1.4972  2.2442 -0.1551
 3611TIP3    H210798   0.169   2.927   5.307  0.1975 -0.3514  2.4071
 3612TIP3   OH210799   6.180   0.765   0.385  0.3601  0.1087  0.4223
 3612TIP3    H110800   6.092   0.802   0.375  0.4851  0.2794 -0.1040
 3612TIP3    H210801   6.238   0.841   0.382  0.4831  0.0654  1.4922
 3613TIP3   OH210802   2.025   6.643   1.680 -0.3139 -0.4600 -0.6949
 3613TIP3    H110803   2.008   6.707   1.611  0.2336 -1.4073 -1.7443
 3613TIP3    H210804   1.987   6.682   1.758  0.6571  1.4913 -1.1293
 3614TIP3   OH210805   2.290   5.847   2.033  0.1417  0.3302  0.2642
 3614TIP3    H110806   2.291   5.772   1.973 -1.1927  0.5424 -0.0450
 3614TIP3    H210807   2.220   5.827   2.095 -0.2606  1.3298  0.1476
 3615TIP3   OH210808   0.456   2.286   4.180 -0.6825 -0.2708  0.2843
 3615TIP3    H110809   0.405   2.226   4.234 -0.1286 -0.0629  1.0529
 3615TIP3    H210810   0.415   2.371   4.194 -0.1544 -0.1094  0.8773
 3616TIP3   OH210811   5.669   0.326   3.425 -0.0688 -0.2610 -0.5599
 3616TIP3    H110812   5.710   0.400   3.470 -0.9403  0.1310 -0.3880
 3616TIP3    H210813   5.665   0.257   3.491 -0.4503 -0.0159 -0.3218
 3617TIP3   OH210814   5.422   5.648   2.898 -0.1817  0.6133 -0.3166
 3617TIP3    H110815   5.461   5.626   2.814 -0.9613 -0.5222 -0.4010
 3617TIP3    H210816   5.491   5.629   2.962  0.7859  2.4769 -0.7318
 3618TIP3   OH210817   3.809   3.346   4.634 -0.5983  0.2861  0.4904
 3618TIP3    H110818   3.894   3.377   4.601 -0.8336  1.5000  0.9427
 3618TIP3    H210819   3.794   3.263   4.589 -0.5343  1.4520 -1.8542
 3619TIP3   OH210820   6.824   6.564   4.637  0.6715  0.6677 -0.0999
 3619TIP3    H110821   6.906   6.593   4.597  0.3931  2.7473  0.7143
 3619TIP3    H210822   6.759   6.570   4.567  1.1221 -0.7083 -0.6698
 3620TIP3   OH210823   2.934   1.984   3.589 -0.3636 -0.0311 -0.1784
 3620TIP3    H110824   2.968   1.981   3.500  2.3824  1.5430  0.7000
 3620TIP3    H210825   2.857   2.041   3.583 -1.0811 -1.0896 -1.7174
 3621TIP3   OH210826   1.250   5.641   0.589 -0.0335  0.3831  0.4558
 3621TIP3    H110827   1.214   5.725   0.559 -1.7545  0.1599  1.8041
 3621TIP3    H210828   1.285   5.660   0.677  1.6629  0.1825 -0.1313
 3622TIP3   OH210829   6.060   2.458   0.788 -0.2043  0.1468  0.2230
 3622TIP3    H110830   5.968   2.446   0.765 -0.1151 -0.5595  0.1993
 3622TIP3    H210831   6.106   2.447   0.705 -0.1055  0.6068  0.2159
 3623TIP3   OH210832   0.140   6.226   3.131  0.3270  0.0658  0.1161
 3623TIP3    H110833   0.170   6.250   3.044  1.0465 -0.1506  0.2984
 3623TIP3    H210834   0.218   6.234   3.187  0.0848 -0.6377  0.5682
 3624TIP3   OH210835   4.702   0.933   4.598  0.2321 -0.1090 -0.4889
 3624TIP3    H110836   4.712   0.879   4.677 -0.6470 -0.3196 -0.5113
 3624TIP3    H210837   4.769   0.899   4.538  0.0483 -0.8188 -0.3042
 3625TIP3   OH210838   4.727   3.839   3.039  0.0101  0.1334 -0.0291
 3625TIP3    H110839   4.722   3.916   3.096  0.7986 -0.0685  0.3331
 3625TIP3    H210840   4.665   3.856   2.969 -0.1722  0.8833  0.3100
 3626TIP3   OH210841   2.851   3.236   0.370  0.1872  0.0631 -0.0299
 3626TIP3    H110842   2.920   3.300   0.387  1.9409 -2.0192  1.2508
 3626TIP3    H210843   2.895   3.167   0.320 -0.9389 -1.3663  0.8822
 3627TIP3   OH210844   1.869   5.540   2.626  0.5640 -0.8174 -0.3614
 3627TIP3    H110845   1.951   5.499   2.653 -0.1225 -1.0938  1.4620
 3627TIP3    H210846   1.854   5.609   2.691 -2.2323 -2.8581  1.4339
 3628TIP3   OH210847   2.460   3.545   4.150  0.0043  0.7125 -0.1504
 3628TIP3    H110848   2.461   3.473   4.213  0.7058 -0.0860 -1.0371
 3628TIP3    H210849   2.533   3.601   4.177  0.2715  0.3990 -0.2078
 3629TIP3   OH210850   6.914   6.573   4.170 -0.3656  0.1697  0.2528
 3629TIP3    H110851   6.892   6.651   4.119 -0.1685 -0.0005 -0.0949
 3629TIP3    H210852   6.832   6.523   4.173 -0.7352  0.7962  1.2189
 3630TIP3   OH210853   6.396   0.297   3.167  0.5568 -0.0998  0.2609
 3630TIP3    H110854   6.346   0.375   3.143 -2.1757 -2.3111 -1.9721
 3630TIP3    H210855   6.481   0.331   3.195 -0.7571  3.6777  0.2822
 3631TIP3   OH210856   4.531   3.855   0.979 -0.2802 -0.3171 -0.5356
 3631TIP3    H110857   4.564   3.767   0.961  0.4429 -0.0986 -0.3055
 3631TIP3    H210858   4.437   3.843   0.992  0.0979 -1.4016  1.6550
 3632TIP3   OH210859   6.979   1.064   2.762 -0.4542 -0.0203  0.4947
 3632TIP3    H110860   6.937   0.986   2.798 -0.0690  0.4447  2.0067
 3632TIP3    H210861   6.984   1.125   2.835  0.5172  0.9082 -0.3122
 3633TIP3   OH210862   4.738   5.788   5.225  0.6776  0.3721  0.6235
 3633TIP3    H110863   4.820   5.772   5.177 -0.6861  0.2566 -1.8121
 3633TIP3    H210864   4.685   5.839   5.165 -2.3037 -2.2585  0.7836
 3634TIP3   OH210865   0.448   1.890   1.251  0.2237 -0.0411  0.0134
 3634TIP3    H110866   0.478   1.970   1.296 -0.8683 -0.8353  2.3094
 3634TIP3    H210867   0.519   1.827   1.266 -1.1560 -1.0743  3.0308
 3635TIP3   OH210868   4.791   3.579   2.036  0.2668 -0.3169  0.3207
 3635TIP3    H110869   4.803   3.655   2.094 -2.7414  0.1568  0.4730
 3635TIP3    H210870   4.801   3.615   1.948 -2.3098  0.6407  0.3329
 3636TIP3   OH210871   5.616   0.988   3.386  0.2933 -0.0610 -0.1473
 3636TIP3    H110872   5.709   0.983   3.367  0.6354  1.3536  0.9474
 3636TIP3    H210873   5.596   1.082   3.387 -0.8299 -0.2715  0.9548
 3637TIP3   OH210874   4.064   5.163   0.055 -0.5135  0.0741 -0.1699
 3637TIP3    H110875   3.989   5.220   0.071  0.0583  0.4712  1.3141
 3637TIP3    H210876   4.027   5.085   0.015 -1.2819  1.5792 -2.5658
 3638TIP3   OH210877   4.526   5.224   4.166  0.5941 -0.6507 -0.2561
 3638TIP3    H110878   4.472   5.191   4.094 -1.3867 -0.7257  1.1727
 3638TIP3    H210879   4.590   5.154   4.182  1.6141 -0.2902 -2.4022
 3639TIP3   OH210880   6.923   2.753   4.729  0.1837 -0.8001 -0.1041
 3639TIP3    H110881   6.976   2.758   4.650  1.3860  0.4032  0.7337
 3639TIP3    H210882   6.978   2.790   4.798 -2.3334  2.4452  0.4667
 3640TIP3   OH210883   2.113   6.792   4.718 -0.0879 -0.0918 -0.4269
 3640TIP3    H110884   2.206   6.810   4.709  0.2891 -1.7395 -0.0576
 3640TIP3    H210885   2.099   6.780   4.812 -0.4039 -1.1043 -0.5868
 3641TIP3   OH210886   2.253   6.421   1.851 -0.5072  0.5074 -0.0410
 3641TIP3    H110887   2.175   6.370   1.870 -0.2703  0.5107  1.0194
 3641TIP3    H210888   2.255   6.488   1.920 -0.5053  1.6042 -1.0687
 3642TIP3   OH210889   5.389   5.341   5.573  0.1085 -0.1105  0.8644
 3642TIP3    H110890   5.362   5.293   5.494 -0.8469 -0.2306  1.2459
 3642TIP3    H210891   5.474   5.303   5.596  0.3035 -0.2183  0.0147
 3643TIP3   OH210892   0.485   6.627   4.135 -0.3621  0.3345  0.6212
 3643TIP3    H110893   0.395   6.601   4.117  0.0153 -0.0768 -0.8384
 3643TIP3    H210894   0.481   6.722   4.146 -0.7401  0.5895 -1.3546
 3644TIP3   OH210895   6.311   3.638   2.090  0.4645  0.3864  0.1577
 3644TIP3    H110896   6.262   3.607   2.014  1.1301 -1.7664  0.5130
 3644TIP3    H210897   6.280   3.583   2.163  3.6604 -1.5230  0.2813
 3645TIP3   OH210898   4.319   5.131   1.450  0.4502  0.3359 -0.3072
 3645TIP3    H110899   4.339   5.127   1.357  0.7543 -2.8077 -0.2196
 3645TIP3    H210900   4.233   5.174   1.454  0.1609  0.0119 -2.0902
 3646TIP3   OH210901   2.096   6.379   5.502  0.2060 -0.2460  0.1501
 3646TIP3    H110902   2.158   6.417   5.439  0.1346 -0.4402 -0.0392
 3646TIP3    H210903   2.035   6.329   5.448  0.9774 -1.5940  0.4985
 3647TIP3   OH210904   4.866   0.023   5.508 -0.3601 -0.2867  0.2585
 3647TIP3    H110905   4.825   0.103   5.540  0.0418  0.7518 -1.6533
 3647TIP3    H210906   4.918  -0.009   5.581  0.0406  1.6077  0.8444
 3648TIP3   OH210907   2.625   4.816   4.044 -0.1406 -0.4740  0.4270
 3648TIP3    H110908   2.613   4.726   4.013 -1.6231 -0.5787  1.2357
 3648TIP3    H210909   2.596   4.814   4.135  1.2447  0.5015  0.9349
 3649TIP3   OH210910   0.956   0.263   5.824 -0.7494  0.0495 -0.0696
 3649TIP3    H110911   0.861   0.262   5.835 -0.6879  0.7095  0.6428
 3649TIP3    H210912   0.990   0.260   5.914 -0.0991 -0.1054 -0.3154
 3650TIP3   OH210913   1.714   0.401   1.710  0.5028  0.2756 -0.0611
 3650TIP3    H110914   1.669   0.457   1.773 -2.4221 -1.2280 -0.6128
 3650TIP3    H210915   1.675   0.423   1.626  0.3684 -1.4811 -0.5035
 3651TIP3   OH210916   0.842   1.962   1.310 -0.3546 -0.3005  0.0249
 3651TIP3    H110917   0.880   1.999   1.231  0.0385 -1.0461 -0.1427
 3651TIP3    H210918   0.848   2.032   1.375 -1.3445  0.5787 -0.7912
 3652TIP3   OH210919   4.402   3.925   0.701  0.5949 -0.0864 -0.4027
 3652TIP3    H110920   4.337   3.910   0.633  0.7118  0.0433 -0.5451
 3652TIP3    H210921   4.369   4.002   0.748  0.2116 -0.5315  0.0612
 3653TIP3   OH210922   1.473   0.502   2.299 -0.1221  0.4010 -0.4603
 3653TIP3    H110923   1.412   0.437   2.334 -0.1407  0.1412 -0.9570
 3653TIP3    H210924   1.550   0.451   2.275  0.3020  0.7358  0.1925
 3654TIP3   OH210925   3.052   6.396   5.673  0.0781  0.3575  0.0035
 3654TIP3    H110926   3.027   6.372   5.762 -1.1428 -0.3920 -0.5109
 3654TIP3    H210927   3.144   6.372   5.667  0.1341  0.2748  1.0240
 3655TIP3   OH210928   4.576   1.142   4.438  0.2095 -0.2632 -0.0961
 3655TIP3    H110929   4.612   1.228   4.461 -0.5227 -0.0279  0.2098
 3655TIP3    H210930   4.613   1.083   4.504 -1.1583  0.2500  1.1880
 3656TIP3   OH210931   3.418   0.795   4.444 -0.5834 -0.4250 -0.2164
 3656TIP3    H110932   3.389   0.830   4.527 -0.3787 -1.0920  0.1434
 3656TIP3    H210933   3.353   0.729   4.421  0.3479 -1.5866  0.3589
 3657TIP3   OH210934   4.950   0.893   3.852  0.0960  0.0091 -0.1348
 3657TIP3    H110935   4.940   0.831   3.925 -4.0851  1.3363  0.7073
 3657TIP3    H210936   4.996   0.843   3.785 -1.4260 -3.4717  1.1575
 3658TIP3   OH210937   2.784   4.685   3.733 -0.1360  0.5046  0.1764
 3658TIP3    H110938   2.766   4.608   3.678  0.4654  0.2850  0.2789
 3658TIP3    H210939   2.811   4.648   3.817  0.5480  0.8194  0.1015
 3659TIP3   OH210940   4.760   4.003   0.408 -0.4314  0.1916  0.0692
 3659TIP3    H110941   4.847   3.963   0.408 -0.2830  0.4356 -1.5686
 3659TIP3    H210942   4.742   4.023   0.500  1.1336 -0.0985  0.4592
 3660TIP3   OH210943   3.700   5.175   0.370  0.3256  0.1153 -0.4229
 3660TIP3    H110944   3.704   5.095   0.421 -1.6688 -0.8651 -1.6706
 3660TIP3    H210945   3.667   5.241   0.431  1.8692  0.0015  0.5845
 3661TIP3   OH210946   7.036   1.657   2.168  0.1987  0.5823  0.0881
 3661TIP3    H110947   6.966   1.594   2.184 -0.2493  1.1033  0.2060
 3661TIP3    H210948   6.993   1.730   2.123  0.6348  0.9800  0.3042
 3662TIP3   OH210949   1.246   4.382   2.568 -0.3527 -0.5191  0.3361
 3662TIP3    H110950   1.154   4.362   2.586 -0.3655 -1.1746 -0.3917
 3662TIP3    H210951   1.268   4.325   2.494  1.0706 -1.4704  1.4575
 3663TIP3   OH210952   0.949   5.032   0.094  1.1244  0.1803 -0.2983
 3663TIP3    H110953   1.001   4.965   0.049  1.1253  0.1047 -0.1868
 3663TIP3    H210954   0.858   5.007   0.077  1.1243  0.0765 -0.1491
 3664TIP3   OH210955   2.606   2.751   3.960 -0.7809 -0.0952 -0.2893
 3664TIP3    H110956   2.543   2.816   3.930 -0.1326  0.4104 -0.5611
 3664TIP3    H210957   2.688   2.799   3.972  0.6579 -1.4088 -3.7357
 3665TIP3   OH210958   4.547   6.604   0.991  0.1034  0.0294 -0.0786
 3665TIP3    H110959   4.643   6.607   0.994  0.0834 -0.0248  0.7799
 3665TIP3    H210960   4.519   6.629   1.079 -0.6644 -0.2471 -0.2370
 3666TIP3   OH210961   5.721   4.445   5.788 -0.2158  0.0968 -0.3733
 3666TIP3    H110962   5.732   4.540   5.776 -2.0458  0.2514 -1.1737
 3666TIP3    H210963   5.808   4.414   5.815  1.1171  1.6058 -2.5894
 3667TIP3   OH210964   4.344   1.143   1.167 -0.1975  0.4756 -0.1199
 3667TIP3    H110965   4.276   1.154   1.101  0.0696  0.0698 -0.4696
 3667TIP3    H210966   4.424   1.172   1.123  0.0017  0.0876 -0.0184
 3668TIP3   OH210967   1.664   4.628   3.830 -0.1851  0.0703 -0.3375
 3668TIP3    H110968   1.696   4.538   3.823  0.4795  0.0990  1.7425
 3668TIP3    H210969   1.735   4.675   3.874 -1.0317  1.3319 -0.2837
 3669TIP3   OH210970   6.880   0.778   4.159  0.3699 -0.0604 -0.5226
 3669TIP3    H110971   6.953   0.838   4.142 -1.1491  1.6970 -1.2324
 3669TIP3    H210972   6.881   0.765   4.253 -0.3353  2.6732 -0.0353
 3670TIP3   OH210973   2.311   3.556   0.318 -0.1222 -0.0061 -0.2331
 3670TIP3    H110974   2.334   3.649   0.319 -0.7816  0.1644  0.1479
 3670TIP3    H210975   2.381   3.514   0.268  0.4282  0.6308 -0.0162
 3671TIP3   OH210976   2.053   5.420   1.123 -0.0887 -0.2798 -0.5773
 3671TIP3    H110977   2.121   5.353   1.132  1.0824  0.7416 -1.5977
 3671TIP3    H210978   1.986   5.394   1.186  0.7317 -1.9255 -0.3283
 3672TIP3   OH210979   3.619   1.823   2.774 -0.3842  0.2222 -0.2938
 3672TIP3    H110980   3.652   1.779   2.852 -0.9580 -0.7010 -0.5631
 3672TIP3    H210981   3.537   1.863   2.802  0.5933  1.9986  0.2115
 3673TIP3   OH210982   0.384   2.808   4.781 -0.5155  0.0173 -0.2505
 3673TIP3    H110983   0.335   2.779   4.857 -0.0449  1.0927  0.4805
 3673TIP3    H210984   0.473   2.822   4.813 -0.0269 -0.6206 -1.2603
 3674TIP3   OH210985   2.335   1.182   4.634  0.1620 -0.5182  0.6209
 3674TIP3    H110986   2.358   1.274   4.646  2.7623 -0.9902 -0.0630
 3674TIP3    H210987   2.368   1.139   4.713 -1.3120 -0.8576  1.0788
 3675TIP3   OH210988   4.125   0.198   4.870  0.6321 -0.2742 -0.4147
 3675TIP3    H110989   4.103   0.288   4.896  1.5527  0.0076 -0.5649
 3675TIP3    H210990   4.067   0.180   4.796  1.0813  0.5455 -0.9851
 3676TIP3   OH210991   4.168   5.854   2.542 -0.1237 -0.1812  0.7178
 3676TIP3    H110992   4.105   5.822   2.477 -1.9764 -0.6365  2.6222
 3676TIP3    H210993   4.186   5.944   2.516  0.1813 -0.7254 -1.1116
 3677TIP3   OH210994   1.083   1.448   4.818  0.8095 -0.0699  0.1837
 3677TIP3    H110995   1.043   1.380   4.764  0.0389  0.5809 -0.0872
 3677TIP3    H210996   1.009   1.499   4.851  1.2077 -0.6925  2.2342
 3678TIP3   OH210997   3.778   0.231   5.648 -0.1650  0.1523  0.0979
 3678TIP3    H110998   3.774   0.162   5.582  0.3981  0.0462  0.1706
 3678TIP3    H210999   3.800   0.186   5.729  0.0751  0.3956  0.1705
 3679TIP3   OH211000   3.299   0.561   5.154 -0.0948  0.3581 -0.0860
 3679TIP3    H111001   3.226   0.623   5.156 -0.7260 -0.3407 -0.7371
 3679TIP3    H211002   3.344   0.574   5.237  0.6153  2.6403 -0.7498
 3680TIP3   OH211003   5.576   0.585   5.649 -0.1747 -0.1594 -0.3883
 3680TIP3    H111004   5.548   0.577   5.740 -1.5803 -1.2373 -0.8796
 3680TIP3    H211005   5.656   0.532   5.644  0.1356  0.2303  0.2954
 3681TIP3   OH211006   4.751   0.268   3.411  0.2607 -0.3303  0.8042
 3681TIP3    H111007   4.818   0.283   3.344 -0.0565  1.7596  0.8717
 3681TIP3    H211008   4.799   0.272   3.494  0.1940  0.4962  0.8196
 3682TIP3   OH211009   0.640   0.250   4.147  0.1342  0.2139 -0.1119
 3682TIP3    H111010   0.657   0.250   4.241 -0.3113 -1.8969 -0.0019
 3682TIP3    H211011   0.574   0.319   4.135 -3.6901 -2.7146  1.9388
 3683TIP3   OH211012   0.193   5.974   5.608  0.1286  0.7232  0.5348
 3683TIP3    H111013   0.153   5.948   5.525 -0.8852 -2.0393  1.7878
 3683TIP3    H211014   0.264   5.911   5.621 -1.3266 -0.5452  2.8983
 3684TIP3   OH211015   6.156   5.841   0.739 -0.6674 -0.0424 -0.3728
 3684TIP3    H111016   6.171   5.932   0.765 -0.4823 -0.0239 -0.5372
 3684TIP3    H211017   6.063   5.836   0.721 -0.3919  0.6234 -2.2176
 3685TIP3   OH211018   0.164   3.979   1.618 -0.0657 -0.2462 -0.3089
 3685TIP3    H111019   0.099   3.928   1.570  1.0764 -0.4458 -1.7446
 3685TIP3    H211020   0.225   3.913   1.651 -0.3834 -0.0374  0.7210
 3686TIP3   OH211021   6.060   4.616   5.134 -0.4833 -0.6552  0.2242
 3686TIP3    H111022   6.051   4.525   5.161  0.4840 -0.4850  1.1541
 3686TIP3    H211023   6.133   4.649   5.185  0.0206  0.2823 -1.0678
 3687TIP3   OH211024   3.246   1.329   3.980  0.2991  0.0835  0.0527
 3687TIP3    H111025   3.259   1.330   3.885  0.7124 -1.1001  0.0806
 3687TIP3    H211026   3.266   1.239   4.006 -1.2634 -0.0005  1.0644
 3688TIP3   OH211027   1.085   0.193   2.408  0.5163 -0.2324 -0.2901
 3688TIP3    H111028   1.024   0.170   2.479  0.5332 -2.2953 -0.8941
 3688TIP3    H211029   1.034   0.250   2.351 -0.0847 -0.0330  0.4238
 3689TIP3   OH211030   7.228   6.641   1.060 -0.0872 -0.3266 -0.6736
 3689TIP3    H111031   7.146   6.671   1.098 -0.4362 -2.0366  0.0096
 3689TIP3    H211032   7.206   6.560   1.014  1.2657 -1.1426  0.0029
 3690TIP3   OH211033   5.809   5.013   5.524 -0.1644  0.5660  0.0072
 3690TIP3    H111034   5.783   4.924   5.501 -0.8869  0.1384  2.2124
 3690TIP3    H211035   5.894   5.026   5.481  0.1462 -1.3238 -0.0047
 3691TIP3   OH211036   2.052   5.998   2.943  0.2572  0.1517 -0.0097
 3691TIP3    H111037   2.122   5.976   2.882  0.8360 -0.2921  0.8005
 3691TIP3    H211038   2.089   5.980   3.030 -0.7041  0.3445  0.4511
 3692TIP3   OH211039   5.890   5.755   0.639  0.6299 -0.0290 -0.0115
 3692TIP3    H111040   5.914   5.697   0.712  0.6745  0.1722  0.1329
 3692TIP3    H211041   5.821   5.707   0.592 -0.9495  0.7654  1.3982
 3693TIP3   OH211042   7.018   0.440   2.307  0.5228  0.2848  0.2960
 3693TIP3    H111043   6.948   0.505   2.304 -0.3894 -0.6802 -0.2465
 3693TIP3    H211044   6.972   0.356   2.299  1.6717 -0.4176  0.8985
 3694TIP3   OH211045   6.765   5.006   3.710 -0.3851  0.1471 -0.1954
 3694TIP3    H111046   6.751   4.991   3.803 -2.3015  0.8595 -0.3409
 3694TIP3    H211047   6.792   5.097   3.703  2.3676 -0.5596 -0.1615
 3695TIP3   OH211048   0.395   1.390   1.962 -0.0716  0.3409  0.6681
 3695TIP3    H111049   0.308   1.407   1.927  0.3766  0.8490 -0.2436
 3695TIP3    H211050   0.417   1.469   2.011  0.1963  0.5469  0.2197
 3696TIP3   OH211051   6.392   3.568   1.762  0.2871  0.7778 -0.2035
 3696TIP3    H111052   6.393   3.513   1.840  0.3979 -0.6900 -1.1792
 3696TIP3    H211053   6.410   3.507   1.690 -1.6040  1.7347 -1.5851
 3697TIP3   OH211054   1.618   1.549   5.774  0.1303  0.0903  0.0287
 3697TIP3    H111055   1.540   1.497   5.795 -0.4789  0.8556 -0.2571
 3697TIP3    H211056   1.618   1.555   5.679  0.8276 -0.3223 -0.0011
 3698TIP3   OH211057   0.495   0.902   5.063 -0.5269  0.3579  0.0308
 3698TIP3    H111058   0.521   0.873   4.975 -1.8960 -0.2666 -0.1930
 3698TIP3    H211059   0.440   0.831   5.096 -3.3536  2.3190 -0.2035
 3699TIP3   OH211060   6.277   1.710   1.981  0.1630 -0.2097 -0.4587
 3699TIP3    H111061   6.218   1.745   2.048 -0.3399 -2.3489  0.3069
 3699TIP3    H211062   6.220   1.660   1.923  0.9067 -0.2305 -1.1808
 3700TIP3   OH211063   5.529   1.916   1.783 -0.2416 -0.5487  0.3066
 3700TIP3    H111064   5.620   1.939   1.764 -1.0329  2.5123 -0.3240
 3700TIP3    H211065   5.505   1.855   1.714  0.2702  1.6625 -1.9839
 3701TIP3   OH211066   3.973   2.428   3.780 -0.2045 -0.2657  0.4873
 3701TIP3    H111067   3.970   2.455   3.872  1.4674 -0.2685  0.5632
 3701TIP3    H211068   3.894   2.375   3.768 -1.3792  1.1656  1.4379
 3702TIP3   OH211069   2.770   1.003   2.447 -0.3018  0.1925  0.0136
 3702TIP3    H111070   2.689   0.981   2.492 -0.1942 -1.3209 -0.4747
 3702TIP3    H211071   2.839   0.975   2.506 -0.1359  0.4535 -0.0524
 3703TIP3   OH211072   5.756   0.943   1.801 -0.4968 -0.0889  0.3983
 3703TIP3    H111073   5.725   0.886   1.872 -0.9680 -1.8467 -1.1479
 3703TIP3    H211074   5.704   0.918   1.725  1.0113  0.6910 -0.9564
 3704TIP3   OH211075   0.844   6.056   2.693 -0.2055  0.2198 -0.0294
 3704TIP3    H111076   0.777   6.114   2.657  0.8983  1.3422 -0.3494
 3704TIP3    H211077   0.837   6.067   2.788 -1.7316 -1.1524  0.0516
 3705TIP3   OH211078   3.913   6.814   2.804 -0.0130  0.5205  0.0215
 3705TIP3    H111079   3.831   6.767   2.789  0.8512 -2.0696  2.3763
 3705TIP3    H211080   3.951   6.826   2.717 -2.5243  1.2207 -1.0638
 3706TIP3   OH211081   0.034   0.969   3.626 -0.2877  0.6607  0.6538
 3706TIP3    H111082   0.002   1.036   3.686  0.0758  0.0082  1.5890
 3706TIP3    H211083   0.094   0.916   3.678  0.7365  0.6217 -0.5233
 3707TIP3   OH211084   5.665   1.806   3.175 -0.6804  0.0153  0.0023
 3707TIP3    H111085   5.682   1.891   3.133 -1.7037  0.3501  0.2482
 3707TIP3    H211086   5.611   1.759   3.111  0.1315 -0.5724 -0.2597
 3708TIP3   OH211087   4.008   4.912   1.588  0.3247  0.1405  0.3616
 3708TIP3    H111088   3.981   4.984   1.532  1.3813 -0.1301 -0.5236
 3708TIP3    H211089   3.960   4.836   1.555  0.1062  0.1956  0.5461
 3709TIP3   OH211090   4.646   5.108   5.822  0.1259  0.1991 -0.3598
 3709TIP3    H111091   4.650   5.180   5.759  1.4580  1.1567  0.7652
 3709TIP3    H211092   4.554   5.105   5.849  0.2451  2.3073  0.4666
 3710TIP3   OH211093   6.643   3.829   5.072 -0.6813  0.0190  0.1278
 3710TIP3    H111094   6.693   3.796   4.997  0.7199  1.7467  0.2129
 3710TIP3    H211095   6.597   3.753   5.106  0.2982 -1.2455 -1.2331
 3711TIP3   OH211096   1.505   5.973   4.454  0.5693  0.0943  0.1598
 3711TIP3    H111097   1.472   6.062   4.439  0.0893  0.3018  2.1272
 3711TIP3    H211098   1.428   5.917   4.443  0.9675 -0.1672 -1.5399
 3712TIP3   OH211099   0.205   5.980   1.913  0.0534 -0.1556 -0.2270
 3712TIP3    H111100   0.191   5.915   1.981  1.2957 -0.2711 -0.0627
 3712TIP3    H211101   0.242   5.931   1.840  1.6468  0.4318  0.1375
 3713TIP3   OH211102   1.084   1.923   2.799 -0.6681  0.3325  0.0555
 3713TIP3    H111103   1.145   1.988   2.764 -0.5074 -0.3665 -1.0103
 3713TIP3    H211104   1.029   1.972   2.860 -0.2825  1.3816 -0.4137
 3714TIP3   OH211105   3.449   1.299   1.069  0.4509 -0.5291  0.3912
 3714TIP3    H111106   3.421   1.248   1.145 -0.0418 -0.2659  0.3935
 3714TIP3    H211107   3.433   1.242   0.995 -0.5106 -0.2373  0.3528
 3715TIP3   OH211108   1.883   0.965   4.469  0.1071  0.1257 -0.1254
 3715TIP3    H111109   1.971   0.938   4.440 -0.6779 -1.6085 -1.0644
 3715TIP3    H211110   1.837   0.986   4.387 -0.8276 -0.5461  0.2212
 3716TIP3   OH211111   1.174   1.385   5.221  0.4493  0.0627 -0.2750
 3716TIP3    H111112   1.194   1.334   5.142  0.6427 -0.6432  0.2301
 3716TIP3    H211113   1.130   1.464   5.187 -1.9669 -1.4512 -0.9477
 3717TIP3   OH211114   3.457   6.140   0.440 -0.5634 -0.1679  0.3523
 3717TIP3    H111115   3.396   6.198   0.394 -0.8668 -1.2640 -0.6802
 3717TIP3    H211116   3.539   6.189   0.442 -1.0499  0.6707  0.3114
 3718TIP3   OH211117   5.007   5.498   2.995 -0.5913  0.1603 -0.4071
 3718TIP3    H111118   4.936   5.528   2.938 -1.7699 -1.6893  0.0152
 3718TIP3    H211119   5.016   5.567   3.060  0.0549  1.8151 -2.1292
 3719TIP3   OH211120  -0.005   5.528   2.092 -0.0567  0.2934 -0.1883
 3719TIP3    H111121   0.057   5.506   2.023 -0.5155  1.9584 -1.1760
 3719TIP3    H211122   0.003   5.622   2.103 -0.2256  0.1126  1.8452
 3720TIP3   OH211123   6.233   5.874   5.653  0.2289  0.3716  0.2541
 3720TIP3    H111124   6.169   5.889   5.583  0.5985  0.1791 -0.1277
 3720TIP3    H211125   6.236   5.779   5.662  0.7962  0.3591 -0.0428
 3721TIP3   OH211126   5.347   6.608   4.974 -0.0084  0.1970  0.2587
 3721TIP3    H111127   5.377   6.521   5.001 -1.2342  0.2053  1.7525
 3721TIP3    H211128   5.427   6.654   4.949  0.6887 -1.2812 -0.3946
 3722TIP3   OH211129   5.517   0.212   4.491 -0.1827 -0.1966 -0.5130
 3722TIP3    H111130   5.506   0.268   4.568 -0.1829  0.1945 -0.7927
 3722TIP3    H211131   5.595   0.159   4.511 -0.5595 -0.5553  0.0216
 3723TIP3   OH211132   5.947   4.093   5.089  0.4555 -0.0177 -0.0015
 3723TIP3    H111133   5.987   4.008   5.107 -0.2766 -0.1398  1.1673
 3723TIP3    H211134   5.854   4.081   5.109  0.5540  1.3939  1.5259
 3724TIP3   OH211135   5.124   4.640   4.168  0.4158  0.7180 -0.0281
 3724TIP3    H111136   5.203   4.685   4.137  0.4301  0.0359 -1.0546
 3724TIP3    H211137   5.052   4.685   4.125  0.3385  0.5474 -0.0780
 3725TIP3   OH211138   6.698   4.997   0.474 -0.2462 -0.0272  0.1586
 3725TIP3    H111139   6.747   4.915   0.479  0.2540  0.3059  0.9218
 3725TIP3    H211140   6.606   4.971   0.468 -0.1123 -0.6332  0.7122
 3726TIP3   OH211141   1.112   4.005   3.378 -0.3398  0.0230  0.4041
 3726TIP3    H111142   1.116   4.042   3.466  1.6242  2.6192 -0.6761
 3726TIP3    H211143   1.032   4.042   3.341 -0.1757  0.4345  0.4594
 3727TIP3   OH211144   1.269   0.662   1.329  0.1743  0.1460 -0.1834
 3727TIP3    H111145   1.250   0.749   1.364  0.1229 -0.1767  0.6093
 3727TIP3    H211146   1.269   0.605   1.406  1.6439 -0.3169 -0.4952
 3728TIP3   OH211147   0.913   0.064   3.406 -0.4709 -0.3199  0.4350
 3728TIP3    H111148   0.903   0.054   3.501 -0.5138 -0.0464  0.4602
 3728TIP3    H211149   0.946   0.153   3.395  0.5247 -0.6967  0.2511
 3729TIP3   OH211150   4.016   5.829   5.540 -0.2979  0.6198 -0.3050
 3729TIP3    H111151   4.011   5.908   5.486 -1.9541  0.4101 -0.5061
 3729TIP3    H211152   3.982   5.760   5.484  0.5658 -0.1398  0.0830
 3730TIP3   OH211153   2.555   5.691   3.204 -0.6008  0.1951 -0.0467
 3730TIP3    H111154   2.598   5.637   3.138 -1.1704  0.9579 -1.0491
 3730TIP3    H211155   2.518   5.627   3.266 -2.3984 -0.6533 -1.9055
 3731TIP3   OH211156   2.933   0.821   1.606  0.1071 -0.9532 -0.0129
 3731TIP3    H111157   2.932   0.801   1.512 -2.8912 -1.2059 -0.0252
 3731TIP3    H211158   2.962   0.912   1.610  1.8329 -1.4183 -1.0149
 3732TIP3   OH211159   3.662   4.713   2.357  0.2821  0.0824  0.1499
 3732TIP3    H111160   3.743   4.709   2.305 -0.1686 -0.5953 -0.5138
 3732TIP3    H211161   3.687   4.763   2.435  1.0200  0.9653 -0.6232
 3733TIP3   OH211162   5.826   4.016   3.487  0.3475 -0.0033 -0.1386
 3733TIP3    H111163   5.867   3.931   3.502 -1.3670 -0.5535  1.8305
 3733TIP3    H211164   5.780   4.006   3.404  0.9176 -0.6771 -0.3818
 3734TIP3   OH211165   1.405   2.190   3.585 -0.3413 -0.2059  0.3476
 3734TIP3    H111166   1.309   2.191   3.575 -0.3410  0.8427  0.3635
 3734TIP3    H211167   1.433   2.275   3.552  0.3089  0.7206  3.0646
 3735TIP3   OH211168   4.640   3.231   5.625 -0.2906 -0.0272 -0.2378
 3735TIP3    H111169   4.682   3.260   5.706  0.0226 -0.0280 -0.4009
 3735TIP3    H211170   4.585   3.305   5.599 -0.0217  0.1598 -0.2817
 3736TIP3   OH211171   5.208   2.948   4.979 -0.1596  0.3554  0.1049
 3736TIP3    H111172   5.177   2.906   4.898  1.0603 -0.7283  0.1675
 3736TIP3    H211173   5.136   2.936   5.041  0.1247 -1.6575  0.1072
 3737TIP3   OH211174   0.506   4.444   2.872 -0.4144 -0.1141 -0.4913
 3737TIP3    H111175   0.504   4.457   2.777 -3.1382  0.8666 -0.3778
 3737TIP3    H211176   0.516   4.532   2.908 -1.8164 -0.1980  0.1339
 3738TIP3   OH211177   1.563   1.875   5.584 -0.3831 -0.6103  0.0507
 3738TIP3    H111178   1.606   1.908   5.506 -2.1794 -0.0158 -0.7247
 3738TIP3    H211179   1.513   1.949   5.618 -2.0573 -1.6840  0.0062
 3739TIP3   OH211180   0.264   1.728   5.308 -0.0821 -0.1295  0.4526
 3739TIP3    H111181   0.174   1.737   5.276  0.7672 -0.8310 -2.4536
 3739TIP3    H211182   0.303   1.814   5.297 -0.2982  0.1037  1.4450
 3740TIP3   OH211183   5.176   2.332   2.780  0.0936 -0.0656  0.2516
 3740TIP3    H111184   5.118   2.407   2.784 -0.2615 -0.3018 -0.3817
 3740TIP3    H211185   5.236   2.351   2.708 -1.8367 -1.6520 -1.9080
 3741TIP3   OH211186   6.184   4.428   0.840 -0.2035  0.1047  0.4404
 3741TIP3    H111187   6.264   4.451   0.887 -0.6324  1.0096  0.7415
 3741TIP3    H211188   6.164   4.338   0.868  1.4094 -0.6344 -0.6423
 3742TIP3   OH211189   1.918   5.549   0.408 -0.9171 -0.4018 -0.1216
 3742TIP3    H111190   1.953   5.467   0.372 -1.1474 -0.4030 -0.3455
 3742TIP3    H211191   1.824   5.532   0.419 -0.9156 -0.2652  0.1063
 3743TIP3   OH211192   4.353   6.147   2.062  0.2512 -0.1206 -0.0134
 3743TIP3    H111193   4.322   6.206   2.131 -0.5686  0.7572 -1.0813
 3743TIP3    H211194   4.330   6.060   2.094 -0.3081  0.2818  0.7387
 3744TIP3   OH211195   4.209   1.862   3.231 -0.7427 -0.7726  0.2944
 3744TIP3    H111196   4.291   1.851   3.182  0.4598 -1.8857  2.3862
 3744TIP3    H211197   4.155   1.787   3.206 -0.1607 -1.3061  0.6065
 3745TIP3   OH211198   6.243   5.009   1.385 -0.3267 -0.1256  0.0825
 3745TIP3    H111199   6.184   5.065   1.435 -0.7423  0.6835 -1.2660
 3745TIP3    H211200   6.184   4.948   1.338  0.0532 -0.8878  0.5784
 3746TIP3   OH211201   4.824   2.723   1.261  0.2972  0.6745  0.1394
 3746TIP3    H111202   4.793   2.783   1.328  0.6671  0.9754  0.0462
 3746TIP3    H211203   4.889   2.669   1.306  1.3596  1.5986 -0.2196
 3747TIP3   OH211204   6.443   2.288   3.656 -0.4076  0.2175  0.2452
 3747TIP3    H111205   6.399   2.221   3.708 -1.2569 -1.0249 -1.9522
 3747TIP3    H211206   6.471   2.354   3.720  1.3095 -2.6148  2.6519
 3748TIP3   OH211207   4.382   6.709   1.539 -0.0759 -0.2827  0.1681
 3748TIP3    H111208   4.350   6.799   1.527 -1.9119 -0.5863  2.2631
 3748TIP3    H211209   4.335   6.659   1.472  1.3392  0.3141 -1.3605
 3749TIP3   OH211210   5.582   4.855   2.312 -0.4450  0.1121 -0.4468
 3749TIP3    H111211   5.590   4.801   2.234 -0.2431 -1.0082  0.3348
 3749TIP3    H211212   5.572   4.793   2.384  1.0613  1.0482  0.6390
 3750TIP3   OH211213   5.771   4.211   2.749 -0.0517  0.2731  0.1474
 3750TIP3    H111214   5.704   4.152   2.714  0.3384 -1.4850  2.1231
 3750TIP3    H211215   5.734   4.299   2.737 -1.8736 -0.5262 -0.4897
 3751TIP3   OH211216   3.635   6.201   2.602  0.3229 -0.2861  0.4257
 3751TIP3    H111217   3.712   6.169   2.648  1.0509  1.0849  0.2290
 3751TIP3    H211218   3.659   6.196   2.509  0.7006  1.3221  0.4066
 3752TIP3   OH211219   2.960   5.810   3.438 -0.2327 -0.2214 -0.2058
 3752TIP3    H111220   3.033   5.754   3.463 -0.5968 -0.6050  0.0102
 3752TIP3    H211221   2.949   5.795   3.344 -0.7842 -1.0625 -0.0170
 3753TIP3   OH211222   0.567   3.986   2.866  0.1152 -0.0814 -0.1615
 3753TIP3    H111223   0.503   4.051   2.838  0.0022 -0.9047 -1.9352
 3753TIP3    H211224   0.632   3.984   2.796  0.8123 -0.9602  0.4843
 3754TIP3   OH211225   2.186   2.898   1.969 -0.3527  0.1222  0.1528
 3754TIP3    H111226   2.268   2.922   2.013 -0.7276 -1.8274  2.0703
 3754TIP3    H211227   2.207   2.819   1.920 -1.1298 -0.5355  0.8633
 3755TIP3   OH211228   5.257   3.695   1.525 -0.1575 -0.0484  0.6449
 3755TIP3    H111229   5.316   3.621   1.510 -0.2392  0.1742 -0.9868
 3755TIP3    H211230   5.204   3.668   1.600  1.8880 -0.3041  2.0977
 3756TIP3   OH211231   3.239   1.914   5.735 -0.4877 -0.2824  0.0205
 3756TIP3    H111232   3.190   1.887   5.813 -1.2578 -0.7336 -0.5927
 3756TIP3    H211233   3.330   1.899   5.757 -0.7767 -1.8213  0.3347
 3757TIP3   OH211234   4.883   4.853   5.745  0.0683 -0.2583  0.3284
 3757TIP3    H111235   4.889   4.864   5.840  0.0130  2.6819  0.0816
 3757TIP3    H211236   4.794   4.821   5.731 -0.0376 -0.4116  1.2647
 3758TIP3   OH211237   4.325   3.669   1.909  0.3676  0.0622  0.2155
 3758TIP3    H111238   4.326   3.583   1.951  0.1235  0.1167  0.3283
 3758TIP3    H211239   4.232   3.691   1.899  0.4312  0.4009  0.3624
 3759TIP3   OH211240   7.223   5.253   4.102  0.3750  0.1137  0.3296
 3759TIP3    H111241   7.145   5.199   4.115  0.2697  0.4694  1.2600
 3759TIP3    H211242   7.258   5.265   4.190  2.0661 -0.8967 -0.1640
 3760TIP3   OH211243   3.264   0.890   1.972 -0.5717 -0.1139  0.0644
 3760TIP3    H111244   3.187   0.836   1.956  0.4799 -2.1637  1.4681
 3760TIP3    H211245   3.301   0.856   2.054  2.0253  0.5482 -0.7339
 3761TIP3   OH211246   4.915   2.883   4.407  0.7104 -0.0934 -0.2590
 3761TIP3    H111247   4.921   2.914   4.498  3.3933  0.8682 -0.6867
 3761TIP3    H211248   4.920   2.963   4.355  0.3213 -0.7280 -1.2884
 3762TIP3   OH211249   5.468   3.603   4.903  0.1414  0.0704  0.0916
 3762TIP3    H111250   5.503   3.514   4.909 -0.7292 -0.2629  0.3777
 3762TIP3    H211251   5.474   3.637   4.993  1.2720  0.6286 -0.1739
 3763TIP3   OH211252   5.979   3.153   5.716  0.2395 -0.6999 -0.2295
 3763TIP3    H111253   6.053   3.207   5.744  1.7199 -3.6867  2.2515
 3763TIP3    H211254   6.001   3.127   5.627  2.5323 -1.8202  0.5643
 3764TIP3   OH211255   3.631   5.105   1.212  0.3356 -0.4019  0.2718
 3764TIP3    H111256   3.616   5.198   1.229  0.0709 -0.4526  0.3189
 3764TIP3    H211257   3.609   5.094   1.119  0.8108 -0.3256  0.1482
 3765TIP3   OH211258   3.182   4.383   4.457 -0.2153 -0.1353 -0.4483
 3765TIP3    H111259   3.207   4.380   4.364 -0.3255 -1.2521 -0.4523
 3765TIP3    H211260   3.239   4.450   4.494  0.2264 -0.0715 -1.2086
 3766TIP3   OH211261   6.357   5.092   4.157 -0.0558 -0.0719  0.1712
 3766TIP3    H111262   6.365   5.051   4.071 -0.7799  0.8600 -0.3612
 3766TIP3    H211263   6.368   5.021   4.219 -0.9061 -1.0178 -0.7232
 3767TIP3   OH211264   4.503   6.664   0.504 -0.2817 -0.1094 -0.1660
 3767TIP3    H111265   4.413   6.642   0.479 -0.2848 -0.0353 -0.2202
 3767TIP3    H211266   4.498   6.755   0.532 -0.1468  0.0178 -0.5514
 3768TIP3   OH211267   7.033   4.423   0.711 -0.8446  0.5180 -0.1733
 3768TIP3    H111268   7.103   4.384   0.762  0.0506  2.1252 -0.0953
 3768TIP3    H211269   6.955   4.414   0.766 -0.3959  0.0137  0.3822
 3769TIP3   OH211270   1.224   3.106   0.566 -0.1977 -0.1691 -0.5875
 3769TIP3    H111271   1.298   3.045   0.562 -0.9129 -1.0068 -3.1153
 3769TIP3    H211272   1.183   3.089   0.651  0.5277 -2.1212 -0.5714
 3770TIP3   OH211273   6.965   1.654   3.698 -0.5967  0.0705  0.0436
 3770TIP3    H111274   7.051   1.659   3.655 -0.9827 -1.7991 -1.0731
 3770TIP3    H211275   6.937   1.563   3.683 -3.3513  0.9807 -0.7630
 3771TIP3   OH211276   2.356   6.201   4.522  0.2872  0.6804  0.3424
 3771TIP3    H111277   2.323   6.220   4.434 -2.5315  1.6387  1.4561
 3771TIP3    H211278   2.426   6.265   4.535 -0.1920  1.4744 -0.7278
 3772TIP3   OH211279   4.725   2.760   5.514 -0.0636  0.3679 -0.3617
 3772TIP3    H111280   4.739   2.775   5.607  0.6878 -0.5557 -0.3091
 3772TIP3    H211281   4.790   2.694   5.490 -0.8434 -0.0830 -1.3421
 3773TIP3   OH211282   4.438   1.743   0.736  0.3191 -0.0167 -0.2606
 3773TIP3    H111283   4.372   1.706   0.679  1.1196 -1.2720 -0.4090
 3773TIP3    H211284   4.512   1.683   0.730  1.3306  1.1254  0.2142
 3774TIP3   OH211285   5.421   1.480   5.494 -0.0149  0.7979  0.1202
 3774TIP3    H111286   5.510   1.454   5.519  0.6314  1.2524 -1.5630
 3774TIP3    H211287   5.424   1.489   5.399 -1.6601  1.6125  0.0990
 3775TIP3   OH211288   4.895   6.526   0.248  0.3792  0.0374  0.9397
 3775TIP3    H111289   4.877   6.538   0.155  0.9745 -1.6724  0.5672
 3775TIP3    H211290   4.861   6.605   0.289 -0.5533  0.5075 -0.6404
 3776TIP3   OH211291   6.646   0.699   4.631 -0.0090 -0.0175 -0.4984
 3776TIP3    H111292   6.618   0.742   4.550 -1.5056 -2.6640 -1.5271
 3776TIP3    H211293   6.580   0.724   4.695  0.0376  0.4679 -0.6360
 3777TIP3   OH211294   0.119   3.639   1.236  0.5267 -0.4702  0.0023
 3777TIP3    H111295   0.086   3.728   1.225  1.9272  0.2309  1.1029
 3777TIP3    H211296   0.041   3.584   1.230 -0.0323  0.4121 -4.2135
 3778TIP3   OH211297   6.654   6.416   1.228  0.1527 -0.0403 -0.0392
 3778TIP3    H111298   6.637   6.495   1.280  0.8193  0.7275 -0.9457
 3778TIP3    H211299   6.741   6.430   1.190  0.4963 -1.4433  0.1738
 3779TIP3   OH211300   6.753   3.531   0.311  0.1916  0.0016 -0.4739
 3779TIP3    H111301   6.702   3.454   0.336 -1.5313  1.3583  0.4951
 3779TIP3    H211302   6.817   3.541   0.381 -0.4458  0.1555  0.1066
 3780TIP3   OH211303   6.193   2.067   1.613 -0.0015 -0.2240 -0.5519
 3780TIP3    H111304   6.156   2.011   1.681  1.9152  0.4886  1.1563
 3780TIP3    H211305   6.245   2.008   1.559  1.6882 -0.2206  1.0012
 3781TIP3   OH211306   2.823   1.410   5.545  0.6579  0.1176 -0.2975
 3781TIP3    H111307   2.849   1.387   5.455  1.3120  0.0261 -0.0958
 3781TIP3    H211308   2.750   1.351   5.564  1.1274 -0.5339 -0.4432
 3782TIP3   OH211309   0.083   2.584   5.120  0.1931 -0.3942  0.2848
 3782TIP3    H111310   0.127   2.499   5.117  1.9105  0.4677 -0.9342
 3782TIP3    H211311   0.154   2.648   5.123 -1.0585  1.0136  1.2440
 3783TIP3   OH211312   0.551   6.472   4.975 -0.9349  0.0975 -0.0983
 3783TIP3    H111313   0.562   6.497   4.883 -1.0430  0.7209  0.0548
 3783TIP3    H211314   0.516   6.551   5.017  0.2827  0.2060  0.7297
 3784TIP3   OH211315   3.080   4.588   3.712 -0.7269 -0.4627 -0.6778
 3784TIP3    H111316   3.096   4.497   3.689  0.3887 -0.6573  0.7370
 3784TIP3    H211317   3.124   4.638   3.644 -2.2193 -0.9386 -2.0463
 3785TIP3   OH211318   5.171   6.018   5.462  0.4332 -0.4837  0.6202
 3785TIP3    H111319   5.157   6.022   5.557 -2.1926  0.0893  0.2985
 3785TIP3    H211320   5.114   5.947   5.433  0.8951 -0.3852 -0.5868
 3786TIP3   OH211321   4.479   2.483   2.674  0.0031  0.5365 -0.0458
 3786TIP3    H111322   4.477   2.495   2.769 -0.9742  1.3685 -0.1591
 3786TIP3    H211323   4.572   2.473   2.653  0.2920  1.1643  0.8945
 3787TIP3   OH211324   4.848   2.373   0.260 -0.2308  0.0826 -0.3078
 3787TIP3    H111325   4.912   2.351   0.329 -1.3003 -0.9838  0.3837
 3787TIP3    H211326   4.846   2.295   0.204 -2.9527 -1.1423  1.2997
 3788TIP3   OH211327   1.227   2.540   3.279 -0.1639 -0.0824  0.2077
 3788TIP3    H111328   1.188   2.456   3.253  0.7194 -0.4997  0.1838
 3788TIP3    H211329   1.299   2.516   3.338 -0.2582  0.6949  0.6509
 3789TIP3   OH211330   6.317   4.211   5.177  0.3148 -0.3335 -0.5914
 3789TIP3    H111331   6.358   4.147   5.235 -2.1461 -0.6226  0.9914
 3789TIP3    H211332   6.368   4.206   5.096  3.4442 -0.4599  1.2066
 3790TIP3   OH211333   0.859   4.365   3.740  0.2631  0.4083  0.0334
 3790TIP3    H111334   0.781   4.317   3.714  0.9836 -2.5101  2.7353
 3790TIP3    H211335   0.830   4.423   3.810  0.7639 -2.6240  2.9740
 3791TIP3   OH211336   5.983   2.656   1.010 -0.2290 -0.0658  0.1162
 3791TIP3    H111337   6.061   2.709   1.022  0.1411 -0.2385 -1.3947
 3791TIP3    H211338   6.010   2.584   0.954 -0.9015 -1.4848  1.5397
 3792TIP3   OH211339   4.948   6.319   0.633  0.1831 -0.5040 -0.4404
 3792TIP3    H111340   4.888   6.299   0.706 -0.3792 -1.3721 -1.1235
 3792TIP3    H211341   5.028   6.271   0.655  0.3861  0.0699  0.1124
 3793TIP3   OH211342   2.991   1.945   4.083 -0.4282  0.0860 -0.6248
 3793TIP3    H111343   2.988   1.925   4.176  1.9694  1.7729 -0.0814
 3793TIP3    H211344   2.911   1.907   4.047 -0.5010 -2.2677  1.7629
 3794TIP3   OH211345   2.596   3.763   4.224 -0.5287  0.1695  0.1524
 3794TIP3    H111346   2.660   3.827   4.191 -1.1417 -0.0243 -1.5089
 3794TIP3    H211347   2.516   3.814   4.234 -1.6572 -0.6467 -3.3302
 3795TIP3   OH211348   6.886   5.676   5.822 -0.5231 -0.5366  0.4047
 3795TIP3    H111349   6.879   5.583   5.844  0.9860 -0.3553  1.8264
 3795TIP3    H211350   6.906   5.719   5.904 -2.0125  1.2114 -0.0635
 3796TIP3   OH211351   6.429   3.655   0.348 -0.1610 -0.3435 -0.4767
 3796TIP3    H111352   6.437   3.657   0.443 -3.4842  2.0916 -0.0724
 3796TIP3    H211353   6.503   3.707   0.316 -0.3835  0.9219  0.9739
 3797TIP3   OH211354   1.551   3.224   0.363  0.1209 -0.0513  0.2329
 3797TIP3    H111355   1.570   3.246   0.271 -2.7658 -1.3017 -0.8070
 3797TIP3    H211356   1.607   3.149   0.382  1.9577  1.2163  0.1203
 3798TIP3   OH211357   0.657   5.043   2.822  0.0898  0.0370 -0.7302
 3798TIP3    H111358   0.588   5.021   2.883  1.3702 -0.4201  0.6062
 3798TIP3    H211359   0.737   5.006   2.861  0.9349 -0.4444 -2.7564
 3799TIP3   OH211360   1.037   6.496   0.891 -0.3113 -0.3669  0.4215
 3799TIP3    H111361   1.051   6.588   0.912  0.9288 -0.5099  0.2926
 3799TIP3    H211362   1.120   6.466   0.854 -1.3065 -1.0451 -1.4007
 3800TIP3   OH211363   1.839   2.039   4.647  0.8895 -0.5019 -0.4147
 3800TIP3    H111364   1.886   2.072   4.724  1.8551 -1.5264 -0.5445
 3800TIP3    H211365   1.905   2.036   4.578  0.0652  0.2706 -1.2649
 3801TIP3   OH211366   1.821   2.291   0.241  0.1484  0.0992  0.3196
 3801TIP3    H111367   1.810   2.214   0.184 -0.0886  0.0599  0.4188
 3801TIP3    H211368   1.732   2.314   0.267  0.0453  1.3916 -1.0085
 3802TIP3   OH211369   3.619   2.601   5.082 -0.0317  0.1158 -0.3560
 3802TIP3    H111370   3.565   2.582   5.159  2.7910  0.2941  1.8420
 3802TIP3    H211371   3.667   2.520   5.065 -0.6514  0.0683 -1.9962
 3803TIP3   OH211372   5.106   4.401   4.975 -0.0927 -0.3018  0.0388
 3803TIP3    H111373   5.069   4.336   4.915 -0.9316 -1.5484  1.8082
 3803TIP3    H211374   5.053   4.479   4.960 -0.7007 -0.7851 -0.4161
 3804TIP3   OH211375   5.876   2.069   2.141  0.0664  0.3331 -0.1038
 3804TIP3    H111376   5.832   2.100   2.061  0.3861 -1.9337 -1.2457
 3804TIP3    H211377   5.969   2.078   2.122  0.1435  0.1390  0.1818
 3805TIP3   OH211378   2.064   6.377   4.974  0.5260  0.0620 -0.6127
 3805TIP3    H111379   2.037   6.304   5.029 -0.2903  1.3252  0.7399
 3805TIP3    H211380   2.157   6.387   4.990  0.5258 -0.3314 -0.3783
 3806TIP3   OH211381   0.071   2.389   3.080  0.0869  0.2205  0.1244
 3806TIP3    H111382   0.134   2.323   3.051  0.4528  0.1079  1.1377
 3806TIP3    H211383  -0.015   2.349   3.063  0.2659  0.3140 -1.1211
 3807TIP3   OH211384   5.464   3.704   2.469  0.0380 -0.5004 -0.0073
 3807TIP3    H111385   5.476   3.718   2.563  0.6801 -1.1438  0.0226
 3807TIP3    H211386   5.405   3.774   2.441  0.4417  0.1562  0.7318
 3808TIP3   OH211387   1.443   6.142   5.682 -0.1880 -0.0075  0.0751
 3808TIP3    H111388   1.439   6.223   5.631  0.0555  0.8064  1.3028
 3808TIP3    H211389   1.534   6.138   5.713  0.3192 -1.7100 -1.4422
 3809TIP3   OH211390   3.185   1.100   0.197 -0.3202 -0.1713 -0.4445
 3809TIP3    H111391   3.160   1.043   0.124 -3.2420  0.6302 -0.2144
 3809TIP3    H211392   3.123   1.078   0.266  3.0344 -1.7147  2.3613
 3810TIP3   OH211393   6.928   1.385   3.747  0.3203  0.2018 -0.1492
 3810TIP3    H111394   6.843   1.342   3.741 -0.4693  1.6221  0.3240
 3810TIP3    H211395   6.989   1.315   3.771 -0.5036 -1.0467 -1.5228
 3811TIP3   OH211396   3.948   3.504   2.198  0.7636 -0.4381 -0.1006
 3811TIP3    H111397   3.865   3.458   2.196  0.2080  0.5086  0.3709
 3811TIP3    H211398   3.943   3.565   2.124  0.1764  1.0193  1.0826
 3812TIP3   OH211399   3.640   1.171   4.287  0.6248 -0.3414  0.1533
 3812TIP3    H111400   3.726   1.197   4.255  0.5235 -2.0880 -1.7908
 3812TIP3    H211401   3.644   1.075   4.290 -1.1953 -0.4482  0.1698
 3813TIP3   OH211402   4.294   1.556   5.790 -0.2936 -0.3065 -0.2927
 3813TIP3    H111403   4.276   1.629   5.850  2.1567  1.1052 -1.1035
 3813TIP3    H211404   4.273   1.591   5.704  0.8704 -0.5406 -0.6866
 3814TIP3   OH211405   3.453   5.366   3.136  0.3019 -0.3359  0.2702
 3814TIP3    H111406   3.458   5.288   3.081  1.6293 -0.4009  0.4511
 3814TIP3    H211407   3.462   5.439   3.074 -0.4385 -0.3292  0.1601
 3815TIP3   OH211408   6.411   6.091   0.776 -0.6382  1.3873  0.2426
 3815TIP3    H111409   6.316   6.087   0.762 -1.0657 -1.3261  2.9209
 3815TIP3    H211410   6.444   6.008   0.741  0.3272  1.1200  1.7193
 3816TIP3   OH211411   7.035   2.808   3.380 -0.0013  0.1823 -0.4758
 3816TIP3    H111412   6.997   2.749   3.445 -0.8268  0.8104 -0.3723
 3816TIP3    H211413   7.033   2.894   3.422 -2.3334  0.9760 -1.9765
 3817TIP3   OH211414   1.194   5.169   0.199  0.3963  0.1105 -0.3881
 3817TIP3    H111415   1.123   5.121   0.156  0.6981  0.3356 -1.1556
 3817TIP3    H211416   1.245   5.102   0.244 -0.3393 -0.0482  0.2353
 3818TIP3   OH211417   1.157   1.707   2.418  0.5292  0.0202  0.4899
 3818TIP3    H111418   1.190   1.617   2.420  1.6433  0.4258  1.4509
 3818TIP3    H211419   1.079   1.703   2.364  1.3893 -1.2476 -0.7153
 3819TIP3   OH211420   2.525   1.640   0.776  0.1021  0.0618  0.7105
 3819TIP3    H111421   2.454   1.577   0.762 -1.2695  1.6124  0.3272
 3819TIP3    H211422   2.494   1.695   0.848  0.9045  0.8014  0.5087
 3820TIP3   OH211423   7.022   1.487   2.971  0.8928 -0.0331  1.0456
 3820TIP3    H111424   6.927   1.492   2.980  0.8541  2.9884 -0.1716
 3820TIP3    H211425   7.054   1.473   3.060 -0.6395 -0.5053  1.5482
 3821TIP3   OH211426   0.397   6.402   0.981  0.0365 -0.4569 -0.0283
 3821TIP3    H111427   0.381   6.461   1.055  0.8437  0.2563 -0.4098
 3821TIP3    H211428   0.457   6.450   0.924  0.3328 -1.4575 -0.5837
 3822TIP3   OH211429   5.028   5.350   4.527  0.4750  0.3926  0.2888
 3822TIP3    H111430   5.113   5.316   4.498  0.0331 -1.2897  0.8361
 3822TIP3    H211431   4.981   5.371   4.446  0.6662 -0.6328 -0.1033
 3823TIP3   OH211432   0.310   3.362   2.301 -0.1254 -0.2657  0.2526
 3823TIP3    H111433   0.311   3.377   2.395  0.9324 -0.7716  0.3358
 3823TIP3    H211434   0.402   3.348   2.278 -0.3337  0.2010 -0.9117
 3824TIP3   OH211435   4.911   4.508   3.980 -0.4678 -0.1633 -0.0171
 3824TIP3    H111436   4.914   4.500   3.885 -0.2001 -0.4610  0.0163
 3824TIP3    H211437   4.820   4.532   3.999 -0.4967  0.0019 -0.3527
 3825TIP3   OH211438   5.364   3.384   4.616 -0.2905 -0.3865  0.3548
 3825TIP3    H111439   5.292   3.420   4.564 -0.5429  0.5032  1.2935
 3825TIP3    H211440   5.437   3.377   4.555 -0.2575  1.6349  0.1029
 3826TIP3   OH211441   0.923   0.670   4.721 -0.1944  0.3587 -0.6059
 3826TIP3    H111442   0.962   0.750   4.683 -0.5636  0.0713 -1.6319
 3826TIP3    H211443   0.958   0.599   4.667 -1.1856 -0.0156 -0.7791
 3827TIP3   OH211444   3.248   1.928   0.387  0.4230 -0.1355 -0.0930
 3827TIP3    H111445   3.197   1.849   0.369  1.4462 -0.9921  0.6356
 3827TIP3    H211446   3.308   1.903   0.457 -0.4861  1.8302  1.5079
 3828TIP3   OH211447   3.561   4.030   4.993  0.3017 -0.4547  0.5128
 3828TIP3    H111448   3.600   3.944   5.005 -1.2601 -1.4760 -1.1715
 3828TIP3    H211449   3.515   4.024   4.910 -0.1946  1.8975  0.5479
 3829TIP3   OH211450   6.450   2.700   4.087  0.1373  0.4348  0.1654
 3829TIP3    H111451   6.543   2.708   4.066  0.0857  2.3533  0.4522
 3829TIP3    H211452   6.405   2.727   4.007 -0.2184 -1.0469 -0.1684
 3830TIP3   OH211453   1.848   1.635   3.877  0.0520 -0.1812  0.5643
 3830TIP3    H111454   1.817   1.546   3.860 -1.1273  0.2879  0.1535
 3830TIP3    H211455   1.812   1.687   3.805 -0.7323  0.9282  1.7118
 3831TIP3   OH211456   2.345   4.971   0.263  0.5779 -0.6416 -0.7154
 3831TIP3    H111457   2.301   5.046   0.221  0.4844 -0.5959 -0.5363
 3831TIP3    H211458   2.296   4.957   0.344  1.0289 -0.4526 -0.4101
 3832TIP3   OH211459   3.252   1.484   1.764 -0.2766  0.3362 -0.5140
 3832TIP3    H111460   3.325   1.533   1.727  0.7709 -0.6269  0.1897
 3832TIP3    H211461   3.198   1.549   1.808  1.4042  0.8147  0.9370
 3833TIP3   OH211462   4.110   1.193   2.881  0.4611 -0.5474 -0.6681
 3833TIP3    H111463   4.185   1.143   2.913 -0.1521 -0.1510  1.5742
 3833TIP3    H211464   4.069   1.135   2.816  2.8802 -0.5853 -2.2564
 3834TIP3   OH211465   3.771   3.591   0.477 -0.2528 -0.3472 -0.3011
 3834TIP3    H111466   3.792   3.499   0.493 -0.6761 -0.9618 -2.8887
 3834TIP3    H211467   3.686   3.589   0.433  0.1495  1.2107 -1.2053
 3835TIP3   OH211468   0.502   3.270   1.293 -0.0739  0.3883 -0.2723
 3835TIP3    H111469   0.428   3.328   1.314 -1.3116 -0.3376 -2.3428
 3835TIP3    H211470   0.499   3.203   1.361 -1.0013  0.6572 -0.0227
 3836TIP3   OH211471   7.078   2.613   3.777 -0.5596  0.1588 -0.3797
 3836TIP3    H111472   7.102   2.622   3.869  0.3974  1.6026 -0.7275
 3836TIP3    H211473   7.023   2.535   3.773  0.8297 -0.9531  1.1304
 3837TIP3   OH211474   0.164   4.422   3.594 -0.2443 -0.3535 -0.5130
 3837TIP3    H111475   0.132   4.414   3.683 -1.0952  0.1980 -0.7620
 3837TIP3    H211476   0.097   4.474   3.548 -0.4811 -1.7248 -1.7997
 3838TIP3   OH211477   1.007   0.834   5.223  0.1715  0.0177 -0.1191
 3838TIP3    H111478   1.059   0.909   5.196  0.6554 -0.2721 -0.0076
 3838TIP3    H211479   0.951   0.814   5.148 -0.7780  1.1941  0.2596
 3839TIP3   OH211480   2.554   0.108   2.971  0.3189 -0.0336 -0.6095
 3839TIP3    H111481   2.576   0.147   2.886 -1.3657  1.0197 -0.6044
 3839TIP3    H211482   2.458   0.101   2.970  0.2233  0.4253  1.3748
 3840TIP3   OH211483   0.934   2.764   4.287  0.1865  0.1976 -0.1870
 3840TIP3    H111484   0.856   2.810   4.318 -1.5856 -3.7258  1.9895
 3840TIP3    H211485   0.998   2.773   4.357  0.6221  1.0102 -0.6806
 3841TIP3   OH211486   4.789   6.342   3.333  0.3097  0.0252 -0.3500
 3841TIP3    H111487   4.754   6.299   3.411 -2.9808 -0.0096 -1.6900
 3841TIP3    H211488   4.780   6.277   3.263 -0.8004  1.4288 -1.5704
 3842TIP3   OH211489   4.903   0.840   2.699 -0.2472  0.5219 -0.2621
 3842TIP3    H111490   4.808   0.844   2.710 -0.2134  0.1449  0.1861
 3842TIP3    H211491   4.931   0.931   2.711 -0.5611  0.6566 -0.5150
 3843TIP3   OH211492   3.160   1.083   1.123  0.2403  0.2083 -0.4549
 3843TIP3    H111493   3.113   1.166   1.114 -1.5579 -0.7874 -0.6503
 3843TIP3    H211494   3.184   1.078   1.215 -0.9494  0.2657 -0.1369
 3844TIP3   OH211495   3.653   0.152   3.684  0.1324 -0.4432  0.2301
 3844TIP3    H111496   3.678   0.195   3.602  0.1161 -2.3476 -0.8369
 3844TIP3    H211497   3.594   0.213   3.726 -0.5064  0.2609 -1.5787
 3845TIP3   OH211498   4.602   3.858   1.763  0.0705  0.2454 -0.4754
 3845TIP3    H111499   4.630   3.923   1.699  1.1018  1.8400  1.5113
 3845TIP3    H211500   4.547   3.906   1.824 -0.8404 -1.2214 -0.0867
 3846TIP3   OH211501   6.478   5.331   1.937  0.1757  0.0977  0.0837
 3846TIP3    H111502   6.538   5.401   1.960  0.9737 -0.8938  1.1979
 3846TIP3    H211503   6.406   5.339   2.001 -0.4109  0.6947 -0.6351
 3847TIP3   OH211504   0.087   6.707   1.342 -0.0815  0.0441 -0.6783
 3847TIP3    H111505   0.071   6.744   1.428 -0.6257  0.4040 -0.9295
 3847TIP3    H211506   0.038   6.763   1.282 -1.3862 -1.3924 -1.0169
 3848TIP3   OH211507   6.254   2.877   3.369 -0.0808 -0.5173  0.1692
 3848TIP3    H111508   6.218   2.861   3.282 -1.7269  0.6168  0.5899
 3848TIP3    H211509   6.334   2.825   3.372  1.4054  1.3277 -2.9118
 3849TIP3   OH211510   0.648   5.557   5.594 -0.5900 -0.1318  0.0050
 3849TIP3    H111511   0.670   5.611   5.518  0.2931  0.8147  0.9008
 3849TIP3    H211512   0.689   5.602   5.668 -1.5040 -0.9854  1.0606
 3850TIP3   OH211513   4.142   1.315   0.462  0.3549  0.2930 -0.3013
 3850TIP3    H111514   4.060   1.287   0.504  0.7654 -0.5536 -0.0559
 3850TIP3    H211515   4.191   1.234   0.448  1.6210  0.8990  0.5205
 3851TIP3   OH211516   5.611   3.861   4.847  0.2573 -0.4776 -0.0646
 3851TIP3    H111517   5.582   3.771   4.862 -0.8117 -0.0129  0.7824
 3851TIP3    H211518   5.544   3.915   4.888  1.8256  0.6688  1.1298
 3852TIP3   OH211519   6.683   4.169   4.331  0.4268  0.0010 -0.3580
 3852TIP3    H111520   6.604   4.116   4.325 -0.2834  0.7102  1.9094
 3852TIP3    H211521   6.754   4.105   4.341 -0.6379 -0.7825  5.0533
 3853TIP3   OH211522   1.411   1.476   4.582 -0.3702  0.4547 -1.0514
 3853TIP3    H111523   1.411   1.569   4.562 -0.2130  0.7228  0.1177
 3853TIP3    H211524   1.321   1.447   4.565 -1.0806  1.3695  0.9295
 3854TIP3   OH211525   2.522   6.428   0.953  0.3040  0.3025  0.0184
 3854TIP3    H111526   2.471   6.394   1.026  2.3270 -1.4229  0.7342
 3854TIP3    H211527   2.479   6.391   0.875 -1.8745  2.1804  0.2243
 3855TIP3   OH211528   3.937   1.105   0.019  0.6090  0.8775  0.1865
 3855TIP3    H111529   3.961   1.124   0.110  2.6365  2.0751 -0.5159
 3855TIP3    H211530   3.936   1.191  -0.023 -3.1678  0.6998 -0.3774
 3856TIP3   OH211531   0.157   6.446   0.157  0.4108 -0.1706  0.1559
 3856TIP3    H111532   0.148   6.534   0.193  1.1485 -0.8747  2.1930
 3856TIP3    H211533   0.118   6.388   0.222  0.7617 -1.4449 -0.7069
 3857TIP3   OH211534   4.863   0.295   3.071 -0.3736  0.6869 -0.0692
 3857TIP3    H111535   4.958   0.306   3.085 -0.1247 -0.4382 -0.7546
 3857TIP3    H211536   4.855   0.211   3.025 -1.6886  0.9302 -0.3208
 3858TIP3   OH211537   2.855   0.514   1.786  0.1386 -0.1678  0.2941
 3858TIP3    H111538   2.945   0.542   1.773  0.2329  0.4741  2.0876
 3858TIP3    H211539   2.840   0.523   1.880 -1.3954 -1.4920  0.2214
 3859TIP3   OH211540   1.951   4.186   4.382 -0.0105  0.5182  0.3548
 3859TIP3    H111541   1.972   4.229   4.299 -1.3475  0.6361  0.0656
 3859TIP3    H211542   2.016   4.220   4.444  0.3809  1.1793 -0.4027
 3860TIP3   OH211543   1.554   5.688   4.764  0.7097  0.3240  0.7268
 3860TIP3    H111544   1.599   5.725   4.688 -0.2308  0.8059  0.3894
 3860TIP3    H211545   1.612   5.618   4.795  0.5618 -0.6860 -1.1361
 3861TIP3   OH211546   5.576   5.757   0.581  0.1363 -0.0204  0.5038
 3861TIP3    H111547   5.568   5.711   0.497  1.9010  1.0777 -0.3164
 3861TIP3    H211548   5.502   5.725   0.633 -1.1233 -0.5676 -1.5306
 3862TIP3   OH211549   6.276   0.788   4.918 -0.2768  0.2184  0.5076
 3862TIP3    H111550   6.256   0.852   4.987 -2.6831 -1.0983  1.1569
 3862TIP3    H211551   6.352   0.824   4.872 -0.5891  2.7408  1.8229
 3863TIP3   OH211552   4.554   5.739   1.171  0.3873  0.3172  0.3640
 3863TIP3    H111553   4.628   5.693   1.211 -0.1212 -0.5403  0.3527
 3863TIP3    H211554   4.478   5.707   1.219  0.0623  1.5701  0.7167
 3864TIP3   OH211555   0.872   2.465   0.948  0.2183  0.0392 -0.3750
 3864TIP3    H111556   0.851   2.381   0.909 -0.2219  0.7953 -1.8317
 3864TIP3    H211557   0.794   2.488   0.999  0.5956 -0.7072  0.5831
 3865TIP3   OH211558   0.547   5.911   4.605  0.1676  0.2257 -0.3196
 3865TIP3    H111559   0.630   5.890   4.563  0.2816 -2.3944  0.9719
 3865TIP3    H211560   0.498   5.960   4.539  2.6950  1.8942 -1.0887
 3866TIP3   OH211561   4.959   4.492   3.703  0.6658  0.3782 -0.4853
 3866TIP3    H111562   4.890   4.535   3.654 -0.8316 -1.3463  0.0191
 3866TIP3    H211563   4.955   4.400   3.676  0.5614 -0.3933  1.9353
 3867TIP3   OH211564   5.924   3.706   0.306  0.6204 -0.3262  0.4759
 3867TIP3    H111565   5.870   3.775   0.267  0.3584 -0.9555 -0.2986
 3867TIP3    H211566   5.899   3.705   0.398 -0.0754 -0.0401  0.2954
 3868TIP3   OH211567   3.486   4.396   3.225  0.3283  0.3774 -0.1580
 3868TIP3    H111568   3.402   4.415   3.184  0.1309  0.1010  0.1097
 3868TIP3    H211569   3.466   4.385   3.318  0.3398 -1.5194 -0.3396
 3869TIP3   OH211570   0.241   2.133   2.371 -0.0705  0.3355 -0.0999
 3869TIP3    H111571   0.291   2.145   2.291  0.1892  1.9679  0.2596
 3869TIP3    H211572   0.271   2.204   2.429 -1.9112  0.6355  0.5582
 3870TIP3   OH211573   0.132   0.411   5.825  0.2721 -0.9156 -0.2515
 3870TIP3    H111574   0.044   0.447   5.816 -0.1446 -1.9667 -0.5064
 3870TIP3    H211575   0.186   0.465   5.767 -0.4193 -0.9673 -0.9544
 3871TIP3   OH211576   2.181   3.972   1.838  0.2979  0.1049  0.3411
 3871TIP3    H111577   2.178   4.057   1.795  0.1657 -0.3622 -0.5899
 3871TIP3    H211578   2.259   3.976   1.893  0.5176  0.6824 -0.0065
 3872TIP3   OH211579   7.046   5.394   3.057  0.1030 -0.4343  1.0997
 3872TIP3    H111580   7.077   5.359   3.141  0.5369 -3.1964 -0.1107
 3872TIP3    H211581   6.995   5.323   3.019  2.7479 -0.6908 -2.4839
 3873TIP3   OH211582   1.483   0.976   0.188  0.3550 -0.4341  0.0229
 3873TIP3    H111583   1.407   0.956   0.243  0.0267  0.3446 -0.1301
 3873TIP3    H211584   1.496   0.897   0.135 -0.3557 -0.5699  0.0429
 3874TIP3   OH211585   0.045   4.477   4.391 -0.0752 -0.1534 -0.3666
 3874TIP3    H111586   0.014   4.565   4.368  0.3982  0.4384  1.1464
 3874TIP3    H211587   0.090   4.489   4.474  1.4072 -1.5597 -0.9204
 3875TIP3   OH211588   0.378   3.603   0.738 -0.2241 -0.2402  0.0796
 3875TIP3    H111589   0.308   3.604   0.803  0.2530 -1.9728  0.6627
 3875TIP3    H211590   0.440   3.669   0.769 -0.0611 -0.9503  1.3232
 3876TIP3   OH211591   0.274   1.172   3.787  0.2631 -0.8408 -0.3545
 3876TIP3    H111592   0.319   1.244   3.743 -0.1175  0.0669  0.6815
 3876TIP3    H211593   0.313   1.169   3.874 -0.9939 -0.6478  0.2427
 3877TIP3   OH211594   5.240   6.222   4.419 -0.4074 -0.1976  0.5387
 3877TIP3    H111595   5.326   6.181   4.430 -0.6741 -0.8793  0.1646
 3877TIP3    H211596   5.200   6.175   4.346 -1.1203  0.0847  0.7341
 3878TIP3   OH211597   6.645   2.053   5.695 -0.0688 -0.5401 -0.0240
 3878TIP3    H111598   6.623   2.114   5.625 -2.2945 -1.1087  0.1050
 3878TIP3    H211599   6.692   1.982   5.652  0.6032  0.1998 -0.5333
 3879TIP3   OH211600   5.301   5.322   3.680 -0.2397 -0.4887  0.7123
 3879TIP3    H111601   5.244   5.324   3.604  0.5018  1.1216  0.1645
 3879TIP3    H211602   5.379   5.273   3.651 -0.3637 -0.7131  0.7532
 3880TIP3   OH211603   2.407   5.715   0.621 -0.9619  0.1381 -0.0566
 3880TIP3    H111604   2.381   5.639   0.674  0.3546 -0.3728 -0.1052
 3880TIP3    H211605   2.395   5.790   0.679  0.4138 -0.4053  0.9852
 3881TIP3   OH211606   6.857   4.060   4.043  0.6559 -0.5306 -0.3187
 3881TIP3    H111607   6.840   4.154   4.035  1.1065 -0.1973  2.0306
 3881TIP3    H211608   6.935   4.046   3.989  0.5565  0.4188 -0.7448
 3882TIP3   OH211609   2.410   3.175   5.877  0.1808  0.7869 -0.0497
 3882TIP3    H111610   2.469   3.218   5.816  0.5765  1.1862  0.6030
 3882TIP3    H211611   2.322   3.205   5.852  0.2029 -0.1084 -1.2661
 3883TIP3   OH211612   0.417   0.958   0.071 -0.6748 -0.5090 -0.2585
 3883TIP3    H111613   0.366   0.923  -0.001  0.0793  0.6790 -1.4240
 3883TIP3    H211614   0.387   0.910   0.148 -2.5778 -0.7573 -1.1064
 3884TIP3   OH211615   3.838   6.119   4.621 -0.2110 -0.1056  0.1462
 3884TIP3    H111616   3.932   6.123   4.606 -0.2426  0.5789  0.1280
 3884TIP3    H211617   3.830   6.099   4.715 -0.0496  0.1533  0.2163
 3885TIP3   OH211618   5.553   4.367   4.766 -0.1839  0.2327  0.0732
 3885TIP3    H111619   5.562   4.311   4.843 -1.4508  0.2637  0.2588
 3885TIP3    H211620   5.616   4.331   4.703 -0.2433 -0.7568  0.5588
 3886TIP3   OH211621   2.445   3.486   1.508 -0.3662 -0.3130  0.0582
 3886TIP3    H111622   2.392   3.444   1.576  0.0721 -2.0593 -0.6196
 3886TIP3    H211623   2.382   3.532   1.454 -1.2797 -2.4913 -0.8287
 3887TIP3   OH211624   2.284   2.826   4.593  0.4808 -0.5134  0.3834
 3887TIP3    H111625   2.280   2.825   4.689  0.4440  0.3263  0.4035
 3887TIP3    H211626   2.357   2.769   4.571 -1.7162 -3.7064  0.7221
 3888TIP3   OH211627   1.394   2.024   0.448 -0.2950 -0.1002  0.3466
 3888TIP3    H111628   1.375   2.100   0.503 -1.0522  0.5189 -0.7447
 3888TIP3    H211629   1.315   1.970   0.454  0.0024 -0.5174  0.6219
 3889TIP3   OH211630   4.187   4.570   1.297  0.1649 -0.0760 -0.1413
 3889TIP3    H111631   4.226   4.558   1.210 -1.5934 -1.1459 -0.8354
 3889TIP3    H211632   4.122   4.640   1.284 -1.1572 -1.2463 -0.1074
 3890TIP3   OH211633   6.669   2.574   1.447 -0.2968 -0.6019  0.0196
 3890TIP3    H111634   6.610   2.612   1.511 -0.0631 -1.6471  0.8823
 3890TIP3    H211635   6.749   2.554   1.497  0.5562  0.1742 -0.9762
 3891TIP3   OH211636   3.282   6.293   2.026 -0.4096 -0.4783  0.2632
 3891TIP3    H111637   3.327   6.376   2.010 -0.0381 -0.4437  1.4293
 3891TIP3    H211638   3.245   6.302   2.113  0.6834 -1.9971  0.9280
 3892TIP3   OH211639   3.371   6.137   4.277 -0.2512 -0.0051 -0.9341
 3892TIP3    H111640   3.429   6.165   4.349  2.1149 -0.3746 -2.5641
 3892TIP3    H211641   3.348   6.218   4.232 -1.3887  0.1821 -0.0670
 3893TIP3   OH211642   3.849   2.889   0.374 -0.2763 -0.1734 -0.2116
 3893TIP3    H111643   3.755   2.876   0.366 -0.0059 -2.1197 -0.8938
 3893TIP3    H211644   3.875   2.833   0.447  0.7194 -2.2609 -2.0249
 3894TIP3   OH211645   4.530   3.795   4.249 -0.5303  0.2334 -0.3360
 3894TIP3    H111646   4.488   3.782   4.164  1.5739 -2.7571 -1.0938
 3894TIP3    H211647   4.619   3.823   4.227 -0.1375 -0.0002  0.8923
 3895TIP3   OH211648   2.339   6.663   1.024 -0.3042 -0.0358  0.5067
 3895TIP3    H111649   2.415   6.618   0.988 -1.9903 -2.9965  0.2715
 3895TIP3    H211650   2.330   6.629   1.113 -1.3869  0.1847  0.5024
 3896TIP3   OH211651   2.453   2.512   5.592 -0.6179  0.8463 -0.0562
 3896TIP3    H111652   2.428   2.458   5.516  1.9245  0.4501 -0.7181
 3896TIP3    H211653   2.520   2.460   5.636  1.3019  3.0482 -0.2140
 3897TIP3   OH211654   3.992   6.689   3.624  0.4511  0.6896  0.2550
 3897TIP3    H111655   3.971   6.758   3.562  2.5189  1.4668  0.3498
 3897TIP3    H211656   3.988   6.731   3.709  1.8325  0.7762  0.3044
 3898TIP3   OH211657   5.694   3.993   5.157  0.1316 -0.2112  0.2502
 3898TIP3    H111658   5.705   4.006   5.251  0.1292 -0.7738  0.3362
 3898TIP3    H211659   5.650   3.908   5.150 -2.2915  1.0066 -0.1638
 3899TIP3   OH211660   0.221   6.418   1.780  0.9114  0.1737  0.0288
 3899TIP3    H111661   0.240   6.511   1.771  0.6766  0.4251  1.7742
 3899TIP3    H211662   0.211   6.387   1.690 -2.1236  2.5038 -0.6147
 3900TIP3   OH211663   4.714   3.254   3.216  0.1514  0.1471 -0.2410
 3900TIP3    H111664   4.723   3.349   3.225  0.2511  0.5844 -3.5175
 3900TIP3    H211665   4.800   3.219   3.238  0.1739  0.8204  0.7724
 3901TIP3   OH211666   3.799   5.804   0.015  0.2041  0.3815  0.4466
 3901TIP3    H111667   3.752   5.730   0.055 -1.9522  2.3731  1.8004
 3901TIP3    H211668   3.866   5.827   0.079 -1.0291  1.3895  1.4305
 3902TIP3   OH211669   0.306   4.633   0.920  0.5265  0.3244  0.0934
 3902TIP3    H111670   0.356   4.711   0.943  3.1362 -0.1273 -3.2377
 3902TIP3    H211671   0.219   4.666   0.896  1.2515  2.1105 -0.2434
 3903TIP3   OH211672   6.670   1.763   5.280  0.1532 -0.0514  0.2934
 3903TIP3    H111673   6.709   1.684   5.317 -2.4797 -1.9525 -0.7141
 3903TIP3    H211674   6.722   1.781   5.202  1.3046 -0.2172  0.9886
 3904TIP3   OH211675   3.645   6.600   1.258  0.2897 -0.2435 -0.3032
 3904TIP3    H111676   3.698   6.588   1.179 -0.4756 -1.4103 -0.6766
 3904TIP3    H211677   3.571   6.541   1.245  0.0898 -0.3582  1.2439
 3905TIP3   OH211678   5.977   2.934   5.447  0.3583  0.3195  0.2207
 3905TIP3    H111679   6.007   2.916   5.536 -0.7681 -0.4974  0.4483
 3905TIP3    H211680   5.986   3.029   5.438  0.9283  0.3493  1.0420
 3906TIP3   OH211681   5.343   2.608   5.558 -0.2579 -0.1590  0.1482
 3906TIP3    H111682   5.307   2.697   5.554 -1.5646 -0.7050 -1.5659
 3906TIP3    H211683   5.360   2.585   5.467  0.4195 -1.5311  0.5937
 3907TIP3   OH211684   2.650   1.542   5.190  0.0447 -0.4854 -0.1453
 3907TIP3    H111685   2.713   1.591   5.241 -0.7609  1.0048 -0.5106
 3907TIP3    H211686   2.644   1.590   5.107 -0.2138 -1.6434 -0.8145
 3908TIP3   OH211687   3.565   3.018   4.774 -0.1556  0.2839  1.0283
 3908TIP3    H111688   3.566   3.096   4.719 -0.8451  0.9234  1.8971
 3908TIP3    H211689   3.606   3.045   4.856 -2.6783  0.5460  2.3214
 3909TIP3   OH211690   3.121   0.773   4.569  0.1452 -0.0132  0.1358
 3909TIP3    H111691   3.045   0.829   4.581  0.1737  0.3721 -1.2416
 3909TIP3    H211692   3.194   0.823   4.604  0.1011  0.6403 -0.6744
 3910TIP3   OH211693   4.934   0.800   4.466 -0.0330 -0.1234  0.6202
 3910TIP3    H111694   4.913   0.734   4.531 -4.4271  1.4163  1.0516
 3910TIP3    H211695   4.878   0.780   4.391  1.8971  0.5524 -1.1285
 3911TIP3   OH211696   4.901   3.456   1.338 -0.5779  0.3972 -0.0454
 3911TIP3    H111697   4.943   3.494   1.415 -1.0396  1.7811 -0.4547
 3911TIP3    H211698   4.951   3.490   1.263  0.6165 -1.8488 -0.3893
 3912TIP3   OH211699   1.054   2.268   3.266 -0.4004  0.5092  0.3998
 3912TIP3    H111700   1.102   2.186   3.259 -0.8664  0.2803 -0.1512
 3912TIP3    H211701   0.977   2.256   3.211 -0.2961  1.4404  0.0265
 3913TIP3   OH211702   7.185   4.724   1.076  0.1519  0.2738  0.0818
 3913TIP3    H111703   7.263   4.772   1.104  1.7854 -1.4615 -1.2510
 3913TIP3    H211704   7.192   4.720   0.981  0.8767 -3.6262  0.1198
 3914TIP3   OH211705   6.892   0.120   3.868 -0.3003  0.3152  0.1196
 3914TIP3    H111706   6.804   0.105   3.834  0.8261 -1.1163 -2.4831
 3914TIP3    H211707   6.896   0.068   3.949 -1.2831 -1.1055 -0.7121
 3915TIP3   OH211708   7.057   0.323   2.601 -0.4848  0.8101 -0.6126
 3915TIP3    H111709   7.128   0.341   2.663 -1.1726 -0.8939  0.7438
 3915TIP3    H211710   7.102   0.297   2.520  0.4288  0.6131 -0.0595
 3916TIP3   OH211711   4.011   2.608   5.769  0.1185 -0.2053 -0.0147
 3916TIP3    H111712   4.030   2.701   5.781 -0.8974 -0.1454  1.4734
 3916TIP3    H211713   4.097   2.567   5.759  0.6958  0.7084  0.9505
 3917TIP3   OH211714   5.970   0.924   1.611  0.3730 -0.2946  0.2110
 3917TIP3    H111715   5.958   1.003   1.664 -0.2301  0.0729 -0.4421
 3917TIP3    H211716   5.909   0.861   1.650 -0.2701  0.0600 -0.1921
 3918TIP3   OH211717   4.343   5.486   3.980 -0.0752  0.2960 -0.3915
 3918TIP3    H111718   4.292   5.424   3.928 -0.1626  1.0322 -1.2150
 3918TIP3    H211719   4.331   5.458   4.070 -2.4439  0.8010 -0.4929
 3919TIP3   OH211720   4.092   3.057   4.308 -0.5273 -0.4588  0.1332
 3919TIP3    H111721   4.132   2.976   4.277 -0.6605 -0.8621  1.0048
 3919TIP3    H211722   4.161   3.101   4.358  0.3854  1.2106 -2.3585
 3920TIP3   OH211723   0.073   1.311   1.162  0.1434  0.2092 -0.3467
 3920TIP3    H111724   0.098   1.292   1.253  0.2531 -2.1629 -0.8115
 3920TIP3    H211725   0.009   1.243   1.141  2.0431 -0.9520 -2.8416
 3921TIP3   OH211726   6.816   4.783   4.551 -0.5815  0.1638  0.1114
 3921TIP3    H111727   6.751   4.846   4.584  0.1389  0.0697  1.7826
 3921TIP3    H211728   6.801   4.704   4.602 -0.7367 -0.6793 -1.2023
 3922TIP3   OH211729   6.042   0.127   2.598 -0.2654  0.2126  0.1625
 3922TIP3    H111730   5.967   0.148   2.654 -0.1391 -0.9303  0.7876
 3922TIP3    H211731   6.070   0.040   2.627 -0.9911 -1.0200 -2.5522
 3923TIP3   OH211732   1.993   6.626   2.312  0.1892 -0.4497  0.6745
 3923TIP3    H111733   1.909   6.613   2.268  0.3225  0.8919 -0.0248
 3923TIP3    H211734   1.980   6.705   2.364  1.8464  1.4509 -1.6455
 3924TIP3   OH211735   0.321   0.312   0.313  0.3106 -0.1545  0.1257
 3924TIP3    H111736   0.340   0.320   0.407 -1.4055 -0.1126  0.5058
 3924TIP3    H211737   0.251   0.246   0.309 -2.0032  2.1996 -0.7775
 3925TIP3   OH211738   3.695   3.689   0.901 -0.4392  0.2754  0.0486
 3925TIP3    H111739   3.772   3.644   0.936 -0.9925 -0.3539  0.4825
 3925TIP3    H211740   3.644   3.621   0.859 -0.4315  0.8120 -0.8663
 3926TIP3   OH211741   3.956   1.201   5.449  0.1108 -0.1474 -0.1519
 3926TIP3    H111742   4.004   1.276   5.414  0.2536 -0.3465 -0.3755
 3926TIP3    H211743   3.900   1.239   5.517 -0.4120  0.2865 -0.8174
 3927TIP3   OH211744   3.133   5.933   4.998  0.4011  0.3276  0.1361
 3927TIP3    H111745   3.190   5.877   5.051 -0.2605  0.9719  1.5982
 3927TIP3    H211746   3.050   5.935   5.047  0.4960  2.8217  0.3183
 3928TIP3   OH211747   1.031   6.224   0.436  0.5833  0.3504 -0.4204
 3928TIP3    H111748   1.030   6.311   0.395 -1.4074  1.4173  1.6312
 3928TIP3    H211749   0.952   6.181   0.402 -0.1032  0.5604  0.8617
 3929TIP3   OH211750   1.252   4.869   2.627 -0.2330  0.4092  0.1005
 3929TIP3    H111751   1.165   4.849   2.661  0.2717 -0.3840  0.9728
 3929TIP3    H211752   1.257   4.965   2.628 -0.4806  0.4301  1.6893
 3930TIP3   OH211753   4.198   4.686   3.490 -0.1708  0.1245  0.6808
 3930TIP3    H111754   4.231   4.627   3.422  1.7531  0.4619  1.2553
 3930TIP3    H211755   4.103   4.675   3.488 -0.1018 -0.3868 -1.5605
 3931TIP3   OH211756   1.472   4.358   4.454  0.0844  0.1522 -0.0049
 3931TIP3    H111757   1.422   4.363   4.372  1.4211  0.2946 -0.8400
 3931TIP3    H211758   1.436   4.282   4.499 -0.7776  0.1568 -0.6426
 3932TIP3   OH211759   1.573   3.139   1.654 -0.2600  0.0887  0.0894
 3932TIP3    H111760   1.618   3.088   1.722 -1.7580 -0.4879  0.6846
 3932TIP3    H211761   1.631   3.214   1.639  1.4646 -1.2291 -0.0486
 3933TIP3   OH211762   0.612   2.099   4.409  0.2456 -0.5844 -0.4223
 3933TIP3    H111763   0.656   2.029   4.361  1.4399  0.1662 -0.4506
 3933TIP3    H211764   0.544   2.054   4.460  1.3596 -1.8324  0.0002
 3934TIP3   OH211765   3.191   3.333   3.720  0.2579 -0.0254  0.2694
 3934TIP3    H111766   3.121   3.282   3.679 -0.5774  1.5629 -0.4058
 3934TIP3    H211767   3.223   3.279   3.791 -3.5235  0.2144  2.3898
 3935TIP3   OH211768   3.298   3.205   4.648 -0.0611 -0.0165  0.1212
 3935TIP3    H111769   3.390   3.216   4.626 -0.2128  0.8671 -0.1287
 3935TIP3    H211770   3.263   3.294   4.651 -0.5441 -0.2256  1.8411
 3936TIP3   OH211771   0.708   0.906   4.737  0.3439  0.1112  0.3054
 3936TIP3    H111772   0.742   0.976   4.793 -1.8833  0.9778  0.6702
 3936TIP3    H211773   0.721   0.938   4.648 -2.2833  1.9280  0.4722
 3937TIP3   OH211774   5.552   3.510   3.279 -0.1772  0.1605  0.3437
 3937TIP3    H111775   5.644   3.482   3.275 -0.0662  0.5739 -0.1335
 3937TIP3    H211776   5.545   3.556   3.363 -0.1643 -0.5998  0.7665
 3938TIP3   OH211777   0.615   1.034   3.251 -0.7489 -0.0734 -0.1327
 3938TIP3    H111778   0.637   0.994   3.335  0.1987 -1.1145 -0.8451
 3938TIP3    H211779   0.565   1.113   3.274 -0.3901 -0.2637  1.3971
 3939TIP3   OH211780   1.731   6.136   3.407 -0.2534 -0.3878  0.7626
 3939TIP3    H111781   1.731   6.160   3.314  0.6889 -0.3074  0.7793
 3939TIP3    H211782   1.680   6.055   3.411 -1.1981  0.1643  0.3310
 3940TIP3   OH211783   0.193   1.005   1.392  0.2573  0.5940  0.8304
 3940TIP3    H111784   0.285   1.000   1.367 -0.0653  0.1580 -0.3451
 3940TIP3    H211785   0.184   0.942   1.464  1.2646  2.0901  2.3489
 3941TIP3   OH211786   3.223   3.205   4.926  0.1187 -0.5357  0.4694
 3941TIP3    H111787   3.178   3.121   4.938 -1.7670  0.3662  0.0502
 3941TIP3    H211788   3.261   3.199   4.838 -2.9014  0.2195 -1.0301
 3942TIP3   OH211789   1.554   6.372   4.119  0.0206 -0.8652 -0.0970
 3942TIP3    H111790   1.542   6.294   4.064  1.2162 -0.7676 -0.5368
 3942TIP3    H211791   1.472   6.420   4.111 -0.9272 -2.2989  0.5683
 3943TIP3   OH211792   1.323   3.972   3.049 -0.0774 -0.2663  0.3483
 3943TIP3    H111793   1.249   4.026   3.020 -1.9331 -2.4253  0.8383
 3943TIP3    H211794   1.305   3.885   3.013  2.0050 -0.9808  0.9012
 3944TIP3   OH211795   0.268   5.600   1.320 -0.0312 -0.4341  0.8864
 3944TIP3    H111796   0.275   5.645   1.236 -3.7764 -1.2429 -0.0565
 3944TIP3    H211797   0.342   5.539   1.322  1.0886  0.7815 -1.0236
 3945TIP3   OH211798   2.911   4.363   2.178  0.6546  0.3104 -0.4042
 3945TIP3    H111799   2.877   4.274   2.187 -0.2586  0.3982 -2.4365
 3945TIP3    H211800   2.978   4.356   2.110  0.7861  1.1290 -0.3689
 3946TIP3   OH211801   2.001   2.600   2.963  0.2828 -0.6440 -0.3879
 3946TIP3    H111802   1.999   2.513   2.923  1.9040 -0.4986 -0.8349
 3946TIP3    H211803   2.038   2.586   3.050  0.0145 -0.4648 -0.2413
 3947TIP3   OH211804   6.658   0.964   5.837 -0.0740  0.2904  0.3420
 3947TIP3    H111805   6.738   0.941   5.883  1.0216  1.5332 -0.8359
 3947TIP3    H211806   6.660   0.912   5.757  0.6375  1.7738 -0.6537
 3948TIP3   OH211807   6.257   1.275   2.661 -0.0791  0.0129  0.4029
 3948TIP3    H111808   6.178   1.298   2.611  0.5804  0.8001 -0.2970
 3948TIP3    H211809   6.327   1.327   2.621  0.5084  0.5129  1.9989
 3949TIP3   OH211810   6.424   2.704   2.882 -0.1901 -0.0695  0.1535
 3949TIP3    H111811   6.402   2.764   2.811 -1.0736  0.0931  0.5506
 3949TIP3    H211812   6.519   2.711   2.891  0.2252 -1.5021 -2.2591
 3950TIP3   OH211813   1.637   2.625   3.299 -0.3621  0.1644  0.5324
 3950TIP3    H111814   1.570   2.643   3.233 -1.5282 -0.3615  1.5281
 3950TIP3    H211815   1.688   2.552   3.262  0.8736  1.7549 -1.0473
 3951TIP3   OH211816   3.753   2.364   5.138  0.7961 -0.8331 -0.1913
 3951TIP3    H111817   3.827   2.304   5.131  0.5812 -1.3650  1.6290
 3951TIP3    H211818   3.676   2.307   5.139  0.3877 -0.3293 -1.2621
 3952TIP3   OH211819   0.294   3.194   5.154  0.1317 -0.0728 -0.3535
 3952TIP3    H111820   0.290   3.106   5.193 -1.2432  1.1621  2.6447
 3952TIP3    H211821   0.263   3.183   5.065 -0.2609 -2.5812  0.0341
 3953TIP3   OH211822   0.908   4.105   3.215  0.4509  0.1630  0.4759
 3953TIP3    H111823   0.837   4.169   3.211  0.4386  0.2200  1.3792
 3953TIP3    H211824   0.970   4.133   3.148 -1.1865 -0.9131 -1.6287
 3954TIP3   OH211825   6.087   5.186   1.567  0.3729  0.1911 -0.0358
 3954TIP3    H111826   6.039   5.269   1.569  0.8116  0.4358  0.8936
 3954TIP3    H211827   6.159   5.198   1.629 -0.8182 -1.6133  1.8419
 3955TIP3   OH211828   0.583   2.205   0.291  0.0401 -0.2614  0.1105
 3955TIP3    H111829   0.615   2.115   0.298  0.0306 -0.3572 -0.8701
 3955TIP3    H211830   0.558   2.229   0.380  0.3774 -1.1051  0.4422
 3956TIP3   OH211831   6.070   3.034   5.024 -0.5257  0.3225  0.3982
 3956TIP3    H111832   6.153   3.082   5.031 -0.3886  0.0198  0.9153
 3956TIP3    H211833   6.077   2.965   5.090  0.1351 -1.7108 -1.6987
 3957TIP3   OH211834   0.991   5.245   1.106  0.1624  0.3649 -0.1199
 3957TIP3    H111835   0.955   5.333   1.095  2.5758  1.4373 -0.1311
 3957TIP3    H211836   0.915   5.188   1.111 -1.5227  2.5621  0.8823
 3958TIP3   OH211837   6.908   6.565   5.601 -0.2213  0.4004 -0.2753
 3958TIP3    H111838   6.985   6.542   5.549 -0.6491 -1.1802 -0.2502
 3958TIP3    H211839   6.899   6.660   5.590  1.2744  0.4918 -0.8828
 3959TIP3   OH211840   6.719   5.081   2.579  0.7018 -0.0556 -0.2942
 3959TIP3    H111841   6.677   5.088   2.494  1.5228  0.5338 -0.6660
 3959TIP3    H211842   6.813   5.080   2.559  0.9065 -2.3362  0.4307
 3960TIP3   OH211843   5.153   3.194   4.617 -0.0889 -0.4645  0.1108
 3960TIP3    H111844   5.162   3.288   4.602 -0.3035 -0.2919  1.0407
 3960TIP3    H211845   5.223   3.155   4.563 -0.3614  0.1734 -0.7303
 3961TIP3   OH211846   4.277   1.839   0.100  0.1015  0.0029  0.4966
 3961TIP3    H111847   4.210   1.779   0.070 -0.0735  1.5100 -2.5217
 3961TIP3    H211848   4.229   1.917   0.129  0.4561  0.0687  0.9255
 3962TIP3   OH211849   1.665   2.074   2.137 -0.3796 -0.1648  0.0663
 3962TIP3    H111850   1.627   1.989   2.115 -0.3577 -0.0579 -0.4115
 3962TIP3    H211851   1.606   2.137   2.095 -0.1533  0.0349  0.0459
 3963TIP3   OH211852   0.031   3.016   4.721  0.2696 -0.1125  0.7210
 3963TIP3    H111853   0.035   2.929   4.682  0.4769  0.0430  0.3929
 3963TIP3    H211854  -0.030   3.065   4.666 -1.5537 -0.6615  2.1406
 3964TIP3   OH211855   4.770   4.658   3.138 -0.0800  0.0221  0.0287
 3964TIP3    H111856   4.832   4.644   3.210 -0.0923  0.5289  0.1479
 3964TIP3    H211857   4.798   4.598   3.069 -1.2446 -1.9275  1.1562
 3965TIP3   OH211858   0.341   2.144   2.120 -0.0619 -0.1704 -0.1107
 3965TIP3    H111859   0.379   2.205   2.057 -0.4874 -0.5969 -0.7840
 3965TIP3    H211860   0.363   2.057   2.087 -0.2008 -0.3957  0.3779
 3966TIP3   OH211861   3.546   5.466   1.911 -0.7609 -0.1761 -0.2730
 3966TIP3    H111862   3.582   5.496   1.828  1.3119 -1.7321 -0.0101
 3966TIP3    H211863   3.578   5.529   1.976 -1.6541  0.5338 -0.4900
 3967TIP3   OH211864   0.243   0.332   4.056 -0.3270 -0.0134 -0.1167
 3967TIP3    H111865   0.196   0.269   4.001 -1.0264 -0.2246  0.6969
 3967TIP3    H211866   0.221   0.418   4.018 -0.2175 -0.1901 -0.5917
 3968TIP3   OH211867   6.301   5.151   0.204  0.6104 -0.4873  0.6642
 3968TIP3    H111868   6.272   5.119   0.289  1.8826 -1.6120  0.6998
 3968TIP3    H211869   6.250   5.101   0.141  0.2169 -0.2020  0.7546
 3969TIP3   OH211870   6.390   1.276   3.546  0.0565 -0.0091  0.2990
 3969TIP3    H111871   6.357   1.244   3.462  0.0008 -0.3504  0.4489
 3969TIP3    H211872   6.365   1.368   3.549  1.7570  0.5401 -0.9312
 3970TIP3   OH211873   6.437   1.210   2.290 -0.0050  0.0066  0.0189
 3970TIP3    H111874   6.510   1.149   2.300 -0.0531  0.1285  1.2340
 3970TIP3    H211875   6.362   1.165   2.328  0.0490  0.9726  1.3238
 3971TIP3   OH211876   6.277   6.169   3.784  0.4660  0.1356  0.0857
 3971TIP3    H111877   6.262   6.077   3.809 -1.8938  0.3585 -0.2681
 3971TIP3    H211878   6.212   6.186   3.716  2.0834  1.5815 -1.1897
 3972TIP3   OH211879   6.724   2.117   1.974 -0.4060  0.1985 -0.0758
 3972TIP3    H111880   6.703   2.199   2.019  0.5500  1.5040 -1.8406
 3972TIP3    H211881   6.706   2.136   1.881  1.2581 -1.0631 -0.7181
 3973TIP3   OH211882   4.375   1.699   5.282  0.3749  0.2717 -0.1708
 3973TIP3    H111883   4.412   1.625   5.330 -1.3225  0.1015  0.9628
 3973TIP3    H211884   4.331   1.659   5.207 -3.6477 -0.4357  2.2954
 3974TIP3   OH211885   0.191   6.323   5.133  0.4458 -0.5874  0.0869
 3974TIP3    H111886   0.245   6.292   5.060 -0.6594 -1.2843 -0.4685
 3974TIP3    H211887   0.173   6.244   5.184  0.9876 -0.1467  0.9862
 3975TIP3   OH211888   6.996   6.790   1.162  0.8169 -0.0610 -0.0651
 3975TIP3    H111889   6.944   6.870   1.176  1.2520  0.8774 -3.0312
 3975TIP3    H211890   6.935   6.729   1.121  1.3674  0.1208 -1.1944
 3976TIP3   OH211891   6.282   2.837   2.709 -1.0790 -0.1043 -0.0902
 3976TIP3    H111892   6.188   2.836   2.727 -0.8619 -1.6742  1.1912
 3976TIP3    H211893   6.290   2.803   2.620 -1.6885 -0.5979  0.0384
 3977TIP3   OH211894   2.802   4.349   3.120  0.2339 -0.0948 -0.2628
 3977TIP3    H111895   2.749   4.274   3.092 -2.2768  1.5100 -0.1337
 3977TIP3    H211896   2.842   4.382   3.039 -1.1229  0.1854 -0.8535
 3978TIP3   OH211897   5.402   4.322   2.017  0.5003  0.5177  0.0659
 3978TIP3    H111898   5.435   4.234   2.038 -0.1543  0.2084 -0.1764
 3978TIP3    H211899   5.455   4.381   2.070  0.7291 -0.0519  0.4770
 3979TIP3   OH211900   2.442   3.513   3.524 -0.1473 -0.1557  0.2155
 3979TIP3    H111901   2.362   3.482   3.481  0.2860  0.0748 -0.7966
 3979TIP3    H211902   2.472   3.439   3.576 -0.1883 -0.7877 -0.6285
 3980TIP3   OH211903   3.893   2.271   5.542  0.1375 -0.1827 -0.0409
 3980TIP3    H111904   3.815   2.296   5.591  1.5984  2.2861  1.2185
 3980TIP3    H211905   3.955   2.239   5.608  0.4655 -1.5248 -0.9392
 3981TIP3   OH211906   5.429   3.152   2.351  0.0205 -0.2348  0.1084
 3981TIP3    H111907   5.523   3.138   2.361  0.2037 -0.2453 -1.3720
 3981TIP3    H211908   5.398   3.174   2.439  1.4171 -0.1334  0.5934
 3982TIP3   OH211909   0.967   3.320   0.687 -0.0446 -0.2672  0.3296
 3982TIP3    H111910   0.908   3.375   0.637  0.6770  0.9978  0.8285
 3982TIP3    H211911   1.055   3.343   0.655  0.2669 -1.3140  0.3697
 3983TIP3   OH211912   6.835   2.702   0.092 -0.2372  0.0047 -0.1483
 3983TIP3    H111913   6.783   2.631   0.055 -1.1492 -0.5076  1.9597
 3983TIP3    H211914   6.918   2.662   0.116 -0.4250 -0.1552  0.2409
 3984TIP3   OH211915   1.602   5.653   3.202 -0.1428  0.2633  0.1006
 3984TIP3    H111916   1.508   5.638   3.211  0.1032 -0.5584  1.8279
 3984TIP3    H211917   1.617   5.739   3.242 -0.0079 -0.2086  1.1049
 3985TIP3   OH211918   3.923   5.137   3.051  0.7579  0.2004  0.1997
 3985TIP3    H111919   3.935   5.042   3.045  0.3495  0.1195  0.5889
 3985TIP3    H211920   3.987   5.173   2.990  1.3104 -0.3011  0.4809
 3986TIP3   OH211921   2.444   0.921   4.109 -0.5572 -0.1724 -0.0192
 3986TIP3    H111922   2.514   0.856   4.119  0.2456  0.6314 -0.2129
 3986TIP3    H211923   2.491   1.005   4.104 -1.5871  0.4595  0.6318
 3987TIP3   OH211924   7.134   1.475   2.370 -0.4263  0.2432 -0.0714
 3987TIP3    H111925   7.087   1.525   2.303 -2.1677  1.5351  1.9744
 3987TIP3    H211926   7.065   1.431   2.419  0.8176 -0.7870  0.7924
 3988TIP3   OH211927   2.641   3.357   2.140 -0.3335 -0.5490  0.2732
 3988TIP3    H111928   2.634   3.391   2.230  0.4793  0.3175  0.0237
 3988TIP3    H211929   2.699   3.419   2.096 -1.9128 -0.1199 -1.2804
 3989TIP3   OH211930   1.267   0.441   0.350  0.0646 -0.0433 -0.3676
 3989TIP3    H111931   1.254   0.456   0.444 -0.6356 -0.6170 -0.3626
 3989TIP3    H211932   1.268   0.529   0.312  0.2663  0.1876  0.1671
 3990TIP3   OH211933   1.651   2.711  -0.006 -0.0249 -0.1071  0.4860
 3990TIP3    H111934   1.660   2.729   0.088 -0.5725 -0.2913  0.5743
 3990TIP3    H211935   1.723   2.760  -0.046 -0.4045  0.8208  0.9062
 3991TIP3   OH211936   6.713   1.343   1.028 -0.0491 -0.0621 -0.2333
 3991TIP3    H111937   6.626   1.306   1.038 -0.2767  0.0446 -1.5514
 3991TIP3    H211938   6.760   1.317   1.107 -1.5009  0.5602  0.8871
 3992TIP3   OH211939   6.157   2.846   2.117 -0.0482 -0.2376 -0.4526
 3992TIP3    H111940   6.129   2.807   2.200 -1.2400 -0.2898 -0.8656
 3992TIP3    H211941   6.096   2.918   2.102  1.0276  0.6702 -0.5970
 3993TIP3   OH211942   5.628   6.513   2.733  0.0476  0.3847  0.1766
 3993TIP3    H111943   5.631   6.464   2.816  0.9331 -1.9535 -1.1326
 3993TIP3    H211944   5.709   6.487   2.688 -0.3408  1.7276 -1.3754
 3994TIP3   OH211945   0.270   4.840   2.785  0.0502 -0.3491 -0.1059
 3994TIP3    H111946   0.343   4.780   2.775  0.5961 -0.1640  2.1590
 3994TIP3    H211947   0.236   4.821   2.873 -0.2347  2.0975  0.3777
 3995TIP3   OH211948   7.204   5.503   5.279  0.0236  0.1626 -0.1165
 3995TIP3    H111949   7.138   5.569   5.298 -0.9139 -0.8245  0.1371
 3995TIP3    H211950   7.183   5.472   5.191 -0.5386 -0.9204  0.3807
 3996TIP3   OH211951   0.109   2.943   2.119 -0.0440  0.0181 -0.2567
 3996TIP3    H111952   0.112   2.927   2.213  1.7954  2.4654  0.2009
 3996TIP3    H211953   0.016   2.944   2.098 -0.5600  0.7582  1.8105
 3997TIP3   OH211954   1.655   0.225   3.501 -0.4395  0.5803 -0.2500
 3997TIP3    H111955   1.729   0.206   3.559 -0.2570  0.2390 -0.5867
 3997TIP3    H211956   1.672   0.313   3.469  1.6172 -0.6526 -2.9157
 3998TIP3   OH211957   5.734   6.409   4.264  0.2340  0.1432 -0.3483
 3998TIP3    H111958   5.738   6.331   4.209  0.9675  0.7435 -1.1734
 3998TIP3    H211959   5.653   6.452   4.240  0.0403 -0.1381 -0.2016
 3999TIP3   OH211960   3.541   5.792   2.766 -0.8678 -0.5220  0.3748
 3999TIP3    H111961   3.472   5.808   2.701 -0.1395 -0.3148 -0.3587
 3999TIP3    H211962   3.607   5.741   2.719 -0.0608  0.1294  0.7707
 4000TIP3   OH211963   3.918   6.795   1.213  0.0500  0.2360  0.0267
 4000TIP3    H111964   3.831   6.832   1.223 -0.0881  0.1153 -0.6963
 4000TIP3    H211965   3.904   6.712   1.167  0.6249  0.6262 -0.8706
 4001TIP3   OH211966   4.326   5.392   2.808  0.4065 -0.3976 -0.2920
 4001TIP3    H111967   4.304   5.455   2.877 -1.1041  0.6590 -1.6548
 4001TIP3    H211968   4.422   5.398   2.801  0.4038  0.9392  0.3684
 4002TIP3   OH211969   4.099   5.116   1.257 -0.1735 -0.4394 -0.3711
 4002TIP3    H111970   4.136   5.204   1.258  1.7257 -1.1395 -1.6577
 4002TIP3    H211971   4.005   5.129   1.269  0.1857  1.6501  0.6795
 4003TIP3   OH211972   1.184   6.702   4.334  0.3142 -0.3615 -0.1841
 4003TIP3    H111973   1.181   6.788   4.292  1.1043 -0.0783  0.3098
 4003TIP3    H211974   1.278   6.683   4.340  0.2121 -0.4967  1.2320
 4004TIP3   OH211975   3.760   6.774   2.302 -0.3350 -0.7070  0.2121
 4004TIP3    H111976   3.718   6.692   2.328 -1.3948 -0.1323  0.3586
 4004TIP3    H211977   3.826   6.790   2.370  1.9195 -2.8685 -1.3007
 4005TIP3   OH211978   6.007   5.796   3.713 -0.1022 -0.2133 -0.1975
 4005TIP3    H111979   6.046   5.757   3.635 -0.2753  0.7955 -0.8028
 4005TIP3    H211980   6.081   5.837   3.758 -0.3098  1.0492 -0.9568
 4006TIP3   OH211981   3.944   6.535   0.118  0.6939  0.1763 -0.4771
 4006TIP3    H111982   4.038   6.527   0.130  0.5266 -0.0256  0.8152
 4006TIP3    H211983   3.921   6.464   0.057  1.4328  0.5290 -1.1759
 4007TIP3   OH211984   0.650   4.421   0.935  0.1867  0.0694 -0.0969
 4007TIP3    H111985   0.693   4.503   0.908 -0.0382 -0.1458 -1.1629
 4007TIP3    H211986   0.591   4.448   1.005  0.7880  0.6677  0.1934
 4008TIP3   OH211987   0.534   0.348   4.841  0.1775  0.2135  0.5139
 4008TIP3    H111988   0.562   0.387   4.759 -0.5807  0.4057  0.3396
 4008TIP3    H211989   0.445   0.317   4.824 -0.3640  1.1244  1.5435
 4009TIP3   OH211990   1.015   6.310   5.398 -0.0346 -0.7239 -0.2720
 4009TIP3    H111991   0.994   6.403   5.389 -0.2932 -0.8873 -1.7127
 4009TIP3    H211992   0.930   6.266   5.395 -0.2259 -0.9145  3.3549
 4010TIP3   OH211993   6.786   3.924   5.730  0.0504  0.4197  0.4429
 4010TIP3    H111994   6.799   3.992   5.664 -0.9752 -1.5582 -1.9497
 4010TIP3    H211995   6.865   3.870   5.724 -0.1037  0.1606  0.7496
 4011TIP3   OH211996   0.755   4.662   3.229  0.2000 -0.2855 -0.8507
 4011TIP3    H111997   0.715   4.696   3.148 -2.2017  0.7948  0.6731
 4011TIP3    H211998   0.797   4.737   3.269 -2.5100  0.3923  1.0264
 4012TIP3   OH211999   1.910   3.056   3.706  0.0743 -0.0073 -0.0895
 4012TIP3    H112000   1.953   3.137   3.679 -1.6673  1.6755  1.8018
 4012TIP3    H212001   1.969   2.986   3.676  1.0668  1.8383 -2.8435
 4013TIP3   OH212002   2.349   3.810   0.384  0.7524  0.4344  0.3040
 4013TIP3    H112003   2.372   3.799   0.476 -0.3692  0.7123  0.6330
 4013TIP3    H212004   2.289   3.884   0.383 -2.1132 -1.7149 -0.1077
 4014TIP3   OH212005   2.594   0.355   5.209  0.6756 -0.0177 -0.2295
 4014TIP3    H112006   2.578   0.272   5.165 -1.4432 -0.5516  1.4101
 4014TIP3    H212007   2.678   0.344   5.252 -0.3582 -2.0228  1.4125
 4015TIP3   OH212008   5.102   3.735   5.773 -0.3548  0.3723  0.6930
 4015TIP3    H112009   5.140   3.804   5.719 -3.2393  1.2205 -0.4166
 4015TIP3    H212010   5.065   3.673   5.710 -0.1479 -0.8326  1.7074
 4016TIP3   OH212011   1.843   4.296   0.624  0.3660 -0.7881 -0.2212
 4016TIP3    H112012   1.808   4.209   0.601  1.4189 -1.5729  0.9757
 4016TIP3    H212013   1.905   4.316   0.554  0.3713 -1.1814 -0.3325
 4017TIP3   OH212014   5.141   0.759   0.834 -0.0415  0.0253  0.0040
 4017TIP3    H112015   5.187   0.685   0.794  1.2563  0.7528  0.0812
 4017TIP3    H212016   5.131   0.733   0.926  0.0972 -0.2040 -0.0441
 4018TIP3   OH212017   7.142   3.014   0.893 -0.4953 -0.0402  0.2573
 4018TIP3    H112018   7.063   3.066   0.907  0.8279  3.1931 -2.6958
 4018TIP3    H212019   7.210   3.059   0.943  0.2052 -0.3382 -0.3978
 4019TIP3   OH212020   1.339   1.112   1.547  0.6233  0.2668 -0.5330
 4019TIP3    H112021   1.424   1.143   1.576  0.1486  1.1993 -0.0935
 4019TIP3    H212022   1.278   1.183   1.568 -0.1603 -0.0914 -1.4572
 4020TIP3   OH212023   0.803   5.633   0.333  0.1011 -0.5659  0.2803
 4020TIP3    H112024   0.895   5.608   0.341  0.2200 -0.6384 -1.0280
 4020TIP3    H212025   0.759   5.553   0.304 -0.1757 -0.2535 -0.1708
 4021TIP3   OH212026   0.545   4.428   2.594 -0.6530  0.2640  0.5501
 4021TIP3    H112027   0.629   4.466   2.567 -0.3573  0.6061  1.8354
 4021TIP3    H212028   0.517   4.375   2.520  0.2951  0.8130 -0.2241
 4022TIP3   OH212029   1.745   1.053   3.317 -0.3984  0.2422 -0.2878
 4022TIP3    H112030   1.762   1.120   3.251  1.2306  3.0598  2.7196
 4022TIP3    H212031   1.650   1.041   3.315 -0.3393 -0.3994 -3.5681
 4023TIP3   OH212032   3.422   5.202   4.440 -0.8909  0.3724  0.0384
 4023TIP3    H112033   3.372   5.122   4.460 -0.2273 -0.1492 -0.3653
 4023TIP3    H212034   3.424   5.206   4.345 -0.0205  0.3009  0.0508
 4024TIP3   OH212035   3.100   6.731   1.652 -0.2871 -0.3601 -0.4795
 4024TIP3    H112036   3.125   6.651   1.606 -0.1796 -0.9124  0.5301
 4024TIP3    H212037   3.090   6.705   1.743  2.2471  1.2685  0.3723
 4025TIP3   OH212038   2.344   1.385   3.834 -0.5018  0.2491 -0.0445
 4025TIP3    H112039   2.298   1.313   3.790  0.2808  0.5244 -1.3469
 4025TIP3    H212040   2.279   1.455   3.839 -1.9569 -1.0932  3.0393
 4026TIP3   OH212041   2.799   3.288   3.088  0.1092  0.5226  0.0417
 4026TIP3    H112042   2.721   3.275   3.035  1.0206  0.6716 -1.3993
 4026TIP3    H212043   2.837   3.370   3.056  0.0851  1.2444  1.7433
 4027TIP3   OH212044   4.340   2.665   3.246 -0.3131 -0.3661 -0.2330
 4027TIP3    H112045   4.394   2.721   3.191 -1.4887  0.6115 -0.4559
 4027TIP3    H212046   4.260   2.651   3.195 -0.3083 -1.7315  0.0955
 4028TIP3   OH212047   6.351   4.291   2.081 -0.5923 -0.3510 -0.1691
 4028TIP3    H112048   6.340   4.215   2.138  1.8775 -1.7314 -1.3381
 4028TIP3    H212049   6.271   4.292   2.027 -0.9992 -1.7030  0.3586
 4029TIP3   OH212050   5.159   2.788   3.591 -0.3560 -0.3438  0.1958
 4029TIP3    H112051   5.172   2.821   3.503 -0.3843 -0.9154 -0.0264
 4029TIP3    H212052   5.148   2.693   3.580 -2.4584 -0.1766  0.5922
 4030TIP3   OH212053   7.108   2.329   2.506 -0.1582 -0.1237  0.3482
 4030TIP3    H112054   7.140   2.346   2.594  0.2425 -1.2032  0.4343
 4030TIP3    H212055   7.025   2.282   2.519 -0.0507 -0.3701  0.1567
 4031TIP3   OH212056   0.054   4.676   0.145 -0.0021 -0.6670 -0.2795
 4031TIP3    H112057  -0.034   4.665   0.181  0.6506 -2.6169  0.8436
 4031TIP3    H212058   0.047   4.644   0.055 -0.5153 -0.4085 -0.3401
 4032TIP3   OH212059   5.827   6.200   5.881 -0.3635  0.0503  0.1745
 4032TIP3    H112060   5.775   6.120   5.873 -1.5992  0.7794  0.5623
 4032TIP3    H212061   5.918   6.170   5.887 -0.6963 -1.2565 -0.8183
 4033TIP3   OH212062   3.669   4.044   2.330  0.2501  0.7611  0.1547
 4033TIP3    H112063   3.594   4.045   2.389  0.3299 -1.1958  0.3509
 4033TIP3    H212064   3.634   4.014   2.246  0.5472  1.3948 -0.2091
 4034TIP3   OH212065   1.369   1.561   3.365  0.3988  0.5042  0.5952
 4034TIP3    H112066   1.397   1.469   3.366  1.0783  0.7070  1.4929
 4034TIP3    H212067   1.442   1.609   3.404 -1.1321  1.0663  2.9598
 4035TIP3   OH212068   4.461   5.793   4.033 -0.5386  0.2712 -0.0302
 4035TIP3    H112069   4.458   5.713   3.982 -1.1976  0.7700 -0.8043
 4035TIP3    H212070   4.405   5.775   4.109  0.8287 -0.6353  0.7853
 4036TIP3   OH212071   4.905   5.276   1.447 -0.1546 -0.0292  0.3160
 4036TIP3    H112072   4.927   5.367   1.469 -0.1458  1.3328 -4.3250
 4036TIP3    H212073   4.989   5.230   1.452 -0.2532 -0.0674  3.3028
 4037TIP3   OH212074   7.065   2.899   2.041 -0.1116 -0.4647 -0.4242
 4037TIP3    H112075   7.025   2.972   2.087  0.1251 -0.4924 -0.1711
 4037TIP3    H212076   6.998   2.870   1.979 -0.6595 -0.7960  0.3033
 4038TIP3   OH212077   1.404   2.604   0.623  0.2080 -0.0180  0.4456
 4038TIP3    H112078   1.382   2.612   0.716 -0.9032  0.4953  0.1504
 4038TIP3    H212079   1.389   2.511   0.603  0.4634 -0.1332  0.7676
 4039TIP3   OH212080   4.636   2.304   3.857  0.0856  0.1041  0.3886
 4039TIP3    H112081   4.558   2.340   3.815  0.9646  0.0707 -1.3657
 4039TIP3    H212082   4.663   2.371   3.920  0.6343  1.7607 -1.5194
 4040TIP3   OH212083   1.683   6.750   5.583 -0.3736 -0.0581  0.2882
 4040TIP3    H112084   1.717   6.827   5.628 -0.0696 -0.7490  1.2687
 4040TIP3    H212085   1.761   6.711   5.542 -0.7071  0.7897 -1.2180
 4041TIP3   OH212086   3.508   1.971   4.620  0.0577  0.1053  0.6030
 4041TIP3    H112087   3.474   2.055   4.590  0.0110 -0.4831 -1.1078
 4041TIP3    H212088   3.601   1.986   4.633  0.1773  0.2756 -0.3526
 4042TIP3   OH212089   3.153   5.920   2.360  0.4886  0.0417  0.3316
 4042TIP3    H112090   3.178   5.989   2.421 -1.7153  0.4987  0.8279
 4042TIP3    H212091   3.057   5.918   2.365  0.3370 -1.0737 -1.8517
 4043TIP3   OH212092   6.707   0.041   3.621  0.0677 -0.3613  0.1716
 4043TIP3    H112093   6.623  -0.003   3.607  1.4488 -2.7139 -1.4137
 4043TIP3    H212094   6.701   0.122   3.570 -1.3934 -0.2341  0.5119
 4044TIP3   OH212095   7.089   3.543   1.873 -0.7599 -0.1934 -0.0984
 4044TIP3    H112096   7.145   3.542   1.951 -0.7549  1.6269 -0.0293
 4044TIP3    H212097   7.009   3.498   1.901 -1.5743  2.1080  1.6771
 4045TIP3   OH212098   6.658   6.068   1.618 -0.5168  0.4468 -0.3335
 4045TIP3    H112099   6.616   6.131   1.560 -2.2879 -1.0192 -0.7133
 4045TIP3    H212100   6.686   5.997   1.560  1.7803  0.9526  0.0352
 4046TIP3   OH212101   5.897   4.773   5.379 -0.0528 -0.6925 -0.3222
 4046TIP3    H112102   5.990   4.793   5.384 -0.0528 -0.7754  0.0733
 4046TIP3    H212103   5.866   4.822   5.303  0.8021 -2.6348 -2.0196
 4047TIP3   OH212104   6.707   6.655   5.124 -0.4191  0.1278  0.2128
 4047TIP3    H112105   6.630   6.599   5.139 -0.8735  0.5809 -0.3910
 4047TIP3    H212106   6.777   6.593   5.103  0.0916 -0.5212  3.2481
 4048TIP3   OH212107   0.481   4.863   5.679 -0.4165 -0.1188 -0.1584
 4048TIP3    H112108   0.550   4.849   5.744  0.7629  0.2906 -1.2860
 4048TIP3    H212109   0.526   4.898   5.602 -1.7955 -0.4241 -1.1573
 4049TIP3   OH212110   7.240   2.232   0.121 -0.1734  0.5083  0.2371
 4049TIP3    H112111   7.193   2.313   0.101  0.4295  0.8096  0.0359
 4049TIP3    H212112   7.186   2.163   0.082 -0.0215  0.9192 -0.7070
 4050TIP3   OH212113   7.108   5.446   0.999 -0.1118  0.2384  0.1726
 4050TIP3    H112114   7.020   5.470   1.028 -0.0269  0.0764  0.5722
 4050TIP3    H212115   7.160   5.442   1.080  0.6264  1.7868 -0.1867
 4051TIP3   OH212116   5.025   5.912   1.239  0.2234 -0.0241  0.8000
 4051TIP3    H112117   5.033   5.942   1.329 -1.7195 -0.5541  1.2009
 4051TIP3    H212118   5.041   5.817   1.243 -1.0562 -0.2547  0.8165
 4052TIP3   OH212119   0.539   3.985   0.705  0.0125  0.6619  0.3086
 4052TIP3    H112120   0.509   3.960   0.617  0.0764  0.4846  0.3359
 4052TIP3    H212121   0.461   3.979   0.760  0.3604 -1.2925  0.6983
 4053TIP3   OH212122   1.494   0.977   3.880 -0.0805 -0.6572  0.1595
 4053TIP3    H112123   1.404   1.000   3.902  0.4223  1.7592 -0.0985
 4053TIP3    H212124   1.515   0.903   3.939 -2.8581 -2.7620 -1.2854
 4054TIP3   OH212125   2.867   2.530   0.970 -0.3947 -0.2468 -0.1190
 4054TIP3    H112126   2.935   2.462   0.970 -0.2140 -0.3182  4.2308
 4054TIP3    H212127   2.916   2.612   0.980 -0.7121 -0.3778  4.2140
 4055TIP3   OH212128   6.913   5.107   4.411  0.0414 -0.3047 -0.2453
 4055TIP3    H112129   6.908   5.107   4.507 -0.4439  0.4446 -0.2608
 4055TIP3    H212130   6.912   5.200   4.387  0.3108 -0.4806 -0.9726
 4056TIP3   OH212131   6.371   4.305   1.090 -0.4334  0.2161  0.2938
 4056TIP3    H112132   6.287   4.272   1.059 -0.4598  0.0058  0.5813
 4056TIP3    H212133   6.364   4.400   1.083 -0.6436  0.1932  0.1844
 4057TIP3   OH212134   4.474   0.945   4.175 -0.3523 -0.0445  0.1130
 4057TIP3    H112135   4.486   0.988   4.259  0.6292  0.7736 -0.4168
 4057TIP3    H212136   4.559   0.951   4.132  0.0320 -3.1716  0.2622
 4058TIP3   OH212137   3.470   4.588   4.994 -0.1813 -0.3587 -0.4994
 4058TIP3    H112138   3.378   4.586   5.022 -0.0336 -0.4957 -0.0009
 4058TIP3    H212139   3.490   4.497   4.972 -0.9300  0.0727 -3.2497
 4059TIP3   OH212140   0.348   2.816   5.558 -0.6761  0.4246  0.1451
 4059TIP3    H112141   0.274   2.791   5.613 -0.6114  0.9710  0.4859
 4059TIP3    H212142   0.358   2.910   5.572 -0.5190  0.5338 -0.6293
 4060TIP3   OH212143   0.021   0.353   1.417  0.1603  0.2369 -1.1408
 4060TIP3    H112144   0.003   0.447   1.416  1.2702  0.4636 -1.4411
 4060TIP3    H212145   0.091   0.341   1.353  1.4790 -0.4781  0.3678
 4061TIP3   OH212146   3.824   0.177   1.992 -0.4164  0.0462  0.0885
 4061TIP3    H112147   3.893   0.147   1.933 -0.2315  0.5690  0.0282
 4061TIP3    H212148   3.743   0.142   1.954 -0.2759  0.1816 -0.3475
 4062TIP3   OH212149   6.568   4.529   1.757  0.0508 -0.2069 -0.0180
 4062TIP3    H112150   6.490   4.483   1.723  1.0209 -1.9547 -0.0018
 4062TIP3    H212151   6.605   4.469   1.822  1.7436  0.3157 -0.4525
 4063TIP3   OH212152   7.185   1.942   1.091 -0.1183 -0.3555  0.2410
 4063TIP3    H112153   7.279   1.946   1.074 -0.3846  0.2164 -1.2670
 4063TIP3    H212154   7.151   2.026   1.061 -0.9396  0.0521  2.1400
 4064TIP3   OH212155   6.369   4.253   0.508 -0.2492  0.4371  0.3906
 4064TIP3    H112156   6.341   4.339   0.538 -1.8668  0.5259 -1.2378
 4064TIP3    H212157   6.288   4.203   0.498  0.5877 -1.0141  0.4742
 4065TIP3   OH212158   4.571   6.705   0.166  0.0597 -0.1762 -0.2175
 4065TIP3    H112159   4.592   6.761   0.092  0.9548 -0.6904 -0.3661
 4065TIP3    H212160   4.497   6.652   0.136 -0.5562  0.6504 -0.2005
 4066TIP3   OH212161   3.370   2.220   5.608 -0.9394  0.0774  0.4759
 4066TIP3    H112162   3.405   2.256   5.690 -3.1616  1.2671  0.9844
 4066TIP3    H212163   3.276   2.235   5.614 -1.5034 -2.3114 -1.1211
 4067TIP3   OH212164   5.135   5.488   0.629  0.3442  0.1128  0.1292
 4067TIP3    H112165   5.091   5.570   0.651 -1.8645 -0.1837 -2.5547
 4067TIP3    H212166   5.097   5.423   0.687 -1.8430  0.1351 -1.1893
 4068TIP3   OH212167   6.121   4.206   1.007  0.3820  0.1764  0.0019
 4068TIP3    H112168   6.086   4.119   0.986  1.1315  0.2192 -1.5393
 4068TIP3    H212169   6.072   4.233   1.084  1.5471 -2.5100  1.8704
 4069TIP3   OH212170   7.153   0.873   3.014 -0.1354  0.0588 -0.3166
 4069TIP3    H112171   7.116   0.955   3.047  0.5255  0.4538 -0.5440
 4069TIP3    H212172   7.078   0.814   3.008 -0.7055  0.7985 -0.6144
 4070TIP3   OH212173   5.200   4.474   3.959  0.3845 -1.1254  0.0995
 4070TIP3    H112174   5.203   4.530   4.037 -0.2281  1.5748 -1.6909
 4070TIP3    H212175   5.107   4.469   3.937  0.4727 -2.5931 -0.0137
 4071TIP3   OH212176   6.052   0.188   3.389 -0.4797 -0.2171  0.1537
 4071TIP3    H112177   6.032   0.190   3.295  0.1999 -1.0305 -0.0219
 4071TIP3    H212178   6.064   0.280   3.413 -0.9087  0.0116 -0.5038
 4072TIP3   OH212179   0.345   5.698   3.179  0.6926 -0.4380 -0.0751
 4072TIP3    H112180   0.254   5.673   3.165  0.6217  0.4645 -1.4394
 4072TIP3    H212181   0.380   5.633   3.240 -0.8101 -0.8797  0.3367
 4073TIP3   OH212182   4.895   4.789   3.813  0.1023 -0.0158  0.3940
 4073TIP3    H112183   4.904   4.754   3.725 -1.4890  0.8697 -0.1717
 4073TIP3    H212184   4.800   4.801   3.824  0.4068  1.7810  1.4600
 4074TIP3   OH212185   3.228   2.509   5.458 -0.1550  0.0702  0.2403
 4074TIP3    H112186   3.201   2.466   5.539  1.4015 -3.1740 -0.7969
 4074TIP3    H212187   3.263   2.439   5.404 -0.9868  2.0989 -3.2528
 4075TIP3   OH212188   7.031   4.941   4.858  0.5174 -0.6987  0.1198
 4075TIP3    H112189   7.080   4.869   4.818  0.2351 -1.4284  1.0585
 4075TIP3    H212190   7.004   4.995   4.784 -0.6045 -2.3985 -0.7744
 4076TIP3   OH212191   5.239   5.458   2.832 -0.5804 -0.4906  0.4208
 4076TIP3    H112192   5.148   5.443   2.855 -1.0150 -0.2909 -1.1035
 4076TIP3    H212193   5.263   5.539   2.877 -1.7694  0.5530 -0.7655
 4077TIP3   OH212194   7.102   0.016   3.701  0.0588 -0.2653 -0.1872
 4077TIP3    H112195   7.047   0.035   3.625 -0.0841  0.1793  0.0292
 4077TIP3    H212196   7.045   0.030   3.776  0.3075 -0.3507  0.0179
 4078TIP3   OH212197   1.942   5.680   0.691 -0.0210 -0.0295  0.2917
 4078TIP3    H112198   1.957   5.654   0.600 -0.7711 -0.3543  0.2566
 4078TIP3    H212199   1.854   5.648   0.711 -0.1699  0.7405  0.8823
 4079TIP3   OH212200   5.843   3.508   5.262 -0.3550 -0.3230 -0.5039
 4079TIP3    H112201   5.906   3.536   5.328  0.8314 -1.0012 -1.3136
 4079TIP3    H212202   5.895   3.459   5.198 -1.0049  2.2097 -3.1775
 4080TIP3   OH212203   5.044   3.111   4.318  0.2725 -0.1743 -0.2100
 4080TIP3    H112204   5.134   3.135   4.343 -0.0189  1.3218 -0.4918
 4080TIP3    H212205   4.989   3.171   4.368 -0.5805 -1.0739 -0.0557
 4081TIP3   OH212206   5.083   3.610   1.171 -0.2913 -0.3038 -0.6872
 4081TIP3    H112207   5.161   3.629   1.223 -0.2942 -0.4942 -0.6122
 4081TIP3    H212208   5.028   3.688   1.181  0.1307  0.0758 -1.1977
 4082TIP3   OH212209   0.110   2.953   5.720  0.0913 -0.0587 -0.1454
 4082TIP3    H112210   0.128   2.898   5.797  0.6244  0.4215  0.0809
 4082TIP3    H212211   0.022   2.988   5.736  1.6266  3.1835  2.2341
 4083TIP3   OH212212   6.677   5.586   5.271 -0.0055  0.3099  0.1740
 4083TIP3    H112213   6.601   5.608   5.217  0.6561 -0.0365 -0.9319
 4083TIP3    H212214   6.639   5.541   5.347 -0.8600 -0.8569 -0.8892
 4084TIP3   OH212215   3.226   4.971   1.282  0.2222  0.7336  0.1942
 4084TIP3    H112216   3.247   4.898   1.340  0.0560  0.1729 -0.4420
 4084TIP3    H212217   3.131   4.967   1.271  0.2053  1.0791  0.1940
 4085TIP3   OH212218   0.629   0.353   1.012 -0.2521  0.0039  0.6925
 4085TIP3    H112219   0.708   0.313   1.049  0.5790  0.6867 -0.2663
 4085TIP3    H212220   0.623   0.316   0.924 -0.7862  0.2577  0.6186
 4086TIP3   OH212221   6.226   0.238   4.669 -0.5477 -0.0275  0.4343
 4086TIP3    H112222   6.222   0.288   4.587 -1.3504  0.7207  0.9076
 4086TIP3    H212223   6.280   0.291   4.727 -1.6690  0.4905  1.0443
 4087TIP3   OH212224   6.635   2.401   3.506  0.0862 -0.3835  0.0498
 4087TIP3    H112225   6.627   2.489   3.544 -0.6909 -0.3053 -0.2646
 4087TIP3    H212226   6.585   2.345   3.565  2.9947 -1.2022  1.9360
 4088TIP3   OH212227   0.045   3.526   2.767 -0.0448  0.2732 -0.2574
 4088TIP3    H112228  -0.034   3.563   2.806 -0.0221 -0.0415  0.1020
 4088TIP3    H212229   0.117   3.575   2.807 -0.0218 -0.0456  0.1085
 4089TIP3   OH212230   1.285   4.358   3.617 -0.3763  0.8238  0.3945
 4089TIP3    H112231   1.257   4.449   3.611 -2.6760  0.1358 -0.3644
 4089TIP3    H212232   1.299   4.331   3.526 -2.1239 -0.2219  0.3951
 4090TIP3   OH212233   5.683   5.074   1.871  0.1682  0.0821  0.6678
 4090TIP3    H112234   5.777   5.066   1.855 -0.0499 -0.3255 -0.5418
 4090TIP3    H212235   5.675   5.086   1.965  1.4871  0.9578  0.6885
 4091TIP3   OH212236   4.546   4.590   2.506  0.0481 -0.1613 -0.2230
 4091TIP3    H112237   4.488   4.622   2.575 -0.0985  0.2647 -0.5413
 4091TIP3    H212238   4.624   4.560   2.552 -0.8542 -1.7828  0.3265
 4092TIP3   OH212239   5.434   2.554   0.203  0.4369 -0.4002 -0.1445
 4092TIP3    H112240   5.454   2.647   0.187 -1.3936 -0.3216 -2.6510
 4092TIP3    H212241   5.517   2.509   0.191  1.0067  0.7537 -0.7214
 4093TIP3   OH212242   5.133   4.144   2.422  0.5421  0.3759  0.5620
 4093TIP3    H112243   5.048   4.187   2.428  0.3157 -0.1986  1.6204
 4093TIP3    H212244   5.186   4.203   2.369 -1.1487 -0.2577 -2.0427
 4094TIP3   OH212245   3.453   0.707   1.751  0.3757  0.5522  0.3113
 4094TIP3    H112246   3.502   0.714   1.669 -0.7734  1.0224 -0.3576
 4094TIP3    H212247   3.362   0.726   1.727 -0.0519  0.3045  1.6251
 4095TIP3   OH212248   5.226   2.306   5.112 -1.1482  0.7319 -0.5683
 4095TIP3    H112249   5.314   2.335   5.136 -0.2128 -1.3678 -1.2224
 4095TIP3    H212250   5.168   2.357   5.169  0.4821  1.9772  0.0706
 4096TIP3   OH212251   0.146   4.266   5.549  0.4457 -0.6358 -0.1046
 4096TIP3    H112252   0.236   4.278   5.580  0.1323  0.2216  0.4875
 4096TIP3    H212253   0.134   4.336   5.484  0.6646 -1.6234 -1.2538
 4097TIP3   OH212254   1.757   6.622   0.998  0.0939  0.1535  0.6659
 4097TIP3    H112255   1.848   6.623   1.027 -0.0089  1.7674  0.9962
 4097TIP3    H212256   1.713   6.686   1.054 -0.5736  1.7473 -1.5847
 4098TIP3   OH212257   0.739   6.209   0.501 -0.2768 -0.0817 -0.6443
 4098TIP3    H112258   0.753   6.246   0.415  0.3989  0.4013 -0.3337
 4098TIP3    H212259   0.645   6.191   0.505 -0.8318  2.5388 -0.4287
 4099TIP3   OH212260   0.594   2.565   3.592  0.2388 -0.0767 -0.0302
 4099TIP3    H112261   0.557   2.502   3.530 -1.2354  0.4109  0.3136
 4099TIP3    H212262   0.687   2.565   3.573  0.4021 -2.8065  0.3749
 4100TIP3   OH212263   6.224   2.775   3.103  0.0724  0.3318  0.3850
 4100TIP3    H112264   6.277   2.827   3.043  1.4986 -0.3432  1.0158
 4100TIP3    H212265   6.268   2.690   3.108 -0.8560 -0.1271  1.2212
 4101TIP3   OH212266   6.138   2.708   0.115 -0.4491  0.0696 -0.3313
 4101TIP3    H112267   6.101   2.778   0.168  3.0108  1.3372  0.6950
 4101TIP3    H212268   6.158   2.750   0.031  1.5539  0.4110  0.2559
 4102TIP3   OH212269   1.147   2.429   0.988 -0.1338 -0.5245 -0.4765
 4102TIP3    H112270   1.052   2.434   0.976 -0.0023 -0.4443 -1.6516
 4102TIP3    H212271   1.180   2.506   0.943  0.4943 -0.6268 -0.1882
 4103TIP3   OH212272   6.601   5.516   4.424  0.1665  0.2721 -0.0459
 4103TIP3    H112273   6.608   5.542   4.516 -1.1651  1.1121 -0.1443
 4103TIP3    H212274   6.507   5.504   4.410  0.3241  0.4255 -1.3547
 4104TIP3   OH212275   3.029   5.728   0.591  0.4890  0.9628  0.0248
 4104TIP3    H112276   2.995   5.707   0.505 -1.8598  0.2045  1.0584
 4104TIP3    H212277   3.092   5.658   0.610  1.3131  1.3482 -1.1855
 4105TIP3   OH212278   5.545   6.790   2.723 -0.3953 -0.1476  0.3773
 4105TIP3    H112279   5.540   6.802   2.818  1.8519 -0.5973  0.6095
 4105TIP3    H212280   5.546   6.696   2.710  0.5991 -0.0968  0.0199
 4106TIP3   OH212281   4.263   6.324   2.278 -0.1350  0.3904 -0.7717
 4106TIP3    H112282   4.327   6.367   2.335  0.3587 -1.1095 -0.1360
 4106TIP3    H212283   4.184   6.378   2.285 -0.6800 -0.6232  2.7543
 4107TIP3   OH212284   3.854   3.053   4.464 -0.7311  0.3923 -0.3533
 4107TIP3    H112285   3.931   3.108   4.448 -0.5564  0.4949  0.7437
 4107TIP3    H212286   3.878   3.000   4.540 -0.4817 -2.0367 -2.0310
 4108TIP3   OH212287   5.253   3.497   1.945 -0.0790  0.2233  0.2089
 4108TIP3    H112288   5.284   3.456   2.026 -0.2677  0.7242  0.5356
 4108TIP3    H212289   5.157   3.494   1.951 -0.1018  1.3452  0.5654
 4109TIP3   OH212290   6.037   0.376   4.145 -0.1280  0.1348 -0.0195
 4109TIP3    H112291   6.045   0.387   4.240 -0.0878  2.1688 -0.2093
 4109TIP3    H212292   6.107   0.316   4.121  0.0079 -0.2211  1.1913
 4110TIP3   OH212293   1.872   3.833   5.737  0.0562  0.2215 -0.3168
 4110TIP3    H112294   1.854   3.811   5.645  0.4338  1.2311 -0.6415
 4110TIP3    H212295   1.788   3.822   5.781 -0.4265  0.9712 -1.0377
 4111TIP3   OH212296   2.661   5.323   2.190 -0.6245  0.1446 -0.1400
 4111TIP3    H112297   2.631   5.391   2.250 -0.9894  0.0565 -0.2177
 4111TIP3    H212298   2.596   5.324   2.119  0.5422  1.1865 -1.2365
 4112TIP3   OH212299   0.257   5.071   1.506  0.5096 -0.1748  0.2079
 4112TIP3    H112300   0.213   4.993   1.470  0.9181 -0.4259  0.2440
 4112TIP3    H212301   0.263   5.131   1.432 -0.1093 -0.0393  0.2604
 4113TIP3   OH212302   1.395   5.006   2.885  0.1659  0.0418  0.2111
 4113TIP3    H112303   1.350   5.036   2.806 -0.7103 -1.0433  0.2737
 4113TIP3    H212304   1.363   4.917   2.899  0.8014 -0.0233  1.4188
 4114TIP3   OH212305   4.483   2.823   3.090 -0.5896  0.3319  0.7294
 4114TIP3    H112306   4.528   2.871   3.159 -1.6784  1.1880  0.8827
 4114TIP3    H212307   4.430   2.889   3.046 -0.3481 -0.3115 -0.5656
 4115TIP3   OH212308   6.294   4.568   1.302  0.7690  0.5018 -0.2018
 4115TIP3    H112309   6.334   4.636   1.356  2.4326 -0.9921  0.5251
 4115TIP3    H212310   6.308   4.487   1.350 -2.5222 -0.2624 -0.2841
 4116TIP3   OH212311   1.801   4.764   0.153  0.4765 -0.3322 -0.1434
 4116TIP3    H112312   1.885   4.718   0.148  0.5035 -0.1644 -1.8736
 4116TIP3    H212313   1.743   4.713   0.095 -1.1910 -1.5155  2.3776
 4117TIP3   OH212314   1.048   3.735   3.397  0.1724  0.3007 -0.0070
 4117TIP3    H112315   0.969   3.725   3.344 -0.1326 -1.9640  0.7570
 4117TIP3    H212316   1.073   3.827   3.385 -1.1577  0.4562 -2.2085
 4118TIP3   OH212317   4.712   5.400   4.010 -0.0277 -0.3680 -0.0693
 4118TIP3    H112318   4.716   5.473   4.072 -0.0081 -1.8160  1.7178
 4118TIP3    H212319   4.661   5.333   4.055  1.6784 -2.2423 -0.7574
 4119TIP3   OH212320   4.547   4.008   5.872  0.7376  0.2608  0.0963
 4119TIP3    H112321   4.536   4.058   5.791 -2.4938 -1.6674 -0.8299
 4119TIP3    H212322   4.608   3.938   5.848  0.3236  0.0884 -0.4812
 4120TIP3   OH212323   2.894   4.526   3.927  0.0292  0.0237  0.0492
 4120TIP3    H112324   2.934   4.541   4.013  0.4801  2.0691 -0.4695
 4120TIP3    H212325   2.966   4.542   3.865 -0.8449  0.8627 -0.7799
 4121TIP3   OH212326   1.862   3.360   4.026 -0.4906  0.5745 -0.1492
 4121TIP3    H112327   1.773   3.395   4.030 -0.1964  1.2813  3.0297
 4121TIP3    H212328   1.907   3.416   3.963 -2.1362  0.5079 -1.4525
 4122TIP3   OH212329   2.482   5.050   3.938  0.2461 -0.1462  0.0431
 4122TIP3    H112330   2.547   5.005   3.993 -0.8129  0.8844  2.2910
 4122TIP3    H212331   2.525   5.132   3.913  0.0720  0.2767  1.0538
 4123TIP3   OH212332   5.699   0.561   2.967 -0.2937 -0.7097 -0.3849
 4123TIP3    H112333   5.628   0.607   2.923  1.6441  1.0551 -1.8863
 4123TIP3    H212334   5.718   0.614   3.044 -1.1543 -1.6883  0.5312
 4124TIP3   OH212335   3.065   0.920   4.885  0.0889  0.2423  0.3291
 4124TIP3    H112336   3.028   0.834   4.906  1.8496 -0.1764  2.0353
 4124TIP3    H212337   3.136   0.931   4.948  2.4366  1.2889 -2.3225
 4125TIP3   OH212338   0.634   5.389   3.004 -0.0543  0.1515 -0.0015
 4125TIP3    H112339   0.588   5.413   2.923  1.2178  0.7557 -0.5659
 4125TIP3    H212340   0.712   5.342   2.974 -0.0592 -0.4682  0.9199
 4126TIP3   OH212341   0.172   2.531   0.867 -0.0866 -0.0028  0.3316
 4126TIP3    H112342   0.135   2.584   0.797  0.4537  0.4332  0.3637
 4126TIP3    H212343   0.117   2.550   0.943  1.7016  2.7656  1.1150
 4127TIP3   OH212344   1.790   2.606   3.963 -0.4825  0.4990 -0.3554
 4127TIP3    H112345   1.705   2.577   3.931 -0.7177  0.1384  0.5521
 4127TIP3    H212346   1.816   2.538   4.026  1.7688 -0.8956 -2.5741
 4128TIP3   OH212347   0.145   5.593   5.647 -0.6074  0.2789  0.0218
 4128TIP3    H112348   0.076   5.647   5.610  0.2667 -0.0613 -2.2916
 4128TIP3    H212349   0.211   5.655   5.678  0.1408  0.6324 -2.1112
 4129TIP3   OH212350   1.782   6.285   0.538  0.1785  0.8609 -0.3416
 4129TIP3    H112351   1.748   6.254   0.454 -0.7814  0.4460  0.1879
 4129TIP3    H212352   1.872   6.254   0.541 -0.6352 -1.6602  0.0272
 4130TIP3   OH212353   4.558   4.031   0.095 -0.1378  0.0977  0.3699
 4130TIP3    H112354   4.648   4.050   0.068 -0.3157 -0.5753 -0.7900
 4130TIP3    H212355   4.549   3.937   0.084 -0.2186 -0.2774  3.0311
 4131TIP3   OH212356   3.883   2.835   4.279  0.1048  0.0004  0.0543
 4131TIP3    H112357   3.965   2.792   4.303  0.8167  0.2902 -1.7188
 4131TIP3    H212358   3.893   2.925   4.311  0.9175  0.3038 -0.9802
 4132TIP3   OH212359   1.366   4.320   0.582  0.6458 -0.9147  0.3528
 4132TIP3    H112360   1.287   4.352   0.540  0.8533 -0.3234  0.4045
 4132TIP3    H212361   1.430   4.390   0.570  1.2534 -1.5097  0.0549
 4133TIP3   OH212362   1.575   2.751   2.161 -0.6937 -0.0814  0.6520
 4133TIP3    H112363   1.576   2.674   2.104 -1.8522 -1.4498  2.3887
 4133TIP3    H212364   1.599   2.718   2.247  1.9430  2.0964  0.9048
 4134TIP3   OH212365   4.753   2.041   1.080  0.1242 -0.2365 -0.4036
 4134TIP3    H112366   4.717   1.999   1.002  0.3163 -1.8544  0.3441
 4134TIP3    H212367   4.711   1.996   1.153  1.1346  0.1610  0.4481
 4135TIP3   OH212368   4.215   5.798   5.751  0.2747  0.2189 -0.5127
 4135TIP3    H112369   4.177   5.846   5.677 -1.5870  1.7625  1.3161
 4135TIP3    H212370   4.171   5.713   5.750 -0.1838  0.4564 -0.8485
 4136TIP3   OH212371   7.154   4.391   2.640 -0.3944 -0.0898 -0.4019
 4136TIP3    H112372   7.097   4.464   2.662 -0.5271 -0.3780  0.2110
 4136TIP3    H212373   7.102   4.312   2.657  0.6465 -0.4088  1.6157
 4137TIP3   OH212374   6.357   5.914   0.421  0.4360  0.0109  0.0857
 4137TIP3    H112375   6.273   5.878   0.448  1.0613 -0.2364  1.7608
 4137TIP3    H212376   6.339   6.008   0.408  0.1614  0.1857  1.6113
 4138TIP3   OH212377   1.577   2.306   0.360  0.0079  0.5591 -0.1673
 4138TIP3    H112378   1.520   2.263   0.296  0.3929  0.5409 -0.4981
 4138TIP3    H212379   1.522   2.313   0.439 -0.4031  0.4076 -0.4337
 4139TIP3   OH212380   6.404   6.698   5.883 -0.1012  0.4149  0.1794
 4139TIP3    H112381   6.334   6.655   5.835 -0.3859  1.2741 -0.1975
 4139TIP3    H212382   6.462   6.627   5.910 -0.1119 -0.1254 -1.1480
 4140TIP3   OH212383   0.060   5.103   0.994 -0.4730  0.1497 -0.0294
 4140TIP3    H112384  -0.030   5.125   1.018 -0.5154  0.7854 -0.7053
 4140TIP3    H212385   0.051   5.054   0.912 -0.2968 -1.3834  0.8337
 4141TIP3   OH212386   1.656   5.554   1.177  0.5276  0.2445  0.1409
 4141TIP3    H112387   1.714   5.613   1.128  0.2506  0.9887  0.6778
 4141TIP3    H212388   1.613   5.611   1.241 -2.0089  0.0549 -1.2470
 4142TIP3   OH212389   1.842   5.543   4.630  0.1887  0.0494 -0.0288
 4142TIP3    H112390   1.903   5.599   4.582  0.4786  0.0734  0.3590
 4142TIP3    H212391   1.777   5.517   4.565 -1.4033  2.8510  0.2879
 4143TIP3   OH212392   0.206   1.571   3.731  0.0905  0.2665 -0.0125
 4143TIP3    H112393   0.178   1.570   3.822 -1.5815  1.7469 -0.4427
 4143TIP3    H212394   0.243   1.659   3.719  1.4603 -0.3360 -0.4806
 4144TIP3   OH212395   3.147   0.121   3.344 -0.2595 -0.4819  0.3396
 4144TIP3    H112396   3.156   0.115   3.440  0.0498  0.0335  0.3476
 4144TIP3    H212397   3.076   0.061   3.323  0.5251 -1.6078  0.7475
 4145TIP3   OH212398   4.550   1.736   4.292  0.5750 -0.5829 -0.4609
 4145TIP3    H112399   4.531   1.651   4.330  1.6133 -0.6668 -0.0980
 4145TIP3    H212400   4.564   1.718   4.199  1.2058 -0.8762 -0.3112
 4146TIP3   OH212401   3.166   5.585   0.367 -0.2235  0.4507  0.1985
 4146TIP3    H112402   3.260   5.602   0.372  0.0370 -0.5854 -0.7867
 4146TIP3    H212403   3.134   5.649   0.303 -0.2325  0.9277  0.6715
 4147TIP3   OH212404   6.196   1.045   0.057  0.2915 -0.1746 -0.2531
 4147TIP3    H112405   6.219   1.048   0.150 -0.4468 -2.6629  0.0931
 4147TIP3    H212406   6.102   1.065   0.054 -0.3890 -2.8847 -0.0177
 4148TIP3   OH212407   2.522   6.060   4.000 -0.2557 -0.3423 -0.3864
 4148TIP3    H112408   2.584   5.993   3.973 -0.7986 -0.9377 -0.1677
 4148TIP3    H212409   2.443   6.043   3.948 -0.8977 -0.7723  0.7045
 4149TIP3   OH212410   1.757   5.905   3.892  0.2067  0.0472 -0.3479
 4149TIP3    H112411   1.756   5.952   3.809  0.7315 -1.0217 -0.9759
 4149TIP3    H212412   1.709   5.824   3.875  1.2431 -0.6763  0.0715
 4150TIP3   OH212413   4.157   1.841   0.949 -0.3997  0.3466  0.4661
 4150TIP3    H112414   4.201   1.888   1.019 -2.0638 -0.6491  2.2558
 4150TIP3    H212415   4.188   1.751   0.957 -0.6982  0.1986  0.0078
 4151TIP3   OH212416   3.659   3.257   1.014 -0.0562  0.3083  0.5495
 4151TIP3    H112417   3.627   3.337   1.054  0.7123  1.3646 -0.8426
 4151TIP3    H212418   3.653   3.191   1.083 -0.5213  1.6000  1.7879
 4152TIP3   OH212419   1.290   1.369   2.742  0.1405 -0.0778  0.2978
 4152TIP3    H112420   1.233   1.398   2.813 -0.1011  0.0326  0.0595
 4152TIP3    H212421   1.273   1.276   2.734  0.0277 -0.0534  0.2567
 4153TIP3   OH212422   3.370   5.767   3.296 -0.0651 -0.6273 -0.9072
 4153TIP3    H112423   3.438   5.705   3.269  1.1536 -0.1077  0.7835
 4153TIP3    H212424   3.363   5.829   3.223  1.4847 -0.5295 -0.9922
 4154TIP3   OH212425   6.883   2.286   4.342  0.5161  0.2173 -0.1064
 4154TIP3    H112426   6.907   2.276   4.250 -0.5683  0.1280 -0.3929
 4154TIP3    H212427   6.909   2.376   4.365  0.4217  0.3778 -0.6253
 4155TIP3   OH212428   4.681   4.738   1.564 -0.4239 -0.2872 -0.2964
 4155TIP3    H112429   4.722   4.821   1.540 -0.8347  0.6315  1.9231
 4155TIP3    H212430   4.605   4.764   1.616 -1.3007 -2.0506 -0.6507
 4156TIP3   OH212431   1.112   1.137   0.675 -0.6859  0.7623 -0.2347
 4156TIP3    H112432   1.048   1.117   0.607 -0.2714  0.0161 -0.4194
 4156TIP3    H212433   1.074   1.102   0.755  1.4641 -4.1364 -1.0276
 4157TIP3   OH212434   4.124   5.939   3.451  0.0066 -0.0605 -0.2357
 4157TIP3    H112435   4.079   6.023   3.453 -0.7648 -0.4655 -0.3827
 4157TIP3    H212436   4.084   5.889   3.523  1.6691  0.2996  1.0098
 4158TIP3   OH212437   3.174   4.417   5.402  0.2572 -0.5623 -0.0866
 4158TIP3    H112438   3.240   4.466   5.352 -1.1050  0.8254 -0.6003
 4158TIP3    H212439   3.183   4.327   5.371  2.1877 -0.5262  0.1844
 4159TIP3   OH212440   5.449   0.638   4.954  0.1226  0.8279 -0.3014
 4159TIP3    H112441   5.452   0.543   4.956 -1.6082  0.7666  1.2871
 4159TIP3    H212442   5.535   0.665   4.987  0.0045 -0.2083  0.9310
 4160TIP3   OH212443   4.060   2.499   1.968  0.2979 -1.0573 -0.0906
 4160TIP3    H112444   4.106   2.439   2.026 -0.2277 -0.7091  0.6959
 4160TIP3    H212445   4.027   2.444   1.897 -0.0300 -1.6748  0.5356
 4161TIP3   OH212446   3.834   0.908   4.771 -0.0536  0.1553  0.8053
 4161TIP3    H112447   3.778   0.986   4.771 -1.6256 -0.9292  1.3651
 4161TIP3    H212448   3.789   0.846   4.715 -0.1703 -1.2300  2.3495
 4162TIP3   OH212449   3.145   1.659   1.946  0.3019 -0.0105 -0.0250
 4162TIP3    H112450   3.051   1.647   1.939  0.1330  1.8458 -1.8196
 4162TIP3    H212451   3.157   1.710   2.026 -0.2366  0.0814  0.0006
 4163TIP3   OH212452   7.076   1.964   0.614  0.0957  0.1553  0.0232
 4163TIP3    H112453   6.991   1.986   0.575  0.4335  0.2899 -0.6372
 4163TIP3    H212454   7.137   2.026   0.576  1.0688 -1.8234 -1.8582
 4164TIP3   OH212455   2.348   5.427   4.751  0.7301  0.0822  0.0156
 4164TIP3    H112456   2.348   5.370   4.828  1.1526  0.1228  0.0476
 4164TIP3    H212457   2.311   5.509   4.782 -1.9194 -0.8000 -0.5156
 4165TIP3   OH212458   3.538   1.005   0.322 -0.1075  0.1703  0.0445
 4165TIP3    H112459   3.619   0.957   0.337 -0.4196 -0.5248 -0.4543
 4165TIP3    H212460   3.554   1.057   0.243 -0.1745 -0.0258 -0.0979
 4166TIP3   OH212461   4.242   0.348   3.582  0.8076  0.0868 -0.6038
 4166TIP3    H112462   4.185   0.349   3.505 -1.6502 -1.7817  1.0245
 4166TIP3    H212463   4.307   0.281   3.563 -0.3187 -1.0055 -0.7662
 4167TIP3   OH212464   4.704   4.161   1.667  0.1200 -0.0839  0.8861
 4167TIP3    H112465   4.683   4.254   1.676  0.9707  0.0505  1.5521
 4167TIP3    H212466   4.794   4.160   1.634  0.0249 -0.6748  0.6386
 4168TIP3   OH212467   1.853   5.379   1.303 -0.2045  0.0711 -0.1996
 4168TIP3    H112468   1.809   5.294   1.306 -1.6405  0.8016  0.7990
 4168TIP3    H212469   1.788   5.438   1.268  0.5033  0.9200 -0.1095
 4169TIP3   OH212470   0.368   6.014   3.961  0.6011 -0.1293 -0.9061
 4169TIP3    H112471   0.435   5.954   3.995 -0.1462  0.4549  1.8669
 4169TIP3    H212472   0.413   6.098   3.952  0.9022 -0.3758 -1.8847
 4170TIP3   OH212473   2.176   2.958   1.634  0.4853  0.3714 -0.4396
 4170TIP3    H112474   2.114   2.963   1.561 -1.8426  1.6058  1.4871
 4170TIP3    H212475   2.244   3.022   1.612 -0.6609  1.3961 -1.1151
 4171TIP3   OH212476   2.839   5.477   3.541  0.1523  0.2924 -0.9544
 4171TIP3    H112477   2.833   5.520   3.456  0.6082  0.5512 -0.8564
 4171TIP3    H212478   2.932   5.481   3.564  0.1260 -0.3381 -0.7342
 4172TIP3   OH212479   1.524   2.857   5.541 -0.2559  0.4055  0.4253
 4172TIP3    H112480   1.518   2.796   5.467  0.3456 -1.0814  1.5473
 4172TIP3    H212481   1.581   2.813   5.604 -1.1438  1.3912  1.9968
 4173TIP3   OH212482   6.264   2.236   2.424  0.2424  0.4668  0.6518
 4173TIP3    H112483   6.328   2.297   2.460 -0.8208  0.3830  2.8905
 4173TIP3    H212484   6.210   2.289   2.366  0.9047  1.0532  0.5581
 4174TIP3   OH212485   0.182   6.038   0.428  1.2703  0.1675  0.1901
 4174TIP3    H112486   0.186   5.993   0.513 -2.1661  2.9029  2.0856
 4174TIP3    H212487   0.095   6.017   0.394  1.7031  0.9805 -1.5464
 4175TIP3   OH212488   5.371   6.703   0.824 -0.1390 -0.3820 -0.2686
 4175TIP3    H112489   5.283   6.680   0.854 -0.2822  0.2595 -0.1646
 4175TIP3    H212490   5.427   6.633   0.856 -0.7323 -1.2479 -1.0612
 4176TIP3   OH212491   6.558   2.926   3.647 -0.0914 -0.6426 -0.0311
 4176TIP3    H112492   6.570   2.929   3.553  0.0886 -2.4973 -0.1034
 4176TIP3    H212493   6.610   2.998   3.681 -1.9976  1.5407 -1.4685
 4177TIP3   OH212494   5.440   0.387   1.991 -0.4033  0.2040 -0.1072
 4177TIP3    H112495   5.392   0.466   1.969  0.9839  0.7515 -1.3494
 4177TIP3    H212496   5.525   0.397   1.948  0.3542 -1.3029  0.9166
 4178TIP3   OH212497   1.170   4.611   4.820  0.1951  0.2703  0.4509
 4178TIP3    H112498   1.146   4.703   4.824  0.4181  0.4762 -1.6439
 4178TIP3    H212499   1.086   4.564   4.815  0.0923  0.4678  0.3126
 4179TIP3   OH212500   1.366   3.284   4.195 -0.4125  0.1447 -0.3743
 4179TIP3    H112501   1.347   3.343   4.268 -0.1984  0.6700 -0.7306
 4179TIP3    H212502   1.362   3.341   4.117 -0.4324 -0.3608 -0.7467
 4180TIP3   OH212503   0.225   0.597   2.270 -0.3172  0.4267 -0.5216
 4180TIP3    H112504   0.160   0.593   2.201  0.3526  1.0381 -1.2028
 4180TIP3    H212505   0.254   0.689   2.271 -1.2136  0.7585  1.4217
 4181TIP3   OH212506   5.824   5.716   1.687 -0.9160  0.2689  0.0263
 4181TIP3    H112507   5.788   5.800   1.658  2.2356  1.0647 -2.0778
 4181TIP3    H212508   5.798   5.654   1.619  0.6039  0.6193 -0.9253
 4182TIP3   OH212509   4.291   6.302   1.756 -0.7583  0.0178 -0.2775
 4182TIP3    H112510   4.326   6.310   1.667  0.0649 -0.1698  0.0214
 4182TIP3    H212511   4.332   6.223   1.791 -0.1185  0.7594  0.6835
 4183TIP3   OH212512   3.171   4.568   4.953 -0.6668 -0.1210 -0.3566
 4183TIP3    H112513   3.193   4.624   4.878 -0.1340  1.4144  0.8761
 4183TIP3    H212514   3.091   4.607   4.989  0.2535  0.4933  1.1007
 4184TIP3   OH212515   7.091   6.759   0.683  0.2776 -0.0149 -0.4234
 4184TIP3    H112516   7.068   6.844   0.644  0.2531  0.4893  0.6658
 4184TIP3    H212517   7.101   6.700   0.608 -1.0218  0.6266 -1.1328
 4185TIP3   OH212518   4.067   3.793   3.119 -0.2697  0.2333  0.0695
 4185TIP3    H112519   4.060   3.715   3.064 -0.3432  1.7094 -2.1714
 4185TIP3    H212520   4.084   3.760   3.207 -1.7679 -2.3270 -0.5202
 4186TIP3   OH212521   5.650   2.028   2.293  0.1561  0.2880  0.1060
 4186TIP3    H112522   5.730   2.074   2.267  0.1926  1.1576  1.6114
 4186TIP3    H212523   5.601   2.015   2.212  1.6624  0.0467 -0.7890
 4187TIP3   OH212524   2.552   6.211   5.340  0.3154 -0.1900  0.0567
 4187TIP3    H112525   2.516   6.153   5.407 -1.3968  0.4352 -0.2772
 4187TIP3    H212526   2.545   6.161   5.259  1.9530 -0.7636  0.2279
 4188TIP3   OH212527   0.156   2.634   3.063  0.2765  0.3295 -0.5487
 4188TIP3    H112528   0.212   2.634   2.985  1.7640 -0.5059  0.4581
 4188TIP3    H212529   0.135   2.541   3.078 -0.0896  0.4880 -0.0357
 4189TIP3   OH212530   2.514   6.540   3.511 -0.1058 -0.3304  0.3995
 4189TIP3    H112531   2.592   6.587   3.484 -0.3021 -0.8540 -1.2102
 4189TIP3    H212532   2.450   6.608   3.530 -0.0651  0.0956 -0.8927
 4190TIP3   OH212533   5.906   3.726   1.404  0.3072 -0.3215  0.1163
 4190TIP3    H112534   5.819   3.702   1.373 -0.1167  0.5470  0.5818
 4190TIP3    H212535   5.963   3.654   1.376 -0.4274 -0.5585 -0.8127
 4191TIP3   OH212536   6.331   4.904   0.772 -0.0021 -0.1626  0.2703
 4191TIP3    H112537   6.272   4.862   0.710 -0.9634  0.7475  0.5327
 4191TIP3    H212538   6.307   4.997   0.768  1.2557  0.1856  0.5693
 4192TIP3   OH212539   2.876   1.769   2.555 -0.2084 -0.0753 -0.4356
 4192TIP3    H112540   2.854   1.861   2.539  0.7126  0.1617 -0.3751
 4192TIP3    H212541   2.852   1.755   2.647 -0.3154  0.1171 -0.4328
 4193TIP3   OH212542   1.628   4.297   0.963  0.0254  0.1913  0.3680
 4193TIP3    H112543   1.645   4.321   1.054  0.9298 -0.3314  0.3523
 4193TIP3    H212544   1.565   4.362   0.933  0.5705  1.0710  1.0418
 4194TIP3   OH212545   4.872   6.368   1.153  0.0495 -0.0248  0.1510
 4194TIP3    H112546   4.850   6.275   1.153  1.3425 -0.3568  0.5200
 4194TIP3    H212547   4.911   6.384   1.240 -0.4117  0.9274  0.2014
 4195TIP3   OH212548   2.415   5.576   3.405  0.1135  0.7350 -0.2178
 4195TIP3    H112549   2.466   5.529   3.471 -0.8078  2.5244  1.9045
 4195TIP3    H212550   2.340   5.519   3.386  0.1313  0.4045  0.6785
 4196TIP3   OH212551   0.873   6.444   0.337 -0.4556  0.2728 -0.0572
 4196TIP3    H112552   0.958   6.488   0.330 -1.2694  1.7315 -1.2408
 4196TIP3    H212553   0.819   6.485   0.269 -1.7861 -1.3830 -0.0645
 4197TIP3   OH212554   6.903   1.869   1.986 -0.1301 -0.0639  0.4223
 4197TIP3    H112555   6.820   1.913   2.007 -0.0612 -0.3485  1.3030
 4197TIP3    H212556   6.907   1.871   1.890 -0.8946  0.4338  0.3926
 4198TIP3   OH212557   1.856   5.785   1.838 -0.2741  1.3391 -0.5542
 4198TIP3    H112558   1.851   5.821   1.926 -1.6015 -1.2173  0.5485
 4198TIP3    H212559   1.941   5.740   1.835 -1.0898 -0.3910  0.3075
 4199TIP3   OH212560   0.757   5.039   1.482 -0.1365  0.8891  0.2110
 4199TIP3    H112561   0.679   5.024   1.535 -0.4254 -0.0699 -0.4539
 4199TIP3    H212562   0.734   5.115   1.428 -2.6504 -2.1305 -3.5059
 4200TIP3   OH212563   6.655   5.363   0.465 -0.1011  0.3328  0.5199
 4200TIP3    H112564   6.616   5.351   0.379  1.0719  2.3164 -0.3657
 4200TIP3    H212565   6.581   5.364   0.525 -1.3253  2.5624 -0.9114
 4201TIP3   OH212566   1.364   5.229   4.888 -0.0913 -0.3256 -0.3124
 4201TIP3    H112567   1.290   5.169   4.877 -0.2568  0.0959 -1.6046
 4201TIP3    H212568   1.440   5.178   4.858  0.3329 -1.0738  1.8323
 4202TIP3   OH212569   6.909   6.670   0.903 -0.2487  0.0221  0.0017
 4202TIP3    H112570   6.839   6.734   0.888  0.3394  0.4643 -1.0071
 4202TIP3    H212571   6.975   6.692   0.837  0.8909 -0.3078  1.0062
 4203TIP3   OH212572   5.930   2.343   1.981  0.6051  0.1342  0.2218
 4203TIP3    H112573   5.947   2.396   1.903 -0.3129  2.8414  1.6976
 4203TIP3    H212574   5.837   2.320   1.975 -0.0852  2.2529  1.4304
 4204TIP3   OH212575   1.667   0.323   2.166 -0.0599  0.3361 -0.3028
 4204TIP3    H112576   1.701   0.290   2.249  0.2221 -1.6674 -1.1399
 4204TIP3    H212577   1.614   0.251   2.132  2.6805 -0.4537 -3.4912
 4205TIP3   OH212578   2.479   4.699   0.293 -0.0926  0.0645 -0.1951
 4205TIP3    H112579   2.392   4.726   0.266  0.2394  0.4987 -0.8665
 4205TIP3    H212580   2.484   4.719   0.386 -0.4677  0.6801 -0.3079
 4206TIP3   OH212581   6.536   5.901   0.628  0.4924 -0.4102 -0.0706
 4206TIP3    H112582   6.614   5.889   0.575 -0.3096 -0.8629 -1.1719
 4206TIP3    H212583   6.464   5.907   0.565 -0.5752 -1.6848  0.9735
 4207TIP3   OH212584   7.071   2.384   3.526  0.3339 -0.2689  0.3071
 4207TIP3    H112585   7.043   2.475   3.533  0.4398 -0.1105 -1.0541
 4207TIP3    H212586   6.990   2.335   3.513  0.1814 -0.5068  1.9435
 4208TIP3   OH212587   3.042   1.797   0.688 -0.6143  0.3332 -0.2896
 4208TIP3    H112588   3.042   1.888   0.657 -0.9471  0.0691 -1.1027
 4208TIP3    H212589   3.071   1.746   0.612  0.2743 -0.1781  0.3718
 4209TIP3   OH212590   2.233   6.684   2.557 -0.2809 -0.1595  0.0466
 4209TIP3    H112591   2.252   6.621   2.627  0.2675  0.0033  0.0503
 4209TIP3    H212592   2.288   6.656   2.484 -1.7668 -1.0808 -0.7788
 4210TIP3   OH212593   1.342   3.634   2.583  0.1004 -0.1541  0.2249
 4210TIP3    H112594   1.417   3.607   2.636  1.2676  3.4567  0.7008
 4210TIP3    H212595   1.378   3.645   2.495 -0.7222 -1.5819 -0.3215
 4211TIP3   OH212596   5.689   5.444   4.578  0.1457  0.2873  0.1873
 4211TIP3    H112597   5.743   5.521   4.561  0.7239 -0.4709 -1.7281
 4211TIP3    H212598   5.636   5.434   4.498 -0.5875 -0.7601  0.7811
 4212TIP3   OH212599   5.504   4.687   2.518  0.0783  0.5463 -0.1067
 4212TIP3    H112600   5.485   4.593   2.526  1.5765  0.2387  0.1628
 4212TIP3    H212601   5.470   4.725   2.599  1.2439 -0.1057  0.7268
 4213TIP3   OH212602   4.392   0.214   0.721 -0.0780  0.4063  0.1439
 4213TIP3    H112603   4.312   0.238   0.674 -0.3327  1.4901  1.0861
 4213TIP3    H212604   4.392   0.119   0.721 -1.7949  0.3684  0.7890
 4214TIP3   OH212605   4.975   5.429   3.962  0.2017 -0.3795 -0.3396
 4214TIP3    H112606   4.905   5.392   4.015 -0.4757  1.3779  0.0607
 4214TIP3    H212607   5.053   5.419   4.015 -0.4502  1.2577  1.0082
 4215TIP3   OH212608   0.777   6.130   2.255  0.1065  0.1493  0.1447
 4215TIP3    H112609   0.736   6.159   2.337 -1.2224  0.9201 -0.7389
 4215TIP3    H212610   0.718   6.163   2.186  1.3364 -0.2200 -1.1351
 4216TIP3   OH212611   1.473   2.940   3.739  0.1091 -0.1296  0.0811
 4216TIP3    H112612   1.497   2.964   3.829 -0.6655 -1.1359  0.5742
 4216TIP3    H212613   1.418   3.013   3.710 -0.2548 -0.1429  0.7027
 4217TIP3   OH212614   6.280   5.027   2.466  0.3485  0.6570  0.0174
 4217TIP3    H112615   6.328   5.016   2.548  0.4269 -0.5488 -0.1732
 4217TIP3    H212616   6.266   4.938   2.434 -1.0427  1.0244 -0.4974
 4218TIP3   OH212617   3.499   0.117   2.164  0.9302 -0.5911  0.1985
 4218TIP3    H112618   3.407   0.105   2.187  1.2534 -0.2167  1.8005
 4218TIP3    H212619   3.501   0.111   2.068 -0.5118 -2.1380  0.2274
 4219TIP3   OH212620   0.357   5.237   3.053 -0.3626  0.3426 -0.1179
 4219TIP3    H112621   0.434   5.291   3.037  1.0664 -1.6043 -0.1594
 4219TIP3    H212622   0.307   5.286   3.118  0.8802  1.6932 -0.1242
 4220TIP3   OH212623   3.180   6.154   2.790  0.5248 -0.1021  0.0229
 4220TIP3    H112624   3.094   6.177   2.754  1.0743  0.9048 -0.7302
 4220TIP3    H212625   3.178   6.059   2.798 -0.7829 -0.0664  0.3556
 4221TIP3   OH212626   3.488   6.731   4.342 -0.2197  0.4086  0.2484
 4221TIP3    H112627   3.496   6.639   4.369 -0.1497 -0.0970 -1.3450
 4221TIP3    H212628   3.577   6.765   4.347 -0.1998  0.3073  0.5935
 4222TIP3   OH212629   5.968   2.219   1.573 -0.3322 -0.0300  0.1098
 4222TIP3    H112630   5.998   2.306   1.599  0.8602 -0.9233  1.8716
 4222TIP3    H212631   6.044   2.162   1.584 -1.3704 -1.5012  0.0302
 4223TIP3   OH212632   1.600   2.707   1.017  0.2931  0.3955  0.1077
 4223TIP3    H112633   1.652   2.642   1.063 -0.5462  0.0291  0.5611
 4223TIP3    H212634   1.631   2.791   1.052  2.0210  0.3312 -1.1463
 4224TIP3   OH212635   5.914   4.857   2.150 -0.2519 -0.0850 -0.1055
 4224TIP3    H112636   5.874   4.771   2.136  0.6625 -0.3432 -1.3741
 4224TIP3    H212637   6.000   4.849   2.109  0.5644  0.8747  1.3730
 4225TIP3   OH212638   6.606   4.507   4.895 -0.6034  0.3090 -0.6028
 4225TIP3    H112639   6.659   4.503   4.816 -0.4657 -0.3580 -0.4839
 4225TIP3    H212640   6.659   4.556   4.958  0.7918 -2.0089  0.1733
 4226TIP3   OH212641   1.588   4.115   5.240  0.1022  0.0373  0.4191
 4226TIP3    H112642   1.593   4.183   5.173  0.0707 -0.5415 -0.1723
 4226TIP3    H212643   1.561   4.162   5.319  0.5298  0.7897  0.1323
 4227TIP3   OH212644   4.496   0.584   0.664 -0.3053  0.1411  0.3596
 4227TIP3    H112645   4.557   0.602   0.592  0.2624  0.6855  0.9490
 4227TIP3    H212646   4.551   0.542   0.731 -0.0495  2.4805  1.7256
 4228TIP3   OH212647   5.136   0.536   0.376  0.0008  0.3378  0.7003
 4228TIP3    H112648   5.156   0.627   0.356  1.0532 -0.1381 -0.5475
 4228TIP3    H212649   5.177   0.521   0.462  2.3114  0.2994 -0.3282
 4229TIP3   OH212650   6.620   1.711   2.881  0.5147 -0.0338 -0.1261
 4229TIP3    H112651   6.661   1.672   2.804  0.9410 -1.2160  0.6747
 4229TIP3    H212652   6.528   1.725   2.855  1.0333  1.2201 -1.4161
 4230TIP3   OH212653   2.109   4.072   3.121  0.0026 -0.3661  0.1242
 4230TIP3    H112654   2.054   3.995   3.132  0.6516 -1.1689 -1.8103
 4230TIP3    H212655   2.184   4.042   3.070  0.1324  1.5818 -0.9575
 4231TIP3   OH212656   7.093   4.960   0.476  0.0192  0.6470  0.3321
 4231TIP3    H112657   7.092   5.036   0.418 -1.9011 -0.7327 -1.6349
 4231TIP3    H212658   7.167   4.907   0.444 -0.0545  0.6366  0.1750
 4232TIP3   OH212659   1.319   2.067   4.640  0.4101  0.3154  0.0120
 4232TIP3    H112660   1.388   2.065   4.707  1.4124  0.8102 -0.9708
 4232TIP3    H212661   1.367   2.064   4.557 -0.7315  1.2763 -0.7006
 4233TIP3   OH212662   0.328   1.938   0.650  0.4083 -0.3708  0.2245
 4233TIP3    H112663   0.364   1.870   0.593  1.7692 -0.7745  1.5081
 4233TIP3    H212664   0.260   1.893   0.701 -0.2765 -0.1901 -0.5006
 4234TIP3   OH212665   1.511   4.375   1.855  0.2349  0.5275 -0.2353
 4234TIP3    H112666   1.463   4.449   1.893 -0.5188  0.3863 -0.8975
 4234TIP3    H212667   1.496   4.382   1.761  1.5314  0.4807 -0.4672
 4235TIP3   OH212668   5.329   1.070   1.391 -0.6425 -0.0383  0.1351
 4235TIP3    H112669   5.369   1.065   1.478  1.6540  1.8702 -0.7038
 4235TIP3    H212670   5.258   1.134   1.401  0.9361  1.7815  0.2349
 4236TIP3   OH212671   4.474   1.450   1.333 -0.1711 -0.1583 -0.2312
 4236TIP3    H112672   4.509   1.481   1.249  1.1290 -0.2755  0.2365
 4236TIP3    H212673   4.413   1.381   1.309 -0.3980  0.3270 -1.1189
 4237TIP3   OH212674   0.136   0.639   0.059 -0.0265  0.0633  0.1582
 4237TIP3    H112675   0.149   0.683   0.143 -0.2724  1.1516 -0.3570
 4237TIP3    H212676   0.080   0.699   0.010  0.8019 -0.1683 -1.0896
 4238TIP3   OH212677   6.700   3.649   3.227  0.0656  0.0905 -0.0444
 4238TIP3    H112678   6.761   3.711   3.266  1.1040 -0.5720 -0.5514
 4238TIP3    H212679   6.659   3.605   3.302 -0.5228  1.2260  0.3075
 4239TIP3   OH212680   5.864   0.252   4.652  0.5121 -0.0339  0.3943
 4239TIP3    H112681   5.827   0.303   4.724  0.0506  1.2391 -0.6855
 4239TIP3    H212682   5.950   0.290   4.637  1.2816 -1.3699  1.3040
 4240TIP3   OH212683   6.292   6.024   3.300  1.0177 -0.2642  0.1541
 4240TIP3    H112684   6.302   6.119   3.295 -0.7106 -0.1256 -2.8870
 4240TIP3    H212685   6.199   6.011   3.315  1.3404 -1.5019  1.1654
 4241TIP3   OH212686   3.275   1.440   0.728  0.0272 -0.2994  0.1678
 4241TIP3    H112687   3.297   1.356   0.768 -2.5509 -1.0733  0.1593
 4241TIP3    H212688   3.295   1.505   0.795  1.0870 -1.0085  0.5593
 4242TIP3   OH212689   5.871   4.704   3.804  0.7324 -0.0548  0.1768
 4242TIP3    H112690   5.843   4.623   3.847 -0.4445  0.5629  0.6387
 4242TIP3    H212691   5.887   4.679   3.713 -0.5708 -0.6303  0.0864
 4243TIP3   OH212692   5.434   5.980   1.175  0.0732 -0.0956 -0.2849
 4243TIP3    H112693   5.406   5.961   1.086  1.3702 -2.3451 -0.2715
 4243TIP3    H212694   5.515   5.931   1.187 -0.2552 -0.1733  2.2652
 4244TIP3   OH212695   1.165   4.359   5.464  0.0103  0.5462 -0.6448
 4244TIP3    H112696   1.204   4.374   5.550 -0.5037  1.3843 -0.5398
 4244TIP3    H212697   1.236   4.378   5.402  0.3243  0.1326 -0.4195
 4245TIP3   OH212698   5.025   0.030   2.339 -0.4523 -0.0196 -0.1707
 4245TIP3    H112699   5.009   0.079   2.258 -0.3286  0.3394  0.0166
 4245TIP3    H212700   5.111   0.061   2.368 -1.1295  0.9723  0.8773
 4246TIP3   OH212701   0.974   5.810   1.140 -0.2491  0.6104  0.1619
 4246TIP3    H112702   0.888   5.771   1.125 -0.4739  0.6097  1.3707
 4246TIP3    H212703   0.976   5.886   1.081 -0.7826  0.1953 -0.4058
 4247TIP3   OH212704   3.896   5.727   5.308 -0.5763  0.4930  0.2157
 4247TIP3    H112705   3.952   5.789   5.261  0.5124 -0.6830 -0.1072
 4247TIP3    H212706   3.812   5.772   5.316 -0.5369  1.1101 -2.0673
 4248TIP3   OH212707   6.639   3.929   2.903 -0.1113  0.4421 -0.3039
 4248TIP3    H112708   6.565   3.902   2.957 -0.0501  2.2453  0.7498
 4248TIP3    H212709   6.600   3.955   2.819 -0.3375 -1.2281 -0.7381
 4249TIP3   OH212710   7.128   5.737   3.839  0.0065 -0.2441  0.6138
 4249TIP3    H112711   7.217   5.773   3.831 -0.3377  0.6495  0.7132
 4249TIP3    H212712   7.127   5.697   3.926 -0.2432  1.4013  1.4127
 4250TIP3   OH212713   1.382   0.144   3.011  0.2218 -0.7221 -0.4698
 4250TIP3    H112714   1.459   0.199   2.997 -0.5900  0.4534 -0.3871
 4250TIP3    H212715   1.416   0.055   3.008  1.5540 -0.2272 -0.6438
 4251TIP3   OH212716   1.487   1.280   4.778 -0.2292  0.0203 -0.5888
 4251TIP3    H112717   1.460   1.343   4.711 -1.0734  0.2750 -0.0316
 4251TIP3    H212718   1.492   1.197   4.731  0.0983  0.3544 -1.1585
 4252TIP3   OH212719   2.336   2.084   4.094  0.0594 -0.2949  0.0111
 4252TIP3    H112720   2.377   2.004   4.125  1.8485  0.3641 -0.5543
 4252TIP3    H212721   2.372   2.153   4.150  0.2721  0.3909 -0.9397
 4253TIP3   OH212722   6.399   2.497   5.162 -0.1574  0.5572  0.1856
 4253TIP3    H112723   6.346   2.433   5.209 -0.7698  0.6284 -0.3870
 4253TIP3    H212724   6.489   2.470   5.178 -0.4015 -0.2881  0.1775
 4254TIP3   OH212725   4.340   4.350   0.580  0.1027 -0.2755 -0.5017
 4254TIP3    H112726   4.411   4.325   0.520  0.7375 -0.6323  0.3776
 4254TIP3    H212727   4.273   4.389   0.523 -0.4273 -2.8800 -1.8139
 4255TIP3   OH212728   1.462   6.400   5.523 -0.3102  0.7894 -0.2400
 4255TIP3    H112729   1.505   6.369   5.443  2.3833  0.5919  1.1903
 4255TIP3    H212730   1.523   6.464   5.560 -0.7706 -0.1952  2.3941
 4256TIP3   OH212731   7.229   6.076   0.118 -0.4010 -0.2048  0.2819
 4256TIP3    H112732   7.239   6.142   0.187  0.1060  1.1306 -1.0152
 4256TIP3    H212733   7.176   6.008   0.158 -0.0854  0.5012  2.0059
 4257TIP3   OH212734   6.140   3.816   2.284 -0.6749 -0.0467 -0.7256
 4257TIP3    H112735   6.063   3.847   2.331 -1.4373 -2.3496 -0.3339
 4257TIP3    H212736   6.113   3.814   2.192 -0.3378  1.1640 -0.8667
 4258TIP3   OH212737   3.973   0.326   3.701  0.0563 -0.4837  0.0296
 4258TIP3    H112738   4.064   0.352   3.688  0.0518  0.5728  1.8527
 4258TIP3    H212739   3.922   0.393   3.654  0.1796 -1.7866 -2.1011
 4259TIP3   OH212740   6.246   3.677   3.463  0.4585 -0.2576 -0.2737
 4259TIP3    H112741   6.233   3.583   3.474 -1.6817  0.0504  0.4260
 4259TIP3    H212742   6.319   3.699   3.521 -0.4630 -1.1648  1.2841
 4260TIP3   OH212743   3.618   5.374   2.421  0.0559 -0.1662 -0.2537
 4260TIP3    H112744   3.565   5.331   2.488  0.7617  0.0748  0.4711
 4260TIP3    H212745   3.621   5.311   2.349  0.0300 -0.8112  0.2965
 4261TIP3   OH212746   3.768   5.159   2.308  0.2951 -0.3986  0.2625
 4261TIP3    H112747   3.827   5.234   2.305  0.1485 -0.2802  0.2895
 4261TIP3    H212748   3.747   5.141   2.216  0.6320 -0.6481  0.2352
 4262TIP3   OH212749   2.977   3.726   2.276 -0.4020 -0.2081 -0.4180
 4262TIP3    H112750   3.036   3.794   2.308 -0.4311 -0.5765  0.4500
 4262TIP3    H212751   2.931   3.766   2.202  0.1907  0.4242 -0.4485
 4263TIP3   OH212752   4.948   5.179   2.417  0.6447  0.7935  0.0348
 4263TIP3    H112753   4.932   5.087   2.396  0.9424  0.5177  0.9654
 4263TIP3    H212754   4.867   5.207   2.461  0.0551  1.3424 -1.3423
 4264TIP3   OH212755   5.036   2.358   1.605  0.0177  0.4846 -0.6334
 4264TIP3    H112756   5.094   2.326   1.673  0.6949  1.1231 -0.9050
 4264TIP3    H212757   4.952   2.370   1.648  0.0935 -0.3815 -0.2236
 4265TIP3   OH212758   2.648   1.662   1.648  0.1591  0.2569  0.1948
 4265TIP3    H112759   2.711   1.592   1.635 -0.1254 -0.2292  1.2928
 4265TIP3    H212760   2.605   1.641   1.731 -1.8996  0.2281 -0.8062
 4266TIP3   OH212761   2.865   3.415  -0.022 -0.6225 -0.3059  0.1182
 4266TIP3    H112762   2.898   3.468   0.051 -1.3668  0.2923  0.0378
 4266TIP3    H212763   2.847   3.330   0.017  0.2909 -0.4180  0.3228
 4267TIP3   OH212764   3.917   3.949   4.089 -0.0097  0.6766  0.0008
 4267TIP3    H112765   3.834   3.914   4.055 -1.8083  4.0283  0.4805
 4267TIP3    H212766   3.974   3.953   4.013 -0.9331  0.0168 -0.7541
 4268TIP3   OH212767   6.646   3.527   4.254  0.0642  0.4848  0.2753
 4268TIP3    H112768   6.713   3.462   4.231  0.9563  1.3596  0.3446
 4268TIP3    H212769   6.564   3.487   4.227  0.5830 -0.7290  0.4353
 4269TIP3   OH212770   2.901   1.549   1.135  0.0145 -0.4536 -0.2593
 4269TIP3    H112771   2.884   1.556   1.041 -0.2667  0.4599 -0.1532
 4269TIP3    H212772   2.945   1.631   1.158  0.8442 -1.0284  0.2571
 4270TIP3   OH212773   3.302   4.583   1.053 -0.6682 -0.4378 -0.1120
 4270TIP3    H112774   3.289   4.488   1.054 -0.5608 -0.4478  0.2855
 4270TIP3    H212775   3.339   4.603   1.138  2.8493 -0.5568 -1.4503
 4271TIP3   OH212776   1.088   4.599   0.198  0.7737 -0.2776  0.2894
 4271TIP3    H112777   1.128   4.521   0.161  1.1303 -1.2110  2.4724
 4271TIP3    H212778   1.161   4.649   0.235  0.5198  0.9802 -0.8362
 4272TIP3   OH212779   3.564   1.419   4.086 -0.3212 -0.1021 -0.0691
 4272TIP3    H112780   3.495   1.372   4.132 -0.4431 -1.0927 -1.2069
 4272TIP3    H212781   3.637   1.421   4.148 -0.1961 -2.1405 -0.0699
 4273TIP3   OH212782   0.223   5.553   3.923 -0.4655 -0.3790 -0.5027
 4273TIP3    H112783   0.145   5.506   3.896 -1.8698  2.6761 -2.2831
 4273TIP3    H212784   0.191   5.622   3.980  0.7228  1.4869 -1.9685
 4274TIP3   OH212785   5.552   3.448   0.514 -0.0520 -0.6683  0.3455
 4274TIP3    H112786   5.616   3.401   0.567 -0.5238 -0.2782  1.2916
 4274TIP3    H212787   5.554   3.404   0.429  0.3063 -1.6845  0.8602
 4275TIP3   OH212788   2.666   1.117   3.949 -0.5001  0.1415  0.5762
 4275TIP3    H112789   2.657   1.134   3.856  1.7050  0.7732  0.4407
 4275TIP3    H212790   2.583   1.148   3.987 -1.4403 -0.1490 -1.1346
 4276TIP3   OH212791   2.530   5.031   0.593 -0.3158  0.5158  0.0087
 4276TIP3    H112792   2.479   5.083   0.655 -0.1891 -0.4086  0.9211
 4276TIP3    H212793   2.532   5.084   0.513 -1.0714  1.4239  0.5666
 4277TIP3   OH212794   1.556   3.815   5.678 -0.4824  0.3017 -0.4058
 4277TIP3    H112795   1.562   3.721   5.662  0.5199  0.5576 -1.6673
 4277TIP3    H212796   1.468   3.839   5.646 -1.6599 -0.5377  1.9883
 4278TIP3   OH212797   1.116   5.132   3.255  0.4734  0.5647  0.3770
 4278TIP3    H112798   1.189   5.139   3.318 -0.0405  0.9105  0.9444
 4278TIP3    H212799   1.092   5.223   3.237  0.5134  0.4635 -0.2097
 4279TIP3   OH212800   4.743   3.308   3.972  0.1351 -0.2725  0.2292
 4279TIP3    H112801   4.806   3.335   4.038  0.5071  0.3812 -0.3785
 4279TIP3    H212802   4.796   3.273   3.900 -0.2769 -1.3012  0.4079
 4280TIP3   OH212803   0.035   4.690   5.618 -0.0911  0.3931 -0.6136
 4280TIP3    H112804  -0.022   4.712   5.691 -0.4113 -0.7102 -0.5087
 4280TIP3    H212805   0.078   4.772   5.595 -0.9042  1.0084  0.0130
 4281TIP3   OH212806   0.106   5.348   2.489 -0.6805  0.1816 -0.3692
 4281TIP3    H112807   0.155   5.278   2.445 -0.8047  0.5999 -1.1848
 4281TIP3    H212808   0.131   5.339   2.582 -0.8821 -1.0920 -0.4133
 4282TIP3   OH212809   2.644   4.970   1.907 -0.6156 -0.1855  0.1486
 4282TIP3    H112810   2.664   4.912   1.834 -2.4770 -0.9262  0.1602
 4282TIP3    H212811   2.583   4.920   1.962 -0.2364  0.8231  1.5539
 4283TIP3   OH212812   6.992   4.567   4.915  0.0883  0.1296  0.1048
 4283TIP3    H112813   6.918   4.576   4.975 -0.0547 -0.3610  0.0100
 4283TIP3    H212814   6.971   4.490   4.863  0.7940 -0.1798  0.2574
 4284TIP3   OH212815   1.460   5.144   4.243  0.1961  0.4047 -1.0861
 4284TIP3    H112816   1.414   5.164   4.325  2.1436 -0.4085  0.2720
 4284TIP3    H212817   1.486   5.053   4.252  2.7395  1.0174 -1.3971
 4285TIP3   OH212818   2.190   6.430   2.350 -0.0285 -0.1337 -0.1022
 4285TIP3    H112819   2.164   6.365   2.285 -2.1036  0.9807 -0.4804
 4285TIP3    H212820   2.122   6.497   2.345  2.2787  2.3505 -0.0971
 4286TIP3   OH212821   5.378   6.824   2.501 -0.0298 -0.2295  0.2045
 4286TIP3    H112822   5.429   6.831   2.582 -0.2891  0.7268  0.2933
 4286TIP3    H212823   5.398   6.736   2.468  2.7522  0.5385 -0.4635
 4287TIP3   OH212824   3.630   4.796   2.627 -0.1928  0.1708 -0.2947
 4287TIP3    H112825   3.623   4.889   2.650 -0.6321 -0.0506  0.4739
 4287TIP3    H212826   3.578   4.750   2.693  2.2780 -0.8754  1.0927
 4288TIP3   OH212827   6.185   4.170   3.059  0.3270  0.1628  0.1013
 4288TIP3    H112828   6.154   4.103   3.120  1.6124 -0.8661 -0.3153
 4288TIP3    H212829   6.140   4.151   2.977 -0.0461  0.4192  0.2472
 4289TIP3   OH212830   6.308   5.663   3.910 -0.1103  0.0143 -0.3818
 4289TIP3    H112831   6.236   5.726   3.918  0.6356  0.7107  1.1987
 4289TIP3    H212832   6.362   5.697   3.839 -0.1531  0.7275 -0.0789
 4290TIP3   OH212833   2.683   4.579   2.785  0.0491 -0.4006  0.1621
 4290TIP3    H112834   2.607   4.629   2.814  0.2447 -0.4903  0.8437
 4290TIP3    H212835   2.712   4.623   2.706  0.8474  1.2111  1.3000
 4291TIP3   OH212836   5.067   0.600   1.067 -0.1587 -0.0252  0.0071
 4291TIP3    H112837   5.039   0.516   1.030  2.6906 -1.1906  0.2097
 4291TIP3    H212838   5.101   0.578   1.154  1.6545  1.0935 -0.3588
 4292TIP3   OH212839   3.715   1.874   5.762 -0.3170 -0.0362  0.1699
 4292TIP3    H112840   3.736   1.924   5.683 -1.4068 -0.8133 -0.6379
 4292TIP3    H212841   3.763   1.792   5.752  1.0583  0.6049  1.2468
 4293TIP3   OH212842   6.527   2.596   3.716 -0.2326 -0.7323 -0.0013
 4293TIP3    H112843   6.550   2.685   3.742 -1.1351 -0.2142 -0.8718
 4293TIP3    H212844   6.446   2.577   3.764 -0.3920 -0.8289 -0.3021
 4294TIP3   OH212845   6.588   3.131   1.322  0.2980 -0.2236  0.4760
 4294TIP3    H112846   6.638   3.100   1.398  0.6942 -0.2606  0.1985
 4294TIP3    H212847   6.583   3.226   1.333  2.4334  0.0692 -0.7012
 4295TIP3   OH212848   2.040   0.151   4.512  0.0549 -0.0430  0.7400
 4295TIP3    H112849   2.105   0.212   4.545  0.9478 -1.0351  0.8732
 4295TIP3    H212850   2.091   0.075   4.483 -0.9004 -0.1564 -0.7528
 4296TIP3   OH212851   4.650   5.685   0.496 -0.1471 -0.4013 -0.7410
 4296TIP3    H112852   4.585   5.622   0.462 -1.0298  0.4769 -0.7173
 4296TIP3    H212853   4.598   5.748   0.546  0.9152 -0.5780  0.6550
 4297TIP3   OH212854   6.587   3.295   5.069  0.1254  0.1413 -0.8509
 4297TIP3    H112855   6.669   3.325   5.029 -0.4315  2.3264 -0.4962
 4297TIP3    H212856   6.521   3.353   5.031 -0.9310 -0.1576  0.5031
 4298TIP3   OH212857   3.698   1.465   0.187 -0.0152  0.7221  0.2978
 4298TIP3    H112858   3.721   1.486   0.097  0.3951  1.9155  0.6498
 4298TIP3    H212859   3.654   1.544   0.220 -0.4034  0.2059  1.0529
 4299TIP3   OH212860   2.507   6.652   5.729  0.3592 -0.1369  1.1204
 4299TIP3    H112861   2.526   6.575   5.675  2.4488  1.6623 -0.8742
 4299TIP3    H212862   2.537   6.627   5.817  2.8421 -0.9645  0.1172
 4300TIP3   OH212863   3.419   5.382   2.154 -0.4591  0.2799 -0.3093
 4300TIP3    H112864   3.326   5.400   2.138 -0.8139 -1.4352 -0.3058
 4300TIP3    H212865   3.461   5.394   2.069 -0.7713  0.4757 -0.4385
 4301TIP3   OH212866   6.052   1.027   3.298  0.0751 -0.3703 -0.2644
 4301TIP3    H112867   6.108   1.083   3.352  0.0029 -0.6266  0.0785
 4301TIP3    H212868   6.106   1.005   3.222 -0.0191  0.4585 -0.5865
 4302TIP3   OH212869   2.700   0.751   3.451  0.1064  0.1551 -0.4509
 4302TIP3    H112870   2.722   0.823   3.392  1.4965  0.1562  0.0184
 4302TIP3    H212871   2.721   0.785   3.538  0.6315 -0.7468 -0.2107
 4303TIP3   OH212872   1.121   3.356   2.566 -0.2750  0.2365  0.2516
 4303TIP3    H112873   1.211   3.323   2.559 -0.8113 -1.7665  1.8217
 4303TIP3    H212874   1.087   3.352   2.477  1.3689  1.6878 -0.4978
 4304TIP3   OH212875   0.909   2.186   2.700  0.1187 -0.0688 -0.3574
 4304TIP3    H112876   0.975   2.256   2.701  0.2205 -0.1003 -2.2421
 4304TIP3    H212877   0.944   2.122   2.638 -1.7839  0.0402 -1.6105
 4305TIP3   OH212878   3.652   1.480   5.355 -0.0383 -0.2022 -0.0910
 4305TIP3    H112879   3.568   1.479   5.401  0.3926  1.0137  0.7769
 4305TIP3    H212880   3.629   1.479   5.262 -1.0743  1.4452  0.1146
 4306TIP3   OH212881   3.371   2.978   3.757  0.3538 -0.3947 -0.0775
 4306TIP3    H112882   3.367   2.906   3.820 -0.7033 -0.0385  0.2906
 4306TIP3    H212883   3.314   2.950   3.685  0.8184 -0.3968 -0.4503
 4307TIP3   OH212884   5.432   3.669   3.656  0.4672  0.5142  0.0356
 4307TIP3    H112885   5.505   3.607   3.654  0.0181 -0.0453  0.4476
 4307TIP3    H212886   5.473   3.755   3.643  1.1781  0.1959  0.1032
 4308TIP3   OH212887   1.073   5.780   5.076  0.3448  0.0064  0.5570
 4308TIP3    H112888   1.095   5.688   5.059  1.0324  0.5916 -2.1689
 4308TIP3    H212889   1.153   5.828   5.053 -0.1716  1.3397  1.4562
 4309TIP3   OH212890   1.634   0.233   2.879 -0.5316 -0.1465 -0.1180
 4309TIP3    H112891   1.654   0.140   2.868 -1.2453 -0.3516  0.2147
 4309TIP3    H212892   1.688   0.261   2.953  0.9386  0.1394 -1.2412
 4310TIP3   OH212893   6.053   5.579   4.971  0.2993 -0.7354  0.1223
 4310TIP3    H112894   5.974   5.526   4.976  0.1441 -0.6284 -0.9901
 4310TIP3    H212895   6.035   5.655   5.027 -0.2577 -0.8546  0.1055
 4311TIP3   OH212896   4.133   6.732   4.150 -0.1355  0.0946  0.9016
 4311TIP3    H112897   4.046   6.693   4.153 -0.9218  1.4670 -1.4328
 4311TIP3    H212898   4.188   6.667   4.106 -0.7995  0.4754 -0.5514
 4312TIP3   OH212899   5.711   2.484   2.341 -0.0194 -0.5241 -0.2857
 4312TIP3    H112900   5.746   2.408   2.388  2.4177  0.2838 -0.6423
 4312TIP3    H212901   5.778   2.505   2.276 -0.7630  1.7624 -0.3997
 4313TIP3   OH212902   0.797   0.733   0.850  0.4609 -0.4576 -0.1409
 4313TIP3    H112903   0.710   0.701   0.873 -0.3862  2.4808  1.2684
 4313TIP3    H212904   0.788   0.762   0.759 -0.5936  1.3124  0.4806
 4314TIP3   OH212905   3.927   4.773   0.291  0.0478  0.5762  0.2453
 4314TIP3    H112906   3.990   4.835   0.327  1.1298  0.6692 -1.6603
 4314TIP3    H212907   3.980   4.706   0.249 -1.1280 -0.4159  0.2851
 4315TIP3   OH212908   2.965   5.122   0.335 -0.4473  0.3133  0.3150
 4315TIP3    H112909   2.997   5.205   0.369 -1.7007  0.2854  1.6291
 4315TIP3    H212910   2.890   5.146   0.281 -0.9570  0.0267  0.8899
 4316TIP3   OH212911   2.200   3.348   1.601 -0.1763 -0.4560  0.1272
 4316TIP3    H112912   2.130   3.330   1.664 -0.3246 -0.3661 -0.0110
 4316TIP3    H212913   2.170   3.425   1.553 -0.6101 -1.2140 -0.8525
 4317TIP3   OH212914   3.421   2.775   3.954  0.2306  0.5133 -0.6973
 4317TIP3    H112915   3.336   2.732   3.967  1.4775 -2.1360 -0.8631
 4317TIP3    H212916   3.455   2.788   4.042  0.6421 -0.5284 -0.6984
 4318TIP3   OH212917   3.514   3.670   3.507  0.2281  0.0904 -0.2071
 4318TIP3    H112918   3.454   3.598   3.524  0.1872 -0.1732 -1.3773
 4318TIP3    H212919   3.474   3.719   3.436 -0.9943  2.7698  2.1340
 4319TIP3   OH212920   1.566   5.474   5.632  0.0841 -0.2829 -0.2727
 4319TIP3    H112921   1.488   5.452   5.581 -0.0828 -1.3122  0.3857
 4319TIP3    H212922   1.630   5.504   5.568 -0.2265 -1.2470 -1.0519
 4320TIP3   OH212923   3.508   1.966   5.525 -0.3506 -0.6648  0.4385
 4320TIP3    H112924   3.487   2.056   5.548 -2.7651 -0.8998 -0.5658
 4320TIP3    H212925   3.603   1.966   5.515 -0.3367  1.9677 -0.3116
 4321TIP3   OH212926   2.279   3.873   2.459 -0.2466 -0.1140  0.2163
 4321TIP3    H112927   2.208   3.936   2.447  1.4697  1.6501 -1.2504
 4321TIP3    H212928   2.351   3.924   2.497  0.8858 -1.4047 -0.1066
 4322TIP3   OH212929   6.327   1.061   2.811 -0.4752  0.0713  0.3157
 4322TIP3    H112930   6.314   1.150   2.778 -2.2034  0.3879  1.7115
 4322TIP3    H212931   6.253   1.011   2.776  0.5597 -0.8986 -0.5747
 4323TIP3   OH212932   2.778   6.556   2.340 -0.4387  0.4318  0.0467
 4323TIP3    H112933   2.732   6.590   2.416  0.0982 -0.4409  0.7726
 4323TIP3    H212934   2.742   6.468   2.327  0.5655 -0.0188  0.2520
 4324TIP3   OH212935   2.158   2.383   0.515 -0.1276  0.7311 -0.3909
 4324TIP3    H112936   2.147   2.475   0.490 -1.4833  0.3796 -1.1900
 4324TIP3    H212937   2.200   2.342   0.439 -0.2925  0.5219 -0.3706
 4325TIP3   OH212938   5.944   5.532   4.160  0.5119  0.0909  0.5215
 4325TIP3    H112939   6.003   5.486   4.220 -1.4448 -1.9240  1.0530
 4325TIP3    H212940   5.964   5.494   4.075  1.9936  1.6062  0.1379
 4326TIP3   OH212941   7.043   4.002   5.552  0.2478 -0.3426  0.0774
 4326TIP3    H112942   7.063   4.094   5.536 -2.0103  0.6560  2.2307
 4326TIP3    H212943   6.974   3.982   5.489  1.3933 -0.9021 -1.0340
 4327TIP3   OH212944   1.755   5.183   0.579  0.5032  0.5511 -0.0662
 4327TIP3    H112945   1.713   5.264   0.610  2.1945  0.1405  3.9129
 4327TIP3    H212946   1.829   5.213   0.527 -1.5433  1.3539 -2.7129
 4328TIP3   OH212947   4.525   2.551   5.461 -0.4188 -0.5782 -0.1431
 4328TIP3    H112948   4.553   2.520   5.374  1.7663  1.3914 -0.2142
 4328TIP3    H212949   4.439   2.590   5.445  0.3519  0.6021 -1.6565
 4329TIP3   OH212950   5.996   1.806   0.807 -0.8050  0.4260  0.1268
 4329TIP3    H112951   6.045   1.833   0.729 -0.1843 -0.4185  0.2049
 4329TIP3    H212952   6.002   1.880   0.866 -0.4414  0.6979 -0.2471
 4330TIP3   OH212953   5.940   6.162   0.008 -0.2997 -0.1914 -0.4883
 4330TIP3    H112954   5.904   6.088   0.057  1.1563 -0.6326 -0.0274
 4330TIP3    H212955   6.002   6.203   0.068  0.3218  0.2388 -1.4012
 4331TIP3   OH212956   0.152   5.297   3.304  0.3842  0.9771 -0.3341
 4331TIP3    H112957   0.148   5.350   3.224 -1.1642 -0.4535 -1.2675
 4331TIP3    H212958   0.060   5.278   3.325  0.6848  1.9817  2.2934
 4332TIP3   OH212959   2.192   3.775   3.386  0.5338 -0.5104  0.3508
 4332TIP3    H112960   2.229   3.739   3.305  0.0495 -0.3653  0.0618
 4332TIP3    H212961   2.110   3.727   3.398 -1.5212  2.2686 -1.4870
 4333TIP3   OH212962   1.043   1.849   1.127 -0.2064 -0.2506 -0.1308
 4333TIP3    H112963   1.027   1.767   1.173 -2.1347  0.4285  0.5130
 4333TIP3    H212964   1.037   1.916   1.195  1.1868  0.4683 -0.6680
 4334TIP3   OH212965   4.428   1.843   3.042  0.2696 -0.2071  0.0271
 4334TIP3    H112966   4.424   1.938   3.040 -0.3844 -0.2372 -1.5824
 4334TIP3    H212967   4.518   1.822   3.016 -0.3211 -0.0231 -2.3861
 4335TIP3   OH212968   1.459   6.664   4.288 -0.1133 -0.0283 -0.1868
 4335TIP3    H112969   1.510   6.596   4.332 -1.8466 -0.7354  0.8296
 4335TIP3    H212970   1.494   6.746   4.322 -0.2886 -0.5238  1.2907
 4336TIP3   OH212971   6.693   0.918   2.588  0.0797  0.1375 -0.2049
 4336TIP3    H112972   6.635   0.933   2.514 -0.3332  0.5073  0.1895
 4336TIP3    H212973   6.634   0.897   2.661  0.4210  0.7066  0.2471
 4337TIP3   OH212974   2.802   1.095   4.977 -0.1748 -0.4351 -0.3586
 4337TIP3    H112975   2.773   1.020   4.925  0.3722 -0.1558 -1.0930
 4337TIP3    H212976   2.860   1.144   4.918 -0.1379  0.3032  0.2688
 4338TIP3   OH212977   4.894   6.457   1.452 -0.1944  0.1296  0.2128
 4338TIP3    H112978   4.942   6.518   1.396  0.1767  0.0106  0.3985
 4338TIP3    H212979   4.808   6.498   1.464  0.4703  1.2640  1.3789
 4339TIP3   OH212980   7.213   4.062   5.082  0.1354 -0.4235 -0.1567
 4339TIP3    H112981   7.262   4.036   5.004 -1.1279 -0.2489 -1.0446
 4339TIP3    H212982   7.144   4.120   5.048 -0.8044 -0.8289  1.0144
 4340TIP3   OH212983   0.262   2.346   0.619 -0.4602  0.3532 -0.3208
 4340TIP3    H112984   0.281   2.408   0.549  0.1015 -1.3103 -1.7219
 4340TIP3    H212985   0.309   2.379   0.695  0.1741  1.3976 -1.1465
 4341TIP3   OH212986   4.924   1.394   1.753 -0.1812 -0.1233  0.0985
 4341TIP3    H112987   4.970   1.314   1.779  0.0314  0.1452  0.5613
 4341TIP3    H212988   4.987   1.464   1.770  0.1143  0.0311 -1.5190
 4342TIP3   OH212989   0.972   3.230   0.099  0.2768  0.4872  0.3419
 4342TIP3    H112990   0.904   3.224   0.166  0.7144  1.5396  0.8987
 4342TIP3    H212991   1.008   3.141   0.095 -1.7676 -0.3634 -0.6904
 4343TIP3   OH212992   6.293   1.943   1.167  0.5012  0.6320 -0.2930
 4343TIP3    H112993   6.338   1.879   1.113 -0.9873  0.3930 -1.3269
 4343TIP3    H212994   6.228   1.892   1.216 -1.6486  1.4129 -2.1525
 4344TIP3   OH212995   5.552   1.240   4.252  0.2530  0.0507  0.0791
 4344TIP3    H112996   5.558   1.291   4.332  1.3935 -0.6301  0.4559
 4344TIP3    H212997   5.483   1.176   4.269  0.6738 -0.2643  0.6268
 4345TIP3   OH212998   1.098   0.501   3.786 -0.5439  0.1490 -0.1427
 4345TIP3    H112999   1.132   0.534   3.869 -0.7763 -0.9994  0.4318
 4345TIP3    H213000   1.169   0.447   3.751 -0.0106  1.5092 -1.2698
 4346TIP3   OH213001   5.030   4.047   4.820 -0.3816 -0.6804  0.6581
 4346TIP3    H113002   5.048   4.140   4.806 -1.9213 -0.3640  0.6472
 4346TIP3    H213003   5.093   4.001   4.764 -1.0885  0.3910 -1.0712
 4347TIP3   OH213004   4.938   4.729   5.358 -0.6230 -0.1609  0.4309
 4347TIP3    H113005   4.982   4.648   5.334  0.4015 -0.0297  1.7488
 4347TIP3    H213006   5.008   4.793   5.368 -1.2132  0.3807  1.3285
 4348TIP3   OH213007   1.456   0.759   0.444  0.0574  0.6663  0.3168
 4348TIP3    H113008   1.475   0.841   0.489  1.1661  0.7287 -0.2546
 4348TIP3    H213009   1.504   0.693   0.494 -2.1924  0.0404  1.8455
 4349TIP3   OH213010   4.810   5.901   4.586  0.4718  0.0996 -0.3393
 4349TIP3    H113011   4.861   5.977   4.613  0.2199  0.0013  0.4552
 4349TIP3    H213012   4.772   5.926   4.502  1.6188  0.2635 -0.8236
 4350TIP3   OH213013   5.795   4.431   4.975 -0.1765  0.1515  0.2236
 4350TIP3    H113014   5.720   4.376   4.949 -1.1522  2.4552 -2.2806
 4350TIP3    H213015   5.872   4.382   4.945 -0.9192 -0.4888 -0.6898
 4351TIP3   OH213016   6.144   1.860   2.188  0.6372  0.3219 -0.4803
 4351TIP3    H113017   6.072   1.829   2.243  0.9827 -1.1803 -0.8096
 4351TIP3    H213018   6.205   1.900   2.250 -0.3783  1.4533 -0.1802
 4352TIP3   OH213019   0.132   2.092   1.534 -0.0171  0.1395  0.2785
 4352TIP3    H113020   0.067   2.061   1.472 -0.3308  1.2289  0.0305
 4352TIP3    H213021   0.081   2.137   1.602  0.3288 -0.9365  1.2766
 4353TIP3   OH213022   0.812   2.211   0.888  0.3723 -0.3311  0.1245
 4353TIP3    H113023   0.852   2.172   0.810  0.3464 -2.0287  0.9337
 4353TIP3    H213024   0.718   2.202   0.875  0.3182  0.6050 -0.2338
 4354TIP3   OH213025   0.437   0.897   2.849 -0.1868  0.5189 -0.2228
 4354TIP3    H113026   0.412   0.932   2.763 -2.5609 -0.8296 -0.1699
 4354TIP3    H213027   0.533   0.890   2.845 -0.2782 -0.4527 -3.1586
 4355TIP3   OH213028   5.184   0.994   0.723 -0.0131  0.0270 -0.0295
 4355TIP3    H113029   5.155   0.918   0.773  0.5214 -0.2148 -0.0788
 4355TIP3    H213030   5.279   0.993   0.731  0.0005  0.6585 -0.0832
 4356TIP3   OH213031   1.345   5.169   1.970 -0.5474 -0.4065  0.1282
 4356TIP3    H113032   1.415   5.155   1.906 -0.0603 -0.4947  0.6699
 4356TIP3    H213033   1.285   5.231   1.928  2.5424  4.1089  1.5920
 4357TIP3   OH213034   7.045   3.798   3.701 -0.1776  0.4501 -0.4969
 4357TIP3    H113035   6.985   3.761   3.636  0.2805 -0.6422 -0.3237
 4357TIP3    H213036   7.125   3.814   3.653  0.1983 -0.4603 -0.2065
 4358TIP3   OH213037   1.457   6.766   4.043 -0.4506 -0.1595  0.8944
 4358TIP3    H113038   1.428   6.741   4.131  0.0225  0.8745  1.3639
 4358TIP3    H213039   1.525   6.832   4.059  1.0294 -1.3451 -0.1957
 4359TIP3   OH213040   6.895   5.854   3.478  0.6137  0.4954  0.6079
 4359TIP3    H113041   6.906   5.769   3.435  1.1817  1.0891 -0.4787
 4359TIP3    H213042   6.897   5.917   3.406  2.7421  1.6187  1.5612
 4360TIP3   OH213043   5.978   1.862   4.155 -0.5463 -0.0871  0.0707
 4360TIP3    H113044   5.980   1.945   4.202  0.9589 -0.3455  0.5146
 4360TIP3    H213045   6.060   1.860   4.106 -0.5824 -1.2898  0.0266
 4361TIP3   OH213046   2.080   0.262   5.191 -0.6163  0.2834 -0.4443
 4361TIP3    H113047   2.010   0.228   5.135 -1.5967  0.6784  0.5153
 4361TIP3    H213048   2.050   0.349   5.217  0.0537  0.3066  0.2805
 4362TIP3   OH213049   6.406   5.702   2.946 -0.3061 -0.0653  0.1831
 4362TIP3    H113050   6.326   5.738   2.983 -1.7911 -2.1555 -0.7834
 4362TIP3    H213051   6.400   5.721   2.852 -0.9073 -2.2262 -0.2829
 4363TIP3   OH213052   1.983   5.601   3.618 -0.1402 -0.1557  0.7554
 4363TIP3    H113053   2.042   5.632   3.687 -0.3724  0.5285  0.6551
 4363TIP3    H213054   1.938   5.680   3.588 -1.1873 -0.6818  0.9049
 4364TIP3   OH213055   2.658   1.729   4.977  0.5049 -0.6471  0.1795
 4364TIP3    H113056   2.625   1.754   4.891 -2.1155 -1.6753  0.7857
 4364TIP3    H213057   2.698   1.809   5.011 -1.3840  0.7542 -0.7095
 4365TIP3   OH213058   4.464   1.799   4.546  0.1560 -0.0688 -0.6477
 4365TIP3    H113059   4.370   1.798   4.530  0.1274  2.0718 -0.9101
 4365TIP3    H213060   4.504   1.785   4.460  0.0618  0.7293 -0.8242
 4366TIP3   OH213061   1.933   5.094   4.009  0.0734 -0.0067 -0.5106
 4366TIP3    H113062   1.955   5.066   4.098  0.0883 -0.2628 -0.5957
 4366TIP3    H213063   1.884   5.175   4.021  1.5127  0.8760 -0.3253
 4367TIP3   OH213064   1.484   0.587   5.499  0.5554  0.5173 -0.5646
 4367TIP3    H113065   1.476   0.493   5.513  0.4702  0.7189  0.9727
 4367TIP3    H213066   1.394   0.618   5.488  0.2974  0.7602  1.7329
 4368TIP3   OH213067   6.405   6.694   1.015  0.2623 -0.2797 -0.0542
 4368TIP3    H113068   6.408   6.736   1.101 -3.3075 -1.9025  1.0475
 4368TIP3    H213069   6.333   6.738   0.970  0.5840 -1.0248 -1.3323
 4369TIP3   OH213070   4.383   1.185   5.079 -0.1601 -0.3715 -0.1467
 4369TIP3    H113071   4.398   1.093   5.059  1.2039 -0.3454  0.6448
 4369TIP3    H213072   4.377   1.228   4.994  0.2092 -1.0258 -0.5094
 4370TIP3   OH213073   5.196   4.145   5.756  0.3197  0.1035 -0.2478
 4370TIP3    H113074   5.255   4.219   5.739  0.5053 -0.1471 -0.7237
 4370TIP3    H213075   5.252   4.068   5.750  0.3925 -0.0219  1.5128
 4371TIP3   OH213076   0.967   6.699   1.433  0.0365  0.5984 -0.1184
 4371TIP3    H113077   0.876   6.726   1.448  0.8811  3.2458  0.7608
 4371TIP3    H213078   0.988   6.735   1.347  0.6547  1.1833  0.2733
 4372TIP3   OH213079   5.026   5.140   0.720  0.1644 -0.4759 -0.0329
 4372TIP3    H113080   4.981   5.148   0.636 -0.8709 -0.8648  0.4664
 4372TIP3    H213081   5.055   5.049   0.722 -0.4251 -0.6575  0.3266
 4373TIP3   OH213082   7.152   6.513   1.835 -0.5995  0.3147 -0.3320
 4373TIP3    H113083   7.222   6.458   1.870  0.7679  1.2210 -1.5175
 4373TIP3    H213084   7.078   6.453   1.824  0.0721 -0.7437  0.6403
 4374TIP3   OH213085   4.525   3.411   2.640  0.1167  0.3647 -0.4027
 4374TIP3    H113086   4.548   3.496   2.677  1.2467  0.0882 -0.4480
 4374TIP3    H213087   4.555   3.415   2.549 -0.4520  0.1644 -0.6050
 4375TIP3   OH213088   1.605   0.810   0.697  0.0392 -0.1806 -0.0446
 4375TIP3    H113089   1.568   0.890   0.735  2.1041  0.5365  0.5782
 4375TIP3    H213090   1.649   0.840   0.617  0.4827 -0.7591 -0.0237
 4376TIP3   OH213091   3.257   3.685   0.267  0.3023 -0.2121  0.3869
 4376TIP3    H113092   3.227   3.711   0.354 -0.8599 -0.3926  0.0604
 4376TIP3    H213093   3.250   3.589   0.267  0.0112 -0.1980  0.0158
 4377TIP3   OH213094   5.348   4.072   2.815  0.0891 -0.0639 -0.7470
 4377TIP3    H113095   5.384   4.020   2.887  1.0684  0.3030 -0.9600
 4377TIP3    H213096   5.254   4.056   2.819  0.2571 -0.9803 -0.1190
 4378TIP3   OH213097   0.734   3.435   3.515 -0.1423  0.0955  0.5714
 4378TIP3    H113098   0.708   3.489   3.441  0.6687  0.7672  0.7677
 4378TIP3    H213099   0.818   3.396   3.489 -0.2738 -0.3491  0.7921
 4379TIP3   OH213100   5.460   6.559   2.478 -0.8094 -0.1683  0.1543
 4379TIP3    H113101   5.488   6.553   2.569 -2.3640 -1.9752  0.5720
 4379TIP3    H213102   5.434   6.470   2.455  0.2062  0.0920 -2.3045
 4380TIP3   OH213103   1.354   5.397   0.613  0.1978  0.1660  0.0517
 4380TIP3    H113104   1.311   5.478   0.587 -2.2484 -1.3825 -1.2268
 4380TIP3    H213105   1.390   5.361   0.531  1.0629 -0.1559  0.5580
 4381TIP3   OH213106   0.401   1.961   5.091  0.3245  0.4617  0.4084
 4381TIP3    H113107   0.427   2.016   5.018 -0.0661  0.1130 -0.0066
 4381TIP3    H213108   0.313   1.993   5.114  0.3721  0.4507  0.5996
 4382TIP3   OH213109   0.607   3.968   2.177 -0.6652  0.7341 -0.3346
 4382TIP3    H113110   0.689   3.920   2.163 -0.3362  0.9681  0.7114
 4382TIP3    H213111   0.610   3.995   2.268 -1.2154  2.0623 -0.6795
 4383TIP3   OH213112   0.098   0.537   1.123  0.5335 -0.2724  0.1966
 4383TIP3    H113113   0.015   0.542   1.170 -1.1555 -0.3894 -2.5324
 4383TIP3    H213114   0.154   0.482   1.178 -1.3986 -0.7151  1.8351
 4384TIP3   OH213115   2.152   5.724   0.864  0.3376  0.3070 -0.5294
 4384TIP3    H113116   2.094   5.706   0.790 -0.4141  2.2641 -0.4913
 4384TIP3    H213117   2.206   5.646   0.873 -0.7583 -0.6631 -2.0212
 4385TIP3   OH213118   1.904   1.595   2.792 -0.2171  0.1543  0.1660
 4385TIP3    H113119   1.863   1.515   2.825  0.8530  0.6271  2.9071
 4385TIP3    H213120   1.853   1.666   2.832  0.3811  0.8017 -0.2003
 4386TIP3   OH213121   2.423   4.898   1.046  0.8326 -0.6222 -0.0115
 4386TIP3    H113122   2.364   4.921   1.118  0.6384 -1.6826  0.1934
 4386TIP3    H213123   2.510   4.895   1.087  0.7080 -1.3283  0.2111
 4387TIP3   OH213124   2.370   6.500   1.261 -0.5247  0.0171  0.3112
 4387TIP3    H113125   2.327   6.555   1.326 -0.9787 -0.4999  0.4521
 4387TIP3    H213126   2.447   6.464   1.306 -1.2651 -0.9657  0.8256
 4388TIP3   OH213127   4.628   2.551   1.049  0.6005 -0.4581  0.2347
 4388TIP3    H113128   4.556   2.609   1.073  0.5769 -0.6411  0.6212
 4388TIP3    H213129   4.592   2.493   0.982 -0.1428 -1.6656  1.6159
 4389TIP3   OH213130   6.190   6.056   2.723  0.1289 -0.0327 -0.5579
 4389TIP3    H113131   6.249   5.983   2.743  2.2585  1.5308 -0.7714
 4389TIP3    H213132   6.138   6.025   2.649  0.7285 -1.4535 -0.4201
 4390TIP3   OH213133   3.742   3.303   5.389  0.1103  0.2262 -0.3471
 4390TIP3    H113134   3.766   3.211   5.381  0.6587  0.4368 -1.2614
 4390TIP3    H213135   3.647   3.305   5.377 -0.3851 -0.5467  2.6878
 4391TIP3   OH213136   6.625   3.087   5.775  0.1550 -0.1854 -0.4217
 4391TIP3    H113137   6.557   3.106   5.840  1.1534  0.2355  0.5350
 4391TIP3    H213138   6.612   3.153   5.707  0.4233  0.7456  0.4051
 4392TIP3   OH213139   2.907   0.580   2.383  0.0899  0.1793  0.0063
 4392TIP3    H113140   2.947   0.566   2.297 -1.3080  0.7122 -0.7607
 4392TIP3    H213141   2.955   0.522   2.442 -1.6271 -3.4560 -1.8692
 4393TIP3   OH213142   1.496   2.424   3.457  0.4265 -0.1724 -0.2247
 4393TIP3    H113143   1.475   2.423   3.364 -0.0656  0.3587 -0.1173
 4393TIP3    H213144   1.568   2.487   3.465 -0.2586  0.5948 -0.0882
 4394TIP3   OH213145   3.979   6.358   4.204 -0.0957  0.1436 -0.3776
 4394TIP3    H113146   3.894   6.325   4.234  0.1773 -0.5095 -0.2937
 4394TIP3    H213147   3.957   6.425   4.140 -0.6755  0.0884 -0.2471
 4395TIP3   OH213148   0.982  -0.016   1.731 -0.0627  0.7762 -0.2011
 4395TIP3    H113149   1.020   0.050   1.672 -0.2482  0.0286 -1.1734
 4395TIP3    H213150   0.888  -0.004   1.723 -0.1273 -0.3452 -1.2529
 4396TIP3   OH213151   0.866   6.083   3.189  0.3012 -0.2195  0.1681
 4396TIP3    H113152   0.935   6.139   3.225  1.0284 -1.2446  0.3911
 4396TIP3    H213153   0.828   6.040   3.265  0.1116 -0.4450 -0.0537
 4397TIP3   OH213154   4.814   2.382   1.742  0.1508  0.0365 -0.0768
 4397TIP3    H113155   4.803   2.461   1.793 -0.1325 -1.1997  1.8774
 4397TIP3    H213156   4.731   2.334   1.752  1.0079 -1.4111  0.4877
 4398TIP3   OH213157   3.312   4.757   3.281 -0.2872 -0.5984 -1.0740
 4398TIP3    H113158   3.262   4.698   3.224 -0.4705 -1.5920  0.0843
 4398TIP3    H213159   3.267   4.841   3.275 -0.2518 -0.6512 -2.4516
 4399TIP3   OH213160   3.118   2.004   5.504  0.0321  0.0132 -0.2363
 4399TIP3    H113161   3.144   1.967   5.588  0.6573 -0.1860 -0.5155
 4399TIP3    H213162   3.164   1.951   5.439 -0.8587 -0.1773 -0.7324
 4400TIP3   OH213163   3.046   3.614   3.581  0.0729  0.0671  0.1057
 4400TIP3    H113164   3.048   3.542   3.518  1.8766 -0.6388  0.8972
 4400TIP3    H213165   2.955   3.643   3.581 -0.1238 -0.3472 -2.3001
 4401TIP3   OH213166   4.825   0.316   4.610  0.4035 -0.0773  0.2948
 4401TIP3    H113167   4.817   0.357   4.524  0.1943 -0.2099  0.2500
 4401TIP3    H213168   4.901   0.358   4.650 -0.2022  0.8330  0.5154
 4402TIP3   OH213169   4.378   6.041   1.770 -0.0252 -0.5523 -0.0333
 4402TIP3    H113170   4.413   5.996   1.692 -0.5060 -1.1514  0.0845
 4402TIP3    H213171   4.370   5.971   1.835 -0.3842 -0.2050  0.2940
 4403TIP3   OH213172   2.652   1.656   3.671  0.2895  0.6907  0.0657
 4403TIP3    H113173   2.588   1.618   3.611 -0.2262  2.7981 -0.8334
 4403TIP3    H213174   2.737   1.632   3.634 -0.0186  2.0669 -1.6943
 4404TIP3   OH213175   1.469   2.409   3.177 -0.2340 -0.4391  0.0820
 4404TIP3    H113176   1.403   2.445   3.118 -0.3827 -0.1268  0.4351
 4404TIP3    H213177   1.521   2.350   3.122  1.2203  1.6953 -0.9829
 4405TIP3   OH213178   1.765   6.557   4.093 -0.5019  0.3710  0.0611
 4405TIP3    H113179   1.676   6.527   4.111 -0.5754  0.9511  0.6923
 4405TIP3    H213180   1.792   6.604   4.172  0.2072  0.5739 -0.2850
 4406TIP3   OH213181   3.137   2.669   4.563  0.0624  0.2911  0.1350
 4406TIP3    H113182   3.064   2.707   4.514  0.9778  0.3483 -1.2588
 4406TIP3    H213183   3.198   2.741   4.576  1.8462 -0.5474 -2.6004
 4407TIP3   OH213184   2.103   0.505   1.389  0.4494  0.1199  0.1600
 4407TIP3    H113185   2.107   0.514   1.484 -1.4454 -1.8963  0.4928
 4407TIP3    H213186   2.018   0.542   1.365  0.1241 -1.0092 -0.4999
 4408TIP3   OH213187   6.689   4.065   0.615 -0.5130 -0.1209 -0.0317
 4408TIP3    H113188   6.615   4.074   0.675 -1.3306  0.6851 -1.1336
 4408TIP3    H213189   6.653   4.026   0.536  0.2862  0.0133 -0.4839
 4409TIP3   OH213190   4.174   5.476   4.972  0.2414 -0.6069  0.2060
 4409TIP3    H113191   4.238   5.486   5.043  2.6995 -0.9701 -1.8099
 4409TIP3    H213192   4.147   5.565   4.952 -2.2111 -0.5919  2.9155
 4410TIP3   OH213193   4.153   0.014   3.925  0.1808  0.5450 -0.0388
 4410TIP3    H113194   4.230  -0.009   3.977  0.1161  0.9073  0.2229
 4410TIP3    H213195   4.184   0.014   3.835  0.7465  1.6431  0.1353
 4411TIP3   OH213196   0.487   6.235   3.486 -0.0782  0.2105 -0.4258
 4411TIP3    H113197   0.476   6.207   3.395 -1.5212 -2.1927  0.3929
 4411TIP3    H213198   0.565   6.189   3.516 -0.3161 -0.0066 -0.1269
 4412TIP3   OH213199   4.984   5.210   3.028 -0.5693  0.0113  0.0027
 4412TIP3    H113200   5.014   5.298   3.006 -0.3912  0.1251  0.6722
 4412TIP3    H213201   4.911   5.193   2.969 -0.4043  0.4856 -0.3389
 4413TIP3   OH213202   6.016   5.081   5.363 -0.1265 -0.0158 -0.2716
 4413TIP3    H113203   6.011   5.166   5.320 -1.4240 -0.6266 -1.4074
 4413TIP3    H213204   6.058   5.024   5.298 -1.1563 -0.7058 -0.3605
 4414TIP3   OH213205   2.325   5.112   4.271 -0.2246  0.0189 -0.2826
 4414TIP3    H113206   2.314   5.059   4.193  1.8577  0.7755 -1.1640
 4414TIP3    H213207   2.348   5.050   4.340  0.2254 -0.4175 -0.8237
 4415TIP3   OH213208   4.886   5.393   3.276  0.0088  0.6356 -0.7247
 4415TIP3    H113209   4.949   5.362   3.211  2.4426  0.8876  1.3738
 4415TIP3    H213210   4.866   5.483   3.249 -0.5289  0.1402 -2.1132
 4416TIP3   OH213211   5.937   5.764   5.182 -0.2962 -0.2795  0.8974
 4416TIP3    H113212   5.891   5.848   5.173 -0.0316 -0.2036  0.1227
 4416TIP3    H213213   5.950   5.753   5.276 -2.3862 -0.5745  1.2071
 4417TIP3   OH213214   3.489   2.241   2.649 -0.6482 -0.0722 -0.1913
 4417TIP3    H113215   3.513   2.183   2.577 -0.8331 -0.4138  0.0227
 4417TIP3    H213216   3.411   2.286   2.619 -0.3424  0.2813 -0.4724
 4418TIP3   OH213217   5.767   2.579   5.150  0.2737  0.6236  0.3405
 4418TIP3    H113218   5.814   2.646   5.199 -1.1107  0.6285  1.7535
 4418TIP3    H213219   5.698   2.627   5.104 -1.1332  0.1804  1.8645
 4419TIP3   OH213220   1.184   5.949   3.293 -0.0020  0.8186  0.4658
 4419TIP3    H113221   1.160   6.037   3.264 -0.8695  0.6513  0.6568
 4419TIP3    H213222   1.191   5.956   3.388  0.9610  0.9197  0.3947
 4420TIP3   OH213223   5.903   2.561   2.153  0.5593  0.3300 -0.8038
 4420TIP3    H113224   5.902   2.631   2.087 -0.8870 -0.0936 -1.2671
 4420TIP3    H213225   5.918   2.481   2.102 -1.4650 -0.1095 -0.7924
 4421TIP3   OH213226   5.831   2.706   0.310  0.4775  0.1789 -0.0071
 4421TIP3    H113227   5.851   2.613   0.322  0.1043 -0.4790 -3.5135
 4421TIP3    H213228   5.915   2.750   0.325  0.6673 -0.6725  1.6665
 4422TIP3   OH213229   1.629   6.588   0.052  0.5148  0.9271 -0.4684
 4422TIP3    H113230   1.559   6.563   0.113  0.0587  0.5400 -1.1312
 4422TIP3    H213231   1.691   6.637   0.105  0.5153 -0.0651  0.4659
 4423TIP3   OH213232   1.424   5.390   3.870 -0.2770  0.3605 -0.0535
 4423TIP3    H113233   1.440   5.419   3.960  1.7841 -0.0260 -0.2476
 4423TIP3    H213234   1.364   5.455   3.834 -2.3770 -0.2908  2.0209
 4424TIP3   OH213235   6.955   6.190   3.440  0.2097 -0.4450 -0.3603
 4424TIP3    H113236   7.042   6.205   3.405 -0.3223  2.1012 -0.7985
 4424TIP3    H213237   6.959   6.222   3.530 -0.4399  0.4620 -0.6371
 4425TIP3   OH213238   1.006   4.816   0.346 -0.0227  0.1949  0.3709
 4425TIP3    H113239   1.002   4.883   0.278 -0.4631 -0.0155  0.1784
 4425TIP3    H213240   1.001   4.733   0.297 -1.2212  0.0502  0.6930
 4426TIP3   OH213241   4.699   2.917   3.635 -0.3639 -0.3871 -0.3836
 4426TIP3    H113242   4.614   2.887   3.665 -1.2052  2.2397  0.1211
 4426TIP3    H213243   4.762   2.870   3.689 -1.4911 -1.8402 -0.2774
 4427TIP3   OH213244   3.880   3.938   2.989 -0.5240  0.4929  0.0220
 4427TIP3    H113245   3.933   3.886   3.049 -0.4115 -0.4618 -0.8702
 4427TIP3    H213246   3.937   3.953   2.913 -1.6612 -1.0271 -1.1958
 4428TIP3   OH213247   1.409   0.686   2.079  0.7736  0.3121 -0.0290
 4428TIP3    H113248   1.461   0.613   2.113  0.0674  0.2236  0.9287
 4428TIP3    H213249   1.321   0.649   2.070  1.0052  0.1961 -2.4647
 4429TIP3   OH213250   2.773   3.954   3.277  0.3949 -0.1014  0.1553
 4429TIP3    H113251   2.837   4.004   3.326  1.9684 -0.2874 -1.6114
 4429TIP3    H213252   2.787   3.863   3.304  0.9683 -0.1538 -0.3052
 4430TIP3   OH213253   0.658   4.506   2.248  0.3654  0.6299 -1.1110
 4430TIP3    H113254   0.666   4.419   2.208  0.7234 -0.5588  1.4005
 4430TIP3    H213255   0.571   4.536   2.223  0.3127 -0.3487 -2.1919
 4431TIP3   OH213256   5.044   4.304   4.506 -0.1786  0.2215 -0.1581
 4431TIP3    H113257   4.994   4.319   4.586  1.6462 -1.0206  1.3168
 4431TIP3    H213258   5.108   4.375   4.504 -0.0902  0.1359 -0.4003
 4432TIP3   OH213259   0.865   0.367   1.870  0.6789  0.1573 -0.4303
 4432TIP3    H113260   0.809   0.294   1.897 -0.5655  0.7362 -1.3427
 4432TIP3    H213261   0.953   0.330   1.868 -0.1512 -1.9347 -2.8649
 4433TIP3   OH213262   2.984   4.219   4.094 -0.2107 -0.0805  0.2725
 4433TIP3    H113263   3.041   4.289   4.127  0.7861 -0.2836 -0.9377
 4433TIP3    H213264   2.910   4.217   4.155  0.3438  1.2020  1.0223
 4434TIP3   OH213265   1.759   4.005   2.438  0.1707  0.2951 -0.3914
 4434TIP3    H113266   1.745   3.995   2.344  0.3589  1.9120 -0.6145
 4434TIP3    H213267   1.738   4.096   2.456  0.1018  0.0046  1.1552
 4435TIP3   OH213268   0.612   6.511   0.814  0.1890 -0.3496 -0.3535
 4435TIP3    H113269   0.619   6.573   0.741  1.5595 -0.5154 -0.3834
 4435TIP3    H213270   0.667   6.438   0.789 -1.3372 -1.5824 -0.2697
 4436TIP3   OH213271   5.659   0.203   0.404  0.3846  0.6993  0.5678
 4436TIP3    H113272   5.598   0.273   0.380  0.4478  0.6693  0.3129
 4436TIP3    H213273   5.606   0.123   0.400  0.6692  0.5484 -0.6375
 4437TIP3   OH213274   6.486   0.659   2.356  0.4277 -0.1681  0.2905
 4437TIP3    H113275   6.412   0.613   2.396  1.6427 -2.7143 -0.1773
 4437TIP3    H213276   6.558   0.648   2.419  1.2593 -0.6491 -0.7096
 4438TIP3   OH213277   2.050   4.788   3.696  0.7684 -0.3450  0.1377
 4438TIP3    H113278   2.107   4.766   3.770 -1.8283 -3.2278  1.5518
 4438TIP3    H213279   2.044   4.707   3.646 -2.6995 -0.6039  0.6728
 4439TIP3   OH213280   1.441   6.583   3.468  0.5343  0.3640 -0.2078
 4439TIP3    H113281   1.390   6.610   3.544  0.4692  0.2056 -0.1952
 4439TIP3    H213282   1.451   6.488   3.477  1.5477  0.4986  0.2290
 4440TIP3   OH213283   6.764   4.633   1.226 -0.4850  0.0880 -0.3613
 4440TIP3    H113284   6.698   4.639   1.157  0.2783  0.5642 -1.0650
 4440TIP3    H213285   6.716   4.598   1.302 -1.4347 -0.0103 -0.9876
 4441TIP3   OH213286   1.863   1.656   4.196  0.0521 -0.4171  0.6541
 4441TIP3    H113287   1.862   1.650   4.100  1.7755 -0.7519  0.6227
 4441TIP3    H213288   1.843   1.568   4.226 -0.2778 -0.3608  0.5999
 4442TIP3   OH213289   6.214   0.779   1.215 -0.7109  0.1791  0.3347
 4442TIP3    H113290   6.229   0.858   1.267  0.1501  0.8303 -0.8579
 4442TIP3    H213291   6.194   0.712   1.280 -0.7269  1.1953  1.4284
 4443TIP3   OH213292   2.119   0.292   2.546  0.0474 -0.0343 -0.3149
 4443TIP3    H113293   2.086   0.379   2.568 -0.2429 -0.2570  0.1381
 4443TIP3    H213294   2.041   0.243   2.517  0.0676 -0.3911  0.2207
 4444TIP3   OH213295   4.759   4.652   3.594  0.2011 -0.1339 -0.2314
 4444TIP3    H113296   4.694   4.722   3.599  0.1594 -0.2499  2.3678
 4444TIP3    H213297   4.708   4.572   3.584 -0.0781 -0.1569  1.1229
 4445TIP3   OH213298   1.625   2.007   0.973  0.1896  0.4558  0.2432
 4445TIP3    H113299   1.671   1.989   0.892  0.3561  0.2112  0.3925
 4445TIP3    H213300   1.533   2.013   0.948  0.1594 -0.3513  0.1544
 4446TIP3   OH213301   3.012   4.550   2.596 -0.8188 -0.0925 -0.4159
 4446TIP3    H113302   3.005   4.563   2.502  0.6912 -1.1540 -0.6950
 4446TIP3    H213303   3.104   4.565   2.617 -1.1467  0.2617  0.9305
 4447TIP3   OH213304   3.423   0.023   4.877 -0.3501  0.0844 -0.1304
 4447TIP3    H113305   3.408   0.117   4.883  0.3348  0.2062 -0.1798
 4447TIP3    H213306   3.451   0.009   4.787 -1.4629 -0.3319 -0.4272
 4448TIP3   OH213307   5.539   5.905   5.573  0.2174  0.0173 -0.2734
 4448TIP3    H113308   5.496   5.837   5.520  2.4940 -1.5583 -0.2361
 4448TIP3    H213309   5.627   5.871   5.589  1.3302  2.8000  0.1447
 4449TIP3   OH213310   2.329   2.159   5.576  0.3934 -0.0077 -0.3157
 4449TIP3    H113311   2.361   2.189   5.491  0.2808 -0.0749 -0.3825
 4449TIP3    H213312   2.302   2.240   5.621  0.8049  0.0618 -0.1956
 4450TIP3   OH213313   4.846   0.953   3.536  0.2390 -0.3203 -0.3699
 4450TIP3    H113314   4.933   0.989   3.518  0.6834 -0.2345  1.6775
 4450TIP3    H213315   4.861   0.888   3.604 -1.1806 -1.1236 -0.7902
 4451TIP3   OH213316   2.467   1.086   4.861  0.3311 -0.1297  0.3161
 4451TIP3    H113317   2.430   1.093   4.950  0.9010 -1.3427  0.6750
 4451TIP3    H213318   2.522   1.008   4.865  0.9586  0.2326 -0.9105
 4452TIP3   OH213319   4.561   3.960   5.379  0.2521 -0.0383 -0.8145
 4452TIP3    H113320   4.473   3.954   5.416  0.6010  1.2077  0.3017
 4452TIP3    H213321   4.554   3.920   5.293 -1.4811  0.3425 -0.8770
 4453TIP3   OH213322   7.086   2.230   2.929  0.3451 -0.4536 -0.0479
 4453TIP3    H113323   7.025   2.215   3.002  1.4808 -1.5032  0.7265
 4453TIP3    H213324   7.068   2.158   2.868  0.7235 -0.7078  0.1355
 4454TIP3   OH213325   6.484   5.726   1.930  0.0050  0.0025  0.2372
 4454TIP3    H113326   6.542   5.666   1.978 -0.0237  0.1348  0.4384
 4454TIP3    H213327   6.540   5.763   1.861  0.8047  1.7959  1.7601
 4455TIP3   OH213328   0.839   5.392   4.674 -0.0435 -0.0765 -0.2535
 4455TIP3    H113329   0.902   5.439   4.729  0.6196 -0.4043 -0.7226
 4455TIP3    H213330   0.766   5.453   4.664  0.1633  0.2844  0.3488
 4456TIP3   OH213331   7.014   2.808   1.257 -0.4897 -0.4393  0.0357
 4456TIP3    H113332   7.081   2.751   1.220 -1.2152 -1.6869  0.6022
 4456TIP3    H213333   6.935   2.788   1.208 -0.3168  1.6450 -1.2222
 4457TIP3   OH213334   3.933   4.617   3.407 -0.2359 -0.2324 -0.0094
 4457TIP3    H113335   3.880   4.539   3.413  1.7141 -1.6816 -0.5882
 4457TIP3    H213336   3.961   4.621   3.316  0.2581  0.7453  0.1695
 4458TIP3   OH213337   1.316   1.542   4.177  0.2552 -0.7192 -0.1996
 4458TIP3    H113338   1.388   1.591   4.136 -0.9242  2.3829  1.1744
 4458TIP3    H213339   1.347   1.451   4.176  2.4960 -0.1121 -3.1321
 4459TIP3   OH213340   0.320   6.002   5.031 -0.0910  0.2770 -0.1614
 4459TIP3    H113341   0.327   6.086   4.985 -0.3874  0.0629 -0.6071
 4459TIP3    H213342   0.283   6.025   5.117  1.5980  0.8312  0.4690
 4460TIP3   OH213343   2.231   2.472   5.245 -0.0851 -0.1973 -0.2062
 4460TIP3    H113344   2.316   2.512   5.262  0.4233 -1.1462 -0.4592
 4460TIP3    H213345   2.172   2.546   5.230  0.5885  0.4835  0.4288
 4461TIP3   OH213346   1.665   0.524   0.150  0.2202  0.0800  0.1939
 4461TIP3    H113347   1.735   0.473   0.110  0.9897  1.6938 -0.5990
 4461TIP3    H213348   1.673   0.506   0.244  2.0631  0.6201  0.1750
 4462TIP3   OH213349   2.148   4.647   0.543  0.0718  0.1002 -0.2589
 4462TIP3    H113350   2.185   4.640   0.632  1.7211  2.8181 -0.6074
 4462TIP3    H213351   2.165   4.562   0.503  0.6758 -0.6684  1.5280
 4463TIP3   OH213352   2.991   6.621   0.924  0.1706 -0.4668  0.4630
 4463TIP3    H113353   2.973   6.618   0.831  0.3993  0.5237  0.3731
 4463TIP3    H213354   2.906   6.636   0.965  0.2331  0.2925  0.3232
 4464TIP3   OH213355   6.141   2.402   4.788 -0.2829  0.3266  0.2943
 4464TIP3    H113356   6.121   2.324   4.840 -0.0051 -0.0555 -0.1634
 4464TIP3    H213357   6.062   2.456   4.795 -0.0153  0.5918  1.6367
 4465TIP3   OH213358   4.750   5.982   4.855 -0.4861 -0.0532  0.0836
 4465TIP3    H113359   4.805   6.057   4.878 -1.5527  0.6950  0.2807
 4465TIP3    H213360   4.718   6.002   4.767  0.0475 -0.7928 -0.2916
 4466TIP3   OH213361   6.809   1.191   1.475  0.3753 -0.0337  0.2923
 4466TIP3    H113362   6.884   1.226   1.427  0.9935  1.4735  2.2079
 4466TIP3    H213363   6.740   1.255   1.464 -0.2189 -0.7694 -0.3702
 4467TIP3   OH213364   6.309   5.525   4.371  0.2204  0.0511  0.3726
 4467TIP3    H113365   6.290   5.466   4.298  0.4615  1.0262 -0.5080
 4467TIP3    H213366   6.234   5.517   4.429 -1.1057  0.9542 -1.1237
 4468TIP3   OH213367   5.501   5.952   4.363 -0.1738 -0.3779  0.3524
 4468TIP3    H113368   5.469   5.894   4.432  0.1829 -0.1895  0.6853
 4468TIP3    H213369   5.502   6.039   4.404  0.0639 -0.2700  0.1195
 4469TIP3   OH213370   5.645   4.936   3.326 -0.2481 -0.2695 -0.1042
 4469TIP3    H113371   5.665   5.000   3.258  0.6199 -0.2664  0.1411
 4469TIP3    H213372   5.581   4.980   3.383  1.3068  0.9266  0.8231
 4470TIP3   OH213373   5.439   1.756   2.789  0.5692 -0.1493  0.4073
 4470TIP3    H113374   5.388   1.692   2.740  1.2473 -0.9250  0.6876
 4470TIP3    H213375   5.427   1.731   2.880 -1.1136  1.6013  0.7347
 4471TIP3   OH213376   1.786   6.523   5.794  0.2829  0.9789  0.2752
 4471TIP3    H113377   1.864   6.564   5.832  1.5148 -0.2969 -0.7149
 4471TIP3    H213378   1.819   6.441   5.757 -2.1162 -1.2666  2.7105
 4472TIP3   OH213379   3.791   2.817   5.195 -0.0358 -0.7421  0.2104
 4472TIP3    H113380   3.719   2.754   5.200 -1.5664  0.8405 -0.5281
 4472TIP3    H213381   3.818   2.815   5.103 -1.2989  0.8416 -0.2553
 4473TIP3   OH213382   0.085   6.320   2.204 -0.5852  0.0152 -0.1590
 4473TIP3    H113383   0.059   6.228   2.210  1.9661 -0.6878  3.1962
 4473TIP3    H213384   0.140   6.324   2.126 -1.0588 -1.1965 -0.5865
 4474TIP3   OH213385   0.428   6.253   2.248  0.1851  0.4797 -0.4106
 4474TIP3    H113386   0.473   6.170   2.262 -1.2800 -0.3140 -0.2189
 4474TIP3    H213387   0.372   6.238   2.172 -1.1485  0.8140  0.4653
 4475TIP3   OH213388   0.498   0.638   5.817 -0.0986 -0.7683 -0.0001
 4475TIP3    H113389   0.489   0.624   5.722 -0.9113  0.9438 -0.2203
 4475TIP3    H213390   0.576   0.694   5.825 -0.3398 -0.4649  0.2764
 4476TIP3   OH213391   5.466   2.193   0.343 -0.0305 -0.1061  0.9516
 4476TIP3    H113392   5.477   2.130   0.415 -0.6328 -0.3773  0.8122
 4476TIP3    H213393   5.371   2.201   0.332 -0.0428 -2.5035 -1.8840
 4477TIP3   OH213394   0.379   5.279   3.513 -0.6614 -0.2121 -0.1513
 4477TIP3    H113395   0.383   5.188   3.542 -0.3309 -0.7065 -1.6539
 4477TIP3    H213396   0.296   5.286   3.467 -0.8637  0.3658  0.2835
 4478TIP3   OH213397   4.173   5.568   0.424  0.8118 -0.0519 -0.3323
 4478TIP3    H113398   4.203   5.537   0.510 -1.3674 -0.8193  0.2189
 4478TIP3    H213399   4.216   5.652   0.412  1.1929  0.0458  1.4923
 4479TIP3   OH213400   2.078   5.625   1.828 -0.0776 -0.5407 -0.3754
 4479TIP3    H113401   2.092   5.638   1.734  0.4309  0.3485 -0.1859
 4479TIP3    H213402   2.167   5.614   1.864  0.0973  2.5684  0.4704
 4480TIP3   OH213403   2.747   5.742   5.199  0.2890  0.2813  0.2079
 4480TIP3    H113404   2.795   5.759   5.280  1.0863  0.4893 -0.3066
 4480TIP3    H213405   2.812   5.706   5.139 -0.1459  0.7631 -0.5655
 4481TIP3   OH213406   3.506   3.009   3.476  0.5666  0.8063  0.5250
 4481TIP3    H113407   3.550   2.970   3.551 -1.4782 -1.7919  0.5136
 4481TIP3    H213408   3.546   2.967   3.400 -0.6070 -0.2120  0.4384
 4482TIP3   OH213409   5.883   3.600   2.216 -0.5791  0.2643  0.4578
 4482TIP3    H113410   5.799   3.643   2.198 -1.0548  0.3169  2.5525
 4482TIP3    H213411   5.865   3.542   2.290  0.9535 -0.7144  0.1234
 4483TIP3   OH213412   5.151   6.374   3.934  1.0238  0.3383 -0.1657
 4483TIP3    H113413   5.060   6.405   3.942  0.9181 -0.1213  0.5131
 4483TIP3    H213414   5.179   6.360   4.024  0.5025 -3.1092 -0.3996
 4484TIP3   OH213415   3.720   4.745   3.789 -0.2690 -1.0974 -0.0033
 4484TIP3    H113416   3.773   4.774   3.863 -2.8506  2.2396  0.7714
 4484TIP3    H213417   3.765   4.779   3.711  0.0382 -0.4570  0.4466
 4485TIP3   OH213418   6.775   0.298   4.630  0.0078 -0.2759  0.5778
 4485TIP3    H113419   6.844   0.232   4.639  1.0017  0.8082  1.3060
 4485TIP3    H213420   6.816   0.368   4.580 -1.6423 -0.9786 -1.9286
 4486TIP3   OH213421   5.220   4.758   0.373  0.5284  0.1794  0.0149
 4486TIP3    H113422   5.130   4.787   0.391 -0.3069 -2.1156 -0.1246
 4486TIP3    H213423   5.258   4.742   0.459 -0.5786 -2.5667  0.0936
 4487TIP3   OH213424   1.939   3.387   5.107  0.1222 -0.2357  0.1440
 4487TIP3    H113425   1.877   3.316   5.123 -1.6868  0.9739 -1.1462
 4487TIP3    H213426   1.986   3.360   5.028  0.7152 -0.7757  0.6628
 4488TIP3   OH213427   0.320   2.449   4.498  0.3233  0.3277 -0.7253
 4488TIP3    H113428   0.322   2.544   4.508  1.1847  0.1703  0.9152
 4488TIP3    H213429   0.411   2.422   4.509 -0.1409 -0.8269  0.4770
 4489TIP3   OH213430   1.898   3.171   1.593 -0.7514  0.3486  0.2709
 4489TIP3    H113431   1.953   3.149   1.669 -0.5908  0.3253  0.1502
 4489TIP3    H213432   1.883   3.265   1.600 -1.6738  0.1623  0.9428
 4490TIP3   OH213433   3.454   1.455   2.519  0.2214 -0.1246 -0.1586
 4490TIP3    H113434   3.420   1.394   2.585 -0.3569 -0.0603 -0.3866
 4490TIP3    H213435   3.376   1.483   2.470  0.5200  0.5475 -0.2660
 4491TIP3   OH213436   6.341   0.668   0.642 -0.7389  0.3419 -0.1802
 4491TIP3    H113437   6.375   0.634   0.559  1.0942  0.7817  0.3480
 4491TIP3    H213438   6.396   0.628   0.709  1.3016  3.9196  0.5150
 4492TIP3   OH213439   2.334   2.038   1.001  0.0263 -0.2899 -0.5565
 4492TIP3    H113440   2.395   1.965   0.988  0.7504  0.6264 -2.6848
 4492TIP3    H213441   2.345   2.062   1.093 -0.1298 -2.7229  0.1733
 4493TIP3   OH213442   0.854   3.499   5.329  0.4138 -0.2750 -0.3199
 4493TIP3    H113443   0.855   3.454   5.244 -2.3635  0.2681 -0.7398
 4493TIP3    H213444   0.807   3.440   5.387  0.7107  0.1398  0.3517
 4494TIP3   OH213445   0.576   4.376   3.888  0.1798 -0.0241 -0.1610
 4494TIP3    H113446   0.589   4.470   3.907 -1.6278 -0.0012  1.2019
 4494TIP3    H213447   0.520   4.374   3.811  1.1851 -0.0429 -0.9235
 4495TIP3   OH213448   2.283   0.279   2.336 -0.2288  0.5803 -0.0361
 4495TIP3    H113449   2.284   0.373   2.318 -0.6223  0.8223  1.1038
 4495TIP3    H213450   2.234   0.271   2.418  0.8658 -0.4922  0.5474
 4496TIP3   OH213451   2.624   2.453   2.433  0.3016  0.3257 -0.0859
 4496TIP3    H113452   2.661   2.536   2.404 -0.0697  1.6470  2.8741
 4496TIP3    H213453   2.533   2.474   2.455  0.6634 -0.3676  2.3308
 4497TIP3   OH213454   5.453   0.869   5.314 -0.6272  0.0183 -0.3065
 4497TIP3    H113455   5.382   0.814   5.281 -1.8743  1.2453  0.2434
 4497TIP3    H213456   5.421   0.959   5.302 -0.5407  0.5638  2.8072
 4498TIP3   OH213457   6.258   3.253   5.731  0.3303 -0.1626 -0.3731
 4498TIP3    H113458   6.310   3.255   5.651  0.2209  1.2023 -0.4286
 4498TIP3    H213459   6.313   3.207   5.794  0.8093 -0.4085 -0.9634
 4499TIP3   OH213460   3.081   3.416   5.559 -0.2903 -0.0376  0.5435
 4499TIP3    H113461   3.088   3.365   5.478 -1.8587  0.0078  0.3465
 4499TIP3    H213462   3.092   3.352   5.629  1.2773 -0.0476  0.3202
 4500TIP3   OH213463   6.279   2.788   3.891 -0.4394 -0.0457 -0.8078
 4500TIP3    H113464   6.286   2.826   3.803 -0.8322  1.0916 -0.3717
 4500TIP3    H213465   6.187   2.763   3.899 -0.5694  0.5254 -0.4659
 4501TIP3   OH213466   0.482   3.592   2.267  0.0765  0.1874  0.2906
 4501TIP3    H113467   0.431   3.570   2.189 -0.6598  1.2225  0.4520
 4501TIP3    H213468   0.416   3.610   2.334  0.5547  3.0380  0.1101
 4502TIP3   OH213469   5.108   3.079   2.013  0.2391  0.1415 -0.1111
 4502TIP3    H113470   5.123   3.085   1.919  0.4187  1.4374 -0.0130
 4502TIP3    H213471   5.070   3.164   2.037 -0.4545 -0.4210  0.8694
 4503TIP3   OH213472   5.061   2.286   3.775 -0.4653  0.1402 -0.0429
 4503TIP3    H113473   4.975   2.264   3.811 -1.7353  2.6990 -1.2274
 4503TIP3    H213474   5.089   2.208   3.728 -0.4862 -1.9629  3.1457
 4504TIP3   OH213475   6.874   1.791   4.333 -0.2470  0.1781 -0.2238
 4504TIP3    H113476   6.940   1.723   4.323  1.2178  1.8280 -2.8073
 4504TIP3    H213477   6.841   1.806   4.245 -1.9759  1.4768  0.5777
 4505TIP3   OH213478   2.494   3.918   1.756 -0.3663  0.6044  0.0746
 4505TIP3    H113479   2.565   3.857   1.736 -1.4619 -0.1677 -1.6474
 4505TIP3    H213480   2.475   3.902   1.849 -2.5442 -3.8989 -0.8703
 4506TIP3   OH213481   5.907   4.080   5.584  0.4571 -0.2960  0.9313
 4506TIP3    H113482   5.919   4.104   5.676 -1.4110  1.7568  0.7326
 4506TIP3    H213483   5.923   4.161   5.536 -2.7147 -0.1538 -0.1295
 4507TIP3   OH213484   4.029   4.306   4.823  0.0674 -0.8615  0.3892
 4507TIP3    H113485   3.951   4.297   4.877  0.8348  0.6743  1.8325
 4507TIP3    H213486   4.078   4.225   4.838 -0.6129 -1.2681  0.4847
 4508TIP3   OH213487   6.524   3.484   0.990  0.7713  0.1268  0.1351
 4508TIP3    H113488   6.457   3.550   0.974 -0.3022 -0.2572  2.5547
 4508TIP3    H213489   6.598   3.533   1.027  0.3002  0.1260  1.1187
 4509TIP3   OH213490   0.264   4.105   0.024 -0.1391  0.1054  0.0386
 4509TIP3    H113491   0.244   4.187   0.068 -0.0924  0.2929 -0.2911
 4509TIP3    H213492   0.316   4.056   0.087 -1.4079 -0.2874  0.8185
 4510TIP3   OH213493   0.967   1.638   4.566  0.4350  0.0850 -0.4530
 4510TIP3    H113494   1.032   1.588   4.517  1.1158  0.5103  0.0049
 4510TIP3    H213495   1.017   1.682   4.635 -0.2812  0.6883 -0.3041
 4511TIP3   OH213496   3.228   2.451   1.845  0.4327  0.4336  0.0624
 4511TIP3    H113497   3.226   2.452   1.941 -3.2339 -2.0798  0.1843
 4511TIP3    H213498   3.141   2.480   1.819  1.4060  1.2434 -2.6077
 4512TIP3   OH213499   7.085   2.582   2.130  0.2205  0.4894  0.9290
 4512TIP3    H113500   7.089   2.649   2.199  0.8261  0.0590  1.3282
 4512TIP3    H213501   7.141   2.511   2.163  0.3367  0.1797  0.0914
 4513TIP3   OH213502   5.750   3.895   2.344  0.4319  0.0653 -0.3931
 4513TIP3    H113503   5.717   3.981   2.319 -0.9924  0.1726  1.6431
 4513TIP3    H213504   5.698   3.833   2.294  0.5010  0.3520 -0.8209
 4514TIP3   OH213505   4.837   1.533   4.133 -0.3806  0.0432  0.5169
 4514TIP3    H113506   4.854   1.472   4.061  0.5556  1.3805 -0.4725
 4514TIP3    H213507   4.793   1.481   4.200 -2.4425 -1.0051 -1.5138
 4515TIP3   OH213508   2.921   4.600   0.651  0.1132 -0.4414  0.3613
 4515TIP3    H113509   2.968   4.568   0.728  1.5759 -1.0147 -0.7152
 4515TIP3    H213510   2.984   4.658   0.607 -1.1032  0.7924  0.1847
 4516TIP3   OH213511   0.335   2.533   0.389 -0.6980 -0.3545  0.1857
 4516TIP3    H113512   0.398   2.577   0.331  0.8392 -1.9555  0.5448
 4516TIP3    H213513   0.322   2.447   0.348 -2.2270 -0.2717  0.4508
 4517TIP3   OH213514   2.026   6.073   0.520 -0.1416  0.4169  0.2299
 4517TIP3    H113515   2.017   5.990   0.473  0.5637  0.6662 -0.3689
 4517TIP3    H213516   2.070   6.050   0.602 -1.0179  0.0381  0.6115
 4518TIP3   OH213517   2.091   6.087   1.227  0.0675 -0.9320 -0.3677
 4518TIP3    H113518   2.077   6.005   1.275 -1.7622 -0.3268  0.2231
 4518TIP3    H213519   2.108   6.152   1.296  1.7217 -0.8204 -0.8422
 4519TIP3   OH213520   0.846   2.334   4.707  0.1108 -0.0006 -0.0812
 4519TIP3    H113521   0.811   2.261   4.657 -0.5447 -0.2982  0.7771
 4519TIP3    H213522   0.938   2.338   4.684 -0.3059  0.2963 -1.7963
 4520TIP3   OH213523   2.106   0.123   2.157 -0.4776 -0.2243 -0.1985
 4520TIP3    H113524   2.174   0.147   2.220  0.8205 -1.2596 -1.1627
 4520TIP3    H213525   2.037   0.188   2.171  0.5401  0.6382  1.0571
 4521TIP3   OH213526   6.286   3.113   1.787 -0.0335 -0.6811 -0.7810
 4521TIP3    H113527   6.378   3.117   1.813  0.3169  0.6197 -2.0632
 4521TIP3    H213528   6.286   3.056   1.710 -0.6978 -2.5742  0.5392
 4522TIP3   OH213529   4.397   6.258   1.477  0.5178 -0.2803 -0.2783
 4522TIP3    H113530   4.484   6.283   1.508  0.4612 -0.8040  0.3292
 4522TIP3    H213531   4.379   6.318   1.404  1.1315  0.2283 -0.0210
 4523TIP3   OH213532   0.618   1.850   1.625  0.4976 -0.5694 -0.1865
 4523TIP3    H113533   0.640   1.766   1.585 -0.3240 -0.7874 -0.1988
 4523TIP3    H213534   0.703   1.891   1.643  0.9428 -1.7727  0.6233
 4524TIP3   OH213535   6.280   4.052   0.177 -0.4918  1.1336  0.4027
 4524TIP3    H113536   6.254   3.967   0.141 -1.6135  0.6947  2.1024
 4524TIP3    H213537   6.331   4.094   0.107  0.0022 -0.8788 -0.5174
 4525TIP3   OH213538   3.506   2.651   4.668  0.6957  0.0673  0.2313
 4525TIP3    H113539   3.552   2.732   4.644  0.2297  0.8843  1.9165
 4525TIP3    H213540   3.521   2.593   4.594  1.4912  1.5086 -0.8115
 4526TIP3   OH213541   0.878   1.742   5.554  0.0812  0.0477  0.3599
 4526TIP3    H113542   0.965   1.757   5.516 -0.8312 -0.1184 -1.8890
 4526TIP3    H213543   0.874   1.804   5.627  1.6267  0.9360 -0.2448
 4527TIP3   OH213544   4.759   2.305   0.570 -0.0347  0.2519 -0.3188
 4527TIP3    H113545   4.710   2.383   0.542 -1.0280 -0.2822 -0.1404
 4527TIP3    H213546   4.752   2.305   0.666  0.9744  0.5800 -0.2446
 4528TIP3   OH213547   2.068   3.699   0.930 -0.0458 -0.3743 -0.1905
 4528TIP3    H113548   2.006   3.762   0.892 -1.3295 -0.5171  1.5550
 4528TIP3    H213549   2.025   3.667   1.008  1.5775 -1.7353  0.2084
 4529TIP3   OH213550   4.600   5.093   2.353  0.3949 -0.4937  0.7125
 4529TIP3    H113551   4.544   5.120   2.426  0.6145 -0.0628  0.7270
 4529TIP3    H213552   4.553   5.119   2.275  0.9936  0.7490  0.7400
 4530TIP3   OH213553   3.248   1.653   4.631 -0.0597 -0.4900 -0.0506
 4530TIP3    H113554   3.183   1.598   4.588 -0.8460  0.2871  0.1219
 4530TIP3    H213555   3.303   1.686   4.560  0.6872 -1.7909 -0.1226
 4531TIP3   OH213556   2.160   1.140   1.905 -0.2299  0.3784  0.1315
 4531TIP3    H113557   2.228   1.089   1.861 -0.6687  0.5039 -0.7036
 4531TIP3    H213558   2.129   1.202   1.840 -1.3016  0.1800  0.4187
 4532TIP3   OH213559   4.506   6.204   4.873  0.3368  0.6904  0.4115
 4532TIP3    H113560   4.585   6.257   4.885  0.0678  1.2441 -0.1990
 4532TIP3    H213561   4.460   6.211   4.957  0.0381  1.8872  0.1687
 4533TIP3   OH213562   3.714   3.814   1.840  0.3808  0.1504 -0.4048
 4533TIP3    H113563   3.765   3.895   1.838 -1.8167  1.6472 -2.2753
 4533TIP3    H213564   3.712   3.784   1.750 -1.2996 -0.2977 -0.2590
 4534TIP3   OH213565   4.981   1.477   5.163  0.3207 -0.1285 -0.2573
 4534TIP3    H113566   4.991   1.384   5.141  1.6010  0.2211 -1.2813
 4534TIP3    H213567   4.930   1.514   5.091 -0.2926 -0.0483  0.2093
 4535TIP3   OH213568   3.824   2.140   0.574  0.5625  0.1968 -0.4465
 4535TIP3    H113569   3.844   2.064   0.519  0.3035  0.8375 -1.4561
 4535TIP3    H213570   3.900   2.197   0.563  0.7031  0.1469  0.2144
 4536TIP3   OH213571   5.195   5.021   3.083  0.0227 -0.8562 -0.0307
 4536TIP3    H113572   5.123   5.079   3.057 -0.7334 -1.5535  0.4689
 4536TIP3    H213573   5.194   5.023   3.179  0.6723 -0.8713 -0.0218
 4537TIP3   OH213574   4.310   5.783   3.333 -0.5380  0.3376 -0.2770
 4537TIP3    H113575   4.288   5.818   3.247 -3.6861 -0.3054  0.1366
 4537TIP3    H213576   4.272   5.846   3.395 -0.4228 -0.4143  0.5813
 4538TIP3   OH213577   4.362   2.370   3.739  0.4349 -0.7162  0.3358
 4538TIP3    H113578   4.312   2.427   3.797  0.8603 -0.0716  0.0833
 4538TIP3    H213579   4.349   2.408   3.652 -0.3425 -1.7771 -0.0260
 4539TIP3   OH213580   1.814   2.583   5.848  0.0455 -0.1121 -0.0891
 4539TIP3    H113581   1.859   2.509   5.888  1.0957  0.3151 -0.4699
 4539TIP3    H213582   1.882   2.633   5.803 -0.6208  1.1739  0.2707
 4540TIP3   OH213583   5.180   6.496   3.650 -0.1673 -0.0913 -0.5167
 4540TIP3    H113584   5.118   6.555   3.693  1.9487  1.8913  0.0262
 4540TIP3    H213585   5.166   6.411   3.692 -2.6196  0.2104 -0.6002
 4541TIP3   OH213586   4.550   4.381   3.551  0.0930  0.2062  0.1203
 4541TIP3    H113587   4.518   4.402   3.639  1.8354 -0.7280  1.0221
 4541TIP3    H213588   4.471   4.378   3.497 -1.0652  0.3311  1.7400
 4542TIP3   OH213589   1.938   5.547   5.862  0.0940 -0.5681  0.2980
 4542TIP3    H113590   2.026   5.585   5.858  0.9109 -2.3459  0.2911
 4542TIP3    H213591   1.942   5.472   5.803 -1.2201 -1.0902  0.8320
 4543TIP3   OH213592   5.432   2.412   3.044 -0.4101 -0.4320 -0.2765
 4543TIP3    H113593   5.524   2.397   3.025 -0.2185  1.6350 -1.1257
 4543TIP3    H213594   5.408   2.490   2.994 -2.3320 -0.2550  0.8043
 4544TIP3   OH213595   1.749   1.256   3.121  0.8751 -0.2940  0.3944
 4544TIP3    H113596   1.789   1.341   3.101 -0.8617  0.9915  2.0318
 4544TIP3    H213597   1.669   1.254   3.070  0.0497 -0.1538  1.6429
 4545TIP3   OH213598   6.166   3.134   3.667  0.5335 -0.2384 -0.3396
 4545TIP3    H113599   6.221   3.058   3.684  0.4987 -0.2090 -0.0890
 4545TIP3    H213600   6.124   3.153   3.752  1.5770  0.8912 -0.0475
 4546TIP3   OH213601   3.401   1.510   0.048  0.4109 -0.1872  0.5160
 4546TIP3    H113602   3.306   1.501   0.043  0.3843  0.6056 -1.1884
 4546TIP3    H213603   3.419   1.540   0.137 -0.9223 -0.4614  0.8856
 4547TIP3   OH213604   0.269   2.302   0.285  0.3029  0.3868  0.5022
 4547TIP3    H113605   0.204   2.275   0.220  2.7799 -1.0410 -1.5871
 4547TIP3    H213606   0.291   2.221   0.332  1.2938  0.6000  0.4316
 4548TIP3   OH213607   6.702   0.642   5.074  0.1493  0.2624 -0.3029
 4548TIP3    H113608   6.625   0.614   5.124 -0.2541 -0.8322 -1.4954
 4548TIP3    H213609   6.688   0.736   5.061 -0.9921  0.0910 -0.4648
 4549TIP3   OH213610   3.138   0.527   3.916 -0.7125  0.1450 -0.4737
 4549TIP3    H113611   3.164   0.438   3.941 -0.9444  0.6239  1.7339
 4549TIP3    H213612   3.066   0.515   3.854 -0.5953 -1.2014 -0.3869
 4550TIP3   OH213613   1.072   4.004   1.372 -0.8723 -0.1706 -0.0208
 4550TIP3    H113614   1.049   3.912   1.359 -3.6314  0.5548 -0.9869
 4550TIP3    H213615   1.090   4.037   1.284  1.4610 -0.0304  0.4484
 4551TIP3   OH213616   4.555   2.369   4.942 -0.1767 -1.0851 -0.9715
 4551TIP3    H113617   4.629   2.324   4.900  0.1971 -0.3688 -1.0953
 4551TIP3    H213618   4.538   2.445   4.886  0.7001  0.2131  0.4446
 4552TIP3   OH213619   1.904   1.744   0.943  0.5706  0.2639 -0.0686
 4552TIP3    H113620   1.944   1.808   0.884  0.7787 -1.0684 -1.4462
 4552TIP3    H213621   1.814   1.737   0.912  0.1742  0.8216  0.9154
 4553TIP3   OH213622   4.021   5.710   4.914 -0.0989 -0.0916  0.4334
 4553TIP3    H113623   3.930   5.737   4.915 -0.4142 -1.1247  0.2983
 4553TIP3    H213624   4.047   5.717   4.822 -0.0938  0.0044  0.4414
 4554TIP3   OH213625   2.751   4.787   5.742 -0.8113 -0.0720 -0.4537
 4554TIP3    H113626   2.700   4.868   5.752 -0.5082  0.0369  0.2834
 4554TIP3    H213627   2.685   4.717   5.748 -1.1328  0.1224 -1.5313
 4555TIP3   OH213628   1.336   2.829   5.000 -0.3044 -0.3667 -0.4412
 4555TIP3    H113629   1.272   2.861   4.936  0.3074  0.1487 -0.8063
 4555TIP3    H213630   1.286   2.771   5.057 -0.8448 -0.9546 -1.4739
 4556TIP3   OH213631   3.284   3.471   4.587 -0.3256  0.0428 -0.2256
 4556TIP3    H113632   3.270   3.516   4.503 -0.7419  1.4694  0.5655
 4556TIP3    H213633   3.376   3.486   4.607  0.0247 -1.1351 -0.8678
 4557TIP3   OH213634   1.084   3.933   5.519 -0.3119 -0.4985  0.0024
 4557TIP3    H113635   0.993   3.953   5.541 -0.9692 -1.0972 -2.0150
 4557TIP3    H213636   1.079   3.854   5.465  1.5463 -1.3705  1.0178
 4558TIP3   OH213637   3.015   0.335   2.519  0.0883  0.4788 -0.5905
 4558TIP3    H113638   3.066   0.256   2.502 -0.3063  0.1626 -0.3435
 4558TIP3    H213639   3.062   0.380   2.588  0.1650  0.3171 -0.5364
 4559TIP3   OH213640   2.065   3.372   2.330 -0.0985 -0.2158 -0.1153
 4559TIP3    H113641   2.029   3.291   2.366 -1.0911  0.2227 -0.0820
 4559TIP3    H213642   1.988   3.421   2.299  0.5354  0.4450 -0.6895
 4560TIP3   OH213643   5.406   5.985   5.264 -0.0595  0.2204 -0.2211
 4560TIP3    H113644   5.366   5.985   5.351 -2.2207  2.6461 -1.0698
 4560TIP3    H213645   5.339   5.947   5.207  0.3928  0.7351 -1.1293
 4561TIP3   OH213646   2.735   6.422   4.259  0.6181  0.7073 -0.4728
 4561TIP3    H113647   2.710   6.364   4.186  1.1802  0.3574 -0.3946
 4561TIP3    H213648   2.829   6.407   4.270  0.5952  0.9906  0.1249
 4562TIP3   OH213649   6.578   0.043   1.078  0.0499 -0.2287  0.0794
 4562TIP3    H113650   6.627   0.121   1.105  0.9085 -0.2376 -1.3659
 4562TIP3    H213651   6.492   0.055   1.117  0.6316  0.6907  1.1592
 4563TIP3   OH213652   1.988   0.511   3.094  0.3179  0.5014 -0.8148
 4563TIP3    H113653   1.892   0.507   3.093  0.2558  1.7116 -1.2028
 4563TIP3    H213654   2.009   0.584   3.152  1.0345 -0.2637 -0.0964
 4564TIP3   OH213655   2.508   6.076   1.827 -0.2663 -0.1853 -0.1848
 4564TIP3    H113656   2.532   6.001   1.882 -1.4525  0.1244  0.7988
 4564TIP3    H213657   2.586   6.094   1.776 -0.1597 -2.5309 -0.9503
 4565TIP3   OH213658   2.426   5.818   3.639  0.5354 -0.0025 -0.4417
 4565TIP3    H113659   2.503   5.798   3.585 -0.0047 -0.0918 -1.1950
 4565TIP3    H213660   2.459   5.874   3.709  1.6303 -1.4934  0.2948
 4566TIP3   OH213661   4.089   5.136   0.938  0.2700  0.1982  0.1583
 4566TIP3    H113662   4.081   5.051   0.980  1.3928  0.4932  1.0283
 4566TIP3    H213663   4.159   5.126   0.874 -0.3063  0.2051 -0.4951
 4567TIP3   OH213664   7.026   1.285   0.406 -0.1335 -0.3232  0.0657
 4567TIP3    H113665   6.967   1.313   0.476 -0.0028  1.1883 -0.3815
 4567TIP3    H213666   6.984   1.316   0.325  1.8562  2.0472 -0.1760
 4568TIP3   OH213667   4.434   6.740   4.975 -0.8529  0.0265 -0.3968
 4568TIP3    H113668   4.392   6.782   5.050 -0.8636  1.1423 -0.9983
 4568TIP3    H213669   4.413   6.647   4.984 -1.3541  0.2284  0.6482
 4569TIP3   OH213670   1.793   6.449   2.738 -0.1916 -0.1708 -0.2670
 4569TIP3    H113671   1.727   6.491   2.793 -0.5390  1.5488 -1.8992
 4569TIP3    H213672   1.778   6.485   2.650  2.3056 -0.4062 -0.8784
 4570TIP3   OH213673   1.658   4.673   0.744  0.7975  0.1458  0.1389
 4570TIP3    H113674   1.750   4.689   0.723  0.6019  0.4287 -0.4965
 4570TIP3    H213675   1.643   4.720   0.826  1.0939  0.4799 -0.0010
 4571TIP3   OH213676   1.872   4.156   4.690 -0.0921  0.3202  0.5482
 4571TIP3    H113677   1.888   4.212   4.614 -0.8020 -0.1753  0.0164
 4571TIP3    H213678   1.776   4.150   4.696 -0.0455 -1.2402  0.2626
 4572TIP3   OH213679   2.954   3.161   2.163  0.5575  1.0868  0.1124
 4572TIP3    H113680   2.964   3.217   2.086 -0.2115  0.7681 -0.2337
 4572TIP3    H213681   2.945   3.222   2.236  1.9433  1.3896  0.0559
 4573TIP3   OH213682   0.122   4.992   5.243  0.2775 -0.1509  0.3337
 4573TIP3    H113683   0.179   4.943   5.302  1.3155  0.5571 -0.0441
 4573TIP3    H213684   0.047   5.018   5.297  1.1438  0.3725  1.3106
 4574TIP3   OH213685   6.896   5.735   5.163  0.5307 -0.2408  0.5538
 4574TIP3    H113686   6.913   5.681   5.086 -2.1258 -0.9934  0.3714
 4574TIP3    H213687   6.841   5.680   5.219  2.2617  0.3479  2.9577
 4575TIP3   OH213688   1.124   3.741   4.194 -0.2524  0.4568  0.0081
 4575TIP3    H113689   1.080   3.770   4.274 -0.7513 -0.1806 -0.0264
 4575TIP3    H213690   1.114   3.815   4.133 -0.5901  0.6204  0.2608
 4576TIP3   OH213691   1.948   0.658   0.553 -0.0932 -0.7786  0.2611
 4576TIP3    H113692   2.031   0.676   0.509  0.1836 -1.0122  0.6818
 4576TIP3    H213693   1.940   0.730   0.617 -1.1211  0.3003 -1.0207
 4577TIP3   OH213694   7.023   6.118   3.819  0.2162 -0.5464 -0.4114
 4577TIP3    H113695   6.979   6.195   3.854 -0.0919 -1.5857  1.6245
 4577TIP3    H213696   6.957   6.074   3.766  0.3428  0.4406 -1.4372
 4578TIP3   OH213697   5.301   1.687   0.707 -0.1855  0.6631 -0.0805
 4578TIP3    H113698   5.252   1.768   0.721 -1.5591 -0.4622  2.0196
 4578TIP3    H213699   5.274   1.658   0.620 -0.1572  2.1003 -0.5995
 4579TIP3   OH213700   6.478   2.382   0.503  0.0958  0.0091  0.0105
 4579TIP3    H113701   6.469   2.288   0.520  1.6917 -0.1788 -0.0035
 4579TIP3    H213702   6.495   2.388   0.409  0.8055  0.2259  0.1440
 4580TIP3   OH213703   0.140   5.250   4.355  0.1872 -0.4001  0.3318
 4580TIP3    H113704   0.151   5.180   4.419 -0.7702 -0.4923  0.4138
 4580TIP3    H213705   0.185   5.325   4.393  1.1690 -0.9466  0.2743
 4581TIP3   OH213706   3.031   1.610   5.868 -0.8959 -0.3633 -0.5763
 4581TIP3    H113707   3.114   1.564   5.857 -0.7389 -0.5411  1.1761
 4581TIP3    H213708   2.979   1.554   5.925 -1.2312  0.9396  0.4653
 4582TIP3   OH213709   6.713   6.707   1.259 -0.1339  0.6313  0.1078
 4582TIP3    H113710   6.711   6.787   1.207  0.1905  0.6295  0.0893
 4582TIP3    H213711   6.757   6.731   1.340  0.8288  0.2644 -0.2792
 4583TIP3   OH213712   0.764   3.438   5.585  0.0110  0.2027  0.6593
 4583TIP3    H113713   0.766   3.527   5.620  0.0173  0.9599 -1.1381
 4583TIP3    H213714   0.682   3.435   5.535  1.5438  0.3583 -2.0257
 4584TIP3   OH213715   4.075   0.860   1.524  0.3190 -0.1472  0.1088
 4584TIP3    H113716   4.030   0.783   1.560 -1.5078  0.4563 -0.7651
 4584TIP3    H213717   4.103   0.831   1.437  0.0769  0.0164 -0.0238
 4585TIP3   OH213718   0.648   4.913   5.484 -0.1834  0.0731  0.4450
 4585TIP3    H113719   0.682   4.991   5.439  0.2134 -0.4491 -0.1670
 4585TIP3    H213720   0.713   4.845   5.468 -1.0676 -0.6928  0.0156
 4586TIP3   OH213721   6.093   4.473   2.970  0.1481  0.1486 -0.0223
 4586TIP3    H113722   6.068   4.386   3.001 -1.0547  0.7081  0.6359
 4586TIP3    H213723   6.182   4.485   3.002  0.2692 -0.7806  0.0124
 4587TIP3   OH213724   2.057   0.520   3.488 -0.0809  0.2962 -0.2238
 4587TIP3    H113725   2.116   0.468   3.434 -0.5311 -0.0041 -0.4325
 4587TIP3    H213726   2.102   0.528   3.572 -0.5557 -1.5247  0.2527
 4588TIP3   OH213727   3.922   3.587   1.402  0.2339 -0.0137  0.4893
 4588TIP3    H113728   4.009   3.625   1.407  0.2738 -0.1747  1.2004
 4588TIP3    H213729   3.894   3.580   1.494 -0.3447 -0.3691  0.2922
 4589TIP3   OH213730   4.047   4.579   3.988  0.2416  0.2067 -0.3082
 4589TIP3    H113731   3.984   4.564   3.917 -0.2211  0.2960  0.0724
 4589TIP3    H213732   4.123   4.617   3.945 -0.1403  0.5284 -0.7184
 4590TIP3   OH213733   2.849   3.241   3.382  0.1325 -0.6025  0.0232
 4590TIP3    H113734   2.847   3.217   3.290  1.8228  1.0110 -0.4921
 4590TIP3    H213735   2.812   3.329   3.385  2.6606  0.5312  0.3977
 4591TIP3   OH213736   1.178   0.424   3.097  0.0326 -0.3496  0.1813
 4591TIP3    H113737   1.256   0.473   3.070  0.1007  0.9616  2.4770
 4591TIP3    H213738   1.134   0.483   3.159 -1.7705 -1.8440  0.3919
 4592TIP3   OH213739   5.927   2.679   1.465 -0.2766 -0.0641 -0.0420
 4592TIP3    H113740   5.977   2.713   1.391  0.3627 -0.8852 -0.0026
 4592TIP3    H213741   5.911   2.588   1.443  0.6857 -0.5686  1.2161
 4593TIP3   OH213742   0.103   6.021   2.241  0.0976  0.0324  0.1482
 4593TIP3    H113743   0.021   5.995   2.283 -0.5299 -0.0429 -1.0746
 4593TIP3    H213744   0.122   5.950   2.179  0.1512  0.8674 -0.8179
 4594TIP3   OH213745   1.895   0.110   5.089 -0.0908 -0.3310  0.1732
 4594TIP3    H113746   1.859   0.118   5.000 -0.9916 -0.6341  0.4994
 4594TIP3    H213747   1.899   0.015   5.105 -0.8005 -0.2594  0.7981
 4595TIP3   OH213748   1.494   4.485   0.319  0.2604  0.0460  0.1088
 4595TIP3    H113749   1.501   4.467   0.413 -0.5391  2.4331  0.7078
 4595TIP3    H213750   1.584   4.503   0.291  0.7883 -2.5356 -0.0871
 4596TIP3   OH213751   5.165   5.591   1.564 -0.0908 -0.7700 -0.1789
 4596TIP3    H113752   5.236   5.532   1.591  0.2522  0.0273  0.7200
 4596TIP3    H213753   5.179   5.670   1.615 -0.2944  0.2684 -1.6763
 4597TIP3   OH213754   2.602   5.899   3.005  0.5749  0.7143 -0.4405
 4597TIP3    H113755   2.631   5.980   3.047 -0.7603  1.2974 -0.5620
 4597TIP3    H213756   2.561   5.849   3.076  0.1947  0.7633 -0.6203
 4598TIP3   OH213757   5.357   6.543   3.979 -0.0423 -0.0661 -0.1736
 4598TIP3    H113758   5.382   6.603   3.909 -1.3084  1.3145  0.4876
 4598TIP3    H213759   5.290   6.487   3.940 -0.0190  0.0256 -0.3453
 4599TIP3   OH213760   5.657   6.247   0.500  0.6422  0.4706  0.1810
 4599TIP3    H113761   5.596   6.207   0.562  0.1087  0.8743 -0.0766
 4599TIP3    H213762   5.641   6.201   0.418  0.8730  0.3898  0.1833
 4600TIP3   OH213763   6.090   1.549   2.668  0.3319  0.6629  0.1167
 4600TIP3    H113764   6.081   1.470   2.614  2.7463  0.1203  0.3876
 4600TIP3    H213765   6.047   1.618   2.617 -0.0690 -0.4173 -1.0635
 4601TIP3   OH213766   6.932   5.495   1.895  0.2080  0.3200 -0.1863
 4601TIP3    H113767   6.940   5.489   1.800  1.5617  0.3132 -0.0921
 4601TIP3    H213768   7.013   5.540   1.923 -0.6961  1.3743  0.8539
 4602TIP3   OH213769   3.615   5.047   2.740 -0.4501  0.2009  0.5121
 4602TIP3    H113770   3.645   5.090   2.820  0.2543 -0.5769  0.6737
 4602TIP3    H213771   3.554   5.110   2.701 -1.3001  0.3494  1.9715
 4603TIP3   OH213772   0.143   1.842   4.228 -0.3194  0.0651  0.5954
 4603TIP3    H113773   0.151   1.866   4.320  0.8182 -1.7022  1.0258
 4603TIP3    H213774   0.233   1.829   4.199 -0.7263 -2.7549  0.2666
 4604TIP3   OH213775   5.929   5.538   0.805 -0.4115 -0.5609 -0.0595
 4604TIP3    H113776   5.851   5.484   0.818 -0.8374 -0.0154 -0.3069
 4604TIP3    H213777   5.955   5.565   0.893 -0.7811 -0.3672 -0.0046
 4605TIP3   OH213778   3.112   3.495   2.230 -0.1564 -0.0686  0.3611
 4605TIP3    H113779   3.047   3.434   2.266  0.0982 -0.5110  0.0805
 4605TIP3    H213780   3.067   3.580   2.230 -0.4913 -0.2421  0.8172
 4606TIP3   OH213781   3.323   4.127   3.966 -0.3830 -0.5579 -0.1711
 4606TIP3    H113782   3.299   4.037   3.944 -0.8719 -0.6454  0.6616
 4606TIP3    H213783   3.404   4.143   3.918 -0.4674 -1.3312 -0.5858
 4607TIP3   OH213784   6.657   1.449   0.795 -0.1270 -0.5510 -0.2378
 4607TIP3    H113785   6.565   1.423   0.796 -0.5938  1.0429  0.2212
 4607TIP3    H213786   6.694   1.410   0.875 -0.4767 -0.8956 -0.2419
 4608TIP3   OH213787   3.600   5.228   5.366  0.2744 -0.2729  0.1664
 4608TIP3    H113788   3.591   5.207   5.273 -0.6418  0.3662  0.0909
 4608TIP3    H213789   3.676   5.285   5.371 -0.9475  1.4883 -0.5315
 4609TIP3   OH213790   6.838   4.686   4.019 -0.3913 -0.3024  0.0703
 4609TIP3    H113791   6.770   4.753   4.008  0.4568  0.8458  1.5675
 4609TIP3    H213792   6.794   4.615   4.067 -1.1298 -0.5978 -1.0023
 4610TIP3   OH213793   0.100   3.629   3.735 -0.4878 -0.4075  0.2729
 4610TIP3    H113794   0.184   3.637   3.780  0.2593 -0.0790 -1.1102
 4610TIP3    H213795   0.123   3.598   3.647 -1.8321 -0.4467 -0.0903
 4611TIP3   OH213796   0.987   4.709   5.080  0.3434 -0.2712 -0.1942
 4611TIP3    H113797   0.908   4.761   5.075 -0.3921 -1.3660 -0.2547
 4611TIP3    H213798   0.982   4.650   5.005  0.5527 -1.2359  0.5252
 4612TIP3   OH213799   4.783   0.869   5.164 -0.2945  0.4965  0.2498
 4612TIP3    H113800   4.775   0.861   5.259  1.1111 -0.5542  0.3102
 4612TIP3    H213801   4.815   0.958   5.150  2.9289 -0.3940  1.0826
 4613TIP3   OH213802   5.066   0.123   1.418 -0.3579  0.3954 -0.3298
 4613TIP3    H113803   5.148   0.089   1.453  0.5205  1.5273 -1.2195
 4613TIP3    H213804   5.091   0.201   1.368 -2.2129  2.1710  1.3111
 4614TIP3   OH213805   3.392   3.664   2.615  0.4169  0.1449 -0.1100
 4614TIP3    H113806   3.351   3.733   2.667  1.6787  0.3018  0.7287
 4614TIP3    H213807   3.365   3.683   2.525 -1.9085 -0.1971  0.4517
 4615TIP3   OH213808   5.520   0.663   4.352 -0.0111 -0.1044 -0.5645
 4615TIP3    H113809   5.522   0.629   4.442  0.0648 -0.7431 -0.8057
 4615TIP3    H213810   5.610   0.690   4.335  0.2800 -1.2620 -0.9266
 4616TIP3   OH213811   5.040   3.774   0.796  0.2428  0.1734  0.5408
 4616TIP3    H113812   5.045   3.720   0.717  2.7925 -0.5901  1.1259
 4616TIP3    H213813   5.021   3.711   0.866 -0.6867  0.6514  0.7321
 4617TIP3   OH213814   3.707   1.863   0.012 -0.9860  0.3906  0.0995
 4617TIP3    H113815   3.655   1.919   0.070 -0.6240 -0.1566  0.9775
 4617TIP3    H213816   3.667   1.776   0.022  0.3477 -0.1427  1.1488
 4618TIP3   OH213817   3.013   5.310   1.218  0.0496 -0.0283  0.5291
 4618TIP3    H113818   3.014   5.276   1.128  0.2782 -1.0697  0.9055
 4618TIP3    H213819   3.102   5.294   1.250  0.0601  0.6290  0.8424
 4619TIP3   OH213820   3.556   1.702   0.243  0.0507 -0.0518 -0.1924
 4619TIP3    H113821   3.563   1.714   0.337  1.1110 -0.8193 -0.1684
 4619TIP3    H213822   3.570   1.790   0.206  3.1512 -0.2786  0.2086
 4620TIP3   OH213823   2.357   5.100   0.784 -0.2342 -0.1748 -0.4547
 4620TIP3    H113824   2.295   5.172   0.797  1.0483  1.1555 -1.3630
 4620TIP3    H213825   2.302   5.024   0.767 -1.6264  0.7541 -0.2757
 4621TIP3   OH213826   2.027   5.302   5.733 -0.3838 -0.1510 -0.0292
 4621TIP3    H113827   1.960   5.235   5.732  0.2471 -0.9829  2.8045
 4621TIP3    H213828   2.110   5.254   5.734  0.2604  0.8160 -1.7742
 4622TIP3   OH213829   5.229   4.323   2.253  0.0271  0.0749  0.0122
 4622TIP3    H113830   5.294   4.318   2.183  0.9210 -0.3972  0.8594
 4622TIP3    H213831   5.155   4.371   2.213  0.4155 -0.3740 -1.3077
 4623TIP3   OH213832   3.281   0.106   3.898  0.0460 -0.3535 -0.0053
 4623TIP3    H113833   3.239   0.104   3.811 -0.3444 -1.0949  0.1913
 4623TIP3    H213834   3.242   0.182   3.942 -0.5444 -0.6037 -0.0941
 4624TIP3   OH213835   3.318   0.809   2.575  0.1261  0.1862  0.1050
 4624TIP3    H113836   3.230   0.840   2.554 -0.6023 -1.7434  0.0774
 4624TIP3    H213837   3.307   0.716   2.594  1.9244  0.2382  1.7584
 4625TIP3   OH213838   6.677   1.469   5.153 -0.1619  0.0267  0.2459
 4625TIP3    H113839   6.674   1.522   5.233  2.1780  0.3442  0.1844
 4625TIP3    H213840   6.769   1.444   5.144 -0.5478 -0.8469 -1.8175
 4626TIP3   OH213841   0.095   0.612   0.838  0.5295  0.0466 -0.2279
 4626TIP3    H113842   0.100   0.708   0.835  0.0925  0.0584 -1.2188
 4626TIP3    H213843   0.085   0.591   0.931 -1.2553  1.0931 -0.1238
 4627TIP3   OH213844   6.952   1.868   1.723  0.1578 -0.3428  0.1119
 4627TIP3    H113845   6.956   1.963   1.710  0.0385 -0.5142 -1.2669
 4627TIP3    H213846   7.035   1.835   1.688 -0.0593 -0.8112  0.0364
 4628TIP3   OH213847   4.231   1.399   2.057  0.3372  0.2208  0.0890
 4628TIP3    H113848   4.169   1.472   2.056  0.7520  0.6164  1.3806
 4628TIP3    H213849   4.264   1.397   2.147  0.9309 -1.0593 -0.1399
 4629TIP3   OH213850   1.648   0.813   2.272  0.2042  0.2844 -0.0494
 4629TIP3    H113851   1.581   0.801   2.339  0.5772 -1.5303  0.0374
 4629TIP3    H213852   1.650   0.731   2.225  0.5182  1.2526 -1.8032
 4630TIP3   OH213853   3.755   4.850   3.225 -0.1757  0.3568  0.9297
 4630TIP3    H113854   3.762   4.758   3.249 -0.1951  0.3840  1.0393
 4630TIP3    H213855   3.843   4.874   3.198 -0.2985  0.1509  0.3437
 4631TIP3   OH213856   0.813   0.790   0.575 -0.4833  0.2724  0.5785
 4631TIP3    H113857   0.843   0.699   0.566 -0.0749  0.6087 -2.9562
 4631TIP3    H213858   0.723   0.789   0.544 -0.4581  1.0840  0.4498
 4632TIP3   OH213859   6.373   5.456   3.591  0.7680  0.1823 -0.5691
 4632TIP3    H113860   6.422   5.385   3.632  0.0259  1.0405  1.9965
 4632TIP3    H213861   6.292   5.414   3.560 -0.3232  0.0461  2.2051
 4633TIP3   OH213862   1.070   6.062   3.916 -0.3144 -0.3249 -0.0529
 4633TIP3    H113863   1.147   6.067   3.972  0.1821  1.2331 -0.8224
 4633TIP3    H213864   1.005   6.115   3.960 -0.7049 -0.9981  0.1974
 4634TIP3   OH213865   5.558   1.195   0.972 -0.2318  0.1617 -0.1488
 4634TIP3    H113866   5.556   1.127   1.040 -0.2889  0.5011  0.1946
 4634TIP3    H213867   5.621   1.162   0.907  0.6792  0.3421  0.6199
 4635TIP3   OH213868   1.041   5.494   4.828  0.2117  0.5856 -0.1522
 4635TIP3    H113869   1.128   5.532   4.839  0.5547  0.1442 -1.2529
 4635TIP3    H213870   1.046   5.410   4.873  0.7524  0.0076 -1.2617
 4636TIP3   OH213871   4.428   0.266   4.943 -0.2336  0.0769 -0.5530
 4636TIP3    H113872   4.422   0.278   5.037 -0.4471 -0.6473 -0.4688
 4636TIP3    H213873   4.346   0.224   4.919  0.2802 -0.7571 -0.8939
 4637TIP3   OH213874   4.308   3.792   5.382 -0.2983  0.0674  0.1602
 4637TIP3    H113875   4.227   3.751   5.351 -0.3067 -0.0058  0.2817
 4637TIP3    H213876   4.358   3.721   5.422  0.2754 -0.0851 -0.8167
 4638TIP3   OH213877   4.947   2.565   2.783 -0.0034 -1.2223 -0.3647
 4638TIP3    H113878   4.902   2.644   2.813 -0.9828 -1.8969  0.0078
 4638TIP3    H213879   4.982   2.588   2.696  2.1039  0.4774  0.8286
 4639TIP3   OH213880   1.009   4.193   0.209  0.3005  0.3403  0.0794
 4639TIP3    H113881   0.931   4.159   0.164  0.6131  2.4153 -2.2291
 4639TIP3    H213882   0.977   4.226   0.293 -0.6308 -2.0014  0.7185
 4640TIP3   OH213883   2.156   0.126   3.324  0.0767 -0.3980 -0.5118
 4640TIP3    H113884   2.213   0.080   3.386 -1.8145 -0.7564  1.0559
 4640TIP3    H213885   2.132   0.059   3.260  0.9033 -0.3944 -0.8441
 4641TIP3   OH213886   1.517   6.668   5.359  0.5083  0.2433  0.1975
 4641TIP3    H113887   1.583   6.670   5.428  1.4757  3.7004 -0.6266
 4641TIP3    H213888   1.464   6.746   5.374 -1.1164 -0.5131 -1.2645
 4642TIP3   OH213889   6.000   4.865   2.693 -0.2761  0.3104 -0.7575
 4642TIP3    H113890   5.910   4.892   2.673 -0.6777  0.4562  1.1223
 4642TIP3    H213891   5.994   4.771   2.711 -0.3055  0.5616  0.6407
 4643TIP3   OH213892   5.058   2.371   2.486 -0.3347  0.0218  0.3902
 4643TIP3    H113893   5.008   2.426   2.427  0.1413  0.1418  0.0986
 4643TIP3    H213894   5.116   2.320   2.429 -0.1823 -0.1770  0.7184
 4644TIP3   OH213895   2.119   1.284   0.760 -0.7145  0.3347 -0.0255
 4644TIP3    H113896   2.150   1.274   0.670  0.2186 -1.0826  0.4160
 4644TIP3    H213897   2.142   1.202   0.802 -1.8596  0.6639  1.3155
 4645TIP3   OH213898   4.084   4.020   3.492 -0.1975  0.0627  0.2137
 4645TIP3    H113899   3.995   4.053   3.502  0.4417  1.7235  0.8433
 4645TIP3    H213900   4.099   4.021   3.397 -0.4477  0.9349  0.1724
 4646TIP3   OH213901   0.528   3.457   5.441 -0.0320  0.3215 -0.1929
 4646TIP3    H113902   0.498   3.513   5.369  0.4706  2.3797  1.1263
 4646TIP3    H213903   0.451   3.405   5.464 -1.0256  1.6238 -0.4469
 4647TIP3   OH213904   6.663   4.466   2.060  0.0433 -0.5115 -0.4110
 4647TIP3    H113905   6.653   4.455   2.155  0.8047 -0.6999 -0.3523
 4647TIP3    H213906   6.631   4.555   2.044  0.5203 -0.2359  0.1200
 4648TIP3   OH213907   5.932   1.735   2.924  0.5782  0.1805 -0.0020
 4648TIP3    H113908   5.875   1.672   2.881  0.3523 -0.4586  1.1872
 4648TIP3    H213909   5.933   1.810   2.865 -1.3266  0.1308 -0.1816
 4649TIP3   OH213910   3.181   0.112   2.421  0.1058  0.4945  0.5847
 4649TIP3    H113911   3.200   0.135   2.330 -0.5543  0.0963  0.3363
 4649TIP3    H213912   3.221   0.026   2.433 -1.5281 -0.4150  0.0155
 4650TIP3   OH213913   6.214   5.977   1.667  0.2853  0.0279  0.0698
 4650TIP3    H113914   6.236   5.983   1.760 -0.8208  1.3295  0.2776
 4650TIP3    H213915   6.190   5.886   1.654  1.4643 -0.4106  0.8144
 4651TIP3   OH213916   3.382   5.917   1.766 -0.1973 -0.4225 -0.1932
 4651TIP3    H113917   3.473   5.932   1.740 -0.0842  0.2711  0.5372
 4651TIP3    H213918   3.341   5.876   1.690  0.4795  0.1609 -0.8895
 4652TIP3   OH213919   2.891   0.100   4.156 -1.0583  0.0190  0.2045
 4652TIP3    H113920   2.966   0.139   4.202 -1.3950  1.5455 -0.4734
 4652TIP3    H213921   2.819   0.107   4.218 -0.9591 -0.1675  0.3416
 4653TIP3   OH213922   3.150   0.277   5.523  0.4286 -0.3018  0.1095
 4653TIP3    H113923   3.199   0.252   5.600 -1.4770 -1.6470  0.9646
 4653TIP3    H213924   3.179   0.217   5.454  0.7501 -0.3676  0.3050
 4654TIP3   OH213925   2.163   4.364   1.205  0.8741 -0.2016  0.1577
 4654TIP3    H113926   2.110   4.288   1.181  1.6840 -0.5640 -0.5551
 4654TIP3    H213927   2.234   4.364   1.140  0.9065  1.1352  0.1769
 4655TIP3   OH213928   6.336   0.851   3.427  0.2770  0.3334  0.5295
 4655TIP3    H113929   6.284   0.929   3.446  0.8146  0.5285  1.2299
 4655TIP3    H213930   6.326   0.839   3.333 -1.3864  0.1089  0.7005
 4656TIP3   OH213931   1.297   4.806   0.909  0.4953  0.5417  0.2298
 4656TIP3    H113932   1.212   4.772   0.881  1.4191 -0.9478 -0.9036
 4656TIP3    H213933   1.288   4.901   0.904 -0.0688  0.4316 -3.3320
 4657TIP3   OH213934   3.126   2.509   5.093  0.0573 -0.5725 -0.0090
 4657TIP3    H113935   3.165   2.422   5.081  0.6666 -0.3635  0.4300
 4657TIP3    H213936   3.200   2.567   5.110 -0.3945 -0.0667  0.2763
 4658TIP3   OH213937   0.455   5.083   0.856 -0.4521 -0.1545  0.1754
 4658TIP3    H113938   0.533   5.118   0.814 -1.1146  0.2579 -0.7503
 4658TIP3    H213939   0.422   5.154   0.911 -1.1364  0.3021 -0.7915
 4659TIP3   OH213940   3.961   4.053   0.782 -0.3316 -0.4132 -0.6507
 4659TIP3    H113941   3.873   4.015   0.782 -1.0075  1.0302  1.0798
 4659TIP3    H213942   4.003   4.015   0.858  0.2309 -0.3734 -0.9372
 4660TIP3   OH213943   0.259   0.340   1.998 -0.1839  0.3176 -0.1650
 4660TIP3    H113944   0.192   0.323   1.932  0.3959 -1.1837 -0.4051
 4660TIP3    H213945   0.221   0.307   2.079  0.5306 -1.2142 -0.4353
 4661TIP3   OH213946   6.616   3.646   1.616 -0.2168 -0.6086  0.1516
 4661TIP3    H113947   6.588   3.729   1.577  0.4974  0.5252  1.9578
 4661TIP3    H213948   6.543   3.621   1.673  0.3239 -0.2814  0.9890
 4662TIP3   OH213949   6.494   6.749   3.406 -0.3607 -0.0309  0.4450
 4662TIP3    H113950   6.515   6.791   3.323  0.6187  1.8994  1.6016
 4662TIP3    H213951   6.490   6.821   3.469 -0.6960 -1.4747  2.1506
 4663TIP3   OH213952   5.639   5.112   0.884  0.2351  0.1153 -0.5579
 4663TIP3    H113953   5.731   5.118   0.860  0.1544  0.2826 -0.8388
 4663TIP3    H213954   5.605   5.038   0.833 -0.0147  0.6799 -1.2424
 4664TIP3   OH213955   0.077   3.657   4.723  0.3125  0.4078  0.3225
 4664TIP3    H113956   0.152   3.636   4.668 -0.4098 -1.3610 -0.0462
 4664TIP3    H213957   0.113   3.714   4.791  1.9002 -0.0494 -0.0902
 4665TIP3   OH213958   5.644   5.403   0.793 -0.0987  0.1545  0.4904
 4665TIP3    H113959   5.567   5.350   0.772  1.1926 -1.5948 -0.1049
 4665TIP3    H213960   5.652   5.395   0.889 -0.0750 -0.5433  0.4402
 4666TIP3   OH213961   5.507   2.061   3.378  0.0042  0.2335  0.5035
 4666TIP3    H113962   5.477   1.978   3.340 -0.4024  0.7074 -0.2189
 4666TIP3    H213963   5.448   2.077   3.451 -1.9344  1.4103 -1.1904
 4667TIP3   OH213964   0.150   3.977   5.538 -0.1853  0.1358  0.8014
 4667TIP3    H113965   0.180   4.049   5.484 -1.6514  0.3125  0.1767
 4667TIP3    H213966   0.068   3.949   5.498 -1.6216  0.6058  3.1965
 4668TIP3   OH213967   1.082   0.937   3.175  0.2666 -0.0506  0.3012
 4668TIP3    H113968   0.997   0.926   3.133  0.8193  2.2051 -1.6502
 4668TIP3    H213969   1.138   0.871   3.136 -0.5296 -1.5952  1.6486
 4669TIP3   OH213970   2.603   3.200   0.875 -0.7606 -0.0528 -0.5513
 4669TIP3    H113971   2.518   3.235   0.847 -1.1900 -1.2321 -0.8098
 4669TIP3    H213972   2.582   3.147   0.952  0.0043  0.9261  0.3695
 4670TIP3   OH213973   5.582   2.287   5.220  0.1298  0.3141  0.4602
 4670TIP3    H113974   5.665   2.333   5.227  1.3657 -1.9420  1.6289
 4670TIP3    H213975   5.597   2.219   5.154  0.0024 -1.5193  2.2135
 4671TIP3   OH213976   2.019   3.607   4.666 -0.2620 -0.2594  0.3386
 4671TIP3    H113977   2.006   3.700   4.685 -0.4836 -0.1302 -0.4238
 4671TIP3    H213978   1.931   3.570   4.661 -0.1606 -0.6843  1.4219
 4672TIP3   OH213979   7.166   3.368   3.577  0.3169 -0.3220 -0.3141
 4672TIP3    H113980   7.084   3.379   3.626  2.0188  1.5735  2.3909
 4672TIP3    H213981   7.219   3.311   3.633  1.7040  0.4493 -0.8078
 4673TIP3   OH213982   4.405   1.995   4.961  0.1299  0.0850 -0.4695
 4673TIP3    H113983   4.416   2.066   4.898 -2.5652  1.4850  0.4679
 4673TIP3    H213984   4.459   1.923   4.927  1.0977  1.7620 -2.7117
 4674TIP3   OH213985   4.324   4.398   3.760 -0.5354 -0.1554 -0.3861
 4674TIP3    H113986   4.269   4.326   3.730 -1.8865  0.1172  1.2726
 4674TIP3    H213987   4.263   4.469   3.779  0.5294  0.6316  0.2098
 4675TIP3   OH213988   1.139   4.918   3.092 -0.7261 -0.7094  0.8583
 4675TIP3    H113989   1.234   4.907   3.089 -0.6624 -0.1111 -0.9762
 4675TIP3    H213990   1.126   4.999   3.140 -0.0583  0.8905 -1.4857
 4676TIP3   OH213991   0.931   4.100   4.443 -0.0139 -1.0645  0.1549
 4676TIP3    H113992   0.967   4.067   4.526  0.0452 -0.0787  0.5405
 4676TIP3    H213993   0.959   4.191   4.440  1.0665 -1.4190 -1.5940
 4677TIP3   OH213994   2.246   4.275   3.369  0.7954  0.2755  0.3930
 4677TIP3    H113995   2.164   4.311   3.335  2.4288  1.9539 -2.2120
 4677TIP3    H213996   2.226   4.184   3.391 -1.9078  0.8505  0.6202
 4678TIP3   OH213997   5.828   6.094   2.683 -0.6164  0.3765 -0.4284
 4678TIP3    H113998   5.868   6.056   2.605 -0.3635  0.2654 -0.2448
 4678TIP3    H213999   5.836   6.189   2.670 -1.0976  0.3687 -0.8065
 4679TIP3   OH214000   2.836   5.784   5.454 -0.0435  0.4714 -0.2646
 4679TIP3    H114001   2.921   5.754   5.485 -0.6946 -0.1425  1.0044
 4679TIP3    H214002   2.773   5.737   5.508 -1.2339  0.1554 -1.8404
 4680TIP3   OH214003   5.952   4.512   3.303  0.1495  0.1806  0.1643
 4680TIP3    H114004   5.973   4.575   3.234  0.4595  0.6423  0.6713
 4680TIP3    H214005   6.037   4.488   3.340 -0.1363  2.0075  2.1907
 4681TIP3   OH214006   6.696   1.193   4.816 -0.2425 -0.0815  0.1149
 4681TIP3    H114007   6.672   1.268   4.762 -2.9066 -0.1774  1.0378
 4681TIP3    H214008   6.622   1.181   4.875  1.0468 -2.1389  1.4489
 4682TIP3   OH214009   6.583   5.214   1.617  0.2338 -0.8056 -0.3156
 4682TIP3    H114010   6.634   5.294   1.610 -0.3573 -0.4442 -0.6154
 4682TIP3    H214011   6.641   5.145   1.584  0.5525 -0.4152 -0.5808
 4683TIP3   OH214012   7.107   0.820   1.559  0.3325 -0.5262 -0.0362
 4683TIP3    H114013   7.174   0.751   1.554  0.0691 -0.7615 -0.3398
 4683TIP3    H214014   7.098   0.837   1.653  2.4705  1.1384 -0.0530
 4684TIP3   OH214015   1.128   4.390   0.433  0.1643  0.3966 -0.4446
 4684TIP3    H114016   1.094   4.408   0.345 -1.0074 -1.0012 -0.3135
 4684TIP3    H214017   1.128   4.475   0.476 -2.7340  0.6000 -0.6522
 4685TIP3   OH214018   2.357   5.494   1.305  0.3284 -0.2311  0.2029
 4685TIP3    H114019   2.285   5.465   1.361  0.6345 -0.0635  0.6864
 4685TIP3    H214020   2.322   5.572   1.260  0.6862  0.7332  1.5388
 4686TIP3   OH214021   3.510   4.741   5.455  0.4420  0.2930 -0.0896
 4686TIP3    H114022   3.543   4.830   5.463  2.3939 -0.5157  2.1297
 4686TIP3    H214023   3.584   4.691   5.419 -0.8117 -0.3794 -1.8626
 4687TIP3   OH214024   2.783   2.725   4.583  0.1296  0.0356  0.1569
 4687TIP3    H114025   2.818   2.810   4.608  1.0946  0.0726 -1.2132
 4687TIP3    H214026   2.816   2.710   4.495 -1.1463 -1.1563 -0.1612
 4688TIP3   OH214027   1.867   2.756   4.870 -0.4037 -0.0818  0.7035
 4688TIP3    H114028   1.859   2.664   4.846 -2.1688  0.3939 -0.7309
 4688TIP3    H214029   1.778   2.783   4.893 -0.2820  1.6776 -0.6580
 4689TIP3   OH214030   6.278   4.904   4.764  0.2802 -0.0584 -0.5125
 4689TIP3    H114031   6.211   4.836   4.766  0.3125 -0.0707  1.1791
 4689TIP3    H214032   6.300   4.913   4.671  0.1712 -2.2330 -0.7943
 4690TIP3   OH214033   0.380   0.250   5.105  0.0951  0.1389 -0.2259
 4690TIP3    H114034   0.318   0.308   5.061 -1.0262 -0.5749  0.3777
 4690TIP3    H214035   0.413   0.302   5.179  0.4278  0.6124 -0.7003
 4691TIP3   OH214036   6.299   5.415   0.428  0.3837  0.0023 -0.1232
 4691TIP3    H114037   6.331   5.355   0.360 -1.4245  1.8586 -2.8431
 4691TIP3    H214038   6.357   5.490   0.423 -0.7077  0.8291 -0.8272
 4692TIP3   OH214039   6.093   3.267   0.348 -0.4510  0.7368 -0.2791
 4692TIP3    H114040   6.143   3.186   0.342 -1.9647 -0.1540 -1.8132
 4692TIP3    H214041   6.144   3.332   0.300  1.0574  0.9097  1.4460
 4693TIP3   OH214042   5.830   5.409   5.786 -0.6040 -0.2132  0.3326
 4693TIP3    H114043   5.853   5.316   5.794  0.5640  0.1678  1.8927
 4693TIP3    H214044   5.745   5.416   5.828 -0.4208 -0.4819  0.7550
 4694TIP3   OH214045   6.789   5.976   3.702 -0.1666  0.1225  0.0132
 4694TIP3    H114046   6.783   5.900   3.760 -0.0385  0.8959  1.0485
 4694TIP3    H214047   6.808   5.938   3.616  1.9356 -0.9292  0.8648
 4695TIP3   OH214048   2.984   5.795   0.282 -0.4655 -0.7094  0.0539
 4695TIP3    H114049   2.970   5.878   0.237  1.2206  0.8020  2.0987
 4695TIP3    H214050   2.896   5.769   0.310 -0.9046  1.3754  0.8757
 4696TIP3   OH214051   5.430   1.796   2.259  0.3201 -0.2191  0.0129
 4696TIP3    H114052   5.401   1.876   2.214 -0.6455 -0.1214  0.7789
 4696TIP3    H214053   5.488   1.753   2.196  2.5849  2.1050  0.3290
 4697TIP3   OH214054   3.705   6.323   3.801 -0.6277  0.3488  0.1365
 4697TIP3    H114055   3.655   6.404   3.808 -0.4079  0.4944  0.0381
 4697TIP3    H214056   3.744   6.326   3.714 -2.5307 -0.9872 -0.8209
 4698TIP3   OH214057   2.021   4.330   1.885  0.5480 -0.2278 -0.4453
 4698TIP3    H114058   1.966   4.253   1.904  0.8509 -0.2325  0.4867
 4698TIP3    H214059   2.090   4.326   1.951 -0.0967  1.5101  0.3863
 4699TIP3   OH214060   0.125   2.015   5.175 -0.2578 -0.0485 -0.2039
 4699TIP3    H114061   0.055   1.985   5.118  0.1029 -1.5703  0.1049
 4699TIP3    H214062   0.083   2.077   5.235 -0.7848  1.0243 -1.6290
 4700TIP3   OH214063   3.711   2.235   3.687  0.3718  0.1099 -0.1679
 4700TIP3    H114064   3.685   2.232   3.779  0.1185 -2.4750 -0.2350
 4700TIP3    H214065   3.657   2.305   3.649 -0.2449  0.5502  1.4349
 4701TIP3   OH214066   4.221   3.441   2.301 -0.3170  0.2039  0.7266
 4701TIP3    H114067   4.136   3.476   2.276 -1.6531 -1.2577  2.8970
 4701TIP3    H214068   4.227   3.458   2.395  1.1140 -1.0682  0.9011
 4702TIP3   OH214069   2.644   5.488   4.624 -0.3201 -0.4705 -0.5331
 4702TIP3    H114070   2.666   5.469   4.715 -0.8896  1.9738  0.1631
 4702TIP3    H214071   2.573   5.428   4.603 -1.5658  0.3048  1.3055
 4703TIP3   OH214072   5.739   4.304   0.844  0.1362 -0.2791  0.2010
 4703TIP3    H114073   5.794   4.380   0.826  0.2307 -0.5400 -0.6586
 4703TIP3    H214074   5.765   4.275   0.932  1.0970 -0.1648 -0.0359
 4704TIP3   OH214075   5.620   0.546   3.987  0.6932  0.5531 -0.5687
 4704TIP3    H114076   5.701   0.497   3.971  1.6961  2.5227 -1.9459
 4704TIP3    H214077   5.648   0.621   4.040  0.3310  2.5844 -3.0655
 4705TIP3   OH214078   4.263   2.868   1.994  0.4781 -0.0377  0.8196
 4705TIP3    H114079   4.182   2.822   2.016  1.2151 -2.3180 -0.8713
 4705TIP3    H214080   4.321   2.850   2.068  0.3080 -0.6915  0.7990
 4706TIP3   OH214081   2.628   3.495   0.837  0.2779 -0.5975  0.7350
 4706TIP3    H114082   2.613   3.432   0.767  0.4555 -0.1286  0.2716
 4706TIP3    H214083   2.565   3.471   0.905 -0.8164 -0.2463 -0.1252
 4707TIP3   OH214084   4.573   5.125   5.359  0.2774 -0.2580  0.5521
 4707TIP3    H114085   4.617   5.160   5.437  1.5043 -2.5673  1.0187
 4707TIP3    H214086   4.645   5.109   5.297 -0.2370 -1.5285  0.2559
 4708TIP3   OH214087   4.793   2.271   3.527 -0.2731 -0.3734  0.2503
 4708TIP3    H114088   4.747   2.348   3.559 -0.8346 -0.4933 -0.2512
 4708TIP3    H214089   4.808   2.288   3.434 -0.3076 -0.8162  0.1571
 4709TIP3   OH214090   5.285   2.111   3.577 -0.6102  0.5015  0.3215
 4709TIP3    H114091   5.204   2.153   3.547 -0.5602  1.4785  1.4835
 4709TIP3    H214092   5.258   2.056   3.651 -0.6444 -1.4478 -1.0584
 4710TIP3   OH214093   6.768   5.850   2.435 -0.2101  0.7858  0.3004
 4710TIP3    H114094   6.805   5.917   2.378  2.3925  0.6068  1.6291
 4710TIP3    H214095   6.800   5.767   2.399  1.2912  0.6591  1.7873
 4711TIP3   OH214096   3.738   2.564   3.206 -0.2122  0.2306 -0.1153
 4711TIP3    H114097   3.827   2.530   3.195 -0.0435 -0.1861  2.0950
 4711TIP3    H214098   3.702   2.567   3.117  1.8362 -0.0358 -1.0033
 4712TIP3   OH214099   5.934   0.739   0.097  0.0453 -0.2026 -0.1917
 4712TIP3    H114100   5.911   0.691   0.177  0.2736 -0.5852 -0.3530
 4712TIP3    H214101   6.009   0.692   0.061 -0.4372 -0.4046 -0.9617
 4713TIP3   OH214102   1.784   0.471   5.882 -0.2029 -0.0953 -0.3727
 4713TIP3    H114103   1.809   0.476   5.790  0.3996  0.6646 -0.1800
 4713TIP3    H214104   1.827   0.546   5.923 -2.3516  0.9811  0.0952
 4714TIP3   OH214105   2.751   4.232   3.895 -0.2146 -0.1365 -0.1180
 4714TIP3    H114106   2.816   4.217   3.964 -1.2798 -0.2996  0.8985
 4714TIP3    H214107   2.791   4.197   3.816 -0.6297 -4.1137  1.2102
 4715TIP3   OH214108   6.821   0.511   3.540 -0.2618 -0.2208 -0.1066
 4715TIP3    H114109   6.893   0.563   3.577 -0.6502  0.3132 -0.0914
 4715TIP3    H214110   6.760   0.500   3.613 -1.6794  1.9677 -0.8717
 4716TIP3   OH214111   1.326   0.971   4.327  0.6190  0.2460  0.3026
 4716TIP3    H114112   1.381   1.046   4.306  1.5042 -0.8371 -1.4852
 4716TIP3    H214113   1.388   0.901   4.348  0.0276 -1.1450 -2.2434
 4717TIP3   OH214114   4.296   0.860   4.471 -0.3400  0.0281  0.0404
 4717TIP3    H114115   4.244   0.780   4.482  0.7769 -0.9532 -1.4727
 4717TIP3    H214116   4.287   0.881   4.378  1.1537  0.4015 -0.0328
 4718TIP3   OH214117   3.094   6.633   2.357 -0.3719  0.3841 -0.2001
 4718TIP3    H114118   3.139   6.686   2.423 -0.7706  0.6231 -0.1230
 4718TIP3    H214119   3.149   6.641   2.279 -0.4376  0.9187 -0.1935
 4719TIP3   OH214120   0.198   2.667   1.486 -0.3646 -0.2672 -0.1431
 4719TIP3    H114121   0.291   2.678   1.466 -0.2887 -0.3859  0.1368
 4719TIP3    H214122   0.197   2.623   1.571 -0.6778 -0.1576 -0.0888
 4720TIP3   OH214123   6.650   2.433   3.220  0.0621 -0.0502 -0.2827
 4720TIP3    H114124   6.643   2.524   3.192 -1.8549 -0.0325  0.0933
 4720TIP3    H214125   6.605   2.430   3.305  0.8578 -1.1831  0.1306
 4721TIP3   OH214126   7.084   3.956   3.253  0.6311 -0.0992 -0.5563
 4721TIP3    H114127   7.058   4.045   3.275 -1.9491 -0.8460 -0.2488
 4721TIP3    H214128   7.125   3.963   3.167 -1.4383  1.1882 -1.5307
 4722TIP3   OH214129   2.826   5.136   4.539 -0.3155  0.2923  0.0932
 4722TIP3    H114130   2.778   5.139   4.622  0.8514 -0.7126  0.8313
 4722TIP3    H214131   2.908   5.182   4.557  0.5944 -1.2140 -0.0406
 4723TIP3   OH214132   1.681   3.935   0.723 -0.0778  0.0731  0.0270
 4723TIP3    H114133   1.680   3.840   0.732 -1.4107  0.0279 -0.3583
 4723TIP3    H214134   1.630   3.952   0.643 -0.3410  1.1324  0.4005
 4724TIP3   OH214135   3.043   3.330   4.726 -0.0017 -0.5350 -0.5910
 4724TIP3    H114136   2.981   3.289   4.666 -1.0729  1.5629 -1.0074
 4724TIP3    H214137   2.999   3.330   4.810  0.3780 -1.0215 -0.3852
 4725TIP3   OH214138   6.543   3.326   0.352 -0.4270 -0.0312  0.2381
 4725TIP3    H114139   6.547   3.254   0.290 -0.2130  0.4959 -0.3766
 4725TIP3    H214140   6.460   3.371   0.331  0.4753  1.1904 -0.8789
 4726TIP3   OH214141   1.464   2.245   2.014 -0.4089  0.4964 -0.3085
 4726TIP3    H114142   1.376   2.207   2.025 -0.9362  1.4223 -1.1682
 4726TIP3    H214143   1.448   2.337   1.994  0.7985  0.8530  0.2659
 4727TIP3   OH214144   4.343   5.957   5.417 -1.0509  0.3045  0.4886
 4727TIP3    H114145   4.252   5.984   5.411 -1.1363  0.0328  0.5286
 4727TIP3    H214146   4.339   5.862   5.431 -0.7951  0.4535  1.7431
 4728TIP3   OH214147   3.748   3.950   3.772  0.2133  0.1531 -0.5576
 4728TIP3    H114148   3.828   3.994   3.799 -0.4638 -0.3458  2.7876
 4728TIP3    H214149   3.776   3.863   3.745  0.8975  0.3778 -0.5852
 4729TIP3   OH214150   1.363   5.851   2.222 -0.4754 -0.0342  0.0522
 4729TIP3    H114151   1.285   5.836   2.276 -1.4818  0.3919 -1.2242
 4729TIP3    H214152   1.410   5.922   2.267 -1.5135  0.6139  0.1418
 4730TIP3   OH214153   4.933   5.471   1.193 -0.2301  1.1354  0.2418
 4730TIP3    H114154   4.881   5.463   1.273  0.3536 -1.6998  0.4479
 4730TIP3    H214155   5.005   5.529   1.217  0.4029 -0.3189  2.0882
 4731TIP3   OH214156   6.161   2.354   5.217  0.0939  0.0791  0.3481
 4731TIP3    H114157   6.147   2.443   5.185 -0.4880 -0.0920  0.1109
 4731TIP3    H214158   6.080   2.333   5.264  0.2361 -0.3165  0.4200
 4732TIP3   OH214159   6.207   4.248   1.348  0.2033  0.2544  0.6276
 4732TIP3    H114160   6.263   4.176   1.316  1.2761  0.8099  1.2048
 4732TIP3    H214161   6.139   4.256   1.281  1.2364  0.0447 -0.4892
 4733TIP3   OH214162   1.661   6.259   0.290 -0.3845 -0.3446 -0.0205
 4733TIP3    H114163   1.737   6.290   0.240 -0.7025  0.8145  0.1772
 4733TIP3    H214164   1.648   6.169   0.262  0.3909 -0.1996 -0.8711
 4734TIP3   OH214165   6.638   5.288   2.766  0.0562 -0.3973 -0.0965
 4734TIP3    H114166   6.568   5.312   2.706 -0.8469 -0.8062  0.7490
 4734TIP3    H214167   6.685   5.217   2.722  0.2825  0.2549 -0.9057
 4735TIP3   OH214168   2.605   2.399   1.816 -0.1082 -0.2899 -0.5943
 4735TIP3    H114169   2.571   2.453   1.888 -0.8975 -0.6183 -0.7109
 4735TIP3    H214170   2.597   2.455   1.739 -3.3427 -1.3876 -1.1814
 4736TIP3   OH214171   0.323   1.892   3.084 -0.3172  0.0172 -0.5730
 4736TIP3    H114172   0.232   1.895   3.112 -0.4216 -0.9485 -0.7710
 4736TIP3    H214173   0.373   1.880   3.165 -0.5212 -1.3900 -0.6190
 4737TIP3   OH214174   3.202   5.914   1.982  0.2055  0.4676 -0.3092
 4737TIP3    H114175   3.261   5.944   1.913  0.3987  0.6718 -0.0552
 4737TIP3    H214176   3.156   5.839   1.943  1.0570 -0.0702 -0.3116
 4738TIP3   OH214177   6.348   5.581   1.686 -0.2514  0.2639  0.0454
 4738TIP3    H114178   6.357   5.598   1.780 -1.4100 -0.4378  0.3006
 4738TIP3    H214179   6.286   5.647   1.655  0.4944  0.7970 -0.3293
 4739TIP3   OH214180   3.542   1.048   2.208  0.0530  0.1114  0.7030
 4739TIP3    H114181   3.562   1.139   2.185  1.1217 -0.1298  0.6278
 4739TIP3    H214182   3.620   0.999   2.182  0.2117 -0.5758  2.3692
 4740TIP3   OH214183   5.781   6.485   1.631 -0.4881  0.3820 -0.3147
 4740TIP3    H114184   5.792   6.572   1.670  0.6013  0.3079 -0.4399
 4740TIP3    H214185   5.686   6.471   1.632 -0.6772  1.5378 -0.2278
 4741TIP3   OH214186   5.198   5.182   3.918  0.7343  0.1633 -0.0825
 4741TIP3    H114187   5.127   5.135   3.875  0.6455  0.4720 -0.2795
 4741TIP3    H214188   5.207   5.263   3.868  0.1660  0.8462  0.8912
 4742TIP3   OH214189   7.078   0.921   4.615 -0.2282 -0.0123 -0.6509
 4742TIP3    H114190   7.098   0.830   4.634  0.5691  0.6515  2.2383
 4742TIP3    H214191   6.986   0.931   4.640  0.4948  0.5704  2.2239
 4743TIP3   OH214192   3.524   4.887   0.263  0.1040  0.1582  0.0981
 4743TIP3    H114193   3.562   4.883   0.351  0.5592  3.2143  0.1616
 4743TIP3    H214194   3.580   4.949   0.216 -0.2944 -1.2048 -2.2950
 4744TIP3   OH214195   3.565   0.814   5.751  0.0802 -0.1043 -0.0069
 4744TIP3    H114196   3.546   0.802   5.658 -1.5962 -0.0075  0.3064
 4744TIP3    H214197   3.657   0.841   5.753  0.3263 -0.7437 -1.5812
 4745TIP3   OH214198   2.614   3.340   0.271  0.1768  0.1074 -0.4208
 4745TIP3    H114199   2.628   3.433   0.290 -0.4313  0.1189  0.0176
 4745TIP3    H214200   2.698   3.299   0.288  0.0975  0.3832  0.7218
 4746TIP3   OH214201   5.861   5.460   3.569 -0.2141  0.2933 -0.3057
 4746TIP3    H114202   5.867   5.554   3.552 -0.5621  0.4160  0.2463
 4746TIP3    H214203   5.936   5.423   3.523  0.4658  0.9488  0.2635
 4747TIP3   OH214204   0.801   0.034   0.556  0.7468 -0.3399 -0.1098
 4747TIP3    H114205   0.811  -0.055   0.591 -1.7304 -0.8243 -0.5067
 4747TIP3    H214206   0.781   0.022   0.464 -2.9394  0.3588  0.4662
 4748TIP3   OH214207   3.590   4.353   5.361 -0.2354  0.2499  0.3668
 4748TIP3    H114208   3.609   4.420   5.427 -0.9183 -0.5161  1.3676
 4748TIP3    H214209   3.602   4.270   5.407 -2.4440 -0.2901  0.0890
 4749TIP3   OH214210   5.184   3.777   5.029  0.2834 -0.2482 -0.1266
 4749TIP3    H114211   5.094   3.807   5.020  0.4869  0.7964  1.1690
 4749TIP3    H214212   5.176   3.684   5.049 -0.6359  0.2879  2.2912
 4750TIP3   OH214213   2.672   4.949   3.627 -0.1515 -0.1250  0.0313
 4750TIP3    H114214   2.715   4.877   3.674  1.2084  1.3579  1.2017
 4750TIP3    H214215   2.734   5.022   3.633 -0.9470  0.8220 -2.1462
 4751TIP3   OH214216   1.946   1.331   4.764 -0.0921  0.6567 -0.5179
 4751TIP3    H114217   2.016   1.308   4.825 -1.5489 -0.0593  0.9341
 4751TIP3    H214218   1.980   1.305   4.678  0.4152 -2.1307  0.4398
 4752TIP3   OH214219   0.869   2.240   4.432  0.1971  0.5129 -0.2013
 4752TIP3    H114220   0.795   2.185   4.405 -0.8537 -0.3292  3.7145
 4752TIP3    H214221   0.860   2.319   4.379 -2.5870 -0.2050 -0.9914
 4753TIP3   OH214222   3.648   2.731   4.173  0.3118 -0.5743  0.4666
 4753TIP3    H114223   3.569   2.762   4.217 -0.1423 -0.4226 -0.4313
 4753TIP3    H214224   3.720   2.775   4.218 -0.2226  0.6414  0.1695
 4754TIP3   OH214225   3.983   3.617   0.196 -0.0368  0.3199 -0.3032
 4754TIP3    H114226   4.036   3.655   0.126  1.5891  0.5424  0.9965
 4754TIP3    H214227   4.012   3.526   0.202  0.1578  0.4139  0.3399
 4755TIP3   OH214228   1.704   1.396   4.886 -0.1955 -0.0233  0.3231
 4755TIP3    H114229   1.653   1.320   4.857  0.3986 -0.1370 -0.4169
 4755TIP3    H214230   1.792   1.381   4.853 -0.3334  1.5567 -0.8649
 4756TIP3   OH214231   1.365   0.367   2.782 -0.4213 -0.4060 -0.4150
 4756TIP3    H114232   1.317   0.305   2.836  0.4110  0.5004  1.4865
 4756TIP3    H214233   1.451   0.326   2.768 -0.2255 -0.1395 -0.0216
 4757TIP3   OH214234   0.897   3.046   3.619  0.0530 -0.7687  0.5062
 4757TIP3    H114235   0.889   3.065   3.712  0.8220 -2.0587  0.8516
 4757TIP3    H214236   0.909   3.132   3.578 -2.8495  0.1219  1.2691
 4758TIP3   OH214237   4.254   2.072   1.858  0.1841  0.5157  0.3372
 4758TIP3    H114238   4.308   2.099   1.784  0.3298  2.0540  0.9705
 4758TIP3    H214239   4.300   1.996   1.895 -0.7367 -1.3368 -2.0413
 4759TIP3   OH214240   6.066   4.190   2.794  0.4040 -0.4507 -0.3449
 4759TIP3    H114241   5.989   4.207   2.740  0.1581 -0.8396 -0.1115
 4759TIP3    H214242   6.135   4.167   2.731  1.3169  3.2012 -0.9174
 4760TIP3   OH214243   0.753   4.600   0.742 -0.0808  0.2667  0.0268
 4760TIP3    H114244   0.814   4.670   0.768 -1.6753  1.3681  1.0450
 4760TIP3    H214245   0.759   4.597   0.647  1.2192  0.6635  0.0795
 4761TIP3   OH214246   4.166   4.047   3.023 -0.4419 -0.3194  0.3222
 4761TIP3    H114247   4.189   4.018   2.935 -2.9036 -2.2718  0.2105
 4761TIP3    H214248   4.167   3.967   3.076 -2.4846  0.1679  1.2148
 4762TIP3   OH214249   6.011   4.351   2.133 -0.4383  0.1196 -0.0142
 4762TIP3    H114250   6.051   4.419   2.187 -1.3024  0.7673 -0.1661
 4762TIP3    H214251   6.008   4.274   2.190 -0.7128  0.5990  0.6374
 4763TIP3   OH214252   1.885   3.359   3.284  0.1736  0.1465  0.1006
 4763TIP3    H114253   1.834   3.285   3.318 -0.4683 -0.3576 -1.8348
 4763TIP3    H214254   1.834   3.437   3.307  0.1534 -0.1147  0.9503
 4764TIP3   OH214255   5.395   4.106   5.289  0.0223 -0.5195 -1.1040
 4764TIP3    H114256   5.306   4.109   5.324  1.2751  1.8730  2.4882
 4764TIP3    H214257   5.429   4.195   5.301  3.1479 -1.5113 -1.5013
 4765TIP3   OH214258   4.519   1.450   0.744  0.0278  0.1804 -0.1967
 4765TIP3    H114259   4.512   1.475   0.837 -0.4317 -0.5685 -0.0168
 4765TIP3    H214260   4.608   1.416   0.735 -0.4202 -1.2454  0.3764
 4766TIP3   OH214261   1.635   1.311   5.215  0.1980  1.1994  0.2341
 4766TIP3    H114262   1.646   1.292   5.121 -0.1324 -1.3638  0.6347
 4766TIP3    H214263   1.721   1.296   5.253 -0.4648 -1.9873  0.8504
 4767TIP3   OH214264   3.812   3.402   1.255 -0.7137  0.1846 -0.1538
 4767TIP3    H114265   3.865   3.472   1.291  1.1485  0.5529 -3.2216
 4767TIP3    H214266   3.734   3.445   1.219  0.4334  0.8159 -2.0457
 4768TIP3   OH214267   6.133   0.809   2.261 -0.5480  0.8683 -0.0786
 4768TIP3    H114268   6.065   0.832   2.198 -1.1574  0.1305  0.3057
 4768TIP3    H214269   6.205   0.775   2.207 -0.8517  0.7521 -0.4154
 4769TIP3   OH214270   5.514   1.093   2.126  0.3831  0.1076 -0.2618
 4769TIP3    H114271   5.467   1.172   2.097 -0.5908  0.1018  1.1955
 4769TIP3    H214272   5.605   1.121   2.134  0.2077  0.8273 -0.6758
 4770TIP3   OH214273   1.225   4.697   4.241  0.1087 -0.5669  0.4467
 4770TIP3    H114274   1.188   4.672   4.156 -1.8479 -2.2229  1.7073
 4770TIP3    H214275   1.279   4.622   4.266  2.0766  0.6119 -0.0208
 4771TIP3   OH214276   2.039   2.300   1.540 -0.2575  0.3902 -0.0350
 4771TIP3    H114277   2.029   2.259   1.454 -0.2811  0.4079 -0.0408
 4771TIP3    H214278   2.132   2.291   1.561  0.0304  1.6940 -0.7137
 4772TIP3   OH214279   0.011   0.151   5.592  0.3164 -0.5871  0.3094
 4772TIP3    H114280   0.049   0.195   5.667 -1.0166  0.3362  0.4809
 4772TIP3    H214281   0.078   0.088   5.564  0.8947 -0.8499  2.1545
 4773TIP3   OH214282   0.870   5.583   1.967  0.0781 -0.7180 -0.0605
 4773TIP3    H114283   0.925   5.625   1.901 -0.5208  0.6499  0.2730
 4773TIP3    H214284   0.883   5.489   1.953  2.3778 -0.4529 -0.0503
 4774TIP3   OH214285   6.324   1.975   2.413  0.0120  0.0043 -0.3485
 4774TIP3    H114286   6.418   1.967   2.425 -0.1265 -0.7711  0.3052
 4774TIP3    H214287   6.308   2.070   2.412  0.6401  0.1523  0.9653
 4775TIP3   OH214288   3.725   4.615   5.373  0.2876  0.3248 -0.0281
 4775TIP3    H114289   3.763   4.588   5.290 -0.1293  0.6687 -0.3408
 4775TIP3    H214290   3.791   4.593   5.438 -0.1045 -1.6284 -0.2287
 4776TIP3   OH214291   2.148   4.305   4.857  0.0218 -0.1079 -0.0389
 4776TIP3    H114292   2.053   4.298   4.868  0.1994 -1.2731  0.9375
 4776TIP3    H214293   2.170   4.235   4.796  0.1251  0.9728 -1.2905
 4777TIP3   OH214294   2.553   4.730   4.297  0.0156 -0.3329  0.4309
 4777TIP3    H114295   2.485   4.668   4.270 -1.6486  1.2115  0.8569
 4777TIP3    H214296   2.632   4.677   4.306 -1.1871 -2.2591  0.1783
 4778TIP3   OH214297   1.395   5.543   2.042  0.5869  0.0581  0.1006
 4778TIP3    H114298   1.465   5.601   2.071  1.2159 -0.6433  0.0049
 4778TIP3    H214299   1.404   5.540   1.947 -0.2937  0.8564 -0.0297
 4779TIP3   OH214300   4.710   3.005   2.076  0.1749 -0.1948  0.5732
 4779TIP3    H114301   4.800   3.033   2.092  0.6645 -0.5488 -1.3374
 4779TIP3    H214302   4.662   3.038   2.152  1.3349  2.8208  0.1719
 4780TIP3   OH214303   2.809   5.695   3.743 -0.0867  0.8750  0.1348
 4780TIP3    H114304   2.806   5.654   3.656 -1.2123  1.5699 -0.1888
 4780TIP3    H214305   2.901   5.714   3.757  0.3877 -1.0373 -0.0264
 4781TIP3   OH214306   2.145   1.180   5.524 -0.4192 -0.0436  0.3239
 4781TIP3    H114307   2.062   1.133   5.533 -0.2234 -0.5971 -0.6061
 4781TIP3    H214308   2.120   1.267   5.492 -0.5874 -0.5702 -1.0305
 4782TIP3   OH214309   0.723   4.858   0.142  0.4647  0.0578 -0.0149
 4782TIP3    H114310   0.649   4.919   0.142 -0.8194 -1.4283  1.4483
 4782TIP3    H214311   0.692   4.781   0.094  1.2111 -0.4337  0.2714
 4783TIP3   OH214312   3.196   3.686   5.167  0.1900 -0.6560 -0.8183
 4783TIP3    H114313   3.184   3.765   5.116  1.7713  0.0173 -0.2063
 4783TIP3    H214314   3.201   3.615   5.103  1.3571  0.0773 -1.5686
 4784TIP3   OH214315   5.042   0.343   4.786 -0.1258  0.8541 -0.3215
 4784TIP3    H114316   5.105   0.284   4.828 -1.9012  0.3842  1.8846
 4784TIP3    H214317   5.052   0.426   4.833 -0.1733  1.1972 -0.9112
 4785TIP3   OH214318   4.825   1.880   3.731 -0.4712 -0.9554 -0.3353
 4785TIP3    H114319   4.799   1.819   3.800  0.2393 -1.1959 -0.2742
 4785TIP3    H214320   4.920   1.878   3.731 -0.3489  1.3671  0.7565
 4786TIP3   OH214321   2.065   3.711   3.107 -0.5680  0.5225 -0.7207
 4786TIP3    H114322   2.032   3.736   3.193  0.8477  1.6084 -0.4447
 4786TIP3    H214323   2.012   3.762   3.046 -1.5545 -0.2239 -0.5214
 4787TIP3   OH214324   3.274   3.089   0.946  0.3360  0.8766 -0.1762
 4787TIP3    H114325   3.342   3.042   0.996  1.5971  1.3786 -1.3495
 4787TIP3    H214326   3.231   3.021   0.895  0.4714  0.6580 -0.0066
 4788TIP3   OH214327   4.843   6.397   3.927 -0.1382 -0.1357  0.3951
 4788TIP3    H114328   4.786   6.320   3.919 -1.5452  0.8110  0.9592
 4788TIP3    H214329   4.850   6.431   3.838  1.9287 -1.8553 -0.1805
 4789TIP3   OH214330   2.365   4.858   4.780  0.6715  0.2247 -0.2437
 4789TIP3    H114331   2.448   4.810   4.774  0.2507 -0.3923 -1.3826
 4789TIP3    H214332   2.303   4.793   4.815  0.4703  0.4349 -0.2088
 4790TIP3   OH214333   5.201   1.639   5.542  0.0459 -0.2004  0.7437
 4790TIP3    H114334   5.268   1.574   5.523  1.0827  0.9211  0.4730
 4790TIP3    H214335   5.241   1.723   5.519 -1.1846  0.5602  1.2680
 4791TIP3   OH214336   2.309   0.117   0.251  0.0416 -0.0062 -0.3176
 4791TIP3    H114337   2.236   0.096   0.309  0.7714  1.7066  1.3283
 4791TIP3    H214338   2.366   0.173   0.303  1.3369  0.6825 -2.3388
 4792TIP3   OH214339   4.289   2.299   2.711 -0.0286  0.0551  0.3727
 4792TIP3    H114340   4.378   2.336   2.712 -0.8362  2.1789  1.8299
 4792TIP3    H214341   4.269   2.288   2.618  1.7910 -0.6053  0.0182
 4793TIP3   OH214342   2.235   0.887   4.275 -0.2488  0.3308 -0.0914
 4793TIP3    H114343   2.152   0.867   4.231  0.3958 -0.6470 -0.9014
 4793TIP3    H214344   2.300   0.888   4.204  0.8543 -1.4842  0.8089
 4794TIP3   OH214345   2.675   0.837   0.478  0.0465  0.0917  0.2654
 4794TIP3    H114346   2.696   0.773   0.547  0.5800 -0.2254 -0.1883
 4794TIP3    H214347   2.605   0.891   0.517  0.6017  0.1663  1.2018
 4795TIP3   OH214348   5.066   0.626   2.741  0.3949 -0.3989 -0.2797
 4795TIP3    H114349   5.021   0.549   2.707 -0.7846  0.2477 -0.2234
 4795TIP3    H214350   5.005   0.698   2.726  0.9165  0.3082  0.8844
 4796TIP3   OH214351   2.240   4.846   2.327 -0.4257  0.0003 -0.1982
 4796TIP3    H114352   2.182   4.879   2.396  0.8320  0.9310  0.4488
 4796TIP3    H214353   2.290   4.922   2.299  2.7742 -1.2929  1.5529
 4797TIP3   OH214354   2.350   5.546   2.799  0.2390  0.1017  0.3035
 4797TIP3    H114355   2.382   5.509   2.717 -0.1828  0.4988 -0.0434
 4797TIP3    H214356   2.255   5.532   2.797  0.1902  0.3654  0.5913
 4798TIP3   OH214357   6.885   0.991   0.381 -0.2040  0.1500 -0.5970
 4798TIP3    H114358   6.909   1.006   0.289 -0.6016 -1.0239 -0.9108
 4798TIP3    H214359   6.810   1.048   0.396  1.9981  3.0774  0.0875
 4799TIP3   OH214360   3.043   3.078   0.224  0.2850  0.2384 -0.1337
 4799TIP3    H114361   3.031   2.984   0.215  2.2122 -0.0570  0.1062
 4799TIP3    H214362   3.123   3.088   0.275 -0.8408  2.0111  1.4611
 4800TIP3   OH214363   0.401   3.843   1.103  0.0831  0.2520  0.1434
 4800TIP3    H114364   0.433   3.757   1.131  0.9485  0.1964 -0.9750
 4800TIP3    H214365   0.480   3.896   1.093 -0.2869  0.5887 -1.1106
 4801TIP3   OH214366   4.603   5.608   3.279  0.6421 -0.1353  0.1327
 4801TIP3    H114367   4.534   5.673   3.289  1.3655  0.5839  0.5148
 4801TIP3    H214368   4.586   5.544   3.348  0.3464  0.0152  0.2004
 4802TIP3   OH214369   0.427   1.674   0.557  0.3201 -0.0679 -0.8998
 4802TIP3    H114370   0.505   1.703   0.606  0.9327 -1.4702 -0.9890
 4802TIP3    H214371   0.410   1.585   0.590  0.6436 -0.9978 -3.0728
 4803TIP3   OH214372   6.348   3.128   3.428 -0.1799 -0.7127 -0.0264
 4803TIP3    H114373   6.288   3.189   3.468 -0.8784  0.5569 -2.7555
 4803TIP3    H214374   6.292   3.056   3.397 -0.0194 -0.5948 -0.6181
 4804TIP3   OH214375   6.681   2.500   2.545 -0.0993  0.1780 -0.4028
 4804TIP3    H114376   6.706   2.558   2.616 -1.7209  0.5174 -0.0765
 4804TIP3    H214377   6.748   2.514   2.478 -0.1034  1.9672 -0.0791
 4805TIP3   OH214378   3.993   4.081   4.592 -0.0918  0.0701  0.7958
 4805TIP3    H114379   4.052   4.073   4.667  1.9405 -0.6401 -0.7883
 4805TIP3    H214380   3.914   4.122   4.628  1.5235  1.5143  2.9394
 4806TIP3   OH214381   6.439   1.131   4.923  0.3426  0.2336  0.2265
 4806TIP3    H114382   6.347   1.105   4.936  0.2900 -0.3330 -1.1095
 4806TIP3    H214383   6.444   1.220   4.957 -0.9913  0.6833 -0.6643
 4807TIP3   OH214384   6.134   3.274   4.876 -0.0642 -0.2384  0.3404
 4807TIP3    H114385   6.178   3.354   4.904 -0.6503 -0.2786  1.4430
 4807TIP3    H214386   6.046   3.281   4.913 -0.1124 -1.3999  0.4822
 4808TIP3   OH214387   4.826   6.147   5.573 -0.1099  0.2065 -0.4620
 4808TIP3    H114388   4.749   6.091   5.578 -0.3766  0.6362  0.6559
 4808TIP3    H214389   4.880   6.108   5.505  0.6699 -2.6206  1.5860
 4809TIP3   OH214390   2.005   2.280   4.485 -0.0431 -0.2575 -0.7018
 4809TIP3    H114391   2.007   2.262   4.391  0.2668 -0.6083 -0.6299
 4809TIP3    H214392   2.085   2.329   4.502 -0.0005 -0.3670 -0.5867
 4810TIP3   OH214393   2.319   0.633   1.254 -0.1746  0.1988 -0.4294
 4810TIP3    H114394   2.378   0.667   1.321  0.0120  0.1198 -0.5497
 4810TIP3    H214395   2.245   0.597   1.302 -0.2784  0.5966 -0.2919
 4811TIP3   OH214396   4.007   2.159   5.770 -0.1171 -0.6207  0.7681
 4811TIP3    H114397   4.025   2.066   5.782 -0.3823 -0.5890  1.4380
 4811TIP3    H214398   3.927   2.175   5.821  0.7970  0.3081  1.9581
 4812TIP3   OH214399   3.928   1.361   5.874  0.2713  0.5571 -0.2044
 4812TIP3    H114400   3.886   1.276   5.859  1.8133 -0.4340  0.8013
 4812TIP3    H214401   4.016   1.350   5.839  0.0065  2.3097 -1.5148
 4813TIP3   OH214402   3.707   3.364   1.556  0.1978 -0.3112 -0.0672
 4813TIP3    H114403   3.701   3.268   1.561 -0.2984 -0.2660  0.2045
 4813TIP3    H214404   3.673   3.386   1.470 -0.9056 -0.2805  0.3676
 4814TIP3   OH214405   6.852   1.612   0.453 -0.1972  0.3611 -0.4680
 4814TIP3    H114406   6.841   1.683   0.389  0.1940  0.1755 -0.7437
 4814TIP3    H214407   6.934   1.633   0.498 -0.7408  0.7807  0.3510
 4815TIP3   OH214408   0.726   3.537   0.702 -0.0974  0.7508  0.0319
 4815TIP3    H114409   0.739   3.512   0.611  0.5512 -2.2105  0.8313
 4815TIP3    H214410   0.775   3.619   0.712  1.2910  0.2017 -1.8412
 4816TIP3   OH214411   5.105   0.102   0.900 -0.1028  0.0216 -0.3780
 4816TIP3    H114412   5.126   0.014   0.930 -0.5018 -0.6124 -1.9063
 4816TIP3    H214413   5.190   0.143   0.883  0.0577 -0.7800 -1.6125
 4817TIP3   OH214414   1.789   5.130   2.082 -0.3729  0.1087  0.1029
 4817TIP3    H114415   1.802   5.183   2.161 -1.0569  1.6435 -0.7743
 4817TIP3    H214416   1.851   5.058   2.092  1.9077  1.9997  0.5216
 4818TIP3   OH214417   3.490   5.457   4.487 -0.4946 -0.2309 -0.1456
 4818TIP3    H114418   3.454   5.370   4.469  0.3042 -0.8005  0.8786
 4818TIP3    H214419   3.585   5.444   4.484 -0.3689  0.6797 -0.2860
 4819TIP3   OH214420   4.183   0.474   4.832  0.3444  0.0890  0.2210
 4819TIP3    H114421   4.166   0.563   4.802  3.2810  0.6412 -0.1556
 4819TIP3    H214422   4.198   0.484   4.927 -1.7382 -0.4606  0.6478
 4820TIP3   OH214423   1.023   3.327   5.636 -0.7725  0.0895  0.3233
 4820TIP3    H114424   0.930   3.343   5.620 -0.6456  1.3919  0.7690
 4820TIP3    H214425   1.024   3.253   5.696 -1.5785  0.6284  1.0275
 4821TIP3   OH214426   0.524   2.953   0.394  0.3521  0.0060 -0.5856
 4821TIP3    H114427   0.553   3.030   0.443 -0.5321 -0.7302  1.1534
 4821TIP3    H214428   0.567   2.880   0.437  1.8830 -0.4772 -2.7577
 4822TIP3   OH214429   6.856   3.222   0.502 -0.3414  0.7089 -0.4691
 4822TIP3    H114430   6.897   3.309   0.509 -1.4554  1.1214  1.9894
 4822TIP3    H214431   6.763   3.239   0.516 -0.4435 -0.9797  1.2678
 4823TIP3   OH214432   3.649   3.062   2.368  0.0373 -0.0982  0.0622
 4823TIP3    H114433   3.591   3.032   2.298 -0.3133 -1.7106  0.9900
 4823TIP3    H214434   3.601   3.134   2.410  0.1268  0.6887 -1.1320
 4824TIP3   OH214435   2.771   6.195   3.805  0.0034  0.2412 -0.2658
 4824TIP3    H114436   2.814   6.120   3.846 -0.2722 -1.3000 -2.5994
 4824TIP3    H214437   2.741   6.249   3.878 -1.2133 -2.7271  1.6038
 4825TIP3   OH214438   3.069   4.868   2.817  0.2054 -0.3333 -0.1324
 4825TIP3    H114439   3.122   4.936   2.858  0.9532  1.2315 -3.3325
 4825TIP3    H214440   2.980   4.904   2.816  0.8983  1.7895 -3.5855
 4826TIP3   OH214441   3.068   2.811   1.953 -0.3602 -0.1034  0.1767
 4826TIP3    H114442   3.061   2.794   1.859 -1.1558 -0.5399  0.3086
 4826TIP3    H214443   3.113   2.895   1.959  1.3016 -0.8928 -0.5573
 4827TIP3   OH214444   0.755   2.763   2.924  0.6578  0.2414  0.8133
 4827TIP3    H114445   0.834   2.758   2.979  0.8137 -1.8001  0.4528
 4827TIP3    H214446   0.690   2.806   2.980  1.1079 -0.8767  2.2632
 4828TIP3   OH214447   6.285   3.247   1.012 -0.0472 -0.1607  0.1278
 4828TIP3    H114448   6.240   3.264   0.929 -0.1977 -0.7657  0.0875
 4828TIP3    H214449   6.371   3.289   1.002 -0.2425  0.1744 -0.1506
 4829TIP3   OH214450   2.553   5.737   4.459 -0.1096  0.3630  0.0642
 4829TIP3    H114451   2.496   5.793   4.511 -0.3693  0.7828 -0.6550
 4829TIP3    H214452   2.509   5.730   4.374 -0.6683 -1.8513  0.4724
 4830TIP3   OH214453   2.869   3.843   4.564 -0.0911  0.1624  0.1721
 4830TIP3    H114454   2.896   3.752   4.580 -1.4844  0.2708  4.3611
 4830TIP3    H214455   2.821   3.868   4.643 -1.4096  4.0001 -1.5983
 4831TIP3   OH214456   1.132   1.378   0.511  0.2985  0.3307  0.1678
 4831TIP3    H114457   1.178   1.297   0.488  2.1976  0.8895  1.7629
 4831TIP3    H214458   1.043   1.349   0.531  1.3134 -1.6685  2.2699
 4832TIP3   OH214459   0.322   2.329  -0.017 -0.1753 -0.3180 -0.3993
 4832TIP3    H114460   0.356   2.363   0.066  1.5644 -1.1238 -0.7373
 4832TIP3    H214461   0.236   2.293   0.005  0.9427 -2.0539  1.4746
 4833TIP3   OH214462   0.219   4.547   5.740 -0.6196 -0.1666 -0.6869
 4833TIP3    H114463   0.156   4.604   5.695  0.1651  2.3936  1.2661
 4833TIP3    H214464   0.167   4.503   5.807 -1.1778 -1.6779 -2.0440
 4834TIP3   OH214465   0.446   0.383   4.424 -0.1959 -0.3507 -0.4083
 4834TIP3    H114466   0.513   0.412   4.486 -1.2366 -1.0183  1.0937
 4834TIP3    H214467   0.483   0.404   4.338  1.1849  0.8613  0.4169
 4835TIP3   OH214468   2.552   5.512   2.968 -0.3088  0.3430  0.3034
 4835TIP3    H114469   2.572   5.419   2.978  1.0313  0.4659 -0.8988
 4835TIP3    H214470   2.460   5.515   2.943 -0.0510 -0.7773 -0.8975
 4836TIP3   OH214471   1.801   6.399   0.815  0.7048  0.4454 -0.0706
 4836TIP3    H114472   1.791   6.472   0.876 -0.0147 -0.9038  1.4982
 4836TIP3    H214473   1.716   6.392   0.772  0.7225  0.4205 -0.1015
 4837TIP3   OH214474   6.873   5.243   5.535 -0.1123 -0.6346 -0.7855
 4837TIP3    H114475   6.946   5.205   5.585 -1.0126  0.3874  1.4473
 4837TIP3    H214476   6.915   5.306   5.476  0.8403  0.9089  1.3710
 4838TIP3   OH214477   4.532   1.540   3.284 -0.6281  0.3000 -0.4501
 4838TIP3    H114478   4.459   1.574   3.232 -1.3408 -0.7550 -0.1556
 4838TIP3    H214479   4.530   1.593   3.364 -0.9997  0.3456 -0.4867
 4839TIP3   OH214480   1.146   1.961   0.150 -0.1068 -0.1547  0.3452
 4839TIP3    H114481   1.138   1.977   0.056  0.6627  0.1022  0.3182
 4839TIP3    H214482   1.181   1.872   0.157  1.3933  0.4090  0.3317
 4840TIP3   OH214483   3.085   3.416   3.403 -0.3889  0.7726  0.1379
 4840TIP3    H114484   3.016   3.350   3.400 -1.1638  1.6081 -1.2761
 4840TIP3    H214485   3.163   3.370   3.371 -0.3350 -0.0854  1.4339
 4841TIP3   OH214486   0.172   1.424   5.461  0.4089 -0.4050  0.0859
 4841TIP3    H114487   0.215   1.479   5.526 -0.9690 -0.3098  0.9623
 4841TIP3    H214488   0.240   1.365   5.430  1.1290 -0.3762  1.5486
 4842TIP3   OH214489   4.545   4.605   4.582 -0.1451  0.0241  0.6153
 4842TIP3    H114490   4.495   4.550   4.522 -0.8340  0.0381  1.1710
 4842TIP3    H214491   4.551   4.553   4.662  2.1285 -0.6805  0.0652
 4843TIP3   OH214492   6.527   5.678   5.819 -0.4983 -0.0390 -0.4909
 4843TIP3    H114493   6.586   5.687   5.744 -1.2416 -0.3258 -1.1278
 4843TIP3    H214494   6.442   5.657   5.780 -1.1046  0.6949  0.3763
 4844TIP3   OH214495   6.892   5.521   5.439  0.2196 -0.1258  0.0669
 4844TIP3    H114496   6.831   5.590   5.466  0.1917 -0.4147  0.7750
 4844TIP3    H214497   6.862   5.494   5.353 -0.8299 -0.4506  0.5211
 4845TIP3   OH214498   2.735   1.192   3.381 -0.3166  0.4102  0.5034
 4845TIP3    H114499   2.656   1.209   3.431  0.0713 -1.7498  1.9928
 4845TIP3    H214500   2.803   1.243   3.425 -0.2097 -0.5876  1.5561
 4846TIP3   OH214501   3.976   5.765   1.753  0.4099 -0.0694 -0.1095
 4846TIP3    H114502   4.056   5.799   1.713  0.9240 -1.2968 -0.1760
 4846TIP3    H214503   3.934   5.842   1.792  0.3091  1.0479 -2.2532
 4847TIP3   OH214504   2.144   1.672   2.065 -0.4968  0.0621 -0.1759
 4847TIP3    H114505   2.101   1.588   2.080 -0.4008 -0.2407 -1.5353
 4847TIP3    H214506   2.234   1.658   2.095 -0.1477 -0.7189 -1.5079
 4848TIP3   OH214507   1.273   5.142   2.663  0.6417 -0.6733 -0.5541
 4848TIP3    H114508   1.191   5.163   2.708  0.9117  0.3504 -0.4990
 4848TIP3    H214509   1.272   5.196   2.584  0.2514 -2.3295 -1.7281
 4849TIP3   OH214510   0.601   2.838   4.945 -0.6123 -0.0779 -0.3487
 4849TIP3    H114511   0.648   2.858   5.025 -0.5615  1.9397 -0.8336
 4849TIP3    H214512   0.591   2.743   4.946  2.7756 -0.5673  0.1638
 4850TIP3   OH214513   3.761   3.842   5.567  0.0282  0.0406  0.4756
 4850TIP3    H114514   3.718   3.847   5.652 -1.2175 -0.9864 -0.0643
 4850TIP3    H214515   3.850   3.874   5.583 -0.3509  0.3816  2.0338
 4851TIP3   OH214516   3.089   4.239   1.923  0.7443  0.5765 -0.2434
 4851TIP3    H114517   3.089   4.291   1.842  1.4957 -0.9980 -1.2989
 4851TIP3    H214518   3.116   4.152   1.895  4.4620  0.7684  2.1843
 4852TIP3   OH214519   3.545   2.573   2.169 -0.0743 -0.1671 -0.3621
 4852TIP3    H114520   3.470   2.616   2.211  0.3740  0.2210  0.0524
 4852TIP3    H214521   3.619   2.629   2.190  0.5744 -1.3017  0.4355
 4853TIP3   OH214522   3.177   1.463   2.304  0.1435 -0.3608  0.5126
 4853TIP3    H114523   3.094   1.438   2.263  0.1302  0.6710 -0.1152
 4853TIP3    H214524   3.151   1.512   2.382  0.1422  0.9304 -0.2823
 4854TIP3   OH214525   6.879   6.071   1.382  0.1126 -0.4018 -0.1034
 4854TIP3    H114526   6.879   6.098   1.474 -1.1052  0.7324 -0.4089
 4854TIP3    H214527   6.950   6.122   1.342  1.0980 -1.4085  0.3294
 4855TIP3   OH214528   2.615   6.420   0.263 -0.1914  0.0537 -0.2260
 4855TIP3    H114529   2.639   6.337   0.221 -0.0451  0.3012 -0.6364
 4855TIP3    H214530   2.551   6.395   0.329  0.5720 -0.5136  0.3143
 4856TIP3   OH214531   6.688   1.730   2.623 -0.2126  0.7448  0.1344
 4856TIP3    H114532   6.702   1.653   2.569 -1.2991  0.6465 -0.0093
 4856TIP3    H214533   6.650   1.795   2.564 -0.5521  0.9460  0.5723
 4857TIP3   OH214534   6.401   1.977   1.458 -0.1219 -0.1479 -0.0699
 4857TIP3    H114535   6.358   1.946   1.378 -1.6941 -1.9330  1.3497
 4857TIP3    H214536   6.476   1.918   1.469  0.4999  0.5422 -0.5783
 4858TIP3   OH214537   3.088   1.100   2.123  0.3028 -0.0742 -0.4698
 4858TIP3    H114538   3.160   1.162   2.113 -0.0088  0.6454  1.3539
 4858TIP3    H214539   3.117   1.041   2.192 -0.1555 -0.8586 -0.9384
 4859TIP3   OH214540   4.324   2.663   5.313  0.1292  0.4923  0.6132
 4859TIP3    H114541   4.229   2.676   5.311  0.2587  1.6153 -1.5266
 4859TIP3    H214542   4.345   2.622   5.229  1.5698  0.6116  0.8790
 4860TIP3   OH214543   2.569   3.925   0.606 -0.1581 -0.2998 -0.4803
 4860TIP3    H114544   2.665   3.928   0.616 -0.1894 -1.6578  0.4026
 4860TIP3    H214545   2.544   3.840   0.641 -1.6708 -0.1007 -1.0241
 4861TIP3   OH214546   2.080   4.993   4.952 -0.2464 -0.1700 -0.2581
 4861TIP3    H114547   2.062   4.917   4.897 -0.4577 -0.7343  0.5598
 4861TIP3    H214548   2.154   4.965   5.008  0.6338  0.7391 -0.9248
 4862TIP3   OH214549   4.047   3.889   0.990  0.2887  1.0348  0.3558
 4862TIP3    H114550   4.014   3.802   0.968  0.5394  1.0090  0.0678
 4862TIP3    H214551   4.132   3.873   1.031  0.5526  1.1634 -0.1302
 4863TIP3   OH214552   0.807   5.264   4.043  0.4152 -0.4813 -0.0290
 4863TIP3    H114553   0.760   5.339   4.008 -1.4195 -1.9952 -0.9360
 4863TIP3    H214554   0.802   5.275   4.138  0.2158  0.5512 -0.1503
 4864TIP3   OH214555   0.999   3.728   1.962  0.6837  0.0234  0.3496
 4864TIP3    H114556   1.008   3.747   1.868  1.2399 -2.0310 -0.0671
 4864TIP3    H214557   1.089   3.718   1.993  0.4632 -0.7114  0.7743
 4865TIP3   OH214558   4.791   2.907   1.514  0.1234  0.3370  0.0186
 4865TIP3    H114559   4.842   2.963   1.456 -1.0366  0.3113 -1.0725
 4865TIP3    H214560   4.700   2.935   1.500 -0.2931 -0.4817  0.9478
 4866TIP3   OH214561   4.221   2.539   0.517 -0.1792  0.5368 -0.1920
 4866TIP3    H114562   4.162   2.528   0.591 -0.1192  0.6963 -0.1179
 4866TIP3    H214563   4.258   2.453   0.503 -1.0620  0.2469 -0.7807
 4867TIP3   OH214564   6.855   5.729   3.856  0.5591 -0.1420  0.1519
 4867TIP3    H114565   6.819   5.650   3.814 -1.3688  0.5182  0.4646
 4867TIP3    H214566   6.949   5.725   3.838  0.2155 -1.4273 -1.6468
 4868TIP3   OH214567   0.998   2.638   4.796  0.5436 -0.2701  0.2462
 4868TIP3    H114568   0.997   2.554   4.750  1.1540 -0.6264  0.8734
 4868TIP3    H214569   0.981   2.615   4.888  0.4896  0.3163  0.3843
 4869TIP3   OH214570   2.630   4.291   2.758  0.0116  0.0714 -0.2638
 4869TIP3    H114571   2.661   4.379   2.778 -0.1822  0.5505 -1.9336
 4869TIP3    H214572   2.547   4.283   2.806  0.4518  0.4595  0.5842
 4870TIP3   OH214573   1.802   6.147   5.128  0.4332  0.3469 -0.6180
 4870TIP3    H114574   1.748   6.226   5.135 -0.0944 -0.0738  0.1967
 4870TIP3    H214575   1.740   6.075   5.131  0.8102 -0.1122 -2.4361
 4871TIP3   OH214576   4.363   0.357   5.231 -0.3938 -0.3538  0.0471
 4871TIP3    H114577   4.374   0.271   5.272  0.8493 -0.1593  0.1743
 4871TIP3    H214578   4.437   0.408   5.264 -0.0323  0.1675 -1.5046
 4872TIP3   OH214579   5.004   4.712   4.997 -0.1628 -0.1200  0.0893
 4872TIP3    H114580   4.910   4.707   5.014  0.2564 -0.0542  3.0582
 4872TIP3    H214581   5.019   4.802   4.969 -0.9203  0.0563  0.2368
 4873TIP3   OH214582   4.320   4.146   1.201 -0.2337 -0.2703 -0.4994
 4873TIP3    H114583   4.299   4.181   1.288  2.0756 -0.4774  0.2219
 4873TIP3    H214584   4.297   4.217   1.141  0.2152  0.7841  0.5182
 4874TIP3   OH214585   2.485   6.028   1.166  0.3506 -0.4972 -0.2484
 4874TIP3    H114586   2.497   6.033   1.261  1.3575 -1.5665 -0.2855
 4874TIP3    H214587   2.473   6.119   1.138 -1.7675 -0.2946  1.0860
 4875TIP3   OH214588   0.333   1.616   5.567 -0.3033 -0.2435 -0.3006
 4875TIP3    H114589   0.327   1.647   5.477 -0.2377  1.3563  0.2204
 4875TIP3    H214590   0.344   1.695   5.619 -2.2232 -0.9585  1.2977
 4876TIP3   OH214591   0.302   2.613   1.982 -0.1747  0.1154  0.1096
 4876TIP3    H114592   0.324   2.702   1.953  1.0032 -0.0805  0.3741
 4876TIP3    H214593   0.209   2.603   1.959 -0.7288  1.9154  1.3345
 4877TIP3   OH214594   3.977   2.774   4.960  0.8935  0.4713 -0.0843
 4877TIP3    H114595   4.048   2.831   4.989  0.5847 -0.3354  2.5865
 4877TIP3    H214596   4.007   2.686   4.983 -0.6576  0.0608  0.5027
 4878TIP3   OH214597   2.119   0.512   5.131 -0.0997 -0.4809 -0.2586
 4878TIP3    H114598   2.044   0.531   5.074 -0.0598  0.0135 -0.1556
 4878TIP3    H214599   2.191   0.561   5.092 -0.0854 -0.0877  0.2493
 4879TIP3   OH214600   2.657   3.073   3.435  0.6694 -0.0861  0.0618
 4879TIP3    H114601   2.615   3.070   3.349 -2.2959  0.3305  1.3520
 4879TIP3    H214602   2.742   3.113   3.420  0.2974 -0.1906 -2.6847
 4880TIP3   OH214603   3.054   5.297   5.368  0.2403 -0.2450  0.0579
 4880TIP3    H114604   3.070   5.211   5.406 -2.4040 -0.5011  0.8298
 4880TIP3    H214605   2.979   5.285   5.310 -1.0168  1.7050  1.1410
 4881TIP3   OH214606   4.626   2.321   5.924  0.4845  0.2741  0.5853
 4881TIP3    H114607   4.589   2.399   5.884 -1.2597  0.2874  2.0989
 4881TIP3    H214608   4.613   2.252   5.858 -0.2813  0.7419  0.2322
 4882TIP3   OH214609   3.175   3.947   5.562 -0.0526 -0.2315 -0.0077
 4882TIP3    H114610   3.208   3.858   5.552  1.4811  0.3754 -0.6355
 4882TIP3    H214611   3.253   4.001   5.575 -1.0854  0.7286  3.1962
 4883TIP3   OH214612   3.976   3.804   1.625 -0.3748  0.2403  0.5647
 4883TIP3    H114613   3.930   3.724   1.649 -0.4121  1.0509  3.7428
 4883TIP3    H214614   3.907   3.867   1.604 -0.4807  0.0916  0.4736
 4884TIP3   OH214615   4.673   5.905   3.906 -0.4462 -0.4764 -0.1702
 4884TIP3    H114616   4.604   5.878   3.967 -0.0609 -2.0754 -0.3960
 4884TIP3    H214617   4.710   5.823   3.873  0.3539  0.3451 -1.4383
 4885TIP3   OH214618   3.962   1.436   0.851  0.6029 -0.0041 -0.5892
 4885TIP3    H114619   4.021   1.458   0.778  0.2965  2.5954 -0.1626
 4885TIP3    H214620   3.875   1.457   0.818  0.4095  0.6926  0.3221
 4886TIP3   OH214621   0.088   6.710   0.224  0.0462 -0.8799 -0.3684
 4886TIP3    H114622   0.046   6.790   0.256 -0.4009 -1.0575 -0.5056
 4886TIP3    H214623   0.171   6.741   0.185  0.0242 -0.5236 -0.1377
 4887TIP3   OH214624   1.226   1.814   0.524  0.1104 -0.5034  0.4963
 4887TIP3    H114625   1.151   1.846   0.575  0.3757  0.6849  0.1788
 4887TIP3    H214626   1.252   1.733   0.567 -1.4323 -1.0127  0.5480
 4888TIP3   OH214627   5.228   4.060   1.227  0.1987 -0.2026  0.3134
 4888TIP3    H114628   5.231   4.142   1.179  1.8823 -0.1515  0.4477
 4888TIP3    H214629   5.172   4.003   1.175  0.1609  0.5809 -0.5196
 4889TIP3   OH214630   7.182   3.535   2.140  0.1833 -0.4147  0.1577
 4889TIP3    H114631   7.155   3.503   2.226 -0.4979 -1.1509 -0.3149
 4889TIP3    H214632   7.162   3.629   2.142  0.3847 -0.3824  0.8719
 4890TIP3   OH214633   4.290   5.172   0.445 -0.4476 -0.0686 -0.0219
 4890TIP3    H114634   4.302   5.166   0.350  0.2863  3.4697 -0.3129
 4890TIP3    H214635   4.379   5.174   0.480 -0.6542  0.8705  0.4773
 4891TIP3   OH214636   3.679   0.953   0.768 -0.2513 -0.4602 -0.6983
 4891TIP3    H114637   3.714   1.028   0.817 -0.4445 -0.7905 -0.0502
 4891TIP3    H214638   3.593   0.938   0.807 -1.2264  0.4412 -2.3603
 4892TIP3   OH214639   5.837   6.363   2.553  0.0432  0.8406 -1.1093
 4892TIP3    H114640   5.929   6.367   2.577  0.5085 -1.2431 -2.2962
 4892TIP3    H214641   5.817   6.451   2.519  2.1883  0.7798 -2.7473
 4893TIP3   OH214642   7.160   6.713   3.341 -0.2784 -0.8779 -0.2710
 4893TIP3    H114643   7.210   6.710   3.423 -0.2162  1.9928 -0.1130
 4893TIP3    H214644   7.070   6.692   3.366 -0.8096  2.5503  1.1314
 4894TIP3   OH214645   3.354   2.034   1.632  0.5938  0.4677 -0.5699
 4894TIP3    H114646   3.353   2.130   1.623  0.6535  0.5594  0.2923
 4894TIP3    H214647   3.264   2.007   1.616  0.2364  0.8343  0.6711
 4895TIP3   OH214648   4.879   2.470   2.310  0.5687 -0.1349 -0.0814
 4895TIP3    H114649   4.850   2.420   2.234 -0.6857  1.0708 -0.4634
 4895TIP3    H214650   4.883   2.561   2.279  1.6807  0.1646  0.8571
 4896TIP3   OH214651   0.150   4.442   4.971  0.0155  0.1935  0.0137
 4896TIP3    H114652   0.164   4.418   5.063 -0.4638  1.3514  0.4040
 4896TIP3    H214653   0.178   4.364   4.922  3.4175  0.6471  0.9378
 4897TIP3   OH214654   7.073   5.403   4.595 -0.0634 -0.0650  0.4628
 4897TIP3    H114655   7.043   5.413   4.505 -0.4131  3.3246  0.8029
 4897TIP3    H214656   7.169   5.396   4.588 -0.0085  1.0895 -0.1916
 4898TIP3   OH214657   2.185   5.089   1.941  0.2576  0.0641  0.5790
 4898TIP3    H114658   2.152   5.000   1.928  0.8667 -0.5741  2.9896
 4898TIP3    H214659   2.130   5.125   2.011  0.5325  1.3054  0.1856
 4899TIP3   OH214660   0.428   2.177   1.055 -0.0833 -0.1553  0.1894
 4899TIP3    H114661   0.496   2.145   0.996 -0.3411 -0.0270 -0.1799
 4899TIP3    H214662   0.360   2.109   1.053 -0.8284  0.5873 -0.9319
 4900TIP3   OH214663   2.736   0.380   3.639  0.2282 -0.0934 -0.4099
 4900TIP3    H114664   2.666   0.444   3.624  0.1924  0.1424  0.6497
 4900TIP3    H214665   2.774   0.407   3.723  1.1529 -0.6215 -0.6538
 4901TIP3   OH214666   2.575   4.676   3.450  0.7058  0.0275  0.1662
 4901TIP3    H114667   2.517   4.601   3.464  0.7304  0.1062  0.7118
 4901TIP3    H214668   2.662   4.638   3.442  1.0260  0.1095  2.4898
 4902TIP3   OH214669   2.440   1.777   2.506  0.2207  0.3553 -0.1977
 4902TIP3    H114670   2.376   1.722   2.552  1.3387 -0.4493  0.4585
 4902TIP3    H214671   2.387   1.845   2.464 -1.1163 -0.6411 -0.2057
 4903TIP3   OH214672   6.609   6.232   2.144  0.2006  0.6133  0.2197
 4903TIP3    H114673   6.625   6.206   2.053  0.5972 -1.3976  0.8081
 4903TIP3    H214674   6.587   6.325   2.139  1.7231  0.9363 -1.7633
 4904TIP3   OH214675   0.567   6.408   1.694  0.8123 -0.2765 -0.4058
 4904TIP3    H114676   0.557   6.321   1.733  1.1032  0.4515  1.4116
 4904TIP3    H214677   0.534   6.468   1.761  0.6466  1.0296 -1.6072
 4905TIP3   OH214678   6.735   4.276   5.093  0.4314  0.7817 -0.2970
 4905TIP3    H114679   6.650   4.289   5.050 -0.2957 -1.5277  0.3473
 4905TIP3    H214680   6.732   4.334   5.170 -1.0584 -0.0870  0.3402
 4906TIP3   OH214681   1.750   6.112   1.973 -0.0230  0.1180 -0.2968
 4906TIP3    H114682   1.749   6.109   2.068 -0.8866 -0.4786 -0.3110
 4906TIP3    H214683   1.795   6.194   1.952 -0.7069  0.7552  0.6391
 4907TIP3   OH214684   6.401   1.654   4.910 -0.0916 -0.9270 -0.0500
 4907TIP3    H114685   6.337   1.720   4.881 -0.0512 -1.6077 -1.7921
 4907TIP3    H214686   6.472   1.706   4.949 -0.1710  0.0552 -1.1548
 4908TIP3   OH214687   5.464   0.657   3.636 -0.0654 -0.6553  0.4456
 4908TIP3    H114688   5.395   0.707   3.681 -0.9458 -0.5784 -0.9515
 4908TIP3    H214689   5.544   0.706   3.656 -0.6667  0.3384  0.5408
 4909TIP3   OH214690   1.650   2.442   2.200  0.1731 -0.2448 -0.0923
 4909TIP3    H114691   1.688   2.402   2.122  0.9285  0.4333 -0.0872
 4909TIP3    H214692   1.655   2.374   2.267 -0.0845 -0.6882 -0.5194
 4910TIP3   OH214693   3.124   5.895   2.891  1.1318  0.5255  0.1671
 4910TIP3    H114694   3.185   5.826   2.920  0.0600  0.1587  1.6870
 4910TIP3    H214695   3.070   5.852   2.825  2.2229  0.7407 -0.9085
 4911TIP3   OH214696   2.861   0.873   4.534  0.1070  0.8361  0.2249
 4911TIP3    H114697   2.769   0.850   4.524  0.1545  0.6763  0.1456
 4911TIP3    H214698   2.864   0.967   4.518 -0.3502  1.2261  2.2549
 4912TIP3   OH214699   7.179   2.319   3.774 -0.0807 -0.0852  0.1563
 4912TIP3    H114700   7.157   2.343   3.684 -0.3936 -0.8980  0.0092
 4912TIP3    H214701   7.250   2.255   3.766  0.8196  0.8309  0.5475
 4913TIP3   OH214702   5.775   4.280   1.429  0.3758  0.3662  0.4199
 4913TIP3    H114703   5.812   4.217   1.491  0.7219 -0.1842 -0.3319
 4913TIP3    H214704   5.801   4.247   1.343  0.6693  1.6180  0.0180
 4914TIP3   OH214705   5.263   0.792   4.877  0.4810  0.4429 -0.1641
 4914TIP3    H114706   5.338   0.735   4.890  1.2420  1.9022  2.7741
 4914TIP3    H214707   5.230   0.770   4.790  3.2020 -1.5014 -0.8185
 4915TIP3   OH214708   0.425   5.880   1.157 -0.3156  0.1465  0.2142
 4915TIP3    H114709   0.367   5.836   1.095  0.1704  2.4991 -2.0512
 4915TIP3    H214710   0.403   5.973   1.150  3.6276  1.2087 -0.8290
 4916TIP3   OH214711   0.050   2.795   3.710  0.4386 -0.0338  0.0866
 4916TIP3    H114712   0.114   2.766   3.645  1.2227 -0.6663  1.1046
 4916TIP3    H214713  -0.020   2.731   3.707  0.7482 -0.3843  0.2503
 4917TIP3   OH214714   0.785   5.510   5.181 -0.7067 -0.1035 -0.9367
 4917TIP3    H114715   0.797   5.537   5.090  0.3681 -0.4433 -0.9070
 4917TIP3    H214716   0.694   5.533   5.201 -0.7820  0.5043 -1.9115
 4918TIP3   OH214717   1.051   5.660   0.043  0.3168  0.6636 -0.0147
 4918TIP3    H114718   1.146   5.648   0.047  0.5821  1.0324 -2.8703
 4918TIP3    H214719   1.015   5.578   0.077  1.7669 -0.8421 -1.8585
 4919TIP3   OH214720   0.553   5.840   4.886 -0.5340  0.2399 -0.0543
 4919TIP3    H114721   0.553   5.869   4.794  2.7595 -0.4564 -0.4021
 4919TIP3    H214722   0.533   5.919   4.936 -0.0797  1.2027 -1.3258
 4920TIP3   OH214723   4.578   5.305   1.914  0.1434  0.0207  0.2382
 4920TIP3    H114724   4.651   5.254   1.881  0.8367 -0.7447  2.7259
 4920TIP3    H214725   4.570   5.379   1.853  2.7290 -0.0646 -0.3028
 4921TIP3   OH214726   5.799   1.722   0.185 -0.0894 -0.1887  0.3388
 4921TIP3    H114727   5.893   1.706   0.184 -0.1809 -1.1807 -2.6222
 4921TIP3    H214728   5.790   1.809   0.226  2.1837  0.3251 -0.1237
 4922TIP3   OH214729   4.305   4.682   2.379  0.2405 -0.2564 -0.2564
 4922TIP3    H114730   4.327   4.590   2.367 -1.0493 -0.6326  0.1744
 4922TIP3    H214731   4.367   4.729   2.323  0.2725 -1.4355 -1.2288
 4923TIP3   OH214732   6.323   1.322   1.421  0.3690 -0.3419 -0.1007
 4923TIP3    H114733   6.346   1.409   1.454 -0.2113 -0.1975 -0.0767
 4923TIP3    H214734   6.277   1.338   1.339  1.2002 -0.6749 -0.6443
 4924TIP3   OH214735   4.070   2.067   1.580 -0.3375 -0.3628 -0.0682
 4924TIP3    H114736   4.014   2.040   1.652 -0.4682 -1.4055 -0.5337
 4924TIP3    H214737   4.155   2.025   1.598 -0.6981 -1.5757 -1.0815
 4925TIP3   OH214738   1.596   2.821   4.878 -0.2050  0.0882 -0.0968
 4925TIP3    H114739   1.546   2.809   4.798  1.6289 -2.4804 -0.9727
 4925TIP3    H214740   1.531   2.817   4.948 -1.4728 -1.0764 -1.2949
 4926TIP3   OH214741   2.723   6.121   2.510  0.6001 -0.3416  0.2457
 4926TIP3    H114742   2.683   6.194   2.462  0.7136 -0.4704 -0.0476
 4926TIP3    H214743   2.649   6.070   2.543  0.5179  0.0696  0.7050
 4927TIP3   OH214744   0.044   4.735   4.282  0.4603  0.0738 -0.0922
 4927TIP3    H114745   0.006   4.820   4.304 -0.8731 -0.5058 -0.1059
 4927TIP3    H214746   0.133   4.739   4.318 -1.0323 -0.2688  4.2531
 4928TIP3   OH214747   5.173   4.569   4.462  0.1035 -0.0188  0.0568
 4928TIP3    H114748   5.150   4.619   4.384 -0.4688 -1.8853 -1.0220
 4928TIP3    H214749   5.138   4.621   4.534 -0.3305  1.2031 -0.9961
 4929TIP3   OH214750   1.206   2.953   4.803 -0.2580 -0.0630 -0.2271
 4929TIP3    H114751   1.205   3.021   4.869  0.4119 -0.4050  0.1502
 4929TIP3    H214752   1.152   2.987   4.732 -3.2329 -0.7878  1.5260
 4930TIP3   OH214753   4.811   0.058   2.948  0.5423 -0.3662 -0.1515
 4930TIP3    H114754   4.766  -0.027   2.940  1.4686 -0.7873 -1.0169
 4930TIP3    H214755   4.904   0.036   2.946  0.8082  0.5437  1.1725
 4931TIP3   OH214756   4.839   5.546   4.794  0.5907  0.0744  0.4652
 4931TIP3    H114757   4.919   5.494   4.799  0.2939 -0.6039 -1.2106
 4931TIP3    H214758   4.834   5.575   4.703  0.4525  2.6386  1.1960
 4932TIP3   OH214759   4.855   0.944   1.551 -0.4064  0.5972 -0.3260
 4932TIP3    H114760   4.817   0.878   1.493  0.0012  0.1823 -0.1284
 4932TIP3    H214761   4.798   1.020   1.542 -0.3944  0.5119 -1.2091
 4933TIP3   OH214762   5.673   5.181   5.320  0.1136  0.9474 -0.1888
 4933TIP3    H114763   5.740   5.126   5.361  0.6193  0.5516 -1.4942
 4933TIP3    H214764   5.702   5.271   5.336  0.2344  0.8113  0.3914
 4934TIP3   OH214765   6.100   0.569   0.700 -0.0843 -0.2224  0.4580
 4934TIP3    H114766   6.087   0.590   0.793 -0.5389  0.5116  0.2407
 4934TIP3    H214767   6.182   0.613   0.677 -0.2358  0.0308  0.3916
 4935TIP3   OH214768   0.996   1.716   0.680  0.7480  0.1562  0.1038
 4935TIP3    H114769   1.016   1.627   0.707  1.3589  0.1293 -0.4227
 4935TIP3    H214770   1.011   1.769   0.758 -1.2150 -0.3830  0.9137
 4936TIP3   OH214771   1.287   6.060   1.681  0.0059  0.6385  0.1728
 4936TIP3    H114772   1.336   6.062   1.762 -0.4526 -1.0031  0.5144
 4936TIP3    H214773   1.235   6.141   1.683  0.0077  0.6282  1.4949
 4937TIP3   OH214774   3.516   2.204   4.813 -0.8738  0.4728  0.6868
 4937TIP3    H114775   3.573   2.199   4.736 -1.6354  2.2987 -0.0440
 4937TIP3    H214776   3.452   2.271   4.791 -1.8186  0.2134  2.4781
 4938TIP3   OH214777   1.871   3.062   4.028 -0.2643  0.0680  0.3094
 4938TIP3    H114778   1.874   3.026   3.939 -1.4123 -0.4189  0.4617
 4938TIP3    H214779   1.895   3.154   4.016  0.9973 -0.3025 -0.3029
 4939TIP3   OH214780   2.857   6.080   0.526 -0.0624  0.0018 -0.1055
 4939TIP3    H114781   2.939   6.034   0.506 -0.3338  0.2380 -1.9354
 4939TIP3    H214782   2.864   6.102   0.619  2.1976  0.4887 -0.3290
 4940TIP3   OH214783   3.872   4.202   5.024 -0.4374 -0.0985 -0.0613
 4940TIP3    H114784   3.821   4.277   5.055 -1.4804  0.1096 -2.0641
 4940TIP3    H214785   3.853   4.132   5.086 -3.5108 -0.1078 -0.8342
 4941TIP3   OH214786   0.114   0.159   4.986  0.4653  0.2781  0.2949
 4941TIP3    H114787   0.178   0.092   5.011 -0.5913 -0.6829  0.5292
 4941TIP3    H214788   0.099   0.209   5.066  1.5444  1.0508  0.0210
 4942TIP3   OH214789   6.808   5.010   1.920 -0.4955  0.2120  0.0756
 4942TIP3    H114790   6.839   5.093   1.956 -0.0389  1.7604 -3.4688
 4942TIP3    H214791   6.717   5.027   1.895 -0.0935  0.0576 -1.6191
 4943TIP3   OH214792   2.329   2.388   3.129  0.0876  0.2623 -0.1770
 4943TIP3    H114793   2.387   2.362   3.201 -0.7527  1.1952  0.8615
 4943TIP3    H214794   2.362   2.339   3.053  1.1514 -0.5413  0.7721
 4944TIP3   OH214795   3.810   2.253   4.145 -0.7238  0.2345  0.1288
 4944TIP3    H114796   3.833   2.281   4.234  1.0093  2.2689 -0.8385
 4944TIP3    H214797   3.894   2.226   4.106 -1.0444  1.3689 -1.4836
 4945TIP3   OH214798   3.278   0.275   1.229 -0.3356 -0.2250 -0.1572
 4945TIP3    H114799   3.274   0.303   1.138 -0.4942  1.1189  0.2504
 4945TIP3    H214800   3.265   0.180   1.225  0.2750 -0.2748 -1.5775
 4946TIP3   OH214801   3.948   2.080   1.311  0.0741 -0.1327 -0.0300
 4946TIP3    H114802   3.995   2.003   1.278 -1.3160 -1.7700  1.6562
 4946TIP3    H214803   3.955   2.074   1.406 -0.4144  1.6358  0.1561
 4947TIP3   OH214804   1.812   4.136   1.914  0.1574  0.3709 -0.2367
 4947TIP3    H114805   1.721   4.153   1.891 -0.1547  0.3845  0.9809
 4947TIP3    H214806   1.825   4.043   1.891 -0.6910 -0.1284  1.2243
 4948TIP3   OH214807   1.823   2.290   5.010  0.8750  0.7805  0.9762
 4948TIP3    H114808   1.860   2.364   5.058 -0.4524  1.5125  0.9178
 4948TIP3    H214809   1.750   2.327   4.961  0.3654 -0.5233  0.7031
 4949TIP3   OH214810   4.769   1.482   1.255 -0.2714  0.5403  0.0676
 4949TIP3    H114811   4.775   1.459   1.348 -0.3479  1.2809  0.2575
 4949TIP3    H214812   4.780   1.398   1.209  0.2480  0.2421  0.7272
 4950TIP3   OH214813   6.195   2.941   4.276 -0.1610  0.0165  0.6086
 4950TIP3    H114814   6.200   2.846   4.272 -0.4478  0.0045  0.4866
 4950TIP3    H214815   6.103   2.961   4.258 -0.1989  0.2919  1.0716
 4951TIP3   OH214816   7.054   3.560   4.952  0.6760 -0.1496  0.2130
 4951TIP3    H114817   6.991   3.604   5.010  0.6522 -0.9215  0.7826
 4951TIP3    H214818   7.071   3.624   4.883 -0.8433  0.0281 -0.0341
 4952TIP3   OH214819   2.146   2.559   4.630 -0.5131 -0.3535 -0.2368
 4952TIP3    H114820   2.217   2.548   4.694 -1.1388 -2.8733  0.1077
 4952TIP3    H214821   2.070   2.585   4.682 -0.4323  0.0411 -0.3087
 4953TIP3   OH214822   5.612   3.421   0.834 -0.0355  0.3905 -0.1602
 4953TIP3    H114823   5.562   3.477   0.774 -0.5087 -1.2254 -1.3486
 4953TIP3    H214824   5.571   3.335   0.826  1.5579 -0.4705  0.5037
 4954TIP3   OH214825   4.715   0.233   3.842  0.7379  0.2839  0.0372
 4954TIP3    H114826   4.716   0.321   3.804 -1.5071  0.3499 -0.0093
 4954TIP3    H214827   4.704   0.175   3.767  2.8140 -0.1590  0.0004
 4955TIP3   OH214828   3.400   5.613   5.791  0.4732 -0.2652 -0.6106
 4955TIP3    H114829   3.384   5.647   5.703  1.1046  1.5194 -0.0883
 4955TIP3    H214830   3.317   5.629   5.838  0.3913 -0.4942 -0.6796
 4956TIP3   OH214831   2.443   5.959   4.577 -0.4280  0.2385  0.6945
 4956TIP3    H114832   2.403   6.030   4.527  0.3754 -0.3133 -0.7910
 4956TIP3    H214833   2.499   6.003   4.641  0.3472  0.9574 -0.4468
 4957TIP3   OH214834   3.874   6.774   1.794 -0.3792 -0.3484 -0.4764
 4957TIP3    H114835   3.914   6.725   1.722 -0.0444 -0.8938  0.0774
 4957TIP3    H214836   3.946   6.829   1.828 -0.7081  0.4150 -0.9854
 4958TIP3   OH214837   2.760   2.578   5.598  0.2413 -0.1507 -0.0835
 4958TIP3    H114838   2.777   2.504   5.656  0.5784  0.2221  0.3021
 4958TIP3    H214839   2.774   2.655   5.654 -2.2410  0.2087  0.1395
 4959TIP3   OH214840   6.039   1.500   0.522 -0.2462 -0.1163  0.0889
 4959TIP3    H114841   6.022   1.424   0.467 -0.2462 -0.8496  1.0744
 4959TIP3    H214842   6.129   1.525   0.500 -0.1365 -0.5947 -0.0156
 4960TIP3   OH214843   0.494   2.759   5.333  0.7877  0.5035  0.3302
 4960TIP3    H114844   0.567   2.822   5.337 -1.3755  3.3297 -0.9075
 4960TIP3    H214845   0.443   2.775   5.412 -0.1497  0.8643 -0.3223
 4961TIP3   OH214846   6.318   3.057   3.020 -0.0907  0.1511  0.4900
 4961TIP3    H114847   6.355   3.117   2.955 -0.5932  0.9787  0.9423
 4961TIP3    H214848   6.262   3.113   3.074 -1.8986 -1.0113 -0.0948
 4962TIP3   OH214849   3.591   4.094   1.546  0.0915 -0.1401 -0.1544
 4962TIP3    H114850   3.549   4.120   1.628 -0.0319 -3.1173  0.8502
 4962TIP3    H214851   3.541   4.138   1.478 -2.1394 -0.4251  1.2018
 4963TIP3   OH214852   4.074   2.112   2.269 -0.2940  0.4108  0.2253
 4963TIP3    H114853   4.097   2.026   2.233 -0.3257  0.6084 -0.2743
 4963TIP3    H214854   4.011   2.093   2.338  1.3886 -0.1677  1.7059
 4964TIP3   OH214855   6.041   6.491   4.191  0.0357 -0.4959  0.4981
 4964TIP3    H114856   6.073   6.469   4.104 -0.2222  3.2192 -0.7233
 4964TIP3    H214857   5.948   6.472   4.188 -0.3899  1.4290 -0.8795
 4965TIP3   OH214858   5.901   2.271   4.915  0.4442 -0.2652  0.1721
 4965TIP3    H114859   5.807   2.269   4.895  0.2830  1.4334  0.6382
 4965TIP3    H214860   5.905   2.259   5.009  0.5898  1.0669  0.3467
 4966TIP3   OH214861   0.924   0.164   1.391  0.1664 -0.0111 -0.0759
 4966TIP3    H114862   1.006   0.166   1.441  1.0925  0.0977 -1.5368
 4966TIP3    H214863   0.856   0.161   1.457  1.3067  1.1520  1.2217
 4967TIP3   OH214864   6.017   6.344   1.725 -0.1572 -0.0908 -0.0279
 4967TIP3    H114865   5.989   6.308   1.809 -0.2197 -1.3582 -0.5719
 4967TIP3    H214866   5.939   6.387   1.690 -0.5770 -0.9464 -0.1560
 4968TIP3   OH214867   3.870   1.643   5.745  0.3118 -0.4169  0.4059
 4968TIP3    H114868   3.901   1.602   5.664 -0.1910 -1.4788  0.7193
 4968TIP3    H214869   3.866   1.570   5.807 -0.8899  0.0594  0.9145
 4969TIP3   OH214870   5.580   3.983   5.432 -0.0658 -0.0784 -0.2156
 4969TIP3    H114871   5.529   4.027   5.364 -1.3003  0.9438  1.3007
 4969TIP3    H214872   5.587   4.048   5.502  3.7600  0.0316 -0.4852
 4970TIP3   OH214873   0.501   4.300   3.106  0.6913  0.3019 -0.4022
 4970TIP3    H114874   0.418   4.343   3.127  0.0206 -1.4559  0.6937
 4970TIP3    H214875   0.530   4.343   3.025 -0.5923  1.8597 -0.0917
 4971TIP3   OH214876   5.096   5.765   0.647  0.1589  0.0155  0.4699
 4971TIP3    H114877   5.007   5.744   0.674 -0.6901  0.1436 -1.9411
 4971TIP3    H214878   5.106   5.858   0.668  1.2607 -0.8227  4.3779
 4972TIP3   OH214879   4.974   1.122   1.709 -0.0267  0.1542  0.5606
 4972TIP3    H114880   4.938   1.041   1.674  2.0062 -1.2912  1.6164
 4972TIP3    H214881   4.946   1.123   1.801  0.8494  0.0888  0.8321
 4973TIP3   OH214882   4.756   5.164   1.212 -0.2177 -0.3117 -0.7744
 4973TIP3    H114883   4.807   5.220   1.270 -0.7001 -0.8477  0.1835
 4973TIP3    H214884   4.817   5.140   1.142  0.3499  0.3925 -0.5302
 4974TIP3   OH214885   2.581   2.046   3.221  0.3277 -0.3848  0.4380
 4974TIP3    H114886   2.656   2.092   3.259  1.2025 -1.1496 -0.3094
 4974TIP3    H214887   2.599   2.045   3.127  0.1679 -1.9116  0.3929
 4975TIP3   OH214888   5.202   0.801   3.445  0.1435  0.3520 -0.4879
 4975TIP3    H114889   5.171   0.741   3.513  2.0070 -0.1816 -0.0541
 4975TIP3    H214890   5.182   0.756   3.363  0.2264 -0.2036 -0.2069
 4976TIP3   OH214891   2.685   3.412   2.736 -0.3246 -0.3575  0.2259
 4976TIP3    H114892   2.652   3.373   2.655  1.6416  0.2733 -0.9371
 4976TIP3    H214893   2.766   3.366   2.754  0.2536  0.8239  0.7542
 4977TIP3   OH214894   2.936   0.498   5.901 -0.2385  0.1138  0.3648
 4977TIP3    H114895   2.948   0.419   5.848 -1.6115 -0.2694  0.5850
 4977TIP3    H214896   2.948   0.570   5.839 -1.1862 -0.3224 -0.3578
 4978TIP3   OH214897   2.109   4.576   1.354  0.4309 -0.3380 -0.1129
 4978TIP3    H114898   2.132   4.506   1.292 -1.4149 -0.8091 -0.3274
 4978TIP3    H214899   2.021   4.554   1.382  0.8902  0.3677  2.0377
 4979TIP3   OH214900   1.491   5.899   2.514 -0.2063  0.2052  0.4271
 4979TIP3    H114901   1.488   5.844   2.592  0.6555 -0.6394 -0.1135
 4979TIP3    H214902   1.582   5.891   2.483 -0.6906  0.0231 -1.0082
 4980TIP3   OH214903   1.437   3.282   5.320 -0.1439 -0.1101 -0.5721
 4980TIP3    H114904   1.356   3.323   5.353 -1.3940 -2.2467 -0.8133
 4980TIP3    H214905   1.488   3.263   5.398  0.8255  2.4346 -0.4793
 4981TIP3   OH214906   1.012   0.367   2.706  0.0828 -0.0583  0.4149
 4981TIP3    H114907   1.071   0.423   2.655 -0.1231 -0.4269 -0.2338
 4981TIP3    H214908   0.930   0.416   2.709  0.3240  0.3174  1.0621
 4982TIP3   OH214909   0.797   3.710   4.918 -0.0484  0.1196  0.0419
 4982TIP3    H114910   0.723   3.698   4.978 -0.2582  1.5686  0.1160
 4982TIP3    H214911   0.779   3.794   4.875  1.8272  0.8182  0.5030
 4983TIP3   OH214912   0.232   5.591   2.498 -0.4109 -0.3346  0.3414
 4983TIP3    H114913   0.283   5.611   2.576  0.6427  2.0510 -0.8507
 4983TIP3    H214914   0.204   5.500   2.510  0.7701 -0.4459  2.8717
 4984TIP3   OH214915   2.278   4.937   4.054 -0.1423  0.0438 -0.2492
 4984TIP3    H114916   2.356   4.981   4.021  0.4166  0.0121  0.9842
 4984TIP3    H214917   2.252   4.878   3.983  1.8230 -1.0364 -0.1508
 4985TIP3   OH214918   3.280   5.231   1.249  0.1400 -0.4172 -0.0212
 4985TIP3    H114919   3.340   5.253   1.178 -0.2438 -1.2277 -0.6154
 4985TIP3    H214920   3.290   5.136   1.260 -0.3927 -0.4214  0.4562
 4986TIP3   OH214921   6.579   1.518   3.938  0.0433  0.0823 -0.9052
 4986TIP3    H114922   6.627   1.538   3.857  0.1563 -0.5799 -1.0058
 4986TIP3    H214923   6.527   1.597   3.954 -1.1935 -0.3514 -2.5009
 4987TIP3   OH214924   4.507   6.173   4.288  0.5685 -0.5691  0.0311
 4987TIP3    H114925   4.564   6.183   4.364  1.3495 -0.9316 -0.4953
 4987TIP3    H214926   4.467   6.260   4.277  0.3315 -0.5479  0.9247
 4988TIP3   OH214927   5.124   5.879   0.353  0.1817  0.0086 -0.4410
 4988TIP3    H114928   5.143   5.786   0.367 -1.5192 -0.4326 -0.8438
 4988TIP3    H214929   5.158   5.922   0.431 -1.3658 -1.2995  1.0104
 4989TIP3   OH214930   3.639   2.035   3.506  0.0491 -0.1063  0.2912
 4989TIP3    H114931   3.722   2.047   3.459 -0.0711  0.1242  0.1327
 4989TIP3    H214932   3.638   2.105   3.571  1.3774 -1.8922  2.3772
 4990TIP3   OH214933   7.034   2.361   5.210  0.8956  1.1091 -0.1038
 4990TIP3    H114934   7.022   2.383   5.117 -0.1128  0.0542 -0.2432
 4990TIP3    H214935   7.056   2.445   5.251 -0.8273  2.0364 -0.9348
 4991TIP3   OH214936   1.083   4.582   2.428  0.0279  0.5728 -0.3208
 4991TIP3    H114937   1.003   4.609   2.383 -0.4271 -1.2348 -0.6597
 4991TIP3    H214938   1.078   4.623   2.514 -2.4835 -1.4022  0.5945
 4992TIP3   OH214939   6.549   2.728   2.376 -0.3404 -0.1981  0.5569
 4992TIP3    H114940   6.580   2.768   2.295  0.3342  0.4962  1.1495
 4992TIP3    H214941   6.629   2.708   2.425 -0.7638 -0.0847  1.3033
 4993TIP3   OH214942   0.349   2.776   2.596  0.2004  0.2423 -0.0931
 4993TIP3    H114943   0.308   2.833   2.531 -0.5814 -1.7027 -1.4152
 4993TIP3    H214944   0.305   2.797   2.678 -1.6055  0.0906 -0.9679
 4994TIP3   OH214945   3.958   5.863   0.842  0.0471 -0.6322  0.0315
 4994TIP3    H114946   4.008   5.941   0.866 -0.5746 -0.0771 -0.4511
 4994TIP3    H214947   4.001   5.830   0.763  0.2313 -0.7092  0.1624
 4995TIP3   OH214948   5.978   4.516   4.587 -0.5409  0.2449 -0.1462
 4995TIP3    H114949   6.036   4.457   4.538 -0.3906  0.1627  0.1296
 4995TIP3    H214950   6.020   4.524   4.673 -0.0125  1.5698 -0.5073
 4996TIP3   OH214951   0.376   6.149   1.214 -0.2301  0.1412 -0.5131
 4996TIP3    H114952   0.460   6.190   1.236 -0.1179 -1.1403  1.7508
 4996TIP3    H214953   0.319   6.222   1.190  0.6128  1.4200  1.1761
 4997TIP3   OH214954   0.524   1.061   2.266  0.0963  0.1951  0.3810
 4997TIP3    H114955   0.443   1.107   2.289 -1.1611 -1.2399 -0.9207
 4997TIP3    H214956   0.593   1.110   2.310 -1.4087  1.8730  0.9933
 4998TIP3   OH214957   3.234   0.342   2.976  0.2272  0.4250  0.6281
 4998TIP3    H114958   3.276   0.400   2.913 -2.6806  0.5150 -1.4007
 4998TIP3    H214959   3.292   0.266   2.981 -0.1401 -0.3343 -3.5205
 4999TIP3   OH214960   3.484   6.725   3.129  0.2580 -0.3294  0.0854
 4999TIP3    H114961   3.561   6.697   3.080  0.4599 -0.6344  0.5618
 4999TIP3    H214962   3.506   6.812   3.162  0.2690 -0.2799 -0.0543
 5000TIP3   OH214963   0.985   2.826   3.077 -0.3868  0.6595  0.3114
 5000TIP3    H114964   1.058   2.879   3.044 -0.8915  0.0295 -1.9671
 5000TIP3    H214965   0.954   2.874   3.154 -0.2121  3.1737 -1.0777
 5001TIP3   OH214966   6.232   5.352   3.064  0.2734  0.4787 -0.9026
 5001TIP3    H114967   6.204   5.356   2.972  0.6550 -0.5794 -1.0678
 5001TIP3    H214968   6.151   5.366   3.114 -0.1342 -0.0682 -1.3980
 5002TIP3   OH214969   5.069   2.361   5.311  0.7752  0.2193  0.2837
 5002TIP3    H114970   5.043   2.415   5.386 -0.2461  1.1044 -0.6724
 5002TIP3    H214971   4.996   2.369   5.249  0.2250 -2.8373  0.3711
 5003TIP3   OH214972   1.916   1.206   2.025 -0.1670  0.2568  0.1825
 5003TIP3    H114973   1.869   1.126   2.051  0.9721 -0.6239 -0.3592
 5003TIP3    H214974   1.908   1.207   1.929 -0.1730  0.8024  0.1882
 5004TIP3   OH214975   2.924   5.281   4.863  0.2773  0.7502  0.1532
 5004TIP3    H114976   2.852   5.342   4.876  1.3214  2.1891 -0.6201
 5004TIP3    H214977   2.947   5.290   4.771  0.7567 -0.4990  0.1226
 5005TIP3   OH214978   3.234   4.265   1.160  0.1899  0.3112  0.2936
 5005TIP3    H114979   3.185   4.328   1.213  1.5242  0.8517  0.9365
 5005TIP3    H214980   3.167   4.206   1.125 -0.7526 -0.0872  2.6027
 5006TIP3   OH214981   0.002   5.591   4.280 -0.1285  0.0910  0.2254
 5006TIP3    H114982   0.075   5.584   4.343 -0.5851  2.2018  1.1046
 5006TIP3    H214983  -0.005   5.685   4.264 -1.2918 -0.2624 -1.5281
 5007TIP3   OH214984   0.608   1.527   5.784  0.6543 -0.2356 -0.4074
 5007TIP3    H114985   0.538   1.483   5.736 -0.8739 -0.2366  1.6633
 5007TIP3    H214986   0.586   1.620   5.778 -0.5996 -0.3289  1.6537
 5008TIP3   OH214987   1.103   3.976   4.917  0.3350  0.5379 -0.4337
 5008TIP3    H114988   1.161   4.026   4.973 -1.1232 -1.5225  3.2717
 5008TIP3    H214989   1.149   3.894   4.901 -0.3952  0.0113  0.1288
 5009TIP3   OH214990   4.899   0.351   0.349 -0.4076 -0.3630 -0.3223
 5009TIP3    H114991   4.976   0.337   0.405  0.2247  0.1720 -1.0334
 5009TIP3    H214992   4.900   0.446   0.331 -1.5120 -0.2710  0.0504
 5010TIP3   OH214993   0.499   4.458   3.419  0.1052 -0.3008 -0.0144
 5010TIP3    H114994   0.500   4.444   3.513 -2.7448 -0.0718  0.1451
 5010TIP3    H214995   0.411   4.491   3.401  0.9176  0.6834 -2.6287
 5011TIP3   OH214996   5.852   3.753   0.592 -0.1012 -0.3397  0.3788
 5011TIP3    H114997   5.851   3.726   0.683  3.1497 -1.6773  0.1219
 5011TIP3    H214998   5.870   3.847   0.595 -0.3994 -0.2991  1.1002
 5012TIP3   OH214999   7.179   1.896   2.053 -0.1312  0.1487 -0.4327
 5012TIP3    H115000   7.089   1.902   2.022  0.0424 -0.0214 -0.9861
 5012TIP3    H215001   7.174   1.917   2.146 -0.4832  1.9184 -0.8223
 5013TIP3   OH215002   0.237   0.793   2.604 -0.0502  0.2970  0.0001
 5013TIP3    H115003   0.316   0.835   2.569 -0.4142  0.3815 -0.7402
 5013TIP3    H215004   0.224   0.835   2.689  0.5709  0.4488  0.0255
 5014TIP3   OH215005   6.818   2.111   4.926  0.1209 -0.0374  0.3779
 5014TIP3    H115006   6.795   2.120   4.833  0.9506 -0.0263  0.1668
 5014TIP3    H215007   6.775   2.185   4.969 -1.4631 -0.8344  0.2391
 5015TIP3   OH215008   1.054   5.003   4.582  0.0527  0.2810  0.5158
 5015TIP3    H115009   1.105   4.940   4.635  0.8944  0.8731  0.4248
 5015TIP3    H215010   0.989   5.037   4.643  0.7886  0.6927  1.0940
 5016TIP3   OH215011   2.529   1.325   5.047 -0.4090  0.0517  0.3453
 5016TIP3    H115012   2.441   1.336   5.082 -0.7931  0.8206 -0.8302
 5016TIP3    H215013   2.581   1.393   5.090 -0.5392  0.0278  0.5399
 5017TIP3   OH215014   5.112   2.051   5.203  0.0843  0.1912 -0.2550
 5017TIP3    H115015   5.196   2.034   5.246 -0.5319 -0.2997  0.8162
 5017TIP3    H215016   5.103   2.146   5.203 -1.0230  0.2031  3.0987
 5018TIP3   OH215017   6.451   6.344   0.182 -0.1091  0.1604  0.3760
 5018TIP3    H115018   6.499   6.421   0.211 -0.8832  0.3873  1.0781
 5018TIP3    H215019   6.487   6.325   0.095 -0.1265  1.4885  0.0638
 5019TIP3   OH215020   1.984   3.931   0.715  0.4601 -0.0645 -0.2395
 5019TIP3    H115021   2.017   4.011   0.673  0.9388  0.1060  0.4515
 5019TIP3    H215022   1.891   3.950   0.731  0.8789  0.9196  1.1941
 5020TIP3   OH215023   1.111   4.099   1.121  0.2383  0.3698  0.8765
 5020TIP3    H115024   1.137   4.048   1.044 -2.7028  1.5605 -1.1008
 5020TIP3    H215025   1.170   4.174   1.121 -1.1209  1.5786 -1.7623
 5021TIP3   OH215026   4.520   1.303   1.633 -0.2117  0.4493  0.2476
 5021TIP3    H115027   4.460   1.332   1.565 -0.8007 -1.6915 -0.2152
 5021TIP3    H215028   4.463   1.268   1.702  0.4326  0.7348  0.9438
 5022TIP3   OH215029   0.255   6.271   1.999  0.0195  0.3290  0.5168
 5022TIP3    H115030   0.233   6.180   1.981  1.6907  0.2858 -1.7018
 5022TIP3    H215031   0.247   6.315   1.914  1.6190  1.7109  1.0304
 5023TIP3   OH215032   3.089   1.098   2.982  0.0365 -0.1305  0.9273
 5023TIP3    H115033   3.164   1.048   3.012 -0.3526 -0.9916  0.4856
 5023TIP3    H215034   3.057   1.143   3.061  1.6429  1.1288  0.9139
 5024TIP3   OH215035   5.322   4.891   0.838 -0.0987  0.1433  0.0439
 5024TIP3    H115036   5.292   4.975   0.803 -0.5162 -0.4756 -1.1537
 5024TIP3    H215037   5.415   4.887   0.816  0.1723  0.7142  1.0106
 5025TIP3   OH215038   3.437   6.042   5.470  0.0690  0.4140  0.3424
 5025TIP3    H115039   3.388   6.120   5.495  0.9011  0.2029  2.9179
 5025TIP3    H215040   3.527   6.071   5.463  0.2971 -0.1793  0.7175
 5026TIP3   OH215041   2.733   2.817   1.656  0.0445  0.0111 -0.3999
 5026TIP3    H115042   2.665   2.750   1.654  0.4258 -0.3802 -0.7313
 5026TIP3    H215043   2.798   2.786   1.593  0.3735  0.5411 -0.3280
 5027TIP3   OH215044   2.651   1.789   4.283 -0.2743 -0.1924  0.2332
 5027TIP3    H115045   2.645   1.786   4.379  1.4321 -0.2215  0.3723
 5027TIP3    H215046   2.672   1.700   4.257  0.1416 -0.0030 -0.0905
 5028TIP3   OH215047   0.296   0.975   0.939  0.3377 -0.2324 -0.0689
 5028TIP3    H115048   0.290   1.052   0.995 -0.0989  0.0880 -0.5452
 5028TIP3    H215049   0.210   0.933   0.945 -0.0119  0.2898 -1.1667
 5029TIP3   OH215050   2.261   0.566   2.324 -0.0738  0.0324  0.6037
 5029TIP3    H115051   2.347   0.606   2.336 -0.0933 -0.4595  2.7525
 5029TIP3    H215052   2.224   0.560   2.412 -2.0597 -0.3527 -0.1934
 5030TIP3   OH215053   7.083   0.799   2.113  0.7108  0.5897 -0.2218
 5030TIP3    H115054   7.109   0.764   2.199 -2.4604 -0.9209  0.2571
 5030TIP3    H215055   7.016   0.864   2.133  0.3174  0.6018 -1.5054
 5031TIP3   OH215056   0.341   3.465   4.898 -0.0172  0.4811  0.2429
 5031TIP3    H115057   0.403   3.440   4.967  0.6752 -0.8056 -0.7822
 5031TIP3    H215058   0.286   3.387   4.886 -0.8260  1.0632  0.0548
 5032TIP3   OH215059   1.303   2.829   0.215  0.6893 -0.0708 -0.0266
 5032TIP3    H115060   1.384   2.816   0.265  0.3774  1.2067  0.8857
 5032TIP3    H215061   1.246   2.757   0.242  0.7796  0.2071  0.9816
 5033TIP3   OH215062   3.095   1.519   4.880 -0.1176 -0.2174  0.5154
 5033TIP3    H115063   3.043   1.514   4.800 -0.6367  2.7177  0.5397
 5033TIP3    H215064   3.166   1.579   4.859  0.2702 -0.1142  1.9792
 5034TIP3   OH215065   1.879   1.289   5.344  0.2004  0.1180 -0.5745
 5034TIP3    H115066   1.869   1.382   5.362 -0.0794  0.0375 -0.3235
 5034TIP3    H215067   1.825   1.245   5.409  0.3435 -0.2224 -0.6815
 5035TIP3   OH215068   1.235   3.790   4.765 -0.0529  0.1366 -0.5274
 5035TIP3    H115069   1.252   3.809   4.673  1.3816 -2.6933 -0.9610
 5035TIP3    H215070   1.201   3.701   4.765  1.6804 -0.6203  1.7534
 5036TIP3   OH215071   4.131   2.629   1.487 -0.1050 -0.4227  0.1025
 5036TIP3    H115072   4.134   2.545   1.533  0.8255  0.3835  1.5965
 5036TIP3    H215073   4.172   2.691   1.547  0.0454  0.9418 -1.3384
 5037TIP3   OH215074   5.029   1.887   5.003  0.1267 -0.2581 -0.6142
 5037TIP3    H115075   5.053   1.796   5.021 -1.7191 -0.7471 -0.3946
 5037TIP3    H215076   5.064   1.936   5.078  0.6618 -0.8680 -0.4557
 5038TIP3   OH215077   0.778   4.886   5.131  0.1372  0.0267 -0.3614
 5038TIP3    H115078   0.688   4.886   5.100  0.1716 -0.9921 -0.4954
 5038TIP3    H215079   0.794   4.977   5.157 -0.7445  0.3364 -0.8405
 5039TIP3   OH215080   7.019   2.076   5.532 -0.4760  0.0940  0.3221
 5039TIP3    H115081   7.004   1.986   5.562  1.4551 -0.3247  0.1417
 5039TIP3    H215082   6.957   2.088   5.460 -1.2116 -0.8520  0.7769
 5040TIP3   OH215083   5.566   4.059   2.653  0.7126  0.2653  0.0047
 5040TIP3    H115084   5.487   4.045   2.707  0.9886  0.9186  0.5907
 5040TIP3    H215085   5.532   4.071   2.564  0.1651  0.3155  0.2141
 5041TIP3   OH215086   5.635   2.957   0.714 -0.0688 -0.1226  0.9023
 5041TIP3    H115087   5.651   2.945   0.621 -0.3560 -0.3394  0.8789
 5041TIP3    H215088   5.632   2.868   0.749  2.1367 -0.0451  1.4868
 5042TIP3   OH215089   5.675   4.437   1.658 -0.4178 -0.0423 -0.2662
 5042TIP3    H115090   5.737   4.455   1.728 -0.3950  1.7303 -0.6845
 5042TIP3    H215091   5.718   4.370   1.605  0.3060 -0.1912  0.4865
 5043TIP3   OH215092   0.631   0.577   4.671 -0.0140 -0.5363  0.1256
 5043TIP3    H115093   0.684   0.573   4.591 -1.5435  0.9777 -1.0353
 5043TIP3    H215094   0.679   0.637   4.728 -0.3736  0.7665 -0.8848
 5044TIP3   OH215095   1.213   1.009   3.934  0.1706  0.1398 -0.3335
 5044TIP3    H115096   1.203   0.933   3.991 -1.2570 -0.3313 -1.1387
 5044TIP3    H215097   1.221   1.083   3.994 -1.8868 -0.2686  0.5499
 5045TIP3   OH215098   2.108   6.096   4.561  0.6273  0.2605  0.3619
 5045TIP3    H115099   2.201   6.106   4.542  0.6808 -2.3075 -1.1937
 5045TIP3    H215100   2.091   6.160   4.630  3.3382  1.3564  0.1595
 5046TIP3   OH215101   3.732   0.006   5.506  0.3152 -0.5605 -0.6549
 5046TIP3    H115102   3.662   0.037   5.448  0.5510 -1.1133 -1.2531
 5046TIP3    H215103   3.687  -0.041   5.576 -0.1371  1.9452  0.8657
 5047TIP3   OH215104   6.948   2.513   1.889 -0.0302 -0.5196  0.2819
 5047TIP3    H115105   6.913   2.429   1.919  0.3999 -1.2703 -1.1641
 5047TIP3    H215106   6.997   2.547   1.963 -0.1940 -1.5614  0.8892
 5048TIP3   OH215107   1.999   0.346   1.094 -0.1529 -0.4649  0.7257
 5048TIP3    H115108   2.028   0.437   1.093  1.4526 -0.9339  1.4206
 5048TIP3    H215109   2.035   0.307   1.015 -1.6635 -0.2941 -0.0858
 5049TIP3   OH215110   4.520   1.648   3.531 -0.0630 -0.3345  0.4961
 5049TIP3    H115111   4.523   1.741   3.556  1.2662 -0.3013  0.2657
 5049TIP3    H215112   4.537   1.601   3.613  2.8996 -0.2561  0.0256
 5050TIP3   OH215113   3.087   0.693   3.165  0.4602  0.1257  0.4951
 5050TIP3    H115114   3.131   0.609   3.177 -0.5478 -0.4845  0.0194
 5050TIP3    H215115   3.077   0.729   3.253 -1.7780 -1.6490  1.0397
 5051TIP3   OH215116   4.218   3.224   0.852  0.0037 -0.1903 -0.0932
 5051TIP3    H115117   4.257   3.136   0.852 -1.0267 -0.6659 -0.4848
 5051TIP3    H215118   4.291   3.282   0.873  1.7073 -0.6927 -3.8326
 5052TIP3   OH215119   2.939   5.998   0.084 -0.0774 -0.4167 -0.0639
 5052TIP3    H115120   2.857   5.963   0.049 -0.2420  0.5288 -0.6839
 5052TIP3    H215121   2.966   6.063   0.019  1.4322 -1.0619 -0.1071
 5053TIP3   OH215122   0.399   1.984   0.213 -0.0909  0.6351  0.0421
 5053TIP3    H115123   0.334   1.959   0.278 -1.5664 -0.5794 -1.8027
 5053TIP3    H215124   0.405   1.909   0.154 -0.1144  2.3076 -2.2240
 5054TIP3   OH215125   0.524   1.438   4.046 -0.2534  0.4654 -0.0486
 5054TIP3    H115126   0.556   1.455   4.134 -1.1214  0.7267  0.2182
 5054TIP3    H215127   0.490   1.522   4.015 -2.3685 -0.1714  0.3800
 5055TIP3   OH215128   3.207   5.438   3.601 -0.3151 -0.6490  0.3888
 5055TIP3    H115129   3.285   5.472   3.644 -2.0310  1.2172  2.1950
 5055TIP3    H215130   3.241   5.389   3.526  2.4996  1.7459 -0.0669
 5056TIP3   OH215131   0.669   1.438   5.073 -0.8793 -0.1929 -0.4566
 5056TIP3    H115132   0.689   1.347   5.097  0.6685  0.0715 -0.6348
 5056TIP3    H215133   0.719   1.490   5.136 -2.8785  0.5891  0.5769
 5057TIP3   OH215134   4.857   5.741   2.025 -0.2543 -0.9117  0.0452
 5057TIP3    H115135   4.922   5.670   2.028 -0.8989 -1.5997 -1.3076
 5057TIP3    H215136   4.775   5.697   2.003 -0.7127  0.2256 -0.5898
 5058TIP3   OH215137   3.302   5.240   0.844  0.4323 -0.5970  0.1407
 5058TIP3    H115138   3.386   5.284   0.835  1.0257 -1.8055 -0.2968
 5058TIP3    H215139   3.318   5.168   0.905 -1.0386  1.0373  2.6482
 5059TIP3   OH215140   1.717   2.196   3.847 -0.3329 -0.4347 -0.6197
 5059TIP3    H115141   1.668   2.240   3.917  1.1327  0.5119 -0.1409
 5059TIP3    H215142   1.781   2.260   3.819  2.9314 -2.6525  1.1522
 5060TIP3   OH215143   0.082   1.878   0.768  0.9147  0.0889  0.0612
 5060TIP3    H115144   0.090   1.816   0.841 -0.5394  1.0297  1.0891
 5060TIP3    H215145  -0.004   1.857   0.730 -0.4414  2.4862  1.5210
 5061TIP3   OH215146   4.942   4.428   4.736  0.5335 -0.1391  0.6034
 5061TIP3    H115147   4.852   4.436   4.768 -0.8383 -0.8329 -2.6723
 5061TIP3    H215148   4.964   4.516   4.702  0.2206 -0.4924 -0.5550
 5062TIP3   OH215149   2.822   3.930   1.122 -0.1274 -0.5000  0.7116
 5062TIP3    H115150   2.809   3.992   1.194 -1.1358 -0.5798  0.6123
 5062TIP3    H215151   2.863   3.854   1.163 -0.2514 -0.3544  1.1112
 5063TIP3   OH215152   0.134   2.021   2.777  0.5399  0.3078 -0.3675
 5063TIP3    H115153   0.157   2.004   2.686  0.6794  0.7613 -0.4198
 5063TIP3    H215154   0.039   2.021   2.779  0.5339  0.8486 -0.6201
 5064TIP3   OH215155   1.171   4.667   2.093  0.0509  0.2332 -0.1407
 5064TIP3    H115156   1.212   4.660   2.179  1.1488  1.1208 -0.5482
 5064TIP3    H215157   1.079   4.645   2.107 -0.0441  1.4898  1.4905
 5065TIP3   OH215158   4.351   2.737   5.610 -0.7224  0.2178  0.0263
 5065TIP3    H115159   4.295   2.660   5.606 -0.3837 -0.0463  0.2149
 5065TIP3    H215160   4.349   2.774   5.522 -0.5870 -0.2273 -0.1663
 5066TIP3   OH215161   0.567   4.024   3.147 -0.1234  0.3204  0.4658
 5066TIP3    H115162   0.578   3.997   3.056  2.1714  0.7822  0.5475
 5066TIP3    H215163   0.534   4.114   3.142  1.1487  0.7945  0.0185
 5067TIP3   OH215164   6.861   1.692   4.041  0.0403  0.2231 -0.5553
 5067TIP3    H115165   6.823   1.741   3.968 -0.8125 -0.2611 -0.4428
 5067TIP3    H215166   6.955   1.694   4.024  0.0087  1.6943 -0.6765
 5068TIP3   OH215167   6.536   5.594   1.491 -0.2020 -0.5153  0.4684
 5068TIP3    H115168   6.490   5.598   1.407  0.1715 -0.1124  0.2805
 5068TIP3    H215169   6.470   5.616   1.556 -0.3711 -0.3302  0.2332
 5069TIP3   OH215170   1.162   0.173   5.688  0.1020 -0.0580 -0.3052
 5069TIP3    H115171   1.171   0.090   5.735  1.5212 -0.0485 -0.5285
 5069TIP3    H215172   1.088   0.217   5.731 -0.0619 -1.0174  0.4294
 5070TIP3   OH215173   4.441   5.237   2.550 -0.5479 -0.0335  0.3386
 5070TIP3    H115174   4.348   5.250   2.531 -0.1464  1.9708 -0.5727
 5070TIP3    H215175   4.446   5.228   2.645 -1.5272  1.8320  0.6167
 5071TIP3   OH215176   1.293   1.858   4.056  0.1984  0.1769 -0.3158
 5071TIP3    H115177   1.355   1.914   4.009 -0.5141  0.3587 -1.0523
 5071TIP3    H215178   1.229   1.919   4.092 -0.2898 -0.1168 -0.6786
 5072TIP3   OH215179   3.277   2.566   0.042  0.0804  0.3527 -0.6190
 5072TIP3    H115180   3.268   2.471   0.029 -1.0530 -0.0817  2.4994
 5072TIP3    H215181   3.187   2.599   0.036  0.3309  1.0619 -0.5067
 5073TIP3   OH215182   5.378   2.078   2.629  0.1251  0.5850  0.2570
 5073TIP3    H115183   5.456   2.023   2.640  0.0698  0.6263  0.9303
 5073TIP3    H215184   5.351   2.100   2.719 -0.1032  1.3643  0.0076
 5074TIP3   OH215185   0.612   2.933   3.109 -0.1981  0.1379 -0.0876
 5074TIP3    H115186   0.645   2.996   3.173  0.5834  0.9868 -1.3037
 5074TIP3    H215187   0.575   2.862   3.163  0.0784  1.0083  1.2949
 5075TIP3   OH215188   2.628   1.044   5.202 -0.2012  0.6218  0.5673
 5075TIP3    H115189   2.540   1.053   5.165 -0.7759 -1.4104  1.3185
 5075TIP3    H215190   2.686   1.050   5.126 -1.1944 -0.9754 -0.3942
 5076TIP3   OH215191   6.721   5.930   5.287 -0.3715 -0.1532  0.0327
 5076TIP3    H115192   6.786   5.983   5.333 -1.3977  1.2809 -0.1115
 5076TIP3    H215193   6.771   5.857   5.251  0.9633  0.3165  0.8525
 5077TIP3   OH215194   3.486   4.192   3.013  0.8602 -0.1473  0.3680
 5077TIP3    H115195   3.522   4.250   3.080  0.1336  1.5117 -0.6222
 5077TIP3    H215196   3.541   4.209   2.936 -1.2736  1.6478 -0.8605
 5078TIP3   OH215197   4.112   0.043   0.743 -0.3294 -1.2873 -0.5611
 5078TIP3    H115198   4.127   0.088   0.660  1.9417 -0.6583  0.1330
 5078TIP3    H215199   4.187  -0.015   0.754  0.6476  0.2691  2.0452
 5079TIP3   OH215200   0.480   0.283   3.345 -0.0939  0.3488  0.2352
 5079TIP3    H115201   0.451   0.197   3.315 -0.6251  0.5383  0.1903
 5079TIP3    H215202   0.474   0.278   3.441  2.0034 -0.3972  0.3801
 5080TIP3   OH215203   2.042   3.133   1.845 -0.5753 -0.0647  0.0146
 5080TIP3    H115204   2.098   3.061   1.817 -0.0102 -0.0525  1.0750
 5080TIP3    H215205   2.101   3.193   1.892 -1.4329  0.0108  1.0341
 5081TIP3   OH215206   6.695   4.441   5.308 -0.0184 -0.3003 -0.1192
 5081TIP3    H115207   6.756   4.458   5.380  0.7243 -2.9355 -0.0103
 5081TIP3    H215208   6.613   4.418   5.351  0.0638 -0.6510 -0.1494
 5082TIP3   OH215209   1.064   2.510   4.422  0.5080 -0.5847  0.1243
 5082TIP3    H115210   1.107   2.469   4.347  1.1211 -0.7500  0.5659
 5082TIP3    H215211   0.975   2.529   4.390  0.6505 -0.9730 -0.5303
 5083TIP3   OH215212   1.155   4.170   3.911 -0.0850 -0.1194  0.2340
 5083TIP3    H115213   1.125   4.139   3.997 -1.5792  2.2678  0.6862
 5083TIP3    H215214   1.090   4.137   3.849 -0.1854 -0.1061  0.3318
 5084TIP3   OH215215   7.083   0.378   5.556  0.1287 -0.0314 -0.0499
 5084TIP3    H115216   7.137   0.299   5.543  0.4367  0.0683  0.5551
 5084TIP3    H215217   7.102   0.433   5.480 -0.1642 -0.5764 -0.5299
 5085TIP3   OH215218   4.743   6.004   0.313 -0.1732  0.2458  0.6076
 5085TIP3    H115219   4.747   6.009   0.408  1.5188  0.3957  0.5540
 5085TIP3    H215220   4.807   6.069   0.282  2.1575 -2.3926 -0.5319
 5086TIP3   OH215221   1.233   1.320   3.538  0.2193 -0.0347 -0.1545
 5086TIP3    H115222   1.238   1.415   3.524  0.1136 -0.0877 -0.5624
 5086TIP3    H215223   1.139   1.302   3.544  0.2527  0.2759  2.7181
 5087TIP3   OH215224   3.862   5.924   5.752  0.5675  0.0112 -0.8334
 5087TIP3    H115225   3.897   6.012   5.768  0.9067 -0.2358 -0.1501
 5087TIP3    H215226   3.930   5.880   5.701  0.0406  0.3936 -1.8998
 5088TIP3   OH215227   4.120   0.636   4.522  0.3239  0.3969  0.2500
 5088TIP3    H115228   4.036   0.615   4.562 -1.2885  1.1291 -2.5167
 5088TIP3    H215229   4.173   0.557   4.533 -0.2083  0.3331  3.0914
 5089TIP3   OH215230   5.265   5.428   3.237  0.4363  0.1278  0.8317
 5089TIP3    H115231   5.285   5.385   3.153 -1.9510  0.9628 -0.2434
 5089TIP3    H215232   5.346   5.419   3.287  1.7019 -1.1124 -1.2410
 5090TIP3   OH215233   4.911   4.370   3.270 -0.0035  0.1731 -0.0886
 5090TIP3    H115234   4.916   4.446   3.328 -0.7672  0.0744  0.1131
 5090TIP3    H215235   4.944   4.297   3.323  0.4640  0.3074 -0.1901
 5091TIP3   OH215236   1.261   0.615   4.033  0.0424  0.4865 -0.4463
 5091TIP3    H115237   1.338   0.615   3.976 -0.5258 -1.8370 -1.3310
 5091TIP3    H215238   1.258   0.527   4.069 -2.4317  0.3786 -0.7638
 5092TIP3   OH215239   3.452   3.224   3.990 -0.4518 -0.5699 -0.4912
 5092TIP3    H115240   3.488   3.149   4.039 -1.0556 -0.2256  0.5124
 5092TIP3    H215241   3.369   3.192   3.955 -1.6103  0.1194  1.4593
 5093TIP3   OH215242   4.063   1.732   5.077  0.4055 -0.0772 -0.1462
 5093TIP3    H115243   4.008   1.671   5.125  0.8309  1.0649  1.8916
 5093TIP3    H215244   4.126   1.676   5.030  1.4048 -1.2452  2.4162
 5094TIP3   OH215245   6.875   1.922   1.221 -0.1642  0.0116 -0.0068
 5094TIP3    H115246   6.903   1.831   1.231 -1.6452 -0.6231 -1.2185
 5094TIP3    H215247   6.848   1.929   1.129 -0.9426  1.4222  0.2949
 5095TIP3   OH215248   1.709   1.055   0.013  0.0507 -0.0091  0.4047
 5095TIP3    H115249   1.704   0.982  -0.049 -1.5568  0.3696  0.0447
 5095TIP3    H215250   1.655   1.027   0.087 -0.5771  0.8084  0.2685
 5096TIP3   OH215251   6.276   6.345   3.192  0.3837 -0.2808  0.4798
 5096TIP3    H115252   6.269   6.347   3.288  0.5166 -1.5755  0.5377
 5096TIP3    H215253   6.186   6.358   3.162  0.1456 -0.9899  0.8320
 5097TIP3   OH215254   5.917   0.852   5.456  0.0455 -0.0395  0.0230
 5097TIP3    H115255   5.956   0.813   5.535  0.4871  1.1103  0.4007
 5097TIP3    H215256   5.825   0.827   5.460 -0.1919  0.9535  1.5455
 5098TIP3   OH215257   1.222   6.333   3.038  0.3373  1.0035  0.0229
 5098TIP3    H115258   1.164   6.283   2.981 -0.4207  1.9071 -0.0277
 5098TIP3    H215259   1.310   6.308   3.012 -0.0162  0.7483 -0.9486
 5099TIP3   OH215260   5.420   4.699   4.767 -0.2711 -0.3463  0.3595
 5099TIP3    H115261   5.491   4.668   4.711 -0.3596 -0.1243  0.1226
 5099TIP3    H215262   5.458   4.770   4.818 -0.3198 -0.2358  0.2418
 5100TIP3   OH215263   2.958   1.078   3.939 -0.1309 -0.3290 -0.1886
 5100TIP3    H115264   2.973   1.104   3.848 -0.3837  1.0145  0.1375
 5100TIP3    H215265   3.029   1.017   3.959  0.0533 -0.4662 -1.2114
 5101TIP3   OH215266   6.647   2.705   3.152 -0.2516  0.2895  0.5088
 5101TIP3    H115267   6.608   2.791   3.138 -0.4050 -0.0657 -1.7122
 5101TIP3    H215268   6.741   2.720   3.140 -0.2309  0.2378  0.6100
 5102TIP3   OH215269   5.307   5.953   1.422 -0.0000  0.1849 -0.2099
 5102TIP3    H115270   5.234   6.014   1.409  0.2162  0.3264 -0.7856
 5102TIP3    H215271   5.367   5.972   1.350  0.1313 -0.6199 -0.3196
 5103TIP3   OH215272   0.678   5.710   5.371 -0.2500  0.1189 -0.5065
 5103TIP3    H115273   0.766   5.737   5.346  0.3945 -2.1253 -0.8182
 5103TIP3    H215274   0.623   5.733   5.296  0.6646 -1.3536 -1.6698
 5104TIP3   OH215275   0.670   6.232   1.253 -0.2672 -0.1305 -0.0772
 5104TIP3    H115276   0.701   6.286   1.325 -0.4069  1.0459 -0.8667
 5104TIP3    H215277   0.699   6.277   1.174 -2.9235  0.4300 -0.8332
 5105TIP3   OH215278   4.757   0.884   0.696 -0.3045 -0.4877 -0.2411
 5105TIP3    H115279   4.792   0.940   0.627 -0.9083 -1.2308 -1.1910
 5105TIP3    H215280   4.823   0.815   0.707 -0.1340 -0.2798  0.0384
 5106TIP3   OH215281   5.706   4.281   1.101 -0.9487  0.1356  0.2001
 5106TIP3    H115282   5.669   4.369   1.090 -0.7997  0.3944  1.6358
 5106TIP3    H215283   5.632   4.223   1.085 -0.9279  0.4740 -1.3046
 5107TIP3   OH215284   2.147   5.268   4.932 -1.1338 -0.9834 -0.1424
 5107TIP3    H115285   2.062   5.286   4.893 -1.2009 -2.7392 -0.8850
 5107TIP3    H215286   2.139   5.180   4.969  0.6297 -1.5893 -1.0881
 5108TIP3   OH215287   5.317   4.676   3.294  0.0877 -0.0768  0.8340
 5108TIP3    H115288   5.284   4.589   3.318  2.7702 -1.9018 -1.4174
 5108TIP3    H215289   5.411   4.671   3.313  0.3711  2.1907  0.2296
 5109TIP3   OH215290   3.083   2.083   1.009  0.3949 -0.8388 -0.1896
 5109TIP3    H115291   3.093   1.989   0.999  0.1048 -0.7977 -0.9139
 5109TIP3    H215292   3.009   2.094   1.069  1.4422 -1.0766  1.2052
 5110TIP3   OH215293   2.251   4.688   3.908  0.2432 -0.0822  0.3632
 5110TIP3    H115294   2.215   4.603   3.881  0.7635 -0.6026  1.2629
 5110TIP3    H215295   2.328   4.699   3.853 -0.4195  0.3332 -0.5156
 5111TIP3   OH215296   3.863   4.846   4.004 -0.3253 -0.5502 -0.4727
 5111TIP3    H115297   3.866   4.782   4.075  2.3330 -0.9802 -0.8436
 5111TIP3    H215298   3.823   4.923   4.042  0.4971 -0.9642  1.3508
 5112TIP3   OH215299   4.471   0.194   1.150  0.5915  0.4250 -0.2104
 5112TIP3    H115300   4.396   0.243   1.117 -0.4992 -1.9588 -1.4609
 5112TIP3    H215301   4.536   0.262   1.171 -0.7985  2.3937 -1.8578
 5113TIP3   OH215302   3.026   1.738   2.812 -0.3719  0.2749 -0.2133
 5113TIP3    H115303   3.042   1.684   2.890 -0.0870  1.9579  0.9418
 5113TIP3    H215304   3.099   1.718   2.754  0.7098  0.7226  0.9504
 5114TIP3   OH215305   3.390   1.610   2.197 -0.5192  0.8340  0.1048
 5114TIP3    H115306   3.371   1.681   2.259 -1.9734  0.2731  0.3423
 5114TIP3    H215307   3.318   1.549   2.208  1.9727 -2.0742  1.8191
 5115TIP3   OH215308   6.649   3.258   0.926  0.1183  0.0866 -0.3229
 5115TIP3    H115309   6.608   3.240   0.841 -1.8634 -1.1791  0.8329
 5115TIP3    H215310   6.610   3.341   0.954 -0.3309 -0.2372  0.0060
 5116TIP3   OH215311   2.312   5.267   1.164 -0.0088 -0.3564 -0.0773
 5116TIP3    H115312   2.327   5.338   1.226 -0.5722 -1.1364  0.9772
 5116TIP3    H215313   2.387   5.272   1.103  0.6404  0.3229  0.7588
 5117TIP3   OH215314   6.316   4.812   1.854  0.2835  0.5840 -0.0377
 5117TIP3    H115315   6.410   4.818   1.871  0.4261 -0.8591 -0.1819
 5117TIP3    H215316   6.307   4.737   1.795 -1.1257 -0.4601  1.4135
 5118TIP3   OH215317   3.476   3.039   1.747  0.2872  0.0981  0.1720
 5118TIP3    H115318   3.460   2.971   1.812  0.4620  0.1004  0.2191
 5118TIP3    H215319   3.555   3.083   1.778  0.0724  0.4429  0.2399
 5119TIP3   OH215320   3.275   0.406   2.048  0.4030 -0.3333  0.2056
 5119TIP3    H115321   3.334   0.423   1.974  0.5575 -2.2555 -0.1837
 5119TIP3    H215322   3.333   0.386   2.121  0.2656  2.1927  1.0891
 5120TIP3   OH215323   4.980   4.182   3.974  0.0606  0.0284  0.1780
 5120TIP3    H115324   4.975   4.258   4.032  2.0289  1.3777 -1.2879
 5120TIP3    H215325   4.889   4.164   3.951 -0.4556  2.2204  0.2442
 5121TIP3   OH215326   2.319   6.085   2.370  1.0213  0.5077  0.4124
 5121TIP3    H115327   2.240   6.071   2.423  0.5375  1.3040 -0.0815
 5121TIP3    H215328   2.360   6.162   2.409  0.6404  1.1231 -0.3914
 5122TIP3   OH215329   7.039   6.000   0.909  0.6769  0.1810 -0.2133
 5122TIP3    H115330   6.978   6.074   0.912  0.7956  0.2665  0.3634
 5122TIP3    H215331   6.993   5.928   0.951 -0.1205 -0.6309 -2.3459
 5123TIP3   OH215332   5.330   3.375   4.143 -0.1110 -0.2101 -0.1338
 5123TIP3    H115333   5.379   3.450   4.110  1.4154 -1.7875 -1.6349
 5123TIP3    H215334   5.246   3.379   4.098 -0.9735  1.8274  1.5280
 5124TIP3   OH215335   1.328   0.848   1.642  0.5991 -0.0160 -0.0008
 5124TIP3    H115336   1.308   0.936   1.610  2.9434 -0.7681 -4.2416
 5124TIP3    H215337   1.411   0.858   1.689  1.3243 -0.0340 -1.2460
 5125TIP3   OH215338   1.550   2.972   4.260 -0.1272  0.5447 -0.1197
 5125TIP3    H115339   1.581   2.882   4.250 -1.8362 -0.0350 -0.5669
 5125TIP3    H215340   1.603   3.008   4.331  1.5020 -0.3585 -0.8235
 5126TIP3   OH215341   2.402   6.356   0.420  0.0930 -0.4115  0.1644
 5126TIP3    H115342   2.350   6.275   0.417 -0.3989 -0.0829 -0.3279
 5126TIP3    H215343   2.418   6.370   0.513  0.4599 -1.2507  0.2425
 5127TIP3   OH215344   7.094   1.866   4.559 -0.1820 -0.3360  0.1202
 5127TIP3    H115345   7.106   1.778   4.523  0.1506 -1.1287  2.0488
 5127TIP3    H215346   7.005   1.890   4.533  0.0070 -0.8860 -1.1203
 5128TIP3   OH215347   3.549   3.514   0.757 -0.9342 -0.4753  0.0394
 5128TIP3    H115348   3.534   3.425   0.787 -0.1105 -0.6566 -0.0669
 5128TIP3    H215349   3.589   3.505   0.671 -0.0427 -0.0375  0.3870
 5129TIP3   OH215350   6.057   5.572   4.541  0.5423  0.1376 -0.0187
 5129TIP3    H115351   5.968   5.605   4.543  0.0017 -1.0912 -1.6657
 5129TIP3    H215352   6.106   5.630   4.600 -0.4840  3.3378 -2.0724
 5130TIP3   OH215353   6.135   1.676   3.089 -0.4766  0.1470  0.5865
 5130TIP3    H115354   6.204   1.741   3.099 -0.3867  0.2027 -0.3095
 5130TIP3    H215355   6.072   1.717   3.029  1.1863 -1.7777 -2.7949
 5131TIP3   OH215356   2.592   0.982   2.676 -0.9034 -0.2529 -0.1318
 5131TIP3    H115357   2.597   1.055   2.737 -2.4702 -0.9984  0.9565
 5131TIP3    H215358   2.507   0.991   2.634 -1.5687 -1.9664  0.7552
 5132TIP3   OH215359   4.232   2.107   2.964  0.1641 -0.4734  0.1156
 5132TIP3    H115360   4.225   2.142   2.875 -0.7111  0.8571  0.6748
 5132TIP3    H215361   4.307   2.152   3.002 -1.5356  1.6411  1.1526
 5133TIP3   OH215362   0.535   6.743   3.273  0.4684  0.0064 -0.0403
 5133TIP3    H115363   0.556   6.674   3.211  1.4478 -1.6557  2.0263
 5133TIP3    H215364   0.485   6.700   3.343 -0.0659  1.6612  0.6624
 5134TIP3   OH215365   1.107   3.937   0.273  0.9334 -0.7368 -0.2207
 5134TIP3    H115366   1.176   3.947   0.338 -0.6749 -1.5058  1.7236
 5134TIP3    H215367   1.084   4.027   0.249  0.6655 -0.3539  1.3356
 5135TIP3   OH215368   0.467   2.858   4.408 -0.1583 -0.2529 -0.3440
 5135TIP3    H115369   0.381   2.826   4.434  1.1057 -3.1268  0.7562
 5135TIP3    H215370   0.497   2.909   4.484 -0.1786 -0.7603  0.0054
 5136TIP3   OH215371   6.037   4.002   2.528 -0.3147  0.6899 -0.0939
 5136TIP3    H115372   5.989   3.995   2.610 -1.0434 -0.5090 -0.5897
 5136TIP3    H215373   6.119   3.956   2.544 -0.3698  0.6309  0.0220
 5137TIP3   OH215374   5.453   5.383   5.048 -0.2876 -0.2571  0.0012
 5137TIP3    H115375   5.501   5.455   5.008  1.5499 -0.8283  1.0746
 5137TIP3    H215376   5.410   5.421   5.125  0.9805 -0.3504  0.7770
 5138TIP3   OH215377   3.680   6.626   3.565  0.7994 -0.7151 -0.0274
 5138TIP3    H115378   3.626   6.702   3.589 -2.2835 -2.8488  0.4259
 5138TIP3    H215379   3.714   6.648   3.479  3.0124  2.5504  1.4421
 5139TIP3   OH215380   0.930   1.712   2.225  0.1348  0.2083  0.0553
 5139TIP3    H115381   0.948   1.804   2.203  1.3254  0.9478  3.4680
 5139TIP3    H215382   0.842   1.713   2.263  0.8266  0.3954  1.7852
 5140TIP3   OH215383   0.859   5.755   4.447  0.1208  0.2613 -0.3650
 5140TIP3    H115384   0.943   5.739   4.491  0.2464  0.3047 -0.5898
 5140TIP3    H215385   0.810   5.673   4.460 -0.0731  0.4849  0.3681
 5141TIP3   OH215386   5.919   0.496   2.634 -0.4946  0.2170 -0.4767
 5141TIP3    H115387   5.847   0.434   2.624 -0.5206  0.0983  0.3642
 5141TIP3    H215388   5.899   0.566   2.571 -0.2791 -0.7803 -1.6778
 5142TIP3   OH215389   0.101   3.647   4.386  0.1392  0.3770  0.3960
 5142TIP3    H115390   0.154   3.593   4.445 -0.8363 -0.9187  0.1357
 5142TIP3    H215391   0.107   3.602   4.302  1.2513  2.0249 -0.4556
 5143TIP3   OH215392   6.012   1.799   2.573 -0.2499 -0.2482  0.7935
 5143TIP3    H115393   6.045   1.876   2.529  0.3302 -0.4333  0.8999
 5143TIP3    H215394   5.941   1.832   2.629  0.4559  0.3201  1.3727
 5144TIP3   OH215395   0.264   0.879   4.705  0.0959 -0.4754 -0.4185
 5144TIP3    H115396   0.259   0.825   4.626 -1.7960 -1.9887  0.6312
 5144TIP3    H215397   0.278   0.816   4.776 -4.3159 -0.0415  1.1376
 5145TIP3   OH215398   4.781   5.204   0.172 -0.0746  0.4012 -0.1418
 5145TIP3    H115399   4.729   5.129   0.142 -0.7006  0.9647 -0.4854
 5145TIP3    H215400   4.872   5.172   0.172 -0.4420 -0.7061  0.8096
 5146TIP3   OH215401   3.487   3.922   2.133  0.0588 -0.1167 -0.1312
 5146TIP3    H115402   3.410   3.976   2.116  0.1874 -0.1045 -0.6785
 5146TIP3    H215403   3.531   3.915   2.048 -0.0164 -1.1852 -0.0850
 5147TIP3   OH215404   3.671   6.144   5.513 -0.8120 -0.2040 -0.0853
 5147TIP3    H115405   3.744   6.158   5.574 -0.6106  0.5532 -0.4955
 5147TIP3    H215406   3.644   6.231   5.486 -3.2848 -0.3183  1.6476
 5148TIP3   OH215407   6.592   1.670   4.268  0.7534  0.2975 -0.4424
 5148TIP3    H115408   6.607   1.725   4.191  2.6047 -0.4344 -0.6854
 5148TIP3    H215409   6.650   1.594   4.254 -1.7094 -1.7595 -0.1552
 5149TIP3   OH215410   6.238   2.073   5.147 -0.1402 -0.2610  0.1501
 5149TIP3    H115411   6.245   2.166   5.168  2.4801 -0.4560  0.4897
 5149TIP3    H215412   6.260   2.028   5.229 -3.4234 -1.2912  0.6020
 5150TIP3   OH215413   3.017   5.605   1.331 -0.4576 -0.2940  0.4148
 5150TIP3    H115414   2.949   5.573   1.273 -0.9628  1.5251 -0.0793
 5150TIP3    H215415   3.065   5.527   1.358 -1.3452 -1.3696 -0.9863
 5151TIP3   OH215416   4.618   0.868   3.827 -0.0377 -0.7246  0.5190
 5151TIP3    H115417   4.690   0.816   3.792 -0.0285  0.2602 -1.0128
 5151TIP3    H215418   4.539   0.825   3.794 -0.0455 -0.1013 -0.3027
 5152TIP3   OH215419   5.237   1.739   3.405 -0.4888 -0.1409  0.8329
 5152TIP3    H115420   5.321   1.728   3.449 -0.4520 -0.5199  0.6696
 5152TIP3    H215421   5.188   1.799   3.461 -0.3787 -0.4853  1.2970
 5153TIP3   OH215422   4.713   6.152   1.351 -0.5455 -0.0638 -0.6175
 5153TIP3    H115423   4.691   6.245   1.345 -1.2197 -0.1029  0.8255
 5153TIP3    H215424   4.652   6.109   1.290 -0.1245  0.4391 -1.4067
 5154TIP3   OH215425   0.982   5.250   4.442 -0.1987  0.1122 -0.4453
 5154TIP3    H115426   0.935   5.303   4.506 -0.2600  0.7118 -0.9801
 5154TIP3    H215427   1.030   5.186   4.495  0.7009  1.3403  0.2749
 5155TIP3   OH215428   5.072   5.859   2.497 -0.1428 -0.1969 -0.0961
 5155TIP3    H115429   5.093   5.866   2.404 -0.8415  2.4612 -0.1437
 5155TIP3    H215430   4.982   5.826   2.499  0.4269 -1.8576 -0.2496
 5156TIP3   OH215431   2.315   5.010   3.139  0.1478 -0.2114  0.1781
 5156TIP3    H115432   2.280   5.007   3.050  1.1962  1.3712 -0.3455
 5156TIP3    H215433   2.350   4.923   3.155 -1.5349 -1.0048 -0.3141
 5157TIP3   OH215434   2.817   3.649   0.935 -0.5106  0.0855  0.3554
 5157TIP3    H115435   2.780   3.735   0.956 -0.1013  0.2932  0.2345
 5157TIP3    H215436   2.742   3.597   0.907 -1.3777 -0.6106  3.4897
 5158TIP3   OH215437   3.710   4.571   3.172 -0.2000 -0.1009 -0.3448
 5158TIP3    H115438   3.784   4.512   3.157  1.1454  1.6239 -0.8938
 5158TIP3    H215439   3.639   4.514   3.202  0.7717 -2.0788 -1.6003
 5159TIP3   OH215440   3.633   2.338   3.402  0.3639 -0.2761  0.2489
 5159TIP3    H115441   3.596   2.398   3.466 -1.6068  1.1130 -2.0380
 5159TIP3    H215442   3.666   2.395   3.332  3.7878 -1.6394  0.5354
 5160TIP3   OH215443   5.355   4.721   1.075  0.0149  0.1248  0.8135
 5160TIP3    H115444   5.317   4.771   1.002 -0.5846 -0.2300  0.8788
 5160TIP3    H215445   5.328   4.768   1.153  0.9810  0.7242  0.8000
 5161TIP3   OH215446   5.901   0.206   5.647 -0.0737 -0.6227  0.2374
 5161TIP3    H115447   5.833   0.141   5.629 -1.1386  0.6599 -0.5669
 5161TIP3    H215448   5.975   0.178   5.593 -0.3967 -1.3427  0.1546
 5162TIP3   OH215449   0.054   2.576   0.243  0.1520  0.3939  0.4794
 5162TIP3    H115450   0.143   2.603   0.223  0.7692 -0.3150  2.1024
 5162TIP3    H215451   0.060   2.534   0.329 -1.9323  1.3228  1.1541
 5163TIP3   OH215452   4.474   5.395   1.510 -0.1786  0.2769  0.0022
 5163TIP3    H115453   4.550   5.360   1.556  0.2148  3.0896  1.7654
 5163TIP3    H215454   4.408   5.326   1.514  2.1308 -2.1723 -1.4021
 5164TIP3   OH215455   2.497   1.759   3.062 -0.5723  0.5405  0.0359
 5164TIP3    H115456   2.544   1.676   3.052 -2.8429 -0.8178 -0.0262
 5164TIP3    H215457   2.555   1.825   3.024  1.2273 -1.0289 -0.0617
 5165TIP3   OH215458   4.276   2.160   3.315 -0.8621 -0.2581  0.2692
 5165TIP3    H115459   4.363   2.121   3.331 -1.2401 -1.1651  0.1759
 5165TIP3    H215460   4.215   2.092   3.342 -1.5565  0.5250  0.6968
 5166TIP3   OH215461   0.070   0.604   2.930 -0.1896  0.0825 -0.1342
 5166TIP3    H115462  -0.020   0.619   2.959  0.1816  0.3430  0.9292
 5166TIP3    H215463   0.099   0.528   2.980  0.1511 -0.0465 -0.5283
 5167TIP3   OH215464   3.188   6.576   0.522 -0.4101  0.4486  0.0585
 5167TIP3    H115465   3.142   6.504   0.478 -2.1882  1.3644  0.3569
 5167TIP3    H215466   3.119   6.625   0.567  0.8919  1.7793  0.6774
 5168TIP3   OH215467   3.741   3.111   1.250  0.4041  0.3975 -0.2065
 5168TIP3    H115468   3.808   3.179   1.243  2.3121 -0.7382  4.0981
 5168TIP3    H215469   3.788   3.029   1.239 -0.8863 -0.3897 -0.1193
 5169TIP3   OH215470   2.121   5.735   2.225  0.0960  0.3182  0.0087
 5169TIP3    H115471   2.193   5.673   2.237 -0.1666 -0.0787 -0.4401
 5169TIP3    H215472   2.105   5.770   2.313 -0.4375 -1.0285  0.4810
 5170TIP3   OH215473   0.687   0.119   1.885  0.1020 -0.2483  0.0712
 5170TIP3    H115474   0.630   0.196   1.880  0.0816 -0.1644  1.2150
 5170TIP3    H215475   0.633   0.053   1.930  0.9391 -0.1016  1.3429
 5171TIP3   OH215476   0.410   2.922   2.335  0.2970 -0.0925 -0.1978
 5171TIP3    H115477   0.483   2.861   2.321  0.2948 -0.3011  0.5973
 5171TIP3    H215478   0.449   3.009   2.323  0.6368 -0.2089  0.0265
 5172TIP3   OH215479   5.812   3.940   4.168 -0.3007  0.7983 -0.3179
 5172TIP3    H115480   5.771   3.856   4.147  0.8876 -0.3252  1.5579
 5172TIP3    H215481   5.879   3.951   4.101  0.8458 -0.7684  0.5141
 5173TIP3   OH215482   5.493   5.921   3.611 -0.4785  0.3313 -0.2050
 5173TIP3    H115483   5.526   5.884   3.529 -1.8074 -3.8134  0.9190
 5173TIP3    H215484   5.572   5.934   3.665  0.2324  1.5437 -1.4574
 5174TIP3   OH215485   1.533   0.150   1.975 -0.2339  0.1692  0.3559
 5174TIP3    H115486   1.604   0.152   1.910 -0.7135 -0.4141 -0.2034
 5174TIP3    H215487   1.469   0.213   1.942 -0.6184 -0.3566  0.0912
 5175TIP3   OH215488   2.360   3.850   4.342  0.1345  0.2958 -0.5272
 5175TIP3    H115489   2.296   3.836   4.272 -1.0653  0.3217  0.5332
 5175TIP3    H215490   2.357   3.770   4.394  2.1328 -0.3587 -1.3149
 5176TIP3   OH215491   2.320   2.528   3.422  0.0030  0.1929  0.3260
 5176TIP3    H115492   2.390   2.574   3.468 -0.0516  0.0976  0.5023
 5176TIP3    H215493   2.254   2.594   3.405 -0.4957 -0.0193  1.4052
 5177TIP3   OH215494   3.999   1.476   3.824  0.1184 -0.6052  0.3078
 5177TIP3    H115495   4.025   1.441   3.738  0.6282  0.1604  0.1389
 5177TIP3    H215496   4.016   1.570   3.817 -2.1942 -0.1293  0.3998
 5178TIP3   OH215497   0.214   6.215   3.804 -0.2924  0.3946 -0.1477
 5178TIP3    H115498   0.282   6.256   3.857 -2.5300  4.1937  0.1051
 5178TIP3    H215499   0.161   6.166   3.866  1.2390 -1.3852 -0.1444
 5179TIP3   OH215500   0.339   0.325   1.625  0.1509  0.1263 -0.1680
 5179TIP3    H115501   0.371   0.415   1.629 -0.9071  0.5492 -0.7702
 5179TIP3    H215502   0.405   0.278   1.573  0.6618  0.5745  0.0742
 5180TIP3   OH215503   3.149   4.964   3.151 -0.1959 -0.4389  0.1764
 5180TIP3    H115504   3.066   5.005   3.127 -1.2825 -1.4892  1.9211
 5180TIP3    H215505   3.193   5.029   3.207 -0.1475 -0.1545 -0.1877
 5181TIP3   OH215506   5.653   2.320   3.925  0.5924 -0.7597  0.1319
 5181TIP3    H115507   5.612   2.260   3.862 -0.5720 -0.0830  0.2186
 5181TIP3    H215508   5.701   2.263   3.984  0.2619 -1.5454 -0.3362
 5182TIP3   OH215509   1.061   6.357   1.462 -0.4441 -0.1105 -0.3762
 5182TIP3    H115510   0.972   6.344   1.430  0.0892 -0.4637 -1.7882
 5182TIP3    H215511   1.098   6.424   1.405  0.5463 -0.7695 -0.5461
 5183TIP3   OH215512   5.135   1.746   1.177 -0.1872 -0.4466  0.6307
 5183TIP3    H115513   5.118   1.832   1.140  0.0431 -0.4798  0.4524
 5183TIP3    H215514   5.230   1.742   1.188 -0.0426 -1.2589 -0.7711
 5184TIP3   OH215515   0.442   5.943   3.293 -0.0501 -0.0742  0.4581
 5184TIP3    H115516   0.425   5.901   3.377  1.2134  0.5476  1.0580
 5184TIP3    H215517   0.429   5.873   3.228 -1.3862 -0.4656  1.1115
 5185TIP3   OH215518   2.060   3.676   0.363 -0.1732  0.1032  0.3222
 5185TIP3    H115519   2.068   3.674   0.458  0.3157 -1.1996  0.2716
 5185TIP3    H215520   2.150   3.683   0.331 -0.4004  1.5832 -0.0417
 5186TIP3   OH215521   3.105   5.702   1.628  0.6142 -0.5794  0.0100
 5186TIP3    H115522   3.162   5.725   1.554 -0.1872 -0.7399 -0.6760
 5186TIP3    H215523   3.074   5.614   1.607 -1.8418  0.4226 -0.9118
 5187TIP3   OH215524   6.058   2.395   0.079 -0.2984 -0.2015 -0.4642
 5187TIP3    H115525   6.136   2.362   0.034 -0.4813 -1.6891  0.2394
 5187TIP3    H215526   6.088   2.473   0.125  0.5336 -0.2043 -0.9841
 5188TIP3   OH215527   6.582   5.359   1.045  0.0796  0.5938 -0.0369
 5188TIP3    H115528   6.512   5.327   0.988 -0.6845  1.3461  0.4617
 5188TIP3    H215529   6.550   5.343   1.133  1.6427 -1.4128  0.2337
 5189TIP3   OH215530   2.238   4.474   4.445 -0.0932 -0.0838 -0.0808
 5189TIP3    H115531   2.204   4.546   4.499  0.5628 -0.8233  1.3884
 5189TIP3    H215532   2.178   4.470   4.371 -1.2557  0.7662  0.7662
 5190TIP3   OH215533   1.401   3.268   2.484  0.2478 -0.3448  0.0671
 5190TIP3    H115534   1.406   3.285   2.390 -0.4219  1.0716  0.2658
 5190TIP3    H215535   1.413   3.173   2.492  1.3246 -0.3571 -1.3538
 5191TIP3   OH215536   3.078   0.156   4.870 -0.0037 -0.0482  0.0309
 5191TIP3    H115537   3.108   0.245   4.848 -0.6494 -0.0385 -0.8667
 5191TIP3    H215538   2.988   0.168   4.900  0.3702 -0.2479  1.2795
 5192TIP3   OH215539   5.893   1.656   3.971 -0.2214 -0.1175 -0.0626
 5192TIP3    H115540   5.981   1.622   3.955  0.5728  1.5146  0.5337
 5192TIP3    H215541   5.875   1.636   4.062 -0.3176 -0.1286 -0.0835
 5193TIP3   OH215542   1.825   0.624   1.299  0.6758  0.5110 -0.5769
 5193TIP3    H115543   1.874   0.642   1.219  1.7480 -1.5671 -0.4392
 5193TIP3    H215544   1.838   0.703   1.353  1.5266  1.1443 -1.6673
 5194TIP3   OH215545   1.117   1.754   5.424 -0.2462  0.0349  0.2884
 5194TIP3    H115546   1.210   1.761   5.406 -0.0081 -0.2110  1.3912
 5194TIP3    H215547   1.083   1.700   5.353  0.5380 -0.3054  0.1670
 5195TIP3   OH215548   4.496   5.577   3.740 -0.6038  0.0394  0.1232
 5195TIP3    H115549   4.585   5.555   3.767 -0.5610  1.0962  0.9164
 5195TIP3    H215550   4.440   5.521   3.795 -0.4393 -0.8559 -0.5984
 5196TIP3   OH215551   1.132   0.839   4.153  0.2408 -0.3780 -0.0308
 5196TIP3    H115552   1.170   0.856   4.240 -1.7944  0.7666  0.7161
 5196TIP3    H215553   1.167   0.754   4.128  0.4942 -0.9878  2.1474
 5197TIP3   OH215554   1.721   3.891   1.110 -0.3902 -0.0235 -0.2074
 5197TIP3    H115555   1.707   3.957   1.042  1.1325  0.9980  0.4369
 5197TIP3    H215556   1.729   3.808   1.061  1.2361  0.7614 -1.3673
 5198TIP3   OH215557   1.930   1.043   3.793 -0.1612  0.4035 -0.3646
 5198TIP3    H115558   1.990   1.117   3.788  0.3778  0.5033  4.0063
 5198TIP3    H215559   1.853   1.077   3.838 -1.9912 -0.6923 -2.4049
 5199TIP3   OH215560   0.591   1.416   5.449 -0.3778 -0.2298 -0.2155
 5199TIP3    H115561   0.685   1.424   5.466 -0.4320 -1.7119  0.9293
 5199TIP3    H215562   0.557   1.505   5.460  0.6776  0.0773  0.7695
 5200TIP3   OH215563   3.628   0.220   3.267 -0.2770  0.2108 -0.0440
 5200TIP3    H115564   3.536   0.232   3.291 -1.2339 -2.2977 -2.0347
 5200TIP3    H215565   3.664   0.164   3.337 -0.1337  1.4500  0.9007
 5201TIP3   OH215566   2.388   4.414   1.785 -0.1847  0.0201  0.4666
 5201TIP3    H115567   2.393   4.322   1.760  1.1436  0.2835 -0.2620
 5201TIP3    H215568   2.454   4.458   1.733 -1.3969  1.5599  0.1510
 5202TIP3   OH215569   4.192   1.888   0.403  0.1179 -0.1288  0.0248
 5202TIP3    H115570   4.217   1.969   0.446 -0.2411  2.1223 -3.6037
 5202TIP3    H215571   4.275   1.845   0.381  0.3248 -0.3512  1.1741
 5203TIP3   OH215572   6.268   2.574   5.618  0.2747  0.1763  0.5628
 5203TIP3    H115573   6.179   2.582   5.652  0.3596  0.5560  0.7009
 5203TIP3    H215574   6.280   2.651   5.563  0.6554  0.3390  0.8672
 5204TIP3   OH215575   0.825   4.099   1.128 -0.1418  0.4496  0.5395
 5204TIP3    H115576   0.921   4.099   1.121 -0.2429  0.0434 -2.7916
 5204TIP3    H215577   0.804   4.011   1.161  0.6620 -0.3658 -0.9537
 5205TIP3   OH215578   4.369   3.690   1.625  0.0538 -0.0375 -0.5299
 5205TIP3    H115579   4.380   3.660   1.715  0.0737 -2.7240 -1.3521
 5205TIP3    H215580   4.429   3.764   1.616  0.0735  0.2547  1.6182
 5206TIP3   OH215581   4.073   1.558   4.384 -0.4960  0.0052 -0.0529
 5206TIP3    H115582   4.083   1.482   4.327 -2.1475  0.7236 -1.4012
 5206TIP3    H215583   3.983   1.587   4.369 -0.3591  1.3821  1.5137
 5207TIP3   OH215584   7.026   5.538   0.508 -0.1359  0.4481 -0.1402
 5207TIP3    H115585   6.996   5.548   0.418 -1.4106 -0.3109  0.1620
 5207TIP3    H215586   7.057   5.625   0.533  0.7996  0.5200 -1.4889
 5208TIP3   OH215587   3.923   1.924   0.427  0.5256 -0.2553 -0.1278
 5208TIP3    H115588   3.896   1.932   0.336  1.3230  0.2797 -0.3214
 5208TIP3    H215589   4.017   1.905   0.423  0.8634  1.1361  0.6053
 5209TIP3   OH215590   2.222   2.180   5.211  0.4274  0.2232  0.3230
 5209TIP3    H115591   2.242   2.262   5.167 -0.4950  0.8125  0.9658
 5209TIP3    H215592   2.199   2.119   5.140  1.5292  0.3820 -0.1868
 5210TIP3   OH215593   1.616   6.484   4.426  0.0120 -0.6664  0.3263
 5210TIP3    H115594   1.583   6.396   4.411 -1.6206 -0.2490  1.2859
 5210TIP3    H215595   1.565   6.517   4.500  0.0002  1.3814 -0.5371
 5211TIP3   OH215596   0.300   1.100   2.968  0.1618 -0.4722  0.2221
 5211TIP3    H115597   0.343   1.113   3.053  1.4667 -0.3729 -0.4278
 5211TIP3    H215598   0.332   1.015   2.938  0.9104  0.1526 -0.8280
 5212TIP3   OH215599   4.692   2.845   3.374  0.6489 -0.1043  0.4074
 5212TIP3    H115600   4.705   2.876   3.464  0.4011  0.6554  0.1939
 5212TIP3    H215601   4.765   2.785   3.359 -0.1039 -1.3698  1.5907
 5213TIP3   OH215602   4.185   5.763   1.555  0.2655  0.0171  0.5285
 5213TIP3    H115603   4.171   5.850   1.518 -1.2354 -0.0195  0.9685
 5213TIP3    H215604   4.252   5.724   1.499  0.0814  1.0024 -0.4061
 5214TIP3   OH215605   4.008   3.190   1.230  0.2871 -0.1811  0.6069
 5214TIP3    H115606   3.981   3.267   1.180 -1.1788 -1.2531 -0.3197
 5214TIP3    H215607   4.013   3.221   1.320 -1.5743  0.7173  0.4439
 5215TIP3   OH215608   6.025   4.321   3.767 -0.1038 -0.8032  0.0857
 5215TIP3    H115609   5.975   4.383   3.820 -0.1213  0.5526 -1.4418
 5215TIP3    H215610   6.116   4.336   3.792 -0.1004 -0.0720 -0.3414
 5216TIP3   OH215611   7.169   5.646   2.426 -0.3063 -0.2456 -0.0589
 5216TIP3    H115612   7.154   5.555   2.401  1.4760 -0.4684 -0.4365
 5216TIP3    H215613   7.264   5.656   2.425 -0.4793  1.8742 -0.9074
 5217TIP3   OH215614   3.021   5.307   4.608  0.0199  0.4947  0.0496
 5217TIP3    H115615   3.026   5.376   4.542  0.9956  1.8862  1.5090
 5217TIP3    H215616   3.105   5.311   4.654 -1.0698  0.3922  2.1489
 5218TIP3   OH215617   0.279   2.930   0.910  0.2667 -0.1856  0.0803
 5218TIP3    H115618   0.339   2.970   0.972  1.1865  1.0907 -1.5563
 5218TIP3    H215619   0.334   2.908   0.834 -1.3977  1.7192 -1.7875
 5219TIP3   OH215620   7.027   4.784   2.844  0.8694  0.2656 -0.2010
 5219TIP3    H115621   6.952   4.837   2.871 -0.6851 -1.5149 -0.7344
 5219TIP3    H215622   7.091   4.847   2.811  0.2585  1.9781  1.6719
 5220TIP3   OH215623   2.996   0.510   0.451  0.5224  0.3324  0.1633
 5220TIP3    H115624   3.050   0.561   0.512  0.3439  1.1152 -0.3190
 5220TIP3    H215625   2.913   0.556   0.449  0.7390  0.6961 -1.1702
 5221TIP3   OH215626   3.301   2.561   5.815 -0.2193  0.4719  0.8475
 5221TIP3    H115627   3.372   2.497   5.825  0.3448  1.2004  1.5811
 5221TIP3    H215628   3.299   2.608   5.899 -1.2329  0.8046  0.6488
 5222TIP3   OH215629   3.055   1.164   4.786  0.6461 -0.4262  0.2600
 5222TIP3    H115630   3.050   1.070   4.803 -0.1461 -0.7782 -1.6363
 5222TIP3    H215631   3.149   1.183   4.784  0.8378 -1.3600 -0.1959
 5223TIP3   OH215632   4.352   1.056   1.421 -0.3900 -0.0041  0.0026
 5223TIP3    H115633   4.343   1.094   1.333 -0.5845 -0.4011 -0.1473
 5223TIP3    H215634   4.305   1.117   1.478 -0.6965 -0.0117 -0.2388
 5224TIP3   OH215635   1.936   0.333   2.179 -0.4828  0.4265  0.6671
 5224TIP3    H115636   1.954   0.422   2.209 -1.5801  0.9264 -0.0629
 5224TIP3    H215637   1.859   0.342   2.123  0.7586 -0.6076 -1.3415
 5225TIP3   OH215638   5.087   2.881   4.069 -0.0036  0.5389  0.4284
 5225TIP3    H115639   5.173   2.895   4.030 -0.7107 -1.1175 -1.9868
 5225TIP3    H215640   5.035   2.957   4.042 -0.3893 -0.4192 -1.8645
 5226TIP3   OH215641   2.302   3.566   4.455  0.5823  0.7049 -0.1886
 5226TIP3    H115642   2.328   3.623   4.528  1.4708  0.1818 -0.0839
 5226TIP3    H215643   2.298   3.478   4.493  1.0199  0.4358 -0.7576
 5227TIP3   OH215644   4.105   1.096   4.475  0.3246  0.3674  0.1571
 5227TIP3    H115645   4.142   1.050   4.550  0.5109  1.3507  0.6849
 5227TIP3    H215646   4.031   1.041   4.447  1.5476 -1.1068 -0.2956
 5228TIP3   OH215647   0.752   6.389   1.484  0.0736 -0.9882 -0.0268
 5228TIP3    H115648   0.792   6.472   1.509 -1.7622  0.4436 -1.5771
 5228TIP3    H215649   0.684   6.374   1.549  0.7127 -1.5701  0.5295
 5229TIP3   OH215650   1.297   4.339   5.714  0.1214 -0.1898  0.2303
 5229TIP3    H115651   1.211   4.305   5.740  0.5537 -1.2153  0.3533
 5229TIP3    H215652   1.332   4.379   5.794  0.3536 -1.0510  0.5738
 5230TIP3   OH215653   6.091   4.409   1.519  0.2874 -0.2375  0.4199
 5230TIP3    H115654   6.011   4.433   1.473  0.4874 -0.0895  0.1378
 5230TIP3    H215655   6.136   4.351   1.458  0.3162 -0.4525  0.6461
 5231TIP3   OH215656   5.239   6.760   2.934 -0.0905  0.1056  0.0459
 5231TIP3    H115657   5.243   6.665   2.944  0.4636  0.2059  0.8764
 5231TIP3    H215658   5.324   6.791   2.965  1.2541  0.6150 -3.6141
 5232TIP3   OH215659   0.905   0.733   3.451  0.4703 -0.8372 -0.2315
 5232TIP3    H115660   0.899   0.702   3.542 -1.6746 -1.4947 -0.5299
 5232TIP3    H215661   0.873   0.823   3.454 -0.3612 -1.1188 -0.4330
 5233TIP3   OH215662   6.133   3.717   4.531  0.3714  0.0579 -0.9787
 5233TIP3    H115663   6.228   3.705   4.523  0.4949 -1.8859  1.7119
 5233TIP3    H215664   6.122   3.808   4.560  1.6081 -0.1510  0.2615
 5234TIP3   OH215665   4.261   1.044   2.491  0.2996 -0.0475 -0.5869
 5234TIP3    H115666   4.285   0.954   2.512  0.3462 -0.0716 -0.7481
 5234TIP3    H215667   4.334   1.078   2.438  0.0724 -0.0600 -0.9105
 5235TIP3   OH215668   0.574   0.769   0.473 -0.3397 -0.6520 -0.6289
 5235TIP3    H115669   0.487   0.800   0.500 -0.1230 -0.6717  0.1023
 5235TIP3    H215670   0.559   0.727   0.388 -0.8885  0.1355 -0.9263
 5236TIP3   OH215671   0.494   5.690   2.953  0.4682  0.2560  0.2335
 5236TIP3    H115672   0.581   5.688   2.994 -0.0441  0.1096  1.3341
 5236TIP3    H215673   0.433   5.699   3.026 -0.6015 -1.9262 -0.3157
 5237TIP3   OH215674   4.925   2.946   1.747 -0.1951 -0.4840  0.5849
 5237TIP3    H115675   4.884   2.920   1.665 -0.8064 -0.1305  0.7755
 5237TIP3    H215676   4.960   2.865   1.784 -0.1546 -0.6844  0.1104
 5238TIP3   OH215677   0.135   2.172   4.651  0.1973  0.2674  0.6087
 5238TIP3    H115678   0.099   2.118   4.721  2.9603 -1.8541  0.5743
 5238TIP3    H215679   0.200   2.227   4.695  1.1948 -0.3290 -0.0713
 5239TIP3   OH215680   3.930   5.339   1.082 -0.3185  0.0039 -0.2682
 5239TIP3    H115681   3.971   5.283   1.016  0.6498  1.6949 -1.1524
 5239TIP3    H215682   4.003   5.382   1.125 -1.0453  0.4654  0.5231
 5240TIP3   OH215683   5.634   4.949   4.418 -0.3241 -0.4958  0.4824
 5240TIP3    H115684   5.669   5.026   4.373  1.2192 -0.2147  2.0842
 5240TIP3    H215685   5.542   4.971   4.435 -0.9908 -0.6178 -2.4180
 5241TIP3   OH215686   1.405   2.178   0.145 -0.8458  0.5077 -0.1346
 5241TIP3    H115687   1.330   2.133   0.183  0.3493  0.2991  2.1673
 5241TIP3    H215688   1.431   2.124   0.070 -1.3235 -0.9127  0.6988
 5242TIP3   OH215689   6.763   4.268   2.330 -0.4129 -0.4348 -0.1756
 5242TIP3    H115690   6.789   4.252   2.420 -0.5729 -1.8649 -0.3704
 5242TIP3    H215691   6.817   4.209   2.278 -1.8423 -1.1972 -0.8344
 5243TIP3   OH215692   5.907   2.549   3.435 -0.7435 -0.1146 -0.3616
 5243TIP3    H115693   5.949   2.504   3.361 -2.7617  0.0096 -1.6489
 5243TIP3    H215694   5.818   2.565   3.406 -1.8874 -0.8168  2.4461
 5244TIP3   OH215695   4.762   0.035   0.100 -0.0042 -0.2087 -0.0780
 5244TIP3    H115696   4.707  -0.004   0.168 -1.8391 -0.9085 -1.8559
 5244TIP3    H215697   4.849   0.040   0.139 -1.1656  0.3471  2.6435
 5245TIP3   OH215698   2.613   2.760   1.404  0.0351  0.1808 -0.1709
 5245TIP3    H115699   2.630   2.854   1.399 -0.7186  0.3049 -0.5801
 5245TIP3    H215700   2.695   2.719   1.376  0.5551  0.6991  0.5577
 5246TIP3   OH215701   5.148   1.523   1.592  0.1158  0.8287  0.4752
 5246TIP3    H115702   5.235   1.486   1.604  0.1668  1.1246  1.0814
 5246TIP3    H215703   5.124   1.557   1.678 -0.9840 -0.0683  0.5527
 5247TIP3   OH215704   1.689   6.715   1.887 -0.1337  0.1618 -0.5684
 5247TIP3    H115705   1.636   6.727   1.808 -1.2553  1.2674  0.3242
 5247TIP3    H215706   1.712   6.803   1.915 -0.4482 -0.1634  0.7956
 5248TIP3   OH215707   1.994   2.232   5.783  0.4811 -0.4595  0.2901
 5248TIP3    H115708   2.037   2.149   5.760  1.2925 -0.3652  1.3752
 5248TIP3    H215709   1.959   2.217   5.871 -1.2913 -0.3438 -0.3468
 5249TIP3   OH215710   3.501   6.807   4.943 -0.0615 -0.2609  0.1457
 5249TIP3    H115711   3.425   6.757   4.914  0.2616 -0.3798 -0.5218
 5249TIP3    H215712   3.568   6.789   4.876  0.8129 -0.8036  1.1363
 5250TIP3   OH215713   0.181   3.719   3.016  0.0684  0.5406  0.1821
 5250TIP3    H115714   0.157   3.812   3.010 -0.7452  0.3769  0.7618
 5250TIP3    H215715   0.272   3.716   2.987  0.1094  1.5235  0.1830
 5251TIP3   OH215716   6.855   1.571   5.369 -0.0817  0.1414  0.0374
 5251TIP3    H115717   6.923   1.534   5.312  0.3617  0.2627  0.4737
 5251TIP3    H215718   6.883   1.547   5.458 -1.6560 -1.5500  0.1310
 5252TIP3   OH215719   2.330   1.897   5.650 -0.3579 -0.5647 -0.0960
 5252TIP3    H115720   2.412   1.878   5.695 -1.3981 -1.7901  1.3771
 5252TIP3    H215721   2.331   1.992   5.638  2.0481 -0.7148 -1.7554
 5253TIP3   OH215722   3.763   5.526   0.995  0.3159 -0.0647  1.0689
 5253TIP3    H115723   3.691   5.502   0.938  0.2268  1.1655  0.6257
 5253TIP3    H215724   3.807   5.443   1.015 -0.1315 -0.6144 -0.1270
 5254TIP3   OH215725   0.876   2.778   2.063 -0.0440 -0.0242 -0.1607
 5254TIP3    H115726   0.786   2.757   2.038 -0.2144  0.9288 -0.3811
 5254TIP3    H215727   0.889   2.868   2.034  0.8889 -0.0501  0.1335
 5255TIP3   OH215728   0.749   0.763   2.522  0.1119  0.0214  0.2806
 5255TIP3    H115729   0.677   0.778   2.459  0.9468  3.3254 -0.0718
 5255TIP3    H215730   0.816   0.827   2.497  2.1943 -1.3294  2.0893
 5256TIP3   OH215731   1.606   2.215   3.014  0.4154 -0.3165 -0.0403
 5256TIP3    H115732   1.671   2.145   3.007  2.7556  1.7527 -0.4346
 5256TIP3    H215733   1.615   2.265   2.933  0.2357  1.5389  1.0181
 5257TIP3   OH215734   0.771   0.194   4.424  0.1336  0.0458  0.3644
 5257TIP3    H115735   0.824   0.125   4.384  0.6844 -0.3456  1.7220
 5257TIP3    H215736   0.833   0.245   4.477 -0.7646 -0.2546  1.7626
 5258TIP3   OH215737   4.797   0.572   3.150 -0.2969  0.0245  0.0975
 5258TIP3    H115738   4.728   0.559   3.086 -0.3826  1.0398 -0.0339
 5258TIP3    H215739   4.833   0.484   3.165 -2.4120 -0.7242  1.0985
 5259TIP3   OH215740   1.450   5.678   2.705 -0.0578  0.1775 -0.1527
 5259TIP3    H115741   1.498   5.632   2.636 -0.3623 -0.8568  0.3150
 5259TIP3    H215742   1.358   5.663   2.684 -0.2170  1.9500 -0.9080
 5260TIP3   OH215743   2.312   6.771   3.376 -0.2190 -1.0189 -0.0345
 5260TIP3    H115744   2.307   6.861   3.343 -1.2898 -1.2844 -0.6506
 5260TIP3    H215745   2.221   6.744   3.388 -0.0680 -2.8266 -2.1671
 5261TIP3   OH215746   3.826   0.083   3.477 -0.2090  0.3324  0.1195
 5261TIP3    H115747   3.862   0.061   3.562  1.8738 -2.3929 -1.3069
 5261TIP3    H215748   3.887   0.147   3.441 -1.2384  1.6970  0.6810
 5262TIP3   OH215749   6.502   5.645   5.055 -0.5729 -0.4513  0.3734
 5262TIP3    H115750   6.495   5.736   5.084 -1.0298 -0.7515  1.2305
 5262TIP3    H215751   6.546   5.650   4.970  0.0072  0.5231  0.7185
 5263TIP3   OH215752   2.088   4.549   5.612 -0.0413  0.4540  0.5759
 5263TIP3    H115753   2.099   4.473   5.669  0.4760  1.3930  1.7907
 5263TIP3    H215754   2.003   4.586   5.636  0.0084  0.6368  0.4764
 5264TIP3   OH215755   6.980   5.761   0.710 -0.1084  0.3804  0.4268
 5264TIP3    H115756   6.924   5.684   0.717 -0.3798  0.6391  1.2727
 5264TIP3    H215757   6.938   5.815   0.643  0.4293 -0.4797 -0.6180
 5265TIP3   OH215758   6.571   4.041   2.643  0.1510  0.3421  0.0459
 5265TIP3    H115759   6.525   4.067   2.563 -0.7278  1.3589  0.8549
 5265TIP3    H215760   6.646   4.099   2.647 -1.0143  1.8706  1.0808
 5266TIP3   OH215761   4.193   5.146   2.271 -0.2371  0.2548  0.1261
 5266TIP3    H115762   4.273   5.158   2.219 -0.2858  0.6632  0.1429
 5266TIP3    H215763   4.140   5.086   2.218  0.2141 -0.2790  0.2696
 5267TIP3   OH215764   1.492   4.680   4.105  0.5008  0.2890  0.8355
 5267TIP3    H115765   1.533   4.603   4.143 -0.6045 -1.3598 -1.0784
 5267TIP3    H215766   1.564   4.726   4.061  0.8673 -0.7751  0.2878
 5268TIP3   OH215767   4.362   5.394   4.305 -0.3327  0.3395  0.2484
 5268TIP3    H115768   4.389   5.391   4.397 -1.7980 -0.7030  0.6729
 5268TIP3    H215769   4.410   5.323   4.264 -0.3957  0.2018  0.4127
 5269TIP3   OH215770   4.629   5.382   4.806  0.1222 -0.2485 -0.5709
 5269TIP3    H115771   4.693   5.452   4.793 -0.2266 -0.0429 -1.2362
 5269TIP3    H215772   4.658   5.312   4.747 -0.2490 -0.1676 -0.8485
 5270TIP3   OH215773   6.829   0.267   2.221  0.0623 -0.0669  0.4886
 5270TIP3    H115774   6.807   0.174   2.234  0.9145 -0.2345  0.7634
 5270TIP3    H215775   6.821   0.280   2.127 -0.1425 -0.3937  0.4563
 5271TIP3   OH215776   2.011   6.542   1.288 -0.6102  0.3738  0.3312
 5271TIP3    H115777   2.042   6.488   1.361  0.6909  0.4126 -0.1581
 5271TIP3    H215778   1.927   6.502   1.263  0.0396 -1.0815  0.3494
 5272TIP3   OH215779   5.972   5.451   5.547  0.1705  0.2236  0.1474
 5272TIP3    H115780   5.915   5.440   5.623  1.4160 -1.0108  0.9766
 5272TIP3    H215781   6.056   5.414   5.576  0.4228 -1.1379 -2.1313
 5273TIP3   OH215782   3.437   5.120   3.821  0.5094 -0.0103  0.3479
 5273TIP3    H115783   3.429   5.027   3.842 -2.4534 -0.3759 -1.8287
 5273TIP3    H215784   3.436   5.123   3.725 -3.0310  2.3566  0.2635
 5274TIP3   OH215785   2.474   6.749   3.759 -0.2746 -0.2207 -0.0830
 5274TIP3    H115786   2.558   6.794   3.769 -1.0224  0.9010  1.7792
 5274TIP3    H215787   2.489   6.663   3.797  0.2338 -0.3152 -0.4813
 5275TIP3   OH215788   2.809   4.148   4.751  0.0256  0.5653  0.3147
 5275TIP3    H115789   2.884   4.089   4.752  0.5755  0.9763 -3.2933
 5275TIP3    H215790   2.833   4.219   4.811  0.7966 -1.1411  2.1297
 5276TIP3   OH215791   5.682   2.160   1.550 -0.1344 -0.0016  0.3067
 5276TIP3    H115792   5.621   2.227   1.581  2.0120  0.6633  3.6187
 5276TIP3    H215793   5.763   2.207   1.531  1.4398 -1.4908  2.7297
 5277TIP3   OH215794   5.037   4.739   2.631  0.1051  0.5995  0.2470
 5277TIP3    H115795   5.098   4.802   2.594  1.2090 -1.1134 -1.0395
 5277TIP3    H215796   5.092   4.676   2.677 -0.8489  0.0495  0.6833
 5278TIP3   OH215797   6.893   5.996   3.236 -0.6326 -0.0687  0.1258
 5278TIP3    H115798   6.957   6.066   3.247  0.7427 -1.2981  0.2162
 5278TIP3    H215799   6.887   5.984   3.141 -1.2850  0.5152  0.0829
 5279TIP3   OH215800   1.198   5.123   2.223 -0.5440 -0.1675  0.2659
 5279TIP3    H115801   1.235   5.156   2.141 -1.8737  1.1120  0.1531
 5279TIP3    H215802   1.152   5.043   2.198 -0.8715  0.1685 -0.2216
 5280TIP3   OH215803   0.779   5.531   3.612 -0.3942  0.1243 -0.5999
 5280TIP3    H115804   0.717   5.598   3.641 -1.3289 -0.6666 -0.6801
 5280TIP3    H215805   0.786   5.544   3.517  0.4969  0.9567 -0.4330
 5281TIP3   OH215806   6.984   3.158   2.529  0.1080  0.9335 -0.7023
 5281TIP3    H115807   7.045   3.214   2.480 -0.0678  1.5720 -0.2187
 5281TIP3    H215808   6.930   3.220   2.578  0.2400  0.3219  0.2439
 5282TIP3   OH215809   0.143   5.594   0.657 -0.5299 -0.3994 -0.6106
 5282TIP3    H115810   0.090   5.582   0.578  0.2056 -0.8553 -1.0509
 5282TIP3    H215811   0.120   5.521   0.713 -1.6453  0.3608 -0.0457
 5283TIP3   OH215812   4.958   5.694   5.057  0.3403  0.0193 -0.0560
 5283TIP3    H115813   4.962   5.743   4.975  0.2280  1.6729  0.8890
 5283TIP3    H215814   4.975   5.603   5.031  1.2374  0.6286 -1.7735
 5284TIP3   OH215815   3.160   6.534   1.448  0.0680 -0.9653 -0.5848
 5284TIP3    H115816   3.216   6.583   1.387 -1.0147 -1.0425 -1.6681
 5284TIP3    H215817   3.195   6.445   1.446 -1.1753 -1.4646 -2.6970
 5285TIP3   OH215818   3.545   6.449   4.289  0.0901  0.3465 -0.1724
 5285TIP3    H115819   3.605   6.493   4.350 -0.7612 -0.3414  1.2132
 5285TIP3    H215820   3.602   6.399   4.231  0.9707  1.6933 -0.5182
 5286TIP3   OH215821   0.836   3.646   3.028 -0.5760  0.1314 -0.2398
 5286TIP3    H115822   0.889   3.723   3.049 -0.5073  0.1526 -0.4777
 5286TIP3    H215823   0.810   3.659   2.937 -0.8218  0.0211 -0.1866
 5287TIP3   OH215824   3.411   1.507   5.492  0.5979 -0.3016 -0.0547
 5287TIP3    H115825   3.373   1.539   5.575  2.0721  0.6491  0.2813
 5287TIP3    H215826   3.395   1.413   5.494 -1.6056  0.0114  0.1195
 5288TIP3   OH215827   0.243   1.556   2.375 -0.2559  0.3475 -0.1580
 5288TIP3    H115828   0.270   1.641   2.343 -2.9471  2.3454  2.3248
 5288TIP3    H215829   0.325   1.509   2.392  1.4417  3.2626  0.3814
 5289TIP3   OH215830   6.959   0.297   5.250  0.1017 -0.1334  0.3255
 5289TIP3    H115831   6.949   0.379   5.298 -0.7904  0.4437 -0.7876
 5289TIP3    H215832   6.915   0.313   5.167  0.4130 -1.5609 -0.1376
 5290TIP3   OH215833   5.231   1.228   0.033 -0.0600 -0.5908 -0.1667
 5290TIP3    H115834   5.177   1.181  -0.030 -0.0014 -1.1559  0.1952
 5290TIP3    H215835   5.320   1.219   0.001 -0.2453  1.1246 -1.2624
 5291TIP3   OH215836   1.417   3.358   2.160  0.4098 -0.3696  0.1864
 5291TIP3    H115837   1.450   3.276   2.123  0.6536 -0.6871  1.0814
 5291TIP3    H215838   1.333   3.372   2.116  1.1836 -0.1520 -1.2744
 5292TIP3   OH215839   1.928   3.853   1.966  0.3245 -0.1981  0.4752
 5292TIP3    H115840   1.971   3.770   1.983 -0.2353 -0.4567  0.6762
 5292TIP3    H215841   1.999   3.915   1.950  0.7801 -0.5284  1.1611
 5293TIP3   OH215842   3.643   1.587   4.542 -0.0513  0.3308  0.4516
 5293TIP3    H115843   3.630   1.574   4.636  0.0681 -0.5726  0.3491
 5293TIP3    H215844   3.604   1.510   4.501 -0.6768  1.0100 -0.2880
 5294TIP3   OH215845   6.501   6.486   2.101 -0.5466  0.1495 -0.3535
 5294TIP3    H115846   6.494   6.524   2.188  1.2876 -0.0564 -0.0807
 5294TIP3    H215847   6.461   6.552   2.043  0.0305  1.2224  0.4303
 5295TIP3   OH215848   5.944   0.965   4.600  0.3657  0.0889  0.1148
 5295TIP3    H115849   5.935   1.059   4.584  0.8138  0.6088  2.5631
 5295TIP3    H215850   5.964   0.958   4.694 -0.6822 -2.5137  0.2244
 5296TIP3   OH215851   0.164   3.271   0.672 -0.4445  0.4255  0.0888
 5296TIP3    H115852   0.186   3.276   0.765  1.7232 -0.5635 -0.3371
 5296TIP3    H215853   0.115   3.189   0.663  0.4864 -0.1401  0.1465
 5297TIP3   OH215854   3.885   0.316   0.428  0.2085  0.7602  0.3666
 5297TIP3    H115855   3.810   0.329   0.370  0.8333  0.0661 -0.6272
 5297TIP3    H215856   3.961   0.337   0.374  0.8635 -0.7831  0.6470
 5298TIP3   OH215857   0.641   0.498   3.921  0.4053  0.1152 -0.4727
 5298TIP3    H115858   0.680   0.577   3.882 -0.8775  0.6798 -0.6334
 5298TIP3    H215859   0.630   0.439   3.847  0.0457  0.3377 -0.6011
 5299TIP3   OH215860   5.600   6.241   1.164 -0.3946  0.0224  0.2406
 5299TIP3    H115861   5.605   6.241   1.260  0.5921  0.1264  0.2066
 5299TIP3    H215862   5.652   6.164   1.138  2.4362  1.9393 -0.2844
 5300TIP3   OH215863   6.331   6.473   2.557 -0.3248 -0.2512  0.4136
 5300TIP3    H115864   6.381   6.421   2.494 -0.6056  2.9771 -2.8157
 5300TIP3    H215865   6.394   6.535   2.592 -0.9988  0.6496  0.0808
 5301TIP3   OH215866   4.836   4.688   1.981  0.1444 -0.0279 -0.1243
 5301TIP3    H115867   4.756   4.666   1.934 -0.6898  1.9148  0.2658
 5301TIP3    H215868   4.902   4.699   1.912 -0.7468  1.5091 -0.7899
 5302TIP3   OH215869   3.723   4.889   0.490  0.4816 -0.1277 -0.3653
 5302TIP3    H115870   3.781   4.910   0.563  0.1758  1.9739 -0.6683
 5302TIP3    H215871   3.766   4.817   0.445  2.5393  0.9237 -0.2030
 5303TIP3   OH215872   1.406   1.732   5.340 -0.4132  0.0733  0.2843
 5303TIP3    H115873   1.415   1.684   5.258 -0.2027 -1.3259  1.0903
 5303TIP3    H215874   1.462   1.809   5.330  0.1038 -0.4175 -0.6380
 5304TIP3   OH215875   4.847   3.896   1.105 -0.1407  0.6827  0.2186
 5304TIP3    H115876   4.845   3.982   1.148 -2.1081  1.4194 -1.2055
 5304TIP3    H215877   4.884   3.913   1.019  1.1575 -0.2660  0.5681
 5305TIP3   OH215878   3.087   5.719   5.544 -0.3735 -0.1158 -0.3565
 5305TIP3    H115879   3.157   5.721   5.479  1.0750  0.9436  1.1466
 5305TIP3    H215880   3.099   5.637   5.591  1.5334  1.1474  1.5391
 5306TIP3   OH215881   4.920   4.851   1.394  0.7321 -0.0373  0.7988
 5306TIP3    H115882   4.984   4.886   1.456  2.8817  1.1782 -1.8887
 5306TIP3    H215883   4.967   4.783   1.345 -0.0293  0.6921 -1.0655
 5307TIP3   OH215884   2.460   3.119   2.395  0.2451 -0.3978  0.6265
 5307TIP3    H115885   2.400   3.054   2.433 -0.2085 -0.3241  0.0408
 5307TIP3    H215886   2.546   3.077   2.399 -0.4129 -2.3635 -2.5365
 5308TIP3   OH215887   5.333   0.124   1.482 -0.5163 -0.3105  0.0155
 5308TIP3    H115888   5.330   0.059   1.553 -4.3235  2.2172  2.5800
 5308TIP3    H215889   5.376   0.200   1.521 -2.0688  0.9047 -0.5455
 5309TIP3   OH215890   6.975   1.865   5.302 -0.2012  0.3842 -0.4994
 5309TIP3    H115891   6.923   1.876   5.223  0.0727  2.4169 -0.4537
 5309TIP3    H215892   7.054   1.819   5.274 -0.4545  0.4015 -1.2464
 5310TIP3   OH215893   0.611   3.427   3.777  0.2278  0.3615 -0.5103
 5310TIP3    H115894   0.556   3.348   3.786 -0.7989  1.0844 -0.2386
 5310TIP3    H215895   0.638   3.426   3.685 -0.8030  0.3303 -0.8340
 5311TIP3   OH215896   0.073   1.562   4.225 -0.3836  0.5230  0.0457
 5311TIP3    H115897   0.151   1.549   4.279 -1.7291  0.5854  2.1370
 5311TIP3    H215898   0.047   1.652   4.242  0.3675  1.2968 -2.5144
 5312TIP3   OH215899   6.282   3.445   0.252  0.3896  0.0190  0.0080
 5312TIP3    H115900   6.227   3.497   0.193  1.6030 -0.2339 -1.4071
 5312TIP3    H215901   6.328   3.511   0.305  1.0961  0.3718 -1.0147
 5313TIP3   OH215902   1.938   2.974   2.701  0.3083  0.1533  0.3742
 5313TIP3    H115903   1.948   3.048   2.761 -0.8405  0.2802  0.4343
 5313TIP3    H215904   2.022   2.928   2.705  0.4050  0.4156  1.7413
 5314TIP3   OH215905   1.891   2.352   0.575 -0.3146  0.0624  0.0567
 5314TIP3    H115906   1.867   2.440   0.547 -0.7022  0.5140  1.7192
 5314TIP3    H215907   1.985   2.345   0.556 -0.4917  0.4357 -1.0204
 5315TIP3   OH215908   2.250   5.746   4.655  0.1486  0.4730  0.3853
 5315TIP3    H115909   2.228   5.729   4.747  0.4237 -0.7896  0.2412
 5315TIP3    H215910   2.332   5.796   4.659  0.4992 -0.1235  0.8257
 5316TIP3   OH215911   6.203   1.226   1.661 -0.9002  0.2110 -0.5165
 5316TIP3    H115912   6.121   1.274   1.656  0.3348  2.5321  0.4221
 5316TIP3    H215913   6.244   1.239   1.575 -1.2648 -0.5524 -0.8189
 5317TIP3   OH215914   6.391   0.029   3.862  0.5519  0.6071 -0.3984
 5317TIP3    H115915   6.340  -0.016   3.930  2.0275 -0.2172  0.2000
 5317TIP3    H215916   6.461   0.073   3.911  0.9932  0.9119 -1.2978
 5318TIP3   OH215917   0.036   3.319   4.404 -0.3720  0.3847 -0.1234
 5318TIP3    H115918   0.050   3.276   4.320 -0.9858 -0.2173  0.0708
 5318TIP3    H215919   0.124   3.337   4.438 -0.1216  0.3826 -0.7647
 5319TIP3   OH215920   7.046   3.773   4.299 -0.3259  0.3994  0.2025
 5319TIP3    H115921   7.119   3.718   4.327  1.4894  1.3398 -2.3219
 5319TIP3    H215922   7.009   3.728   4.223 -0.7966  1.1530 -0.0316
 5320TIP3   OH215923   6.069   4.333   0.203 -0.2933  0.3390  0.2188
 5320TIP3    H115924   6.064   4.243   0.171  1.5007  0.8136 -1.6125
 5320TIP3    H215925   6.162   4.354   0.199 -0.4626  1.7555  2.2568
 5321TIP3   OH215926   4.153   0.337   0.584  0.7496 -0.0776 -0.4806
 5321TIP3    H115927   4.088   0.380   0.529  0.2132  0.7904  0.7713
 5321TIP3    H215928   4.107   0.322   0.667  1.4652 -1.5179 -0.3211
 5322TIP3   OH215929   2.855   0.327   5.319  0.1014 -0.1893 -0.0899
 5322TIP3    H115930   2.920   0.377   5.367  0.0894 -0.2694  0.0102
 5322TIP3    H215931   2.857   0.240   5.359 -0.2666 -0.1128  0.0982
 5323TIP3   OH215932   2.201   0.039   5.281 -0.5470 -0.0891  0.3393
 5323TIP3    H115933   2.140   0.104   5.245  0.0436 -0.3374 -1.1690
 5323TIP3    H215934   2.278   0.089   5.305 -0.5573 -0.0638  0.3196
 5324TIP3   OH215935   3.029   4.147   3.327 -0.1274  0.5864 -0.5372
 5324TIP3    H115936   3.072   4.231   3.344 -1.1446  0.9269  0.4142
 5324TIP3    H215937   3.038   4.099   3.409  0.0911 -0.0905 -0.9481
 5325TIP3   OH215938   2.667   3.722   3.072  0.0212 -0.7209  0.3401
 5325TIP3    H115939   2.636   3.637   3.043 -1.9810 -0.5438  1.7845
 5325TIP3    H215940   2.587   3.773   3.089  1.1022  0.4570  2.2992
 5326TIP3   OH215941   1.550   5.930   4.912  0.4465  0.4139 -0.0293
 5326TIP3    H115942   1.606   5.929   4.990  2.0932 -1.2582 -1.1469
 5326TIP3    H215943   1.566   5.845   4.870 -2.2023  0.2844 -0.9589
 5327TIP3   OH215944   1.911   1.771   5.647 -0.8857 -0.7512 -0.3425
 5327TIP3    H115945   1.912   1.709   5.574  2.5756 -2.1939  0.7227
 5327TIP3    H215946   1.915   1.716   5.726  1.8607  0.6314  0.6482
 5328TIP3   OH215947   2.464   1.807   4.041  0.4351  0.8228 -0.0271
 5328TIP3    H115948   2.450   1.812   4.136  0.0436  0.0658 -0.0365
 5328TIP3    H215949   2.495   1.718   4.026 -0.1695  0.7168 -0.6927
 5329TIP3   OH215950   4.404   4.806   1.404 -0.5251 -0.0991  0.3067
 5329TIP3    H115951   4.361   4.844   1.327 -0.9765  0.6700  0.9314
 5329TIP3    H215952   4.491   4.845   1.404 -0.0527 -1.1028 -0.5445
 5330TIP3   OH215953   1.103   6.024   2.565  0.0894 -0.8152  0.1430
 5330TIP3    H115954   1.035   6.047   2.628  0.7611 -0.8996  0.9175
 5330TIP3    H215955   1.143   5.945   2.600  1.9316  0.3299  0.8209
 5331TIP3   OH215956   4.439   4.319   2.395 -0.6057  0.4842 -0.3721
 5331TIP3    H115957   4.448   4.277   2.309 -0.6649 -0.3048 -0.0004
 5331TIP3    H215958   4.483   4.403   2.384  0.9305 -0.3055 -0.6921
 5332TIP3   OH215959   0.179   2.671   4.287 -0.7173 -0.2208  0.2798
 5332TIP3    H115960   0.175   2.634   4.375 -1.7334  0.2373  0.4429
 5332TIP3    H215961   0.243   2.618   4.241  2.8077  1.8255  2.3600
 5333TIP3   OH215962   1.657   6.000   1.279  0.8593 -0.4437 -0.2075
 5333TIP3    H115963   1.688   6.063   1.344  1.1059 -0.3094 -0.4514
 5333TIP3    H215964   1.566   5.984   1.302  0.7840  0.0347 -0.1650
 5334TIP3   OH215965   5.237   4.890   4.676 -0.2002  0.2592  0.3745
 5334TIP3    H115966   5.283   4.812   4.706 -1.0187  0.5878  2.6800
 5334TIP3    H215967   5.268   4.960   4.733 -0.7048  1.3035 -0.5804
 5335TIP3   OH215968   4.959   0.645   5.142 -0.1475 -0.3060  0.3191
 5335TIP3    H115969   4.940   0.579   5.209  0.0778  0.0858  0.7756
 5335TIP3    H215970   4.893   0.712   5.155 -0.7025 -0.6810 -0.4881
 5336TIP3   OH215971   0.436   4.910   5.057  0.3677 -0.1516  0.2703
 5336TIP3    H115972   0.468   4.993   5.022 -0.7886  0.9751  1.7378
 5336TIP3    H215973   0.341   4.920   5.062  0.1851 -1.6086  0.3851
 5337TIP3   OH215974   6.014   3.533   5.000 -0.1071 -0.1499  0.4305
 5337TIP3    H115975   5.992   3.536   4.907 -2.0739 -0.3575  0.8443
 5337TIP3    H215976   5.962   3.604   5.038  1.6915  0.8000  1.2100
 5338TIP3   OH215977   3.348   2.443   4.787 -0.3881  0.0745  0.2975
 5338TIP3    H115978   3.416   2.511   4.791 -0.7766  0.4414  1.1836
 5338TIP3    H215979   3.281   2.479   4.728  0.6260 -0.7337 -1.4022
 5339TIP3   OH215980   4.400   2.291   0.471 -0.0398 -0.2246  0.5061
 5339TIP3    H115981   4.394   2.233   0.546 -1.1410 -2.7272 -1.3805
 5339TIP3    H215982   4.469   2.253   0.416 -0.7971  0.1977 -0.7962
 5340TIP3   OH215983   2.697   2.321   2.150 -0.0709  0.0915  0.3763
 5340TIP3    H115984   2.727   2.333   2.240  0.9160 -0.0093  0.0707
 5340TIP3    H215985   2.639   2.395   2.134  0.7124  0.7869  0.6937
 5341TIP3   OH215986   2.655   4.822   5.413 -0.1101  0.3219 -0.2632
 5341TIP3    H115987   2.577   4.860   5.373  0.5421  1.1229 -0.8112
 5341TIP3    H215988   2.681   4.886   5.479  0.3445  0.2843 -0.4029
 5342TIP3   OH215989   1.646   3.315   4.330 -0.1771  0.9596 -0.3638
 5342TIP3    H115990   1.563   3.279   4.298 -1.0811  3.7817 -1.5992
 5342TIP3    H215991   1.676   3.372   4.258  2.2091  0.9735  0.5535
 5343TIP3   OH215992   2.271   1.701   4.516  0.2167  0.0504 -0.1454
 5343TIP3    H115993   2.187   1.655   4.510 -0.9877  1.9743  1.0100
 5343TIP3    H215994   2.323   1.649   4.577 -0.6463 -0.4378  0.1876
 5344TIP3   OH215995   1.972   2.745   4.528 -0.0712  0.2422  0.2841
 5344TIP3    H115996   2.044   2.808   4.527 -0.9565  1.2861 -0.2574
 5344TIP3    H215997   2.015   2.659   4.519  1.2169  0.6654  1.8497
 5345TIP3   OH215998   5.296   1.529   2.701  0.5847 -0.1021 -0.4338
 5345TIP3    H115999   5.326   1.444   2.733  2.0561  0.3537 -0.5217
 5345TIP3    H216000   5.325   1.531   2.609 -1.0405 -0.2250 -0.9709
 5346TIP3   OH216001   3.222   3.075   2.128  0.5457  0.3697  0.7206
 5346TIP3    H116002   3.180   3.039   2.206  0.5993  1.0385  1.0714
 5346TIP3    H216003   3.169   3.152   2.106 -1.1221 -1.3138 -1.5443
 5347TIP3   OH216004   6.906   4.123   4.693  0.9769  0.6485  0.0617
 5347TIP3    H116005   6.959   4.047   4.669  0.5477  0.2285  0.3963
 5347TIP3    H216006   6.816   4.094   4.678  0.8274  1.2286 -0.1683
 5348TIP3   OH216007   1.977   1.144   2.393 -0.4109  0.5253 -0.0626
 5348TIP3    H116008   2.005   1.078   2.456  0.2525  0.1267 -0.7599
 5348TIP3    H216009   1.967   1.224   2.444  0.6180  0.3314  0.4569
 5349TIP3   OH216010   2.873   5.978   4.817  0.1816 -0.6855  0.1763
 5349TIP3    H116011   2.841   6.068   4.822 -0.4792 -0.8541 -0.7841
 5349TIP3    H216012   2.867   5.945   4.907  1.9164  0.7003  0.8607
 5350TIP3   OH216013   1.587   6.660   1.603 -0.3187 -0.0462 -0.5209
 5350TIP3    H116014   1.581   6.569   1.576  1.8791 -0.7428  1.0133
 5350TIP3    H216015   1.669   6.691   1.564 -0.0095  0.6390  0.6160
 5351TIP3   OH216016   3.271   5.748   2.196  0.1599 -0.1549  0.3360
 5351TIP3    H116017   3.236   5.810   2.260  1.4887  0.4723  0.4889
 5351TIP3    H216018   3.245   5.784   2.111 -1.4888 -0.9152  0.4962
 5352TIP3   OH216019   6.574   6.287   3.056  0.8758 -0.4476 -0.7151
 5352TIP3    H116020   6.643   6.306   3.119  2.4471  0.8673 -2.6934
 5352TIP3    H216021   6.600   6.203   3.017  0.4124 -0.7951 -0.2893
 5353TIP3   OH216022   2.070   4.033   5.741  0.3769  0.2716 -0.0926
 5353TIP3    H116023   1.995   3.977   5.724  0.0235  0.8851 -0.6352
 5353TIP3    H216024   2.141   3.994   5.690  0.5423 -0.5281  0.7245
 5354TIP3   OH216025   6.122   6.784   0.502 -0.0903 -0.2481 -0.2011
 5354TIP3    H116026   6.127   6.763   0.409  0.6344 -0.8247 -0.0421
 5354TIP3    H216027   6.032   6.761   0.526 -0.5228  0.6492 -0.9190
 5355TIP3   OH216028   2.326   4.983   2.566 -0.1153  0.5902 -0.0143
 5355TIP3    H116029   2.321   5.058   2.507  1.3596 -0.0016 -0.9194
 5355TIP3    H216030   2.398   5.003   2.625  0.3380 -0.1479 -0.3098
 5356TIP3   OH216031   4.226   4.431   2.558 -0.3969  0.5702  0.2445
 5356TIP3    H116032   4.301   4.480   2.591  0.3701  0.1363 -0.7860
 5356TIP3    H216033   4.265   4.354   2.516 -1.3408  0.8780 -1.2589
 5357TIP3   OH216034   5.087   5.335   5.309  0.2391 -0.8584  0.0357
 5357TIP3    H116035   5.033   5.260   5.285 -0.3437 -0.4222 -0.0371
 5357TIP3    H216036   5.079   5.341   5.405 -0.2775 -0.4734 -0.0275
 5358TIP3   OH216037   2.114   5.419   2.465  0.1707  0.0181 -0.2016
 5358TIP3    H116038   2.136   5.328   2.481  0.3237  0.0394 -0.2890
 5358TIP3    H216039   2.022   5.418   2.436  0.2814 -0.1441 -0.5541
 5359TIP3   OH216040   3.042   4.847   1.556 -0.2028 -0.0526  0.5187
 5359TIP3    H116041   3.099   4.831   1.481  0.1124  0.7289  0.5825
 5359TIP3    H216042   3.074   4.787   1.624  0.3756  0.1930  0.4669
 5360TIP3   OH216043   1.680   4.443   4.151  0.6681 -0.4194  0.4013
 5360TIP3    H116044   1.697   4.418   4.060 -3.0328  1.5160 -1.0438
 5360TIP3    H216045   1.738   4.519   4.165 -0.0345  0.4462 -1.0822
 5361TIP3   OH216046   6.299   3.124   1.455 -0.0149  0.1227 -0.1366
 5361TIP3    H116047   6.302   3.210   1.413 -2.5102  0.7993  0.8362
 5361TIP3    H216048   6.365   3.072   1.410  0.8127  2.2269 -1.4950
 5362TIP3   OH216049   5.321   3.888   4.364 -0.1817  0.0758  0.6762
 5362TIP3    H116050   5.366   3.894   4.280  1.1159 -2.9619  1.0172
 5362TIP3    H216051   5.282   3.800   4.365 -1.7007  0.6872  2.5380
 5363TIP3   OH216052   0.294   5.688   0.989 -0.6050 -0.8211 -0.0623
 5363TIP3    H116053   0.214   5.696   0.937 -1.4316 -1.0172  1.1318
 5363TIP3    H216054   0.356   5.644   0.931 -0.6451  1.2334 -1.7483
 5364TIP3   OH216055   2.790   5.560   1.677  0.4416  0.1140 -0.0664
 5364TIP3    H116056   2.865   5.502   1.671  0.4471  0.2240 -1.1687
 5364TIP3    H216057   2.783   5.600   1.591 -1.7099 -0.9135 -0.4301
 5365TIP3   OH216058   0.434   2.469   2.172 -0.3664  0.2674  0.2448
 5365TIP3    H116059   0.373   2.467   2.245 -0.4809 -0.9219  0.1261
 5365TIP3    H216060   0.398   2.535   2.112  0.5950  2.4864  1.9528
 5366TIP3   OH216061   7.054   1.130   3.095  0.3882 -0.6869  0.0196
 5366TIP3    H116062   6.972   1.152   3.050  0.8142 -0.0897 -0.4869
 5366TIP3    H216063   7.032   1.132   3.188 -0.1488 -0.4174 -0.1062
 5367TIP3   OH216064   3.748   0.249   0.664 -0.2868  0.5406 -0.5412
 5367TIP3    H116065   3.805   0.279   0.594  0.1415  2.6468  0.6359
 5367TIP3    H216066   3.804   0.246   0.741 -1.4186  1.2664  0.3389
 5368TIP3   OH216067   0.556   2.529   0.577  0.5834 -0.1184 -0.1482
 5368TIP3    H116068   0.544   2.434   0.581 -0.1536 -0.0665  4.8518
 5368TIP3    H216069   0.470   2.562   0.551  0.5388 -0.7405 -0.8486
 5369TIP3   OH216070   3.553   3.351  -0.006 -0.2466 -0.4649 -0.2238
 5369TIP3    H116071   3.463   3.341   0.024 -0.6182 -0.1797 -1.2300
 5369TIP3    H216072   3.591   3.416   0.053 -1.0523  0.2997 -0.5320
 5370TIP3   OH216073   3.894   5.340   4.750  0.3951  0.1159  0.3721
 5370TIP3    H116074   3.869   5.253   4.780 -1.6085  1.9241  4.7907
 5370TIP3    H216075   3.940   5.379   4.824 -0.8997  3.6278 -0.4629
 5371TIP3   OH216076   5.740   1.632   1.492  0.3079  0.0799  0.5279
 5371TIP3    H116077   5.738   1.548   1.537 -0.5466 -0.1497  0.0886
 5371TIP3    H216078   5.691   1.691   1.549  0.0006  0.0103  0.3423
 5372TIP3   OH216079   7.020   0.047   2.052  0.1512 -0.0551 -0.5791
 5372TIP3    H116080   6.983  -0.036   2.081  0.0000  0.4839  0.8469
 5372TIP3    H216081   6.948   0.093   2.009 -0.2638  0.0872  0.2570
 5373TIP3   OH216082   5.105   6.043   4.920 -0.5853  0.2065 -0.4950
 5373TIP3    H116083   5.189   6.088   4.912 -0.1285 -0.7633 -1.3666
 5373TIP3    H216084   5.042   6.113   4.938 -0.2628  1.5406 -3.8807
 5374TIP3   OH216085   1.070   5.525   0.411  0.3526 -0.0235 -0.2777
 5374TIP3    H116086   1.145   5.550   0.465 -0.4640 -0.6671  1.2327
 5374TIP3    H216087   1.064   5.430   0.422  1.5425 -0.5748 -3.4212
 5375TIP3   OH216088   2.688   4.097   0.934 -0.3683  0.0523 -0.7709
 5375TIP3    H116089   2.593   4.085   0.925 -0.3032 -0.4100 -0.8670
 5375TIP3    H216090   2.717   4.022   0.985  0.4157 -1.6869 -3.5808
 5376TIP3   OH216091   5.695   2.673   0.753  0.0745  0.2886  0.4479
 5376TIP3    H116092   5.767   2.611   0.757 -0.5161 -0.3443  1.9490
 5376TIP3    H216093   5.622   2.629   0.796 -0.9770  1.2353 -0.2819
 5377TIP3   OH216094   1.450   3.727   0.635 -0.1387  0.0783 -0.0316
 5377TIP3    H116095   1.458   3.637   0.603  1.2194 -0.3865  1.4262
 5377TIP3    H216096   1.361   3.753   0.612 -0.1075 -1.1215 -1.7184
 5378TIP3   OH216097   1.342   0.713   3.788 -0.4029 -0.5377  0.5224
 5378TIP3    H116098   1.398   0.745   3.858 -1.4681  2.1495  0.2699
 5378TIP3    H216099   1.394   0.645   3.744  1.3508 -0.3492  2.1819
 5379TIP3   OH216100   1.603   5.223   2.521  0.5628  0.3517 -0.0569
 5379TIP3    H116101   1.525   5.176   2.490  0.9621 -0.2496 -0.1606
 5379TIP3    H216102   1.607   5.203   2.615 -0.1413  1.4481  0.2194
 5380TIP3   OH216103   0.496   3.082   1.481  0.0344 -0.4974 -0.3468
 5380TIP3    H116104   0.578   3.041   1.508  0.7923  1.5806  0.7646
 5380TIP3    H216105   0.438   3.070   1.556  0.7898  1.7034  0.6822
 5381TIP3   OH216106   3.315   5.349   3.985 -0.3099  0.6140 -0.0789
 5381TIP3    H116107   3.309   5.438   3.948 -1.6518  0.6341  0.1194
 5381TIP3    H216108   3.274   5.293   3.919  0.8599  0.0810 -0.3638
 5382TIP3   OH216109   2.177   1.847   3.554 -0.0263 -0.2426 -0.3149
 5382TIP3    H116110   2.242   1.793   3.510 -0.0889 -2.2627  1.8683
 5382TIP3    H216111   2.220   1.876   3.634 -1.1155  0.1448  0.1548
 5383TIP3   OH216112   5.115   6.479   2.522  0.0658  0.4050  0.5078
 5383TIP3    H116113   5.044   6.448   2.577  0.0468  1.8566  1.3519
 5383TIP3    H216114   5.076   6.547   2.467  0.2425 -0.5459 -0.8616
 5384TIP3   OH216115   6.970   3.059   3.484 -0.0786 -0.2485 -0.1697
 5384TIP3    H116116   6.999   3.134   3.432 -3.2328  0.9903 -0.3366
 5384TIP3    H216117   6.963   3.093   3.573  1.2665 -1.2239  0.3485
 5385TIP3   OH216118   2.592   4.084   2.328 -0.8927  0.1064  0.2651
 5385TIP3    H116119   2.540   4.135   2.265 -0.1656  2.8227  1.7120
 5385TIP3    H216120   2.544   4.092   2.411  1.1877  1.8328  1.4009
 5386TIP3   OH216121   1.549   4.283   3.254  0.5190 -0.2621  0.1528
 5386TIP3    H116122   1.626   4.321   3.297 -0.0915  1.3139 -0.0707
 5386TIP3    H216123   1.585   4.233   3.181  1.3666  0.0757  0.3228
 5387TIP3   OH216124   4.578   1.880   0.935  0.1098  0.0170 -0.3366
 5387TIP3    H116125   4.635   1.812   0.970  0.3520  0.5784  0.3872
 5387TIP3    H216126   4.516   1.833   0.879 -1.5990 -1.2564  2.3957
 5388TIP3   OH216127   6.164   4.903   0.160  0.5721  0.4494 -0.2087
 5388TIP3    H116128   6.140   4.847   0.086  0.7882  2.6713 -2.0396
 5388TIP3    H216129   6.095   4.969   0.164  1.5057  1.4178  0.4409
 5389TIP3   OH216130   5.608   1.081   4.763  0.6020  0.4729 -0.5036
 5389TIP3    H116131   5.550   1.042   4.828  2.4873 -0.3584  0.7582
 5389TIP3    H216132   5.634   1.007   4.707  2.0922  0.3874  0.2614
 5390TIP3   OH216133   2.491   6.424   4.460  0.4046 -0.8404  0.2792
 5390TIP3    H116134   2.415   6.470   4.426  0.8132 -0.8874 -0.7286
 5390TIP3    H216135   2.565   6.459   4.410  0.9142 -1.5250  0.5356
 5391TIP3   OH216136   1.467   5.391   0.863 -0.1711 -0.5158 -0.0860
 5391TIP3    H116137   1.403   5.449   0.903  0.1807 -0.5351  0.5132
 5391TIP3    H216138   1.420   5.350   0.790 -1.0475 -1.0607  0.7619
 5392TIP3   OH216139   0.914   2.168   3.700  0.1375 -1.2300 -0.0338
 5392TIP3    H116140   0.867   2.213   3.631  0.0989 -0.5741  0.4140
 5392TIP3    H216141   0.944   2.237   3.759 -1.0453 -1.8600  1.3802
 5393TIP3   OH216142   7.151   1.340   2.747  0.0706 -0.3801  0.1015
 5393TIP3    H116143   7.138   1.283   2.671  0.3249  1.5824 -1.4714
 5393TIP3    H216144   7.205   1.287   2.807  0.7452 -1.6111 -1.5138
 5394TIP3   OH216145   5.171   2.758   1.632 -0.2056 -0.2453  0.0483
 5394TIP3    H116146   5.242   2.730   1.574  0.0346 -0.2711  0.3509
 5394TIP3    H216147   5.127   2.828   1.585  1.3288  1.2397  0.7301
 5395TIP3   OH216148   7.013   3.491   5.770  0.5550 -0.3208  0.6868
 5395TIP3    H116149   7.041   3.520   5.857 -0.4344 -0.1460  0.9692
 5395TIP3    H216150   6.954   3.418   5.787  0.8117 -0.6616  0.1246
 5396TIP3   OH216151   2.791   1.230   1.369 -0.0360  0.4355 -1.1167
 5396TIP3    H116152   2.740   1.272   1.300 -0.2307  1.9609 -0.0813
 5396TIP3    H216153   2.883   1.244   1.343 -0.0756  2.0682 -0.5176
 5397TIP3   OH216154   6.713   3.655   3.797  0.5510  0.5566  0.0382
 5397TIP3    H116155   6.707   3.719   3.868  1.0526  0.4063  0.2204
 5397TIP3    H216156   6.707   3.570   3.841 -1.5347  0.4536 -0.3275
 5398TIP3   OH216157   3.297   2.851   3.198  0.3317  0.2096 -0.2772
 5398TIP3    H116158   3.320   2.830   3.289 -0.9529 -0.0320  0.0075
 5398TIP3    H216159   3.259   2.770   3.164 -1.2277  0.9467 -0.3320
 5399TIP3   OH216160   6.463   5.050   2.663  0.4203 -0.0622 -0.0869
 5399TIP3    H116161   6.491   5.080   2.749 -2.3651  0.8008  0.6092
 5399TIP3    H216162   6.532   5.080   2.603  1.0271  1.8208  1.4726
 5400TIP3   OH216163   0.641   5.620   0.604 -0.3154 -0.3588  0.0393
 5400TIP3    H116164   0.651   5.655   0.515  0.4542 -1.0037 -0.1463
 5400TIP3    H216165   0.575   5.551   0.595  0.7443 -1.3582 -0.3322
 5401TIP3   OH216166   2.555   6.389   4.739 -0.9543 -0.1579 -0.0936
 5401TIP3    H116167   2.582   6.469   4.783 -1.4803 -0.0428  0.0264
 5401TIP3    H216168   2.523   6.417   4.654 -0.8976 -0.2693 -0.1524
 5402TIP3   OH216169   4.795   3.862   2.622 -0.3936 -0.3110  0.0367
 5402TIP3    H116170   4.789   3.929   2.555 -0.1596 -0.0526  0.2733
 5402TIP3    H216171   4.800   3.910   2.704  1.8508 -0.5566  0.0894
 5403TIP3   OH216172   5.005   3.986   4.159  0.3142 -0.0641 -0.2579
 5403TIP3    H116173   4.982   4.036   4.081  1.7221  0.3023 -0.4623
 5403TIP3    H216174   5.052   4.047   4.215  2.1371 -1.1378 -0.5413
 5404TIP3   OH216175   0.486   5.989   2.237  0.0138 -0.5999  0.1281
 5404TIP3    H116176   0.415   5.968   2.176  0.2419 -2.1344  0.3623
 5404TIP3    H216177   0.485   5.918   2.301 -0.2234  0.9585  1.9608
 5405TIP3   OH216178   1.937   3.339   4.606 -0.1938  0.5439 -0.5199
 5405TIP3    H116179   1.966   3.264   4.554 -2.8124  2.1193 -4.6805
 5405TIP3    H216180   1.856   3.309   4.647 -0.6244  0.7483 -1.2228
 5406TIP3   OH216181   0.363   2.063   4.539 -0.9476 -0.2253 -0.1397
 5406TIP3    H116182   0.300   2.100   4.601 -1.0239 -2.0482  0.9533
 5406TIP3    H216183   0.322   1.982   4.509  1.2843 -2.1448  1.5726
 5407TIP3   OH216184   6.411   4.945   0.481 -0.8157  0.3573 -0.0954
 5407TIP3    H116185   6.371   4.860   0.463  0.0493  0.0684 -0.6864
 5407TIP3    H216186   6.337   5.001   0.506 -1.1549 -1.1237  2.5370
 5408TIP3   OH216187   3.227   6.752   3.004  0.1282  0.1326 -0.4152
 5408TIP3    H116188   3.202   6.660   3.016  1.8812 -0.4419 -0.8420
 5408TIP3    H216189   3.322   6.752   3.013  0.2419  1.7772 -1.3081
 5409TIP3   OH216190   6.595   1.853   0.151 -0.0293  0.3607 -0.1772
 5409TIP3    H116191   6.531   1.864   0.081  0.8083  1.8200 -0.7544
 5409TIP3    H216192   6.587   1.933   0.204 -0.1355 -0.3828  0.9851
 5410TIP3   OH216193   1.967   6.816   2.513 -0.3696  0.2947 -0.4831
 5410TIP3    H116194   2.056   6.783   2.526 -0.3769 -0.2090 -1.6762
 5410TIP3    H216195   1.926   6.808   2.599  0.4136 -0.4412 -0.1709
 5411TIP3   OH216196   3.891   1.743   4.174  0.4660 -0.1564  0.4002
 5411TIP3    H116197   3.895   1.825   4.223 -0.8662  0.2775 -0.1822
 5411TIP3    H216198   3.800   1.714   4.183  0.4247 -0.5415 -1.0465
 5412TIP3   OH216199   2.697   5.148   5.226 -0.1099  0.0044  0.1072
 5412TIP3    H116200   2.636   5.186   5.163  0.6600  0.9739 -0.0687
 5412TIP3    H216201   2.688   5.201   5.305  0.4428  0.1048  0.1087
 5413TIP3   OH216202   2.688   4.115   5.195  1.0470 -0.3038  0.8614
 5413TIP3    H116203   2.702   4.020   5.185 -2.2499 -0.7645 -0.5516
 5413TIP3    H216204   2.664   4.126   5.287 -0.5320 -1.2054  0.5875
 5414TIP3   OH216205   1.017   6.532   0.043 -0.1564  0.5544 -0.3653
 5414TIP3    H116206   1.088   6.536  -0.021 -0.0471 -0.0704 -0.2874
 5414TIP3    H216207   0.973   6.449   0.026 -0.1562  0.4051  0.3364
 5415TIP3   OH216208   5.482   0.973   0.771 -0.2920 -0.0715 -0.5196
 5415TIP3    H116209   5.514   0.887   0.744 -0.6451 -0.1835 -0.5918
 5415TIP3    H216210   5.428   0.956   0.849  1.8614  0.4085  1.1745
 5416TIP3   OH216211   0.757   1.971   4.140  0.4464  0.2310 -0.3905
 5416TIP3    H116212   0.827   2.008   4.087  0.8181 -0.4057 -0.3529
 5416TIP3    H216213   0.796   1.960   4.227  0.1271  0.3936 -0.2235
 5417TIP3   OH216214   2.168   5.436   3.045 -0.0758 -0.0419 -0.5622
 5417TIP3    H116215   2.248   5.383   3.045  0.1354  0.2680 -1.4652
 5417TIP3    H216216   2.198   5.524   3.070 -0.5782 -0.5138  2.0727
 5418TIP3   OH216217   6.477   0.461   4.590  0.3678  0.4959 -0.4801
 5418TIP3    H116218   6.570   0.481   4.594 -0.0906  2.6833  0.7410
 5418TIP3    H216219   6.448   0.464   4.681 -1.1005  0.9846 -0.9352
 5419TIP3   OH216220   6.341   0.205   0.131 -0.1826 -0.2649 -0.1477
 5419TIP3    H116221   6.360   0.292   0.166 -0.8495 -0.4132  0.5890
 5419TIP3    H216222   6.412   0.189   0.068  0.2382  0.5860  0.0951
 5420TIP3   OH216223   6.527   0.346   3.574  0.0131  0.3753 -0.0214
 5420TIP3    H116224   6.519   0.349   3.669  0.1172  0.8336 -0.0263
 5420TIP3    H216225   6.479   0.423   3.543 -1.5453 -0.7096 -0.4496
 5421TIP3   OH216226   1.674   6.229   3.166  0.0833 -0.4964  0.6339
 5421TIP3    H116227   1.600   6.252   3.111  0.4344 -0.7497  0.0419
 5421TIP3    H216228   1.715   6.154   3.121 -1.3385 -2.6767  2.7284
 5422TIP3   OH216229   3.877   5.768   1.095 -0.0752 -0.0556  0.1708
 5422TIP3    H116230   3.817   5.709   1.049  0.2998  0.3308 -0.8436
 5422TIP3    H216231   3.925   5.813   1.025 -0.1356  1.2252  0.9148
 5423TIP3   OH216232   4.582   4.591   0.135 -0.2910  0.1026  0.8220
 5423TIP3    H116233   4.667   4.612   0.173 -0.0109 -0.7922  0.7191
 5423TIP3    H216234   4.603   4.541   0.056 -0.9021  0.4436  0.4371
 5424TIP3   OH216235   6.609   4.936   4.729 -0.5743  0.3865  0.1809
 5424TIP3    H116236   6.644   4.988   4.801 -1.8092 -0.8975  1.7877
 5424TIP3    H216237   6.553   4.996   4.680 -0.0028  1.1877  0.4922
 5425TIP3   OH216238   2.176   0.299   5.617 -0.3957 -0.2052  0.3244
 5425TIP3    H116239   2.106   0.350   5.575 -1.4563  0.2992  2.5460
 5425TIP3    H216240   2.237   0.365   5.649 -1.1634 -0.3171  2.1615
 5426TIP3   OH216241   5.053   2.596   4.453  0.3846  0.0953  0.0595
 5426TIP3    H116242   4.959   2.604   4.436  0.3720 -0.3120 -0.0813
 5426TIP3    H216243   5.094   2.644   4.381  0.3156 -1.0257 -0.7530
 5427TIP3   OH216244   5.412   0.941   3.193 -0.3963 -0.9810 -0.3309
 5427TIP3    H116245   5.330   0.940   3.242 -1.7291  2.1765 -2.1820
 5427TIP3    H216246   5.475   0.982   3.253 -0.9727 -0.7115  0.0989
 5428TIP3   OH216247   3.638   3.042   3.742 -0.1126 -0.4677 -0.0692
 5428TIP3    H116248   3.634   3.135   3.721 -0.1670 -0.4873 -0.1467
 5428TIP3    H216249   3.550   3.021   3.774 -0.1570 -0.5339 -0.2298
 5429TIP3   OH216250   1.727   0.589   2.096 -0.6572  0.2223 -0.9733
 5429TIP3    H116251   1.808   0.597   2.147 -1.9424  2.1515  0.8588
 5429TIP3    H216252   1.707   0.495   2.099 -0.6366  0.2094  2.1151
 5430TIP3   OH216253   5.229   2.276   4.694  0.3979 -0.2464  0.6061
 5430TIP3    H116254   5.164   2.246   4.758  0.1267  1.6168  1.2557
 5430TIP3    H216255   5.226   2.210   4.625 -1.6670 -0.6133  0.9783
 5431TIP3   OH216256   1.990   0.307   0.259 -0.1929  0.5139  0.1641
 5431TIP3    H116257   1.928   0.235   0.245 -0.8005  1.1794 -0.6446
 5431TIP3    H216258   1.961   0.376   0.200  0.4836  1.3717  0.8036
 5432TIP3   OH216259   7.160   1.326   5.753 -0.2637 -0.3801 -0.2059
 5432TIP3    H116260   7.200   1.246   5.719 -0.1084 -0.6361  0.5424
 5432TIP3    H216261   7.232   1.388   5.761  0.2932 -1.2441  2.3350
 5433TIP3   OH216262   3.373   6.782   5.535 -0.0177 -0.1192  0.0104
 5433TIP3    H116263   3.429   6.748   5.605 -1.0041 -0.0446  0.8685
 5433TIP3    H216264   3.304   6.716   5.526 -0.1081  0.0560 -0.6428
 5434TIP3   OH216265   5.955   4.297   1.205  0.2160 -0.9412  0.2886
 5434TIP3    H116266   5.862   4.293   1.182  0.6060 -0.0967 -1.5872
 5434TIP3    H216267   5.966   4.383   1.244  0.3768 -0.6549 -0.3737
 5435TIP3   OH216268   1.405   2.859   1.215 -0.4692  0.0230 -0.4416
 5435TIP3    H116269   1.372   2.880   1.128 -1.4970 -0.0416 -0.0758
 5435TIP3    H216270   1.377   2.932   1.270  1.8597  1.0731 -0.5126
 5436TIP3   OH216271   5.495   0.383   3.159  0.3841  0.0430 -0.4110
 5436TIP3    H116272   5.487   0.451   3.093 -1.3845  0.8781  0.5890
 5436TIP3    H216273   5.471   0.302   3.114 -0.4264  0.5403 -0.8976
 5437TIP3   OH216274   1.847   2.433   1.922  0.4030  0.1070  0.0618
 5437TIP3    H116275   1.909   2.383   1.974  0.3700 -0.4225 -0.3932
 5437TIP3    H216276   1.853   2.522   1.956 -1.5434 -0.6791  2.8054
 5438TIP3   OH216277   6.003   0.342   2.052 -0.4371  0.5204 -0.2461
 5438TIP3    H116278   6.013   0.277   2.121 -0.9016  1.1964  0.4791
 5438TIP3    H216279   6.091   0.381   2.044 -0.5774  1.0353  0.5850
 5439TIP3   OH216280   5.061   0.608   4.292  0.3837 -0.6381  0.5450
 5439TIP3    H116281   5.095   0.643   4.374  2.4477 -0.3080 -0.3961
 5439TIP3    H216282   5.133   0.556   4.256 -0.5850 -1.0550 -0.9043
 5440TIP3   OH216283   0.814   2.148   0.591  0.3157 -0.3527  0.1598
 5440TIP3    H116284   0.885   2.174   0.531  1.1152 -1.1145  0.7467
 5440TIP3    H216285   0.765   2.082   0.542  0.1474  0.0120 -0.1659
 5441TIP3   OH216286   2.591   4.798   2.126  0.0474 -0.2099  0.4538
 5441TIP3    H116287   2.633   4.714   2.144 -0.8093 -0.5712  0.8334
 5441TIP3    H216288   2.606   4.850   2.205 -0.5087 -0.4704  0.7419
 5442TIP3   OH216289   3.946   4.664   5.775  0.2419  0.3812 -0.4879
 5442TIP3    H116290   3.931   4.727   5.846  0.1211 -0.6375  0.4172
 5442TIP3    H216291   3.994   4.593   5.816 -2.2245 -1.5477 -0.7332
 5443TIP3   OH216292   1.025   1.211   4.668  0.0699 -0.3111  0.0738
 5443TIP3    H116293   1.036   1.153   4.592 -1.0696 -0.0183 -0.3441
 5443TIP3    H216294   0.997   1.153   4.738  0.0689 -0.4318 -0.0264
 5444TIP3   OH216295   2.711   2.651   4.285  0.4236 -0.5756 -0.2372
 5444TIP3    H116296   2.716   2.568   4.333 -1.3487  1.0825  3.1456
 5444TIP3    H216297   2.623   2.651   4.248  1.3590 -1.2909 -2.6224
 5445TIP3   OH216298   6.397   3.032   0.633 -0.3497  0.1972  0.0718
 5445TIP3    H116299   6.406   2.956   0.691 -0.2785 -1.3516 -1.8563
 5445TIP3    H216300   6.319   3.013   0.580  0.5355  0.7066 -1.4823
 5446TIP3   OH216301   2.992   1.096   5.614  0.7173  0.2799  0.7554
 5446TIP3    H116302   2.987   1.076   5.708 -1.5511  1.3231  0.9373
 5446TIP3    H216303   3.085   1.102   5.595  1.3094 -1.9388  2.4753
 5447TIP3   OH216304   2.193   2.947   3.953  0.8297 -0.4007  0.5310
 5447TIP3    H116305   2.143   2.993   4.021 -0.2292 -0.5560 -0.1225
 5447TIP3    H216306   2.283   2.947   3.986  0.7012  1.3238  0.9682
 5448TIP3   OH216307   1.594   4.336   1.292 -0.4816 -0.8363 -0.2346
 5448TIP3    H116308   1.547   4.414   1.263 -0.4443 -0.5593  0.4157
 5448TIP3    H216309   1.672   4.371   1.335 -0.9513 -1.1756  0.9456
 5449TIP3   OH216310   5.560   5.637   4.993  0.1972 -0.1628 -0.1641
 5449TIP3    H116311   5.567   5.730   5.014  1.5051  0.8031 -4.0809
 5449TIP3    H216312   5.646   5.614   4.958 -0.4177 -2.6364 -0.2195
 5450TIP3   OH216313   1.768   3.561   2.028  0.0916 -0.0344  0.1116
 5450TIP3    H116314   1.758   3.542   2.122 -0.0769 -0.1100  0.0786
 5450TIP3    H216315   1.860   3.584   2.018  0.8556 -2.9029 -0.2265
 5451TIP3   OH216316   4.882   0.642   0.109  0.0458  0.3794  0.2957
 5451TIP3    H116317   4.861   0.716   0.053 -2.2771 -0.9458 -0.7440
 5451TIP3    H216318   4.838   0.661   0.192  1.0239  0.9947  0.6839
 5452TIP3   OH216319   5.820   4.633   3.524  0.0858  0.7519 -0.7515
 5452TIP3    H116320   5.867   4.624   3.441  2.0374  1.2981  0.2360
 5452TIP3    H216321   5.761   4.558   3.526  0.9822 -0.0274 -2.0485
 5453TIP3   OH216322   1.641   3.097   4.820  0.4091 -0.1824 -0.2925
 5453TIP3    H116323   1.588   3.043   4.878  2.1093 -2.7636 -0.9977
 5453TIP3    H216324   1.608   3.078   4.732  0.0405  1.1510 -0.4730
 5454TIP3   OH216325   3.215   1.308   5.282  0.1246 -0.2998 -0.2403
 5454TIP3    H116326   3.294   1.312   5.228  0.1923 -0.2847 -0.1400
 5454TIP3    H216327   3.159   1.245   5.237 -0.1185  0.2536 -0.7231
 5455TIP3   OH216328   6.390   5.138   4.831  0.1912  0.1200  0.1636
 5455TIP3    H116329   6.345   5.055   4.819 -1.3873  0.9095  0.3754
 5455TIP3    H216330   6.337   5.185   4.896  0.4629  1.6984 -0.7001
 5456TIP3   OH216331   4.477   2.634   4.843  0.3229  0.0677  0.1680
 5456TIP3    H116332   4.402   2.676   4.802 -0.6611 -1.7935 -0.0613
 5456TIP3    H216333   4.553   2.675   4.802 -0.6147  0.0716 -1.6584
 5457TIP3   OH216334   2.438   1.687   1.461 -0.0224 -0.9560  0.0328
 5457TIP3    H116335   2.512   1.685   1.521 -0.1566  0.4487  0.2774
 5457TIP3    H216336   2.364   1.657   1.512  0.1585 -1.2608  0.1169
 5458TIP3   OH216337   4.024   0.541   1.638 -0.2726  0.0278  0.0948
 5458TIP3    H116338   4.055   0.592   1.713 -0.1484  0.5881 -0.3243
 5458TIP3    H216339   4.055   0.452   1.654  1.7616  0.5964 -0.4109
 5459TIP3   OH216340   4.782   6.615   2.595 -0.1279 -0.3074 -0.6372
 5459TIP3    H116341   4.764   6.690   2.652  0.8524 -0.7282  0.2485
 5459TIP3    H216342   4.748   6.642   2.509 -0.0062  1.0568 -0.2779
 5460TIP3   OH216343   2.577   4.869   2.874  0.6008 -0.3205  0.4889
 5460TIP3    H116344   2.553   4.935   2.809 -0.9617 -0.9032  0.4203
 5460TIP3    H216345   2.665   4.893   2.902  1.1225  0.2248 -1.4704
 5461TIP3   OH216346   6.570   2.196   2.651  0.0477  0.1021  0.2576
 5461TIP3    H116347   6.513   2.253   2.600 -0.2212 -0.0278  0.4159
 5461TIP3    H216348   6.575   2.237   2.737 -1.0327 -0.6868  0.7201
 5462TIP3   OH216349   0.963   0.434   4.546 -0.0259 -0.3878 -0.2972
 5462TIP3    H116350   0.979   0.367   4.612  0.4903  0.3749  0.3689
 5462TIP3    H216351   1.049   0.450   4.506  0.6680  2.3305  1.9521
 5463TIP3   OH216352   5.122   0.393   3.134  0.4386  0.5482 -0.9383
 5463TIP3    H116353   5.176   0.363   3.206  0.2668 -0.9691 -1.4073
 5463TIP3    H216354   5.119   0.489   3.144  0.2213  0.3687  1.1738
 5464TIP3   OH216355   3.877   1.011   4.377  0.3954 -0.0556  0.6593
 5464TIP3    H116356   3.846   1.053   4.457 -1.3765  1.3370 -0.6510
 5464TIP3    H216357   3.806   0.951   4.352  1.5192 -1.4944  0.8193
 5465TIP3   OH216358   4.827   1.577   4.958 -0.4191 -0.4913 -0.0438
 5465TIP3    H116359   4.812   1.649   5.020  1.7675 -0.4005  0.4539
 5465TIP3    H216360   4.879   1.616   4.888  0.2394 -1.4154 -0.0905
 5466TIP3   OH216361   2.143   5.317   4.614  0.3193 -0.1003 -0.4602
 5466TIP3    H116362   2.192   5.377   4.671 -1.0678  1.0592 -0.4131
 5466TIP3    H216363   2.176   5.230   4.637  2.8379  0.6416 -0.9636
 5467TIP3   OH216364   0.466   3.415   1.832  0.1585  0.2145 -0.2446
 5467TIP3    H116365   0.398   3.470   1.872 -2.7015 -2.1042 -1.5719
 5467TIP3    H216366   0.517   3.475   1.778 -1.1038  1.9772  0.4300
 5468TIP3   OH216367   4.496   0.925   5.032  0.6709 -0.1942 -0.2671
 5468TIP3    H116368   4.524   0.833   5.035  0.3983 -0.2633  0.2535
 5468TIP3    H216369   4.516   0.959   5.119  0.6878  0.2159 -0.4327
 5469TIP3   OH216370   2.661   6.320   2.308  0.0404  0.2850  0.0309
 5469TIP3    H116371   2.570   6.331   2.282  0.3678  2.2416 -0.4314
 5469TIP3    H216372   2.704   6.285   2.230  0.0303  1.1198 -0.3502
 5470TIP3   OH216373   2.251   0.824   1.061 -0.0539 -0.0719 -0.4426
 5470TIP3    H116374   2.303   0.881   1.118  1.2510 -0.6146 -1.0316
 5470TIP3    H216375   2.238   0.744   1.113 -0.3051  0.0741 -0.2839
 5471TIP3   OH216376   6.982   0.350   1.126 -0.1313 -0.0125  0.5346
 5471TIP3    H116377   7.060   0.307   1.092  0.3294  1.6739 -0.6154
 5471TIP3    H216378   7.001   0.443   1.122 -1.8090  0.4027  1.2166
 5472TIP3   OH216379   4.302   3.955   4.085  0.1265 -0.4475 -0.1814
 5472TIP3    H116380   4.313   3.877   4.031 -2.5461 -0.0605 -1.4341
 5472TIP3    H216381   4.357   4.021   4.043 -2.0109 -0.1098 -2.6953
 5473TIP3   OH216382   6.835   3.879   1.147 -0.0352 -0.2803 -0.5035
 5473TIP3    H116383   6.825   3.881   1.242  1.0002 -1.9284 -0.3069
 5473TIP3    H216384   6.917   3.926   1.131  1.7642 -3.0429 -0.1383
 5474TIP3   OH216385   6.621   1.873   2.139  0.4228 -0.4861  0.0854
 5474TIP3    H116386   6.614   1.778   2.147  0.1551 -0.3234  2.7113
 5474TIP3    H216387   6.557   1.896   2.071 -1.4879 -1.9722  1.2652
 5475TIP3   OH216388   2.387   4.278   2.921 -0.2077 -0.0903  0.1316
 5475TIP3    H116389   2.329   4.207   2.892 -1.0008  0.7713 -0.4812
 5475TIP3    H216390   2.397   4.264   3.015 -0.3716 -0.9897  0.0281
 5476TIP3   OH216391   4.355   3.723   2.594  0.4856  0.3071  0.0875
 5476TIP3    H116392   4.294   3.650   2.589  1.3574 -0.5643  1.6452
 5476TIP3    H216393   4.333   3.768   2.676  0.5900  1.2477 -0.3769
 5477TIP3   OH216394   4.947   2.160   1.908 -0.3183 -0.2783 -0.0464
 5477TIP3    H116395   5.018   2.223   1.896  0.0852 -0.8439 -0.6854
 5477TIP3    H216396   4.894   2.197   1.979  0.1229  0.5832 -0.1547
 5478TIP3   OH216397   2.017   2.050   0.614  0.6521 -0.1339  0.0085
 5478TIP3    H116398   2.096   2.083   0.569  0.0250  1.0977 -0.2244
 5478TIP3    H216399   1.969   2.003   0.545  1.1114 -0.8032  0.1272
 5479TIP3   OH216400   3.518   2.847   1.503  0.4249  0.7640 -0.2746
 5479TIP3    H116401   3.430   2.814   1.519  0.5060  0.6580 -0.0352
 5479TIP3    H216402   3.530   2.917   1.567  0.6619  0.5038 -0.0327
 5480TIP3   OH216403   0.811   6.672   0.918 -0.8916  0.0501  0.7630
 5480TIP3    H116404   0.867   6.604   0.882  0.5540  1.3930  0.4142
 5480TIP3    H216405   0.723   6.633   0.917  0.0791 -2.4451  2.1547
 5481TIP3   OH216406   4.357   3.667   0.836  0.0663 -0.3208 -0.0221
 5481TIP3    H116407   4.291   3.610   0.795  1.3585 -1.4455 -0.6116
 5481TIP3    H216408   4.416   3.690   0.766  0.3196  0.6743  0.5054
 5482TIP3   OH216409   2.695   6.225   4.973  0.0543 -0.4385 -0.0165
 5482TIP3    H116410   2.655   6.307   5.003  0.7100  0.8455 -2.3576
 5482TIP3    H216411   2.789   6.241   4.976  0.2435 -1.5694  0.6167
 5483TIP3   OH216412   5.618   1.579   3.872  0.1792  0.0833  0.3490
 5483TIP3    H116413   5.710   1.596   3.892  0.2051  0.0497  0.2628
 5483TIP3    H216414   5.598   1.498   3.919  0.2999 -0.1123  0.0741
 5484TIP3   OH216415   1.398   3.442   5.585  0.2736  0.1092 -0.2029
 5484TIP3    H116416   1.408   3.372   5.649  1.5996 -0.3359 -0.8539
 5484TIP3    H216417   1.365   3.517   5.635 -0.8293 -0.8571  0.5652
 5485TIP3   OH216418   0.394   0.554   3.746  0.5861  0.3490 -0.0185
 5485TIP3    H116419   0.382   0.612   3.671 -0.9577  0.4966  0.3195
 5485TIP3    H216420   0.425   0.472   3.708 -1.0435  0.1179 -0.9420
 5486TIP3   OH216421   5.245   6.618   0.050  0.1483 -0.2541  0.4192
 5486TIP3    H116422   5.217   6.706   0.028  2.8737  0.8132  0.8925
 5486TIP3    H216423   5.284   6.584  -0.031  0.3888 -0.4654  0.6207
 5487TIP3   OH216424   4.739   6.724   0.371 -0.2030  0.6402  0.7539
 5487TIP3    H116425   4.695   6.718   0.286 -0.6266 -1.3686  1.0630
 5487TIP3    H216426   4.670   6.706   0.435  0.7908 -1.5272  1.2984
 5488TIP3   OH216427   3.499   0.205   4.550 -0.2279  0.2188  0.2110
 5488TIP3    H116428   3.584   0.167   4.567 -0.4366 -0.3034  0.1012
 5488TIP3    H216429   3.503   0.292   4.589  0.4741  0.3308 -0.1055
 5489TIP3   OH216430   0.280   4.009   3.890 -0.1805 -0.1985  0.3048
 5489TIP3    H116431   0.328   3.931   3.916  1.0105 -0.3833 -2.1387
 5489TIP3    H216432   0.199   3.976   3.850  0.0060 -0.1551 -0.1115
 5490TIP3   OH216433   0.161   1.502   3.041 -0.7203  0.7533  0.0859
 5490TIP3    H116434   0.132   1.411   3.033  0.9866  0.0778  1.1214
 5490TIP3    H216435   0.139   1.542   2.957  0.0953 -1.0772 -1.0523
 5491TIP3   OH216436   3.595   6.754   2.102 -0.2577  0.2156  0.0163
 5491TIP3    H116437   3.674   6.766   2.155 -0.2286  1.1781 -0.2257
 5491TIP3    H216438   3.593   6.831   2.045 -0.7483 -0.3777 -0.7858
 5492TIP3   OH216439   6.064   3.445   1.017 -0.0460  0.7082 -0.2459
 5492TIP3    H116440   5.979   3.404   1.004  0.9527 -1.8644  0.6996
 5492TIP3    H216441   6.111   3.427   0.935  1.0798 -2.0384  0.8838
 5493TIP3   OH216442   0.376   1.201   3.215  0.2381 -0.7661  0.2532
 5493TIP3    H116443   0.292   1.231   3.250  0.4040 -1.1539  1.0102
 5493TIP3    H216444   0.434   1.276   3.224  0.4323 -1.0286  1.3757
 5494TIP3   OH216445   0.071   3.237   1.367 -0.2972  0.6318  0.0789
 5494TIP3    H116446   0.140   3.287   1.324 -0.6530  0.4496 -0.7133
 5494TIP3    H216447   0.001   3.232   1.303 -0.5144 -0.3582  0.3724
 5495TIP3   OH216448   4.324   4.626   1.031 -0.3314  0.3377 -0.0952
 5495TIP3    H116449   4.358   4.558   0.973  0.0260  0.1308  0.3536
 5495TIP3    H216450   4.285   4.690   0.972  0.4711  0.3785 -0.5969
 5496TIP3   OH216451   3.138   6.412   3.991  0.3308 -0.5690  0.1536
 5496TIP3    H116452   3.103   6.499   3.972 -0.4831 -0.8190  0.4644
 5496TIP3    H216453   3.086   6.381   4.064  0.9387 -1.1313  0.3582
 5497TIP3   OH216454   5.167   6.229   0.905 -0.1324  0.0900 -0.3914
 5497TIP3    H116455   5.109   6.169   0.951  0.9034 -0.8992 -0.3496
 5497TIP3    H216456   5.172   6.195   0.816  2.4430 -1.4217  0.2512
 5498TIP3   OH216457   5.064   4.533   2.165  0.1224 -0.2879  0.0667
 5498TIP3    H116458   5.119   4.593   2.216  0.1159 -1.2991  1.3090
 5498TIP3    H216459   5.000   4.590   2.123  0.9659  0.7152  0.1036
 5499TIP3   OH216460   6.624   0.569   3.780 -0.6064  0.1854  0.1984
 5499TIP3    H116461   6.538   0.528   3.786 -0.4913  0.1359  1.9635
 5499TIP3    H216462   6.605   0.661   3.758 -0.9110 -0.4561 -2.6218
 5500TIP3   OH216463   1.685   5.468   4.888  0.2904 -0.1668 -0.0119
 5500TIP3    H116464   1.605   5.461   4.940  1.0750  0.6701  1.3656
 5500TIP3    H216465   1.677   5.400   4.822 -1.2760 -0.4981  0.4801
 5501TIP3   OH216466   5.270   2.779   2.685 -0.0802  0.1455 -0.0533
 5501TIP3    H116467   5.257   2.862   2.731 -0.1444  0.8965 -1.3858
 5501TIP3    H216468   5.190   2.768   2.633 -0.7432 -1.5106  1.1912
 5502TIP3   OH216469   3.973   6.111   1.347 -0.5523  0.3841 -0.5743
 5502TIP3    H116470   3.995   6.071   1.432 -0.3636 -2.0400 -1.6678
 5502TIP3    H216471   3.923   6.189   1.370  1.7884  1.3674  1.8225
 5503TIP3   OH216472   4.799   1.084   2.310 -0.7384 -0.6443  0.3778
 5503TIP3    H116473   4.834   1.133   2.384  0.0087  0.2953 -0.5703
 5503TIP3    H216474   4.750   1.149   2.259 -1.9957 -1.4656  0.4927
 5504TIP3   OH216475   1.730   3.375   4.783  0.0229 -0.3846  0.0216
 5504TIP3    H116476   1.695   3.296   4.824 -1.9117  0.1780 -0.4503
 5504TIP3    H216477   1.709   3.446   4.845 -0.0015  0.0211 -0.4460
 5505TIP3   OH216478   2.588   0.097   1.639  0.5725  0.4511  0.1990
 5505TIP3    H116479   2.511   0.046   1.664  0.5192 -0.2363 -1.2688
 5505TIP3    H216480   2.555   0.186   1.628  0.0492  0.2328 -0.0531
 5506TIP3   OH216481   0.427   5.409   4.054  0.0071  0.3077 -0.2728
 5506TIP3    H116482   0.346   5.448   4.020 -0.1158 -0.6338 -1.0827
 5506TIP3    H216483   0.497   5.463   4.016 -0.2050  0.7578 -0.0431
 5507TIP3   OH216484   0.570   4.431   4.196  0.1138 -0.5280 -0.3386
 5507TIP3    H116485   0.550   4.355   4.140 -1.6815 -0.6527  0.4129
 5507TIP3    H216486   0.487   4.478   4.203  0.5352  0.0141  1.4427
 5508TIP3   OH216487   6.303   2.831   1.586  0.0990  0.1787 -0.1701
 5508TIP3    H116488   6.333   2.887   1.514  0.0687 -0.4461 -0.6755
 5508TIP3    H216489   6.346   2.747   1.572 -1.2980 -0.5185 -0.5039
 5509TIP3   OH216490   6.761   6.726   2.288 -0.0484 -1.0877  0.5256
 5509TIP3    H116491   6.796   6.804   2.245 -2.5398 -0.0375  0.2287
 5509TIP3    H216492   6.740   6.667   2.216 -0.8537 -0.8172  0.5293
 5510TIP3   OH216493   2.316   6.661   1.463 -0.2150  0.5220 -0.3514
 5510TIP3    H116494   2.348   6.681   1.551 -0.8022 -3.2039  0.9097
 5510TIP3    H216495   2.237   6.713   1.454 -0.0675  1.1043  1.2699
 5511TIP3   OH216496   2.689   4.104   3.062 -0.5358  0.7214  0.7313
 5511TIP3    H116497   2.717   4.033   3.120 -0.9769  1.3422  1.7380
 5511TIP3    H216498   2.686   4.064   2.975  2.7133  0.4210  0.6449
 5512TIP3   OH216499   4.760   1.763   3.979  0.5103 -0.5189 -0.3628
 5512TIP3    H116500   4.808   1.685   4.007  2.5404 -0.0778 -2.3122
 5512TIP3    H216501   4.761   1.821   4.055  0.4102 -1.7168  0.5776
 5513TIP3   OH216502   5.752   5.459   5.370  0.8894 -0.4301  0.0282
 5513TIP3    H116503   5.801   5.450   5.288  1.2418  1.6657 -0.0686
 5513TIP3    H216504   5.820   5.465   5.438  0.6525 -0.5927  0.2812
 5514TIP3   OH216505   5.302   4.729   5.061 -0.5124  0.1409  0.3453
 5514TIP3    H116506   5.359   4.678   5.003  0.5757  1.7931 -0.0973
 5514TIP3    H216507   5.214   4.699   5.040  0.0030 -0.6207 -0.8464
 5515TIP3   OH216508   2.664   4.285   5.736 -0.1105  0.5618 -0.2650
 5515TIP3    H116509   2.570   4.279   5.725 -0.1864 -0.0190  0.6037
 5515TIP3    H216510   2.701   4.226   5.670 -0.3338  1.0185 -0.8052
 5516TIP3   OH216511   0.435   1.803   5.776 -0.6117 -0.2721  0.0186
 5516TIP3    H116512   0.376   1.878   5.772 -1.4734 -0.9603 -1.1223
 5516TIP3    H216513   0.515   1.836   5.817 -0.0788  1.9030 -2.4867
 5517TIP3   OH216514   2.479   3.457   1.073  0.2594 -0.7700  0.4501
 5517TIP3    H116515   2.390   3.453   1.107  0.3090 -2.9398  0.4850
 5517TIP3    H216516   2.535   3.432   1.147  0.8687 -0.0469  0.2582
 5518TIP3   OH216517   6.510   1.558   2.203 -0.2352  0.0395  0.3927
 5518TIP3    H116518   6.547   1.483   2.158 -0.5917 -1.0483  1.8421
 5518TIP3    H216519   6.415   1.545   2.198 -0.3490  0.9141 -0.1525
 5519TIP3   OH216520   0.672   2.302   1.622  0.0642  0.0762  0.4873
 5519TIP3    H116521   0.593   2.270   1.665 -0.3236 -1.6709 -1.3795
 5519TIP3    H216522   0.741   2.292   1.688 -0.9159 -0.1644  1.5180
 5520TIP3   OH216523   1.864   6.325   0.116 -0.0556  0.0907 -0.1040
 5520TIP3    H116524   1.808   6.314   0.040  0.0787  2.1205 -0.5471
 5520TIP3    H216525   1.933   6.260   0.104 -1.5887 -1.6079 -0.1744
 5521TIP3   OH216526   6.513   6.627   4.270 -0.1181 -0.1874  0.8260
 5521TIP3    H116527   6.487   6.595   4.184  0.5450 -1.5625  1.1151
 5521TIP3    H216528   6.561   6.709   4.252 -0.4835 -0.1591 -0.0551
 5522TIP3   OH216529   3.830   2.929   2.672  0.1691 -0.6864  0.3087
 5522TIP3    H116530   3.794   3.014   2.698 -0.5813 -1.0097  0.3741
 5522TIP3    H216531   3.821   2.928   2.576  1.8742  0.0406  0.1199
 5523TIP3   OH216532   3.121   1.657   0.456 -0.0584 -0.1200  0.5197
 5523TIP3    H116533   3.043   1.607   0.434 -0.6994 -0.0749  2.5006
 5523TIP3    H216534   3.194   1.599   0.434 -0.7541 -1.5286  1.7275
 5524TIP3   OH216535   0.968   4.179   1.809 -0.1240 -0.0281  0.5207
 5524TIP3    H116536   0.981   4.253   1.868  0.6044 -0.3936  0.8397
 5524TIP3    H216537   0.899   4.128   1.849 -3.7813  2.6014 -1.8325
 5525TIP3   OH216538   1.479   1.836   2.537 -0.4897 -0.1434 -0.3412
 5525TIP3    H116539   1.433   1.919   2.551 -1.5540 -0.9106  1.0435
 5525TIP3    H216540   1.510   1.811   2.625  4.3152  1.2226 -1.3902
 5526TIP3   OH216541   1.799   2.013   3.129 -0.2406 -0.1620 -0.1202
 5526TIP3    H116542   1.739   2.075   3.171 -0.9632 -0.2201 -1.0259
 5526TIP3    H216543   1.886   2.044   3.152 -0.5819  1.3682 -0.7610
 5527TIP3   OH216544   5.738   1.349   0.290 -0.0455 -1.0432 -0.2134
 5527TIP3    H116545   5.659   1.387   0.251  0.0372 -0.4240  0.1997
 5527TIP3    H216546   5.805   1.357   0.222  0.2807  0.6691  0.2521
 5528TIP3   OH216547   2.866   2.085   5.888 -0.3827 -0.7229  0.2149
 5528TIP3    H116548   2.859   2.149   5.817  0.1317 -1.0471 -0.1310
 5528TIP3    H216549   2.827   2.129   5.963  1.4540  0.6668  0.4209
 5529TIP3   OH216550   6.461   3.681   3.650  0.4434 -0.3275  0.3226
 5529TIP3    H116551   6.397   3.639   3.708 -0.2653  2.7842  2.0281
 5529TIP3    H216552   6.543   3.678   3.700  0.9738 -1.6513 -0.5710
 5530TIP3   OH216553   1.756   3.615   1.457 -0.7099  0.0016  0.1751
 5530TIP3    H116554   1.813   3.585   1.385 -0.3053 -2.4116  1.3922
 5530TIP3    H216555   1.817   3.644   1.525 -0.9883 -0.5692  0.6709
 5531TIP3   OH216556   2.548   3.741   5.604  0.5826  0.0339 -0.1277
 5531TIP3    H116557   2.623   3.696   5.565 -0.3611 -0.7432 -1.1380
 5531TIP3    H216558   2.481   3.739   5.535  0.2338  2.3236  0.0766
 5532TIP3   OH216559   2.677   1.507   2.288 -0.2921  0.7883  0.2151
 5532TIP3    H116560   2.667   1.416   2.315 -1.8114  0.3862 -1.4421
 5532TIP3    H216561   2.703   1.554   2.367 -0.5646 -0.9149  1.3584
 5533TIP3   OH216562   3.056   6.129   2.154  0.2680  0.5437  0.3545
 5533TIP3    H116563   3.103   6.085   2.225 -0.8210 -0.3576  0.5424
 5533TIP3    H216564   3.021   6.058   2.101  0.1792  1.2100 -0.4985
 5534TIP3   OH216565   2.218   4.715   5.404  0.5038  0.6328 -0.4378
 5534TIP3    H116566   2.180   4.641   5.451  0.5244  0.6378 -0.4134
 5534TIP3    H216567   2.291   4.743   5.459 -0.3301  1.5295  0.2386
 5535TIP3   OH216568   1.251   4.611   5.187  0.9450 -0.7177  0.1458
 5535TIP3    H116569   1.230   4.684   5.245  1.3999  1.5065 -2.3014
 5535TIP3    H216570   1.169   4.594   5.140  0.5532 -2.5694  1.3703
 5536TIP3   OH216571   3.446   6.213   3.240 -0.2572 -0.0751 -0.1373
 5536TIP3    H116572   3.443   6.308   3.230 -0.3239  0.1366  1.5429
 5536TIP3    H216573   3.357   6.188   3.263 -0.1328 -0.4729 -0.0673
 5537TIP3   OH216574   0.073   6.530   2.388  0.4205  0.0235  0.0849
 5537TIP3    H116575  -0.004   6.581   2.363 -0.9313 -1.4614  1.0788
 5537TIP3    H216576   0.065   6.449   2.337 -0.2512 -1.3487  2.2657
 5538TIP3   OH216577   1.996   2.166   4.218  0.1099  0.5268  0.2054
 5538TIP3    H116578   2.015   2.072   4.215 -0.8567  0.3377 -0.7462
 5538TIP3    H216579   2.064   2.205   4.164  0.9946  0.4740  1.2611
 5539TIP3   OH216580   6.419   6.773   2.890 -0.7936 -0.0013 -0.1070
 5539TIP3    H116581   6.466   6.738   2.814  1.9612  0.2004  1.3495
 5539TIP3    H216582   6.337   6.724   2.893  0.6441 -2.6817 -1.1007
 5540TIP3   OH216583   2.370   2.525   0.036 -0.4765 -0.2228  0.0574
 5540TIP3    H116584   2.334   2.554  -0.049  2.0093 -0.3532 -1.1324
 5540TIP3    H216585   2.380   2.606   0.086 -2.0348 -0.1488  0.2915
 5541TIP3   OH216586   5.375   5.066   1.338 -0.1115  0.2215  0.3547
 5541TIP3    H116587   5.435   5.041   1.409  0.5598 -2.0419 -0.8979
 5541TIP3    H216588   5.432   5.096   1.267 -0.5082 -0.6453 -0.3568
 5542TIP3   OH216589   2.971   4.804   4.666  0.4864 -0.0151  0.1578
 5542TIP3    H116590   2.913   4.740   4.624 -0.1969 -0.2132  1.3370
 5542TIP3    H216591   2.912   4.867   4.706  1.1502  1.0016 -0.4207
 5543TIP3   OH216592   3.703   1.237   0.791 -0.4240  0.2292  0.3356
 5543TIP3    H116593   3.711   1.200   0.704 -3.9123  0.2481 -0.1216
 5543TIP3    H216594   3.652   1.317   0.779 -0.8066  0.3482  2.3501
 5544TIP3   OH216595   1.131   3.203   4.951 -0.3813 -0.1745 -0.4111
 5544TIP3    H116596   1.180   3.280   4.979  0.7118 -0.9427 -0.1248
 5544TIP3    H216597   1.042   3.235   4.935 -0.3378  0.8279  1.1898
 5545TIP3   OH216598   0.013   4.673   4.900  0.1555 -0.6151 -0.4421
 5545TIP3    H116599  -0.073   4.630   4.901 -0.2282  0.1434 -0.3889
 5545TIP3    H216600   0.075   4.601   4.909 -0.3782 -1.4124 -2.4081
 5546TIP3   OH216601   0.708   4.107   2.415  0.4150  0.5530  0.1664
 5546TIP3    H116602   0.724   4.154   2.334  0.6832 -0.0616 -0.1467
 5546TIP3    H216603   0.614   4.115   2.430 -0.2297 -1.9421 -1.8862
 5547TIP3   OH216604   3.594   4.255   2.720  0.0937 -0.3559 -0.3253
 5547TIP3    H116605   3.634   4.298   2.644  1.2924  0.0304  0.5129
 5547TIP3    H216606   3.508   4.296   2.727  0.6299  0.8151 -0.4599
 5548TIP3   OH216607   2.030   6.663   3.723  0.4223  0.7553  0.1866
 5548TIP3    H116608   2.005   6.572   3.704  0.1927  0.5039  1.6045
 5548TIP3    H216609   1.954   6.714   3.696  0.0329  0.3907  0.5581
 5549TIP3   OH216610   5.197   2.272   3.068 -0.0181 -0.5642 -0.2767
 5549TIP3    H116611   5.158   2.321   2.995  0.0260 -0.6724 -0.3727
 5549TIP3    H216612   5.291   2.286   3.059  0.0232 -1.0148 -0.5534
 5550TIP3   OH216613   4.160   1.905   3.899  0.3078  0.0098  0.3412
 5550TIP3    H116614   4.118   1.844   3.839  0.5330 -1.0679  1.2539
 5550TIP3    H216615   4.199   1.971   3.842 -1.5164  0.3616 -0.5903
 5551TIP3   OH216616   4.223   6.482   0.158 -0.1033  0.3196 -0.2979
 5551TIP3    H116617   4.241   6.546   0.227  2.1044  0.1337 -0.6340
 5551TIP3    H216618   4.308   6.445   0.137 -1.0850 -1.4959 -1.3425
 5552TIP3   OH216619   4.562   3.477   2.145 -0.4279 -0.6501  0.1968
 5552TIP3    H116620   4.642   3.490   2.094 -0.4982 -0.0539  0.2400
 5552TIP3    H216621   4.516   3.407   2.098  0.7822 -2.0321  0.9593
 5553TIP3   OH216622   2.912   5.770   1.008  0.5086  0.2161  0.4146
 5553TIP3    H116623   2.870   5.771   0.923  2.4645  1.4422 -0.6146
 5553TIP3    H216624   2.926   5.678   1.028 -0.2500 -0.0878 -0.4236
 5554TIP3   OH216625   1.192   2.339   1.719 -0.0614 -0.0938  0.3160
 5554TIP3    H116626   1.252   2.363   1.648 -0.0008 -0.2072  0.3285
 5554TIP3    H216627   1.221   2.252   1.746 -1.7156 -1.2432 -1.3058
 5555TIP3   OH216628   2.747   6.640   2.621  0.6365  0.5448  0.4941
 5555TIP3    H116629   2.729   6.735   2.621  0.9760  0.6916 -2.4351
 5555TIP3    H216630   2.671   6.602   2.666  1.0263  2.2095  2.7631
 5556TIP3   OH216631   6.017   3.872   2.012 -0.1118  0.3834  0.1550
 5556TIP3    H116632   6.006   3.803   1.946 -1.0308  2.5429 -2.1165
 5556TIP3    H216633   5.932   3.877   2.055 -0.1454  0.2955  0.1002
 5557TIP3   OH216634   0.504   6.347   5.259 -0.0970 -0.2518  0.4194
 5557TIP3    H116635   0.513   6.391   5.175 -2.7349 -2.4815 -1.1748
 5557TIP3    H216636   0.432   6.393   5.302  0.2606 -0.0674  0.8324
 5558TIP3   OH216637   6.627   1.279   4.056 -0.6309 -0.0844 -0.3712
 5558TIP3    H116638   6.593   1.222   3.987 -2.3648 -0.7372  0.9485
 5558TIP3    H216639   6.626   1.367   4.017 -0.0548 -0.6219 -1.6777
 5559TIP3   OH216640   6.217   4.065   1.921 -0.1280 -0.4778 -0.2004
 5559TIP3    H116641   6.154   4.012   1.970 -0.0049 -0.7064 -0.2856
 5559TIP3    H216642   6.302   4.030   1.947  0.0168  0.4842  0.6865
 5560TIP3   OH216643   1.775   0.120   4.524  0.0551  0.1021  0.2703
 5560TIP3    H116644   1.870   0.130   4.520  0.1927 -1.4280 -1.2423
 5560TIP3    H216645   1.742   0.183   4.459  0.2770 -1.5612 -1.5375
 5561TIP3   OH216646   1.073   1.293   4.262  0.2463  0.3801  0.1432
 5561TIP3    H116647   1.058   1.294   4.168 -2.5620 -1.2114  0.4510
 5561TIP3    H216648   1.029   1.213   4.293 -1.3065  2.1686  3.0998
 5562TIP3   OH216649   2.628   6.103   0.881 -0.3327  0.5543 -0.5550
 5562TIP3    H116650   2.723   6.090   0.878 -0.2186  0.3963  1.5898
 5562TIP3    H216651   2.591   6.016   0.869 -0.0585  0.1563  1.1648
 5563TIP3   OH216652   5.299   2.464   0.556 -0.2498 -0.3944 -0.2422
 5563TIP3    H116653   5.278   2.376   0.587 -3.0466  0.7576  1.5203
 5563TIP3    H216654   5.242   2.476   0.479  0.7698 -0.3992 -1.0189
 5564TIP3   OH216655   2.647   1.924   1.309 -0.6313  0.1621 -0.2169
 5564TIP3    H116656   2.689   1.915   1.395 -0.5849  1.6417 -0.0561
 5564TIP3    H216657   2.554   1.914   1.326 -0.4955 -1.7237 -0.3580
 5565TIP3   OH216658   5.446   4.608   0.128 -0.3912 -0.1471 -0.0024
 5565TIP3    H116659   5.419   4.546   0.060 -1.4232 -0.2809  0.5075
 5565TIP3    H216660   5.456   4.555   0.207  1.1625 -0.0553 -0.0984
 5566TIP3   OH216661   5.167   2.649   2.314  0.4835  0.0115 -0.0778
 5566TIP3    H116662   5.159   2.593   2.236 -0.0525  2.9992 -2.3453
 5566TIP3    H216663   5.260   2.647   2.335  0.5193 -1.4768 -0.2513
 5567TIP3   OH216664   4.615   2.434   5.201  0.1509  0.0979 -0.5907
 5567TIP3    H116665   4.589   2.397   5.117 -0.3955 -4.4208  1.2786
 5567TIP3    H216666   4.696   2.388   5.224 -0.9658 -0.6968  2.2806
 5568TIP3   OH216667   2.030   3.543   4.392  0.1659 -0.2273  0.5480
 5568TIP3    H116668   1.973   3.466   4.393 -0.2893  0.1037  0.2524
 5568TIP3    H216669   2.062   3.551   4.482  0.9655 -1.3122  0.3746
 5569TIP3   OH216670   5.117   6.372   0.114  0.3167 -0.3158 -0.5816
 5569TIP3    H116671   5.026   6.358   0.088  0.5591 -0.8982 -1.1508
 5569TIP3    H216672   5.128   6.467   0.115 -0.2032 -0.2515 -0.8364
 5570TIP3   OH216673   1.082   0.000   5.446  0.0868 -0.0069  0.2207
 5570TIP3    H116674   1.164  -0.047   5.461 -0.8983 -1.4814  1.2777
 5570TIP3    H216675   1.094   0.083   5.493  0.7482 -0.4478  0.8616
 5571TIP3   OH216676   5.584   4.541   1.131 -0.1368 -0.0158  0.3496
 5571TIP3    H116677   5.500   4.585   1.124 -0.0798  0.1648  0.8112
 5571TIP3    H216678   5.589   4.512   1.222  1.2608  1.9312  0.9571
 5572TIP3   OH216679   6.585   1.040   5.456 -0.6654 -0.3233 -0.1282
 5572TIP3    H116680   6.660   0.992   5.489 -0.3492  0.6068  0.5486
 5572TIP3    H216681   6.620   1.096   5.387 -0.7482  0.0530  0.1324
 5573TIP3   OH216682   5.803   3.075   0.401 -0.2315  0.2007 -0.3412
 5573TIP3    H116683   5.877   3.019   0.377  0.3906 -0.2420  2.2469
 5573TIP3    H216684   5.733   3.014   0.422 -0.7092  0.5505 -0.8969
 5574TIP3   OH216685   5.056   2.904   0.693 -0.1420 -0.1299  0.2203
 5574TIP3    H116686   4.963   2.916   0.673 -0.4061 -2.2118  0.0283
 5574TIP3    H216687   5.061   2.821   0.740  1.8279 -1.0689 -1.4593
 5575TIP3   OH216688   1.525   6.318   2.203  0.2841 -0.0983 -0.2354
 5575TIP3    H116689   1.439   6.309   2.160  0.2805 -1.5720  0.0109
 5575TIP3    H216690   1.575   6.374   2.145 -0.3213 -0.5701 -1.2467
 5576TIP3   OH216691   6.419   2.621  -0.008 -0.0779 -0.4116 -0.4942
 5576TIP3    H116692   6.335   2.598  -0.047 -0.7683  0.1267  0.6098
 5576TIP3    H216693   6.396   2.675   0.068  1.3192  1.3217 -1.2137
 5577TIP3   OH216694   1.537   4.208   2.436  0.4590 -0.3455 -0.2481
 5577TIP3    H116695   1.576   4.294   2.451  1.7586 -0.6092 -1.7676
 5577TIP3    H216696   1.458   4.226   2.386  0.6973 -0.0079 -0.5153
 5578TIP3   OH216697   3.227   2.270   2.559 -0.0642  0.5633 -0.4521
 5578TIP3    H116698   3.181   2.287   2.477  0.9235 -0.9857 -1.3918
 5578TIP3    H216699   3.175   2.314   2.626 -3.8081 -2.2439 -1.1975
 5579TIP3   OH216700   1.801   6.696   3.013  0.0631 -0.3374 -0.2006
 5579TIP3    H116701   1.863   6.623   3.008  0.9078  0.3587 -0.2250
 5579TIP3    H216702   1.812   6.731   3.101 -1.0451 -0.8264  0.1496
 5580TIP3   OH216703   1.479   3.097   3.108 -0.3305 -0.1385  0.3682
 5580TIP3    H116704   1.503   3.187   3.132  0.4998 -0.4760  0.8730
 5580TIP3    H216705   1.415   3.071   3.174 -1.8720  0.6388 -0.7623
 5581TIP3   OH216706   0.229   3.754   0.219  0.5237 -0.5907 -0.3544
 5581TIP3    H116707   0.199   3.666   0.244  0.5991 -0.2353  1.0479
 5581TIP3    H216708   0.173   3.813   0.268  0.2488  0.1745 -1.5538
 5582TIP3   OH216709   2.164   3.230   4.027 -0.0603 -0.3569 -0.3491
 5582TIP3    H116710   2.201   3.255   4.112  2.7452  0.1544 -1.5897
 5582TIP3    H216711   2.088   3.286   4.016  0.7072  1.0200  0.9727
 5583TIP3   OH216712   3.651   3.913   4.642  0.5297 -0.0795  0.8361
 5583TIP3    H116713   3.692   3.857   4.708  0.4481  0.8857  1.7289
 5583TIP3    H216714   3.700   3.995   4.647 -1.1501  0.9134  1.5433
 5584TIP3   OH216715   4.601   0.539   2.161 -0.1243  0.0549 -0.2716
 5584TIP3    H116716   4.676   0.489   2.193  0.3707  1.0405  0.1355
 5584TIP3    H216717   4.600   0.523   2.067 -1.6037 -2.9015  0.1210
 5585TIP3   OH216718   6.343   0.783   2.081 -0.3151 -0.6320 -0.2271
 5585TIP3    H116719   6.380   0.855   2.030 -0.5651 -0.9421 -0.8605
 5585TIP3    H216720   6.418   0.728   2.102  0.0288  0.2798  1.0727
 5586TIP3   OH216721   0.505   5.151   4.932  0.3356 -0.0366  0.2079
 5586TIP3    H116722   0.429   5.204   4.907  1.4511  1.1374 -0.8757
 5586TIP3    H216723   0.527   5.103   4.852 -0.2062 -1.6230  0.9692
 5587TIP3   OH216724   7.072   6.305   0.710 -0.1583  0.4225 -0.3282
 5587TIP3    H116725   7.119   6.225   0.687 -0.0455  0.3056  0.2961
 5587TIP3    H216726   6.980   6.283   0.697 -0.1513  0.0757  0.1648
 5588TIP3   OH216727   6.146   6.108   5.201  0.3133 -0.2619 -0.0310
 5588TIP3    H116728   6.171   6.028   5.248  0.5165  0.7713  1.6789
 5588TIP3    H216729   6.228   6.143   5.167  0.4300  0.0321  0.5492
 5589TIP3   OH216730   2.852   3.573   1.668 -0.1374 -0.0085 -0.2016
 5589TIP3    H116731   2.821   3.610   1.585  1.5237 -1.0574 -1.3550
 5589TIP3    H216732   2.884   3.486   1.645  2.5513  0.5600  1.0582
 5590TIP3   OH216733   5.375   4.564   0.838  0.1631  1.3336  0.1517
 5590TIP3    H116734   5.445   4.620   0.806  0.8621  0.6502  0.4412
 5590TIP3    H216735   5.346   4.606   0.920 -0.1371  1.8997 -0.2375
 5591TIP3   OH216736   5.662   3.971   0.023 -0.1489 -0.0023  0.5076
 5591TIP3    H116737   5.660   4.062  -0.006  3.9691  0.7254  1.9890
 5591TIP3    H216738   5.569   3.947   0.031 -1.3999  3.6101 -1.0553
 5592TIP3   OH216739   1.249   1.752   4.506  0.6106  0.3160 -0.2469
 5592TIP3    H116740   1.337   1.787   4.520  1.4223 -2.3318  2.2460
 5592TIP3    H216741   1.208   1.753   4.592 -1.3338  0.2694 -1.1205
 5593TIP3   OH216742   4.629   0.907   2.746 -0.2975  0.1304 -0.0053
 5593TIP3    H116743   4.589   0.989   2.717  0.3144  0.6395  0.5579
 5593TIP3    H216744   4.579   0.884   2.825  0.8270  1.0595  1.0210
 5594TIP3   OH216745   2.525   4.455   4.758 -0.3689 -0.2497 -0.0696
 5594TIP3    H116746   2.605   4.498   4.729 -0.5062 -0.7778 -1.2611
 5594TIP3    H216747   2.552   4.365   4.777 -0.4635 -0.1412  0.6022
 5595TIP3   OH216748   5.761   3.505   0.134 -0.0545  0.3059  0.5088
 5595TIP3    H116749   5.779   3.413   0.151  0.8438  0.3160 -0.2910
 5595TIP3    H216750   5.777   3.549   0.217 -0.1194 -0.2050  0.7956
 5596TIP3   OH216751   1.952   6.206   2.755  0.2844 -0.6744 -0.0048
 5596TIP3    H116752   1.923   6.130   2.806  0.6162 -1.7375 -1.3154
 5596TIP3    H216753   1.886   6.273   2.772  0.4906 -0.8902  1.9488
 5597TIP3   OH216754   5.071   3.868   0.042  0.3220 -0.4708 -0.5908
 5597TIP3    H116755   5.059   3.795   0.102 -0.5160 -1.8246 -2.3369
 5597TIP3    H216756   5.164   3.864   0.017  0.9322  0.6938  1.2600
 5598TIP3   OH216757   6.581   0.041   4.418 -0.4615 -0.0338 -0.1467
 5598TIP3    H116758   6.594   0.047   4.323  1.6016 -0.2427  0.0669
 5598TIP3    H216759   6.571   0.132   4.447 -0.7047  0.0596 -0.5174
 5599TIP3   OH216760   7.061   6.475   3.103 -0.1600 -0.1113  0.1805
 5599TIP3    H116761   7.071   6.492   3.197 -1.4018 -1.4086  0.5808
 5599TIP3    H216762   7.122   6.535   3.061  0.9637 -0.0288  1.8562
 5600TIP3   OH216763   2.250   4.814   1.454  0.0853 -0.0680  0.2069
 5600TIP3    H116764   2.201   4.742   1.414  0.9776 -0.6249  0.1084
 5600TIP3    H216765   2.266   4.875   1.382 -0.6882  0.2528  0.2940
 5601TIP3   OH216766   4.244   3.880   1.205  0.1714 -0.3010 -0.6787
 5601TIP3    H116767   4.268   3.972   1.200 -0.5646 -0.0515 -0.0166
 5601TIP3    H216768   4.249   3.859   1.298  0.7784 -1.0634 -0.8730
 5602TIP3   OH216769   0.159   2.937   4.389 -0.3981  0.3377 -0.1445
 5602TIP3    H116770   0.219   2.966   4.458  2.2173 -0.5607 -1.8895
 5602TIP3    H216771   0.179   2.844   4.377 -1.7691  0.1421 -1.1865
 5603TIP3   OH216772   3.425   2.218   4.529  0.4092  0.0612  0.4482
 5603TIP3    H116773   3.438   2.179   4.442  0.1730  0.6131  0.1579
 5603TIP3    H216774   3.458   2.308   4.519  0.2920  0.1544  0.9047
 5604TIP3   OH216775   6.323   0.924   5.482 -0.1193  0.4433  0.1283
 5604TIP3    H116776   6.402   0.977   5.484  0.2739  0.0121 -1.7129
 5604TIP3    H216777   6.354   0.835   5.502 -0.4114  0.5246  0.9765
 5605TIP3   OH216778   0.389   5.740   5.701  0.0303 -0.2327  0.4649
 5605TIP3    H116779   0.442   5.711   5.775  0.4154 -0.3655  0.1366
 5605TIP3    H216780   0.449   5.790   5.646  0.1211 -1.4174 -0.5322
 5606TIP3   OH216781   4.075   2.654   4.279 -0.2703  0.5306 -0.6767
 5606TIP3    H116782   4.165   2.687   4.269 -0.0686 -0.4923 -2.8285
 5606TIP3    H216783   4.083   2.559   4.268 -1.5617  0.3738 -0.4027
 5607TIP3   OH216784   0.873   5.860   2.122 -0.3352 -0.0604 -0.3908
 5607TIP3    H116785   0.842   5.950   2.128  1.6793  0.6910 -0.3173
 5607TIP3    H216786   0.837   5.827   2.040 -2.0867  0.3836  0.1676
 5608TIP3   OH216787   5.905   6.539   5.737  0.2055  0.0387 -0.1761
 5608TIP3    H116788   5.894   6.599   5.811  0.0617 -1.2355  0.8815
 5608TIP3    H216789   5.842   6.570   5.672 -0.8412  0.2275  0.8884
 5609TIP3   OH216790   3.531   0.347   0.906  0.1787  0.0917  0.1291
 5609TIP3    H116791   3.574   0.303   0.979 -0.3828 -1.4485 -0.4357
 5609TIP3    H216792   3.490   0.277   0.856 -1.6275  1.3395 -0.2558
 5610TIP3   OH216793   6.153   3.328   5.247 -0.5012 -0.2396  0.5017
 5610TIP3    H116794   6.204   3.251   5.218  1.8252  1.4859 -0.3300
 5610TIP3    H216795   6.142   3.380   5.167 -2.1831  0.2583  1.0259
 5611TIP3   OH216796   5.554   6.305   2.154  0.4498 -0.2321  0.2139
 5611TIP3    H116797   5.615   6.291   2.226 -1.7197 -1.7876  1.8901
 5611TIP3    H216798   5.523   6.217   2.131 -0.9245  0.4560 -0.7555
 5612TIP3   OH216799   0.204   6.746   3.188  0.5771 -0.0459  0.3182
 5612TIP3    H116800   0.138   6.716   3.251  0.2869 -0.0625  0.0054
 5612TIP3    H216801   0.262   6.671   3.177 -0.3150 -0.5978 -0.6838
 5613TIP3   OH216802   0.690   5.651   3.372  0.5902 -0.5542 -0.3522
 5613TIP3    H116803   0.710   5.557   3.366 -0.9027 -0.8966 -0.3705
 5613TIP3    H216804   0.599   5.654   3.400  0.2443  0.8783 -1.5272
 5614TIP3   OH216805   0.824   6.441   5.000 -0.4080 -0.0301 -0.1665
 5614TIP3    H116806   0.843   6.352   4.973 -1.1661 -0.4009  0.4692
 5614TIP3    H216807   0.730   6.452   4.984 -0.3024  0.6832 -0.3361
 5615TIP3   OH216808   2.730   2.652   5.085 -0.2641 -0.7826 -0.1351
 5615TIP3    H116809   2.801   2.714   5.100 -0.2936 -0.5675 -0.8313
 5615TIP3    H216810   2.754   2.574   5.135  0.4786 -0.7223 -0.3906
 5616TIP3   OH216811   6.956   0.273   3.508 -0.1783  0.1009  0.3743
 5616TIP3    H116812   6.903   0.353   3.515  1.3234  1.3171 -1.1037
 5616TIP3    H216813   7.045   0.301   3.530 -0.0311 -1.8278  2.5517
 5617TIP3   OH216814   1.938   0.630   4.949 -0.3466 -0.2100 -0.0119
 5617TIP3    H116815   2.006   0.679   4.902 -1.9824 -0.1163 -2.3879
 5617TIP3    H216816   1.868   0.694   4.964 -0.3402 -0.5319  1.6641
 5618TIP3   OH216817   0.747   5.536   1.285  0.6738  0.5782 -0.0376
 5618TIP3    H116818   0.705   5.602   1.340  0.1281  1.6361 -1.6625
 5618TIP3    H216819   0.743   5.572   1.196  2.2167 -0.7174 -0.6896
 5619TIP3   OH216820   6.350   4.946   5.170  0.6022 -0.4097  0.6621
 5619TIP3    H116821   6.270   4.975   5.125  1.2596  1.4374  0.6081
 5619TIP3    H216822   6.318   4.892   5.242 -0.5366 -2.6105 -1.3293
 5620TIP3   OH216823   2.406   3.598   1.930 -0.7005 -0.1642 -0.0055
 5620TIP3    H116824   2.476   3.613   1.866  0.6849 -0.1092  1.4698
 5620TIP3    H216825   2.329   3.638   1.891  0.0778 -0.1976 -1.6700
 5621TIP3   OH216826   7.126   0.241   0.363 -1.2085 -0.1237  0.1404
 5621TIP3    H116827   7.205   0.190   0.348 -1.3077 -0.7723  1.5675
 5621TIP3    H216828   7.148   0.330   0.336 -0.3095 -0.4919 -0.3581
 5622TIP3   OH216829   4.690   3.091   4.836  0.0296  0.1175  0.6744
 5622TIP3    H116830   4.671   3.026   4.904 -1.0883  1.0543  1.2846
 5622TIP3    H216831   4.749   3.153   4.878  0.3673  0.0068  0.3720
 5623TIP3   OH216832   1.618   2.436   5.209 -0.2472  0.0475  0.3477
 5623TIP3    H116833   1.654   2.350   5.233 -1.0876 -1.5458 -3.3990
 5623TIP3    H216834   1.524   2.420   5.196 -0.9269  2.2135  1.9808
 5624TIP3   OH216835   0.906   1.446   5.526 -0.1913 -0.3939  0.7767
 5624TIP3    H116836   0.874   1.536   5.527 -2.8468 -1.2120 -0.5856
 5624TIP3    H216837   1.000   1.454   5.543 -0.5099  2.5055  1.7985
 5625TIP3   OH216838   5.524   5.654   5.359  0.2776  0.1018  0.4516
 5625TIP3    H116839   5.601   5.596   5.354  0.7307  0.8154 -1.9987
 5625TIP3    H216840   5.476   5.636   5.278 -1.7336  0.2651  1.5678
 5626TIP3   OH216841   6.296   4.809   2.943  0.2685  0.0687 -0.0597
 5626TIP3    H116842   6.346   4.879   2.901 -1.5299  1.3958 -0.0956
 5626TIP3    H216843   6.206   4.823   2.914 -0.3756 -1.4164  1.0811
 5627TIP3   OH216844   7.204   3.242   2.697 -0.5615  0.3429  0.5665
 5627TIP3    H116845   7.148   3.245   2.775 -0.7538  2.1184  0.4041
 5627TIP3    H216846   7.255   3.323   2.701 -0.4562  0.3914 -1.0604
 5628TIP3   OH216847   6.971   3.510   0.493 -0.2993  0.1856 -0.1010
 5628TIP3    H116848   7.039   3.457   0.536  1.9337  1.3950 -1.9260
 5628TIP3    H216849   7.011   3.595   0.479 -0.9874  0.0565 -4.0261
 5629TIP3   OH216850   5.107   1.049   3.485  0.0380 -0.1310  0.2297
 5629TIP3    H116851   5.137   0.962   3.458  1.6073  0.1332  1.0028
 5629TIP3    H216852   5.184   1.106   3.472 -1.3374  1.4665 -1.5633
 5630TIP3   OH216853   1.353   3.984   5.522  0.1558 -0.2269 -0.3498
 5630TIP3    H116854   1.259   3.968   5.532 -0.1844  1.1867 -0.8833
 5630TIP3    H216855   1.384   3.911   5.468 -0.5850 -0.8454  0.0391
 5631TIP3   OH216856   6.187   5.900   3.885 -0.3501  0.1793 -0.1612
 5631TIP3    H116857   6.108   5.942   3.921 -0.1066 -0.3495  1.0442
 5631TIP3    H216858   6.259   5.937   3.937  0.0200 -0.5869 -0.1250
 5632TIP3   OH216859   0.445   0.294   5.516  0.3638 -0.1178  0.6490
 5632TIP3    H116860   0.409   0.268   5.601  0.2050 -2.5055 -0.0658
 5632TIP3    H216861   0.506   0.224   5.494 -0.2337 -0.0139 -1.5757
 5633TIP3   OH216862   2.652   0.669   2.643  0.0051  0.7001  0.2277
 5633TIP3    H116863   2.582   0.619   2.601  0.9800 -0.2235 -0.3706
 5633TIP3    H216864   2.613   0.754   2.662 -1.0020  0.5257 -0.9210
 5634TIP3   OH216865   3.058   5.403   3.180 -0.3668 -0.5488 -0.1148
 5634TIP3    H116866   3.135   5.356   3.211 -0.8318  0.9222  3.8807
 5634TIP3    H216867   3.005   5.337   3.135  1.4621 -2.4816  0.4535
 5635TIP3   OH216868   4.646   1.073   3.143  0.4891  0.1424 -0.1400
 5635TIP3    H116869   4.670   0.991   3.187  1.6003  1.2398  1.4109
 5635TIP3    H216870   4.710   1.083   3.073 -0.2109 -0.7400 -0.9311
 5636TIP3   OH216871   4.731   5.326   2.516  0.2023 -0.3014  0.0218
 5636TIP3    H116872   4.644   5.288   2.525 -0.1172  0.0407 -1.4960
 5636TIP3    H216873   4.730   5.372   2.433  1.2254  1.3768  0.8717
 5637TIP3   OH216874   3.918   5.451   3.283 -0.1069  0.2066  0.1762
 5637TIP3    H116875   3.823   5.454   3.270 -0.1821  2.3206  0.8720
 5637TIP3    H216876   3.930   5.452   3.378  0.6223  1.1481  0.0869
 5638TIP3   OH216877   1.043   5.831   4.671  0.0079  0.1479  0.0410
 5638TIP3    H116878   0.973   5.890   4.700 -0.0878  0.9482 -1.6787
 5638TIP3    H216879   1.097   5.818   4.749 -1.0404  0.9568  0.9502
 5639TIP3   OH216880   5.293   6.656   4.414  0.1362 -1.0184 -0.2238
 5639TIP3    H116881   5.209   6.641   4.457  0.4563 -2.3622 -0.0133
 5639TIP3    H216882   5.280   6.735   4.363  0.1613  1.6045  3.4396
 5640TIP3   OH216883   0.818   2.600   3.456 -0.5342 -0.1058  0.4472
 5640TIP3    H116884   0.898   2.600   3.404 -0.7819  0.7052  0.0471
 5640TIP3    H216885   0.796   2.693   3.466 -0.9680 -0.2856  1.2635
 5641TIP3   OH216886   1.231   1.341   1.638  0.0106  0.4914 -0.1425
 5641TIP3    H116887   1.221   1.341   1.733  0.2747 -0.9520 -0.0974
 5641TIP3    H216888   1.246   1.433   1.616  1.0018  0.7228  1.3326
 5642TIP3   OH216889   6.394   3.030   2.355 -0.1084  0.0846 -0.8029
 5642TIP3    H116890   6.413   2.955   2.299  1.5498 -0.3608  0.2836
 5642TIP3    H216891   6.443   3.013   2.436 -0.1091  2.0740 -0.3208
 5643TIP3   OH216892   6.558   0.378   2.108  0.6747 -0.1028  0.0530
 5643TIP3    H116893   6.621   0.404   2.041  0.3996  1.9938  0.5382
 5643TIP3    H216894   6.612   0.344   2.180  1.0705 -0.7318 -0.5287
 5644TIP3   OH216895   1.015   0.517   1.482  0.0520  0.3461 -0.1035
 5644TIP3    H116896   1.048   0.532   1.393 -0.3071  1.2330 -0.0997
 5644TIP3    H216897   0.950   0.447   1.472 -0.0117  0.4667 -0.5447
 5645TIP3   OH216898   6.656   4.793   3.572 -0.1317  0.3864  0.6669
 5645TIP3    H116899   6.678   4.707   3.607 -3.9201 -0.6513  0.9211
 5645TIP3    H216900   6.713   4.854   3.620  3.6954 -1.9179 -0.5137
 5646TIP3   OH216901   3.428   2.150   3.861  0.2199 -0.0222  0.3695
 5646TIP3    H116902   3.426   2.204   3.781  0.1863  0.0955  0.4491
 5646TIP3    H216903   3.504   2.182   3.909  0.1002  0.0741  0.4985
 5647TIP3   OH216904   4.049   0.125   4.587 -0.0707  0.0049  0.0166
 5647TIP3    H116905   4.052   0.161   4.499 -0.5954 -0.3141 -0.1346
 5647TIP3    H216906   4.138   0.094   4.603 -0.0637 -0.2719 -0.5415
 5648TIP3   OH216907   0.084   4.356   3.860 -0.1718  0.0852 -0.4703
 5648TIP3    H116908   0.117   4.286   3.916  0.2851  0.7295  0.0788
 5648TIP3    H216909   0.157   4.419   3.855 -0.6099  0.5666 -0.8721
 5649TIP3   OH216910   6.785   4.276   1.871  0.1645  0.3339  0.5953
 5649TIP3    H116911   6.713   4.223   1.836 -0.4587  0.3324  1.8357
 5649TIP3    H216912   6.746   4.324   1.944  0.9352  1.8632  0.0495
 5650TIP3   OH216913   1.209   3.610   0.497  0.3759  0.0352  0.6092
 5650TIP3    H116914   1.205   3.575   0.586  2.6573 -1.2252  0.2741
 5650TIP3    H216915   1.257   3.545   0.447  0.6027  1.4904 -1.1781
 5651TIP3   OH216916   4.644   5.725   4.865 -0.0794  0.2008  0.6452
 5651TIP3    H116917   4.718   5.664   4.873 -0.0886  0.0698 -0.2249
 5651TIP3    H216918   4.681   5.809   4.891  1.3429  0.8241 -2.8468
 5652TIP3   OH216919   5.189   6.365   4.936  0.6206  0.0945  0.4753
 5652TIP3    H116920   5.165   6.337   4.848 -1.3660  0.5920  0.7960
 5652TIP3    H216921   5.156   6.455   4.942  0.0816 -0.1748  1.9378
 5653TIP3   OH216922   5.220   4.503   1.597  0.4388 -0.3489  0.1282
 5653TIP3    H116923   5.220   4.428   1.538 -0.0367 -0.4547  0.2639
 5653TIP3    H216924   5.221   4.465   1.685  0.0316 -0.2001  0.1997
 5654TIP3   OH216925   4.234   2.508   0.107 -0.4485 -0.7867  0.8323
 5654TIP3    H116926   4.264   2.560   0.032 -1.2180 -1.4334  0.0629
 5654TIP3    H216927   4.204   2.426   0.069  0.2072 -1.5819  1.9852
 5655TIP3   OH216928   2.193   4.402   3.817  0.1230  0.3790 -0.3628
 5655TIP3    H116929   2.287   4.386   3.831 -0.0440  0.7470  1.3227
 5655TIP3    H216930   2.158   4.316   3.794  0.5470 -0.1683  0.9704
 5656TIP3   OH216931   2.086   6.110   2.537  0.2764  0.2373 -0.6268
 5656TIP3    H116932   2.079   6.021   2.572 -0.1941  0.2354 -0.7119
 5656TIP3    H216933   2.083   6.166   2.615  0.5004  0.1819 -0.5778
 5657TIP3   OH216934   1.004   3.895   1.709 -0.3847  0.4998 -0.3138
 5657TIP3    H116935   1.006   3.984   1.746  2.2754  0.3460  0.1087
 5657TIP3    H216936   0.932   3.897   1.646 -0.4263  2.9455 -0.2884
 5658TIP3   OH216937   2.279   5.928   4.905  0.3728 -0.1697  0.1345
 5658TIP3    H116938   2.264   6.005   4.850  1.0747 -0.3278 -0.2903
 5658TIP3    H216939   2.203   5.925   4.964 -0.1060  0.3264 -0.4458
 5659TIP3   OH216940   6.596   6.106   5.764 -0.3872 -0.0812  0.1719
 5659TIP3    H116941   6.512   6.123   5.806 -0.0722  0.3537  0.6336
 5659TIP3    H216942   6.630   6.193   5.743 -2.3278 -0.1773 -4.6939
 5660TIP3   OH216943   3.315   6.330   0.274 -0.2299  0.1434  0.1615
 5660TIP3    H116944   3.235   6.283   0.253 -1.0092  0.4688  2.1710
 5660TIP3    H216945   3.296   6.421   0.254 -0.5608  0.2920  1.1225
 5661TIP3   OH216946   0.171   4.116   2.711 -0.7685  0.0906  0.4126
 5661TIP3    H116947   0.192   4.208   2.693 -1.0083  0.4273  1.6945
 5661TIP3    H216948   0.218   4.097   2.793 -0.2967 -1.0990 -0.1168
 5662TIP3   OH216949   2.127   2.761   2.783  0.0386  0.7256 -0.2837
 5662TIP3    H116950   2.155   2.822   2.851  0.4737 -0.3210  0.5092
 5662TIP3    H216951   2.078   2.693   2.830  0.9864 -0.4245 -0.8966
 5663TIP3   OH216952   2.828   4.730   3.107 -0.4757  0.4906  0.5998
 5663TIP3    H116953   2.742   4.693   3.128  0.1594 -0.8092  1.0608
 5663TIP3    H216954   2.873   4.660   3.059  0.2131  1.2761  0.0638
 5664TIP3   OH216955   2.557   3.383   0.582 -0.3401  0.2337 -0.3066
 5664TIP3    H116956   2.629   3.415   0.527  0.2692 -1.5131 -0.6009
 5664TIP3    H216957   2.507   3.326   0.523  0.4049 -1.7942  0.9392
 5665TIP3   OH216958   4.264   1.554   0.406  0.0663 -0.1569  0.1900
 5665TIP3    H116959   4.333   1.547   0.339  0.2234 -1.0722  0.4273
 5665TIP3    H216960   4.224   1.467   0.407 -2.0480  0.7312 -0.9386
 5666TIP3   OH216961   4.703   2.987   5.082 -0.0856 -0.2142 -0.4122
 5666TIP3    H116962   4.732   3.008   5.171 -1.9437  2.0443 -0.2452
 5666TIP3    H216963   4.665   2.899   5.089  1.0260 -0.6309  0.6963
 5667TIP3   OH216964   5.356   2.902   3.996  0.1855  0.4370  0.4452
 5667TIP3    H116965   5.412   2.846   4.051 -0.0017 -1.1326 -0.8960
 5667TIP3    H216966   5.415   2.935   3.929 -0.4285 -1.3861 -1.0980
 5668TIP3   OH216967   4.273   0.766   4.907 -0.5758 -0.1061 -0.3307
 5668TIP3    H116968   4.365   0.789   4.917 -0.0540 -1.5410 -1.5372
 5668TIP3    H216969   4.263   0.686   4.959 -1.3708  0.4865  0.4689
 5669TIP3   OH216970   3.403   4.172   0.844  0.4919 -0.1088  0.2577
 5669TIP3    H116971   3.388   4.107   0.913 -0.3749 -2.1962 -1.7656
 5669TIP3    H216972   3.488   4.148   0.807 -0.3789 -0.9512 -1.3012
 5670TIP3   OH216973   6.837   6.239   0.603  0.1225  0.5783  0.2754
 5670TIP3    H116974   6.795   6.180   0.540  0.3701  0.2968  0.3729
 5670TIP3    H216975   6.768   6.261   0.665  0.1358  0.0609  0.4738
 5671TIP3   OH216976   2.107   2.270   0.946  0.5905 -0.4892 -0.0167
 5671TIP3    H116977   2.148   2.203   0.999  1.6318  0.1839  0.0499
 5671TIP3    H216978   2.016   2.273   0.977  1.1942 -0.0157  1.8383
 5672TIP3   OH216979   2.806   1.499   1.488  0.3879  0.0478 -0.4664
 5672TIP3    H116980   2.895   1.533   1.477 -0.0218  1.2112 -0.3266
 5672TIP3    H216981   2.802   1.424   1.429  1.7329 -0.5576  0.1750
 5673TIP3   OH216982   5.692   1.660   1.229 -0.2335 -0.2777  0.3121
 5673TIP3    H116983   5.781   1.632   1.210 -0.9441 -2.6433  0.1871
 5673TIP3    H216984   5.690   1.673   1.324  1.4079  4.5365 -0.0576
 5674TIP3   OH216985   3.530   6.468   2.613 -0.1232  0.0078  0.1860
 5674TIP3    H116986   3.437   6.448   2.618 -0.1312  0.1954  0.8574
 5674TIP3    H216987   3.574   6.392   2.650  0.0805 -0.7227 -1.4594
 5675TIP3   OH216988   4.141   1.983   2.536  0.6188 -0.2660 -0.2575
 5675TIP3    H116989   4.131   1.942   2.622 -1.7404 -1.0278 -0.8141
 5675TIP3    H216990   4.057   2.028   2.522  1.6017  1.3012 -1.4562
 5676TIP3   OH216991   6.984   1.361   0.137 -0.4831  0.7315  0.0389
 5676TIP3    H116992   7.063   1.332   0.090 -0.5819 -0.2126  0.4314
 5676TIP3    H216993   6.915   1.358   0.071 -0.1258  2.0201 -0.4321
 5677TIP3   OH216994   1.048   1.146   5.325 -0.2337 -0.1843  0.6526
 5677TIP3    H116995   1.084   1.235   5.323  0.1100 -0.2940  1.6523
 5677TIP3    H216996   1.096   1.099   5.257 -0.7754  0.5129 -0.2385
 5678TIP3   OH216997   7.094   5.018   5.351  0.7479 -0.8491  0.1815
 5678TIP3    H116998   7.047   5.094   5.315 -1.0007 -1.9747 -0.0824
 5678TIP3    H216999   7.114   5.043   5.441 -0.1434 -0.2003  0.2207
 5679TIP3   OH217000   6.953   1.528   5.098 -0.0155  0.2638 -0.4927
 5679TIP3    H117001   6.928   1.455   5.042  3.5271 -0.6211 -1.1403
 5679TIP3    H217002   6.981   1.597   5.038  1.6508  0.1591  0.1156
 5680TIP3   OH217003   0.022   5.761   2.765 -0.0773  0.3854  0.0372
 5680TIP3    H117004  -0.006   5.694   2.703  1.0852  0.2195 -0.3180
 5680TIP3    H217005   0.115   5.772   2.750  0.3106  0.1268  1.9470
 5681TIP3   OH217006   2.445   6.501   3.222 -0.6391 -0.6476  0.3166
 5681TIP3    H117007   2.368   6.452   3.253 -1.5560 -0.9568 -2.2214
 5681TIP3    H217008   2.426   6.592   3.244 -0.9806 -0.9174  1.1656
 5682TIP3   OH217009   0.996   6.243   4.538  0.1904  0.5249  0.0240
 5682TIP3    H117010   1.073   6.298   4.551  0.0532  0.6457  0.3256
 5682TIP3    H217011   1.000   6.179   4.608 -0.3681  0.9757  0.4810
 5683TIP3   OH217012   0.278   5.229   1.278  0.6534 -0.8302  0.2487
 5683TIP3    H117013   0.258   5.199   1.190 -0.4446  0.3513  0.0627
 5683TIP3    H217014   0.370   5.254   1.275  0.9401 -1.8872 -0.2230
 5684TIP3   OH217015   5.445   1.656   1.084 -0.2675  0.2283  0.1193
 5684TIP3    H117016   5.508   1.617   1.143 -1.6229 -0.1515  1.3809
 5684TIP3    H217017   5.436   1.593   1.012  1.3976  0.6982 -0.5375
 5685TIP3   OH217018   1.245   2.200   4.995 -0.1404  0.0523  0.5047
 5685TIP3    H117019   1.158   2.233   4.970  0.0692 -1.0169 -1.9426
 5685TIP3    H217020   1.293   2.278   5.023 -1.6691  0.7570  1.2886
 5686TIP3   OH217021   2.868   3.678   3.257  0.2609  0.3637  0.5023
 5686TIP3    H117022   2.805   3.694   3.187  2.2611  1.5341 -1.1589
 5686TIP3    H217023   2.841   3.595   3.295 -1.0255 -0.2443 -1.5586
 5687TIP3   OH217024   5.695   4.579   4.645 -0.7462 -0.6367  0.1916
 5687TIP3    H117025   5.786   4.562   4.625 -0.8477  1.1409 -2.2017
 5687TIP3    H217026   5.666   4.502   4.694  1.4462 -2.2211 -0.8518
 5688TIP3   OH217027   5.641   6.211   2.849  0.4463  0.4477  0.0174
 5688TIP3    H117028   5.598   6.230   2.766  1.6967  0.5858 -0.6176
 5688TIP3    H217029   5.719   6.160   2.825 -0.2581 -1.3593  1.2741
 5689TIP3   OH217030   4.492   0.211   3.500  0.4059 -0.1557  0.1837
 5689TIP3    H117031   4.553   0.189   3.570  1.1780 -0.2247 -0.4922
 5689TIP3    H217032   4.548   0.227   3.423 -0.4492 -0.7350 -0.5855
 5690TIP3   OH217033   1.513   5.268   0.412 -0.0847  0.1549 -0.0109
 5690TIP3    H117034   1.561   5.259   0.330 -0.6342  0.3138 -0.3573
 5690TIP3    H217035   1.471   5.184   0.425  0.7153 -0.1683  0.5782
 5691TIP3   OH217036   1.747   0.244   1.434  0.2597  0.3263 -0.0390
 5691TIP3    H117037   1.665   0.286   1.459  1.1256  0.3002  3.3331
 5691TIP3    H217038   1.736   0.152   1.459  0.7075 -0.0761 -1.2433
 5692TIP3   OH217039   1.163   4.613   3.550 -0.2075  0.3010 -0.7092
 5692TIP3    H117040   1.083   4.663   3.565 -0.7264 -0.5767 -0.4787
 5692TIP3    H217041   1.227   4.653   3.608 -0.6697  0.5541 -0.3641
 5693TIP3   OH217042   5.383   1.960   4.756  0.1973  0.2985  0.0105
 5693TIP3    H117043   5.346   1.878   4.788  0.5337 -0.0421 -0.4704
 5693TIP3    H217044   5.307   2.008   4.721  0.3209 -0.8658 -1.9839
 5694TIP3   OH217045   7.051   2.729   0.646 -0.3368  0.4440  0.0796
 5694TIP3    H117046   7.000   2.809   0.656  0.4900  0.8660  1.0968
 5694TIP3    H217047   7.023   2.693   0.561 -3.6275 -0.2858  1.3080
 5695TIP3   OH217048   0.990   5.531   0.946 -0.5416 -0.0278  0.2856
 5695TIP3    H117049   1.001   5.528   0.851 -0.2412  0.2616  0.3104
 5695TIP3    H217050   0.970   5.622   0.965  1.0619  0.2713  0.6713
 5696TIP3   OH217051   1.184   2.448   4.174  0.1559  0.4693 -0.3143
 5696TIP3    H117052   1.106   2.453   4.119  0.2888  1.2214 -0.4355
 5696TIP3    H217053   1.232   2.529   4.156  0.6401  0.3124  0.2445
 5697TIP3   OH217054   4.849   3.183   0.790  0.3624  0.1389  0.1785
 5697TIP3    H117055   4.858   3.262   0.843 -1.8592 -0.4445  1.5909
 5697TIP3    H217056   4.758   3.155   0.804 -0.1110 -0.5694 -3.2969
 5698TIP3   OH217057   4.264   0.061   0.525  0.1631  0.2440  0.0678
 5698TIP3    H117058   4.313   0.060   0.443  1.5702  1.6619  0.8504
 5698TIP3    H217059   4.313   0.003   0.583 -0.3292 -0.0450  0.2060
 5699TIP3   OH217060   5.285   4.684   2.330  0.2162  0.0759  0.7904
 5699TIP3    H117061   5.307   4.678   2.423 -1.2384  1.6213  1.2686
 5699TIP3    H217062   5.367   4.662   2.284  1.0325 -0.3891  2.4154
 5700TIP3   OH217063   2.242   4.153   5.478  0.4950  0.2160 -0.1849
 5700TIP3    H117064   2.236   4.204   5.397  2.4445 -0.5852 -0.9041
 5700TIP3    H217065   2.254   4.218   5.547  1.6215  0.8302 -0.9257
 5701TIP3   OH217066   6.574   4.382   4.510  0.3056  0.7531 -0.4450
 5701TIP3    H117067   6.486   4.411   4.486 -0.6452 -0.7509  1.0032
 5701TIP3    H217068   6.587   4.301   4.462  1.3732  1.4861 -1.4612
 5702TIP3   OH217069   4.593   2.825   0.333  0.5286 -0.1787  0.7496
 5702TIP3    H117070   4.514   2.779   0.364  1.0274 -1.3470  0.3546
 5702TIP3    H217071   4.576   2.841   0.240  0.4228  0.2958  0.8518
 5703TIP3   OH217072   4.835   3.162   3.568 -0.2886  0.3686  0.1944
 5703TIP3    H117073   4.886   3.119   3.499 -0.5890 -0.9890  0.7780
 5703TIP3    H217074   4.776   3.093   3.600 -0.1614  0.9644  1.7932
 5704TIP3   OH217075   2.953   1.736   3.721  0.0178 -0.3554  0.1119
 5704TIP3    H117076   2.905   1.763   3.799 -0.6393 -0.7917 -0.1272
 5704TIP3    H217077   2.969   1.817   3.673  1.6415  0.0873  1.3545
 5705TIP3   OH217078   4.364   4.203   0.811 -0.6969 -0.1292  0.0089
 5705TIP3    H117079   4.291   4.228   0.868 -0.3237  0.2665  0.3167
 5705TIP3    H217080   4.342   4.240   0.725  0.5320  2.6197  0.7643
 5706TIP3   OH217081   7.215   2.218   1.743 -0.3373  0.1729 -0.4486
 5706TIP3    H117082   7.214   2.250   1.833  0.9660 -2.2684  0.5286
 5706TIP3    H217083   7.123   2.203   1.722 -0.6440  0.5191  0.5632
 5707TIP3   OH217084   5.223   2.540   4.662  0.6708  0.2098 -0.4366
 5707TIP3    H117085   5.211   2.446   4.672  0.4253  0.2497 -0.3290
 5707TIP3    H217086   5.163   2.565   4.591  1.1702  0.1930 -0.8681
 5708TIP3   OH217087   6.790   5.384   0.141 -0.3467  0.1587 -0.0674
 5708TIP3    H117088   6.849   5.393   0.065  0.7486  0.0541  0.7527
 5708TIP3    H217089   6.794   5.291   0.163  0.0128  0.3447  0.6502
 5709TIP3   OH217090   3.571   2.156   5.098 -0.1274  0.6608  0.0803
 5709TIP3    H117091   3.520   2.077   5.080 -1.0314  0.9093  1.4390
 5709TIP3    H217092   3.563   2.207   5.017 -2.1295  0.7310  0.2591
 5710TIP3   OH217093   2.030   0.177   1.308  0.0808  0.2097  0.2750
 5710TIP3    H117094   1.972   0.237   1.261 -0.1591 -1.2460 -1.3556
 5710TIP3    H217095   2.099   0.234   1.343  0.7469  1.3276 -2.5876
 5711TIP3   OH217096   6.536   5.088   1.836  0.2822 -0.3124  0.5025
 5711TIP3    H117097   6.503   5.156   1.894 -0.4671 -0.6732  0.5154
 5711TIP3    H217098   6.539   5.130   1.750  0.3740 -0.0940  0.6109
 5712TIP3   OH217099   6.539   1.042   2.989 -0.0155 -0.6400  0.1281
 5712TIP3    H117100   6.508   1.126   3.022 -0.9376 -1.1270  0.5512
 5712TIP3    H217101   6.473   1.016   2.925 -0.1667 -1.4062  0.5795
 5713TIP3   OH217102   6.911   3.599   4.064 -0.5993  0.0136  0.1250
 5713TIP3    H117103   6.903   3.515   4.110 -1.3934 -1.0220 -1.7613
 5713TIP3    H217104   6.978   3.582   3.997 -0.7108  0.9283 -0.2286
 5714TIP3   OH217105   6.508   5.774   3.741 -0.3942  0.7787 -0.4569
 5714TIP3    H117106   6.537   5.855   3.700 -1.0188  0.2501 -2.0203
 5714TIP3    H217107   6.539   5.705   3.682 -0.1049 -0.1154  0.7011
 5715TIP3   OH217108   5.337   6.277   1.850  0.2572 -0.3087  0.2005
 5715TIP3    H117109   5.349   6.347   1.914 -1.6292 -0.5947  0.9210
 5715TIP3    H217110   5.302   6.204   1.900 -0.6401 -0.7618 -1.0474
 5716TIP3   OH217111   2.440   3.455   5.492 -0.0250 -0.0851 -0.3883
 5716TIP3    H117112   2.377   3.388   5.467  1.5863 -1.5988 -0.5793
 5716TIP3    H217113   2.394   3.538   5.476 -2.6406 -1.0750  1.3346
 5717TIP3   OH217114   6.492   0.838   1.196  0.0442 -0.5674 -0.2573
 5717TIP3    H117115   6.418   0.781   1.176 -0.6166  0.0571  0.3537
 5717TIP3    H217116   6.476   0.869   1.285  1.9869 -1.8570  0.6030
 5718TIP3   OH217117   6.323   4.783   5.809 -0.4286  0.2063  0.8342
 5718TIP3    H117118   6.349   4.868   5.845  0.7829  0.4400 -0.5267
 5718TIP3    H217119   6.238   4.800   5.768  0.3805  1.1378 -0.5723
 5719TIP3   OH217120   4.675   3.011   3.939 -0.4742  0.2019  0.6702
 5719TIP3    H117121   4.644   3.057   3.862  0.7766  0.1844  0.1294
 5719TIP3    H217122   4.768   3.033   3.945 -0.1373 -1.2356  1.1273
 5720TIP3   OH217123   1.020   4.099   2.210 -0.0689 -0.2492  0.2419
 5720TIP3    H117124   1.017   4.127   2.302  0.8356  1.6690 -0.2741
 5720TIP3    H217125   1.113   4.088   2.192 -0.2907 -1.4466 -0.2337
 5721TIP3   OH217126   4.156   1.108   0.952 -0.0044  0.1109 -0.5353
 5721TIP3    H117127   4.162   1.018   0.919 -0.0133  0.0573 -0.3889
 5721TIP3    H217128   4.178   1.162   0.876  0.1399 -0.0185 -0.5869
 5722TIP3   OH217129   0.866   4.469   3.468 -0.2530 -0.4180  0.4400
 5722TIP3    H117130   0.785   4.437   3.509 -0.6211 -0.5503 -0.3691
 5722TIP3    H217131   0.911   4.517   3.538 -0.8147 -0.7220  1.0226
 5723TIP3   OH217132   3.908   3.240   3.744 -0.2879  0.0349  0.7406
 5723TIP3    H117133   3.972   3.215   3.678  0.0470  1.4461  0.4941
 5723TIP3    H217134   3.907   3.166   3.805  2.1201  0.2259  1.1451
 5724TIP3   OH217135   2.095   4.332   0.071 -0.8258 -0.4057 -0.1030
 5724TIP3    H117136   2.110   4.248   0.114 -2.0838 -0.8295 -0.4256
 5724TIP3    H217137   2.165   4.339   0.006  0.4581 -0.2504  1.2611
 5725TIP3   OH217138   7.169   6.044   0.687 -0.3314 -0.6065 -0.2661
 5725TIP3    H117139   7.108   6.006   0.750 -0.7260 -0.1873 -0.3856
 5725TIP3    H217140   7.248   6.063   0.737 -0.9821  0.6224  0.3369
 5726TIP3   OH217141   6.203   5.867   5.310 -0.0894  0.3821 -0.5870
 5726TIP3    H117142   6.294   5.839   5.313  0.5528  2.1800 -1.6510
 5726TIP3    H217143   6.154   5.795   5.350  1.5614 -1.5937 -1.9196
 5727TIP3   OH217144   3.455   5.206   4.147 -0.5160  0.2702  0.1664
 5727TIP3    H117145   3.383   5.258   4.112 -0.4681  0.9025  0.9725
 5727TIP3    H217146   3.533   5.259   4.128 -0.4842  0.6014  1.1569
 5728TIP3   OH217147   2.990   6.350   2.369  0.1574  0.0752  0.0758
 5728TIP3    H117148   2.983   6.289   2.295 -1.7572 -0.3737  0.5554
 5728TIP3    H217149   2.974   6.436   2.331 -2.0288 -0.2676  0.0628
 5729TIP3   OH217150   3.915   1.677   1.083  0.5207 -0.7090 -0.1193
 5729TIP3    H117151   3.987   1.676   1.020  1.5937 -1.3146  1.0718
 5729TIP3    H217152   3.842   1.634   1.037  1.1707 -0.8397 -1.0505
 5730TIP3   OH217153   6.375   0.054   0.886  0.5460  0.2978  0.2304
 5730TIP3    H117154   6.372  -0.019   0.824 -0.7373 -1.7843  2.5508
 5730TIP3    H217155   6.466   0.058   0.915  0.6155 -0.4082  0.1192
 5731TIP3   OH217156   1.108   6.738   0.947 -0.2803 -0.0760 -0.2731
 5731TIP3    H117157   1.201   6.735   0.924 -0.3168 -1.8098 -0.3383
 5731TIP3    H217158   1.074   6.815   0.901  1.1849  0.8105  0.0682
 5732TIP3   OH217159   7.219   5.325   2.829 -0.1039 -0.6300 -0.1015
 5732TIP3    H117160   7.241   5.241   2.869 -1.6331 -1.2273 -0.4175
 5732TIP3    H217161   7.147   5.359   2.882 -0.7644 -0.4373 -1.0978
 5733TIP3   OH217162   0.171   5.437   3.068 -0.2197 -0.3016 -0.3811
 5733TIP3    H117163   0.122   5.519   3.063  0.5506  0.1774 -0.1852
 5733TIP3    H217164   0.173   5.404   2.977 -1.4286 -0.6526 -0.2956
 5734TIP3   OH217165   3.642   3.947   3.138  0.5017  0.3085 -0.2154
 5734TIP3    H117166   3.603   4.034   3.138  0.1819  0.1660 -0.3757
 5734TIP3    H217167   3.636   3.918   3.047  0.3526  0.0056 -0.1089
 5735TIP3   OH217168   3.247   3.619   2.013 -0.3411  0.4180 -0.1496
 5735TIP3    H117169   3.242   3.577   2.099  0.3177 -0.8018 -0.6916
 5735TIP3    H217170   3.340   3.619   1.991 -0.5741  0.0592 -1.1807
 5736TIP3   OH217171   4.335   0.706   4.210  0.2284 -0.0504  0.2465
 5736TIP3    H117172   4.404   0.644   4.188 -0.6642 -1.4910  1.3498
 5736TIP3    H217173   4.374   0.792   4.195  2.0949 -0.8294  0.4081
 5737TIP3   OH217174   1.804   5.236   4.543  0.0803  0.5183  0.3841
 5737TIP3    H117175   1.809   5.280   4.628  1.9224  0.9743  0.0820
 5737TIP3    H217176   1.827   5.304   4.480  0.3066 -0.2089 -0.3300
 5738TIP3   OH217177   1.768   4.692   3.079  0.0761  0.4199 -0.5303
 5738TIP3    H117178   1.678   4.693   3.045 -0.6345  0.9451  1.2638
 5738TIP3    H217179   1.811   4.622   3.030 -0.8528  1.1452 -2.5054
 5739TIP3   OH217180   0.191   1.536   1.253 -0.2493  0.2225 -0.4293
 5739TIP3    H117181   0.153   1.466   1.200  0.1841 -1.3226  1.2274
 5739TIP3    H217182   0.120   1.601   1.261 -0.8622 -0.2830 -1.4574
 5740TIP3   OH217183   1.711   6.181   5.689 -0.2709  0.1714  0.5726
 5740TIP3    H117184   1.714   6.114   5.757  0.5985 -0.4081 -0.0169
 5740TIP3    H217185   1.795   6.227   5.697 -0.1333  0.0521 -0.1449
 5741TIP3   OH217186   1.960   6.282   5.737 -0.0244  0.1075 -0.2229
 5741TIP3    H117187   2.012   6.305   5.659 -0.6516 -0.4085 -0.8106
 5741TIP3    H217188   2.004   6.205   5.773  2.4988  2.4474  2.1549
 5742TIP3   OH217189   4.271   5.846   0.433 -0.0371 -0.0249  0.1913
 5742TIP3    H117190   4.338   5.864   0.499 -0.2229 -0.3380  0.4671
 5742TIP3    H217191   4.308   5.880   0.352  1.7460 -2.6877 -0.2687
 5743TIP3   OH217192   0.715   6.684   1.534 -0.3758 -0.3259 -0.3698
 5743TIP3    H117193   0.702   6.659   1.625 -0.6634  0.6861 -0.1209
 5743TIP3    H217194   0.638   6.736   1.511 -0.1542 -0.2921 -1.0916
 5744TIP3   OH217195   5.992   2.111   0.121  0.0426 -1.0103  0.1446
 5744TIP3    H117196   6.078   2.069   0.111  0.3276 -0.3413 -0.2170
 5744TIP3    H217197   6.011   2.204   0.133 -0.5966 -0.9584  0.8350
 5745TIP3   OH217198   3.758   1.579   3.257  0.2095 -0.3654  0.0175
 5745TIP3    H117199   3.764   1.484   3.252 -1.5220 -0.5394  0.4586
 5745TIP3    H217200   3.719   1.596   3.343  1.3286  0.7982  0.3171
 5746TIP3   OH217201   1.520   6.133   2.645  0.8580  0.1428  0.1257
 5746TIP3    H117202   1.505   6.059   2.585  0.6494 -1.0774  1.6340
 5746TIP3    H217203   1.496   6.210   2.593  0.5160 -0.8718 -1.3047
 5747TIP3   OH217204   2.623   2.571   3.559 -0.2386  1.0041 -0.3165
 5747TIP3    H117205   2.552   2.552   3.619 -0.0168  1.5062  0.1237
 5747TIP3    H217206   2.698   2.591   3.616 -0.2032  2.1640 -0.7375
 5748TIP3   OH217207   2.431   1.781   0.986 -0.2563  0.0105  0.0151
 5748TIP3    H117208   2.449   1.727   1.063  0.1131  1.3570  0.9253
 5748TIP3    H217209   2.342   1.758   0.960 -0.9883  0.5965  1.8129
 5749TIP3   OH217210   7.179   0.739   2.686 -0.3854 -0.0956 -0.3373
 5749TIP3    H117211   7.213   0.823   2.715  0.5077 -0.1054 -1.3306
 5749TIP3    H217212   7.226   0.674   2.740 -0.3153 -0.0138 -0.3004
 5750TIP3   OH217213   3.161   6.459   1.057 -0.2281  0.1720  0.1381
 5750TIP3    H117214   3.118   6.384   1.096  0.6210  0.8627  2.5271
 5750TIP3    H217215   3.095   6.496   0.997 -1.2791 -1.3927  0.2937
 5751TIP3   OH217216   6.812   0.863   2.871  0.6391  0.2243  0.6260
 5751TIP3    H117217   6.724   0.895   2.850  0.1512 -0.4344  1.6093
 5751TIP3    H217218   6.822   0.784   2.819  0.8815  0.6005  0.0874
 5752TIP3   OH217219   2.017   2.259   4.756 -0.5732 -0.2346 -0.3081
 5752TIP3    H117220   2.009   2.250   4.661 -1.7578 -1.8028 -0.1070
 5752TIP3    H217221   1.966   2.337   4.777  0.9696  1.0365 -1.0774
 5753TIP3   OH217222   2.320   6.675   0.647 -0.5337  0.0218 -0.1486
 5753TIP3    H117223   2.300   6.747   0.708 -1.9625 -0.4971  0.0444
 5753TIP3    H217224   2.234   6.644   0.619  0.0858 -0.2290 -1.8929
 5754TIP3   OH217225   1.431   6.053   1.930  0.5856 -0.1020  0.3985
 5754TIP3    H117226   1.526   6.052   1.942  0.5242  2.0270  1.7109
 5754TIP3    H217227   1.403   6.135   1.971 -1.7986 -0.5314 -0.2130
 5755TIP3   OH217228   5.316   2.611   3.827 -0.4739  0.1183 -0.3256
 5755TIP3    H117229   5.247   2.553   3.858 -1.1291 -0.0103 -1.9424
 5755TIP3    H217230   5.292   2.697   3.863 -0.6870 -0.1946  0.2917
 5756TIP3   OH217231   2.969   2.706   5.228 -0.2916  0.0538 -0.0066
 5756TIP3    H117232   2.965   2.708   5.324 -1.2772  2.2118 -0.0360
 5756TIP3    H217233   3.042   2.647   5.208 -1.6961 -2.5458  1.9806
 5757TIP3   OH217234   1.389   1.046   4.627  0.3111  0.2833  0.3868
 5757TIP3    H117235   1.388   0.968   4.572  1.1997 -0.0771  0.8477
 5757TIP3    H217236   1.359   1.117   4.570  0.7617 -0.1642 -0.4191
 5758TIP3   OH217237   5.385   5.677   1.262 -0.1323 -0.4218 -0.0130
 5758TIP3    H117238   5.409   5.634   1.343  1.0038  1.0351  0.4715
 5758TIP3    H217239   5.390   5.770   1.282  1.4062  0.0154 -2.0425
 5759TIP3   OH217240   6.173   1.112   3.556 -0.0476  0.3428  0.4229
 5759TIP3    H117241   6.091   1.156   3.537  0.1064 -0.0214 -1.2663
 5759TIP3    H217242   6.238   1.183   3.558  0.1283  0.3246 -1.8291
 5760TIP3   OH217243   4.493   1.331   4.055  0.2174 -0.0637 -0.0451
 5760TIP3    H117244   4.477   1.425   4.064  0.7273 -0.0824  1.3986
 5760TIP3    H217245   4.431   1.302   3.988 -0.4709  1.1692  0.0242
 5761TIP3   OH217246   4.251   0.798   1.306 -0.1227  0.3984 -0.2349
 5761TIP3    H117247   4.260   0.892   1.321  1.7359  0.2656 -0.3881
 5761TIP3    H217248   4.308   0.779   1.232 -1.4683 -0.6643 -1.0642
 5762TIP3   OH217249   5.720   5.171   3.182  0.1721 -0.2941 -0.2751
 5762TIP3    H117250   5.717   5.137   3.093  2.0056  0.5957 -0.7485
 5762TIP3    H217251   5.748   5.262   3.171  2.1094 -0.6253  1.2525
 5763TIP3   OH217252   6.536   4.361   0.818  0.3392 -0.1659  0.3300
 5763TIP3    H117253   6.494   4.280   0.789 -0.1751  0.0235  0.5269
 5763TIP3    H217254   6.495   4.379   0.903  0.4207  0.3198  0.2658
 5764TIP3   OH217255   4.492   5.904   2.920  0.0729 -0.1031  0.0579
 5764TIP3    H117256   4.453   5.952   2.847  0.9232  2.0158  0.9180
 5764TIP3    H217257   4.574   5.870   2.884  0.1254  0.2884 -0.2045
 5765TIP3   OH217258   6.854   5.777   5.577 -0.1588  0.4164  0.4348
 5765TIP3    H117259   6.764   5.809   5.567 -0.0350  0.1590 -2.5619
 5765TIP3    H217260   6.856   5.737   5.663 -2.5588  1.5069  1.0889
 5766TIP3   OH217261   0.331   1.277   4.492  0.1238  0.2587 -0.2034
 5766TIP3    H117262   0.290   1.252   4.575  0.5701 -0.3238 -0.1574
 5766TIP3    H217263   0.418   1.237   4.495  1.3188  2.7270  0.3683
 5767TIP3   OH217264   4.259   0.572   0.522 -0.4728  0.0183 -0.4672
 5767TIP3    H117265   4.336   0.584   0.577 -2.2671 -0.1960  2.3080
 5767TIP3    H217266   4.246   0.477   0.519 -0.8602  0.0728 -0.5530
 5768TIP3   OH217267   5.358   3.437   1.167 -0.1614 -0.0659  0.4671
 5768TIP3    H117268   5.307   3.358   1.147  1.2172 -0.7225 -0.6570
 5768TIP3    H217269   5.402   3.458   1.085  0.0132  1.5144  0.9310
 5769TIP3   OH217270   5.813   4.812   0.177  0.1732  0.0806 -0.0076
 5769TIP3    H117271   5.840   4.725   0.146  1.2105  0.2222  0.4395
 5769TIP3    H217272   5.720   4.817   0.156 -0.1102 -1.4786  0.7458
 5770TIP3   OH217273   1.600  -0.000   1.273  0.0814 -0.0672  0.6174
 5770TIP3    H117274   1.637   0.086   1.289  0.4695 -0.4881  2.1459
 5770TIP3    H217275   1.655  -0.060   1.324  0.1122 -1.2902 -0.7739
 5771TIP3   OH217276   3.629   0.254   0.229 -0.0567 -0.1605  0.6819
 5771TIP3    H117277   3.583   0.189   0.282  0.3737  0.8013  2.3345
 5771TIP3    H217278   3.713   0.214   0.208 -0.7498 -1.0670 -0.4565
 5772TIP3   OH217279   7.148   2.398   4.220  0.2396 -0.3707 -0.4118
 5772TIP3    H117280   7.105   2.369   4.139 -0.2152  0.1899 -0.3760
 5772TIP3    H217281   7.213   2.330   4.238  1.1199  0.0364 -1.8527
 5773TIP3   OH217282   5.706   5.938   1.591  0.5077 -0.2173  0.1612
 5773TIP3    H117283   5.763   6.008   1.558 -0.9038  0.3864 -1.1430
 5773TIP3    H217284   5.618   5.976   1.586 -0.5133 -2.6067 -2.1503
 5774TIP3   OH217285   4.670   6.132   0.591 -0.5449  0.6140  0.2385
 5774TIP3    H117286   4.604   6.166   0.652 -0.9031 -0.3284  0.3984
 5774TIP3    H217287   4.670   6.194   0.519 -0.3263  1.5925  1.0570
 5775TIP3   OH217288   0.152   3.655   0.543  0.0266 -0.4212  0.8886
 5775TIP3    H117289   0.154   3.751   0.542 -1.6747 -0.3404  1.7649
 5775TIP3    H217290   0.211   3.630   0.613 -0.6886  0.0648  1.6812
 5776TIP3   OH217291   3.683   5.504   5.313  0.3075  0.2524  0.0781
 5776TIP3    H117292   3.607   5.447   5.297  0.4985 -0.1033  0.4233
 5776TIP3    H217293   3.705   5.539   5.227 -2.0351  2.6696  0.3224
 5777TIP3   OH217294   5.586   3.740   0.880 -0.0084 -1.0405  0.3039
 5777TIP3    H117295   5.491   3.737   0.892 -0.0083 -2.4507  0.1066
 5777TIP3    H217296   5.622   3.723   0.967  0.0410 -1.4950  0.2011
 5778TIP3   OH217297   6.372   1.969   2.957  0.3542 -0.1105  0.1787
 5778TIP3    H117298   6.397   1.942   2.869  0.6243  0.9629 -0.0929
 5778TIP3    H217299   6.280   1.995   2.950 -0.5978 -2.9951  0.9327
 5779TIP3   OH217300   3.822   3.049   5.350 -0.1136  0.0189  0.3518
 5779TIP3    H117301   3.898   3.034   5.406 -1.0174 -0.1182  1.5862
 5779TIP3    H217302   3.804   2.963   5.311 -0.1903 -0.1682  0.7916
 5780TIP3   OH217303   6.517   5.428   3.311  0.5182  0.0861  0.1250
 5780TIP3    H117304   6.494   5.459   3.223  0.0446 -0.1644  0.1639
 5780TIP3    H217305   6.609   5.456   3.322  0.2854  0.9774 -0.0661
 5781TIP3   OH217306   4.368   1.864   1.536  0.2096  0.1204  0.1927
 5781TIP3    H117307   4.407   1.811   1.606 -1.1486 -1.7435 -0.3806
 5781TIP3    H217308   4.341   1.800   1.470 -1.8675  1.4931 -0.3877
 5782TIP3   OH217309   2.383   6.457   3.951 -0.5183  0.0209  0.0654
 5782TIP3    H117310   2.322   6.526   3.977  0.1993  0.0997  1.7006
 5782TIP3    H217311   2.340   6.413   3.878 -2.4717  0.1438  1.0689
 5783TIP3   OH217312   6.004   4.043   4.705 -0.0633  0.4472 -0.0955
 5783TIP3    H117313   6.000   4.126   4.753  2.6210  1.0860 -0.8397
 5783TIP3    H217314   6.042   3.981   4.768  2.9003  1.1441 -1.0369
 5784TIP3   OH217315   5.024   3.514   3.171 -0.2146  0.1534 -0.4385
 5784TIP3    H117316   5.099   3.531   3.113 -1.3860  0.3932 -1.9664
 5784TIP3    H217317   5.043   3.563   3.251  0.9713  0.7252 -1.0485
 5785TIP3   OH217318   2.658   3.080   5.520 -0.5585 -0.0542 -0.2128
 5785TIP3    H117319   2.596   3.041   5.582 -1.9279 -0.1815 -1.5835
 5785TIP3    H217320   2.706   3.006   5.485  0.1713  0.0112  0.6166
 5786TIP3   OH217321   1.560   4.191   4.083 -0.2199  0.1161  0.0746
 5786TIP3    H117322   1.587   4.264   4.138  1.1216 -0.5389  0.3208
 5786TIP3    H217323   1.494   4.228   4.025  0.1980  1.4391  0.4142
 5787TIP3   OH217324   6.409   2.061   4.184 -0.1173 -0.4278 -0.0551
 5787TIP3    H117325   6.462   2.136   4.210 -2.0765  1.0282 -0.0280
 5787TIP3    H217326   6.387   2.018   4.267 -0.6866  0.2052  0.1351
 5788TIP3   OH217327   4.080   5.971   2.240  0.6320  0.4075  0.4829
 5788TIP3    H117328   4.027   5.898   2.207  1.3399  0.2403 -0.2983
 5788TIP3    H217329   4.017   6.043   2.250  0.6728  1.1824 -3.3698
 5789TIP3   OH217330   5.815   2.233   2.423 -0.1240 -0.1283  0.5603
 5789TIP3    H117331   5.871   2.175   2.476 -0.0122 -0.3591  0.1973
 5789TIP3    H217332   5.739   2.179   2.402  0.9991 -0.9491 -1.6858
 5790TIP3   OH217333   1.872   0.354   4.907 -0.5612  0.1849 -0.2148
 5790TIP3    H117334   1.961   0.330   4.882 -0.4729 -0.1337  0.3936
 5790TIP3    H217335   1.878   0.447   4.930 -0.3150  0.0839  0.1423
 5791TIP3   OH217336   4.058   3.819   3.873  0.6904  0.1062  0.3997
 5791TIP3    H117337   4.132   3.801   3.814  1.2666 -0.8418  1.3863
 5791TIP3    H217338   3.981   3.795   3.822  1.2604 -2.1837  0.5184
 5792TIP3   OH217339   0.531   3.228   4.828  0.2610  0.1117 -0.3750
 5792TIP3    H117340   0.577   3.311   4.820  2.5631 -1.0839 -0.2783
 5792TIP3    H217341   0.571   3.172   4.761 -0.5266 -1.2387  0.2499
 5793TIP3   OH217342   0.569   3.210   5.832  0.3778 -0.0801  0.5311
 5793TIP3    H117343   0.606   3.296   5.853  1.8515 -0.5131 -0.1378
 5793TIP3    H217344   0.475   3.220   5.846  0.5330  1.6214  0.5456
 5794TIP3   OH217345   4.234   1.347   5.438  0.1378  0.1310  0.1323
 5794TIP3    H117346   4.277   1.266   5.466  0.6973 -0.4199 -2.1332
 5794TIP3    H217347   4.304   1.399   5.399 -0.4017  1.3102  0.6750
 5795TIP3   OH217348   3.038   0.470   3.597 -0.2908 -0.0898  0.1559
 5795TIP3    H117349   3.002   0.489   3.510  1.0052 -0.1910 -0.4293
 5795TIP3    H217350   2.998   0.387   3.622 -0.3750 -0.2589 -0.5215
 5796TIP3   OH217351   4.841   2.197   2.869 -0.1433  0.4823  0.0519
 5796TIP3    H117352   4.872   2.217   2.780  0.1406  1.7179  0.3978
 5796TIP3    H217353   4.814   2.282   2.904 -2.2188 -0.2810  0.4342
 5797TIP3   OH217354   4.124   5.477   4.206 -0.0225 -0.1850 -0.2825
 5797TIP3    H117355   4.213   5.447   4.226  0.7305  0.8271 -1.8954
 5797TIP3    H217356   4.083   5.402   4.162  0.6707 -0.0458 -1.1902
 5798TIP3   OH217357   5.180   6.534   0.949  0.4727  0.2818  0.0578
 5798TIP3    H117358   5.133   6.463   0.904  0.1988  1.0296 -0.8676
 5798TIP3    H217359   5.246   6.489   1.002  1.6966 -0.6090 -2.1061
 5799TIP3   OH217360   5.816   1.037   3.161  0.1312 -0.3571  0.1975
 5799TIP3    H117361   5.899   1.031   3.209  0.2452  0.5013  0.1353
 5799TIP3    H217362   5.841   1.068   3.074 -0.0075 -2.5506 -0.6664
 5800TIP3   OH217363   2.413   5.898   0.913  0.1448 -0.6071  0.7237
 5800TIP3    H117364   2.425   5.958   0.986 -0.2566  0.9029 -0.4072
 5800TIP3    H217365   2.324   5.916   0.881  0.5337 -0.7704 -0.5182
 5801TIP3   OH217366   1.852   3.226   2.094  0.4207  0.5162 -0.2936
 5801TIP3    H117367   1.925   3.165   2.098 -1.0241 -1.3059 -0.2446
 5801TIP3    H217368   1.832   3.232   2.000 -2.0147 -2.4759 -0.1254
 5802TIP3   OH217369   4.725   3.270   2.959  0.6611  0.3502 -0.4455
 5802TIP3    H117370   4.739   3.254   3.052  4.0914 -0.1207 -0.9017
 5802TIP3    H217371   4.778   3.347   2.940  0.5344  0.0616 -2.0953
 5803TIP3   OH217372   0.650   2.500   1.831  0.0103 -0.0954 -0.1520
 5803TIP3    H117373   0.609   2.472   1.749 -0.5740 -0.4118  0.2333
 5803TIP3    H217374   0.739   2.526   1.807 -0.4011  0.5691 -1.0115
 5804TIP3   OH217375   4.735   2.112   2.224 -0.3942 -0.8154 -0.4211
 5804TIP3    H117376   4.755   2.189   2.170 -1.9841  0.2864  0.4580
 5804TIP3    H217377   4.752   2.038   2.167  0.5487  0.2045 -1.5282
 5805TIP3   OH217378   3.720   2.376   2.495 -0.0909 -0.1374  0.6442
 5805TIP3    H117379   3.648   2.355   2.436 -0.9024  1.2547  1.0989
 5805TIP3    H217380   3.743   2.292   2.535 -1.2837 -0.6562  0.2899
 5806TIP3   OH217381   6.392   4.880   3.960  0.0053  0.4095 -0.0169
 5806TIP3    H117382   6.345   4.899   3.879  0.2269 -0.9467 -0.4846
 5806TIP3    H217383   6.346   4.804   3.997  0.9191 -0.0115  0.2729
 5807TIP3   OH217384   0.114   1.632   0.645  0.0169  0.2170 -0.7316
 5807TIP3    H117385   0.118   1.537   0.632  1.0671 -0.4174  2.9743
 5807TIP3    H217386   0.206   1.657   0.660 -0.5667  0.8765  2.7173
 5808TIP3   OH217387   1.682   5.546   0.752  0.0981 -0.1261  0.0670
 5808TIP3    H117388   1.671   5.540   0.657  0.4574  0.8496 -0.0472
 5808TIP3    H217389   1.596   5.524   0.787 -0.1285 -0.1733 -0.4947
 5809TIP3   OH217390   2.573   6.307   2.734 -0.0220  0.1907  0.1455
 5809TIP3    H117391   2.539   6.346   2.653  0.8565 -0.3831 -0.5183
 5809TIP3    H217392   2.503   6.249   2.764 -0.6993  1.0581  0.2719
 5810TIP3   OH217393   1.048   3.698   5.375 -0.9052  0.3451  0.3286
 5810TIP3    H117394   1.072   3.691   5.283 -0.4742  0.0258  0.4614
 5810TIP3    H217395   0.972   3.640   5.384 -1.2605  0.7681  0.0701
 5811TIP3   OH217396   3.699   6.061   2.355 -0.1895 -0.0009 -0.1852
 5811TIP3    H117397   3.659   6.020   2.278 -0.4974  0.2930 -0.1781
 5811TIP3    H217398   3.766   6.119   2.319  1.4483 -1.7351 -0.1637
 5812TIP3   OH217399   2.845   3.063   4.258 -0.3469  0.1297 -0.1871
 5812TIP3    H117400   2.849   3.075   4.163 -2.3350 -1.1503 -0.4821
 5812TIP3    H217401   2.899   2.986   4.275 -1.6201 -0.8942 -0.5963
 5813TIP3   OH217402   6.066   0.747   3.568  0.6132 -1.0294  0.0562
 5813TIP3    H117403   6.135   0.804   3.602  0.1388  0.3107 -1.1169
 5813TIP3    H217404   5.985   0.795   3.584  0.0600 -2.0155  0.2915
 5814TIP3   OH217405   3.401   4.001   2.406 -0.4562 -0.4957  0.2848
 5814TIP3    H117406   3.357   3.967   2.328  0.9419  0.8183 -1.1268
 5814TIP3    H217407   3.344   4.070   2.438 -0.5685 -0.3887 -0.1446
 5815TIP3   OH217408   6.984   5.868   2.635  0.1830 -0.4100  0.1271
 5815TIP3    H117409   6.971   5.821   2.717 -0.6904 -0.7051 -0.1790
 5815TIP3    H217410   6.943   5.813   2.568  0.3261  0.1368 -0.4209
 5816TIP3   OH217411   5.323   1.583   2.423 -0.2240 -0.4064 -0.4846
 5816TIP3    H117412   5.304   1.522   2.351  0.4911  0.1392 -1.1522
 5816TIP3    H217413   5.333   1.668   2.381  1.0449 -0.2166  0.1304
 5817TIP3   OH217414   7.200   1.605   4.574 -0.0039  0.3631  0.3689
 5817TIP3    H117415   7.150   1.559   4.642  0.1828  0.0674  0.3108
 5817TIP3    H217416   7.292   1.587   4.596  0.0871  1.0798  0.5975
 5818TIP3   OH217417   1.160   0.189   1.571  0.5702  0.5932  0.2096
 5818TIP3    H117418   1.219   0.119   1.598 -0.4037  0.2700  1.6359
 5818TIP3    H217419   1.150   0.244   1.649 -0.0196  1.3449 -0.3822
 5819TIP3   OH217420   6.279   4.603   1.671  0.1419 -0.5405  0.1416
 5819TIP3    H117421   6.245   4.525   1.628  2.2694 -0.8705 -1.0795
 5819TIP3    H217422   6.332   4.646   1.604  2.7437 -0.4981  2.0686
 5820TIP3   OH217423   3.133   0.362   1.436  0.0116 -0.1475 -0.2981
 5820TIP3    H117424   3.147   0.343   1.343 -0.8270  0.2765 -0.5217
 5820TIP3    H217425   3.156   0.454   1.446  2.2475 -0.7214  0.3973
 5821TIP3   OH217426   5.943   0.871   2.933  0.0905  0.6306 -0.1586
 5821TIP3    H117427   5.925   0.920   2.853 -0.8939  1.1242  0.3472
 5821TIP3    H217428   5.862   0.823   2.951  1.0694 -1.3762 -0.7357
 5822TIP3   OH217429   5.729   1.529   4.184  0.6627  0.1010 -0.1694
 5822TIP3    H117430   5.775   1.448   4.160  0.7795 -0.1660  0.8871
 5822TIP3    H217431   5.640   1.516   4.151  0.7148 -0.4021 -0.1211
 5823TIP3   OH217432   5.878   5.242  -0.005  0.5988  0.3177  0.2322
 5823TIP3    H117433   5.963   5.257  -0.045  1.5398 -0.2712  1.8984
 5823TIP3    H217434   5.896   5.236   0.089 -1.0812 -1.1947  0.5170
 5824TIP3   OH217435   3.859   0.341   3.979 -0.3440  0.3282 -0.0477
 5824TIP3    H117436   3.934   0.309   4.030 -1.0810  0.5591  1.2128
 5824TIP3    H217437   3.871   0.302   3.893  1.3405  0.5144  0.0606
 5825TIP3   OH217438   5.172   0.953   5.512 -0.3148 -0.2613 -0.2027
 5825TIP3    H117439   5.078   0.951   5.493 -0.9861  3.7563  1.5824
 5825TIP3    H217440   5.211   0.992   5.434 -0.4878  0.1075 -0.1087
 5826TIP3   OH217441   0.767   4.594   2.551 -0.1440  0.5848 -0.0801
 5826TIP3    H117442   0.714   4.638   2.486  0.2539  0.0099 -0.8096
 5826TIP3    H217443   0.802   4.665   2.606  1.7662  1.3879 -2.1734
 5827TIP3   OH217444   2.330   3.632   0.908 -0.1842  0.1447 -0.3276
 5827TIP3    H117445   2.357   3.558   0.963 -0.1300 -0.3750 -1.0491
 5827TIP3    H217446   2.236   3.641   0.926 -0.4603 -0.8989 -1.1594
 5828TIP3   OH217447   3.734   2.651   2.514  0.2302 -0.3112  0.2130
 5828TIP3    H117448   3.713   2.558   2.511 -1.7620  0.1075  0.3176
 5828TIP3    H217449   3.752   2.668   2.607  3.2017 -1.0638 -0.1220
 5829TIP3   OH217450   2.377   1.854   4.288  0.2564  0.0812  0.2009
 5829TIP3    H117451   2.319   1.793   4.334 -0.5946  0.5487 -0.2167
 5829TIP3    H217452   2.358   1.940   4.327  0.3423  0.3057 -0.2358
 5830TIP3   OH217453   4.653   2.440   4.354  0.1946 -0.3076  0.1985
 5830TIP3    H117454   4.732   2.422   4.302  0.3951 -0.7690  0.6520
 5830TIP3    H217455   4.683   2.500   4.422 -0.0415  0.2028 -0.1458
 5831TIP3   OH217456   2.829   5.430   2.881 -0.1516 -0.1797 -0.1974
 5831TIP3    H117457   2.834   5.378   2.961 -0.1310  0.5467  0.2797
 5831TIP3    H217458   2.754   5.488   2.895 -2.0025 -1.9737 -1.8678
 5832TIP3   OH217459   0.543   1.071   5.270  0.1192  0.0049  0.4011
 5832TIP3    H117460   0.545   1.012   5.345 -1.7876  0.5316  0.9367
 5832TIP3    H217461   0.526   1.015   5.195  2.3209 -0.5608  0.2780
 5833TIP3   OH217462   6.981   5.044   2.424 -0.1826  0.1018 -0.5149
 5833TIP3    H117463   6.930   4.964   2.409  2.4479 -1.6543 -0.8485
 5833TIP3    H217464   7.016   5.066   2.337 -1.1324  1.8613 -0.4850
 5834TIP3   OH217465   6.895   3.195   4.761  0.2734 -0.0684 -0.1679
 5834TIP3    H117466   6.828   3.169   4.698  0.4079  2.2374 -1.3644
 5834TIP3    H217467   6.976   3.201   4.710  0.7759  0.1007  0.6173
 5835TIP3   OH217468   6.172   0.342   2.474  0.7455 -0.3331  0.4235
 5835TIP3    H117469   6.265   0.329   2.490  1.1534 -0.7854 -1.9101
 5835TIP3    H217470   6.128   0.286   2.538  1.9927  0.9313  2.4685
 5836TIP3   OH217471   5.226   5.642   4.412  0.2269 -0.2057 -0.2881
 5836TIP3    H117472   5.290   5.707   4.442 -0.1706 -0.1187  0.3836
 5836TIP3    H217473   5.174   5.622   4.489 -0.0450 -0.8773 -0.6389
 5837TIP3   OH217474   1.291   0.352   5.214  0.6539  0.4207  0.1724
 5837TIP3    H117475   1.296   0.446   5.197 -0.8427  0.2907 -1.1890
 5837TIP3    H217476   1.224   0.343   5.282  0.8901  0.3489  0.3957
 5838TIP3   OH217477   6.055   1.170   4.194  0.1161  0.3012 -0.2769
 5838TIP3    H117478   6.093   1.132   4.115 -0.6259 -2.2509  0.5079
 5838TIP3    H217479   6.130   1.192   4.248  0.6918  3.1320 -2.0414
 5839TIP3   OH217480   3.966   3.116   0.605  0.5760 -0.1875 -0.0167
 5839TIP3    H117481   3.980   3.027   0.572 -0.2739 -0.3519  0.0429
 5839TIP3    H217482   3.942   3.105   0.697  0.7035  0.1235  0.0572
 5840TIP3   OH217483   4.471   2.939   2.721 -0.1311 -0.2200  0.0726
 5840TIP3    H117484   4.443   2.997   2.792  0.0192 -0.6955  0.5239
 5840TIP3    H217485   4.397   2.938   2.660 -1.1955 -1.5879  1.3208
 5841TIP3   OH217486   3.037   3.331   0.826  0.7979 -0.1623 -0.4853
 5841TIP3    H117487   3.127   3.361   0.831  0.7329  0.0463 -0.5477
 5841TIP3    H217488   2.995   3.389   0.762  0.4095  0.2999  0.1717
 5842TIP3   OH217489   6.348   2.256   1.311  0.1307 -0.0050  0.3464
 5842TIP3    H117490   6.397   2.194   1.365 -1.2414 -0.7133  0.8218
 5842TIP3    H217491   6.268   2.210   1.288 -0.3861  1.1692 -0.2930
 5843TIP3   OH217492   0.389   0.732   1.066  0.3112 -0.3862 -0.4287
 5843TIP3    H117493   0.326   0.667   1.036  0.5047 -0.8189  0.0852
 5843TIP3    H217494   0.349   0.816   1.044 -0.4030 -0.6583 -0.1827
 5844TIP3   OH217495   3.449   3.276   3.148 -0.3300 -0.3434  0.0858
 5844TIP3    H117496   3.507   3.313   3.081  0.2757 -1.4919 -0.0441
 5844TIP3    H217497   3.478   3.317   3.229 -0.6061  0.5238 -0.2343
 5845TIP3   OH217498   1.119   6.142   5.767  0.1481 -0.1298 -0.4674
 5845TIP3    H117499   1.180   6.095   5.710 -0.3759  0.0686 -1.2004
 5845TIP3    H217500   1.129   6.234   5.743  2.9953  0.5853  2.6449
 5846TIP3   OH217501   1.417   4.853   3.257  0.3863  0.0145  0.0232
 5846TIP3    H117502   1.356   4.780   3.265 -0.0313  0.5269  1.9302
 5846TIP3    H217503   1.481   4.824   3.191 -0.1181 -1.8105  0.2924
 5847TIP3   OH217504   2.704   5.847   0.547 -0.0928 -0.2625  0.4188
 5847TIP3    H117505   2.733   5.938   0.551  0.0060 -0.2396 -0.6574
 5847TIP3    H217506   2.700   5.820   0.639  0.2608  0.7006  0.7352
 5848TIP3   OH217507   5.747   6.467   2.044 -0.2693  0.0272 -0.7286
 5848TIP3    H117508   5.718   6.431   2.128  0.1469  0.2286 -0.4966
 5848TIP3    H217509   5.821   6.412   2.019  0.6059  0.9401 -0.1928
 5849TIP3   OH217510   5.652   0.354   2.785 -0.2402 -0.3339  0.3639
 5849TIP3    H117511   5.684   0.407   2.858  0.3245 -0.4556  0.2063
 5849TIP3    H217512   5.558   0.372   2.783 -0.6920 -1.9410  2.4930
 5850TIP3   OH217513   2.225   4.476   2.322 -0.2963  0.0796  0.7956
 5850TIP3    H117514   2.230   4.487   2.227 -0.5056 -1.6265  0.5453
 5850TIP3    H217515   2.137   4.444   2.338  0.4374 -1.8440  1.2594
 5851TIP3   OH217516   5.645   5.270   4.143  0.2486 -0.4152  0.0237
 5851TIP3    H117517   5.599   5.265   4.060  0.0254  0.9927  0.0282
 5851TIP3    H217518   5.711   5.201   4.138 -0.4830 -1.0778 -0.8501
 5852TIP3   OH217519   4.406   3.666   4.016 -0.0042  0.5441  0.9053
 5852TIP3    H117520   4.454   3.583   4.025 -0.4311  0.2692  0.6846
 5852TIP3    H217521   4.316   3.643   4.040 -0.5353  0.5037 -0.9878
 5853TIP3   OH217522   3.904   5.043   2.740  0.1337  0.0967  0.9022
 5853TIP3    H117523   3.925   5.133   2.765 -0.2087  0.4597 -0.0388
 5853TIP3    H217524   3.809   5.042   2.730  0.2818  0.2135 -1.0648
 5854TIP3   OH217525   6.932   6.129   0.053 -1.0272  0.0910  0.1538
 5854TIP3    H117526   6.874   6.054   0.068 -1.0584  0.3639  1.5251
 5854TIP3    H217527   6.926   6.181   0.133 -0.0977  0.9544 -0.3065
 5855TIP3   OH217528   1.370   3.066   1.407  0.0266 -0.0563 -0.1570
 5855TIP3    H117529   1.348   3.152   1.373  1.0632  0.0101 -0.6943
 5855TIP3    H217530   1.426   3.083   1.483 -1.8571 -0.2167  1.3338
 5856TIP3   OH217531   5.861   3.733   3.160 -0.5636 -0.5415  0.5565
 5856TIP3    H117532   5.949   3.705   3.136 -0.5949 -0.1098 -0.0971
 5856TIP3    H217533   5.803   3.683   3.103 -0.5781  1.4181 -1.2710
 5857TIP3   OH217534   1.284   0.343   1.369 -0.1606 -0.0821 -0.3487
 5857TIP3    H117535   1.259   0.321   1.280 -1.1160  0.1804 -0.1554
 5857TIP3    H217536   1.228   0.288   1.424 -0.2668  0.4632  0.0993
 5858TIP3   OH217537   3.699   3.790   4.943  0.5316  0.3245 -0.2207
 5858TIP3    H117538   3.682   3.725   5.011  0.2369  2.0282  1.4191
 5858TIP3    H217539   3.738   3.740   4.872 -2.9368 -2.2493 -0.5647
 5859TIP3   OH217540   6.132   0.448   0.437 -0.0743 -0.4713  0.3446
 5859TIP3    H117541   6.078   0.424   0.513  0.2818  0.4836  0.9109
 5859TIP3    H217542   6.145   0.542   0.445 -0.5239 -0.2358 -1.2403
 5860TIP3   OH217543   1.728   5.114   1.804 -0.0411 -0.3933  0.0859
 5860TIP3    H117544   1.771   5.135   1.887  0.5039  2.3184 -0.7857
 5860TIP3    H217545   1.795   5.068   1.753 -0.0947 -1.2654  0.7637
 5861TIP3   OH217546   1.172   1.393   5.658  0.5960  0.3868  0.5855
 5861TIP3    H117547   1.128   1.412   5.742 -2.2029  0.6491 -0.8207
 5861TIP3    H217548   1.265   1.408   5.676 -0.0626  2.0602  3.2085
 5862TIP3   OH217549   5.823   5.687   4.587 -0.0531  0.1452 -0.0419
 5862TIP3    H117550   5.810   5.777   4.618 -3.2561 -0.3335  0.3256
 5862TIP3    H217551   5.775   5.683   4.504  0.1539 -1.2242 -0.1194
 5863TIP3   OH217552   2.220   2.947   2.980  0.2275 -0.4876  0.2344
 5863TIP3    H117553   2.231   2.918   3.070 -2.0271  0.3915  0.8542
 5863TIP3    H217554   2.159   3.021   2.986  0.0611 -0.3800 -2.0047
 5864TIP3   OH217555   6.920   0.640   2.694  0.0278 -0.2629 -0.5175
 5864TIP3    H117556   7.009   0.669   2.678  0.2437 -0.8528 -0.4118
 5864TIP3    H217557   6.930   0.557   2.740 -0.5374  1.1457  2.3854
 5865TIP3   OH217558   4.329   1.616   3.086 -0.5457  0.4910 -0.0455
 5865TIP3    H117559   4.344   1.549   3.018 -0.4472  0.5767 -0.1085
 5865TIP3    H217560   4.362   1.697   3.047  1.2279  0.2110  0.7949
 5866TIP3   OH217561   7.219   4.680   3.716 -0.1983  0.3736  0.4283
 5866TIP3    H117562   7.197   4.605   3.661  1.2120 -0.2121  0.6169
 5866TIP3    H217563   7.221   4.646   3.805 -0.3552  0.8246  0.6081
 5867TIP3   OH217564   6.754   0.296   0.582 -0.0192 -0.6824 -0.2644
 5867TIP3    H117565   6.669   0.271   0.618  0.6204 -1.5726  0.6955
 5867TIP3    H217566   6.788   0.215   0.542  0.8961 -0.6823  0.4673
 5868TIP3   OH217567   6.660   2.558   4.567 -0.1470 -0.1170  0.1299
 5868TIP3    H117568   6.625   2.563   4.478  1.2121 -2.4791 -0.6314
 5868TIP3    H217569   6.593   2.598   4.622 -2.3635 -1.1464 -1.6543
 5869TIP3   OH217570   6.765   5.884   0.103  0.0102  0.4517  0.4562
 5869TIP3    H117571   6.734   5.805   0.147  0.9220 -0.6081 -0.7004
 5869TIP3    H217572   6.714   5.888   0.022  2.0571 -0.7572 -0.9847
 5870TIP3   OH217573   7.223   5.914   5.339 -0.6540  0.2192  0.3746
 5870TIP3    H117574   7.185   5.841   5.388  1.1782 -1.5110 -0.6520
 5870TIP3    H217575   7.176   5.913   5.255  0.7989 -1.2215 -0.4714
 5871TIP3   OH217576   2.615   3.497   3.863  0.3802 -0.6888 -0.1704
 5871TIP3    H117577   2.557   3.469   3.934  0.3323  0.6322  0.3470
 5871TIP3    H217578   2.674   3.560   3.905  1.1091 -0.7713 -1.0590
 5872TIP3   OH217579   0.748   2.884   3.453 -0.1131  0.6584 -0.1540
 5872TIP3    H117580   0.805   2.936   3.510 -0.6940  0.5705  0.5293
 5872TIP3    H217581   0.668   2.936   3.447 -0.2053  0.4679 -0.5583
 5873TIP3   OH217582   3.940   0.800   2.293 -0.4875 -0.4328 -0.5603
 5873TIP3    H117583   3.875   0.753   2.346 -1.0432  0.7587 -0.1642
 5873TIP3    H217584   4.024   0.769   2.327 -0.8121  0.9535  1.6958
 5874TIP3   OH217585   4.097   0.997   4.833  0.9361 -0.2142  0.0401
 5874TIP3    H117586   4.135   0.939   4.899  1.9409  1.6077  1.1302
 5874TIP3    H217587   4.016   0.953   4.808  1.2761 -1.7193  1.3653
 5875TIP3   OH217588   5.725   0.873   0.573 -0.3772 -0.1913 -0.0276
 5875TIP3    H117589   5.647   0.818   0.570  0.6337 -1.6675 -0.1200
 5875TIP3    H217590   5.745   0.881   0.666 -0.1249 -0.5566 -0.0514
 5876TIP3   OH217591   0.756   4.726   4.164 -0.3649 -0.3660  0.1351
 5876TIP3    H117592   0.817   4.799   4.150 -1.2092  0.2283 -0.6063
 5876TIP3    H217593   0.785   4.684   4.245  0.0812  0.8641  0.6281
 5877TIP3   OH217594   1.655   0.340   5.082 -0.5980  0.1288 -0.0150
 5877TIP3    H117595   1.600   0.408   5.043 -0.8182  0.1523  0.3306
 5877TIP3    H217596   1.730   0.333   5.023 -0.3326  1.0208  0.2163
 5878TIP3   OH217597   7.000   0.041   5.338 -0.2408  0.1813 -0.1377
 5878TIP3    H117598   6.983   0.125   5.295 -0.2547 -1.1650 -2.9994
 5878TIP3    H217599   7.094   0.026   5.325 -0.2519 -0.2601  0.2921
 5879TIP3   OH217600   0.771   0.624   2.925 -0.1898  0.1966 -0.1565
 5879TIP3    H117601   0.756   0.560   2.856 -0.1225 -0.1453  0.1486
 5879TIP3    H217602   0.760   0.576   3.007  0.9627  0.2920  0.0761
 5880TIP3   OH217603   1.504   6.289   2.970  0.2572 -0.2725  0.0297
 5880TIP3    H117604   1.519   6.368   2.918  0.3859  0.3481  0.9851
 5880TIP3    H217605   1.492   6.219   2.905 -2.1022  0.9048 -0.9207
 5881TIP3   OH217606   4.756   2.308   0.843 -0.1385  0.6717  0.0567
 5881TIP3    H117607   4.835   2.346   0.882  0.9889 -0.9726 -0.5025
 5881TIP3    H217608   4.703   2.281   0.918  0.8351 -0.1441  0.4789
 5882TIP3   OH217609   2.572   3.314   1.309 -0.2393  0.1718 -0.1292
 5882TIP3    H117610   2.584   3.389   1.367  0.4582  0.2509 -0.3584
 5882TIP3    H217611   2.489   3.275   1.336 -0.6490  1.0679 -0.0633
 5883TIP3   OH217612   5.746   2.703   3.096 -0.1417  0.0033 -0.0989
 5883TIP3    H117613   5.730   2.636   3.163  0.0338 -0.3206 -0.3763
 5883TIP3    H217614   5.840   2.696   3.078 -0.0301  0.6474  0.2090
 5884TIP3   OH217615   6.646   5.321   5.679  0.3579 -0.3498 -0.0373
 5884TIP3    H117616   6.690   5.335   5.763  0.1155  1.5146 -0.1817
 5884TIP3    H217617   6.717   5.320   5.615  0.3258  2.2430 -0.2224
 5885TIP3   OH217618   4.983   1.735   2.979  0.6361  0.1844 -0.2913
 5885TIP3    H117619   5.030   1.758   3.059  0.9192 -0.2848 -0.3253
 5885TIP3    H217620   4.970   1.819   2.934  1.9498  0.2492 -0.5690
 5886TIP3   OH217621   5.006   3.882   0.382  0.0405  0.5278  0.1792
 5886TIP3    H117622   5.077   3.907   0.322 -0.5178  1.1298 -0.2351
 5886TIP3    H217623   5.051   3.844   0.458  0.8388  1.5721  0.2370
 5887TIP3   OH217624   5.161   3.641   4.221 -0.1096 -0.1251  0.1145
 5887TIP3    H117625   5.121   3.716   4.177  0.9099  0.6150  0.3904
 5887TIP3    H217626   5.248   3.634   4.182  0.1350 -0.6035  0.7268
 5888TIP3   OH217627   5.624   2.335   0.151 -0.6071  0.3365 -0.3188
 5888TIP3    H117628   5.624   2.291   0.067 -0.2791 -1.8968  0.7805
 5888TIP3    H217629   5.569   2.281   0.207 -1.2076  2.0229  0.8057
 5889TIP3   OH217630   5.880   2.045   1.199 -0.2981 -0.5727  0.0904
 5889TIP3    H117631   5.872   2.023   1.292 -3.2449 -0.9357 -0.1582
 5889TIP3    H217632   5.792   2.033   1.164  0.3921  1.0470 -2.4567
 5890TIP3   OH217633   0.435   3.812   1.985 -0.1304  0.0832  0.1936
 5890TIP3    H117634   0.495   3.758   1.935 -0.1891  0.5778 -0.4184
 5890TIP3    H217635   0.482   3.831   2.066 -0.6800 -2.1108  1.1046
 5891TIP3   OH217636   3.555   5.398   5.770 -0.3247  0.5926 -0.4660
 5891TIP3    H117637   3.525   5.356   5.689 -0.3201 -0.3784  0.0235
 5891TIP3    H217638   3.492   5.469   5.784 -0.6281  0.4505 -1.0475
 5892TIP3   OH217639   6.028   6.465   4.594 -0.1057  0.1466 -0.5293
 5892TIP3    H117640   6.118   6.461   4.626  0.0245 -0.4769 -0.9611
 5892TIP3    H217641   6.012   6.380   4.554 -0.6309  0.5239 -1.1514
 5893TIP3   OH217642   0.941   1.466   2.610 -0.2208 -0.5146 -0.6487
 5893TIP3    H117643   0.966   1.455   2.702  0.9565  1.0628 -0.7376
 5893TIP3    H217644   0.848   1.488   2.613  0.0164  0.4483  0.2561
 5894TIP3   OH217645   0.957   2.075   0.322 -0.5125 -0.0246 -0.1970
 5894TIP3    H117646   0.917   1.993   0.350 -0.0939 -0.3321 -0.5010
 5894TIP3    H217647   1.018   2.051   0.253  0.0141  0.4709  0.0823
 5895TIP3   OH217648   0.509   2.741   3.979 -0.1199 -0.2783 -0.6083
 5895TIP3    H117649   0.511   2.687   3.901 -1.3389 -1.3402  0.0444
 5895TIP3    H217650   0.456   2.817   3.955  1.0129  0.3182 -1.3170
 5896TIP3   OH217651   4.124   2.855   2.314  0.3757  0.0462  0.0110
 5896TIP3    H117652   4.031   2.832   2.320  0.0554  1.6290  1.6827
 5896TIP3    H217653   4.126   2.950   2.318  2.1954  0.0164  3.1372
 5897TIP3   OH217654   3.472   3.566   4.959  0.6995 -1.0063 -0.2830
 5897TIP3    H117655   3.462   3.613   4.876  1.7038 -1.6276 -0.7744
 5897TIP3    H217656   3.395   3.508   4.963  1.2842 -1.9012 -1.4191
 5898TIP3   OH217657   0.505   5.358   0.253  0.6575 -0.3108 -0.2356
 5898TIP3    H117658   0.430   5.382   0.306  1.6404  1.1152  0.5897
 5898TIP3    H217659   0.477   5.371   0.163 -1.3933 -3.7893 -0.2662
 5899TIP3   OH217660   3.619   1.671   2.552 -0.0114 -0.4695 -0.1065
 5899TIP3    H117661   3.583   1.697   2.637  0.0325  2.4931 -0.8893
 5899TIP3    H217662   3.568   1.594   2.527 -2.6844  0.8542  0.9004
 5900TIP3   OH217663   0.781   5.288   0.291  0.1369 -0.0583 -0.5829
 5900TIP3    H117664   0.685   5.287   0.294  0.1567 -0.4125  0.6648
 5900TIP3    H217665   0.807   5.208   0.338  1.0391 -0.3699 -1.5794
 5901TIP3   OH217666   3.152   2.620   3.871  0.4565 -0.0418  0.2718
 5901TIP3    H117667   3.123   2.639   3.782  2.0853  0.6446 -0.1592
 5901TIP3    H217668   3.141   2.525   3.880 -1.9164  0.1666  0.2109
 5902TIP3   OH217669   0.136   4.317   1.936 -0.2735  1.1729 -0.5268
 5902TIP3    H117670   0.132   4.382   2.006 -2.2123  0.5119  0.0539
 5902TIP3    H217671   0.098   4.361   1.860 -3.8831  0.1807  0.4650
 5903TIP3   OH217672   3.736   6.542   0.323  0.4782 -0.1996 -0.2784
 5903TIP3    H117673   3.687   6.624   0.323 -0.0451 -0.4972  0.8432
 5903TIP3    H217674   3.799   6.552   0.252  0.6007  1.2832  0.0070
 5904TIP3   OH217675   2.625   4.549   3.159  0.6608  0.9257 -0.2273
 5904TIP3    H117676   2.702   4.493   3.171 -0.2148 -0.5356 -1.1326
 5904TIP3    H217677   2.553   4.489   3.143 -0.7640  2.2561  0.8646
 5905TIP3   OH217678   7.214   1.120   2.214 -0.1333  0.2276 -0.2079
 5905TIP3    H117679   7.137   1.161   2.254  0.2899 -0.4696  1.4219
 5905TIP3    H217680   7.261   1.192   2.173 -0.6351  0.9887  0.5192
 5906TIP3   OH217681   3.325   2.304   1.633  0.2385 -0.0465 -0.4668
 5906TIP3    H117682   3.288   2.347   1.710  1.1577 -0.6460  0.3494
 5906TIP3    H217683   3.403   2.355   1.612  0.3864 -0.3008 -0.5468
 5907TIP3   OH217684   4.192   2.941   5.212 -0.3438  0.0424 -0.0697
 5907TIP3    H117685   4.131   2.868   5.222 -0.5372  0.1671 -0.3223
 5907TIP3    H217686   4.270   2.902   5.173 -0.1323 -0.1782  0.5562
 5908TIP3   OH217687   2.702   3.511   4.531  0.1662 -0.1535 -0.8398
 5908TIP3    H117688   2.782   3.512   4.478  0.4395  0.4974 -0.4340
 5908TIP3    H217689   2.731   3.539   4.617 -0.7594  1.6024 -1.0687
 5909TIP3   OH217690   4.254   2.248   5.175  0.3510  0.2673 -0.1547
 5909TIP3    H117691   4.321   2.180   5.179 -0.8249 -0.8693  1.6661
 5909TIP3    H217692   4.251   2.284   5.264 -0.9875  0.7407 -0.3728
 5910TIP3   OH217693   6.842   3.955   1.416  0.1592  0.2347 -0.0354
 5910TIP3    H117694   6.793   4.038   1.417 -2.0987 -1.0121  0.0786
 5910TIP3    H217695   6.845   3.929   1.508  0.3853 -0.0602 -0.1275
 5911TIP3   OH217696   1.710   5.998   1.722  0.2300 -0.0741  0.0414
 5911TIP3    H117697   1.788   5.944   1.723 -1.0457 -2.0094  0.3596
 5911TIP3    H217698   1.704   6.034   1.810  2.6025  3.0313 -0.8974
 5912TIP3   OH217699   5.655   1.795   4.321  0.3367 -0.2031  0.2080
 5912TIP3    H117700   5.747   1.798   4.345 -0.0551 -0.9489  1.9807
 5912TIP3    H217701   5.648   1.722   4.259  0.7035 -1.2164  1.3263
 5913TIP3   OH217702   5.435   0.931   3.601 -0.3454 -0.0453 -0.1548
 5913TIP3    H117703   5.362   0.894   3.552  0.0779 -0.9327 -0.1376
 5913TIP3    H217704   5.506   0.936   3.536 -0.4172  0.8372 -0.1811
 5914TIP3   OH217705   0.540   0.053   4.600  0.0494  0.2094  0.0601
 5914TIP3    H117706   0.530  -0.023   4.544  0.5676 -0.6681  1.1248
 5914TIP3    H217707   0.592   0.114   4.548 -0.3986 -0.1422 -0.8135
 5915TIP3   OH217708   5.264   4.390   3.277  0.1430 -0.6190  0.7442
 5915TIP3    H117709   5.213   4.334   3.219 -0.1373 -1.2445  1.5748
 5915TIP3    H217710   5.350   4.350   3.280  1.4580  1.5867 -2.3363
 5916TIP3   OH217711   1.215   1.047   5.128  0.3558  0.0357  0.1390
 5916TIP3    H117712   1.226   1.114   5.060  0.6740 -0.4687 -0.3097
 5916TIP3    H217713   1.304   1.032   5.161  0.4585 -0.9797 -0.5548
 5917TIP3   OH217714   6.947   4.143   2.184  0.4714 -0.3856  0.6276
 5917TIP3    H117715   6.981   4.087   2.254  0.9269  0.9441  1.5126
 5917TIP3    H217716   6.987   4.109   2.104  2.6004  0.0749  1.4221
 5918TIP3   OH217717   7.107   5.701   4.985 -0.5880 -0.0236 -0.1932
 5918TIP3    H117718   7.182   5.727   5.039 -0.4050 -1.2068  0.1381
 5918TIP3    H217719   7.110   5.761   4.910  0.0113  0.6850  0.3747
 5919TIP3   OH217720   5.416   5.177   5.246  0.7025 -1.0060  0.1108
 5919TIP3    H117721   5.418   5.222   5.161  0.6512  0.6712  0.9545
 5919TIP3    H217722   5.507   5.180   5.277  0.5702 -0.8057  0.4951
 5920TIP3   OH217723   6.982   1.641   0.088 -0.4449 -0.3327 -0.2306
 5920TIP3    H117724   7.059   1.660   0.141 -1.1199 -0.0916  0.6746
 5920TIP3    H217725   6.980   1.545   0.081  0.5014 -0.3077 -1.1345
 5921TIP3   OH217726   4.243   0.942   5.351  0.6341  0.7589 -0.1890
 5921TIP3    H117727   4.198   0.875   5.300  0.9112 -0.2795  0.8769
 5921TIP3    H217728   4.328   0.905   5.371  0.5023  1.0739  1.0984
 5922TIP3   OH217729   0.903   0.851   4.973  0.2774 -0.1074  0.0242
 5922TIP3    H117730   0.883   0.940   4.943  1.8133  0.3349  0.1918
 5922TIP3    H217731   0.934   0.806   4.895 -1.0556 -0.7013 -0.1835
 5923TIP3   OH217732   3.353   1.290   2.721 -0.1218 -0.4789  0.3019
 5923TIP3    H117733   3.444   1.263   2.710  0.2041  0.2909  0.9967
 5923TIP3    H217734   3.354   1.346   2.799 -1.1879 -0.4495  0.3080
 5924TIP3   OH217735   1.858   3.124   5.082 -0.4184  0.2333 -0.3511
 5924TIP3    H117736   1.872   3.039   5.124 -1.5711 -0.8657 -2.0756
 5924TIP3    H217737   1.899   3.116   4.996 -0.8202  1.3008 -0.6618
 5925TIP3   OH217738   5.995   2.381   3.226 -0.0883  0.0696  0.2387
 5925TIP3    H117739   5.973   2.357   3.136 -1.8048  0.6873  0.4518
 5925TIP3    H217740   6.063   2.448   3.216 -0.4554  0.3375 -0.6153
 5926TIP3   OH217741   1.188   3.044   3.897 -0.1816  0.8892  0.3303
 5926TIP3    H117742   1.247   2.984   3.943  0.2461 -0.0466 -1.3593
 5926TIP3    H217743   1.101   3.024   3.933 -0.0638 -0.8548 -0.2710
 5927TIP3   OH217744   3.057   1.339   1.329  0.5393  0.7120  0.2627
 5927TIP3    H117745   3.061   1.434   1.342  1.4442  0.4797  2.1404
 5927TIP3    H217746   3.111   1.303   1.400  1.2391 -1.1675 -1.1288
 5928TIP3   OH217747   7.084   2.843   5.252 -0.1531 -1.0006 -0.1350
 5928TIP3    H117748   7.075   2.895   5.172  1.4544 -0.0008  0.3045
 5928TIP3    H217749   7.115   2.905   5.318  1.5255 -2.4296  0.4758
 5929TIP3   OH217750   3.782   3.547   3.394 -0.0786 -0.3965 -0.0619
 5929TIP3    H117751   3.714   3.563   3.329 -0.3864  2.1656  0.7617
 5929TIP3    H217752   3.738   3.501   3.465 -0.4167 -0.6793 -0.4527
 5930TIP3   OH217753   2.720   2.090   0.268 -0.2709 -0.1881  0.5286
 5930TIP3    H117754   2.697   2.024   0.202 -0.1954 -1.2513  1.5263
 5930TIP3    H217755   2.742   2.039   0.346  3.9471  0.7870  0.1699
 5931TIP3   OH217756   1.008   5.225   3.807 -0.5485 -0.5772 -0.0374
 5931TIP3    H117757   1.046   5.156   3.753 -2.0684 -0.4829 -1.2990
 5931TIP3    H217758   0.989   5.182   3.890  2.3182 -0.5978  0.7407
 5932TIP3   OH217759   0.658   0.079   3.004  0.0128  0.2590 -0.5835
 5932TIP3    H117760   0.675   0.173   2.998  0.9099  0.0865 -0.9321
 5932TIP3    H217761   0.683   0.057   3.094  0.3158  0.2603 -0.6658
 5933TIP3   OH217762   6.697   6.258   5.264  0.9233  0.9160  0.0955
 5933TIP3    H117763   6.725   6.342   5.299  1.3955  0.2351  1.4333
 5933TIP3    H217764   6.759   6.195   5.301 -0.4131 -0.2285  0.4824
 5934TIP3   OH217765   6.176   6.553   5.780  0.3958 -0.0329  0.2130
 5934TIP3    H117766   6.184   6.521   5.870  0.2562 -1.2567 -0.2038
 5934TIP3    H217767   6.083   6.544   5.760  0.7229 -1.6901 -0.7354
 5935TIP3   OH217768   3.998   3.375   0.782  0.2071 -0.9288 -0.0094
 5935TIP3    H117769   4.020   3.429   0.706  1.4617 -1.7545 -0.2612
 5935TIP3    H217770   4.079   3.329   0.804 -0.3646 -1.3856  1.2848
 5936TIP3   OH217771   0.323   1.532   4.387  0.0929  0.0195  0.7086
 5936TIP3    H117772   0.330   1.440   4.411  0.5080 -0.0947  0.1881
 5936TIP3    H217773   0.407   1.552   4.344 -0.1664  0.5168  0.4209
 5937TIP3   OH217774   6.456   0.071   0.357  0.3532  0.3239 -0.5650
 5937TIP3    H117775   6.381   0.101   0.306  0.4498  0.3804 -0.6741
 5937TIP3    H217776   6.463   0.135   0.428 -1.1864 -1.0069  0.8657
 5938TIP3   OH217777   1.927   3.864   1.317 -0.3711  0.2917  0.4817
 5938TIP3    H117778   1.934   3.790   1.256  1.2979  0.5791  0.2672
 5938TIP3    H217779   1.839   3.898   1.303 -0.3062 -0.1381 -1.2086
 5939TIP3   OH217780   1.929   1.334   0.935 -0.2399  0.1759  0.5779
 5939TIP3    H117781   1.919   1.247   0.973  2.0413  0.2771  1.5790
 5939TIP3    H217782   1.996   1.323   0.867 -0.2728  1.0481  0.3962
 5940TIP3   OH217783   0.096   3.981   2.966 -0.1731  0.5437 -0.1667
 5940TIP3    H117784   0.021   4.041   2.961 -0.5850 -0.0630 -2.3445
 5940TIP3    H217785   0.173   4.038   2.960 -0.4659  1.0717  0.8620
 5941TIP3   OH217786   0.139   2.867   1.718  0.2602 -0.0415 -0.0605
 5941TIP3    H117787   0.163   2.800   1.653 -0.6471 -0.6991  0.2583
 5941TIP3    H217788   0.107   2.940   1.666 -0.9266 -0.7544 -0.3590
 5942TIP3   OH217789   3.308   1.053   4.262  0.1062 -0.2869  0.0868
 5942TIP3    H117790   3.304   1.028   4.170  0.6314  0.4500 -0.1480
 5942TIP3    H217791   3.361   0.985   4.303  1.7452  0.4979 -0.5939
 5943TIP3   OH217792   0.959   4.442   1.961  0.8581  0.3991  0.1989
 5943TIP3    H117793   0.950   4.495   2.039 -2.5302 -0.8299  0.8017
 5943TIP3    H217794   0.903   4.484   1.896 -1.4313 -1.8797  0.5118
 5944TIP3   OH217795   4.342   5.151   5.034 -0.6054  0.2628 -0.5531
 5944TIP3    H117796   4.356   5.219   5.100  0.9236 -1.4758  1.0200
 5944TIP3    H217797   4.246   5.142   5.030 -0.8063 -1.0256  3.1399
 5945TIP3   OH217798   0.851   6.357   1.819 -0.3310  0.1919 -0.1663
 5945TIP3    H117799   0.802   6.313   1.889  0.2616 -1.5585 -0.8073
 5945TIP3    H217800   0.815   6.446   1.818 -1.1662 -0.0736  1.5749
 5946TIP3   OH217801   4.972   6.057   1.003 -0.0169  0.8103 -0.5592
 5946TIP3    H117802   4.975   6.045   1.098 -0.0568 -0.9780 -0.7567
 5946TIP3    H217803   4.879   6.071   0.984  0.0554  1.7285 -0.2963
 5947TIP3   OH217804   4.110   3.010   2.776 -0.0244  0.0908  0.3168
 5947TIP3    H117805   4.024   2.968   2.780  0.3816 -0.9957 -1.3941
 5947TIP3    H217806   4.162   2.954   2.718  1.3813  1.5457  0.0893
 5948TIP3   OH217807   5.557   5.330   2.049 -0.7465  0.1084  0.7927
 5948TIP3    H117808   5.569   5.243   2.088 -1.8712 -0.9102 -0.9970
 5948TIP3    H217809   5.463   5.346   2.055 -0.5324  1.2467  1.1797
 5949TIP3   OH217810   6.696   6.176   1.879 -0.5836 -0.1396  0.2727
 5949TIP3    H117811   6.664   6.169   1.790 -0.8112  0.4467  0.3063
 5949TIP3    H217812   6.726   6.088   1.901  2.0796  0.2506 -1.3666
 5950TIP3   OH217813   6.610   4.333   0.095  0.0731  0.3126 -0.2077
 5950TIP3    H117814   6.548   4.402   0.118 -1.6176 -1.3425  0.4725
 5950TIP3    H217815   6.635   4.294   0.179 -0.6370 -1.2081 -0.6657
 5951TIP3   OH217816   2.172   3.950   5.142 -0.4523  0.1357  0.0944
 5951TIP3    H117817   2.186   3.875   5.085  1.5485  0.6290 -0.1486
 5951TIP3    H217818   2.097   3.996   5.103  0.1122 -0.1761 -1.4435
 5952TIP3   OH217819   3.243   6.765   2.671  0.4589 -0.4268 -0.0101
 5952TIP3    H117820   3.241   6.670   2.683 -1.6286 -0.4333 -0.0462
 5952TIP3    H217821   3.311   6.796   2.731  0.2163 -1.8161  1.0213
 5953TIP3   OH217822   4.398   5.253   3.058 -0.3671  0.2761  0.2444
 5953TIP3    H117823   4.343   5.289   3.128 -0.0620  0.5416  0.3536
 5953TIP3    H217824   4.481   5.231   3.102 -0.4404 -0.2804  0.1183
 5954TIP3   OH217825   3.213   0.940   5.344  0.2498 -0.4224 -0.4972
 5954TIP3    H117826   3.232   0.962   5.253 -1.2644 -0.2706 -0.7904
 5954TIP3    H217827   3.145   1.001   5.371 -0.1916 -1.2617  0.3597
 5955TIP3   OH217828   3.979   4.630   2.165 -0.0748 -0.6194 -0.0977
 5955TIP3    H117829   3.987   4.585   2.249 -0.7229  1.6479  1.2554
 5955TIP3    H217830   3.885   4.627   2.145 -0.2999  0.9629  0.5596
 5956TIP3   OH217831   1.214   4.410   1.878 -0.1252 -0.4875  0.0808
 5956TIP3    H117832   1.120   4.394   1.868  0.0149 -0.1781 -2.5769
 5956TIP3    H217833   1.254   4.323   1.869 -0.0955 -0.4278 -0.4100
 5957TIP3   OH217834   0.703   5.957   1.212 -0.1693 -0.1917  0.4857
 5957TIP3    H117835   0.698   6.052   1.229  0.0075 -0.3148  1.2688
 5957TIP3    H217836   0.612   5.932   1.196 -0.5687 -0.2656  2.5371
 5958TIP3   OH217837   1.676   2.642   2.773 -0.2838  0.0137 -1.0491
 5958TIP3    H117838   1.614   2.676   2.709  0.0199  0.3076 -1.1896
 5958TIP3    H217839   1.711   2.720   2.817  0.5254 -0.1011 -1.4727
 5959TIP3   OH217840   4.487   1.497   2.026 -0.4889  0.4142 -0.9212
 5959TIP3    H117841   4.397   1.466   2.012 -0.8381  1.6905 -1.6684
 5959TIP3    H217842   4.532   1.477   1.944  0.3226 -1.4332 -0.0937
 5960TIP3   OH217843   0.728   3.892   4.708  0.3488 -0.0615 -0.0318
 5960TIP3    H117844   0.786   3.964   4.732  0.2095 -0.5913  1.9930
 5960TIP3    H217845   0.684   3.923   4.628  1.7143  1.2752 -0.3075
 5961TIP3   OH217846   3.719   1.018   1.970  0.3787 -0.3994 -0.0271
 5961TIP3    H117847   3.638   1.033   1.922  0.9690 -0.1950 -0.9792
 5961TIP3    H217848   3.745   0.929   1.947  1.1988  0.0517 -0.9307
 5962TIP3   OH217849   4.079   1.269   4.911 -0.4568  0.1327 -0.0883
 5962TIP3    H117850   4.091   1.174   4.905 -0.5400  0.1116  0.0637
 5962TIP3    H217851   4.159   1.306   4.874  0.4332 -0.0062  1.6084
 5963TIP3   OH217852   5.925   3.946   3.895 -0.1596 -0.0587 -0.0406
 5963TIP3    H117853   5.895   3.865   3.854 -0.1626  0.2220 -0.6047
 5963TIP3    H217854   5.872   4.014   3.853  1.7662  0.5477 -1.6496
 5964TIP3   OH217855   4.924   4.132   5.850 -0.2151 -0.1450 -0.0723
 5964TIP3    H117856   5.015   4.145   5.823 -0.9185 -2.2257 -4.1568
 5964TIP3    H217857   4.925   4.049   5.898  0.2267  0.8566  1.7602
 5965TIP3   OH217858   3.404   2.777   4.877  0.4204  0.1378  0.4381
 5965TIP3    H117859   3.413   2.709   4.810 -0.8415  0.1864  0.1991
 5965TIP3    H217860   3.479   2.835   4.862  0.0899  0.2295 -1.0299
 5966TIP3   OH217861   1.300   4.596   3.313 -0.2940 -0.2551 -0.2865
 5966TIP3    H117862   1.298   4.503   3.291 -0.0987 -0.3424  0.0550
 5966TIP3    H217863   1.268   4.600   3.403  0.6182 -0.1001  0.0452
 5967TIP3   OH217864   0.343   2.144   4.860 -0.7997 -0.2069 -0.0688
 5967TIP3    H117865   0.422   2.198   4.863 -0.7558  0.0422 -2.8787
 5967TIP3    H217866   0.374   2.058   4.832 -1.3252 -0.6551  0.6892
 5968TIP3   OH217867   4.947   1.323   0.452 -0.0004 -0.3060 -0.7137
 5968TIP3    H117868   4.922   1.413   0.472 -2.2749 -1.1544  0.6792
 5968TIP3    H217869   5.032   1.311   0.494 -0.0839  0.9285 -0.1685
 5969TIP3   OH217870   4.226   1.381   3.242  0.2148  0.0407  0.7213
 5969TIP3    H117871   4.267   1.467   3.246  0.4264 -0.0862  1.7503
 5969TIP3    H217872   4.290   1.325   3.199  1.3459 -0.2495  2.6859
 5970TIP3   OH217873   4.414   4.728   1.673 -0.3210  0.2232  0.1975
 5970TIP3    H117874   4.365   4.789   1.728  0.9839  0.8149  0.7485
 5970TIP3    H217875   4.406   4.763   1.585 -0.3316  0.6956  0.3843
 5971TIP3   OH217876   5.184   0.209   5.023  0.1339 -0.2313  0.1145
 5971TIP3    H117877   5.171   0.183   5.114  1.3593 -1.7093 -0.0949
 5971TIP3    H217878   5.230   0.136   4.983 -0.0036  0.5635 -1.6081
 5972TIP3   OH217879   6.095   5.782   0.453  0.1532  0.0618  0.3039
 5972TIP3    H117880   6.119   5.784   0.546  2.2877  3.1813 -0.1729
 5972TIP3    H217881   6.059   5.869   0.436 -0.5934 -0.5923 -1.7578
 5973TIP3   OH217882   3.783   2.776   1.836  0.0548  0.4879  1.2709
 5973TIP3    H117883   3.854   2.788   1.898  0.1911  0.8420  1.0481
 5973TIP3    H217884   3.819   2.717   1.769 -0.2177 -0.2103  1.7219
 5974TIP3   OH217885   1.035   3.229   4.622  0.7153  0.1482 -0.4464
 5974TIP3    H117886   0.986   3.163   4.574  0.3659 -1.0459  1.4525
 5974TIP3    H217887   1.127   3.214   4.597  0.4222  0.5039 -1.7958
 5975TIP3   OH217888   2.795   2.674   2.110  0.3706  0.8276 -0.2375
 5975TIP3    H117889   2.889   2.655   2.109  0.1035 -0.6627  0.4511
 5975TIP3    H217890   2.786   2.750   2.168  1.1020  0.6713  0.0879
 5976TIP3   OH217891   2.225   4.140   4.024  0.2711  0.5014 -0.1609
 5976TIP3    H117892   2.203   4.049   4.045 -0.3721  0.3125 -1.5942
 5976TIP3    H217893   2.319   4.138   4.008  0.2337  0.0469 -0.3566
 5977TIP3   OH217894   6.654   0.848   3.978 -0.0635  0.0219  0.3139
 5977TIP3    H117895   6.719   0.826   4.045 -0.1800 -0.8318  0.1613
 5977TIP3    H217896   6.704   0.852   3.897 -0.2329 -0.9559  0.1448
 5978TIP3   OH217897   5.008   1.139   4.175 -0.1174  0.0308  0.3091
 5978TIP3    H117898   5.022   1.150   4.081  0.3417 -2.0879  0.0781
 5978TIP3    H217899   4.922   1.177   4.191  0.1404  1.1541 -0.8042
 5979TIP3   OH217900   1.938   4.985   1.656 -0.1077 -0.2619  0.0075
 5979TIP3    H117901   1.925   4.997   1.562  2.4434  0.6303 -0.3083
 5979TIP3    H217902   2.020   4.935   1.663 -0.8644 -1.3790  1.7665
 5980TIP3   OH217903   0.804   4.197   5.448 -0.5622 -0.1905 -0.1903
 5980TIP3    H117904   0.771   4.109   5.468 -0.7465 -0.1996 -0.5182
 5980TIP3    H217905   0.736   4.256   5.481 -1.4390 -0.2404 -1.8023
 5981TIP3   OH217906   6.380   2.148   3.427 -0.2946  0.2728  0.1562
 5981TIP3    H117907   6.289   2.121   3.438  0.2796 -2.0421 -0.1006
 5981TIP3    H217908   6.395   2.212   3.497 -2.3493  1.4826 -0.4341
 5982TIP3   OH217909   2.290   2.640   5.848  0.2755 -0.1067 -0.0171
 5982TIP3    H117910   2.364   2.606   5.797 -0.4585  0.2881 -1.4040
 5982TIP3    H217911   2.273   2.572   5.913  2.0549 -0.0594  0.5587
 5983TIP3   OH217912   6.998   4.358   0.028  0.4522  0.0907 -0.4894
 5983TIP3    H117913   7.053   4.437   0.029  2.2136 -1.0427  1.3321
 5983TIP3    H217914   6.965   4.352   0.118  0.0303 -1.0231 -0.7172
 5984TIP3   OH217915   1.833   4.033   4.176  0.5856 -0.0286 -0.0971
 5984TIP3    H117916   1.745   4.006   4.202  0.2863 -0.0780 -1.1229
 5984TIP3    H217917   1.884   4.030   4.257 -0.1979 -0.6367  0.3863
 5985TIP3   OH217918   2.818   4.640   2.111 -0.0265  0.2092 -0.0597
 5985TIP3    H117919   2.825   4.547   2.133  0.9079  0.0507 -0.9454
 5985TIP3    H217920   2.821   4.642   2.015  0.6746  1.2067 -0.0262
 5986TIP3   OH217921   5.108   5.672   5.564  0.4300  0.5178  0.0246
 5986TIP3    H117922   5.201   5.651   5.573  0.7995  1.1329 -1.8917
 5986TIP3    H217923   5.098   5.697   5.472 -1.6889  0.2233  0.1240
 5987TIP3   OH217924   5.558   0.181   5.735 -0.4847 -0.0789  0.4877
 5987TIP3    H117925   5.588   0.091   5.737 -0.3333 -0.0115  1.5771
 5987TIP3    H217926   5.467   0.178   5.764 -1.3601 -0.1736 -1.9743
 5988TIP3   OH217927   2.172   2.370   4.120  0.0307 -0.3472  0.2732
 5988TIP3    H117928   2.181   2.387   4.026 -0.5949 -0.3875  0.1963
 5988TIP3    H217929   2.254   2.328   4.145  0.4959  0.3272 -0.1001
 5989TIP3   OH217930   0.040   0.199   2.412  0.0493 -0.5477 -0.4053
 5989TIP3    H117931   0.096   0.268   2.446  0.0438 -0.9755  0.5053
 5989TIP3    H217932   0.064   0.191   2.319 -0.9891  1.6472 -0.9148
 5990TIP3   OH217933   6.460   0.967   4.156  0.2608  0.1848 -0.1158
 5990TIP3    H117934   6.376   0.924   4.142  0.0237 -0.2908  2.3215
 5990TIP3    H217935   6.520   0.922   4.097 -0.5351 -1.7613  0.4825
 5991TIP3   OH217936   4.214   4.311   1.005 -0.0416 -0.9117  0.4730
 5991TIP3    H117937   4.132   4.293   1.049 -0.2760 -0.3865  0.2534
 5991TIP3    H217938   4.218   4.406   0.997  1.2664 -0.8267  1.7605
 5992TIP3   OH217939   1.515   1.283   0.716  0.8194 -0.6861  0.2608
 5992TIP3    H117940   1.574   1.308   0.787 -0.2488  0.4773  0.8009
 5992TIP3    H217941   1.429   1.312   0.747  0.4266  0.5475 -1.8039
 5993TIP3   OH217942   0.278   2.866   0.529 -0.1538 -0.1924  0.0204
 5993TIP3    H117943   0.331   2.836   0.603  0.2975  0.0579 -0.1989
 5993TIP3    H217944   0.334   2.928   0.483 -0.2199 -0.7533 -0.8442
 5994TIP3   OH217945   4.948   1.740   4.734  0.0499 -0.3637 -0.0400
 5994TIP3    H117946   4.903   1.803   4.677 -0.4370 -0.7128 -0.0518
 5994TIP3    H217947   4.976   1.792   4.810  1.6750  0.3428 -1.0700
 5995TIP3   OH217948   4.220   4.504   1.838 -0.4496  0.0840  0.2256
 5995TIP3    H117949   4.275   4.541   1.769 -1.4667 -0.1460 -0.7317
 5995TIP3    H217950   4.191   4.420   1.804 -2.7737  0.9231 -0.0510
 5996TIP3   OH217951   6.198   6.447   0.413 -0.1453  0.2603 -0.2312
 5996TIP3    H117952   6.274   6.435   0.470  1.2577 -0.8907 -2.2083
 5996TIP3    H217953   6.136   6.380   0.440 -0.8888  1.7253  1.9403
 5997TIP3   OH217954   1.763   1.960   5.398 -0.0053 -0.4783  0.5792
 5997TIP3    H117955   1.852   1.933   5.419 -0.0046  0.1327  1.4012
 5997TIP3    H217956   1.759   1.958   5.302  1.5726  1.5857  0.4189
 5998TIP3   OH217957   5.585   6.265   3.106 -0.0238  0.1228  0.6704
 5998TIP3    H117958   5.611   6.251   3.016  0.1493  0.2481  0.7002
 5998TIP3    H217959   5.494   6.234   3.110  0.0694 -0.1697  0.5310
 5999TIP3   OH217960   0.473   1.423   1.557 -0.2423  0.5541  0.7292
 5999TIP3    H117961   0.379   1.435   1.570  0.2838  2.6590  3.5352
 5999TIP3    H217962   0.498   1.356   1.621  0.4067  1.3371  1.3239
 6000TIP3   OH217963   3.509   5.965   0.217  0.0139 -0.3285  0.9358
 6000TIP3    H117964   3.479   6.032   0.155  0.5721 -1.1721 -0.2730
 6000TIP3    H217965   3.467   5.989   0.300 -0.7771  0.8041  0.2356
 6001TIP3   OH217966   2.127   2.690   2.518  0.4239 -0.0416  0.1183
 6001TIP3    H117967   2.118   2.697   2.613 -0.6027 -0.2564  0.0506
 6001TIP3    H217968   2.151   2.598   2.504  2.9280  0.5133  0.2939
 6002TIP3   OH217969   3.982   1.932   5.272 -0.3379  0.1465 -0.1832
 6002TIP3    H117970   3.943   1.844   5.277  1.0362 -0.4563  0.5541
 6002TIP3    H217971   4.076   1.916   5.267 -0.0914  1.5840 -0.6870
 6003TIP3   OH217972   4.364   3.398   3.832 -0.1875 -0.5664  0.4991
 6003TIP3    H117973   4.380   3.310   3.796 -0.2978 -0.3176 -0.1658
 6003TIP3    H217974   4.376   3.387   3.926 -1.3103 -1.5540  0.5447
 6004TIP3   OH217975   4.555   4.584   3.848  0.5335 -0.9814 -0.1226
 6004TIP3    H117976   4.470   4.556   3.815 -1.2426 -0.5169  3.5151
 6004TIP3    H217977   4.571   4.668   3.806 -0.5194 -1.3474 -1.2847
 6005TIP3   OH217978   3.081   2.688   0.982  0.2833 -0.1369  0.9757
 6005TIP3    H117979   3.107   2.646   1.065 -0.6097  1.5555  2.1769
 6005TIP3    H217980   3.159   2.737   0.955 -0.3627  1.9229  2.5948
 6006TIP3   OH217981   5.191   4.870   0.116 -0.7212  0.0297  0.2440
 6006TIP3    H117982   5.116   4.826   0.077 -0.4949  0.1718 -0.3722
 6006TIP3    H217983   5.219   4.812   0.187 -1.0214 -0.3374  0.0673
 6007TIP3   OH217984   4.353   5.727   4.991 -0.1874 -0.7297 -0.2616
 6007TIP3    H117985   4.331   5.694   5.078  0.4162 -0.7396 -0.1126
 6007TIP3    H217986   4.427   5.673   4.962 -0.8405 -1.2145 -1.0867
 6008TIP3   OH217987   4.853   3.412   0.892  0.3658 -0.1989  0.0297
 6008TIP3    H117988   4.936   3.441   0.854  0.1348  0.6014  0.1125
 6008TIP3    H217989   4.791   3.483   0.871 -0.7087 -1.5190 -1.4612
 6009TIP3   OH217990   5.454   4.857   0.255 -0.2983  0.0763 -0.2467
 6009TIP3    H117991   5.373   4.857   0.307 -0.8819 -0.3854 -1.1348
 6009TIP3    H217992   5.452   4.774   0.207  0.8105 -0.0317 -0.1399
 6010TIP3   OH217993   0.253   5.143   5.508  0.4196  0.0737 -1.1137
 6010TIP3    H117994   0.332   5.182   5.545 -0.1295 -0.6948  1.0724
 6010TIP3    H217995   0.194   5.217   5.494  1.3430  0.6009 -2.3585
 6011TIP3   OH217996   2.172   6.613   2.085 -0.1821 -0.2873  0.2413
 6011TIP3    H117997   2.256   6.655   2.101 -0.3829 -0.1521  0.9766
 6011TIP3    H217998   2.134   6.600   2.172 -0.9835 -0.2131 -0.0840
 6012TIP3   OH217999   2.541   2.017   5.848  0.4547  0.0155  0.4510
 6012TIP3    H118000   2.581   1.934   5.821 -0.5137  0.4320 -2.7730
 6012TIP3    H218001   2.610   2.064   5.893  2.0543 -1.2695 -0.5402
 6013TIP3   OH218002   4.544   6.010   1.193 -0.3532  0.4466 -0.1432
 6013TIP3    H118003   4.542   5.915   1.189 -0.4400  0.3279  1.9079
 6013TIP3    H218004   4.454   6.035   1.215  0.2156  0.7981  1.9845
 6014TIP3   OH218005   5.495   1.522   5.222  0.3649 -0.6582 -0.1965
 6014TIP3    H118006   5.470   1.601   5.174  1.7099  0.2768  0.5759
 6014TIP3    H218007   5.579   1.497   5.184  0.6874 -0.8063  0.5936
 6015TIP3   OH218008   5.556   3.169   2.691  0.0457 -0.0756  0.2411
 6015TIP3    H118009   5.570   3.264   2.685 -1.5733  0.1991  0.2959
 6015TIP3    H218010   5.595   3.134   2.611  1.1607  0.5548  0.4842
 6016TIP3   OH218011   4.703   4.288   0.738  0.3117  0.2625  0.2167
 6016TIP3    H118012   4.674   4.230   0.808 -0.7840  1.0743  0.4810
 6016TIP3    H218013   4.717   4.372   0.782 -1.6393  1.1305 -0.6806
 6017TIP3   OH218014   3.100   2.286   3.333  0.1509 -0.8154 -0.7572
 6017TIP3    H118015   3.078   2.327   3.250 -0.6912  1.6778  0.5875
 6017TIP3    H218016   3.022   2.237   3.357 -1.7121  2.5788  0.8247
 6018TIP3   OH218017   5.448   1.132   1.661 -0.0652 -0.2488  0.3912
 6018TIP3    H118018   5.452   1.039   1.685  0.3959 -0.0904  0.9477
 6018TIP3    H218019   5.540   1.158   1.651 -0.1910  0.1691  0.3161
 6019TIP3   OH218020   6.549   6.548   2.365  0.4780  0.7091  0.2300
 6019TIP3    H118021   6.599   6.478   2.408 -0.0776 -0.0168 -0.2842
 6019TIP3    H218022   6.591   6.629   2.395  0.4110  0.2132  1.7584
 6020TIP3   OH218023   6.330   0.174   2.104  0.4157  0.6357 -0.2177
 6020TIP3    H118024   6.321   0.136   2.191  1.7653  1.4532  0.3150
 6020TIP3    H218025   6.369   0.260   2.119  0.4151  0.9062 -1.6063
 6021TIP3   OH218026   5.729   0.646   2.456  0.5368  0.1890 -0.1453
 6021TIP3    H118027   5.709   0.553   2.458  1.7112 -0.0727  0.0690
 6021TIP3    H218028   5.667   0.682   2.392 -0.5009 -0.5748  0.4021
 6022TIP3   OH218029   1.842   0.526   4.594  0.1943 -0.4848  0.1912
 6022TIP3    H118030   1.831   0.618   4.618  0.4465 -0.7912  1.5170
 6022TIP3    H218031   1.754   0.488   4.603  0.0455 -0.3454 -0.5617
 6023TIP3   OH218032   2.870   4.246   1.189  0.4014  0.4278 -0.1638
 6023TIP3    H118033   2.890   4.232   1.097  1.0762  1.0353 -0.1110
 6023TIP3    H218034   2.783   4.206   1.201  0.5409 -0.1226 -0.9303
 6024TIP3   OH218035   3.611   0.959   4.018  0.1918 -0.3599  0.5116
 6024TIP3    H118036   3.679   1.016   4.054  0.4718 -1.6829  2.1685
 6024TIP3    H218037   3.628   0.873   4.056 -2.9370 -0.5611  1.8457
 6025TIP3   OH218038   1.447   2.754   4.619 -0.4199  0.2091 -0.1480
 6025TIP3    H118039   1.474   2.662   4.617 -0.4873  0.1576  0.8804
 6025TIP3    H218040   1.352   2.752   4.609 -0.6325  0.0363  1.6834
 6026TIP3   OH218041   0.510   5.362   2.002 -0.0826  0.2622  0.0516
 6026TIP3    H118042   0.534   5.284   2.053  0.6925 -0.1650 -0.9365
 6026TIP3    H218043   0.415   5.357   1.994 -0.1353 -0.0537  0.8369
 6027TIP3   OH218044   2.671   3.753   5.852 -0.0203 -0.3715  0.3986
 6027TIP3    H118045   2.622   3.811   5.910 -0.8265 -0.9740  0.3434
 6027TIP3    H218046   2.635   3.768   5.765  1.9325  1.3362 -0.1980
 6028TIP3   OH218047   6.148   5.508   2.621 -0.2901 -0.3945 -0.4889
 6028TIP3    H118048   6.106   5.588   2.589 -1.6326 -0.9994 -0.2941
 6028TIP3    H218049   6.234   5.508   2.580 -0.8473  0.3811 -1.6993
 6029TIP3   OH218050   1.065   1.335   1.313 -0.1924 -0.1314 -0.3012
 6029TIP3    H118051   1.031   1.269   1.252 -3.0370  0.9861 -0.1130
 6029TIP3    H218052   1.154   1.307   1.332 -0.2056 -2.1225 -2.6900
 6030TIP3   OH218053   2.519   5.242   0.986  0.5898  0.1235  0.1641
 6030TIP3    H118054   2.495   5.157   0.949 -0.4908  0.7754 -0.7043
 6030TIP3    H218055   2.585   5.277   0.926 -0.5102  0.7925 -0.6907
 6031TIP3   OH218056   2.708   1.909   1.781 -0.0202 -0.0690 -0.4833
 6031TIP3    H118057   2.635   1.963   1.812  0.3667 -0.8526  1.9681
 6031TIP3    H218058   2.670   1.855   1.711 -1.8512 -0.5800  0.8460
 6032TIP3   OH218059   0.191   5.760   4.491 -0.2576 -0.0032 -0.0188
 6032TIP3    H118060   0.212   5.845   4.452 -1.9326 -0.4613 -2.1138
 6032TIP3    H218061   0.175   5.779   4.584  0.1795  1.8270 -0.2900
 6033TIP3   OH218062   0.577   2.623   4.251 -0.0676  0.0819  0.7376
 6033TIP3    H118063   0.529   2.687   4.304 -0.0190  0.6217  0.1448
 6033TIP3    H218064   0.539   2.631   4.164 -1.4082 -2.0783  1.0581
 6034TIP3   OH218065   6.682   3.509   4.529 -0.1547  0.0658 -0.2057
 6034TIP3    H118066   6.765   3.555   4.518  0.9898 -1.7569  0.3867
 6034TIP3    H218067   6.650   3.496   4.439  0.4831  0.2906 -0.4698
 6035TIP3   OH218068   2.290   3.999   1.314  0.5531 -0.5972  0.6411
 6035TIP3    H118069   2.272   4.078   1.363 -0.2476 -0.5788  0.3414
 6035TIP3    H218070   2.299   4.028   1.223  2.1894 -0.6054  0.7731
 6036TIP3   OH218071   4.719   6.305   2.433 -0.4982 -0.1477  0.1340
 6036TIP3    H118072   4.653   6.250   2.390  1.2676 -2.0180 -0.3990
 6036TIP3    H218073   4.782   6.242   2.469  0.8552  1.5255  0.8475
 6037TIP3   OH218074   1.624   3.341   3.129 -0.8332 -0.3172 -0.2455
 6037TIP3    H118075   1.668   3.297   3.202 -2.1321 -0.8612  0.2302
 6037TIP3    H218076   1.668   3.426   3.122  0.0697 -0.7168  0.4179
 6038TIP3   OH218077   1.778   0.114   0.216  1.2715 -0.3015 -0.2856
 6038TIP3    H118078   1.775   0.056   0.292 -2.4867  1.2967  1.0375
 6038TIP3    H218079   1.690   0.108   0.178  1.3913  2.8102 -1.3417
 6039TIP3   OH218080   5.998   0.332   4.432  0.3713 -0.1901  0.4089
 6039TIP3    H118081   6.011   0.255   4.376  2.3489 -1.1738  2.0988
 6039TIP3    H218082   5.903   0.343   4.434  0.1086 -1.7155 -1.0093
 6040TIP3   OH218083   2.673   4.998   1.170 -0.2861 -0.2711  0.8618
 6040TIP3    H118084   2.724   5.072   1.203 -1.2722  0.8330  0.0068
 6040TIP3    H218085   2.713   4.976   1.086  0.6118 -1.3756  1.5572
 6041TIP3   OH218086   4.532   1.751   4.812  0.2697  0.3455 -0.4139
 6041TIP3    H118087   4.468   1.731   4.743  0.6470 -1.8013 -0.1934
 6041TIP3    H218088   4.498   1.706   4.889  0.5126  1.6991  0.5171
 6042TIP3   OH218089   4.064   2.505   4.994  0.1885 -0.0768 -0.2844
 6042TIP3    H118090   4.058   2.411   5.008  0.4171 -0.0700 -0.1202
 6042TIP3    H218091   4.157   2.525   5.009 -0.0693  0.3463  0.8215
 6043TIP3   OH218092   5.183   0.768   2.980 -0.1746 -0.1089 -0.4701
 6043TIP3    H118093   5.215   0.838   2.923 -0.9381 -1.2542 -2.3723
 6043TIP3    H218094   5.146   0.703   2.921 -1.4126 -1.1670  1.3538
 6044TIP3   OH218095   2.638   2.011   4.567  0.5726 -0.5987  0.2707
 6044TIP3    H118096   2.609   2.100   4.585 -0.8018 -0.9844  0.1580
 6044TIP3    H218097   2.718   2.020   4.516  0.7979  0.5542  0.8075
 6045TIP3   OH218098   3.843   4.048   1.810 -0.3900 -0.2379 -0.4975
 6045TIP3    H118099   3.875   4.049   1.719  0.0924  0.1407 -0.3264
 6045TIP3    H218100   3.896   4.114   1.855 -0.6294 -0.4226  0.0632
 6046TIP3   OH218101   1.554   4.862   1.218 -0.2841  0.4453 -0.3108
 6046TIP3    H118102   1.533   4.800   1.289  1.9440  1.8965  1.7683
 6046TIP3    H218103   1.485   4.928   1.224  0.9347  1.6464  2.0056
 6047TIP3   OH218104   1.815   5.407   5.128  0.1655  0.2591  0.7035
 6047TIP3    H118105   1.910   5.398   5.134  0.2115  1.0576  1.4277
 6047TIP3    H218106   1.800   5.441   5.040  0.3802 -1.6105 -0.0993
 6048TIP3   OH218107   3.182   1.871   3.456  0.2799 -0.0099  0.0750
 6048TIP3    H118108   3.212   1.894   3.543  2.1620 -1.0240 -0.2592
 6048TIP3    H218109   3.237   1.921   3.396 -0.4649  0.0917 -0.5496
 6049TIP3   OH218110   5.416   3.486   1.508  0.3514 -0.4085 -0.4540
 6049TIP3    H118111   5.511   3.479   1.507  0.3437 -2.2974  1.8956
 6049TIP3    H218112   5.388   3.426   1.578 -2.6625 -0.9414 -1.9270
 6050TIP3   OH218113   0.997   0.258   0.497 -0.1419 -0.4814 -0.0400
 6050TIP3    H118114   0.947   0.178   0.515 -0.1387 -0.5171 -0.1914
 6050TIP3    H218115   1.012   0.257   0.403 -0.8120  0.0913 -0.1660
 6051TIP3   OH218116   1.788   4.605   3.345  0.5242  0.4757  0.6830
 6051TIP3    H118117   1.810   4.655   3.267 -0.1922 -1.7877 -1.0586
 6051TIP3    H218118   1.719   4.656   3.388 -0.4375  0.8357 -1.2046
 6052TIP3   OH218119   3.086   0.856   4.090  0.3883 -0.2145  0.1523
 6052TIP3    H118120   3.007   0.809   4.117  0.1098 -0.1402 -0.5120
 6052TIP3    H218121   3.133   0.794   4.034 -0.8649  0.8456 -2.2179
 6053TIP3   OH218122   6.096   1.095   3.899  0.1610  1.0754  1.0344
 6053TIP3    H118123   6.005   1.067   3.904  0.8428 -2.0550 -1.0529
 6053TIP3    H218124   6.095   1.171   3.840 -0.9611 -0.1948 -0.6855
 6054TIP3   OH218125   6.552   2.132   4.566  0.0047  0.2289  0.0065
 6054TIP3    H118126   6.542   2.169   4.478  0.7523  0.1921 -0.1027
 6054TIP3    H218127   6.618   2.187   4.608 -0.3596  0.2539  0.5525
 6055TIP3   OH218128   4.153   1.780   4.532 -0.4547  0.4407 -0.1954
 6055TIP3    H118129   4.129   1.695   4.495  3.0764 -0.0327 -1.8729
 6055TIP3    H218130   4.087   1.840   4.497 -1.9352 -1.2674 -0.5259
 6056TIP3   OH218131   3.826   5.040   5.315 -0.7170  0.5512 -0.1980
 6056TIP3    H118132   3.841   5.112   5.375  0.8121  0.8814 -0.9221
 6056TIP3    H218133   3.883   4.970   5.346 -1.8516 -0.2284  0.2318
 6057TIP3   OH218134   1.256   0.003   0.222 -0.2146 -0.3420  0.5838
 6057TIP3    H118135   1.176   0.055   0.228 -0.3098 -0.2844 -0.8599
 6057TIP3    H218136   1.324   0.066   0.198  0.1582 -0.4962  1.2031
 6058TIP3   OH218137   2.697   5.774   4.704  0.3632  0.2818 -0.4776
 6058TIP3    H118138   2.628   5.783   4.769 -0.5486 -0.9621 -1.2158
 6058TIP3    H218139   2.764   5.838   4.730 -1.0658  1.5443  0.2462
 6059TIP3   OH218140   2.175   4.759   4.252  0.6040 -0.0216  0.4257
 6059TIP3    H118141   2.216   4.683   4.212  0.3352 -0.2486  0.5769
 6059TIP3    H218142   2.215   4.834   4.208  1.3107 -0.2304  0.7066
 6060TIP3   OH218143   4.658   4.469   4.807 -0.1357 -0.0709 -0.0318
 6060TIP3    H118144   4.675   4.377   4.788  0.7408 -0.1929  1.2115
 6060TIP3    H218145   4.610   4.468   4.889 -0.0504  0.5832  0.0310
 6061TIP3   OH218146   4.733   4.028   2.414 -0.0120  0.4073  0.1054
 6061TIP3    H118147   4.769   4.073   2.338  1.3772  1.3530  1.2563
 6061TIP3    H218148   4.652   3.989   2.383  1.4269 -0.8763 -2.3506
 6062TIP3   OH218149   0.683   5.082   3.787  0.0133  0.1582 -0.5200
 6062TIP3    H118150   0.665   5.167   3.827 -0.2202  0.4029 -1.1293
 6062TIP3    H218151   0.659   5.018   3.854 -0.5704  0.5541 -0.3483
 6063TIP3   OH218152   1.442   2.758   2.660  0.1715 -0.8579 -0.0703
 6063TIP3    H118153   1.456   2.827   2.724 -2.5005  0.2783 -0.5515
 6063TIP3    H218154   1.367   2.709   2.694 -0.9225 -0.5911 -1.9271
 6064TIP3   OH218155   5.047   3.616   0.557  0.2566  0.5667  0.1166
 6064TIP3    H118156   4.981   3.563   0.513  0.0240 -0.1276  1.2548
 6064TIP3    H218157   5.130   3.573   0.538 -0.0723 -1.4026  2.5147
 6065TIP3   OH218158   0.376   0.263   5.787 -0.1820 -0.2221  0.6651
 6065TIP3    H118159   0.281   0.275   5.779 -0.0498  0.7017  0.3328
 6065TIP3    H218160   0.386   0.173   5.819 -1.1919 -0.1108  1.3608
 6066TIP3   OH218161   4.217   5.390   2.430 -0.7267 -0.0519 -0.3517
 6066TIP3    H118162   4.216   5.311   2.376 -0.1719  1.0312 -2.0662
 6066TIP3    H218163   4.125   5.409   2.447 -0.8797 -0.8522 -0.2397
 6067TIP3   OH218164   0.953   0.790   4.433 -0.1239 -0.0580 -0.0748
 6067TIP3    H118165   1.008   0.725   4.476 -1.9159 -1.4134  0.2794
 6067TIP3    H218166   0.931   0.750   4.348 -0.6813  0.3948 -0.1460
 6068TIP3   OH218167   4.983   2.700   0.846  0.4794 -0.3770 -0.0717
 6068TIP3    H118168   4.907   2.735   0.892  0.3733  0.4125 -0.8222
 6068TIP3    H218169   5.040   2.667   0.915  0.2435  0.6170  0.6088
 6069TIP3   OH218170   7.042   5.430   5.043  0.2350  0.0368  0.0846
 6069TIP3    H118171   7.036   5.517   5.005 -0.9913  0.3435  0.9032
 6069TIP3    H218172   7.115   5.388   4.998  1.7927  1.9745  0.6677
 6070TIP3   OH218173   6.515   5.886   3.157  0.4899 -0.1005 -0.1680
 6070TIP3    H118174   6.496   5.804   3.112 -0.5925  0.2790 -0.4179
 6070TIP3    H218175   6.430   5.926   3.172  1.0377  1.3568 -0.7432
 6071TIP3   OH218176   3.423   6.497   4.772  0.6041 -0.6733  0.3812
 6071TIP3    H118177   3.359   6.474   4.839  1.5051  0.4059  1.6616
 6071TIP3    H218178   3.498   6.530   4.821  1.9764 -1.4675 -1.0991
 6072TIP3   OH218179   4.194   2.358   5.423  0.2747  0.6060  0.3353
 6072TIP3    H118180   4.204   2.289   5.488  0.4383 -1.2506 -1.5416
 6072TIP3    H218181   4.106   2.392   5.436 -0.7678 -1.6982 -0.2100
 6073TIP3   OH218182   3.952   5.469   3.563 -0.0108 -0.1113 -0.6456
 6073TIP3    H118183   4.008   5.394   3.545  1.1811  0.3915  0.7953
 6073TIP3    H218184   3.884   5.435   3.620  1.2881  0.1239  1.1202
 6074TIP3   OH218185   1.462   5.594   1.772 -0.5546  0.0832  0.5790
 6074TIP3    H118186   1.551   5.602   1.739 -0.8729 -1.4363 -0.7581
 6074TIP3    H218187   1.418   5.674   1.742 -0.4735 -0.6313 -1.6103
 6075TIP3   OH218188   2.598   4.521   1.647 -0.5456 -0.1661  0.0465
 6075TIP3    H118189   2.588   4.486   1.558  0.8030  1.1657 -0.6775
 6075TIP3    H218190   2.537   4.594   1.651 -1.4069 -0.8970  0.6263
 6076TIP3   OH218191   2.582   0.358   0.585 -0.4523  0.5345 -0.4801
 6076TIP3    H118192   2.548   0.433   0.633  0.1689  1.2652 -1.1582
 6076TIP3    H218193   2.530   0.354   0.505  2.1474  2.8644 -2.4886
 6077TIP3   OH218194   0.409   1.882   4.186  0.3831  0.0487  0.0291
 6077TIP3    H118195   0.466   1.876   4.263  1.0734  0.5722 -0.4292
 6077TIP3    H218196   0.425   1.970   4.152 -0.2862 -0.0066 -0.4287
 6078TIP3   OH218197   3.082   1.980   4.875 -0.6248 -0.3521  0.1072
 6078TIP3    H118198   3.032   1.902   4.898 -0.6850  0.1250  1.7072
 6078TIP3    H218199   3.173   1.949   4.871 -0.8948 -0.9918 -1.7275
 6079TIP3   OH218200   0.903   4.611   2.170  0.2445 -0.2039  0.0163
 6079TIP3    H118201   0.824   4.559   2.187  1.3974 -1.7421  0.9178
 6079TIP3    H218202   0.883   4.697   2.205 -1.6752 -0.0206 -1.3621
 6080TIP3   OH218203   5.526   4.035   1.104  0.1256  0.1429 -0.0156
 6080TIP3    H118204   5.449   4.041   1.160  0.0231  0.3262 -0.1748
 6080TIP3    H218205   5.497   3.990   1.025  0.0333  0.7236 -0.3227
 6081TIP3   OH218206   4.193   4.143   3.700  0.4066 -0.5667 -0.1174
 6081TIP3    H118207   4.272   4.092   3.719 -0.7678 -2.8970 -1.0307
 6081TIP3    H218208   4.161   4.108   3.617 -0.8827  1.2300 -0.4450
 6082TIP3   OH218209   5.669   6.774   4.274  0.8681 -0.4032  0.1390
 6082TIP3    H118210   5.725   6.708   4.315  0.5431 -0.2515  0.8345
 6082TIP3    H218211   5.594   6.725   4.240  1.1537 -0.5336 -0.3104
 6083TIP3   OH218212   6.178   0.619   5.773  0.2409 -0.1414  0.0797
 6083TIP3    H118213   6.264   0.631   5.812  0.7929 -1.2759 -0.7429
 6083TIP3    H218214   6.131   0.562   5.834  0.4097 -0.2989  0.0626
 6084TIP3   OH218215   6.217   3.907   0.720  0.1153  0.2762  0.0012
 6084TIP3    H118216   6.254   3.835   0.669 -1.0130 -1.6897  1.8087
 6084TIP3    H218217   6.137   3.931   0.673 -0.1328 -0.4873  0.0247
 6085TIP3   OH218218   1.567   3.123   5.505  0.2738 -0.1217  0.4100
 6085TIP3    H118219   1.547   3.035   5.537  0.4620 -0.7031 -1.0190
 6085TIP3    H218220   1.656   3.140   5.536  0.1792 -0.3671  0.8255
 6086TIP3   OH218221   6.220   5.356   4.175 -0.1212  0.6853 -0.2876
 6086TIP3    H118222   6.167   5.356   4.095 -1.9248 -0.1569  0.8540
 6086TIP3    H218223   6.245   5.264   4.186  0.3871  0.8520 -0.0472
 6087TIP3   OH218224   3.229   3.614   5.760 -0.7027 -0.4128 -0.3150
 6087TIP3    H118225   3.310   3.574   5.728  0.0606 -1.4198  2.5877
 6087TIP3    H218226   3.163   3.589   5.695  0.9266 -1.1475 -1.7796
 6088TIP3   OH218227   1.028   2.301   5.337  0.3979 -0.1544  0.2467
 6088TIP3    H118228   1.048   2.215   5.374 -1.6240  0.1721  2.3377
 6088TIP3    H218229   0.954   2.285   5.278 -0.7126  0.2155  1.4700
 6089TIP3   OH218230   5.649   5.596   2.103 -0.1046 -0.1851  0.2391
 6089TIP3    H118231   5.645   5.517   2.049 -0.4776 -0.4302  0.6175
 6089TIP3    H218232   5.695   5.659   2.049 -1.0971 -0.2015 -0.6647
 6090TIP3   OH218233   4.660   3.857   4.863 -0.2552 -0.2900 -0.1917
 6090TIP3    H118234   4.570   3.830   4.881 -0.1330 -1.1246 -0.8217
 6090TIP3    H218235   4.674   3.835   4.771  0.6801 -0.4022 -0.0264
 6091TIP3   OH218236   4.025   3.702   0.469  0.3407 -0.1872 -0.4189
 6091TIP3    H118237   3.936   3.693   0.502 -0.1254  0.7237 -1.3741
 6091TIP3    H218238   4.030   3.638   0.397  1.1105 -1.6301  0.8594
 6092TIP3   OH218239   4.921   4.295   2.520  0.1086 -0.2486  0.5800
 6092TIP3    H118240   4.908   4.390   2.512  1.0074  0.1429  2.8928
 6092TIP3    H218241   4.842   4.263   2.562  0.3074 -0.3027  0.9220
 6093TIP3   OH218242   6.456   3.994   3.700 -0.0454 -0.4365 -0.1201
 6093TIP3    H118243   6.442   3.899   3.694 -0.5130 -0.2894 -1.5305
 6093TIP3    H218244   6.369   4.030   3.717 -0.0112 -0.1862 -0.4721
 6094TIP3   OH218245   2.277   6.426   0.166  0.0946  0.3292  0.2740
 6094TIP3    H118246   2.339   6.418   0.239 -2.6646  1.1535  2.8890
 6094TIP3    H218247   2.242   6.515   0.174 -1.1549  0.0220 -1.3698
 6095TIP3   OH218248   3.562   1.984   0.214  0.5147  0.1020  0.4078
 6095TIP3    H118249   3.611   2.066   0.204  2.1583 -0.6951  1.4413
 6095TIP3    H218250   3.503   1.999   0.287  0.4401  0.5310  0.2582
 6096TIP3   OH218251   5.875   0.911   5.177 -0.6325 -0.3158  0.1561
 6096TIP3    H118252   5.900   0.887   5.266 -1.5955  0.4440  0.6524
 6096TIP3    H218253   5.904   1.002   5.168 -2.5879  0.3898  0.5396
 6097TIP3   OH218254   5.076   2.155   4.894  0.2396 -0.1096  0.2338
 6097TIP3    H118255   5.142   2.177   4.959  0.3749  1.7516 -0.4777
 6097TIP3    H218256   5.039   2.072   4.925  1.5111 -0.1795  1.7059
 6098TIP3   OH218257   2.851   5.190   3.624 -0.0454  0.1095  0.1582
 6098TIP3    H118258   2.802   5.262   3.586 -1.2176 -1.4994 -1.5497
 6098TIP3    H218259   2.889   5.144   3.549  1.7916 -0.3267  1.2764
 6099TIP3   OH218260   4.473   0.777   0.264 -0.0271 -0.1539  0.0876
 6099TIP3    H118261   4.490   0.713   0.196 -0.8700 -0.8454  0.5104
 6099TIP3    H218262   4.530   0.851   0.242 -0.1225 -0.4518 -1.2279
 6100TIP3   OH218263   3.481   3.663   1.873 -0.0063  0.0432 -0.2383
 6100TIP3    H118264   3.519   3.576   1.888  0.1742 -0.0589 -1.2116
 6100TIP3    H218265   3.553   3.724   1.889 -0.0230 -0.0108  0.0467
 6101TIP3   OH218266   0.095   0.085   3.976 -0.4771  0.2101 -0.1186
 6101TIP3    H118267   0.028   0.073   4.044 -0.9514 -0.5623 -0.7027
 6101TIP3    H218268   0.174   0.046   4.014 -0.0527  2.0614  0.9926
 6102TIP3   OH218269   6.311   0.260   4.082 -0.0201  0.0016 -0.6248
 6102TIP3    H118270   6.326   0.355   4.086 -0.0354  0.0336 -1.1971
 6102TIP3    H218271   6.396   0.224   4.057  0.1168 -0.1853  0.0914
 6103TIP3   OH218272   5.406   5.798   4.570 -0.3240 -0.0934  0.0156
 6103TIP3    H118273   5.428   5.706   4.589 -0.8314 -0.3873 -0.7856
 6103TIP3    H218274   5.404   5.840   4.656 -1.0325 -1.0442  0.4843
 6104TIP3   OH218275   0.682   1.985   1.958 -0.3024  0.1542  0.2239
 6104TIP3    H118276   0.592   2.009   1.935  0.4487  1.7657 -1.2294
 6104TIP3    H218277   0.685   1.890   1.946 -2.1153 -0.0987  1.4956
 6105TIP3   OH218278   3.102   0.617   1.225  0.0918 -0.6194  0.2169
 6105TIP3    H118279   3.046   0.550   1.185 -1.1784 -0.2133  1.2285
 6105TIP3    H218280   3.172   0.631   1.162 -2.0129  0.2882 -2.0840
 6106TIP3   OH218281   2.013   2.880   1.208  0.8242  0.1210  0.3026
 6106TIP3    H118282   1.920   2.858   1.212  0.5533  0.5645 -1.9643
 6106TIP3    H218283   2.033   2.916   1.294 -0.4205 -2.3462  1.7413
 6107TIP3   OH218284   4.824   4.102   0.152 -0.0245 -0.4643 -0.1914
 6107TIP3    H118285   4.853   4.023   0.106  1.9605  0.4441 -0.6101
 6107TIP3    H218286   4.796   4.072   0.238  0.1930 -1.6677 -0.5274
 6108TIP3   OH218287   0.563   4.083   1.101 -0.3860  0.3278  0.0926
 6108TIP3    H118288   0.656   4.104   1.101 -0.6192  1.4701  1.2069
 6108TIP3    H218289   0.522   4.155   1.054 -0.8350  0.5976  0.8678
 6109TIP3   OH218290   4.797   1.239   0.962 -0.1501  0.1556  0.4760
 6109TIP3    H118291   4.761   1.151   0.948  0.6920  0.0613 -1.3901
 6109TIP3    H218292   4.892   1.228   0.956  0.0042  1.0774  1.0057
 6110TIP3   OH218293   6.855   3.991   4.297  0.3396  0.7628 -0.5314
 6110TIP3    H118294   6.937   3.942   4.304  0.5847  1.2525  0.1565
 6110TIP3    H218295   6.851   4.017   4.205  0.0839 -0.7268 -0.9733
 6111TIP3   OH218296   5.641   4.148   5.702 -0.3799  0.2568 -0.5143
 6111TIP3    H118297   5.685   4.092   5.767 -0.1741  0.1731 -0.7257
 6111TIP3    H218298   5.691   4.229   5.703 -0.1483  0.1175 -0.8425
 6112TIP3   OH218299   5.067   2.256   5.633 -0.5836  0.1575 -0.3680
 6112TIP3    H118300   5.083   2.350   5.639  2.9947 -0.3666  0.7371
 6112TIP3    H218301   4.993   2.240   5.693 -2.8435  2.4205 -2.3301
 6113TIP3   OH218302   5.695   0.223   2.267  0.0663 -0.5047 -0.2632
 6113TIP3    H118303   5.664   0.133   2.254 -0.5470 -0.3291 -0.0490
 6113TIP3    H218304   5.790   0.215   2.274  0.2377 -0.8969 -2.3815
 6114TIP3   OH218305   1.334   1.744   5.716  0.3373  0.8360 -0.4314
 6114TIP3    H118306   1.430   1.742   5.714  0.3511  1.2048 -0.1754
 6114TIP3    H218307   1.309   1.760   5.625  0.4938  0.0858 -0.6199
 6115TIP3   OH218308   4.334   4.241   3.402  0.1182  0.2988  0.6709
 6115TIP3    H118309   4.243   4.229   3.375  0.1102 -0.8861  1.1394
 6115TIP3    H218310   4.384   4.232   3.320  0.0911 -3.1936  0.8571
 6116TIP3   OH218311   4.191   0.766   0.354 -0.1880  0.4286 -0.0362
 6116TIP3    H118312   4.214   0.701   0.420 -0.1011  0.2662 -0.2264
 6116TIP3    H218313   4.274   0.809   0.333 -0.4288  1.4029  0.9404
 6117TIP3   OH218314   1.715   2.983   2.218 -0.0665 -0.1685 -0.9429
 6117TIP3    H118315   1.674   2.908   2.176 -0.4694  0.9736 -2.6800
 6117TIP3    H218316   1.806   2.981   2.188 -0.0534 -0.0116 -0.9173
 6118TIP3   OH218317   0.845   0.441   5.494  0.1716  0.1650  0.0300
 6118TIP3    H118318   0.818   0.516   5.547 -1.9347  0.4393 -1.3146
 6118TIP3    H218319   0.817   0.464   5.405  1.4890 -1.2817 -0.8029
 6119TIP3   OH218320   1.208   4.015   2.434  0.4164 -0.0579 -0.2426
 6119TIP3    H118321   1.143   4.081   2.457  0.8570  0.2449  0.1444
 6119TIP3    H218322   1.192   3.943   2.495  0.3854 -0.0278 -0.2157
 6120TIP3   OH218323   4.930   2.746   2.249 -0.0264  0.0491  0.2923
 6120TIP3    H118324   5.024   2.755   2.266  0.5661 -0.1902 -2.3656
 6120TIP3    H218325   4.895   2.834   2.259  1.0110  0.6783 -1.1169
 6121TIP3   OH218326   0.533   2.183   2.994  0.5048  0.0738 -0.6811
 6121TIP3    H118327   0.618   2.218   3.023  1.7482 -2.0801 -1.4369
 6121TIP3    H218328   0.548   2.155   2.904 -1.4768  0.9721 -1.3348
 6122TIP3   OH218329   3.093   3.467   4.145 -0.2277 -0.6136  0.0351
 6122TIP3    H118330   3.124   3.543   4.097 -0.4304 -0.2382  0.4893
 6122TIP3    H218331   3.049   3.413   4.080  1.4294 -1.2036 -0.6521
 6123TIP3   OH218332   2.474   2.905   2.597  0.0235 -0.0842  0.2744
 6123TIP3    H118333   2.533   2.871   2.665  1.0535 -2.0303 -1.5057
 6123TIP3    H218334   2.433   2.828   2.559 -0.6204  0.9622 -1.2553
 6124TIP3   OH218335   6.591   1.967   2.484  0.0054 -0.1583  0.4228
 6124TIP3    H118336   6.579   2.013   2.567 -1.7342 -2.0813  1.3361
 6124TIP3    H218337   6.656   2.019   2.436 -1.1323  2.6408  1.7244
 6125TIP3   OH218338   6.209   0.253   3.728  0.2931 -0.3672  0.1545
 6125TIP3    H118339   6.160   0.202   3.793 -1.6252 -1.0716 -1.7100
 6125TIP3    H218340   6.266   0.189   3.686 -0.1794 -0.4251 -0.4058
 6126TIP3   OH218341   7.092   6.287   4.247 -0.6544 -0.2581 -0.3860
 6126TIP3    H118342   7.048   6.368   4.221  0.9765  0.9135  0.3218
 6126TIP3    H218343   7.117   6.301   4.338  1.2400 -0.8144 -0.7758
 6127TIP3   OH218344   2.662   2.710   1.081  0.0945  0.6382 -0.2569
 6127TIP3    H118345   2.580   2.661   1.086 -0.4146  1.4330 -0.4566
 6127TIP3    H218346   2.724   2.651   1.039 -0.4119  0.0669 -0.2162
 6128TIP3   OH218347   4.551   0.594   0.091  0.4424  0.2787 -0.1605
 6128TIP3    H118348   4.522   0.591   0.000  0.4541  0.6561 -0.1786
 6128TIP3    H218349   4.549   0.503   0.121  0.9698  0.0789 -0.7073
 6129TIP3   OH218350   0.017   1.626   0.209 -0.1622  0.4072  0.0001
 6129TIP3    H118351   0.097   1.643   0.259 -0.7451  1.6015  0.5548
 6129TIP3    H218352   0.043   1.637   0.118  0.3526  0.5749  0.1617
 6130TIP3   OH218353   6.121   6.283   1.314  0.4951 -0.1920 -0.1813
 6130TIP3    H118354   6.048   6.345   1.318  0.5347 -0.0867 -0.9738
 6130TIP3    H218355   6.192   6.325   1.361 -0.1127 -0.5284  1.0941
 6131TIP3   OH218356   2.545   3.857   5.189 -0.1331 -0.6093 -0.0092
 6131TIP3    H118357   2.594   3.776   5.202  1.0382  0.3173  1.7525
 6131TIP3    H218358   2.522   3.856   5.096  0.1441 -2.7756 -0.1055
 6132TIP3   OH218359   2.767   1.815   2.930 -0.1076 -0.0178 -0.0490
 6132TIP3    H118360   2.712   1.826   2.852 -0.2803  0.1117  0.0902
 6132TIP3    H218361   2.854   1.797   2.896  0.0376  1.0585 -0.2869
 6133TIP3   OH218362   2.648   5.088   4.329  0.5834  0.1255  0.1129
 6133TIP3    H118363   2.554   5.092   4.348  0.6228 -0.2697  0.4061
 6133TIP3    H218364   2.690   5.115   4.410  0.7381 -0.7547  0.3416
 6134TIP3   OH218365   2.378   3.150   1.598 -0.2005  0.1067 -0.2370
 6134TIP3    H118366   2.317   3.221   1.616 -0.6012 -0.5303  1.0331
 6134TIP3    H218367   2.378   3.142   1.502 -0.3377  1.6243 -0.3880
 6135TIP3   OH218368   2.808   6.103   4.507  0.0117 -0.0854  0.0308
 6135TIP3    H118369   2.778   6.064   4.589  2.3312  0.7186  1.3538
 6135TIP3    H218370   2.787   6.196   4.515  0.7203  0.0861 -0.0317
 6136TIP3   OH218371   6.201   6.513   1.027  0.5321  0.4253  0.2126
 6136TIP3    H118372   6.276   6.563   0.996  0.1361  0.8225 -0.1167
 6136TIP3    H218373   6.126   6.571   1.012  0.1915  0.1409  0.7806
 6137TIP3   OH218374   1.685   3.670   2.434 -0.0379 -0.4779 -0.6086
 6137TIP3    H118375   1.591   3.682   2.415  0.0392  0.1249 -0.6248
 6137TIP3    H218376   1.715   3.610   2.366  0.0568  1.0335 -1.9602
 6138TIP3   OH218377   3.448   2.956   2.210  0.2513 -0.4499 -0.4194
 6138TIP3    H118378   3.503   2.947   2.132  0.2436  1.9929 -0.7989
 6138TIP3    H218379   3.368   2.996   2.178  0.2948  0.7193  0.8375
 6139TIP3   OH218380   4.754   4.210   2.026 -0.1862 -0.1132 -0.1182
 6139TIP3    H118381   4.824   4.237   1.966 -0.0342 -0.0269  0.1001
 6139TIP3    H218382   4.776   4.250   2.110 -0.3436 -0.3207  0.0242
 6140TIP3   OH218383   4.091   6.502   1.805  0.2225 -0.2742 -0.0351
 6140TIP3    H118384   4.160   6.437   1.789  0.2274 -0.2193 -0.2338
 6140TIP3    H218385   4.110   6.573   1.743  1.8312  1.1847  1.9654
 6141TIP3   OH218386   2.317   5.992   1.669  0.0818  0.5072  0.0528
 6141TIP3    H118387   2.368   6.043   1.732  0.2647 -0.6497  0.8888
 6141TIP3    H218388   2.382   5.963   1.604  0.4624 -0.6423  0.9053
 6142TIP3   OH218389   6.799   6.284   0.260  0.5779 -0.2620  0.0797
 6142TIP3    H118390   6.775   6.333   0.181 -2.2878  0.0624  1.0385
 6142TIP3    H218391   6.843   6.348   0.316 -1.1582  0.6998  0.4169
 6143TIP3   OH218392   6.352   2.309   1.650 -0.2851 -0.2162  0.2390
 6143TIP3    H118393   6.278   2.365   1.627  0.4115  0.0349 -1.5304
 6143TIP3    H218394   6.331   2.224   1.611  0.2082 -0.2237 -0.0236
 6144TIP3   OH218395   2.410   3.193   5.337  0.2363 -0.7182  0.2606
 6144TIP3    H118396   2.320   3.181   5.306 -0.8217  2.4516  1.6628
 6144TIP3    H218397   2.414   3.144   5.419  0.2127 -1.8198 -0.3734
 6145TIP3   OH218398   0.505   0.327   1.885 -0.3471 -0.0692 -0.7552
 6145TIP3    H118399   0.429   0.360   1.933 -0.0466  1.2491 -1.1344
 6145TIP3    H218400   0.492   0.356   1.795 -1.0287 -2.7330 -1.6082
 6146TIP3   OH218401   4.050   3.764   4.537  0.2064  0.5103 -0.2287
 6146TIP3    H118402   4.123   3.745   4.596  0.9793  1.4383 -0.8401
 6146TIP3    H218403   4.090   3.816   4.467 -0.8897  0.3193 -1.0148
 6147TIP3   OH218404   1.281   5.853   4.318  0.2553 -0.5244 -0.4180
 6147TIP3    H118405   1.186   5.869   4.319  0.3915  0.3971 -0.9593
 6147TIP3    H218406   1.292   5.771   4.366 -0.7536 -0.2976  0.2368
 6148TIP3   OH218407   4.309   6.497   3.071  0.2641 -0.2288 -0.8632
 6148TIP3    H118408   4.318   6.502   3.166  1.1708 -1.4292 -0.8598
 6148TIP3    H218409   4.248   6.567   3.049 -0.7069 -0.5245  0.7002
 6149TIP3   OH218410   6.904   4.423   3.277 -0.4501 -0.1603 -0.3655
 6149TIP3    H118411   6.946   4.459   3.199 -1.6967  1.8009 -0.2247
 6149TIP3    H218412   6.815   4.460   3.275 -0.7210 -0.6006  1.6185
 6150TIP3   OH218413   6.567   2.440   4.131  0.8549  0.2873 -0.2584
 6150TIP3    H118414   6.492   2.473   4.082 -0.5307 -2.4776 -0.2386
 6150TIP3    H218415   6.610   2.378   4.071  0.8833 -0.9315  0.9516
 6151TIP3   OH218416   0.031   4.328   0.906  0.4503  0.1647 -0.2594
 6151TIP3    H118417  -0.043   4.330   0.966  0.1938  0.4083 -0.5796
 6151TIP3    H218418   0.106   4.352   0.960 -0.0626  2.3170 -0.4105
 6152TIP3   OH218419   0.296   3.129   1.695 -0.4564  0.0746 -0.5215
 6152TIP3    H118420   0.294   3.219   1.663 -1.8621 -0.4329 -1.9870
 6152TIP3    H218421   0.206   3.111   1.721  0.2324 -0.2267  1.9220
 6153TIP3   OH218422   7.023   2.296   0.848  0.2897  0.3204  0.2977
 6153TIP3    H118423   7.042   2.390   0.856 -0.3348  0.3937  1.0802
 6153TIP3    H218424   7.097   2.261   0.799  0.8477  1.1183  0.5454
 6154TIP3   OH218425   6.849   2.247   5.841  0.7557  0.2311  0.1401
 6154TIP3    H118426   6.876   2.282   5.755 -0.4978 -0.6714 -0.6584
 6154TIP3    H218427   6.899   2.166   5.850 -0.0502 -0.3311 -0.3437
 6155TIP3   OH218428   5.171   0.951   2.556  0.2280 -0.3757  0.3099
 6155TIP3    H118429   5.086   0.969   2.595  0.2132 -1.4273  0.8027
 6155TIP3    H218430   5.181   1.018   2.489 -1.0881 -0.3688  0.0918
 6156TIP3   OH218431   6.400   1.887   4.654  0.5825 -0.2211 -0.1190
 6156TIP3    H118432   6.445   1.832   4.590  1.9243  0.2083  0.4219
 6156TIP3    H218433   6.438   1.974   4.642  1.2481 -0.2352  1.5820
 6157TIP3   OH218434   6.234   0.544   3.103 -0.5341  0.2158 -0.7752
 6157TIP3    H118435   6.201   0.599   3.175  0.0412 -0.8272  0.3202
 6157TIP3    H218436   6.158   0.530   3.047 -0.3509  3.6076 -2.1500
 6158TIP3   OH218437   6.648   2.512   5.597  0.8159 -0.4552  0.1419
 6158TIP3    H118438   6.723   2.452   5.593  1.5634  0.1577  2.8106
 6158TIP3    H218439   6.572   2.455   5.600  1.3713 -1.2110  0.3331
 6159TIP3   OH218440   4.188   6.567   0.941  0.2441 -0.5825  0.2122
 6159TIP3    H118441   4.184   6.626   1.017 -1.2816  0.2404 -0.4644
 6159TIP3    H218442   4.218   6.484   0.978  0.1103 -0.0396  1.6195
 6160TIP3   OH218443   5.314   3.419   2.215  0.0323 -0.2167 -0.3007
 6160TIP3    H118444   5.327   3.338   2.264  1.7784  0.3119  0.1832
 6160TIP3    H218445   5.388   3.475   2.240 -1.4501  1.7971 -0.1358
 6161TIP3   OH218446   4.239   6.671   4.783  0.7385  0.1159  0.1374
 6161TIP3    H118447   4.181   6.744   4.762 -0.2695 -0.2735  1.4498
 6161TIP3    H218448   4.299   6.707   4.849  0.7875  0.0011  0.1546
 6162TIP3   OH218449   3.482   1.894   2.037 -0.1401 -0.3407  0.5636
 6162TIP3    H118450   3.478   1.901   2.133 -0.8410  1.6478  0.4458
 6162TIP3    H218451   3.393   1.870   2.012 -0.7475  1.9409  0.3038
 6163TIP3   OH218452   3.603   2.414   5.555 -0.2918 -0.4485 -0.0697
 6163TIP3    H118453   3.529   2.399   5.614 -0.6208  0.1794 -0.3163
 6163TIP3    H218454   3.660   2.474   5.603 -1.0643  0.9081 -0.7746
 6164TIP3   OH218455   0.833   3.798   5.192 -0.2514 -0.2106 -0.4081
 6164TIP3    H118456   0.755   3.755   5.158 -0.3807  0.9646 -1.6546
 6164TIP3    H218457   0.873   3.733   5.250 -2.2205 -0.7711  0.3876
 6165TIP3   OH218458   1.506   1.841   3.186  0.1467  0.3589  0.7046
 6165TIP3    H118459   1.516   1.897   3.263 -3.7869  2.1113  0.2165
 6165TIP3    H218460   1.487   1.902   3.115  0.4868 -1.3932 -0.9595
 6166TIP3   OH218461   5.219   0.781   0.293 -0.1387  0.0080  0.0919
 6166TIP3    H118462   5.230   0.803   0.201  1.6050  1.3647  0.5801
 6166TIP3    H218463   5.200   0.864   0.335  2.8331  0.0918  1.4645
 6167TIP3   OH218464   2.693   1.134   5.537 -0.1981 -0.4540  0.1831
 6167TIP3    H118465   2.722   1.112   5.449 -0.3082 -0.1708  0.0733
 6167TIP3    H218466   2.764   1.104   5.594  1.1380  1.7515 -0.2092
 6168TIP3   OH218467   4.534   1.307   1.049  0.0738  0.0360  0.4195
 6168TIP3    H118468   4.621   1.288   1.015 -0.5430 -0.2856 -1.0958
 6168TIP3    H218469   4.516   1.396   1.019  0.2252  0.4511  1.5172
 6169TIP3   OH218470   2.155   0.479   1.734  0.0320 -0.1908  0.5454
 6169TIP3    H118471   2.102   0.428   1.672 -0.6571  0.1449  0.8509
 6169TIP3    H218472   2.126   0.569   1.721  2.2117  0.3829 -0.9889
 6170TIP3   OH218473   2.299   4.864   5.087  0.1870  0.5780 -0.8844
 6170TIP3    H118474   2.322   4.772   5.106  0.0399  0.2809 -2.0986
 6170TIP3    H218475   2.312   4.909   5.171 -1.2389 -0.8338  0.1728
 6171TIP3   OH218476   2.427   4.390   5.360 -0.2488 -0.0377 -0.1474
 6171TIP3    H118477   2.430   4.324   5.290 -0.6846  0.0696 -0.2719
 6171TIP3    H218478   2.516   4.424   5.365 -0.0743 -0.4746 -0.2392
 6172TIP3   OH218479   6.082   5.031   3.043 -0.4428  0.3478 -0.2480
 6172TIP3    H118480   6.106   5.052   2.953  0.5738  0.6340  0.0800
 6172TIP3    H218481   6.158   5.057   3.095 -0.5881 -0.7989  0.5785
 6173TIP3   OH218482   0.414   1.112   0.676  0.4382 -0.4310  0.2134
 6173TIP3    H118483   0.335   1.140   0.723 -0.2449  2.8139 -2.4106
 6173TIP3    H218484   0.481   1.104   0.743 -1.5360 -0.9244  2.2516
 6174TIP3   OH218485   0.533   6.794   2.129 -0.5895  0.0794  0.0165
 6174TIP3    H118486   0.533   6.727   2.198 -0.0437  1.3423  1.2886
 6174TIP3    H218487   0.443   6.796   2.098 -1.3082  0.6806  1.9441
 6175TIP3   OH218488   6.757   5.479   3.785  0.2440  0.1484 -0.1306
 6175TIP3    H118489   6.679   5.454   3.834 -0.1742  0.0864 -0.8135
 6175TIP3    H218490   6.768   5.410   3.719 -2.1716  2.6203 -3.4634
 6176TIP3   OH218491   0.759   1.241   3.122  0.4368 -0.7389  0.2125
 6176TIP3    H118492   0.711   1.172   3.167  0.5414 -0.3802  0.8828
 6176TIP3    H218493   0.716   1.322   3.149 -0.2145 -0.5794 -1.2170
 6177TIP3   OH218494   0.175   0.353   3.010 -0.0229 -0.2463 -0.0698
 6177TIP3    H118495   0.268   0.352   3.033  0.2263 -0.9511 -1.0429
 6177TIP3    H218496   0.164   0.278   2.953 -0.0159  2.6368 -4.3173
 6178TIP3   OH218497   3.136   1.642   4.271  0.0457 -0.7543 -0.1949
 6178TIP3    H118498   3.117   1.596   4.353  1.9035 -1.3526 -0.0568
 6178TIP3    H218499   3.228   1.625   4.255 -0.1298 -0.1236 -2.1108
 6179TIP3   OH218500   4.558   3.722   0.638 -0.2637  0.5859  0.3187
 6179TIP3    H118501   4.588   3.735   0.548  0.7573 -0.3174  0.5017
 6179TIP3    H218502   4.508   3.801   0.659  0.1092  1.1341 -0.7918
 6180TIP3   OH218503   1.472   4.818   1.812 -0.0553  0.3902 -0.2518
 6180TIP3    H118504   1.553   4.769   1.826  0.3218  0.8110 -0.8482
 6180TIP3    H218505   1.482   4.854   1.723 -0.4636  1.2427  0.0329
 6181TIP3   OH218506   5.041   2.062   1.454  0.6830 -0.3048 -0.0866
 6181TIP3    H118507   5.055   2.124   1.382  2.2989  0.0103  0.4450
 6181TIP3    H218508   4.996   2.113   1.520 -2.3828 -1.0457 -1.4423
 6182TIP3   OH218509   1.699   2.051   4.249  0.2685  0.3563 -0.1225
 6182TIP3    H118510   1.739   2.103   4.318 -0.1548  0.2815  0.1769
 6182TIP3    H218511   1.742   2.081   4.169  0.1622  1.0304  0.0701
 6183TIP3   OH218512   7.126   4.122   0.346  0.6024  0.1020 -0.0044
 6183TIP3    H118513   7.073   4.115   0.425  0.1317  0.1632 -0.3098
 6183TIP3    H218514   7.100   4.205   0.307  1.3176  0.3950  0.1179
 6184TIP3   OH218515   3.170   5.132   3.566 -0.2105  0.1397 -0.5452
 6184TIP3    H118516   3.152   5.053   3.617  1.2603  0.0491 -0.0962
 6184TIP3    H218517   3.147   5.204   3.625  0.0159  0.0360 -0.3274
 6185TIP3   OH218518   6.660   4.319   0.403  0.5359  0.0328 -0.6642
 6185TIP3    H118519   6.667   4.411   0.427 -0.0237  0.8405 -3.2537
 6185TIP3    H218520   6.584   4.287   0.452 -1.0764  1.7744 -1.8866
 6186TIP3   OH218521   6.907   6.783   5.777  0.1537 -0.6060  0.1700
 6186TIP3    H118522   6.908   6.690   5.756  1.5201 -0.7426  0.7037
 6186TIP3    H218523   6.837   6.793   5.841  0.3535 -1.3771  0.5216
 6187TIP3   OH218524   1.707   4.790   4.428  0.0597 -0.0078  0.1725
 6187TIP3    H118525   1.772   4.722   4.446 -0.1611 -0.6544 -1.2983
 6187TIP3    H218526   1.759   4.869   4.412  0.3615 -0.0227  1.0149
 6188TIP3   OH218527   3.242   0.630   1.488  0.4756  0.1313 -0.0081
 6188TIP3    H118528   3.331   0.658   1.469 -0.2675  2.4402 -0.4858
 6188TIP3    H218529   3.189   0.670   1.420 -0.6818 -3.9858 -1.8289
 6189TIP3   OH218530   3.121   4.712   3.069 -0.3234  0.3754  0.4153
 6189TIP3    H118531   3.059   4.672   3.007 -0.3359  0.9840  0.0274
 6189TIP3    H218532   3.094   4.804   3.075  1.4355  1.0469 -0.9423
 6190TIP3   OH218533   5.324   4.357   4.315  0.5926  0.0278  0.2514
 6190TIP3    H118534   5.396   4.326   4.259  0.2110  0.3730 -0.4539
 6190TIP3    H218535   5.262   4.285   4.316  0.8870 -0.2189  0.7496
 6191TIP3   OH218536   3.908   5.285   1.732  0.0583  0.2108  0.0109
 6191TIP3    H118537   3.930   5.314   1.821 -1.5289  1.1809  0.1210
 6191TIP3    H218538   3.863   5.360   1.693 -1.5807 -1.0944 -0.7153
 6192TIP3   OH218539   6.942   3.474   2.436  0.5637 -0.6780 -0.1213
 6192TIP3    H118540   6.907   3.524   2.362 -1.5010  0.0061  1.2471
 6192TIP3    H218541   7.018   3.428   2.399  0.5775  0.8771 -2.2466
 6193TIP3   OH218542   4.480   1.761   5.591 -0.1703 -0.4880 -0.8686
 6193TIP3    H118543   4.548   1.696   5.606 -0.4080 -0.6775 -0.5971
 6193TIP3    H218544   4.519   1.844   5.619  0.0991 -0.5298 -1.1225
 6194TIP3   OH218545   0.999   5.892   4.262  0.0702 -0.0043 -0.1855
 6194TIP3    H118546   0.932   5.864   4.324  2.5556  0.2981  2.9019
 6194TIP3    H218547   0.971   5.979   4.235 -1.0407 -0.0757  0.6404
 6195TIP3   OH218548   2.697   0.476   1.570 -0.5040  0.6940 -0.7682
 6195TIP3    H118549   2.622   0.426   1.602 -0.5326  0.4946 -1.1515
 6195TIP3    H218550   2.743   0.503   1.650 -1.4043  1.4795 -0.4977
 6196TIP3   OH218551   2.058   2.684   3.958 -0.5497 -0.4728 -0.0746
 6196TIP3    H118552   1.966   2.657   3.954 -0.6039 -1.1095  3.1774
 6196TIP3    H218553   2.055   2.778   3.973 -0.7836 -0.7783  1.9939
 6197TIP3   OH218554   3.167   2.161   4.633  0.3448  0.7321 -0.0774
 6197TIP3    H118555   3.172   2.093   4.700  0.2778  0.0382 -0.7671
 6197TIP3    H218556   3.258   2.178   4.610  0.3173 -0.1887 -0.9461
 6198TIP3   OH218557   1.832   4.183   2.183  0.1450  0.1393 -0.2672
 6198TIP3    H118558   1.819   4.088   2.179  1.2899  0.0099 -1.6116
 6198TIP3    H218559   1.854   4.208   2.094  0.2987  1.6208  0.1628
 6199TIP3   OH218560   1.904   5.735   2.836  0.1790 -0.5204 -0.4485
 6199TIP3    H118561   1.825   5.748   2.889 -0.4170  0.3151 -1.5009
 6199TIP3    H218562   1.943   5.822   2.830  1.7884 -1.0911  0.9218
 6200TIP3   OH218563   0.187   4.890   1.132 -0.3773 -0.8519  0.4848
 6200TIP3    H118564   0.266   4.930   1.170 -1.1168 -1.8812  3.4005
 6200TIP3    H218565   0.138   4.964   1.096  0.4276  0.2580  1.5606
 6201TIP3   OH218566  -0.011   6.267   3.359 -0.2935 -0.1444 -0.1081
 6201TIP3    H118567   0.063   6.279   3.419 -0.9690 -1.3433  1.0114
 6201TIP3    H218568   0.029   6.236   3.278  0.3817 -2.1608  0.9169
 6202TIP3   OH218569   5.116   3.534   0.898 -0.1137  0.1727 -0.0486
 6202TIP3    H118570   5.118   3.549   0.993 -0.2983 -0.6330  0.0893
 6202TIP3    H218571   5.169   3.456   0.885  0.9573  0.9894 -0.7679
 6203TIP3   OH218572   5.096   2.964   1.435  0.0659 -0.3123 -0.4498
 6203TIP3    H118573   5.189   2.979   1.416  0.4157 -0.4308  1.0332
 6203TIP3    H218574   5.050   3.017   1.371  1.1716  0.0062 -1.0050
 6204TIP3   OH218575   0.413   1.151   4.030  0.2999 -0.1776  0.4389
 6204TIP3    H118576   0.480   1.084   4.041  1.2682  0.3851 -1.4709
 6204TIP3    H218577   0.462   1.234   4.035 -0.6749  0.3637  1.5117
 6205TIP3   OH218578   2.524   1.551   1.858 -0.1833  0.6159  0.5234
 6205TIP3    H118579   2.452   1.609   1.832 -1.2313  0.3136  2.5030
 6205TIP3    H218580   2.492   1.463   1.839  1.1374  0.5731 -1.8448
 6206TIP3   OH218581   2.951   2.889   0.836  0.2018  0.6561  0.3583
 6206TIP3    H118582   2.939   2.972   0.883  0.5507  0.1858  1.2902
 6206TIP3    H218583   2.977   2.826   0.903  1.1462  0.0656 -0.5340
 6207TIP3   OH218584   2.884   5.601   4.515  0.3054 -0.5530 -0.3256
 6207TIP3    H118585   2.930   5.553   4.584  0.3925  0.4370  0.3289
 6207TIP3    H218586   2.953   5.646   4.468  0.1784 -0.6651 -0.6201
 6208TIP3   OH218587   3.467   0.060   5.463  0.1405  0.2599  0.0126
 6208TIP3    H118588   3.402   0.111   5.413  1.1990  3.8141  1.9018
 6208TIP3    H218589   3.420   0.034   5.542  0.3629  0.8887  0.3610
 6209TIP3   OH218590   0.747   3.165   2.565  0.0338 -0.5049  0.2288
 6209TIP3    H118591   0.748   3.079   2.606  1.1000 -0.5361  0.1780
 6209TIP3    H218592   0.707   3.151   2.479  1.8372 -1.3363 -0.5226
 6210TIP3   OH218593   4.946   5.163   0.995  0.2205  1.1510  0.2837
 6210TIP3    H118594   5.038   5.144   0.981 -0.0884  0.3910 -0.8593
 6210TIP3    H218595   4.900   5.112   0.928 -0.9274  2.6783 -0.1554
 6211TIP3   OH218596   0.862   6.181   4.893 -0.3980 -0.6164  0.0399
 6211TIP3    H118597   0.949   6.152   4.864  1.3442  2.4821  1.5756
 6211TIP3    H218598   0.827   6.106   4.941  1.8571 -1.6855  0.1634
 6212TIP3   OH218599   4.982   4.337   4.184  0.0834  0.2850 -0.2699
 6212TIP3    H118600   5.032   4.347   4.265  2.2703 -0.6069 -1.4278
 6212TIP3    H218601   4.975   4.426   4.150 -0.5707  0.6254  0.6968
 6213TIP3   OH218602   3.558   6.345   2.216  0.2014 -0.2239  0.2637
 6213TIP3    H118603   3.560   6.249   2.225  1.1426 -0.0521  2.5949
 6213TIP3    H218604   3.465   6.366   2.205 -0.2475 -1.2915  1.7248
 6214TIP3   OH218605   7.086   6.171   5.332  0.0963 -0.2005 -0.0956
 6214TIP3    H118606   7.154   6.105   5.342 -0.5462 -0.8292  0.1937
 6214TIP3    H218607   7.056   6.161   5.242  1.1840  0.8719 -0.5994
 6215TIP3   OH218608   5.359   5.992   3.312 -0.1340 -0.3791  0.1414
 6215TIP3    H118609   5.386   5.901   3.323 -0.7283 -0.4197  1.4211
 6215TIP3    H218610   5.265   5.992   3.330  0.2257  0.8053  2.4151
 6216TIP3   OH218611   5.908   0.206   3.152  0.1021  0.7039 -0.0307
 6216TIP3    H118612   5.815   0.224   3.136 -0.3836  0.5323  2.1940
 6216TIP3    H218613   5.954   0.255   3.084 -1.6155  0.4556 -1.4552
 6217TIP3   OH218614   0.521   3.326   4.515  0.1543 -0.3388  0.2962
 6217TIP3    H118615   0.553   3.267   4.583  0.2344  1.8659  2.3383
 6217TIP3    H218616   0.592   3.390   4.504 -0.9210  0.8509  0.0816
 6218TIP3   OH218617   2.121   1.589   3.892  0.0267  0.2803 -0.7686
 6218TIP3    H118618   2.151   1.677   3.915 -0.2572  0.0838  0.3838
 6218TIP3    H218619   2.036   1.603   3.850 -0.4793  0.5022  0.2991
 6219TIP3   OH218620   0.077   1.939   0.144 -0.0866 -0.6830  0.0252
 6219TIP3    H118621   0.056   1.854   0.182 -0.9162 -1.6917 -2.4687
 6219TIP3    H218622   0.116   1.989   0.216 -0.2576 -2.8945  1.7563
 6220TIP3   OH218623   1.781   4.465   1.435  0.4488 -0.1123 -0.0836
 6220TIP3    H118624   1.816   4.460   1.524  0.3444 -0.9484 -0.0835
 6220TIP3    H218625   1.741   4.552   1.430 -1.4633 -0.8316  1.4069
 6221TIP3   OH218626   4.424   3.717   2.187  0.0917 -0.4734  0.0988
 6221TIP3    H118627   4.456   3.627   2.188 -1.7974 -1.2207 -1.0758
 6221TIP3    H218628   4.441   3.747   2.097  0.7231  0.3771  0.4835
 6222TIP3   OH218629   7.222   0.969   5.301  0.2016  0.4278 -0.0125
 6222TIP3    H118630   7.233   1.015   5.217  1.8352  0.7772  0.3733
 6222TIP3    H218631   7.158   1.022   5.348  0.2061  0.9248 -0.5487
 6223TIP3   OH218632   3.454   6.523   0.533  0.1126  0.0710  0.8598
 6223TIP3    H118633   3.359   6.532   0.531 -0.1716 -2.1959  1.5128
 6223TIP3    H218634   3.475   6.472   0.456  0.5281 -1.2400  1.8049
 6224TIP3   OH218635   6.472   1.908   3.191 -0.4070  0.0678 -0.5819
 6224TIP3    H118636   6.478   1.842   3.122 -2.1596  0.8427 -1.5464
 6224TIP3    H218637   6.387   1.950   3.176 -0.4090  0.9078  1.4763
 6225TIP3   OH218638   4.618   4.856   3.771  0.1264  0.1611 -0.0512
 6225TIP3    H118639   4.607   4.893   3.859 -1.0446  0.2924 -0.2325
 6225TIP3    H218640   4.564   4.912   3.715  1.3755  0.4843 -0.9859
 6226TIP3   OH218641   1.618   5.474   3.477  0.1592  0.3188  0.1256
 6226TIP3    H118642   1.568   5.470   3.396  0.6237  0.5696 -0.1799
 6226TIP3    H218643   1.603   5.562   3.511  0.4581  0.4253 -0.0133
 6227TIP3   OH218644   6.952   3.387   0.149  0.1190 -0.1441  0.2564
 6227TIP3    H118645   6.873   3.414   0.195  0.0787 -0.5787  0.4484
 6227TIP3    H218646   6.978   3.464   0.099  1.2307  1.0020  2.4518
 6228TIP3   OH218647   0.256   5.809   4.767 -0.2342 -0.1114 -0.0063
 6228TIP3    H118648   0.334   5.808   4.711 -1.6350  0.1572 -2.0652
 6228TIP3    H218649   0.244   5.901   4.789 -1.0899  0.1279 -1.3885
 6229TIP3   OH218650   2.357   2.067   4.488  0.3440 -0.0513  0.6683
 6229TIP3    H118651   2.449   2.039   4.495 -0.1208 -1.7022  0.4307
 6229TIP3    H218652   2.351   2.140   4.549  2.4129  1.7687 -1.1022
 6230TIP3   OH218653   6.209   0.920   1.461 -0.6587  0.8671  0.5292
 6230TIP3    H118654   6.253   0.855   1.515  0.3410  1.5194  0.5116
 6230TIP3    H218655   6.127   0.938   1.507 -0.7716 -0.1083  0.7345
 6231TIP3   OH218656   4.609   6.432   1.215 -0.6553  0.0826 -0.0621
 6231TIP3    H118657   4.616   6.513   1.267 -2.6183 -1.2533  2.5391
 6231TIP3    H218658   4.700   6.407   1.200  0.0059  2.2625 -0.1445
 6232TIP3   OH218659   1.403   2.357   4.478  0.4715  0.0264 -0.0089
 6232TIP3    H118660   1.408   2.267   4.445 -0.1848 -0.2164  0.5191
 6232TIP3    H218661   1.460   2.407   4.420  0.9618 -0.7562 -0.2174
 6233TIP3   OH218662   4.451   2.986   4.556 -0.2044  0.4891  0.2548
 6233TIP3    H118663   4.449   2.950   4.645 -0.0650 -0.4161 -0.1017
 6233TIP3    H218664   4.446   2.910   4.499  3.1193  0.7393 -0.5552
 6234TIP3   OH218665   5.227   4.494   0.304  0.8616 -0.2009 -0.3806
 6234TIP3    H118666   5.144   4.477   0.348  0.4105  0.0394 -1.1364
 6234TIP3    H218667   5.246   4.586   0.322  0.3115  0.0993 -1.2796
 6235TIP3   OH218668   5.327   6.149   3.559 -0.5524  0.7000 -0.0121
 6235TIP3    H118669   5.337   6.182   3.649 -0.1137 -0.1123  0.2551
 6235TIP3    H218670   5.405   6.094   3.546 -2.2245 -1.9727  0.3684
 6236TIP3   OH218671   6.074   3.859   3.618 -0.4143 -0.1119  0.0839
 6236TIP3    H118672   6.109   3.819   3.539 -2.2473  0.5608 -1.1226
 6236TIP3    H218673   5.983   3.829   3.622 -0.8691  1.3012  0.9490
 6237TIP3   OH218674   0.981   3.998   4.147  0.0538  0.1478  0.7710
 6237TIP3    H118675   0.900   4.028   4.105  0.4930 -2.0526 -1.9908
 6237TIP3    H218676   0.951   3.953   4.226 -1.4864 -0.4789 -0.1098
 6238TIP3   OH218677   2.226   1.100   5.758  1.1645  1.0172 -0.5277
 6238TIP3    H118678   2.197   1.132   5.673 -1.0058 -3.9111 -2.0547
 6238TIP3    H218679   2.313   1.063   5.741  0.6962 -0.0411 -0.6960
 6239TIP3   OH218680   0.798   3.364   3.969  0.2962 -0.5399  0.1268
 6239TIP3    H118681   0.732   3.392   3.906  0.6185 -1.2124 -0.5347
 6239TIP3    H218682   0.785   3.420   4.045  0.5194  0.9460 -0.8961
 6240TIP3   OH218683   7.041   3.804   5.738  0.2225  0.2790  0.3335
 6240TIP3    H118684   7.073   3.884   5.697  0.3975  0.0863  0.0955
 6240TIP3    H218685   7.074   3.733   5.682 -0.0387  0.0483  0.4699
 6241TIP3   OH218686   5.996   0.793   2.491 -0.1608 -0.7235 -0.3489
 6241TIP3    H118687   6.048   0.759   2.419  0.3422 -1.5613  0.3924
 6241TIP3    H218688   5.909   0.755   2.477  0.6083 -3.2372  0.9923
 6242TIP3   OH218689   0.197   6.067   4.742 -0.5384 -0.2768 -0.1716
 6242TIP3    H118690   0.202   6.040   4.650  0.0082  1.0141 -0.5395
 6242TIP3    H218691   0.107   6.095   4.755 -0.1358  1.4520 -0.8952
 6243TIP3   OH218692   1.051   3.661   2.369 -0.6606 -0.5805 -0.1409
 6243TIP3    H118693   0.960   3.688   2.361 -0.6661 -0.6300 -0.2444
 6243TIP3    H218694   1.047   3.568   2.391 -0.6608 -0.3067  1.0830
 6244TIP3   OH218695   1.226   5.334   1.231  0.4793  0.1233  0.4703
 6244TIP3    H118696   1.220   5.381   1.314 -0.5357 -0.4783  0.7629
 6244TIP3    H218697   1.135   5.319   1.206  0.7806 -0.7807 -0.1271
 6245TIP3   OH218698   3.837   3.694   3.683  0.0035  0.5523 -0.1845
 6245TIP3    H118699   3.869   3.608   3.710  2.2158  1.3140 -0.1665
 6245TIP3    H218700   3.788   3.677   3.603 -0.6522 -0.8544  0.4822
 6246TIP3   OH218701   1.352   4.818   5.007 -0.2033  0.1695 -1.0631
 6246TIP3    H118702   1.326   4.738   5.052  1.3031 -0.1383 -0.6690
 6246TIP3    H218703   1.443   4.802   4.982 -0.1669  1.4146 -1.7800
 6247TIP3   OH218704   2.161   0.743   1.625 -0.1307 -0.0410 -0.2422
 6247TIP3    H118705   2.209   0.769   1.547 -0.7357 -1.8091 -1.2734
 6247TIP3    H218706   2.108   0.819   1.648  1.3790  1.1192 -0.4601
 6248TIP3   OH218707   1.051   3.236   4.079  0.4675  0.0921 -0.3110
 6248TIP3    H118708   0.988   3.286   4.028  1.5586  1.7923 -0.0637
 6248TIP3    H218709   1.048   3.148   4.043  0.3995  0.9690 -2.5626
 6249TIP3   OH218710   4.889   3.467   3.786 -0.6949  0.0730 -0.0261
 6249TIP3    H118711   4.948   3.412   3.735 -0.5147  0.2195  0.0221
 6249TIP3    H218712   4.809   3.472   3.733 -0.4458  0.3672 -0.3815
 6250TIP3   OH218713   2.024   2.748   5.776 -0.3282  0.1749  0.3199
 6250TIP3    H118714   2.097   2.797   5.816 -0.6284  0.2043  0.8435
 6250TIP3    H218715   2.036   2.760   5.682 -0.4896  1.4181  0.4380
 6251TIP3   OH218716   3.763   6.178   4.361  0.1297 -0.1854  0.6432
 6251TIP3    H118717   3.783   6.155   4.452 -1.4990 -1.5007  0.7093
 6251TIP3    H218718   3.725   6.099   4.324 -1.4565  1.0340 -0.4779
 6252TIP3   OH218719   5.488   4.077   2.038  0.2782  0.1276 -0.1876
 6252TIP3    H118720   5.572   4.064   2.082  0.0400 -0.2789  0.1509
 6252TIP3    H218721   5.423   4.037   2.096 -0.5975  3.2794  1.2312
 6253TIP3   OH218722   1.929   3.018   4.829 -0.1358  0.1986  0.0854
 6253TIP3    H118723   1.931   2.926   4.856  0.5746  0.3038  0.4360
 6253TIP3    H218724   1.847   3.028   4.781 -0.5523 -0.4472  0.6468
 6254TIP3   OH218725   2.067   4.654   2.835 -0.1506  0.4057 -0.0341
 6254TIP3    H118726   2.002   4.588   2.858  1.0154 -1.6049 -2.0369
 6254TIP3    H218727   2.140   4.638   2.894 -0.0966  0.2800 -0.1341
 6255TIP3   OH218728   4.377   0.322   1.996 -0.2872 -0.3533 -0.3479
 6255TIP3    H118729   4.416   0.378   2.064  0.4056 -0.8348 -0.3474
 6255TIP3    H218730   4.342   0.247   2.044  0.0048 -0.5852 -0.4923
 6256TIP3   OH218731   5.861   3.768   5.057  0.2587  0.0623  0.1949
 6256TIP3    H118732   5.860   3.779   5.153 -0.6387  0.8135  0.1167
 6256TIP3    H218733   5.770   3.779   5.031  0.3440 -1.1202 -0.6610
 6257TIP3   OH218734   0.978   2.871   0.466 -0.6744  0.1861  0.0374
 6257TIP3    H118735   0.892   2.829   0.470 -0.7784  0.4548  1.0464
 6257TIP3    H218736   1.040   2.801   0.485 -0.5944 -0.1835 -1.5004
 6258TIP3   OH218737   1.828   6.723   1.455 -0.8387 -0.0871  0.4018
 6258TIP3    H118738   1.862   6.718   1.366 -0.7568  0.5617  0.3950
 6258TIP3    H218739   1.833   6.816   1.478  2.1183 -0.5562  2.2173
 6259TIP3   OH218740   2.263   2.999   4.298 -0.0622  0.0433  0.3286
 6259TIP3    H118741   2.271   3.093   4.281 -1.0602  0.0602 -0.1673
 6259TIP3    H218742   2.266   2.991   4.393 -1.6077  0.7766  0.4704
 6260TIP3   OH218743   1.618   0.314   3.189 -1.0415  0.0021  0.2119
 6260TIP3    H118744   1.611   0.308   3.284  0.1371  1.0877  0.4004
 6260TIP3    H218745   1.645   0.405   3.172 -1.4915 -0.0885 -1.1802
 6261TIP3   OH218746   6.194   0.888   2.631 -0.6196  0.5270 -0.4594
 6261TIP3    H118747   6.239   0.835   2.697  0.3735 -0.1500 -1.6459
 6261TIP3    H218748   6.142   0.825   2.581 -0.9213  0.9481 -0.6797
 6262TIP3   OH218749   4.029   1.785   0.702  0.2671  0.6260  0.3283
 6262TIP3    H118750   4.041   1.797   0.796 -1.0520  1.1145  0.4561
 6262TIP3    H218751   3.939   1.814   0.685 -0.3194 -1.6141 -0.7096
 6263TIP3   OH218752   0.742   6.598   3.526  0.0027  0.0818  0.0210
 6263TIP3    H118753   0.651   6.573   3.543 -0.1980  0.7165 -0.0787
 6263TIP3    H218754   0.753   6.585   3.431 -0.2378  0.7772 -0.1084
 6264TIP3   OH218755   4.815   3.971   4.628 -0.0904  0.1258 -0.5104
 6264TIP3    H118756   4.831   3.894   4.574  1.4077  1.1476 -1.6082
 6264TIP3    H218757   4.887   3.972   4.691  0.6951  1.3312 -1.3839
 6265TIP3   OH218758   3.301   3.918   0.674 -0.1566 -0.0093  0.2026
 6265TIP3    H118759   3.353   3.856   0.725 -0.9309  0.6358  1.8541
 6265TIP3    H218760   3.365   3.975   0.632  0.4970 -0.3702  0.6945
 6266TIP3   OH218761   6.491   0.500   0.784  0.1191 -0.6631 -0.3561
 6266TIP3    H118762   6.559   0.448   0.826  1.5529  0.4152 -1.2424
 6266TIP3    H218763   6.486   0.580   0.837  1.3829  0.3573 -1.6573
 6267TIP3   OH218764   4.520   0.185   1.776 -0.2046 -0.2169  0.4125
 6267TIP3    H118765   4.453   0.145   1.831  2.2324 -0.5372  3.3664
 6267TIP3    H218766   4.578   0.113   1.753 -0.4195  0.1795 -1.5385
 6268TIP3   OH218767   2.315   3.875   5.721 -0.0694 -0.1964  0.3203
 6268TIP3    H118768   2.401   3.859   5.683 -1.3524 -0.5225 -2.7478
 6268TIP3    H218769   2.280   3.788   5.739 -0.2303 -0.1099  0.4284
 6269TIP3   OH218770   6.234   3.540   4.344 -0.3516  0.1350  0.2482
 6269TIP3    H118771   6.155   3.582   4.376  0.2607  1.6957 -0.1942
 6269TIP3    H218772   6.292   3.535   4.420  0.5792  2.5839 -0.2303
 6270TIP3   OH218773   0.435   2.507   1.304  0.1113 -0.5751  0.0282
 6270TIP3    H118774   0.462   2.557   1.382  0.8255  0.5209 -0.8815
 6270TIP3    H218775   0.433   2.572   1.234 -0.6247 -1.5257 -0.8607
 6271TIP3   OH218776   3.849   4.108   3.234 -0.0736 -0.3791 -0.1989
 6271TIP3    H118777   3.819   4.070   3.317  0.3264  0.5365  0.3820
 6271TIP3    H218778   3.831   4.041   3.169 -0.0579 -1.2645  0.6889
 6272TIP3   OH218779   5.099   5.840   1.939 -0.0670 -0.5943 -0.2930
 6272TIP3    H118780   5.004   5.839   1.946 -0.0524  0.1525  0.1153
 6272TIP3    H218781   5.117   5.870   1.850 -0.2249  0.9525  0.1572
 6273TIP3   OH218782   5.011   3.662   4.823  0.6448  0.1742 -0.0330
 6273TIP3    H118783   5.076   3.713   4.775  1.5278 -0.3334  0.5884
 6273TIP3    H218784   5.060   3.588   4.859  0.0220  0.5500  1.6704
 6274TIP3   OH218785   5.810   3.690   1.069 -0.0317 -0.2268 -0.4946
 6274TIP3    H118786   5.769   3.647   1.143 -1.6279 -0.3069 -1.3772
 6274TIP3    H218787   5.791   3.783   1.080 -0.6287 -0.2823 -1.0001
 6275TIP3   OH218788   5.627   0.817   5.113 -0.5865 -0.3060 -0.1131
 6275TIP3    H118789   5.702   0.876   5.106  0.9651 -2.1036  0.1978
 6275TIP3    H218790   5.582   0.845   5.193  1.5775 -1.0179  1.4743
 6276TIP3   OH218791   1.524   0.057   4.283  0.1034 -0.0858 -0.0679
 6276TIP3    H118792   1.545  -0.009   4.349 -1.5758  0.5740  1.1980
 6276TIP3    H218793   1.568   0.137   4.313  1.5220 -0.3966 -1.2054
 6277TIP3   OH218794   2.393   4.771   5.862  0.3085 -0.2149 -0.9973
 6277TIP3    H118795   2.452   4.844   5.843  0.0844 -0.5187 -3.0612
 6277TIP3    H218796   2.451   4.695   5.869  0.1680 -0.7951 -4.5688
 6278TIP3   OH218797   0.028   4.956   0.732  0.1238 -0.2136  0.3462
 6278TIP3    H118798  -0.029   5.001   0.670 -0.6384  1.8680  2.3959
 6278TIP3    H218799   0.109   4.939   0.682 -0.8186  0.3975 -1.4799
 6279TIP3   OH218800   3.172   5.223   2.626 -0.5252 -0.2343  0.0662
 6279TIP3    H118801   3.125   5.154   2.581 -0.9004  0.7222 -1.0546
 6279TIP3    H218802   3.125   5.303   2.605 -0.6564  0.2887  2.0953
 6280TIP3   OH218803   7.145   2.950   2.633 -0.6125 -0.2901  0.5020
 6280TIP3    H118804   7.222   2.989   2.674 -0.1472 -1.0651  0.3936
 6280TIP3    H218805   7.092   3.024   2.605  0.0826  0.2522  0.6087
 6281TIP3   OH218806   4.040   2.700   5.270  0.0806  0.1282  0.6374
 6281TIP3    H118807   3.966   2.736   5.220  0.8815  1.2984  0.2441
 6281TIP3    H218808   4.011   2.613   5.297 -0.3069 -0.6415 -2.0199
 6282TIP3   OH218809   4.266   2.941   0.867  0.5424  0.1572 -0.1707
 6282TIP3    H118810   4.187   2.932   0.919  0.7719 -0.0414  0.1530
 6282TIP3    H218811   4.337   2.915   0.927  0.8270  0.1168 -0.5213
 6283TIP3   OH218812   4.768   4.435   5.153 -0.1874  0.2596 -0.1464
 6283TIP3    H118813   4.801   4.345   5.156 -1.6237 -0.2856 -0.0781
 6283TIP3    H218814   4.716   4.439   5.073 -0.0508  1.0703 -0.2044
 6284TIP3   OH218815   6.250   1.467   2.217 -0.0616 -0.2147 -0.3208
 6284TIP3    H118816   6.174   1.504   2.262 -0.7750 -1.8256 -0.1451
 6284TIP3    H218817   6.215   1.428   2.137  0.8689  0.6067 -1.1617
 6285TIP3   OH218818   2.420   0.828   0.193  0.3011  0.4413  0.5242
 6285TIP3    H118819   2.397   0.920   0.194 -0.1937  0.3311  1.7858
 6285TIP3    H218820   2.465   0.814   0.109 -1.2267  1.4135 -0.4995
 6286TIP3   OH218821   1.239   5.731   1.193 -0.3290  0.2133 -0.3467
 6286TIP3    H118822   1.147   5.754   1.178 -0.7780 -1.5282 -0.4060
 6286TIP3    H218823   1.264   5.680   1.116  0.0307 -1.1365  0.6252
 6287TIP3   OH218824   5.638   4.721   4.269 -0.1943  0.0074 -0.0169
 6287TIP3    H118825   5.727   4.717   4.234 -0.1743 -0.6321  0.1097
 6287TIP3    H218826   5.631   4.809   4.305  0.4411  0.0044  0.1249
 6288TIP3   OH218827   6.315   5.672   1.292 -0.3646 -0.4803  0.0724
 6288TIP3    H118828   6.336   5.764   1.275 -1.0472 -0.5741 -1.4599
 6288TIP3    H218829   6.382   5.623   1.245  0.1656 -0.7886  1.1209
 6289TIP3   OH218830   4.921   6.544   3.130 -0.0977 -0.6444  0.0406
 6289TIP3    H118831   4.950   6.621   3.083  1.6700 -1.8175 -0.8857
 6289TIP3    H218832   4.878   6.489   3.064  0.6576 -1.4341  0.1818
 6290TIP3   OH218833   1.129   2.560   0.300  0.0041 -0.0067 -0.2053
 6290TIP3    H118834   1.065   2.490   0.309 -0.3211  0.2436 -0.5548
 6290TIP3    H218835   1.146   2.588   0.390 -0.4387 -0.0191 -0.1167
 6291TIP3   OH218836   4.965   3.332   2.061  0.1894  0.1268  0.0198
 6291TIP3    H118837   4.908   3.287   1.999  0.5006 -2.4244  1.4412
 6291TIP3    H218838   4.933   3.422   2.063 -1.0916 -0.2168 -2.2802
 6292TIP3   OH218839   1.997   2.910   0.758 -0.4132 -0.2332  0.8004
 6292TIP3    H118840   1.959   2.993   0.727  0.4148 -0.3122 -0.5148
 6292TIP3    H218841   2.043   2.934   0.839 -0.9328  0.4040  0.9206
 6293TIP3   OH218842   3.064   0.184   0.436 -0.7536  0.3493 -0.4223
 6293TIP3    H118843   3.100   0.196   0.523 -3.2397 -0.0345  0.7386
 6293TIP3    H218844   3.002   0.112   0.445 -1.0167  0.2305 -2.5422
 6294TIP3   OH218845   4.488   3.316   1.465 -0.1413  0.0657 -0.2753
 6294TIP3    H118846   4.464   3.404   1.437 -0.4668 -0.5459 -2.0501
 6294TIP3    H218847   4.509   3.269   1.384 -1.5453 -1.9570  0.4401
 6295TIP3   OH218848   6.539   5.159   5.254 -0.0022 -0.3583  0.6064
 6295TIP3    H118849   6.482   5.086   5.230  0.0633 -0.7860  1.7144
 6295TIP3    H218850   6.594   5.125   5.324 -0.8203  1.1255  2.0253
 6296TIP3   OH218851   2.099   5.385   1.413  0.5063 -0.6502 -0.0503
 6296TIP3    H118852   2.094   5.339   1.497  1.7612 -2.2247 -0.7847
 6296TIP3    H218853   2.009   5.383   1.380 -0.2806  1.0929  1.7431
 6297TIP3   OH218854   1.326   6.165   4.364 -0.2600 -0.5769 -0.1607
 6297TIP3    H118855   1.288   6.153   4.276 -2.6431 -0.0071  0.7217
 6297TIP3    H218856   1.272   6.232   4.405  2.8207  1.6202  0.6669
 6298TIP3   OH218857   2.790   4.978   0.622 -0.9043 -0.6586  0.4022
 6298TIP3    H118858   2.827   5.065   0.608  0.0064 -1.3718 -1.9157
 6298TIP3    H218859   2.695   4.991   0.613 -0.6948 -0.1081 -1.3057
 6299TIP3   OH218860   0.613   6.675   4.803  0.4931 -0.3860  0.1996
 6299TIP3    H118861   0.652   6.763   4.811 -1.5295  0.5710  0.0734
 6299TIP3    H218862   0.623   6.653   4.710  0.0301  0.2224 -0.0065
 6300TIP3   OH218863   2.511   3.113   3.190 -0.1437 -0.9814  0.0771
 6300TIP3    H118864   2.459   3.181   3.233  0.8491 -0.2206  0.0956
 6300TIP3    H218865   2.543   3.155   3.110  0.5309 -1.4058  0.1205
 6301TIP3   OH218866   1.904   3.739   4.932  0.1929 -0.5023 -0.4388
 6301TIP3    H118867   1.892   3.693   5.015 -0.1373 -3.3045 -1.9108
 6301TIP3    H218868   1.835   3.806   4.931  1.0939  0.6077  2.0751
 6302TIP3   OH218869   4.925   0.683   0.671  0.2082  0.1892 -0.4446
 6302TIP3    H118870   5.002   0.721   0.713  0.9021 -0.3366 -1.2287
 6302TIP3    H218871   4.947   0.591   0.659 -0.3396  0.1418 -1.1457
 6303TIP3   OH218872   3.070   4.574   5.601  0.4809  0.6262  0.7469
 6303TIP3    H118873   3.066   4.510   5.672 -0.6764 -0.4206 -0.2354
 6303TIP3    H218874   3.122   4.532   5.533  2.2904  1.9414  1.2058
 6304TIP3   OH218875   5.497   5.199   3.929  0.2309  0.1073 -0.5657
 6304TIP3    H118876   5.446   5.123   3.899 -1.5952  0.6631  0.9865
 6304TIP3    H218877   5.432   5.266   3.947  1.6022  1.1524  0.6767
 6305TIP3   OH218878   0.688   1.656   3.472 -0.6169 -0.0838 -0.8286
 6305TIP3    H118879   0.705   1.632   3.563 -0.9691 -0.1275 -0.7718
 6305TIP3    H218880   0.678   1.752   3.474  0.2835  0.0265 -0.9738
 6306TIP3   OH218881   0.439   0.026   5.311  0.4109  0.0291 -0.1302
 6306TIP3    H118882   0.380  -0.015   5.374  0.0210  1.6297  0.5980
 6306TIP3    H218883   0.381   0.055   5.240 -0.0516  3.0968  1.3474
 6307TIP3   OH218884   4.493   3.558   5.392  0.0565 -0.1083 -0.5748
 6307TIP3    H118885   4.553   3.575   5.464  0.5787  0.6318 -1.1835
 6307TIP3    H218886   4.522   3.615   5.321 -2.0149  1.0962 -0.5275
 6308TIP3   OH218887   5.815   1.181   4.356 -0.2517  0.3705  0.1237
 6308TIP3    H118888   5.743   1.202   4.296  0.7323 -0.2884 -1.3521
 6308TIP3    H218889   5.894   1.190   4.302  0.6088 -1.2625  1.0374
 6309TIP3   OH218890   2.060   0.883   2.549 -0.2371 -0.1483 -0.2278
 6309TIP3    H118891   2.078   0.810   2.608 -0.1802 -1.6832 -2.0842
 6309TIP3    H218892   1.981   0.856   2.501 -0.5024  1.2299 -0.6107
 6310TIP3   OH218893   0.826   3.500   0.447  0.2311 -0.3731 -0.1720
 6310TIP3    H118894   0.866   3.587   0.444 -0.4693 -0.0020  0.8110
 6310TIP3    H218895   0.860   3.456   0.369 -0.0204  1.0530 -1.1413
 6311TIP3   OH218896   3.836   6.018   4.872  0.2211 -0.0786 -0.0332
 6311TIP3    H118897   3.782   6.072   4.930  0.4953  0.6557 -0.4583
 6311TIP3    H218898   3.785   5.938   4.861 -0.6537  0.4806 -0.1887
 6312TIP3   OH218899   5.906   1.418   0.059  0.1350  0.0156  0.3414
 6312TIP3    H118900   5.944   1.486   0.114  0.0850  0.9421 -0.7478
 6312TIP3    H218901   5.924   1.446  -0.031  0.7389 -1.7491 -0.1453
 6313TIP3   OH218902   0.828   5.687   5.747 -0.2338  0.3658  0.1049
 6313TIP3    H118903   0.856   5.625   5.814 -2.2017  1.2857  1.9256
 6313TIP3    H218904   0.897   5.753   5.745 -0.4336  0.6877  1.8121
 6314TIP3   OH218905   4.497   4.003   1.529  0.1009 -0.2814  0.5473
 6314TIP3    H118906   4.563   4.057   1.572  0.3315  0.3716 -0.5838
 6314TIP3    H218907   4.521   4.005   1.436  0.0212 -2.2186  0.4488
 6315TIP3   OH218908   2.519   2.622   4.598 -0.0367  0.1229  0.0138
 6315TIP3    H118909   2.574   2.677   4.543  0.0049  0.5433  0.4687
 6315TIP3    H218910   2.574   2.600   4.673 -0.4505  0.4714  0.4285
 6316TIP3   OH218911   0.477   4.253   5.060 -0.6083  0.2272  0.9577
 6316TIP3    H118912   0.502   4.345   5.056  1.1184 -0.2314  0.6503
 6316TIP3    H218913   0.397   4.253   5.113 -2.2864  2.1858 -1.3520
 6317TIP3   OH218914   0.285   1.785   4.494 -0.4530  0.5148 -0.1639
 6317TIP3    H118915   0.323   1.718   4.437  1.6543  1.2307  0.2978
 6317TIP3    H218916   0.277   1.741   4.579  0.4178  0.6754  0.0075
 6318TIP3   OH218917   6.933   6.461   2.861 -0.2352 -0.3386  0.5729
 6318TIP3    H118918   6.990   6.397   2.818 -2.6179 -2.9112  0.9054
 6318TIP3    H218919   6.971   6.472   2.948 -1.0422 -3.3923  1.4347
 6319TIP3   OH218920   6.219   4.410   3.339  0.1084 -0.1598 -0.4022
 6319TIP3    H118921   6.286   4.368   3.393 -0.7209 -0.2926  0.5603
 6319TIP3    H218922   6.259   4.492   3.310  0.6753 -0.2180  0.1900
 6320TIP3   OH218923   6.076   4.853   1.204 -0.4664  0.2798 -0.2879
 6320TIP3    H118924   5.995   4.859   1.154 -0.7974  1.0132  0.3082
 6320TIP3    H218925   6.145   4.864   1.139 -0.8505 -0.1586 -0.7726
 6321TIP3   OH218926   1.498   6.186   4.994  0.4915  0.0348 -0.2785
 6321TIP3    H118927   1.509   6.101   4.952  3.9047 -1.2134  2.6293
 6321TIP3    H218928   1.569   6.240   4.958 -0.1695  0.8823 -0.3436
 6322TIP3   OH218929   1.749   5.506   5.380 -0.3831 -0.5595  0.1857
 6322TIP3    H118930   1.830   5.489   5.429  0.2997  1.1890 -0.2675
 6322TIP3    H218931   1.764   5.466   5.294 -0.8463 -2.0171  0.7546
 6323TIP3   OH218932   6.942   3.400   3.749 -0.1744  0.4878 -0.0215
 6323TIP3    H118933   7.010   3.450   3.793 -0.4244  1.0725 -0.2978
 6323TIP3    H218934   6.887   3.465   3.706 -0.1161 -0.0486 -0.9515
 6324TIP3   OH218935   1.916   5.349   3.723  0.2894 -0.7307 -0.1596
 6324TIP3    H118936   1.925   5.428   3.670 -0.6864  0.4356  1.3417
 6324TIP3    H218937   1.826   5.351   3.756  0.9545 -1.1848  1.8340
 6325TIP3   OH218938   4.974   1.673   1.434  0.1489  0.8318 -0.3416
 6325TIP3    H118939   5.047   1.629   1.478 -1.1056 -1.5743 -0.4669
 6325TIP3    H218940   5.012   1.704   1.351  0.7676 -1.8661 -1.1979
 6326TIP3   OH218941   1.812   5.345   4.119 -0.4910 -0.3397 -0.1571
 6326TIP3    H118942   1.723   5.374   4.101 -0.6832 -2.1505 -2.7581
 6326TIP3    H218943   1.868   5.409   4.076 -0.4233  1.1704  2.0415
 6327TIP3   OH218944   4.142   6.695   3.252  0.0717 -0.3249 -0.5315
 6327TIP3    H118945   4.090   6.772   3.276 -0.2622 -0.7562  0.1712
 6327TIP3    H218946   4.161   6.706   3.159 -0.6695  0.1958 -0.6271
 6328TIP3   OH218947   1.939   3.519   5.545  0.5228  0.8508  0.3804
 6328TIP3    H118948   1.959   3.602   5.501  0.6638  1.2965  1.2739
 6328TIP3    H218949   1.852   3.533   5.583 -0.9874 -0.5661 -2.2364
 6329TIP3   OH218950   4.434   5.214   2.166  0.3129 -0.3121 -0.2835
 6329TIP3    H118951   4.475   5.300   2.178  0.5646 -0.4674 -0.0039
 6329TIP3    H218952   4.447   5.194   2.073 -0.1318  0.1409 -0.4510
 6330TIP3   OH218953   4.460   3.422   4.584 -0.3362  0.1778  0.0370
 6330TIP3    H118954   4.467   3.509   4.544 -0.8530  0.4546  0.5253
 6330TIP3    H218955   4.550   3.390   4.588 -0.1368  0.7063 -0.1185
 6331TIP3   OH218956   5.765   3.122   1.409  0.0971  0.1561  0.0142
 6331TIP3    H118957   5.710   3.087   1.479  0.5736 -2.1866 -0.7009
 6331TIP3    H218958   5.854   3.099   1.435  0.1911 -2.1211 -1.9967
 6332TIP3   OH218959   2.672   1.230   4.386  0.5302  0.3418 -0.4773
 6332TIP3    H118960   2.595   1.280   4.359 -0.0407  0.1841  0.7869
 6332TIP3    H218961   2.638   1.144   4.408  1.3703 -0.3468 -1.7102
 6333TIP3   OH218962   0.099   0.919   2.375  0.4024 -0.6250  0.1221
 6333TIP3    H118963   0.058   0.838   2.405  1.0578 -1.2280 -0.5676
 6333TIP3    H218964   0.044   0.949   2.303 -1.1790  0.8300  1.8154
 6334TIP3   OH218965   0.775   0.454   1.392 -0.1958 -0.0982 -0.3048
 6334TIP3    H118966   0.762   0.549   1.390 -1.7355 -0.3060 -0.9924
 6334TIP3    H218967   0.839   0.438   1.322  0.1287  0.4383 -0.1366
 6335TIP3   OH218968   2.576   2.192   2.482  0.7937 -0.4070  0.2387
 6335TIP3    H118969   2.523   2.244   2.542 -1.7342 -1.0778 -1.2426
 6335TIP3    H218970   2.611   2.256   2.419  1.1677 -0.0418  0.8073
 6336TIP3   OH218971   2.467   6.363   1.696 -0.4343  0.0793 -0.0899
 6336TIP3    H118972   2.521   6.363   1.775 -0.9258  1.6186  0.2654
 6336TIP3    H218973   2.378   6.370   1.728 -0.7105 -0.2622 -0.7632
 6337TIP3   OH218974   1.961   0.308   1.597 -0.2761 -0.2861 -0.2030
 6337TIP3    H118975   1.920   0.260   1.525  0.4482 -1.9976  0.4740
 6337TIP3    H218976   1.889   0.353   1.641 -0.6753  1.1799 -2.2271
 6338TIP3   OH218977   1.172   0.658   4.488  0.6108  0.2009 -0.2489
 6338TIP3    H118978   1.187   0.564   4.473  1.1769  0.5183 -1.8571
 6338TIP3    H218979   1.226   0.679   4.564  1.5587 -0.4944 -0.7160
 6339TIP3   OH218980   6.540   0.881   1.822 -0.3016  0.2633 -0.0080
 6339TIP3    H118981   6.601   0.909   1.754 -1.7821  1.3715 -0.9413
 6339TIP3    H218982   6.462   0.935   1.808 -0.6205  0.5884  2.6665
 6340TIP3   OH218983   5.500   5.537   2.321 -0.1991  0.0327 -0.0227
 6340TIP3    H118984   5.470   5.447   2.317  0.9752 -0.4018  0.6358
 6340TIP3    H218985   5.549   5.550   2.240 -0.0541 -0.0463  0.0510
 6341TIP3   OH218986   1.152   1.691   2.994 -0.4005 -0.3731 -0.1765
 6341TIP3    H118987   1.195   1.605   2.995 -0.4953 -0.4389  1.7540
 6341TIP3    H218988   1.160   1.723   3.084  0.3604  2.0395 -1.0366
 6342TIP3   OH218989   0.219   5.542   4.792  0.0553 -0.2352 -0.5589
 6342TIP3    H118990   0.155   5.530   4.863  0.1871 -0.3470 -0.4581
 6342TIP3    H218991   0.244   5.634   4.798  1.3455 -0.6303  0.6384
 6343TIP3   OH218992   0.347   0.279   2.461  0.0557  0.1344 -0.0163
 6343TIP3    H118993   0.337   0.266   2.555 -1.2645 -1.4983 -0.3438
 6343TIP3    H218994   0.393   0.201   2.431  0.1569  0.4817 -0.7779
 6344TIP3   OH218995   3.322   6.336   5.102  0.5218 -0.1460  0.4747
 6344TIP3    H118996   3.310   6.414   5.158 -1.9749 -0.9770  1.2487
 6344TIP3    H218997   3.291   6.364   5.016 -2.1887 -0.7004  1.1806
 6345TIP3   OH218998   0.713   1.765   4.586  0.1753 -0.5197 -0.4558
 6345TIP3    H118999   0.709   1.805   4.673 -0.1839 -0.9877 -0.2564
 6345TIP3    H219000   0.788   1.706   4.590 -0.1324 -0.9057 -0.3046
 6346TIP3   OH219001   4.335   5.422   5.638  0.2533 -0.0799 -0.1142
 6346TIP3    H119002   4.326   5.494   5.700 -0.4032 -1.9528  2.1093
 6346TIP3    H219003   4.429   5.405   5.634  0.3498  0.4501 -0.1162
 6347TIP3   OH219004   2.427   1.287   1.787  0.4301 -0.0182 -0.0696
 6347TIP3    H119005   2.418   1.255   1.877 -0.6078 -0.0393 -0.1771
 6347TIP3    H219006   2.449   1.209   1.736  2.2619  0.1799  0.3228
 6348TIP3   OH219007   5.778   6.039   3.150  0.5491  0.0167 -0.1528
 6348TIP3    H119008   5.735   5.980   3.089  1.4775  0.8867 -1.7005
 6348TIP3    H219009   5.718   6.113   3.159  0.5523  0.0300 -0.2442
 6349TIP3   OH219010   3.698   6.486   5.731 -0.0874  0.4873 -0.5209
 6349TIP3    H119011   3.745   6.557   5.775  0.0391 -0.0187  0.1805
 6349TIP3    H219012   3.763   6.448   5.671  1.0811 -1.4480  1.8212
 6350TIP3   OH219013   4.112   3.192   4.076  0.1409 -0.1096 -0.1297
 6350TIP3    H119014   4.165   3.133   4.022  1.0345  0.9912 -0.4922
 6350TIP3    H219015   4.101   3.144   4.159  3.2406  0.2857  0.6483
 6351TIP3   OH219016   2.446   0.389   3.549  0.0369  0.4527 -0.2119
 6351TIP3    H119017   2.406   0.417   3.466  1.8088  0.9758 -0.9369
 6351TIP3    H219018   2.477   0.469   3.589  1.1199 -0.0109 -0.0959
 6352TIP3   OH219019   3.745   0.077   2.254 -0.1152  0.1275  0.4937
 6352TIP3    H119020   3.787   0.086   2.169 -0.7513 -1.6801 -0.0554
 6352TIP3    H219021   3.652   0.090   2.237 -0.2521 -0.2666  0.9085
 6353TIP3   OH219022   6.540   0.141   4.713  0.8181 -0.0542  0.1482
 6353TIP3    H119023   6.482   0.185   4.775  0.5709 -0.7866  0.4466
 6353TIP3    H219024   6.589   0.212   4.671  0.5161  0.4907  0.7076
 6354TIP3   OH219025   1.163   3.040   2.201 -0.0216 -0.1432  0.2096
 6354TIP3    H119026   1.245   2.990   2.198 -0.0380 -0.1210 -0.6162
 6354TIP3    H219027   1.161   3.089   2.119 -1.6190 -1.3418 -0.5106
 6355TIP3   OH219028   2.610   1.762   5.719  0.2602 -0.6718  0.6098
 6355TIP3    H119029   2.669   1.754   5.645  1.5532 -1.3299  1.6730
 6355TIP3    H219030   2.571   1.675   5.729  0.3126 -0.6659  0.8849
 6356TIP3   OH219031   2.328   0.369   2.836  0.0916 -0.0286  0.0768
 6356TIP3    H119032   2.249   0.337   2.792 -0.1386 -0.8423  1.0485
 6356TIP3    H219033   2.300   0.390   2.925  0.6439  1.1824 -0.0164
 6357TIP3   OH219034   3.714   2.915   5.750 -0.3261 -0.3254  0.4350
 6357TIP3    H119035   3.706   2.912   5.654  0.4189 -0.3721  0.3674
 6357TIP3    H219036   3.644   2.859   5.782 -1.4284  0.7447 -0.0406
 6358TIP3   OH219037   4.833   6.507   2.239 -0.1820  0.3144  0.4706
 6358TIP3    H119038   4.826   6.592   2.281  0.0685  1.0593 -0.9199
 6358TIP3    H219039   4.804   6.444   2.305  3.5914  0.9938  3.0427
 6359TIP3   OH219040   0.323   4.361   2.416 -0.0782 -0.5496 -0.2414
 6359TIP3    H119041   0.337   4.387   2.507 -0.2786 -1.6056  0.1046
 6359TIP3    H219042   0.228   4.354   2.407 -0.1424  0.8668 -0.9261
 6360TIP3   OH219043   2.157   3.350   5.487  0.4773  0.0085 -0.0381
 6360TIP3    H119044   2.077   3.402   5.491  1.3235  1.4605 -1.0615
 6360TIP3    H219045   2.140   3.286   5.418 -0.4847 -0.9784  1.0694
 6361TIP3   OH219046   4.833   5.542   0.958 -0.5250 -0.3743 -0.2268
 6361TIP3    H119047   4.882   5.523   1.038 -0.7413  0.9710  0.2486
 6361TIP3    H219048   4.865   5.628   0.930 -0.2903 -0.9168 -1.7225
 6362TIP3   OH219049   6.115   6.046   4.224  0.1796  0.2980  0.2352
 6362TIP3    H119050   6.062   5.970   4.199 -0.0901  0.5700 -0.0250
 6362TIP3    H219051   6.204   6.024   4.194  0.6723 -1.0152  2.3944
 6363TIP3   OH219052   3.102   6.697   4.001  0.0668 -0.2085  0.4580
 6363TIP3    H119053   3.019   6.724   4.038 -0.1457  1.5178 -1.1425
 6363TIP3    H219054   3.164   6.704   4.073 -0.5443  1.8698  0.8450
 6364TIP3   OH219055   2.009   0.871   1.253  0.2418  0.2631  0.5384
 6364TIP3    H119056   2.098   0.906   1.251  0.5457 -0.5123  0.1213
 6364TIP3    H219057   1.953   0.949   1.249  0.8900  0.6990 -2.1746
 6365TIP3   OH219058   1.982   1.833   2.420 -0.0945  0.4779  0.5671
 6365TIP3    H119059   1.889   1.856   2.415  0.5732  3.7121  0.8810
 6365TIP3    H219060   2.002   1.835   2.513  0.0813 -1.4962  0.6141
 6366TIP3   OH219061   0.484   5.300   5.305 -0.2291 -0.3222 -0.1508
 6366TIP3    H119062   0.410   5.273   5.250  0.6673  1.2608 -2.2822
 6366TIP3    H219063   0.445   5.355   5.373 -1.0886  0.0225 -0.9002
 6367TIP3   OH219064   4.586   4.274   1.333 -0.0482  0.1690  0.4193
 6367TIP3    H119065   4.565   4.362   1.363 -1.0240  0.5065 -1.1422
 6367TIP3    H219066   4.538   4.264   1.251  2.4999 -0.6728 -1.0942
 6368TIP3   OH219067   6.631   4.816   5.837 -0.2610 -0.2029  0.3978
 6368TIP3    H119068   6.564   4.837   5.772 -0.0444  1.8769  0.7760
 6368TIP3    H219069   6.614   4.876   5.909 -0.1126 -2.0217  2.0409
 6369TIP3   OH219070   3.767   3.336   0.201 -0.1024 -0.5255 -0.3637
 6369TIP3    H119071   3.843   3.291   0.164  1.7264  1.6167  0.4937
 6369TIP3    H219072   3.800   3.372   0.284 -1.9256  0.8626 -0.1936
 6370TIP3   OH219073   3.563   3.134   5.228 -0.6245  0.3908  0.1010
 6370TIP3    H119074   3.552   3.049   5.271  0.2507 -0.3824 -1.1674
 6370TIP3    H219075   3.476   3.156   5.195 -0.9767  0.2731  0.9317
 6371TIP3   OH219076   2.804   4.242   0.728 -0.8223  0.7065  0.4976
 6371TIP3    H119077   2.783   4.191   0.806 -2.4868 -0.6816 -0.7940
 6371TIP3    H219078   2.743   4.316   0.729 -1.0432  0.5264  0.3627
 6372TIP3   OH219079   5.764   1.634   5.234 -0.1331 -0.0424 -0.7000
 6372TIP3    H119080   5.786   1.568   5.300  1.5633  0.5019 -0.6741
 6372TIP3    H219081   5.769   1.588   5.150  0.6549 -0.0612 -0.6505
 6373TIP3   OH219082   4.379   2.879   5.011 -0.1802  0.6189  0.1335
 6373TIP3    H119083   4.342   2.870   4.923 -1.1860 -0.6511  0.6608
 6373TIP3    H219084   4.442   2.806   5.017 -0.8616  0.0816  0.8202
 6374TIP3   OH219085   0.912   4.043   3.827  0.1797  0.5043 -0.4763
 6374TIP3    H119086   0.916   4.087   3.742  0.7134  1.9364  0.2579
 6374TIP3    H219087   0.822   4.056   3.857  0.0179  0.0810 -0.7733
 6375TIP3   OH219088   5.144   0.755   3.715 -0.1337 -0.8019 -0.2376
 6375TIP3    H119089   5.200   0.808   3.772  0.1603 -1.8653  0.4993
 6375TIP3    H219090   5.138   0.671   3.759 -0.5141 -1.4225 -1.4291
 6376TIP3   OH219091   1.078   3.497   1.743  0.2052  0.0861  0.2236
 6376TIP3    H119092   1.125   3.431   1.692  1.0684 -0.7177  1.9587
 6376TIP3    H219093   0.995   3.509   1.697  0.3973 -1.5554 -0.6346
 6377TIP3   OH219094   4.474   2.187   3.058  0.4909  0.0804  0.0698
 6377TIP3    H119095   4.535   2.168   3.129 -0.9534 -0.5416  1.1962
 6377TIP3    H219096   4.527   2.181   2.979  2.0120  0.1803  1.0372
 6378TIP3   OH219097   4.958   2.075   4.100  0.0773  0.1328 -0.2841
 6378TIP3    H119098   4.936   1.986   4.125  0.9822 -0.0915 -0.2409
 6378TIP3    H219099   4.928   2.083   4.009  0.5770 -0.4395 -0.5097
 6379TIP3   OH219100   3.536   4.354   4.896 -0.3600  0.0787  0.7082
 6379TIP3    H119101   3.620   4.354   4.849 -0.5694 -0.3384  0.3328
 6379TIP3    H219102   3.487   4.282   4.858 -1.1875  0.7895  0.4022
 6380TIP3   OH219103   4.056   0.180   4.099 -0.2357 -0.3879  0.7744
 6380TIP3    H119104   4.092   0.123   4.030 -3.1807 -2.4266  0.7702
 6380TIP3    H219105   4.129   0.193   4.160  1.8276 -0.3290 -1.5413
 6381TIP3   OH219106   2.437   1.211   4.056  0.1305 -0.7343  0.4247
 6381TIP3    H119107   2.419   1.257   3.974 -0.2809 -3.2158 -0.9534
 6381TIP3    H219108   2.352   1.174   4.082 -0.1438  1.3356  2.9372
 6382TIP3   OH219109   1.002   2.008   5.391 -0.3393 -0.3254 -0.1929
 6382TIP3    H119110   1.044   2.003   5.476 -0.9107  1.3988  0.2313
 6382TIP3    H219111   1.070   1.985   5.328  0.3628 -0.6305  0.6714
 6383TIP3   OH219112   3.475   3.149   1.346  0.1562 -0.3594 -0.0975
 6383TIP3    H119113   3.570   3.148   1.332  0.4157 -0.6543  1.4618
 6383TIP3    H219114   3.459   3.232   1.391 -0.2577 -0.5122  0.0386
 6384TIP3   OH219115   2.156   0.127   0.500  0.4420  0.0005  0.3384
 6384TIP3    H119116   2.085   0.068   0.477  0.7392 -0.7861  1.3146
 6384TIP3    H219117   2.114   0.200   0.545  0.2128 -0.3361  0.6803
 6385TIP3   OH219118   6.092   1.397   5.048  0.1735 -0.3745  0.2516
 6385TIP3    H119119   6.099   1.492   5.034  1.4195 -0.6548 -1.3549
 6385TIP3    H219120   6.098   1.386   5.143  0.7147  1.1169  0.4192
 6386TIP3   OH219121   4.414   0.530   2.469 -0.1431  0.2180 -0.1469
 6386TIP3    H119122   4.383   0.441   2.451 -1.1965  0.4536  0.4246
 6386TIP3    H219123   4.506   0.529   2.443 -0.5585 -0.5669 -1.6897
 6387TIP3   OH219124   4.575   1.527   3.790 -0.3755  0.4471  0.0730
 6387TIP3    H119125   4.539   1.552   3.876  1.6354  0.4984  0.9524
 6387TIP3    H219126   4.591   1.433   3.797  2.0956  0.8603  0.7112
 6388TIP3   OH219127   5.233   6.540   1.685 -0.7262  0.6055  0.0813
 6388TIP3    H119128   5.297   6.489   1.734 -1.7272 -2.4309 -1.4811
 6388TIP3    H219129   5.162   6.555   1.747  0.2857  1.6281  1.0412
 6389TIP3   OH219130   4.792   2.276   3.216  0.2396 -0.6550  0.7194
 6389TIP3    H119131   4.799   2.335   3.141  1.7446  2.4290  3.0357
 6389TIP3    H219132   4.705   2.294   3.252 -0.3214 -1.8339  0.0085
 6390TIP3   OH219133   4.724   1.665   2.684 -0.3253  0.3580 -0.0379
 6390TIP3    H119134   4.692   1.686   2.596 -0.0285  1.0841  0.0211
 6390TIP3    H219135   4.700   1.741   2.737  3.6293  2.1718 -0.5087
 6391TIP3   OH219136   2.316   5.067   3.688 -0.2907  0.3106  0.2479
 6391TIP3    H119137   2.281   5.048   3.600  0.1379 -0.1549  0.1742
 6391TIP3    H219138   2.393   5.012   3.695  0.2329  1.0742  0.5479
 6392TIP3   OH219139   0.026   3.049   0.641 -0.1834 -0.0720  0.0323
 6392TIP3    H119140   0.099   2.989   0.624 -0.0715  0.1124 -0.1439
 6392TIP3    H219141  -0.006   3.023   0.727 -1.0605 -1.3207 -0.6362
 6393TIP3   OH219142   6.271   5.221   2.251  0.2587  0.4871  0.4346
 6393TIP3    H119143   6.239   5.192   2.336  0.2166 -2.0317 -0.3472
 6393TIP3    H219144   6.213   5.178   2.188  2.0137 -0.0389 -0.9024
 6394TIP3   OH219145   0.520   2.514   3.832  0.0461 -0.3409 -0.5779
 6394TIP3    H119146   0.427   2.500   3.815  0.0356 -0.2494 -0.5960
 6394TIP3    H219147   0.557   2.538   3.747 -0.3040  1.7444 -0.1996
 6395TIP3   OH219148   5.127   6.211   2.703  0.5174  0.2541 -0.0829
 6395TIP3    H119149   5.170   6.297   2.705  3.3133 -1.0211  0.4021
 6395TIP3    H219150   5.036   6.229   2.681  0.3459  3.5538  2.6485
 6396TIP3   OH219151   3.639   1.455   0.628 -0.7721  0.3084 -0.2680
 6396TIP3    H119152   3.706   1.439   0.562  0.9512  1.1000  1.1956
 6396TIP3    H219153   3.577   1.383   0.618  0.7156 -0.9067 -1.1835
 6397TIP3   OH219154   3.892   4.531   3.710  0.0848 -0.0475  0.0289
 6397TIP3    H119155   3.815   4.586   3.728  1.0835  1.1223  0.8266
 6397TIP3    H219156   3.865   4.476   3.636 -1.9003 -0.4538  0.9882
 6398TIP3   OH219157   2.375   4.044   4.527  0.3955  0.1028  0.0224
 6398TIP3    H119158   2.404   4.111   4.466 -0.4089 -0.0227 -0.5090
 6398TIP3    H219159   2.372   3.963   4.476  0.9689 -0.2617  0.5542
 6399TIP3   OH219160   1.242   2.177   4.116  0.3080 -0.4229  0.5109
 6399TIP3    H119161   1.264   2.195   4.025  0.9158  0.3153  0.7973
 6399TIP3    H219162   1.219   2.262   4.153 -1.9311 -0.9711  0.5495
 6400TIP3   OH219163   1.668   4.365   2.782 -0.4295  0.2815  0.7246
 6400TIP3    H119164   1.737   4.306   2.749 -0.2022  0.6735  0.4974
 6400TIP3    H219165   1.586   4.320   2.761 -0.3955  1.4261 -2.2116
 6401TIP3   OH219166   6.560   4.851   5.355 -0.4398 -0.3583  0.3936
 6401TIP3    H119167   6.632   4.913   5.343  0.3779 -1.2562  0.4227
 6401TIP3    H219168   6.521   4.842   5.268 -0.6266  0.2595  0.4109
 6402TIP3   OH219169   1.011   3.222   2.778  0.3205 -0.2114 -0.8385
 6402TIP3    H119170   0.922   3.237   2.748  0.5425  1.6701 -0.6523
 6402TIP3    H219171   1.066   3.256   2.708  0.8657  0.8153  0.0700
 6403TIP3   OH219172   2.105   5.712   2.513 -0.4165 -0.3056  0.3344
 6403TIP3    H119173   2.102   5.617   2.516 -2.3549 -0.3387 -0.6957
 6403TIP3    H219174   2.148   5.738   2.594  2.4675 -2.0793 -0.4742
 6404TIP3   OH219175   3.289   6.141   2.514 -0.8542  0.4149  0.6214
 6404TIP3    H119176   3.244   6.139   2.599 -1.9005 -1.6406  0.0966
 6404TIP3    H219177   3.368   6.088   2.527 -0.2558  1.2902  0.6607
 6405TIP3   OH219178   5.684   2.401   1.841  0.2878 -0.4598 -0.0119
 6405TIP3    H119179   5.642   2.469   1.895 -0.3552 -2.5644  2.3305
 6405TIP3    H219180   5.682   2.436   1.752 -3.2793  1.0887  0.5247
 6406TIP3   OH219181   3.839   1.414   0.430 -0.4262  0.0384  0.3583
 6406TIP3    H119182   3.801   1.451   0.351 -1.5801  1.7085  1.6238
 6406TIP3    H219183   3.905   1.478   0.457 -2.2401  1.1699  2.4178
 6407TIP3   OH219184   3.629   4.514   3.871  0.3889 -0.3477 -0.8190
 6407TIP3    H119185   3.543   4.543   3.901  0.3214  0.3427 -1.6422
 6407TIP3    H219186   3.663   4.587   3.820  1.9351 -0.1896  0.3698
 6408TIP3   OH219187   5.932   0.907   0.426  0.3331 -0.6894  0.2279
 6408TIP3    H119188   5.886   0.952   0.355  2.2698  1.7238  0.3452
 6408TIP3    H219189   5.867   0.902   0.497 -0.9016 -0.9981 -0.8896
 6409TIP3   OH219190   6.194   5.837   3.055  0.0240 -0.3706 -0.1897
 6409TIP3    H119191   6.112   5.865   3.014 -0.2725 -0.9120  0.0145
 6409TIP3    H219192   6.212   5.903   3.122 -0.8211 -0.7998  0.4904
 6410TIP3   OH219193   1.926   3.868   3.277 -0.5664  0.3337 -0.2740
 6410TIP3    H119194   1.857   3.803   3.267 -0.2098 -0.5719  2.3877
 6410TIP3    H219195   1.886   3.938   3.329  0.0064  0.6970 -0.3091
 6411TIP3   OH219196   6.957   0.533   5.051 -0.2854  0.0961  0.0780
 6411TIP3    H119197   6.889   0.600   5.039  0.5041  0.9030  0.0466
 6411TIP3    H219198   6.961   0.489   4.966 -0.5968  0.1994  0.0064
 6412TIP3   OH219199   1.630   4.759   3.582  0.1412 -0.1468 -0.4769
 6412TIP3    H119200   1.676   4.695   3.636 -0.4702 -1.7782 -1.8062
 6412TIP3    H219201   1.541   4.724   3.574 -0.1687  0.7863 -1.3758
 6413TIP3   OH219202   1.104   1.750   4.276  0.3546 -0.0394  0.1168
 6413TIP3    H119203   1.171   1.745   4.209  0.5294 -2.3083  0.3869
 6413TIP3    H219204   1.151   1.735   4.358 -0.4108 -1.3332  0.3373
 6414TIP3   OH219205   5.242   1.262   2.808 -0.7323  0.1821  0.0246
 6414TIP3    H119206   5.301   1.199   2.851 -0.9434  0.4386  0.7092
 6414TIP3    H219207   5.196   1.210   2.742 -0.2822 -0.1898 -0.0045
 6415TIP3   OH219208   3.084   6.265   1.248  0.6339 -0.3638 -0.3135
 6415TIP3    H119209   3.130   6.214   1.315  0.0401  2.1318  2.1952
 6415TIP3    H219210   3.019   6.315   1.297 -0.2323  1.1989 -2.8726
 6416TIP3   OH219211   1.394   0.244   4.622 -0.1354 -0.5187  0.3290
 6416TIP3    H119212   1.355   0.219   4.706  1.3703 -1.4004  0.7979
 6416TIP3    H219213   1.440   0.166   4.593 -1.8183 -0.7355 -2.0967
 6417TIP3   OH219214   0.119   6.401   1.404  0.5186  0.0267  0.1739
 6417TIP3    H119215   0.104   6.494   1.386 -1.4279 -0.1565  0.5787
 6417TIP3    H219216   0.194   6.400   1.463  0.6281  1.3329  0.0956
 6418TIP3   OH219217   1.137   3.610   0.052 -0.3854  0.1779 -0.5040
 6418TIP3    H119218   1.145   3.567  -0.033 -0.9196 -0.8616 -0.0570
 6418TIP3    H219219   1.088   3.547   0.106 -0.4312  0.9932  0.4435
 6419TIP3   OH219220   0.285   2.487   4.825  0.0237 -0.5981 -0.1532
 6419TIP3    H119221   0.192   2.507   4.812  0.8497  2.7005 -2.0140
 6419TIP3    H219222   0.322   2.489   4.737  2.3245  1.0866  0.7717
 6420TIP3   OH219223   6.833   5.758   2.182 -0.1428 -0.4327  0.3455
 6420TIP3    H119224   6.767   5.820   2.214 -1.1110 -0.4946 -1.3890
 6420TIP3    H219225   6.895   5.813   2.134 -0.3321 -0.6573 -0.1599
 6421TIP3   OH219226   2.820   4.770   2.626  0.2328 -0.5454 -0.0905
 6421TIP3    H119227   2.906   4.760   2.666  0.9118 -2.5274 -1.8520
 6421TIP3    H219228   2.835   4.755   2.532 -1.8191  0.4663 -0.6403
 6422TIP3   OH219229   2.619   6.673   1.273  0.1136  0.3977 -0.3445
 6422TIP3    H119230   2.591   6.765   1.280  1.6084  0.8334  0.4159
 6422TIP3    H219231   2.560   6.626   1.331 -0.4941  0.9180 -0.5230
 6423TIP3   OH219232   3.647   2.331   3.928  0.3722 -0.3415 -0.6444
 6423TIP3    H119233   3.686   2.334   4.016  1.9110 -1.5748 -1.2478
 6423TIP3    H219234   3.629   2.423   3.907 -0.8745 -0.0700  1.2914
 6424TIP3   OH219235   6.093   3.192   5.466  0.2107 -0.5700  0.3940
 6424TIP3    H119236   6.179   3.151   5.471  0.0559 -1.1108 -0.8421
 6424TIP3    H219237   6.106   3.268   5.409  0.7396  1.8878  3.4949
 6425TIP3   OH219238   1.927   1.588   5.843  0.1326 -0.0796 -0.2267
 6425TIP3    H119239   1.836   1.608   5.863  0.4860  0.5293  0.8410
 6425TIP3    H219240   1.942   1.503   5.885 -0.2870 -0.8162 -1.5072
 6426TIP3   OH219241   2.437   4.182   0.587  0.0741  0.2478  0.2375
 6426TIP3    H119242   2.486   4.101   0.603  0.8709  0.2607 -1.7639
 6426TIP3    H219243   2.484   4.249   0.635  0.0896 -0.2773  0.9759
 6427TIP3   OH219244   3.386   5.169   5.155  0.0353  0.0452  0.4090
 6427TIP3    H119245   3.332   5.159   5.076  2.2802 -0.6629 -1.1399
 6427TIP3    H219246   3.401   5.080   5.185 -0.4920  0.2973  1.4437
 6428TIP3   OH219247   5.651   2.810   4.452  0.3898 -0.1501 -0.6407
 6428TIP3    H119248   5.646   2.830   4.546  0.6686  1.0748 -0.8808
 6428TIP3    H219249   5.595   2.875   4.410 -0.1967 -1.0444 -1.3006
 6429TIP3   OH219250   3.429   0.416   4.696  0.6721 -0.6934 -0.4271
 6429TIP3    H119251   3.481   0.494   4.718 -1.2207  0.4985  0.0111
 6429TIP3    H219252   3.376   0.400   4.774 -0.2108 -1.3788 -1.1476
 6430TIP3   OH219253   0.607   6.619   2.832 -0.1895 -0.0121  0.3754
 6430TIP3    H119254   0.516   6.619   2.803  0.1391 -1.6154 -0.8038
 6430TIP3    H219255   0.648   6.690   2.783 -1.0644  1.6691  1.9734
 6431TIP3   OH219256   0.673   1.727   2.321  0.2327  0.1456 -0.2609
 6431TIP3    H119257   0.615   1.797   2.289 -0.8183 -0.6885 -0.2397
 6431TIP3    H219258   0.638   1.704   2.407  0.6130 -0.3599 -0.2362
 6432TIP3   OH219259   0.392   5.047   3.662  0.3574  0.4745 -0.2615
 6432TIP3    H119260   0.444   5.075   3.737 -0.9456  1.0058  0.4745
 6432TIP3    H219261   0.315   5.004   3.700 -0.4249  0.9315 -1.2791
 6433TIP3   OH219262   5.126   6.292   5.415  0.3315 -0.2298 -0.5960
 6433TIP3    H119263   5.155   6.201   5.424  2.6006  0.4584 -0.3164
 6433TIP3    H219264   5.197   6.335   5.366  0.8480  2.0414  1.9056
 6434TIP3   OH219265   2.866   2.545   2.827  0.8242 -0.0985 -0.2035
 6434TIP3    H119266   2.820   2.627   2.844  1.6899  0.1142  1.2650
 6434TIP3    H219267   2.846   2.524   2.736 -0.6727  0.9271 -0.1387
 6435TIP3   OH219268   6.974   6.415   2.164  0.2615  0.9028 -0.2728
 6435TIP3    H119269   6.891   6.461   2.155 -0.5452 -0.1313  1.4079
 6435TIP3    H219270   7.022   6.466   2.229  0.5482  0.9464 -0.5170
 6436TIP3   OH219271   4.239   3.880   0.467 -0.2435  0.4753 -0.0431
 6436TIP3    H119272   4.253   3.886   0.372  1.8044 -1.2100  0.0863
 6436TIP3    H219273   4.156   3.833   0.476  0.4572 -1.0444 -1.0568
 6437TIP3   OH219274   6.114   2.807   1.800 -0.2271  0.2009  0.0588
 6437TIP3    H119275   6.181   2.808   1.869 -1.7709 -0.3697  1.6424
 6437TIP3    H219276   6.164   2.809   1.718  1.8334 -2.3669  1.1037
 6438TIP3   OH219277   6.112   5.347   2.839  0.2131  0.2549  0.0717
 6438TIP3    H119278   6.125   5.402   2.762  0.0206 -0.6221 -0.6094
 6438TIP3    H219279   6.090   5.261   2.803 -0.2825 -0.0702  1.1150
 6439TIP3   OH219280   1.466   1.718   0.052  0.2084 -0.6002 -0.0323
 6439TIP3    H119281   1.424   1.667   0.123  1.8474 -0.8340  0.8122
 6439TIP3    H219282   1.505   1.793   0.096 -1.6283  1.1425 -1.1907
 6440TIP3   OH219283   2.902   3.609   5.792 -0.0594  0.2483 -0.1670
 6440TIP3    H119284   2.878   3.575   5.705 -1.0418 -0.1351  0.2302
 6440TIP3    H219285   2.830   3.669   5.814 -0.5321 -0.6965  0.9469
 6441TIP3   OH219286   1.929   3.305   3.591 -0.6068 -0.1838 -0.3461
 6441TIP3    H119287   1.835   3.303   3.608 -0.6149  1.1596 -0.1262
 6441TIP3    H219288   1.944   3.391   3.550  0.3339 -0.8884 -1.5425
 6442TIP3   OH219289   6.016   2.428   2.518  0.2669 -0.5208 -0.0689
 6442TIP3    H119290   5.999   2.426   2.612  0.0940 -0.9920 -0.1049
 6442TIP3    H219291   5.950   2.368   2.481  0.0380  0.0125 -0.5336
 6443TIP3   OH219292   4.064   5.721   4.636  0.1607 -0.1464  0.7744
 6443TIP3    H119293   4.084   5.789   4.572 -0.2461 -0.1259  0.6662
 6443TIP3    H219294   3.972   5.700   4.621  0.3503 -0.9107  0.6356
 6444TIP3   OH219295   5.157   2.574   1.050  0.7027  0.0589 -0.1974
 6444TIP3    H119296   5.148   2.522   1.130  0.6557  1.7003  0.9018
 6444TIP3    H219297   5.226   2.529   1.001 -0.0920 -1.6592  0.1807
 6445TIP3   OH219298   0.566   0.241   0.185  0.0673  0.2066 -0.4319
 6445TIP3    H119299   0.575   0.256   0.091 -1.2753 -1.3654 -0.8413
 6445TIP3    H219300   0.472   0.250   0.202  0.2373  0.0199  0.6760
 6446TIP3   OH219301   1.852   0.288   0.819  0.7999 -0.2705 -0.2340
 6446TIP3    H119302   1.879   0.292   0.727  0.4800  0.1413 -0.3080
 6446TIP3    H219303   1.771   0.338   0.823  0.3578 -0.9892  0.1109
 6447TIP3   OH219304   6.480   0.402   5.835 -0.1171  0.0413  0.1905
 6447TIP3    H119305   6.457   0.309   5.839 -0.2832 -0.0284 -1.5104
 6447TIP3    H219306   6.446   0.439   5.916 -1.1412 -1.1644  0.3409
 6448TIP3   OH219307   6.414   4.000   2.280 -0.3587 -0.3540  0.5238
 6448TIP3    H119308   6.410   3.985   2.186  1.2371  2.0636 -0.0078
 6448TIP3    H219309   6.335   3.958   2.314 -0.5238 -2.0573 -1.7350
 6449TIP3   OH219310   3.657   5.700   3.231  0.4378  0.1277  0.5102
 6449TIP3    H119311   3.733   5.735   3.278  1.4496 -0.1603 -0.8703
 6449TIP3    H219312   3.675   5.715   3.139 -0.1328 -1.9360 -0.0105
 6450TIP3   OH219313   3.949   5.134   2.044 -0.1036 -0.1229  0.2063
 6450TIP3    H119314   3.942   5.110   1.952 -2.8392  0.7875  0.0663
 6450TIP3    H219315   3.957   5.051   2.090 -2.0143 -0.8828 -0.7144
 6451TIP3   OH219316   6.436   2.342   5.557 -0.2086  0.3679  0.1199
 6451TIP3    H119317   6.358   2.398   5.556  0.3997  1.2392  0.1451
 6451TIP3    H219318   6.406   2.261   5.600 -1.1214  0.6415  0.0353
 6452TIP3   OH219319   1.874   2.561   0.943  0.3158 -0.0793  0.5155
 6452TIP3    H119320   1.829   2.502   0.882 -0.6720  0.4755  0.6942
 6452TIP3    H219321   1.822   2.557   1.023  0.7521  0.3609  0.8251
 6453TIP3   OH219322   6.393   6.520   4.034 -0.1475  0.1027  0.1329
 6453TIP3    H119323   6.355   6.435   4.056 -0.2884 -0.3536 -1.7655
 6453TIP3    H219324   6.451   6.503   3.960  2.1834  1.1737  1.5922
 6454TIP3   OH219325   5.235   5.409   4.794  0.1248  0.1321 -0.6664
 6454TIP3    H119326   5.248   5.315   4.804 -1.5620  0.0220  1.1392
 6454TIP3    H219327   5.151   5.417   4.749  0.6332  0.8049 -1.5397
 6455TIP3   OH219328   0.222   0.011   0.854 -0.4040  0.2261 -0.1025
 6455TIP3    H119329   0.138   0.055   0.845 -1.4569 -1.6394  0.0237
 6455TIP3    H219330   0.216  -0.065   0.796  0.9634 -0.2754  0.3556
 6456TIP3   OH219331   0.376   0.644   4.919  0.3011  0.7911 -0.8513
 6456TIP3    H119332   0.466   0.653   4.949  1.1669 -0.1310 -2.9583
 6456TIP3    H219333   0.371   0.556   4.882 -1.1355  1.2071 -1.7774
 6457TIP3   OH219334   5.133   5.182   2.664 -0.6743 -0.6107  0.1206
 6457TIP3    H119335   5.080   5.198   2.586  0.3175  0.1521 -0.4181
 6457TIP3    H219336   5.096   5.241   2.730  1.6257  2.6123 -1.2552
 6458TIP3   OH219337   6.434   4.086   0.735 -0.2608  0.0558  0.4535
 6458TIP3    H119338   6.432   4.124   0.647  1.1693  1.3479  0.9327
 6458TIP3    H219339   6.368   4.016   0.733  0.2283 -0.4166 -1.8503
 6459TIP3   OH219340   5.085   2.540   0.208  0.4441 -0.2532  0.1143
 6459TIP3    H119341   5.001   2.495   0.218  0.5830 -0.3800  0.8217
 6459TIP3    H219342   5.135   2.485   0.149 -0.6843  0.8735 -2.0234
 6460TIP3   OH219343   2.766   1.419   2.709  0.0427  0.4686  0.0924
 6460TIP3    H119344   2.831   1.416   2.779  1.0274  0.3481 -0.7810
 6460TIP3    H219345   2.813   1.386   2.632 -1.8091 -2.1817 -0.0418
 6461TIP3   OH219346   4.204   3.482   1.477  0.3792  0.7407 -0.5499
 6461TIP3    H119347   4.226   3.518   1.563  0.6414  0.7756 -0.6301
 6461TIP3    H219348   4.283   3.496   1.425 -0.0119  1.3579 -1.0014
 6462TIP3   OH219349   3.109   5.008   3.911  0.0155  0.4400  0.5356
 6462TIP3    H119350   3.175   5.076   3.896  1.6039 -1.4553 -1.8401
 6462TIP3    H219351   3.027   5.048   3.884  1.0147  1.2972 -1.4487
 6463TIP3   OH219352   0.253   5.664   1.913 -0.7431 -0.0086  0.2275
 6463TIP3    H119353   0.205   5.680   1.832  1.4185  2.3315 -0.7452
 6463TIP3    H219354   0.255   5.569   1.922 -3.0266 -0.2528 -1.1851
 6464TIP3   OH219355   5.446   1.820   3.848 -0.9522 -0.2558 -0.3376
 6464TIP3    H119356   5.463   1.741   3.899  0.5485  0.0270 -0.3408
 6464TIP3    H219357   5.494   1.806   3.767 -2.1074 -0.0646 -1.0694
 6465TIP3   OH219358   2.157   4.695   2.118  0.4604 -0.4445  0.7386
 6465TIP3    H119359   2.220   4.721   2.050  1.0104 -0.9602  1.0421
 6465TIP3    H219360   2.189   4.738   2.197 -0.1692  0.1407  0.6832
 6466TIP3   OH219361   4.733   6.408   4.367  0.2599  0.5704 -0.1001
 6466TIP3    H119362   4.797   6.337   4.365  0.7818  1.0451 -0.8405
 6466TIP3    H219363   4.679   6.394   4.290 -1.3682 -0.5498  1.1755
 6467TIP3   OH219364   5.618   3.874   3.684 -0.2577  0.5532  0.2721
 6467TIP3    H119365   5.589   3.909   3.600 -3.5955 -0.1870  0.9581
 6467TIP3    H219366   5.583   3.935   3.749  0.7765  0.1827  1.2160
 6468TIP3   OH219367   3.180   3.247   4.322  0.5209  0.3724 -0.3100
 6468TIP3    H119368   3.201   3.278   4.411 -0.2764 -0.5231  0.2035
 6468TIP3    H219369   3.143   3.324   4.279 -1.0938  0.2871  0.8301
 6469TIP3   OH219370   1.219   4.003   0.870  0.2826 -0.0983 -0.1276
 6469TIP3    H119371   1.309   4.024   0.845  0.2955 -0.1669 -0.1374
 6469TIP3    H219372   1.168   4.080   0.843  0.0337 -0.8257 -1.8280
 6470TIP3   OH219373   4.840   0.429   4.357 -0.1736 -0.6095  0.3276
 6470TIP3    H119374   4.919   0.481   4.347 -0.3947 -0.3235  0.0495
 6470TIP3    H219375   4.769   0.490   4.339 -0.3894 -1.3694 -1.6524
 6471TIP3   OH219376   6.140   5.472   0.145  0.0603  0.3459  0.5627
 6471TIP3    H119377   6.192   5.391   0.149 -3.1416 -2.0664 -1.7184
 6471TIP3    H219378   6.081   5.466   0.221  0.2404  0.9089  0.7526
 6472TIP3   OH219379   6.286   2.515   3.176  1.0541 -0.0960 -0.1561
 6472TIP3    H119380   6.341   2.437   3.164  3.3412  1.1967  1.2209
 6472TIP3    H219381   6.275   2.522   3.271 -0.6650  0.2775 -0.3587
 6473TIP3   OH219382   4.087   5.564   0.817 -0.0119 -0.0442  0.6057
 6473TIP3    H119383   4.045   5.478   0.808 -0.2099  0.1791 -0.8385
 6473TIP3    H219384   4.038   5.607   0.887 -1.0807 -0.4378  0.1266
 6474TIP3   OH219385   0.894   5.051   0.762 -0.3045  0.1375  0.0448
 6474TIP3    H119386   0.951   4.990   0.715 -0.5724 -1.6996  1.9286
 6474TIP3    H219387   0.940   5.134   0.761  0.9140 -0.5223 -1.1376
 6475TIP3   OH219388   4.061   1.647   3.120 -0.2317  0.3507 -0.1071
 6475TIP3    H119389   4.010   1.567   3.103  0.6960 -0.1332 -0.6798
 6475TIP3    H219390   4.150   1.624   3.096 -0.0031  1.6872 -0.6046
 6476TIP3   OH219391   1.517   0.429   3.980  0.0425  0.6055 -0.1534
 6476TIP3    H119392   1.494   0.362   4.044 -0.8044  0.1693 -0.8935
 6476TIP3    H219393   1.470   0.403   3.900  1.7144  0.6667 -1.2160
 6477TIP3   OH219394   4.241   1.736   4.806 -0.1366 -0.2031 -0.0215
 6477TIP3    H119395   4.250   1.721   4.712  0.3857  0.0461 -0.0116
 6477TIP3    H219396   4.179   1.809   4.812  0.7848  0.6156 -0.2211
 6478TIP3   OH219397   3.026   5.168   0.943 -0.3315 -0.2123 -0.1102
 6478TIP3    H119398   3.105   5.209   0.906 -0.2189  0.9470  1.3152
 6478TIP3    H219399   3.011   5.092   0.888  0.6839  0.5988 -1.5971
 6479TIP3   OH219400   3.249   3.113   3.107  0.1379 -0.0735  0.3511
 6479TIP3    H119401   3.335   3.155   3.096  0.8876 -1.3525  1.0346
 6479TIP3    H219402   3.268   3.032   3.155 -1.2915 -1.0281 -0.6158
 6480TIP3   OH219403   6.731   6.378   5.654 -0.5508  0.2184  0.1087
 6480TIP3    H119404   6.802   6.442   5.659  0.4107 -0.6920 -1.0992
 6480TIP3    H219405   6.652   6.427   5.676  0.1765  1.7704 -0.5983
 6481TIP3   OH219406   3.786   1.858   3.683 -0.1746 -0.7426  0.2076
 6481TIP3    H119407   3.761   1.844   3.774 -1.7880 -2.7944 -0.4422
 6481TIP3    H219408   3.712   1.907   3.645 -0.3374 -1.3834 -0.3396
 6482TIP3   OH219409   5.466   0.221   5.454 -0.1320  0.2360  0.2406
 6482TIP3    H119410   5.443   0.313   5.449 -1.6804 -0.1409 -0.1716
 6482TIP3    H219411   5.494   0.207   5.545  2.4254  1.5582 -0.2354
 6483TIP3   OH219412   0.484   5.408   0.609  0.0117  0.3693 -0.4595
 6483TIP3    H119413   0.549   5.340   0.624 -0.4146  0.3554  1.6339
 6483TIP3    H219414   0.400   5.365   0.626 -0.4012  0.9122 -1.0861
 6484TIP3   OH219415   1.600   3.813   4.593 -0.0198 -0.5962 -0.2607
 6484TIP3    H119416   1.554   3.813   4.678 -0.3848 -0.2827 -0.4581
 6484TIP3    H219417   1.546   3.757   4.537 -0.0868 -0.3439 -0.4511
 6485TIP3   OH219418   2.651   5.315   4.054  0.2691 -0.3348 -0.3408
 6485TIP3    H119419   2.690   5.402   4.065 -0.9853  0.2736 -0.4095
 6485TIP3    H219420   2.656   5.276   4.142  0.5981 -0.0851 -0.2449
 6486TIP3   OH219421   0.491   1.923   3.793 -0.9200  0.2522 -0.2334
 6486TIP3    H119422   0.580   1.903   3.762 -1.8768 -0.6193 -2.7232
 6486TIP3    H219423   0.503   1.986   3.863  1.6169  1.5618 -1.7000
 6487TIP3   OH219424   4.672   4.210   4.722 -0.0736  0.1091 -0.4549
 6487TIP3    H119425   4.717   4.127   4.707 -1.7058 -1.1104  0.9593
 6487TIP3    H219426   4.653   4.244   4.635  1.5746 -0.4234 -1.0647
 6488TIP3   OH219427   6.059   1.211   5.778 -0.5124 -0.0487 -0.6987
 6488TIP3    H119428   6.071   1.191   5.685  1.4210  0.5679 -0.6230
 6488TIP3    H219429   5.973   1.175   5.799 -0.0011 -2.3381 -2.1604
 6489TIP3   OH219430   0.040   4.230   1.515 -0.1506 -0.8255  0.2633
 6489TIP3    H119431   0.115   4.242   1.457 -0.2866 -0.0831  0.2413
 6489TIP3    H219432  -0.015   4.165   1.470 -0.7862  0.5234 -0.9840
 6490TIP3   OH219433   1.086   5.672   1.808  0.4773 -0.4425 -0.6866
 6490TIP3    H119434   1.123   5.667   1.721 -1.6253  3.2322 -2.0506
 6490TIP3    H219435   1.153   5.717   1.861  1.4965 -2.1042 -0.5151
 6491TIP3   OH219436   5.461   3.097   1.189  0.3506 -0.1796  0.1550
 6491TIP3    H119437   5.551   3.089   1.159  1.4600  0.6679  2.9948
 6491TIP3    H219438   5.422   3.162   1.130  1.9002  0.2509 -0.4393
 6492TIP3   OH219439   1.423   2.018   2.997  0.2141  0.4618  0.0834
 6492TIP3    H119440   1.471   2.097   2.975  1.0541  0.0194  0.2986
 6492TIP3    H219441   1.420   1.967   2.916  0.3357  0.3675  0.1388
 6493TIP3   OH219442   6.697   1.709   0.708 -0.6895  0.2114 -0.0876
 6493TIP3    H119443   6.677   1.622   0.742 -1.4576 -0.2435 -1.6285
 6493TIP3    H219444   6.751   1.693   0.631 -0.9104  1.0971 -0.4411
 6494TIP3   OH219445   2.888   0.098   5.868  0.4878 -0.4748 -0.3127
 6494TIP3    H119446   2.812   0.066   5.915  1.3713 -1.0718  0.7530
 6494TIP3    H219447   2.953   0.028   5.877  2.1516  1.1600  1.2640
 6495TIP3   OH219448   6.969   2.437   4.965 -0.3371 -0.0076  0.1017
 6495TIP3    H119449   6.904   2.495   4.924 -0.6453 -1.4719 -1.6276
 6495TIP3    H219450   6.999   2.381   4.893  4.2532  1.7400  0.3153
 6496TIP3   OH219451   7.019   3.982   2.395 -0.4852  0.0250 -0.1459
 6496TIP3    H119452   6.966   3.965   2.473 -0.3733  1.0396  0.1686
 6496TIP3    H219453   7.109   3.981   2.426 -0.3907 -0.3737 -0.4240
 6497TIP3   OH219454   3.633   4.165   0.693 -0.2320  0.0212  0.0397
 6497TIP3    H119455   3.673   4.084   0.726  1.6016  0.4452 -0.9986
 6497TIP3    H219456   3.591   4.139   0.611  1.0222  0.2237 -0.6953
 6498TIP3   OH219457   7.112   3.974   1.162 -0.1764  0.5945 -0.9983
 6498TIP3    H119458   7.102   4.069   1.155  1.4225  1.0895  1.9548
 6498TIP3    H219459   7.206   3.961   1.170 -0.5113 -0.7853  2.3823
 6499TIP3   OH219460   3.881   2.062   2.468  0.5201 -0.0381 -0.1219
 6499TIP3    H119461   3.826   2.078   2.544 -1.0620 -0.4563 -1.1270
 6499TIP3    H219462   3.838   1.991   2.421  1.3071  0.3864 -1.5519
 6500TIP3   OH219463   0.912   6.801   4.215 -0.4361  0.1488  0.2366
 6500TIP3    H119464   0.853   6.727   4.234 -1.8175  0.5599 -1.9870
 6500TIP3    H219465   0.973   6.766   4.151 -0.2585  0.5729  0.1731
 6501TIP3   OH219466   4.377   0.694   3.426 -0.1866 -0.1320  0.1081
 6501TIP3    H119467   4.371   0.606   3.463 -0.3439 -0.1707 -0.0111
 6501TIP3    H219468   4.374   0.752   3.502 -0.4171 -0.2154  0.1642
 6502TIP3   OH219469   1.667   6.355   4.866 -0.1190 -0.3757  0.7731
 6502TIP3    H119470   1.645   6.446   4.886 -1.1771 -0.5679  0.5498
 6502TIP3    H219471   1.754   6.360   4.825 -1.0615  0.7792 -1.2320
 6503TIP3   OH219472   3.227   0.323   0.616  0.2264  0.8397  0.1338
 6503TIP3    H119473   3.150   0.377   0.633  0.7919  2.0129 -0.8324
 6503TIP3    H219474   3.301   0.382   0.627  0.8727  0.2694 -0.9378
 6504TIP3   OH219475   1.613   5.634   4.187  0.0104  0.1843 -0.3529
 6504TIP3    H119476   1.530   5.653   4.145  0.1733 -0.6804 -1.1050
 6504TIP3    H219477   1.660   5.717   4.187 -0.1380  0.2782 -1.5763
 6505TIP3   OH219478   7.153   4.980   1.333  0.1368 -0.0409  0.2725
 6505TIP3    H119479   7.078   4.921   1.334 -0.4329  0.6091 -1.2380
 6505TIP3    H219480   7.131   5.045   1.267  1.8782  0.3797  0.0674
 6506TIP3   OH219481   3.245   3.943   4.212  0.3818 -0.1469 -0.0803
 6506TIP3    H119482   3.192   4.006   4.261 -1.0140 -0.9630 -0.4712
 6506TIP3    H219483   3.304   3.998   4.160  0.4865  0.7732  0.9623
 6507TIP3   OH219484   4.234   2.109   3.733 -0.3329 -0.4571 -0.5293
 6507TIP3    H119485   4.143   2.116   3.704  0.0822 -0.9309 -1.9963
 6507TIP3    H219486   4.268   2.198   3.728 -1.0356 -0.0575  1.2015
 6508TIP3   OH219487   0.737   2.131   5.325 -0.1509 -0.4945  0.4896
 6508TIP3    H119488   0.711   2.067   5.259  0.0308 -1.3785  1.2633
 6508TIP3    H219489   0.822   2.101   5.356 -1.1045 -1.2267  2.5376
 6509TIP3   OH219490   7.041   6.150   2.102 -0.0459  0.7375 -0.0465
 6509TIP3    H119491   7.071   6.159   2.012 -0.8335  3.3357 -0.1361
 6509TIP3    H219492   7.036   6.240   2.135 -1.3247 -0.0248  2.0598
 6510TIP3   OH219493   2.787   0.205   1.857 -0.0295 -0.3176 -0.0765
 6510TIP3    H119494   2.701   0.178   1.822  0.1083 -1.6956  0.5789
 6510TIP3    H219495   2.826   0.256   1.786 -0.9037 -0.6840 -0.8517
 6511TIP3   OH219496   2.974   4.063   5.219  0.6425 -0.1237 -0.4095
 6511TIP3    H119497   2.908   4.133   5.220 -0.3650 -1.0269 -0.7273
 6511TIP3    H219498   3.044   4.094   5.276 -0.2799  0.6670  0.3192
 6512TIP3   OH219499   3.682   5.687   5.788  0.2137 -0.1284 -0.1496
 6512TIP3    H119500   3.601   5.637   5.797  0.5696 -0.7762 -0.4686
 6512TIP3    H219501   3.727   5.647   5.713  0.5508  0.6126 -0.3491
 6513TIP3   OH219502   6.317   2.726   5.335  0.0876 -0.5467  0.2379
 6513TIP3    H119503   6.372   2.675   5.275 -0.8552  1.3760 -2.4438
 6513TIP3    H219504   6.232   2.732   5.290 -0.0343  2.7734  0.6880
 6514TIP3   OH219505   6.996   4.674   2.420  0.5183 -0.4573  0.7657
 6514TIP3    H119506   7.018   4.646   2.509 -0.7541 -0.7454  1.0015
 6514TIP3    H219507   6.978   4.592   2.373 -2.9824 -0.1847  1.3902
 6515TIP3   OH219508   3.293   3.888   3.543 -0.3141  0.5068 -0.7284
 6515TIP3    H119509   3.378   3.847   3.557  0.1150  1.4090 -0.6428
 6515TIP3    H219510   3.262   3.851   3.461  0.2958  0.3847 -0.9096
 6516TIP3   OH219511   4.422   3.107   0.013 -0.3167 -0.0325 -0.1354
 6516TIP3    H119512   4.401   3.188   0.060  0.1096  0.0209 -0.0353
 6516TIP3    H219513   4.337   3.074  -0.017 -0.4690  0.5952 -0.4080
 6517TIP3   OH219514   4.654   0.054   3.666 -0.0666  0.1779  0.3778
 6517TIP3    H119515   4.588  -0.011   3.690  0.9987 -2.3445 -2.7941
 6517TIP3    H219516   4.737   0.014   3.691  0.5302  1.6233  0.8559
 6518TIP3   OH219517   6.904   6.717   0.084  0.7376 -0.0827  0.2550
 6518TIP3    H119518   6.888   6.785   0.150  0.1001 -0.8324  0.8928
 6518TIP3    H219519   6.976   6.666   0.119 -0.2420 -1.0791  0.8659
 6519TIP3   OH219520   4.909   5.141   5.235 -0.3595  0.5721 -0.2648
 6519TIP3    H119521   4.849   5.207   5.199 -1.4303  0.8325  1.8266
 6519TIP3    H219522   4.854   5.064   5.249 -0.0811  0.5989  1.0925
 6520TIP3   OH219523   2.461   5.321   3.828  0.3942 -0.1986 -0.0988
 6520TIP3    H119524   2.506   5.357   3.752  0.6419  0.4194  0.3384
 6520TIP3    H219525   2.523   5.331   3.900  0.2887 -1.0775  0.1257
 6521TIP3   OH219526   4.658   0.622   2.420  0.3376 -0.1325 -0.0938
 6521TIP3    H119527   4.703   0.706   2.428 -0.8776  0.3470  3.2373
 6521TIP3    H219528   4.649   0.608   2.325  2.4686  2.3820 -0.7789
 6522TIP3   OH219529   0.338   2.678   1.107 -0.0547 -0.2073 -0.7549
 6522TIP3    H119530   0.256   2.637   1.135  1.1357 -1.3077  1.4426
 6522TIP3    H219531   0.314   2.733   1.033 -2.4691 -1.7358 -1.2180
 6523TIP3   OH219532   3.246   6.832   3.513 -0.2976 -0.3850 -0.1092
 6523TIP3    H119533   3.210   6.810   3.427  0.6937 -0.6258 -0.4806
 6523TIP3    H219534   3.226   6.756   3.567 -1.4255  0.0064  0.0372
 6524TIP3   OH219535   3.750   1.934   5.109  0.3262 -0.7102 -0.7760
 6524TIP3    H119536   3.843   1.944   5.129  0.5131 -2.4337 -0.6048
 6524TIP3    H219537   3.710   2.017   5.137  1.6887 -0.2450 -0.1295
 6525TIP3   OH219538   3.419   2.874   4.252 -0.2781 -0.3724  0.1115
 6525TIP3    H119539   3.333   2.911   4.231 -1.2381 -1.7370  1.4192
 6525TIP3    H219540   3.463   2.942   4.302 -0.6497  0.2686 -0.4063
 6526TIP3   OH219541   6.880   1.032   4.337  0.2215 -0.6765  0.2439
 6526TIP3    H119542   6.893   0.995   4.424 -1.2418 -2.4092 -0.2143
 6526TIP3    H219543   6.959   1.007   4.289  0.6628 -0.4320  0.8203
 6527TIP3   OH219544   1.019   0.008   5.180  0.0406 -0.2434  0.5960
 6527TIP3    H119545   1.051  -0.009   5.268 -2.0340 -1.0599  1.2498
 6527TIP3    H219546   0.924   0.004   5.188 -0.2093  0.2861 -1.5661
 6528TIP3   OH219547   4.097   3.878   4.287  0.0831 -0.9909  0.2873
 6528TIP3    H119548   4.167   3.900   4.226 -1.8662  0.0019 -1.7188
 6528TIP3    H219549   4.017   3.881   4.235 -1.9499  1.6197  3.1553
 6529TIP3   OH219550   1.746   4.580   4.794 -0.2626 -0.0478  0.2108
 6529TIP3    H119551   1.829   4.562   4.839  0.5237  0.4628 -0.9919
 6529TIP3    H219552   1.698   4.635   4.855  1.3061  1.7080 -0.0418
 6530TIP3   OH219553   1.680   0.121   1.760 -0.1713  0.0419 -0.6665
 6530TIP3    H119554   1.712   0.211   1.757  0.6516 -0.2355 -0.2426
 6530TIP3    H219555   1.677   0.094   1.668  1.2941 -0.0981 -0.6848
 6531TIP3   OH219556   7.037   3.771   2.215 -0.1312 -0.5461 -0.6987
 6531TIP3    H119557   6.959   3.718   2.232  1.6952 -2.8954  0.9637
 6531TIP3    H219558   7.018   3.855   2.257 -0.8811 -1.8847  1.8330
 6532TIP3   OH219559   5.646   5.895   2.940  0.2508  0.9862 -0.0079
 6532TIP3    H119560   5.556   5.926   2.945 -0.3846 -0.6647 -0.3247
 6532TIP3    H219561   5.647   5.837   2.863  1.9819  2.1446 -0.9280
 6533TIP3   OH219562   1.706   3.167   3.363 -0.1944  0.5709  0.3975
 6533TIP3    H119563   1.678   3.092   3.311  1.5385 -0.6957  1.2291
 6533TIP3    H219564   1.679   3.145   3.452 -0.7411  1.5158  0.4837
 6534TIP3   OH219565   4.014   5.867   0.183  0.0301 -0.6527 -0.4414
 6534TIP3    H119566   4.084   5.888   0.122  0.7805  0.4884  0.7428
 6534TIP3    H219567   4.058   5.855   0.267 -1.1940  0.4044  0.4025
 6535TIP3   OH219568   1.609   2.688   2.409 -0.1670  0.3361 -0.0352
 6535TIP3    H119569   1.662   2.750   2.459  0.0782 -1.5350  2.1664
 6535TIP3    H219570   1.521   2.696   2.445 -1.0791  2.0788 -2.4017
 6536TIP3   OH219571   0.701   5.879   0.396 -0.4277 -0.1486 -0.2179
 6536TIP3    H119572   0.655   5.910   0.318 -1.2609 -1.3215 -0.2191
 6536TIP3    H219573   0.748   5.800   0.366 -0.8695 -0.6914  0.4813
 6537TIP3   OH219574   6.140   4.100   0.443 -0.3012  0.2658 -1.1546
 6537TIP3    H119575   6.046   4.089   0.428 -0.2192  0.2535 -1.6696
 6537TIP3    H219576   6.180   4.082   0.358  0.1324  0.7673 -1.0608
 6538TIP3   OH219577   4.028   0.076   0.383  0.0018 -0.0855 -0.2648
 6538TIP3    H119578   4.107   0.049   0.431  0.5063  1.3079 -0.2781
 6538TIP3    H219579   3.994   0.150   0.433 -2.0952 -1.4836  0.5146
 6539TIP3   OH219580   0.143   1.232   0.560 -0.0625  0.2306  0.1541
 6539TIP3    H119581   0.131   1.298   0.492 -0.0258  0.0784 -0.0003
 6539TIP3    H219582   0.107   1.152   0.522 -0.1660  0.1751  0.3651
 6540TIP3   OH219583   2.387   1.449   4.673  0.4756 -0.5619 -0.4606
 6540TIP3    H119584   2.335   1.487   4.744  1.2034 -0.1824 -0.1275
 6540TIP3    H219585   2.473   1.435   4.711  1.3258  1.0407 -1.6672
 6541TIP3   OH219586   0.911   1.111   1.235  0.1399  0.1687  0.3206
 6541TIP3    H119587   0.892   1.023   1.202 -1.0821  0.2206  0.7965
 6541TIP3    H219588   0.908   1.101   1.330  2.6330  0.2129  0.4597
 6542TIP3   OH219589   2.196   1.446   4.159 -0.8949  0.6844 -0.2090
 6542TIP3    H119590   2.149   1.467   4.078 -0.4684  1.2290 -0.3180
 6542TIP3    H219591   2.215   1.353   4.152 -1.9593  0.4436 -0.1612
 6543TIP3   OH219592   1.206   2.671   2.255 -0.2167  0.6584  0.0504
 6543TIP3    H119593   1.252   2.754   2.240  1.1848 -0.3552 -1.6259
 6543TIP3    H219594   1.274   2.610   2.282 -1.0554 -0.2247  0.2320
 6544TIP3   OH219595   0.194   2.346   5.070  0.7448  0.2075  0.3710
 6544TIP3    H119596   0.206   2.356   4.976  1.4352  1.4671  0.5748
 6544TIP3    H219597   0.172   2.253   5.082  1.9632 -0.2690 -0.8911
 6545TIP3   OH219598   2.285   4.409   0.497 -0.7186  0.0357  0.2838
 6545TIP3    H119599   2.328   4.338   0.544 -0.0584 -1.1402 -1.9583
 6545TIP3    H219600   2.351   4.442   0.436 -1.0802  2.4977  1.0729
 6546TIP3   OH219601   4.340   1.749   2.200 -0.3440  0.4278  0.4553
 6546TIP3    H119602   4.246   1.768   2.203 -0.1535  1.5969 -0.4594
 6546TIP3    H219603   4.368   1.753   2.291 -1.7363 -3.1765  1.2250
 6547TIP3   OH219604   6.253   4.550   0.558 -0.6549  0.3173 -0.0339
 6547TIP3    H119605   6.165   4.561   0.593 -0.8409  0.6309 -0.5811
 6547TIP3    H219606   6.253   4.602   0.478 -0.7132 -1.5245 -1.2930
 6548TIP3   OH219607   4.884   3.045   5.772  0.0072 -0.1736 -0.2569
 6548TIP3    H119608   4.905   3.049   5.865 -0.6270 -0.7983 -0.0766
 6548TIP3    H219609   4.836   2.963   5.762 -1.8526  0.9097 -0.7319
 6549TIP3   OH219610   0.398   0.213   2.760  0.3245 -0.5509 -0.2946
 6549TIP3    H119611   0.373   0.147   2.695  2.4751 -1.1613 -0.5908
 6549TIP3    H219612   0.392   0.168   2.844  1.0603 -0.9086 -0.4278
 6550TIP3   OH219613   2.456   3.685   0.671 -0.0065  0.1904  0.0688
 6550TIP3    H119614   2.497   3.599   0.660 -0.6990  0.1179 -3.0135
 6550TIP3    H219615   2.398   3.675   0.747 -1.5885 -2.7818 -1.3418
 6551TIP3   OH219616   0.822   4.392   1.190 -0.1622  0.6097  0.5456
 6551TIP3    H119617   0.794   4.368   1.278 -2.2046  0.7130 -0.0115
 6551TIP3    H219618   0.807   4.312   1.138  1.7498  0.2957  0.3919
 6552TIP3   OH219619   3.110   3.020   3.438  0.3070  0.4545 -0.5069
 6552TIP3    H119620   3.038   3.062   3.485  0.9279  0.4496  0.4703
 6552TIP3    H219621   3.159   3.093   3.401  0.7245  0.5477  0.2133
 6553TIP3   OH219622   1.304   5.813   0.805  0.2434 -0.0256 -0.2508
 6553TIP3    H119623   1.310   5.904   0.775 -0.3502 -0.7088 -2.6343
 6553TIP3    H219624   1.215   5.804   0.838  0.2683  0.2074 -0.1153
 6554TIP3   OH219625   6.440   0.674   5.518  0.6471  0.4404 -0.0438
 6554TIP3    H119626   6.410   0.585   5.537  2.5969 -0.4063 -0.6828
 6554TIP3    H219627   6.510   0.689   5.581  0.5323  1.4200 -0.1395
 6555TIP3   OH219628   3.385   4.605   5.671  0.2359 -0.1521  0.1486
 6555TIP3    H119629   3.429   4.652   5.600 -0.8286 -1.1480 -1.2524
 6555TIP3    H219630   3.355   4.673   5.730  2.0641  0.6460  0.2195
 6556TIP3   OH219631   1.793   4.322   5.753 -0.4055  0.6527 -0.5681
 6556TIP3    H119632   1.790   4.300   5.659  1.2939 -0.7410 -0.3504
 6556TIP3    H219633   1.773   4.240   5.797  0.7396  0.8121  0.2892
 6557TIP3   OH219634   3.614   5.003   5.512  0.2835  0.4850 -0.2383
 6557TIP3    H119635   3.609   5.087   5.466  0.6647  1.6401  1.7542
 6557TIP3    H219636   3.687   5.012   5.572  0.8944 -1.6220 -0.5881
 6558TIP3   OH219637   6.499   5.063   2.978  0.3934  0.5243 -0.2477
 6558TIP3    H119638   6.424   5.046   3.035  0.7851  0.9489  0.4027
 6558TIP3    H219639   6.524   5.153   2.997  0.4068  0.7403 -1.2449
 6559TIP3   OH219640   6.788   1.744   3.474 -0.7138  0.2485 -0.3128
 6559TIP3    H119641   6.874   1.762   3.512  0.8090  0.7458 -3.6453
 6559TIP3    H219642   6.743   1.829   3.474 -0.5474  0.3372 -0.1068
 6560TIP3   OH219643   4.893   6.591   5.864 -0.2634  0.3427 -0.0571
 6560TIP3    H119644   4.886   6.538   5.943  1.0925  0.5963  0.2512
 6560TIP3    H219645   4.805   6.627   5.851 -1.6404 -2.9024 -0.9629
 6561TIP3   OH219646   6.879   2.351   5.569  0.0044 -0.4028 -0.4453
 6561TIP3    H119647   6.968   2.379   5.592  0.2343 -2.1245  0.9412
 6561TIP3    H219648   6.891   2.278   5.508 -0.4143 -1.0325  0.2040
 6562TIP3   OH219649   4.669   1.458   1.818  0.3029  0.8436  0.2639
 6562TIP3    H119650   4.614   1.416   1.752  0.0292  2.8246 -0.8688
 6562TIP3    H219651   4.758   1.431   1.796 -0.0634 -1.8180  1.6805
 6563TIP3   OH219652   4.112   6.099   0.516  0.1035  0.5805 -0.3418
 6563TIP3    H119653   4.080   6.188   0.501  0.1725  0.6311 -0.1818
 6563TIP3    H219654   4.205   6.102   0.494 -0.0476  0.3717 -1.0615
 6564TIP3   OH219655   1.195   1.114   2.750 -0.4982  0.7953 -0.0795
 6564TIP3    H119656   1.112   1.068   2.767 -0.1850 -0.7925 -2.3820
 6564TIP3    H219657   1.224   1.080   2.665  0.9328  3.6527 -0.8621
 6565TIP3   OH219658   2.895   1.151   4.541  0.5035 -0.3318  0.0084
 6565TIP3    H119659   2.824   1.182   4.484  1.5696  2.0714 -0.1578
 6565TIP3    H219660   2.871   1.181   4.628  0.9286 -0.1974  0.0833
 6566TIP3   OH219661   3.702   2.931   1.021 -0.2369  0.5745  0.4028
 6566TIP3    H119662   3.701   3.015   0.975 -0.9883  0.2880 -0.1223
 6566TIP3    H219663   3.616   2.924   1.062 -0.5337 -0.3474 -0.3351
 6567TIP3   OH219664   1.367   4.693   3.042 -0.1209 -0.1121 -0.0630
 6567TIP3    H119665   1.384   4.603   3.071  1.2948  0.9389  2.7210
 6567TIP3    H219666   1.419   4.703   2.963  0.5558 -1.4335  0.1869
 6568TIP3   OH219667   6.044   0.055   0.562  0.3116  0.1744 -0.1104
 6568TIP3    H119668   6.006   0.142   0.574  0.6880  0.3513 -0.1884
 6568TIP3    H219669   6.032   0.012   0.647  0.6129  0.4989  0.1001
 6569TIP3   OH219670   1.721   1.920   2.427 -0.0726  0.0708  0.0247
 6569TIP3    H119671   1.712   1.899   2.334  1.2703 -1.2261  0.1471
 6569TIP3    H219672   1.640   1.888   2.467  0.2733 -1.3880 -0.3942
 6570TIP3   OH219673   2.973   5.119   4.212  0.4999  0.5487  0.9432
 6570TIP3    H119674   2.890   5.122   4.261 -1.3240 -0.3748 -1.8318
 6570TIP3    H219675   3.022   5.048   4.254 -0.2084  0.9029  2.4529
 6571TIP3   OH219676   4.009   0.308   5.860  0.1790 -0.6660  0.1353
 6571TIP3    H119677   3.932   0.363   5.869 -0.2898 -1.2645 -0.1175
 6571TIP3    H219678   4.073   0.345   5.920 -1.1267 -1.5992  2.2048
 6572TIP3   OH219679   0.822   1.389   4.556 -0.0564  0.0002 -0.2421
 6572TIP3    H119680   0.891   1.323   4.560  0.2038  0.1644 -1.5491
 6572TIP3    H219681   0.864   1.469   4.586  0.5427  0.2430 -1.6227
 6573TIP3   OH219682   2.538   1.787   4.721  0.4880  0.3260  0.8450
 6573TIP3    H119683   2.445   1.806   4.731 -0.3254 -2.5840 -0.2615
 6573TIP3    H219684   2.567   1.847   4.652 -0.3244  1.8382  1.7647
 6574TIP3   OH219685   4.565   1.692   0.059 -0.2042  0.0480  0.0556
 6574TIP3    H119686   4.533   1.652  -0.021 -0.7375 -0.6326  0.5929
 6574TIP3    H219687   4.594   1.619   0.113  1.4888  0.5905 -0.0683
 6575TIP3   OH219688   6.370   6.003   4.031 -0.5447 -0.2698 -0.4159
 6575TIP3    H119689   6.426   5.931   4.060 -2.5752 -1.9158 -0.3394
 6575TIP3    H219690   6.429   6.079   4.027  1.9192 -2.0646 -1.3485
 6576TIP3   OH219691   4.029   1.617   2.129 -0.3859  0.0600 -0.2543
 6576TIP3    H119692   3.992   1.549   2.186 -0.3215  0.1079 -0.1564
 6576TIP3    H219693   4.015   1.699   2.177  1.3388 -0.0827  0.5432
 6577TIP3   OH219694   4.550   2.649   1.742 -0.5904  0.4955 -0.3757
 6577TIP3    H119695   4.589   2.719   1.795  1.4171 -1.4433  0.8668
 6577TIP3    H219696   4.465   2.633   1.784  0.0570  0.4455  0.9851
 6578TIP3   OH219697   2.599   1.689   2.717 -0.6424  0.7885  0.0736
 6578TIP3    H119698   2.635   1.601   2.718 -1.3542  0.4892  1.0091
 6578TIP3    H219699   2.554   1.696   2.632 -0.2213  0.4098 -0.1836
 6579TIP3   OH219700   6.476   3.669   2.650  0.1493  0.3170  0.0218
 6579TIP3    H119701   6.438   3.581   2.657  0.0537  0.3184 -0.4627
 6579TIP3    H219702   6.557   3.656   2.600  0.8932  0.2855  1.1818
 6580TIP3   OH219703   5.658   4.787   1.885 -0.5903  0.5128  0.3377
 6580TIP3    H119704   5.746   4.763   1.856 -1.5271 -1.6182 -0.9896
 6580TIP3    H219705   5.659   4.883   1.891  1.6188  0.5616 -0.2440
 6581TIP3   OH219706   1.733   0.960   0.943  1.0884 -0.0608  0.0153
 6581TIP3    H119707   1.682   1.040   0.955 -0.4253 -0.7375 -1.5717
 6581TIP3    H219708   1.688   0.895   0.997 -0.3688 -0.8850 -2.0753
 6582TIP3   OH219709   5.304   5.130   4.868 -0.0515  0.3047  0.4706
 6582TIP3    H119710   5.334   5.188   4.937  0.4998 -1.1711  1.5188
 6582TIP3    H219711   5.371   5.061   4.864  0.4529  0.8377 -2.2101
 6583TIP3   OH219712   0.519   5.482   2.746 -0.0486 -0.3261  0.0166
 6583TIP3    H119713   0.496   5.552   2.806  0.9658 -1.7669  2.2256
 6583TIP3    H219714   0.438   5.432   2.735 -0.3242  0.1479 -0.1060
 6584TIP3   OH219715   0.021   6.735   3.597 -0.5456  0.7998 -0.7244
 6584TIP3    H119716  -0.039   6.793   3.644  0.7410  0.1325  1.9280
 6584TIP3    H219717   0.044   6.667   3.661  1.2970 -0.2316 -2.3661
 6585TIP3   OH219718   6.713   1.501   2.474 -0.1889  0.3829  0.3203
 6585TIP3    H119719   6.772   1.458   2.536 -1.2233  1.0581  1.8477
 6585TIP3    H219720   6.632   1.450   2.478 -0.6067  1.0249  0.3210
 6586TIP3   OH219721   1.486   0.722   2.602 -0.3072  0.0048 -1.0620
 6586TIP3    H119722   1.426   0.734   2.528 -0.6520  1.4828 -0.5855
 6586TIP3    H219723   1.497   0.810   2.638 -0.0803 -0.6572  0.5922
 6587TIP3   OH219724   2.294   3.651   2.945  0.4661  0.2458 -0.5769
 6587TIP3    H119725   2.206   3.657   2.982 -0.5360 -0.9564 -2.5679
 6587TIP3    H219726   2.352   3.641   3.021 -1.0357  1.5577  0.7985
 6588TIP3   OH219727   2.081   1.559   4.374  1.0215 -0.2788  0.2436
 6588TIP3    H119728   2.131   1.509   4.309 -0.4788 -0.0803 -1.1065
 6588TIP3    H219729   2.008   1.597   4.325  0.8137  1.3392  1.7064
 6589TIP3   OH219730   5.253   1.370   5.216  0.7484  0.2338 -0.0606
 6589TIP3    H119731   5.194   1.445   5.214  0.8960  0.4585  1.8002
 6589TIP3    H219732   5.340   1.407   5.204  1.0433  0.7303  2.8197
 6590TIP3   OH219733   4.459   4.175   5.096  0.1504  0.4165  0.3444
 6590TIP3    H119734   4.475   4.237   5.167 -1.6906  1.0757  0.2471
 6590TIP3    H219735   4.390   4.217   5.044  0.0569 -0.9686 -0.6940
 6591TIP3   OH219736   0.264   5.806   2.144  0.0970  0.0554 -0.4149
 6591TIP3    H119737   0.304   5.745   2.205 -0.7843  0.5604  0.7119
 6591TIP3    H219738   0.255   5.757   2.062 -0.6556 -1.3563  0.4802
 6592TIP3   OH219739   5.341   6.466   2.162  0.1020 -0.2172  0.3771
 6592TIP3    H119740   5.422   6.432   2.125 -0.0612 -0.2987  0.0963
 6592TIP3    H219741   5.346   6.446   2.255  0.6204  0.1967  0.4425
 6593TIP3   OH219742   2.588   3.662   1.707 -0.3613  0.0934  0.2275
 6593TIP3    H119743   2.680   3.646   1.687 -0.5657 -1.0561  0.1030
 6593TIP3    H219744   2.540   3.616   1.637 -1.0399 -1.3378  1.5755
 6594TIP3   OH219745   6.946   0.605   3.952  0.4053  0.2374  0.6812
 6594TIP3    H119746   7.028   0.651   3.936  0.8705 -0.5889  0.6148
 6594TIP3    H219747   6.916   0.636   4.037 -0.2918  2.0828 -0.1787
 6595TIP3   OH219748   6.367   6.273   5.768  0.1308  0.2855 -0.2355
 6595TIP3    H119749   6.355   6.180   5.789 -1.3485  0.9607  2.2217
 6595TIP3    H219750   6.311   6.287   5.692 -0.6445 -0.5632  0.1529
 6596TIP3   OH219751   0.758   1.386   3.458 -0.2974 -0.4397  0.0206
 6596TIP3    H119752   0.800   1.303   3.477  0.0260 -0.0312  1.1783
 6596TIP3    H219753   0.811   1.451   3.505 -1.7795  0.1634  0.9152
 6597TIP3   OH219754   0.693   3.145   3.269  0.5249  0.3179 -0.0923
 6597TIP3    H119755   0.635   3.134   3.344  0.6448 -0.6651 -0.1255
 6597TIP3    H219756   0.693   3.239   3.251  3.1360  1.1276  3.2502
 6598TIP3   OH219757   5.660   2.958   5.561  0.2915 -0.1414  0.0678
 6598TIP3    H119758   5.605   2.893   5.605  2.5716 -0.8239  2.1470
 6598TIP3    H219759   5.722   2.906   5.510  2.2463  0.2550  1.8864
 6599TIP3   OH219760   5.419   0.437   3.496 -0.2319  0.1669 -0.4343
 6599TIP3    H119761   5.428   0.360   3.552  1.7140  0.3421 -0.4569
 6599TIP3    H219762   5.437   0.512   3.553 -0.7051  0.5219 -0.7371
 6600TIP3   OH219763   6.664   6.072   4.851 -0.6457 -0.5050  0.2792
 6600TIP3    H119764   6.617   6.086   4.769  0.9162  0.2230 -0.5219
 6600TIP3    H219765   6.650   5.979   4.870 -0.7861 -0.7561 -0.9667
 6601TIP3   OH219766   4.293   5.805   0.145 -0.3204  0.3681 -0.0549
 6601TIP3    H119767   4.384   5.834   0.132 -0.6811  0.6445 -2.6805
 6601TIP3    H219768   4.300   5.710   0.157  0.4025  0.6082  1.7414
 6602TIP3   OH219769   6.272   2.945   5.544 -0.4080  0.4501  0.1724
 6602TIP3    H119770   6.324   3.025   5.551 -0.8872  0.7827 -0.0253
 6602TIP3    H219771   6.305   2.900   5.466  0.9757 -0.3681  1.1793
 6603TIP3   OH219772   3.956   0.492  -0.021 -0.3637  0.1488 -0.2113
 6603TIP3    H119773   3.863   0.485   0.002 -0.0969 -1.5950  0.4968
 6603TIP3    H219774   3.997   0.526   0.058 -0.2727  0.0189 -0.2030
 6604TIP3   OH219775   6.363   1.693   2.440 -0.0356  0.0323  0.2833
 6604TIP3    H119776   6.394   1.659   2.357  0.2174 -0.7713  0.6980
 6604TIP3    H219777   6.366   1.789   2.430  0.1793 -0.0608 -0.5485
 6605TIP3   OH219778   6.362   2.576   4.883 -0.4726  0.2300  0.6274
 6605TIP3    H119779   6.295   2.511   4.864  0.1178 -0.2962  0.3185
 6605TIP3    H219780   6.390   2.556   4.973  0.6755 -0.8293  0.0578
 6606TIP3   OH219781   6.082   0.102   1.293  0.3327 -0.0884 -0.1869
 6606TIP3    H119782   6.044   0.017   1.314  0.7031 -0.1016  0.4706
 6606TIP3    H219783   6.010   0.152   1.255  0.2663 -0.9003 -1.1714
 6607TIP3   OH219784   5.857   6.747   3.679  0.3021 -0.7317  0.3249
 6607TIP3    H119785   5.869   6.837   3.708 -0.0890 -0.0349 -1.5235
 6607TIP3    H219786   5.939   6.703   3.701  0.6571  0.1804  0.8572
 6608TIP3   OH219787   4.388   1.333   4.859 -0.4573 -0.0137 -0.3490
 6608TIP3    H119788   4.468   1.375   4.892  1.3520 -3.4544  0.1787
 6608TIP3    H219789   4.392   1.345   4.764  0.8929 -0.3453 -0.3594
 6609TIP3   OH219790   0.032   3.579   2.473  0.3796  0.1846 -0.5239
 6609TIP3    H119791  -0.041   3.626   2.434 -0.6708 -0.8598  0.1340
 6609TIP3    H219792   0.028   3.602   2.566  0.4961 -0.3672 -0.3781
 6610TIP3   OH219793   3.619   3.059   4.330  0.2811  0.4500  0.2691
 6610TIP3    H119794   3.698   3.067   4.383  0.5489  0.0609 -0.0559
 6610TIP3    H219795   3.646   3.087   4.242  0.4504 -1.0324 -0.1795
 6611TIP3   OH219796   3.158   3.284   1.376  0.1088  0.1467 -0.4984
 6611TIP3    H119797   3.208   3.230   1.438  1.6140  1.5144 -0.4408
 6611TIP3    H219798   3.136   3.224   1.304 -0.8958 -1.2475  0.8976
 6612TIP3   OH219799   2.996   1.480   5.124 -0.0197  0.3631 -0.0967
 6612TIP3    H119800   3.024   1.489   5.033  0.8347  1.3437  0.2429
 6612TIP3    H219801   2.961   1.566   5.147 -1.6211 -0.2942  0.0740
 6613TIP3   OH219802   2.539   0.629   2.298  0.5942 -0.4880  0.7874
 6613TIP3    H119803   2.521   0.642   2.205  1.0961 -0.2136  0.7256
 6613TIP3    H219804   2.602   0.556   2.300 -0.1071 -1.1027  0.9708
 6614TIP3   OH219805   2.506   5.343   5.752  0.1746 -0.4377  0.2331
 6614TIP3    H119806   2.529   5.250   5.752  1.2867 -0.1833  1.4219
 6614TIP3    H219807   2.511   5.369   5.844 -0.6509  0.6785 -0.0215
 6615TIP3   OH219808   5.315   0.744   0.001 -0.6888 -0.3949  0.5309
 6615TIP3    H119809   5.263   0.666   0.017 -1.2786 -0.0453  0.3832
 6615TIP3    H219810   5.406   0.715   0.007 -0.8430 -0.5026  3.4048
 6616TIP3   OH219811   2.131   2.569   1.434 -0.3759 -0.0183 -0.0274
 6616TIP3    H119812   2.205   2.614   1.392 -1.7937  2.6320  0.0816
 6616TIP3    H219813   2.135   2.597   1.525  0.3514 -2.5461  0.7880
 6617TIP3   OH219814   6.329   2.489   2.258  0.4496  0.2527 -0.0886
 6617TIP3    H119815   6.386   2.535   2.197 -1.4981  0.7607 -1.6111
 6617TIP3    H219816   6.281   2.426   2.204 -0.9808  0.3823  0.9797
 6618TIP3   OH219817   2.320   0.480   3.327 -0.0093 -0.8398 -0.0101
 6618TIP3    H119818   2.344   0.573   3.326 -0.9012 -0.6052 -0.3878
 6618TIP3    H219819   2.320   0.454   3.235 -1.8756 -0.6318 -0.1175
 6619TIP3   OH219820   0.996   4.357   5.854 -0.6632 -0.2613  0.1349
 6619TIP3    H119821   1.035   4.283   5.901 -0.7383 -1.7701 -2.0443
 6619TIP3    H219822   0.905   4.359   5.884 -0.1930  0.1649  1.5980
 6620TIP3   OH219823   0.869   1.573   4.935  0.1990  0.0280  0.0380
 6620TIP3    H119824   0.782   1.533   4.935  0.2836 -0.1748 -0.9402
 6620TIP3    H219825   0.855   1.660   4.899  0.4259 -0.0704 -0.2884
 6621TIP3   OH219826   7.180   0.447   0.198  0.3730  0.8182 -0.5727
 6621TIP3    H119827   7.241   0.509   0.158  0.3559  0.1501 -1.6699
 6621TIP3    H219828   7.094   0.477   0.171  0.3886  0.0659 -1.5027
 6622TIP3   OH219829   3.710   0.504   5.643 -0.0466 -0.3181 -0.2075
 6622TIP3    H119830   3.617   0.494   5.661  0.3502 -0.3650  2.1273
 6622TIP3    H219831   3.741   0.415   5.627  0.1703 -0.7933  2.4615
 6623TIP3   OH219832   6.214   3.605   5.634  0.4441 -0.3510 -0.4750
 6623TIP3    H119833   6.207   3.700   5.635  1.6531 -0.2398  0.6470
 6623TIP3    H219834   6.259   3.584   5.716 -1.4187 -2.0382  0.2037
 6624TIP3   OH219835   6.033   2.054   4.623 -0.3068 -0.4259  0.3797
 6624TIP3    H119836   6.025   2.149   4.619 -0.0794 -0.4461 -1.0797
 6624TIP3    H219837   6.030   2.033   4.717 -1.4403  0.9093  0.6667
 6625TIP3   OH219838   5.013   5.446   2.341 -0.4498  0.0983  0.1922
 6625TIP3    H119839   5.022   5.350   2.339 -0.5110  0.0978 -0.0595
 6625TIP3    H219840   4.920   5.461   2.358 -0.6989  0.1160 -1.1327
 6626TIP3   OH219841   6.053   0.634   3.304 -0.5223  0.2974 -0.2774
 6626TIP3    H119842   6.069   0.678   3.388 -2.5474 -0.0437  0.3535
 6626TIP3    H219843   5.968   0.667   3.276 -1.3502 -1.9532 -0.5835
 6627TIP3   OH219844   6.301   1.191   3.291  0.4074 -0.1922 -0.1017
 6627TIP3    H119845   6.267   1.228   3.209  2.1769  3.0008  0.4717
 6627TIP3    H219846   6.378   1.141   3.264  0.8279  0.6218 -0.4533
 6628TIP3   OH219847   5.924   6.378   2.251 -0.5505  0.1099  0.4930
 6628TIP3    H119848   5.990   6.411   2.191 -1.7925  3.7410  0.9076
 6628TIP3    H219849   5.974   6.341   2.324  0.9594  0.0463 -0.5295
 6629TIP3   OH219850   0.100   0.602   0.516  0.3029 -0.2429 -0.0213
 6629TIP3    H119851   0.032   0.667   0.536  0.6891  0.1831 -0.0812
 6629TIP3    H219852   0.114   0.556   0.599 -1.4387 -1.6689 -0.4562
 6630TIP3   OH219853   1.383   1.448   1.116  0.2194  0.2171  0.7469
 6630TIP3    H119854   1.302   1.463   1.067  0.7461 -1.8133 -0.8641
 6630TIP3    H219855   1.356   1.392   1.189  0.1228 -0.3028  0.3196
 6631TIP3   OH219856   7.213   3.835   0.935 -0.1347 -0.4303 -0.7102
 6631TIP3    H119857   7.182   3.860   1.023  0.2243  0.3276 -0.7872
 6631TIP3    H219858   7.202   3.914   0.883 -1.6189 -1.2576 -1.7247
 6632TIP3   OH219859   5.596   1.506   3.619 -0.2457  1.1216 -0.1320
 6632TIP3    H119860   5.619   1.528   3.710  0.9228 -1.4876  0.2961
 6632TIP3    H219861   5.503   1.484   3.623 -0.3729  1.7121  0.2850
 6633TIP3   OH219862   0.033   0.662   3.456 -0.0214 -0.0415 -0.8221
 6633TIP3    H119863   0.040   0.643   3.362  1.0000 -1.5661 -0.4793
 6633TIP3    H219864   0.104   0.724   3.473 -0.6983  0.8580 -1.1714
 6634TIP3   OH219865   0.893   1.381   1.526 -0.2015 -0.7207 -0.5001
 6634TIP3    H119866   0.965   1.360   1.468 -0.1928 -0.5183 -0.5639
 6634TIP3    H219867   0.876   1.300   1.575 -0.8519 -1.1889 -1.4667
 6635TIP3   OH219868   3.668   1.529   4.813  0.3600  0.3197  0.1515
 6635TIP3    H119869   3.712   1.612   4.831  0.7729  0.0053  0.6074
 6635TIP3    H219870   3.738   1.464   4.813  0.0862  0.0079 -0.5203
 6636TIP3   OH219871   5.314   5.496   5.239 -0.0414  0.1648 -0.5778
 6636TIP3    H119872   5.256   5.422   5.257 -1.9370  1.1977 -2.0571
 6636TIP3    H219873   5.260   5.573   5.256  1.8601  1.2747  0.8574
 6637TIP3   OH219874   3.103   6.166   0.276  0.3696  0.3165  0.9823
 6637TIP3    H119875   3.054   6.115   0.212 -0.1718  1.8419  0.1251
 6637TIP3    H219876   3.117   6.105   0.349  1.5666 -1.6643 -0.7945
 6638TIP3   OH219877   1.406   3.673   4.111  0.2384  0.1951  0.7989
 6638TIP3    H119878   1.431   3.760   4.080 -0.0205  0.3055  0.8982
 6638TIP3    H219879   1.316   3.683   4.141 -0.2156 -0.3909 -0.3176
 6639TIP3   OH219880   6.785   2.739   3.767  0.4274  0.3212 -0.5095
 6639TIP3    H119881   6.788   2.768   3.858  1.4358 -1.3877  0.0506
 6639TIP3    H219882   6.822   2.811   3.717 -0.9106  1.6214  0.3197
 6640TIP3   OH219883   0.147   2.300   5.837  0.0429  0.2125  0.3598
 6640TIP3    H119884   0.186   2.224   5.881  0.0951  0.1953  0.2834
 6640TIP3    H219885   0.096   2.344   5.906  0.2159  0.2486  0.4651
 6641TIP3   OH219886   2.519   1.279   3.542 -0.6020  0.6526  0.5533
 6641TIP3    H119887   2.557   1.290   3.629 -0.8109 -1.3644  0.9403
 6641TIP3    H219888   2.452   1.212   3.553  0.4207 -0.8348 -1.4156
 6642TIP3   OH219889   6.590   6.013   2.582 -0.5493  0.0457 -0.1976
 6642TIP3    H119890   6.662   6.055   2.628 -0.5864 -1.5891  1.4884
 6642TIP3    H219891   6.612   6.022   2.489  1.4840  0.1694  0.2490
 6643TIP3   OH219892   5.653   1.787   0.523 -0.2741  0.0432 -0.1087
 6643TIP3    H119893   5.716   1.859   0.519 -0.7550  0.4188 -1.8079
 6643TIP3    H219894   5.704   1.708   0.509 -0.1217  0.3150 -1.1192
 6644TIP3   OH219895   0.259   4.376   0.102 -0.0955  0.1055  0.0899
 6644TIP3    H119896   0.278   4.340   0.189 -0.6617  0.9700  0.5914
 6644TIP3    H219897   0.328   4.441   0.088 -1.0038  1.2449  0.6956
 6645TIP3   OH219898   3.143   3.927   2.275  0.5430  0.2874 -0.2128
 6645TIP3    H119899   3.159   3.958   2.186  2.2995 -0.4597 -0.2175
 6645TIP3    H219900   3.107   4.002   2.322  0.3265  0.9125 -1.3711
 6646TIP3   OH219901   2.284   2.753   4.958  0.1723  0.0782  0.3338
 6646TIP3    H119902   2.264   2.667   4.920  0.5832  0.6580 -1.3104
 6646TIP3    H219903   2.366   2.741   5.005 -0.5317 -0.7563  1.3869
 6647TIP3   OH219904   4.600   4.640   5.277  0.2587 -0.2665  0.2679
 6647TIP3    H119905   4.623   4.598   5.359 -0.8448 -0.7632  0.3409
 6647TIP3    H219906   4.645   4.589   5.210 -0.7676 -1.3669  0.3872
 6648TIP3   OH219907   4.899   3.586   4.447  0.2248  0.0906  0.3688
 6648TIP3    H119908   4.811   3.604   4.481 -0.2161 -1.3178  0.0770
 6648TIP3    H219909   4.906   3.640   4.368 -0.3565  0.2699  0.4328
 6649TIP3   OH219910   0.655   1.435   0.759 -0.2398  0.1328  0.1857
 6649TIP3    H119911   0.705   1.413   0.681  0.3929  1.0430  0.3102
 6649TIP3    H219912   0.632   1.527   0.747 -2.5407 -0.4272 -0.2012
 6650TIP3   OH219913   4.682   0.119   0.978 -0.2653  0.3888  0.2167
 6650TIP3    H119914   4.717   0.032   0.997 -0.4873  0.1029 -0.6239
 6650TIP3    H219915   4.624   0.138   1.051  0.7156  0.3647  1.0353
 6651TIP3   OH219916   4.732   6.478   4.632 -0.0409  0.4638  0.0317
 6651TIP3    H119917   4.728   6.463   4.537  1.4884  0.2855 -0.0232
 6651TIP3    H219918   4.757   6.569   4.642  2.0438 -0.0836  0.2018
 6652TIP3   OH219919   4.413   0.758   5.530  0.2987  0.2962  0.6428
 6652TIP3    H119920   4.388   0.790   5.616 -1.8899 -0.3141  0.2990
 6652TIP3    H219921   4.345   0.695   5.506  2.3087 -1.6819 -0.3820
 6653TIP3   OH219922   1.648   4.001   3.881 -0.5776 -0.4913 -0.2112
 6653TIP3    H119923   1.643   4.045   3.965 -2.8993 -1.3329  0.1595
 6653TIP3    H219924   1.658   4.072   3.817 -1.1214  0.3203  0.5944
 6654TIP3   OH219925   5.986   3.376   3.032 -0.0811 -1.0855 -0.3324
 6654TIP3    H119926   5.977   3.347   2.941 -2.6237  0.9079 -0.8219
 6654TIP3    H219927   5.954   3.466   3.031  1.4120 -0.4455  2.2726
 6655TIP3   OH219928   1.213   6.323   0.187  0.4475  0.3567 -0.3314
 6655TIP3    H119929   1.215   6.299   0.280  0.1412 -0.0658 -0.4328
 6655TIP3    H219930   1.158   6.401   0.183 -0.8293 -0.5114 -0.3500
 6656TIP3   OH219931   1.919   0.320   4.124 -0.5037 -0.0416  0.3176
 6656TIP3    H119932   1.945   0.345   4.035 -2.7167 -0.4244 -0.4860
 6656TIP3    H219933   1.840   0.370   4.141  0.5711  1.0431  2.6477
 6657TIP3   OH219934   3.467   4.897   0.668  0.3496 -0.2408 -0.3142
 6657TIP3    H119935   3.460   4.854   0.754 -0.2390  0.8009  0.1755
 6657TIP3    H219936   3.530   4.843   0.620 -0.4089 -1.6799  0.2424
 6658TIP3   OH219937   0.466   6.792   0.487 -0.0644 -0.2441 -0.1618
 6658TIP3    H119938   0.527   6.738   0.537  0.4845 -0.2455 -0.8224
 6658TIP3    H219939   0.409   6.831   0.553  0.7816 -0.0773  0.4855
 6659TIP3   OH219940   1.622   4.136   0.465 -0.0542 -0.2997  0.0179
 6659TIP3    H119941   1.573   4.057   0.441  0.0974 -0.7795  1.2327
 6659TIP3    H219942   1.554   4.200   0.487 -0.1627 -0.4450  0.1092
 6660TIP3   OH219943   3.753   4.495   1.749  0.0764  0.3059 -0.1585
 6660TIP3    H119944   3.837   4.504   1.706 -0.2615  0.9636 -0.6971
 6660TIP3    H219945   3.755   4.407   1.788  1.3208  0.6248  0.5448
 6661TIP3   OH219946   0.564   6.003   0.195 -0.0194 -0.6352 -0.1021
 6661TIP3    H119947   0.499   6.065   0.228  0.4990  0.3105 -0.8358
 6661TIP3    H219948   0.521   5.961   0.120 -0.3880 -1.2343  0.4241
 6662TIP3   OH219949   5.866   0.461   5.586 -0.1470 -0.2132  0.4330
 6662TIP3    H119950   5.881   0.453   5.491  0.1885 -0.7897  0.5326
 6662TIP3    H219951   5.873   0.372   5.619 -1.8334 -0.2536  0.7783
 6663TIP3   OH219952   1.806   6.000   3.097  0.3006 -0.3338 -0.2172
 6663TIP3    H119953   1.894   5.995   3.060  0.1650 -0.2415 -0.5504
 6663TIP3    H219954   1.806   5.936   3.168  1.9815  2.4089  2.5656
 6664TIP3   OH219955   4.195   0.039   5.272 -0.3037 -0.4136 -0.0771
 6664TIP3    H119956   4.213   0.097   5.346  1.7912  0.1903 -0.9667
 6664TIP3    H219957   4.214  -0.049   5.306  2.0070 -0.0301 -0.1820
 6665TIP3   OH219958   0.188   0.328   0.817  0.1121  0.1068 -0.1792
 6665TIP3    H119959   0.269   0.314   0.767 -0.2169  0.4227 -0.8173
 6665TIP3    H219960   0.191   0.420   0.841 -0.3823  0.2797 -0.7859
 6666TIP3   OH219961   4.963   4.142   1.612  0.1254  0.2295 -0.1834
 6666TIP3    H119962   4.973   4.227   1.568 -0.6642  1.0857  1.2174
 6666TIP3    H219963   5.020   4.083   1.563 -1.1344  0.9755 -2.7097
 6667TIP3   OH219964   6.623   2.726   5.382  1.1892 -0.2095 -0.3557
 6667TIP3    H119965   6.626   2.650   5.440  2.8996 -0.1389 -0.3074
 6667TIP3    H219966   6.699   2.715   5.325  0.4155  0.5372 -1.5642
 6668TIP3   OH219967   0.583   2.815   1.123 -0.1000  0.3076 -0.1251
 6668TIP3    H119968   0.487   2.813   1.127 -0.3268  1.3063 -2.8528
 6668TIP3    H219969   0.605   2.904   1.153  0.0995 -0.2348  1.4275
 6669TIP3   OH219970   6.524   1.046   0.975  0.1754 -1.0979  0.1281
 6669TIP3    H119971   6.521   1.003   1.060  0.6292  0.2189  0.8441
 6669TIP3    H219972   6.492   1.135   0.992  0.3188 -0.8013 -1.0619
 6670TIP3   OH219973   2.213   3.354   1.957  0.4263 -0.2347  0.0292
 6670TIP3    H119974   2.288   3.386   1.906  0.5120  0.9303  0.8523
 6670TIP3    H219975   2.221   3.398   2.041 -0.0720 -1.6442  0.8339
 6671TIP3   OH219976   5.143   4.081   3.083  0.3788  0.9335  0.6595
 6671TIP3    H119977   5.114   4.171   3.072 -0.5108  0.7770  1.5676
 6671TIP3    H219978   5.145   4.045   2.994  2.0029  2.1903  0.1300
 6672TIP3   OH219979   6.572   1.598   1.251  0.0441 -0.9327 -0.3493
 6672TIP3    H119980   6.643   1.576   1.191 -0.9980 -2.1282 -1.2039
 6672TIP3    H219981   6.515   1.655   1.200 -0.5003 -1.4147 -0.2946
 6673TIP3   OH219982   5.577   3.730   5.166  0.1570 -0.1520 -0.4578
 6673TIP3    H119983   5.527   3.690   5.237  0.9080  1.4690  1.0386
 6673TIP3    H219984   5.638   3.661   5.139 -0.4974 -0.9676  0.0838
 6674TIP3   OH219985   5.006   3.161   3.910  0.0940  0.1198 -0.1852
 6674TIP3    H119986   5.032   3.103   3.838 -2.0124 -0.4404 -0.5459
 6674TIP3    H219987   5.056   3.242   3.894  2.6661 -1.3228  0.0127
 6675TIP3   OH219988   2.496   3.125   4.476 -0.4448  0.5701  0.5602
 6675TIP3    H119989   2.557   3.110   4.548  0.0525 -0.9767 -0.1513
 6675TIP3    H219990   2.483   3.039   4.437 -0.3296  1.4470 -1.5201
 6676TIP3   OH219991   3.147   2.421   2.313 -0.3830 -0.4173 -0.2423
 6676TIP3    H119992   3.099   2.494   2.353  2.4139  0.7819  1.1544
 6676TIP3    H219993   3.204   2.462   2.248  0.3185 -1.5146 -0.3512
 6677TIP3   OH219994   5.650   0.104   1.956 -0.1548 -0.3770 -0.1095
 6677TIP3    H119995   5.671   0.030   2.013 -0.9555 -0.1549  0.4927
 6677TIP3    H219996   5.555   0.103   1.949 -0.1081  0.0063 -0.9022
 6678TIP3   OH219997   2.044   4.723   5.174  0.3971 -0.4622  0.1925
 6678TIP3    H119998   2.046   4.819   5.167  1.0785 -0.5680 -2.2584
 6678TIP3    H219999   2.101   4.703   5.247  1.0174  0.9927  0.1458
 6679TIP3   OH220000   2.525   6.062   5.090 -0.1707 -0.1798 -0.1890
 6679TIP3    H120001   2.529   5.984   5.034  0.2664 -0.6748  0.5075
 6679TIP3    H220002   2.582   6.125   5.046 -2.5130  0.6997 -2.1233
 6680TIP3   OH220003   2.842   0.551   0.820  0.3455  0.2555 -0.1527
 6680TIP3    H120004   2.824   0.465   0.858  0.0845  0.2243 -0.3385
 6680TIP3    H220005   2.755   0.587   0.802  0.2641  1.9598  2.9859
 6681TIP3   OH220006   3.087   4.320   3.622 -0.0164  0.9673  0.2102
 6681TIP3    H120007   3.030   4.266   3.676 -0.0860 -0.9307 -1.6521
 6681TIP3    H220008   3.169   4.270   3.616  0.1952  1.4164 -0.9394
 6682TIP3   OH220009   2.206   2.489   3.856  0.2089 -0.2833 -0.0365
 6682TIP3    H120010   2.297   2.501   3.828  1.1934 -2.3190  1.9705
 6682TIP3    H220011   2.182   2.572   3.895  1.3119  0.1987 -0.3350
 6683TIP3   OH220012   1.036   1.114   0.929 -0.3204 -0.0075 -0.3887
 6683TIP3    H120013   0.946   1.085   0.913 -0.6000  1.5946 -2.0145
 6683TIP3    H220014   1.056   1.083   1.017 -3.0086  0.9203  0.6458
 6684TIP3   OH220015   5.423   4.748   2.772  0.2880 -0.2567 -0.2076
 6684TIP3    H120016   5.381   4.701   2.844 -0.0567 -0.3994 -0.4998
 6684TIP3    H220017   5.371   4.828   2.763  0.0571 -0.4512 -0.5941
 6685TIP3   OH220018   5.135   5.589   3.763  0.3413 -0.5347 -0.1540
 6685TIP3    H120019   5.200   5.622   3.825  0.4246  0.5363 -0.7730
 6685TIP3    H220020   5.079   5.532   3.815  0.0735  0.7696  1.0547
 6686TIP3   OH220021   2.931   0.694   4.965  0.8088 -0.3113  0.6550
 6686TIP3    H120022   2.982   0.694   5.046 -0.1912 -2.6885  1.3810
 6686TIP3    H220023   2.845   0.661   4.992 -0.1473  0.6766 -1.0611
 6687TIP3   OH220024   2.518   4.005   5.415  0.3481  0.0609 -0.2865
 6687TIP3    H120025   2.426   4.016   5.392 -0.0451  1.2825  1.6354
 6687TIP3    H220026   2.555   3.954   5.343 -1.8519 -0.6091 -1.0142
 6688TIP3   OH220027   6.066   4.341   5.161  0.2226  0.3200 -0.5683
 6688TIP3    H120028   6.152   4.301   5.158  0.3443  0.5783 -2.7942
 6688TIP3    H220029   6.006   4.271   5.136 -0.2985  0.0360  1.3565
 6689TIP3   OH220030   3.312   4.000   2.961 -0.5643 -0.2489 -0.0565
 6689TIP3    H120031   3.226   4.030   2.989  0.0324 -0.1151  1.7712
 6689TIP3    H220032   3.368   4.077   2.971 -0.0426 -0.5955 -0.2807
 6690TIP3   OH220033   3.093   4.199   4.866 -0.2272  0.0774 -0.3176
 6690TIP3    H120034   3.108   4.108   4.893 -0.9104  0.1272  0.2613
 6690TIP3    H220035   3.090   4.248   4.948  1.8121  0.9084 -0.6846
 6691TIP3   OH220036   6.339   1.796   3.445  0.4334  0.4545  1.1720
 6691TIP3    H120037   6.396   1.820   3.371 -0.2301  0.6262  0.7040
 6691TIP3    H220038   6.270   1.862   3.443 -0.5203 -0.5262  0.8920
 6692TIP3   OH220039   7.119   4.140   3.528  0.1976  0.5141  0.0305
 6692TIP3    H120040   7.077   4.167   3.609  0.0018  2.9549 -0.8021
 6692TIP3    H220041   7.052   4.150   3.461  0.6523 -0.4745 -0.6013
 6693TIP3   OH220042   6.222   1.021   5.058  0.1174 -0.2653 -0.5692
 6693TIP3    H120043   6.254   0.983   5.139 -2.3704 -0.4621  0.4064
 6693TIP3    H220044   6.154   1.083   5.085 -1.4661 -1.0228 -2.4958
 6694TIP3   OH220045   6.799   6.722   0.377  0.0747 -0.6028 -0.5992
 6694TIP3    H120046   6.713   6.733   0.418  0.2324 -0.7132 -0.2341
 6694TIP3    H220047   6.821   6.630   0.391  0.8832 -0.2541  0.5665
 6695TIP3   OH220048   3.023   4.361   5.767 -0.0558  0.4274 -0.2430
 6695TIP3    H120049   3.009   4.267   5.755  0.2735  0.4814 -1.1376
 6695TIP3    H220050   2.992   4.379   5.856 -1.0771 -0.3407 -0.4259
 6696TIP3   OH220051   0.182   4.884   3.149 -0.1381 -0.3201  0.3258
 6696TIP3    H120052   0.092   4.859   3.173 -1.2010  2.5913 -0.2484
 6696TIP3    H220053   0.210   4.943   3.219  0.2360  0.9842 -0.8882
 6697TIP3   OH220054   3.634   0.906   4.309 -0.3397  0.1731 -0.6061
 6697TIP3    H120055   3.550   0.867   4.334 -1.7297  0.0353 -4.6919
 6697TIP3    H220056   3.667   0.850   4.239  1.3070  2.2193 -1.6059
 6698TIP3   OH220057   1.716   6.038   2.824  0.1814 -0.7420 -0.0620
 6698TIP3    H120058   1.701   6.025   2.917  0.0030  0.5424  0.1159
 6698TIP3    H220059   1.629   6.054   2.787  0.4307  0.9302 -0.0362
 6699TIP3   OH220060   6.535   6.749   1.540 -0.0462 -0.4565  0.2443
 6699TIP3    H120061   6.611   6.734   1.597  0.3187 -1.6307 -0.5159
 6699TIP3    H220062   6.486   6.667   1.543 -1.3493  0.3165  0.7799
 6700TIP3   OH220063   2.679   2.928   3.666 -0.3862  0.4772  0.1887
 6700TIP3    H120064   2.676   2.954   3.574  0.6978 -0.5373 -0.1572
 6700TIP3    H220065   2.661   3.009   3.714 -0.4334  1.1383 -0.8938
 6701TIP3   OH220066   1.439   5.836   1.631 -0.5448 -0.1841 -0.7792
 6701TIP3    H120067   1.367   5.897   1.651  0.1555  0.6596 -0.7760
 6701TIP3    H220068   1.505   5.856   1.697  0.3552  0.1720 -1.7808
 6702TIP3   OH220069   0.948   3.044   3.263 -0.2519 -0.7307 -0.1883
 6702TIP3    H120070   0.856   3.067   3.275 -0.0642 -1.0442  2.6741
 6702TIP3    H220071   0.985   3.119   3.216 -1.4488  0.7126  1.0307
 6703TIP3   OH220072   1.955   0.700   4.290 -0.5471 -0.5737  0.0695
 6703TIP3    H120073   1.946   0.615   4.332 -0.1753 -0.3943  0.5238
 6703TIP3    H220074   2.010   0.684   4.214 -2.2941 -1.1534 -1.1417
 6704TIP3   OH220075   1.328   3.204   4.598  0.0150  0.3173  0.5219
 6704TIP3    H120076   1.375   3.254   4.665  2.3152  0.3860 -1.0195
 6704TIP3    H220077   1.391   3.137   4.570 -1.3979 -0.5974 -0.5995
 6705TIP3   OH220078   5.245   3.325   4.834  0.0443 -0.0403  0.3764
 6705TIP3    H120079   5.321   3.349   4.781 -0.3337  0.4683  0.0559
 6705TIP3    H220080   5.220   3.238   4.802 -0.1707  0.2561 -0.2766
 6706TIP3   OH220081   1.378   5.898   2.881  0.2541  0.2862 -0.5241
 6706TIP3    H120082   1.354   5.842   2.808 -0.9918 -0.2511  0.2722
 6706TIP3    H220083   1.467   5.871   2.905  0.2759 -0.2215 -1.1819
 6707TIP3   OH220084   2.438   2.304   1.245  0.4713  0.4018  0.4420
 6707TIP3    H120085   2.382   2.341   1.177  3.1101 -1.0644 -2.7583
 6707TIP3    H220086   2.407   2.214   1.255 -0.8480  0.9954  2.4425
 6708TIP3   OH220087   4.066   3.491   5.256 -0.7756  0.1983 -0.3942
 6708TIP3    H120088   4.062   3.586   5.247 -0.9066  0.1918 -0.4059
 6708TIP3    H220089   3.993   3.458   5.202  0.1376  0.0138 -1.5471
 6709TIP3   OH220090   4.220   0.573   0.945 -0.0933 -0.4005  0.0464
 6709TIP3    H120091   4.192   0.614   0.863 -3.1303 -0.1204  1.1027
 6709TIP3    H220092   4.269   0.642   0.991 -0.2171  0.1310 -0.6112
 6710TIP3   OH220093   1.848   2.427   4.178 -0.6732 -0.4156  0.4855
 6710TIP3    H120094   1.859   2.459   4.268 -1.2160 -0.8999  0.7303
 6710TIP3    H220095   1.915   2.360   4.168  0.0364  0.3176  0.1894
 6711TIP3   OH220096   5.314   5.664   1.988 -0.9168 -0.2354  0.2675
 6711TIP3    H120097   5.238   5.714   1.958  1.4786  2.9631 -1.0307
 6711TIP3    H220098   5.348   5.714   2.063 -0.1161 -1.6383  0.8840
 6712TIP3   OH220099   1.221   4.706   1.770  0.3213  0.3623 -0.9399
 6712TIP3    H120100   1.239   4.718   1.677  2.0546  0.8857 -0.5698
 6712TIP3    H220101   1.222   4.611   1.782  1.2725  0.3149 -1.2666
 6713TIP3   OH220102   1.224   2.906   5.386  0.5201 -0.5351  0.0886
 6713TIP3    H120103   1.319   2.894   5.392  0.5515 -1.3941 -1.3973
 6713TIP3    H220104   1.202   2.964   5.459  2.3478  0.6408 -0.2245
 6714TIP3   OH220105   1.285   5.600   4.784  0.1315  0.4919  0.5181
 6714TIP3    H120106   1.313   5.510   4.800  0.8862  0.5250 -0.5091
 6714TIP3    H220107   1.366   5.645   4.759 -0.4502  1.1609 -0.1641
 6715TIP3   OH220108   0.274   6.577   1.160 -0.5492 -0.3193 -0.4185
 6715TIP3    H120109   0.205   6.642   1.174 -0.8470 -0.8280  0.6343
 6715TIP3    H220110   0.229   6.493   1.158  0.0662 -0.7157  0.8640
 6716TIP3   OH220111   5.406   4.595   4.134 -0.1326  0.0538 -0.6387
 6716TIP3    H120112   5.489   4.607   4.181  0.2082 -0.7413 -1.0258
 6716TIP3    H220113   5.395   4.501   4.128 -2.3663  0.0604  1.6648
 6717TIP3   OH220114   1.935   2.875   5.139 -0.2727  0.1092 -0.0864
 6717TIP3    H120115   1.865   2.822   5.178  1.1941 -1.4615  0.5445
 6717TIP3    H220116   1.968   2.821   5.066  1.0101  0.2994  0.3307
 6718TIP3   OH220117   4.111   0.570   2.101  0.9326  0.4859 -0.0045
 6718TIP3    H120118   4.025   0.547   2.135  1.2625 -0.2124  0.3885
 6718TIP3    H220119   4.145   0.634   2.164  0.9625  0.2657  0.2076
 6719TIP3   OH220120   3.783   5.325   3.712 -0.6642 -1.1380  0.3448
 6719TIP3    H120121   3.739   5.318   3.797 -0.8498  0.9872  0.4915
 6719TIP3    H220122   3.732   5.268   3.654 -2.8847  0.2269  0.8225
 6720TIP3   OH220123   3.641   5.040   0.916  0.1515 -0.3582  0.6757
 6720TIP3    H120124   3.549   5.017   0.929  0.0713 -0.7928 -0.5430
 6720TIP3    H220125   3.639   5.130   0.883  0.3340  0.5968  3.0622
 6721TIP3   OH220126   1.143   2.969   2.484  0.0503  0.1145 -0.3806
 6721TIP3    H120127   1.125   2.989   2.392  1.5116 -1.0991 -0.9748
 6721TIP3    H220128   1.237   2.952   2.487 -0.1951 -1.2427  1.0583
 6722TIP3   OH220129   4.295   3.434   3.377  0.2675 -0.6611  0.0552
 6722TIP3    H120130   4.344   3.507   3.338  0.8902 -0.5055  1.0813
 6722TIP3    H220131   4.305   3.447   3.471 -0.2147 -1.6763  0.2549
 6723TIP3   OH220132   2.558   6.408   1.948 -0.4919 -0.7266  0.1195
 6723TIP3    H120133   2.504   6.438   2.021  1.4142 -2.4552  2.4078
 6723TIP3    H220134   2.611   6.484   1.924 -0.2536 -0.4351  1.4574
 6724TIP3   OH220135   5.375   2.365   2.576  0.3871  0.0475  0.5483
 6724TIP3    H120136   5.326   2.406   2.505  0.6568  1.0271  0.9025
 6724TIP3    H220137   5.376   2.272   2.555  1.9604  0.4794 -1.6971
 6725TIP3   OH220138   4.862   5.134   0.473 -0.5487  0.0430  0.2363
 6725TIP3    H120139   4.852   5.227   0.450  0.5975 -0.3488 -2.0741
 6725TIP3    H220140   4.823   5.087   0.400  0.8411 -1.2977  0.3065
 6726TIP3   OH220141   5.455   4.620   5.504  0.3871  0.4356 -0.2504
 6726TIP3    H120142   5.471   4.685   5.436 -0.4591  0.0781 -0.8139
 6726TIP3    H220143   5.436   4.539   5.457 -0.6996  0.2906  0.3752
 6727TIP3   OH220144   2.457   4.073   2.599  0.7230 -0.7561  0.3262
 6727TIP3    H120145   2.495   4.149   2.643  0.6129  0.0726 -0.9297
 6727TIP3    H220146   2.405   4.029   2.666 -0.6905  1.3043  0.6832
 6728TIP3   OH220147   6.272   1.485   1.187 -0.2462 -0.3406 -0.5779
 6728TIP3    H120148   6.241   1.494   1.097 -2.7033  0.7736  0.3062
 6728TIP3    H220149   6.241   1.563   1.232  3.9012  0.9489  0.5384
 6729TIP3   OH220150   4.831   5.351   0.764  0.0285 -0.0795  0.7973
 6729TIP3    H120151   4.886   5.273   0.759 -0.2290 -0.2608  0.8257
 6729TIP3    H220152   4.836   5.377   0.856 -2.3179 -1.8133  1.4937
 6730TIP3   OH220153   3.905   1.987   0.982  0.0687  0.2838  0.0788
 6730TIP3    H120154   3.882   1.924   1.049  1.1913 -1.7518 -1.3347
 6730TIP3    H220155   4.001   1.982   0.975  0.4452  3.4356  1.0500
 6731TIP3   OH220156   0.331   4.943   0.640  0.0805  0.1505  0.0270
 6731TIP3    H120157   0.364   4.977   0.723  0.7408  2.8591 -1.2199
 6731TIP3    H220158   0.387   4.869   0.620 -0.0421 -0.5164  1.9199
 6732TIP3   OH220159   2.677   4.264   4.493 -0.4120 -0.5796  0.3101
 6732TIP3    H120160   2.709   4.345   4.533 -0.9327 -0.6285  0.8455
 6732TIP3    H220161   2.588   4.286   4.464  0.2203 -0.3225 -1.5161
 6733TIP3   OH220162   2.557   5.863   1.975  0.4354 -0.0240 -0.0565
 6733TIP3    H120163   2.474   5.818   1.986  1.5361 -2.2420 -0.2739
 6733TIP3    H220164   2.619   5.794   1.949  2.8215  1.0951  2.1877
 6734TIP3   OH220165   2.452   3.014   0.180  0.2018  0.1630 -0.1253
 6734TIP3    H120166   2.546   3.028   0.192 -0.2451  1.9852  1.7953
 6734TIP3    H220167   2.426   2.960   0.254 -0.1701 -0.9663 -1.0559
 6735TIP3   OH220168   1.008   5.862   0.257 -0.7627  0.1689  0.0067
 6735TIP3    H120169   1.045   5.911   0.183  1.6619  2.7412  2.6256
 6735TIP3    H220170   0.982   5.778   0.220 -0.1163  1.4442 -3.7941
 6736TIP3   OH220171   2.894   2.796   3.347 -0.3729  0.1061  0.0955
 6736TIP3    H120172   2.980   2.837   3.338  1.2000 -2.8592  0.4450
 6736TIP3    H220173   2.901   2.742   3.425 -3.1610  1.0107  1.0721
 6737TIP3   OH220174   5.222   0.706   5.641  0.1365  0.0623 -0.3725
 6737TIP3    H120175   5.161   0.727   5.711  1.5539  0.9609  0.6573
 6737TIP3    H220176   5.232   0.788   5.592 -0.9403 -0.5889 -1.7600
 6738TIP3   OH220177   2.587   3.149   2.928 -0.2472  0.2246  0.3062
 6738TIP3    H120178   2.576   3.054   2.941  0.6073 -0.1031 -1.1082
 6738TIP3    H220179   2.526   3.170   2.857  1.3497  0.2217 -1.1074
 6739TIP3   OH220180   4.914   5.324   1.853 -0.3751  0.0536  0.0203
 6739TIP3    H120181   4.899   5.272   1.933 -0.3232 -0.6045 -0.3859
 6739TIP3    H220182   4.857   5.400   1.862 -1.0250 -0.4582  0.2888
 6740TIP3   OH220183   2.215   6.269   1.403 -0.7253  0.6189  0.6233
 6740TIP3    H120184   2.137   6.295   1.452 -0.6259 -0.4975  1.3925
 6740TIP3    H220185   2.286   6.277   1.466 -0.3662  0.6298  0.2195
 6741TIP3   OH220186   3.110   4.969   4.402  0.5431  0.0776 -0.2691
 6741TIP3    H120187   3.054   4.964   4.480 -1.5453 -1.1384 -1.7449
 6741TIP3    H220188   3.195   4.936   4.432 -0.6514 -1.9690  1.1647
 6742TIP3   OH220189   0.483   6.654   1.327 -0.6236 -0.2749 -0.5545
 6742TIP3    H120190   0.456   6.696   1.409  0.7064 -1.7641  0.7400
 6742TIP3    H220191   0.406   6.603   1.300 -0.6803 -0.7948  0.5184
 6743TIP3   OH220192   1.392   3.736   0.287 -0.4106 -0.0587  0.0875
 6743TIP3    H120193   1.322   3.702   0.342 -1.2852 -1.6574 -1.9070
 6743TIP3    H220194   1.350   3.798   0.228 -0.3586 -1.5026 -1.5559
 6744TIP3   OH220195   2.433   4.277   4.384 -0.0290  0.2305 -0.4111
 6744TIP3    H120196   2.402   4.366   4.402  1.0888  0.3547  1.0681
 6744TIP3    H220197   2.414   4.264   4.291  1.0323  2.5320 -1.0219
 6745TIP3   OH220198   1.613   4.457   0.569 -0.4264  0.0074  0.2631
 6745TIP3    H120199   1.622   4.540   0.617  0.4872  0.5600 -0.8047
 6745TIP3    H220200   1.694   4.410   0.588 -0.7064 -0.4074  0.4350
 6746TIP3   OH220201   6.571   3.888   1.482 -0.0873 -0.0499  0.1017
 6746TIP3    H120202   6.590   3.946   1.555 -0.0430 -0.7011  0.6226
 6746TIP3    H220203   6.507   3.935   1.429  0.5575  0.8096  0.0662
 6747TIP3   OH220204   2.891   3.283   4.012  0.6131  0.0034  0.0938
 6747TIP3    H120205   2.817   3.285   4.072  1.3069 -0.2065  0.9803
 6747TIP3    H220206   2.852   3.264   3.927 -0.5805  1.7923  0.1689
 6748TIP3   OH220207   5.838   4.727   1.081  0.0424  0.1026  0.1271
 6748TIP3    H120208   5.863   4.786   1.010 -0.1045 -1.8482 -1.6148
 6748TIP3    H220209   5.883   4.645   1.062 -1.9562 -1.2538  0.8937
 6749TIP3   OH220210   6.850   4.933   5.104  0.3406 -0.7652 -0.2542
 6749TIP3    H120211   6.918   4.885   5.056  1.6184  0.9049 -0.2264
 6749TIP3    H220212   6.814   4.994   5.039 -0.3780 -0.8906  0.0215
 6750TIP3   OH220213   6.430   2.833   5.821 -0.5212  0.0211  0.2481
 6750TIP3    H120214   6.346   2.814   5.864 -0.9751 -0.7323 -0.9168
 6750TIP3    H220215   6.431   2.927   5.809 -1.1831  0.0356  0.3014
 6751TIP3   OH220216   0.165   0.531   2.527 -0.2308  0.1893  0.4234
 6751TIP3    H120217   0.189   0.615   2.566  0.2412  0.1560  0.2068
 6751TIP3    H220218   0.198   0.535   2.437 -1.0161  0.1344  0.1192
 6752TIP3   OH220219   4.846   0.447   1.396 -0.0554 -0.1680 -0.1277
 6752TIP3    H120220   4.831   0.541   1.401  0.2651  0.0789 -2.4994
 6752TIP3    H220221   4.932   0.438   1.354  0.2696 -1.5261  0.7675
 6753TIP3   OH220222   3.432   5.633   0.383 -0.1415  0.1044  0.2232
 6753TIP3    H120223   3.525   5.625   0.360 -0.3161  1.8621 -1.4682
 6753TIP3    H220224   3.432   5.681   0.466  0.4490 -2.0838  1.5677
 6754TIP3   OH220225   4.586   3.244   4.409 -0.4362 -0.0255  0.2830
 6754TIP3    H120226   4.654   3.263   4.473 -0.8085 -0.4299  0.7985
 6754TIP3    H220227   4.535   3.173   4.447  0.9451 -2.1971 -1.6061
 6755TIP3   OH220228   3.167   6.649   3.302 -0.1818  0.0071 -0.5021
 6755TIP3    H120229   3.146   6.557   3.319 -0.5663 -0.3810 -2.7827
 6755TIP3    H220230   3.253   6.646   3.261  0.5336  0.8495  0.8546
 6756TIP3   OH220231   1.786   1.344   2.831 -0.0595 -0.3123 -0.3430
 6756TIP3    H120232   1.804   1.251   2.817  0.2820 -0.6084  1.7876
 6756TIP3    H220233   1.701   1.346   2.875  0.2229  0.3253  0.2008
 6757TIP3   OH220234   6.581   0.758   0.902 -0.5985  0.3916  0.3659
 6757TIP3    H120235   6.520   0.832   0.904  1.0052  1.7632  0.7423
 6757TIP3    H220236   6.621   0.757   0.989  1.0490  0.5752 -0.3411
 6758TIP3   OH220237   7.181   5.819   2.018 -0.3362  0.3509  0.2493
 6758TIP3    H120238   7.147   5.799   1.930  0.9674  0.0095 -0.2036
 6758TIP3    H220239   7.136   5.900   2.043 -1.3609 -0.0062 -0.3661
 6759TIP3   OH220240   4.597   4.754   5.706 -0.5276 -0.0245 -0.1813
 6759TIP3    H120241   4.553   4.832   5.739 -1.6996  0.1799 -2.0272
 6759TIP3    H220242   4.589   4.690   5.776  0.0297  1.3449  1.1778
 6760TIP3   OH220243   2.167   1.154   4.060  0.2386  0.1595 -0.0351
 6760TIP3    H120244   2.169   1.059   4.070  1.4932  0.3139  1.6045
 6760TIP3    H220245   2.074   1.176   4.051 -0.0473 -1.2065 -0.6057
 6761TIP3   OH220246   0.366   0.062   3.211  0.2586 -0.5002  0.3088
 6761TIP3    H120247   0.432   0.094   3.149 -1.8147  1.7232 -0.9203
 6761TIP3    H220248   0.316  -0.003   3.162  1.5563 -2.3462  1.3077
 6762TIP3   OH220249   7.130   5.699   5.538 -0.4611  0.0842 -0.2580
 6762TIP3    H120250   7.089   5.615   5.517  0.2093 -1.1479  2.8225
 6762TIP3    H220251   7.057   5.758   5.555 -0.9455 -0.4776 -0.3561
 6763TIP3   OH220252   2.226   4.972   2.870  0.1708 -0.5467 -0.7075
 6763TIP3    H120253   2.172   5.033   2.821  0.2338 -0.2653 -0.4323
 6763TIP3    H220254   2.255   4.907   2.805  0.1889 -0.2258 -1.0195
 6764TIP3   OH220255   2.943   4.238   1.639 -0.3631 -0.1685 -0.0159
 6764TIP3    H120256   3.022   4.189   1.661 -0.0772 -0.3666 -1.3827
 6764TIP3    H220257   2.876   4.205   1.699  0.4476 -0.4164  0.7571
 6765TIP3   OH220258   3.251   2.591   0.528  0.1408 -0.2156  0.0827
 6765TIP3    H120259   3.289   2.672   0.493  0.4563  0.2371  1.4162
 6765TIP3    H220260   3.158   2.599   0.509  0.3273 -0.1138 -0.8660
 6766TIP3   OH220261   4.746   5.485   2.289  0.1623  0.3643  0.1604
 6766TIP3    H120262   4.674   5.536   2.252 -1.7778 -0.8495  2.0031
 6766TIP3    H220263   4.765   5.418   2.224 -1.5778 -0.3137  0.2926
 6767TIP3   OH220264   5.264   0.884   3.914  0.2904 -0.0267 -0.1864
 6767TIP3    H120265   5.337   0.946   3.920  0.6508 -0.3660 -0.9774
 6767TIP3    H220266   5.241   0.866   4.005  1.9399 -0.7671  0.1259
 6768TIP3   OH220267   5.229   4.466   1.880  0.0447  0.1326  0.1915
 6768TIP3    H120268   5.253   4.404   1.949  0.1580  0.1443  0.1636
 6768TIP3    H220269   5.309   4.516   1.865 -0.3261  0.9929  0.9448
 6769TIP3   OH220270   2.362   2.608   2.774 -0.4819  0.0093 -0.9911
 6769TIP3    H120271   2.439   2.625   2.828  0.7868 -0.2164 -2.6436
 6769TIP3    H220272   2.315   2.691   2.772  1.3986  1.1385 -2.4522
 6770TIP3   OH220273   4.339   5.891   2.201  0.1340  0.5980 -0.2392
 6770TIP3    H120274   4.246   5.905   2.218 -0.5330 -2.8430 -0.4328
 6770TIP3    H220275   4.374   5.855   2.282 -0.1623 -3.6158 -1.7347
 6771TIP3   OH220276   0.914   5.887   1.840  0.2599 -1.0867 -0.0215
 6771TIP3    H120277   0.838   5.872   1.784  0.9865  0.0129 -1.3931
 6771TIP3    H220278   0.977   5.820   1.813  0.0465 -1.5265  0.5775
 6772TIP3   OH220279   2.131   4.554   1.798 -0.4487 -0.4887  0.1235
 6772TIP3    H120280   2.223   4.529   1.797  0.5287  2.5034  1.8042
 6772TIP3    H220281   2.084   4.473   1.818  2.0020 -1.6981  1.3809
 6773TIP3   OH220282   0.890   2.680   5.090  0.2852  0.4245  0.1617
 6773TIP3    H120283   0.837   2.741   5.142  1.2907  0.5371  1.0893
 6773TIP3    H220284   0.839   2.599   5.087 -0.9038  1.1820 -0.7892
 6774TIP3   OH220285   1.739   2.223   5.373  0.2701  0.2981  0.3843
 6774TIP3    H120286   1.742   2.127   5.381  1.9093  0.2648 -0.1433
 6774TIP3    H220287   1.830   2.248   5.362 -0.3037  1.7294 -1.5872
 6775TIP3   OH220288   5.545   4.544   0.375  0.4075  0.9691 -0.3061
 6775TIP3    H120289   5.593   4.625   0.392  0.9963  0.4366  0.6700
 6775TIP3    H220290   5.492   4.532   0.453 -1.2214  1.4504 -1.2894
 6776TIP3   OH220291   3.390   5.952   3.097 -0.4612 -0.5725 -0.0762
 6776TIP3    H120292   3.357   5.977   3.011 -1.6548 -0.4269  0.4039
 6776TIP3    H220293   3.442   6.028   3.125 -2.4811  0.6653  0.5460
 6777TIP3   OH220294   5.780   0.690   4.306  1.2320  0.3235 -0.3054
 6777TIP3    H120295   5.861   0.679   4.357  1.7410  1.5051 -0.8273
 6777TIP3    H220296   5.805   0.746   4.233  0.1179  0.0183 -0.9476
 6778TIP3   OH220297   5.872   2.726   4.327 -0.3204  0.4832  0.1089
 6778TIP3    H120298   5.803   2.725   4.393  0.3423  0.7078  0.8126
 6778TIP3    H220299   5.833   2.771   4.252 -1.3418 -0.4717  0.0461
 6779TIP3   OH220300   6.941   5.223   3.782  0.5522  0.3228 -0.0508
 6779TIP3    H120301   6.972   5.260   3.700 -1.7623 -0.7369 -1.5353
 6779TIP3    H220302   7.005   5.155   3.804  1.4874  0.9879 -0.6547
 6780TIP3   OH220303   5.509   6.563   5.773 -0.3117  0.1186  0.5082
 6780TIP3    H120304   5.546   6.511   5.701  0.9036 -0.0883  1.2511
 6780TIP3    H220305   5.421   6.527   5.785 -0.3047 -0.2599 -0.4616
 6781TIP3   OH220306   6.704   1.412   5.643  0.0930  0.4310 -0.2324
 6781TIP3    H120307   6.679   1.409   5.551  1.0648 -3.2073 -0.5306
 6781TIP3    H220308   6.786   1.461   5.644  0.8779 -0.7938 -1.5898
 6782TIP3   OH220309   0.714   1.326   3.895 -0.1654  0.1398  0.0181
 6782TIP3    H120310   0.788   1.388   3.890 -1.3456  1.5100 -1.5901
 6782TIP3    H220311   0.652   1.368   3.954 -0.9886  0.5378 -1.1066
 6783TIP3   OH220312   7.162   2.820   2.996  0.3160  0.1778 -0.2053
 6783TIP3    H120313   7.225   2.892   2.990  1.7389 -0.7825  1.9659
 6783TIP3    H220314   7.216   2.743   3.011 -1.0437 -1.6845 -3.6830
 6784TIP3   OH220315   1.501   5.243   1.740 -0.0397 -0.7368 -0.2431
 6784TIP3    H120316   1.518   5.331   1.773 -0.2381 -1.0160  0.6098
 6784TIP3    H220317   1.587   5.201   1.739  0.0727 -0.5108 -0.7541
 6785TIP3   OH220318   3.290   5.639   1.240  0.3879 -0.1427  0.1829
 6785TIP3    H120319   3.267   5.632   1.148  2.0724  0.0084 -0.2971
 6785TIP3    H220320   3.207   5.639   1.287 -0.5551  0.9279 -1.4174
 6786TIP3   OH220321   6.872   0.863   5.481 -0.2662 -0.2411  0.0305
 6786TIP3    H120322   6.934   0.916   5.530 -1.0519  0.8777 -0.1556
 6786TIP3    H220323   6.926   0.815   5.418  0.3229  1.6431 -0.9804
 6787TIP3   OH220324   2.815   5.756   1.469 -0.3442 -0.0230  0.0531
 6787TIP3    H120325   2.868   5.705   1.409 -1.9123 -1.6584 -0.0268
 6787TIP3    H220326   2.801   5.839   1.423  0.0898 -0.5046 -0.9807
 6788TIP3   OH220327   6.453   1.285   3.061  0.5275 -0.0505 -0.0642
 6788TIP3    H120328   6.516   1.349   3.093  0.2714  0.0657  0.2132
 6788TIP3    H220329   6.387   1.337   3.016  0.5513 -0.1587 -0.2245
 6789TIP3   OH220330   6.227   5.628   2.274  0.1488  0.2435  0.0517
 6789TIP3    H120331   6.194   5.672   2.352  1.2752 -1.7614  1.7340
 6789TIP3    H220332   6.320   5.650   2.270  0.8095 -2.0596  1.0943
 6790TIP3   OH220333   4.724   1.908   5.530  0.2701 -0.6112 -0.0750
 6790TIP3    H120334   4.697   1.948   5.613  0.2601 -1.6908  0.4601
 6790TIP3    H220335   4.785   1.971   5.492 -0.3501  0.2779  0.3515
 6791TIP3   OH220336   3.767   5.901   1.327  0.2123  0.4379  0.3036
 6791TIP3    H120337   3.786   5.849   1.250  0.8715  0.0500  0.7218
 6791TIP3    H220338   3.820   5.980   1.317  0.3127  0.3791  0.3683
 6792TIP3   OH220339   2.181   1.669   5.880  0.0326 -0.1381  0.0284
 6792TIP3    H120340   2.102   1.629   5.843 -1.3671  1.9027  0.6404
 6792TIP3    H220341   2.217   1.722   5.809  0.5309 -0.6102 -0.0749
 6793TIP3   OH220342   0.451   3.483   3.281  0.0123  0.5364  0.4755
 6793TIP3    H120343   0.464   3.443   3.195 -1.2935 -1.1676  1.0209
 6793TIP3    H220344   0.492   3.569   3.273  1.0190 -0.0473 -1.4501
 6794TIP3   OH220345   6.462   3.714   4.795  0.1705  0.1129 -0.1931
 6794TIP3    H120346   6.540   3.669   4.828 -1.0769 -1.4543  0.8334
 6794TIP3    H220347   6.456   3.794   4.848 -0.5813 -1.2969  2.0160
 6795TIP3   OH220348   6.823   0.938   4.636  0.5516 -0.0554  0.2145
 6795TIP3    H120349   6.774   1.005   4.685  0.5198  0.9824 -1.1946
 6795TIP3    H220350   6.755   0.885   4.594  0.4998 -2.0145  2.5112
 6796TIP3   OH220351   1.348   6.182   3.690  0.1748  0.0016  0.1536
 6796TIP3    H120352   1.317   6.249   3.751 -0.5705 -0.1870 -0.0057
 6796TIP3    H220353   1.351   6.102   3.741 -0.7804 -0.2268 -0.1330
 6797TIP3   OH220354   3.707   0.316   2.686 -0.0795  0.5413  0.0815
 6797TIP3    H120355   3.796   0.289   2.708 -0.2360  0.0368  0.1190
 6797TIP3    H220356   3.702   0.307   2.591 -0.1801  0.2705  0.1098
 6798TIP3   OH220357   3.622   5.328   3.941 -0.2285  0.1871  0.6428
 6798TIP3    H120358   3.558   5.272   3.896  0.7547 -1.3756  1.1137
 6798TIP3    H220359   3.572   5.406   3.966 -1.8879 -0.8459  0.7259
 6799TIP3   OH220360   5.612   4.328   4.289  0.4008  0.0137  0.5824
 6799TIP3    H120361   5.591   4.322   4.196 -0.2261  1.2029  0.6249
 6799TIP3    H220362   5.708   4.328   4.292  0.4272  0.3630 -0.0917
 6800TIP3   OH220363   2.612   5.827   3.893 -0.0192 -0.0705  0.2039
 6800TIP3    H120364   2.661   5.787   3.821  0.0148  0.2442  0.0480
 6800TIP3    H220365   2.544   5.764   3.913  0.3707 -0.4568  0.3370
 6801TIP3   OH220366   2.590   5.216   1.829 -0.3159 -0.4788  0.2789
 6801TIP3    H120367   2.547   5.255   1.906  2.6295  0.2823  1.7071
 6801TIP3    H220368   2.639   5.142   1.864 -2.0254 -2.6369 -1.6308
 6802TIP3   OH220369   4.592   1.559   5.800  0.8019  0.4460  0.6154
 6802TIP3    H120370   4.498   1.539   5.802  1.0976 -1.0471  0.2703
 6802TIP3    H220371   4.620   1.550   5.891  1.3299 -2.9297  0.2270
 6803TIP3   OH220372   2.620   1.601   0.100  0.4561 -0.0789 -0.4489
 6803TIP3    H120373   2.642   1.594   0.193 -0.5459 -1.1855 -0.2787
 6803TIP3    H220374   2.558   1.673   0.096 -0.9662 -1.2241  0.0491
 6804TIP3   OH220375   2.011   4.756   2.582 -0.1493  0.2861  0.5759
 6804TIP3    H120376   2.051   4.689   2.527 -1.0883 -0.0064  0.2265
 6804TIP3    H220377   2.038   4.735   2.671  0.3851  0.0402  0.3571
 6805TIP3   OH220378   1.771   4.078   0.927 -0.4614 -0.3605  0.1161
 6805TIP3    H120379   1.724   4.160   0.945  2.4445  1.2331  1.0748
 6805TIP3    H220380   1.742   4.052   0.840 -2.4986  0.9205  0.3512
 6806TIP3   OH220381   1.297   0.289   4.874 -0.9604 -0.2447  0.1529
 6806TIP3    H120382   1.368   0.312   4.934  0.0022 -1.1145 -0.5982
 6806TIP3    H220383   1.225   0.347   4.898  0.9235  2.8150 -0.9544
 6807TIP3   OH220384   1.997   5.273   1.625 -0.7281 -0.2430  0.2280
 6807TIP3    H120385   1.996   5.297   1.717  0.7311 -0.5199  0.3478
 6807TIP3    H220386   1.980   5.179   1.625  0.0558 -0.3956  0.3006
 6808TIP3   OH220387   3.910   5.159   3.979 -0.5674 -0.5912 -0.3505
 6808TIP3    H120388   3.863   5.120   4.053 -0.2245  0.2612  0.3422
 6808TIP3    H220389   4.000   5.131   3.989 -0.8352 -2.0244 -1.5448
 6809TIP3   OH220390   5.349   0.118   1.910 -0.0089  0.2827 -0.0557
 6809TIP3    H120391   5.306   0.196   1.875  0.2227 -0.3486 -1.8371
 6809TIP3    H220392   5.310   0.045   1.862  0.8127 -0.5755  0.5461
 6810TIP3   OH220393   1.647   2.369   2.788 -0.1216  0.1316  0.0644
 6810TIP3    H120394   1.648   2.461   2.763  0.1250  0.2235  0.4065
 6810TIP3    H220395   1.738   2.340   2.778 -0.3418 -0.2888 -0.8081
 6811TIP3   OH220396   2.999   6.480   2.610  0.0208 -0.2966 -0.0754
 6811TIP3    H120397   2.930   6.544   2.593  1.7273  1.3678 -1.1671
 6811TIP3    H220398   2.993   6.418   2.538 -0.6444 -0.4548  0.1150
 6812TIP3   OH220399   3.467   0.841   0.899  0.2273 -0.1376  0.4088
 6812TIP3    H120400   3.464   0.789   0.819 -1.7552  1.8844 -0.9888
 6812TIP3    H220401   3.528   0.795   0.956  1.9011 -1.5846 -2.3257
 6813TIP3   OH220402   2.730   4.418   3.655  0.4908 -0.0887 -0.1633
 6813TIP3    H120403   2.806   4.388   3.705  0.4244 -1.1237 -0.6549
 6813TIP3    H220404   2.751   4.397   3.565 -0.0913  0.2633 -0.3869
 6814TIP3   OH220405   2.652   5.738   0.884  0.1168 -0.3088  0.2148
 6814TIP3    H120406   2.640   5.660   0.937 -1.0837 -1.0087 -1.0129
 6814TIP3    H220407   2.565   5.778   0.880  0.3754  0.2056 -0.4691
 6815TIP3   OH220408   1.434   2.480   4.717 -0.3013 -0.1543  0.2516
 6815TIP3    H120409   1.359   2.536   4.737 -0.8880 -0.3749 -1.1495
 6815TIP3    H220410   1.424   2.459   4.624  1.1314 -0.7580  0.1962
 6816TIP3   OH220411   3.916   4.368   3.162  0.3643 -0.2379  0.8425
 6816TIP3    H120412   3.856   4.308   3.207 -0.5315  0.5944  0.7827
 6816TIP3    H220413   4.000   4.357   3.208  0.1028 -1.2160  1.1029
 6817TIP3   OH220414   6.447   0.464   1.091  0.2266 -0.3991  0.0986
 6817TIP3    H120415   6.414   0.404   1.158 -0.9425  2.0717  1.8687
 6817TIP3    H220416   6.396   0.442   1.012 -1.8288 -0.2714  1.3238
 6818TIP3   OH220417   2.229   3.380   5.804 -0.1282 -0.0493 -0.3633
 6818TIP3    H120418   2.230   3.377   5.708 -0.2277 -0.1966 -0.3601
 6818TIP3    H220419   2.231   3.473   5.825 -0.2542 -0.0128 -0.5107
 6819TIP3   OH220420   3.871   1.294   2.015 -0.1943 -0.4520 -0.3160
 6819TIP3    H120421   3.877   1.345   2.096 -0.8192 -0.9825  0.0745
 6819TIP3    H220422   3.835   1.355   1.950 -0.1611 -0.1650 -0.0648
 6820TIP3   OH220423   2.490   0.131   1.135 -0.0399  0.0682 -0.7862
 6820TIP3    H120424   2.426   0.202   1.126 -1.3534 -1.1523 -1.3054
 6820TIP3    H220425   2.456   0.060   1.082  0.4878 -1.5071  0.8792
 6821TIP3   OH220426   3.935   1.884   0.154  0.3151 -0.4419 -0.5100
 6821TIP3    H120427   3.974   1.971   0.148  1.2873 -0.8548 -0.3448
 6821TIP3    H220428   3.856   1.889   0.100  0.8849  0.2501 -1.3053
 6822TIP3   OH220429   6.989   1.163   5.182 -0.2068  0.2602 -0.3614
 6822TIP3    H120430   7.065   1.196   5.231 -0.4365  2.6134 -1.4395
 6822TIP3    H220431   6.997   1.068   5.186  0.8681  0.3678  2.4856
 6823TIP3   OH220432   6.217   0.742   5.274 -0.0704  0.1892  0.4910
 6823TIP3    H120433   6.242   0.821   5.321 -3.1710  1.4388  0.3119
 6823TIP3    H220434   6.197   0.679   5.343  1.4743 -0.1377  0.6589
 6824TIP3   OH220435   5.623   2.249   3.234 -0.9131 -0.0676  0.0839
 6824TIP3    H120436   5.572   2.184   3.282 -1.1440  1.0223  1.3719
 6824TIP3    H220437   5.665   2.199   3.164 -0.5470 -1.7291  1.4211
 6825TIP3   OH220438   2.096   5.756   5.806  0.4359 -0.2937 -0.2038
 6825TIP3    H120439   2.174   5.792   5.848  0.0315  0.8733 -0.4166
 6825TIP3    H220440   2.125   5.730   5.719  0.3678  1.1701 -0.6872
 6826TIP3   OH220441   3.581   4.382   1.092 -0.0481 -0.3569 -0.0447
 6826TIP3    H120442   3.580   4.290   1.117 -1.0787 -0.6979 -1.2532
 6826TIP3    H220443   3.563   4.382   0.998 -0.9691  1.1193  0.1021
 6827TIP3   OH220444   6.340   5.728   4.189  0.5013  0.5524  0.8572
 6827TIP3    H120445   6.356   5.644   4.232 -0.8151  0.2085  0.7310
 6827TIP3    H220446   6.334   5.706   4.096 -2.2556  0.3346  1.0108
 6828TIP3   OH220447   2.399   1.320   1.279 -0.3195  0.6706 -0.3024
 6828TIP3    H120448   2.363   1.377   1.210  2.3161  1.6143 -1.0159
 6828TIP3    H220449   2.494   1.331   1.272  0.2676 -2.6946  0.5573
 6829TIP3   OH220450   4.082   6.447   5.764  0.5329  0.2384  0.3444
 6829TIP3    H120451   4.052   6.507   5.832 -0.2518 -0.0794  0.2870
 6829TIP3    H220452   4.044   6.481   5.683  1.3449  0.5310  0.0759
 6830TIP3   OH220453   4.275   5.707   5.341  0.3487  0.3096 -0.2991
 6830TIP3    H120454   4.205   5.749   5.292  0.5460  1.2435  0.1920
 6830TIP3    H220455   4.298   5.629   5.289 -0.4357  0.4782 -0.9135
 6831TIP3   OH220456   6.191   5.094   0.446 -0.0540  0.0174  0.2361
 6831TIP3    H120457   6.166   5.173   0.495  0.4335 -0.2544  0.9436
 6831TIP3    H220458   6.111   5.042   0.443  0.2165 -0.5874  1.9949
 6832TIP3   OH220459   3.618   1.653   1.383 -0.0865  0.2443  0.4454
 6832TIP3    H120460   3.580   1.741   1.387  0.1026  0.2970  1.2218
 6832TIP3    H220461   3.594   1.621   1.297  0.7942  1.4890 -0.3067
 6833TIP3   OH220462   1.835   4.242   2.571  0.1953  0.4657 -0.2084
 6833TIP3    H120463   1.864   4.263   2.482  0.8076 -1.6404 -0.5607
 6833TIP3    H220464   1.914   4.247   2.624  0.7539 -2.4592 -0.6335
 6834TIP3   OH220465   2.251   5.724   1.208  0.5402 -0.1036 -0.3340
 6834TIP3    H120466   2.173   5.772   1.236  1.1218  0.2017  0.7860
 6834TIP3    H220467   2.226   5.686   1.123 -0.5688  0.5956 -0.3373
 6835TIP3   OH220468   4.850   3.594   2.496 -0.0899 -0.2792 -0.1365
 6835TIP3    H120469   4.844   3.683   2.531 -1.3823  0.2562 -1.6043
 6835TIP3    H220470   4.925   3.597   2.437 -1.0366  0.3121 -1.3580
 6836TIP3   OH220471   6.074   2.011   2.985 -0.3938  0.1384 -0.7946
 6836TIP3    H120472   6.013   1.968   3.045 -1.0023  1.8191 -0.1715
 6836TIP3    H220473   6.028   2.011   2.900 -0.7897  0.3961 -0.5821
 6837TIP3   OH220474   3.153   3.187   3.943 -0.5869  0.0683 -0.4922
 6837TIP3    H120475   3.088   3.233   3.996  0.5603  0.4742  0.6258
 6837TIP3    H220476   3.112   3.103   3.923 -1.4377  0.2904  0.2387
 6838TIP3   OH220477   1.623   2.757   5.774 -0.7942 -0.1919  0.3122
 6838TIP3    H120478   1.693   2.697   5.801 -0.3081  0.9539  1.7020
 6838TIP3    H220479   1.543   2.706   5.786 -0.2727 -1.2763 -0.5932
 6839TIP3   OH220480   5.573   3.445   5.285 -0.4582  0.6811  0.4908
 6839TIP3    H120481   5.662   3.471   5.261  0.4142 -2.3624 -0.0273
 6839TIP3    H220482   5.575   3.440   5.381 -0.9197  3.0828  0.6872
 6840TIP3   OH220483   4.588   1.872   5.303 -0.4129  0.1163  0.1518
 6840TIP3    H120484   4.623   1.882   5.392 -0.7257  1.6701  0.1258
 6840TIP3    H220485   4.512   1.814   5.314  0.6903 -1.3218  0.5653
 6841TIP3   OH220486   2.909   6.735   4.997 -0.1933 -0.2863  0.0817
 6841TIP3    H120487   2.919   6.759   5.089  1.5946 -1.4459  0.2294
 6841TIP3    H220488   2.914   6.639   4.996  0.7494 -0.2606 -1.2942
 6842TIP3   OH220489   1.227   0.696   5.581 -0.1814 -0.0545 -0.0278
 6842TIP3    H120490   1.138   0.720   5.554 -0.7499 -0.5962  1.2978
 6842TIP3    H220491   1.218   0.607   5.615  0.6200  0.3330  1.2631
 6843TIP3   OH220492   1.962   3.852   2.896  0.0466  0.0889  0.2340
 6843TIP3    H120493   2.023   3.924   2.877  0.4524 -0.2281  0.3177
 6843TIP3    H220494   1.921   3.833   2.812  1.0185 -0.5587 -0.1169
 6844TIP3   OH220495   1.571   2.065   4.777 -0.4663 -0.1519  0.0202
 6844TIP3    H120496   1.630   2.015   4.721  2.1505  1.2790  1.2965
 6844TIP3    H220497   1.541   2.002   4.843 -1.0138 -1.0714 -1.0756
 6845TIP3   OH220498   5.656   6.490   1.109  0.3337 -0.1852 -0.2675
 6845TIP3    H120499   5.677   6.506   1.202 -0.1050 -1.7962  0.1321
 6845TIP3    H220500   5.648   6.395   1.102  1.1650 -0.1519 -2.1536
 6846TIP3   OH220501   3.252   5.510   0.708  0.1195 -0.3690  0.0883
 6846TIP3    H120502   3.202   5.451   0.652 -1.4362 -0.4217  1.4799
 6846TIP3    H220503   3.314   5.454   0.753  0.3356 -0.5527 -0.4322
 6847TIP3   OH220504   0.388   2.813   3.551  0.0287 -0.3380 -0.5061
 6847TIP3    H120505   0.467   2.769   3.582  0.3669  0.3600 -0.3589
 6847TIP3    H220506   0.325   2.742   3.536 -0.0553 -0.7309  1.4584
 6848TIP3   OH220507   1.047   2.269   1.934 -0.2193  0.0435 -0.3890
 6848TIP3    H120508   1.114   2.221   1.982 -0.8783 -0.9525 -0.4245
 6848TIP3    H220509   1.094   2.315   1.866  0.2233 -2.7154 -2.1144
 6849TIP3   OH220510   1.141   4.261   0.852 -0.0809 -0.4272  0.9779
 6849TIP3    H120511   1.165   4.349   0.881  0.1384  0.0020 -0.4239
 6849TIP3    H220512   1.057   4.273   0.807  1.2927 -0.3492 -1.7960
 6850TIP3   OH220513   7.024   2.840   1.534 -0.1067  0.3582  0.1108
 6850TIP3    H120514   7.022   2.805   1.445  1.1055 -0.8484  0.5273
 6850TIP3    H220515   7.089   2.911   1.530 -0.2467  0.4785 -0.0277
 6851TIP3   OH220516   4.982   6.092   1.443 -0.7901 -0.0222  0.2968
 6851TIP3    H120517   4.898   6.135   1.428 -0.7302  0.3951  1.0858
 6851TIP3    H220518   5.043   6.164   1.460 -0.4594 -0.3639  0.5826
 6852TIP3   OH220519   0.296   5.850   1.453 -0.6971  0.2938 -0.2073
 6852TIP3    H120520   0.232   5.905   1.407 -0.3898 -0.1570 -1.2027
 6852TIP3    H220521   0.302   5.771   1.399 -0.0916 -0.1166  0.4532
 6853TIP3   OH220522   0.155   6.383   4.374 -0.0683  0.4587 -0.4851
 6853TIP3    H120523   0.132   6.300   4.333  0.5299  0.4974 -0.8980
 6853TIP3    H220524   0.249   6.394   4.357  0.4922 -0.0996  1.8643
 6854TIP3   OH220525   2.191   2.400   2.452  0.2371 -0.3214  0.3535
 6854TIP3    H120526   2.164   2.329   2.510  0.5517 -0.4582  0.3307
 6854TIP3    H220527   2.226   2.356   2.375  0.5551 -0.1416  0.3958
 6855TIP3   OH220528   3.499   5.814   4.890 -0.7508 -0.9208  0.0306
 6855TIP3    H120529   3.507   5.844   4.981  1.0785  0.9195 -0.6594
 6855TIP3    H220530   3.510   5.894   4.838 -2.9642 -1.7264 -1.8296
 6856TIP3   OH220531   4.934   6.792   1.665  0.0977  0.3525 -0.3590
 6856TIP3    H120532   4.898   6.780   1.576 -0.5609 -0.9920  0.0580
 6856TIP3    H220533   4.857   6.809   1.719  0.1646 -1.3836  0.3552
 6857TIP3   OH220534   3.530   0.625   4.040  0.3389 -0.6483 -0.4050
 6857TIP3    H120535   3.564   0.589   4.122 -0.2006 -0.0875  0.0733
 6857TIP3    H220536   3.598   0.606   3.976 -0.5311 -3.8710 -0.5405
 6858TIP3   OH220537   3.234   6.140   5.865 -0.1921  0.1326  0.4782
 6858TIP3    H120538   3.291   6.190   5.807  1.4435 -1.1544  0.9074
 6858TIP3    H220539   3.224   6.196   5.942 -0.6059  0.9262 -0.1362
 6859TIP3   OH220540   1.880   1.826   4.944  0.1435  0.2648 -0.1011
 6859TIP3    H120541   1.877   1.775   4.863  0.9386  0.9779 -0.6033
 6859TIP3    H220542   1.969   1.861   4.946 -0.6256  2.3559 -0.2470
 6860TIP3   OH220543   1.558   3.776   2.043 -0.2583  0.1023 -0.0985
 6860TIP3    H120544   1.600   3.820   1.969  1.7317 -1.2426  0.1462
 6860TIP3    H220545   1.608   3.696   2.054 -2.7182 -1.4583  0.5130
 6861TIP3   OH220546   4.133   1.156   5.207 -0.0760 -0.4798 -0.5731
 6861TIP3    H120547   4.141   1.078   5.262 -0.2187 -0.6333 -0.7714
 6861TIP3    H220548   4.218   1.165   5.165  0.2097 -0.0632  0.0682
 6862TIP3   OH220549   1.516   1.748   4.566  0.2717 -0.4578 -0.0986
 6862TIP3    H120550   1.595   1.768   4.516 -0.2897 -1.5850 -1.5087
 6862TIP3    H220551   1.549   1.709   4.647  1.1898 -1.8354 -1.0821
 6863TIP3   OH220552   7.173   6.380   0.933  0.1690  0.0463 -0.3308
 6863TIP3    H120553   7.162   6.334   0.850 -0.1762  0.8720 -0.7623
 6863TIP3    H220554   7.247   6.337   0.976 -0.3205 -1.0704 -0.5840
 6864TIP3   OH220555   2.977   2.525   3.448  0.0527 -0.0115  1.0131
 6864TIP3    H120556   3.051   2.465   3.442 -0.0419  0.0089 -0.7190
 6864TIP3    H220557   2.903   2.475   3.414  0.1079  1.2533 -1.1408
 6865TIP3   OH220558   5.328   5.184   0.766 -0.3329  0.4458  0.2369
 6865TIP3    H120559   5.376   5.182   0.684  0.0061  0.4481  0.4330
 6865TIP3    H220560   5.243   5.222   0.744  0.0845  1.2948  0.0595
 6866TIP3   OH220561   0.295   5.576   5.190 -0.2823  0.5461 -0.4164
 6866TIP3    H120562   0.203   5.551   5.196 -0.0923 -0.2761 -0.8806
 6866TIP3    H220563   0.334   5.545   5.272 -0.1284 -0.3663 -0.8251
 6867TIP3   OH220564   4.000   3.448   3.908  0.0142  0.6491  0.2848
 6867TIP3    H120565   3.956   3.405   3.835  3.2452 -0.9530 -0.9320
 6867TIP3    H220566   4.034   3.376   3.961  0.1410  1.7840  1.7948
 6868TIP3   OH220567   2.158   1.286   4.920 -0.6290 -0.2848 -0.4580
 6868TIP3    H120568   2.179   1.378   4.906 -1.7679 -0.0338 -0.6138
 6868TIP3    H220569   2.213   1.260   4.994  0.1191  0.3561 -0.7735
 6869TIP3   OH220570   6.350   4.646   4.087 -0.0918 -0.3603 -0.3655
 6869TIP3    H120571   6.345   4.562   4.040 -1.6858  0.0730 -1.0393
 6869TIP3    H220572   6.421   4.633   4.150  0.6698 -1.7087 -1.4254
 6870TIP3   OH220573   0.344   3.515   3.560  0.1306  0.0859 -0.2230
 6870TIP3    H120574   0.344   3.520   3.464 -1.9491 -0.2422 -0.2771
 6870TIP3    H220575   0.362   3.423   3.579 -2.0257 -0.4180 -0.4133
 6871TIP3   OH220576   0.024   0.347   4.643  0.1401  0.3990  0.7535
 6871TIP3    H120577  -0.037   0.328   4.572 -0.5664 -0.3882  1.5444
 6871TIP3    H220578   0.097   0.393   4.600 -0.8716  1.1341 -0.2441
 6872TIP3   OH220579   5.617   2.257   4.253 -0.3485 -0.3840 -0.2731
 6872TIP3    H120580   5.678   2.217   4.314 -0.6895 -0.1731  0.2090
 6872TIP3    H220581   5.569   2.183   4.215  0.1333 -0.5421 -0.5811
 6873TIP3   OH220582   3.975   1.411   2.834 -0.1323 -0.2495 -0.0836
 6873TIP3    H120583   4.035   1.337   2.835 -0.9707 -0.9378 -0.0967
 6873TIP3    H220584   3.942   1.417   2.924  0.4501  0.5481  0.0902
 6874TIP3   OH220585   6.446   1.396   2.493  0.3190  0.1543 -0.6413
 6874TIP3    H120586   6.424   1.482   2.458  1.0219  0.4243 -0.4239
 6874TIP3    H220587   6.420   1.335   2.423  1.1780  0.6450 -1.4156
 6875TIP3   OH220588   5.284   1.175   1.891 -0.1247 -0.4483 -0.9159
 6875TIP3    H120589   5.364   1.217   1.922 -1.7373  1.7769  0.6341
 6875TIP3    H220590   5.307   1.137   1.807  2.4482  0.4158 -0.6723
 6876TIP3   OH220591   5.686   1.681   2.721  0.0056  0.1943 -0.1118
 6876TIP3    H120592   5.604   1.707   2.762  0.4710  2.1281 -0.3096
 6876TIP3    H220593   5.675   1.703   2.628  0.4963 -0.1893 -0.2700
 6877TIP3   OH220594   6.926   4.725   5.580 -0.0382 -0.5658  0.0298
 6877TIP3    H120595   6.898   4.644   5.537 -1.1597  0.0928 -0.4964
 6877TIP3    H220596   6.988   4.765   5.519 -2.0919  0.6795 -1.3332
 6878TIP3   OH220597   6.009   3.588   1.733  0.4843 -0.4361 -0.1083
 6878TIP3    H120598   6.098   3.598   1.699  0.1949 -2.2908 -1.5966
 6878TIP3    H220599   5.964   3.536   1.666 -1.4223 -0.4466  1.1139
 6879TIP3   OH220600   4.059   3.020   4.860  0.3490 -0.4570  0.4418
 6879TIP3    H120601   4.070   3.077   4.936 -1.2459  2.8626 -1.6063
 6879TIP3    H220602   3.968   3.032   4.833  0.3721 -2.8868 -1.0170
 6880TIP3   OH220603   5.234   3.794   1.947 -0.1311 -0.1159  0.7167
 6880TIP3    H120604   5.190   3.765   1.868 -0.2944  0.6267  0.5204
 6880TIP3    H220605   5.294   3.724   1.969 -0.0406 -0.3023 -0.1037
 6881TIP3   OH220606   3.703   4.661   2.040 -0.0458 -0.0363  0.2068
 6881TIP3    H120607   3.650   4.737   2.066 -1.9615 -1.5009  0.7556
 6881TIP3    H220608   3.726   4.678   1.949  2.2923  2.6700  1.1495
 6882TIP3   OH220609   2.513   0.172   2.697 -0.4669  0.2688 -0.1216
 6882TIP3    H120610   2.531   0.258   2.659 -0.0355  1.2754  2.1737
 6882TIP3    H220611   2.419   0.160   2.686 -0.5220  1.0072 -0.5270
 6883TIP3   OH220612   0.602   4.161   0.415  0.5282 -0.4137 -0.1161
 6883TIP3    H120613   0.547   4.084   0.433 -0.0804  0.1817  0.6734
 6883TIP3    H220614   0.690   4.135   0.443  0.5355 -1.1615 -0.7959
 6884TIP3   OH220615   6.883   0.811   2.443  0.1788 -0.0602  0.1398
 6884TIP3    H120616   6.815   0.859   2.491 -0.0805 -0.1479 -0.1330
 6884TIP3    H220617   6.920   0.751   2.508 -0.4446 -0.4648  0.1380
 6885TIP3   OH220618   1.514   2.018   3.757 -0.1682 -0.3685  0.1284
 6885TIP3    H120619   1.595   2.063   3.779 -0.5854  0.2849  0.3626
 6885TIP3    H220620   1.479   2.066   3.682 -0.1139 -0.9335 -0.2703
 6886TIP3   OH220621   4.909   5.681   4.468 -0.0495  0.0045 -0.2657
 6886TIP3    H120622   4.859   5.750   4.512  0.7752  1.8874 -2.1369
 6886TIP3    H220623   4.979   5.660   4.530  0.0400  1.3017  0.1005
 6887TIP3   OH220624   6.348   1.194   4.633  0.3997  0.3686  0.0397
 6887TIP3    H120625   6.424   1.251   4.623  1.3502 -0.4837  1.9240
 6887TIP3    H220626   6.285   1.246   4.684  0.2948  0.5564 -0.2773
 6888TIP3   OH220627   2.500   5.675   0.215  0.1923 -0.5653 -0.7377
 6888TIP3    H120628   2.447   5.754   0.223  0.6215 -0.2292 -1.1642
 6888TIP3    H220629   2.439   5.604   0.234  0.0672 -0.0839  0.8199
 6889TIP3   OH220630   1.393   4.598   2.630  0.0780  0.3376 -0.3230
 6889TIP3    H120631   1.343   4.678   2.642 -0.5625  0.0284 -0.8268
 6889TIP3    H220632   1.327   4.530   2.616  0.5687 -0.4590  1.0002
 6890TIP3   OH220633   5.246   0.735   1.587  0.0520 -0.5144 -0.0581
 6890TIP3    H120634   5.209   0.756   1.673 -0.7498 -0.1602 -0.4818
 6890TIP3    H220635   5.171   0.710   1.534  0.4746 -0.1653 -0.8341
 6891TIP3   OH220636   5.168   3.436   3.913  0.2215  0.7480  0.4256
 6891TIP3    H120637   5.208   3.521   3.929 -1.5720  2.0243 -1.3515
 6891TIP3    H220638   5.142   3.439   3.821 -2.1045 -0.7502  0.9606
 6892TIP3   OH220639   2.771   3.579   2.030  0.5898  0.1899 -0.4117
 6892TIP3    H120640   2.865   3.568   2.017  0.6473  1.6286 -1.4992
 6892TIP3    H220641   2.736   3.588   1.942 -0.4555  0.4176  0.0162
 6893TIP3   OH220642   7.121   2.721   2.396 -0.2856  0.2966 -0.0137
 6893TIP3    H120643   7.208   2.760   2.393  0.6386 -1.6636 -3.1203
 6893TIP3    H220644   7.132   2.642   2.450  0.3126 -0.7269 -1.5647
 6894TIP3   OH220645   4.562   2.260   1.065 -0.1741  0.0723  0.2468
 6894TIP3    H120646   4.554   2.282   1.158  1.7004 -1.5408  0.8701
 6894TIP3    H220647   4.509   2.181   1.054  1.5954 -1.2328  0.6144
 6895TIP3   OH220648   4.154   3.029  -0.004 -0.2360 -0.6742 -0.1782
 6895TIP3    H120649   4.125   3.048   0.086 -0.2848 -1.9892  0.1158
 6895TIP3    H220650   4.079   2.983  -0.043 -0.1856 -0.1757 -0.8762
 6896TIP3   OH220651   0.659   1.260   4.773 -0.8289 -0.0611  0.0437
 6896TIP3    H120652   0.627   1.345   4.803 -1.7487 -0.2575 -0.3380
 6896TIP3    H220653   0.586   1.200   4.790 -0.8213 -0.4503 -1.1975
 6897TIP3   OH220654   1.435   0.246   0.605  0.2236  0.2211  0.1593
 6897TIP3    H120655   1.385   0.175   0.565 -0.5549  0.1484  1.2227
 6897TIP3    H220656   1.373   0.318   0.611  0.8579  0.8346 -0.4176
 6898TIP3   OH220657   3.969   5.527   0.239  0.0705 -0.0543 -0.5859
 6898TIP3    H120658   4.056   5.555   0.267 -1.1138  1.1535  2.3569
 6898TIP3    H220659   3.954   5.574   0.156  1.8994  0.2839 -0.7628
 6899TIP3   OH220660   2.831   2.383   4.775 -0.1506 -0.0565 -0.3877
 6899TIP3    H120661   2.843   2.301   4.823  2.5133 -0.6545 -1.8487
 6899TIP3    H220662   2.920   2.411   4.753 -1.0669  2.3343 -1.4285
 6900TIP3   OH220663   5.300   2.194   3.964  0.0708  0.8868  0.3213
 6900TIP3    H120664   5.262   2.144   4.036  0.2516 -1.4936 -1.1133
 6900TIP3    H220665   5.371   2.244   4.004 -1.1606  1.2823  2.1131
 6901TIP3   OH220666   0.843   5.228   2.266 -0.3767  0.1387 -0.1383
 6901TIP3    H120667   0.912   5.161   2.260  1.3136  1.8290 -0.5900
 6901TIP3    H220668   0.783   5.208   2.195  0.9178 -0.0475 -1.2106
 6902TIP3   OH220669   4.179   5.206   5.529 -0.6287  0.0006 -0.5065
 6902TIP3    H120670   4.211   5.143   5.592 -3.6384 -1.3441 -0.1525
 6902TIP3    H220671   4.193   5.291   5.570 -0.0430 -0.6816  0.7443
 6903TIP3   OH220672   2.366   2.239   0.766  0.1626 -0.5612 -0.2133
 6903TIP3    H120673   2.347   2.187   0.844 -1.2893 -1.2176 -0.9699
 6903TIP3    H220674   2.306   2.314   0.771  1.9810  0.9160  0.6778
 6904TIP3   OH220675   6.608   0.404   2.922  0.0080  0.3702 -0.3579
 6904TIP3    H120676   6.666   0.390   2.846  0.0482 -1.5533 -0.0346
 6904TIP3    H220677   6.633   0.335   2.984 -0.8999  1.1089  0.8815
 6905TIP3   OH220678   4.871   5.456   4.336 -0.5496 -0.0887 -0.3693
 6905TIP3    H120679   4.794   5.486   4.288 -0.1023 -0.3431 -1.2615
 6905TIP3    H220680   4.896   5.531   4.390 -1.4318 -0.0126 -0.0471
 6906TIP3   OH220681   1.035   0.606   2.498  0.6067  0.5010 -0.4851
 6906TIP3    H120682   1.128   0.597   2.518  0.0865 -2.0838  1.3261
 6906TIP3    H220683   1.023   0.557   2.416  0.6690 -0.2953 -0.0307
 6907TIP3   OH220684   6.125   3.324   4.567 -0.5290  0.1143 -0.5659
 6907TIP3    H120685   6.219   3.334   4.578 -0.4256  0.3722 -1.5751
 6907TIP3    H220686   6.087   3.365   4.645  0.2265 -1.9465  0.9644
 6908TIP3   OH220687   2.143   5.278   0.783 -0.3404 -0.5049 -0.3318
 6908TIP3    H120688   2.128   5.272   0.688  0.2921  0.0943 -0.4770
 6908TIP3    H220689   2.069   5.329   0.815 -0.9243 -1.2841 -0.3903
 6909TIP3   OH220690   1.814   3.634   5.188  0.4955  0.1630 -0.1708
 6909TIP3    H120691   1.866   3.556   5.173 -0.8064 -0.7615 -0.0745
 6909TIP3    H220692   1.858   3.680   5.259  0.8304 -0.9008  0.3219
 6910TIP3   OH220693   4.467   4.360   1.069 -0.3582  0.0893 -0.2235
 6910TIP3    H120694   4.388   4.310   1.049  0.6327 -0.6519 -2.6563
 6910TIP3    H220695   4.494   4.397   0.985  1.6171  0.6830  0.6242
 6911TIP3   OH220696   0.403   5.184   4.532 -0.3279  0.0213  0.0492
 6911TIP3    H120697   0.414   5.251   4.464 -1.2162  0.3127  0.1842
 6911TIP3    H220698   0.492   5.155   4.552 -0.0481 -2.7778 -3.9153
 6912TIP3   OH220699   0.701   6.263   2.501  0.3814 -0.0799  0.1599
 6912TIP3    H120700   0.741   6.304   2.577  0.3486  1.0092 -0.3795
 6912TIP3    H220701   0.617   6.230   2.533  0.6385 -0.1798  0.7355
 6913TIP3   OH220702   3.153   5.940   3.894 -0.3688  0.5889  0.2166
 6913TIP3    H120703   3.185   6.028   3.877  0.0795  0.4461  0.3009
 6913TIP3    H220704   3.189   5.917   3.980 -2.1555  1.0875  1.1510
 6914TIP3   OH220705   2.922   6.281   3.080  0.2466 -0.2267 -0.3479
 6914TIP3    H120706   2.833   6.310   3.101  0.7727  1.5516 -0.4674
 6914TIP3    H220707   2.920   6.267   2.985 -0.1275 -1.0468 -0.2269
 6915TIP3   OH220708   5.125   1.722   2.711 -0.2558 -0.0643  0.5974
 6915TIP3    H120709   5.184   1.647   2.703 -1.9787 -1.4779  0.6413
 6915TIP3    H220710   5.103   1.726   2.804 -0.0845  0.5871  0.6155
 6916TIP3   OH220711   1.877   1.129   0.537  0.1267  0.1940  0.1282
 6916TIP3    H120712   1.919   1.065   0.479  0.6495  1.0542 -0.4658
 6916TIP3    H220713   1.899   1.214   0.498 -0.7475  0.7268  0.7732
 6917TIP3   OH220714   3.143   4.467   1.317  0.0191  0.2698 -0.0077
 6917TIP3    H120715   3.208   4.513   1.371 -0.5353 -0.0729  0.9710
 6917TIP3    H220716   3.063   4.470   1.369 -0.0908 -1.6172  0.0020
 6918TIP3   OH220717   4.725   2.432   2.598  0.0142  0.5701  0.3881
 6918TIP3    H120718   4.723   2.337   2.588 -1.8331  0.5648  0.4827
 6918TIP3    H220719   4.813   2.450   2.630  0.5352 -1.0641 -0.0088
 6919TIP3   OH220720   6.238   5.879   0.150 -0.0006  0.5368 -0.1129
 6919TIP3    H120721   6.276   5.876   0.238  2.5759  0.8773 -1.1329
 6919TIP3    H220722   6.203   5.967   0.142  2.4577  1.5869 -0.3797
 6920TIP3   OH220723   1.294   2.079   3.234 -0.0342 -0.3803 -0.2658
 6920TIP3    H120724   1.361   2.090   3.302 -0.2311  1.3852 -0.3078
 6920TIP3    H220725   1.340   2.035   3.163  0.4010 -1.4682  0.6500
 6921TIP3   OH220726   5.243   3.948   2.165 -0.0142  0.3590 -0.1181
 6921TIP3    H120727   5.248   3.903   2.081 -2.7988 -2.0441  0.8405
 6921TIP3    H220728   5.152   3.977   2.171 -0.0412 -0.0104  2.2288
 6922TIP3   OH220729   4.870   4.564   2.492  0.1767  0.0408  0.8351
 6922TIP3    H120730   4.805   4.611   2.440  0.3192 -2.3944 -1.8156
 6922TIP3    H220731   4.934   4.630   2.517 -0.9160  1.6812 -0.4826
 6923TIP3   OH220732   1.490   1.271   0.435 -0.1063 -0.0203 -0.0508
 6923TIP3    H120733   1.486   1.276   0.530 -1.0099  0.2546 -0.0894
 6923TIP3    H220734   1.398   1.259   0.407  0.3589 -2.4294 -0.7831
 6924TIP3   OH220735   7.101   0.287   4.902  0.4401 -0.3525  0.4604
 6924TIP3    H120736   7.182   0.241   4.924  0.3931 -0.2786  0.7937
 6924TIP3    H220737   7.120   0.329   4.818  0.2104 -1.6429 -0.2567
 6925TIP3   OH220738   3.599   3.102   1.998  0.1338 -0.0521 -0.5185
 6925TIP3    H120739   3.573   3.013   1.973  1.0966 -0.4618 -0.1089
 6925TIP3    H220740   3.684   3.091   2.041 -0.3423  0.9215  0.7190
 6926TIP3   OH220741   0.796   1.457   0.076  0.2844 -0.5688  0.2786
 6926TIP3    H120742   0.860   1.387   0.085  0.6379 -0.4178 -0.8452
 6926TIP3    H220743   0.716   1.412   0.047  0.5326 -0.5061 -0.5162
 6927TIP3   OH220744   2.540   5.849   4.924 -0.1558  0.3437  0.3658
 6927TIP3    H120745   2.457   5.894   4.907 -0.0138  1.0587  1.4716
 6927TIP3    H220746   2.521   5.790   4.997 -0.2955 -1.3467 -0.9622
 6928TIP3   OH220747   4.504   4.789   2.209 -0.2902 -0.7718  0.2982
 6928TIP3    H120748   4.446   4.768   2.136 -1.7696  0.9107  0.9040
 6928TIP3    H220749   4.554   4.865   2.179  2.3574 -2.7095 -0.5428
 6929TIP3   OH220750   5.160   5.733   4.067  0.0018  0.4515  0.6646
 6929TIP3    H120751   5.090   5.786   4.107  1.1124  2.7810 -0.2548
 6929TIP3    H220752   5.179   5.778   3.985  0.5740 -1.8649 -0.5286
 6930TIP3   OH220753   0.504   2.571   2.685  0.6608  0.5359  0.1211
 6930TIP3    H120754   0.476   2.644   2.629 -1.3388 -0.5126 -0.3084
 6930TIP3    H220755   0.427   2.550   2.737  1.8960  0.1676  1.8820
 6931TIP3   OH220756   0.219   3.355   1.155  0.1137 -0.3251 -0.8409
 6931TIP3    H120757   0.238   3.321   1.067 -1.9822 -0.6455 -1.2107
 6931TIP3    H220758   0.169   3.435   1.140  0.2519 -0.0535  0.0852
 6932TIP3   OH220759   3.306   5.815   1.496  0.2702 -0.4181  0.1708
 6932TIP3    H120760   3.260   5.845   1.418  2.4926  1.8655 -0.3858
 6932TIP3    H220761   3.389   5.780   1.463  0.0985 -2.0800  1.3475
 6933TIP3   OH220762   0.326   3.173   1.995  0.0275  0.0332  0.0903
 6933TIP3    H120763   0.296   3.134   1.913  0.6373  2.0223 -1.1317
 6933TIP3    H220764   0.249   3.216   2.031  0.0719  0.3048 -0.1362
 6934TIP3   OH220765   5.665   6.245   1.857 -0.4769 -0.4437 -0.1988
 6934TIP3    H120766   5.611   6.293   1.919 -0.3895 -1.6828  0.8810
 6934TIP3    H220767   5.755   6.259   1.887 -0.0502  2.0347 -2.2821
 6935TIP3   OH220768   5.316   6.451   1.184 -0.1205 -0.5391 -0.4931
 6935TIP3    H120769   5.246   6.501   1.224  2.0599  2.1764  0.2449
 6935TIP3    H220770   5.334   6.381   1.247  0.3399  1.0641  1.2692
 6936TIP3   OH220771   5.883   3.757   3.442  0.7809  0.3734 -0.6274
 6936TIP3    H120772   5.910   3.666   3.454 -3.4294 -1.0683 -0.6258
 6936TIP3    H220773   5.877   3.769   3.347 -0.2869  0.0730 -0.6040
 6937TIP3   OH220774   2.543   5.368   0.159  0.0241 -0.5854 -0.7738
 6937TIP3    H120775   2.505   5.320   0.085 -0.7394  0.9216 -1.3914
 6937TIP3    H220776   2.607   5.427   0.120  0.7141 -0.8474 -0.0572
 6938TIP3   OH220777   3.253   3.981   1.297 -0.3389  0.4036 -0.4743
 6938TIP3    H120778   3.288   3.948   1.380 -2.1914 -0.6693 -0.0565
 6938TIP3    H220779   3.180   4.037   1.323  0.0274  1.3169 -1.3549
 6939TIP3   OH220780   1.159   3.437   3.682  0.3553 -0.6927  0.1303
 6939TIP3    H120781   1.123   3.456   3.769 -1.3822 -0.6413 -0.5544
 6939TIP3    H220782   1.175   3.523   3.644  1.0087 -0.7156  0.3312
 6940TIP3   OH220783   0.338   2.540   5.812  0.4120  0.0052  0.0739
 6940TIP3    H120784   0.349   2.525   5.719 -0.3085 -1.0657  0.1444
 6940TIP3    H220785   0.268   2.480   5.838 -0.3027  1.2148  1.0478
 6941TIP3   OH220786   4.697   6.752   1.807 -0.4110 -0.2463  0.0510
 6941TIP3    H120787   4.636   6.678   1.794 -0.4319 -0.1432 -0.4705
 6941TIP3    H220788   4.719   6.749   1.900 -1.4749 -0.0830  0.3181
 6942TIP3   OH220789   0.913   1.715   1.461 -0.2470 -0.5470 -0.1853
 6942TIP3    H120790   0.916   1.778   1.534 -0.3010 -0.6647 -0.0814
 6942TIP3    H220791   0.826   1.676   1.467  0.2035 -1.4774  0.4638
 6943TIP3   OH220792   1.424   0.396   1.932 -0.4187  0.0569 -0.5220
 6943TIP3    H120793   1.485   0.465   1.905 -1.8928  1.4062 -0.5590
 6943TIP3    H220794   1.346   0.443   1.961 -0.5447 -1.4974  1.9689
 6944TIP3   OH220795   5.806   3.446   3.294  0.1442 -0.3130  0.3362
 6944TIP3    H120796   5.797   3.351   3.288  0.4005 -0.2864 -0.7125
 6944TIP3    H220797   5.868   3.460   3.366 -1.6335 -0.8152  2.0589
 6945TIP3   OH220798   5.989   2.318   4.561 -0.0324 -0.4834  0.5941
 6945TIP3    H120799   6.052   2.381   4.594 -0.1714 -1.0354  1.9770
 6945TIP3    H220800   5.981   2.338   4.468  0.8809  0.6953  0.7530
 6946TIP3   OH220801   5.778   3.901   2.636  0.0254 -0.3000  0.4299
 6946TIP3    H120802   5.708   3.956   2.671  1.4223  1.7483  0.2159
 6946TIP3    H220803   5.772   3.912   2.541  1.5242  1.1660  0.4582
 6947TIP3   OH220804   2.683   0.885   5.813  0.2428 -0.3097  0.0504
 6947TIP3    H120805   2.728   0.857   5.893 -0.0353 -3.1961 -0.6807
 6947TIP3    H220806   2.623   0.813   5.794  0.0359  0.4733 -2.5598
 6948TIP3   OH220807   1.260   0.934   0.344 -0.3540  0.1512 -0.2885
 6948TIP3    H120808   1.304   0.862   0.389 -1.3704 -0.6481 -0.5381
 6948TIP3    H220809   1.167   0.918   0.359 -0.5886  1.4734 -0.2722
 6949TIP3   OH220810   7.179   3.302   5.097 -0.0952 -0.1397 -0.0516
 6949TIP3    H120811   7.150   3.391   5.117  1.3637  0.1868  0.7739
 6949TIP3    H220812   7.199   3.263   5.182 -2.4266 -1.9482 -0.2046
 6950TIP3   OH220813   0.381   5.073   2.716  0.2455  0.5480 -0.0687
 6950TIP3    H120814   0.334   5.010   2.770 -0.1470  0.8359 -0.0729
 6950TIP3    H220815   0.467   5.082   2.758  0.2893  0.0398 -0.0511
 6951TIP3   OH220816   0.036   3.612   5.235  0.1119  0.1945 -0.0949
 6951TIP3    H120817  -0.028   3.551   5.272 -0.2832  0.2387 -0.6887
 6951TIP3    H220818   0.073   3.658   5.310 -0.4465  0.0643  0.2613
 6952TIP3   OH220819   4.506   0.080   5.636 -0.2833  0.0756 -0.3419
 6952TIP3    H120820   4.452   0.074   5.715 -0.4279  0.2822 -0.4250
 6952TIP3    H220821   4.559  -0.000   5.637  1.2270  1.0196  1.0739
 6953TIP3   OH220822   3.855   2.315   0.978 -0.1432 -0.4750  0.0468
 6953TIP3    H120823   3.906   2.235   0.965 -0.1904 -0.2618 -1.6559
 6953TIP3    H220824   3.766   2.291   0.953 -0.0164  0.2881 -1.2065
 6954TIP3   OH220825   0.193   6.023   4.169  0.6906 -0.2156  0.2739
 6954TIP3    H120826   0.131   6.076   4.119 -0.3182 -1.8361 -0.2852
 6954TIP3    H220827   0.270   6.016   4.113  0.9903  0.9441  0.5204
 6955TIP3   OH220828   6.460   2.225   3.175  0.7578  0.2612  0.9503
 6955TIP3    H120829   6.547   2.254   3.200  1.3263 -1.2889  0.9228
 6955TIP3    H220830   6.438   2.159   3.241  0.3313 -0.5718 -0.0009
 6956TIP3   OH220831   3.896   1.407   2.277  0.3372  0.0224  0.9564
 6956TIP3    H120832   3.822   1.462   2.302  0.5295  0.6572  0.1565
 6956TIP3    H220833   3.937   1.382   2.360  0.6580  1.6511  1.3225
 6957TIP3   OH220834   7.190   4.792   2.244  0.0187  0.5526  0.0294
 6957TIP3    H120835   7.146   4.858   2.188  0.6117  0.0765 -1.0282
 6957TIP3    H220836   7.121   4.761   2.302 -0.5447  1.3055 -0.2165
 6958TIP3   OH220837   2.299   2.732   0.854 -0.3785 -0.1036  0.0076
 6958TIP3    H120838   2.280   2.773   0.938 -1.0123  0.0674 -0.2197
 6958TIP3    H220839   2.239   2.657   0.848  0.3676 -0.7348  0.1587
 6959TIP3   OH220840   5.134   2.357   4.307 -0.0589 -0.6859  0.3727
 6959TIP3    H120841   5.212   2.366   4.252 -0.3792 -1.6754 -0.2751
 6959TIP3    H220842   5.148   2.418   4.379  0.8840 -0.1682 -0.2262
 6960TIP3   OH220843   3.434   1.742   4.190 -0.0491 -0.6469 -0.2185
 6960TIP3    H120844   3.424   1.746   4.285 -2.2903 -2.8449 -0.2580
 6960TIP3    H220845   3.401   1.826   4.159  1.8633  0.6077  0.9341
 6961TIP3   OH220846   4.743   0.698   4.310 -0.6618  0.3851 -0.6254
 6961TIP3    H120847   4.702   0.703   4.223 -1.4386 -0.7947 -0.3396
 6961TIP3    H220848   4.671   0.709   4.371 -0.0891  1.4019 -0.1056
 6962TIP3   OH220849   6.481   0.588   5.266  0.0521  0.5709 -0.4467
 6962TIP3    H120850   6.512   0.504   5.301 -0.3923  0.3981 -0.4566
 6962TIP3    H220851   6.443   0.632   5.342 -0.2336  0.5151 -0.5551
 6963TIP3   OH220852   0.997   0.959   2.850 -0.2085 -0.2611  0.4288
 6963TIP3    H120853   0.918   0.969   2.903 -1.6693 -1.6438 -1.3573
 6963TIP3    H220854   0.989   0.873   2.811  1.6295  0.0465 -0.7404
 6964TIP3   OH220855   2.894   5.496   1.011 -0.4719 -0.0602  0.3725
 6964TIP3    H120856   2.833   5.502   1.084 -0.1032  0.4866  0.6345
 6964TIP3    H220857   2.867   5.416   0.964 -1.3067  0.1059  0.5541
 6965TIP3   OH220858   2.925   0.944   0.135  0.1961 -0.5270 -0.6169
 6965TIP3    H120859   2.841   0.965   0.176  0.1912 -2.9543  0.7770
 6965TIP3    H220860   2.937   1.013   0.069 -1.9335  0.9749  0.4540
 6966TIP3   OH220861   0.780   4.248   2.182 -0.1442 -0.6121  0.1073
 6966TIP3    H120862   0.740   4.193   2.115 -0.1768 -1.7951  1.0515
 6966TIP3    H220863   0.870   4.215   2.190 -0.3411 -0.9441  1.1012
 6967TIP3   OH220864   6.181   3.379   2.554 -0.0261 -0.8339  0.1137
 6967TIP3    H120865   6.275   3.376   2.568  0.1373 -0.2314 -0.7488
 6967TIP3    H220866   6.167   3.459   2.503 -1.0423 -0.7354  0.5100
 6968TIP3   OH220867   5.350   0.961   1.002 -0.4651 -0.5939  0.1694
 6968TIP3    H120868   5.316   1.031   1.058 -3.1230 -0.8111 -1.0221
 6968TIP3    H220869   5.310   0.881   1.037 -0.5642 -0.9923 -0.8166
 6969TIP3   OH220870   2.632   1.523   0.365  0.0574 -0.2122  0.0288
 6969TIP3    H120871   2.544   1.485   0.366  0.5726 -1.4725  0.1588
 6969TIP3    H220872   2.626   1.601   0.420 -1.0496 -0.1100 -0.2202
 6970TIP3   OH220873   2.756   1.090   1.010 -0.4507 -0.4477  0.3607
 6970TIP3    H120874   2.813   1.029   0.962  0.4045  0.4105  0.2584
 6970TIP3    H220875   2.732   1.156   0.945 -1.5218 -0.7631  0.4241
 6971TIP3   OH220876   0.070   4.715   0.447 -0.9217  0.3516  0.2759
 6971TIP3    H120877   0.112   4.663   0.516 -0.4769  2.7009  1.8796
 6971TIP3    H220878   0.114   4.688   0.367  1.7060  0.6409  1.5149
 6972TIP3   OH220879   3.876   6.104   2.721 -0.5206 -0.0585  0.2088
 6972TIP3    H120880   3.790   6.088   2.759  0.1444 -1.2034  1.3091
 6972TIP3    H220881   3.937   6.092   2.794  0.6876 -0.8162 -0.8865
 6973TIP3   OH220882   0.618   3.056   2.861  0.6498  0.0297  0.1995
 6973TIP3    H120883   0.642   2.981   2.806 -0.9408 -0.2396 -0.1731
 6973TIP3    H220884   0.597   3.017   2.946  0.6236  0.1507  0.2481
 6974TIP3   OH220885   3.689   2.774   5.498  0.1995 -0.0769  0.4786
 6974TIP3    H120886   3.759   2.715   5.525 -0.1170 -0.4233  0.5477
 6974TIP3    H220887   3.612   2.719   5.491 -0.1115  0.3371  0.5804
 6975TIP3   OH220888   1.442   0.374   1.014  0.6756 -0.2978  0.4603
 6975TIP3    H120889   1.475   0.445   0.959 -0.4448 -0.6434 -0.7021
 6975TIP3    H220890   1.482   0.389   1.099  2.2956  0.3784 -0.3742
 6976TIP3   OH220891   6.184   2.174   0.707 -0.1303 -0.0134  0.0431
 6976TIP3    H120892   6.195   2.081   0.688 -0.5175 -0.0183 -0.1684
 6976TIP3    H220893   6.113   2.177   0.772 -1.2441  0.2332 -1.1581
 6977TIP3   OH220894   1.542   1.682   0.756 -0.6016  0.4285 -0.1313
 6977TIP3    H120895   1.549   1.757   0.697  1.5300 -1.4928 -2.5579
 6977TIP3    H220896   1.457   1.643   0.735 -0.4892  0.5873 -0.9141
 6978TIP3   OH220897   4.749   5.554   1.825  0.3219  0.3712 -0.4796
 6978TIP3    H120898   4.793   5.631   1.787 -1.2034  0.8841 -1.3342
 6978TIP3    H220899   4.656   5.574   1.815 -0.1102 -1.5682 -0.6362
 6979TIP3   OH220900   4.358   1.471   2.305 -0.3763 -0.7991  0.6669
 6979TIP3    H120901   4.305   1.507   2.376 -0.7115  0.7377 -0.3161
 6979TIP3    H220902   4.398   1.547   2.264 -0.5377 -1.6003 -1.0739
 6980TIP3   OH220903   2.207   3.677   2.171  0.1444 -0.4937  0.4835
 6980TIP3    H120904   2.146   3.691   2.243 -0.7045 -0.9578 -0.1139
 6980TIP3    H220905   2.293   3.670   2.212 -0.2633 -0.2710  1.3932
 6981TIP3   OH220906   5.362   3.963   1.570  0.0140 -0.1403 -0.2578
 6981TIP3    H120907   5.329   3.874   1.571  0.1915 -0.2050 -0.1504
 6981TIP3    H220908   5.368   3.988   1.662  0.0787 -0.0596 -0.2836
 6982TIP3   OH220909   4.257   3.966   2.291 -0.4274 -0.1749  0.1150
 6982TIP3    H120910   4.302   4.010   2.219 -0.0060  0.7029  0.8888
 6982TIP3    H220911   4.297   3.879   2.295  2.3160  1.0100  1.6419
 6983TIP3   OH220912   4.952   2.384   5.036 -0.2121  0.3055  0.4301
 6983TIP3    H120913   4.970   2.477   5.022  1.2494  0.0954  0.8455
 6983TIP3    H220914   5.026   2.338   4.996 -1.8400 -0.8133 -1.5088
 6984TIP3   OH220915   4.565   2.128   5.185  0.5054  0.1462 -0.2584
 6984TIP3    H120916   4.545   2.096   5.097  0.6584  1.1168 -0.6545
 6984TIP3    H220917   4.577   2.048   5.237 -0.9777 -0.4447 -0.7728
 6985TIP3   OH220918   1.985   2.322   2.903 -0.3286  0.0589 -0.1411
 6985TIP3    H120919   2.048   2.270   2.953  0.1801 -0.7476 -1.5752
 6985TIP3    H220920   1.935   2.258   2.852  1.4218  0.9392 -3.2377
 6986TIP3   OH220921   4.998   1.199   1.199  0.0152  0.0519  0.7143
 6986TIP3    H120922   5.078   1.219   1.248  0.2281  0.5182  0.1949
 6986TIP3    H220923   4.994   1.268   1.132 -0.1783 -0.6605 -0.0217
 6987TIP3   OH220924   1.250   1.201   0.230 -0.3978 -0.5225 -0.1056
 6987TIP3    H120925   1.280   1.188   0.140 -1.6931 -1.3121 -0.4432
 6987TIP3    H220926   1.244   1.112   0.267  1.7656 -0.1624  1.3671
 6988TIP3   OH220927   5.448   5.363   0.565 -0.1240  0.1894 -0.0374
 6988TIP3    H120928   5.360   5.388   0.594 -0.6177  0.2212 -1.5179
 6988TIP3    H220929   5.441   5.353   0.471  1.4968  0.2556 -0.1943
 6989TIP3   OH220930   0.841   6.444   0.624  0.1255  0.2941  0.0756
 6989TIP3    H120931   0.869   6.364   0.669  0.3175  0.0513 -0.4696
 6989TIP3    H220932   0.793   6.413   0.548  0.0500  0.7008 -0.0422
 6990TIP3   OH220933   4.701   6.448   4.901  0.6767  0.4575  0.1064
 6990TIP3    H120934   4.710   6.506   4.976  0.8592  0.6288 -0.0468
 6990TIP3    H220935   4.735   6.498   4.827 -1.0953  0.9448 -0.4213
 6991TIP3   OH220936   3.616   1.166   2.639 -0.7673  0.0019 -0.1236
 6991TIP3    H120937   3.576   1.121   2.565 -0.7426  0.5729 -0.4879
 6991TIP3    H220938   3.703   1.127   2.647 -1.3788 -1.2716  0.6938
 6992TIP3   OH220939   1.124   5.688   2.129 -0.3820  0.5290 -0.2699
 6992TIP3    H120940   1.033   5.665   2.115 -0.5629  0.6356  0.6740
 6992TIP3    H220941   1.124   5.740   2.209  0.5561  0.1745 -0.0224
 6993TIP3   OH220942   3.258   0.895   3.076  0.4519  0.1275  0.0389
 6993TIP3    H120943   3.332   0.847   3.038 -0.1838  0.2747 -1.4600
 6993TIP3    H220944   3.191   0.829   3.090  0.4536  0.1829  0.3177
 6994TIP3   OH220945   3.484   1.018   1.827  0.0304  0.7032 -0.4043
 6994TIP3    H120946   3.428   1.094   1.813  1.1549  1.5740 -0.2676
 6994TIP3    H220947   3.429   0.957   1.876 -1.3516  0.8224 -1.7402
 6995TIP3   OH220948   0.742   5.731   1.693  0.0165  0.1926 -0.0541
 6995TIP3    H120949   0.765   5.742   1.601 -0.3547  0.0203 -0.1713
 6995TIP3    H220950   0.773   5.643   1.716  1.4941  0.8178  0.4202
 6996TIP3   OH220951   7.080   3.202   3.989 -0.0474  0.4614  0.5927
 6996TIP3    H120952   7.005   3.236   4.038  0.2546  0.0640  1.3427
 6996TIP3    H220953   7.149   3.192   4.055 -0.1015 -1.5560  0.4016
 6997TIP3   OH220954   6.305   5.496   5.215 -0.0693 -0.0026 -0.4970
 6997TIP3    H120955   6.359   5.521   5.140  1.2759 -2.4372 -0.4344
 6997TIP3    H220956   6.338   5.550   5.287 -1.2137  2.1795 -1.5270
 6998TIP3   OH220957   1.039   4.169   2.998 -1.0051 -0.2311  0.1014
 6998TIP3    H120958   1.029   4.102   2.930 -0.7096  0.2308 -0.4045
 6998TIP3    H220959   1.119   4.215   2.974 -0.0517 -1.0252  1.6056
 6999TIP3   OH220960   4.127   2.196   0.958  0.1991  0.2752 -0.1047
 6999TIP3    H120961   4.112   2.220   1.050  2.6475  1.5349  0.0374
 6999TIP3    H220962   4.219   2.172   0.955  0.3257  0.8995 -2.3724
 7000TIP3   OH220963   4.273   5.226   1.764  0.5082 -0.3810 -0.2551
 7000TIP3    H120964   4.259   5.132   1.748  0.3030 -0.0002 -2.5917
 7000TIP3    H220965   4.336   5.228   1.837 -1.0967 -2.2574  1.3102
 7001TIP3   OH220966   3.186   3.723   4.090  0.4026  0.3647 -0.1585
 7001TIP3    H120967   3.136   3.763   4.019 -1.7576 -0.9726  0.4882
 7001TIP3    H220968   3.214   3.796   4.145  0.2850  1.2514 -1.2438
 7002TIP3   OH220969   4.912   3.754   5.235 -0.5173  0.0580  0.3364
 7002TIP3    H120970   4.946   3.801   5.311 -0.5283  0.6556 -0.0212
 7002TIP3    H220971   4.914   3.819   5.164  0.0348 -0.6595 -0.3094
 7003TIP3   OH220972   5.347   3.005   5.289 -0.7390  0.0117  0.4157
 7003TIP3    H120973   5.326   2.951   5.212 -0.3141  0.7314 -0.2176
 7003TIP3    H220974   5.393   3.081   5.253 -2.1723  1.2809  1.1977
 7004TIP3   OH220975   3.683   4.592   4.820  0.8537  0.3513 -0.5747
 7004TIP3    H120976   3.675   4.672   4.767  2.7477  1.5951  0.9051
 7004TIP3    H220977   3.604   4.591   4.874  1.8095  2.5418  1.0152
 7005TIP3   OH220978   0.952   0.159   4.922  0.0444 -0.9425  0.0195
 7005TIP3    H120979   1.019   0.168   4.990  0.2614  1.1015 -0.3959
 7005TIP3    H220980   0.988   0.206   4.847 -0.1363 -3.2517 -1.6263
 7006TIP3   OH220981   7.095   5.909   2.357  0.1568 -0.1615  0.4522
 7006TIP3    H120982   7.107   5.814   2.363 -2.1139 -0.4953  0.7663
 7006TIP3    H220983   7.064   5.934   2.444 -0.5152  0.6423 -0.0077
 7007TIP3   OH220984   0.343  -0.007   5.018 -0.3764 -0.1908  0.1337
 7007TIP3    H120985   0.380   0.069   5.063 -0.7548 -1.5070  2.9335
 7007TIP3    H220986   0.419  -0.062   4.998 -0.2705 -0.0160  0.0577
 7008TIP3   OH220987   5.802   2.017   1.730 -0.1370 -0.4312 -0.0102
 7008TIP3    H120988   5.892   2.026   1.700 -0.2404  0.0721 -0.1958
 7008TIP3    H220989   5.749   2.053   1.658 -0.4337  0.0192  0.4205
 7009TIP3   OH220990   0.315   3.954   3.457  0.0961  0.9292  0.6158
 7009TIP3    H120991   0.259   4.030   3.441 -0.5080 -0.0372 -2.4775
 7009TIP3    H220992   0.285   3.888   3.394  0.1727 -2.1883  3.5476
 7010TIP3   OH220993   0.593   0.730   3.186 -0.0583 -0.2490  0.0546
 7010TIP3    H120994   0.540   0.803   3.219  0.0845  0.3084 -0.9151
 7010TIP3    H220995   0.546   0.700   3.109  0.8721  0.0451 -0.6361
 7011TIP3   OH220996   3.447   1.738   4.469  0.0875  0.2176  0.1060
 7011TIP3    H120997   3.526   1.688   4.489 -0.4431 -0.2792  1.0371
 7011TIP3    H220998   3.465   1.827   4.500  1.2700  0.8370 -2.1134
 7012TIP3   OH220999   0.560   0.778   2.315 -0.0991  0.0147  0.0217
 7012TIP3    H121000   0.560   0.874   2.316  0.5544  0.0178 -0.1244
 7012TIP3    H221001   0.520   0.756   2.231 -0.8099  0.1487  0.3169
 7013TIP3   OH221002   1.446   3.662   4.416 -0.8318 -0.2176  0.5457
 7013TIP3    H121003   1.468   3.581   4.462 -1.0722 -0.2393  0.6262
 7013TIP3    H221004   1.363   3.642   4.372 -0.0600 -0.5665 -0.8135
 7014TIP3   OH221005   4.542   2.368   1.970 -0.1686  0.3440 -0.1028
 7014TIP3    H121006   4.454   2.357   2.006  0.4636 -1.0463  1.1430
 7014TIP3    H221007   4.562   2.461   1.982 -1.0742  0.4673  0.5579
 7015TIP3   OH221008   4.912   1.338   3.944 -0.1107  0.1878  0.2875
 7015TIP3    H121009   4.978   1.273   3.920  0.5393  1.4191 -1.4414
 7015TIP3    H221010   4.831   1.307   3.904  0.3907  0.8559 -1.2985
 7016TIP3   OH221011   0.467   3.814   4.788  0.1307  0.1583  0.0870
 7016TIP3    H121012   0.556   3.847   4.777 -0.5837  1.9505 -0.5980
 7016TIP3    H221013   0.478   3.719   4.790  2.0946  0.3406  0.4493
 7017TIP3   OH221014   3.292   6.818   0.998  0.1573  0.1838 -0.3927
 7017TIP3    H121015   3.322   6.731   0.971  0.6623  0.3844 -0.4743
 7017TIP3    H221016   3.197   6.816   0.983  0.1938 -0.2878 -0.5725
 7018TIP3   OH221017   5.889   6.692   2.174  0.0933 -0.2191  0.4515
 7018TIP3    H121018   5.815   6.748   2.152  1.7741  1.6320 -0.9009
 7018TIP3    H221019   5.850   6.607   2.194 -2.3232  0.4902 -0.8357
 7019TIP3   OH221020   3.720   4.433   5.113  0.4926 -0.3163 -0.7367
 7019TIP3    H121021   3.638   4.445   5.066  0.3413  2.1474  0.0130
 7019TIP3    H221022   3.694   4.419   5.204  0.8436  1.5329 -0.3033
 7020TIP3   OH221023   5.290   1.235   1.049 -0.0436  0.4793 -0.2308
 7020TIP3    H121024   5.282   1.311   1.108 -0.3766  1.2630 -1.2617
 7020TIP3    H221025   5.374   1.247   1.006  0.0815  0.0413 -0.1151
 7021TIP3   OH221026   4.193   2.306   0.284  0.0186  0.3735  0.4008
 7021TIP3    H121027   4.271   2.298   0.340 -0.0405  1.4381  0.6529
 7021TIP3    H221028   4.207   2.387   0.235  0.2878 -0.7794 -1.5046
 7022TIP3   OH221029   4.440   2.376   0.845 -0.3771 -0.0145 -0.3261
 7022TIP3    H121030   4.457   2.365   0.939  2.9682 -0.7340 -0.9060
 7022TIP3    H221031   4.479   2.299   0.805  2.9962  2.6190 -2.6644
 7023TIP3   OH221032   6.013   6.017   3.309  0.0304 -0.0766  0.4683
 7023TIP3    H121033   5.969   6.058   3.383 -0.4157  2.2181 -0.9954
 7023TIP3    H221034   5.945   6.005   3.243  1.0963  1.4381 -0.9740
 7024TIP3   OH221035   5.034   6.592   1.887  0.2206  0.0318  0.1232
 7024TIP3    H121036   5.060   6.680   1.861 -1.0095  0.2770 -0.3771
 7024TIP3    H221037   4.942   6.586   1.861  0.4292 -1.5996 -0.3679
 7025TIP3   OH221038   1.795   1.518   0.224  0.3968 -0.1976  0.3349
 7025TIP3    H121039   1.813   1.596   0.171  0.5558 -0.3760  0.1257
 7025TIP3    H221040   1.699   1.513   0.227  0.3805 -0.7397 -0.7543
 7026TIP3   OH221041   2.945   6.625   0.659 -0.2009 -0.1200 -0.0725
 7026TIP3    H121042   2.910   6.541   0.630  2.3807 -1.5162  0.5176
 7026TIP3    H221043   2.906   6.689   0.600  0.1065 -2.1229 -2.6386
 7027TIP3   OH221044   4.617   0.099   4.069 -0.3429 -0.4936  0.4386
 7027TIP3    H121045   4.646   0.157   3.999  0.0783  0.3060  1.2517
 7027TIP3    H221046   4.591   0.018   4.024  1.9274 -0.7927 -0.4773
 7028TIP3   OH221047   7.121   2.044   1.345 -0.0430 -0.4022 -0.8571
 7028TIP3    H121048   7.030   2.015   1.340  0.0774 -1.1084  0.6257
 7028TIP3    H221049   7.153   2.038   1.255 -1.8710  1.2927 -1.7131
 7029TIP3   OH221050   6.880   6.474   5.016 -0.2997  0.2510 -0.0462
 7029TIP3    H121051   6.923   6.423   4.948 -0.1216 -0.0910  0.3192
 7029TIP3    H221052   6.945   6.481   5.086 -0.2306  1.2052 -0.1973
 7030TIP3   OH221053   0.061   2.029   4.445  0.1600  0.4039  0.3385
 7030TIP3    H121054   0.073   2.102   4.506 -0.7666  0.1245  0.8811
 7030TIP3    H221055   0.011   1.965   4.494  0.5573 -0.4057 -0.2930
 7031TIP3   OH221056   6.983   4.990   1.714 -0.8687  0.0168 -0.0893
 7031TIP3    H121057   7.044   4.917   1.726 -1.5635 -0.5288  0.1707
 7031TIP3    H221058   6.921   4.982   1.786 -1.1800  0.6419 -0.2793
 7032TIP3   OH221059   4.716   5.171   3.852  0.9625  0.4345 -0.2943
 7032TIP3    H121060   4.721   5.246   3.911 -0.9554  0.0890  0.3574
 7032TIP3    H221061   4.763   5.101   3.899 -0.1325  0.3002  0.6356
 7033TIP3   OH221062   2.427   1.376   5.548  0.0421 -0.0744  0.5630
 7033TIP3    H121063   2.342   1.412   5.519 -0.1998  0.9532  2.3667
 7033TIP3    H221064   2.426   1.285   5.517 -1.7159 -0.0884  0.5209
 7034TIP3   OH221065   0.693   2.393   1.312 -0.1956  0.0260 -0.4081
 7034TIP3    H121066   0.624   2.435   1.261 -0.6290 -0.7403 -0.4758
 7034TIP3    H221067   0.659   2.391   1.401 -0.8640 -1.5316 -0.6623
 7035TIP3   OH221068   5.485   4.177   2.410 -0.1221 -0.0378  1.1517
 7035TIP3    H121069   5.523   4.265   2.409 -1.0205  0.4025 -1.1067
 7035TIP3    H221070   5.402   4.186   2.363  0.1536 -2.2409  0.1087
 7036TIP3   OH221071   6.583   4.739   2.756 -0.6251 -0.2082 -0.0090
 7036TIP3    H121072   6.571   4.759   2.663  1.0242  0.4610 -0.1161
 7036TIP3    H221073   6.527   4.663   2.771  0.0191 -1.1341 -1.8738
 7037TIP3   OH221074   2.151   2.033   1.700 -0.2841  0.7808  0.5126
 7037TIP3    H121075   2.154   2.126   1.723  2.8855  0.5258  1.7249
 7037TIP3    H221076   2.111   1.991   1.776  0.0783  1.0112  0.8395
 7038TIP3   OH221077   4.279   0.004   2.765  0.3762  0.0672 -0.2026
 7038TIP3    H121078   4.301   0.097   2.758  1.1526  0.0251  1.2216
 7038TIP3    H221079   4.251  -0.007   2.856  1.2999 -1.2676 -0.0497
 7039TIP3   OH221080   1.028   4.586   3.287  0.4314 -0.1816  0.1263
 7039TIP3    H121081   1.086   4.613   3.217  0.8602  1.7670  1.1680
 7039TIP3    H221082   1.086   4.569   3.362 -0.2954  3.6865  1.7847
 7040TIP3   OH221083   4.604   5.423   1.188 -0.2240  0.7139  0.4403
 7040TIP3    H121084   4.673   5.358   1.172 -0.5697  0.5682 -0.4901
 7040TIP3    H221085   4.649   5.493   1.237  0.5436  0.5427  0.0020
 7041TIP3   OH221086   4.433   4.080   4.796 -0.8158  0.1345 -0.1794
 7041TIP3    H121087   4.514   4.111   4.755 -0.2496  0.4985  1.1375
 7041TIP3    H221088   4.450   4.088   4.890 -1.6725 -1.6328  0.1618
 7042TIP3   OH221089   3.591   5.502   2.913 -0.9167  0.5699  0.3467
 7042TIP3    H121090   3.644   5.579   2.935 -1.7519  0.6635  2.1612
 7042TIP3    H221091   3.550   5.525   2.829  2.4136  0.1758 -1.5558
 7043TIP3   OH221092   1.182   2.671   4.624  0.1240 -0.6890  0.5999
 7043TIP3    H121093   1.146   2.612   4.558 -0.4459  0.8076 -0.5017
 7043TIP3    H221094   1.116   2.673   4.693 -0.7197  0.0200 -0.1978
 7044TIP3   OH221095   2.034   2.015   5.391 -0.1885 -0.0633 -0.3724
 7044TIP3    H121096   2.041   2.042   5.483 -1.9678 -2.8733  0.7094
 7044TIP3    H221097   2.107   2.060   5.348  1.1544  0.8029  2.5277
 7045TIP3   OH221098   0.896   0.171   4.093 -0.5732  0.5737  0.0019
 7045TIP3    H121099   0.884   0.102   4.158  0.0472 -0.4962 -0.9609
 7045TIP3    H221100   0.811   0.214   4.087 -1.4730 -1.1911 -0.5292
 7046TIP3   OH221101   2.243   0.954   1.443  0.0584  0.1517 -0.2866
 7046TIP3    H121102   2.169   0.989   1.492 -0.3510  0.0172 -0.8061
 7046TIP3    H221103   2.248   1.009   1.365 -0.3504 -0.6937 -0.9197
 7047TIP3   OH221104   2.769   5.169   0.156  0.4036 -0.2710 -0.0851
 7047TIP3    H121105   2.791   5.192   0.066  0.1225  0.4414  0.0247
 7047TIP3    H221106   2.718   5.088   0.149 -0.9984  0.6338 -0.6857
 7048TIP3   OH221107   6.343   3.857   2.840 -0.0377 -0.2612  0.2835
 7048TIP3    H121108   6.377   3.850   2.929 -0.9775  1.6373  0.8259
 7048TIP3    H221109   6.397   3.795   2.790  1.8364  0.0603  1.7643
 7049TIP3   OH221110   6.680   0.754   0.618  0.2625 -0.1805 -0.0398
 7049TIP3    H121111   6.667   0.711   0.533  1.7243  0.9704 -0.8901
 7049TIP3    H221112   6.662   0.686   0.682 -2.8847 -0.5679 -1.1628
 7050TIP3   OH221113   5.833   0.856   0.827 -0.5887  0.1051  0.5941
 7050TIP3    H121114   5.858   0.916   0.897 -0.8724  0.0995  0.7012
 7050TIP3    H221115   5.875   0.773   0.850 -1.2615 -0.0896  1.1350
 7051TIP3   OH221116   1.874   1.101   2.783  0.1715 -0.5005 -0.0164
 7051TIP3    H121117   1.961   1.087   2.745  0.5420  1.5185 -0.0474
 7051TIP3    H221118   1.871   1.042   2.859  2.3421  0.6732  1.0830
 7052TIP3   OH221119   2.456   3.445   4.818 -0.1694  0.1478 -0.6539
 7052TIP3    H121120   2.449   3.386   4.743 -0.6289  0.0416 -0.5289
 7052TIP3    H221121   2.452   3.388   4.895 -0.4037  0.3232 -0.5350
 7053TIP3   OH221122   3.034   1.308   1.043 -0.1012  0.4893  0.6387
 7053TIP3    H121123   3.007   1.331   1.132  2.0450  0.3556  1.3624
 7053TIP3    H221124   3.070   1.389   1.008 -0.4812  0.4055  0.0456
 7054TIP3   OH221125   0.129   5.540   3.530 -0.1899  0.0319  0.3309
 7054TIP3    H121126   0.091   5.452   3.522  0.9972 -0.5086  0.3859
 7054TIP3    H221127   0.056   5.595   3.559 -0.3749 -1.4779  3.1332
 7055TIP3   OH221128   2.153   2.920   2.362 -0.2578  0.6365 -0.0303
 7055TIP3    H121129   2.136   2.835   2.402 -0.2404  0.2148 -0.9033
 7055TIP3    H221130   2.160   2.980   2.436  0.3295 -0.2209  0.6320
 7056TIP3   OH221131   6.110   4.321   4.133 -0.3242 -0.1044 -0.1145
 7056TIP3    H121132   6.149   4.361   4.211 -0.0053  0.2124 -0.4319
 7056TIP3    H221133   6.123   4.227   4.144 -1.4566 -0.1708  0.8486
 7057TIP3   OH221134   3.227   4.395   4.166  0.2284 -0.5326 -0.8905
 7057TIP3    H121135   3.266   4.315   4.131  1.6305  0.2141 -1.1218
 7057TIP3    H221136   3.297   4.460   4.161 -1.4921  1.3532 -2.8868
 7058TIP3   OH221137   2.832   4.081   1.857  0.1233  0.5861 -0.3198
 7058TIP3    H121138   2.749   4.109   1.896 -0.0057 -1.9888  1.5535
 7058TIP3    H221139   2.877   4.036   1.928  1.8427 -0.5981 -2.0717
 7059TIP3   OH221140   0.596   3.197   0.521 -0.4289 -0.0919 -0.3745
 7059TIP3    H121141   0.604   3.185   0.615 -0.2810  0.3198 -0.3344
 7059TIP3    H221142   0.530   3.266   0.511 -0.4297 -0.1199 -0.5704
 7060TIP3   OH221143   4.455   3.558   1.360  0.2716  0.0356  0.5217
 7060TIP3    H121144   4.462   3.562   1.265  1.8867 -0.6802  0.5688
 7060TIP3    H221145   4.438   3.648   1.387  0.8338  0.4257 -0.3824
 7061TIP3   OH221146   5.434   5.956   1.784 -0.4194 -0.1756  0.2953
 7061TIP3    H121147   5.405   5.995   1.866 -0.9149  1.6635 -0.7116
 7061TIP3    H221148   5.529   5.964   1.786 -0.4673  0.4238  0.4328
 7062TIP3   OH221149   6.209   2.007   3.226 -0.0303  0.3146 -0.0431
 7062TIP3    H121150   6.139   2.051   3.273  0.8398  2.0512 -0.2877
 7062TIP3    H221151   6.192   2.027   3.134  1.0753  1.2501 -0.0633
 7063TIP3   OH221152   3.150   0.369   4.638 -0.2208 -0.7400 -0.0107
 7063TIP3    H121153   3.238   0.380   4.674 -0.7537 -0.8825  1.3917
 7063TIP3    H221154   3.112   0.457   4.641 -0.0718 -0.6479 -0.7706
 7064TIP3   OH221155   3.414   6.181   2.906 -0.2950 -0.3285  0.5118
 7064TIP3    H121156   3.392   6.260   2.955 -0.4736 -0.2829  0.3575
 7064TIP3    H221157   3.338   6.164   2.851 -1.5505 -2.3418  2.7197
 7065TIP3   OH221158   1.382   5.020   0.375  0.2180  0.7561 -0.2174
 7065TIP3    H121159   1.351   4.983   0.458  0.5655 -1.2144 -0.9000
 7065TIP3    H221160   1.461   4.969   0.355  1.6584  2.9842 -0.4753
 7066TIP3   OH221161   0.929   1.031   1.491  0.2925  0.1425 -0.3209
 7066TIP3    H121162   0.932   0.936   1.508  2.5727  0.2321  0.0201
 7066TIP3    H221163   0.888   1.067   1.569  0.7168 -0.4368  0.1784
 7067TIP3   OH221164   3.513   6.375   5.421  0.5607  0.2687  0.0277
 7067TIP3    H121165   3.451   6.367   5.348  0.7261 -1.8680  0.0804
 7067TIP3    H221166   3.559   6.457   5.403 -0.4679  0.5820 -1.4286
 7068TIP3   OH221167   3.370   1.750   1.126 -0.1851 -0.4134 -0.0913
 7068TIP3    H121168   3.358   1.845   1.123 -1.9868 -0.6418 -1.2879
 7068TIP3    H221169   3.341   1.725   1.213  1.0599  0.1845  0.5306
 7069TIP3   OH221170   1.624   3.365   1.873 -0.2047  0.3090  0.6407
 7069TIP3    H121171   1.591   3.301   1.935  0.9410 -0.2154  0.7428
 7069TIP3    H221172   1.649   3.441   1.927 -0.3396  0.3269  0.6772
 7070TIP3   OH221173   5.846   1.039   5.718  0.2314 -0.1854 -0.0650
 7070TIP3    H121174   5.756   1.071   5.704  0.9670  1.1343 -2.2660
 7070TIP3    H221175   5.853   0.963   5.661  0.6773  0.0706 -0.3549
 7071TIP3   OH221176   0.281   0.571   0.320 -0.3546 -0.0363  0.3816
 7071TIP3    H121177   0.224   0.572   0.397  0.8159 -0.0052  1.2740
 7071TIP3    H221178   0.299   0.478   0.305  0.7696  0.0247  1.2059
 7072TIP3   OH221179   3.880   4.951   0.721 -0.3635  0.2568  0.0277
 7072TIP3    H121180   3.830   4.888   0.773  1.5954 -0.5912  0.9920
 7072TIP3    H221181   3.895   5.025   0.780 -1.0588  0.8166 -0.4857
 7073TIP3   OH221182   4.394   6.484   5.015  1.0679 -0.3828 -0.6451
 7073TIP3    H121183   4.484   6.452   5.018  0.9725 -0.7078  2.5537
 7073TIP3    H221184   4.354   6.449   5.094 -1.0729  2.0249 -0.5344
 7074TIP3   OH221185   1.154   2.683   0.552 -0.1262 -0.4060 -0.0507
 7074TIP3    H121186   1.112   2.658   0.634 -1.5476 -0.3253 -0.7300
 7074TIP3    H221187   1.245   2.700   0.576 -0.1943 -1.7106  1.2528
 7075TIP3   OH221188   1.143   0.319   1.820  0.2730  0.1689 -0.3026
 7075TIP3    H121189   1.235   0.300   1.837  0.5751  2.3054  0.8265
 7075TIP3    H221190   1.140   0.414   1.807 -1.8676  0.2736  0.5401
 7076TIP3   OH221191   4.788   4.313   0.464 -0.0990  0.0531 -0.1700
 7076TIP3    H121192   4.775   4.314   0.559  1.7348  0.4372  0.1165
 7076TIP3    H221193   4.756   4.227   0.436 -1.6335  0.3340  0.6161
 7077TIP3   OH221194   2.955   0.387   3.312 -0.1002  0.3981  0.3904
 7077TIP3    H121195   2.954   0.292   3.322 -1.1195  0.3231 -0.2360
 7077TIP3    H221196   2.863   0.413   3.318  0.1947  1.3875  0.9019
 7078TIP3   OH221197   2.620   1.769   0.504 -0.3612 -0.1102  0.6508
 7078TIP3    H121198   2.687   1.836   0.519 -1.8043  1.1321  1.9493
 7078TIP3    H221199   2.596   1.739   0.591 -0.4692 -1.6171  0.1257
 7079TIP3   OH221200   3.048   6.791   3.739  0.1986  0.4171  0.0620
 7079TIP3    H121201   3.077   6.792   3.830  0.8076 -0.6323 -0.1066
 7079TIP3    H221202   3.077   6.706   3.705  0.5056  1.0321 -1.2821
 7080TIP3   OH221203   4.496   2.651   3.524 -0.5307 -0.0965  0.6528
 7080TIP3    H121204   4.438   2.575   3.516  0.3499 -0.6580 -0.8070
 7080TIP3    H221205   4.497   2.690   3.436  0.8356  0.2448  0.7946
 7081TIP3   OH221206   6.550   3.676   1.326  0.1314  0.1450 -0.1244
 7081TIP3    H121207   6.546   3.752   1.384  0.1416  0.7789 -0.9208
 7081TIP3    H221208   6.459   3.646   1.319 -0.1553  1.1389 -1.1164
 7082TIP3   OH221209   4.671   4.538   4.079 -0.0273  0.4598 -0.0867
 7082TIP3    H121210   4.627   4.468   4.127 -0.2636 -0.2172 -1.2619
 7082TIP3    H221211   4.612   4.559   4.007  0.1710  1.6872  0.0897
 7083TIP3   OH221212   3.943   2.670   1.304  0.3179 -0.3893  0.5008
 7083TIP3    H121213   4.023   2.667   1.355  0.8249  4.0275  0.3522
 7083TIP3    H221214   3.875   2.696   1.366 -0.6543 -2.0982  0.2224
 7084TIP3   OH221215   2.929   3.279   2.773  0.1853 -0.5482  0.0572
 7084TIP3    H121216   2.960   3.197   2.812  2.0828  0.9947  2.0871
 7084TIP3    H221217   2.969   3.347   2.827 -2.6320  1.7477 -0.4960
 7085TIP3   OH221218   0.678   1.203   0.399  0.3719  0.0034  0.0466
 7085TIP3    H121219   0.745   1.146   0.360 -0.1971 -0.9962  0.4856
 7085TIP3    H221220   0.600   1.147   0.404 -0.1633  0.7898  0.6343
 7086TIP3   OH221221   4.671   1.901   0.239  0.0485  0.1176  0.0333
 7086TIP3    H121222   4.682   1.833   0.172 -3.0645 -0.5106  0.0152
 7086TIP3    H221223   4.758   1.909   0.279  0.9323 -2.6912 -1.0545
 7087TIP3   OH221224   2.031   1.396   3.038 -0.1381 -0.0790 -0.5301
 7087TIP3    H121225   2.074   1.413   3.122 -0.3941 -0.9841 -0.2064
 7087TIP3    H221226   1.979   1.475   3.022  1.5119  1.0002 -0.8825
 7088TIP3   OH221227   0.687   3.092   5.600 -0.2129 -0.2286 -0.2734
 7088TIP3    H121228   0.619   3.122   5.661  0.4282 -0.1300  0.4081
 7088TIP3    H221229   0.769   3.118   5.642  0.2678 -0.9051 -0.7806
 7089TIP3   OH221230   6.008   1.399   1.653 -0.8675 -0.0965 -0.5262
 7089TIP3    H121231   5.913   1.388   1.663 -0.8245 -0.7071 -0.7234
 7089TIP3    H221232   6.033   1.461   1.720 -1.2575 -0.6997  0.1934
 7090TIP3   OH221233   3.444   2.975   1.125  0.5046  0.4307 -0.3676
 7090TIP3    H121234   3.445   2.882   1.146  2.5293  0.6209  0.5376
 7090TIP3    H221235   3.455   3.019   1.209  0.5348  1.4638 -0.9002
 7091TIP3   OH221236   3.351   6.372   5.632 -0.2053  0.1306 -0.1271
 7091TIP3    H121237   3.395   6.366   5.717 -1.2236 -3.7129  0.3438
 7091TIP3    H221238   3.419   6.401   5.572  0.8572  1.7983  1.7689
 7092TIP3   OH221239   3.643   2.459   1.911 -0.2483 -0.1272  0.7424
 7092TIP3    H121240   3.582   2.494   1.846 -0.7238 -1.6615  0.3292
 7092TIP3    H221241   3.659   2.532   1.970  0.2854  1.3754 -1.1368
 7093TIP3   OH221242   0.409   6.593   5.420  0.0684 -0.6211  0.2505
 7093TIP3    H121243   0.433   6.683   5.441  1.2260 -1.0538  0.9224
 7093TIP3    H221244   0.398   6.551   5.506 -0.9854 -0.9975 -0.0525
 7094TIP3   OH221245   3.671   3.491   2.127  0.1044 -0.0308  0.1169
 7094TIP3    H121246   3.625   3.559   2.176 -2.9589 -0.5279 -1.8283
 7094TIP3    H221247   3.610   3.418   2.125  2.0951 -1.7541 -0.4430
 7095TIP3   OH221248   4.389   5.996   3.800 -0.6279 -0.3732 -0.0467
 7095TIP3    H121249   4.401   5.923   3.861 -1.1096  0.0456  0.5640
 7095TIP3    H221250   4.306   6.035   3.825  0.0314  0.9356  0.2315
 7096TIP3   OH221251   2.019   5.154   2.813 -0.2201 -0.2869  0.0516
 7096TIP3    H121252   1.942   5.143   2.868 -0.4064  1.9195  0.3536
 7096TIP3    H221253   2.008   5.092   2.742 -1.7722 -0.7119  0.6263
 7097TIP3   OH221254   4.572   4.165   4.039 -0.7418 -0.3596 -0.1138
 7097TIP3    H121255   4.491   4.194   4.081 -0.8870  1.1641 -1.3294
 7097TIP3    H221256   4.641   4.203   4.093 -0.8811 -0.3182  0.0372
 7098TIP3   OH221257   0.983   3.740   0.411 -0.6266  0.3441 -0.0395
 7098TIP3    H121258   1.049   3.679   0.444  0.3390  2.3261  1.9329
 7098TIP3    H221259   1.031   3.795   0.349  0.1669  2.8747  2.6288
 7099TIP3   OH221260   1.746   1.080   4.686 -0.0612  0.6609  1.0196
 7099TIP3    H121261   1.783   1.052   4.602  0.4544  0.2795  1.3648
 7099TIP3    H221262   1.821   1.115   4.735 -0.0489 -0.5185  1.8953
 7100TIP3   OH221263   3.881   3.484   5.557 -0.1613 -0.7176 -0.3369
 7100TIP3    H121264   3.894   3.570   5.518 -2.0772 -0.1395  0.2204
 7100TIP3    H221265   3.847   3.430   5.486 -0.9287 -0.4392 -0.1886
 7101TIP3   OH221266   7.127   4.395   5.125  0.4629  0.3573  0.0492
 7101TIP3    H121267   7.109   4.477   5.079 -0.0671  0.3725  0.2813
 7101TIP3    H221268   7.073   4.330   5.080  1.2490  0.0347 -0.4462
 7102TIP3   OH221269   0.648   6.078   0.922 -0.1409  0.3080  0.4877
 7102TIP3    H121270   0.663   6.074   1.016 -1.2798  0.6706  0.7010
 7102TIP3    H221271   0.633   5.986   0.897  1.4104  0.0411  0.4065
 7103TIP3   OH221272   5.710   5.938   0.739 -0.2424  0.2292 -0.3850
 7103TIP3    H121273   5.620   5.944   0.705 -0.2407  0.3848 -0.3622
 7103TIP3    H221274   5.741   5.853   0.708 -0.2823  0.3183 -0.6775
 7104TIP3   OH221275   6.133   5.472   1.313 -0.3147 -0.1550  0.1621
 7104TIP3    H121276   6.198   5.540   1.327  1.5454 -1.7280 -0.4230
 7104TIP3    H221277   6.125   5.428   1.398 -0.2631 -0.2713  0.1065
 7105TIP3   OH221278   4.983   0.326   1.012 -0.5733  0.2544  0.3417
 7105TIP3    H121279   4.907   0.343   0.956  0.6168  1.1669 -1.0705
 7105TIP3    H221280   5.016   0.241   0.981 -1.2167 -0.3301  1.2178
 7106TIP3   OH221281   1.752   4.240   5.474  0.4633  0.3860  0.3217
 7106TIP3    H121282   1.664   4.277   5.480 -0.1624 -0.5555 -2.0173
 7106TIP3    H221283   1.807   4.312   5.444  0.3748  0.7830  1.0815
 7107TIP3   OH221284   2.062   5.375   5.269  0.3431  0.5878  0.2187
 7107TIP3    H121285   2.048   5.431   5.345 -0.1156  1.7962 -0.7168
 7107TIP3    H221286   2.068   5.286   5.305 -2.4221  0.8025  1.4706
 7108TIP3   OH221287   4.019   4.453   2.369  0.0371 -0.6578 -0.0572
 7108TIP3    H121288   4.042   4.367   2.335 -0.5376 -0.3503 -1.2910
 7108TIP3    H221289   4.091   4.476   2.428  0.6927 -1.5481 -0.4955
 7109TIP3   OH221290   4.361   0.924   3.638 -0.1188  0.2389 -0.1358
 7109TIP3    H121291   4.442   0.952   3.597  0.2229 -1.4599 -0.6780
 7109TIP3    H221292   4.294   0.981   3.600  0.4998  0.1322 -1.4243
 7110TIP3   OH221293   3.198   3.482   4.951 -0.3770 -0.1648  0.0022
 7110TIP3    H121294   3.245   3.402   4.976  0.2040 -0.1689 -1.0362
 7110TIP3    H221295   3.154   3.459   4.869 -0.7200  0.3947  0.0270
 7111TIP3   OH221296   6.864   3.829   3.342  0.0002  0.6716 -0.7797
 7111TIP3    H121297   6.940   3.877   3.309  0.9312  0.2526  0.6862
 7111TIP3    H221298   6.811   3.896   3.385 -0.2989  0.9055 -1.4983
 7112TIP3   OH221299   4.914   3.180   5.500 -0.0101  0.5113  0.1958
 7112TIP3    H121300   4.857   3.218   5.567  0.1516  1.8576 -0.3796
 7112TIP3    H221301   4.982   3.246   5.488  0.5766 -0.2136 -0.4980
 7113TIP3   OH221302   1.473   4.238   5.491 -0.3241 -0.0793 -0.1119
 7113TIP3    H121303   1.453   4.282   5.574 -2.8026  0.2001 -0.7900
 7113TIP3    H221304   1.432   4.152   5.499  0.3481 -0.4597 -0.6438
 7114TIP3   OH221305   4.053   4.527   0.854  0.1063  0.1860  0.2687
 7114TIP3    H121306   4.004   4.591   0.803 -0.5953 -0.4854  0.0737
 7114TIP3    H221307   4.081   4.462   0.789  0.0075 -0.1891  0.5996
 7115TIP3   OH221308   6.218   3.703   1.582  0.4716  0.0501 -0.0710
 7115TIP3    H121309   6.211   3.798   1.581  0.8126  0.0932 -1.5651
 7115TIP3    H221310   6.287   3.684   1.646  0.4746  0.8097  0.1538
 7116TIP3   OH221311   5.318   1.097   5.238 -1.0333 -0.1368  0.4601
 7116TIP3    H121312   5.289   1.188   5.238 -0.2758  0.1101  1.2985
 7116TIP3    H221313   5.338   1.078   5.147 -1.4511  0.4488  0.2424
 7117TIP3   OH221314   2.577   6.439   1.449 -0.1396 -0.6157  0.4363
 7117TIP3    H121315   2.667   6.408   1.444  0.7242  1.8938 -2.3369
 7117TIP3    H221316   2.541   6.396   1.526  2.4193 -4.1469 -0.1128
 7118TIP3   OH221317   3.244   3.871   3.828 -0.0244 -0.3137  0.1032
 7118TIP3    H121318   3.232   3.776   3.824 -0.1390 -0.3425  0.9044
 7118TIP3    H221319   3.295   3.892   3.750  1.9239 -1.3288  1.0186
 7119TIP3   OH221320   1.776   4.743   1.512  0.1646  0.5615  0.1489
 7119TIP3    H121321   1.759   4.754   1.606 -0.2428 -0.1845  0.1652
 7119TIP3    H221322   1.818   4.825   1.486 -1.3813  1.5159  0.5835
 7120TIP3   OH221323   4.444   1.884   1.985 -0.1085  0.3165  0.0840
 7120TIP3    H121324   4.540   1.883   1.978 -0.1574 -0.3339 -0.6916
 7120TIP3    H221325   4.426   1.840   2.068  0.2518  0.0575  0.0283
 7121TIP3   OH221326   6.669   3.036   5.136  0.2560  0.2302  0.0582
 7121TIP3    H121327   6.755   3.035   5.094 -0.0063  1.5455 -0.5716
 7121TIP3    H221328   6.632   3.121   5.112 -1.8344 -0.8780 -0.9611
 7122TIP3   OH221329   6.110   4.623   4.281  0.6787  0.5208  0.7312
 7122TIP3    H121330   6.178   4.627   4.212  1.5748  1.2909  1.6272
 7122TIP3    H221331   6.147   4.563   4.346 -0.1586 -0.1814  0.5726
 7123TIP3   OH221332   0.633   1.750   0.724  0.1448 -0.1394  0.1828
 7123TIP3    H121333   0.706   1.804   0.694  1.3322 -0.7653  1.8275
 7123TIP3    H221334   0.623   1.773   0.817 -1.2676 -0.6205  0.1775
 7124TIP3   OH221335   4.113   3.452   3.646 -0.1238  0.2055 -0.3906
 7124TIP3    H121336   4.122   3.546   3.662  0.2058 -0.0424  1.0646
 7124TIP3    H221337   4.171   3.411   3.711 -1.0614 -1.0314 -0.2894
 7125TIP3   OH221338   4.790   3.357   2.662 -0.1176 -0.1562  0.2421
 7125TIP3    H121339   4.698   3.377   2.676  0.0516 -0.2265  1.5712
 7125TIP3    H221340   4.816   3.413   2.589 -0.9562  0.6226  0.5304
 7126TIP3   OH221341   5.315   1.873   1.458  0.0329 -0.2156 -0.8744
 7126TIP3    H121342   5.221   1.889   1.455  0.3585  2.2017 -0.6772
 7126TIP3    H221343   5.347   1.898   1.371  0.4982 -1.1533 -0.9896
 7127TIP3   OH221344   6.249   5.301   1.755 -0.3208 -0.5225  0.1288
 7127TIP3    H121345   6.242   5.389   1.718 -2.9432  0.5063  2.7217
 7127TIP3    H221346   6.342   5.288   1.769  0.1501  1.7339 -0.5468
 7128TIP3   OH221347   3.849   1.752   4.887  0.0005 -0.0393  0.2759
 7128TIP3    H121348   3.942   1.762   4.906  0.0182 -1.0588  0.7788
 7128TIP3    H221349   3.806   1.819   4.940  0.3073 -0.7960  1.4954
 7129TIP3   OH221350   3.993   4.363   4.410 -0.2761 -0.0070 -0.1897
 7129TIP3    H121351   3.950   4.363   4.495 -2.2162  1.9285 -1.0508
 7129TIP3    H221352   3.967   4.281   4.368 -0.0170 -0.5643  0.7330
 7130TIP3   OH221353   3.854   3.703   4.721 -0.0465 -0.4069  0.0714
 7130TIP3    H121354   3.924   3.643   4.748  0.4145  0.3581  0.6421
 7130TIP3    H221355   3.891   3.752   4.648 -0.6009 -1.1433 -0.7182
 7131TIP3   OH221356   3.018   2.776   2.948 -0.3498  0.1486 -0.0753
 7131TIP3    H121357   3.109   2.753   2.933 -0.3663  1.2173 -2.1891
 7131TIP3    H221358   2.972   2.692   2.951  0.4483 -0.3436 -1.0036
 7132TIP3   OH221359   2.334   0.838   2.842 -0.0610 -0.4967  0.1501
 7132TIP3    H121360   2.349   0.851   2.936 -0.8934  0.1369  0.2118
 7132TIP3    H221361   2.422   0.842   2.803  0.1145  1.7577  0.6279
 7133TIP3   OH221362   5.804   5.762   1.954 -0.2119 -0.4075 -0.0800
 7133TIP3    H121363   5.890   5.738   1.990  0.6938  2.5050 -0.0012
 7133TIP3    H221364   5.813   5.748   1.860 -0.1443 -1.3690  0.0559
 7134TIP3   OH221365   4.915   1.093   5.438  0.2463  0.2148 -0.1294
 7134TIP3    H121366   4.964   1.072   5.358  3.4696 -0.0295  1.7337
 7134TIP3    H221367   4.905   1.188   5.436 -0.5735  0.1195 -1.2572
 7135TIP3   OH221368   1.261   5.113   1.685 -0.9268 -0.0013  0.0678
 7135TIP3    H121369   1.318   5.184   1.714 -0.6494  0.6366 -1.8755
 7135TIP3    H221370   1.317   5.057   1.632 -1.1781 -1.6464  1.4592
 7136TIP3   OH221371   5.985   4.407   0.439  0.6754  0.1033  0.0665
 7136TIP3    H121372   5.964   4.316   0.457 -1.0814  0.2037 -1.2513
 7136TIP3    H221373   6.033   4.405   0.356 -0.3267  0.4321 -0.5422
 7137TIP3   OH221374   4.681   2.820   4.653 -0.2020  0.2134 -0.1871
 7137TIP3    H121375   4.656   2.797   4.563 -0.4712  0.3124 -0.1403
 7137TIP3    H221376   4.730   2.902   4.645  0.4728 -0.2002 -0.3216
 7138TIP3   OH221377   0.784   2.833   4.006  0.2927  0.4284 -0.0459
 7138TIP3    H121378   0.703   2.786   3.987  0.9700 -0.7931 -0.0268
 7138TIP3    H221379   0.773   2.865   4.096  0.2301 -0.6361  0.3417
 7139TIP3   OH221380   6.932   6.076   4.846 -0.6658 -0.0576 -0.7191
 7139TIP3    H121381   6.837   6.066   4.855 -0.8415 -0.6777 -2.7599
 7139TIP3    H221382   6.945   6.171   4.842 -0.6344  0.3492  3.8320
 7140TIP3   OH221383   4.636   0.336   0.804 -0.0661 -0.2612  0.2334
 7140TIP3    H121384   4.567   0.308   0.744  0.3469  0.1124 -0.4273
 7140TIP3    H221385   4.649   0.261   0.861 -0.1841 -0.7783 -0.4011
 7141TIP3   OH221386   4.787   3.572   3.056 -0.0603  0.7669 -0.5732
 7141TIP3    H121387   4.861   3.537   3.105 -1.4890 -1.3004  0.2721
 7141TIP3    H221388   4.791   3.667   3.070  0.8731  0.4474  1.7006
 7142TIP3   OH221389   2.207   2.541   2.002 -0.2042 -0.2143 -0.6965
 7142TIP3    H121390   2.232   2.457   2.040  1.1197  0.8986  1.0188
 7142TIP3    H221391   2.111   2.541   2.004 -0.1978 -0.7622  1.4247
 7143TIP3   OH221392   3.898   6.771   4.506  0.2426 -0.0017  0.0172
 7143TIP3    H121393   3.898   6.857   4.547 -0.0637  0.1410 -0.2761
 7143TIP3    H221394   3.990   6.755   4.482 -0.1044  1.6465 -2.8242
 7144TIP3   OH221395   5.492   0.220   1.074 -0.0487 -0.1251 -0.0575
 7144TIP3    H121396   5.489   0.157   1.146  3.3383 -2.1540 -1.4526
 7144TIP3    H221397   5.416   0.200   1.020  0.5744 -2.6942 -0.0969
 7145TIP3   OH221398   2.250   5.015   1.223  0.3641 -0.0652 -0.1413
 7145TIP3    H121399   2.271   5.108   1.217  0.6093 -0.1892 -1.5768
 7145TIP3    H221400   2.155   5.011   1.212  0.3360  0.0248  0.0651
 7146TIP3   OH221401   1.990   4.114   1.431 -0.1340  0.4132  0.4972
 7146TIP3    H121402   2.011   4.157   1.348 -0.0036 -0.4932  0.0421
 7146TIP3    H221403   1.976   4.022   1.407 -1.0149  0.3075  1.3368
 7147TIP3   OH221404   6.613   5.808   4.003  0.1788  0.5473 -0.1874
 7147TIP3    H121405   6.559   5.794   3.925 -0.0551  0.5634 -0.0280
 7147TIP3    H221406   6.703   5.802   3.970  0.0876  1.1598 -0.5641
 7148TIP3   OH221407   5.204   1.644   0.416  0.5592  0.4555 -0.8313
 7148TIP3    H121408   5.203   1.560   0.371 -0.2194  0.2768 -0.4899
 7148TIP3    H221409   5.112   1.667   0.426  0.6816  0.2336  1.1357
 7149TIP3   OH221410   3.521   4.252   1.345 -0.2212 -0.1747 -0.9851
 7149TIP3    H121411   3.576   4.325   1.316 -0.2420  1.5136  2.6903
 7149TIP3    H221412   3.431   4.282   1.329 -0.2092 -0.8506 -2.4649
 7150TIP3   OH221413   1.528   1.337   3.284  0.0246 -0.0685  0.1407
 7150TIP3    H121414   1.603   1.361   3.228  1.0330 -0.4128  1.2986
 7150TIP3    H221415   1.512   1.244   3.264 -0.6057  0.1977 -0.6556
 7151TIP3   OH221416   4.573   3.169   1.217  0.1998  0.1232 -0.1092
 7151TIP3    H121417   4.480   3.186   1.203  0.2372  0.2773 -0.1690
 7151TIP3    H221418   4.618   3.244   1.178  0.4673 -0.9519 -1.9790
 7152TIP3   OH221419   3.072   1.528   5.392 -0.1190  0.1072 -0.0594
 7152TIP3    H121420   3.100   1.453   5.340 -2.3163 -0.9078  0.0754
 7152TIP3    H221421   3.036   1.490   5.472 -0.6071  1.3556  0.3435
 7153TIP3   OH221422   0.410   6.386   0.341 -0.3105 -0.2549  0.5958
 7153TIP3    H121423   0.472   6.452   0.309  1.2744 -1.7029  0.5583
 7153TIP3    H221424   0.372   6.348   0.262  0.4308 -0.8897  0.5325
 7154TIP3   OH221425   2.051   0.055   5.497  0.3003  0.0176  0.0845
 7154TIP3    H121426   2.091   0.127   5.546 -0.6159  1.7285 -1.5693
 7154TIP3    H221427   2.110   0.040   5.424 -0.3252  0.2008 -0.4670
 7155TIP3   OH221428   5.451   1.626   3.048  0.8095 -0.5657 -0.0857
 7155TIP3    H121429   5.361   1.621   3.078  1.5113  1.0438  2.6764
 7155TIP3    H221430   5.468   1.541   3.008 -1.3983 -1.5645  0.9300
 7156TIP3   OH221431   6.671   4.635   4.255 -0.3862 -0.2927 -0.5221
 7156TIP3    H121432   6.745   4.612   4.311 -1.1205 -0.0085  0.5988
 7156TIP3    H221433   6.637   4.551   4.224 -1.3410 -0.6303  1.2928
 7157TIP3   OH221434   3.018   3.940   3.577  0.2781  0.3416  0.1942
 7157TIP3    H121435   3.104   3.913   3.609 -0.0185  1.5656  2.1729
 7157TIP3    H221436   2.959   3.871   3.606  0.0372  1.3689  2.2934
 7158TIP3   OH221437   7.047   5.506   3.355 -0.3080 -0.2902 -0.8486
 7158TIP3    H121438   7.064   5.519   3.448 -3.3365 -2.1907  0.1032
 7158TIP3    H221439   7.058   5.593   3.316  0.4562  0.6713  1.3361
 7159TIP3   OH221440   3.702   3.257   4.104  0.4711  0.6824 -0.4293
 7159TIP3    H121441   3.647   3.299   4.037  0.7473  0.5199 -0.7629
 7159TIP3    H221442   3.716   3.168   4.071  0.9905  0.7425 -0.3800
 7160TIP3   OH221443   4.652   1.861   2.900  0.4803 -0.6438  0.3835
 7160TIP3    H121444   4.643   1.947   2.859  1.8493 -0.5900  0.1596
 7160TIP3    H221445   4.746   1.848   2.908  0.2861 -2.0175  0.6494
 7161TIP3   OH221446   2.981   3.836   2.979 -0.2177  0.3870 -0.0825
 7161TIP3    H121447   2.894   3.806   3.006 -0.0280  1.1354  1.4517
 7161TIP3    H221448   2.975   3.842   2.883 -1.5442 -0.4812 -0.0858
 7162TIP3   OH221449   2.186   3.088   2.579  0.0307 -0.3891 -0.0284
 7162TIP3    H121450   2.277   3.110   2.602 -0.7928  0.6077  2.7391
 7162TIP3    H221451   2.136   3.164   2.608 -1.7064 -0.7909 -1.7787
 7163TIP3   OH221452   1.989   1.634   3.223  0.3173 -0.1396 -0.0485
 7163TIP3    H121453   2.056   1.570   3.249  0.7973  0.2707 -0.2648
 7163TIP3    H221454   2.020   1.717   3.261  0.7416  0.3666 -1.4386
 7164TIP3   OH221455   4.657   1.269   2.146 -0.4525  0.9493  0.3558
 7164TIP3    H121456   4.597   1.201   2.175  0.9891 -0.7584 -0.4795
 7164TIP3    H221457   4.601   1.338   2.112 -1.9535 -0.6335 -0.5374
 7165TIP3   OH221458   6.784   0.633   2.257 -0.8556  0.3255  0.0250
 7165TIP3    H121459   6.809   0.702   2.319  2.5690  1.6416 -2.4539
 7165TIP3    H221460   6.730   0.678   2.192  0.8124  0.6280 -1.2247
 7166TIP3   OH221461   2.262   6.064   3.869 -0.1439 -0.5668 -0.5045
 7166TIP3    H121462   2.225   6.149   3.846 -0.1918  0.3413  2.4811
 7166TIP3    H221463   2.187   6.012   3.899  0.2516 -0.6001  0.4640
 7167TIP3   OH221464   2.697   1.223   2.277 -0.2776 -0.0392  0.0691
 7167TIP3    H121465   2.603   1.208   2.270 -0.3894  0.2586  0.8211
 7167TIP3    H221466   2.729   1.149   2.329 -0.1905  0.1566  0.2987
 7168TIP3   OH221467   3.544   5.975   2.147 -0.2042  0.1837  1.1326
 7168TIP3    H121468   3.601   5.961   2.072 -0.3379  0.3876  0.9958
 7168TIP3    H221469   3.464   6.012   2.111 -0.2171  0.4112  1.3903
 7169TIP3   OH221470   4.983   0.428   0.647  0.4190  0.0874 -0.3985
 7169TIP3    H121471   4.982   0.337   0.677 -0.2834  0.3349  0.3744
 7169TIP3    H221472   5.074   0.455   0.656  0.2083  0.2235  1.8342
 7170TIP3   OH221473   3.657   2.154   0.835 -0.0960  0.7313  0.2481
 7170TIP3    H121474   3.667   2.122   0.745 -1.0650 -0.6637  0.6095
 7170TIP3    H221475   3.663   2.076   0.889 -1.4656  1.2887  1.2522
 7171TIP3   OH221476   4.895   0.468   5.343 -0.1646 -0.3832 -0.2713
 7171TIP3    H121477   4.938   0.429   5.419 -1.2831 -1.3267 -0.0861
 7171TIP3    H221478   4.818   0.412   5.328  0.4016 -0.6665 -2.5486
 7172TIP3   OH221479   0.354   0.033   1.102 -0.8085  0.3060  0.4581
 7172TIP3    H121480   0.329   0.024   1.010  0.3336 -2.4451  0.3035
 7172TIP3    H221481   0.438  -0.012   1.108  0.1325  2.1290  2.5150
 7173TIP3   OH221482   2.756   0.525   5.617 -0.1241 -0.2540  0.1464
 7173TIP3    H121483   2.810   0.446   5.625  0.1694 -0.0961 -0.2443
 7173TIP3    H221484   2.783   0.564   5.534 -0.7241 -0.0808  0.0302
 7174TIP3   OH221485   3.952   4.263   1.999 -0.3728 -0.5842 -0.2119
 7174TIP3    H121486   3.877   4.321   2.013 -0.5038 -1.2436  2.2069
 7174TIP3    H221487   4.013   4.286   2.068  1.1141 -0.9768 -1.3580
 7175TIP3   OH221488   4.915   6.135   2.176 -0.4753 -0.6413  0.2799
 7175TIP3    H121489   4.856   6.104   2.107  0.3831 -2.2587  0.2261
 7175TIP3    H221490   4.934   6.226   2.152 -1.4548 -0.6813 -0.7200
 7176TIP3   OH221491   6.886   2.082   4.552  0.1301  0.3401 -0.7617
 7176TIP3    H121492   6.910   2.148   4.486  1.1135 -0.4737 -1.2369
 7176TIP3    H221493   6.834   2.018   4.503 -0.6150  0.6168 -0.3517
 7177TIP3   OH221494   6.522   1.174   4.327 -0.1442 -0.5383  0.5784
 7177TIP3    H121495   6.495   1.111   4.261 -3.2081  0.9554  0.2473
 7177TIP3    H221496   6.552   1.250   4.276 -0.9098 -0.0099  0.9099
 7178TIP3   OH221497   3.848   5.042   4.230 -0.3003  0.2505  0.4064
 7178TIP3    H121498   3.911   4.975   4.255 -0.0750  0.0107 -0.7248
 7178TIP3    H221499   3.869   5.117   4.285 -0.1591 -0.3966  1.2591
 7179TIP3   OH221500   1.392   4.768   0.657 -0.6338 -0.4605 -0.0197
 7179TIP3    H121501   1.355   4.785   0.743  0.4331 -0.3599  0.4342
 7179TIP3    H221502   1.486   4.773   0.670 -0.4135  3.0687 -1.8754
 7180TIP3   OH221503   3.243   3.806   2.783  0.4915 -0.1823 -0.0549
 7180TIP3    H121504   3.252   3.877   2.846 -1.4953 -0.6953  0.8727
 7180TIP3    H221505   3.157   3.819   2.743  0.3381 -1.7014 -0.3001
 7181TIP3   OH221506   0.558   3.101   0.062 -0.4325  0.2783  0.6403
 7181TIP3    H121507   0.519   3.179   0.101  1.0982  2.3239 -1.5964
 7181TIP3    H221508   0.483   3.049   0.032 -1.4921  0.8339  2.1967
 7182TIP3   OH221509   1.155   2.661   5.768  0.1581 -0.8684  0.0581
 7182TIP3    H121510   1.242   2.651   5.807  1.0198  0.0229 -1.5183
 7182TIP3    H221511   1.139   2.578   5.723  0.7901 -0.5686 -0.7408
 7183TIP3   OH221512   7.108   1.628   3.439  0.5446 -0.0900  0.4371
 7183TIP3    H121513   7.106   1.646   3.345  1.0431 -1.5342  0.1283
 7183TIP3    H221514   7.154   1.702   3.476 -0.2581  0.8414 -0.3620
 7184TIP3   OH221515   6.838   6.293   4.389  0.3142 -0.3407  0.0100
 7184TIP3    H121516   6.775   6.328   4.452  0.8795 -1.1016  1.0203
 7184TIP3    H221517   6.822   6.199   4.389  1.1435 -0.4867 -0.0644
 7185TIP3   OH221518   3.905   3.360   2.834 -0.4087 -0.3425 -0.1909
 7185TIP3    H121519   3.896   3.454   2.818  1.1470  0.3741  2.6038
 7185TIP3    H221520   3.986   3.336   2.790  0.3349  0.1290  0.8982
 7186TIP3   OH221521   6.729   3.217   4.455 -0.6243  0.1147  0.0226
 7186TIP3    H121522   6.755   3.259   4.373 -0.4660 -1.7517 -0.9303
 7186TIP3    H221523   6.737   3.287   4.521  0.5588  1.3042 -1.3036
 7187TIP3   OH221524   6.378   3.128   5.206 -0.0607  0.2444 -0.2483
 7187TIP3    H121525   6.372   3.050   5.152  0.6667  0.2115 -0.2946
 7187TIP3    H221526   6.460   3.169   5.179 -0.2747  0.8510  0.0040
 7188TIP3   OH221527   2.832   5.002   2.814 -0.2966  0.3378 -0.3448
 7188TIP3    H121528   2.803   4.927   2.761  0.7684 -0.6369  0.4119
 7188TIP3    H221529   2.814   5.078   2.758 -1.3790 -0.4680 -1.1443
 7189TIP3   OH221530   0.527   3.324   2.112  0.5806  0.3485 -0.1603
 7189TIP3    H121531   0.557   3.383   2.043 -0.7010  0.9715 -0.2007
 7189TIP3    H221532   0.472   3.260   2.066  0.5234  0.1735  0.1501
 7190TIP3   OH221533   5.088   5.752   5.318  0.0912  0.4919  0.2483
 7190TIP3    H121534   5.033   5.707   5.254  1.1003 -0.0630 -0.2501
 7190TIP3    H221535   5.149   5.804   5.265 -0.6733  2.0077  0.8054
 7191TIP3   OH221536   5.390   4.065   0.532 -0.4416  0.7257 -0.7208
 7191TIP3    H121537   5.433   4.071   0.446  0.6943  1.2873 -0.1355
 7191TIP3    H221538   5.416   3.980   0.566 -0.1143  0.8909 -0.5468
 7192TIP3   OH221539   2.412   6.325   2.207  0.5459 -0.2556  0.1971
 7192TIP3    H121540   2.381   6.260   2.144  1.2373 -0.1273 -0.2846
 7192TIP3    H221541   2.334   6.350   2.256 -0.5051  1.2025 -2.0135
 7193TIP3   OH221542   4.352   5.020   4.323  0.4959  0.9421  0.1956
 7193TIP3    H121543   4.375   4.953   4.387  1.5194  0.8774 -0.2102
 7193TIP3    H221544   4.386   5.102   4.361  0.7223  0.9683 -0.0535
 7194TIP3   OH221545   3.866   4.516   1.303 -0.0041 -0.2303  0.3758
 7194TIP3    H121546   3.877   4.439   1.248  0.1187 -1.0432  1.5150
 7194TIP3    H221547   3.901   4.490   1.388  0.8673  1.3812  0.5445
 7195TIP3   OH221548   5.344   2.666   1.450  0.6253 -0.3006 -0.5559
 7195TIP3    H121549   5.373   2.597   1.390  1.8212 -0.3662  0.0667
 7195TIP3    H221550   5.360   2.747   1.403  0.1486 -0.3961 -0.8974
 7196TIP3   OH221551   5.898   6.754   3.211 -0.5826  0.7586  0.3202
 7196TIP3    H121552   5.808   6.786   3.214 -0.6243  0.8096 -1.0478
 7196TIP3    H221553   5.920   6.753   3.118 -0.2908 -2.3292  0.3128
 7197TIP3   OH221554   0.553   5.938   0.624  0.8661 -0.1405 -0.3139
 7197TIP3    H121555   0.522   6.026   0.602  0.9931 -0.3486 -1.3807
 7197TIP3    H221556   0.595   5.907   0.544 -0.0529 -1.5641 -0.2850
 7198TIP3   OH221557   1.102   5.201   2.444  0.0990  0.1552 -0.3028
 7198TIP3    H121558   1.065   5.290   2.449 -0.0251  0.0755  0.2620
 7198TIP3    H221559   1.132   5.193   2.354 -2.3044 -0.1721 -1.1439
 7199TIP3   OH221560   2.234   6.666   5.672  0.3655  0.4355  0.5521
 7199TIP3    H121561   2.220   6.589   5.726 -0.4608 -0.2073 -0.5373
 7199TIP3    H221562   2.328   6.667   5.655  0.3662 -0.4151  0.4746
 7200TIP3   OH221563   7.081   1.154   1.023  0.1089  0.3330 -0.7002
 7200TIP3    H121564   6.987   1.138   1.014 -0.4543  1.6652  1.9615
 7200TIP3    H221565   7.112   1.164   0.933 -2.1504 -0.7366 -1.6736
 7201TIP3   OH221566   4.800   4.000   3.895 -0.6257  0.6515  0.3182
 7201TIP3    H121567   4.722   4.029   3.942 -0.9189 -0.5544  0.5938
 7201TIP3    H221568   4.782   3.909   3.871  0.3803  0.5964 -0.2898
 7202TIP3   OH221569   1.474   6.338   2.468 -0.6227 -0.3097 -0.5161
 7202TIP3    H121570   1.469   6.317   2.375 -0.1493 -3.4571  0.0775
 7202TIP3    H221571   1.385   6.361   2.493 -1.1528 -1.3592 -1.3758
 7203TIP3   OH221572   6.223   2.614   1.956  0.3335 -0.0396 -0.3427
 7203TIP3    H121573   6.163   2.668   2.008  0.1584 -0.8821  0.3599
 7203TIP3    H221574   6.171   2.584   1.882 -0.0218 -0.4814  0.0789
 7204TIP3   OH221575   3.705   3.410   4.885  0.0169 -0.0085  0.2629
 7204TIP3    H121576   3.621   3.453   4.876 -0.8963 -1.7622 -0.0067
 7204TIP3    H221577   3.737   3.399   4.796  0.8448  1.1931  0.3911
 7205TIP3   OH221578   3.736   6.053   3.369 -0.3675  0.0095  0.4286
 7205TIP3    H121579   3.757   6.066   3.277 -0.0055  1.0446  0.6478
 7205TIP3    H221580   3.640   6.055   3.373 -0.4213 -0.9901 -0.0465
 7206TIP3   OH221581   5.315   5.932   0.902  0.0627  0.0555 -0.3600
 7206TIP3    H121582   5.315   5.867   0.832  1.2680  1.0351 -1.3058
 7206TIP3    H221583   5.222   5.956   0.912 -0.0422  0.5734 -2.2827
 7207TIP3   OH221584   1.257   6.697   5.854 -0.0693 -0.8515  1.0213
 7207TIP3    H121585   1.343   6.679   5.816 -0.4979 -0.8909  0.0342
 7207TIP3    H221586   1.272   6.770   5.913  0.1243  1.3606 -1.5378
 7208TIP3   OH221587   4.448   4.975   3.256 -0.2113 -0.4154 -0.3111
 7208TIP3    H121588   4.498   5.050   3.224  0.5133  0.6587  2.9660
 7208TIP3    H221589   4.512   4.904   3.259  0.1451 -0.0782  0.2739
 7209TIP3   OH221590   0.100   0.204   3.717  0.0075  0.4030 -0.5833
 7209TIP3    H121591   0.115   0.128   3.660 -0.9556 -0.4767  0.3049
 7209TIP3    H221592   0.031   0.176   3.777 -0.9774  2.2865 -0.7646
 7210TIP3   OH221593   5.839   3.869   5.378 -0.6637 -0.0681  0.0814
 7210TIP3    H121594   5.756   3.914   5.393 -0.2827  0.4555  0.6343
 7210TIP3    H221595   5.876   3.855   5.465 -0.8108 -1.5459 -0.0566
 7211TIP3   OH221596   5.871   5.130   5.768 -0.1620 -0.2109  0.6407
 7211TIP3    H121597   5.824   5.110   5.686 -0.2790 -1.4080  0.9814
 7211TIP3    H221598   5.840   5.064   5.830  1.8986 -1.0121  0.9037
 7212TIP3   OH221599   1.001   3.278   3.512  0.1584 -0.1305 -0.0996
 7212TIP3    H121600   1.049   3.281   3.429 -1.7638  0.9581 -1.2308
 7212TIP3    H221601   1.048   3.339   3.569 -0.3875  1.6506 -1.4868
 7213TIP3   OH221602   3.719   5.353   1.420  0.5773  0.0217  0.4460
 7213TIP3    H121603   3.773   5.411   1.366 -0.6538  0.4369 -0.3943
 7213TIP3    H221604   3.643   5.406   1.444  0.0037 -0.8700  0.6627
 7214TIP3   OH221605   6.330   6.003   5.882 -0.2194 -0.1004  0.7467
 7214TIP3    H121606   6.318   5.944   5.808  1.9713 -0.1917  0.3980
 7214TIP3    H221607   6.323   5.946   5.959 -1.5966 -0.1621  0.5999
 7215TIP3   OH221608   6.530   4.509   0.591 -0.1974 -0.4188 -0.3478
 7215TIP3    H121609   6.437   4.529   0.587  0.2680  2.6703  1.0805
 7215TIP3    H221610   6.540   4.453   0.668 -0.6443  1.7171  1.3744
 7216TIP3   OH221611   3.896   4.679   5.061  0.5996  0.3947  0.0211
 7216TIP3    H121612   3.849   4.613   5.009 -1.6038  2.0900 -0.2926
 7216TIP3    H221613   3.937   4.629   5.131  0.0901 -1.4444 -0.9182
 7217TIP3   OH221614   6.826   3.610   3.550 -0.5093 -0.7641 -0.0535
 7217TIP3    H121615   6.780   3.653   3.622  1.1770 -0.3637  0.8390
 7217TIP3    H221616   6.805   3.664   3.473 -0.5718  0.0904  0.5519
 7218TIP3   OH221617   2.676   1.391   1.189  0.1611 -0.1217 -0.0470
 7218TIP3    H121618   2.683   1.324   1.121  1.0538  0.7144 -0.8125
 7218TIP3    H221619   2.753   1.447   1.176 -1.4072  2.0557 -0.5422
 7219TIP3   OH221620   1.770   4.177   1.564  0.1765 -0.1671  0.0922
 7219TIP3    H121621   1.837   4.150   1.502  0.0460  1.0638 -0.6195
 7219TIP3    H221622   1.690   4.135   1.533  0.5111 -1.3240  0.7217
 7220TIP3   OH221623   3.108   4.512   0.105  0.3945 -0.1402 -0.1638
 7220TIP3    H121624   3.169   4.540   0.174  1.7170 -0.9209 -0.9553
 7220TIP3    H221625   3.128   4.570   0.031 -0.6521  0.3519 -0.0741
 7221TIP3   OH221626   3.555   2.301   2.195  0.2282 -0.5559 -0.2634
 7221TIP3    H121627   3.643   2.287   2.159  1.0784  0.4590  1.3162
 7221TIP3    H221628   3.553   2.394   2.218 -1.2915 -0.5496 -0.3027
 7222TIP3   OH221629   1.229   6.426   5.867  0.1672  0.3638 -0.2459
 7222TIP3    H121630   1.240   6.521   5.872 -1.3594  0.7316 -2.2746
 7222TIP3    H221631   1.230   6.407   5.773  0.4940 -1.6590  0.1158
 7223TIP3   OH221632   0.832   1.154   5.473  0.7258  0.0867 -0.4488
 7223TIP3    H121633   0.824   1.248   5.491  0.3704  0.2203 -1.2933
 7223TIP3    H221634   0.911   1.146   5.421 -0.2228  0.1518 -1.9484
 7224TIP3   OH221635   7.125   2.750   4.958 -0.4055 -0.0759 -0.2367
 7224TIP3    H121636   7.179   2.698   5.018  0.6079 -0.7990 -1.7049
 7224TIP3    H221637   7.161   2.838   4.962  0.5382 -0.4220 -0.7476
 7225TIP3   OH221638   1.617   0.432   1.210 -0.3284 -0.2475 -0.0914
 7225TIP3    H121639   1.705   0.469   1.218 -0.6404  0.4306  0.3498
 7225TIP3    H221640   1.576   0.452   1.294 -1.2004  0.2421 -0.6174
 7226TIP3   OH221641   4.669   6.613   1.425 -0.4503  0.2204 -0.5481
 7226TIP3    H121642   4.675   6.708   1.420 -1.9230  0.2783 -1.7797
 7226TIP3    H221643   4.599   6.596   1.488 -0.2484 -0.0600 -0.3941
 7227TIP3   OH221644   4.934   5.784   0.926 -0.2083 -0.4730 -0.3100
 7227TIP3    H121645   4.968   5.821   1.007  2.5829 -0.4494 -1.4027
 7227TIP3    H221646   4.912   5.860   0.872 -0.6082 -0.4859 -0.1721
 7228TIP3   OH221647   0.306   6.690   3.809  0.5989 -0.2111  0.5049
 7228TIP3    H121648   0.233   6.628   3.799 -1.2516  2.0454 -1.0226
 7228TIP3    H221649   0.265   6.774   3.825  2.7855  1.3291 -1.2461
 7229TIP3   OH221650   7.213   1.718   5.215  0.3552 -0.6570  0.3730
 7229TIP3    H121651   7.189   1.627   5.235  2.1365 -1.2655 -0.0903
 7229TIP3    H221652   7.204   1.724   5.120 -0.1149 -0.2295  0.4426
 7230TIP3   OH221653   7.205   5.854   4.245 -0.5317  0.1609 -0.5611
 7230TIP3    H121654   7.282   5.909   4.230 -1.5757  2.0194  0.4885
 7230TIP3    H221655   7.152   5.867   4.167 -0.4586  0.1029 -0.6201
 7231TIP3   OH221656   3.254   5.979   4.545 -0.2654 -0.0401 -0.1446
 7231TIP3    H121657   3.326   5.994   4.484  0.3822 -1.0074  0.3672
 7231TIP3    H221658   3.281   5.902   4.596 -0.9676  0.5190  1.1010
 7232TIP3   OH221659   5.756   1.421   2.778  0.0587  0.2428 -0.0284
 7232TIP3    H121660   5.748   1.513   2.754  1.3649  1.1777  2.7376
 7232TIP3    H221661   5.694   1.409   2.850  1.1525 -0.5625  0.8164
 7233TIP3   OH221662   2.784   4.613   1.835  0.0644 -0.4845 -0.2886
 7233TIP3    H121663   2.801   4.683   1.772  2.9608 -0.5328  0.2984
 7233TIP3    H221664   2.706   4.569   1.801  0.7327  0.2923 -3.1166
 7234TIP3   OH221665   2.794   4.362   3.405 -0.0598  0.0927  0.0194
 7234TIP3    H121666   2.783   4.341   3.312 -1.0923  0.3407  0.0662
 7234TIP3    H221667   2.821   4.453   3.406  0.2790 -0.0079 -0.0517
 7235TIP3   OH221668   3.017   0.523   5.453 -0.2525  0.0779  0.1990
 7235TIP3    H121669   3.042   0.606   5.494 -1.0941  0.6797 -0.4631
 7235TIP3    H221670   3.051   0.456   5.512  0.9599  0.8805  0.4383
 7236TIP3   OH221671   1.705   2.717   5.162  0.3567  0.1762 -0.1931
 7236TIP3    H121672   1.652   2.640   5.141  0.9248 -0.1919 -0.3102
 7236TIP3    H221673   1.687   2.734   5.255  1.3238 -0.9886  0.2360
 7237TIP3   OH221674   4.530   3.855   2.392 -0.0766  0.1350  0.5318
 7237TIP3    H121675   4.496   3.795   2.327 -1.5580  1.4492  0.0363
 7237TIP3    H221676   4.488   3.829   2.474  1.8119 -1.5390  1.0531
 7238TIP3   OH221677   5.255   0.730   5.169 -0.1708  0.1940  0.0416
 7238TIP3    H121678   5.160   0.737   5.161 -0.1789  2.4263  1.3860
 7238TIP3    H221679   5.286   0.721   5.078 -1.4473  3.6596 -0.8750
 7239TIP3   OH221680   1.415   1.341   5.367 -0.7173 -0.0278 -0.3096
 7239TIP3    H121681   1.492   1.366   5.316 -0.3146 -2.1618 -0.8273
 7239TIP3    H221682   1.341   1.372   5.316 -0.2571  1.4214 -0.1545
 7240TIP3   OH221683   1.566   3.453   4.562 -0.6206 -0.7553  0.4194
 7240TIP3    H121684   1.648   3.443   4.610  0.5308 -0.4801 -1.3696
 7240TIP3    H221685   1.574   3.392   4.488 -1.8303 -0.3929 -0.0457
 7241TIP3   OH221686   6.580   2.997   5.394  0.2097  0.8746 -0.9322
 7241TIP3    H121687   6.566   2.903   5.406 -0.4327  1.1836  1.1315
 7241TIP3    H221688   6.587   3.008   5.300 -2.4291 -0.9019 -1.4483
 7242TIP3   OH221689   3.557   2.462   4.488  0.0814 -0.3341 -0.5036
 7242TIP3    H121690   3.644   2.432   4.514 -0.2791 -2.0043 -1.0972
 7242TIP3    H221691   3.562   2.471   4.393 -0.3581 -0.3576 -0.5325
 7243TIP3   OH221692   1.871   3.298   0.976  0.2976 -0.3664  0.1075
 7243TIP3    H121693   1.860   3.382   1.020 -1.6716 -1.0569  1.0324
 7243TIP3    H221694   1.906   3.321   0.889 -1.8695  1.5837 -0.3443
 7244TIP3   OH221695   3.829   0.601   3.912  0.0835 -0.6575 -0.8721
 7244TIP3    H121696   3.826   0.584   3.818  1.5724  1.0049 -1.2837
 7244TIP3    H221697   3.839   0.514   3.952 -1.2410 -1.4535 -2.1688
 7245TIP3   OH221698   3.610   2.879   4.546 -0.1086 -0.3868  0.1047
 7245TIP3    H121699   3.604   2.923   4.631 -0.0032 -0.8149  0.3371
 7245TIP3    H221700   3.680   2.925   4.500  0.3348 -0.6142  0.5360
 7246TIP3   OH221701   0.920   6.577   4.745 -0.1497 -0.3994  0.3721
 7246TIP3    H121702   0.956   6.654   4.790 -1.4537  0.4510  0.0085
 7246TIP3    H221703   0.890   6.520   4.816 -0.5333  0.1073  0.6279
 7247TIP3   OH221704   3.613   5.562   1.213 -0.1191 -0.4751 -0.6798
 7247TIP3    H121705   3.530   5.585   1.172  0.2251  0.5155 -0.8588
 7247TIP3    H221706   3.677   5.569   1.142  0.3159  0.1782 -0.2381
 7248TIP3   OH221707   5.405   5.302   3.023 -0.3678 -0.5341  0.6621
 7248TIP3    H121708   5.424   5.217   2.984  2.3361  0.0537  0.5410
 7248TIP3    H221709   5.388   5.360   2.949  0.4942 -0.3880  0.5668
 7249TIP3   OH221710   5.708   2.415   5.626  0.0730 -0.2046 -0.2348
 7249TIP3    H121711   5.756   2.354   5.681 -0.1580  0.1336  0.3639
 7249TIP3    H221712   5.686   2.366   5.547 -0.4484 -1.0208  0.3966
 7250TIP3   OH221713   3.652   1.387   5.067 -0.4602 -0.1314 -0.2984
 7250TIP3    H121714   3.728   1.329   5.070 -1.1138 -0.9887 -0.0730
 7250TIP3    H221715   3.677   1.457   5.006 -0.1595 -1.3389 -1.5876
 7251TIP3   OH221716   1.817   0.751   1.578  0.0291  0.4416 -0.0120
 7251TIP3    H121717   1.811   0.758   1.673 -1.1922  0.3633 -0.0654
 7251TIP3    H221718   1.753   0.683   1.555 -1.3715  2.0475 -1.0768
 7252TIP3   OH221719   0.167   2.543   3.892 -0.8606 -0.5737 -0.1187
 7252TIP3    H121720   0.151   2.616   3.832 -3.1077  0.4853  1.6018
 7252TIP3    H221721   0.089   2.488   3.884 -0.9208 -0.7399  1.3166
 7253TIP3   OH221722   6.674   2.870   0.242  0.4376  0.0610 -0.4463
 7253TIP3    H121723   6.695   2.821   0.321  2.2393  1.3427 -0.0694
 7253TIP3    H221724   6.701   2.813   0.170  2.2701  0.3334 -0.0207
 7254TIP3   OH221725   4.508   5.011   1.638  0.4038 -0.5334 -0.4536
 7254TIP3    H121726   4.441   5.049   1.581  1.9605  0.4573 -1.7319
 7254TIP3    H221727   4.591   5.044   1.602  1.5671 -1.4912  1.2180
 7255TIP3   OH221728   1.834   3.276   2.510 -0.0275 -0.4440  0.3321
 7255TIP3    H121729   1.759   3.247   2.561 -0.8077  0.5949 -0.2039
 7255TIP3    H221730   1.910   3.255   2.565 -0.7647 -0.5451  1.3353
 7256TIP3   OH221731   0.348   2.539   4.089  0.0652  1.1607  0.2119
 7256TIP3    H121732   0.409   2.603   4.051  2.0288 -1.0589 -0.6284
 7256TIP3    H221733   0.289   2.517   4.017 -1.7223  3.1524  0.9671
 7257TIP3   OH221734   7.145   1.333   4.210  0.2464  0.6692 -0.0327
 7257TIP3    H121735   7.069   1.337   4.153  1.0229 -0.9327 -1.2696
 7257TIP3    H221736   7.200   1.406   4.181 -0.0142  0.7472 -0.3367
 7258TIP3   OH221737   5.352   6.152   4.931  0.4169  0.2561  0.1118
 7258TIP3    H121738   5.443   6.176   4.911  1.1364  0.0775  2.7427
 7258TIP3    H221739   5.307   6.235   4.941  1.0302  0.4472  1.5854
 7259TIP3   OH221740   6.950   2.389   1.266  0.3895  0.1845  0.0202
 7259TIP3    H121741   6.928   2.371   1.358  0.0916 -2.6428 -0.4979
 7259TIP3    H221742   7.029   2.442   1.270  1.1225 -0.9646  1.9424
 7260TIP3   OH221743   7.041   2.055   2.706  0.2559 -0.3999  0.0580
 7260TIP3    H121744   7.030   1.962   2.685 -0.0122 -0.4576  0.4359
 7260TIP3    H221745   6.954   2.093   2.690  0.4531 -0.1423 -0.4318
 7261TIP3   OH221746   2.043   4.016   2.470 -0.3868 -0.1086 -0.0474
 7261TIP3    H121747   2.055   4.083   2.538  0.8763 -0.5351  0.1904
 7261TIP3    H221748   1.951   4.022   2.446 -0.6193  0.7641  0.9650
 7262TIP3   OH221749   3.865   2.574   1.634 -0.2340 -0.5774  0.1781
 7262TIP3    H121750   3.930   2.564   1.564 -1.5625 -0.7981 -1.0748
 7262TIP3    H221751   3.869   2.492   1.683 -0.7504 -1.2964 -0.9531
 7263TIP3   OH221752   4.586   5.984   5.068  0.3594 -0.0238 -0.3692
 7263TIP3    H121753   4.501   6.025   5.051 -0.0006 -0.6481 -0.0853
 7263TIP3    H221754   4.639   6.008   4.993  0.5404  1.9955  0.3273
 7264TIP3   OH221755   5.780   5.930   3.777 -0.4070 -0.0199 -0.1308
 7264TIP3    H121756   5.723   5.875   3.830  0.5002  0.4656  1.4277
 7264TIP3    H221757   5.856   5.875   3.758  0.3758  0.5519  1.1965
 7265TIP3   OH221758   1.137   4.582   4.003  0.2063 -0.5268  0.3221
 7265TIP3    H121759   1.051   4.589   3.962  0.1362  1.2802  0.6826
 7265TIP3    H221760   1.193   4.640   3.953  0.8388 -0.5134  1.0224
 7266TIP3   OH221761   4.482   4.648   2.970 -0.3793 -0.0527  0.0530
 7266TIP3    H121762   4.482   4.741   2.990  1.1389 -0.2175  1.0083
 7266TIP3    H221763   4.568   4.631   2.933 -1.0179 -0.8987 -1.0848
 7267TIP3   OH221764   0.243   1.851   3.701 -0.2216  0.1811 -0.0148
 7267TIP3    H121765   0.164   1.856   3.755  0.8576 -0.8291  1.7346
 7267TIP3    H221766   0.309   1.900   3.749  0.4843  0.2129 -0.9942
 7268TIP3   OH221767   1.500   3.171   0.045  0.1190 -0.1702  0.7205
 7268TIP3    H121768   1.490   3.254  -0.002  3.4229  0.7792  1.4874
 7268TIP3    H221769   1.418   3.161   0.094 -1.5387  1.0981 -1.6144
 7269TIP3   OH221770   0.557   4.856   3.999  0.0814  0.0093 -0.3139
 7269TIP3    H121771   0.511   4.932   4.033  0.0122  0.6976 -1.8738
 7269TIP3    H221772   0.596   4.815   4.077  0.6273  1.9622  0.5136
 7270TIP3   OH221773   1.479   1.039   3.285  0.0265 -0.0607  0.6769
 7270TIP3    H121774   1.434   0.995   3.214  0.7749  0.1946  0.0294
 7270TIP3    H221775   1.422   1.027   3.361  0.1037 -1.9961  0.4861
 7271TIP3   OH221776   5.872   4.420   2.517 -0.3892  0.2056  0.1088
 7271TIP3    H121777   5.809   4.458   2.456 -0.8050  0.5731  0.7589
 7271TIP3    H221778   5.899   4.338   2.476 -1.4369 -0.0466 -0.0931
 7272TIP3   OH221779   0.858   2.475   3.705  0.0678  0.1563  0.3723
 7272TIP3    H121780   0.873   2.474   3.610  1.2694 -0.3718  0.5461
 7272TIP3    H221781   0.896   2.557   3.734  0.6096 -0.1460  0.5241
 7273TIP3   OH221782   4.464   0.344   0.440 -0.1783  0.4429  0.3195
 7273TIP3    H121783   4.510   0.317   0.519  1.8417 -1.0858 -1.2429
 7273TIP3    H221784   4.500   0.430   0.418  1.4212 -0.3648 -0.4113
 7274TIP3   OH221785   0.818   3.854   5.643  0.6290 -0.0485  0.1723
 7274TIP3    H121786   0.749   3.837   5.707 -0.0238  2.1615  0.1348
 7274TIP3    H221787   0.771   3.880   5.563  1.4561  0.8600 -0.0461
 7275TIP3   OH221788   7.179   2.568   1.378 -0.1175 -0.1028  0.0134
 7275TIP3    H121789   7.261   2.613   1.398 -0.1425  0.1378 -0.4052
 7275TIP3    H221790   7.132   2.563   1.462  0.4247 -0.4562  0.2991
 7276TIP3   OH221791   5.753   3.956   1.944  0.1665  0.1800  0.2278
 7276TIP3    H121792   5.800   3.920   1.869 -1.3764 -1.8062  0.1320
 7276TIP3    H221793   5.770   4.050   1.940  1.2805 -0.0530 -1.7702
 7277TIP3   OH221794   1.628   4.814   5.803  0.2262  0.7050  0.5966
 7277TIP3    H121795   1.597   4.724   5.797 -0.5163  0.9610  0.5117
 7277TIP3    H221796   1.660   4.823   5.893  1.1202  0.1047  0.3446
 7278TIP3   OH221797   4.446   5.095   0.207  0.3522 -0.5033  0.7850
 7278TIP3    H121798   4.395   5.166   0.167  0.3760  0.4009  2.2904
 7278TIP3    H221799   4.507   5.069   0.138 -0.8628 -0.3100 -0.4091
 7279TIP3   OH221800   7.161   4.754   1.679 -0.3483  0.0816 -0.0080
 7279TIP3    H121801   7.113   4.700   1.617  1.3511 -1.5953  0.0693
 7279TIP3    H221802   7.235   4.789   1.629 -1.4526  2.5236 -0.0934
 7280TIP3   OH221803   5.659   6.042   0.987 -0.0534 -0.5117 -0.1934
 7280TIP3    H121804   5.580   6.077   0.946  1.6753  1.7287 -1.8987
 7280TIP3    H221805   5.702   5.992   0.917  0.6820 -0.5490  0.2737
 7281TIP3   OH221806   4.904   5.512   1.556 -0.1731  0.2100  0.0013
 7281TIP3    H121807   4.998   5.505   1.575 -0.0979 -1.3918 -0.7755
 7281TIP3    H221808   4.869   5.565   1.628  1.0992 -0.3752  1.1036
 7282TIP3   OH221809   0.567   1.116   5.560  0.2432 -0.4512 -0.1975
 7282TIP3    H121810   0.637   1.134   5.497 -0.2401  0.3215 -0.5278
 7282TIP3    H221811   0.541   1.202   5.593 -1.6974 -0.5075 -1.3587
 7283TIP3   OH221812   3.246   0.421   0.961  0.3525 -0.2013 -0.0796
 7283TIP3    H121813   3.338   0.411   0.937 -0.1093 -1.0523 -1.6197
 7283TIP3    H221814   3.206   0.465   0.886 -0.6083 -0.2916  0.3622
 7284TIP3   OH221815   1.291   6.307   2.031  0.9740 -0.2491 -0.3642
 7284TIP3    H121816   1.272   6.401   2.034  0.2025 -0.4066  0.0714
 7284TIP3    H221817   1.211   6.267   1.997  1.2721 -0.7564 -0.4864
 7285TIP3   OH221818   0.203   3.444   0.139  0.3772 -0.6872 -0.9226
 7285TIP3    H121819   0.133   3.379   0.127  0.3128 -0.3773 -2.4773
 7285TIP3    H221820   0.184   3.511   0.074  0.8539  0.5591  0.1812
 7286TIP3   OH221821   0.517   6.483   3.599 -0.1137 -0.1681  0.4557
 7286TIP3    H121822   0.540   6.440   3.682 -1.5158 -2.6272 -0.3382
 7286TIP3    H221823   0.512   6.412   3.535 -0.2090  1.5146 -1.5147
 7287TIP3   OH221824   4.949   0.932   1.249 -0.1653  0.7306  0.0887
 7287TIP3    H121825   4.947   1.028   1.246  0.5744  0.7358 -0.3551
 7287TIP3    H221826   4.920   0.905   1.162  0.5248  0.5701 -0.0964
 7288TIP3   OH221827   6.804   4.035   0.317  0.5843  0.5568  0.1112
 7288TIP3    H121828   6.860   4.067   0.387 -0.6127 -1.0286  1.9054
 7288TIP3    H221829   6.841   4.073   0.237  2.9280  1.2042  1.4094
 7289TIP3   OH221830   7.109   1.803   2.598 -0.2459  0.0209 -0.1849
 7289TIP3    H121831   7.134   1.874   2.539 -2.2302  1.4433  0.5782
 7289TIP3    H221832   7.191   1.758   2.618  0.9868  1.7118 -1.1988
 7290TIP3   OH221833   0.726   5.644   4.113 -0.4094 -0.1948 -0.0655
 7290TIP3    H121834   0.693   5.616   4.028 -0.1266 -0.3564 -0.1220
 7290TIP3    H221835   0.816   5.612   4.116 -0.2476  0.2584  0.0812
 7291TIP3   OH221836   6.339   3.435   5.002 -0.2779  0.3977 -0.4769
 7291TIP3    H121837   6.350   3.504   5.068 -0.9950  1.0088 -0.9743
 7291TIP3    H221838   6.310   3.482   4.923 -0.3103 -0.4242 -0.9638
 7292TIP3   OH221839   5.499   4.219   3.243  0.3895 -0.2548  0.5841
 7292TIP3    H121840   5.493   4.262   3.157 -0.3436 -2.1487 -0.3834
 7292TIP3    H221841   5.592   4.220   3.264  0.5416  0.4982 -0.1014
 7293TIP3   OH221842   3.756   5.101   3.512 -0.1368 -0.1353  0.0479
 7293TIP3    H121843   3.665   5.073   3.521 -0.2235 -0.1809 -0.8548
 7293TIP3    H221844   3.754   5.167   3.443  0.5286 -0.2377 -0.0798
 7294TIP3   OH221845   6.687   5.546   2.024  0.0366  0.0139  0.1464
 7294TIP3    H121846   6.758   5.523   1.965  0.2509 -1.6120  0.9731
 7294TIP3    H221847   6.721   5.526   2.112 -0.9967  0.3820  0.6536
 7295TIP3   OH221848   1.048   1.012   3.454  0.3561  0.0756 -0.1513
 7295TIP3    H121849   1.064   0.987   3.363  1.2543 -0.1602  0.0658
 7295TIP3    H221850   1.054   0.930   3.503 -0.5430  0.1369  0.0769
 7296TIP3   OH221851   3.388   1.803   3.176 -0.7509 -0.4626  0.6815
 7296TIP3    H121852   3.371   1.739   3.244 -0.8220  1.2521  2.3618
 7296TIP3    H221853   3.472   1.843   3.200  0.4219 -1.4085 -1.5636
 7297TIP3   OH221854   6.404   0.404   5.569 -0.2432 -0.5114 -0.3217
 7297TIP3    H121855   6.459   0.353   5.509 -0.9133 -2.7171  0.8633
 7297TIP3    H221856   6.439   0.385   5.656 -0.6884  0.8736  0.1854
 7298TIP3   OH221857   1.601   3.575   0.235 -0.8788 -0.5666  0.0497
 7298TIP3    H121858   1.523   3.626   0.212 -0.8799 -0.4758  0.2608
 7298TIP3    H221859   1.668   3.640   0.256 -1.1136 -0.6495  1.1140
 7299TIP3   OH221860   0.335   6.215   5.701 -0.5139  0.2040  0.1466
 7299TIP3    H121861   0.260   6.155   5.702 -2.3821  2.3935 -0.1287
 7299TIP3    H221862   0.377   6.202   5.786 -1.0425 -1.2313  0.2273
 7300TIP3   OH221863   2.726   5.286   2.692 -0.2105  0.4463  0.3689
 7300TIP3    H121864   2.783   5.305   2.766  1.1619  1.1647 -0.8359
 7300TIP3    H221865   2.718   5.369   2.646  0.9717 -0.4826 -1.6426
 7301TIP3   OH221866   1.232   4.255   1.449 -0.9510 -0.1747  0.2092
 7301TIP3    H121867   1.249   4.274   1.356  0.2393  0.5430  0.5409
 7301TIP3    H221868   1.205   4.164   1.451  1.2220 -0.9093 -0.6427
 7302TIP3   OH221869   5.324   0.428   2.495  0.1607  0.2772 -0.1401
 7302TIP3    H121870   5.317   0.524   2.494  1.5516  0.4246  1.1714
 7302TIP3    H221871   5.363   0.407   2.410 -0.2872  0.8530 -0.5015
 7303TIP3   OH221872   0.935   4.385   1.655 -0.1064 -0.6792  0.1869
 7303TIP3    H121873   0.981   4.308   1.687 -0.1483 -0.9045 -0.2909
 7303TIP3    H221874   0.860   4.350   1.607  2.1670 -0.6115 -3.8839
 7304TIP3   OH221875   6.837   3.164   0.080 -0.2549 -0.1801 -0.6525
 7304TIP3    H121876   6.882   3.231   0.132 -1.0436  1.5876 -2.1467
 7304TIP3    H221877   6.905   3.130   0.022 -0.1038  0.1607 -0.6798
 7305TIP3   OH221878   5.612   0.999   1.180  0.2482  0.4054 -0.0215
 7305TIP3    H121879   5.598   0.968   1.269 -0.8033  1.3225  0.1509
 7305TIP3    H221880   5.575   0.930   1.124 -1.6942  1.0641  0.3505
 7306TIP3   OH221881   4.411   1.220   3.101  0.5043  0.1396 -0.0873
 7306TIP3    H121882   4.501   1.190   3.114  0.5505  0.2261 -0.2119
 7306TIP3    H221883   4.388   1.191   3.013  0.8218  1.1591 -0.5178
 7307TIP3   OH221884   4.359   5.290   3.362  0.0264  0.0695  0.3760
 7307TIP3    H121885   4.448   5.259   3.350  0.4077  0.6923  1.4443
 7307TIP3    H221886   4.368   5.384   3.376 -0.8969  0.3106 -0.5246
 7308TIP3   OH221887   1.772   2.873   2.524 -0.0110  0.2891 -0.8069
 7308TIP3    H121888   1.835   2.920   2.579  0.0702 -0.3698 -0.3196
 7308TIP3    H221889   1.801   2.889   2.434  0.9303 -0.1041 -0.5864
 7309TIP3   OH221890   3.931   6.118   3.553 -0.6039 -0.8267  0.7018
 7309TIP3    H121891   3.862   6.094   3.491 -0.0330 -0.9347  0.0926
 7309TIP3    H221892   3.927   6.214   3.557 -1.2624 -0.8767  1.2279
 7310TIP3   OH221893   3.317   2.928   4.552 -0.1544  0.0169  0.0079
 7310TIP3    H121894   3.409   2.914   4.528  0.0778 -0.0363  0.8932
 7310TIP3    H221895   3.307   3.023   4.556  0.3851  0.0457  1.7404
 7311TIP3   OH221896   0.995   5.465   2.516 -0.1700  0.0171  0.0871
 7311TIP3    H121897   0.932   5.497   2.581 -1.3027 -0.6661 -0.6223
 7311TIP3    H221898   0.953   5.486   2.432 -1.2969 -3.7097 -0.4561
 7312TIP3   OH221899   1.901   5.016   0.202 -0.6000 -0.5274  0.6081
 7312TIP3    H121900   1.829   5.069   0.237  0.1590  0.8278  0.2023
 7312TIP3    H221901   1.861   4.932   0.181 -1.5530 -0.6411  2.6373
 7313TIP3   OH221902   1.855   4.925   2.807  0.3576 -0.3252  0.4988
 7313TIP3    H121903   1.908   4.847   2.827  0.3967  0.0470  1.9580
 7313TIP3    H221904   1.770   4.890   2.780  0.4870 -0.8905  0.8073
 7314TIP3   OH221905   4.477   2.106   4.684 -0.0409  0.0439  0.9311
 7314TIP3    H121906   4.387   2.130   4.662  0.6984  1.8107 -0.4138
 7314TIP3    H221907   4.517   2.083   4.600  1.4217  1.7080  1.1266
 7315TIP3   OH221908   4.269   4.576   3.146  0.0233 -0.1787 -0.2312
 7315TIP3    H121909   4.295   4.488   3.121 -0.0584  0.0532 -1.1698
 7315TIP3    H221910   4.335   4.633   3.107 -0.3549  0.2243 -0.2952
 7316TIP3   OH221911   7.108   3.953   3.935 -0.2231  0.0831 -0.1261
 7316TIP3    H121912   7.193   3.967   3.891  0.0007 -0.3551  0.1599
 7316TIP3    H221913   7.062   3.891   3.879 -0.0211 -0.3150  0.1453
 7317TIP3   OH221914   2.226   4.871   0.843  0.1058 -0.1304  0.2449
 7317TIP3    H121915   2.142   4.881   0.888 -0.2351  1.4780 -0.6504
 7317TIP3    H221916   2.291   4.900   0.907 -0.0659 -0.8446  0.7505
 7318TIP3   OH221917   4.041   3.763   5.295 -0.5991 -0.5779 -0.3632
 7318TIP3    H121918   4.044   3.766   5.391 -1.1096  0.2198 -0.3598
 7318TIP3    H221919   4.001   3.847   5.270 -3.1602 -1.9517 -1.1592
 7319TIP3   OH221920   6.813   6.767   4.841  0.6272 -0.2795 -0.4757
 7319TIP3    H121921   6.728   6.812   4.840  0.0531 -1.2828  0.6477
 7319TIP3    H221922   6.809   6.707   4.767 -0.3244 -1.4738  0.5059
 7320TIP3   OH221923   4.294   6.578   3.994  0.1284  0.0944  0.1160
 7320TIP3    H121924   4.349   6.591   3.917 -0.6276  0.0205 -0.4519
 7320TIP3    H221925   4.283   6.484   4.001  0.5751  0.0716  0.6017
 7321TIP3   OH221926   5.667   2.642   5.472 -0.0788  0.1135  0.9260
 7321TIP3    H121927   5.640   2.582   5.542 -1.4702  1.9298  2.0376
 7321TIP3    H221928   5.590   2.652   5.417  1.1517 -1.7219 -1.3260
 7322TIP3   OH221929   0.384   6.757   5.651 -0.1695 -0.3914  0.3302
 7322TIP3    H121930   0.402   6.812   5.727  0.8560 -0.9037  0.4718
 7322TIP3    H221931   0.339   6.680   5.688 -2.0200  0.5021  0.0790
 7323TIP3   OH221932   5.095   6.017   3.384  0.7382 -0.2783  0.0641
 7323TIP3    H121933   5.026   6.084   3.387  1.5589  0.6120 -0.5646
 7323TIP3    H221934   5.048   5.936   3.363 -0.1784  0.2145  0.1382
 7324TIP3   OH221935   0.425   3.945   0.153  0.5917 -0.0616  0.3887
 7324TIP3    H121936   0.482   3.923   0.080  0.0610 -0.3937  0.0638
 7324TIP3    H221937   0.367   3.869   0.162 -1.2491  1.1306 -0.7132
 7325TIP3   OH221938   5.631   0.777   3.802 -0.1419  0.6616 -0.2641
 7325TIP3    H121939   5.621   0.704   3.863  0.5790 -0.2116 -1.1612
 7325TIP3    H221940   5.587   0.850   3.845 -2.2825 -0.6812 -0.0410
 7326TIP3   OH221941   2.575   1.859   2.278 -0.1096  0.5449 -0.6907
 7326TIP3    H121942   2.566   1.808   2.359 -0.1699  0.2811 -0.8630
 7326TIP3    H221943   2.523   1.937   2.294 -0.5787  0.2374 -0.6826
 7327TIP3   OH221944   6.577   5.377   2.456  0.3967  0.0981 -0.1462
 7327TIP3    H121945   6.671   5.366   2.468  0.2461 -0.0240  1.0441
 7327TIP3    H221946   6.549   5.298   2.409  0.7834 -0.1896  0.1040
 7328TIP3   OH221947   5.832   4.977   2.386  0.7763 -0.3667 -0.1422
 7328TIP3    H121948   5.883   4.943   2.312  1.5567 -0.9663  0.6610
 7328TIP3    H221949   5.774   4.904   2.409  0.6008 -0.2120 -0.0961
 7329TIP3   OH221950   6.728   4.425   2.759  0.1766 -0.1225 -0.1668
 7329TIP3    H121951   6.688   4.408   2.673  0.9966 -0.6278 -0.4526
 7329TIP3    H221952   6.751   4.339   2.793 -0.2286  0.0674  0.6193
 7330TIP3   OH221953   4.071   5.584   2.189  0.0635  0.1250 -0.3016
 7330TIP3    H121954   4.028   5.532   2.257 -0.5157  0.7998 -0.1337
 7330TIP3    H221955   4.012   5.659   2.176  0.5182  0.3602 -1.0504
 7331TIP3   OH221956   4.276   2.976   1.527  0.2734  0.5190  0.2980
 7331TIP3    H121957   4.272   2.899   1.584  1.2330 -1.7723 -2.5054
 7331TIP3    H221958   4.185   2.995   1.506 -0.0125  0.5961  1.4987
 7332TIP3   OH221959   5.955   5.569   1.087  0.2256 -0.8951 -0.0167
 7332TIP3    H121960   5.996   5.514   1.154  0.1156  0.5701  1.3080
 7332TIP3    H221961   6.007   5.649   1.085 -1.5458  0.3466  0.5489
 7333TIP3   OH221962   2.464   0.623   0.390  0.2372  0.3669  0.5678
 7333TIP3    H121963   2.558   0.637   0.395  0.6381  0.1963 -3.3601
 7333TIP3    H221964   2.433   0.691   0.329 -1.8143 -0.7753  0.2432
 7334TIP3   OH221965   0.063   0.691   5.552  0.2330 -0.3855  0.0366
 7334TIP3    H121966   0.120   0.615   5.545  1.8860  0.7363  0.7239
 7334TIP3    H221967   0.118   0.765   5.525 -0.6738  0.8415  1.3942
 7335TIP3   OH221968   5.477   3.330   1.931  0.0516  0.5618 -0.4886
 7335TIP3    H121969   5.405   3.393   1.927  0.9028  1.7576  1.5462
 7335TIP3    H221970   5.554   3.382   1.951  0.4914 -1.1960  3.2235
 7336TIP3   OH221971   3.208   4.854   3.689  0.2521 -0.0077  0.2948
 7336TIP3    H121972   3.303   4.852   3.699  0.2495 -3.1559  0.8370
 7336TIP3    H221973   3.175   4.880   3.775  0.5942  0.4933  0.2777
 7337TIP3   OH221974   3.638   0.581   2.095  1.0680  0.5331  0.0453
 7337TIP3    H121975   3.575   0.518   2.062  1.7250  0.4116 -1.0534
 7337TIP3    H221976   3.587   0.660   2.112  0.4841  0.1676  0.0059
 7338TIP3   OH221977   2.217   1.103   2.741  0.0050 -0.2164 -0.0778
 7338TIP3    H121978   2.246   1.016   2.767  1.7054  0.7098  1.3009
 7338TIP3    H221979   2.278   1.129   2.671 -0.1613  0.0735 -0.1177
 7339TIP3   OH221980   6.254   0.432   2.188  0.1102 -1.0042 -0.3993
 7339TIP3    H121981   6.310   0.505   2.211 -1.0332 -0.2871  0.2012
 7339TIP3    H221982   6.231   0.391   2.271  0.7561 -2.0865 -0.7280
 7340TIP3   OH221983   3.845   0.569   0.222 -0.2334  0.4205  0.2237
 7340TIP3    H121984   3.912   0.638   0.218 -0.3460  0.4833 -1.0450
 7340TIP3    H221985   3.797   0.587   0.303  0.6777  0.9367  0.6721
 7341TIP3   OH221986   0.749   2.427   5.142  0.0547 -0.2572 -0.0059
 7341TIP3    H121987   0.657   2.433   5.114  0.5140  2.7995 -1.2433
 7341TIP3    H221988   0.744   2.430   5.238 -1.1265 -0.7999 -0.0207
 7342TIP3   OH221989   1.249   5.509   1.016 -0.0419 -0.4933 -0.4403
 7342TIP3    H121990   1.159   5.500   0.985 -0.1299  0.4693 -0.5026
 7342TIP3    H221991   1.261   5.436   1.077 -0.4457 -1.3614 -1.3809
 7343TIP3   OH221992   2.257   5.203   1.709 -0.2937 -0.0529  0.2787
 7343TIP3    H121993   2.179   5.239   1.667  0.1795  0.3941 -0.2335
 7343TIP3    H221994   2.225   5.169   1.793 -0.5751  2.7675  1.4531
 7344TIP3   OH221995   5.825   0.258   0.772 -0.0330  0.1035  0.7686
 7344TIP3    H121996   5.756   0.192   0.774 -0.4376  0.4628  3.4856
 7344TIP3    H221997   5.903   0.213   0.805 -0.1608  0.7771  2.0636
 7345TIP3   OH221998   3.668   5.591   0.214 -0.1264  0.0958 -0.2777
 7345TIP3    H121999   3.704   5.503   0.222  0.6513  0.3613 -0.6883
 7345TIP3    H222000   3.726   5.645   0.269  0.4031  0.6084 -1.3047
 7346TIP3   OH222001   1.942   4.061   5.030 -0.2003 -0.5705 -0.0286
 7346TIP3    H122002   1.848   4.040   5.029  0.1157 -2.1550 -1.1618
 7346TIP3    H222003   1.959   4.096   4.943  0.0259  1.0160  0.6313
 7347TIP3   OH222004   6.426   6.420   0.564 -0.5104 -0.1319 -0.4155
 7347TIP3    H122005   6.520   6.413   0.580 -0.2189  0.2484 -1.8231
 7347TIP3    H222006   6.404   6.510   0.590 -0.6507 -0.4531  0.6200
 7348TIP3   OH222007   5.861   4.829   1.652 -0.5629 -0.3956 -0.1042
 7348TIP3    H122008   5.903   4.763   1.706  0.6988  1.2725  1.0653
 7348TIP3    H222009   5.903   4.911   1.678 -2.8793  1.0486 -0.6284
 7349TIP3   OH222010   3.459   3.307   2.100  0.0364  0.2603  0.7942
 7349TIP3    H122011   3.379   3.260   2.126  0.9703 -1.1457  1.2380
 7349TIP3    H222012   3.510   3.242   2.052  0.8550  1.1852  0.3821
 7350TIP3   OH222013   6.526   5.464   5.486 -0.3298 -0.3620  1.6193
 7350TIP3    H122014   6.455   5.407   5.457 -0.1487 -0.0489  0.5108
 7350TIP3    H222015   6.563   5.419   5.562 -0.2852 -1.6650  0.8655
 7351TIP3   OH222016   6.493   5.412   3.891  0.1264  0.4772 -0.1104
 7351TIP3    H122017   6.439   5.491   3.883  1.2730  1.3348  0.4276
 7351TIP3    H222018   6.475   5.379   3.979 -0.0209  0.3757 -0.1772
 7352TIP3   OH222019   2.880   5.994   3.965  0.1679 -0.6493 -0.4714
 7352TIP3    H122020   2.851   5.952   4.045 -0.3759 -0.9152 -0.8039
 7352TIP3    H222021   2.969   5.963   3.952  1.8083  2.3787  2.1106
 7353TIP3   OH222022   3.542   1.013   3.748 -0.4150  0.0153 -0.3862
 7353TIP3    H122023   3.586   0.936   3.711  0.1301  0.3356 -0.4185
 7353TIP3    H222024   3.565   1.011   3.841  1.4568  1.3378 -0.7599
 7354TIP3   OH222025   3.864   1.228   5.140  0.1191 -0.6233 -0.4506
 7354TIP3    H122026   3.922   1.280   5.195 -0.8375  0.5879 -0.5597
 7354TIP3    H222027   3.920   1.201   5.066  0.8065 -0.3508 -0.0400
 7355TIP3   OH222028   1.042   0.219   4.674  0.7166 -0.1840  0.0557
 7355TIP3    H122029   1.136   0.214   4.694  1.1851  0.0609 -1.8565
 7355TIP3    H222030   1.018   0.131   4.647  0.7903  0.0557 -0.8650
 7356TIP3   OH222031   6.629   2.044   3.400  0.1986  0.2167  0.6941
 7356TIP3    H122032   6.607   2.017   3.311  0.6199  0.3814  0.5396
 7356TIP3    H222033   6.545   2.069   3.439  0.2986  2.6808 -0.5022
 7357TIP3   OH222034   5.194   4.830   3.931 -0.4899 -0.5580  0.1111
 7357TIP3    H122035   5.155   4.887   3.997 -1.5951 -2.2420  0.9804
 7357TIP3    H222036   5.120   4.788   3.887  0.2488 -2.7322  0.8086
 7358TIP3   OH222037   6.246   1.044   0.397 -0.8835  0.2582  0.2220
 7358TIP3    H122038   6.292   1.110   0.451  1.1086 -0.5024 -0.4547
 7358TIP3    H222039   6.160   1.035   0.439 -0.9832  2.7679  0.7353
 7359TIP3   OH222040   0.324   1.444   0.615  1.0510  0.2396 -0.2583
 7359TIP3    H122041   0.273   1.371   0.649  1.7290  0.0736  0.4437
 7359TIP3    H222042   0.356   1.414   0.530  0.7941 -0.0327 -0.2595
 7360TIP3   OH222043   3.810   5.075   4.796  0.2201  0.2305  0.3758
 7360TIP3    H122044   3.763   5.022   4.732  0.6529  0.2565  0.0344
 7360TIP3    H222045   3.871   5.014   4.837 -1.0224 -0.1266  1.7734
 7361TIP3   OH222046   6.615   2.600   1.818 -0.1177  0.2050 -0.0115
 7361TIP3    H122047   6.659   2.516   1.824 -0.4409  0.1096  1.3619
 7361TIP3    H222048   6.559   2.604   1.896 -2.4727  0.3652 -1.5950
 7362TIP3   OH222049   3.150   4.475   3.395  0.1111 -0.2701 -0.1813
 7362TIP3    H122050   3.063   4.512   3.411 -0.1762 -0.4138 -1.3646
 7362TIP3    H222051   3.169   4.426   3.475 -1.5940 -1.5638 -0.5039
 7363TIP3   OH222052   0.266   0.088   4.709 -0.0747 -0.2197 -0.0294
 7363TIP3    H122053   0.354   0.062   4.735 -0.7484 -0.7227  1.9086
 7363TIP3    H222054   0.233   0.139   4.783 -0.9914  0.9997 -1.2291
 7364TIP3   OH222055   6.388   3.945   4.939  0.1482 -0.2886 -0.5854
 7364TIP3    H122056   6.419   3.920   5.026 -1.3774  0.0864  0.1026
 7364TIP3    H222057   6.301   3.905   4.933  0.6166 -1.1391 -2.3464
 7365TIP3   OH222058   3.204   3.808   4.629 -0.5741 -0.0685 -0.8421
 7365TIP3    H122059   3.169   3.755   4.558 -0.7322 -1.0870 -0.0303
 7365TIP3    H222060   3.130   3.861   4.659 -0.5102  0.3488 -1.4179
 7366TIP3   OH222061   0.999   5.478   5.368  0.1080  0.0839 -0.2766
 7366TIP3    H122062   0.972   5.540   5.436 -1.2387 -0.8289  0.0698
 7366TIP3    H222063   0.920   5.465   5.315  1.2855  1.2602 -2.4675
 7367TIP3   OH222064   6.901   3.846   2.587  0.0473 -0.6212 -0.1006
 7367TIP3    H122065   6.908   3.828   2.681 -3.2622  2.0440  0.8528
 7367TIP3    H222066   6.865   3.765   2.550 -0.5229 -1.0428  1.2973
 7368TIP3   OH222067   6.806   4.160   2.606 -0.0497 -0.1993 -0.3857
 7368TIP3    H122068   6.819   4.068   2.581  0.7110  0.1337 -1.2485
 7368TIP3    H222069   6.867   4.174   2.678 -0.2170 -0.3720 -0.2038
 7369TIP3   OH222070   7.051   3.631   2.914  0.2333 -0.2148  0.2306
 7369TIP3    H122071   6.958   3.647   2.901  0.2531 -1.2906 -1.5844
 7369TIP3    H222072   7.059   3.606   3.006 -1.3815 -0.7939  0.2391
 7370TIP3   OH222073   2.926   3.347   2.371  0.1125  0.1271  0.4066
 7370TIP3    H122074   2.849   3.400   2.350 -0.0781  0.0950  1.0029
 7370TIP3    H222075   2.972   3.398   2.437 -0.3201 -0.6617  1.3415
 7371TIP3   OH222076   3.855   4.701   4.252  0.3013 -0.6014 -0.0129
 7371TIP3    H122077   3.798   4.624   4.249  0.1530 -0.4694 -0.7583
 7371TIP3    H222078   3.866   4.719   4.346  0.0993 -1.3491  0.1619
 7372TIP3   OH222079   4.548   3.389   5.044  0.0826 -0.1670 -0.1751
 7372TIP3    H122080   4.640   3.414   5.050 -0.3087  1.2145  0.3647
 7372TIP3    H222081   4.513   3.445   4.975 -0.7038  0.4477  0.7068
 7373TIP3   OH222082   0.940   4.679  -0.010 -0.0080 -0.0080 -0.5388
 7373TIP3    H122083   0.984   4.643   0.066 -1.6665 -0.7288  0.1436
 7373TIP3    H222084   0.854   4.636  -0.010 -0.3206  0.5161 -2.4008
 7374TIP3   OH222085   1.322   4.101   2.093 -0.1865  0.2451 -0.6821
 7374TIP3    H122086   1.294   4.106   2.002  2.7988  1.5044 -1.6381
 7374TIP3    H222087   1.399   4.045   2.093  1.7798  2.7183  0.4113
 7375TIP3   OH222088   3.999   2.790   0.634  0.2763 -0.0804  0.0566
 7375TIP3    H122089   4.023   2.697   0.638 -0.9014 -0.3632  1.1955
 7375TIP3    H222090   3.922   2.797   0.691  1.8400  2.0604  2.1273
 7376TIP3   OH222091   1.675   3.020   5.787 -0.2068 -0.0781 -0.0058
 7376TIP3    H122092   1.676   2.924   5.787  2.2662 -0.1145 -0.6127
 7376TIP3    H222093   1.734   3.045   5.858 -3.1805  1.1475  2.2843
 7377TIP3   OH222094   2.421   3.221   0.408  0.6213 -0.5087  0.3925
 7377TIP3    H122095   2.441   3.128   0.418  0.8963 -0.5793 -0.7424
 7377TIP3    H222096   2.484   3.253   0.344  0.0341  0.2872  0.1921
 7378TIP3   OH222097   1.373   5.584   3.312  0.6219  0.5295  0.0671
 7378TIP3    H122098   1.408   5.625   3.392 -0.9696  0.1338  1.0059
 7378TIP3    H222099   1.282   5.563   3.334  0.0690  0.6288 -1.9452
 7379TIP3   OH222100   1.358   5.351   5.472 -0.4316 -0.0244 -0.4965
 7379TIP3    H122101   1.308   5.330   5.551  0.5909 -1.2449 -0.1428
 7379TIP3    H222102   1.337   5.281   5.410 -1.3081  0.9766 -1.3847
 7380TIP3   OH222103   4.356   6.143   5.105 -0.6373 -0.0794  0.3437
 7380TIP3    H122104   4.282   6.172   5.053  0.1371  1.5889  0.1409
 7380TIP3    H222105   4.347   6.189   5.189  0.5535  0.7332  0.0537
 7381TIP3   OH222106   1.609   1.136   1.626 -0.0967 -0.4129 -0.6530
 7381TIP3    H122107   1.592   1.194   1.700 -1.2303 -1.6115  0.0646
 7381TIP3    H222108   1.692   1.167   1.590 -0.2291  1.0811  0.2378
 7382TIP3   OH222109   1.933   0.441   0.046  0.2211 -0.1719  0.0765
 7382TIP3    H122110   1.986   0.497  -0.010  1.5044  0.0058  1.4186
 7382TIP3    H222111   1.912   0.365  -0.008 -1.5269  1.5037 -1.7740
 7383TIP3   OH222112   0.665   0.863   5.744 -0.0903 -0.0386  0.5381
 7383TIP3    H122113   0.726   0.910   5.801  0.1726 -0.4596  0.6059
 7383TIP3    H222114   0.606   0.931   5.711  0.9551  0.5284 -0.2271
 7384TIP3   OH222115   7.147   0.700   2.384  0.0520 -0.2725  0.1699
 7384TIP3    H122116   7.172   0.707   2.476  1.8451  0.0181 -0.2967
 7384TIP3    H222117   7.149   0.607   2.366  2.3867 -0.2125 -0.2032
 7385TIP3   OH222118   3.147   0.787   2.221 -0.2438 -0.1848  0.1710
 7385TIP3    H122119   3.103   0.802   2.305  0.1010  0.9706  0.1604
 7385TIP3    H222120   3.094   0.719   2.178 -0.5672 -0.6075  1.2067
 7386TIP3   OH222121   7.220   1.737   1.266 -0.1214 -0.2335  0.5971
 7386TIP3    H122122   7.160   1.763   1.336 -0.4393 -1.1949  0.6965
 7386TIP3    H222123   7.225   1.813   1.209 -1.7838 -0.2697  0.3564
 7387TIP3   OH222124   0.739   0.076   1.608  0.1532 -0.2779 -0.3823
 7387TIP3    H122125   0.674   0.125   1.558 -0.7267 -0.1536  0.8449
 7387TIP3    H222126   0.720   0.096   1.700  0.8302 -1.6040  0.0822
 7388TIP3   OH222127   5.302   4.262   1.498 -0.2248 -0.0408 -0.5850
 7388TIP3    H122128   5.306   4.191   1.433 -0.8262 -0.1238 -0.5442
 7388TIP3    H222129   5.318   4.218   1.582 -3.6300 -0.7691 -0.1495
 7389TIP3   OH222130   4.731   4.569   1.353  0.1464  0.1513 -0.0561
 7389TIP3    H122131   4.642   4.575   1.319  0.1725 -0.1739 -0.1918
 7389TIP3    H222132   4.744   4.649   1.403 -0.2527  0.1596  0.0335
 7390TIP3   OH222133   4.573   3.900   2.789 -0.2595 -0.0169 -0.0056
 7390TIP3    H122134   4.598   3.875   2.700  0.9730  0.9546  0.0573
 7390TIP3    H222135   4.551   3.993   2.783  1.5118  0.5143  1.0002
 7391TIP3   OH222136   0.532   5.920   5.524  0.4064  0.7850  0.3800
 7391TIP3    H122137   0.521   6.015   5.526 -0.6585  0.7158  3.2286
 7391TIP3    H222138   0.596   5.904   5.455 -1.4009  3.3088 -2.0944
 7392TIP3   OH222139   1.827   0.792   1.842 -0.7017 -0.3211 -0.4255
 7392TIP3    H122140   1.817   0.760   1.932 -2.1190  0.1154 -0.3994
 7392TIP3    H222141   1.909   0.840   1.842 -0.1310 -1.2713  0.3453
 7393TIP3   OH222142   0.373   1.282   5.368 -0.3739  0.0923  0.3103
 7393TIP3    H122143   0.443   1.344   5.387 -0.2104  0.2973 -0.9031
 7393TIP3    H222144   0.418   1.203   5.340 -0.5988 -0.3638  1.1941
 7394TIP3   OH222145   6.728   1.213   5.286 -0.4510 -0.1649 -0.8493
 7394TIP3    H122146   6.803   1.188   5.232  1.3048  0.4996  1.1573
 7394TIP3    H222147   6.681   1.278   5.233  1.1698  0.4306 -1.6208
 7395TIP3   OH222148   1.758   3.921   2.170  0.6147  0.4221 -0.3192
 7395TIP3    H122149   1.798   3.877   2.095 -0.6235 -2.8600  0.7717
 7395TIP3    H222150   1.664   3.917   2.153  0.4048  2.5823 -0.0184
 7396TIP3   OH222151   1.263   5.657   4.509  0.5271  0.0800  0.5657
 7396TIP3    H122152   1.187   5.690   4.556  0.4316  0.5832  0.0629
 7396TIP3    H222153   1.304   5.594   4.569 -0.4810 -0.4547  0.7022
 7397TIP3   OH222154   7.046   4.442   3.837 -0.5506 -0.0382 -0.0292
 7397TIP3    H122155   7.047   4.493   3.917 -0.6283  1.1458 -0.7585
 7397TIP3    H222156   7.123   4.385   3.843  0.6530  1.5065 -0.0180
 7398TIP3   OH222157   3.811   1.125   5.829  0.5116 -0.6343  0.5735
 7398TIP3    H122158   3.717   1.138   5.820  0.3418 -1.9145  0.3544
 7398TIP3    H222159   3.829   1.044   5.781  1.8789  0.0862 -0.2191
 7399TIP3   OH222160   6.795   2.893   5.714  0.2757  0.0586 -0.4859
 7399TIP3    H122161   6.729   2.824   5.719  0.6381 -0.4775 -2.3252
 7399TIP3    H222162   6.747   2.975   5.726 -0.3021 -0.4546  0.7803
 7400TIP3   OH222163   0.722   2.910   5.176 -0.0015  0.2192 -0.2712
 7400TIP3    H122164   0.803   2.960   5.176 -0.5405  1.1387  0.7855
 7400TIP3    H222165   0.658   2.968   5.217 -0.7975 -1.1137  0.4263
 7401TIP3   OH222166   4.994   1.850   5.326  0.2664 -0.1321 -0.2188
 7401TIP3    H122167   5.066   1.871   5.266  0.2680  1.1679  0.1963
 7401TIP3    H222168   4.978   1.932   5.373 -0.3890 -0.8525  0.8616
 7402TIP3   OH222169   6.491   2.115   2.173 -0.3967 -0.1500 -0.6450
 7402TIP3    H122170   6.452   2.116   2.086 -1.1358 -0.0383 -0.3243
 7402TIP3    H222171   6.556   2.045   2.170 -2.8705 -2.6472 -0.2668
 7403TIP3   OH222172   7.119   6.549   3.941 -0.3417  0.3458  0.0019
 7403TIP3    H122173   7.079   6.635   3.952  1.2376  1.1418 -0.2170
 7403TIP3    H222174   7.046   6.492   3.914 -1.0781  2.0525 -1.8763
 7404TIP3   OH222175   1.403   0.762   5.001 -0.2842  0.4738  0.1561
 7404TIP3    H122176   1.437   0.837   4.952 -0.5517  1.5804  1.5775
 7404TIP3    H222177   1.429   0.779   5.092 -1.0412 -0.7531  0.6292
 7405TIP3   OH222178   3.115   2.181   0.386  0.0438 -0.4241 -0.1783
 7405TIP3    H122179   3.061   2.182   0.465 -1.2012  0.2579 -1.0052
 7405TIP3    H222180   3.164   2.099   0.392  1.4192  0.4650  2.1997
 7406TIP3   OH222181   6.207   3.378   0.775 -0.8390 -0.4466  0.4203
 7406TIP3    H122182   6.196   3.312   0.706  0.3463 -0.9723  0.7163
 7406TIP3    H222183   6.169   3.457   0.737 -0.4355 -0.7837 -0.7550
 7407TIP3   OH222184   5.330   2.908   3.014  0.1187  0.5579  0.0429
 7407TIP3    H122185   5.252   2.945   2.973  0.4702  0.2099 -0.9791
 7407TIP3    H222186   5.400   2.969   2.992  0.4095  0.1017 -0.3217
 7408TIP3   OH222187   1.945   1.706   3.566 -0.0080  0.0872 -0.0210
 7408TIP3    H122188   1.891   1.776   3.528  1.1853  0.8250 -0.3977
 7408TIP3    H222189   2.029   1.748   3.584  0.3398 -0.9598  0.8792
 7409TIP3   OH222190   2.721   2.969   0.154 -0.3870  0.7310  0.6097
 7409TIP3    H122191   2.678   2.903   0.099  0.2347 -0.1444  1.1406
 7409TIP3    H222192   2.738   2.923   0.236  2.0947  0.8555  0.2291
 7410TIP3   OH222193   6.416   3.127   4.410 -0.3552 -0.0140  0.1675
 7410TIP3    H122194   6.488   3.065   4.398  0.1356  0.2010  1.6971
 7410TIP3    H222195   6.338   3.080   4.380  0.0003 -1.3963  1.2696
 7411TIP3   OH222196   3.080   4.639   1.784 -0.1371  0.6452 -0.2571
 7411TIP3    H122197   2.997   4.616   1.828 -0.0056  0.0285 -0.3146
 7411TIP3    H222198   3.130   4.685   1.851 -0.8160  1.6836 -0.4499
 7412TIP3   OH222199   3.451   6.504   3.277  0.6111  0.0872  0.4111
 7412TIP3    H122200   3.489   6.556   3.206 -0.1862  0.0305 -0.0818
 7412TIP3    H222201   3.470   6.553   3.356  2.0860 -0.1782  0.2393
 7413TIP3   OH222202   6.097   2.227   1.261 -0.2642  0.0678  0.0406
 7413TIP3    H122203   6.023   2.186   1.216 -1.3185  2.5510 -0.6535
 7413TIP3    H222204   6.057   2.276   1.332  0.9553 -0.0991  0.8732
 7414TIP3   OH222205   2.492   1.034   0.555  0.3792  0.1571  0.9423
 7414TIP3    H122206   2.399   1.018   0.565  0.6634 -1.3890  1.4838
 7414TIP3    H222207   2.504   1.126   0.578 -0.9274  0.2431  1.3406
 7415TIP3   OH222208   4.300   3.786   4.637  0.0282 -0.4238 -0.3188
 7415TIP3    H122209   4.341   3.741   4.563 -0.5331  0.8738 -1.4568
 7415TIP3    H222210   4.362   3.855   4.661 -0.7985  0.6240 -1.1061
 7416TIP3   OH222211   0.754   1.902   2.621 -0.0977 -0.7038  0.3569
 7416TIP3    H122212   0.790   1.976   2.670  1.2872 -1.4794  0.5746
 7416TIP3    H222213   0.666   1.929   2.597 -0.2301  0.3339  1.8938
 7417TIP3   OH222214   0.036   2.162   3.520  0.4109  0.2268  0.2497
 7417TIP3    H122215   0.006   2.251   3.539  0.7776  0.5119 -0.4831
 7417TIP3    H222216  -0.027   2.128   3.456  1.4543  0.7392 -1.1079
 7418TIP3   OH222217   0.483   6.455   1.976  1.1928 -0.3368  0.4203
 7418TIP3    H122218   0.418   6.393   2.009  0.9367 -0.7911 -0.8903
 7418TIP3    H222219   0.431   6.529   1.944  1.2382 -1.0218 -1.3212
 7419TIP3   OH222220   5.792   1.440   4.634  0.4270 -0.3354 -0.5701
 7419TIP3    H122221   5.843   1.413   4.710  2.8428 -0.5570 -2.1852
 7419TIP3    H222222   5.843   1.509   4.593 -1.5597  0.8356 -1.2058
 7420TIP3   OH222223   6.375   4.140   3.264 -0.6295 -0.8080  0.3054
 7420TIP3    H122224   6.320   4.062   3.262  0.4779 -1.5971 -0.3065
 7420TIP3    H222225   6.325   4.206   3.216 -0.5406 -1.8724 -1.3042
 7421TIP3   OH222226   6.106   6.497   2.030 -0.2814  0.3627 -0.5370
 7421TIP3    H122227   6.188   6.539   2.056 -0.9452  1.1441  0.3542
 7421TIP3    H222228   6.061   6.562   1.976 -1.0687  0.6111  0.3947
 7422TIP3   OH222229   1.476   2.616   1.334  0.1947 -0.5414 -0.3074
 7422TIP3    H122230   1.559   2.645   1.371  0.2292 -0.7361 -0.2293
 7422TIP3    H222231   1.444   2.691   1.286  0.1464 -0.2864  0.1223
 7423TIP3   OH222232   5.498   5.080   3.516  0.1358 -0.0252  0.1982
 7423TIP3    H122233   5.452   5.036   3.587  0.5385 -0.5014  0.1641
 7423TIP3    H222234   5.583   5.104   3.553  0.5402 -0.7184 -0.2689
 7424TIP3   OH222235   4.138   2.692   4.552  0.3159  0.2849 -0.1050
 7424TIP3    H122236   4.104   2.686   4.462  1.7412 -0.8217 -0.6262
 7424TIP3    H222237   4.099   2.616   4.596 -1.5914  1.6685  0.7002
 7425TIP3   OH222238   0.689   0.292   5.827 -0.1212  0.3799  0.4823
 7425TIP3    H122239   0.646   0.212   5.796  1.2466 -0.1296 -0.2183
 7425TIP3    H222240   0.632   0.363   5.797 -0.2453 -0.2420 -0.8542
 7426TIP3   OH222241   2.585   5.256   3.414  0.2646 -0.2725  0.1363
 7426TIP3    H122242   2.512   5.195   3.403 -0.8473  0.9561  0.4831
 7426TIP3    H222243   2.660   5.210   3.377 -0.6245 -1.6687 -0.0093
 7427TIP3   OH222244   4.874   0.741   1.748 -0.1709 -0.5393 -0.1785
 7427TIP3    H122245   4.788   0.779   1.728 -0.4473 -0.9002  0.2900
 7427TIP3    H222246   4.930   0.767   1.675 -0.5192  0.2196 -0.1854
 7428TIP3   OH222247   2.855   2.549   3.752  0.5657  0.0632  0.0653
 7428TIP3    H122248   2.929   2.490   3.740 -0.1440 -0.9299  0.4176
 7428TIP3    H222249   2.804   2.510   3.823 -1.1754 -0.1949 -1.2534
 7429TIP3   OH222250   6.638   3.353   4.750  0.3401 -0.3030 -0.1444
 7429TIP3    H122251   6.635   3.437   4.705 -1.5764  0.8135  1.8655
 7429TIP3    H222252   6.705   3.364   4.818  0.3859 -0.5393 -0.1507
 7430TIP3   OH222253   3.050   0.714   5.209 -0.0000 -0.4022  0.1443
 7430TIP3    H122254   3.070   0.794   5.258  0.7026  0.2789 -1.1966
 7430TIP3    H222255   3.025   0.650   5.276  0.4986  0.6158  1.3368
 7431TIP3   OH222256   5.111   0.508   4.958  0.0823 -0.1457  0.2584
 7431TIP3    H122257   5.093   0.572   5.027  2.5219  1.7839 -0.7409
 7431TIP3    H222258   5.147   0.432   5.003 -2.1697 -0.6018  1.4106
 7432TIP3   OH222259   2.774   6.793   1.711 -0.5615 -0.3717 -0.7855
 7432TIP3    H122260   2.695   6.800   1.658 -0.4508 -0.9048 -1.0328
 7432TIP3    H222261   2.836   6.745   1.655  0.3482  1.0734 -1.0794
 7433TIP3   OH222262   2.593   3.815   2.127 -0.1437  0.0028  0.3918
 7433TIP3    H122263   2.540   3.743   2.161 -0.2243  1.3767  3.5117
 7433TIP3    H222264   2.532   3.866   2.074 -0.4183 -1.4225 -0.7501
 7434TIP3   OH222265   3.581   3.980   2.632 -0.4539 -0.3606  0.2015
 7434TIP3    H122266   3.536   3.983   2.548  0.2791  1.4005 -0.1656
 7434TIP3    H222267   3.601   4.071   2.652  1.7117 -0.9396  1.0062
 7435TIP3   OH222268   3.279   0.622   3.573  0.2648  0.2314 -0.4836
 7435TIP3    H122269   3.335   0.605   3.648 -0.8096 -1.3909  0.0121
 7435TIP3    H222270   3.202   0.567   3.587 -1.0102  1.6125 -1.6374
 7436TIP3   OH222271   0.640   3.654   1.851 -0.7696  0.4283  0.4369
 7436TIP3    H122272   0.694   3.619   1.923 -0.2928  0.7257  0.2275
 7436TIP3    H222273   0.696   3.647   1.774 -0.6926  1.5696  0.3706
 7437TIP3   OH222274   5.413   2.010   0.902 -0.1373  0.1271  0.2750
 7437TIP3    H122275   5.320   2.010   0.922  0.0190 -1.9051  1.2363
 7437TIP3    H222276   5.433   1.920   0.877  1.3065  0.8349 -1.3958
 7438TIP3   OH222277   1.299   5.320   0.004 -0.5147  0.0144 -0.0196
 7438TIP3    H122278   1.235   5.265   0.049 -0.1036 -0.0313  0.5155
 7438TIP3    H222279   1.382   5.274   0.014 -0.1584  0.7359  0.4667
 7439TIP3   OH222280   1.959   2.943   1.457  0.1767 -0.5648  0.4025
 7439TIP3    H122281   1.922   3.020   1.500  0.6514  1.2221 -2.1867
 7439TIP3    H222282   1.884   2.889   1.436 -0.4656  0.5014 -0.1361
 7440TIP3   OH222283   2.417   0.751   1.501 -0.0572  0.1558  0.2016
 7440TIP3    H122284   2.357   0.818   1.467 -1.9724 -1.9064 -0.7217
 7440TIP3    H222285   2.504   0.783   1.476 -0.9647  1.7966 -1.1415
 7441TIP3   OH222286   6.810   4.479   0.877  0.4137 -0.0223  0.0924
 7441TIP3    H122287   6.883   4.431   0.917  1.3815 -0.4273 -2.0100
 7441TIP3    H222288   6.738   4.416   0.874  0.1561  0.1788  1.6122
 7442TIP3   OH222289  -0.006   0.414   3.543 -0.0677 -0.3292  0.3895
 7442TIP3    H122290   0.043   0.402   3.624  0.6297  0.3401  0.0842
 7442TIP3    H222291   0.012   0.504   3.518  0.1768 -0.6892 -0.7928
 7443TIP3   OH222292   3.114   0.823   3.436 -0.4847 -0.6272  0.6500
 7443TIP3    H122293   3.059   0.835   3.513  0.2085  0.7710  0.9735
 7443TIP3    H222294   3.180   0.759   3.464  0.4111  0.6711  1.6166
 7444TIP3   OH222295   2.912   2.066   4.506  0.4251  0.4152 -0.5610
 7444TIP3    H122296   2.990   2.080   4.559 -0.6455  0.9486  0.9348
 7444TIP3    H222297   2.937   1.997   4.444  1.6433 -0.4664  0.8342
 7445TIP3   OH222298   6.303   1.700   5.861 -0.2320  0.3680 -0.4349
 7445TIP3    H122299   6.327   1.763   5.792  1.1898  0.9563  0.5501
 7445TIP3    H222300   6.358   1.623   5.843 -0.5705  0.1424 -0.5164
 7446TIP3   OH222301   6.705   3.656   1.087  0.0978  0.1028 -0.1591
 7446TIP3    H122302   6.762   3.732   1.082 -0.4164  0.4870 -0.2299
 7446TIP3    H222303   6.643   3.676   1.157 -0.3558 -0.0312 -0.5179
 7447TIP3   OH222304   2.946   2.511   1.820  0.3270 -0.1238  0.0230
 7447TIP3    H122305   2.894   2.536   1.896  0.2475 -0.2571  0.0125
 7447TIP3    H222306   2.924   2.419   1.805 -2.9291  0.9449 -2.7809
 7448TIP3   OH222307   3.269   3.401   0.282  0.0696 -0.0184  0.2717
 7448TIP3    H122308   3.346   3.348   0.264  0.9698  0.9785  1.0508
 7448TIP3    H222309   3.204   3.371   0.218  0.9243 -1.2247 -0.0664
 7449TIP3   OH222310   3.014   4.103   2.435  0.2280 -0.5920 -0.1004
 7449TIP3    H122311   3.088   4.158   2.459 -1.8779  2.2948  0.2787
 7449TIP3    H222312   2.955   4.109   2.510 -1.5093 -0.6595 -1.4049
 7450TIP3   OH222313   4.110   3.922   2.780 -0.1679 -0.2340 -0.0609
 7450TIP3    H122314   4.116   3.897   2.688  1.7319 -1.2315  0.2954
 7450TIP3    H222315   4.069   4.009   2.779  3.4765  1.7099 -2.2291
 7451TIP3   OH222316   1.734   0.482   3.401 -0.1138  0.1705 -0.0383
 7451TIP3    H122317   1.742   0.519   3.314 -2.0445 -0.0304 -0.3461
 7451TIP3    H222318   1.717   0.558   3.458 -1.6422  0.0486 -0.2955
 7452TIP3   OH222319   3.347   1.321   4.238 -0.2243 -0.1701 -0.3041
 7452TIP3    H122320   3.304   1.307   4.153  1.2667  0.1776 -1.1629
 7452TIP3    H222321   3.362   1.234   4.272 -2.8822 -0.3052  0.7436
 7453TIP3   OH222322   6.256   0.972   1.838  0.1297  0.0385  0.1399
 7453TIP3    H122323   6.182   0.930   1.881  0.2583 -0.5742 -0.2162
 7453TIP3    H222324   6.217   1.035   1.777 -0.0920 -0.0743  0.1652
 7454TIP3   OH222325   6.996   4.831   3.591 -0.0177  0.5023 -0.4488
 7454TIP3    H122326   6.960   4.770   3.654 -0.0056  0.2113 -0.7213
 7454TIP3    H222327   7.034   4.776   3.522 -1.1764  0.7903 -1.3689
 7455TIP3   OH222328   3.615   6.280   0.186  0.3463 -0.3863  0.4711
 7455TIP3    H122329   3.582   6.349   0.243  2.0346 -1.5440  3.0400
 7455TIP3    H222330   3.674   6.324   0.125  0.1060  0.6538  0.9785
 7456TIP3   OH222331   3.346   1.959   4.866 -0.2528  0.0816  0.1219
 7456TIP3    H122332   3.403   1.911   4.926  0.7000  1.3269  0.2569
 7456TIP3    H222333   3.406   2.003   4.806 -1.0405  1.7704  0.5193
 7457TIP3   OH222334   7.174   1.814   5.858 -0.1548 -0.7466  0.7587
 7457TIP3    H122335   7.173   1.718   5.862  1.0367 -0.8005  0.2446
 7457TIP3    H222336   7.173   1.834   5.764 -0.4513 -0.2482  0.8625
 7458TIP3   OH222337   6.082   1.942   1.827 -0.6600 -0.6581  1.1947
 7458TIP3    H122338   6.136   1.908   1.898  0.2495 -2.1406 -0.1232
 7458TIP3    H222339   6.016   1.874   1.812 -1.1611 -0.1293  0.9489
 7459TIP3   OH222340   1.191   6.382   3.460 -0.1383  0.6870  0.0893
 7459TIP3    H122341   1.212   6.458   3.406  1.2665 -0.1904 -0.6605
 7459TIP3    H222342   1.276   6.346   3.485 -0.7751 -0.2322  1.0203
 7460TIP3   OH222343   3.513   2.501   0.224  0.5864 -0.3740 -0.3797
 7460TIP3    H122344   3.481   2.449   0.297 -0.2499  1.0953  0.3549
 7460TIP3    H222345   3.437   2.552   0.195  1.5703  1.1391 -0.4262
 7461TIP3   OH222346   1.417   2.146   5.486  0.1826  0.0214 -0.2697
 7461TIP3    H122347   1.477   2.220   5.481 -0.9021  0.9221 -0.4048
 7461TIP3    H222348   1.361   2.166   5.561  0.5413 -1.2041  0.3595
 7462TIP3   OH222349   7.174   3.501   3.153 -0.3567  0.0459 -0.7217
 7462TIP3    H122350   7.246   3.564   3.160 -0.1394 -0.2209 -0.5019
 7462TIP3    H222351   7.127   3.508   3.236  0.4422 -0.9925 -0.1474
 7463TIP3   OH222352   5.311   1.389   2.223 -0.1215 -0.1777 -0.0773
 7463TIP3    H122353   5.357   1.366   2.143 -0.0228  0.3853 -0.1849
 7463TIP3    H222354   5.219   1.369   2.205 -0.0474 -0.4177 -0.1910
 7464TIP3   OH222355   4.285   2.397   3.091 -0.1926 -0.0125  0.0628
 7464TIP3    H122356   4.374   2.368   3.073  0.6268  2.0950  0.4338
 7464TIP3    H222357   4.260   2.350   3.170 -0.8073 -3.2454 -1.8339
 7465TIP3   OH222358   5.816   1.197   3.562  0.1441  0.0876 -0.1803
 7465TIP3    H122359   5.842   1.287   3.547 -2.3503  1.0225  0.4928
 7465TIP3    H222360   5.778   1.198   3.650 -1.5322 -1.1794 -0.8379
 7466TIP3   OH222361   5.276   1.451   3.299  0.4816  0.1443 -0.0366
 7466TIP3    H122362   5.243   1.539   3.311 -1.2173 -0.2702 -1.2844
 7466TIP3    H222363   5.268   1.435   3.205 -0.3711 -1.7456  0.3164
 7467TIP3   OH222364   6.103   3.592   0.666  0.0067  0.2606  0.3179
 7467TIP3    H122365   6.010   3.613   0.680 -0.4383 -1.0881 -0.3809
 7467TIP3    H222366   6.133   3.656   0.602  0.2182  2.1501  2.1935
 7468TIP3   OH222367   5.423   2.648   4.827  0.4765 -0.4587  0.0649
 7468TIP3    H122368   5.419   2.571   4.884  1.8599 -0.0658  0.7143
 7468TIP3    H222369   5.361   2.627   4.756  0.3705 -1.9010  0.5396
 7469TIP3   OH222370   1.777   2.056   0.078 -0.4102  0.2620  0.5591
 7469TIP3    H122371   1.836   1.984   0.055 -1.3312 -0.6477  0.9710
 7469TIP3    H222372   1.747   2.091  -0.006  0.1839  0.2980  0.3572
 7470TIP3   OH222373   4.852   0.728   0.359  0.3350  0.7712 -0.0099
 7470TIP3    H122374   4.874   0.821   0.355 -0.0955  0.8451 -0.8755
 7470TIP3    H222375   4.921   0.689   0.413 -1.9995  2.3450  4.6543
 7471TIP3   OH222376   0.780   2.567   2.733  0.3081  0.3894  0.1820
 7471TIP3    H122377   0.780   2.662   2.742  0.3412  0.4113 -0.0585
 7471TIP3    H222378   0.688   2.543   2.722  0.4793  0.6159 -2.1468
 7472TIP3   OH222379   6.635   3.758   0.156  0.5192 -0.0824  0.6837
 7472TIP3    H122380   6.690   3.773   0.079  0.7122  0.1520  0.8649
 7472TIP3    H222381   6.666   3.675   0.192 -0.9674 -1.2783 -0.6808
 7473TIP3   OH222382   1.711   1.123   3.937 -0.1435  0.1486 -0.0457
 7473TIP3    H122383   1.709   1.100   4.030 -0.1209  0.1312 -0.0496
 7473TIP3    H222384   1.633   1.082   3.900  0.6076 -1.0742 -0.3202
 7474TIP3   OH222385   5.517   4.454   1.403  0.0124  0.0417  0.3226
 7474TIP3    H122386   5.586   4.453   1.469 -0.4654  2.6932  0.9725
 7474TIP3    H222387   5.447   4.401   1.442  1.4294 -2.3155 -0.1639
 7475TIP3   OH222388   1.966   2.663   2.029 -0.2091 -0.4518  0.2073
 7475TIP3    H122389   1.924   2.654   2.115 -3.2367  1.8877 -0.8826
 7475TIP3    H222390   2.004   2.751   2.030  3.1210 -1.7376  0.3711
 7476TIP3   OH222391   1.630   5.407   2.213 -0.1125  0.2479  0.1512
 7476TIP3    H122392   1.626   5.499   2.188 -1.3178 -0.2524 -1.6681
 7476TIP3    H222393   1.640   5.359   2.131  1.6708 -1.2312  1.1332
 7477TIP3   OH222394   7.105   4.134   3.030 -0.3184 -0.1140  0.3339
 7477TIP3    H122395   7.012   4.145   3.048 -0.3208  0.1728  0.1457
 7477TIP3    H222396   7.142   4.222   3.037 -0.0507 -0.2352  0.4660
 7478TIP3   OH222397   2.015   5.425   4.396 -0.3571 -0.5966  0.0165
 7478TIP3    H122398   2.008   5.508   4.443 -1.0304 -0.6400  0.0067
 7478TIP3    H222399   2.056   5.365   4.459  0.3908 -0.1866 -0.0765
 7479TIP3   OH222400   6.703   5.702   2.672  0.0617 -0.2146  0.2028
 7479TIP3    H122401   6.614   5.676   2.648 -0.0102 -0.0932  0.3334
 7479TIP3    H222402   6.723   5.774   2.612  0.5256 -1.0118 -0.6304
 7480TIP3   OH222403   2.548   4.091   4.737 -0.0706 -0.3923  0.1254
 7480TIP3    H122404   2.497   4.076   4.657  0.1943  3.1947 -0.8672
 7480TIP3    H222405   2.639   4.097   4.706  0.5073 -2.2360  1.2675
 7481TIP3   OH222406   4.701   4.990   2.009 -0.4116  0.8089 -0.0182
 7481TIP3    H122407   4.614   4.968   1.976  0.3293 -2.3896 -0.1710
 7481TIP3    H222408   4.761   4.952   1.944  1.0815  0.7514  1.3333
 7482TIP3   OH222409   1.085   3.532   3.924 -0.1951  0.0814  0.4342
 7482TIP3    H122410   1.101   3.626   3.932  0.8580 -0.0561  0.1744
 7482TIP3    H222411   1.027   3.510   3.996 -1.1828  1.0892 -0.0291
 7483TIP3   OH222412   7.182   3.491   0.646  0.0905  0.6295  0.1685
 7483TIP3    H122413   7.224   3.408   0.667 -2.1104 -0.4333  0.6131
 7483TIP3    H222414   7.236   3.528   0.576 -0.0688 -2.1968 -1.5692
 7484TIP3   OH222415   0.569   5.090   2.103 -0.3749 -0.0943  0.1177
 7484TIP3    H122416   0.567   5.060   2.194  1.4983 -1.9545 -0.3807
 7484TIP3    H222417   0.506   5.035   2.057 -0.1567 -0.2549  0.0074
 7485TIP3   OH222418   4.285   4.209   1.515  0.1226 -0.5860 -0.0838
 7485TIP3    H122419   4.337   4.131   1.535  2.1375  0.7290  0.0780
 7485TIP3    H222420   4.232   4.223   1.593 -0.7533 -2.1452 -0.3709
 7486TIP3   OH222421   0.708   0.594   1.745 -0.1486  0.1654 -0.1235
 7486TIP3    H122422   0.658   0.526   1.701 -1.0786  1.6332 -1.4734
 7486TIP3    H222423   0.666   0.676   1.717  1.5671  1.3447  0.5879
 7487TIP3   OH222424   1.698   3.717   3.021  0.3132  0.3227 -0.3704
 7487TIP3    H122425   1.699   3.791   2.960  2.3704  0.5062 -0.1690
 7487TIP3    H222426   1.680   3.757   3.106 -0.2208  0.3574 -0.4926
 7488TIP3   OH222427   6.626   1.317   2.133  0.0712 -0.0574 -0.0925
 7488TIP3    H122428   6.652   1.261   2.059  1.6692  0.7558 -0.1809
 7488TIP3    H222429   6.549   1.273   2.170 -0.7617 -0.5048 -2.1992
 7489TIP3   OH222430   2.075   4.185   2.665 -0.1014 -0.0797  0.3256
 7489TIP3    H122431   2.127   4.262   2.691  0.4481 -0.0382 -0.8154
 7489TIP3    H222432   2.111   4.113   2.717  0.7865  0.0507 -0.0828
 7490TIP3   OH222433   0.949   1.252   3.589  0.1478 -0.3440  0.3151
 7490TIP3    H122434   0.901   1.253   3.672 -1.6852 -0.2460 -0.7111
 7490TIP3    H222435   0.970   1.160   3.574  0.0122 -0.4238  0.6148
 7491TIP3   OH222436   5.665   4.168   0.610 -0.4325  0.0043  0.2551
 7491TIP3    H122437   5.668   4.203   0.699 -0.5239  0.7288 -0.0176
 7491TIP3    H222438   5.589   4.110   0.610  1.1003 -2.1409  1.3854
 7492TIP3   OH222439   1.284   1.529   4.995  0.2071  0.2525  0.1261
 7492TIP3    H122440   1.286   1.624   5.004  0.7516  0.1125  1.7179
 7492TIP3    H222441   1.206   1.512   4.942  0.9129  1.6508 -1.4491
 7493TIP3   OH222442   1.568   1.869   2.810  0.2709 -0.6320  0.3296
 7493TIP3    H122443   1.656   1.884   2.844  0.4485 -0.8684 -0.0201
 7493TIP3    H222444   1.551   1.776   2.823  0.6126 -0.8776 -0.8283
 7494TIP3   OH222445   7.001   4.448   1.897  0.4674  0.2284  0.1047
 7494TIP3    H122446   6.973   4.360   1.870 -0.7582  0.9316 -1.0096
 7494TIP3    H222447   6.922   4.488   1.933  0.5708  1.4430 -0.9533
 7495TIP3   OH222448   0.730   3.104   1.189  0.1887 -0.0264 -0.3226
 7495TIP3    H122449   0.823   3.109   1.168  0.6563  0.2959  1.6085
 7495TIP3    H222450   0.712   3.184   1.238 -0.5114 -1.1160  1.3155
 7496TIP3   OH222451   1.499   6.520   2.852 -0.0083 -0.3185  0.7961
 7496TIP3    H122452   1.442   6.558   2.785  0.1553  0.5136  1.1178
 7496TIP3    H222453   1.515   6.592   2.913  2.4681 -0.1359  0.0144
 7497TIP3   OH222454   3.084   2.425   1.436  0.3587 -0.4375 -0.2291
 7497TIP3    H122455   3.023   2.352   1.448 -0.1932 -0.0836 -0.8264
 7497TIP3    H222456   3.029   2.503   1.435  0.8928 -0.0538 -0.0856
 7498TIP3   OH222457   3.324   2.554   3.505 -0.6804 -0.2366  0.0459
 7498TIP3    H122458   3.376   2.600   3.439 -1.0893  1.7209  1.0304
 7498TIP3    H222459   3.262   2.620   3.538 -1.5608 -1.5984  1.2516
 7499TIP3   OH222460   5.807   2.358   0.760 -0.3235  0.2381 -0.2585
 7499TIP3    H122461   5.731   2.355   0.702 -1.0730  1.1802  0.6299
 7499TIP3    H222462   5.797   2.282   0.818 -1.2728  1.0095  0.6387
 7500TIP3   OH222463   3.376   1.826   2.355 -0.0415 -0.2148 -0.2939
 7500TIP3    H122464   3.443   1.893   2.367  0.6384 -0.5138 -2.0620
 7500TIP3    H222465   3.302   1.857   2.407  0.9655  0.8536  0.5579
 7501TIP3   OH222466   4.810   2.176   0.074 -0.2246 -0.0808 -0.5947
 7501TIP3    H122467   4.861   2.096   0.083 -0.4441 -0.4288 -2.1505
 7501TIP3    H222468   4.733   2.150   0.023 -0.6685  0.9670 -0.4983
 7502TIP3   OH222469   5.510   3.159   4.114  0.2004 -0.1892  0.2687
 7502TIP3    H122470   5.537   3.243   4.151  1.0017 -0.3779  0.1461
 7502TIP3    H222471   5.442   3.180   4.051 -0.4130  0.2486  1.0688
 7503TIP3   OH222472   1.766   0.193   1.122  0.1095 -0.2903  0.5281
 7503TIP3    H122473   1.836   0.250   1.091  0.6314 -0.6722  0.9994
 7503TIP3    H222474   1.689   0.250   1.125  0.4654  0.2118  0.3118
 7504TIP3   OH222475   0.595   3.802   5.803 -0.2114  0.3685 -0.2761
 7504TIP3    H122476   0.511   3.823   5.844 -1.1689 -2.4620 -0.6205
 7504TIP3    H222477   0.572   3.765   5.718  1.2144 -2.0563  0.2998
 7505TIP3   OH222478   3.437   6.373   1.470 -0.2090  0.0493  0.3376
 7505TIP3    H122479   3.468   6.390   1.559 -0.6277 -2.4430  1.0392
 7505TIP3    H222480   3.399   6.285   1.475  1.7349 -1.1114 -2.7996
 7506TIP3   OH222481   6.685   2.550   0.591  0.0522  0.1077 -0.4182
 7506TIP3    H122482   6.613   2.494   0.561  0.2848 -0.0053 -0.7692
 7506TIP3    H222483   6.698   2.525   0.682  1.2384 -1.5828 -1.0039
 7507TIP3   OH222484   6.226   0.107   1.537  0.2300 -0.4430 -0.4399
 7507TIP3    H122485   6.191   0.030   1.582 -2.1683  0.1913 -1.0853
 7507TIP3    H222486   6.190   0.101   1.448 -0.5538  1.7127 -0.3203
 7508TIP3   OH222487   2.163   3.795   1.461  0.1475 -0.2010  0.9041
 7508TIP3    H122488   2.213   3.869   1.425  1.2161  0.8834  4.2033
 7508TIP3    H222489   2.074   3.809   1.430  0.8755  0.8084 -0.8821
 7509TIP3   OH222490   3.702   1.671   3.012  0.1158 -0.4236 -0.2203
 7509TIP3    H122491   3.708   1.602   2.946  0.0215 -1.1623  0.5277
 7509TIP3    H222492   3.712   1.625   3.096 -0.2115  0.4345  0.2998
 7510TIP3   OH222493   2.380   0.756   3.378 -0.1122 -0.3301 -0.2497
 7510TIP3    H122494   2.466   0.786   3.406 -0.5692  0.4378  0.3809
 7510TIP3    H222495   2.364   0.803   3.296 -0.3202  0.2360  0.1140
 7511TIP3   OH222496   2.689   5.783   3.466 -0.9426 -0.0934 -0.1169
 7511TIP3    H122497   2.784   5.779   3.460 -1.0090 -0.5614 -0.9604
 7511TIP3    H222498   2.658   5.775   3.375 -1.7575  0.8863  0.0490
 7512TIP3   OH222499   5.634   3.374   4.217  0.2410  0.0111 -0.1048
 7512TIP3    H122500   5.716   3.398   4.261 -0.7363  1.1349  1.1913
 7512TIP3    H222501   5.566   3.417   4.269 -1.3324 -2.2755 -0.1168
 7513TIP3   OH222502   3.502   1.821   5.054  0.3540 -0.5649 -0.9130
 7513TIP3    H122503   3.596   1.839   5.061  0.0732  0.7124 -0.0052
 7513TIP3    H222504   3.475   1.798   5.142 -0.4139  0.3546 -0.8865
 7514TIP3   OH222505   6.366   0.537   4.220  0.0039  0.1927  0.1470
 7514TIP3    H122506   6.452   0.560   4.184  0.8773 -2.8932 -0.0484
 7514TIP3    H222507   6.369   0.566   4.311  2.2259 -1.7679  0.8036
 7515TIP3   OH222508   3.109   0.531   1.708  0.0406 -0.2655  0.1723
 7515TIP3    H122509   3.183   0.565   1.659  0.4001  0.5494  1.2597
 7515TIP3    H222510   3.129   0.438   1.720  0.5957 -0.1773 -0.0477
 7516TIP3   OH222511   0.033   1.981   3.832  0.1064  0.1159  0.2656
 7516TIP3    H122512   0.087   2.035   3.890  0.7818 -0.4445  0.1692
 7516TIP3    H222513  -0.021   1.928   3.890 -0.3361  0.6677  0.3630
 7517TIP3   OH222514   2.051   5.162   5.451  0.5294  0.3563  0.0268
 7517TIP3    H122515   2.089   5.144   5.537  1.0569  0.9587 -0.0751
 7517TIP3    H222516   1.957   5.168   5.468  0.7297  1.8430  0.8352
 7518TIP3   OH222517   4.994   6.773   3.017  0.8189  0.7156  0.5674
 7518TIP3    H122518   5.075   6.752   2.971 -0.0531 -0.1471 -0.6497
 7518TIP3    H222519   4.943   6.824   2.953  0.8410  2.2546  1.7132
 7519TIP3   OH222520   6.091   5.515   1.883  0.0679  0.0780 -0.8590
 7519TIP3    H122521   6.164   5.491   1.940  0.5564  1.3083 -0.9238
 7519TIP3    H222522   6.015   5.475   1.924  0.8379 -1.7061 -1.0960
 7520TIP3   OH222523   4.567   0.668   4.745  0.0914 -0.2964 -0.2139
 7520TIP3    H122524   4.563   0.710   4.831  1.2472 -1.7271  0.5888
 7520TIP3    H222525   4.510   0.592   4.753  2.0241 -1.7740  0.1246
 7521TIP3   OH222526   1.211   3.427   5.393  0.1846  0.5266  0.4783
 7521TIP3    H122527   1.287   3.437   5.450  0.9241  0.2475 -0.4291
 7521TIP3    H222528   1.138   3.463   5.444  0.9024  0.7297  1.3970
 7522TIP3   OH222529   6.399   4.747   2.221  0.3521 -0.1470 -0.0721
 7522TIP3    H122530   6.309   4.758   2.189 -0.1158  0.9378  1.5052
 7522TIP3    H222531   6.450   4.809   2.170  0.0769 -0.2133 -0.4366
 7523TIP3   OH222532   1.591   3.309   5.775 -0.4941  0.0448 -0.7590
 7523TIP3    H122533   1.525   3.305   5.844  0.7550  2.5704  0.7491
 7523TIP3    H222534   1.629   3.221   5.773 -1.1813 -0.3505  1.1483
 7524TIP3   OH222535   6.286   2.268   2.966  0.0726 -0.2034  0.2141
 7524TIP3    H122536   6.323   2.254   3.054  1.6522 -0.3009 -0.4311
 7524TIP3    H222537   6.250   2.357   2.970 -1.0022 -0.6620  1.3201
 7525TIP3   OH222538   0.555   2.153   1.301 -0.5367  0.4182 -0.0675
 7525TIP3    H122539   0.626   2.216   1.317  0.3091  0.0167 -1.9634
 7525TIP3    H222540   0.531   2.167   1.210 -0.8863 -1.4584 -0.3011
 7526TIP3   OH222541   4.187   3.797   1.448 -0.0300  0.4284  0.1433
 7526TIP3    H122542   4.251   3.751   1.502  0.7521 -0.8101 -1.7207
 7526TIP3    H222543   4.115   3.816   1.508  1.8528  1.5113  2.2178
 7527TIP3   OH222544   0.309   3.802   1.743 -0.3805  0.0948  0.6154
 7527TIP3    H122545   0.337   3.826   1.831  0.0419  0.1693  0.4615
 7527TIP3    H222546   0.252   3.726   1.756 -0.5229  0.2600  0.9737
 7528TIP3   OH222547   4.980   0.090   3.261  0.1573 -0.2900  0.3469
 7528TIP3    H122548   4.932   0.009   3.279 -0.2494 -0.5586 -1.7912
 7528TIP3    H222549   5.061   0.061   3.219  0.4642  0.3864  0.4530
 7529TIP3   OH222550   6.920   4.166   3.347  0.0706 -0.5673  0.2634
 7529TIP3    H122551   6.903   4.256   3.319 -0.5806 -1.1415 -1.2848
 7529TIP3    H222552   6.834   4.133   3.375 -0.5791 -1.8672 -2.8091
 7530TIP3   OH222553   1.613   1.278   5.539  0.1543 -0.9691 -0.5028
 7530TIP3    H122554   1.543   1.331   5.500  0.7920  0.5019  0.2703
 7530TIP3    H222555   1.594   1.189   5.511 -1.2323 -0.4053 -1.4672
 7531TIP3   OH222556   5.044   3.413   0.065 -0.4059 -0.0116 -0.4842
 7531TIP3    H122557   5.011   3.388   0.151  1.8387 -1.6645 -0.0274
 7531TIP3    H222558   4.991   3.363   0.003  0.2456 -1.5303  0.1481
 7532TIP3   OH222559   3.848   0.782   2.674  0.0242  0.7414  0.2153
 7532TIP3    H122560   3.929   0.731   2.678 -0.6715 -0.3799  0.4198
 7532TIP3    H222561   3.800   0.744   2.600 -1.2604 -0.0613  1.4298
 7533TIP3   OH222562   6.816   4.179   1.220  0.6370 -0.1019 -0.4304
 7533TIP3    H122563   6.737   4.127   1.208 -0.1000  1.0875 -0.9507
 7533TIP3    H222564   6.804   4.222   1.305  0.3259  0.7073 -0.8701
 7534TIP3   OH222565   6.983   3.240   5.394  0.6517 -0.3706 -0.0432
 7534TIP3    H122566   7.015   3.150   5.386  1.0806 -0.3163  0.9252
 7534TIP3    H222567   6.900   3.232   5.441 -0.1543 -0.3912 -1.4058
 7535TIP3   OH222568   5.139   2.195   0.929  0.2075 -0.2054  0.4976
 7535TIP3    H122569   5.110   2.261   0.866  0.7663 -0.5125 -0.0981
 7535TIP3    H222570   5.182   2.246   0.999  1.0066  0.0478 -0.1603
 7536TIP3   OH222571   2.043   5.668   4.494  0.4360 -0.2482 -0.0011
 7536TIP3    H122572   2.077   5.732   4.432  0.1240 -0.2016 -0.1223
 7536TIP3    H222573   2.102   5.674   4.569 -1.2493  2.2694  1.2540
 7537TIP3   OH222574   5.954   4.953   0.947  0.0322 -0.1022 -0.1432
 7537TIP3    H122575   6.038   4.938   0.903  0.0128 -0.3460 -0.1029
 7537TIP3    H222576   5.973   5.019   1.013  0.1466 -0.0073 -0.2706
 7538TIP3   OH222577   1.377   2.737   3.603 -0.4181  0.0524 -0.2602
 7538TIP3    H122578   1.436   2.804   3.638  0.0798 -0.4843 -0.0439
 7538TIP3    H222579   1.378   2.751   3.508  0.5957 -0.3534 -0.3306
 7539TIP3   OH222580   6.820   1.205   2.971  0.1326  0.5112 -0.2615
 7539TIP3    H122581   6.795   1.297   2.977 -0.0016  0.3812  3.3446
 7539TIP3    H222582   6.737   1.158   2.977  0.3646  0.2006  0.9613
 7540TIP3   OH222583   6.734   5.314   3.041 -0.3170 -0.0941 -0.0294
 7540TIP3    H122584   6.644   5.342   3.061 -0.4993 -1.6576  1.6414
 7540TIP3    H222585   6.747   5.339   2.949 -0.9464  3.9061  0.7904
 7541TIP3   OH222586   7.072   2.000   4.794  0.5226 -0.1196 -0.3484
 7541TIP3    H122587   7.080   1.954   4.711 -0.1860 -0.5588 -0.1750
 7541TIP3    H222588   6.986   1.977   4.827  1.1860 -0.7803  1.0165
 7542TIP3   OH222589   0.907   1.987   5.018  0.2903  0.2308  0.0752
 7542TIP3    H122590   0.891   2.080   5.003 -2.2454 -0.3901 -1.7317
 7542TIP3    H222591   0.968   1.984   5.092  1.9569  3.3286 -1.0267
 7543TIP3   OH222592   2.453   4.708   5.551 -0.3300 -0.2087 -0.2816
 7543TIP3    H122593   2.478   4.657   5.628  0.0025 -0.0145 -0.2574
 7543TIP3    H222594   2.534   4.752   5.525 -0.9590  1.6240  0.6712
 7544TIP3   OH222595   4.145   4.653   1.557 -0.6002 -0.5116 -0.3220
 7544TIP3    H122596   4.230   4.656   1.514  0.5571  1.5543  1.8714
 7544TIP3    H222597   4.113   4.743   1.553 -1.2847 -0.6313  1.3910
 7545TIP3   OH222598   1.679   5.788   4.542 -0.7086  0.0768 -0.5808
 7545TIP3    H122599   1.621   5.859   4.514 -1.4735 -0.6044 -0.7486
 7545TIP3    H222600   1.763   5.832   4.559 -1.4313  1.1869  0.2948
 7546TIP3   OH222601   3.178   5.311   0.284 -0.4261  0.4440 -0.1334
 7546TIP3    H122602   3.273   5.313   0.292 -0.4180  1.4263 -0.4510
 7546TIP3    H222603   3.149   5.393   0.324 -1.2000 -0.1887  0.6580
 7547TIP3   OH222604   2.966   1.827   1.211 -0.0601  0.0778 -0.3924
 7547TIP3    H122605   2.938   1.919   1.217 -0.6428 -0.0323 -1.3062
 7547TIP3    H222606   3.007   1.819   1.125  1.2864 -0.1899  0.2494
 7548TIP3   OH222607   6.295   4.723   0.337 -0.3032  0.5105 -0.7668
 7548TIP3    H122608   6.256   4.770   0.263 -0.8223  0.9426 -0.2207
 7548TIP3    H222609   6.375   4.684   0.300 -1.0278 -0.0630 -1.8043
 7549TIP3   OH222610   3.818   2.626   2.790  0.0518 -0.1750 -0.6983
 7549TIP3    H122611   3.866   2.543   2.784 -0.3494 -0.7498  2.1694
 7549TIP3    H222612   3.875   2.683   2.842 -0.7556  0.4221 -0.4404
 7550TIP3   OH222613   1.657   0.644   5.292 -0.6234 -0.0634 -0.4278
 7550TIP3    H122614   1.718   0.583   5.250 -0.2943 -0.5813  0.7579
 7550TIP3    H222615   1.616   0.593   5.362 -0.5456  1.0053  0.4213
 7551TIP3   OH222616   1.033   5.806   0.868  0.9087 -0.0732 -0.1915
 7551TIP3    H122617   0.966   5.790   0.802 -0.2370 -1.9265  1.3236
 7551TIP3    H222618   1.019   5.897   0.896 -1.1978 -0.5028  0.2945
 7552TIP3   OH222619   6.437   2.116   0.998 -0.1776 -0.4437 -0.1000
 7552TIP3    H122620   6.373   2.077   1.058  0.9066 -1.4428  0.4491
 7552TIP3    H222621   6.479   2.041   0.956 -1.0978  0.2328 -2.3631
 7553TIP3   OH222622   3.694   1.290   3.282 -0.4984  0.2270  0.7706
 7553TIP3    H122623   3.671   1.320   3.370 -0.3881 -0.0443  0.8959
 7553TIP3    H222624   3.653   1.204   3.275 -0.6945  0.3443  0.4705
 7554TIP3   OH222625   2.643   2.255   5.134 -0.0322 -0.5624 -0.2926
 7554TIP3    H122626   2.695   2.332   5.158 -0.2341 -0.9989  1.7314
 7554TIP3    H222627   2.708   2.187   5.116  0.1455  0.0145 -2.0268
 7555TIP3   OH222628   4.873   0.200   4.998 -0.1117  0.2440  0.0562
 7555TIP3    H122629   4.827   0.149   5.065 -1.1969  0.2447 -0.6648
 7555TIP3    H222630   4.966   0.181   5.013 -0.3299  0.2954  1.5881
 7556TIP3   OH222631   5.854   0.134   2.811 -0.0052 -0.0105  0.1115
 7556TIP3    H122632   5.797   0.210   2.805  0.6013  0.3504 -1.9197
 7556TIP3    H222633   5.939   0.170   2.837 -0.1007 -0.2227  0.7331
 7557TIP3   OH222634   7.143   1.711   5.535 -0.0892  0.2166  0.7160
 7557TIP3    H122635   7.122   1.660   5.457 -2.2532  1.8436  0.1647
 7557TIP3    H222636   7.238   1.725   5.530  0.0114 -0.8395 -0.8683
 7558TIP3   OH222637   5.305   5.395   2.063 -0.3090 -0.3741 -0.6370
 7558TIP3    H122638   5.298   5.396   2.159  1.0783 -0.3229 -0.5050
 7558TIP3    H222639   5.308   5.488   2.039 -0.1031 -0.3903 -0.6745
 7559TIP3   OH222640   6.647   5.647   0.192 -0.7266 -0.1774  0.2848
 7559TIP3    H122641   6.619   5.629   0.102  0.2800 -0.5121  0.0174
 7559TIP3    H222642   6.675   5.562   0.226 -1.9798 -0.2177  1.2494
 7560TIP3   OH222643   1.157   0.131   3.948 -0.7508 -0.0206  0.0817
 7560TIP3    H122644   1.066   0.119   3.975 -0.8334  1.3331  0.4673
 7560TIP3    H222645   1.192   0.198   4.007  0.2637  0.0447 -0.5578
 7561TIP3   OH222646   5.650   1.726   5.613 -0.1714  0.0499  0.3311
 7561TIP3    H122647   5.652   1.776   5.531 -2.2400  0.2976  0.3836
 7561TIP3    H222648   5.605   1.783   5.675  2.0373  0.1963  1.9387
 7562TIP3   OH222649   3.175   5.455   5.624 -0.1372 -0.0754 -0.2585
 7562TIP3    H122650   3.152   5.379   5.676 -2.4141 -0.2987 -1.4831
 7562TIP3    H222651   3.211   5.419   5.543 -0.6147  0.1430 -0.5735
 7563TIP3   OH222652   5.289   5.673   4.934  0.5566  0.1222  0.8535
 7563TIP3    H122653   5.383   5.658   4.930  0.6858 -1.2242  4.9091
 7563TIP3    H222654   5.251   5.587   4.918 -0.1631  0.7747 -1.4334
 7564TIP3   OH222655   2.246   2.733   4.158 -0.2012 -0.0155  0.0112
 7564TIP3    H122656   2.207   2.793   4.222 -1.0672  0.4713 -0.9604
 7564TIP3    H222657   2.172   2.701   4.106  0.4163 -0.9006 -0.3508
 7565TIP3   OH222658   2.727   2.203   3.649  0.8275  0.2391 -0.1635
 7565TIP3    H122659   2.677   2.122   3.637 -2.2413  2.1923 -1.8414
 7565TIP3    H222660   2.734   2.212   3.744 -3.2391  0.3698  0.3340
 7566TIP3   OH222661   1.681   3.959   5.013  0.4153  0.1507 -0.4045
 7566TIP3    H122662   1.627   3.911   4.951 -1.0591  1.1239  0.0660
 7566TIP3    H222663   1.624   3.974   5.088  0.8605  2.4462 -0.4610
 7567TIP3   OH222664   5.875   1.829   2.289 -0.1734 -0.3943 -0.4426
 7567TIP3    H122665   5.853   1.911   2.246 -0.2029 -0.8847 -1.4083
 7567TIP3    H222666   5.804   1.814   2.351 -0.2281  0.2491 -0.3451
 7568TIP3   OH222667   3.778   0.212   5.156  0.1297  0.2968  0.2826
 7568TIP3    H122668   3.809   0.153   5.087 -2.2960 -1.4511  0.5430
 7568TIP3    H222669   3.855   0.230   5.209  1.2936 -1.4281 -0.7193
 7569TIP3   OH222670   1.780   6.107   0.775 -0.4603 -0.1677 -0.5081
 7569TIP3    H122671   1.821   6.190   0.749  1.8030 -1.3361 -0.9223
 7569TIP3    H222672   1.842   6.069   0.837  0.4100 -3.1574 -2.9848
 7570TIP3   OH222673   4.288   3.292   3.140 -0.9982 -0.0003 -0.5282
 7570TIP3    H122674   4.272   3.327   3.227 -0.1253  2.0406 -1.1342
 7570TIP3    H222675   4.354   3.224   3.153 -2.6732 -1.5140  0.6624
 7571TIP3   OH222676   5.485   1.716   1.602  0.2117  0.4037 -0.3787
 7571TIP3    H122677   5.404   1.673   1.627  0.6868 -0.4778 -0.3026
 7571TIP3    H222678   5.461   1.774   1.530 -0.9050  1.8551  1.0957
 7572TIP3   OH222679   2.664   3.501   3.347 -0.1234 -0.0997  0.0109
 7572TIP3    H122680   2.609   3.445   3.292 -0.0632 -0.4054  0.2580
 7572TIP3    H222681   2.612   3.512   3.428  0.0343 -0.1188  0.1144
 7573TIP3   OH222682   6.754   6.023   4.396  0.4967  0.6762  0.9336
 7573TIP3    H122683   6.839   5.979   4.390 -0.2460 -0.7911  0.5939
 7573TIP3    H222684   6.691   5.957   4.365 -0.6491  2.1172  0.0592
 7574TIP3   OH222685   1.003   0.490   1.207  0.1879 -0.3570  0.0084
 7574TIP3    H122686   1.009   0.538   1.124  1.3726 -0.4630  0.0176
 7574TIP3    H222687   1.066   0.419   1.198  0.6401 -0.1216  1.1680
 7575TIP3   OH222688   2.821   2.974   1.944 -0.2754 -0.0840  0.7902
 7575TIP3    H122689   2.891   2.911   1.955 -1.3465 -1.4171  0.2039
 7575TIP3    H222690   2.830   3.034   2.019  1.7147  0.0484  0.4881
 7576TIP3   OH222691   0.190   6.742   5.319  0.0352 -0.0527  0.5908
 7576TIP3    H122692   0.229   6.658   5.343  4.6213  2.0156  1.3995
 7576TIP3    H222693   0.164   6.731   5.228 -0.2035 -2.5246  0.8887
 7577TIP3   OH222694   2.223   3.421   1.155 -0.2709  0.4055  0.3743
 7577TIP3    H122695   2.157   3.489   1.169 -1.0809 -0.3652  0.3650
 7577TIP3    H222696   2.191   3.346   1.205  0.6440  0.0414  0.4367
 7578TIP3   OH222697   3.834   2.301   2.136  0.5921  0.8196 -0.2458
 7578TIP3    H122698   3.852   2.320   2.044 -0.0960  0.3993 -0.4763
 7578TIP3    H222699   3.913   2.257   2.167  0.6408  0.5292 -0.7692
 7579TIP3   OH222700   5.237   5.472   2.556  0.2834  0.4421  0.2856
 7579TIP3    H122701   5.157   5.511   2.519  0.3359 -1.4188 -2.0049
 7579TIP3    H222702   5.229   5.487   2.650 -1.9814  1.6896 -0.0168
 7580TIP3   OH222703   2.594   1.940   3.715 -0.7635 -0.7552 -0.3131
 7580TIP3    H122704   2.576   1.935   3.621  1.0962 -1.5574 -0.6918
 7580TIP3    H222705   2.582   1.850   3.746 -0.3756 -0.7026 -0.0059
 7581TIP3   OH222706   4.064   4.198   2.314 -0.4433  0.1373  0.1724
 7581TIP3    H122707   4.022   4.127   2.363 -0.5614  0.6920  0.9025
 7581TIP3    H222708   4.148   4.163   2.287 -0.8435 -0.5593 -0.2002
 7582TIP3   OH222709   2.855   1.188   4.196 -0.2655  0.0265  0.2724
 7582TIP3    H122710   2.827   1.207   4.286 -1.2209  1.4207 -0.2880
 7582TIP3    H222711   2.887   1.272   4.163 -0.9115 -0.2233 -1.0454
 7583TIP3   OH222712   6.573   5.824   4.290  0.4226  0.0650 -0.6341
 7583TIP3    H122713   6.480   5.834   4.306  0.6150  1.6876 -0.3472
 7583TIP3    H222714   6.580   5.799   4.198 -0.2699  0.6389 -0.8451
 7584TIP3   OH222715   1.818   3.256   5.453  1.0267  0.1906  0.4325
 7584TIP3    H122716   1.787   3.252   5.363  0.1860 -0.3820  0.7310
 7584TIP3    H222717   1.819   3.350   5.474 -2.8636  0.2704  1.1245
 7585TIP3   OH222718   6.337   3.321   2.239  0.2452 -0.3615  0.1829
 7585TIP3    H122719   6.250   3.359   2.225  0.0433 -1.3285 -1.4781
 7585TIP3    H222720   6.323   3.252   2.303  0.2258  0.9231  1.6100
 7586TIP3   OH222721   2.357   4.587   5.151 -0.1587 -0.1823  0.0625
 7586TIP3    H122722   2.373   4.493   5.146 -0.9947 -0.2946 -1.6028
 7586TIP3    H222723   2.346   4.605   5.244 -0.0164 -1.7426  0.4146
 7587TIP3   OH222724   4.631   1.312   5.177 -0.2857 -0.0838  0.9234
 7587TIP3    H122725   4.548   1.266   5.182 -0.4704  0.1000 -0.3043
 7587TIP3    H222726   4.692   1.248   5.141 -0.3987  0.4013 -0.1837
 7588TIP3   OH222727   0.965   2.490   1.717 -0.1344 -0.4934  0.0648
 7588TIP3    H122728   1.000   2.566   1.764  1.6578 -1.7220  0.8125
 7588TIP3    H222729   1.038   2.428   1.714 -1.0216 -1.5447 -2.0097
 7589TIP3   OH222730   5.285   3.701   3.894  0.3943 -0.0453  0.3822
 7589TIP3    H122731   5.326   3.685   3.809 -1.6983  0.5493 -0.8179
 7589TIP3    H222732   5.355   3.737   3.948  1.3018  1.7357 -1.8089
 7590TIP3   OH222733   3.555   5.741   5.340 -0.2660  0.0862  1.0032
 7590TIP3    H122734   3.593   5.813   5.391  1.3053 -0.3702  0.5336
 7590TIP3    H222735   3.619   5.670   5.347 -0.0266 -0.0393 -1.4732
 7591TIP3   OH222736   5.418   6.703   1.143  0.1090 -0.3248 -0.0687
 7591TIP3    H122737   5.391   6.611   1.140 -0.1508 -0.2427 -0.2149
 7591TIP3    H222738   5.483   6.706   1.214 -0.5496 -0.4405  0.5482
 7592TIP3   OH222739   3.016   4.575   2.315 -0.0835 -0.9380 -0.0658
 7592TIP3    H122740   2.961   4.500   2.293 -0.7738 -0.6491  0.6473
 7592TIP3    H222741   3.105   4.548   2.290 -0.5816 -1.2631 -1.5752
 7593TIP3   OH222742   6.028   1.370   1.374  0.2275  0.0110 -0.7318
 7593TIP3    H122743   6.019   1.277   1.351  0.0947 -0.3730  0.7358
 7593TIP3    H222744   6.017   1.372   1.469  1.2084  1.4164 -0.6126
 7594TIP3   OH222745   4.981   3.837   3.183 -0.2050  0.2448 -0.6862
 7594TIP3    H122746   4.914   3.867   3.121 -1.8373 -0.9701  0.3961
 7594TIP3    H222747   5.058   3.819   3.129 -1.7656 -1.4259 -2.5149
 7595TIP3   OH222748   1.148   6.493   0.375 -1.0645 -0.0894  0.8313
 7595TIP3    H122749   1.165   6.563   0.312  0.9266 -2.3356 -1.3445
 7595TIP3    H222750   1.217   6.504   0.441 -0.6678 -0.0701  0.4226
 7596TIP3   OH222751   4.799   3.591   0.099  0.1833  0.1915  0.2193
 7596TIP3    H122752   4.777   3.498   0.108 -2.3043  0.7664  0.6195
 7596TIP3    H222753   4.881   3.600   0.149  0.1742 -1.6527  0.6554
 7597TIP3   OH222754   5.893   6.661   2.582 -0.1910 -0.1677  0.0194
 7597TIP3    H122755   5.961   6.697   2.525 -0.4825  0.0282 -0.2121
 7597TIP3    H222756   5.847   6.738   2.616  1.6349 -0.1320  2.6660
 7598TIP3   OH222757   5.613   0.469   0.094  0.0588 -0.5970 -0.2990
 7598TIP3    H122758   5.538   0.448   0.038  1.0652  0.2320 -2.0279
 7598TIP3    H222759   5.690   0.442   0.043  0.9923 -3.2289  2.1796
 7599TIP3   OH222760   4.901   3.982   0.849  0.8156 -0.2141  0.5409
 7599TIP3    H122761   4.934   4.070   0.828  1.7927 -0.8645 -0.8365
 7599TIP3    H222762   4.967   3.923   0.812  0.0957 -1.5297  1.3117
 7600TIP3   OH222763   6.568   2.301   5.882 -0.0763 -0.5834 -0.2280
 7600TIP3    H122764   6.663   2.308   5.875 -0.2364  0.1250 -1.9263
 7600TIP3    H222765   6.554   2.210   5.910  1.1077 -0.4246  1.0334
 7601TIP3   OH222766   6.339   2.440   5.874 -0.2151 -0.4044  0.6013
 7601TIP3    H122767   6.414   2.393   5.836  1.0917  1.6861  0.4149
 7601TIP3    H222768   6.302   2.489   5.801 -0.5244  0.1225  1.1007
 7602TIP3   OH222769   5.637   5.113   2.190 -0.5978 -0.2091  0.1464
 7602TIP3    H122770   5.621   5.023   2.218 -0.5804 -0.0142  0.8162
 7602TIP3    H222771   5.710   5.142   2.245 -0.5444  0.1809 -0.1311
 7603TIP3   OH222772   1.102   1.882   3.195  0.2573  0.2970 -0.9324
 7603TIP3    H122773   1.052   1.924   3.125 -1.1462  0.9722  0.4249
 7603TIP3    H222774   1.181   1.937   3.203  0.3002  0.3809 -1.7649
 7604TIP3   OH222775   3.717   1.408   3.843  0.3487  0.5333  0.2679
 7604TIP3    H122776   3.802   1.449   3.858  2.0232 -2.7065  0.4652
 7604TIP3    H222777   3.667   1.428   3.922  1.4355  1.2680  0.8002
 7605TIP3   OH222778   0.533   4.440   0.279  0.2070  0.5653  0.3064
 7605TIP3    H122779   0.573   4.354   0.270 -0.9278  0.1798 -1.5943
 7605TIP3    H222780   0.581   4.496   0.218 -2.0194  0.0922 -2.0146
 7606TIP3   OH222781   1.293   2.829   1.838 -0.3396 -0.5211  0.3763
 7606TIP3    H122782   1.206   2.790   1.852 -0.8805  0.1556 -0.9639
 7606TIP3    H222783   1.333   2.775   1.770  0.5378 -1.1543  1.3509
 7607TIP3   OH222784   4.718   5.011   4.166  0.0832 -0.0095 -0.3061
 7607TIP3    H122785   4.745   4.943   4.228  0.8733  0.2230 -0.3881
 7607TIP3    H222786   4.798   5.058   4.146 -0.3591  0.5827 -0.7032
 7608TIP3   OH222787   3.742   1.817   0.672  0.5499  0.4217 -0.7785
 7608TIP3    H122788   3.767   1.893   0.620 -1.5494  0.3803 -1.9703
 7608TIP3    H222789   3.676   1.772   0.619  1.7325 -2.2840 -0.1480
 7609TIP3   OH222790   6.106   3.850   4.902 -0.6315 -0.7780  0.0826
 7609TIP3    H122791   6.093   3.875   4.993  0.1219 -0.5859  0.1424
 7609TIP3    H222792   6.072   3.760   4.896 -3.7986  0.3229 -0.2392
 7610TIP3   OH222793   1.047   3.098   0.330  0.5825 -0.5090  0.1297
 7610TIP3    H122794   1.094   3.142   0.400 -1.3176  1.0865  0.4999
 7610TIP3    H222795   1.016   3.016   0.370 -0.0950  0.1733  1.0552
 7611TIP3   OH222796   5.898   4.721   4.174  0.1835  0.3684 -0.0253
 7611TIP3    H122797   5.934   4.774   4.103  0.5318  0.6703  0.3758
 7611TIP3    H222798   5.972   4.702   4.231  0.0663 -0.5811 -0.1771
 7612TIP3   OH222799   5.501   4.340   2.745  0.4631 -0.3247  0.2897
 7612TIP3    H122800   5.489   4.247   2.726  1.9184 -0.3588 -0.6429
 7612TIP3    H222801   5.451   4.385   2.676 -0.6919 -0.3958  1.0646
 7613TIP3   OH222802   4.243   1.630   1.402  0.1706  0.2255  0.6102
 7613TIP3    H122803   4.235   1.538   1.377  0.1764  0.0208  1.3200
 7613TIP3    H222804   4.197   1.636   1.486 -0.9130  1.1354 -0.0105
 7614TIP3   OH222805   3.244   3.067   0.402  0.2660  0.0996  0.2546
 7614TIP3    H122806   3.179   3.090   0.469 -0.1272  0.2420 -0.1720
 7614TIP3    H222807   3.320   3.120   0.424 -0.0618  0.5803  0.2577
 7615TIP3   OH222808   2.491   3.704   1.291  0.0948  0.2294  0.2143
 7615TIP3    H122809   2.462   3.794   1.302  2.4766  1.0291  0.6229
 7615TIP3    H222810   2.505   3.695   1.197 -0.1422  0.2794  0.1732
 7616TIP3   OH222811   5.094   2.758   5.739  0.3783  0.4967 -0.0825
 7616TIP3    H122812   5.110   2.822   5.669  0.7372  0.0257 -0.4449
 7616TIP3    H222813   5.000   2.758   5.751  0.3456  0.8370 -0.3318
 7617TIP3   OH222814   2.047   6.551   2.784  0.2776 -0.3203 -0.0070
 7617TIP3    H122815   1.971   6.499   2.758  1.0686 -0.6292 -1.8057
 7617TIP3    H222816   2.032   6.637   2.745  0.7039 -0.2908 -0.1100
 7618TIP3   OH222817   2.205   1.466   1.090 -0.1824 -0.0794  0.3829
 7618TIP3    H122818   2.111   1.464   1.110 -0.7346 -0.8099 -1.9873
 7618TIP3    H222819   2.219   1.551   1.047  0.2954  0.0806  0.8372
 7619TIP3   OH222820   4.062   5.512   2.725  0.3905  0.4177 -0.0182
 7619TIP3    H122821   4.152   5.489   2.746  0.2787  0.7566  0.8730
 7619TIP3    H222822   4.047   5.595   2.769 -0.7495 -0.2627  0.9476
 7620TIP3   OH222823   2.228   0.956   0.590  0.1991 -0.1629  0.0968
 7620TIP3    H122824   2.178   0.980   0.511 -1.4052 -2.2163  0.3964
 7620TIP3    H222825   2.264   0.870   0.570 -0.6812 -0.9712  1.7463
 7621TIP3   OH222826   0.754   5.913   2.489 -0.5281  0.0088 -0.6193
 7621TIP3    H122827   0.804   5.973   2.544 -0.8716 -0.7358  0.5342
 7621TIP3    H222828   0.753   5.955   2.403 -0.4090  1.4545  0.0511
 7622TIP3   OH222829   5.439   1.522   1.373  0.2924  0.5142 -0.3457
 7622TIP3    H122830   5.505   1.471   1.326 -0.3959 -0.8599  0.1258
 7622TIP3    H222831   5.453   1.501   1.465 -0.9361  0.0106 -0.2557
 7623TIP3   OH222832   3.065   0.776   0.570 -0.1801 -0.3666 -0.5572
 7623TIP3    H122833   3.150   0.805   0.537 -0.8433 -0.0416 -2.0632
 7623TIP3    H222834   3.012   0.856   0.573 -0.5440 -0.6266  0.0080
 7624TIP3   OH222835   5.106   0.054   2.930  0.6352  0.5750  0.1701
 7624TIP3    H122836   5.139   0.133   2.888 -0.7251  1.3371  0.4631
 7624TIP3    H222837   5.173  -0.012   2.914  0.1834  0.7954 -3.2587
 7625TIP3   OH222838   4.304   1.471   4.593  0.4611 -0.5122 -0.2212
 7625TIP3    H122839   4.373   1.506   4.537  0.7455  0.0027  0.4446
 7625TIP3    H222840   4.235   1.446   4.532  0.4384  0.7735 -0.7526
 7626TIP3   OH222841   4.093   6.537   2.319 -0.0965  0.6745 -0.0174
 7626TIP3    H122842   4.110   6.623   2.357 -0.8929  0.7142  0.2793
 7626TIP3    H222843   4.027   6.498   2.377  1.3048 -0.7352  0.7044
 7627TIP3   OH222844   3.915   4.962   2.447  0.9676 -0.0201  0.3682
 7627TIP3    H122845   3.913   4.957   2.543 -0.7659  0.9326  0.4224
 7627TIP3    H222846   3.838   5.013   2.424 -0.0756 -2.3432 -1.6949
 7628TIP3   OH222847   1.305   3.901   4.516  0.0386  0.2384  0.0421
 7628TIP3    H122848   1.256   3.946   4.446 -2.1063 -0.4655  0.9967
 7628TIP3    H222849   1.363   3.841   4.470 -1.0285  0.0864 -1.1684
 7629TIP3   OH222850   5.228   4.843   1.299 -0.0912  0.0753 -0.0036
 7629TIP3    H122851   5.242   4.936   1.316  1.3903 -0.1237 -0.0464
 7629TIP3    H222852   5.267   4.798   1.373  2.5384 -0.6185 -1.6628
 7630TIP3   OH222853   4.349   4.254   4.167  0.0618  0.2736 -0.3262
 7630TIP3    H122854   4.308   4.168   4.167  0.9978 -0.2637  2.3508
 7630TIP3    H222855   4.277   4.316   4.180 -0.3930 -0.2425 -0.3623
 7631TIP3   OH222856   0.314   2.737   5.101  0.2597 -0.2264 -0.3387
 7631TIP3    H122857   0.399   2.705   5.129 -0.1582 -2.4756 -1.4074
 7631TIP3    H222858   0.303   2.820   5.147  2.2577 -0.7255  1.1628
 7632TIP3   OH222859   5.276   3.276   5.779 -0.1908 -0.1704 -0.1407
 7632TIP3    H122860   5.370   3.297   5.778 -0.2980  0.3638  0.3621
 7632TIP3    H222861   5.248   3.299   5.868 -0.6914 -0.8174 -0.1279
 7633TIP3   OH222862   2.902   6.736   3.224  0.1971  0.1018  0.1494
 7633TIP3    H122863   2.986   6.696   3.244 -0.0748 -0.0246  1.1095
 7633TIP3    H222864   2.839   6.664   3.229 -0.2758  0.5823  1.7596
 7634TIP3   OH222865   6.796   3.638   2.279  0.2334 -0.1427 -0.1465
 7634TIP3    H122866   6.723   3.586   2.311  1.0591 -1.1683  0.1329
 7634TIP3    H222867   6.755   3.711   2.231 -0.9524 -0.6319  0.0957
 7635TIP3   OH222868   0.279   1.661   0.325  0.1384  0.4014  0.3900
 7635TIP3    H122869   0.329   1.693   0.401  0.9271  0.0760  0.0263
 7635TIP3    H222870   0.345   1.617   0.271 -0.6086 -0.2781  0.0239
 7636TIP3   OH222871   1.525   1.312   2.972  0.4944 -0.1883 -0.0089
 7636TIP3    H122872   1.475   1.245   2.925 -0.6563 -0.7856  1.9310
 7636TIP3    H222873   1.459   1.375   3.002  1.3154  0.7246 -0.0857
 7637TIP3   OH222874   6.283   3.067   0.285  0.1427  0.0254  0.2265
 7637TIP3    H122875   6.364   3.079   0.235  0.2740  1.1949  0.6944
 7637TIP3    H222876   6.311   3.023   0.365  0.0971 -0.8144 -0.2028
 7638TIP3   OH222877   5.720   6.097   5.365 -0.4268  0.2090  0.3627
 7638TIP3    H122878   5.631   6.061   5.371 -0.4508  0.3430  0.9322
 7638TIP3    H222879   5.771   6.043   5.426 -0.3185  0.7049  0.7228
 7639TIP3   OH222880   1.612   0.808   1.171 -0.1387 -0.2581 -0.3884
 7639TIP3    H122881   1.587   0.726   1.127 -1.4406  0.6987 -1.5227
 7639TIP3    H222882   1.537   0.827   1.229 -0.0558  0.3632 -0.4805
 7640TIP3   OH222883   0.538   5.328   3.745 -0.2788 -0.2148 -0.1205
 7640TIP3    H122884   0.460   5.296   3.790 -0.1252 -1.2856 -0.5996
 7640TIP3    H222885   0.530   5.294   3.656  1.8072 -2.2178  0.3899
 7641TIP3   OH222886   2.894   3.791   0.413  0.2086 -0.2742  0.4885
 7641TIP3    H122887   2.873   3.857   0.479  0.6903  0.1033  0.2706
 7641TIP3    H222888   2.979   3.756   0.441  0.0465 -0.6644  0.4944
 7642TIP3   OH222889   4.347   4.098   2.536 -0.4514  0.1067 -0.2213
 7642TIP3    H122890   4.379   4.162   2.472  1.1629 -0.1130  0.3285
 7642TIP3    H222891   4.310   4.028   2.482  1.0505 -0.1591 -0.9757
 7643TIP3   OH222892   2.790   3.683   2.813 -0.3956 -0.0319 -0.1836
 7643TIP3    H122893   2.738   3.608   2.784 -0.8900 -0.3478  1.4038
 7643TIP3    H222894   2.725   3.745   2.848 -0.1217  1.7138 -2.5461
 7644TIP3   OH222895   3.596   5.710   1.434 -0.0538 -0.1384  0.1980
 7644TIP3    H122896   3.670   5.770   1.421 -0.3034  0.1032 -0.1062
 7644TIP3    H222897   3.587   5.665   1.350  0.0134 -0.4711  0.3669
 7645TIP3   OH222898   2.502   5.948   2.691 -0.1921  0.7383 -0.6225
 7645TIP3    H122899   2.549   5.874   2.729 -0.1634  0.8588 -0.4239
 7645TIP3    H222900   2.449   5.909   2.621  0.9875  0.7524 -1.5550
 7646TIP3   OH222901   1.582   1.914   0.207 -0.2683  0.0461 -0.7154
 7646TIP3    H122902   1.535   1.972   0.266  1.0555 -1.3575  1.8984
 7646TIP3    H222903   1.645   1.970   0.162  0.1063  0.8623  0.7825
 7647TIP3   OH222904   2.348   5.564   1.948  0.5098  0.4145  0.2958
 7647TIP3    H122905   2.334   5.475   1.979 -0.6482  0.7925  0.9308
 7647TIP3    H222906   2.425   5.558   1.891  1.3079 -0.7208  1.4414
 7648TIP3   OH222907   3.680   0.800   3.619 -0.1776 -0.3442 -0.2517
 7648TIP3    H122908   3.623   0.783   3.544 -0.2894  0.4045 -0.3440
 7648TIP3    H222909   3.730   0.878   3.595 -1.4309  0.9473  1.1187
 7649TIP3   OH222910   6.100   1.825   1.331 -0.0696  0.6140  0.0715
 7649TIP3    H122911   6.034   1.836   1.400 -0.6689 -0.6181 -0.2834
 7649TIP3    H222912   6.169   1.774   1.371  0.7039  1.8931  0.4373
 7650TIP3   OH222913   4.440   2.398   2.249 -1.2141  0.4476  0.7283
 7650TIP3    H122914   4.358   2.434   2.213 -1.7962 -1.7977 -0.4044
 7650TIP3    H222915   4.480   2.472   2.296 -2.5835  2.3433 -0.8947
 7651TIP3   OH222916   5.491   3.951   4.567  0.3442 -0.3007  0.4522
 7651TIP3    H122917   5.561   3.988   4.513  0.1076 -2.8775 -1.8233
 7651TIP3    H222918   5.413   3.956   4.512 -0.2385 -1.6128  1.1218
 7652TIP3   OH222919   2.987   0.978   5.868 -0.9042  0.5099  0.2956
 7652TIP3    H122920   2.913   0.958   5.925 -1.1284 -0.2900 -0.2650
 7652TIP3    H222921   3.030   0.894   5.854 -0.9936  0.6435 -0.8969
 7653TIP3   OH222922   2.342   2.171   3.833 -0.0503  0.2584 -0.2476
 7653TIP3    H122923   2.351   2.141   3.923 -0.7989 -0.3370 -0.3597
 7653TIP3    H222924   2.429   2.203   3.809 -0.4927  3.2725  1.6530
 7654TIP3   OH222925   2.457   4.661   4.585 -0.1341 -0.6397 -0.1799
 7654TIP3    H122926   2.362   4.669   4.578  0.0515  0.0754 -2.3410
 7654TIP3    H222927   2.470   4.590   4.649 -2.0761 -0.3482  0.6019
 7655TIP3   OH222928   3.170   4.088   1.694  0.0398 -0.3012  0.2841
 7655TIP3    H122929   3.189   4.009   1.645  2.1521  0.4530 -0.1895
 7655TIP3    H222930   3.249   4.141   1.688 -0.8706  1.3357  1.6077
 7656TIP3   OH222931   0.610   4.818   1.917  0.3603 -0.1415  0.2919
 7656TIP3    H122932   0.590   4.725   1.926  0.7586 -0.3855 -1.0490
 7656TIP3    H222933   0.533   4.863   1.953 -0.2026 -0.9985  0.1970
 7657TIP3   OH222934   0.613   5.060   4.678  0.4189  0.7724 -0.3200
 7657TIP3    H122935   0.628   4.965   4.670 -0.8650  0.6709 -2.3144
 7657TIP3    H222936   0.687   5.091   4.730  0.2529 -1.4682  1.4248
 7658TIP3   OH222937   0.567   2.315   5.784 -0.1227  0.0016  0.6309
 7658TIP3    H122938   0.556   2.407   5.761  0.0303  0.1833  1.2715
 7658TIP3    H222939   0.655   2.310   5.821  0.5664 -0.7304 -0.9959
 7659TIP3   OH222940   1.343   0.751   2.360 -0.2509 -0.2036 -0.3497
 7659TIP3    H122941   1.322   0.763   2.267 -2.6599  0.5779  0.2095
 7659TIP3    H222942   1.385   0.665   2.364  2.2955  0.8186 -2.4402
 7660TIP3   OH222943   2.410   4.281   2.408  0.3992  0.2047  0.5653
 7660TIP3    H122944   2.346   4.352   2.407 -2.3050 -2.0199 -0.4623
 7660TIP3    H222945   2.376   4.219   2.473  2.5666 -0.2542  1.3374
 7661TIP3   OH222946   6.460   5.281   0.657  0.7173 -0.0518  0.3955
 7661TIP3    H122947   6.393   5.348   0.663  0.4721 -0.2109 -0.4965
 7661TIP3    H222948   6.460   5.239   0.743  0.7259  0.9369  0.8854
 7662TIP3   OH222949   6.791   6.574   2.046  0.3920 -0.1322 -0.9916
 7662TIP3    H122950   6.707   6.568   2.001 -0.2830 -1.3385  0.3595
 7662TIP3    H222951   6.844   6.632   1.991 -1.1489  0.2524 -2.1177
 7663TIP3   OH222952   2.150   5.998   3.201 -0.0334 -0.4275 -0.0868
 7663TIP3    H122953   2.209   5.947   3.257 -1.0793 -0.0406  1.4467
 7663TIP3    H222954   2.085   6.034   3.262 -0.9963  0.3567 -1.5235
 7664TIP3   OH222955   2.122   6.323   2.928 -0.0080 -0.4822  0.3234
 7664TIP3    H122956   2.169   6.245   2.958  0.7828 -0.4372 -0.7633
 7664TIP3    H222957   2.057   6.289   2.866  0.2039 -0.2969 -0.0007
 7665TIP3   OH222958   2.358   2.875   3.211 -0.4881 -0.4354  0.0396
 7665TIP3    H122959   2.414   2.951   3.197 -0.8997  0.1224  1.3014
 7665TIP3    H222960   2.418   2.800   3.211  0.7303  0.3225  3.6637
 7666TIP3   OH222961   6.759   4.623   5.100  0.5597 -0.2236  0.2985
 7666TIP3    H122962   6.762   4.710   5.140 -0.3885 -0.1110  0.1594
 7666TIP3    H222963   6.734   4.565   5.172 -1.4766  0.0251 -0.1368
 7667TIP3   OH222964   5.586   2.426   5.899  0.4003 -0.3135  0.5696
 7667TIP3    H122965   5.659   2.368   5.918  0.1758 -0.6270  0.4728
 7667TIP3    H222966   5.606   2.464   5.814  2.2326  2.3358  2.0063
 7668TIP3   OH222967   6.202   1.987   4.017 -0.6729 -0.4408 -0.1518
 7668TIP3    H122968   6.270   1.988   4.084  1.2125 -0.0677 -1.9779
 7668TIP3    H222969   6.167   2.076   4.017  0.8711  0.2000 -1.1106
 7669TIP3   OH222970   2.464   0.262   4.845  0.6008 -0.0054  0.4052
 7669TIP3    H122971   2.403   0.304   4.906  0.5008  1.9991 -0.9742
 7669TIP3    H222972   2.545   0.312   4.854  0.8831 -0.2962 -0.3942
 7670TIP3   OH222973   0.353   3.843   5.134  0.0477  0.1725 -0.5485
 7670TIP3    H122974   0.433   3.863   5.086  1.0812 -0.2465  0.9361
 7670TIP3    H222975   0.305   3.784   5.075  1.6409 -0.9847 -0.7842
 7671TIP3   OH222976   0.397   3.468   5.770 -0.3706 -0.2585  0.4463
 7671TIP3    H122977   0.308   3.501   5.757  0.2273  1.1178 -0.3864
 7671TIP3    H222978   0.436   3.470   5.682  0.4290 -1.0224  0.7682
 7672TIP3   OH222979   0.795   4.753   4.767  0.1032  0.2929  0.4564
 7672TIP3    H122980   0.852   4.684   4.802  0.2164 -0.0101 -0.3031
 7672TIP3    H222981   0.710   4.737   4.808 -0.1233 -0.8875 -0.3903
 7673TIP3   OH222982   6.672   0.609   0.387 -0.6459 -0.3967 -1.1082
 7673TIP3    H122983   6.669   0.663   0.307  1.5537 -0.3327 -1.2085
 7673TIP3    H222984   6.763   0.581   0.393 -0.8632 -0.7570  1.1734
 7674TIP3   OH222985   4.573   3.366   0.330 -0.2842  0.0001  0.1022
 7674TIP3    H122986   4.631   3.414   0.272 -0.8889  0.8001  0.1318
 7674TIP3    H222987   4.592   3.274   0.314  2.0331  0.2265  1.1867
 7675TIP3   OH222988   6.920   6.772   1.908  0.2315  0.1517 -0.1998
 7675TIP3    H122989   6.935   6.798   1.999 -2.8696  1.7722 -0.0275
 7675TIP3    H222990   6.974   6.832   1.857  1.0871  0.0071  0.4964
 7676TIP3   OH222991   0.121   6.781   0.826 -0.0751  0.0242  0.2038
 7676TIP3    H122992   0.155   6.733   0.901  1.1398  1.4639  0.6356
 7676TIP3    H222993   0.027   6.768   0.829  0.1508 -1.6632  0.7413
 7677TIP3   OH222994   4.349   5.643   2.454  0.0869  0.0167 -0.5166
 7677TIP3    H122995   4.297   5.690   2.519  0.8143  1.2516 -0.8078
 7677TIP3    H222996   4.307   5.557   2.448 -1.1725  0.5590  0.1430
 7678TIP3   OH222997   1.098   2.174   0.757  0.3702  0.4454  0.2355
 7678TIP3    H122998   1.039   2.181   0.682  0.7873 -2.4458 -0.5060
 7678TIP3    H222999   1.184   2.195   0.721  0.5287 -0.6639 -0.0742
 7679TIP3   OH223000   0.951   2.779   3.798 -0.3614 -0.1718 -0.0294
 7679TIP3    H123001   0.931   2.856   3.744 -0.1750  0.5644  0.9188
 7679TIP3    H223002   0.893   2.787   3.874  0.1202 -0.6110  0.3978
 7680TIP3   OH223003   1.140   5.521   5.119 -0.2122  0.1975  0.0447
 7680TIP3    H123004   1.080   5.498   5.189 -1.8851 -1.1346 -1.7323
 7680TIP3    H223005   1.221   5.473   5.140 -0.1105  1.0596  1.8178
 7681TIP3   OH223006   1.536   0.862   4.478 -0.4184 -0.0697 -0.0414
 7681TIP3    H123007   1.612   0.920   4.467 -0.4213 -0.1928 -0.7384
 7681TIP3    H223008   1.574   0.775   4.489 -0.3995  0.0985  1.3774
 7682TIP3   OH223009   6.277   5.592   5.738  0.2895  0.2803  0.2726
 7682TIP3    H123010   6.258   5.508   5.696 -0.8026  1.3214 -1.4463
 7682TIP3    H223011   6.200   5.610   5.791  0.7762 -0.0584  1.1075
 7683TIP3   OH223012   0.550   5.702   5.131 -0.5609  0.5670  0.2072
 7683TIP3    H123013   0.468   5.652   5.128 -0.3604  0.2680 -0.4174
 7683TIP3    H223014   0.559   5.737   5.042  2.2751 -3.0774 -1.1498
 7684TIP3   OH223015   3.796   0.349   4.789 -0.0664 -0.1639 -0.4695
 7684TIP3    H123016   3.721   0.386   4.834 -0.2845  0.9349 -1.6790
 7684TIP3    H223017   3.818   0.271   4.839 -1.3196  0.1033  0.5432
 7685TIP3   OH223018   0.393   4.249   4.617  0.3505 -0.0065 -0.2105
 7685TIP3    H123019   0.336   4.192   4.669 -0.2616  0.3840 -0.4473
 7685TIP3    H223020   0.342   4.270   4.540  0.2998  1.4194  0.1879
 7686TIP3   OH223021   0.579   2.077   5.602 -0.0144 -0.4427  0.3242
 7686TIP3    H123022   0.545   2.148   5.657 -0.3088  0.7391 -1.3287
 7686TIP3    H223023   0.674   2.089   5.603  0.2308 -1.9305  2.5003
 7687TIP3   OH223024   7.028   1.379   1.450 -0.7632  0.1657 -0.0995
 7687TIP3    H123025   7.112   1.333   1.453 -0.0545  1.2369 -1.6850
 7687TIP3    H223026   7.020   1.421   1.535  0.4528  0.2587 -0.0154
 7688TIP3   OH223027   1.533   3.129   2.065  0.0549 -0.5484 -0.5224
 7688TIP3    H123028   1.599   3.105   2.130 -0.3509  0.1369  0.1521
 7688TIP3    H223029   1.477   3.052   2.059  0.0210 -0.5686  0.0337
 7689TIP3   OH223030   2.529   5.294   5.071  0.1121 -0.0370  0.2270
 7689TIP3    H123031   2.501   5.216   5.023  1.2734 -0.6407  0.4892
 7689TIP3    H223032   2.447   5.337   5.097 -0.5941 -1.8783  1.2122
 7690TIP3   OH223033   6.156   5.867   5.014 -0.2530 -0.4008  0.0626
 7690TIP3    H123034   6.085   5.884   5.076  0.6714 -1.5036  1.5052
 7690TIP3    H223035   6.222   5.821   5.066  1.1621 -0.1516 -1.4352
 7691TIP3   OH223036   1.492   1.897   1.946 -0.2566  0.9075  0.0545
 7691TIP3    H123037   1.527   1.871   1.860  1.3900  0.0660  0.9228
 7691TIP3    H223038   1.452   1.817   1.981 -0.6374  1.1595  0.1917
 7692TIP3   OH223039   5.872   1.194   0.651  0.0323 -0.4358  0.1755
 7692TIP3    H123040   5.952   1.168   0.696  2.4189 -1.9444 -4.3303
 7692TIP3    H223041   5.849   1.279   0.689  3.1299 -0.4258  2.4010
 7693TIP3   OH223042   3.500   0.685   1.404  0.6686  0.4601  0.1705
 7693TIP3    H123043   3.519   0.604   1.357 -0.2973  0.6816 -0.6436
 7693TIP3    H223044   3.553   0.752   1.360  0.1711  0.5684 -0.2807
 7694TIP3   OH223045   1.169   0.890   3.691  0.2185  0.4075 -0.3380
 7694TIP3    H123046   1.229   0.818   3.712  0.4128  0.9780  1.2042
 7694TIP3    H223047   1.169   0.944   3.770 -0.3123  1.8342 -1.2832
 7695TIP3   OH223048   5.187   5.358   1.768  0.1987 -0.4109 -0.5449
 7695TIP3    H123049   5.198   5.263   1.781 -1.1576 -0.6849 -1.2218
 7695TIP3    H223050   5.095   5.373   1.786  0.6747  1.0329  0.8886
 7696TIP3   OH223051   4.851   1.430   1.506 -0.0313 -0.3230 -0.3043
 7696TIP3    H123052   4.911   1.501   1.485 -0.5809 -0.0694 -1.0738
 7696TIP3    H223053   4.886   1.391   1.585 -0.4201  1.6264  0.8831
 7697TIP3   OH223054   3.834   1.164   1.688  0.1447  0.5995  0.4452
 7697TIP3    H123055   3.821   1.106   1.613 -0.2944 -0.3583  1.2307
 7697TIP3    H223056   3.745   1.183   1.719  0.2684  1.9168  0.0609
 7698TIP3   OH223057   7.065   0.594   1.330 -0.2283  0.0557 -0.0008
 7698TIP3    H123058   6.983   0.555   1.298 -0.0177 -0.9091  0.5837
 7698TIP3    H223059   7.041   0.682   1.358 -0.5087  0.8205 -2.4100
 7699TIP3   OH223060   4.640   3.107   0.377 -0.2683 -0.0317  0.0553
 7699TIP3    H123061   4.669   3.147   0.459 -2.3586  1.7409  0.0520
 7699TIP3    H223062   4.592   3.029   0.404  1.0850 -0.8059  0.3045
 7700TIP3   OH223063   5.818   0.288   1.832  0.6411 -0.1781  0.1406
 7700TIP3    H123064   5.781   0.202   1.851  0.1942 -0.2094 -0.7910
 7700TIP3    H223065   5.873   0.308   1.907  0.5549 -1.1701  0.4817
 7701TIP3   OH223066   5.231   2.797   2.021 -0.2053 -0.0974  0.7109
 7701TIP3    H123067   5.242   2.854   2.098  0.0924  2.2649 -0.9694
 7701TIP3    H223068   5.141   2.811   1.993  0.4792  1.2671 -0.9494
 7702TIP3   OH223069   7.088   3.075   0.389 -0.1831 -0.0046  0.0668
 7702TIP3    H123070   7.133   3.051   0.470  0.3173 -0.0399 -0.2155
 7702TIP3    H223071   7.003   3.109   0.418 -0.3584 -0.8195  0.5532
 7703TIP3   OH223072   2.928   2.197   1.669  0.1148 -0.0180  0.2899
 7703TIP3    H123073   2.873   2.193   1.747 -0.3878 -0.3841 -0.0812
 7703TIP3    H223074   3.017   2.182   1.701 -0.3119 -2.3175  0.5312
 7704TIP3   OH223075   0.938   4.374   0.702 -0.0509 -0.3966 -0.0667
 7704TIP3    H123076   0.860   4.420   0.734  0.0705 -1.1872  1.4719
 7704TIP3    H223077   0.905   4.318   0.632 -0.5727  0.4208 -0.4959
 7705TIP3   OH223078   0.065   0.050   5.309  0.4328  0.5970  0.4118
 7705TIP3    H123079   0.140   0.021   5.361  0.4360 -0.0337  0.0576
 7705TIP3    H223080   0.090   0.138   5.279  3.2026 -1.2912 -3.7344
 7706TIP3   OH223081   6.896   3.429   1.374 -0.0147  0.1296 -0.5143
 7706TIP3    H123082   6.936   3.345   1.353  0.0901  0.2768 -0.9137
 7706TIP3    H223083   6.804   3.417   1.355 -0.0754 -0.0313 -0.1402
 7707TIP3   OH223084   4.852   5.992   5.349  0.1776  0.1756 -0.6924
 7707TIP3    H123085   4.776   6.046   5.325  0.4383  1.4836  1.2056
 7707TIP3    H223086   4.825   5.903   5.329 -1.9174  0.6003 -0.0384
 7708TIP3   OH223087   6.641   5.235   4.381 -0.7402  0.0747  0.1469
 7708TIP3    H123088   6.579   5.183   4.431 -0.8378 -0.4901 -0.5361
 7708TIP3    H223089   6.635   5.323   4.418 -1.5454 -0.1031  0.4477
 7709TIP3   OH223090   3.540   4.147   3.806 -0.0417  0.0277 -0.1187
 7709TIP3    H123091   3.617   4.199   3.788  0.5218 -0.5026  0.6737
 7709TIP3    H223092   3.572   4.057   3.812 -0.4388 -0.0331  1.7213
 7710TIP3   OH223093   3.607   2.612   3.861  0.1390  0.3035 -0.5992
 7710TIP3    H123094   3.535   2.673   3.879  0.6623  0.4657  1.1778
 7710TIP3    H223095   3.676   2.638   3.924  0.9417 -1.1717 -0.8332
 7711TIP3   OH223096   3.135   4.114   4.388 -0.2948  0.2648 -0.5020
 7711TIP3    H123097   3.045   4.086   4.408 -0.7794  2.6092  1.0720
 7711TIP3    H223098   3.141   4.202   4.426  2.3960  0.5503 -1.4020
 7712TIP3   OH223099   4.365   0.965   5.760  0.3564  0.2676 -0.1772
 7712TIP3    H123100   4.292   0.949   5.820 -0.2689 -1.4265 -1.3138
 7712TIP3    H223101   4.442   0.972   5.816 -0.3974  0.1422  0.8972
 7713TIP3   OH223102   7.166   5.061   3.696  0.7047  0.3629  0.2673
 7713TIP3    H123103   7.115   4.981   3.684  2.8646 -0.7036 -2.9192
 7713TIP3    H223104   7.238   5.036   3.753  1.5706 -0.0931 -1.0073
 7714TIP3   OH223105   0.306   2.280   1.679 -0.1254  0.0591  0.2787
 7714TIP3    H123106   0.350   2.273   1.764  0.7374  0.2164 -0.1416
 7714TIP3    H223107   0.254   2.360   1.686 -0.9902 -0.5474  1.0570
 7715TIP3   OH223108   3.548   3.320   3.397  0.8066 -0.0204  0.1245
 7715TIP3    H123109   3.613   3.301   3.465 -0.0766 -2.1011  0.4500
 7715TIP3    H223110   3.481   3.370   3.443  1.8161  1.5804 -0.0636
 7716TIP3   OH223111   6.056   3.886   2.857  0.0449 -0.1529  0.7637
 7716TIP3    H123112   6.149   3.895   2.837 -0.5221 -1.7535 -3.9460
 7716TIP3    H223113   6.043   3.792   2.872 -0.9718 -0.3061 -0.7275
 7717TIP3   OH223114   1.184   1.566   3.897 -0.3089  0.4567 -0.2186
 7717TIP3    H123115   1.190   1.556   3.992 -0.1120  2.1659 -0.0154
 7717TIP3    H223116   1.103   1.615   3.883 -1.3536 -1.4065 -1.1201
 7718TIP3   OH223117   4.117   3.097   5.641 -0.1437  0.5593 -0.1963
 7718TIP3    H123118   4.139   3.163   5.706 -0.0821 -0.8197  1.2586
 7718TIP3    H223119   4.188   3.100   5.578 -0.2388  1.9811 -0.2684
 7719TIP3   OH223120   3.728   0.320   2.407 -0.3310 -0.0617 -0.8760
 7719TIP3    H123121   3.767   0.379   2.342 -1.0139  0.0737 -1.1747
 7719TIP3    H223122   3.739   0.233   2.370 -0.9955  0.0407 -1.3308
 7720TIP3   OH223123   2.638   6.479   5.543  0.1873 -0.4200 -0.2586
 7720TIP3    H123124   2.682   6.406   5.499 -0.7962 -0.7667 -0.6975
 7720TIP3    H223125   2.694   6.554   5.527  2.0825 -1.3466  1.5493
 7721TIP3   OH223126   5.565   0.139   0.688  0.0926  0.2583 -0.0199
 7721TIP3    H123127   5.614   0.062   0.718  0.1410  0.6429  0.9287
 7721TIP3    H223128   5.576   0.139   0.593  0.4063 -0.6901  0.0001
 7722TIP3   OH223129   0.426   5.557   1.574  0.0159  0.2177 -0.1639
 7722TIP3    H123130   0.380   5.572   1.656 -0.4708  1.2054 -0.6035
 7722TIP3    H223131   0.452   5.644   1.544 -1.0573  0.0259 -1.7675
 7723TIP3   OH223132   5.919   2.435   4.042  0.7379  0.2462  0.4066
 7723TIP3    H123133   5.833   2.468   4.067  0.4464 -0.9398  1.0573
 7723TIP3    H223134   5.917   2.432   3.946 -0.0019  0.1223  0.4216
 7724TIP3   OH223135   3.497   5.166   4.855 -0.7331 -0.0214 -0.1041
 7724TIP3    H123136   3.574   5.112   4.837  0.4674  1.5009  0.2210
 7724TIP3    H223137   3.496   5.175   4.951  0.4549  2.3475 -0.2467
 7725TIP3   OH223138   6.356   1.491   4.374  0.1457  0.0596 -0.0939
 7725TIP3    H123139   6.441   1.511   4.334 -0.1082  0.2777 -0.5287
 7725TIP3    H223140   6.368   1.509   4.467  0.5676  0.1127 -0.1571
 7726TIP3   OH223141   0.313   5.181   2.474 -0.9483 -0.0142 -0.0838
 7726TIP3    H123142   0.360   5.146   2.550  1.1361  0.6851 -0.9873
 7726TIP3    H223143   0.262   5.106   2.442  1.6078 -1.6793 -0.5926
 7727TIP3   OH223144   3.463   2.591   1.777  0.6844 -0.5812 -0.6769
 7727TIP3    H123145   3.372   2.563   1.788 -0.7699  3.8641  0.9310
 7727TIP3    H223146   3.457   2.673   1.729  3.6950  0.4986  0.5554
 7728TIP3   OH223147   2.511   6.158   0.635  0.1878  0.2028  0.3064
 7728TIP3    H123148   2.452   6.225   0.669 -1.1075 -1.6848  2.0307
 7728TIP3    H223149   2.570   6.138   0.707  1.1067  0.0482 -0.4622
 7729TIP3   OH223150   1.008   3.844   2.961 -0.0040 -0.2458  0.3609
 7729TIP3    H123151   0.988   3.915   2.900 -2.2970  0.3813  1.7462
 7729TIP3    H223152   1.093   3.810   2.931  0.5394  2.1922 -1.1299
 7730TIP3   OH223153   4.655   1.134   5.519 -0.0299  0.0967 -0.0477
 7730TIP3    H123154   4.696   1.186   5.588 -0.0337 -1.7409  1.4188
 7730TIP3    H223155   4.729   1.098   5.469  0.2660 -2.3241  1.9270
 7731TIP3   OH223156   6.750   3.205   5.529 -0.3882  0.3225  0.7180
 7731TIP3    H123157   6.716   3.126   5.487  0.0755  0.7524 -0.5417
 7731TIP3    H223158   6.704   3.277   5.484 -0.9888  0.7764  2.0097
 7732TIP3   OH223159   5.965   6.087   3.911  0.3080 -0.2789 -0.4549
 7732TIP3    H123160   5.875   6.064   3.893 -0.5958  1.7519  1.0320
 7732TIP3    H223161   5.997   6.129   3.831 -1.1164  1.7087 -0.0640
 7733TIP3   OH223162   0.106   0.290   1.775 -0.6395 -0.8573 -0.2537
 7733TIP3    H123163   0.027   0.284   1.722 -0.2907  0.9253 -1.0325
 7733TIP3    H223164   0.177   0.307   1.713 -0.1227  0.6222  0.6847
 7734TIP3   OH223165   1.338   5.501   2.316 -0.5089 -0.2635  0.2851
 7734TIP3    H123166   1.433   5.513   2.316 -0.4680 -0.5235 -1.1309
 7734TIP3    H223167   1.317   5.484   2.408  0.6972  0.6390  0.7590
 7735TIP3   OH223168   4.277   5.578   3.035 -0.1757 -0.3078 -0.1798
 7735TIP3    H123169   4.229   5.523   3.097  0.3928  0.8853  1.3888
 7735TIP3    H223170   4.254   5.668   3.060 -0.1235  0.2118 -1.8840
 7736TIP3   OH223171   5.939   6.327   0.899  0.0200 -0.1140 -0.4145
 7736TIP3    H123172   5.961   6.287   0.983 -3.6029  1.0511  1.3001
 7736TIP3    H223173   5.961   6.420   0.910  0.0073 -0.0439 -0.9350
 7737TIP3   OH223174   3.335   4.132   0.238  0.2894  0.1848  0.2224
 7737TIP3    H123175   3.375   4.183   0.168  1.0505 -1.3233 -0.4993
 7737TIP3    H223176   3.305   4.052   0.195 -0.4084 -0.2106  1.4016
 7738TIP3   OH223177   4.326   0.591   2.745 -0.7157  0.8460 -0.2250
 7738TIP3    H123178   4.399   0.609   2.804  0.1629 -2.3219 -0.1630
 7738TIP3    H223179   4.365   0.583   2.659 -1.5681  2.4759 -0.8124
 7739TIP3   OH223180   4.407   1.863   3.659  0.4495 -0.0625 -0.4010
 7739TIP3    H123181   4.466   1.937   3.676  0.2379  0.0653 -0.2154
 7739TIP3    H223182   4.330   1.904   3.618  0.0742 -0.1034  0.2634
 7740TIP3   OH223183   2.290   1.648   5.464  0.0876 -0.4139 -0.2951
 7740TIP3    H123184   2.271   1.724   5.518  0.6472 -1.4865  1.5021
 7740TIP3    H223185   2.354   1.678   5.400 -0.6477  0.9098 -0.4407
 7741TIP3   OH223186   2.368   4.484   3.524 -0.3470 -0.2235  0.3150
 7741TIP3    H123187   2.329   4.432   3.454 -0.3957 -2.1179  1.6818
 7741TIP3    H223188   2.408   4.420   3.583  0.9644  1.3949  1.2903
 7742TIP3   OH223189   3.880   3.141   5.768 -0.2251 -0.1370 -0.0859
 7742TIP3    H123190   3.960   3.099   5.734 -1.1452 -2.3403  0.3613
 7742TIP3    H223191   3.816   3.071   5.773 -1.3312  0.9557  2.4398
 7743TIP3   OH223192   6.838   5.245   0.960 -0.1495  0.2892 -0.4495
 7743TIP3    H123193   6.781   5.306   1.007 -0.7357 -0.7285  0.1960
 7743TIP3    H223194   6.798   5.236   0.873 -2.5512 -2.3771  0.7874
 7744TIP3   OH223195   5.579   1.657   2.030 -0.3106 -0.5146  0.1440
 7744TIP3    H123196   5.629   1.577   2.045 -0.4663 -1.0293 -1.8057
 7744TIP3    H223197   5.645   1.725   2.017 -0.1302 -0.7739 -0.3228
 7745TIP3   OH223198   3.837   6.016   3.117 -0.5076  0.2481 -0.1943
 7745TIP3    H123199   3.766   6.002   3.054 -1.2528 -0.7916  0.8245
 7745TIP3    H223200   3.909   6.051   3.065 -0.4591 -2.2291 -1.9809
 7746TIP3   OH223201   6.621   3.178   2.196 -0.5957 -0.2880 -0.2861
 7746TIP3    H123202   6.562   3.253   2.190 -0.4716 -0.2202 -0.7512
 7746TIP3    H223203   6.581   3.120   2.261 -0.8289  0.0597 -0.1179
 7747TIP3   OH223204   4.771   0.943   0.962  1.0161 -0.1311 -0.1396
 7747TIP3    H123205   4.685   0.903   0.976  0.6202  0.8560  0.2887
 7747TIP3    H223206   4.789   0.927   0.869  0.4076 -0.4108 -0.2191
 7748TIP3   OH223207   3.623   0.202   4.065  0.1141  0.0579 -0.3193
 7748TIP3    H123208   3.717   0.221   4.070 -0.1535  1.2728  0.7158
 7748TIP3    H223209   3.590   0.227   4.151 -0.9916 -1.4247 -0.2817
 7749TIP3   OH223210   3.868   3.041   2.119 -0.0002 -0.1524 -0.2156
 7749TIP3    H123211   3.841   2.971   2.178 -0.6174 -0.9310 -1.3930
 7749TIP3    H223212   3.909   2.996   2.045  1.4074  0.8394 -0.0843
 7750TIP3   OH223213   6.152   2.652   1.265  0.3899 -0.0531  0.4165
 7750TIP3    H123214   6.247   2.661   1.272  0.3650  0.5481  0.0489
 7750TIP3    H223215   6.139   2.587   1.196  0.5292  0.6499 -0.2811
 7751TIP3   OH223216   3.091   1.340   0.087  0.3256 -0.6507 -0.1582
 7751TIP3    H123217   3.153   1.277   0.125  0.0444 -0.1104  1.2897
 7751TIP3    H223218   3.005   1.302   0.106  0.1709 -0.1725  0.0963
 7752TIP3   OH223219   5.434   6.255   3.791  0.0402 -0.0381 -0.2806
 7752TIP3    H123220   5.384   6.256   3.872 -0.4856  2.0086 -0.5774
 7752TIP3    H223221   5.518   6.293   3.814 -0.0536  0.4082 -0.6634
 7753TIP3   OH223222   1.117   5.556   3.428 -0.1919 -0.0853  0.0131
 7753TIP3    H123223   1.080   5.642   3.446 -0.8834 -0.5304  0.7719
 7753TIP3    H223224   1.083   5.499   3.498  1.7494 -0.5670  0.6392
 7754TIP3   OH223225   0.411   1.054   2.619 -0.3136  0.4885  0.3505
 7754TIP3    H123226   0.359   1.113   2.564  0.2432  0.8052  0.1572
 7754TIP3    H223227   0.497   1.052   2.577 -0.0812  0.2068  0.8371
 7755TIP3   OH223228   2.041   4.564   0.206  0.1356  0.0447 -0.3887
 7755TIP3    H123229   2.079   4.487   0.164 -0.9956  1.1400 -3.7887
 7755TIP3    H223230   2.112   4.629   0.205  0.9445 -0.6944  2.0543
 7756TIP3   OH223231   3.396   5.374   3.408  0.0207 -0.7814 -0.0422
 7756TIP3    H123232   3.476   5.400   3.453 -1.1452  1.0850  1.0815
 7756TIP3    H223233   3.423   5.359   3.317  1.7055 -0.6754  0.4072
 7757TIP3   OH223234   0.914   4.713   3.893  0.1101 -0.2168  0.6479
 7757TIP3    H123235   0.848   4.659   3.936 -0.9036  1.4505  1.2254
 7757TIP3    H223236   0.924   4.790   3.948 -0.1068  1.2674 -1.2662
 7758TIP3   OH223237   1.610   0.075   5.116  0.2005  0.0782 -0.9050
 7758TIP3    H123238   1.626   0.168   5.104 -3.0535  0.8755 -0.0252
 7758TIP3    H223239   1.686   0.044   5.165  1.5809  2.1179 -1.6140
 7759TIP3   OH223240   0.068   1.245   3.002  0.4678 -0.4152 -0.5518
 7759TIP3    H123241   0.133   1.176   2.992 -0.1055 -1.0279 -0.1233
 7759TIP3    H223242  -0.005   1.203   3.047  0.1820  0.5190 -0.1266
 7760TIP3   OH223243   4.848   1.063   0.508  0.2539  0.4555  0.4600
 7760TIP3    H123244   4.833   1.156   0.525  0.1061  0.2051  1.8126
 7760TIP3    H223245   4.942   1.056   0.492  0.2557  0.8438  0.2964
 7761TIP3   OH223246   0.977   2.092   4.060  0.0424 -0.2146 -0.2268
 7761TIP3    H123247   0.966   2.144   3.980  0.1432 -0.5787 -0.4803
 7761TIP3    H223248   1.063   2.118   4.094 -0.3675  0.5878  0.2489
 7762TIP3   OH223249   0.971   0.757   0.257 -0.6318  0.0737 -0.5687
 7762TIP3    H123250   0.960   0.677   0.310 -1.2740  0.4610 -0.1028
 7762TIP3    H223251   0.911   0.745   0.183 -1.1526  0.3520 -0.2068
 7763TIP3   OH223252   2.989   3.027   1.431  0.0892 -0.6149  0.1738
 7763TIP3    H123253   2.951   3.071   1.355  0.5167  0.8871  0.7979
 7763TIP3    H223254   3.065   2.981   1.396  0.1768 -0.0892 -0.3533
 7764TIP3   OH223255   0.464   5.674   2.294 -0.1244  0.3029 -0.6819
 7764TIP3    H123256   0.543   5.651   2.245  0.3994  1.3539 -0.3663
 7764TIP3    H223257   0.412   5.594   2.294  1.2021 -0.5965 -0.3966
 7765TIP3   OH223258   5.575   4.005   1.403  0.1568  0.5068  0.0112
 7765TIP3    H123259   5.491   4.009   1.359  0.2283  0.0973 -0.1737
 7765TIP3    H223260   5.554   3.996   1.496 -0.0012  0.5023 -0.0259
 7766TIP3   OH223261   0.432   0.286   0.589  0.3745 -0.6490 -0.1153
 7766TIP3    H123262   0.507   0.230   0.610  0.2921 -0.1476  1.6743
 7766TIP3    H223263   0.452   0.369   0.632 -0.4646  0.0238 -0.9954
 7767TIP3   OH223264   4.581   2.503   0.484  0.1757 -0.4424  0.3927
 7767TIP3    H123265   4.502   2.449   0.488 -0.4008  0.3683  0.0177
 7767TIP3    H223266   4.563   2.578   0.540  1.2327 -0.9340  1.4476
 7768TIP3   OH223267   5.905   4.503   3.984  0.3100 -0.0410  0.3673
 7768TIP3    H123268   5.883   4.555   4.061 -1.6031 -0.4661  0.1600
 7768TIP3    H223269   5.952   4.427   4.019 -0.1978 -0.0371  1.0912
 7769TIP3   OH223270   2.537   1.502   5.756 -0.0467 -0.1278  0.0548
 7769TIP3    H123271   2.484   1.475   5.680 -0.8348 -0.4843  0.7102
 7769TIP3    H223272   2.541   1.423   5.810  0.5158  0.1266  0.3857
 7770TIP3   OH223273   0.305   1.150   5.060 -0.1304  0.6480 -0.3145
 7770TIP3    H123274   0.367   1.078   5.050 -0.8200  0.0799 -0.5206
 7770TIP3    H223275   0.358   1.222   5.095  0.1042 -0.6997  2.3944
 7771TIP3   OH223276   5.047   6.049   3.039 -0.2019  0.0022 -0.0559
 7771TIP3    H123277   5.027   5.973   2.986  0.6915  0.6354 -1.3509
 7771TIP3    H223278   4.964   6.072   3.081 -1.1059 -0.1549 -1.6729
 7772TIP3   OH223279   5.715   3.292   3.057 -0.0521 -0.4441 -0.0625
 7772TIP3    H123280   5.758   3.276   2.973  1.8284  1.2553  0.5021
 7772TIP3    H223281   5.784   3.281   3.122 -0.2612  2.7346  0.8797
 7773TIP3   OH223282  -0.019   4.033   4.782  0.2653  0.0330 -0.6811
 7773TIP3    H123283   0.069   4.003   4.804 -0.2049 -0.5443  0.5207
 7773TIP3    H223284  -0.043   3.984   4.704  0.4141 -0.9827 -0.1009
 7774TIP3   OH223285   2.189   2.284   3.431  0.5283 -0.1822 -0.1457
 7774TIP3    H123286   2.249   2.358   3.425 -0.5918  0.6518 -1.6893
 7774TIP3    H223287   2.141   2.297   3.513 -0.3353  1.3784 -0.8593
 7775TIP3   OH223288   3.564   6.112   3.962 -0.1518  0.4472 -0.3519
 7775TIP3    H123289   3.471   6.136   3.960 -0.1427  0.4235 -1.2303
 7775TIP3    H223290   3.609   6.186   3.922  0.0251 -0.3300 -1.6332
 7776TIP3   OH223291   5.069   6.104   3.940 -0.0800  0.5958 -0.6895
 7776TIP3    H123292   5.113   6.188   3.939  2.1242 -0.4565  0.6566
 7776TIP3    H223293   5.095   6.062   3.858  0.6834  0.3633 -0.3382
 7777TIP3   OH223294   3.989   6.412   2.827 -0.1314  0.1215  0.0268
 7777TIP3    H123295   3.978   6.459   2.745  2.0436  1.4442  0.4037
 7777TIP3    H223296   4.058   6.348   2.810 -0.5287 -0.4530  0.5027
 7778TIP3   OH223297   1.541   4.656   1.422  0.6057 -0.0378 -0.2166
 7778TIP3    H123298   1.487   4.632   1.498 -0.1046 -2.8180 -1.4549
 7778TIP3    H223299   1.629   4.666   1.457 -0.0544  0.8104  1.2733
 7779TIP3   OH223300   3.386   5.628   0.087 -0.2102  0.1248  0.2614
 7779TIP3    H123301   3.475   5.640   0.120  0.4017  1.9134 -1.7669
 7779TIP3    H223302   3.330   5.628   0.164  1.5221 -1.1241  1.5894
 7780TIP3   OH223303   2.028   6.457   4.136 -0.0544 -0.1579  0.1311
 7780TIP3    H123304   1.940   6.494   4.125 -0.5779 -1.3890  0.0196
 7780TIP3    H223305   2.014   6.363   4.146  1.2964 -0.4443 -0.3950
 7781TIP3   OH223306   5.293   4.428   2.520 -0.1945 -0.0404  0.0892
 7781TIP3    H123307   5.282   4.437   2.425  0.6075 -2.7748 -0.3568
 7781TIP3    H223308   5.233   4.357   2.544  2.1925 -1.9172  0.9157
 7782TIP3   OH223309   1.616   6.318   1.059  0.1575  0.1446  0.2265
 7782TIP3    H123310   1.704   6.322   1.020  0.3371 -1.5331  0.4012
 7782TIP3    H223311   1.558   6.301   0.985  0.1836 -0.3294  0.3081
 7783TIP3   OH223312   1.983   5.998   0.147  0.4863 -0.2771  0.3296
 7783TIP3    H123313   1.945   6.019   0.062  1.2282 -1.8707 -0.4378
 7783TIP3    H223314   2.053   6.063   0.158  0.8134 -0.4498 -0.5960
 7784TIP3   OH223315   1.029   5.868   5.771 -0.1341  0.3304 -0.3525
 7784TIP3    H123316   1.119   5.862   5.804 -0.4477 -0.7644  0.3804
 7784TIP3    H223317   1.016   5.961   5.753  0.4802  0.8414  1.5325
 7785TIP3   OH223318   3.939   3.315   3.150 -0.2244 -0.5597 -0.8136
 7785TIP3    H123319   3.906   3.402   3.174  1.2359  0.3509 -1.9588
 7785TIP3    H223320   3.994   3.290   3.224 -2.1439 -1.4313  0.4188
 7786TIP3   OH223321   6.350   4.566   3.066 -0.3541  0.3733  0.3362
 7786TIP3    H123322   6.361   4.657   3.038  0.2487  0.3228  0.4002
 7786TIP3    H223323   6.414   4.517   3.013 -1.3174 -0.1496 -0.3791
 7787TIP3   OH223324   1.860   3.656   3.716 -0.0944  0.5198 -0.2067
 7787TIP3    H123325   1.827   3.615   3.796  0.1563  1.0210  0.1653
 7787TIP3    H223326   1.792   3.719   3.691 -0.0377  0.5788 -0.2145
 7788TIP3   OH223327   3.230   1.312   3.696 -0.5762  0.5417 -0.3466
 7788TIP3    H123328   3.286   1.253   3.647 -0.4666  0.6503 -0.3534
 7788TIP3    H223329   3.242   1.398   3.654  1.1554  1.1028  1.1487
 7789TIP3   OH223330   6.178   5.001   4.518 -0.1709 -0.1006 -0.5134
 7789TIP3    H123331   6.114   5.063   4.483 -0.5785 -0.7553 -0.9470
 7789TIP3    H223332   6.126   4.924   4.541  0.0928  0.2702  1.4631
 7790TIP3   OH223333   6.392   5.869   2.708  0.1574  0.3651  0.4363
 7790TIP3    H123334   6.476   5.899   2.674 -1.2467  2.5011 -1.4106
 7790TIP3    H223335   6.370   5.792   2.655 -0.2289  1.3863 -0.9431
 7791TIP3   OH223336   6.505   6.447   0.991  0.5152 -0.3107 -0.3556
 7791TIP3    H123337   6.467   6.534   0.994  1.3924  0.0836 -0.5698
 7791TIP3    H223338   6.534   6.431   1.081  0.3594 -0.3862 -0.3176
 7792TIP3   OH223339   6.741   6.577   3.867 -0.0356 -0.2400 -0.5385
 7792TIP3    H123340   6.769   6.646   3.807  2.3225 -0.1007  0.6064
 7792TIP3    H223341   6.655   6.551   3.835  0.1755  1.3455 -2.6195
 7793TIP3   OH223342   6.791   1.840   5.515 -0.3427  0.3215 -0.3842
 7793TIP3    H123343   6.875   1.834   5.470 -0.1556 -2.9156  0.1203
 7793TIP3    H223344   6.726   1.828   5.446 -0.3481  1.2951 -0.5600
 7794TIP3   OH223345   4.921   5.359   2.741 -0.2297  0.1866 -0.3962
 7794TIP3    H123346   4.855   5.412   2.785  0.0207  0.5433 -0.4502
 7794TIP3    H223347   4.883   5.340   2.655 -0.5529 -0.1897 -0.1763
 7795TIP3   OH223348   2.287   1.917   1.943  0.2963 -0.2881 -0.1889
 7795TIP3    H123349   2.310   1.827   1.967 -0.9959 -0.2875  1.2033
 7795TIP3    H223350   2.260   1.958   2.026 -2.7509  0.2657 -1.3416
 7796TIP3   OH223351   3.181   4.794   0.592 -0.3415  0.4258 -0.1964
 7796TIP3    H123352   3.253   4.737   0.619 -0.4293  0.7024  0.6605
 7796TIP3    H223353   3.184   4.793   0.497 -0.7752 -1.5453 -0.2142
 7797TIP3   OH223354   3.977   0.280   0.806 -0.6864  0.0042  0.1814
 7797TIP3    H123355   3.977   0.324   0.891  0.5868  1.3904 -0.4981
 7797TIP3    H223356   4.034   0.204   0.819 -0.4402  0.2465  0.5459
 7798TIP3   OH223357   3.298   3.751   5.417 -0.1546  0.4725  0.0200
 7798TIP3    H123358   3.262   3.732   5.330  0.1515 -1.9449  0.3563
 7798TIP3    H223359   3.366   3.685   5.429  0.7315  1.6337  1.5641
 7799TIP3   OH223360   6.472   1.837   0.597  0.2445 -0.0177  0.5389
 7799TIP3    H123361   6.456   1.791   0.515  1.0099 -1.2696  1.0650
 7799TIP3    H223362   6.565   1.823   0.616  0.3800  1.2930  1.0118
 7800TIP3   OH223363   2.868   5.544   3.287 -0.5665 -0.3480  0.3093
 7800TIP3    H123364   2.886   5.628   3.245  0.8924  0.2021  1.8941
 7800TIP3    H223365   2.926   5.482   3.243 -0.5930 -0.2281  0.1039
 7801TIP3   OH223366   2.192   2.022   0.036  0.2690  0.4035 -0.2755
 7801TIP3    H123367   2.258   2.057   0.097  0.1816 -0.8634  0.5876
 7801TIP3    H223368   2.122   2.087   0.038  0.0236  0.1466  1.4398
 7802TIP3   OH223369   3.689   1.433   2.837 -0.7392  0.6217  0.3144
 7802TIP3    H123370   3.657   1.356   2.790 -1.2592  0.8684  0.2522
 7802TIP3    H223371   3.784   1.430   2.826 -0.5213 -1.1597  2.0694
 7803TIP3   OH223372   3.751   0.128   4.600 -0.1208  0.0445 -0.2200
 7803TIP3    H123373   3.786   0.134   4.689 -0.3138 -2.3247  0.0630
 7803TIP3    H223374   3.827   0.143   4.543  0.3964 -0.3612  0.3565
 7804TIP3   OH223375   2.065   6.386   1.575  0.0729 -0.1149 -0.1173
 7804TIP3    H123376   2.067   6.480   1.591 -0.0141 -0.0816 -0.3070
 7804TIP3    H223377   2.007   6.351   1.642 -0.7941  0.0988 -0.7446
 7805TIP3   OH223378   3.686   0.475   0.024  0.1337 -0.1325  0.1532
 7805TIP3    H123379   3.640   0.395   0.049  1.8681 -1.5715 -1.0228
 7805TIP3    H223380   3.722   0.509   0.106 -0.0431 -0.9339  0.5718
 7806TIP3   OH223381   6.197   2.434   1.463 -0.0557  0.0704 -0.0811
 7806TIP3    H123382   6.150   2.516   1.448 -0.1097 -0.0094 -0.3513
 7806TIP3    H223383   6.233   2.411   1.378 -1.0330 -0.8027 -0.2877
 7807TIP3   OH223384   5.660   0.805   5.497 -0.0636 -0.0707  0.0634
 7807TIP3    H123385   5.578   0.820   5.450 -0.3784 -0.9711  0.2939
 7807TIP3    H223386   5.638   0.736   5.561  0.4782  0.7763  1.1987
 7808TIP3   OH223387   3.906   6.475   3.928  0.1840  0.2198 -0.6716
 7808TIP3    H123388   3.943   6.496   3.842  0.1337  1.0646 -0.4946
 7808TIP3    H223389   3.854   6.396   3.913  1.1696 -0.3559 -1.1542
 7809TIP3   OH223390   2.161   1.168   0.220  0.6694 -0.4861  0.2419
 7809TIP3    H123391   2.140   1.138   0.131  2.1894  0.5653 -0.5037
 7809TIP3    H223392   2.184   1.260   0.209 -0.3850  0.0179  1.9497
 7810TIP3   OH223393   3.500   3.260   0.258 -0.5216  0.3363  0.1784
 7810TIP3    H123394   3.593   3.275   0.246  0.0975 -0.8200  2.9545
 7810TIP3    H223395   3.484   3.175   0.217 -0.3804  0.5190 -0.2667
 7811TIP3   OH223396   6.029   2.707   2.353  0.3201 -0.1950  0.4285
 7811TIP3    H123397   5.990   2.660   2.279 -1.8907 -0.0985  1.4510
 7811TIP3    H223398   6.035   2.640   2.422  0.7670  0.1123  0.6851
 7812TIP3   OH223399   1.777   5.207   5.457  0.5231  0.1111  0.0417
 7812TIP3    H123400   1.751   5.128   5.503  0.8289  1.4026  2.5858
 7812TIP3    H223401   1.699   5.262   5.456  1.2167  1.1710  1.4696
 7813TIP3   OH223402   1.240   3.413   0.694 -0.1130 -0.2643  0.3773
 7813TIP3    H123403   1.289   3.374   0.621  0.1294  0.8416 -0.0741
 7813TIP3    H223404   1.301   3.410   0.768  0.1477 -0.1112  0.1682
 7814TIP3   OH223405   3.397   5.199   5.571  0.0892  0.6542 -0.2356
 7814TIP3    H123406   3.353   5.126   5.614  1.2465  0.4974  0.7367
 7814TIP3    H223407   3.408   5.171   5.480  0.2321 -0.2593  0.0571
 7815TIP3   OH223408   5.519   6.603   1.665  0.3152  0.8032  0.6673
 7815TIP3    H123409   5.526   6.596   1.761 -1.6469  3.0469  1.0543
 7815TIP3    H223410   5.478   6.688   1.650  1.0734  0.7435 -2.2335
 7816TIP3   OH223411   5.667   3.486   2.050  0.7970 -0.4252 -0.3249
 7816TIP3    H123412   5.755   3.457   2.075  0.3755 -0.6488  0.9948
 7816TIP3    H223413   5.619   3.490   2.133 -0.9849 -2.0705 -1.1936
 7817TIP3   OH223414   1.409   4.922   1.530  0.1322  0.0010 -0.6921
 7817TIP3    H123415   1.411   4.980   1.454  0.1893 -1.7796 -2.1265
 7817TIP3    H223416   1.345   4.855   1.507 -0.7307  0.0439  1.3644
 7818TIP3   OH223417   0.434   5.398   4.355  0.1094  0.5447  0.1281
 7818TIP3    H123418   0.443   5.438   4.269  0.4328  0.0727 -0.0614
 7818TIP3    H223419   0.359   5.442   4.395  0.3305  1.1872 -0.1553
 7819TIP3   OH223420   1.927   0.469   5.494  0.0138 -0.2071 -0.3093
 7819TIP3    H123421   1.903   0.562   5.500  0.4968 -0.1253  0.4750
 7819TIP3    H223422   1.853   0.428   5.449  0.4827  0.8141 -2.1386
 7820TIP3   OH223423   3.944   2.391   3.140 -0.1633 -0.0821  0.1257
 7820TIP3    H123424   3.975   2.301   3.150 -0.5772 -0.2281  0.1416
 7820TIP3    H223425   3.971   2.416   3.052 -0.5661 -0.4408 -0.1102
 7821TIP3   OH223426   4.031   0.801   3.170  0.5589 -0.0907  0.6776
 7821TIP3    H123427   4.003   0.890   3.150 -0.9409 -0.5189  0.7361
 7821TIP3    H223428   4.125   0.809   3.187  0.7240  1.2404 -0.6500
 7822TIP3   OH223429   5.474   4.331   4.051  0.8307 -0.1940  0.4953
 7822TIP3    H123430   5.408   4.270   4.019 -0.3236  0.7164  1.0830
 7822TIP3    H223431   5.522   4.358   3.973  0.1445 -0.4291 -0.0166
 7823TIP3   OH223432   6.606   4.670   0.965 -0.0732  0.1436 -0.5308
 7823TIP3    H123433   6.601   4.743   0.903  2.8606  0.6918 -0.3077
 7823TIP3    H223434   6.675   4.613   0.929  0.8491 -0.1526  1.5486
 7824TIP3   OH223435   3.841   1.101   4.092  0.3247 -0.0103 -0.0325
 7824TIP3    H123436   3.890   1.109   4.010  0.2291  0.5848 -0.0329
 7824TIP3    H223437   3.905   1.065   4.154  0.6153  0.2538 -0.1724
 7825TIP3   OH223438   2.015   6.115   3.407  0.1281  0.4234  0.2067
 7825TIP3    H123439   2.047   6.205   3.416  0.0762  0.2181  3.9338
 7825TIP3    H223440   1.921   6.122   3.418  0.3192 -0.1937  2.8935
 7826TIP3   OH223441   5.514   3.065   1.915 -0.3460  0.2712 -0.2299
 7826TIP3    H123442   5.499   3.159   1.911 -1.6656  0.0257 -3.2658
 7826TIP3    H223443   5.448   3.033   1.976 -1.0795  1.1360 -0.5377
 7827TIP3   OH223444   1.624   5.100   4.041  0.2441  0.2113  0.5818
 7827TIP3    H123445   1.543   5.126   4.084  0.0594 -1.9468  1.6214
 7827TIP3    H223446   1.692   5.118   4.105  0.2127 -0.9621  0.9574
 7828TIP3   OH223447   6.248   5.810   4.476  0.2662 -0.4292 -0.2025
 7828TIP3    H123448   6.255   5.727   4.428  3.4395  0.9013 -2.4298
 7828TIP3    H223449   6.247   5.784   4.568 -2.9518 -3.0020 -0.7757
 7829TIP3   OH223450   0.670   3.474   4.787 -0.5558  0.2213  0.4756
 7829TIP3    H123451   0.676   3.495   4.694  1.4872 -2.9095 -0.2598
 7829TIP3    H223452   0.697   3.554   4.831  1.3011  0.9591 -1.7813
 7830TIP3   OH223453   3.422   2.192   1.921 -0.4629  0.0122  0.4921
 7830TIP3    H123454   3.486   2.129   1.955 -3.2628 -2.7253  1.1897
 7830TIP3    H223455   3.466   2.277   1.926  2.8523 -1.6111  1.3850
 7831TIP3   OH223456   2.675   0.727   1.411 -0.3585  0.6189  0.1867
 7831TIP3    H123457   2.671   0.642   1.456  0.2148  0.2341 -0.4698
 7831TIP3    H223458   2.768   0.738   1.390 -0.5435  1.0586 -0.3958
 7832TIP3   OH223459   7.077   6.190   3.097  0.1494 -0.1382  0.2389
 7832TIP3    H123460   7.171   6.175   3.102  0.4443  1.7217  1.1401
 7832TIP3    H223461   7.068   6.272   3.050 -1.0544 -0.4817 -0.1567
 7833TIP3   OH223462   6.909   3.172   2.180  0.2484  0.0750  0.1734
 7833TIP3    H123463   6.947   3.145   2.264  1.0696  1.4451  0.2686
 7833TIP3    H223464   6.814   3.164   2.193  0.4135 -1.4127  0.6223
 7834TIP3   OH223465   4.737   0.833   5.703 -0.7257  0.0615 -0.0382
 7834TIP3    H123466   4.795   0.906   5.681 -1.0567  0.5541  0.6914
 7834TIP3    H223467   4.661   0.874   5.746 -1.9726 -0.4893 -1.6189
 7835TIP3   OH223468   3.784   1.991   5.470 -0.1726 -0.5524  0.6563
 7835TIP3    H123469   3.838   1.977   5.393 -0.7116  1.5030 -0.1652
 7835TIP3    H223470   3.824   2.066   5.514 -2.4190  1.2291 -0.1250
 7836TIP3   OH223471   2.334   2.971   4.812 -0.2603 -0.3347 -0.0335
 7836TIP3    H123472   2.296   2.919   4.883  0.6449  0.5234  1.1375
 7836TIP3    H223473   2.313   3.061   4.835 -0.9655 -0.1051 -1.5119
 7837TIP3   OH223474   4.854   0.121   1.824  0.2260 -0.2966 -0.2949
 7837TIP3    H123475   4.804   0.040   1.840 -1.6311  0.7492 -0.5058
 7837TIP3    H223476   4.824   0.150   1.738 -0.3092  1.3927  0.4177
 7838TIP3   OH223477   5.181   5.302   0.292 -0.4746 -0.2385  0.3441
 7838TIP3    H123478   5.123   5.318   0.366 -0.9878  1.7827 -0.4370
 7838TIP3    H223479   5.122   5.272   0.222 -0.1727 -0.8598  0.3478
 7839TIP3   OH223480   3.535   3.809   1.101  0.1328  0.4413 -0.3103
 7839TIP3    H123481   3.502   3.899   1.098  0.9376  0.7438 -0.2622
 7839TIP3    H223482   3.597   3.804   1.029 -0.4700 -0.3117 -0.7876
 7840TIP3   OH223483   2.282   3.210   4.953  0.0970  0.5157 -0.1603
 7840TIP3    H123484   2.210   3.258   4.912  0.2337  0.8914  0.0332
 7840TIP3    H223485   2.328   3.276   5.006  0.6824  0.3186 -0.4149
 7841TIP3   OH223486   3.851   3.625   1.989 -0.1388 -0.6327 -0.4393
 7841TIP3    H123487   3.805   3.693   1.940 -0.8821 -0.3857  0.5786
 7841TIP3    H223488   3.782   3.572   2.028  0.4388 -1.5967 -0.6842
 7842TIP3   OH223489   5.803   3.411   2.441 -0.2341 -0.2188 -0.3400
 7842TIP3    H123490   5.828   3.476   2.507 -0.9959  0.4017 -0.6463
 7842TIP3    H223491   5.860   3.336   2.459  0.3736  0.3695  0.2857
 7843TIP3   OH223492   5.838   1.898   3.384  0.0665 -0.1669  0.0584
 7843TIP3    H123493   5.802   1.857   3.305  0.7972  2.1040 -1.5647
 7843TIP3    H223494   5.821   1.991   3.372  2.6830  0.5453  1.2442
 7844TIP3   OH223495   3.497   4.513   1.859 -0.1481 -0.2842 -0.0019
 7844TIP3    H123496   3.580   4.475   1.830 -0.3155 -0.4707 -0.2391
 7844TIP3    H223497   3.455   4.542   1.778 -1.1093 -1.8062 -0.0779
 7845TIP3   OH223498   5.670   4.918   3.898 -0.0199  0.0232  0.3423
 7845TIP3    H123499   5.696   4.850   3.835  3.2537  0.6074  0.9068
 7845TIP3    H223500   5.642   4.869   3.975 -0.9450 -0.6736 -0.4101
 7846TIP3   OH223501   6.647   3.687   1.941 -0.4643 -0.6806 -0.1825
 7846TIP3    H123502   6.692   3.721   1.864 -2.0209  1.0811 -0.3767
 7846TIP3    H223503   6.676   3.744   2.013 -1.5497 -0.1823 -0.1220
 7847TIP3   OH223504   5.946   2.836   5.185  0.5996 -0.1860 -0.1171
 7847TIP3    H123505   5.864   2.884   5.173  1.0131  0.6825  0.3865
 7847TIP3    H223506   5.977   2.863   5.272  2.3322  0.9462 -1.0349
 7848TIP3   OH223507   7.055   2.573   0.867  0.8829 -0.2439 -0.3241
 7848TIP3    H123508   7.115   2.627   0.917 -0.4266  0.6591  0.3357
 7848TIP3    H223509   7.049   2.616   0.781  0.0439  0.5639  0.1137
 7849TIP3   OH223510   3.342   4.211   3.625  0.4925 -0.5113 -0.0611
 7849TIP3    H123511   3.411   4.187   3.687 -0.0812 -0.3877  0.6416
 7849TIP3    H223512   3.348   4.145   3.556 -0.2457 -1.9997  1.2103
 7850TIP3   OH223513   5.813   5.433   3.103 -0.1984 -0.2166 -0.2923
 7850TIP3    H123514   5.868   5.409   3.029 -0.1643  0.2429 -0.4139
 7850TIP3    H223515   5.837   5.523   3.124  0.8280 -0.7750  1.1826
 7851TIP3   OH223516   0.582   0.606   0.928 -0.1383  0.2538  0.2580
 7851TIP3    H123517   0.526   0.650   0.991 -1.4645 -0.8710 -0.0876
 7851TIP3    H223518   0.587   0.515   0.959  0.1352 -0.0435 -0.6086
 7852TIP3   OH223519   4.771   0.597   5.868  0.0258 -1.1521  0.5278
 7852TIP3    H123520   4.843   0.623   5.925 -1.2424 -0.6072  1.9701
 7852TIP3    H223521   4.765   0.668   5.803  0.6992 -1.1399  0.4790
 7853TIP3   OH223522   2.833   1.275   3.118 -0.0441  0.0785  0.4700
 7853TIP3    H123523   2.770   1.210   3.087 -0.4094  0.4053  0.5222
 7853TIP3    H223524   2.860   1.242   3.204 -1.0230  0.5272  0.9689
 7854TIP3   OH223525   2.039   5.169   0.468 -0.0694 -0.2349  0.3416
 7854TIP3    H123526   2.049   5.089   0.417  1.1585  0.4322 -0.5042
 7854TIP3    H223527   2.125   5.211   0.466 -0.9428  1.6615 -0.1868
 7855TIP3   OH223528   4.874   3.743   1.349 -0.3290  0.2471  0.8074
 7855TIP3    H123529   4.849   3.775   1.261  1.1833 -0.7397 -0.0199
 7855TIP3    H223530   4.925   3.815   1.386 -0.8778  0.6231  0.8641
 7856TIP3   OH223531   4.790   6.421   5.386  0.2648 -0.0061  0.4597
 7856TIP3    H123532   4.871   6.472   5.379  0.5583 -0.6671 -1.4279
 7856TIP3    H223533   4.816   6.341   5.431  0.7072 -0.2934 -0.2982
 7857TIP3   OH223534   6.811   4.652   0.373 -0.1580 -0.0887  0.2875
 7857TIP3    H123535   6.768   4.670   0.456 -0.4809 -1.3897  0.4276
 7857TIP3    H223536   6.900   4.627   0.397  0.4788  1.8282  0.0528
 7858TIP3   OH223537   1.234   4.131   1.842 -0.2178  0.6367 -0.0312
 7858TIP3    H123538   1.153   4.117   1.794  0.5980 -2.1493 -0.7856
 7858TIP3    H223539   1.303   4.102   1.782  1.1768  1.1547  1.2543
 7859TIP3   OH223540   0.464   4.742   0.462 -0.2162 -0.1891  0.0123
 7859TIP3    H123541   0.491   4.671   0.520  0.6369  0.1306  0.0200
 7859TIP3    H223542   0.415   4.698   0.392 -0.5802 -0.6636  0.5480
 7860TIP3   OH223543   4.967   2.795   1.991  0.1667  0.5862 -0.2510
 7860TIP3    H123544   4.952   2.889   1.996  0.5675  0.5923  1.2270
 7860TIP3    H223545   4.925   2.760   2.069  1.0694 -0.3063 -0.1513
 7861TIP3   OH223546   4.140   1.616   1.633  0.4386 -0.1076  0.0920
 7861TIP3    H123547   4.072   1.627   1.700 -0.1876 -1.7085 -0.2404
 7861TIP3    H223548   4.222   1.626   1.680  0.0004 -0.7993  1.0346
 7862TIP3   OH223549   3.505   2.668   3.334 -0.2517  0.3391  0.6251
 7862TIP3    H123550   3.562   2.682   3.409 -1.7306  1.0802  1.6554
 7862TIP3    H223551   3.562   2.628   3.267  1.1095 -0.2602  2.0877
 7863TIP3   OH223552   4.551   3.239   1.974 -0.1608  0.0744  0.2401
 7863TIP3    H123553   4.633   3.191   1.986 -0.8712 -0.9670  1.0840
 7863TIP3    H223554   4.549   3.258   1.880 -0.1645 -2.1879 -0.2972
 7864TIP3   OH223555   2.314   0.074   5.667 -0.5437  0.1923 -0.0209
 7864TIP3    H123556   2.228   0.059   5.707  0.1876  0.4298  1.7434
 7864TIP3    H223557   2.343   0.158   5.702  0.4499  0.0705 -0.5079
 7865TIP3   OH223558   3.336   2.446   4.067 -0.3884  0.3021  0.4499
 7865TIP3    H123559   3.331   2.462   3.973  0.2174 -0.8555  0.1963
 7865TIP3    H223560   3.302   2.357   4.078 -0.3603  0.3869  1.3116
 7866TIP3   OH223561   3.054   4.957   0.776 -0.0101  0.3989 -0.2080
 7866TIP3    H123562   3.044   4.873   0.821  1.8689  0.1396 -0.1993
 7866TIP3    H223563   3.127   4.943   0.715 -0.3222  1.7381 -0.9269
 7867TIP3   OH223564   1.682   0.482   4.175 -0.3271  0.0321 -0.2853
 7867TIP3    H123565   1.672   0.577   4.182 -2.3195 -0.1350 -0.2590
 7867TIP3    H223566   1.634   0.459   4.095 -2.4263 -1.2450  1.2527
 7868TIP3   OH223567   5.258   1.997   5.874  0.0115  0.1738 -0.2484
 7868TIP3    H123568   5.262   2.005   5.779 -0.6296 -3.1585 -0.6926
 7868TIP3    H223569   5.170   1.961   5.890  0.8289 -1.2417  1.3432
 7869TIP3   OH223570   6.864   3.147   3.152  1.0671  0.5730  0.2419
 7869TIP3    H123571   6.883   3.055   3.136  2.9952  1.0562 -0.6305
 7869TIP3    H223572   6.929   3.174   3.217 -0.3696  1.0151  1.5441
 7870TIP3   OH223573   7.120   2.441   2.772 -0.2962  0.8804 -0.1848
 7870TIP3    H123574   7.128   2.366   2.831  0.0152  1.7804  0.9568
 7870TIP3    H223575   7.086   2.512   2.827  0.6012  1.9238 -0.9203
 7871TIP3   OH223576   5.593   1.351   2.989 -0.0919 -0.5033 -0.1060
 7871TIP3    H123577   5.580   1.256   2.983  1.1624 -0.7849  1.1835
 7871TIP3    H223578   5.606   1.368   3.082  0.1835  0.8769 -0.3735
 7872TIP3   OH223579   0.865   1.914   4.395 -0.0776  0.5719 -0.0125
 7872TIP3    H123580   0.957   1.893   4.379 -1.1209 -3.3123 -2.4247
 7872TIP3    H223581   0.844   1.865   4.475 -0.5465 -0.7512 -0.9045
 7873TIP3   OH223582   3.840   0.408   4.416 -0.0790  0.2612 -0.2909
 7873TIP3    H123583   3.846   0.436   4.508 -0.9466  1.0453 -0.4555
 7873TIP3    H223584   3.908   0.459   4.371 -0.4481  0.7762 -0.2782
 7874TIP3   OH223585   3.613   0.990   1.578  0.2597  0.0690 -0.0960
 7874TIP3    H123586   3.657   0.906   1.581 -1.9390 -1.1620 -0.0333
 7874TIP3    H223587   3.557   0.992   1.655 -0.2720  1.2740 -0.4700
 7875TIP3   OH223588   3.643   2.362   2.839 -0.1232 -0.3054  0.6943
 7875TIP3    H123589   3.658   2.456   2.829  0.3747 -0.5030 -0.5752
 7875TIP3    H223590   3.581   2.340   2.770 -0.4696 -0.8692  1.1742
 7876TIP3   OH223591   1.214   6.607   4.861  0.0236  0.3635 -0.0895
 7876TIP3    H123592   1.241   6.518   4.884 -1.4074 -0.1268 -0.1796
 7876TIP3    H223593   1.155   6.633   4.933  0.2494  1.1508 -0.1797
 7877TIP3   OH223594   6.641   0.667   3.326 -0.1095  0.0577 -0.2439
 7877TIP3    H123595   6.642   0.725   3.250  1.6295 -0.0820 -0.3839
 7877TIP3    H223596   6.724   0.686   3.371  0.1596 -1.7606  0.1195
 7878TIP3   OH223597   5.065   5.012   1.589  0.2158 -0.3835 -0.1344
 7878TIP3    H123598   5.143   4.971   1.628 -0.1874 -3.3921 -2.1652
 7878TIP3    H223599   5.101   5.082   1.534  1.3375 -0.6889  0.1695
 7879TIP3   OH223600   0.373   1.784   3.343  0.0611 -0.0570 -0.1166
 7879TIP3    H123601   0.326   1.709   3.308  2.2484 -1.8356  0.4661
 7879TIP3    H223602   0.309   1.829   3.398 -1.5381 -1.0376 -1.1011
 7880TIP3   OH223603   1.757   2.785   4.185  0.0001 -0.0472 -0.0878
 7880TIP3    H123604   1.769   2.758   4.094 -0.0107  0.2440 -0.1791
 7880TIP3    H223605   1.842   2.819   4.212  0.1868 -0.7539  0.2298
 7881TIP3   OH223606   3.695   2.635   1.095 -0.0515  0.0863 -0.0473
 7881TIP3    H123607   3.741   2.565   1.142 -0.6293  0.1516  0.6254
 7881TIP3    H223608   3.762   2.702   1.081  0.4566 -0.4958 -0.5078
 7882TIP3   OH223609   2.481   1.390   4.262  0.0796  0.0778  0.0331
 7882TIP3    H123610   2.398   1.438   4.255 -0.7751 -1.5479 -1.7511
 7882TIP3    H223611   2.489   1.343   4.179  4.1217  2.1463 -0.9982
 7883TIP3   OH223612   2.594   0.777   3.110 -0.3598 -0.4808 -0.2730
 7883TIP3    H123613   2.671   0.735   3.071 -0.6911  0.0237 -1.5281
 7883TIP3    H223614   2.629   0.830   3.182  0.2577 -1.5382  0.2229
 7884TIP3   OH223615   6.440   5.369   1.296  0.2292 -0.2082 -0.0673
 7884TIP3    H123616   6.497   5.301   1.330 -0.7607 -0.6267  0.8096
 7884TIP3    H223617   6.351   5.337   1.313 -0.2587  1.3646  0.5598
 7885TIP3   OH223618   7.176   4.959   4.364  1.0867  0.0272  0.2906
 7885TIP3    H123619   7.105   5.021   4.385 -0.0143 -1.0598 -0.1142
 7885TIP3    H223620   7.249   4.988   4.419 -0.0258  0.4798  1.6154
 7886TIP3   OH223621   0.934   4.664   5.724 -0.3299  0.4786 -0.3610
 7886TIP3    H123622   0.965   4.584   5.683 -1.3420 -0.5312  0.7345
 7886TIP3    H223623   0.998   4.730   5.700  2.0292 -1.2144  0.8541
 7887TIP3   OH223624   3.845   6.340   1.832 -0.6412  0.2119 -0.1029
 7887TIP3    H123625   3.921   6.386   1.795  0.1221 -0.3721  0.6702
 7887TIP3    H223626   3.792   6.409   1.870  0.3841  0.5017  0.8619
 7888TIP3   OH223627   4.530   4.937   4.963  0.7529  0.1321 -0.0483
 7888TIP3    H123628   4.496   4.934   4.873 -0.4601  0.3096  0.3845
 7888TIP3    H223629   4.466   4.990   5.011 -0.0957 -2.1607  1.5289
 7889TIP3   OH223630   3.043   5.458   2.303  0.0126 -0.0144  0.0904
 7889TIP3    H123631   3.123   5.447   2.354 -1.5717  0.3083  2.8363
 7889TIP3    H223632   3.048   5.389   2.236  2.0267 -0.7395  0.9091
 7890TIP3   OH223633   3.256   1.310   5.004 -0.6786  0.1816 -0.0207
 7890TIP3    H123634   3.314   1.353   4.941  1.5357  0.0452  1.7998
 7890TIP3    H223635   3.178   1.364   5.005 -0.2835  0.8851 -1.9432
 7891TIP3   OH223636   2.255   5.553   0.415  0.4516 -0.0533  0.7011
 7891TIP3    H123637   2.229   5.602   0.336  1.4904  1.5603  1.3082
 7891TIP3    H223638   2.292   5.620   0.473 -0.2010 -1.2196  2.5316
 7892TIP3   OH223639   2.861   6.682   4.558  0.7663  0.1857 -0.1194
 7892TIP3    H123640   2.888   6.720   4.475  0.0531  0.1483 -0.3665
 7892TIP3    H223641   2.766   6.680   4.555  0.7015  0.6742  0.9157
 7893TIP3   OH223642   3.101   6.470   2.940 -0.3180  0.2286  0.5600
 7893TIP3    H123643   3.061   6.403   2.885  0.0743  1.6030 -1.5566
 7893TIP3    H223644   3.045   6.547   2.927  2.1158  1.8191 -1.4498
 7894TIP3   OH223645   6.612   2.240   4.320 -0.0623 -0.0917  0.2627
 7894TIP3    H123646   6.707   2.227   4.315  0.1748  1.5545  0.1311
 7894TIP3    H223647   6.595   2.319   4.269 -1.7921 -1.4930 -1.4811
 7895TIP3   OH223648   6.047   3.173   0.596  0.0119 -0.2647  0.0667
 7895TIP3    H123649   6.040   3.192   0.502  1.2467 -0.5459 -0.1087
 7895TIP3    H223650   6.115   3.105   0.601 -0.1594 -0.3708  1.1503
 7896TIP3   OH223651   6.444   5.929   1.245 -0.2206  0.7924  0.7600
 7896TIP3    H123652   6.431   5.944   1.151  1.1526 -0.4054  0.3294
 7896TIP3    H223653   6.496   6.004   1.274  0.5852  0.4702  0.2092
 7897TIP3   OH223654   4.869   1.793   3.422  0.0421  0.3904 -0.0779
 7897TIP3    H123655   4.854   1.878   3.465 -1.0497  1.1940 -1.9236
 7897TIP3    H223656   4.900   1.736   3.492 -0.9106  1.8390  1.6128
 7898TIP3   OH223657   3.569   2.908   3.097  0.2467  0.1368  0.5803
 7898TIP3    H123658   3.561   2.971   3.025  0.7045 -0.9094 -0.4203
 7898TIP3    H223659   3.478   2.890   3.123 -0.0413 -0.5829 -0.7711
 7899TIP3   OH223660   4.656   0.952   1.992  0.5846  0.3853 -0.1814
 7899TIP3    H123661   4.629   0.976   2.080  2.2250  0.7816  0.2349
 7899TIP3    H223662   4.692   0.864   2.001 -0.0298  0.0759 -0.6328
 7900TIP3   OH223663   3.303   1.572   5.733 -0.2799  0.2925 -0.4125
 7900TIP3    H123664   3.276   1.654   5.774  1.8205  1.2367 -0.7777
 7900TIP3    H223665   3.221   1.527   5.713 -1.4588  1.7709  0.8410
 7901TIP3   OH223666   3.062   4.266   0.238  0.0438  0.3092  0.3226
 7901TIP3    H123667   3.085   4.344   0.188  0.2779 -0.2676 -0.4775
 7901TIP3    H223668   3.146   4.228   0.264 -0.0352 -0.4205 -0.4613
 7902TIP3   OH223669   2.706   6.128   1.500  0.2831  0.4202  0.3227
 7902TIP3    H123670   2.640   6.061   1.484  0.8561 -0.3571  1.1214
 7902TIP3    H223671   2.733   6.115   1.591  2.6307 -0.3325 -0.3955
 7903TIP3   OH223672   5.829   3.673   4.078 -0.0786 -1.1498 -1.0255
 7903TIP3    H123673   5.906   3.618   4.089  0.2962 -0.1465  2.2713
 7903TIP3    H223674   5.819   3.681   3.983  3.3258 -2.0423 -1.5894
 7904TIP3   OH223675   6.827   4.304   3.929 -0.3323  0.1033 -0.1767
 7904TIP3    H123676   6.854   4.355   4.006  0.4685  0.1191 -0.4617
 7904TIP3    H223677   6.897   4.317   3.865 -1.1028  0.2789 -1.0032
 7905TIP3   OH223678   1.357   5.231   3.272  0.2949  0.8145  0.3372
 7905TIP3    H123679   1.428   5.177   3.237  0.8493  1.5513  0.3179
 7905TIP3    H223680   1.375   5.238   3.365 -0.8590 -0.6463  0.7155
 7906TIP3   OH223681   2.390   4.724   1.940 -0.0363 -0.1461 -0.3703
 7906TIP3    H123682   2.466   4.749   1.993 -0.4131 -0.9193  0.5573
 7906TIP3    H223683   2.407   4.763   1.854  1.5727 -0.5920 -0.2823
 7907TIP3   OH223684   7.037   4.537   3.487  0.3536 -0.1937  0.5913
 7907TIP3    H123685   6.990   4.490   3.555 -2.0445  2.2425  0.7863
 7907TIP3    H223686   6.984   4.525   3.409  0.6637  0.7383  0.2309
 7908TIP3   OH223687   4.241   1.023   3.178  0.3573 -0.3336  0.2198
 7908TIP3    H123688   4.311   1.088   3.175  0.8895 -0.8891  0.5042
 7908TIP3    H223689   4.286   0.939   3.178 -0.3596 -0.7420 -1.2960
 7909TIP3   OH223690   5.097   4.353   3.036  0.1522  0.3773 -0.6521
 7909TIP3    H123691   5.067   4.398   3.115 -0.7426 -1.6312  0.2426
 7909TIP3    H223692   5.027   4.367   2.972  0.5833  1.4775 -0.8990
 7910TIP3   OH223693   6.525   3.726   5.503  0.2942 -0.5626 -0.4593
 7910TIP3    H123694   6.597   3.757   5.449  1.2856 -1.4030  0.3329
 7910TIP3    H223695   6.567   3.698   5.585 -1.0680  0.0013  0.4610
 7911TIP3   OH223696   2.826   1.913   5.524 -0.0672 -0.1936  0.1993
 7911TIP3    H123697   2.913   1.950   5.541 -0.1770  0.1537  0.0056
 7911TIP3    H223698   2.831   1.824   5.559 -0.2036  0.4044  1.8649
 7912TIP3   OH223699   5.085   5.881   2.772  0.1415 -0.5730  0.9263
 7912TIP3    H123700   5.068   5.975   2.766  0.8420 -0.5101 -0.7984
 7912TIP3    H223701   5.085   5.852   2.681  0.7492 -2.0958  1.3921
 7913TIP3   OH223702   4.420   0.241   3.233 -0.0411 -0.4374 -0.0907
 7913TIP3    H123703   4.388   0.275   3.317  1.9922 -0.3826  0.7326
 7913TIP3    H223704   4.429   0.147   3.247 -1.3634 -0.6961 -0.8623
 7914TIP3   OH223705   5.924   6.027   2.080  0.8397  0.1228  0.2989
 7914TIP3    H123706   5.907   5.946   2.032  2.0122 -0.0520  0.1456
 7914TIP3    H223707   5.869   6.020   2.158 -0.6249  0.1362 -0.6865
 7915TIP3   OH223708   4.271   0.186   5.486  0.0712 -0.0619  0.3196
 7915TIP3    H123709   4.354   0.161   5.525 -0.2925 -0.7867  0.6381
 7915TIP3    H223710   4.248   0.269   5.529  2.0339  1.7474 -1.8365
 7916TIP3   OH223711   5.524   3.570   4.408  0.0398 -0.0001 -0.4305
 7916TIP3    H123712   5.618   3.591   4.408  0.3906 -1.4819 -0.5456
 7916TIP3    H223713   5.490   3.615   4.485  0.6863  1.1602 -0.7881
 7917TIP3   OH223714   2.305   1.906   3.815 -0.5367 -0.1805  0.1557
 7917TIP3    H123715   2.320   1.998   3.794 -0.3318  0.0783  1.3334
 7917TIP3    H223716   2.383   1.880   3.865 -0.3443 -1.1541 -0.6116
 7918TIP3   OH223717   5.416   1.170   0.358  0.4122 -0.5577 -0.3265
 7918TIP3    H123718   5.423   1.182   0.453  0.3495  1.7689 -0.5608
 7918TIP3    H223719   5.502   1.138   0.331  0.4814 -1.0820  0.4686
 7919TIP3   OH223720   5.144   4.401   0.621 -0.3227 -0.1139  0.1598
 7919TIP3    H123721   5.085   4.464   0.580 -1.4062  0.9037  3.0023
 7919TIP3    H223722   5.160   4.335   0.554 -2.1917  1.2178 -1.7193
 7920TIP3   OH223723   3.965   0.833   3.801 -0.3440  0.0120  0.0863
 7920TIP3    H123724   3.922   0.754   3.834  1.3500 -2.6669 -3.4571
 7920TIP3    H223725   3.903   0.870   3.738 -0.9552  1.4149  1.4288
 7921TIP3   OH223726   1.242   4.723   1.439 -0.0592 -0.5354 -0.2534
 7921TIP3    H123727   1.233   4.741   1.346  0.8403  1.4946 -0.0032
 7921TIP3    H223728   1.177   4.655   1.457 -1.0758 -0.1223 -2.1080
 7922TIP3   OH223729   1.918   4.999   4.440 -0.1333 -0.2795  0.5539
 7922TIP3    H123730   1.994   5.046   4.407  0.9863 -1.3629  1.4875
 7922TIP3    H223731   1.861   5.067   4.476  0.0356  0.6073 -0.8054
 7923TIP3   OH223732   3.494   6.382   0.759 -0.1978 -0.0387 -0.0728
 7923TIP3    H123733   3.588   6.401   0.752 -0.2960  1.0384  1.2170
 7923TIP3    H223734   3.454   6.436   0.691  0.0012  0.5083  0.2421
 7924TIP3   OH223735   0.321   4.289   0.347  0.0562 -0.2614 -0.6248
 7924TIP3    H123736   0.349   4.206   0.386  0.1522 -0.4736 -1.1406
 7924TIP3    H223737   0.395   4.348   0.360 -0.9731  0.5786  2.1438
 7925TIP3   OH223738   3.184   3.003   4.219  0.5437  0.1698 -0.0478
 7925TIP3    H123739   3.151   3.030   4.134 -1.7902 -0.1943  0.6914
 7925TIP3    H223740   3.200   3.085   4.267  1.2593  0.3534 -0.5790
 7926TIP3   OH223741   2.702   6.032   3.275  0.6827 -0.2022 -0.2927
 7926TIP3    H123742   2.764   6.029   3.348 -1.6923 -0.0777  1.8938
 7926TIP3    H223743   2.647   6.108   3.293 -0.5060 -0.6508 -1.7768
 7927TIP3   OH223744   3.749   5.746   4.864 -0.1793 -0.1227 -0.3042
 7927TIP3    H123745   3.663   5.754   4.906 -1.1943 -1.9237 -1.8966
 7927TIP3    H223746   3.730   5.725   4.773  1.9128 -1.8176 -0.4444
 7928TIP3   OH223747   5.723   0.691   1.294  0.0875 -0.0526 -0.3229
 7928TIP3    H123748   5.702   0.780   1.324  0.0851  0.3528 -1.4852
 7928TIP3    H223749   5.799   0.666   1.347 -0.6736  0.1370  0.9026
 7929TIP3   OH223750   3.370   4.632   3.953  0.3748  0.3024 -0.7530
 7929TIP3    H123751   3.373   4.637   4.049 -0.7445  3.2202 -0.7729
 7929TIP3    H223752   3.278   4.615   3.933  0.6699 -0.6586 -1.3208
 7930TIP3   OH223753   2.846   5.140   1.330 -0.2982  0.0248 -0.5160
 7930TIP3    H123754   2.915   5.204   1.312  0.8416 -0.9283  0.3393
 7930TIP3    H223755   2.827   5.149   1.423  0.4380 -1.3836 -0.1959
 7931TIP3   OH223756   1.466   3.080   5.046  0.0351 -0.9040 -0.1234
 7931TIP3    H123757   1.475   3.059   5.139 -0.4180 -1.4599 -0.1979
 7931TIP3    H223758   1.407   3.013   5.012  1.4470 -1.6810 -1.1589
 7932TIP3   OH223759   0.057   1.539   3.954  0.3594  0.0743  0.2298
 7932TIP3    H123760   0.053   1.446   3.931 -0.0093  0.4929 -1.5623
 7932TIP3    H223761   0.080   1.540   4.047 -0.8900 -1.8289  0.6086
 7933TIP3   OH223762   0.896   0.089   2.123  0.6366  0.1173 -0.1558
 7933TIP3    H123763   0.835   0.089   2.049  2.1004  0.7728 -1.4395
 7933TIP3    H223764   0.844   0.113   2.199 -0.7301  0.4064 -1.1613
 7934TIP3   OH223765   6.715   3.275   3.508  0.4001 -0.1803  0.1555
 7934TIP3    H123766   6.722   3.235   3.595  0.4544 -0.0181  0.2259
 7934TIP3    H223767   6.741   3.205   3.447  1.5876  0.0733  0.3465
 7935TIP3   OH223768   2.359   1.385   0.834 -0.7760 -0.4814  0.2077
 7935TIP3    H123769   2.360   1.413   0.926 -0.4930  0.2973 -0.0272
 7935TIP3    H223770   2.266   1.376   0.813 -0.8366 -0.9602  0.6526
 7936TIP3   OH223771   3.269   5.153   3.284  0.8387 -0.5180 -0.9714
 7936TIP3    H123772   3.252   5.185   3.373  2.1428 -1.1404 -0.4680
 7936TIP3    H223773   3.355   5.189   3.262  1.3051 -1.7531 -1.2832
 7937TIP3   OH223774   4.262   0.284   1.003  0.4264 -0.1351 -0.1503
 7937TIP3    H123775   4.265   0.378   0.986  0.2084 -0.2768 -0.9999
 7937TIP3    H223776   4.286   0.243   0.920  0.2900 -0.8350  0.1461
 7938TIP3   OH223777   0.084   5.306   4.956  0.3820 -0.2094  0.0279
 7938TIP3    H123778   0.060   5.214   4.941  0.8761 -0.1637 -1.1745
 7938TIP3    H223779   0.169   5.316   4.913  0.0276  0.9778 -0.4420
 7939TIP3   OH223780   6.163   2.117   0.381  0.4674  0.4555  0.2492
 7939TIP3    H123781   6.135   2.074   0.462 -2.2857 -0.3972 -1.0089
 7939TIP3    H223782   6.197   2.045   0.327  0.4783  0.6716 -0.0333
 7940TIP3   OH223783   6.467   6.231   3.519  0.6848 -0.2973  0.2870
 7940TIP3    H123784   6.545   6.257   3.569  0.3709  0.8429  0.2260
 7940TIP3    H223785   6.502   6.192   3.439  1.2077  0.8187 -0.0497
 7941TIP3   OH223786   4.241   0.729   3.808 -0.4586  0.0690 -0.1012
 7941TIP3    H123787   4.290   0.802   3.770 -0.3407 -0.0362 -0.1551
 7941TIP3    H223788   4.152   0.762   3.819 -0.4232  0.1968 -0.1947
 7942TIP3   OH223789   1.672   0.751   4.225 -0.1609  0.1729  0.0505
 7942TIP3    H123790   1.762   0.718   4.231 -0.7038 -1.2034  1.4098
 7942TIP3    H223791   1.682   0.846   4.218  1.4037  0.0088 -0.3286
 7943TIP3   OH223792   6.154   0.495   1.298  0.2531 -0.1449  0.2081
 7943TIP3    H123793   6.229   0.442   1.324  1.9729  1.7550 -0.6538
 7943TIP3    H223794   6.113   0.444   1.228  1.9435 -0.3129 -0.7107
 7944TIP3   OH223795   2.735   3.610   1.420 -0.5997  0.2726 -0.2283
 7944TIP3    H123796   2.790   3.649   1.351  0.0686  1.3582  0.8725
 7944TIP3    H223797   2.646   3.633   1.395 -0.6548 -1.6611 -2.1368
 7945TIP3   OH223798   6.307   4.334   4.714  0.2762  0.6086  0.1615
 7945TIP3    H123799   6.249   4.403   4.745  0.8320  0.7795  0.8644
 7945TIP3    H223800   6.337   4.364   4.628  0.2021  1.0467  0.2850
 7946TIP3   OH223801   3.397   5.567   3.745 -0.6460 -0.1044 -0.7572
 7946TIP3    H123802   3.478   5.580   3.694  1.4166 -2.9204  1.5017
 7946TIP3    H223803   3.409   5.622   3.822 -0.2925 -1.3674  0.1180
 7947TIP3   OH223804   2.744   0.458   2.868 -0.4297  0.5309 -0.6579
 7947TIP3    H123805   2.697   0.515   2.807  1.9404  1.2240 -1.9535
 7947TIP3    H223806   2.822   0.508   2.892 -0.5254 -0.3624  1.7979
 7948TIP3   OH223807   4.193   0.518   1.854  0.9011  0.1582  0.3002
 7948TIP3    H123808   4.144   0.524   1.936 -0.2665 -0.5950 -0.3112
 7948TIP3    H223809   4.282   0.543   1.878  0.9974 -1.6639  2.1981
 7949TIP3   OH223810   4.459   3.339   0.885 -0.4778  0.1695 -0.0484
 7949TIP3    H123811   4.506   3.391   0.819  0.3128  0.7931  0.9853
 7949TIP3    H223812   4.505   3.255   0.886 -1.7278 -0.5900 -1.6884
 7950TIP3   OH223813   5.115   6.553   5.698  0.1482 -0.0990 -0.1961
 7950TIP3    H123814   5.176   6.563   5.771  0.0114 -2.0476  0.2507
 7950TIP3    H223815   5.028   6.558   5.739  0.0705 -1.7891 -0.0747
 7951TIP3   OH223816   1.260   0.415   4.450  0.3642 -0.2339  0.2089
 7951TIP3    H123817   1.277   0.378   4.364  1.9223  0.7349  0.0551
 7951TIP3    H223818   1.310   0.360   4.510  0.3531 -0.1134  0.3301
 7952TIP3   OH223819   6.431   3.353   1.600 -0.2943 -0.7259  0.2147
 7952TIP3    H123820   6.378   3.280   1.630 -0.7095  0.0904  1.5635
 7952TIP3    H223821   6.521   3.328   1.621 -0.6294  0.1523  3.0281
 7953TIP3   OH223822   2.531   3.713   0.203 -0.4400 -0.1326  0.1269
 7953TIP3    H123823   2.540   3.764   0.122 -0.0141  0.6042  0.6238
 7953TIP3    H223824   2.470   3.764   0.257  1.0121  0.5599  1.1609
 7954TIP3   OH223825   2.310   1.406   1.526 -0.1196  0.4466 -0.1586
 7954TIP3    H123826   2.356   1.403   1.442  0.5500  1.7979  0.1443
 7954TIP3    H223827   2.376   1.382   1.590 -0.4289  0.2008  0.0711
 7955TIP3   OH223828   3.537   5.687   2.121  0.0802 -0.0361  0.3363
 7955TIP3    H123829   3.445   5.704   2.141 -0.3209 -0.7180 -0.8474
 7955TIP3    H223830   3.568   5.767   2.078  0.1368  0.3099  1.0085
 7956TIP3   OH223831   2.162   0.336   5.889  0.0186  0.2692  0.0510
 7956TIP3    H123832   2.147   0.293   5.805 -0.8902 -0.8715  0.7460
 7956TIP3    H223833   2.245   0.300   5.920 -1.1190 -1.7047  0.9923
 7957TIP3   OH223834   2.798   2.303   3.412 -0.0652 -0.1828  0.8197
 7957TIP3    H123835   2.821   2.211   3.394  1.6238  0.4009 -0.3199
 7957TIP3    H223836   2.790   2.307   3.507 -0.3057 -1.5302  0.8898
 7958TIP3   OH223837   2.160   1.851   4.765  0.5337  0.0323  0.2144
 7958TIP3    H123838   2.139   1.884   4.677  1.7473  0.6159  0.1208
 7958TIP3    H223839   2.124   1.762   4.766 -0.6209  0.4666 -0.4091
 7959TIP3   OH223840   0.861   4.907   3.268 -0.1024 -0.0933 -0.6176
 7959TIP3    H123841   0.939   4.885   3.319 -0.5877 -3.5975 -1.1169
 7959TIP3    H223842   0.820   4.979   3.315  1.4109 -0.7337  1.8378
 7960TIP3   OH223843   6.848   2.142   2.538 -0.1912  0.1209 -0.1194
 7960TIP3    H123844   6.841   2.121   2.445 -2.0160 -2.4523  0.4909
 7960TIP3    H223845   6.797   2.222   2.549 -1.4974 -0.5562 -1.0571
 7961TIP3   OH223846   2.583   0.386   0.117 -0.4738  0.5107 -0.2294
 7961TIP3    H123847   2.638   0.340   0.054 -0.2983  0.5476 -0.1044
 7961TIP3    H223848   2.627   0.372   0.201 -0.3194  1.0614 -0.2155
 7962TIP3   OH223849   6.127   5.633   3.343  0.7564 -0.6604  0.0621
 7962TIP3    H123850   6.182   5.636   3.421  2.5405  0.8394 -1.1611
 7962TIP3    H223851   6.040   5.659   3.373  1.3206 -0.4378  1.5821
 7963TIP3   OH223852   5.985   3.571   4.717  0.1140 -0.3413 -0.3618
 7963TIP3    H123853   6.069   3.588   4.673 -0.9517 -1.7680 -3.1677
 7963TIP3    H223854   5.936   3.652   4.705  0.6067  0.0491  0.1790
 7964TIP3   OH223855   0.855   6.231   0.818 -0.1975 -0.1928  0.1124
 7964TIP3    H123856   0.780   6.172   0.832  0.8130 -1.4174  0.5051
 7964TIP3    H223857   0.844   6.299   0.884 -1.0651 -0.2536  0.0421
 7965TIP3   OH223858   4.539   0.704   4.475  0.2028  0.7602 -0.6485
 7965TIP3    H123859   4.568   0.699   4.566 -0.1796  2.2592 -0.4129
 7965TIP3    H223860   4.471   0.771   4.475  0.6339  1.2500 -2.1379
 7966TIP3   OH223861   0.937   6.313   3.608 -0.1638 -0.2609  0.3047
 7966TIP3    H123862   1.005   6.341   3.546  0.5667 -1.1835  0.6562
 7966TIP3    H223863   0.943   6.376   3.680 -0.0391 -0.0210  0.0845
 7967TIP3   OH223864   3.434   3.812   3.281 -0.7557  0.3908  0.1334
 7967TIP3    H123865   3.374   3.765   3.222  0.8348  0.5554 -1.7048
 7967TIP3    H223866   3.464   3.887   3.230 -0.8590  1.7102  1.9215
 7968TIP3   OH223867   4.435   4.160   2.790  0.2845  0.3613  0.0233
 7968TIP3    H123868   4.381   4.139   2.714  0.8466 -0.5634 -0.1322
 7968TIP3    H223869   4.378   4.214   2.845 -0.1417  1.0362 -1.0266
 7969TIP3   OH223870   7.114   1.761   3.933  0.0305 -0.0428 -0.3234
 7969TIP3    H123871   7.066   1.754   3.851 -0.7134 -0.6156  0.1495
 7969TIP3    H223872   7.174   1.687   3.933  0.1234  0.0312 -0.4004
 7970TIP3   OH223873   0.225   0.497   4.542 -0.3746  0.0777 -0.0763
 7970TIP3    H123874   0.301   0.469   4.491  0.3876  0.4513  0.8228
 7970TIP3    H223875   0.206   0.586   4.510 -0.4304 -0.0132 -0.2967
 7971TIP3   OH223876   0.424   5.145   5.812  0.1688  0.5323  0.4449
 7971TIP3    H123877   0.424   5.049   5.812 -0.6035  0.5181 -0.1205
 7971TIP3    H223878   0.505   5.169   5.767 -0.8353  0.0763 -1.7757
 7972TIP3   OH223879   6.343   2.178   1.919  0.0685  0.0526 -0.5553
 7972TIP3    H123880   6.348   2.085   1.896  1.5178 -0.2118  0.6545
 7972TIP3    H223881   6.348   2.224   1.835 -1.1215 -0.9546 -1.2064
 7973TIP3   OH223882   7.071   6.103   0.432  0.0237 -0.1300  0.3411
 7973TIP3    H123883   7.110   6.049   0.501  0.7640 -2.7731 -1.9784
 7973TIP3    H223884   6.977   6.105   0.453  0.4779  1.3025  2.7121
 7974TIP3   OH223885   2.451   0.621   1.751 -0.3440  1.2193  0.6031
 7974TIP3    H123886   2.510   0.696   1.742  0.0025  0.7153 -3.3470
 7974TIP3    H223887   2.373   0.646   1.701 -0.4237 -0.7966 -0.3811
 7975TIP3   OH223888   0.230   4.299   3.211  0.6435 -0.2991  0.8533
 7975TIP3    H123889   0.157   4.360   3.220  0.5566  0.0175 -1.3865
 7975TIP3    H223890   0.225   4.244   3.289 -2.9701 -1.3219  0.0807
 7976TIP3   OH223891   0.124   1.994   1.869 -0.8129 -0.2691 -0.5721
 7976TIP3    H123892   0.069   2.062   1.831 -0.8401 -0.2691 -0.5323
 7976TIP3    H223893   0.076   1.964   1.946 -0.5760  0.0052 -0.3151
 7977TIP3   OH223894   6.580   4.151   4.701 -0.0355 -0.1802 -0.4562
 7977TIP3    H123895   6.529   4.163   4.781  0.0943 -1.5966 -0.1405
 7977TIP3    H223896   6.581   4.238   4.661  1.2785  0.9980  1.8881
 7978TIP3   OH223897   2.069   3.556   3.984 -0.0425  0.1588 -0.8004
 7978TIP3    H123898   2.128   3.592   3.917 -0.0590  0.3787 -0.6978
 7978TIP3    H223899   2.106   3.586   4.067 -0.3478  0.3730 -0.7393
 7979TIP3   OH223900   5.930   5.053   1.769  0.3114 -0.3380 -0.4747
 7979TIP3    H123901   6.016   5.028   1.801 -0.3822 -3.2242 -0.5947
 7979TIP3    H223902   5.946   5.126   1.710  2.7083 -1.0640 -0.8033
 7980TIP3   OH223903   4.172   4.015   1.765 -0.7080 -0.4086 -0.3744
 7980TIP3    H123904   4.150   3.942   1.707 -1.5712 -0.2538 -0.2590
 7980TIP3    H223905   4.170   3.976   1.853 -3.1484  0.1357 -0.1184
 7981TIP3   OH223906   6.459   6.585   3.183  0.5528 -0.4527 -0.7567
 7981TIP3    H123907   6.459   6.618   3.273 -0.9352 -1.5383 -0.3224
 7981TIP3    H223908   6.489   6.659   3.131  1.9207  0.0551  0.6564
 7982TIP3   OH223909   3.657   0.638   0.417 -0.3008 -0.6555  0.1194
 7982TIP3    H123910   3.661   0.621   0.511 -0.2298 -1.2804  0.0063
 7982TIP3    H223911   3.568   0.611   0.391 -1.0517  1.3809  0.3504
 7983TIP3   OH223912   2.036   5.993   1.683 -0.0577  0.1225  0.5022
 7983TIP3    H123913   2.027   5.903   1.717 -0.6060 -0.6387 -1.5150
 7983TIP3    H223914   2.126   5.998   1.651 -0.6525 -0.5294 -1.4272
 7984TIP3   OH223915   3.342   1.002   1.414  0.2423 -0.3973 -0.7833
 7984TIP3    H123916   3.328   1.081   1.466  0.9193  1.2484 -2.9191
 7984TIP3    H223917   3.371   0.936   1.477 -2.2305  0.4335  1.3948
 7985TIP3   OH223918   5.580   6.095   3.386  0.4788  0.8112 -0.3864
 7985TIP3    H123919   5.585   6.189   3.405  0.5645  0.4516  1.4979
 7985TIP3    H223920   5.486   6.079   3.375  0.4623  1.0985 -0.7167
 7986TIP3   OH223921   6.177   6.631   2.819 -0.0153  0.6657  0.6416
 7986TIP3    H123922   6.137   6.705   2.866  0.5461  0.8088  0.8930
 7986TIP3    H223923   6.102   6.576   2.795 -0.5852  1.8762 -0.5562
 7987TIP3   OH223924   1.443   1.296   3.718  0.3937 -0.0903  0.2180
 7987TIP3    H123925   1.419   1.212   3.756  0.7116 -0.0869  0.4407
 7987TIP3    H223926   1.366   1.325   3.671  0.4702 -0.7801 -0.3495
 7988TIP3   OH223927   6.519   0.168   0.641  0.3456 -0.0196  0.3792
 7988TIP3    H123928   6.426   0.181   0.660 -0.0395 -0.7726 -0.8665
 7988TIP3    H223929   6.540   0.084   0.683  0.1394 -0.4431 -0.3457
 7989TIP3   OH223930   0.547   4.874   2.402  0.7523 -0.8576  0.0072
 7989TIP3    H123931   0.553   4.953   2.456 -3.1456  0.3702 -0.9878
 7989TIP3    H223932   0.490   4.816   2.452  0.8370 -1.6262 -0.7674
 7990TIP3   OH223933   1.995   5.482   5.526 -0.0752  0.3189 -0.2173
 7990TIP3    H123934   2.013   5.406   5.581  0.6712 -0.2693 -1.2341
 7990TIP3    H223935   2.053   5.550   5.559  0.6817 -0.1597 -0.5290
 7991TIP3   OH223936   3.131   5.553   5.208  0.2757 -0.0574 -0.2886
 7991TIP3    H123937   3.106   5.487   5.273  0.1750  2.1878  2.0915
 7991TIP3    H223938   3.226   5.542   5.198  0.0694 -1.4551 -1.0719
 7992TIP3   OH223939   3.662   6.175   1.688  0.2209 -0.3200  0.0757
 7992TIP3    H123940   3.610   6.235   1.742 -0.9452  0.6447 -1.9826
 7992TIP3    H223941   3.753   6.194   1.711 -0.2366  0.0424  1.6638
 7993TIP3   OH223942   1.684   0.926   5.669 -0.5952  0.0315 -0.5787
 7993TIP3    H123943   1.605   0.942   5.617 -1.9250 -1.6916  0.7905
 7993TIP3    H223944   1.651   0.908   5.757  1.3473 -0.5692  0.0659
 7994TIP3   OH223945   6.686   0.534   1.233  0.0083  0.2678  0.1300
 7994TIP3    H123946   6.745   0.609   1.234  1.4686 -0.8159  1.7518
 7994TIP3    H223947   6.625   0.552   1.162  1.9216  1.7479 -1.2426
 7995TIP3   OH223948   1.793   4.885   5.325  0.0716  0.2034  0.4780
 7995TIP3    H123949   1.850   4.809   5.313  0.3054  0.2767  1.0911
 7995TIP3    H223950   1.854   4.958   5.338 -0.1663  0.2972  1.0480
 7996TIP3   OH223951   2.985   2.083   2.126  0.1234 -0.0361  0.1148
 7996TIP3    H123952   3.011   1.992   2.110 -0.2017 -0.4204  1.6197
 7996TIP3    H223953   2.965   2.118   2.039  0.8435 -1.2151 -0.5491
 7997TIP3   OH223954   6.336   2.105   5.644 -0.1027 -0.0836 -0.1494
 7997TIP3    H123955   6.241   2.108   5.634 -0.0841 -0.0189 -0.3156
 7997TIP3    H223956   6.356   2.015   5.669 -0.4713  0.5147  2.6012
 7998TIP3   OH223957   3.292   3.359   2.420 -0.0069  0.2762 -0.2559
 7998TIP3    H123958   3.253   3.410   2.349  0.9466  0.4379 -0.6785
 7998TIP3    H223959   3.223   3.298   2.447  0.2182 -1.1660 -2.6539
 7999TIP3   OH223960   5.924   3.389   2.743  0.4735  0.3087 -0.0281
 7999TIP3    H123961   6.014   3.397   2.713  0.6256  1.3903  0.6673
 7999TIP3    H223962   5.912   3.296   2.762  1.9712  0.3988  1.5014
 8000TIP3   OH223963   6.693   0.366   5.135  0.1825  0.8406 -0.2237
 8000TIP3    H123964   6.720   0.455   5.111  0.6441  0.8595  0.3263
 8000TIP3    H223965   6.731   0.311   5.067  0.1399  1.0356 -0.4090
 8001TIP3   OH223966   4.865   0.819   2.395  0.0889  0.3377  0.2840
 8001TIP3    H123967   4.890   0.828   2.487 -0.8513 -0.3899  0.6361
 8001TIP3    H223968   4.853   0.908   2.363  1.8298  0.6501  0.4523
 8002TIP3   OH223969   6.340   1.383   3.968  0.0625  0.5731 -0.3469
 8002TIP3    H123970   6.403   1.453   3.986  1.1183 -0.0603 -1.4284
 8002TIP3    H223971   6.385   1.325   3.906 -1.7042  0.2686 -1.4241
 8003TIP3   OH223972   3.125   5.040   5.428  0.3684 -0.0533  0.0886
 8003TIP3    H123973   3.148   5.018   5.338 -0.2351  1.3486 -0.4339
 8003TIP3    H223974   3.077   4.963   5.459 -0.4908 -0.0882 -1.2202
 8004TIP3   OH223975   3.148   0.043   3.637 -0.0941 -0.5709 -0.1670
 8004TIP3    H123976   3.057   0.046   3.666 -0.0890 -1.8018  0.0257
 8004TIP3    H223977   3.161  -0.048   3.609  0.9248 -0.2773 -0.6823
 8005TIP3   OH223978   6.826   6.139   2.632 -0.4386 -0.6555  0.5498
 8005TIP3    H123979   6.861   6.153   2.720 -0.1415  0.6154  0.2565
 8005TIP3    H223980   6.887   6.077   2.592  1.1411  0.9427  0.3062
 8006TIP3   OH223981   5.215   5.874   5.116  0.3245 -0.3296 -0.3955
 8006TIP3    H123982   5.180   5.942   5.059  0.8783 -0.2661 -0.6651
 8006TIP3    H223983   5.204   5.793   5.067  0.0515 -0.3836 -0.2486
 8007TIP3   OH223984   0.829   4.051   4.984  0.3554  0.5345  0.7119
 8007TIP3    H123985   0.822   4.119   5.051  1.6986 -0.2725  1.7428
 8007TIP3    H223986   0.918   4.018   4.994  0.3992  0.0045 -1.1334
 8008TIP3   OH223987   6.178   1.892   0.630 -0.2229 -0.3567  0.4303
 8008TIP3    H123988   6.145   1.845   0.553  0.6336 -0.0465 -0.1449
 8008TIP3    H223989   6.256   1.843   0.656  0.1645  0.2229  0.3722
 8009TIP3   OH223990   4.800   3.731   3.362  0.4875 -0.5608 -0.3257
 8009TIP3    H123991   4.817   3.781   3.442 -0.1810  0.6575 -0.9139
 8009TIP3    H223992   4.872   3.754   3.303 -1.3920  2.3174 -1.7535
 8010TIP3   OH223993   4.794   0.529   0.908  0.3626 -0.1006 -0.5394
 8010TIP3    H123994   4.813   0.585   0.833 -2.2594 -0.4307 -1.5575
 8010TIP3    H223995   4.731   0.465   0.875 -1.1482 -0.0714  2.0172
 8011TIP3   OH223996   6.072   2.793   5.678 -0.0319 -0.1602  0.0258
 8011TIP3    H123997   6.151   2.837   5.647 -0.1962 -0.0165 -0.1869
 8011TIP3    H223998   6.089   2.777   5.771 -1.1429  3.0291  0.9078
 8012TIP3   OH223999   5.848   2.430   0.277  0.3614  0.1687  0.0687
 8012TIP3    H124000   5.770   2.402   0.229 -0.0230 -1.6234  1.5927
 8012TIP3    H224001   5.918   2.431   0.212 -0.6830  0.5979 -1.0804
 8013TIP3   OH224002   2.428   2.894   0.446  0.5738 -0.6944 -0.9136
 8013TIP3    H124003   2.363   2.937   0.501  0.1748 -1.0508 -1.0966
 8013TIP3    H224004   2.474   2.835   0.505  1.8230  0.7094 -0.4355
 8014TIP3   OH224005   6.923   3.340   1.961  0.5754 -0.1001  0.1007
 8014TIP3    H124006   6.828   3.351   1.970  0.5789 -0.0644  0.0968
 8014TIP3    H224007   6.948   3.286   2.035  0.5059 -0.3741 -0.0760
 8015TIP3   OH224008   6.877   1.639   1.328 -0.4167 -0.1158 -0.1602
 8015TIP3    H124009   6.917   1.577   1.389 -1.2953 -0.1446  0.4111
 8015TIP3    H224010   6.851   1.586   1.253  0.1520 -0.1799 -0.3147
 8016TIP3   OH224011   1.380   0.178   3.558  0.5076  0.1832 -0.2792
 8016TIP3    H124012   1.341   0.161   3.473  0.6866  0.8982 -0.5144
 8016TIP3    H224013   1.472   0.197   3.538  1.1718 -2.1334  0.3199
 8017TIP3   OH224014   1.011   4.975   2.099  0.1864  0.0620  0.0748
 8017TIP3    H124015   0.927   4.977   2.145  0.1154  0.4508 -0.0670
 8017TIP3    H224016   0.989   4.944   2.011  0.2311 -0.0979  0.1204
 8018TIP3   OH224017   0.280   4.773   4.372  0.2875 -0.2055  0.3702
 8018TIP3    H124018   0.370   4.763   4.404  1.3166  1.5938 -1.7309
 8018TIP3    H224019   0.272   4.866   4.350 -1.5618 -0.6264 -0.9900
 8019TIP3   OH224020   6.845   0.960   1.328 -0.6102  0.1603 -0.2525
 8019TIP3    H124021   6.840   1.031   1.392 -0.9173  1.1174 -1.2976
 8019TIP3    H224022   6.937   0.933   1.329 -0.4713  0.6318  0.0975
 8020TIP3   OH224023   3.514   6.706   5.761 -0.6165 -0.0385  0.1672
 8020TIP3    H124024   3.580   6.638   5.747 -1.2769 -0.4917 -0.8722
 8020TIP3    H224025   3.482   6.690   5.850 -0.0430 -0.4350  0.3097
 8021TIP3   OH224026   6.161   1.672   0.970 -0.3035  0.2168  0.2937
 8021TIP3    H124027   6.084   1.717   0.936  0.1339  0.4156 -0.4614
 8021TIP3    H224028   6.212   1.648   0.892 -0.0551 -0.7384  0.7314
 8022TIP3   OH224029   2.831   0.127   4.991 -0.1684  0.2142  0.0064
 8022TIP3    H124030   2.759   0.186   5.012  0.3074  0.3164  1.4977
 8022TIP3    H224031   2.788   0.044   4.969 -0.7780 -0.1237  2.1702
 8023TIP3   OH224032   5.950   1.263   2.891 -0.0398  0.5738 -0.4515
 8023TIP3    H124033   5.935   1.189   2.832 -1.2126  0.6606 -0.2787
 8023TIP3    H224034   5.905   1.337   2.849  0.4995  1.0280 -0.2493
 8024TIP3   OH224035   6.379   0.383   4.837  0.2565 -0.4420 -0.6019
 8024TIP3    H124036   6.404   0.312   4.897  0.9980 -0.3167 -0.7505
 8024TIP3    H224037   6.371   0.459   4.893  0.3591 -0.4522 -0.5729
 8025TIP3   OH224038   5.361   3.054   3.330  0.0627 -0.7508  0.6186
 8025TIP3    H124039   5.331   3.141   3.304  1.4467 -0.1072  1.0353
 8025TIP3    H224040   5.419   3.027   3.258 -0.9936 -1.7165  0.0921
 8026TIP3   OH224041   5.572   3.309   4.922  0.7374 -0.1641  0.0439
 8026TIP3    H124042   5.664   3.282   4.923  0.6859 -0.3318  0.1153
 8026TIP3    H224043   5.538   3.275   4.839  0.4967 -0.8932  0.4395
 8027TIP3   OH224044   0.057   4.489   5.409 -0.0043 -0.2797  0.0559
 8027TIP3    H124045   0.066   4.548   5.334  0.8155  0.0517  0.3953
 8027TIP3    H224046   0.037   4.548   5.483  1.0637 -0.3787  0.4456
 8028TIP3   OH224047   5.046   6.574   5.397  0.3955  0.8217 -0.3019
 8028TIP3    H124048   5.066   6.545   5.486  0.2271  3.1567  0.5756
 8028TIP3    H224049   5.122   6.548   5.345  1.3986  1.1600  0.9559
 8029TIP3   OH224050   3.015   2.976   5.542  0.5989  0.1827 -0.5389
 8029TIP3    H124051   3.083   2.912   5.523 -0.1666 -0.7111 -0.3698
 8029TIP3    H224052   2.933   2.929   5.524  0.0157  0.9581  0.0498
 8030TIP3   OH224053   5.981   6.292   0.296  0.0628  0.1266 -0.6997
 8030TIP3    H124054   6.017   6.365   0.246 -1.5077  0.1782 -1.8102
 8030TIP3    H224055   5.905   6.328   0.340  0.2770 -0.4277  0.1599
 8031TIP3   OH224056   0.343   0.738   1.366  0.3228  0.1906 -0.1387
 8031TIP3    H124057   0.332   0.752   1.272 -2.3710  0.2757  0.1364
 8031TIP3    H224058   0.423   0.787   1.387  0.4204  1.0368 -2.1810
 8032TIP3   OH224059   1.711   1.809   4.393 -0.0519 -0.2870  0.0204
 8032TIP3    H124060   1.772   1.750   4.347 -2.5911 -2.0079 -1.3862
 8032TIP3    H224061   1.704   1.885   4.336 -0.8622 -1.0747 -0.9726
 8033TIP3   OH224062   1.785   2.969   4.529 -0.2468  0.1046  0.4708
 8033TIP3    H124063   1.819   2.881   4.514  1.9460  0.7553  1.1779
 8033TIP3    H224064   1.826   3.022   4.460 -1.3447  0.6454  0.2025
 8034TIP3   OH224065   2.340   0.982   2.545 -1.0105 -0.2186 -0.0031
 8034TIP3    H124066   2.372   0.966   2.456  2.3567 -2.3724  1.3804
 8034TIP3    H224067   2.264   0.924   2.553  1.5891 -4.0826 -0.1489
 8035TIP3   OH224068   0.216   6.102   5.282  0.0451 -0.4681 -0.0192
 8035TIP3    H124069   0.231   6.131   5.372 -0.4835 -1.6665  0.4698
 8035TIP3    H224070   0.157   6.027   5.290 -0.1418 -0.4873 -1.3776
 8036TIP3   OH224071   5.171   6.754   1.503 -0.0159  0.0138 -0.3025
 8036TIP3    H124072   5.116   6.779   1.578  0.6002 -0.2670  0.2563
 8036TIP3    H224073   5.216   6.675   1.532 -0.1791 -0.4103 -1.1845
 8037TIP3   OH224074   1.409   4.022   1.657 -0.1304 -0.2685  0.5743
 8037TIP3    H124075   1.435   4.033   1.566 -0.4248 -0.9799  0.3932
 8037TIP3    H224076   1.361   3.939   1.658  0.4666 -0.6208  1.5040
 8038TIP3   OH224077   2.018   2.218   1.279 -1.0326  0.3078  0.6258
 8038TIP3    H124078   1.965   2.290   1.244 -0.7778  0.4481  0.5287
 8038TIP3    H224079   1.966   2.139   1.262 -0.8685  0.3619 -0.1388
 8039TIP3   OH224080   4.482   4.007   4.508 -0.2497  0.3505  0.0519
 8039TIP3    H124081   4.458   4.086   4.556 -0.1324  0.1000  0.5275
 8039TIP3    H224082   4.533   4.039   4.434  0.1320  0.6938  0.4556
 8040TIP3   OH224083   0.948   6.695   0.615 -0.3723 -0.4552  0.5624
 8040TIP3    H124084   1.040   6.680   0.595 -0.4884  0.2591 -0.6426
 8040TIP3    H224085   0.909   6.608   0.617  0.1125 -0.6963 -0.0916
 8041TIP3   OH224086   2.261   2.572   1.738  0.2532  0.6667  0.8270
 8041TIP3    H124087   2.267   2.543   1.829  0.8012  0.8471  0.8509
 8041TIP3    H224088   2.170   2.598   1.727 -0.4436 -1.6070  0.6353
 8042TIP3   OH224089   4.888   6.212   4.941 -0.2550  0.2202 -0.6212
 8042TIP3    H124090   4.900   6.223   5.035 -0.8312 -0.2238 -0.4935
 8042TIP3    H224091   4.860   6.299   4.911  0.5259  0.5272 -0.4888
 8043TIP3   OH224092   6.828   0.380   3.960  0.5862  0.1494  0.4427
 8043TIP3    H124093   6.892   0.321   3.918  0.1701  0.0735 -0.0985
 8043TIP3    H224094   6.859   0.468   3.938 -0.5051  0.1223 -1.4533
 8044TIP3   OH224095   2.318   6.350   3.430  0.0419  0.1573  0.6907
 8044TIP3    H124096   2.390   6.406   3.460  0.9824  0.8098 -2.4389
 8044TIP3    H224097   2.359   6.266   3.411 -0.9759 -1.0295  3.2691
 8045TIP3   OH224098   5.374   0.048   4.347  0.1740  0.3401  0.5276
 8045TIP3    H124099   5.442   0.034   4.281 -2.7808  4.1828 -4.0279
 8045TIP3    H224100   5.406   0.121   4.400  0.0481  1.5941 -1.0622
 8046TIP3   OH224101   1.397   5.272   3.540  1.0432  0.0047 -0.0632
 8046TIP3    H124102   1.339   5.306   3.609  0.3777 -3.1354  1.1313
 8046TIP3    H224103   1.478   5.322   3.549 -0.4216  2.4539  0.2396
 8047TIP3   OH224104   2.988   0.389   5.033  0.0884 -0.3157 -0.2013
 8047TIP3    H124105   2.976   0.389   5.128 -0.3998  1.3780 -0.2346
 8047TIP3    H224106   2.900   0.386   4.998  0.2543 -0.5079 -0.6027
 8048TIP3   OH224107   0.730   3.663   2.766  0.2174 -0.4570  0.3101
 8048TIP3    H124108   0.641   3.642   2.738  0.9044 -0.6314 -1.9368
 8048TIP3    H224109   0.786   3.616   2.705  1.8431  2.5989 -0.7606
 8049TIP3   OH224110   5.955   3.010   2.054 -0.1729  0.1653  0.1523
 8049TIP3    H124111   5.879   3.059   2.088 -1.6540 -0.8628 -1.5185
 8049TIP3    H224112   5.981   3.059   1.976  0.3315  0.0182  0.2296
 8050TIP3   OH224113   0.387   4.678   2.556  0.1513 -0.0802  0.2327
 8050TIP3    H124114   0.397   4.592   2.597  2.7619 -0.3778 -0.8349
 8050TIP3    H224115   0.309   4.669   2.501 -0.9121 -1.0062  1.8204
 8051TIP3   OH224116   5.204   2.100   4.223 -0.4791 -0.7149  0.5430
 8051TIP3    H124117   5.120   2.107   4.178 -0.4946 -1.2868  0.4765
 8051TIP3    H224118   5.186   2.129   4.313 -0.4878  0.2532  0.2472
 8052TIP3   OH224119   0.697   6.546   5.633  0.2010  0.8064 -0.3157
 8052TIP3    H124120   0.710   6.567   5.540  1.9452  2.3414  0.1965
 8052TIP3    H224121   0.603   6.533   5.642 -0.0318  0.7819 -2.2579
 8053TIP3   OH224122   5.804   6.594   4.466 -0.1142  0.0614 -0.0213
 8053TIP3    H124123   5.875   6.542   4.503 -2.0842 -2.3534  0.6522
 8053TIP3    H224124   5.758   6.534   4.408 -1.0266  1.8386 -1.2314
 8054TIP3   OH224125   5.240   3.545   3.006 -0.4074  0.7289  0.4538
 8054TIP3    H124126   5.249   3.629   2.961  0.6935  1.2685  1.6129
 8054TIP3    H224127   5.320   3.497   2.984 -0.2365  0.6802  1.1494
 8055TIP3   OH224128   2.383   4.318   5.075  0.3816 -0.2471  0.3177
 8055TIP3    H124129   2.469   4.301   5.038  0.7732 -1.0624  1.5295
 8055TIP3    H224130   2.322   4.307   5.002  1.2763  0.1828 -0.5123
 8056TIP3   OH224131   0.975   2.736   1.334 -0.2575  0.2139  0.2224
 8056TIP3    H124132   0.917   2.666   1.364  0.3706 -0.4891 -0.1918
 8056TIP3    H224133   0.989   2.790   1.413 -0.4827 -0.2992  0.6222
 8057TIP3   OH224134   4.905   5.868   0.043 -0.4634  0.2198 -0.3107
 8057TIP3    H124135   4.860   5.808   0.102  0.0583 -1.0131 -1.1348
 8057TIP3    H224136   4.933   5.814  -0.031  2.1760  0.9549  0.0338
 8058TIP3   OH224137   7.149   1.208   5.405  0.3884  0.4798  0.0489
 8058TIP3    H124138   7.067   1.213   5.454  0.3014 -1.7054  0.2300
 8058TIP3    H224139   7.215   1.193   5.472  0.6521  0.2195 -0.2675
 8059TIP3   OH224140   5.066   1.483   0.012  0.2586  0.1379  0.4737
 8059TIP3    H124141   5.039   1.487   0.104 -1.2629 -1.4367  0.1445
 8059TIP3    H224142   5.110   1.398   0.002  0.3191  0.2434 -0.2747
 8060TIP3   OH224143   2.866   1.550   0.848  0.1442  0.0918 -0.3949
 8060TIP3    H124144   2.837   1.615   0.785 -1.7902 -0.0211  0.2955
 8060TIP3    H224145   2.928   1.496   0.800  3.8255  3.7988 -0.3315
 8061TIP3   OH224146   4.769   6.017   2.544  0.6860 -0.1413 -0.3987
 8061TIP3    H124147   4.852   6.048   2.506  0.1524 -0.1005 -1.6007
 8061TIP3    H224148   4.723   5.977   2.470 -0.4400 -0.0157  0.2123
 8062TIP3   OH224149   6.239   0.870   4.606  0.4476 -0.2074  0.0937
 8062TIP3    H124150   6.189   0.796   4.641  0.4850 -0.8748 -1.1939
 8062TIP3    H224151   6.175   0.938   4.590  0.3645 -0.0670  1.0033
 8063TIP3   OH224152   4.782   0.879   4.879  0.0832 -0.2012  0.0067
 8063TIP3    H124153   4.871   0.910   4.898 -0.0737  0.1406  0.1740
 8063TIP3    H224154   4.758   0.827   4.955  0.4557 -0.9882 -0.3955
 8064TIP3   OH224155   7.077   0.497   1.629 -0.4644  0.2744 -0.4383
 8064TIP3    H124156   7.041   0.409   1.631 -1.6631  0.7077  2.8014
 8064TIP3    H224157   7.101   0.512   1.537 -1.1194 -3.0083 -1.2425
 8065TIP3   OH224158   2.134   1.281   0.485 -0.5016  0.1750  0.2458
 8065TIP3    H124159   2.128   1.238   0.400 -0.2775 -1.4002  1.0078
 8065TIP3    H224160   2.064   1.346   0.483  1.9485  3.1320 -2.6957
 8066TIP3   OH224161   3.186   2.156   5.887 -0.0711 -0.6183 -0.0376
 8066TIP3    H124162   3.209   2.072   5.848 -1.4405 -0.4321 -1.3123
 8066TIP3    H224163   3.152   2.208   5.815 -0.2662  0.6597  0.9412
 8067TIP3   OH224164   7.142   5.206   1.744  0.0038  0.2654 -0.2044
 8067TIP3    H124165   7.087   5.280   1.768 -0.8599 -0.9969  2.0544
 8067TIP3    H224166   7.080   5.135   1.725  0.8144 -0.1974 -1.1964
 8068TIP3   OH224167   6.958   4.341   0.305 -0.3437  0.1448 -0.3389
 8068TIP3    H124168   6.896   4.322   0.376  0.6409 -1.0508  0.2457
 8068TIP3    H224169   6.994   4.427   0.327 -1.3612  0.6028 -0.3881
 8069TIP3   OH224170   0.729   3.941   5.398  0.0569 -0.4803  0.2315
 8069TIP3    H124171   0.787   3.925   5.324  0.3658 -0.2188  0.4160
 8069TIP3    H224172   0.642   3.915   5.366  0.3857 -1.6380  0.2213
 8070TIP3   OH224173   4.995   5.817   4.797 -0.2157  0.0088 -0.0534
 8070TIP3    H124174   4.926   5.868   4.755 -1.2568  0.5317  2.1488
 8070TIP3    H224175   5.050   5.883   4.840  0.3639 -0.5465  0.0730
 8071TIP3   OH224176   1.075   5.699   5.534 -0.1260  0.0011  0.5074
 8071TIP3    H124177   1.038   5.753   5.604 -0.8775 -1.1013  0.9841
 8071TIP3    H224178   1.113   5.623   5.579  0.5536 -0.0818 -0.1815
 8072TIP3   OH224179   3.484   2.361   5.803  0.4805  0.1544 -0.5763
 8072TIP3    H124180   3.454   2.318   5.883  0.6464  0.1139 -0.5346
 8072TIP3    H224181   3.580   2.363   5.812  0.4684  0.6162 -0.5355
 8073TIP3   OH224182   3.517   3.492   0.450 -0.0025  0.1712  0.2949
 8073TIP3    H124183   3.441   3.504   0.506  1.5037  3.0574  1.9660
 8073TIP3    H224184   3.481   3.486   0.361 -2.1959  1.9079  0.9742
 8074TIP3   OH224185   0.706   6.575   4.524 -0.0582  0.2831  0.2278
 8074TIP3    H124186   0.718   6.506   4.589  0.1347  0.5903  0.5224
 8074TIP3    H224187   0.794   6.611   4.510 -0.1080  0.2675 -0.1524
 8075TIP3   OH224188   2.058   6.544   4.503  0.2718  0.3953 -0.1867
 8075TIP3    H124189   2.071   6.614   4.568  0.7424  0.2404 -0.1141
 8075TIP3    H224190   2.141   6.540   4.455 -0.3985  1.1753 -1.4557
 8076TIP3   OH224191   1.021   2.660   0.791 -0.0746  0.0043  0.1551
 8076TIP3    H124192   0.958   2.731   0.782 -1.2420 -1.1792 -1.6126
 8076TIP3    H224193   0.977   2.594   0.845  0.5097  0.0474  0.7108
 8077TIP3   OH224194   1.498   0.564   3.633  1.0858  0.6652 -0.0399
 8077TIP3    H124195   1.564   0.617   3.588  1.0178 -0.3589 -1.4280
 8077TIP3    H224196   1.547   0.491   3.671  0.8936  0.4426 -0.2111
 8078TIP3   OH224197   4.881   3.990   5.453 -0.0162 -0.1467  0.5530
 8078TIP3    H124198   4.807   3.995   5.392  0.7947  1.9527 -0.3343
 8078TIP3    H224199   4.842   3.966   5.537 -1.5445 -0.1924 -0.1491
 8079TIP3   OH224200   1.695   2.900   3.598 -0.3257  0.3646 -0.1162
 8079TIP3    H124201   1.616   2.901   3.651  0.6197  0.3422  1.3293
 8079TIP3    H224202   1.745   2.977   3.626  2.0530 -1.7707  2.0206
 8080TIP3   OH224203   2.388   3.962   2.040  0.0237 -0.3929 -0.4248
 8080TIP3    H124204   2.421   4.051   2.055  0.1550 -0.4149 -0.5776
 8080TIP3    H224205   2.317   3.952   2.103  1.5504 -1.0356  1.2968
 8081TIP3   OH224206   1.792   3.764   0.303  0.1180  0.2947  0.3958
 8081TIP3    H124207   1.763   3.855   0.304 -0.0630  0.2393  1.2280
 8081TIP3    H224208   1.884   3.768   0.330  1.2725  0.5604 -3.1360
 8082TIP3   OH224209   5.078   3.942   1.445 -0.8452  0.4110  0.1482
 8082TIP3    H124210   5.122   3.888   1.512 -3.8811 -0.5265  1.5521
 8082TIP3    H224211   5.150   3.984   1.398  1.5529 -1.5656  1.7699
 8083TIP3   OH224212   1.545   0.896   3.617  0.0079 -0.4812  0.0658
 8083TIP3    H124213   1.549   0.936   3.704 -0.2717 -0.4000  0.0414
 8083TIP3    H224214   1.468   0.935   3.576  0.1794 -0.4687 -0.2455
 8084TIP3   OH224215   1.530   4.798   5.390  0.2972 -0.3328  1.0276
 8084TIP3    H124216   1.618   4.828   5.370  0.0690  0.0553  0.6057
 8084TIP3    H224217   1.480   4.814   5.310  0.0955 -1.5539  0.8874
 8085TIP3   OH224218   1.151   2.245   3.546  0.3033 -0.7829 -0.0880
 8085TIP3    H124219   1.110   2.160   3.564 -0.3192 -0.1259  1.8970
 8085TIP3    H224220   1.097   2.283   3.476 -0.6003 -1.2288  0.3504
 8086TIP3   OH224221   3.799   6.517   4.928  0.1085  0.2281 -0.4749
 8086TIP3    H124222   3.809   6.481   4.840 -1.2499  0.2615 -0.6628
 8086TIP3    H224223   3.793   6.611   4.915  2.2693  0.4679 -0.1052
 8087TIP3   OH224224   6.576   3.251   0.638 -0.0179 -0.0104  0.1526
 8087TIP3    H124225   6.549   3.310   0.567 -1.3913 -0.0697  0.5920
 8087TIP3    H224226   6.519   3.175   0.629  0.8876 -0.7331  0.3579
 8088TIP3   OH224227   2.110   2.609   1.086 -0.2361 -0.0005  0.3160
 8088TIP3    H124228   2.053   2.641   1.156 -0.9706  0.9034 -0.6554
 8088TIP3    H224229   2.051   2.591   1.013  0.5244 -0.8345 -0.1080
 8089TIP3   OH224230   4.626   1.934   0.538  0.1303 -0.3187 -0.1753
 8089TIP3    H124231   4.717   1.946   0.513  0.2829 -1.0775 -0.0140
 8089TIP3    H224232   4.584   1.901   0.459  0.0293 -0.1426 -0.1967
 8090TIP3   OH224233   4.037   0.032   5.054 -0.1139  0.1442 -0.3652
 8090TIP3    H124234   4.103   0.039   5.124  1.3104 -0.9241 -1.5416
 8090TIP3    H224235   4.063   0.097   4.989 -1.9949  1.8197  0.4524
 8091TIP3   OH224236   5.193   6.009   5.720 -0.2873  0.2660 -0.4275
 8091TIP3    H124237   5.284   6.038   5.726  0.1943 -1.5206  2.1404
 8091TIP3    H224238   5.142   6.087   5.740  0.8646  0.3908  2.4567
 8092TIP3   OH224239   2.763   5.268   0.859 -0.6382 -0.3129 -0.0099
 8092TIP3    H124240   2.781   5.274   0.765 -0.2358  0.0945  0.0864
 8092TIP3    H224241   2.808   5.189   0.887 -0.7190 -0.4096 -0.1531
 8093TIP3   OH224242   2.281   1.633   0.271  0.5511 -0.5929 -0.3561
 8093TIP3    H124243   2.226   1.686   0.330  1.0944 -0.4810  0.0553
 8093TIP3    H224244   2.351   1.691   0.244  0.5684 -0.7912 -0.7360
 8094TIP3   OH224245   2.349   4.404   5.619 -0.6308  0.2745  0.7886
 8094TIP3    H124246   2.394   4.423   5.537 -0.3775 -2.8862  0.0707
 8094TIP3    H224247   2.270   4.458   5.616  0.2456  1.5913 -0.6268
 8095TIP3   OH224248   3.073   3.569   2.507  0.3439 -0.0391  0.4781
 8095TIP3    H124249   3.040   3.642   2.560  1.5705  0.3865  0.6777
 8095TIP3    H224250   3.149   3.605   2.462  1.8834 -1.5925  1.7191
 8096TIP3   OH224251   2.372   3.356   3.904 -0.0694 -0.5849 -0.1956
 8096TIP3    H124252   2.296   3.306   3.934 -0.0808 -0.5357 -0.1411
 8096TIP3    H224253   2.335   3.439   3.873  0.0685 -0.1066  0.8752
 8097TIP3   OH224254   2.054   6.395   3.350 -0.2930  0.0653 -0.0377
 8097TIP3    H124255   2.009   6.432   3.426 -0.7301  0.0079 -0.2664
 8097TIP3    H224256   2.147   6.401   3.372 -0.3782  0.8549  0.1308
 8098TIP3   OH224257   6.928   1.261   4.498  0.2187  0.2718 -0.3726
 8098TIP3    H124258   6.903   1.190   4.438  0.8492 -1.0045  0.8331
 8098TIP3    H224259   6.887   1.237   4.581  2.6117 -0.1154  0.7669
 8099TIP3   OH224260   2.108   1.947   4.520  0.3780  0.5621 -0.0512
 8099TIP3    H124261   2.189   1.995   4.503  1.0467 -0.5590 -0.1666
 8099TIP3    H224262   2.098   1.890   4.444  0.9570 -1.2387  1.1466
 8100TIP3   OH224263   6.455   4.691   5.550 -0.0931  0.0411 -0.1909
 8100TIP3    H124264   6.413   4.736   5.623  0.5073 -1.1227  0.8994
 8100TIP3    H224265   6.487   4.762   5.493 -1.4032  0.9453  0.1676
 8101TIP3   OH224266   1.109   5.022   5.110  0.5009 -0.2009  0.1472
 8101TIP3    H124267   1.069   4.938   5.134  0.4731 -0.1381  0.3210
 8101TIP3    H224268   1.118   5.069   5.193 -0.4650  0.3945 -0.0643
 8102TIP3   OH224269   5.464   0.657   2.839  0.4385  0.6258 -0.0045
 8102TIP3    H124270   5.502   0.703   2.764 -1.2256  0.5924 -0.9110
 8102TIP3    H224271   5.410   0.588   2.801  0.6084 -0.2652  1.2748
 8103TIP3   OH224272   6.635   3.410   1.304 -0.0249 -0.4865 -0.0032
 8103TIP3    H124273   6.607   3.460   1.381  0.4364 -0.7173  0.3162
 8103TIP3    H224274   6.603   3.462   1.230  0.8466  0.5402  0.3025
 8104TIP3   OH224275   1.499   5.099   4.678 -0.5777  0.2154 -0.4232
 8104TIP3    H124276   1.585   5.122   4.711 -1.6016  2.3377  0.9729
 8104TIP3    H224277   1.503   5.004   4.664  1.8668  0.2313 -0.1723
 8105TIP3   OH224278   0.928   1.423   1.851 -0.1076 -0.1694  1.1507
 8105TIP3    H124279   0.932   1.403   1.758 -1.4692  0.1007  1.0069
 8105TIP3    H224280   1.014   1.399   1.885  1.0935  1.4700 -0.5081
 8106TIP3   OH224281   3.504   3.738   4.418  0.2413 -0.0048  0.3953
 8106TIP3    H124282   3.597   3.746   4.395  0.1456 -1.9243 -0.9243
 8106TIP3    H224283   3.495   3.788   4.499  2.4884 -0.0179  0.7273
 8107TIP3   OH224284   4.044   0.187   3.329  0.1898  0.3322  0.1449
 8107TIP3    H124285   4.054   0.278   3.355 -1.8667  0.9557 -1.0697
 8107TIP3    H224286   4.067   0.185   3.236  1.2483 -0.6342  0.3965
 8108TIP3   OH224287   0.601   6.544   3.112  0.4884 -0.0269  0.9179
 8108TIP3    H124288   0.667   6.528   3.179  0.9209  1.5224  0.9065
 8108TIP3    H224289   0.651   6.557   3.031  0.0644 -0.4010  0.5879
 8109TIP3   OH224290   7.043   4.898   0.177 -0.2574  0.1005 -0.0071
 8109TIP3    H124291   7.125   4.932   0.212 -0.6326  0.9878  0.0456
 8109TIP3    H224292   6.996   4.864   0.253 -0.4410  0.6760  0.1412
 8110TIP3   OH224293   0.931   3.652   3.649  0.1278  0.1772 -0.4566
 8110TIP3    H124294   0.841   3.622   3.656 -0.3638  1.3421 -1.4738
 8110TIP3    H224295   0.947   3.659   3.555  0.8425  1.2190 -0.2720
 8111TIP3   OH224296   4.111   4.891   2.854  0.3332 -0.1351  0.0533
 8111TIP3    H124297   4.166   4.869   2.778  0.2708 -0.9245  0.2275
 8111TIP3    H224298   4.062   4.968   2.826  0.1751 -0.5293 -0.7797
 8112TIP3   OH224299   1.723   2.585   5.501 -0.0401 -0.0811  0.4642
 8112TIP3    H124300   1.712   2.547   5.588  2.0419  0.1896  0.8952
 8112TIP3    H224301   1.653   2.546   5.449 -2.4890  1.1229  2.6528
 8113TIP3   OH224302   3.179   1.563   3.009  0.2473  0.1454 -1.1123
 8113TIP3    H124303   3.268   1.558   2.974  0.7282 -0.6151  0.1350
 8113TIP3    H224304   3.189   1.611   3.092 -0.4381 -0.2712 -0.7769
 8114TIP3   OH224305   0.816   2.442   4.271  0.1882 -0.1720 -0.5872
 8114TIP3    H124306   0.745   2.506   4.276  1.1407  0.8436  0.4632
 8114TIP3    H224307   0.806   2.403   4.184 -0.9425  0.7761 -0.9180
 8115TIP3   OH224308   3.274   5.814   2.646 -0.0947 -0.2422  0.1966
 8115TIP3    H124309   3.216   5.764   2.704 -2.9227  1.2742 -1.1212
 8115TIP3    H224310   3.248   5.789   2.558  1.0538  0.7806 -0.4721
 8116TIP3   OH224311   5.950   6.292   1.986 -0.5733  0.5547 -0.0369
 8116TIP3    H124312   5.970   6.216   2.039  0.2727  0.7761 -0.0313
 8116TIP3    H224313   6.019   6.355   2.006 -0.9901  1.1393 -0.3999
 8117TIP3   OH224314   4.783   4.145   5.090  0.5905  0.3271 -0.2503
 8117TIP3    H124315   4.692   4.132   5.062 -0.1383  1.8047  1.2903
 8117TIP3    H224316   4.828   4.066   5.061 -0.8649  0.1584 -2.2693
 8118TIP3   OH224317   3.819   0.081   4.882  0.4403 -0.1927  0.1061
 8118TIP3    H124318   3.884   0.033   4.933 -1.2217 -1.7352  0.8571
 8118TIP3    H224319   3.746   0.020   4.872 -0.6309  1.2476 -1.2906
 8119TIP3   OH224320   6.744   1.269   2.693  0.2015 -0.4564 -0.0244
 8119TIP3    H124321   6.666   1.286   2.746 -2.6906 -4.3190 -2.4628
 8119TIP3    H224322   6.783   1.191   2.731 -0.2376 -1.5715 -1.7533
 8120TIP3   OH224323   5.344   0.497   5.505 -0.4087  0.1391  0.6495
 8120TIP3    H124324   5.422   0.515   5.558  0.9410 -0.4450 -1.0538
 8120TIP3    H224325   5.290   0.575   5.516  1.4821  1.6387  0.0739
 8121TIP3   OH224326   2.477   5.287   4.519 -0.3058  0.3025  0.2893
 8121TIP3    H124327   2.422   5.317   4.447 -0.0060  1.8325  0.6548
 8121TIP3    H224328   2.418   5.285   4.595 -0.5523 -1.0220  0.0852
 8122TIP3   OH224329   4.033   1.286   1.091  0.3157 -0.1538 -0.7555
 8122TIP3    H124330   3.982   1.318   1.016  1.0534  0.1274 -1.1505
 8122TIP3    H224331   4.056   1.197   1.067  0.2553 -0.1828 -0.7054
 8123TIP3   OH224332   0.526   6.082   5.231  0.4658 -0.2108 -0.6486
 8123TIP3    H124333   0.495   6.167   5.262  1.3628 -0.1435  0.1244
 8123TIP3    H224334   0.495   6.077   5.141 -0.3353  0.5574 -0.4328
 8124TIP3   OH224335   4.526   1.364   0.473  0.7048 -0.4704 -0.6191
 8124TIP3    H124336   4.494   1.395   0.557  2.4646 -2.4577  0.8870
 8124TIP3    H224337   4.512   1.269   0.475 -0.3342 -0.4530 -3.1154
 8125TIP3   OH224338   3.315   4.898   4.923  0.1684  0.1368 -0.1875
 8125TIP3    H124339   3.377   4.882   4.994 -0.0947  0.4972  0.1287
 8125TIP3    H224340   3.309   4.993   4.918 -0.1191  0.1077 -0.4250
 8126TIP3   OH224341   1.787   3.478   0.416  0.4031 -0.3303 -0.2883
 8126TIP3    H124342   1.715   3.478   0.353 -0.7198  0.3607  0.9446
 8126TIP3    H224343   1.802   3.571   0.434 -0.4837 -0.5207  1.7273
 8127TIP3   OH224344   0.203   2.604   3.562  0.3041  0.0594  0.0120
 8127TIP3    H124345   0.181   2.511   3.572 -0.0032  0.0651 -0.5691
 8127TIP3    H224346   0.164   2.629   3.478 -0.4029  0.9520  0.5922
 8128TIP3   OH224347   4.726   2.807   5.773 -0.5245  0.1275  0.3197
 8128TIP3    H124348   4.637   2.830   5.799 -1.4288 -1.7906 -0.8786
 8128TIP3    H224349   4.766   2.770   5.852 -0.9175  0.6025  0.7466
 8129TIP3   OH224350   6.529   0.956   2.375  0.0376 -0.0022 -0.2875
 8129TIP3    H124351   6.443   0.914   2.383  0.8665 -1.4907  1.3856
 8129TIP3    H224352   6.559   0.934   2.287 -1.4259  0.9016 -1.0663
 8130TIP3   OH224353   1.487   1.098   5.815  0.0665 -0.2758  0.2168
 8130TIP3    H124354   1.481   1.122   5.908  0.7796 -1.1985  0.5160
 8130TIP3    H224355   1.432   1.020   5.806 -1.1612  0.6234 -0.4682
 8131TIP3   OH224356   4.271   4.353   4.977  0.0190  0.1522  0.8971
 8131TIP3    H124357   4.224   4.369   4.895  1.1125  0.6108  0.3410
 8131TIP3    H224358   4.202   4.332   5.040 -0.8677  0.0651 -0.0654
 8132TIP3   OH224359   4.388   2.653   1.119  0.2237  0.1840 -0.0025
 8132TIP3    H124360   4.293   2.649   1.106 -0.0409  1.8613  1.1055
 8132TIP3    H224361   4.400   2.650   1.214  1.1116  1.9616 -0.0035
 8133TIP3   OH224362   3.722   5.550   2.258  0.0667  0.2978  0.2679
 8133TIP3    H124363   3.668   5.483   2.301  0.0991 -0.1483 -0.3690
 8133TIP3    H224364   3.664   5.592   2.195 -0.0010  1.0005  0.7925
 8134TIP3   OH224365   6.071   5.723   2.481 -0.3779 -0.3858 -0.3435
 8134TIP3    H124366   6.091   5.816   2.467 -0.5771  0.2862  3.0241
 8134TIP3    H224367   5.991   5.708   2.432  0.3643  0.8172 -2.0330
 8135TIP3   OH224368   4.705   4.872   3.314 -0.4581 -0.0819 -0.6370
 8135TIP3    H124369   4.769   4.940   3.293 -1.0252  0.3174 -1.1102
 8135TIP3    H224370   4.729   4.798   3.260  1.8585 -1.3164  1.8608
 8136TIP3   OH224371   1.531   3.534   1.598 -0.3532 -0.0396  0.5311
 8136TIP3    H124372   1.553   3.467   1.662 -1.4536 -0.1340  0.8400
 8136TIP3    H224373   1.611   3.546   1.547 -0.0812 -1.4652  0.5739
 8137TIP3   OH224374   4.001   2.570   2.433  0.0802  0.4974  0.1927
 8137TIP3    H124375   4.052   2.644   2.468  1.3319 -1.2666  2.3337
 8137TIP3    H224376   3.965   2.527   2.511  0.4397 -1.8861 -0.8848
 8138TIP3   OH224377   4.428   1.851   3.934  0.4299 -0.0585 -0.2004
 8138TIP3    H124378   4.424   1.836   3.840  0.1329  0.3979 -0.2631
 8138TIP3    H224379   4.345   1.894   3.956  1.2548  1.5508 -0.0533
 8139TIP3   OH224380   4.024   4.859   3.800  0.0677  0.1066  0.2261
 8139TIP3    H124381   4.024   4.955   3.795  3.3769  0.2611  0.9759
 8139TIP3    H224382   3.958   4.839   3.867  0.9165  2.0874  1.7715
 8140TIP3   OH224383   3.969   4.278   0.328 -0.4934 -0.0042 -0.6424
 8140TIP3    H124384   3.940   4.230   0.250  1.3357 -1.2700 -0.5984
 8140TIP3    H224385   4.060   4.300   0.309 -0.0403 -0.2761  1.1094
 8141TIP3   OH224386   4.521   2.012   4.280  0.4901  0.3807  0.2162
 8141TIP3    H124387   4.570   2.050   4.353  0.4150 -1.9684  1.5973
 8141TIP3    H224388   4.551   1.921   4.277 -0.3517  0.1318 -1.9829
 8142TIP3   OH224389   0.106   2.759   3.349 -0.1399 -0.1793 -0.4069
 8142TIP3    H124390   0.026   2.803   3.320 -0.2841 -0.5839 -0.6454
 8142TIP3    H224391   0.155   2.743   3.268 -0.6289 -1.4778 -0.4679
 8143TIP3   OH224392   1.928   6.356   1.955  0.0075  0.4802  0.4249
 8143TIP3    H124393   1.913   6.345   1.861  2.2340 -1.4958  0.2085
 8143TIP3    H224394   1.850   6.402   1.986 -1.6220 -0.3682 -2.0668
 8144TIP3   OH224395   0.812   4.373   5.093 -0.2003 -0.4461 -0.5314
 8144TIP3    H124396   0.728   4.360   5.137 -0.1984 -0.6843 -0.6000
 8144TIP3    H224397   0.874   4.391   5.164 -0.5620  1.0892 -0.5635
 8145TIP3   OH224398   4.507   4.470   5.041 -0.0437 -0.2103 -0.5543
 8145TIP3    H124399   4.501   4.435   5.130 -0.2507  0.2874 -0.3690
 8145TIP3    H224400   4.418   4.461   5.006 -0.3795  1.2064 -0.0910
 8146TIP3   OH224401   6.423   3.709   4.524 -0.7364  0.4545 -0.0084
 8146TIP3    H124402   6.436   3.722   4.618 -0.6145 -3.2058  0.6382
 8146TIP3    H224403   6.504   3.741   4.484 -0.5672  1.5461  1.1464
 8147TIP3   OH224404   3.868   0.138   4.311 -0.3238 -0.4723 -0.2356
 8147TIP3    H124405   3.955   0.172   4.290  0.0427 -1.2657 -0.0349
 8147TIP3    H224406   3.818   0.216   4.338  0.4671 -0.0770  0.1337
 8148TIP3   OH224407   1.639   2.229   2.373  0.2267  0.7360 -0.0976
 8148TIP3    H124408   1.608   2.179   2.449  0.0221  1.2679  0.1730
 8148TIP3    H224409   1.660   2.163   2.308 -1.1220  0.3426 -0.1591
 8149TIP3   OH224410   5.634   0.503   0.490 -0.4195 -0.6543 -0.0703
 8149TIP3    H124411   5.581   0.578   0.464 -1.4854 -1.1640  0.5555
 8149TIP3    H224412   5.698   0.538   0.551 -0.6507 -0.1828 -0.0975
 8150TIP3   OH224413   2.099   1.255   4.533  0.3286 -0.0432  0.5352
 8150TIP3    H124414   2.118   1.301   4.452  1.2354  0.5708  1.0808
 8150TIP3    H224415   2.185   1.233   4.569 -0.0809 -1.7967  0.5055
 8151TIP3   OH224416   2.940   4.852   0.422 -0.5304 -0.4636 -0.0558
 8151TIP3    H124417   2.863   4.835   0.366 -0.5489  0.2156 -0.2512
 8151TIP3    H224418   2.903   4.886   0.503 -0.4642 -0.7788  0.1095
 8152TIP3   OH224419   2.307   3.665   5.397 -0.3029 -0.3820  0.3829
 8152TIP3    H124420   2.328   3.650   5.305  1.6993  0.7296  0.5937
 8152TIP3    H224421   2.237   3.729   5.396  1.4999  1.7263 -0.4419
 8153TIP3   OH224422   0.639   3.121   0.796 -0.1598 -0.0337  0.1628
 8153TIP3    H124423   0.646   3.210   0.831  1.2407  0.1451 -0.4981
 8153TIP3    H224424   0.718   3.077   0.826 -1.0835 -1.2364  0.9061
 8154TIP3   OH224425   0.517   3.631   1.184  0.3613 -0.4028  0.3116
 8154TIP3    H124426   0.552   3.558   1.132  0.1071 -1.5954  1.7337
 8154TIP3    H224427   0.483   3.589   1.263 -2.4187  0.9277 -0.0718
 8155TIP3   OH224428   6.245   1.959   0.148  0.2804 -0.2992 -0.0936
 8155TIP3    H124429   6.314   1.936   0.086  0.2872 -2.1901  0.5754
 8155TIP3    H224430   6.200   1.877   0.167 -1.9031  0.8085 -0.1664
 8156TIP3   OH224431   4.841   6.061   3.266 -0.2774  0.1086  0.2763
 8156TIP3    H124432   4.777   6.085   3.198 -1.0426  0.1835  1.0114
 8156TIP3    H224433   4.788   6.020   3.335  0.3765  0.8019  1.2077
 8157TIP3   OH224434   6.209   1.356   0.762 -0.2334 -0.1041 -0.0869
 8157TIP3    H124435   6.171   1.269   0.779 -1.4771  0.4281  0.0173
 8157TIP3    H224436   6.132   1.412   0.749  0.5201  1.1994  0.9232
 8158TIP3   OH224437   1.039   6.049   5.200 -0.2274 -0.1862  0.3615
 8158TIP3    H124438   0.949   6.080   5.213 -0.0464  0.2558  0.5647
 8158TIP3    H224439   1.030   5.976   5.138 -0.8086 -0.6230  0.9457
 8159TIP3   OH224440   6.175   2.429   1.084  0.2486  0.3570  0.8175
 8159TIP3    H124441   6.172   2.348   1.135  2.4846  0.1647  0.7139
 8159TIP3    H224442   6.163   2.401   0.993 -0.8374  0.3774  0.9414
 8160TIP3   OH224443   1.743   5.430   3.119 -0.1235  0.2555 -0.0402
 8160TIP3    H124444   1.681   5.499   3.143  1.5597  1.9328 -0.2235
 8160TIP3    H224445   1.744   5.432   3.023  1.0732  1.1082 -0.0309
 8161TIP3   OH224446   3.859   5.867   2.489  0.5037 -0.1274 -0.1499
 8161TIP3    H124447   3.791   5.925   2.453 -0.5229 -0.5876  0.9630
 8161TIP3    H224448   3.894   5.916   2.563  0.5509 -0.3884 -0.0001
 8162TIP3   OH224449   1.730   0.908   5.270  1.1537  0.1665  0.1627
 8162TIP3    H124450   1.823   0.913   5.252  0.6379  1.4854 -2.7595
 8162TIP3    H224451   1.704   0.821   5.239  1.0334  0.7978 -1.6504
 8163TIP3   OH224452   3.447   0.451   1.853 -0.0845 -0.1481  0.8468
 8163TIP3    H124453   3.451   0.535   1.809  0.9020 -0.1524  0.8964
 8163TIP3    H224454   3.502   0.393   1.800 -1.2330 -0.9257  0.4824
 8164TIP3   OH224455   5.653   3.606   1.276 -0.0136  0.7031 -0.0626
 8164TIP3    H124456   5.670   3.514   1.292  0.4419  0.9026  0.6585
 8164TIP3    H224457   5.559   3.611   1.263 -0.3675  0.4220  2.0774
 8165TIP3   OH224458   6.923   6.235   1.575  0.0015 -0.1962  0.0455
 8165TIP3    H124459   6.910   6.260   1.666 -0.0564  1.2657 -0.3433
 8165TIP3    H224460   6.945   6.316   1.530  0.4055 -0.9521 -1.1862
 8166TIP3   OH224461   5.808   4.223   1.962  0.1384 -0.2656  0.6398
 8166TIP3    H124462   5.883   4.260   2.009  2.2318 -4.1258  0.7275
 8166TIP3    H224463   5.803   4.275   1.882  2.0796  0.9369  1.2226
 8167TIP3   OH224464   4.397   5.552   3.474 -0.2467  0.2880 -0.1153
 8167TIP3    H124465   4.367   5.633   3.432  0.3433 -0.0465 -1.2363
 8167TIP3    H224466   4.425   5.579   3.561  0.7668  1.4563 -0.7682
 8168TIP3   OH224467   5.840   5.955   0.172  0.4511  0.2124  0.1227
 8168TIP3    H124468   5.824   5.861   0.179  1.1730  0.1611  1.1497
 8168TIP3    H224469   5.870   5.982   0.259  2.0585  1.0517 -0.6491
 8169TIP3   OH224470   4.071   0.543   2.657 -0.2830 -0.0943 -0.0728
 8169TIP3    H124471   4.157   0.574   2.684  0.3057 -1.9885  0.3988
 8169TIP3    H224472   4.026   0.523   2.739 -0.7032 -0.3057 -0.3516
 8170TIP3   OH224473   0.384   1.588   0.913 -0.5256  0.4297 -0.4689
 8170TIP3    H124474   0.411   1.531   0.841  0.4282  2.1017 -1.4997
 8170TIP3    H224475   0.438   1.561   0.987  0.0648  0.1225 -1.0010
 8171TIP3   OH224476   2.614   6.665   4.333 -0.6715  0.5498  0.4729
 8171TIP3    H124477   2.666   6.600   4.286 -1.5106 -0.6421  1.1520
 8171TIP3    H224478   2.571   6.716   4.264 -1.8551 -1.1517 -0.1117
 8172TIP3   OH224479   4.216   5.285   0.710  0.2135  0.1870  0.0003
 8172TIP3    H124480   4.126   5.257   0.728  0.0938  0.6734  0.1630
 8172TIP3    H224481   4.235   5.247   0.624 -0.3738  0.6122 -0.3255
 8173TIP3   OH224482   1.798   4.391   3.802  0.0036  0.3661 -1.0354
 8173TIP3    H124483   1.870   4.411   3.743  1.0264  0.3227  0.1618
 8173TIP3    H224484   1.839   4.343   3.874 -1.0079  1.3956  0.2738
 8174TIP3   OH224485   2.969   6.359   1.672  0.3112  0.0832  0.7525
 8174TIP3    H124486   3.035   6.290   1.666 -0.3777 -0.6476  1.4150
 8174TIP3    H224487   2.957   6.373   1.766 -1.3235 -0.6390  0.6888
 8175TIP3   OH224488   0.902   6.198   4.290  0.0657  0.2517 -0.1320
 8175TIP3    H124489   0.927   6.287   4.267 -0.6630  0.7127  0.8083
 8175TIP3    H224490   0.920   6.191   4.383 -0.2621 -0.4480 -0.1141
 8176TIP3   OH224491   1.118   4.889   5.681  0.0207 -0.0653 -0.0777
 8176TIP3    H124492   1.203   4.888   5.637  0.5885 -0.3403  0.9732
 8176TIP3    H224493   1.066   4.951   5.631  0.9004  0.2467 -0.6431
 8177TIP3   OH224494   1.772   0.126   5.892 -0.4657 -0.2395  0.0067
 8177TIP3    H124495   1.772   0.170   5.807 -2.3229 -0.8439 -0.3652
 8177TIP3    H224496   1.712   0.052   5.880  1.2376 -1.8848  1.0990
 8178TIP3   OH224497   6.360   3.927   1.293  0.0701  0.3627 -0.1051
 8178TIP3    H124498   6.376   3.845   1.247  1.5368 -0.0022  0.9746
 8178TIP3    H224499   6.265   3.940   1.288 -0.0200 -0.6676 -1.4738
 8179TIP3   OH224500   6.906   2.126   1.682 -0.1451 -0.2373  0.1621
 8179TIP3    H124501   6.821   2.085   1.698  1.0880 -2.1819  2.2265
 8179TIP3    H224502   6.906   2.144   1.588 -1.7161 -2.9433 -0.4778
 8180TIP3   OH224503   5.082   4.001   3.795  0.2094  0.0177 -0.6206
 8180TIP3    H124504   5.015   4.049   3.843  0.6209  1.6507 -1.5966
 8180TIP3    H224505   5.047   3.913   3.786 -0.9837  0.3534  0.4404
 8181TIP3   OH224506   4.589   4.746   1.075  0.1810  0.4573  0.2646
 8181TIP3    H124507   4.592   4.773   1.167 -0.1570  0.0788  0.3894
 8181TIP3    H224508   4.496   4.729   1.059  0.2951  0.1152 -0.0264
 8182TIP3   OH224509   0.672   2.360   4.013  0.1424 -0.7972 -0.7808
 8182TIP3    H124510   0.627   2.386   3.932  1.3136  0.5096 -1.0456
 8182TIP3    H224511   0.601   2.339   4.074 -0.9676  2.4608 -0.7584
 8183TIP3   OH224512   1.705   0.225   0.538  0.4726  0.3914 -0.6127
 8183TIP3    H124513   1.714   0.135   0.506  3.7464 -0.0308  0.9890
 8183TIP3    H224514   1.620   0.226   0.581  1.6940 -3.2898  2.5913
 8184TIP3   OH224515   6.165   0.489   1.751  0.5958 -0.1217 -0.4052
 8184TIP3    H124516   6.092   0.528   1.800  2.0300  1.7341  0.3633
 8184TIP3    H224517   6.243   0.512   1.802  1.8093 -1.4327 -1.5904
 8185TIP3   OH224518   2.836   0.158   3.139  0.1734 -0.4556  0.3326
 8185TIP3    H124519   2.851   0.178   3.047 -2.2710 -0.0468 -0.0462
 8185TIP3    H224520   2.900   0.090   3.160  0.6976 -0.6430 -1.6961
 8186TIP3   OH224521   1.357   5.062   1.239  0.4252  0.2012 -0.7369
 8186TIP3    H124522   1.277   5.023   1.272  0.8835 -0.6451 -0.6014
 8186TIP3    H224523   1.353   5.153   1.268 -0.1246 -0.0283 -0.0833
 8187TIP3   OH224524   3.770   3.778   2.352 -0.1622 -0.4590  0.1346
 8187TIP3    H124525   3.856   3.749   2.322  1.1771  1.3066  1.9432
 8187TIP3    H224526   3.764   3.870   2.324 -0.7894 -0.1143  1.3089
 8188TIP3   OH224527   0.794   1.171   5.153  0.2111  0.4092 -0.2485
 8188TIP3    H124528   0.877   1.171   5.201  0.2339 -0.6858 -0.2595
 8188TIP3    H224529   0.729   1.142   5.216  0.1985 -0.7815 -0.7816
 8189TIP3   OH224530   2.477   2.886   2.948 -0.2384 -0.1286  0.2421
 8189TIP3    H124531   2.387   2.910   2.926  0.5910  1.8636 -1.4240
 8189TIP3    H224532   2.469   2.805   2.998 -3.1952  1.9490  3.6761
 8190TIP3   OH224533   1.776   1.256   5.758  0.0811 -0.1369  0.2522
 8190TIP3    H124534   1.768   1.162   5.747 -1.6702 -0.0307  0.3285
 8190TIP3    H224535   1.742   1.293   5.677 -0.6070  0.4392  0.7833
 8191TIP3   OH224536   0.443   0.444   5.302  0.5821  0.2127 -0.0269
 8191TIP3    H124537   0.447   0.396   5.385  0.2472  1.1587  0.5515
 8191TIP3    H224538   0.532   0.474   5.287  0.3673  1.3410  0.7986
 8192TIP3   OH224539   6.044   5.147   2.494  0.2682  0.4314 -0.0414
 8192TIP3    H124540   5.960   5.103   2.507 -0.6311  1.4506 -1.9210
 8192TIP3    H224541   6.110   5.078   2.505 -0.9817 -1.0227 -1.2347
 8193TIP3   OH224542   4.869   2.759   3.785 -0.1876  0.0227  0.1894
 8193TIP3    H124543   4.857   2.761   3.880 -1.1856  2.8577  0.0982
 8193TIP3    H224544   4.964   2.760   3.773 -0.0562  0.2551  1.1718
 8194TIP3   OH224545   2.497   2.514   3.818 -0.2876  0.2536 -0.7165
 8194TIP3    H124546   2.502   2.607   3.841 -1.3100  0.2135 -0.2642
 8194TIP3    H224547   2.567   2.473   3.868 -1.4058  0.4261  1.0714
 8195TIP3   OH224548   6.177   2.186   2.738  0.1845 -0.0980  0.2111
 8195TIP3    H124549   6.198   2.262   2.684  0.6047 -0.2840  0.1081
 8195TIP3    H224550   6.222   2.202   2.821  0.1475 -0.1602  0.2433
 8196TIP3   OH224551   2.853   5.440   5.606  0.3570 -0.2233 -0.0722
 8196TIP3    H124552   2.898   5.472   5.685 -0.9497  1.2718  0.1102
 8196TIP3    H224553   2.923   5.401   5.554  1.4575 -0.1688  1.2883
 8197TIP3   OH224554   0.169   0.559   3.931  0.3525  0.2799  0.2559
 8197TIP3    H124555   0.098   0.609   3.890  0.4056  0.8052  0.7935
 8197TIP3    H224556   0.242   0.566   3.869  0.0497  0.0260 -0.1371
 8198TIP3   OH224557   0.187   0.528   5.325 -0.0452  0.3387  0.2166
 8198TIP3    H124558   0.133   0.583   5.268 -1.1525 -0.4210  0.4840
 8198TIP3    H224559   0.265   0.509   5.273 -1.2934 -0.8336 -1.3400
 8199TIP3   OH224560   1.869   5.013   3.756  0.1307  0.2638 -0.1265
 8199TIP3    H124561   1.880   5.037   3.848  0.8213 -0.2723 -0.0538
 8199TIP3    H224562   1.920   4.932   3.747 -0.2753  0.0841 -0.8819
 8200TIP3   OH224563   4.807   0.175   1.538  0.0559 -0.1049 -0.7330
 8200TIP3    H124564   4.804   0.265   1.505  0.5977  0.6282  1.1124
 8200TIP3    H224565   4.892   0.141   1.510  0.4987  0.4978 -0.1433
 8201TIP3   OH224566   2.152   3.098   0.470 -0.7929 -0.0471 -0.5451
 8201TIP3    H124567   2.169   3.191   0.460 -1.0655 -0.0254 -0.8184
 8201TIP3    H224568   2.203   3.072   0.546  2.5397 -0.5441 -2.7725
 8202TIP3   OH224569   0.801   4.064   0.766  0.2490  0.1209  0.1024
 8202TIP3    H124570   0.795   4.141   0.823 -0.2923  1.0330 -1.1345
 8202TIP3    H224571   0.711   4.032   0.759  0.6062 -1.3255  1.4758
 8203TIP3   OH224572   3.373   2.356   0.425  0.2806  0.0040 -0.1418
 8203TIP3    H124573   3.316   2.414   0.476  0.6076 -1.0406  1.4668
 8203TIP3    H224574   3.314   2.288   0.392  0.3661 -0.3915  0.4945
 8204TIP3   OH224575   1.768   0.769   0.178 -0.0954 -0.1964  0.0879
 8204TIP3    H124576   1.743   0.679   0.157  0.3451 -0.9014  2.3346
 8204TIP3    H224577   1.707   0.796   0.246  0.0681  1.0746 -0.2358
 8205TIP3   OH224578   4.078   3.825   2.530  0.2249  0.8199  0.4068
 8205TIP3    H124579   4.020   3.899   2.510  0.9959  1.1724 -0.5995
 8205TIP3    H224580   4.091   3.781   2.445  0.1977 -0.1723  0.8990
 8206TIP3   OH224581   1.902   1.320   0.047 -0.2162  0.1760 -0.3639
 8206TIP3    H124582   1.839   1.370   0.099  0.1865 -0.5654  0.8753
 8206TIP3    H224583   1.861   1.234   0.036  0.5911 -0.3384  0.5228
 8207TIP3   OH224584   6.640   3.017   1.052 -0.1499  0.1207 -0.3522
 8207TIP3    H124585   6.623   3.096   1.001 -0.6181  0.2262 -0.0425
 8207TIP3    H224586   6.616   3.041   1.141 -0.6460 -0.4826 -0.3167
 8208TIP3   OH224587   2.950   3.558   4.371  0.2098 -0.1842 -0.1516
 8208TIP3    H124588   3.032   3.544   4.324  0.2985  0.2088 -0.1185
 8208TIP3    H224589   2.928   3.649   4.353 -0.6757 -0.5179 -0.8836
 8209TIP3   OH224590   6.016   1.160   5.198  0.3194  0.0193  0.5719
 8209TIP3    H124591   6.030   1.216   5.122  1.4590 -1.7543 -0.6022
 8209TIP3    H224592   6.057   1.207   5.270 -0.0483  1.3552 -0.0580
 8210TIP3   OH224593   2.626   5.962   5.712 -0.2806 -0.1154  0.5620
 8210TIP3    H124594   2.657   6.034   5.767  0.4832  1.6666 -2.0196
 8210TIP3    H224595   2.669   5.885   5.749  2.1530  1.3412  1.0351
 8211TIP3   OH224596   6.220   5.052   1.943 -0.2316  1.0326 -0.3759
 8211TIP3    H124597   6.253   4.966   1.918  0.5148  1.0221  0.5931
 8211TIP3    H224598   6.282   5.114   1.904  0.6571  1.0321  0.9973
 8212TIP3   OH224599   4.332   0.054   4.138 -0.0860  0.3845  0.4188
 8212TIP3    H124600   4.291  -0.010   4.196 -0.7704 -0.6131 -1.1027
 8212TIP3    H224601   4.398   0.097   4.192  0.7278 -1.9443  1.3804
 8213TIP3   OH224602   2.688   6.407   3.167  0.1053 -0.9357  0.4397
 8213TIP3    H124603   2.601   6.447   3.163  1.0086  1.0923 -0.3107
 8213TIP3    H224604   2.698   6.382   3.259 -1.0473 -0.6974  0.6492
 8214TIP3   OH224605   5.541   1.533   0.198 -0.8381 -0.5021 -0.2846
 8214TIP3    H124606   5.614   1.593   0.181 -1.3097 -0.0907 -0.8960
 8214TIP3    H224607   5.522   1.494   0.113 -0.9832 -1.0161 -0.0211
 8215TIP3   OH224608   5.653   0.216   3.889 -0.1929  0.3745 -0.6387
 8215TIP3    H124609   5.746   0.214   3.866 -0.3845 -0.5508 -1.3972
 8215TIP3    H224610   5.649   0.175   3.976 -0.2306 -2.8875 -2.0464
 8216TIP3   OH224611   0.328   5.279   4.779 -0.5394 -0.1016  0.3811
 8216TIP3    H124612   0.348   5.372   4.778 -1.8982  0.2016  0.4905
 8216TIP3    H224613   0.341   5.250   4.689 -0.0237  0.1670  0.3692
 8217TIP3   OH224614   2.902   2.166   4.938  0.2324  0.1495 -0.0095
 8217TIP3    H124615   2.974   2.116   4.900 -0.9094 -0.4013 -1.5113
 8217TIP3    H224616   2.848   2.101   4.982  1.6702  0.7937  2.9892
 8218TIP3   OH224617   4.644   3.513   4.358  0.3685  0.3514  0.1738
 8218TIP3    H124618   4.607   3.425   4.371 -0.6175  0.7348  0.1048
 8218TIP3    H224619   4.663   3.518   4.265  2.3488 -0.4854  0.4774
 8219TIP3   OH224620   0.063   0.408   2.743  0.3557 -0.5549 -0.1398
 8219TIP3    H124621   0.081   0.472   2.812 -0.6342 -0.8792  0.4331
 8219TIP3    H224622   0.107   0.443   2.666 -0.4902  1.0163  0.0580
 8220TIP3   OH224623   2.490   3.788   2.758  0.3780  0.8829 -0.1353
 8220TIP3    H124624   2.415   3.772   2.816 -0.5203  3.0501 -0.5802
 8220TIP3    H224625   2.467   3.745   2.676 -0.2923  1.3372 -0.1931
 8221TIP3   OH224626   3.744   3.767   0.220 -0.0978  0.1796  0.4551
 8221TIP3    H124627   3.780   3.818   0.147  0.7461 -1.8605 -0.6306
 8221TIP3    H224628   3.805   3.693   0.230 -1.1810 -0.5532  2.0641
 8222TIP3   OH224629   0.140   1.398   1.867 -0.5880 -0.0740  0.3445
 8222TIP3    H124630   0.112   1.310   1.892  0.2828 -0.2019  0.9361
 8222TIP3    H224631   0.087   1.456   1.922 -0.7879 -0.2477  0.3376
 8223TIP3   OH224632   2.880   4.191   2.666  0.4543  0.4387  0.6435
 8223TIP3    H124633   2.791   4.182   2.701  0.1736 -0.4099 -0.2297
 8223TIP3    H224634   2.890   4.285   2.649 -2.2174  0.2133 -3.9072
 8224TIP3   OH224635   6.988   3.011   3.787 -0.1532  0.0787 -0.0901
 8224TIP3    H124636   7.070   3.005   3.738 -0.0466  1.8970 -0.1707
 8224TIP3    H224637   7.011   3.059   3.866 -1.3937  1.8887 -0.7682
 8225TIP3   OH224638   2.030   1.390   1.512  0.0647 -0.1443  0.8300
 8225TIP3    H124639   2.028   1.484   1.494  0.9869 -0.3297 -0.3684
 8225TIP3    H224640   2.123   1.368   1.514 -0.1094 -0.8396  2.2274
 8226TIP3   OH224641   5.010   2.119   3.512 -0.3365  0.4735  0.1532
 8226TIP3    H124642   5.041   2.119   3.421  1.3962  0.0104  0.7062
 8226TIP3    H224643   4.926   2.165   3.509 -0.6306 -0.1244 -1.7797
 8227TIP3   OH224644   6.037   4.781   4.598 -0.0772  0.4529 -0.0595
 8227TIP3    H124645   6.034   4.691   4.564 -1.1236  1.1223 -1.9035
 8227TIP3    H224646   5.946   4.805   4.612  0.2153  1.1005  0.8210
 8228TIP3   OH224647   2.827   5.217   5.886 -0.0394  0.1293  0.2876
 8228TIP3    H124648   2.758   5.154   5.868  0.9971 -0.9301 -0.0735
 8228TIP3    H224649   2.828   5.275   5.810  0.2885 -0.6214 -0.2896
 8229TIP3   OH224650   1.922   3.264   4.288  0.3378  0.4525 -0.5572
 8229TIP3    H124651   1.909   3.296   4.199 -0.6740  1.4232 -0.0909
 8229TIP3    H224652   1.834   3.261   4.325  0.6161 -1.0633  0.0484
 8230TIP3   OH224653   2.856   0.724   0.299 -0.2135 -0.2014  0.6706
 8230TIP3    H124654   2.895   0.791   0.242 -0.3244 -0.4771  0.2659
 8230TIP3    H224655   2.795   0.772   0.354 -1.7835 -0.2265 -0.9727
 8231TIP3   OH224656   2.664   2.325   1.116 -0.4339 -0.3701 -1.0761
 8231TIP3    H124657   2.604   2.310   1.189  0.2929  0.9268 -0.1766
 8231TIP3    H224658   2.620   2.392   1.063  1.5531  3.2319  1.4072
 8232TIP3   OH224659   5.721   6.398   0.127 -0.0388 -0.0556  0.4181
 8232TIP3    H124660   5.669   6.318   0.117  0.4467 -0.4112  0.6950
 8232TIP3    H224661   5.812   6.368   0.123  0.2036  0.0857  3.1746
 8233TIP3   OH224662   0.329   4.664   5.118  0.0940 -0.2716 -0.0168
 8233TIP3    H124663   0.367   4.593   5.065  1.3322 -0.4536  1.0666
 8233TIP3    H224664   0.383   4.740   5.097  0.2946 -0.2352  0.6150
 8234TIP3   OH224665   3.301   6.119   1.530  0.2513  0.4199  0.1951
 8234TIP3    H124666   3.283   6.029   1.500 -1.2280  0.6538  0.3309
 8234TIP3    H224667   3.252   6.128   1.611  1.2629  1.0169  0.7580
 8235TIP3   OH224668   5.544   5.538   3.119  0.0634  0.1861  0.0410
 8235TIP3    H124669   5.636   5.520   3.139  0.6237  0.6034 -1.9340
 8235TIP3    H224670   5.507   5.452   3.102  1.0676  0.1945 -2.7556
 8236TIP3   OH224671   5.387   3.946   4.966 -0.3049 -0.4476 -0.8601
 8236TIP3    H124672   5.416   3.986   5.047  0.4968  0.4514 -1.5670
 8236TIP3    H224673   5.326   3.877   4.993  1.8881 -1.9164  0.6398
 8237TIP3   OH224674   1.373   2.988   5.831  0.2137  0.9722  0.4912
 8237TIP3    H124675   1.330   3.026   5.755 -1.9053 -2.4430 -0.2426
 8237TIP3    H224676   1.427   2.917   5.796  0.9968  0.7818  1.9848
 8238TIP3   OH224677   1.619   5.174   2.809 -0.0825 -0.2803  0.1837
 8238TIP3    H124678   1.672   5.149   2.884  0.3674  2.2938  0.8252
 8238TIP3    H224679   1.533   5.135   2.825  0.6012 -1.5324  0.9208
 8239TIP3   OH224680   5.498   3.308   0.242  0.3083 -0.1877 -0.1318
 8239TIP3    H124681   5.585   3.325   0.206  1.8836 -2.6771  2.1133
 8239TIP3    H224682   5.460   3.244   0.182 -0.6082  1.8267 -1.8196
 8240TIP3   OH224683   4.917   4.625   1.149  0.3803  0.0434 -0.1647
 8240TIP3    H124684   4.981   4.555   1.165 -0.2946 -0.3998  0.7240
 8240TIP3    H224685   4.841   4.600   1.202 -0.8505  0.1270 -1.8215
 8241TIP3   OH224686   4.009   2.002   1.995  0.6672  0.0118  0.1373
 8241TIP3    H124687   4.101   1.998   1.970  0.7575 -1.6598  0.6089
 8241TIP3    H224688   3.964   2.031   1.915  1.7394  2.6396  0.4070
 8242TIP3   OH224689   6.902   1.307   4.972 -0.3799 -0.5199  0.6853
 8242TIP3    H124690   6.847   1.251   4.918 -0.6282 -0.0849  0.4787
 8242TIP3    H224691   6.929   1.251   5.045 -1.4725 -0.6227  1.0424
 8243TIP3   OH224692   0.443   3.752   2.920  0.3738  0.0066 -0.7760
 8243TIP3    H124693   0.475   3.840   2.901  1.4938 -0.4053 -0.9035
 8243TIP3    H224694   0.468   3.701   2.843  1.5162 -0.8415  0.1133
 8244TIP3   OH224695   0.296   6.117   0.202  0.3831 -0.3669 -0.0611
 8244TIP3    H124696   0.267   6.102   0.292 -1.6628  0.1806 -0.5873
 8244TIP3    H224697   0.242   6.058   0.149 -1.3965  2.1946 -1.2863
 8245TIP3   OH224698   1.498   0.515   4.927 -0.1244 -0.7878 -0.1331
 8245TIP3    H124699   1.465   0.603   4.947 -0.0932 -0.8745  0.3008
 8245TIP3    H224700   1.524   0.520   4.835 -0.7624 -0.5348 -0.3054
 8246TIP3   OH224701   4.376   2.051   1.018  0.1749  0.3210 -0.1009
 8246TIP3    H124702   4.364   1.971   1.069  0.1310 -0.1252 -0.7987
 8246TIP3    H224703   4.440   2.028   0.951 -0.6584  0.5325 -0.9997
 8247TIP3   OH224704   0.981   1.462   0.805  0.3238  0.1269  0.1826
 8247TIP3    H124705   0.962   1.412   0.885 -1.0082  1.2220  0.5808
 8247TIP3    H224706   0.912   1.436   0.744  0.9005 -0.1351 -0.3669
 8248TIP3   OH224707   5.542   1.369   4.000 -0.2849 -0.2552  0.1469
 8248TIP3    H124708   5.533   1.310   4.075  1.7988  0.9868  1.4323
 8248TIP3    H224709   5.469   1.345   3.943 -0.5100 -2.9049  1.4031
 8249TIP3   OH224710   1.037   5.438   3.670 -0.2564 -0.0742 -0.0926
 8249TIP3    H124711   1.044   5.354   3.715 -0.4975 -1.5628 -2.6347
 8249TIP3    H224712   0.943   5.451   3.656 -0.1250 -0.4946 -1.5571
 8250TIP3   OH224713   5.425   3.647   4.143 -0.1478 -0.4129 -0.5511
 8250TIP3    H124714   5.445   3.624   4.234 -2.3824  0.2419  0.1918
 8250TIP3    H224715   5.491   3.712   4.120 -0.2829  0.3864  1.1129
 8251TIP3   OH224716   6.829   2.091   0.493  0.1321 -0.2965 -0.1591
 8251TIP3    H124717   6.789   2.140   0.566 -0.1640 -0.1732 -0.4019
 8251TIP3    H224718   6.756   2.075   0.433  0.4626 -0.0252 -0.6304
 8252TIP3   OH224719   5.421   1.823   0.398  0.3536 -0.1156  0.1199
 8252TIP3    H124720   5.505   1.794   0.433  1.0899 -0.2416 -1.6299
 8252TIP3    H224721   5.363   1.748   0.411  0.4385  0.0416  1.5146
 8253TIP3   OH224722   2.308   6.744   0.365  0.0372  0.3246 -0.4224
 8253TIP3    H124723   2.280   6.823   0.410  0.1270 -0.1773  0.5290
 8253TIP3    H224724   2.337   6.685   0.434  2.4586  0.4136 -1.2631
 8254TIP3   OH224725   1.756   6.067   3.662  0.3616 -0.3087 -0.5018
 8254TIP3    H124726   1.757   6.107   3.575  1.7101 -1.6632 -1.1340
 8254TIP3    H224727   1.697   6.124   3.713 -0.3587  0.5791 -2.2362
 8255TIP3   OH224728   1.091   2.675   1.908  0.2762 -0.4393  0.1509
 8255TIP3    H124729   1.006   2.710   1.937 -0.5535 -1.2212 -1.1985
 8255TIP3    H224730   1.127   2.633   1.985 -0.6203 -0.1767  0.7343
 8256TIP3   OH224731   4.495   5.619   1.724 -0.7841 -0.3439 -0.1400
 8256TIP3    H124732   4.469   5.560   1.653  0.1638 -0.2639 -0.5666
 8256TIP3    H224733   4.414   5.662   1.750 -1.2263 -0.7160 -0.8620
 8257TIP3   OH224734   4.894   0.143   0.719 -0.0885  0.2982  0.3160
 8257TIP3    H124735   4.971   0.110   0.766  0.3745 -1.7284 -1.7154
 8257TIP3    H224736   4.825   0.145   0.786  0.7643 -1.5624  1.3197
 8258TIP3   OH224737   4.191   1.841   2.776 -0.0910 -0.0803 -0.0483
 8258TIP3    H124738   4.234   1.916   2.819  1.0948 -0.4042 -0.6236
 8258TIP3    H224739   4.121   1.816   2.837  0.3022  0.6907  0.7581
 8259TIP3   OH224740   0.528   1.427   0.375  0.3230  0.1396 -0.7301
 8259TIP3    H124741   0.567   1.347   0.410 -2.9496 -0.5505  1.9223
 8259TIP3    H224742   0.460   1.396   0.315 -0.8569  0.8149  0.1852
 8260TIP3   OH224743   0.567   3.998   5.037  0.2869 -0.1449 -0.7606
 8260TIP3    H124744   0.660   3.999   5.017  1.6606 -1.0736  4.1664
 8260TIP3    H224745   0.543   4.090   5.047  1.1357  0.0584 -0.5270
 8261TIP3   OH224746   0.777   6.805   5.085  0.6392 -0.3631 -0.2389
 8261TIP3    H124747   0.717   6.840   5.020  0.9258 -1.5127 -1.1631
 8261TIP3    H224748   0.847   6.763   5.034 -0.1774 -3.1280  0.6928
 8262TIP3   OH224749   1.736   4.814   2.328  0.3385  0.4873  0.0246
 8262TIP3    H124750   1.688   4.892   2.300 -1.2835  0.5038  2.5732
 8262TIP3    H224751   1.688   4.741   2.288  0.8210  0.6814 -0.9405
 8263TIP3   OH224752   1.158   3.759   0.794  0.1318  0.6341  0.0819
 8263TIP3    H124753   1.076   3.734   0.836 -0.2254 -1.5567 -1.7495
 8263TIP3    H224754   1.181   3.843   0.835 -2.7112  1.0620  1.0322
 8264TIP3   OH224755   1.352   1.556   0.610  0.2487 -0.0206 -0.5671
 8264TIP3    H124756   1.427   1.554   0.551 -0.0517 -0.0467 -0.9489
 8264TIP3    H224757   1.292   1.491   0.574 -1.7229  2.7040 -2.6222
 8265TIP3   OH224758   1.172   5.787   3.924  0.2349  0.0374 -0.4497
 8265TIP3    H124759   1.099   5.783   3.986  0.4201 -2.1576 -0.2917
 8265TIP3    H224760   1.144   5.851   3.858 -2.0727 -1.1022 -0.6726
 8266TIP3   OH224761   5.459   1.923   0.140 -0.2484 -0.0110  0.0049
 8266TIP3    H124762   5.439   1.895   0.229 -0.1842 -0.5565 -0.1430
 8266TIP3    H224763   5.378   1.965   0.109 -0.0223  0.8653  0.5714
 8267TIP3   OH224764   0.237   1.802   1.452  0.5949  0.3563  0.4105
 8267TIP3    H124765   0.180   1.761   1.387  1.2733  0.5901 -0.3515
 8267TIP3    H224766   0.313   1.833   1.402  0.6706  1.4392  1.1549
 8268TIP3   OH224767   3.156   6.549   3.610 -0.7631  0.1368  0.3078
 8268TIP3    H124768   3.226   6.499   3.567  0.0999 -0.0585  1.8889
 8268TIP3    H224769   3.075   6.509   3.578 -0.1104 -1.6665  0.7806
 8269TIP3   OH224770   5.480   2.605   3.524  0.0484  0.3876 -0.8055
 8269TIP3    H124771   5.432   2.688   3.520 -1.8053 -0.5738  0.0295
 8269TIP3    H224772   5.512   2.600   3.614 -0.9974 -0.3656 -0.4528
 8270TIP3   OH224773   1.999   0.967   1.588  0.1556 -0.5186  0.4519
 8270TIP3    H124774   1.955   1.051   1.575  0.4942 -0.4877 -0.5824
 8270TIP3    H224775   1.930   0.902   1.571  0.2348 -0.4555 -0.1597
 8271TIP3   OH224776   2.311   2.127   0.502  0.2184 -0.0836 -0.1568
 8271TIP3    H124777   2.328   2.185   0.576  0.7809 -1.0924  0.5432
 8271TIP3    H224778   2.364   2.162   0.431 -0.5630  1.0792 -0.1909
 8272TIP3   OH224779   1.182   4.729   5.414  0.1364 -0.2190 -0.0993
 8272TIP3    H124780   1.237   4.669   5.464  0.1159 -0.1982 -0.0508
 8272TIP3    H224781   1.224   4.815   5.426 -0.2640 -0.0912  0.4749
 8273TIP3   OH224782   5.124   1.574   0.926 -0.6723  0.2839  0.7298
 8273TIP3    H124783   5.185   1.505   0.955 -0.2039  0.6769  0.6955
 8273TIP3    H224784   5.162   1.655   0.960 -0.9843  0.5772  0.3871
 8274TIP3   OH224785   3.369   6.117   0.718 -0.4154  0.1765  0.6481
 8274TIP3    H124786   3.394   6.201   0.757 -0.8062  0.0085  1.2857
 8274TIP3    H224787   3.417   6.113   0.635 -0.3860  1.0201  0.6196
 8275TIP3   OH224788   1.185   6.603   2.037  0.4955 -0.2129 -0.0021
 8275TIP3    H124789   1.093   6.580   2.052  0.9834 -2.5321 -0.2085
 8275TIP3    H224790   1.181   6.686   1.989 -1.5326 -0.7653 -0.9243
 8276TIP3   OH224791   4.014   5.760   3.620  0.0117 -0.2528 -0.0977
 8276TIP3    H124792   3.974   5.677   3.592 -0.8127  0.1651 -0.1844
 8276TIP3    H224793   4.032   5.747   3.713  0.4130 -0.7301 -0.2351
 8277TIP3   OH224794   0.784   4.869   0.934  0.4757 -0.3747  0.3222
 8277TIP3    H124795   0.818   4.937   0.876  0.6793 -0.2067  0.6354
 8277TIP3    H224796   0.791   4.906   1.022 -0.2460 -0.4531  0.4184
 8278TIP3   OH224797   5.991   4.627   0.856 -0.5243 -0.1700  0.3741
 8278TIP3    H124798   6.065   4.577   0.890  0.8742  1.4614 -0.0960
 8278TIP3    H224799   6.007   4.634   0.762 -1.2240  0.2875  0.2810
 8279TIP3   OH224800   4.214   6.308   2.689  0.0917  0.4128 -0.1800
 8279TIP3    H124801   4.249   6.256   2.617 -1.1027 -0.8164  0.0714
 8279TIP3    H224802   4.289   6.358   2.721  1.3831 -1.3337 -0.2919
 8280TIP3   OH224803   6.833   4.165   0.946 -0.5720  0.6623 -0.0522
 8280TIP3    H124804   6.810   4.076   0.920 -0.3425  0.6816 -0.3312
 8280TIP3    H224805   6.829   4.165   1.041  0.4498  0.0751 -0.0018
 8281TIP3   OH224806   7.179   5.231   1.446 -0.1119 -0.2669  0.3298
 8281TIP3    H124807   7.174   5.136   1.434 -0.2187 -0.1568 -0.5237
 8281TIP3    H224808   7.199   5.242   1.539  0.2005 -1.1313  0.3743
 8282TIP3   OH224809   5.324   0.955   2.796  0.2962 -0.2452 -0.5526
 8282TIP3    H124810   5.263   0.964   2.723  0.8567  1.2600 -0.8752
 8282TIP3    H224811   5.376   0.877   2.774 -1.2453 -1.3603 -0.4211
 8283TIP3   OH224812   1.791   0.597   0.840  0.1656 -0.0036  0.0639
 8283TIP3    H124813   1.862   0.619   0.901  0.4660 -2.4161  0.6747
 8283TIP3    H224814   1.799   0.662   0.771  1.1525  1.5319  1.5300
 8284TIP3   OH224815   2.885   0.783   5.489 -0.0104 -0.1251 -0.0546
 8284TIP3    H124816   2.885   0.873   5.522 -0.3960 -0.6280  1.3799
 8284TIP3    H224817   2.834   0.787   5.408  0.6348  1.0754 -0.4327
 8285TIP3   OH224818   3.000   5.171   1.888 -0.2537 -0.1381  0.4917
 8285TIP3    H124819   3.002   5.115   1.965 -0.7018  0.5021  0.9700
 8285TIP3    H224820   2.958   5.251   1.917  0.3487  0.4425 -0.1984
 8286TIP3   OH224821   0.871   2.781   1.078 -0.1853  0.4444 -0.5594
 8286TIP3    H124822   0.781   2.747   1.083  0.3543 -1.1969 -1.2719
 8286TIP3    H224823   0.908   2.762   1.164  0.1939 -1.1686 -1.0285
 8287TIP3   OH224824   3.175   3.943   5.046  0.0229  0.6821  0.2860
 8287TIP3    H124825   3.104   3.998   5.079  0.0476 -0.0500  1.6225
 8287TIP3    H224826   3.253   3.976   5.091  0.1162 -0.1087  0.7169
 8288TIP3   OH224827   1.897   1.108   5.103 -0.1195 -0.1908 -0.1132
 8288TIP3    H124828   1.960   1.039   5.124 -2.2654 -1.8950  1.1484
 8288TIP3    H224829   1.908   1.172   5.174  0.5855 -0.1705 -0.2360
 8289TIP3   OH224830   5.661   6.360   4.658 -0.1753  0.4671 -0.5751
 8289TIP3    H124831   5.630   6.450   4.667  0.3868  0.5877  0.2900
 8289TIP3    H224832   5.736   6.355   4.717 -1.0977 -0.9832  0.5266
 8290TIP3   OH224833   4.006   5.705   3.125  0.1674 -0.2231 -0.1411
 8290TIP3    H124834   4.005   5.613   3.151  2.3440  0.1593  1.5525
 8290TIP3    H224835   3.968   5.752   3.199  1.0836  0.4136 -0.0569
 8291TIP3   OH224836   3.894   4.350   1.044 -0.2821 -0.2956  0.1852
 8291TIP3    H124837   3.804   4.358   1.013 -0.4453 -0.8504  0.4982
 8291TIP3    H224838   3.945   4.405   0.984 -0.9470  0.7570  0.5609
 8292TIP3   OH224839   1.904   2.138   2.238  0.2970  0.0487  0.6732
 8292TIP3    H124840   1.831   2.125   2.177 -0.6341  0.6028  1.6203
 8292TIP3    H224841   1.963   2.064   2.221 -1.7796 -1.9824  1.6721
 8293TIP3   OH224842   3.443   6.706   1.746 -0.7058 -0.0584 -0.3467
 8293TIP3    H124843   3.501   6.684   1.673  0.7887  1.0401  0.4638
 8293TIP3    H224844   3.493   6.768   1.799 -2.4744  0.6081  0.6236
 8294TIP3   OH224845   7.095   5.728   1.780  0.7166 -0.0330 -0.6132
 8294TIP3    H124846   7.098   5.641   1.739 -1.1629 -1.4441  1.9146
 8294TIP3    H224847   7.039   5.780   1.722 -2.5724 -2.2078  0.3136
 8295TIP3   OH224848   0.033   4.964   1.997 -0.2640 -0.0644  0.4935
 8295TIP3    H124849   0.004   4.872   1.994  0.1942 -0.2408  1.2440
 8295TIP3    H224850   0.120   4.963   1.956 -0.9014  0.3224 -0.9626
 8296TIP3   OH224851   5.633   1.770  -0.024 -0.2986  0.6747 -0.4095
 8296TIP3    H124852   5.568   1.803   0.038  0.1755 -0.0061  0.4699
 8296TIP3    H224853   5.710   1.753   0.030 -0.1449 -0.7213 -1.0447
 8297TIP3   OH224854   4.403   0.977   4.702  0.5343 -0.6925 -0.0561
 8297TIP3    H124855   4.349   0.954   4.626 -0.3959  0.7850  0.1119
 8297TIP3    H224856   4.349   0.956   4.778  0.0268  1.0243  0.1101
 8298TIP3   OH224857   3.498   0.203   5.198  1.1480  0.1033  0.5675
 8298TIP3    H124858   3.486   0.111   5.224 -1.1798 -0.0955 -0.9563
 8298TIP3    H224859   3.590   0.208   5.171  1.3109 -1.8156  0.6099
 8299TIP3   OH224860   3.357   5.693   3.988 -0.1183  0.1213  0.4208
 8299TIP3    H124861   3.276   5.661   4.027 -0.2816 -1.7034 -1.2773
 8299TIP3    H224862   3.362   5.785   4.016 -2.6783  0.2490  0.7087
 8300TIP3   OH224863   5.863   3.501   5.757 -0.2663  0.1542  0.0309
 8300TIP3    H124864   5.943   3.466   5.796 -0.3735 -1.8469 -1.3827
 8300TIP3    H224865   5.794   3.480   5.821 -0.0442 -0.6152  0.0284
 8301TIP3   OH224866   0.552   1.645   3.810 -0.2977  0.5944  0.2552
 8301TIP3    H124867   0.624   1.681   3.861 -0.1730  1.5062 -0.5318
 8301TIP3    H224868   0.485   1.713   3.812 -0.1106  0.8605 -1.1613
 8302TIP3   OH224869   3.870   0.762   2.029  0.3075  0.0213  0.0737
 8302TIP3    H124870   3.896   0.768   2.121  2.1614 -1.1078 -0.3022
 8302TIP3    H224871   3.819   0.682   2.024  2.7990 -1.6781 -0.3065
 8303TIP3   OH224872   4.905   1.788   0.460 -0.4676 -0.2728  0.6086
 8303TIP3    H124873   4.914   1.814   0.552  1.6784 -0.6210  0.5388
 8303TIP3    H224874   4.840   1.717   0.463  0.0471 -0.7301  1.9583
 8304TIP3   OH224875   2.847   2.583   0.204 -0.4632 -0.5640 -0.3120
 8304TIP3    H124876   2.806   2.560   0.121  1.2647  0.1253 -1.4078
 8304TIP3    H224877   2.825   2.511   0.263 -1.6879 -1.0849 -1.3621
 8305TIP3   OH224878   0.214   0.080   0.046 -0.6363 -0.3513  0.1002
 8305TIP3    H124879   0.233   0.170   0.020  0.3641 -0.6926 -0.4066
 8305TIP3    H224880   0.179   0.039  -0.033  1.5553 -1.1402 -0.5552
 8306TIP3   OH224881   4.074   0.754   5.208  0.3207  0.1894  0.6293
 8306TIP3    H124882   4.003   0.818   5.211  0.8604  0.8297 -0.0282
 8306TIP3    H224883   4.032   0.675   5.174 -0.5726 -0.1555  2.3996
 8307TIP3   OH224884   5.778   1.466   2.005  0.2391  0.0007  0.2167
 8307TIP3    H124885   5.862   1.507   1.982 -0.3604  0.9180 -0.4159
 8307TIP3    H224886   5.748   1.427   1.923 -0.2098  0.1622  0.3010
 8308TIP3   OH224887   5.732   0.442   0.989 -0.3235 -0.0350  0.3043
 8308TIP3    H124888   5.822   0.436   1.022  1.0147 -1.5276 -3.1820
 8308TIP3    H224889   5.740   0.430   0.895 -4.2402 -0.3295 -0.1432
 8309TIP3   OH224890   1.262   0.089   5.115 -0.4369 -0.1611  0.3401
 8309TIP3    H124891   1.258   0.173   5.160 -0.5423 -0.2037  0.4122
 8309TIP3    H224892   1.174   0.052   5.125 -0.5216 -0.0793 -0.0808
 8310TIP3   OH224893   6.855   4.869   1.324  0.2810  0.1419 -0.5520
 8310TIP3    H124894   6.817   4.785   1.298  0.9802  0.0124 -1.2170
 8310TIP3    H224895   6.860   4.919   1.242 -0.3646  0.9314 -0.1215
 8311TIP3   OH224896   3.440   4.571   0.149 -0.2168  0.2120 -0.1645
 8311TIP3    H124897   3.535   4.581   0.148 -0.2383  0.4016 -0.3183
 8311TIP3    H224898   3.416   4.564   0.057 -0.4072  0.6928 -0.1529
 8312TIP3   OH224899   5.229   1.361   0.530  0.1321 -0.0690 -0.2090
 8312TIP3    H124900   5.287   1.316   0.592  0.5941 -0.1024 -0.6527
 8312TIP3    H224901   5.279   1.361   0.448  1.1090  3.1177  0.2590
 8313TIP3   OH224902   5.461   3.694   4.631  0.3950 -0.5189  0.8546
 8313TIP3    H124903   5.451   3.675   4.724 -1.8228  0.6545  0.9402
 8313TIP3    H224904   5.504   3.780   4.629 -0.1624 -0.2329  0.8446
 8314TIP3   OH224905   5.450   1.212   0.618  0.2582 -0.6665  0.3285
 8314TIP3    H124906   5.530   1.257   0.646  1.1531 -1.7855 -0.3131
 8314TIP3    H224907   5.439   1.142   0.683  0.7683 -1.5563 -0.5264
 8315TIP3   OH224908   5.838   5.148   5.064 -0.3334 -0.3255  0.4595
 8315TIP3    H124909   5.781   5.124   5.137  0.6594  0.3324  1.4864
 8315TIP3    H224910   5.829   5.075   5.002 -0.0479 -1.6595  1.9103
 8316TIP3   OH224911   2.521   3.487   2.974  0.2263 -0.3252  0.6005
 8316TIP3    H124912   2.432   3.498   2.940  0.1871  0.5435  0.9430
 8316TIP3    H224913   2.573   3.459   2.899  0.7734  4.3365 -1.0724
 8317TIP3   OH224914   1.036   0.845   5.871 -0.1879  0.4264  0.3876
 8317TIP3    H124915   0.978   0.919   5.853 -0.0508  0.6828  0.9940
 8317TIP3    H224916   1.109   0.857   5.810  0.0507  1.0427  0.7829
 8318TIP3   OH224917   6.799   5.505   1.125  0.0672 -0.3006 -0.2497
 8318TIP3    H124918   6.728   5.444   1.108 -1.3406  0.9244  1.0319
 8318TIP3    H224919   6.759   5.592   1.121  1.2816  0.3990  1.3132
 8319TIP3   OH224920   6.809   0.572   1.633  0.3423 -0.6636  0.3815
 8319TIP3    H124921   6.899   0.581   1.601 -0.5374  1.3237 -1.8247
 8319TIP3    H224922   6.811   0.610   1.721  1.1454  2.3143 -0.7868
 8320TIP3   OH224923   0.816   2.182   1.822 -0.0256  0.0714  0.4176
 8320TIP3    H124924   0.892   2.216   1.869  1.1078 -0.7536 -0.7352
 8320TIP3    H224925   0.779   2.117   1.881  0.6671 -0.0954  0.6833
 8321TIP3   OH224926   6.568   2.956   3.055  0.9374  0.4403 -0.2388
 8321TIP3    H124927   6.476   2.984   3.050  0.4447 -0.6416  1.7008
 8321TIP3    H224928   6.596   2.950   2.964 -1.1839 -0.0337 -0.9251
 8322TIP3   OH224929   4.975   1.889   1.870 -0.0004 -0.2813 -0.1108
 8322TIP3    H124930   4.964   1.983   1.856  0.7266 -0.1509  0.1493
 8322TIP3    H224931   4.942   1.849   1.790  1.3001  0.2902 -0.9525
 8323TIP3   OH224932   2.319   5.504   0.856  0.3005 -0.0375 -0.0192
 8323TIP3    H124933   2.401   5.500   0.906 -0.5265  1.0320  1.5035
 8323TIP3    H224934   2.287   5.414   0.856  1.6814 -0.5498 -1.0168
 8324TIP3   OH224935   3.914   0.128   2.717  0.2500  0.5588 -0.0837
 8324TIP3    H124936   3.956   0.086   2.792  0.8662  0.1011 -0.6731
 8324TIP3    H224937   3.870   0.057   2.671  0.7111  0.6699 -0.7011
 8325TIP3   OH224938   7.036   0.578   3.045  0.0821 -0.6333 -0.3681
 8325TIP3    H124939   6.945   0.578   3.014 -0.2968 -0.7405  0.6947
 8325TIP3    H224940   7.031   0.538   3.132  1.0993 -0.3160 -0.1554
 8326TIP3   OH224941   4.695   3.573   1.518  0.2030 -0.7739 -0.2768
 8326TIP3    H124942   4.615   3.547   1.471 -0.5107 -2.3920  1.6406
 8326TIP3    H224943   4.739   3.635   1.460 -1.8422 -0.7603 -1.9272
 8327TIP3   OH224944   3.242   4.642   2.738  0.0432 -0.3365 -0.2226
 8327TIP3    H124945   3.171   4.704   2.758 -2.5139 -3.1503  0.1418
 8327TIP3    H224946   3.316   4.674   2.789 -1.4769  1.7595  0.8534
 8328TIP3   OH224947   5.428   4.396   5.335  0.0664  0.3421  0.0821
 8328TIP3    H124948   5.522   4.394   5.315  0.3653 -2.8467  1.2221
 8328TIP3    H224949   5.386   4.409   5.250  1.5185  0.4238 -0.6627
 8329TIP3   OH224950   5.209   2.905   4.476 -0.2029 -0.4869 -0.0398
 8329TIP3    H124951   5.163   2.968   4.421  1.5688  0.6627 -0.2580
 8329TIP3    H224952   5.223   2.829   4.419 -3.8968 -1.9638  0.7153
 8330TIP3   OH224953   3.417   6.289   4.528 -0.7156 -0.0680 -0.1718
 8330TIP3    H124954   3.399   6.357   4.463 -1.9891  1.5814  1.7461
 8330TIP3    H224955   3.435   6.338   4.609  0.7155 -2.0042  0.7552
 8331TIP3   OH224956   5.500   1.020   3.852  1.2281 -0.2189 -0.3033
 8331TIP3    H124957   5.486   1.000   3.759  0.3379  0.0017 -0.2300
 8331TIP3    H224958   5.499   1.116   3.856  2.1482 -0.2041 -0.1811
 8332TIP3   OH224959   6.597   0.124   1.471  0.4260  0.5600 -0.1536
 8332TIP3    H124960   6.651   0.179   1.529 -0.5032 -0.4749  1.7870
 8332TIP3    H224961   6.582   0.178   1.394 -1.1185  3.4593  1.9792
 8333TIP3   OH224962   4.801   3.679   1.779 -0.0342 -0.0554 -0.3270
 8333TIP3    H124963   4.725   3.736   1.796  2.6659  5.0980 -2.9881
 8333TIP3    H224964   4.782   3.641   1.693 -0.2099  0.0196 -0.3235
 8334TIP3   OH224965   1.361   6.412   1.074  0.1286  0.3337 -0.0187
 8334TIP3    H124966   1.455   6.398   1.091  0.3855  1.4194 -0.4914
 8334TIP3    H224967   1.356   6.430   0.980 -0.4766  0.8743  0.1126
 8335TIP3   OH224968   0.264   6.729   2.149  0.1421 -0.0124  0.1030
 8335TIP3    H124969   0.179   6.694   2.123  0.5110 -0.5855 -0.3599
 8335TIP3    H224970   0.243   6.802   2.206 -0.6884  0.5891 -0.9255
 8336TIP3   OH224971   2.903   0.754   2.587  0.8196  0.3457 -0.1608
 8336TIP3    H124972   2.819   0.711   2.605 -0.4677  2.6934 -0.1306
 8336TIP3    H224973   2.932   0.717   2.504  0.1230 -0.9912  0.1650
 8337TIP3   OH224974   5.483   2.027   4.214 -0.5788  0.5039  0.0642
 8337TIP3    H124975   5.391   2.048   4.200 -0.5945 -0.3873 -1.3869
 8337TIP3    H224976   5.486   1.984   4.299 -1.4933  0.5950  0.1441
 8338TIP3   OH224977   6.654   3.205   1.669 -0.1664 -0.4902 -0.1305
 8338TIP3    H124978   6.701   3.121   1.673  1.4423  0.3492 -0.3771
 8338TIP3    H224979   6.724   3.270   1.659 -1.4388  0.8086 -0.8445
 8339TIP3   OH224980   4.153   6.782   5.091 -0.3682  0.5907  0.0280
 8339TIP3    H124981   4.198   6.771   5.175 -1.2968  0.9875  0.5959
 8339TIP3    H224982   4.110   6.698   5.076 -0.3359  0.5738  0.0309
 8340TIP3   OH224983   1.926   2.016   3.811 -0.3069  0.0530 -0.0432
 8340TIP3    H124984   1.851   2.062   3.773 -1.1463 -0.0422  1.4245
 8340TIP3    H224985   1.991   2.084   3.824 -0.4856  0.3102 -0.4470
 8341TIP3   OH224986   5.692   6.800   0.947 -0.4096 -0.5696 -0.0690
 8341TIP3    H124987   5.629   6.729   0.952 -0.6292 -0.4198 -0.5867
 8341TIP3    H224988   5.647   6.874   0.988 -0.6944 -0.3857 -0.6898
 8342TIP3   OH224989   5.296   1.691   5.813  0.3600  0.7441  0.6133
 8342TIP3    H124990   5.247   1.672   5.733  0.1225 -0.1978  0.9757
 8342TIP3    H224991   5.353   1.764   5.789 -2.0904  2.7662  0.5366
 8343TIP3   OH224992   1.693   0.785   3.277  0.0007  0.2379 -0.1127
 8343TIP3    H124993   1.716   0.878   3.278  0.5856  0.1315  1.6149
 8343TIP3    H224994   1.742   0.749   3.352 -2.1134 -0.9707  0.7667
 8344TIP3   OH224995   4.801   2.816   1.015  0.7845 -0.0443 -0.2350
 8344TIP3    H124996   4.817   2.785   1.104 -0.3100 -3.3118 -1.0564
 8344TIP3    H224997   4.707   2.834   1.013  0.6141 -0.9351 -0.9457
 8345TIP3   OH224998   3.669   3.961   0.390  0.4132 -0.3901 -0.0329
 8345TIP3    H124999   3.758   3.984   0.417  0.5603 -1.5733  0.5879
 8345TIP3    H225000   3.678   3.873   0.352 -0.7790 -1.4556  1.9836
 8346TIP3   OH225001   6.461   2.897   2.100 -0.0116 -0.0892 -1.3100
 8346TIP3    H125002   6.477   2.945   2.019 -0.2806  1.6429 -0.3780
 8346TIP3    H225003   6.368   2.910   2.118  0.6979  2.6843  1.1074
 8347TIP3   OH225004   5.787   6.318   5.625  0.7722 -0.0941 -0.3001
 8347TIP3    H125005   5.747   6.262   5.692  0.0778 -0.2615 -0.8531
 8347TIP3    H225006   5.856   6.365   5.672 -0.6155  0.8371  0.8662
 8348TIP3   OH225007   6.620   6.294   0.760  0.2704 -0.5185  0.1427
 8348TIP3    H125008   6.595   6.363   0.822 -0.1703  0.0204 -0.6196
 8348TIP3    H225009   6.550   6.229   0.768  0.2222 -0.4566  0.2303
 8349TIP3   OH225010   7.169   6.638   2.912  0.2258  0.0513 -0.2463
 8349TIP3    H125011   7.203   6.618   2.824 -0.4955  0.0772 -0.5320
 8349TIP3    H225012   7.153   6.732   2.909  1.3019  0.2745  0.3047
 8350TIP3   OH225013   0.268   2.239   2.905  0.6453 -0.0754  0.2884
 8350TIP3    H125014   0.246   2.158   2.860  0.1186  0.6968 -0.8682
 8350TIP3    H225015   0.355   2.223   2.942  0.5332 -1.1648  0.0967
 8351TIP3   OH225016   4.420   4.910   5.443 -0.4071 -0.0526  0.2191
 8351TIP3    H125017   4.425   4.860   5.361  2.4938 -0.1325  0.3324
 8351TIP3    H225018   4.454   4.996   5.420 -1.2287  0.4888  0.9889
 8352TIP3   OH225019   0.268   0.587   1.731  0.4686  0.1610  0.2812
 8352TIP3    H125020   0.246   0.582   1.824  0.1482 -0.5823  0.1676
 8352TIP3    H225021   0.316   0.670   1.722 -0.5090  0.8064  0.8951
 8353TIP3   OH225022   4.972   2.920   5.102  0.8064  0.1718  0.2024
 8353TIP3    H125023   4.972   2.949   5.193  1.8593 -0.9487  0.5909
 8353TIP3    H225024   4.881   2.929   5.074  0.6785  1.5732  1.0085
 8354TIP3   OH225025   0.864   6.319   3.021  0.1751  0.2493 -0.3303
 8354TIP3    H125026   0.848   6.378   3.095  0.1706  1.4046 -1.2235
 8354TIP3    H225027   0.837   6.233   3.052  1.7200  0.3907  1.5857
 8355TIP3   OH225028   3.704   5.225   2.909  0.6057  0.6033  0.6861
 8355TIP3    H125029   3.785   5.223   2.960  1.9138  1.4635 -1.2274
 8355TIP3    H225030   3.673   5.315   2.917 -1.4895 -0.2613  3.2682
 8356TIP3   OH225031   0.350   0.779   0.710 -0.0986 -0.2676  0.8792
 8356TIP3    H125032   0.254   0.772   0.710 -0.1062 -0.1723  0.6293
 8356TIP3    H225033   0.368   0.862   0.754 -0.1072 -0.5459  1.4248
 8357TIP3   OH225034   6.064   0.086   0.854 -0.3683  0.3160 -0.3273
 8357TIP3    H125035   6.136   0.142   0.883  0.7393 -0.6363 -1.1409
 8357TIP3    H225036   6.091  -0.002   0.881 -1.5695  0.0175 -0.0322
 8358TIP3   OH225037   6.341   1.200   5.460 -0.4578 -0.5335 -0.0881
 8358TIP3    H125038   6.287   1.121   5.468  0.2385 -1.0699 -0.4637
 8358TIP3    H225039   6.431   1.167   5.461 -0.1694  0.1608 -1.1391
 8359TIP3   OH225040   5.166   0.209   4.480 -0.5206  0.1260  0.0172
 8359TIP3    H125041   5.227   0.147   4.440  1.1759  0.3418  2.0865
 8359TIP3    H225042   5.126   0.161   4.552  0.1972  1.1232  1.1262
 8360TIP3   OH225043   5.851   3.770   5.733 -0.3001  0.5284  0.5415
 8360TIP3    H125044   5.767   3.757   5.689  0.5172 -1.0073 -0.6507
 8360TIP3    H225045   5.881   3.682   5.756  1.2683  0.9798  0.3605
 8361TIP3   OH225046   6.369   2.342   0.859 -0.0642  0.4929 -0.1305
 8361TIP3    H125047   6.311   2.292   0.801  0.4850  1.1269 -1.2526
 8361TIP3    H225048   6.429   2.277   0.895 -0.2100  0.1370 -0.5237
 8362TIP3   OH225049   3.114   4.342   2.923 -0.1703 -0.1334  0.1484
 8362TIP3    H125050   3.187   4.359   2.982  0.9283 -2.9180 -0.2420
 8362TIP3    H225051   3.078   4.258   2.952 -1.2679 -0.2975 -1.5266
 8363TIP3   OH225052   2.931   4.537   2.931 -0.3612 -0.5655 -0.3386
 8363TIP3    H125053   2.996   4.477   2.893 -1.0536 -1.5955  0.0789
 8363TIP3    H225054   2.857   4.534   2.870 -1.0090 -1.3333  0.4588
 8364TIP3   OH225055   1.698   0.637   2.829  0.0117  0.3612  0.6872
 8364TIP3    H125056   1.609   0.608   2.808 -1.0466  2.7328  1.4561
 8364TIP3    H225057   1.704   0.724   2.788  1.7514  0.4982  1.1685
 8365TIP3   OH225058   0.900   3.550   4.157 -0.1851 -0.7999 -0.0187
 8365TIP3    H125059   0.968   3.614   4.179  0.2376 -0.6433 -1.6264
 8365TIP3    H225060   0.929   3.469   4.200  1.5674 -0.9778 -1.4028
 8366TIP3   OH225061   2.054   2.801   0.098 -0.1884 -0.5613  0.0316
 8366TIP3    H125062   2.120   2.860   0.063  0.4435 -1.0435  0.3984
 8366TIP3    H225063   2.064   2.808   0.193 -0.4665 -0.8690  0.0848
 8367TIP3   OH225064   0.222   1.185   4.221 -0.3252 -0.3371  0.5032
 8367TIP3    H125065   0.280   1.183   4.145 -0.3832 -0.8780  0.4697
 8367TIP3    H225066   0.280   1.181   4.296 -0.2671  0.2089  0.4868
 8368TIP3   OH225067   2.111   3.109   5.312  0.5942 -0.2600 -0.5237
 8368TIP3    H125068   2.158   3.059   5.245  0.4347  1.2807 -1.8455
 8368TIP3    H225069   2.019   3.104   5.286  0.3008 -1.0828  0.5902
 8369TIP3   OH225070   2.716   6.636   1.009  0.1214  0.6504 -0.3820
 8369TIP3    H125071   2.708   6.657   1.102 -2.6026  1.3068 -0.6801
 8369TIP3    H225072   2.645   6.573   0.993  1.0754 -0.0912 -1.8595
 8370TIP3   OH225073   3.263   3.633   1.697 -0.4494 -0.1018 -0.0017
 8370TIP3    H125074   3.329   3.647   1.765  0.0675 -1.1839 -0.2500
 8370TIP3    H225075   3.223   3.549   1.720 -1.4346  0.3248 -0.1077
 8371TIP3   OH225076   4.807   3.058   2.801  0.0266  0.1863  0.4649
 8371TIP3    H125077   4.805   3.081   2.708  2.3630 -0.4320  0.1906
 8371TIP3    H225078   4.778   3.137   2.846 -1.7334  0.2982 -0.7856
 8372TIP3   OH225079   3.965   0.830   0.126  0.0242  0.1720  0.2489
 8372TIP3    H125080   4.058   0.815   0.144 -0.3686 -1.4335  1.1196
 8372TIP3    H225081   3.963   0.916   0.083  1.9583 -0.0276 -0.3547
 8373TIP3   OH225082   1.585   0.890   1.777  0.8480 -0.0123  0.1541
 8373TIP3    H125083   1.602   0.978   1.743 -0.2105  0.4471  0.7588
 8373TIP3    H225084   1.671   0.855   1.798  1.2150  1.2981  0.9247
 8374TIP3   OH225085   2.299   5.508   2.297  0.2953 -0.2655  0.2101
 8374TIP3    H125086   2.227   5.485   2.356  0.3458 -0.3010  0.2577
 8374TIP3    H225087   2.315   5.428   2.247  2.3301 -1.2535  2.2711
 8375TIP3   OH225088   2.310   5.012   5.320 -0.1016 -0.0339  0.8095
 8375TIP3    H125089   2.377   5.056   5.373  0.6302 -0.6964  0.4496
 8375TIP3    H225090   2.227   5.040   5.358  0.3655  1.0814  1.0416
 8376TIP3   OH225091   0.513   2.582   4.952  0.0231  0.3802 -0.2920
 8376TIP3    H125092   0.545   2.572   4.863 -1.1804  0.4397 -0.7526
 8376TIP3    H225093   0.426   2.542   4.951  0.2664 -0.2370  1.0310
 8377TIP3   OH225094   2.600   2.296   5.744 -0.0774 -0.3196 -0.5927
 8377TIP3    H125095   2.546   2.218   5.749 -0.0309 -0.3168 -0.0532
 8377TIP3    H225096   2.684   2.265   5.711  0.7608 -0.9253  1.9390
 8378TIP3   OH225097   5.414   2.687   0.455  0.0157  0.0471 -0.0536
 8378TIP3    H125098   5.394   2.615   0.515  0.2140  0.1797  0.1711
 8378TIP3    H225099   5.416   2.646   0.369  0.5027 -0.2866  0.1127
 8379TIP3   OH225100   1.730   4.688   1.077 -0.1730  0.4060  0.2928
 8379TIP3    H125101   1.691   4.772   1.102 -2.1904 -0.7075  1.1877
 8379TIP3    H225102   1.680   4.623   1.127  2.1092 -1.2761  0.5537
 8380TIP3   OH225103   3.198   3.595   3.805 -0.4812  0.3762 -0.2384
 8380TIP3    H125104   3.235   3.507   3.798  0.9463  0.8329  1.0193
 8380TIP3    H225105   3.171   3.617   3.716 -1.3799 -1.5206 -0.4963
 8381TIP3   OH225106   2.152   3.996   2.192 -0.1395 -0.4780  0.0977
 8381TIP3    H125107   2.090   3.924   2.180 -1.0362  0.3477 -0.3391
 8381TIP3    H225108   2.143   4.021   2.284 -1.4890  0.5315 -0.2751
 8382TIP3   OH225109   2.763   4.746   1.424 -0.2719 -0.1503 -0.2099
 8382TIP3    H125110   2.679   4.792   1.415  0.9388  1.9775 -1.6618
 8382TIP3    H225111   2.796   4.739   1.335  1.8439  0.6282  0.4432
 8383TIP3   OH225112   6.602   6.141   4.003  0.3203  0.5367 -0.0490
 8383TIP3    H125113   6.588   6.184   3.918  1.9924  1.0605 -0.0934
 8383TIP3    H225114   6.694   6.159   4.024  0.7464 -1.9733  0.5481
 8384TIP3   OH225115   0.519   4.920   3.257  0.3026 -0.4936 -0.3641
 8384TIP3    H125116   0.444   4.934   3.314  0.9195 -1.3342  0.6880
 8384TIP3    H225117   0.595   4.930   3.314  0.9428 -1.0741 -1.0920
 8385TIP3   OH225118   2.013   4.370   0.431 -0.5211  0.3433  0.2265
 8385TIP3    H125119   2.099   4.393   0.466  1.0025 -2.3289 -1.4404
 8385TIP3    H225120   1.987   4.446   0.379  1.4596  0.7028 -0.3129
 8386TIP3   OH225121   5.005   2.616   0.542 -0.5930  0.9712 -0.4695
 8386TIP3    H125122   4.979   2.646   0.629 -0.7404 -0.8051  0.1484
 8386TIP3    H225123   4.962   2.677   0.482 -1.7449  1.3295  0.6678
 8387TIP3   OH225124   1.110   6.036   5.479  0.1681 -0.4507 -0.0164
 8387TIP3    H125125   1.072   5.967   5.424  0.5950  0.9390 -2.1712
 8387TIP3    H225126   1.083   6.117   5.437 -1.7233  0.8640  3.3517
 8388TIP3   OH225127   0.683   5.490   3.910 -0.0942 -0.1232  0.1427
 8388TIP3    H125128   0.746   5.547   3.866 -0.3426  0.4000  0.4487
 8388TIP3    H225129   0.659   5.425   3.845  0.2396  0.0919 -0.1964
 8389TIP3   OH225130   6.440   4.139   4.086  0.4828 -0.4219 -0.4604
 8389TIP3    H125131   6.469   4.103   4.170  0.2909 -1.9687 -1.0140
 8389TIP3    H225132   6.417   4.062   4.033 -2.5273  0.5890 -0.8455
 8390TIP3   OH225133   1.873   4.975   1.384  0.2438 -0.2264 -0.2656
 8390TIP3    H125134   1.795   5.027   1.367  0.9242  1.1499  0.6828
 8390TIP3    H225135   1.911   4.959   1.298 -2.1274 -2.7042 -0.9824
 8391TIP3   OH225136   1.409   0.043   0.899 -0.4429  0.3519  0.7856
 8391TIP3    H125137   1.442   0.133   0.896  0.7520 -0.0714 -1.3834
 8391TIP3    H225138   1.314   0.053   0.902 -0.3498  1.7029  0.2254
 8392TIP3   OH225139   6.041   6.228   3.646  0.3209  0.4723 -0.3732
 8392TIP3    H125140   5.996   6.308   3.672 -0.7108 -0.1082 -0.3319
 8392TIP3    H225141   5.974   6.174   3.604  1.2927  0.1641 -1.6025
 8393TIP3   OH225142   3.828   1.068   3.113  0.0041 -0.2850 -0.5146
 8393TIP3    H125143   3.793   1.150   3.077 -2.2480 -0.2829  1.4476
 8393TIP3    H225144   3.898   1.096   3.172 -1.6393  0.4410  1.1988
 8394TIP3   OH225145   0.231   5.498   4.520 -0.1969 -0.3297  0.7717
 8394TIP3    H125146   0.228   5.592   4.505 -2.8042 -0.3018  0.9646
 8394TIP3    H225147   0.217   5.489   4.615 -2.2059 -0.9021  0.4703
 8395TIP3   OH225148   2.967   5.499   2.569  0.1058 -0.4244  0.0618
 8395TIP3    H125149   2.872   5.505   2.584 -0.0151  1.4801 -1.0857
 8395TIP3    H225150   2.977   5.515   2.475  1.6650  1.5024  0.4864
 8396TIP3   OH225151   0.722   2.764   0.441 -0.0418 -0.1246  0.3411
 8396TIP3    H125152   0.717   2.672   0.467 -0.3093  0.1299  1.2531
 8396TIP3    H225153   0.753   2.763   0.351  1.1604 -1.0757  0.7392
 8397TIP3   OH225154   3.217   1.189   1.573  0.2321 -0.3752 -0.5738
 8397TIP3    H125155   3.251   1.179   1.662  0.5332  1.2394 -0.4628
 8397TIP3    H225156   3.152   1.120   1.564  0.4672 -0.8096  0.7614
 8398TIP3   OH225157   5.596   3.723   3.020 -0.0626  0.9351 -0.2473
 8398TIP3    H125158   5.559   3.692   3.103  0.0042  1.6382  0.0550
 8398TIP3    H225159   5.573   3.816   3.017 -2.6042  0.3600 -2.3716
 8399TIP3   OH225160   3.356   2.317   5.308  0.1650  0.5798  0.4291
 8399TIP3    H125161   3.400   2.264   5.241 -0.8614  0.7073 -0.3598
 8399TIP3    H225162   3.393   2.286   5.391  0.8728 -0.1312 -0.1409
 8400TIP3   OH225163   4.476   6.612   3.745  0.6577  0.1502 -0.4068
 8400TIP3    H125164   4.470   6.677   3.675 -1.0180 -0.9343 -1.3143
 8400TIP3    H225165   4.527   6.541   3.708  0.0451 -0.2870 -0.4217
 8401TIP3   OH225166   4.059   5.563   5.711  0.0371 -0.6020 -0.4105
 8401TIP3    H125167   3.964   5.560   5.718  0.0582 -1.8420 -0.4378
 8401TIP3    H225168   4.079   5.536   5.621  0.3491  2.0453 -1.2264
 8402TIP3   OH225169   2.318   3.635   3.759  0.3452  0.8441  0.5998
 8402TIP3    H125170   2.375   3.596   3.693 -0.2306  0.2228  0.4728
 8402TIP3    H225171   2.296   3.721   3.724 -0.8418  0.1027 -0.5359
 8403TIP3   OH225172   5.863   0.206   1.137 -0.1626 -0.2836  0.1498
 8403TIP3    H125173   5.800   0.203   1.209 -1.9012  1.6894 -1.1651
 8403TIP3    H225174   5.821   0.156   1.067 -0.0639  0.6280 -0.5758
 8404TIP3   OH225175   0.060   5.036   4.976 -0.1183 -0.0761  0.2880
 8404TIP3    H125176   0.061   5.007   5.067  0.0196  0.1638  0.3636
 8404TIP3    H225177  -0.025   5.007   4.943  0.2643 -1.1228  0.1764
 8405TIP3   OH225178   4.924   1.491   3.053 -0.1342  0.1162 -0.4118
 8405TIP3    H125179   4.935   1.583   3.030 -1.3110  0.3561 -0.0621
 8405TIP3    H225180   4.900   1.492   3.145 -0.9206 -0.4851 -0.5990
 8406TIP3   OH225181   5.652   6.217   1.431 -0.0258  0.1281 -0.3028
 8406TIP3    H125182   5.731   6.196   1.481 -1.4055 -1.5570  1.3274
 8406TIP3    H225183   5.582   6.215   1.496 -1.1581  4.5746 -1.0892
 8407TIP3   OH225184   3.636   4.799   4.665  0.0119  0.4566 -0.0077
 8407TIP3    H125185   3.699   4.777   4.597 -0.1505 -0.1617  0.0359
 8407TIP3    H225186   3.613   4.891   4.649  0.1280  0.3713 -0.6573
 8408TIP3   OH225187   6.356   0.435   1.946 -0.9035  0.3894  0.2094
 8408TIP3    H125188   6.448   0.434   1.973 -0.3298  0.0681 -1.5765
 8408TIP3    H225189   6.307   0.414   2.025  0.8198 -3.5434  0.5076
 8409TIP3   OH225190   0.807   0.190   5.419  0.2106  0.1495 -0.1346
 8409TIP3    H125191   0.794   0.144   5.502 -0.3738  0.0847 -0.2566
 8409TIP3    H225192   0.796   0.282   5.441  1.6193  0.2699  0.1566
 8410TIP3   OH225193   1.445   3.026   0.832 -0.4677 -0.3307 -0.0920
 8410TIP3    H125194   1.540   3.014   0.829 -0.3890  0.0587  0.6567
 8410TIP3    H225195   1.419   3.027   0.740  0.1971 -0.8631 -0.2957
 8411TIP3   OH225196   5.340   0.219   0.850 -0.2039  0.4515  0.1122
 8411TIP3    H125197   5.329   0.301   0.802  0.8950  1.4874  1.5436
 8411TIP3    H225198   5.423   0.184   0.818 -1.1523 -0.6709 -1.2360
 8412TIP3   OH225199   1.071   4.180   3.640 -0.0544 -0.3752 -0.1556
 8412TIP3    H125200   1.157   4.220   3.656 -0.0532 -0.0588 -0.9073
 8412TIP3    H225201   1.009   4.245   3.672 -0.0230 -1.3475  2.0678
 8413TIP3   OH225202   5.134   3.493   5.046 -0.1567  0.4171  0.0830
 8413TIP3    H125203   5.162   3.459   5.131 -2.5203 -2.2563 -0.0589
 8413TIP3    H225204   5.187   3.445   4.983  1.6916  2.4981 -0.0568
 8414TIP3   OH225205   6.918   2.867   3.134  0.0251 -0.3075  0.1776
 8414TIP3    H125206   7.001   2.820   3.139  0.5679  0.7596  1.8336
 8414TIP3    H225207   6.894   2.884   3.225 -1.6564  0.0398 -0.2963
 8415TIP3   OH225208   6.851   0.729   1.854 -0.4462  0.4151 -0.0550
 8415TIP3    H125209   6.802   0.782   1.916  0.4944  1.0385  0.1903
 8415TIP3    H225210   6.929   0.701   1.902 -0.4510 -0.3684 -0.4891
 8416TIP3   OH225211   4.921   1.033   5.769 -0.2230  0.4689  0.3920
 8416TIP3    H125212   4.977   1.106   5.742  0.8668 -0.4990 -0.0494
 8416TIP3    H225213   4.962   1.000   5.850 -1.8815  1.6062  1.7635
 8417TIP3   OH225214   3.558   0.424   3.574  0.0073  0.1310 -0.2187
 8417TIP3    H125215   3.529   0.385   3.656 -1.5511 -0.8683 -1.1874
 8417TIP3    H225216   3.495   0.392   3.509  0.3361  2.0394 -1.5641
 8418TIP3   OH225217   6.527   3.094   1.910  0.0477 -0.4780 -0.2982
 8418TIP3    H125218   6.579   3.136   1.841 -1.1236  0.4910 -0.6343
 8418TIP3    H225219   6.582   3.100   1.989 -0.9398  4.0480  0.3132
 8419TIP3   OH225220   5.809   3.637   4.362 -0.3624  0.1291 -0.5920
 8419TIP3    H125221   5.825   3.677   4.277 -3.3426  2.9363 -0.0260
 8419TIP3    H225222   5.856   3.692   4.425 -1.9233  0.9690 -0.0932
 8420TIP3   OH225223   5.768   0.583   4.699  0.0711 -0.3521  0.2751
 8420TIP3    H125224   5.850   0.625   4.673 -0.1413 -0.8169 -1.2318
 8420TIP3    H225225   5.790   0.535   4.779  1.0587  0.2015  0.3467
 8421TIP3   OH225226   4.759   1.910   2.027  0.2048  0.0733 -0.0513
 8421TIP3    H125227   4.766   1.832   2.082 -0.4622  0.2091  0.2400
 8421TIP3    H225228   4.838   1.909   1.973 -0.5620 -1.7325 -1.2319
 8422TIP3   OH225229   1.733   4.052   3.024 -0.3180  0.6357  0.2165
 8422TIP3    H125230   1.653   4.023   2.980 -0.0252  0.4850 -0.2343
 8422TIP3    H225231   1.803   4.007   2.976  0.0135  0.5282  0.8027
 8423TIP3   OH225232   1.736   4.683   1.827  0.0481  0.2301 -0.2055
 8423TIP3    H125233   1.773   4.605   1.785 -0.5991 -1.8432  2.7913
 8423TIP3    H225234   1.787   4.694   1.907 -1.2574  1.6012  0.4969
 8424TIP3   OH225235   6.009   5.722   2.129 -0.0698  0.2802  0.3141
 8424TIP3    H125236   6.082   5.670   2.160 -0.0066 -0.6515 -1.3096
 8424TIP3    H225237   5.939   5.706   2.193  0.9551  0.8318  1.6332
 8425TIP3   OH225238   2.005   4.506   3.655  0.1667  0.2250 -0.0058
 8425TIP3    H125239   2.038   4.465   3.575 -1.7975 -1.2950 -0.1297
 8425TIP3    H225240   2.067   4.481   3.723  1.1301  0.3917 -0.8071
 8426TIP3   OH225241   5.608   1.881   5.344  0.3326  0.1334  0.3035
 8426TIP3    H125242   5.616   1.802   5.290 -0.2601  0.7689 -0.7450
 8426TIP3    H225243   5.689   1.930   5.326 -0.0787  0.5693 -0.3979
 8427TIP3   OH225244   3.288   4.696   0.347  0.5619 -0.3940 -0.3297
 8427TIP3    H125245   3.324   4.645   0.419  0.7910 -0.6701 -0.6334
 8427TIP3    H225246   3.345   4.675   0.272 -0.6375 -1.3997 -1.0070
 8428TIP3   OH225247   6.116   6.773   2.295  0.1260 -0.6518  0.0074
 8428TIP3    H125248   6.045   6.725   2.253  0.3123 -1.6956  0.8514
 8428TIP3    H225249   6.091   6.865   2.285 -0.3535 -0.9076 -1.4199
 8429TIP3   OH225250   3.551   4.848   1.259 -0.1661  0.0705 -0.2357
 8429TIP3    H125251   3.557   4.888   1.346 -1.2098  0.6079 -0.3989
 8429TIP3    H225252   3.566   4.920   1.198  0.9645 -0.3770 -0.5252
 8430TIP3   OH225253   6.428   0.584   3.475  0.0208 -0.4347  0.0614
 8430TIP3    H125254   6.507   0.606   3.425 -0.3061 -0.8571 -0.6632
 8430TIP3    H225255   6.375   0.663   3.472  0.5076 -0.0639  0.7620
 8431TIP3   OH225256   0.559   2.306   4.858  0.2530  0.2540  0.1822
 8431TIP3    H125257   0.546   2.344   4.945 -0.5325  1.1895 -0.3138
 8431TIP3    H225258   0.588   2.380   4.804 -0.9376  0.1043 -0.7229
 8432TIP3   OH225259   2.669   0.802   5.300  0.6398  0.1369  0.0468
 8432TIP3    H125260   2.611   0.790   5.376  1.4968 -0.7122  0.5793
 8432TIP3    H225261   2.644   0.888   5.265 -1.1453 -0.3341  0.0788
 8433TIP3   OH225262   6.263  -0.027   5.774  0.0183 -0.2978 -0.2953
 8433TIP3    H125263   6.323   0.044   5.798 -0.0345 -0.1363 -0.6230
 8433TIP3    H225264   6.250  -0.015   5.679  0.2449 -0.9250 -0.4088
 8434TIP3   OH225265   3.540   3.449   4.309 -0.6470  0.6775 -0.2079
 8434TIP3    H125266   3.509   3.536   4.335 -1.7726  0.8583 -1.9664
 8434TIP3    H225267   3.473   3.417   4.249  0.3758 -0.8877 -0.5669
 8435TIP3   OH225268   3.139   2.433   2.788 -0.4408  0.1317 -0.4466
 8435TIP3    H125269   3.096   2.519   2.785 -4.3293 -1.6120 -1.7089
 8435TIP3    H225270   3.213   2.445   2.847 -0.8588  4.2756 -0.4812
 8436TIP3   OH225271   3.828   4.947   5.051  0.0908 -0.6059 -0.3118
 8436TIP3    H125272   3.823   4.852   5.051 -1.1972 -0.5731  0.9268
 8436TIP3    H225273   3.813   4.972   5.143  0.4035  0.7891 -0.6123
 8437TIP3   OH225274   2.248   6.444   5.837  0.6624 -0.0087  0.6900
 8437TIP3    H125275   2.230   6.366   5.890  1.9042 -0.6030  0.2622
 8437TIP3    H225276   2.339   6.466   5.857  0.1878  1.6539  1.1943
 8438TIP3   OH225277   0.693   5.173   5.131  0.8937 -0.0592  0.2118
 8438TIP3    H125278   0.641   5.212   5.202  0.2110 -1.9965  0.8486
 8438TIP3    H225279   0.628   5.151   5.064  0.9064 -1.9140  0.7423
 8439TIP3   OH225280   6.173   3.066   1.188  0.8956 -0.7033  0.0902
 8439TIP3    H125281   6.225   3.094   1.262  1.5364 -0.4318 -0.4530
 8439TIP3    H225282   6.195   3.127   1.118 -0.5186 -0.2861 -0.0194
 8440TIP3   OH225283   3.513   3.638   0.170  0.4380 -0.4768  0.2121
 8440TIP3    H125284   3.453   3.684   0.228  0.2435 -0.2337 -0.1765
 8440TIP3    H225285   3.596   3.684   0.178 -0.0251  0.6142 -0.9672
 8441TIP3   OH225286   2.478   3.578   2.227  0.4819 -0.1736  0.4178
 8441TIP3    H125287   2.496   3.564   2.134 -0.0404 -1.9107  0.5516
 8441TIP3    H225288   2.449   3.493   2.259  0.3903  0.4661  2.1226
 8442TIP3   OH225289   7.019   6.722   1.445  0.1221 -0.1360  0.2022
 8442TIP3    H125290   7.016   6.743   1.352  0.6645  0.2628  0.2663
 8442TIP3    H225291   6.981   6.635   1.452 -1.5269  0.5063 -0.1687
 8443TIP3   OH225292   1.765   0.097   4.805 -0.3950  0.1221 -0.4989
 8443TIP3    H125293   1.772   0.193   4.810 -0.2023  0.1569 -1.3361
 8443TIP3    H225294   1.760   0.078   4.712  0.3953 -0.7407 -0.3820
 8444TIP3   OH225295   2.988   3.161   3.658  0.0065 -0.4826  0.4252
 8444TIP3    H125296   3.007   3.103   3.732 -0.0475  0.7613  1.4465
 8444TIP3    H225297   2.920   3.219   3.689  0.2337  0.3043 -0.4857
 8445TIP3   OH225298   4.988   4.513   5.794  0.2629  0.0519  0.4761
 8445TIP3    H125299   5.023   4.601   5.805  0.6641 -0.1818  1.1463
 8445TIP3    H225300   5.053   4.468   5.740  1.6939 -0.7432  2.7156
 8446TIP3   OH225301   6.674   3.883   4.625  0.3316 -0.0235  0.0621
 8446TIP3    H125302   6.633   3.968   4.642  1.3955  0.4910  0.1408
 8446TIP3    H225303   6.673   3.874   4.530 -1.0744 -0.5926  0.1145
 8447TIP3   OH225304   2.566   2.922   4.704 -0.1959 -0.7710 -0.6991
 8447TIP3    H125305   2.603   3.008   4.723 -1.2459 -0.1935 -1.1442
 8447TIP3    H225306   2.477   2.926   4.739  0.3459 -2.3946  1.0729
 8448TIP3   OH225307   5.077   6.002   3.650  0.4872  0.2969 -0.1585
 8448TIP3    H125308   5.133   6.032   3.578  0.7047  0.0997 -0.0737
 8448TIP3    H225309   5.024   5.932   3.612  1.3194 -0.5041  0.1297
 8449TIP3   OH225310   2.032   3.918   3.830 -0.1794 -0.0671  0.8279
 8449TIP3    H125311   2.044   3.920   3.925 -1.0775 -1.6608  1.0121
 8449TIP3    H225312   1.964   3.852   3.816 -0.5633  0.6324 -0.8809
 8450TIP3   OH225313   1.927   3.749   5.402 -0.2956  0.4179 -0.5837
 8450TIP3    H125314   2.018   3.777   5.398  0.3895 -1.7151 -2.3136
 8450TIP3    H225315   1.877   3.830   5.411  1.7736  1.5513  2.2406
 8451TIP3   OH225316   0.086   1.077   4.662  0.3273  0.7627 -0.2678
 8451TIP3    H125317   0.163   1.026   4.687  0.4442  1.3773  0.6442
 8451TIP3    H225318   0.026   1.012   4.624  0.0746 -0.2384  1.7286
 8452TIP3   OH225319   0.740   0.508   4.429 -0.6379 -0.8765 -0.3358
 8452TIP3    H125320   0.779   0.565   4.363 -2.2425 -1.0857 -1.5250
 8452TIP3    H225321   0.815   0.469   4.475  0.4932  0.9015 -0.5852
 8453TIP3   OH225322   5.106   0.561   3.881 -0.0959 -0.1500  0.1814
 8453TIP3    H125323   5.023   0.597   3.911 -0.3942 -0.2093 -0.5378
 8453TIP3    H225324   5.148   0.527   3.959 -0.2255  0.9265  0.7408
 8454TIP3   OH225325   6.721   4.124   3.734  0.7437 -0.2950  0.6184
 8454TIP3    H125326   6.736   4.142   3.826 -0.4618 -0.9415  0.9625
 8454TIP3    H225327   6.626   4.117   3.725  0.8499 -0.5612 -0.6043
 8455TIP3   OH225328   1.973   1.855   0.102  0.2471  0.3285 -0.3944
 8455TIP3    H125329   1.985   1.769   0.061  1.5471  0.1610  0.2583
 8455TIP3    H225330   2.055   1.901   0.085 -0.2922  1.3056 -0.4084
 8456TIP3   OH225331   5.129   2.822   4.760  0.5761 -0.0891  0.0962
 8456TIP3    H125332   5.192   2.825   4.688 -1.1705 -0.0632 -1.5367
 8456TIP3    H225333   5.051   2.865   4.724 -0.7250 -1.0518  1.6521
 8457TIP3   OH225334   3.324   4.399   0.727  0.2811  0.0327 -0.4473
 8457TIP3    H125335   3.359   4.324   0.776 -0.3466 -0.1632 -0.2914
 8457TIP3    H225336   3.231   4.380   0.716  0.4374 -0.0150 -1.8994
 8458TIP3   OH225337   1.485   3.373   4.975 -0.2519 -0.6871 -0.4482
 8458TIP3    H125338   1.400   3.378   5.018  1.0174  0.6202  2.1620
 8458TIP3    H225339   1.514   3.283   4.990 -0.7332 -0.8424 -0.4422
 8459TIP3   OH225340   4.738   3.652   0.845  0.3692  0.2861  0.2478
 8459TIP3    H125341   4.757   3.745   0.853  0.6334  0.5220 -2.1740
 8459TIP3    H225342   4.685   3.645   0.765  1.0846 -1.6893 -0.1276
 8460TIP3   OH225343   2.294   4.524   3.004 -0.1101 -0.5256  0.0392
 8460TIP3    H125344   2.329   4.449   2.956 -0.0642 -1.4061  1.4147
 8460TIP3    H225345   2.343   4.599   2.969  3.0944 -1.6597  1.6826
 8461TIP3   OH225346   6.531   5.027   5.637 -0.3443  0.4179  0.2340
 8461TIP3    H125347   6.585   4.992   5.566  0.2659 -0.8407  1.2679
 8461TIP3    H225348   6.564   5.116   5.651  0.1267  0.3586 -0.4613
 8462TIP3   OH225349   5.740   4.994   0.534 -0.1276 -0.5130 -0.2194
 8462TIP3    H125350   5.785   5.069   0.572 -1.8958 -0.4799  2.0434
 8462TIP3    H225351   5.680   5.032   0.470  0.2974 -0.1895 -0.4321
 8463TIP3   OH225352   3.289   1.921   3.751  0.0010  0.1361  0.2063
 8463TIP3    H125353   3.347   1.987   3.790  0.0795  0.2534 -0.1042
 8463TIP3    H225354   3.203   1.939   3.788  0.6748 -2.0381  3.2433
 8464TIP3   OH225355   2.333   4.560   4.129 -0.0924  0.4919 -1.0167
 8464TIP3    H125356   2.313   4.620   4.058  0.9266 -0.3668 -2.0770
 8464TIP3    H225357   2.406   4.507   4.096 -1.3336 -1.7420 -0.4125
 8465TIP3   OH225358   3.273   3.867   1.535 -0.0251 -0.1675 -0.3345
 8465TIP3    H125359   3.303   3.782   1.568 -1.1353  0.1725  1.6807
 8465TIP3    H225360   3.179   3.856   1.521 -0.0989  0.5919 -0.4973
 8466TIP3   OH225361   6.475   5.708   2.267 -0.6869 -0.0632  0.5862
 8466TIP3    H125362   6.509   5.791   2.303 -0.2419 -0.5769  1.3767
 8466TIP3    H225363   6.495   5.713   2.173 -0.7818  0.7839  0.6024
 8467TIP3   OH225364   1.941   6.350   4.703  0.5019  0.1459 -0.1012
 8467TIP3    H125365   1.979   6.399   4.630 -0.4672  0.7662 -0.2038
 8467TIP3    H225366   1.966   6.399   4.781 -2.3307  2.2080 -0.3184
 8468TIP3   OH225367   0.218   4.948   1.758  0.4312  0.0637  0.4755
 8468TIP3    H125368   0.211   4.853   1.764 -2.8334  0.0139 -1.8537
 8468TIP3    H225369   0.232   4.965   1.665 -1.8210  1.8767  0.3777
 8469TIP3   OH225370   2.956   1.111   1.637  0.0376 -1.0966  0.1137
 8469TIP3    H125371   2.893   1.168   1.593  1.4747  1.5581  1.2249
 8469TIP3    H225372   2.942   1.128   1.731  2.5082 -0.1699  0.3944
 8470TIP3   OH225373   6.769   3.170   2.719  0.5160  0.4012  0.5445
 8470TIP3    H125374   6.715   3.203   2.790 -1.5327 -3.1933  0.9113
 8470TIP3    H225375   6.825   3.103   2.761 -1.7768 -2.8879 -1.1802
 8471TIP3   OH225376   4.256   2.580   2.586  0.5604 -0.1889  0.1518
 8471TIP3    H125377   4.339   2.563   2.632 -0.1265  0.1295  1.5719
 8471TIP3    H225378   4.225   2.494   2.560  0.0966 -0.6014  1.9043
 8472TIP3   OH225379   7.173   6.754   1.687 -0.2882  0.3849  0.3742
 8472TIP3    H125380   7.179   6.679   1.745  0.4708  0.3949  0.3217
 8472TIP3    H225381   7.115   6.726   1.617  1.4158 -0.8488 -0.6315
 8473TIP3   OH225382   3.102   1.404   5.664 -0.0011 -0.4927 -0.4320
 8473TIP3    H125383   3.014   1.367   5.668 -0.3911  0.5034  0.8132
 8473TIP3    H225384   3.156   1.333   5.629 -1.3485 -0.9744 -1.6005
 8474TIP3   OH225385   2.043   2.988   3.197  0.3013 -0.0592  0.3115
 8474TIP3    H125386   1.956   2.958   3.225  0.1967  0.4714  0.5718
 8474TIP3    H225387   2.075   3.040   3.271 -0.2788  1.9770 -0.8012
 8475TIP3   OH225388   3.378   6.143   3.604 -0.6355  0.5375  0.4892
 8475TIP3    H125389   3.435   6.073   3.571 -0.5879  1.7158 -2.1704
 8475TIP3    H225390   3.294   6.128   3.560 -0.9294  1.5350  0.6821
 8476TIP3   OH225391   3.889   3.353   0.444 -0.0636 -0.3668  0.3947
 8476TIP3    H125392   3.966   3.383   0.394 -0.6369  1.1518  0.3564
 8476TIP3    H225393   3.915   3.268   0.479  1.1441 -0.4947 -0.7250
 8477TIP3   OH225394   0.272   1.711   4.911  0.1261  0.3478 -0.5145
 8477TIP3    H125395   0.270   1.627   4.866  0.1655  0.1538 -0.1659
 8477TIP3    H225396   0.353   1.708   4.962 -1.7188 -1.0829  2.6239
 8478TIP3   OH225397   2.255   6.607   2.956  0.1948 -0.0204  0.0299
 8478TIP3    H125398   2.276   6.523   2.999 -0.7913 -0.5769 -0.5426
 8478TIP3    H225399   2.193   6.583   2.887  0.4415  1.1021 -0.5913
 8479TIP3   OH225400   0.851   5.052   0.418  0.1993  0.1440  0.4972
 8479TIP3    H125401   0.761   5.020   0.413  0.4248 -0.4609  0.3010
 8479TIP3    H225402   0.902   4.975   0.441  0.4581  0.8085  2.3058
 8480TIP3   OH225403   0.729   6.571   1.211 -0.0213  0.0324  0.2604
 8480TIP3    H125404   0.641   6.589   1.244 -0.7376 -1.5480 -0.6333
 8480TIP3    H225405   0.784   6.568   1.289 -0.7099  1.2461  0.8169
 8481TIP3   OH225406   3.469   5.627   0.968  0.5529 -0.2952  0.0204
 8481TIP3    H125407   3.510   5.713   0.953  0.1330  0.1114  1.0620
 8481TIP3    H225408   3.376   5.642   0.953  0.2293 -0.0753  1.9792
 8482TIP3   OH225409   0.503   6.084   2.607 -0.7487  0.5081  0.6004
 8482TIP3    H125410   0.414   6.071   2.639 -0.4227  1.0794  1.7585
 8482TIP3    H225411   0.525   6.001   2.563 -2.3367  0.8501 -0.9284
 8483TIP3   OH225412   6.163   4.737   2.072 -0.0848  0.2173 -0.4339
 8483TIP3    H125413   6.213   4.758   1.994  0.3689 -1.2205 -0.5392
 8483TIP3    H225414   6.113   4.659   2.049 -0.6895  0.3406  0.3980
 8484TIP3   OH225415   2.258   2.095   1.290 -0.4107 -0.2964  0.2753
 8484TIP3    H125416   2.245   2.022   1.350  0.5431  1.0790  2.2987
 8484TIP3    H225417   2.182   2.152   1.305 -0.5952 -0.3424 -0.4661
 8485TIP3   OH225418   5.934   1.666   4.331 -0.0556 -0.8325 -0.3778
 8485TIP3    H125419   5.870   1.616   4.280  0.9109 -1.2950 -1.1787
 8485TIP3    H225420   5.964   1.735   4.272 -0.3023 -0.1974  0.2264
 8486TIP3   OH225421   5.496   6.479   0.553 -0.6221 -0.5289 -0.3124
 8486TIP3    H125422   5.573   6.425   0.533 -0.6235 -1.0073  0.8924
 8486TIP3    H225423   5.506   6.502   0.645 -2.1739 -1.0056  0.0010
 8487TIP3   OH225424   4.317   1.279   1.828  0.6861  0.3247  0.5502
 8487TIP3    H125425   4.303   1.322   1.913  0.7627  1.3572  0.0552
 8487TIP3    H225426   4.230   1.279   1.788  0.5862 -0.4560  0.7499
 8488TIP3   OH225427   5.254   3.287   0.891 -0.5016 -0.1321  0.0458
 8488TIP3    H125428   5.317   3.239   0.837 -0.1624  1.1912 -0.7821
 8488TIP3    H225429   5.189   3.222   0.914  0.5366 -1.2627 -0.0788
 8489TIP3   OH225430   5.967   1.110   1.352  0.0170  0.1277  0.0119
 8489TIP3    H125431   5.876   1.137   1.361 -0.1099  0.0047 -0.8185
 8489TIP3    H225432   5.982   1.051   1.426 -0.0527  1.5133  1.1604
 8490TIP3   OH225433   5.810   0.194   1.411 -0.1067 -0.1295  0.0929
 8490TIP3    H125434   5.735   0.178   1.469 -0.3655 -1.5554 -0.5943
 8490TIP3    H225435   5.877   0.232   1.469 -0.3819 -1.4357  1.3422
 8491TIP3   OH225436   5.995   1.248   0.379  0.0582 -0.2671  0.3512
 8491TIP3    H125437   5.985   1.190   0.303  0.2981 -0.0025  0.1166
 8491TIP3    H225438   5.934   1.212   0.444  1.3741 -1.7697  0.8192
 8492TIP3   OH225439   4.591   4.075   3.130  0.0453 -0.2554  0.0487
 8492TIP3    H125440   4.640   4.142   3.082  0.4997 -1.2283 -0.8738
 8492TIP3    H225441   4.610   4.093   3.222  1.4917 -0.1240 -0.2520
 8493TIP3   OH225442   6.416   3.350   4.568  0.0939  0.7179  0.1080
 8493TIP3    H125443   6.504   3.358   4.605 -0.1860  1.0399  0.7165
 8493TIP3    H225444   6.416   3.266   4.523  0.5643  0.4864  0.5324
 8494TIP3   OH225445   3.794   2.422   1.249  0.0481 -0.2532 -0.9281
 8494TIP3    H125446   3.866   2.471   1.289  0.1664 -1.3073  0.2082
 8494TIP3    H225447   3.837   2.352   1.200 -0.1554  0.1237 -1.6536
 8495TIP3   OH225448   2.066   4.309   5.737 -0.3899 -0.6824  0.0918
 8495TIP3    H125449   1.970   4.307   5.737 -0.5129  1.9659 -0.6128
 8495TIP3    H225450   2.091   4.217   5.729 -2.8768 -1.3918 -0.5499
 8496TIP3   OH225451   7.069   0.897   0.912 -0.0622  0.3716 -0.0954
 8496TIP3    H125452   7.067   0.974   0.968  0.5673  0.6528 -0.4569
 8496TIP3    H225453   6.993   0.907   0.855 -0.1817  0.5445  0.0940
 8497TIP3   OH225454   4.584   5.870   0.116 -0.3538  0.9311 -0.5785
 8497TIP3    H125455   4.625   5.909   0.193 -0.2894  0.1591 -0.2035
 8497TIP3    H225456   4.631   5.787   0.104 -1.8019  0.0073 -0.1189
 8498TIP3   OH225457   0.996   0.121   0.208 -0.4371  0.3803 -0.0255
 8498TIP3    H125458   0.981   0.027   0.200  0.1041  0.4644 -3.5156
 8498TIP3    H225459   0.922   0.161   0.163  0.5640  1.5038 -0.7315
 8499TIP3   OH225460   5.949   1.137   1.807 -0.2247 -0.3238  0.1691
 8499TIP3    H125461   5.904   1.221   1.812 -0.4289 -0.4184 -0.0456
 8499TIP3    H225462   5.879   1.072   1.814 -0.1693 -0.4694 -0.5531
 8500TIP3   OH225463   5.962   5.145   2.074 -0.1603  0.0075  0.6963
 8500TIP3    H125464   6.047   5.111   2.048 -0.2736  0.9168 -1.0008
 8500TIP3    H225465   5.925   5.077   2.131  1.3644 -0.7332  0.8419
 8501TIP3   OH225466   3.589   2.793   0.343  0.1241  0.8935 -0.5567
 8501TIP3    H125467   3.575   2.699   0.355 -0.1137  1.0578  0.6331
 8501TIP3    H225468   3.538   2.815   0.266 -0.4686  0.1861 -0.3798
 8502TIP3   OH225469   6.755   0.379   4.222 -0.4012  0.8741 -0.1442
 8502TIP3    H125470   6.814   0.361   4.149  0.0635 -0.1953  0.4619
 8502TIP3    H225471   6.686   0.434   4.185  0.8981  2.0619 -0.8955
 8503TIP3   OH225472   5.958   2.781   2.738 -0.3400  0.3242  0.4448
 8503TIP3    H125473   5.899   2.818   2.673 -0.0679  0.6411  0.3765
 8503TIP3    H225474   5.964   2.848   2.806 -0.5278  0.0444  0.7357
 8504TIP3   OH225475   6.985   6.030   5.850  0.6007 -0.4000 -0.1270
 8504TIP3    H125476   6.965   6.116   5.885 -1.4128 -0.3099 -1.3040
 8504TIP3    H225477   6.968   5.970   5.922 -2.0992 -0.1015 -0.3907
 8505TIP3   OH225478   1.358   5.901   5.595 -0.1208  0.0440 -0.2196
 8505TIP3    H125479   1.395   5.979   5.635  1.9996  0.0636 -2.0339
 8505TIP3    H225480   1.285   5.933   5.541  0.6821  0.7828 -0.8828
 8506TIP3   OH225481   4.757   3.568   4.733  0.0232 -0.2520  0.1669
 8506TIP3    H125482   4.698   3.629   4.690 -0.0026  0.7384  1.5330
 8506TIP3    H225483   4.834   3.620   4.757  0.1084 -0.7840  1.1433
 8507TIP3   OH225484   3.758   6.261   1.411 -0.6957  0.3522  0.1250
 8507TIP3    H125485   3.716   6.265   1.325 -0.6828  1.4502  0.1643
 8507TIP3    H225486   3.684   6.260   1.473 -0.7898 -2.4235  0.0951
 8508TIP3   OH225487   6.072   5.297   4.486  0.3576 -0.3706 -0.1913
 8508TIP3    H125488   6.062   5.384   4.525  1.6273 -1.3670  2.6929
 8508TIP3    H225489   6.163   5.273   4.506  0.0968 -2.2944 -1.0997
 8509TIP3   OH225490   6.677   6.427   2.798  0.0035  0.1502 -0.3367
 8509TIP3    H125491   6.762   6.438   2.841 -0.3402 -0.2548  0.4520
 8509TIP3    H225492   6.625   6.377   2.860 -1.4447  1.9917 -0.0019
 8510TIP3   OH225493   7.014   5.988   5.120 -0.1570  0.1207 -0.1010
 8510TIP3    H125494   6.970   5.904   5.130 -2.1461  0.9170 -1.4924
 8510TIP3    H225495   7.020   6.001   5.025 -0.8068  1.9543  0.0685
 8511TIP3   OH225496   3.304   1.311   2.097 -0.3491  0.0097  0.1750
 8511TIP3    H125497   3.397   1.327   2.115 -0.4209  0.8924 -0.1672
 8511TIP3    H225498   3.258   1.368   2.159 -0.6317  0.6825 -0.6316
 8512TIP3   OH225499   5.985   5.778   1.401  0.1261 -0.2035 -0.5092
 8512TIP3    H125500   6.074   5.744   1.392  0.5469  0.5662  0.6301
 8512TIP3    H225501   5.989   5.866   1.364  0.2850  0.5044  1.1407
 8513TIP3   OH225502   0.236   4.272   1.300 -0.4865 -0.0062  0.0329
 8513TIP3    H125503   0.211   4.347   1.247  1.4549 -0.3321 -1.4443
 8513TIP3    H225504   0.331   4.276   1.304 -0.3927 -1.9180  0.6047
 8514TIP3   OH225505   2.451   5.075   4.946 -0.3374 -0.2166 -0.2010
 8514TIP3    H125506   2.424   5.040   4.861 -2.3927  0.2718  0.2127
 8514TIP3    H225507   2.411   5.016   5.010 -1.3303  1.1302  0.4520
 8515TIP3   OH225508   4.039   3.811   2.234 -0.6704 -0.1564  0.0339
 8515TIP3    H125509   4.116   3.869   2.243 -0.3718 -0.3287 -1.2136
 8515TIP3    H225510   4.033   3.794   2.140 -3.0075  0.8740 -0.0597
 8516TIP3   OH225511   6.086   5.343   5.322  0.3710 -0.4317  0.2505
 8516TIP3    H125512   6.155   5.395   5.281 -0.7108  1.6217  0.8727
 8516TIP3    H225513   6.045   5.404   5.384 -1.7963 -1.6603  0.0964
 8517TIP3   OH225514   5.144   5.714   3.322 -0.0394 -0.2265 -0.1890
 8517TIP3    H125515   5.181   5.763   3.249 -1.5225 -1.2705 -1.7213
 8517TIP3    H225516   5.132   5.625   3.287 -3.2855 -0.1361  0.3522
 8518TIP3   OH225517   3.430   5.713   0.653 -0.4059 -0.3124 -0.0469
 8518TIP3    H125518   3.525   5.702   0.665 -0.0568  0.6498 -1.6024
 8518TIP3    H225519   3.393   5.629   0.678  0.6122 -0.0771  2.6396
 8519TIP3   OH225520   0.516   0.854   4.330 -0.7657 -0.1266 -0.2525
 8519TIP3    H125521   0.495   0.801   4.407  1.0140 -1.7479 -0.7970
 8519TIP3    H225522   0.433   0.860   4.282 -0.9624 -2.9139 -0.4124
 8520TIP3   OH225523   4.301   1.643   2.634 -0.6299  0.6937  0.1634
 8520TIP3    H125524   4.245   1.710   2.674  0.6682  1.9749 -0.0804
 8520TIP3    H225525   4.339   1.686   2.558 -1.5065 -1.0685 -1.3763
 8521TIP3   OH225526   0.063   0.294   5.212 -0.0721  0.2076  0.0957
 8521TIP3    H125527   0.108   0.369   5.251 -0.3675 -0.3371  1.5337
 8521TIP3    H225528  -0.024   0.327   5.192  0.2311  0.6254 -0.5793
 8522TIP3   OH225529   3.548   4.363   0.491 -0.5544 -0.1296  0.2701
 8522TIP3    H125530   3.476   4.309   0.525  0.2458 -1.8892 -0.7165
 8522TIP3    H225531   3.555   4.339   0.399  1.5052 -0.2753  0.4127
 8523TIP3   OH225532   2.846   3.962   0.611 -0.6381 -0.0190  0.4279
 8523TIP3    H125533   2.828   4.050   0.643 -2.4262 -1.0466  2.5365
 8523TIP3    H225534   2.917   3.930   0.666 -0.4706 -0.1639  0.1335
 8524TIP3   OH225535   4.974   6.391   2.059  0.5135 -0.6428  0.0852
 8524TIP3    H125536   4.997   6.457   1.994 -0.6537  0.7618  1.0341
 8524TIP3    H225537   4.921   6.438   2.124 -0.1482 -2.4559  0.9354
 8525TIP3   OH225538   1.181   1.648   2.673 -0.4553 -0.1203 -0.3946
 8525TIP3    H125539   1.154   1.684   2.589 -2.1629 -0.2430  0.0822
 8525TIP3    H225540   1.213   1.560   2.651 -0.2834  0.0821 -0.9897
 8526TIP3   OH225541   6.361   4.569   1.004 -0.0285  0.5923  0.1534
 8526TIP3    H125542   6.439   4.624   0.993 -1.4785  2.4717 -1.3417
 8526TIP3    H225543   6.305   4.619   1.064 -2.4038  2.0978 -3.0574
 8527TIP3   OH225544   0.032   4.342   4.706 -0.5191 -0.1241 -0.0995
 8527TIP3    H125545   0.057   4.257   4.742 -0.8364 -0.2779 -0.2402
 8527TIP3    H225546   0.098   4.402   4.739 -0.4579 -0.3744  0.2371
 8528TIP3   OH225547   5.066   1.850   4.497 -0.5561 -0.1154  0.0785
 8528TIP3    H125548   5.041   1.808   4.414 -0.0192 -0.5509  0.1300
 8528TIP3    H225549   5.088   1.777   4.555 -1.1963  0.1745  0.7003
 8529TIP3   OH225550   4.866   5.219   2.089 -0.2892 -0.2688 -0.2949
 8529TIP3    H125551   4.957   5.198   2.067  0.1573 -0.2314  1.4031
 8529TIP3    H225552   4.818   5.137   2.076  0.5375 -1.1100  1.5189
 8530TIP3   OH225553   1.102   5.175   2.865  0.1248  0.5555  0.1927
 8530TIP3    H125554   1.146   5.235   2.925 -1.1561  1.7724 -0.0484
 8530TIP3    H225555   1.098   5.092   2.912  0.2763  1.1510  1.2802
 8531TIP3   OH225556   1.665   3.255   3.622 -0.5863 -0.4774 -0.6601
 8531TIP3    H125557   1.620   3.333   3.589 -0.8439 -0.3638 -0.0713
 8531TIP3    H225558   1.679   3.274   3.715 -1.7328 -1.6130 -0.2156
 8532TIP3   OH225559   6.379   2.905   1.318 -0.2013  0.4193  0.5430
 8532TIP3    H125560   6.370   2.810   1.306  0.0490  0.4774 -0.1613
 8532TIP3    H225561   6.369   2.941   1.230 -2.7005  1.2530  1.1045
 8533TIP3   OH225562   6.184   2.392   0.547 -0.0032 -0.0135  0.1427
 8533TIP3    H125563   6.176   2.312   0.598 -0.6855 -0.1070 -0.1041
 8533TIP3    H225564   6.263   2.379   0.494 -0.2242 -0.6060 -0.0448
 8534TIP3   OH225565   6.736   0.796   3.118  0.5437 -0.1922  0.0076
 8534TIP3    H125566   6.756   0.710   3.081 -2.5097 -0.7079 -0.7126
 8534TIP3    H225567   6.751   0.857   3.045 -1.6166 -0.7250 -0.9465
 8535TIP3   OH225568   6.628   1.794   4.512  0.5274 -0.2365 -0.1481
 8535TIP3    H125569   6.592   1.742   4.440 -0.3548 -1.0255  0.8421
 8535TIP3    H225570   6.717   1.815   4.483  0.2892 -0.7569 -1.3505
 8536TIP3   OH225571   5.388   3.192   0.516  0.8309 -0.1802  0.4418
 8536TIP3    H125572   5.355   3.103   0.517  1.6435 -0.4836  1.3571
 8536TIP3    H225573   5.389   3.216   0.423  0.4932 -1.0715  0.1965
 8537TIP3   OH225574   0.111   3.850   5.803  0.1201 -0.4185 -0.1138
 8537TIP3    H125575   0.103   3.929   5.749 -0.1851 -1.5938 -1.8538
 8537TIP3    H225576   0.103   3.882   5.893  1.0933  1.6707 -0.7078
 8538TIP3   OH225577   4.188   6.690   2.043  0.0763 -0.5211 -0.0124
 8538TIP3    H125578   4.164   6.598   2.033  0.1789 -0.5568  0.0646
 8538TIP3    H225579   4.115   6.739   2.006 -0.2004 -0.6247  0.3982
 8539TIP3   OH225580   5.393   0.537   1.462 -0.7155 -0.3841 -0.3700
 8539TIP3    H125581   5.372   0.626   1.489  3.2815  0.5235  0.4625
 8539TIP3    H225582   5.357   0.482   1.532 -0.3660  0.9378  0.9023
 8540TIP3   OH225583   6.601   2.347   2.941  0.2677  0.1459 -1.0756
 8540TIP3    H125584   6.531   2.287   2.969  1.5634 -1.3632 -0.9210
 8540TIP3    H225585   6.635   2.383   3.023  0.0875  0.4009 -1.1117
 8541TIP3   OH225586   4.805   1.244   0.210  0.1378  0.3165  0.6090
 8541TIP3    H125587   4.825   1.300   0.285 -0.5030  0.6422  0.5442
 8541TIP3    H225588   4.747   1.176   0.246  0.7491 -0.1960  0.6458
 8542TIP3   OH225589   5.911   5.250   4.729 -0.3773 -0.0424 -0.3030
 8542TIP3    H125590   5.957   5.234   4.646 -0.8344  0.9112 -0.7434
 8542TIP3    H225591   5.834   5.194   4.725  1.8736 -3.7030  1.5344
 8543TIP3   OH225592   4.406   2.029   2.573 -0.2390  0.2065 -0.0221
 8543TIP3    H125593   4.313   2.016   2.553 -0.4582  0.2416  0.9117
 8543TIP3    H225594   4.436   2.094   2.510 -0.9276  0.4255 -0.1302
 8544TIP3   OH225595   0.182   3.679   4.967 -0.4094 -0.3022  0.2470
 8544TIP3    H125596   0.223   3.607   4.918  0.2167 -1.0666  1.8112
 8544TIP3    H225597   0.108   3.638   5.013 -1.7239  0.6489 -0.9439
 8545TIP3   OH225598   3.909   0.458   2.871  0.4971  0.3817 -0.4032
 8545TIP3    H125599   3.949   0.496   2.949  1.2674 -2.7542  0.9043
 8545TIP3    H225600   3.848   0.392   2.905  1.3137 -1.5239 -2.3903
 8546TIP3   OH225601   1.515   6.621   5.761 -0.1078  0.8943  0.1689
 8546TIP3    H125602   1.551   6.649   5.677 -1.4578 -2.1410 -1.5870
 8546TIP3    H225603   1.588   6.577   5.805  0.2852  1.4319  0.0663
 8547TIP3   OH225604   2.047   5.915   3.898 -0.3643  0.0931 -0.1488
 8547TIP3    H125605   1.968   5.935   3.847 -1.0950 -2.1947 -0.0515
 8547TIP3    H225606   2.013   5.882   3.981  0.6922 -0.7390 -0.0300
 8548TIP3   OH225607   5.015   0.049   0.192  0.0088  0.7214 -0.4066
 8548TIP3    H125608   4.999   0.007   0.276 -1.1809 -0.9297 -1.3949
 8548TIP3    H225609   5.093   0.103   0.206  1.0604 -1.1011  1.2130
 8549TIP3   OH225610   6.216   6.751   3.993 -0.3674  0.3760 -0.0410
 8549TIP3    H125611   6.264   6.670   3.976  0.2960  0.8723 -0.5716
 8549TIP3    H225612   6.168   6.768   3.912  0.2929  1.0509 -0.2932
 8550TIP3   OH225613   5.422   0.841   2.103 -0.1544 -0.1920 -0.5176
 8550TIP3    H125614   5.470   0.788   2.168  0.2041  2.0074  1.1258
 8550TIP3    H225615   5.471   0.923   2.099 -1.3777  0.5074 -2.0689
 8551TIP3   OH225616   5.769   2.983   3.120  0.1300  0.1955  0.2635
 8551TIP3    H125617   5.707   2.915   3.146 -0.4945  1.1711  1.4227
 8551TIP3    H225618   5.837   2.936   3.072 -1.6263 -0.8817 -1.3248
 8552TIP3   OH225619   4.388   0.768   1.084 -0.5430 -0.5007 -0.1204
 8552TIP3    H125620   4.482   0.748   1.085 -0.7173 -1.4201 -0.6531
 8552TIP3    H225621   4.382   0.856   1.047  0.0374 -0.9861 -1.4457
 8553TIP3   OH225622   3.683   6.527   1.975 -0.5134 -0.1671  0.0881
 8553TIP3    H125623   3.659   6.619   1.985  1.0602  0.6104 -2.3096
 8553TIP3    H225624   3.697   6.496   2.064  1.6536  2.7757  0.9416
 8554TIP3   OH225625   5.657   2.871   2.038  0.0075 -0.0906  0.0122
 8554TIP3    H125626   5.693   2.933   2.101 -0.4871  0.6932 -0.4561
 8554TIP3    H225627   5.608   2.925   1.976  1.3189 -0.7137 -1.6592
 8555TIP3   OH225628   5.931   4.617   2.777 -0.2061  0.0626  0.3681
 8555TIP3    H125629   5.978   4.556   2.833 -0.4894  0.1259  0.6765
 8555TIP3    H225630   5.861   4.564   2.737  1.0790 -0.4372 -1.3511
 8556TIP3   OH225631   4.740   4.584   5.499  0.3761  0.2917 -0.2495
 8556TIP3    H125632   4.710   4.652   5.559 -1.6269  0.1514 -1.0201
 8556TIP3    H225633   4.802   4.628   5.441 -0.1208  1.2023 -0.1010
 8557TIP3   OH225634   3.506  -0.020   3.984  0.2719  0.0904 -0.1930
 8557TIP3    H125635   3.420  -0.011   3.944  0.3130 -0.9364 -0.5572
 8557TIP3    H225636   3.542   0.068   3.985 -0.6904  0.4923 -0.2455
 8558TIP3   OH225637   2.712   6.529   3.844 -0.4520  0.1906  0.4250
 8558TIP3    H125638   2.736   6.585   3.918  0.7717  0.6034 -0.2650
 8558TIP3    H225639   2.669   6.454   3.885  0.9093  0.0192  1.6380
 8559TIP3   OH225640   3.979   1.841   2.944  0.5273  0.4484  0.2177
 8559TIP3    H125641   3.987   1.916   3.003  1.1280 -0.1231  0.8971
 8559TIP3    H225642   4.013   1.768   2.995  1.4781  0.0077 -1.0029
 8560TIP3   OH225643   6.477   1.186   5.852 -0.2827 -0.2982 -0.1587
 8560TIP3    H125644   6.552   1.132   5.826 -1.0667 -1.1196 -0.8011
 8560TIP3    H225645   6.404   1.125   5.856 -0.4424 -0.0768  3.2383
 8561TIP3   OH225646   1.708   2.834   1.796  0.0522 -0.0529 -0.0267
 8561TIP3    H125647   1.682   2.833   1.704 -0.8758  1.5145  0.1807
 8561TIP3    H225648   1.779   2.898   1.800  0.1168 -0.1471  0.3317
 8562TIP3   OH225649   6.440   3.378   2.649 -0.0168  0.1377 -0.5992
 8562TIP3    H125650   6.517   3.385   2.592 -0.4145 -0.8005 -1.2829
 8562TIP3    H225651   6.470   3.326   2.723 -0.1496 -0.8568 -1.2144
 8563TIP3   OH225652   3.169   2.938   4.866  1.2144  0.0307 -0.6610
 8563TIP3    H125653   3.126   2.853   4.860  0.7647  0.2132 -0.1065
 8563TIP3    H225654   3.263   2.918   4.858  1.2603 -0.7299  1.1807
 8564TIP3   OH225655   2.297   0.173   3.678 -0.6338  0.4303 -0.1361
 8564TIP3    H125656   2.339   0.254   3.649  0.4152  0.0669  0.3406
 8564TIP3    H225657   2.322   0.164   3.770 -0.4460 -0.6121 -0.2782
 8565TIP3   OH225658   6.167   4.769   2.487 -0.3824  0.1928  0.0964
 8565TIP3    H125659   6.105   4.808   2.548  0.1863  0.0271  0.7870
 8565TIP3    H225660   6.187   4.683   2.524  1.1225  0.6851  0.5089
 8566TIP3   OH225661   1.813   0.153   5.602 -0.1717 -0.8070 -0.4139
 8566TIP3    H125662   1.801   0.200   5.520  0.2995 -0.0788 -0.0758
 8566TIP3    H225663   1.888   0.095   5.586 -1.8838 -2.8722 -1.4332
 8567TIP3   OH225664   6.737   5.044   5.393 -0.8390 -0.0043 -0.8143
 8567TIP3    H125665   6.782   5.096   5.459 -0.5994 -1.3963  0.1485
 8567TIP3    H225666   6.804   5.025   5.327  0.0840 -2.0626  0.6053
 8568TIP3   OH225667   0.776   1.464   1.261 -0.1215 -0.8898  0.0733
 8568TIP3    H125668   0.832   1.476   1.184  1.1244  0.6233  1.1409
 8568TIP3    H225669   0.793   1.374   1.289  0.4194 -1.0308 -0.6703
 8569TIP3   OH225670   4.502   2.876   0.622  0.1317  0.0334 -0.1681
 8569TIP3    H125671   4.506   2.780   0.621 -0.5136  0.0064 -0.1447
 8569TIP3    H225672   4.410   2.897   0.610  0.0859  0.6420  1.1161
 8570TIP3   OH225673   2.331   3.165   1.018  0.3546  0.8619  0.0056
 8570TIP3    H125674   2.285   3.247   0.999 -0.6491  0.2013 -0.4557
 8570TIP3    H225675   2.268   3.096   0.998  1.6738 -0.0848 -1.0820
 8571TIP3   OH225676   5.952   1.148   0.101  0.6084  0.3719  0.6297
 8571TIP3    H125677   5.890   1.098   0.048  1.0434 -1.3730  1.6567
 8571TIP3    H225678   5.949   1.236   0.066 -2.2908  0.3164  0.4851
 8572TIP3   OH225679   0.634   5.629   4.674 -0.4686 -0.2225 -0.3419
 8572TIP3    H125680   0.570   5.699   4.692  2.1387  2.1848  0.1981
 8572TIP3    H225681   0.615   5.603   4.584 -0.0585  3.0232 -1.5214
 8573TIP3   OH225682   1.071   2.877   3.470 -0.1342  0.0111 -0.5235
 8573TIP3    H125683   1.037   2.923   3.393  0.9400  1.6496 -0.0792
 8573TIP3    H225684   1.037   2.927   3.544  0.1451 -0.5897  0.0153
 8574TIP3   OH225685   5.832   3.318   0.968  0.0586  0.2349 -0.6781
 8574TIP3    H125686   5.834   3.224   0.954  0.1464  0.3335 -1.3821
 8574TIP3    H225687   5.774   3.351   0.899 -1.0183  0.5682  0.3542
 8575TIP3   OH225688   1.884   5.943   4.634  0.5005 -0.0767 -0.0091
 8575TIP3    H125689   1.889   5.961   4.728  0.5729 -1.4879  0.2692
 8575TIP3    H225690   1.961   5.987   4.598  0.0579  1.1387  0.4586
 8576TIP3   OH225691   3.670   0.068   2.865 -0.0750 -0.3987  0.0250
 8576TIP3    H125692   3.711   0.132   2.807  0.9714 -1.4100 -0.3796
 8576TIP3    H225693   3.696  -0.017   2.830 -1.9982 -1.0947  0.1428
 8577TIP3   OH225694   0.303   4.381   0.977  0.1724  0.0897 -0.4593
 8577TIP3    H125695   0.292   4.380   1.072 -1.5195 -1.3619 -0.6063
 8577TIP3    H225696   0.323   4.472   0.956 -1.1090  0.8059  1.1294
 8578TIP3   OH225697   3.444   5.132   2.982 -0.3305 -0.5566 -0.1275
 8578TIP3    H125698   3.533   5.162   2.964 -0.0965 -0.1264  1.5847
 8578TIP3    H225699   3.454   5.041   3.010 -0.2418 -0.1447  1.2855
 8579TIP3   OH225700   6.989   2.810   4.427  0.0015  0.1537  0.1751
 8579TIP3    H125701   7.067   2.848   4.385  0.4587  0.2592  1.0898
 8579TIP3    H225702   6.916   2.863   4.394  0.4093  0.5677 -0.0814
 8580TIP3   OH225703   4.019   4.904   2.192  0.1820 -0.0792  0.3155
 8580TIP3    H125704   4.002   4.811   2.177 -0.0884 -0.1351  0.9377
 8580TIP3    H225705   4.007   4.916   2.286  0.8500  0.4586  0.3390
 8581TIP3   OH225706   1.351   2.473   1.931  0.1230  0.7179 -0.1380
 8581TIP3    H125707   1.394   2.556   1.951  1.5635  0.4940 -2.0753
 8581TIP3    H225708   1.352   2.467   1.836  0.6503 -1.7954 -0.0515
 8582TIP3   OH225709   4.297   6.423   1.161 -0.2246  0.6369 -0.0582
 8582TIP3    H125710   4.391   6.433   1.147 -0.1079 -1.4128 -1.2301
 8582TIP3    H225711   4.272   6.352   1.101 -2.4811  0.9962  0.3736
 8583TIP3   OH225712   5.712   4.138   2.212  0.0086  0.4002 -0.0689
 8583TIP3    H125713   5.666   4.221   2.227 -2.1221 -0.6098 -0.6365
 8583TIP3    H225714   5.760   4.152   2.131  0.6541  1.4627  0.4803
 8584TIP3   OH225715   3.853   6.015   0.375  0.1086  0.4513  0.0166
 8584TIP3    H125716   3.903   5.989   0.297  0.4416 -0.3072  0.4715
 8584TIP3    H225717   3.912   5.998   0.448 -0.2954  0.9119  0.4565
 8585TIP3   OH225718   0.277   6.585   2.794 -0.2253 -0.1015  0.0207
 8585TIP3    H125719   0.296   6.613   2.705  1.2159  1.3216  0.7229
 8585TIP3    H225720   0.242   6.663   2.838  0.7212 -0.2735  1.1397
 8586TIP3   OH225721   4.948   4.805   4.083  0.0668  0.4377  0.1920
 8586TIP3    H125722   4.868   4.798   4.135 -0.6760  1.7294 -0.7117
 8586TIP3    H225723   4.919   4.790   3.993  0.9092  0.5050 -0.0966
 8587TIP3   OH225724   4.362   3.469   4.835  0.2740 -0.1800 -0.0869
 8587TIP3    H125725   4.327   3.391   4.878  0.0789  0.6597  1.3777
 8587TIP3    H225726   4.377   3.443   4.744 -0.6430 -1.6392  0.1520
 8588TIP3   OH225727   2.934   5.699   2.164  0.6451 -0.3338 -0.4990
 8588TIP3    H125728   3.000   5.636   2.194  0.0640 -1.2865 -1.1466
 8588TIP3    H225729   2.920   5.756   2.239  2.9567  0.5811 -0.6837
 8589TIP3   OH225730   3.634   5.410   0.519 -0.1628  0.0680  0.0891
 8589TIP3    H125731   3.722   5.438   0.543  0.3261  0.2147 -1.6823
 8589TIP3    H225732   3.587   5.404   0.601  0.8993  2.0461  0.9168
 8590TIP3   OH225733   2.575   2.872   4.395 -0.3923 -0.0945  0.1435
 8590TIP3    H125734   2.610   2.867   4.483  0.1434  1.5629  0.0407
 8590TIP3    H225735   2.647   2.845   4.338 -0.0139  1.0102  0.0842
 8591TIP3   OH225736   2.451   5.500   5.364 -0.1760 -0.4908 -0.5542
 8591TIP3    H125737   2.400   5.480   5.286 -0.3582 -0.9690 -0.3153
 8591TIP3    H225738   2.450   5.595   5.370 -1.8548 -0.5114 -0.0263
 8592TIP3   OH225739   0.418   3.141   2.685  0.1459 -0.1689 -0.3972
 8592TIP3    H125740   0.462   3.167   2.604 -0.7560  1.2296 -0.4812
 8592TIP3    H225741   0.488   3.113   2.742  0.8079 -1.1386 -1.6360
 8593TIP3   OH225742   5.468   5.935   4.811 -0.0450  0.0476  0.0688
 8593TIP3    H125743   5.506   5.899   4.892 -1.7066 -3.8021 -0.6426
 8593TIP3    H225744   5.422   6.014   4.840  0.3388 -0.5763  2.7014
 8594TIP3   OH225745   0.317   0.061   1.863 -0.6928 -0.1189  0.8358
 8594TIP3    H125746   0.269   0.092   1.786  1.2070 -2.1042 -1.3264
 8594TIP3    H225747   0.355   0.140   1.902 -0.5022  0.8344 -1.1669
 8595TIP3   OH225748   6.400   0.433   3.820 -0.1238 -0.4333  0.1077
 8595TIP3    H125749   6.336   0.364   3.803  0.6906 -0.9523 -1.0264
 8595TIP3    H225750   6.348   0.507   3.852 -1.0465 -1.4697  1.0627
 8596TIP3   OH225751   3.492   3.581   5.500  0.0288  0.0497 -0.1776
 8596TIP3    H125752   3.579   3.569   5.462  0.7806  2.2572  0.7076
 8596TIP3    H225753   3.506   3.575   5.594 -0.5989  1.3579  0.0173
 8597TIP3   OH225754   6.005   6.197   5.443 -0.1989 -0.0272 -0.2653
 8597TIP3    H125755   5.927   6.241   5.477 -1.5604 -2.5347  0.0358
 8597TIP3    H225756   5.982   6.176   5.352 -1.6613 -4.2952  0.8668
 8598TIP3   OH225757   0.822   5.473   1.667 -0.5256  0.0130 -0.1128
 8598TIP3    H125758   0.894   5.416   1.695 -0.0392  1.2431  1.2521
 8598TIP3    H225759   0.744   5.419   1.680  0.0562 -0.9711 -0.5984
 8599TIP3   OH225760   3.293   3.157   5.183  0.2124 -0.0358  0.2957
 8599TIP3    H125761   3.279   3.190   5.094 -0.0312 -1.0819 -0.0757
 8599TIP3    H225762   3.242   3.076   5.186  0.2927 -0.0572  1.3639
 8600TIP3   OH225763   0.013   1.995   2.297  0.2640 -0.2588 -0.2252
 8600TIP3    H125764  -0.032   2.063   2.346 -0.7345 -1.0798  0.0479
 8600TIP3    H225765   0.105   2.005   2.321  0.0015  0.3598  0.5850
 8601TIP3   OH225766   1.327   5.105   3.908 -0.1030  0.2181 -0.1528
 8601TIP3    H125767   1.256   5.116   3.972 -1.1693  0.8487 -1.3871
 8601TIP3    H225768   1.353   5.195   3.885  1.4573  0.0035  0.6298
 8602TIP3   OH225769   3.414   1.376   3.292 -0.9668 -0.0055 -0.4440
 8602TIP3    H125770   3.484   1.384   3.228 -1.2398 -1.0289 -0.8928
 8602TIP3    H225771   3.453   1.406   3.375  0.2352 -1.2519 -0.5289
 8603TIP3   OH225772   1.130   1.637   2.054 -0.3185 -0.2083  0.1173
 8603TIP3    H125773   1.185   1.582   2.110 -0.9237 -0.2912  0.6402
 8603TIP3    H225774   1.047   1.644   2.101 -0.2514  1.1787  0.0710
 8604TIP3   OH225775   5.250   4.258   0.170  0.1633  0.3545  0.6592
 8604TIP3    H125776   5.201   4.206   0.234  0.4599  1.9453  2.2410
 8604TIP3    H225777   5.249   4.347   0.205 -0.0157  1.3825 -1.7778
 8605TIP3   OH225778   2.837   3.117   1.640 -0.2725 -0.2821  0.0909
 8605TIP3    H125779   2.899   3.075   1.580 -0.4547  0.6292 -0.7495
 8605TIP3    H225780   2.865   3.209   1.643 -0.1832 -0.3362  1.5236
 8606TIP3   OH225781   1.291   3.628   1.274  0.3523  0.2056 -0.0325
 8606TIP3    H125782   1.368   3.671   1.310  0.9178 -0.8332  0.0550
 8606TIP3    H225783   1.312   3.614   1.181 -0.4196  1.3838 -0.4091
 8607TIP3   OH225784   2.878   0.294   4.685 -0.6400 -0.0714 -0.1683
 8607TIP3    H125785   2.969   0.324   4.682 -0.3181 -1.1009 -0.8876
 8607TIP3    H225786   2.839   0.326   4.604 -1.0181  0.5898  0.2534
 8608TIP3   OH225787   2.952   2.729   1.433  0.6053  0.1932 -0.2468
 8608TIP3    H125788   2.936   2.660   1.369  1.4280 -0.2494  0.0118
 8608TIP3    H225789   2.943   2.810   1.384 -0.6526 -0.0764 -0.4908
 8609TIP3   OH225790   6.656   0.757   5.645 -0.1468 -0.3337  0.1741
 8609TIP3    H125791   6.691   0.692   5.704 -0.9144  0.5219  1.6437
 8609TIP3    H225792   6.725   0.772   5.581  1.2480 -0.3388  1.6292
 8610TIP3   OH225793   4.930   4.643   3.377  0.1977  0.5104 -0.3351
 8610TIP3    H125794   5.014   4.672   3.414  0.7171 -2.9494  1.6215
 8610TIP3    H225795   4.866   4.659   3.447  0.4880 -2.4905  0.7859
 8611TIP3   OH225796   2.969   1.909   5.206  0.3926  0.4984 -0.1567
 8611TIP3    H125797   3.003   1.998   5.197  0.5785  0.4995  0.4953
 8611TIP3    H225798   3.043   1.859   5.240 -0.0262  0.3337  0.5390
 8612TIP3   OH225799   1.521   3.011   2.440 -0.4377 -0.6227  0.4473
 8612TIP3    H125800   1.557   2.969   2.518  0.5604  0.3009  0.5028
 8612TIP3    H225801   1.591   3.003   2.375 -0.7681 -0.2569  0.0457
 8613TIP3   OH225802   2.400   4.663   2.797  0.1234  0.3065 -0.4133
 8613TIP3    H125803   2.458   4.739   2.807  0.3257  0.0188  0.7918
 8613TIP3    H225804   2.373   4.665   2.706  1.4445  0.8798 -0.8114
 8614TIP3   OH225805   0.841   1.116   4.893  0.2842  0.3575 -0.3372
 8614TIP3    H125806   0.789   1.180   4.844  2.1935  2.9825  0.7881
 8614TIP3    H225807   0.837   1.146   4.984  1.0709 -1.2999  0.2901
 8615TIP3   OH225808   1.497   3.825   4.855  0.0187  0.2813  0.2625
 8615TIP3    H125809   1.408   3.789   4.853 -0.0552  0.4073 -2.1843
 8615TIP3    H225810   1.552   3.752   4.882 -0.5831 -0.5074 -0.5989
 8616TIP3   OH225811   5.456   1.974   2.047 -1.2316  0.1368 -0.2131
 8616TIP3    H125812   5.426   2.065   2.050 -3.3679 -0.4813 -0.9404
 8616TIP3    H225813   5.499   1.967   1.962 -1.3207  0.3984 -0.2827
 8617TIP3   OH225814   2.531   0.582   3.725 -0.1558 -0.5347 -0.1263
 8617TIP3    H125815   2.491   0.542   3.802  2.1550 -2.9538 -0.0588
 8617TIP3    H225816   2.580   0.656   3.760 -0.6254 -0.4909  0.4616
 8618TIP3   OH225817   6.135   1.170   1.125 -0.0254  0.1984 -0.2128
 8618TIP3    H125818   6.085   1.237   1.078  3.0465  2.7791 -0.1630
 8618TIP3    H225819   6.072   1.131   1.185 -2.5545  1.2828 -1.9646
 8619TIP3   OH225820   4.386   0.184   0.222  0.1366  0.2963  0.0938
 8619TIP3    H125821   4.466   0.214   0.178 -0.5796  0.9297 -0.8225
 8619TIP3    H225822   4.379   0.240   0.299  0.6345  0.1612  0.2407
 8620TIP3   OH225823   2.289   0.082   2.972  0.3501  0.4861  0.0517
 8620TIP3    H125824   2.243   0.072   2.888  1.0253 -0.3484 -0.2329
 8620TIP3    H225825   2.253   0.163   3.009 -0.9239  0.1701 -0.4234
 8621TIP3   OH225826   6.899   1.046   0.106  0.3402 -0.1145  0.1201
 8621TIP3    H125827   6.856   1.131   0.097  1.9978  0.8651  0.9272
 8621TIP3    H225828   6.890   1.004   0.020  2.7037  2.4654 -1.5321
 8622TIP3   OH225829   0.648   5.086   2.543  0.3861  0.0251  0.2319
 8622TIP3    H125830   0.629   5.086   2.637  1.0746  0.2906  0.3738
 8622TIP3    H225831   0.739   5.058   2.537  0.1665 -0.5622 -0.3972
 8623TIP3   OH225832   1.733   6.453   1.285 -0.1968 -0.4341  0.8575
 8623TIP3    H125833   1.682   6.384   1.244 -1.0547  1.2853 -1.1930
 8623TIP3    H225834   1.691   6.468   1.369 -2.5560  0.2080 -0.3344
 8624TIP3   OH225835   6.146   6.353   4.957  0.3557  0.4752  0.3350
 8624TIP3    H125836   6.232   6.394   4.967  1.2117 -1.4968  1.7301
 8624TIP3    H225837   6.165   6.260   4.947 -1.6367 -0.1882  1.9555
 8625TIP3   OH225838   2.781   6.085   1.772  0.0633  0.1370  0.2570
 8625TIP3    H125839   2.813   5.997   1.789  0.0602  0.4354  2.0804
 8625TIP3    H225840   2.854   6.142   1.797 -0.7686  0.7118  1.4977
 8626TIP3   OH225841   6.023   6.514   0.115 -0.1707 -0.5653  0.9273
 8626TIP3    H125842   6.118   6.508   0.101 -0.5487 -0.5736 -2.3687
 8626TIP3    H225843   6.008   6.604   0.142  0.5666  0.4125 -1.6425
 8627TIP3   OH225844   2.567   6.801   0.462  0.1895  0.1793 -0.0429
 8627TIP3    H125845   2.487   6.783   0.413  0.7212  0.3282 -0.9774
 8627TIP3    H225846   2.536   6.822   0.551 -0.7409 -0.6743 -0.1442
 8628TIP3   OH225847   5.868   0.395   5.302  0.4307  0.3387 -0.2161
 8628TIP3    H125848   5.817   0.429   5.228 -0.3779  0.6592  0.4653
 8628TIP3    H225849   5.929   0.332   5.263 -1.3848 -1.0654 -0.9080
 8629TIP3   OH225850   3.759   5.903   5.457 -0.1228  0.3530 -1.2574
 8629TIP3    H125851   3.765   5.870   5.546 -1.2841  0.2231 -1.2092
 8629TIP3    H225852   3.723   5.991   5.466  0.3055  0.5639 -1.5668
 8630TIP3   OH225853   3.430   4.795   2.866  0.1885 -0.3819 -0.0750
 8630TIP3    H125854   3.376   4.828   2.938 -1.1909 -0.1589 -1.1677
 8630TIP3    H225855   3.518   4.789   2.903 -0.2948  0.6441  1.3433
 8631TIP3   OH225856   1.184   1.617   1.602 -0.5848  0.1492  0.0135
 8631TIP3    H125857   1.101   1.607   1.554 -0.8276  0.7308  0.3040
 8631TIP3    H225858   1.207   1.709   1.591  0.4160 -0.1731 -0.6809
 8632TIP3   OH225859   0.170   3.681   5.464  0.0406 -0.0432  0.2351
 8632TIP3    H125860   0.087   3.676   5.511  0.8177 -1.6253  1.5613
 8632TIP3    H225861   0.215   3.757   5.503 -1.2412  1.6733 -1.4255
 8633TIP3   OH225862   2.516   2.099   2.104 -0.0442 -0.7515 -0.2999
 8633TIP3    H125863   2.590   2.159   2.115 -0.7251  0.1501 -0.5021
 8633TIP3    H225864   2.556   2.012   2.101  0.9477 -0.3290  0.1922
 8634TIP3   OH225865   1.094   2.961   2.865 -1.0103  0.1107  0.2489
 8634TIP3    H125866   1.063   2.884   2.818  0.9000 -0.3569 -0.3173
 8634TIP3    H225867   1.070   3.035   2.809 -0.3452 -0.3054 -0.5885
 8635TIP3   OH225868   5.997   6.031   0.387 -0.1527  0.1242 -0.6928
 8635TIP3    H125869   5.925   6.051   0.447  1.4130  1.1945  0.9117
 8635TIP3    H225870   6.023   6.116   0.352  0.7068 -0.1877 -0.8198
 8636TIP3   OH225871   6.524   1.808   3.650  0.1071  0.5582  0.0976
 8636TIP3    H125872   6.478   1.819   3.567 -1.5425 -0.1179  0.8681
 8636TIP3    H225873   6.530   1.713   3.661  0.4653  0.6461  0.6740
 8637TIP3   OH225874   4.883   5.952   0.709 -0.3401 -0.4671  0.2371
 8637TIP3    H125875   4.965   6.000   0.696 -1.1397  1.2750  1.2863
 8637TIP3    H225876   4.817   6.003   0.662 -1.4954  0.4071  2.6667
 8638TIP3   OH225877   2.835   4.068   2.229 -0.4286  0.3701  0.1803
 8638TIP3    H125878   2.883   4.083   2.310  2.7987 -2.4397 -0.9693
 8638TIP3    H225879   2.744   4.059   2.256  0.6134 -1.2902  3.6266
 8639TIP3   OH225880   4.721   1.370  -0.017 -0.3089  0.5092 -0.2211
 8639TIP3    H125881   4.632   1.338  -0.034  0.6045 -1.3566 -2.0029
 8639TIP3    H225882   4.751   1.318   0.057 -0.2639  0.1766 -0.4683
 8640TIP3   OH225883   1.963   4.979   1.132 -0.1951 -0.1609 -0.0035
 8640TIP3    H125884   1.890   5.023   1.089  0.4852  0.3799 -0.6515
 8640TIP3    H225885   1.965   4.892   1.093 -0.7557 -0.3243  0.3335
 8641TIP3   OH225886   2.115   1.362   2.766 -0.1625 -0.2359  0.4917
 8641TIP3    H125887   2.052   1.368   2.837 -1.2592 -0.4091 -0.4349
 8641TIP3    H225888   2.152   1.274   2.774 -0.0819 -0.1593  0.9949
 8642TIP3   OH225889   7.053   3.595   1.205  0.2038 -0.0484  0.4003
 8642TIP3    H125890   7.002   3.542   1.267 -0.1850 -0.5916 -0.3668
 8642TIP3    H225891   6.997   3.670   1.185 -0.7481 -1.1228 -1.1754
 8643TIP3   OH225892   2.871   5.248   0.596 -0.2243  0.2074 -0.2709
 8643TIP3    H125893   2.967   5.256   0.601 -0.1077 -0.5003 -1.2473
 8643TIP3    H225894   2.848   5.283   0.510 -0.5049 -2.3122 -1.3140
 8644TIP3   OH225895   0.206   1.554   3.310 -0.1050 -0.1137  0.3858
 8644TIP3    H125896   0.163   1.487   3.362  2.2317 -0.9571  1.3901
 8644TIP3    H225897   0.192   1.527   3.219  0.3161 -1.7020  0.7630
 8645TIP3   OH225898   1.334   1.246   3.990 -0.4672  0.0574 -0.4917
 8645TIP3    H125899   1.419   1.230   4.031 -1.4601 -0.6028  1.4123
 8645TIP3    H225900   1.346   1.327   3.940  1.8599 -1.1458 -2.0557
 8646TIP3   OH225901   0.908   5.677   3.855  0.2194  0.1135  0.2137
 8646TIP3    H125902   0.923   5.645   3.766 -2.4521 -0.6883 -0.0365
 8646TIP3    H225903   0.965   5.622   3.909  1.3245  0.1002 -0.9246
 8647TIP3   OH225904   5.327   3.635   5.477 -0.0878 -0.5717 -0.7540
 8647TIP3    H125905   5.387   3.639   5.551 -0.5682 -0.8791 -0.3465
 8647TIP3    H225906   5.303   3.726   5.460 -0.8295 -0.5842  0.1729
 8648TIP3   OH225907   2.185   5.224   3.964  0.0938  0.0305  0.2024
 8648TIP3    H125908   2.172   5.298   4.023 -0.3568 -0.2279  0.4355
 8648TIP3    H225909   2.100   5.179   3.963  1.1908 -2.3454  2.5736
 8649TIP3   OH225910   6.925   2.542   3.202  0.0018 -0.2543 -0.1078
 8649TIP3    H125911   6.978   2.527   3.280  0.2435 -0.8661 -0.3817
 8649TIP3    H225912   6.856   2.476   3.207  0.9076 -1.3290 -1.1820
 8650TIP3   OH225913   6.475   3.987   5.633 -0.1650  0.2104 -0.4981
 8650TIP3    H125914   6.568   3.966   5.631 -0.5825 -1.7862 -2.0004
 8650TIP3    H225915   6.440   3.935   5.705  0.0545  2.0954  1.0533
 8651TIP3   OH225916   2.031   3.236   1.283  0.6637  0.1203  0.2826
 8651TIP3    H125917   1.983   3.319   1.279 -0.9900 -0.7318  1.1556
 8651TIP3    H225918   1.977   3.180   1.339  1.6737 -1.5959 -0.3793
 8652TIP3   OH225919   6.821   0.385   5.613  0.0306  0.0536 -0.8497
 8652TIP3    H125920   6.789   0.297   5.589  0.1380  0.0233 -0.8794
 8652TIP3    H225921   6.913   0.384   5.589  0.0634  0.1285 -0.7223
 8653TIP3   OH225922   1.088   4.301   4.155  0.6492 -0.3947 -0.6501
 8653TIP3    H125923   1.007   4.249   4.165  0.5666 -0.0658  0.5483
 8653TIP3    H225924   1.066   4.367   4.090  0.6914 -1.7180 -2.0601
 8654TIP3   OH225925   0.148   3.267   4.892 -0.5736  0.4158 -0.1191
 8654TIP3    H125926   0.100   3.219   4.825 -2.2423  2.1054 -0.2292
 8654TIP3    H225927   0.081   3.296   4.954  0.7705 -0.0349  1.6239
 8655TIP3   OH225928   4.680   3.993   0.651 -0.4295  0.1917 -0.1822
 8655TIP3    H125929   4.745   3.984   0.721  0.4085  0.1338 -0.9378
 8655TIP3    H225930   4.600   3.956   0.687  0.3829 -1.2430  0.2197
 8656TIP3   OH225931   1.638   5.522   4.448  0.2118 -0.0603  0.1372
 8656TIP3    H125932   1.644   5.602   4.500  2.3559 -0.2510  0.2511
 8656TIP3    H225933   1.646   5.551   4.358  3.7092 -0.2695  0.2642
 8657TIP3   OH225934   2.448   2.119   0.131 -0.3353  0.2446 -0.0913
 8657TIP3    H125935   2.429   2.194   0.187  0.0129  0.6449 -0.5055
 8657TIP3    H225936   2.500   2.155   0.059  0.2120 -0.4627 -0.0638
 8658TIP3   OH225937   3.816   4.118   3.528 -0.0640  0.1527  0.4090
 8658TIP3    H125938   3.795   4.026   3.536  2.2962 -0.6215 -1.1191
 8658TIP3    H225939   3.818   4.151   3.618 -2.4604 -0.8461  0.8767
 8659TIP3   OH225940   1.187   0.956   2.515  0.4669  0.7518  0.5631
 8659TIP3    H125941   1.095   0.932   2.508  0.3628  1.1124  0.6582
 8659TIP3    H225942   1.233   0.893   2.461  0.1391  0.7038  0.3413
 8660TIP3   OH225943   3.953   4.265   4.079  0.1393 -0.2997  0.5270
 8660TIP3    H125944   3.932   4.200   4.147 -2.3395  1.5070  1.6676
 8660TIP3    H225945   4.015   4.324   4.121  1.1686 -0.9845  0.0227
 8661TIP3   OH225946   2.437   3.719   4.653  0.4661  0.0821 -0.0883
 8661TIP3    H125947   2.530   3.716   4.672  0.4820  2.1038  0.3665
 8661TIP3    H225948   2.395   3.697   4.736  0.5298  0.0497 -0.0649
 8662TIP3   OH225949   5.353   0.423   2.750 -0.3273 -0.2315 -0.3047
 8662TIP3    H125950   5.262   0.448   2.762  0.0797  1.8148 -1.0412
 8662TIP3    H225951   5.358   0.393   2.659 -0.2438 -0.2792 -0.2855
 8663TIP3   OH225952   4.016   2.537   0.718 -0.0867  0.1655 -0.1423
 8663TIP3    H125953   3.985   2.565   0.805  1.2292  0.0998  0.3682
 8663TIP3    H225954   3.979   2.450   0.707 -0.4818  0.2767  0.2302
 8664TIP3   OH225955   0.793   3.563   2.057 -0.1479  0.1149  0.5936
 8664TIP3    H125956   0.792   3.562   2.152  3.4095 -2.1998  0.7964
 8664TIP3    H225957   0.877   3.602   2.034 -0.1888 -0.8827 -1.5390
 8665TIP3   OH225958   0.544   2.706   0.096 -0.1738  0.6451 -0.2011
 8665TIP3    H125959   0.567   2.616   0.119 -1.7800  0.4198  0.6493
 8665TIP3    H225960   0.626   2.744   0.065  1.1710 -0.2939  1.9665
 8666TIP3   OH225961   3.962   2.713   4.001 -0.4382 -0.0840  0.1566
 8666TIP3    H125962   3.954   2.704   4.096  0.4985  0.6527  0.3200
 8666TIP3    H225963   3.976   2.806   3.987  1.5671 -0.4430 -0.5077
 8667TIP3   OH225964   3.268   5.042   1.884  0.2233  0.2897 -0.2723
 8667TIP3    H125965   3.310   5.097   1.951  0.2842 -1.1361  0.8918
 8667TIP3    H225966   3.208   5.102   1.839  0.8153  1.4876  0.4696
 8668TIP3   OH225967   0.079   2.584   2.587  0.1478 -0.1358 -0.6782
 8668TIP3    H125968   0.036   2.521   2.645 -1.2775  0.3470 -1.1442
 8668TIP3    H225969   0.102   2.657   2.644  1.2241 -0.7930 -0.2523
 8669TIP3   OH225970   2.950   2.776   3.661 -0.0976  0.1286  0.3256
 8669TIP3    H125971   2.937   2.688   3.695  1.5618 -0.3807 -0.2669
 8669TIP3    H225972   2.862   2.812   3.653 -0.8420 -1.6495  0.1057
 8670TIP3   OH225973   1.812   2.123   2.792 -0.2569  0.1406 -0.3618
 8670TIP3    H125974   1.795   2.034   2.823  1.3772 -0.0187  0.2079
 8670TIP3    H225975   1.836   2.112   2.700  1.0682 -0.1977 -0.0096
 8671TIP3   OH225976   1.178   0.359   0.661 -0.4186  0.1718  0.6364
 8671TIP3    H125977   1.146   0.334   0.748 -0.2678 -0.8418  0.4132
 8671TIP3    H225978   1.120   0.313   0.600  1.0581 -1.2477  0.2180
 8672TIP3   OH225979   6.659   0.251   1.232  0.0548  0.1988 -0.1834
 8672TIP3    H125980   6.744   0.249   1.276 -0.7672  1.3510  1.5790
 8672TIP3    H225981   6.649   0.342   1.202 -0.1494 -0.1650 -1.2763
 8673TIP3   OH225982   6.793   5.401   3.312  0.0030 -0.3702 -0.3380
 8673TIP3    H125983   6.774   5.405   3.218 -0.5910  0.2801 -0.2027
 8673TIP3    H225984   6.885   5.423   3.319  0.8304 -3.2231 -0.9906
 8674TIP3   OH225985   4.039   0.294   1.296 -0.1386  0.3687 -0.3077
 8674TIP3    H125986   4.089   0.225   1.339 -0.3404  0.9822  0.9441
 8674TIP3    H225987   4.085   0.375   1.317 -1.0212  0.8238 -0.0574
 8675TIP3   OH225988   1.628   6.528   0.473  0.0249 -0.3729  0.0978
 8675TIP3    H125989   1.634   6.435   0.491 -0.3665 -0.3864  0.1571
 8675TIP3    H225990   1.706   6.547   0.420 -0.2643 -0.8712 -0.5119
 8676TIP3   OH225991   0.463   0.491   1.416 -0.1066 -0.2291 -0.3243
 8676TIP3    H125992   0.428   0.577   1.391 -1.3401 -1.2725 -2.4454
 8676TIP3    H225993   0.558   0.503   1.414 -0.2398  1.4044  0.7443
 8677TIP3   OH225994   1.024   6.714   5.713 -0.5066  0.0811  0.0472
 8677TIP3    H125995   0.973   6.639   5.745 -0.4749 -0.1102 -0.3356
 8677TIP3    H225996   1.104   6.713   5.765 -0.3053 -0.4298 -0.2677
 8678TIP3   OH225997   4.608   1.675   1.165 -0.1205  0.2660 -0.3226
 8678TIP3    H125998   4.656   1.609   1.217 -1.1167 -0.0752  0.1949
 8678TIP3    H225999   4.627   1.758   1.209 -0.5183  0.0468  0.2878
 8679TIP3   OH226000   5.002   5.730   3.571  0.1709 -0.1843 -0.0768
 8679TIP3    H126001   5.050   5.716   3.489  1.3858  1.5946  0.2732
 8679TIP3    H226002   5.052   5.682   3.636  0.8939  0.7685  0.0946
 8680TIP3   OH226003   2.052   0.349   3.861  0.0096 -0.0783  0.6386
 8680TIP3    H126004   2.094   0.264   3.849 -0.5697 -0.5289  1.6656
 8680TIP3    H226005   2.079   0.400   3.785 -1.2615 -1.8334 -1.0997
 8681TIP3   OH226006   0.492   5.440   1.344 -0.4046 -0.4788  0.5172
 8681TIP3    H126007   0.543   5.518   1.322 -0.4378 -0.6952 -0.3646
 8681TIP3    H226008   0.467   5.453   1.435 -0.5641  0.6241  0.3295
 8682TIP3   OH226009   2.421   0.540   0.769 -0.4856  0.6398 -0.3966
 8682TIP3    H126010   2.332   0.510   0.753 -0.1904 -0.0251 -0.8377
 8682TIP3    H226011   2.426   0.552   0.864 -1.2843  1.4813 -0.4430
 8683TIP3   OH226012   7.200   2.809   0.404 -0.2901 -0.4685  0.1617
 8683TIP3    H126013   7.142   2.733   0.399 -1.8825  0.5697  1.6737
 8683TIP3    H226014   7.143   2.884   0.386  1.2950  0.3996 -1.5505
 8684TIP3   OH226015   5.373   0.645   1.935  0.5939  0.1128  0.0658
 8684TIP3    H126016   5.286   0.671   1.904  0.5864 -0.6420 -0.5791
 8684TIP3    H226017   5.399   0.715   1.996 -0.9648 -0.2256  1.1820
 8685TIP3   OH226018   2.297   5.109   4.630 -0.0571 -0.3775  0.5257
 8685TIP3    H126019   2.353   5.101   4.553 -0.8646 -0.4512 -0.0655
 8685TIP3    H226020   2.307   5.025   4.675 -1.0606 -1.0980 -0.5367
 8686TIP3   OH226021   2.410   0.484   3.938 -0.2683 -0.2654  0.2762
 8686TIP3    H126022   2.391   0.390   3.936  0.7730 -0.4765 -0.7002
 8686TIP3    H226023   2.479   0.493   4.003  1.5272 -0.6016 -1.4767
 8687TIP3   OH226024   6.137   0.205   2.911 -0.2874  0.6675 -0.1495
 8687TIP3    H126025   6.149   0.296   2.884  1.1146  0.4373 -0.3361
 8687TIP3    H226026   6.198   0.155   2.856 -1.0093 -0.3898 -0.0259
 8688TIP3   OH226027   3.242   5.925   4.156 -0.5191 -0.4144  0.5928
 8688TIP3    H126028   3.168   5.891   4.207 -0.9239 -0.9899 -0.3555
 8688TIP3    H226029   3.293   5.976   4.219 -0.8485 -1.3401  1.6449
 8689TIP3   OH226030   1.344   2.632   0.932  0.0122 -0.2646 -0.0919
 8689TIP3    H126031   1.426   2.654   0.975  0.3777 -1.4096 -0.1560
 8689TIP3    H226032   1.285   2.705   0.952  0.9009  0.3519  0.3313
 8690TIP3   OH226033   4.641   5.156   3.159  0.4615 -0.3483 -0.2134
 8690TIP3    H126034   4.712   5.152   3.223  2.5962  2.2176 -2.1572
 8690TIP3    H226035   4.680   5.122   3.078 -0.8244  0.2418 -1.1203
 8691TIP3   OH226036   6.174   5.278   1.090  0.1109  0.1877 -0.3800
 8691TIP3    H126037   6.086   5.239   1.097 -0.2561  1.1345  0.5277
 8691TIP3    H226038   6.168   5.359   1.141  0.4371  2.1947 -3.2869
 8692TIP3   OH226039   3.638   0.756   4.636  0.2320 -0.6181  0.1698
 8692TIP3    H126040   3.562   0.728   4.685 -0.2695  0.6784  0.1888
 8692TIP3    H226041   3.602   0.797   4.556  0.8536  0.4324  0.4025
 8693TIP3   OH226042   6.352   3.359   1.967 -0.0831  0.2714 -0.3858
 8693TIP3    H126043   6.327   3.355   2.060  1.5727 -0.6286  0.0542
 8693TIP3    H226044   6.321   3.277   1.930  1.2735 -0.4102 -0.0644
 8694TIP3   OH226045   3.498   1.229   5.251 -0.7592  0.2369  0.3019
 8694TIP3    H126046   3.540   1.291   5.191 -1.2207  0.9227  0.6633
 8694TIP3    H226047   3.490   1.148   5.201 -1.4510  0.8921 -0.7032
 8695TIP3   OH226048   2.936   0.535   0.110  0.9362 -0.8867 -0.0949
 8695TIP3    H126049   2.847   0.532   0.076  1.3205  0.0570 -1.2537
 8695TIP3    H226050   2.930   0.589   0.188  0.6530  0.1125 -0.7802
 8696TIP3   OH226051   0.533   0.913   1.427 -0.2093  0.2810 -0.6381
 8696TIP3    H126052   0.553   1.006   1.431  1.6613 -0.1325  1.3892
 8696TIP3    H226053   0.536   0.884   1.518  0.4273 -1.9876 -1.3213
 8697TIP3   OH226054   0.362   4.946   1.985 -0.0925  0.8630  0.2283
 8697TIP3    H126055   0.308   4.966   1.908  0.6894 -0.3515 -0.6627
 8697TIP3    H226056   0.316   4.875   2.029  0.0494  0.7806  0.2451
 8698TIP3   OH226057   6.843   5.850   0.447  0.4670  0.2916  0.3162
 8698TIP3    H126058   6.788   5.780   0.411  1.0355  0.0646 -0.1170
 8698TIP3    H226059   6.802   5.931   0.418 -0.3266  0.1544  1.0087
 8699TIP3   OH226060   6.870   4.691   5.890  0.1279 -0.3713  0.3810
 8699TIP3    H126061   6.829   4.612   5.925  1.0694 -1.1445 -0.2089
 8699TIP3    H226062   6.798   4.740   5.850 -0.2973 -1.4928 -0.2545
 8700TIP3   OH226063   6.092   2.652   0.419  0.0629  0.3004  0.4158
 8700TIP3    H126064   6.132   2.648   0.332 -0.2978  0.5936  0.2366
 8700TIP3    H226065   6.159   2.617   0.477 -0.0151 -0.7133 -0.0877
 8701TIP3   OH226066   5.009   2.095   3.207 -0.1666 -0.2829 -0.3152
 8701TIP3    H126067   4.931   2.148   3.225 -0.0913 -0.0561 -0.6323
 8701TIP3    H226068   5.071   2.157   3.167  0.8708 -0.0199  1.5611
 8702TIP3   OH226069   0.896   5.978   0.657  0.1548 -0.3920  0.1520
 8702TIP3    H126070   0.810   5.970   0.616  0.4082  0.3721 -0.5604
 8702TIP3    H226071   0.913   6.072   0.658  0.9401 -0.5288  0.3784
 8703TIP3   OH226072   6.108   3.173   3.161  0.4430 -0.5688  0.1784
 8703TIP3    H126073   6.067   3.245   3.114  1.7647  0.2033  0.1683
 8703TIP3    H226074   6.045   3.149   3.228  0.5526  1.5724  1.1179
 8704TIP3   OH226075   3.109   0.573   2.617  0.1774  0.1751 -0.4377
 8704TIP3    H126076   3.025   0.617   2.604  0.4098  0.3634 -1.3308
 8704TIP3    H226077   3.106   0.543   2.708 -0.1813  1.6321  0.0571
 8705TIP3   OH226078   0.905   1.781   0.427 -0.2424 -0.0660 -0.2584
 8705TIP3    H126079   0.947   1.768   0.512  0.0186  0.2671 -0.3338
 8705TIP3    H226080   0.875   1.694   0.402  2.0411 -0.6936 -1.0656
 8706TIP3   OH226081   4.770   4.285   3.017 -0.0012 -0.1123 -0.4541
 8706TIP3    H126082   4.802   4.350   2.955  0.7049 -0.9865 -1.0331
 8706TIP3    H226083   4.790   4.322   3.103 -0.7095  0.9694 -0.7400
 8707TIP3   OH226084   6.611   1.102   1.647 -0.4509  0.2291  0.4267
 8707TIP3    H126085   6.693   1.141   1.618 -1.4150  1.7325 -0.4759
 8707TIP3    H226086   6.566   1.078   1.566 -0.9384 -0.4688  0.8941
 8708TIP3   OH226087   4.918   1.865   1.605  0.1511  0.1026 -0.1121
 8708TIP3    H126088   4.936   1.784   1.558  1.7878  0.3996 -0.0629
 8708TIP3    H226089   4.946   1.934   1.545 -2.8969  0.7865 -0.8995
 8709TIP3   OH226090   5.221   3.888   5.576 -0.4474  0.1872  0.7968
 8709TIP3    H126091   5.303   3.917   5.616  0.5294 -0.0704 -0.9087
 8709TIP3    H226092   5.193   3.962   5.523 -0.1001 -0.5026 -0.3882
 8710TIP3   OH226093   1.668   3.796   1.795 -0.0200  0.3389  0.0659
 8710TIP3    H126094   1.758   3.785   1.825  0.2663  0.7153 -0.6225
 8710TIP3    H226095   1.651   3.719   1.740 -0.3711 -0.0992  0.7839
 8711TIP3   OH226096   1.381   4.455   4.873 -0.3745  0.2092 -0.2780
 8711TIP3    H126097   1.303   4.511   4.877  0.6950  1.7297  0.8007
 8711TIP3    H226098   1.419   4.474   4.787 -0.1161  1.0534  0.0083
 8712TIP3   OH226099   5.090   1.609   1.848  0.2073 -0.1269 -0.1395
 8712TIP3    H126100   5.039   1.653   1.916 -0.3880  0.6412 -1.0392
 8712TIP3    H226101   5.180   1.613   1.878 -0.0440  0.2520  0.5789
 8713TIP3   OH226102   4.037   2.134   4.737  0.2591  0.4759 -0.7013
 8713TIP3    H126103   4.048   2.072   4.809  0.4304 -0.3505 -1.4110
 8713TIP3    H226104   4.110   2.195   4.747  1.9815 -1.2768 -1.7450
 8714TIP3   OH226105   0.418   6.465   5.687  0.3167  0.2156 -0.1298
 8714TIP3    H126106   0.417   6.371   5.668  1.5133  0.3555 -1.0093
 8714TIP3    H226107   0.381   6.472   5.775  0.2858 -1.0844 -0.0205
 8715TIP3   OH226108   4.671   1.667   2.191 -0.1664 -0.1908 -0.0227
 8715TIP3    H126109   4.601   1.614   2.154 -0.0999 -1.2127  1.2317
 8715TIP3    H226110   4.748   1.609   2.190 -0.0313 -0.0617  1.1523
 8716TIP3   OH226111   3.936   6.527   2.573 -0.4125 -0.3132 -0.1522
 8716TIP3    H126112   3.846   6.532   2.543 -0.5494 -0.8662  0.1479
 8716TIP3    H226113   3.969   6.617   2.567 -1.2212  0.0398  0.4574
 8717TIP3   OH226114   5.487   4.065   3.840  1.0170 -0.0113 -0.8076
 8717TIP3    H126115   5.521   4.146   3.801 -1.6935  1.9132  0.5169
 8717TIP3    H226116   5.398   4.087   3.866  0.4937 -3.1962  0.4867
 8718TIP3   OH226117   6.143   6.098   0.771  0.9151 -0.0881  0.1169
 8718TIP3    H126118   6.161   6.169   0.831  1.3930 -0.5288  0.5077
 8718TIP3    H226119   6.065   6.125   0.724  0.3862  0.1527  1.1124
 8719TIP3   OH226120   5.936   1.695   3.581  0.2823 -0.0324  0.2676
 8719TIP3    H126121   5.942   1.743   3.664 -0.7199 -0.8217  0.8090
 8719TIP3    H226122   5.901   1.759   3.519  2.8525  1.1724 -0.0957
 8720TIP3   OH226123   7.133   5.365   2.294  0.5284 -0.3162  0.3900
 8720TIP3    H126124   7.160   5.423   2.224 -0.1916 -0.9274 -0.4151
 8720TIP3    H226125   7.215   5.343   2.339  1.2649 -1.2263 -1.2844
 8721TIP3   OH226126   6.120  -0.022   0.018  0.6205 -0.8070  0.3412
 8721TIP3    H126127   6.162  -0.009   0.103  0.5193 -0.6551  0.3679
 8721TIP3    H226128   6.119   0.065  -0.022 -1.3041 -0.4357  1.0951
 8722TIP3   OH226129   5.840   5.993   1.193  0.0916 -0.6822 -0.4278
 8722TIP3    H126130   5.818   6.004   1.101 -0.1856  0.2554 -0.2586
 8722TIP3    H226131   5.784   5.922   1.223 -2.4602  1.3397 -0.1085
 8723TIP3   OH226132   0.028   0.540   5.000  0.1095 -0.3620  0.3064
 8723TIP3    H126133  -0.060   0.516   5.029 -0.3464  0.2171 -0.5378
 8723TIP3    H226134   0.043   0.626   5.040 -0.6762  0.6171 -1.3786
 8724TIP3   OH226135   4.405   3.886   3.833  0.1670  0.1799  0.4997
 8724TIP3    H126136   4.486   3.896   3.782  0.2574 -0.0671  0.5917
 8724TIP3    H226137   4.409   3.796   3.867 -1.0337 -0.5188 -1.0466
 8725TIP3   OH226138   0.994   0.784   5.491 -0.3290  0.1250 -0.9304
 8725TIP3    H126139   1.028   0.824   5.411  1.0060 -2.3032 -1.6857
 8725TIP3    H226140   0.912   0.744   5.465 -0.5679  0.4681 -0.7210
 8726TIP3   OH226141   5.425   2.930   4.289  1.1661  0.2654 -0.2562
 8726TIP3    H126142   5.456   3.002   4.233  3.6951  1.9424  2.9759
 8726TIP3    H226143   5.360   2.970   4.346  0.2005 -0.8600 -0.5434
 8727TIP3   OH226144   2.135   0.462   0.738  0.3193 -0.2627 -0.6295
 8727TIP3    H126145   2.065   0.403   0.711  1.1384 -0.5392 -2.2639
 8727TIP3    H226146   2.111   0.547   0.701  0.2102 -0.0482 -0.0806
 8728TIP3   OH226147   1.151   4.884   4.834 -0.4159  0.1302 -0.6199
 8728TIP3    H126148   1.238   4.871   4.872 -1.3621 -2.1721  0.9614
 8728TIP3    H226149   1.099   4.924   4.903 -0.8201  0.7904 -1.2924
 8729TIP3   OH226150   7.059   6.731   5.024 -0.1163  0.5615 -0.0736
 8729TIP3    H126151   6.972   6.702   4.997 -0.5673  1.4026  0.4249
 8729TIP3    H226152   7.046   6.767   5.112  0.4409  2.0626 -0.5727
 8730TIP3   OH226153   5.647   0.792   3.118  0.2131  0.5547 -0.3179
 8730TIP3    H126154   5.694   0.863   3.160  1.8239  0.3711 -1.6841
 8730TIP3    H226155   5.575   0.834   3.071 -1.3147  0.8025  2.0914
 8731TIP3   OH226156   0.246   0.363   1.263  0.3448 -0.0720 -0.0502
 8731TIP3    H126157   0.306   0.389   1.332  1.0295 -2.4378  0.3049
 8731TIP3    H226158   0.301   0.320   1.198 -0.7878 -1.2481 -0.2685
 8732TIP3   OH226159   5.742   4.255   4.598  0.0424 -0.5333  0.0885
 8732TIP3    H126160   5.728   4.197   4.523 -1.3078 -0.4660  0.2683
 8732TIP3    H226161   5.837   4.265   4.602  0.1226  0.8242 -2.6613
 8733TIP3   OH226162   0.846   6.147   5.581 -0.5278 -0.1161 -0.2296
 8733TIP3    H126163   0.812   6.072   5.630  1.9861 -0.6444  0.8421
 8733TIP3    H226164   0.838   6.221   5.642  0.6997 -0.3670  0.2723
 8734TIP3   OH226165   0.203   4.458   2.653  0.4694  0.3943  0.1222
 8734TIP3    H126166   0.227   4.486   2.741  1.0187 -1.4611  0.6126
 8734TIP3    H226167   0.111   4.431   2.661  0.9847 -1.3907  0.6137
 8735TIP3   OH226168   1.187   1.388   1.916  0.6491  0.0199 -0.4127
 8735TIP3    H126169   1.202   1.471   1.962 -0.2044 -0.0320 -0.0154
 8735TIP3    H226170   1.227   1.322   1.971 -0.9632 -0.1257  0.6651
 8736TIP3   OH226171   2.972   3.038   2.892 -0.6043  0.1579 -0.2080
 8736TIP3    H126172   3.022   2.958   2.911 -0.9271  0.1492  0.6066
 8736TIP3    H226173   2.960   3.080   2.977  0.2574  1.5031 -0.7086
 8737TIP3   OH226174   4.415   1.378   3.525 -0.0308 -0.3711 -0.4852
 8737TIP3    H126175   4.443   1.470   3.532  0.4308 -0.5759  0.4546
 8737TIP3    H226176   4.475   1.339   3.462  1.7953 -0.7796  1.4179
 8738TIP3   OH226177   2.619   0.708   0.714  0.3636 -0.2781  0.0688
 8738TIP3    H126178   2.547   0.649   0.689  0.8161 -0.6625 -0.3514
 8738TIP3    H226179   2.602   0.728   0.806  0.9772 -2.2239  0.6559
 8739TIP3   OH226180   2.293   5.280   0.449  0.4274  0.0512  0.1778
 8739TIP3    H126181   2.388   5.276   0.456  0.4355  1.1645  1.0155
 8739TIP3    H226182   2.272   5.373   0.458 -0.7418 -0.1728 -0.0187
 8740TIP3   OH226183   1.621   3.805   3.303  0.3987 -0.5757  0.0392
 8740TIP3    H126184   1.597   3.864   3.375  2.1415 -0.1726  0.3491
 8740TIP3    H226185   1.538   3.784   3.260 -0.3669  1.5626  0.3413
 8741TIP3   OH226186   5.236   5.847   3.842  0.3799 -0.3538 -0.2474
 8741TIP3    H126187   5.220   5.875   3.752  0.0064 -2.6727 -0.9555
 8741TIP3    H226188   5.329   5.826   3.845  0.0542 -2.0410 -0.6792
 8742TIP3   OH226189   4.155   4.788   4.214  0.2423  0.1901 -0.0632
 8742TIP3    H126190   4.069   4.750   4.198  0.8272 -0.0204 -3.3231
 8742TIP3    H226191   4.155   4.871   4.166  1.6544  0.5058  0.4092
 8743TIP3   OH226192   2.025   1.594   4.753  0.0134 -0.1735  0.4250
 8743TIP3    H126193   1.976   1.514   4.773 -2.2228  1.3878  1.5774
 8743TIP3    H226194   1.972   1.640   4.688  0.3072  1.2065  1.1185
 8744TIP3   OH226195   6.980   4.613   1.542 -0.4482  0.1024  0.6079
 8744TIP3    H126196   6.938   4.687   1.497  1.6979  0.1374 -1.5167
 8744TIP3    H226197   6.912   4.545   1.545 -1.3599  0.9116 -0.6453
 8745TIP3   OH226198   0.029   4.995   5.796  0.0906 -0.2537  0.1722
 8745TIP3    H126199  -0.040   4.930   5.809 -0.9964  0.5474 -1.2130
 8745TIP3    H226200   0.108   4.955   5.833 -0.5370 -2.3619 -0.6078
 8746TIP3   OH226201   2.216   2.383   5.684 -0.3496  0.0664 -0.1967
 8746TIP3    H126202   2.134   2.356   5.726 -0.8994  2.9244  0.7895
 8746TIP3    H226203   2.198   2.471   5.652  1.3110 -0.5658 -3.1237
 8747TIP3   OH226204   2.846   2.095   1.172 -0.0412  0.1552  0.9614
 8747TIP3    H126205   2.765   2.131   1.207 -0.0680  1.3563 -0.2641
 8747TIP3    H226206   2.821   2.011   1.134 -1.2474  1.5140 -1.4654
 8748TIP3   OH226207   1.997   4.747   4.827  0.0591 -0.2610  0.3440
 8748TIP3    H126208   1.999   4.716   4.737  0.3693  2.0804 -0.5442
 8748TIP3    H226209   2.076   4.710   4.867  1.6468  1.1132 -1.3163
 8749TIP3   OH226210   6.455   4.280   4.945  0.1975  0.1699 -0.4550
 8749TIP3    H126211   6.390   4.276   4.875  2.6134 -0.2627 -2.8662
 8749TIP3    H226212   6.504   4.360   4.928  0.3761  0.4705  1.2794
 8750TIP3   OH226213   6.486   2.619   2.046 -0.4176  0.4797  0.3795
 8750TIP3    H126214   6.490   2.707   2.084 -1.2628  0.2560  1.0049
 8750TIP3    H226215   6.395   2.609   2.017 -0.0673  0.2076 -0.6658
 8751TIP3   OH226216   3.033   1.825   0.163 -0.0765 -0.3790 -0.1959
 8751TIP3    H126217   2.962   1.761   0.166 -1.8609  1.3551 -1.9303
 8751TIP3    H226218   3.001   1.898   0.216  0.4052  0.3835 -0.9255
 8752TIP3   OH226219   0.301   2.880   1.928 -0.1807 -0.2424 -0.5465
 8752TIP3    H126220   0.241   2.912   1.996  0.8111  2.8668 -0.9695
 8752TIP3    H226221   0.250   2.882   1.847 -0.5923 -1.4141 -0.3370
 8753TIP3   OH226222   4.720   1.948   4.757  0.2667  0.4157 -0.1792
 8753TIP3    H126223   4.685   1.996   4.683 -0.0510 -1.5889 -1.4044
 8753TIP3    H226224   4.656   1.879   4.774  1.0940 -0.1154  0.9549
 8754TIP3   OH226225   5.047   6.511   3.407 -0.1099  0.3000  0.3163
 8754TIP3    H126226   5.118   6.451   3.384  0.3994  1.4576 -1.2468
 8754TIP3    H226227   5.084   6.567   3.475 -0.2615 -0.4752  1.0594
 8755TIP3   OH226228   0.645   3.405   1.113  0.3546 -0.0753 -0.0771
 8755TIP3    H126229   0.611   3.369   1.195  0.1631  0.6579  0.1771
 8755TIP3    H226230   0.717   3.348   1.089 -1.6801 -2.3665 -1.2155
 8756TIP3   OH226231   7.135   2.467   0.017  0.0968 -0.5400  0.2984
 8756TIP3    H126232   7.161   2.548  -0.027 -0.3929 -0.2394  0.5654
 8756TIP3    H226233   7.161   2.480   0.108 -2.3715  0.4087  0.9245
 8757TIP3   OH226234   0.946   5.256   4.989 -0.0255 -0.2652  0.1942
 8757TIP3    H126235   1.017   5.213   5.037  0.0953 -0.5486 -0.2357
 8757TIP3    H226236   0.869   5.246   5.046  0.3187  0.2116  0.7477
 8758TIP3   OH226237   1.362   0.695   3.467  1.0991  0.1777  0.1956
 8758TIP3    H126238   1.387   0.636   3.538  2.6311 -0.2951 -0.6880
 8758TIP3    H226239   1.420   0.770   3.477  0.7266  0.5043 -0.0602
 8759TIP3   OH226240   1.019   3.115   1.087 -0.0560 -0.2738  0.2099
 8759TIP3    H126241   1.022   3.099   1.181 -0.7368 -1.7861  0.0101
 8759TIP3    H226242   1.044   3.031   1.047  0.8113  0.5032 -0.9652
 8760TIP3   OH226243   5.995   1.573   2.373 -0.2504  0.0852  0.0280
 8760TIP3    H126244   6.032   1.643   2.428 -1.3565  0.4917  0.2868
 8760TIP3    H226245   5.947   1.620   2.305 -1.9217 -0.4012  0.8389
 8761TIP3   OH226246   6.002   1.314   2.527  0.0823  0.4014  0.0294
 8761TIP3    H126247   5.932   1.307   2.461 -1.0358 -0.2344  1.2356
 8761TIP3    H226248   5.966   1.271   2.605  2.3392 -1.1403  0.3063
 8762TIP3   OH226249   0.506   4.736   4.784 -0.3712  0.4396 -0.1542
 8762TIP3    H126250   0.479   4.646   4.765  1.5372 -0.3682  0.7691
 8762TIP3    H226251   0.428   4.777   4.821 -1.6522 -0.4213 -1.7484
 8763TIP3   OH226252   5.829   2.240   3.402 -0.3250  0.6016 -0.5389
 8763TIP3    H126253   5.744   2.253   3.362  0.2075  0.7920 -1.6426
 8763TIP3    H226254   5.891   2.278   3.340  0.7470 -1.4244 -0.7949
 8764TIP3   OH226255   4.019   6.320   3.132  0.5398  0.1540 -0.2446
 8764TIP3    H126256   3.949   6.371   3.172 -0.1224  0.2644 -1.4937
 8764TIP3    H226257   4.028   6.356   3.044  1.1195 -0.8617 -0.6219
 8765TIP3   OH226258   0.620   2.751   2.335 -0.2718 -0.7738 -0.0109
 8765TIP3    H126259   0.610   2.668   2.381 -0.1983 -0.5266  0.4579
 8765TIP3    H226260   0.654   2.727   2.249 -0.3740 -1.2373  0.0771
 8766TIP3   OH226261   1.608   5.300   5.845 -0.3208  0.1432 -0.4558
 8766TIP3    H126262   1.599   5.219   5.794  0.9122  0.1390 -0.7149
 8766TIP3    H226263   1.598   5.370   5.780 -3.1711  0.3072  0.0425
 8767TIP3   OH226264   1.530   2.629   4.305  0.7238  0.5065  0.1230
 8767TIP3    H126265   1.619   2.661   4.291  1.1427 -0.0618  1.3466
 8767TIP3    H226266   1.492   2.623   4.217  2.5282 -1.0364 -0.6164
 8768TIP3   OH226267   6.206   1.256   4.376 -0.5702 -0.0368 -0.0032
 8768TIP3    H126268   6.258   1.210   4.442  1.2860  0.0576 -1.3246
 8768TIP3    H226269   6.252   1.339   4.364 -1.7015  0.5529 -0.4083
 8769TIP3   OH226270   5.344   3.339   3.217 -0.1856 -0.6249  0.5260
 8769TIP3    H126271   5.306   3.349   3.130  0.5378 -1.0677  0.1396
 8769TIP3    H226272   5.425   3.390   3.213  0.2248 -1.2511  0.6807
 8770TIP3   OH226273   4.651   5.870   1.770 -0.5602 -0.0771 -0.5486
 8770TIP3    H126274   4.691   5.900   1.689  2.3262 -0.5097  0.5839
 8770TIP3    H226275   4.599   5.794   1.745  2.1574 -1.6783 -1.7606
 8771TIP3   OH226276   6.646   3.407   1.938  0.0001  0.6101  0.2696
 8771TIP3    H126277   6.555   3.379   1.948 -1.2539  3.4313 -1.7245
 8771TIP3    H226278   6.644   3.501   1.955  2.8685  0.5608  1.4409
 8772TIP3   OH226279   2.971   6.179   2.587 -0.6664 -0.2624 -0.2337
 8772TIP3    H126280   2.878   6.159   2.580 -1.1644  1.2220  1.4999
 8772TIP3    H226281   2.989   6.233   2.509 -1.2639 -0.4955 -0.5418
 8773TIP3   OH226282   5.166   0.961   4.513  0.4837 -0.0463  0.2199
 8773TIP3    H126283   5.211   0.891   4.560  1.1067  0.6978  0.7630
 8773TIP3    H226284   5.102   0.916   4.458  0.2542 -0.9922  1.2214
 8774TIP3   OH226285   0.040   0.855   0.710 -0.5065 -0.6992  0.4560
 8774TIP3    H126286   0.027   0.925   0.646 -0.7335 -1.9267 -0.8913
 8774TIP3    H226287  -0.033   0.864   0.770 -1.2098 -0.5104 -0.3984
 8775TIP3   OH226288   6.898   5.942   1.727  0.7217 -0.1309  0.1437
 8775TIP3    H126289   6.966   6.006   1.706  0.5107 -0.1354 -0.5975
 8775TIP3    H226290   6.815   5.989   1.712  0.5605 -0.7289 -0.9642
 8776TIP3   OH226291   2.494   2.924   5.684 -0.2128  0.2182  0.1437
 8776TIP3    H126292   2.511   2.889   5.772  0.3772 -2.5821 -0.9703
 8776TIP3    H226293   2.412   2.971   5.693 -1.7544 -2.4737  1.6858
 8777TIP3   OH226294   3.493   1.675   1.669 -0.0870 -0.1888  0.7226
 8777TIP3    H126295   3.507   1.695   1.762 -0.3090  1.3977  0.4351
 8777TIP3    H226296   3.578   1.692   1.628 -0.3827  0.6071  0.4140
 8778TIP3   OH226297   3.018   1.467   4.068  0.2377 -0.2559 -0.1598
 8778TIP3    H126298   3.092   1.414   4.037  1.0133  0.8874 -0.3085
 8778TIP3    H226299   3.058   1.535   4.122 -0.7589  0.1146  0.1310
 8779TIP3   OH226300   6.642   5.694   0.809  0.2596 -0.7308 -1.6416
 8779TIP3    H126301   6.681   5.644   0.738  1.9038  1.5174 -2.4480
 8779TIP3    H226302   6.602   5.770   0.766 -1.9421 -1.1486 -0.4593
 8780TIP3   OH226303   6.894   4.222   5.803  0.6658 -0.3592  0.4222
 8780TIP3    H126304   6.898   4.310   5.765  0.8651 -0.0605  1.1292
 8780TIP3    H226305   6.984   4.191   5.803  0.5778 -0.6203  0.0491
 8781TIP3   OH226306   0.986   4.206   2.473  0.1076  0.0870  0.1384
 8781TIP3    H126307   0.978   4.295   2.510  0.4488  0.2013 -0.0618
 8781TIP3    H226308   0.896   4.174   2.470 -0.3034  1.2324 -1.7629
 8782TIP3   OH226309   2.009   1.688   1.799  0.3553  0.5525 -0.3479
 8782TIP3    H126310   1.972   1.608   1.763 -0.4929 -0.3070  2.2648
 8782TIP3    H226311   2.022   1.670   1.892 -0.7354  3.7253  0.5732
 8783TIP3   OH226312   4.276   0.232   1.456 -0.2914 -0.2927 -0.0636
 8783TIP3    H126313   4.239   0.245   1.543  0.2829  1.0384  0.0013
 8783TIP3    H226314   4.286   0.320   1.420 -0.3327 -0.8088 -1.4084
 8784TIP3   OH226315   5.721   2.828   0.075 -0.2085 -0.6345  0.0716
 8784TIP3    H126316   5.773   2.798   0.150  0.3263 -0.6779 -0.3154
 8784TIP3    H226317   5.762   2.787  -0.001 -1.2545 -1.2621 -0.1732
 8785TIP3   OH226318   7.185   3.835   2.782 -0.2482 -0.0102  0.4101
 8785TIP3    H126319   7.126   3.776   2.828 -2.2368  0.4678 -1.3709
 8785TIP3    H226320   7.255   3.853   2.844 -1.3879 -1.4951  2.2146
 8786TIP3   OH226321   1.211   3.175   3.020  0.0687 -0.0516  0.1907
 8786TIP3    H126322   1.287   3.199   2.968  1.1659 -1.2320  1.1918
 8786TIP3    H226323   1.183   3.091   2.983  1.3103 -1.2792  1.8867
 8787TIP3   OH226324   4.921   2.101   5.455 -0.0267 -0.1217 -0.1283
 8787TIP3    H126325   4.893   2.156   5.382  1.1665  0.9441  0.1868
 8787TIP3    H226326   4.977   2.157   5.507 -0.8873 -0.8456  1.6591
 8788TIP3   OH226327   6.588   4.905   3.205  0.3665 -0.3287 -0.3624
 8788TIP3    H126328   6.550   4.954   3.132  0.2462 -0.4435 -0.3772
 8788TIP3    H226329   6.679   4.935   3.209 -0.1528  1.2299  0.7654
 8789TIP3   OH226330   4.033   1.042   1.880 -0.1406 -0.6780  0.2315
 8789TIP3    H126331   4.115   1.001   1.910  0.6002 -0.2717 -1.1333
 8789TIP3    H226332   4.006   0.987   1.806  0.1778  0.5058 -0.8039
 8790TIP3   OH226333   1.264   3.565   3.374  0.7098  0.2980  0.1221
 8790TIP3    H126334   1.231   3.476   3.361  0.8674  0.3484 -0.7193
 8790TIP3    H226335   1.185   3.618   3.385  0.5319  0.2664 -0.8668
 8791TIP3   OH226336   4.816   4.185   1.163 -0.6351 -0.5283  0.6960
 8791TIP3    H126337   4.724   4.163   1.145 -0.4633 -0.3322 -0.4950
 8791TIP3    H226338   4.811   4.252   1.231 -1.5064  0.9581 -0.7471
 8792TIP3   OH226339   1.277   1.909   2.267  0.3544 -0.1105  0.0402
 8792TIP3    H126340   1.239   1.855   2.336 -0.6512 -1.3202 -1.4006
 8792TIP3    H226341   1.370   1.886   2.267  0.4597  0.2398  1.2498
 8793TIP3   OH226342   0.123   3.138   2.483  0.1217 -0.1210 -0.2800
 8793TIP3    H126343   0.195   3.108   2.537  0.9256  1.4304 -0.4344
 8793TIP3    H226344   0.066   3.186   2.543 -0.9877 -1.5881 -0.0948
 8794TIP3   OH226345   0.739   3.968   2.678 -0.3241  0.2903 -0.1543
 8794TIP3    H126346   0.731   3.874   2.695 -0.6085  0.3347 -0.0384
 8794TIP3    H226347   0.736   3.976   2.582  0.4589  0.1146 -0.1998
 8795TIP3   OH226348   0.249   3.880   4.469  0.3756  0.3272 -0.0091
 8795TIP3    H126349   0.209   3.794   4.451  0.5436  0.1868  0.2842
 8795TIP3    H226350   0.254   3.922   4.383  0.2497  0.0602 -0.1489
 8796TIP3   OH226351   3.015   6.804   1.253  0.4718 -0.1131  0.2745
 8796TIP3    H126352   2.969   6.858   1.318 -0.8735  0.1022 -0.8217
 8796TIP3    H226353   3.059   6.737   1.306 -2.1704 -1.1408  1.3590
 8797TIP3   OH226354   4.183   2.620   3.729 -0.2333  0.3798  0.3206
 8797TIP3    H126355   4.111   2.562   3.752 -0.6058  1.3081  1.6566
 8797TIP3    H226356   4.170   2.638   3.636 -0.9818 -0.4654  0.2441
 8798TIP3   OH226357   4.317   5.574   0.672  1.0717 -0.0222 -0.4477
 8798TIP3    H126358   4.246   5.545   0.729  0.9002 -0.2751 -0.7896
 8798TIP3    H226359   4.372   5.496   0.661  1.0465 -0.0012 -0.7176
 8799TIP3   OH226360   6.960   2.079   0.175 -0.1799  0.0012  0.0318
 8799TIP3    H126361   6.889   2.082   0.111  0.4813  0.4216 -0.6906
 8799TIP3    H226362   6.960   1.988   0.206 -2.5761  0.5097  1.8352
 8800TIP3   OH226363   6.643   1.381   1.408  0.2846  0.4441  0.4622
 8800TIP3    H126364   6.549   1.365   1.414  0.2137  0.6468 -0.0230
 8800TIP3    H226365   6.650   1.473   1.382  0.6890  1.7417  4.4665
 8801TIP3   OH226366   0.924   2.318   3.936  0.4418 -0.4605 -0.0078
 8801TIP3    H126367   0.970   2.400   3.954 -0.5204 -0.3291  2.1302
 8801TIP3    H226368   0.832   2.342   3.935  0.2236 -1.2604 -1.0707
 8802TIP3   OH226369   3.933   1.153   0.312  0.0163  0.0269  0.2500
 8802TIP3    H126370   3.889   1.221   0.363  1.2529  0.1287  1.2158
 8802TIP3    H226371   3.999   1.117   0.371 -0.6888 -2.1433 -0.1807
 8803TIP3   OH226372   4.049   2.502   4.719 -0.1881  0.1575 -0.0716
 8803TIP3    H126373   4.112   2.431   4.714  1.5192  1.5404  0.9020
 8803TIP3    H226374   4.050   2.529   4.811 -0.2070  1.9183 -0.5547
 8804TIP3   OH226375   3.138   5.285   3.802  0.5923 -0.0390  0.1059
 8804TIP3    H126376   3.155   5.361   3.747  0.0321  0.7793  1.0323
 8804TIP3    H226377   3.046   5.293   3.827  0.9429 -0.1151  1.5382
 8805TIP3   OH226378   5.616   3.764   2.118 -0.6789 -0.1215 -0.4610
 8805TIP3    H126379   5.662   3.831   2.067 -1.3159  0.3693 -0.3941
 8805TIP3    H226380   5.614   3.687   2.060  1.9550 -0.8362  0.2537
 8806TIP3   OH226381   4.497   2.142   2.348  0.1203 -0.5591 -0.0682
 8806TIP3    H126382   4.464   2.223   2.309  1.4606  0.5259  0.9388
 8806TIP3    H226383   4.579   2.125   2.302  0.5864 -0.5036  0.7213
 8807TIP3   OH226384   0.491   1.480   1.160  0.4428  0.0814  0.2837
 8807TIP3    H126385   0.563   1.455   1.218 -1.4040 -0.5993  2.4218
 8807TIP3    H226386   0.428   1.524   1.217 -1.0307  0.3341 -1.4354
 8808TIP3   OH226387   0.575   3.172   5.092  0.1566 -0.2252  0.1842
 8808TIP3    H126388   0.487   3.195   5.121  0.0479  0.6483 -0.7923
 8808TIP3    H226389   0.564   3.142   5.002  0.6672 -1.5939  0.5625
 8809TIP3   OH226390   3.541   1.181   1.329  0.3094 -0.1499  0.1855
 8809TIP3    H126391   3.511   1.103   1.375  0.3346  0.8102  1.9428
 8809TIP3    H226392   3.624   1.204   1.371  0.7111  0.3755 -0.8500
 8810TIP3   OH226393   2.615   6.313   4.017  0.7272 -0.4618 -0.2507
 8810TIP3    H126394   2.521   6.328   4.016  0.7944  0.3723  1.5036
 8810TIP3    H226395   2.624   6.222   4.045  0.4273 -0.1075  1.0832
 8811TIP3   OH226396   0.511   2.619   2.984 -0.0004 -0.3813 -0.1306
 8811TIP3    H126397   0.590   2.651   2.940 -0.2140  0.4701  0.0906
 8811TIP3    H226398   0.543   2.567   3.057  0.3764  0.8369  0.5942
 8812TIP3   OH226399   6.139   3.899   5.583 -0.1009  1.1533  0.0084
 8812TIP3    H126400   6.047   3.909   5.610 -0.2762 -0.1173 -0.0394
 8812TIP3    H226401   6.177   3.986   5.596 -1.4293  1.8429 -0.4375
 8813TIP3   OH226402   1.426   4.406   1.577  0.0628 -0.8570  0.0331
 8813TIP3    H126403   1.492   4.403   1.508 -1.5785  0.4667 -1.6949
 8813TIP3    H226404   1.353   4.356   1.542 -0.4015 -1.1284  1.3345
 8814TIP3   OH226405   0.048   2.880   3.984  0.4693 -0.5621  0.0962
 8814TIP3    H126406   0.013   2.800   4.023  2.3922 -0.9645  1.0857
 8814TIP3    H226407   0.035   2.868   3.890 -1.8498 -0.7369  0.3758
 8815TIP3   OH226408   4.577   3.775   5.174  0.2580  0.1420 -0.3813
 8815TIP3    H126409   4.657   3.733   5.143 -0.3676 -1.4776  0.0520
 8815TIP3    H226410   4.527   3.794   5.095  0.9842  1.0188 -0.6440
 8816TIP3   OH226411   4.524   2.651   2.070 -0.6263 -0.3074  0.8746
 8816TIP3    H126412   4.540   2.652   2.164 -0.7278 -0.0489  0.8901
 8816TIP3    H226413   4.476   2.733   2.052 -0.2439 -0.1509  0.5371
 8817TIP3   OH226414   2.710   2.137   3.921  0.2859  0.5253  0.0513
 8817TIP3    H126415   2.686   2.060   3.871 -0.3878  0.8904 -0.1989
 8817TIP3    H226416   2.723   2.106   4.010  1.4199 -0.1201 -0.3240
 8818TIP3   OH226417   5.889   0.431   3.934 -0.2448  0.1329 -0.0110
 8818TIP3    H126418   5.951   0.458   3.866 -0.9054 -0.8850 -1.0584
 8818TIP3    H226419   5.944   0.410   4.010  0.5493  0.8412 -0.3716
 8819TIP3   OH226420   0.666   4.388   1.819 -0.8128  0.2312 -0.1587
 8819TIP3    H126421   0.677   4.305   1.866 -1.3272  0.0775 -0.3093
 8819TIP3    H226422   0.702   4.371   1.732  2.8624  1.3319  0.9228
 8820TIP3   OH226423   6.148   2.252   4.069  0.0476 -0.0123  0.4782
 8820TIP3    H126424   6.058   2.280   4.084  0.0776  0.4089 -0.0947
 8820TIP3    H226425   6.200   2.307   4.128  0.0137  0.4083  0.1159
 8821TIP3   OH226426   2.024   2.083   3.255 -0.1721  0.2527 -0.1847
 8821TIP3    H126427   2.117   2.061   3.247 -0.0067  1.1801 -0.9498
 8821TIP3    H226428   2.021   2.152   3.322 -0.5827 -1.3012  1.4862
 8822TIP3   OH226429   6.400   1.766   5.362  0.4328 -0.6083  0.1927
 8822TIP3    H126430   6.489   1.736   5.343  0.1958 -0.3635 -1.4702
 8822TIP3    H226431   6.344   1.693   5.337  0.1621 -1.0233  1.8713
 8823TIP3   OH226432   6.344   5.243   3.419 -0.1288 -0.6933 -0.3449
 8823TIP3    H126433   6.418   5.196   3.458  0.2668  0.7590  0.7716
 8823TIP3    H226434   6.383   5.322   3.381 -1.1627  0.7399  1.3618
 8824TIP3   OH226435   0.909   4.763   5.385 -0.3576 -0.2379  0.0708
 8824TIP3    H126436   0.881   4.803   5.303  1.2965  2.2100  0.6019
 8824TIP3    H226437   0.999   4.734   5.369  0.9976  2.6859  1.6577
 8825TIP3   OH226438   2.033   2.119   1.970  0.3827  0.1959  0.0123
 8825TIP3    H126439   1.957   2.125   1.911  0.8319 -1.1133 -0.7239
 8825TIP3    H226440   2.010   2.048   2.030  0.8170  0.1325  0.1010
 8826TIP3   OH226441   4.263   4.367   0.232 -0.0467 -0.0611  0.3123
 8826TIP3    H126442   4.290   4.395   0.144  0.0976 -1.7845 -0.2354
 8826TIP3    H226443   4.325   4.409   0.290  1.6967 -1.1334 -0.6703
 8827TIP3   OH226444   2.518   0.941   2.341 -0.2626  0.5590  0.2135
 8827TIP3    H126445   2.510   1.015   2.281  4.2867  1.1640 -0.0153
 8827TIP3    H226446   2.538   0.866   2.284 -0.5549  0.0870  0.7183
 8828TIP3   OH226447   0.054   4.471   3.323 -0.4690 -0.1940  0.3247
 8828TIP3    H126448   0.116   4.544   3.334 -0.8961  0.3973 -0.9277
 8828TIP3    H226449  -0.028   4.503   3.361 -1.4036  1.0950 -2.4594
 8829TIP3   OH226450   0.268   5.026   3.364 -0.4364 -0.0783 -0.0400
 8829TIP3    H126451   0.256   5.113   3.328 -3.1666  0.1820  1.2422
 8829TIP3    H226452   0.181   5.001   3.397  0.5850 -2.6512  1.0080
 8830TIP3   OH226453   6.326   6.694   0.666  0.4042  0.6820  0.1389
 8830TIP3    H126454   6.263   6.722   0.600 -0.9718  1.9992  1.9123
 8830TIP3    H226455   6.311   6.753   0.740  1.0794 -1.4347  2.0829
 8831TIP3   OH226456   1.287   6.465   0.783  0.1315 -0.3169 -0.4147
 8831TIP3    H126457   1.239   6.396   0.737  2.0744 -1.8650 -0.2484
 8831TIP3    H226458   1.296   6.535   0.718 -3.8413  0.9093  0.0875
 8832TIP3   OH226459   5.450   6.101   5.752  0.0487 -0.1034  0.4674
 8832TIP3    H126460   5.420   6.174   5.699  0.2772  0.1327  0.6613
 8832TIP3    H226461   5.486   6.039   5.690  1.2520  0.6192  0.4248
 8833TIP3   OH226462   7.140   4.620   4.051  0.2188 -0.9525  0.5230
 8833TIP3    H126463   7.079   4.675   4.001  0.2226 -1.3111  0.1211
 8833TIP3    H226464   7.139   4.658   4.139 -0.3730 -0.7854  0.4506
 8834TIP3   OH226465   3.445   0.681   0.669  0.2923  0.3052 -0.3003
 8834TIP3    H126466   3.437   0.588   0.652 -1.4226 -0.2273  2.6147
 8834TIP3    H226467   3.383   0.722   0.610  0.5205 -0.4570 -1.0891
 8835TIP3   OH226468   4.048   3.288   3.426  0.3933 -0.1338  0.1193
 8835TIP3    H126469   4.096   3.209   3.452 -0.5543 -0.4298  1.0480
 8835TIP3    H226470   4.077   3.355   3.488  3.1878  1.0474 -2.2459
 8836TIP3   OH226471   1.955   0.506   2.628  0.0069 -0.4717 -0.1426
 8836TIP3    H126472   1.993   0.583   2.671  1.2116 -0.9917 -0.2176
 8836TIP3    H226473   1.873   0.537   2.591 -0.1154  0.4725  0.8731
 8837TIP3   OH226474   0.876   1.585   4.246 -0.1746 -0.3972  0.5708
 8837TIP3    H126475   0.946   1.650   4.254 -1.2275  0.8958 -0.2793
 8837TIP3    H226476   0.916   1.503   4.276  1.9246  0.1313 -0.5853
 8838TIP3   OH226477   5.287   1.445   0.258  0.4311  0.4261  0.5953
 8838TIP3    H126478   5.271   1.436   0.164  1.0648  2.5508  0.2336
 8838TIP3    H226479   5.381   1.462   0.264  0.5449 -0.4833  1.7119
 8839TIP3   OH226480   5.824   0.540   0.262  0.2266 -0.3294 -0.0076
 8839TIP3    H126481   5.743   0.521   0.214  0.7500 -0.9111 -0.6649
 8839TIP3    H226482   5.802   0.522   0.354  0.4150 -3.2849 -0.4626
 8840TIP3   OH226483   5.103   5.577   0.168  0.2333  0.3778 -0.8555
 8840TIP3    H126484   5.141   5.590   0.255 -0.3321  1.8903 -0.8168
 8840TIP3    H226485   5.016   5.618   0.173 -0.0158  0.0153 -1.9780
 8841TIP3   OH226486   6.712   1.696   1.760 -0.2584  0.0423 -0.6362
 8841TIP3    H126487   6.803   1.691   1.788  0.0514  0.1846 -1.5977
 8841TIP3    H226488   6.666   1.636   1.820  0.4598 -0.0424 -0.1533
 8842TIP3   OH226489   4.536   1.469   4.370  0.5501  0.5150  0.3620
 8842TIP3    H126490   4.555   1.403   4.303 -3.5345 -1.7559  1.0694
 8842TIP3    H226491   4.581   1.437   4.448 -0.9997 -1.3829  0.5752
 8843TIP3   OH226492   1.651   3.170   1.108  0.0011 -0.3530  0.0882
 8843TIP3    H126493   1.610   3.249   1.146  0.8411 -0.3600  1.0652
 8843TIP3    H226494   1.731   3.203   1.066 -0.4596 -0.4784 -0.9020
 8844TIP3   OH226495   0.899   0.925   3.998 -0.0205  0.0030 -0.4229
 8844TIP3    H126496   0.903   0.847   4.053 -0.4980  0.9730  1.0649
 8844TIP3    H226497   0.990   0.952   3.987  0.0429  1.4910  2.5495
 8845TIP3   OH226498   6.029   5.301   3.966 -0.3530  0.1438  0.0227
 8845TIP3    H126499   6.048   5.380   3.915 -0.3652  1.3164  1.7401
 8845TIP3    H226500   5.976   5.247   3.908  0.6091  0.8853 -1.6007
 8846TIP3   OH226501   6.184   0.099   5.043 -0.0944  0.1172  0.3768
 8846TIP3    H126502   6.252   0.151   5.002  0.2051 -0.3895  0.2210
 8846TIP3    H226503   6.122   0.079   4.973  1.3332 -2.2804 -0.3309
 8847TIP3   OH226504   4.475   2.708   1.362  0.0757  0.1476 -0.0261
 8847TIP3    H126505   4.495   2.780   1.422  0.6651 -1.2729  1.5514
 8847TIP3    H226506   4.528   2.635   1.394 -0.4046 -0.9635 -1.6684
 8848TIP3   OH226507   5.781   3.679   2.807 -0.1542  0.6781 -0.0198
 8848TIP3    H126508   5.717   3.687   2.878  0.5313  1.6834  0.5284
 8848TIP3    H226509   5.768   3.758   2.754  0.1874  0.5675 -0.2736
 8849TIP3   OH226510   0.443   4.095   2.435 -0.8113  0.5647 -0.1129
 8849TIP3    H126511   0.410   4.034   2.370 -0.1113  0.5386 -0.4530
 8849TIP3    H226512   0.386   4.171   2.428 -0.4952  0.7243 -1.0369
 8850TIP3   OH226513   0.487   2.341   5.150 -0.2662 -0.0148  0.4415
 8850TIP3    H126514   0.397   2.371   5.141  0.2277  1.1302 -1.0749
 8850TIP3    H226515   0.507   2.356   5.243 -1.5107  0.0477  0.7215
 8851TIP3   OH226516   7.059   2.955   5.761  0.5241 -0.6469 -0.3228
 8851TIP3    H126517   7.031   2.896   5.830 -1.7438  1.3469  0.6082
 8851TIP3    H226518   6.979   2.976   5.713  1.3075  1.2044 -0.9204
 8852TIP3   OH226519   5.354   6.198   4.045  0.2052  0.1739 -0.4516
 8852TIP3    H126520   5.280   6.149   4.079 -0.6650  1.8893  0.2291
 8852TIP3    H226521   5.431   6.152   4.079 -0.6003  0.0574  1.2910
 8853TIP3   OH226522   1.783   5.518   1.912  0.5252 -0.0498 -0.4338
 8853TIP3    H126523   1.810   5.607   1.887 -0.0459  0.3499  0.3468
 8853TIP3    H226524   1.841   5.495   1.985 -1.0019  0.7116  1.0808
 8854TIP3   OH226525   5.716   6.593   5.538  0.0102 -0.2820 -0.3076
 8854TIP3    H126526   5.720   6.527   5.469 -1.2411 -0.5903 -0.1269
 8854TIP3    H226527   5.729   6.676   5.494 -0.4615 -0.5025 -0.8750
 8855TIP3   OH226528   2.501   1.278   0.640 -0.0936  0.0834  0.4533
 8855TIP3    H126529   2.433   1.298   0.704 -1.4513 -0.9278 -0.6230
 8855TIP3    H226530   2.490   1.345   0.572  1.2458  1.0618  1.1438
 8856TIP3   OH226531   1.632   4.081   5.820 -0.5850  0.3428  0.0382
 8856TIP3    H126532   1.564   4.082   5.887  1.4499 -3.4197  2.5098
 8856TIP3    H226533   1.612   4.004   5.767  0.6582  0.3186 -0.4252
 8857TIP3   OH226534   1.717   5.007   5.637 -0.4683 -0.4645 -0.1808
 8857TIP3    H126535   1.808   5.012   5.667 -0.7760 -1.3001  0.9309
 8857TIP3    H226536   1.675   4.946   5.697 -1.6481 -0.4923 -1.0081
 8858TIP3   OH226537   5.617   1.798   2.456 -1.0417 -0.5728 -0.8270
 8858TIP3    H126538   5.553   1.784   2.386 -1.6839  0.5658 -0.4957
 8858TIP3    H226539   5.621   1.893   2.466  0.7257 -0.6062 -0.8389
 8859TIP3   OH226540   4.796   6.407   2.926  0.3032 -0.3800  0.0870
 8859TIP3    H126541   4.739   6.484   2.921  0.0832 -0.5659 -0.4529
 8859TIP3    H226542   4.735   6.333   2.922  0.6255 -0.6054 -1.9245
 8860TIP3   OH226543   1.940   4.240   3.998 -0.1641 -0.1547  0.6112
 8860TIP3    H126544   1.906   4.174   4.058  1.0662 -2.7960 -1.3726
 8860TIP3    H226545   2.029   4.210   3.977  0.0636  1.5507 -1.1850
 8861TIP3   OH226546   4.600   6.346   5.163 -0.0922  0.6979 -0.0080
 8861TIP3    H126547   4.551   6.269   5.190 -1.5946  1.7407  0.4005
 8861TIP3    H226548   4.683   6.341   5.211 -0.5680 -0.1614  0.7390
 8862TIP3   OH226549   5.009   6.208   5.776  0.0405  0.7292 -0.1598
 8862TIP3    H126550   5.030   6.295   5.743  1.2845 -0.0852 -1.6618
 8862TIP3    H226551   4.938   6.177   5.720 -0.2439  0.6856  0.2227
 8863TIP3   OH226552   7.227   6.126   4.006  0.0436  0.0927  0.3154
 8863TIP3    H126553   7.183   6.190   4.062 -0.5774 -0.3210  0.3146
 8863TIP3    H226554   7.157   6.092   3.950  0.4171 -0.3992  0.1457
 8864TIP3   OH226555   7.091   3.803   5.138 -0.2488 -0.1967  0.1349
 8864TIP3    H126556   7.152   3.874   5.115 -1.1660  0.5156 -0.1664
 8864TIP3    H226557   7.147   3.733   5.170  0.5975  1.4992  2.7145
 8865TIP3   OH226558   3.209   5.722   3.512  0.1781 -0.5536 -0.0287
 8865TIP3    H126559   3.278   5.728   3.446  1.4325  0.5428  1.3120
 8865TIP3    H226560   3.211   5.630   3.541  0.2605 -0.8080 -0.8180
 8866TIP3   OH226561   1.112   6.276   0.719  0.2510 -1.2732 -0.4239
 8866TIP3    H126562   1.023   6.255   0.746  0.0045 -1.5565 -1.4280
 8866TIP3    H226563   1.110   6.272   0.624  0.5245  1.8948 -0.6812
 8867TIP3   OH226564   3.299   5.529   2.384 -0.6981  0.0425 -0.5252
 8867TIP3    H126565   3.308   5.614   2.342  1.1075 -0.1200 -0.5596
 8867TIP3    H226566   3.347   5.468   2.327 -2.0034 -1.0199 -0.5353
 8868TIP3   OH226567   5.005   5.411   5.041  0.1423 -0.5310 -0.3483
 8868TIP3    H126568   5.009   5.355   4.964  2.3005 -0.0081 -0.6780
 8868TIP3    H226569   5.038   5.356   5.112  1.1118 -0.0978 -0.4391
 8869TIP3   OH226570   2.681   3.194   4.719 -0.2528  0.2790  0.6706
 8869TIP3    H126571   2.720   3.201   4.632 -0.7645 -0.7485  0.3408
 8869TIP3    H226572   2.739   3.246   4.776 -0.3060  1.5381 -0.3854
 8870TIP3   OH226573   3.658   1.132   4.758 -0.6589 -0.1593  0.0135
 8870TIP3    H126574   3.704   1.216   4.761 -0.8312 -0.0897  1.5530
 8870TIP3    H226575   3.574   1.152   4.717 -0.0182  0.0456 -1.2529
 8871TIP3   OH226576   0.081   4.544   2.123 -0.0415  0.2841  0.2674
 8871TIP3    H126577   0.033   4.627   2.131 -1.0059 -0.1209 -1.0397
 8871TIP3    H226578   0.060   4.497   2.204 -0.6237  0.7461  0.3934
 8872TIP3   OH226579   1.426   2.359   0.879 -0.2489  0.0523 -0.3138
 8872TIP3    H126580   1.397   2.446   0.906 -0.1202  0.3820 -1.1884
 8872TIP3    H226581   1.381   2.343   0.796  1.4807  0.2900 -1.3566
 8873TIP3   OH226582   5.707   4.403   5.315 -0.2660 -0.7108 -0.6773
 8873TIP3    H126583   5.760   4.397   5.235 -1.7713  2.7920 -2.1414
 8873TIP3    H226584   5.760   4.455   5.375 -0.8391  0.3390 -1.0621
 8874TIP3   OH226585   3.848   3.252   2.289 -0.0083  0.0297  0.1356
 8874TIP3    H126586   3.775   3.218   2.340 -0.9356 -1.4320 -2.0449
 8874TIP3    H226587   3.865   3.185   2.223  3.9080 -0.1062  1.0321
 8875TIP3   OH226588   4.208   0.563   0.101  0.1494 -0.5665 -0.1316
 8875TIP3    H126589   4.211   0.659   0.102 -0.3999 -0.4948 -1.7247
 8875TIP3    H226590   4.271   0.538   0.033  0.9796 -1.4058  0.9031
 8876TIP3   OH226591   1.875   5.370   0.857  0.1490  0.6290  0.2342
 8876TIP3    H126592   1.800   5.413   0.815 -2.1437 -1.5665  1.7753
 8876TIP3    H226593   1.910   5.437   0.917  0.1190  2.0077 -1.2095
 8877TIP3   OH226594   0.581   3.586   0.309 -0.1317  0.3150 -0.1427
 8877TIP3    H126595   0.515   3.547   0.366 -0.4076 -0.5544 -1.0199
 8877TIP3    H226596   0.660   3.535   0.325 -0.2658 -0.0716 -0.6671
 8878TIP3   OH226597   0.450   0.565   3.351 -0.3728 -0.0227 -0.6693
 8878TIP3    H126598   0.467   0.470   3.349  0.5753  0.1338 -0.1432
 8878TIP3    H226599   0.523   0.603   3.301 -1.3800  0.3566 -1.9080
 8879TIP3   OH226600   5.665   6.213   2.403  0.3176 -0.0311 -0.1769
 8879TIP3    H126601   5.618   6.196   2.485 -0.5012 -1.3942 -0.8929
 8879TIP3    H226602   5.741   6.265   2.430 -0.6834  0.7639  1.2409
 8880TIP3   OH226603   4.754   4.931   5.279 -0.1290  0.9179  0.0701
 8880TIP3    H126604   4.825   4.871   5.302 -1.1651 -1.1039 -1.6616
 8880TIP3    H226605   4.674   4.884   5.301 -0.9836  1.9483 -0.7081
 8881TIP3   OH226606   2.643   6.687   1.952  0.0070 -0.0108  0.1686
 8881TIP3    H126607   2.680   6.736   1.878 -0.6089 -0.4995 -0.4816
 8881TIP3    H226608   2.712   6.688   2.018  1.2198 -0.8794 -1.0077
 8882TIP3   OH226609   6.443   4.363   5.385  0.5503 -0.3415  0.1359
 8882TIP3    H126610   6.405   4.312   5.313  0.2298 -0.9128  0.7013
 8882TIP3    H226611   6.370   4.414   5.419  1.0217  1.1100 -0.9072
 8883TIP3   OH226612   6.068   2.603   5.086  0.2053  0.2451  0.0981
 8883TIP3    H126613   6.027   2.686   5.112 -1.3164 -0.9783  1.8793
 8883TIP3    H226614   6.059   2.601   4.990 -1.2043  1.3979  0.1677
 8884TIP3   OH226615   6.432   3.866   3.987 -0.4107  0.2143  0.5204
 8884TIP3    H126616   6.523   3.890   3.973 -0.5476  0.1324 -0.5717
 8884TIP3    H226617   6.435   3.780   4.029  0.0145 -0.2134 -0.3632
 8885TIP3   OH226618   5.390   0.077   0.075 -0.8932 -0.4771 -0.4300
 8885TIP3    H126619   5.313   0.065   0.020 -1.2749 -0.9096  0.1815
 8885TIP3    H226620   5.451   0.129   0.022 -1.5904 -0.1642 -0.9302
 8886TIP3   OH226621   1.767   1.055   1.245  0.2786  0.6581  0.0205
 8886TIP3    H126622   1.708   0.986   1.278  1.2710 -0.5591 -0.6359
 8886TIP3    H226623   1.716   1.101   1.179 -0.0827 -0.1209 -0.2557
 8887TIP3   OH226624   6.648   2.952   4.363 -0.0370  0.6710 -0.3674
 8887TIP3    H126625   6.720   2.988   4.311  0.9525  0.0260  0.5132
 8887TIP3    H226626   6.681   2.952   4.453 -1.7031  1.7665  0.3011
 8888TIP3   OH226627   3.504   6.336   5.856 -0.2024 -0.3277 -0.5878
 8888TIP3    H126628   3.573   6.384   5.810  0.4386 -0.4382  0.2341
 8888TIP3    H226629   3.549   6.295   5.930 -1.2100 -0.1343  0.1545
 8889TIP3   OH226630   2.732   2.782   0.335  0.4142  0.4868  0.5903
 8889TIP3    H126631   2.787   2.719   0.289  1.0207  1.3819  0.0507
 8889TIP3    H226632   2.724   2.747   0.424 -0.3544 -1.0031 -0.0366
 8890TIP3   OH226633   6.112   5.719   1.693  0.2088 -0.1438  0.1518
 8890TIP3    H126634   6.021   5.729   1.664  0.3184  1.7186  0.2863
 8890TIP3    H226635   6.110   5.645   1.753 -1.0193 -0.7638 -0.6083
 8891TIP3   OH226636   2.966   5.159   3.057  0.1559  0.4306  0.1031
 8891TIP3    H126637   3.031   5.180   2.990  0.5356 -0.4069  0.2031
 8891TIP3    H226638   2.899   5.108   3.010 -0.1163  0.7511  0.1375
 8892TIP3   OH226639   6.167   1.265   3.049 -0.4220 -0.1755 -0.3145
 8892TIP3    H126640   6.209   1.323   2.985  0.6372 -1.8394 -1.2174
 8892TIP3    H226641   6.085   1.238   3.006 -1.0160  0.7512  0.1914
 8893TIP3   OH226642   5.444   6.218   0.926  0.3154 -0.3589 -0.3544
 8893TIP3    H126643   5.487   6.233   1.011 -0.3420  0.2297 -0.1178
 8893TIP3    H226644   5.351   6.214   0.946 -0.1171  2.4103 -1.3241
 8894TIP3   OH226645   4.236   1.052   4.081 -0.4312  0.6001  0.1376
 8894TIP3    H126646   4.258   1.114   4.150 -2.0209 -0.0752  1.3049
 8894TIP3    H226647   4.319   1.009   4.060  0.5935  2.7209 -0.3360
 8895TIP3   OH226648   4.709   5.124   2.900 -0.5816 -0.1317  0.8738
 8895TIP3    H126649   4.618   5.133   2.871 -0.2210 -0.8428 -0.5930
 8895TIP3    H226650   4.748   5.065   2.836  0.9791  0.3401  1.3585
 8896TIP3   OH226651   5.570   5.791   3.963 -0.0417  0.3122 -1.0460
 8896TIP3    H126652   5.532   5.739   3.892 -4.0326  0.8290  0.4447
 8896TIP3    H226653   5.613   5.727   4.019 -2.0079 -0.9814 -0.9337
 8897TIP3   OH226654   3.982   2.375   2.662 -0.3047  0.3975  0.0199
 8897TIP3    H126655   3.922   2.313   2.704  2.7735 -0.0358  4.6075
 8897TIP3    H226656   4.042   2.319   2.613  0.4168 -0.0389  1.3245
 8898TIP3   OH226657   0.946   6.307   4.028 -0.2061 -0.6458 -0.0979
 8898TIP3    H126658   0.931   6.375   3.962  0.1052 -0.5333 -0.0552
 8898TIP3    H226659   0.955   6.356   4.110  2.1679 -0.5322 -0.3655
 8899TIP3   OH226660   1.720   6.476   2.472 -0.1857 -0.2750  0.2808
 8899TIP3    H126661   1.787   6.410   2.454  0.2907 -0.8109  3.5386
 8899TIP3    H226662   1.638   6.432   2.449  0.3431 -0.6561 -0.9893
 8900TIP3   OH226663   6.113   6.387   2.682 -0.1818 -0.3633  0.0031
 8900TIP3    H126664   6.189   6.420   2.633 -0.3967 -0.2583 -0.2599
 8900TIP3    H226665   6.151   6.328   2.748  0.1636  0.0270  0.1586
 8901TIP3   OH226666   3.015   3.959   3.990 -0.3807  0.1592  0.2618
 8901TIP3    H126667   3.030   4.023   4.059 -0.5067 -0.4401  0.8577
 8901TIP3    H226668   3.093   3.963   3.936  0.3995 -0.4317  1.3090
 8902TIP3   OH226669   0.226   0.931   1.658  0.5293 -0.2513 -0.1681
 8902TIP3    H126670   0.310   0.891   1.680  0.9377 -0.7112 -2.3425
 8902TIP3    H226671   0.196   0.971   1.740  1.0880 -3.2109  1.6176
 8903TIP3   OH226672   1.959   1.476   2.077  0.5582 -0.3802  0.0129
 8903TIP3    H126673   1.945   1.473   2.171  0.0205 -0.8465 -0.0753
 8903TIP3    H226674   1.940   1.387   2.047 -1.9299  0.3742 -0.8954
 8904TIP3   OH226675   5.491   2.151   3.771 -0.1473 -0.1724  0.3698
 8904TIP3    H126676   5.417   2.164   3.831 -0.7903  2.6061 -0.8565
 8904TIP3    H226677   5.450   2.147   3.684  0.9266 -1.9267 -0.0869
 8905TIP3   OH226678   2.900   4.702   1.111  0.0229  0.3841  0.4368
 8905TIP3    H126679   2.879   4.760   1.038  1.0433  1.5914  1.0445
 8905TIP3    H226680   2.950   4.758   1.171  1.7555 -1.3434  0.6874
 8906TIP3   OH226681   5.097   3.432   1.611 -0.4319  0.0142  0.0853
 8906TIP3    H126682   5.080   3.363   1.675  1.2732  0.9173  1.6142
 8906TIP3    H226683   5.135   3.385   1.536 -0.6790 -0.8619  0.4896
 8907TIP3   OH226684   2.284   5.426   5.115  0.0312 -0.6474 -0.2115
 8907TIP3    H126685   2.207   5.423   5.173 -1.3450 -1.2154 -1.9967
 8907TIP3    H226686   2.264   5.364   5.045  2.2108 -0.9237 -0.6565
 8908TIP3   OH226687   1.381   6.626   4.631 -0.1884  0.0666  0.5800
 8908TIP3    H126688   1.315   6.587   4.688 -1.2372  0.4575 -0.3239
 8908TIP3    H226689   1.348   6.714   4.611 -0.1904 -0.2784 -1.1154
 8909TIP3   OH226690   6.935   0.779   5.218 -0.2457  1.2165 -0.0098
 8909TIP3    H126691   6.843   0.753   5.223 -0.2008  1.2313  1.0423
 8909TIP3    H226692   6.949   0.797   5.125 -0.9479 -0.0854 -0.4008
 8910TIP3   OH226693   5.553   6.657   1.376  0.1382  0.7673 -0.2729
 8910TIP3    H126694   5.508   6.577   1.403 -1.1803  1.6216  0.1837
 8910TIP3    H226695   5.585   6.696   1.457  2.1920 -0.0770 -0.6429
 8911TIP3   OH226696   0.488   4.999   0.177 -0.0168  0.4692  0.0048
 8911TIP3    H126697   0.471   5.051   0.098  0.7442  1.4065  0.4523
 8911TIP3    H226698   0.402   4.963   0.200 -0.3676  0.7186 -0.8716
 8912TIP3   OH226699   2.071   1.871   5.164 -0.1634  0.4774 -0.2240
 8912TIP3    H126700   2.068   1.949   5.109  1.6856  0.2419 -0.7202
 8912TIP3    H226701   2.067   1.905   5.254 -0.5640  1.0440 -0.4486
 8913TIP3   OH226702   4.755   2.549   3.627  0.6188 -0.2503 -0.4369
 8913TIP3    H126703   4.752   2.567   3.721  1.5646  0.6938 -0.5672
 8913TIP3    H226704   4.673   2.584   3.593  0.8523  0.6002 -0.1464
 8914TIP3   OH226705   2.480   5.641   4.203  0.3508  0.3502  0.6452
 8914TIP3    H126706   2.450   5.566   4.254  0.3314  0.0600  0.2054
 8914TIP3    H226707   2.454   5.622   4.113  0.6375  0.7318  0.4773
 8915TIP3   OH226708   4.704   3.405   1.145 -0.2965  0.5104 -0.1453
 8915TIP3    H126709   4.759   3.429   1.220 -0.1199 -0.4527  0.0560
 8915TIP3    H226710   4.762   3.413   1.069 -0.0414  0.0735 -0.0019
 8916TIP3   OH226711   4.832   1.172   1.949  0.3739  0.6713  0.1145
 8916TIP3    H126712   4.779   1.094   1.969 -1.1037  1.5561 -0.1941
 8916TIP3    H226713   4.797   1.240   2.005  0.8795  1.4055 -0.4399
 8917TIP3   OH226714   3.286   3.509   2.864 -0.0141 -0.5076 -0.2925
 8917TIP3    H126715   3.284   3.574   2.794  0.7073  1.0705  1.0850
 8917TIP3    H226716   3.287   3.561   2.944 -1.0241 -2.2593  0.9174
 8918TIP3   OH226717   1.343   0.260   2.431  1.1049 -0.6413 -0.4714
 8918TIP3    H126718   1.254   0.229   2.412  1.0727 -0.7666 -0.1176
 8918TIP3    H226719   1.381   0.191   2.485  1.1559 -0.2306  0.0244
 8919TIP3   OH226720   3.335   1.653   1.397  0.0832 -0.8548 -0.2260
 8919TIP3    H126721   3.337   1.567   1.355  0.9474 -0.6730 -0.5817
 8919TIP3    H226722   3.410   1.653   1.456  0.7171  0.0047 -0.9827
 8920TIP3   OH226723   3.736   1.117   1.045  0.1566  0.0223  0.4720
 8920TIP3    H126724   3.661   1.143   1.100 -0.1860 -1.2226  0.6134
 8920TIP3    H226725   3.738   1.183   0.976  0.4471  1.4982  1.8191
 8921TIP3   OH226726   2.335   0.587   2.586  1.0374  0.6218 -0.2798
 8921TIP3    H126727   2.255   0.597   2.638  0.4416  0.0715 -1.0653
 8921TIP3    H226728   2.371   0.502   2.613  0.1904 -0.1347 -1.4499
 8922TIP3   OH226729   6.421   0.301   1.639 -0.3493 -0.0840 -0.3786
 8922TIP3    H126730   6.366   0.226   1.618  0.5870 -1.0667  0.5151
 8922TIP3    H226731   6.362   0.364   1.679 -0.8937 -0.9634  0.2342
 8923TIP3   OH226732   1.124   6.085   2.885  0.0827  0.3318  0.2124
 8923TIP3    H126733   1.046   6.029   2.877  0.6052 -0.3272 -0.4132
 8923TIP3    H226734   1.193   6.025   2.914  0.4239  0.8546  0.4941
 8924TIP3   OH226735   0.797   3.206   0.314  0.3119 -0.1681 -0.6533
 8924TIP3    H126736   0.724   3.226   0.372  0.6817  1.4325 -0.7023
 8924TIP3    H226737   0.862   3.164   0.370 -0.1134 -0.3947 -0.3302
 8925TIP3   OH226738   3.853   3.973   5.199 -0.0290 -0.2620 -0.4242
 8925TIP3    H126739   3.847   3.914   5.124 -1.7765  0.6178 -1.0368
 8925TIP3    H226740   3.767   3.966   5.241  0.3741  0.4885  0.5594
 8926TIP3   OH226741   5.432   4.929   3.756 -0.2829  0.2845  0.1798
 8926TIP3    H126742   5.364   4.913   3.821 -0.3735  0.4468  0.1256
 8926TIP3    H226743   5.513   4.935   3.807 -0.3713  0.5358  0.2908
 8927TIP3   OH226744   0.376   6.166   1.587  0.0126 -0.0295  0.0432
 8927TIP3    H126745   0.361   6.077   1.620  0.6781 -0.3089 -0.3907
 8927TIP3    H226746   0.388   6.155   1.493  0.2442  0.5102  0.0074
 8928TIP3   OH226747   3.671   5.166   1.648  0.5645  0.3135  0.8129
 8928TIP3    H126748   3.754   5.196   1.687  0.4984  1.0578  0.4002
 8928TIP3    H226749   3.662   5.218   1.568  0.2947 -0.6255  0.2162
 8929TIP3   OH226750   3.547   3.070   2.883 -0.4241 -0.4040  0.0680
 8929TIP3    H126751   3.489   3.146   2.897 -1.1085 -1.0601  0.9476
 8929TIP3    H226752   3.627   3.108   2.847 -1.5159  0.4970 -1.5724
 8930TIP3   OH226753   5.335   0.360   1.643 -0.1002 -0.0566  0.3623
 8930TIP3    H126754   5.248   0.367   1.683 -0.2745 -0.1963  0.0170
 8930TIP3    H226755   5.396   0.362   1.716 -0.5163 -2.9139  0.9075
 8931TIP3   OH226756   3.182   5.409   1.427  0.1415 -0.7462  0.0502
 8931TIP3    H126757   3.195   5.368   1.512 -0.1691 -0.9740 -0.0101
 8931TIP3    H226758   3.212   5.344   1.363  0.4516 -0.5441 -0.0122
 8932TIP3   OH226759   3.686   5.279   3.256  0.3655  0.2103 -0.6827
 8932TIP3    H126760   3.606   5.314   3.215  1.2082 -0.3920 -2.9959
 8932TIP3    H226761   3.736   5.243   3.183  1.3596 -2.2648  1.0724
 8933TIP3   OH226762   4.123   4.271   1.765 -0.0089  0.7073  0.5790
 8933TIP3    H126763   4.155   4.182   1.749 -1.5976 -0.0991  1.6518
 8933TIP3    H226764   4.056   4.261   1.832 -0.1404  2.7516  0.8173
 8934TIP3   OH226765   0.216   4.834   4.792  0.4135  0.1455  0.2532
 8934TIP3    H126766   0.149   4.774   4.826  3.0764 -2.9110  0.5485
 8934TIP3    H226767   0.204   4.914   4.842 -1.1930 -1.2972  2.3502
 8935TIP3   OH226768   7.198   2.188   5.325 -0.0361 -0.3126  0.0672
 8935TIP3    H126769   7.165   2.168   5.412 -0.4043 -2.1060 -0.4409
 8935TIP3    H226770   7.139   2.258   5.293 -0.0084  0.2286  1.1508
 8936TIP3   OH226771   6.145   2.968   2.452  0.3600  0.0530  0.6559
 8936TIP3    H126772   6.121   2.877   2.436  0.0072 -0.1574  2.2386
 8936TIP3    H226773   6.239   2.971   2.434  0.2424 -0.4302 -0.1235
 8937TIP3   OH226774   2.680   0.348   0.966  0.2174 -0.4072 -0.1773
 8937TIP3    H126775   2.648   0.259   0.953  0.8227 -0.5410 -0.7918
 8937TIP3    H226776   2.603   0.397   0.997  0.3999 -1.6399  2.4551
 8938TIP3   OH226777   6.965   0.073   4.627 -0.1748 -0.4107  0.7821
 8938TIP3    H126778   7.044   0.095   4.677 -0.1421 -0.1212  0.6042
 8938TIP3    H226779   6.955  -0.021   4.639 -0.3697 -0.2939  1.6443
 8939TIP3   OH226780   4.172   3.626   1.161 -0.3460  0.0479  0.2109
 8939TIP3    H126781   4.255   3.588   1.132 -0.5985  0.4162 -1.0852
 8939TIP3    H226782   4.193   3.718   1.177 -0.2608 -0.1048  0.9949
 8940TIP3   OH226783   0.530   1.962   2.270 -0.1451 -0.1460 -0.4968
 8940TIP3    H126784   0.535   2.047   2.226 -1.1911 -0.1090 -0.5774
 8940TIP3    H226785   0.524   1.984   2.363 -0.9166 -0.0992 -0.5500
 8941TIP3   OH226786   6.340   3.508   3.017  0.0943 -0.1616  0.0528
 8941TIP3    H126787   6.421   3.558   3.030 -1.4016  2.2662  0.6666
 8941TIP3    H226788   6.348   3.433   3.075  1.2836  0.8188  1.2137
 8942TIP3   OH226789   1.125   4.535   0.829 -0.2290  0.9764  0.1169
 8942TIP3    H126790   1.078   4.595   0.888  0.7283  0.6204  1.2721
 8942TIP3    H226791   1.058   4.504   0.768 -1.0551  2.0513  0.4490
 8943TIP3   OH226792   0.967   2.012   2.475 -0.2982 -0.0688 -0.3909
 8943TIP3    H126793   0.901   1.951   2.508  0.2977  0.5307  2.2064
 8943TIP3    H226794   0.944   2.027   2.384 -1.2962 -3.0124 -0.6990
 8944TIP3   OH226795   6.889   6.623   3.315 -0.2374  0.3028  0.0960
 8944TIP3    H126796   6.839   6.586   3.242  0.7901  0.9153 -0.9552
 8944TIP3    H226797   6.833   6.610   3.392 -0.1541 -3.0719 -0.2289
 8945TIP3   OH226798   4.812   2.902   0.606  0.3491 -0.5096  0.2680
 8945TIP3    H126799   4.795   2.905   0.512  0.6867  0.2304  0.2272
 8945TIP3    H226800   4.727   2.922   0.646  0.8354  2.3139  0.0732
 8946TIP3   OH226801   6.568   3.751   5.791 -0.2238  0.1540 -0.0257
 8946TIP3    H126802   6.645   3.808   5.782 -0.5549  0.4929 -0.8247
 8946TIP3    H226803   6.507   3.802   5.845 -0.1338  0.1510  0.0788
 8947TIP3   OH226804   5.457   1.901   4.490 -0.3756 -0.3284  0.8396
 8947TIP3    H126805   5.486   1.901   4.581 -0.2054  1.4926  0.8225
 8947TIP3    H226806   5.532   1.869   4.441  1.0094  2.3392  1.0141
 8948TIP3   OH226807   4.709   4.752   4.309  0.1017 -0.3860 -0.1502
 8948TIP3    H126808   4.732   4.679   4.253 -2.2549 -1.1096 -0.2739
 8948TIP3    H226809   4.616   4.740   4.327  0.4159  0.6531  2.6816
 8949TIP3   OH226810   4.377   2.832   2.237 -0.5106  0.2331 -0.8327
 8949TIP3    H126811   4.445   2.851   2.301 -0.9241  0.1361 -0.3613
 8949TIP3    H226812   4.296   2.827   2.288 -1.0746  1.5821 -1.5443
 8950TIP3   OH226813   4.936   3.656   2.802  0.5069  0.2648  0.3273
 8950TIP3    H126814   4.876   3.618   2.866  0.2609  0.1586  0.0351
 8950TIP3    H226815   4.886   3.728   2.763  0.8173  0.6156  0.5755
 8951TIP3   OH226816   0.392   3.390   0.534 -0.1689  0.4071 -0.1124
 8951TIP3    H126817   0.419   3.455   0.598  1.2893 -0.2839  0.0255
 8951TIP3    H226818   0.316   3.347   0.573 -0.6966  1.5209  0.1116
 8952TIP3   OH226819   5.456   1.078   2.506 -0.5546 -0.5859  0.0927
 8952TIP3    H126820   5.368   1.090   2.469 -0.5771 -1.0321 -0.0100
 8952TIP3    H226821   5.510   1.143   2.462 -0.3067 -1.9177 -1.6650
 8953TIP3   OH226822   5.650   5.727   4.391  0.2041 -0.0949 -0.1241
 8953TIP3    H126823   5.587   5.680   4.336 -0.1485  1.3184 -0.9842
 8953TIP3    H226824   5.646   5.817   4.360  1.5642  0.3248  0.8316
 8954TIP3   OH226825   3.221   2.222   2.977 -0.0391 -0.4341 -0.2373
 8954TIP3    H126826   3.208   2.305   3.024 -0.7796 -0.2658 -0.7213
 8954TIP3    H226827   3.263   2.165   3.041 -2.3866 -0.7138  1.1684
 8955TIP3   OH226828   2.358   1.065   5.126  0.7092  0.3192 -0.0987
 8955TIP3    H126829   2.325   0.976   5.141 -3.8437  1.1489 -3.0095
 8955TIP3    H226830   2.299   1.121   5.176  0.9866  1.8122 -1.3698
 8956TIP3   OH226831   6.881   2.574   4.407 -0.2377 -0.3760  0.0207
 8956TIP3    H126832   6.809   2.579   4.469 -0.2554 -1.0276  0.0648
 8956TIP3    H226833   6.931   2.654   4.421 -1.1863  0.3020 -0.3133
 8957TIP3   OH226834   2.626   6.082   0.386 -0.3478  0.5084 -0.0851
 8957TIP3    H126835   2.717   6.084   0.414 -0.1621 -0.3229 -0.6041
 8957TIP3    H226836   2.576   6.090   0.468  0.1840  0.1422  0.2855
 8958TIP3   OH226837   2.797   2.395   4.431  0.5984 -0.0824  0.2491
 8958TIP3    H126838   2.859   2.351   4.488 -0.0780 -0.0411  1.0256
 8958TIP3    H226839   2.716   2.346   4.441 -0.1705  1.3243  1.1337
 8959TIP3   OH226840   0.479   2.889   0.744  0.0023 -0.4448  0.2381
 8959TIP3    H126841   0.542   2.818   0.754  0.9639  0.0809 -1.6530
 8959TIP3    H226842   0.526   2.967   0.772 -0.2846 -0.2362  0.1426
 8960TIP3   OH226843   6.041   5.811   4.152 -0.1511 -0.4095 -0.5345
 8960TIP3    H126844   5.969   5.762   4.193 -0.4966  0.9472  0.5470
 8960TIP3    H226845   6.120   5.774   4.191 -0.5088  2.2975  3.3105
 8961TIP3   OH226846   5.330   0.094   4.763  0.2595  0.2132  0.5804
 8961TIP3    H126847   5.322   0.040   4.684 -2.0759  0.6904  0.4407
 8961TIP3    H226848   5.334   0.031   4.835  2.5659 -0.2326  0.1441
 8962TIP3   OH226849   6.836   6.457   3.604  0.1517 -0.0022 -0.2220
 8962TIP3    H126850   6.855   6.464   3.698  1.1311 -1.0836 -0.3273
 8962TIP3    H226851   6.921   6.463   3.561 -0.2320 -0.0880 -1.0201
 8963TIP3   OH226852   6.911   4.565   4.375 -0.3306  0.2639  0.0352
 8963TIP3    H126853   6.974   4.513   4.424  0.0318  1.1330  0.5144
 8963TIP3    H226854   6.898   4.643   4.429  0.0041  1.1962 -1.2015
 8964TIP3   OH226855   5.817   1.424   5.383  0.1075 -0.0917 -0.4653
 8964TIP3    H126856   5.902   1.389   5.408  0.1637  1.1481  1.1713
 8964TIP3    H226857   5.765   1.422   5.464 -0.5599  1.6187 -0.8238
 8965TIP3   OH226858   4.803   5.004   1.640  0.1140  0.0697 -0.7486
 8965TIP3    H126859   4.878   4.989   1.584  0.8432 -1.1338  0.4840
 8965TIP3    H226860   4.839   5.010   1.728 -1.2482 -1.0042 -0.0697
 8966TIP3   OH226861   6.134   1.368   5.339  0.5202 -0.6673 -0.8720
 8966TIP3    H126862   6.131   1.460   5.365 -1.7742 -0.9021 -0.0788
 8966TIP3    H226863   6.197   1.328   5.400 -0.4992 -0.1036  0.6250
 8967TIP3   OH226864   1.825   2.501   4.680  0.0085  0.0858 -1.1177
 8967TIP3    H126865   1.844   2.559   4.607  0.6473  0.3398 -0.7587
 8967TIP3    H226866   1.730   2.493   4.681 -0.1433  1.6478 -0.7742
 8968TIP3   OH226867   4.250   1.953   5.308  0.1285 -0.0740 -0.1580
 8968TIP3    H126868   4.290   1.868   5.288 -0.0525 -0.3948  0.7734
 8968TIP3    H226869   4.318   2.001   5.355 -0.5354 -0.6507  1.5013
 8969TIP3   OH226870   5.734   2.043   3.776  0.0734  0.5418 -0.5094
 8969TIP3    H126871   5.733   2.035   3.871  1.3820 -1.5057 -0.5855
 8969TIP3    H226872   5.643   2.036   3.749 -0.1530 -0.9190  0.5238
 8970TIP3   OH226873   5.841   5.312   0.289 -0.1508 -0.0584  0.0681
 8970TIP3    H126874   5.858   5.402   0.315  1.8294 -0.3816  0.0572
 8970TIP3    H226875   5.777   5.280   0.352 -0.1440  1.0748  0.6608
 8971TIP3   OH226876   1.429   4.808   2.407 -0.2561 -0.0754  0.3755
 8971TIP3    H126877   1.358   4.823   2.469 -1.4196  0.8109 -1.0888
 8971TIP3    H226878   1.451   4.896   2.375 -0.2924 -0.5759 -1.0850
 8972TIP3   OH226879   2.056   3.394   0.517 -0.3197  0.6454  0.7019
 8972TIP3    H126880   2.119   3.453   0.475 -1.2896  1.8758  0.9273
 8972TIP3    H226881   1.979   3.396   0.460 -0.5651  0.0201  1.0066
 8973TIP3   OH226882   5.300   6.202   0.192  0.4976 -0.2431  0.0982
 8973TIP3    H126883   5.234   6.257   0.150  1.3329 -0.2654 -1.3013
 8973TIP3    H226884   5.291   6.117   0.149  2.3098  0.1236 -1.0863
 8974TIP3   OH226885   5.584   1.301   2.377 -0.1456  0.0845  0.7546
 8974TIP3    H126886   5.517   1.355   2.336 -0.0885 -1.1815 -1.1560
 8974TIP3    H226887   5.647   1.284   2.308  0.2735 -1.6938  1.5056
 8975TIP3   OH226888   1.480   4.434   3.031 -0.1173  0.4475  0.3684
 8975TIP3    H126889   1.554   4.429   2.971 -0.8154 -1.6525 -0.3816
 8975TIP3    H226890   1.516   4.408   3.116  0.1216 -0.0444  0.1180
 8976TIP3   OH226891   0.635   0.528   2.024 -0.2890 -0.4555  0.1034
 8976TIP3    H126892   0.585   0.452   1.993 -3.0473  0.7458  1.2409
 8976TIP3    H226893   0.571   0.599   2.025  1.4278  1.1776  1.9303
 8977TIP3   OH226894   5.083   1.031   0.183 -0.0850 -0.4862  0.4120
 8977TIP3    H126895   5.128   1.106   0.145 -1.1047 -0.2544 -0.3822
 8977TIP3    H226896   5.087   1.046   0.277  0.4344  0.1454  0.2979
 8978TIP3   OH226897   1.926   6.811   5.816  0.5551 -0.1181 -0.6129
 8978TIP3    H126898   1.967   6.739   5.865 -0.2816 -0.2526 -0.0859
 8978TIP3    H226899   1.847   6.831   5.866  0.8794  1.3233 -0.6337
 8979TIP3   OH226900   5.140   4.386   5.524 -0.2041 -0.4789 -0.4616
 8979TIP3    H126901   5.211   4.385   5.460  0.5110  0.0034  0.3118
 8979TIP3    H226902   5.061   4.396   5.471  0.4534  0.8992 -1.2305
 8980TIP3   OH226903   1.805   2.792   2.964 -0.1927 -0.2149  0.0154
 8980TIP3    H126904   1.830   2.850   2.893 -0.9152 -0.4336 -0.4242
 8980TIP3    H226905   1.867   2.718   2.958  0.8086  0.5414  0.6554
 8981TIP3   OH226906   4.381   5.645   1.368 -0.2623 -0.0069  0.3116
 8981TIP3    H126907   4.412   5.560   1.398  0.7369 -0.8359 -2.6552
 8981TIP3    H226908   4.314   5.624   1.302 -1.7763  1.6051  1.2609
 8982TIP3   OH226909   5.584   0.989   0.126 -0.1534 -0.1194 -0.0986
 8982TIP3    H126910   5.538   0.910   0.153 -1.1352  0.4706  0.0196
 8982TIP3    H226911   5.624   1.023   0.206 -0.9473  0.2665  0.1525
 8983TIP3   OH226912   2.077   0.789   3.348  0.5849 -0.0217 -0.6887
 8983TIP3    H126913   2.064   0.707   3.394  3.7365 -0.5349 -0.4844
 8983TIP3    H226914   2.080   0.855   3.417  0.7336 -0.1364 -0.5838
 8984TIP3   OH226915   5.331   1.214   3.420  0.2291  0.4755 -0.6635
 8984TIP3    H126916   5.283   1.261   3.352 -1.6426 -1.4034 -0.7523
 8984TIP3    H226917   5.423   1.236   3.404 -0.3143  1.5871 -2.5876
 8985TIP3   OH226918   4.763   0.725   1.418 -0.6253  0.0411  0.3380
 8985TIP3    H126919   4.720   0.794   1.368 -1.9606 -2.5570 -2.3527
 8985TIP3    H226920   4.692   0.666   1.444  0.7365 -1.8620 -0.0674
 8986TIP3   OH226921   4.654   0.274   5.491  0.5827 -0.2133 -0.2224
 8986TIP3    H126922   4.645   0.255   5.397 -0.2460 -1.2898  0.0512
 8986TIP3    H226923   4.603   0.205   5.534 -3.3285  3.0132  0.8859
 8987TIP3   OH226924   1.406   5.716   5.072  0.7038  0.2111 -0.1247
 8987TIP3    H126925   1.396   5.673   5.157 -2.1426  0.3320 -0.3053
 8987TIP3    H226926   1.477   5.779   5.085 -0.3728  1.0148  2.5322
 8988TIP3   OH226927   4.768   4.497   1.656 -0.2260  0.1759 -0.3150
 8988TIP3    H126928   4.826   4.448   1.598 -1.1702 -2.8048  1.1161
 8988TIP3    H226929   4.739   4.571   1.602  2.0171 -0.2308 -2.2601
 8989TIP3   OH226930   3.497   1.733   3.696 -0.2399  0.2439 -0.1477
 8989TIP3    H126931   3.487   1.672   3.769  1.8776  1.1553  1.0037
 8989TIP3    H226932   3.425   1.795   3.706  0.4350  0.8061  1.7039
 8990TIP3   OH226933   0.139   3.566   5.803  0.9952 -0.0978 -0.5988
 8990TIP3    H126934   0.144   3.556   5.898  1.3215 -0.1049 -0.6147
 8990TIP3    H226935   0.110   3.657   5.791 -1.8355 -0.9060 -0.4651
 8991TIP3   OH226936   3.453   1.257   0.632 -0.1663  0.8195  0.4479
 8991TIP3    H126937   3.374   1.245   0.578  0.5511  0.2311 -0.5079
 8991TIP3    H226938   3.439   1.199   0.707  0.2272 -0.9126 -0.7425
 8992TIP3   OH226939   5.414   2.252   2.097  0.4087 -0.1357  0.4390
 8992TIP3    H126940   5.504   2.261   2.065  0.4517 -0.4453  0.4704
 8992TIP3    H226941   5.395   2.336   2.139  0.6889 -0.0736  0.4440
 8993TIP3   OH226942   1.471   1.773   3.622 -0.1413  0.5642  0.3806
 8993TIP3    H126943   1.461   1.843   3.687  1.0926  0.3488  0.8331
 8993TIP3    H226944   1.564   1.748   3.628 -0.5107 -0.9761  0.0994
 8994TIP3   OH226945   0.979   1.270   0.117 -0.3064 -0.3999  0.4978
 8994TIP3    H126946   1.063   1.297   0.154 -0.7460 -0.7247  1.8071
 8994TIP3    H226947   0.987   1.175   0.105 -0.6344 -0.5156  1.1061
 8995TIP3   OH226948   5.044   3.727   3.763 -0.4020 -0.2260  0.7330
 8995TIP3    H126949   5.116   3.718   3.825  0.9221 -0.5364 -0.7799
 8995TIP3    H226950   5.019   3.637   3.742 -0.1897 -0.1495  0.1196
 8996TIP3   OH226951   1.495   0.146   0.140 -0.6821  0.2244 -0.1194
 8996TIP3    H126952   1.450   0.229   0.157  0.0191  0.4755  0.5783
 8996TIP3    H226953   1.482   0.130   0.047 -1.8756  0.4883 -0.0119
 8997TIP3   OH226954   4.392   3.705   3.314 -0.1074 -0.3851 -0.2997
 8997TIP3    H126955   4.386   3.800   3.298  3.5988  0.1375  0.4803
 8997TIP3    H226956   4.401   3.667   3.226  2.3260  0.5205 -0.5261
 8998TIP3   OH226957   5.326   2.123   5.625  0.7347 -0.2385 -0.4304
 8998TIP3    H126958   5.383   2.176   5.570 -0.0375  0.2951 -0.7343
 8998TIP3    H226959   5.241   2.167   5.622  0.4997 -0.5796  0.6454
 8999TIP3   OH226960   2.326   4.263   1.426  0.5173  0.1171 -0.0904
 8999TIP3    H126961   2.394   4.322   1.393  0.1150  0.0539 -1.0436
 8999TIP3    H226962   2.244   4.304   1.402  0.2202 -0.3009  0.1962
 9000TIP3   OH226963   2.517   6.204   3.073 -0.0497 -0.0382  0.5770
 9000TIP3    H126964   2.501   6.166   3.159 -0.5057  0.6180  0.7900
 9000TIP3    H226965   2.583   6.271   3.087 -1.3348  1.2454  0.7449
 9001TIP3   OH226966   2.913   1.510   0.291  0.5078 -0.8531 -0.3613
 9001TIP3    H126967   2.927   1.443   0.224  0.1567 -0.3072 -0.9990
 9001TIP3    H226968   2.819   1.506   0.310  0.3567 -0.1054 -0.8925
 9002TIP3   OH226969   2.280   2.350   0.266 -0.0320 -0.5772 -0.6297
 9002TIP3    H126970   2.366   2.318   0.295 -0.0280 -0.4258 -0.4817
 9002TIP3    H226971   2.300   2.416   0.200  0.0078  0.9990  0.9191
 9003TIP3   OH226972   5.144   0.126   5.704  0.0965  0.0344  0.1214
 9003TIP3    H126973   5.071   0.161   5.755 -1.4245 -0.1821 -1.8107
 9003TIP3    H226974   5.220   0.135   5.762 -1.2330  1.3303  1.7628
 9004TIP3   OH226975   1.426   5.932   3.148 -0.3748 -0.6390  0.3259
 9004TIP3    H126976   1.340   5.910   3.186 -0.8234  0.6835  0.1376
 9004TIP3    H226977   1.408   5.945   3.055  0.1033 -0.7440  0.2217
 9005TIP3   OH226978   0.078   5.955   1.309  0.3274  0.4840  0.2914
 9005TIP3    H126979   0.027   5.875   1.302 -0.3840  1.0445 -1.8151
 9005TIP3    H226980   0.078   5.991   1.220  1.0540  2.5549  1.0683
 9006TIP3   OH226981   5.738   4.520   3.110  0.7172 -0.3245 -0.2230
 9006TIP3    H126982   5.817   4.491   3.156 -0.1939 -0.0470  1.6128
 9006TIP3    H226983   5.696   4.439   3.081  0.7823 -0.5592  0.3376
 9007TIP3   OH226984   6.150   4.804   0.605  0.0642 -0.4299 -0.1860
 9007TIP3    H126985   6.155   4.814   0.510 -2.1320  1.4536 -0.1810
 9007TIP3    H226986   6.065   4.763   0.621  1.2200 -2.5957  0.9311
 9008TIP3   OH226987   2.454   0.506   4.309  0.0257  0.4791  0.1216
 9008TIP3    H126988   2.519   0.512   4.238  0.4709  1.7347  0.6080
 9008TIP3    H226989   2.380   0.461   4.269  0.8695 -0.2256 -0.6946
 9009TIP3   OH226990   6.317   3.329   1.263 -0.0094 -0.0331  0.5359
 9009TIP3    H126991   6.282   3.320   1.174  1.2132 -1.3820  0.1383
 9009TIP3    H226992   6.304   3.421   1.285  0.1441  0.4636 -1.2611
 9010TIP3   OH226993   4.367   4.674   2.006  0.0168 -0.1425 -0.2092
 9010TIP3    H126994   4.438   4.655   1.945 -0.8128  0.6155 -1.4378
 9010TIP3    H226995   4.297   4.614   1.980 -0.4079  0.3152 -0.1381
 9011TIP3   OH226996   3.942   0.535   3.135 -0.1200 -0.1993 -0.6004
 9011TIP3    H126997   3.866   0.520   3.191  0.7525  1.0411  0.9881
 9011TIP3    H226998   3.964   0.627   3.148  0.9530 -0.2370 -1.9342
 9012TIP3   OH226999   6.420   3.527   5.802  0.3014  0.0840  0.0477
 9012TIP3    H127000   6.467   3.609   5.788 -0.0888  0.2267 -0.4467
 9012TIP3    H227001   6.479   3.460   5.769  0.8715  0.1017  0.9848
 9013TIP3   OH227002   2.224   0.406   4.185  0.9089 -0.2387 -0.3129
 9013TIP3    H127003   2.240   0.341   4.117 -1.2355  0.3152 -1.4409
 9013TIP3    H227004   2.147   0.373   4.232 -2.6785  2.9900 -3.2593
 9014TIP3   OH227005   6.500   3.101   4.705  0.1507  0.3269 -0.9503
 9014TIP3    H127006   6.523   3.194   4.707  0.4890  0.2302 -0.0649
 9014TIP3    H227007   6.579   3.057   4.674  0.2102  0.2731 -0.7244
 9015TIP3   OH227008   5.865   0.804   3.355  0.6557 -0.3022  1.0436
 9015TIP3    H127009   5.857   0.854   3.436 -1.2758  1.1590  0.0509
 9015TIP3    H227010   5.938   0.846   3.308  1.5568 -0.9359  1.8560
 9016TIP3   OH227011   5.979   3.973   1.044  0.1127  0.3359 -0.1163
 9016TIP3    H127012   5.900   3.966   1.097 -0.2332  0.5431 -0.5963
 9016TIP3    H227013   6.021   3.888   1.053  0.4967  0.6416  1.1562
 9017TIP3   OH227014   4.604   4.284   4.468 -0.2433  0.1749 -0.0166
 9017TIP3    H127015   4.664   4.272   4.394 -0.0881 -2.1835  0.4232
 9017TIP3    H227016   4.523   4.317   4.428  0.1849 -0.0291 -1.0780
 9018TIP3   OH227017   0.724   5.950   5.733  0.0807 -0.2654 -0.4740
 9018TIP3    H127018   0.742   5.865   5.772 -0.1304  0.3098  0.9308
 9018TIP3    H227019   0.657   5.932   5.667 -0.2956 -1.1211  0.1189
 9019TIP3   OH227020   3.466   2.859   5.306 -0.0475 -0.4623  0.2827
 9019TIP3    H127021   3.522   2.781   5.310 -0.1772 -0.5709  0.0186
 9019TIP3    H227022   3.464   2.891   5.396  1.1293  0.0384  0.1509
 9020TIP3   OH227023   4.296   2.533   1.833 -0.0884 -0.2872  0.2183
 9020TIP3    H127024   4.259   2.469   1.772 -0.7329  0.1562  0.1311
 9020TIP3    H227025   4.258   2.511   1.918 -1.2214  0.6619 -0.0158
 9021TIP3   OH227026   4.560   2.401   1.304 -0.5166 -0.4626  0.2705
 9021TIP3    H127027   4.603   2.447   1.376 -3.3458 -0.0119  1.8167
 9021TIP3    H227028   4.574   2.457   1.228 -0.4455  0.8803  1.2392
 9022TIP3   OH227029   5.678   1.471   3.223 -0.1959 -0.1012 -0.6286
 9022TIP3    H127030   5.770   1.448   3.212 -0.1076  0.4615 -1.1222
 9022TIP3    H227031   5.679   1.565   3.242 -0.6165 -0.2547  0.2400
 9023TIP3   OH227032   6.498   1.862   5.054 -0.2748  0.0812  0.2826
 9023TIP3    H127033   6.578   1.888   5.100 -0.3185  1.7823 -0.5162
 9023TIP3    H227034   6.427   1.901   5.105 -0.5726 -0.9397  0.6671
 9024TIP3   OH227035   4.220   2.941   0.611  0.1319  0.2143  0.3729
 9024TIP3    H127036   4.143   2.886   0.601  0.0180  0.5128 -0.4998
 9024TIP3    H227037   4.234   2.946   0.705  1.5119 -3.1403  0.4717
 9025TIP3   OH227038   0.094   0.825   1.046  0.3548  0.2174  0.5842
 9025TIP3    H127039   0.067   0.800   1.135  0.0026  1.2771  0.7889
 9025TIP3    H227040   0.011   0.837   0.999  0.5161 -2.2897 -0.4920
 9026TIP3   OH227041   4.026   3.265   2.030  0.0686  0.2315  0.2647
 9026TIP3    H127042   3.994   3.313   2.106  0.9867 -0.5303  1.1552
 9026TIP3    H227043   4.040   3.176   2.062 -2.1121 -0.8523 -1.4756
 9027TIP3   OH227044   2.450   6.112   3.401  0.0028  0.1635 -0.5428
 9027TIP3    H127045   2.464   6.113   3.496  2.7787 -2.7981 -0.7426
 9027TIP3    H227046   2.426   6.022   3.381  0.6917  0.4071 -2.7682
 9028TIP3   OH227047   3.406   4.241   1.738 -0.3074 -0.0567 -0.5271
 9028TIP3    H127048   3.472   4.259   1.805 -1.5211  0.3893  0.5919
 9028TIP3    H227049   3.372   4.327   1.713 -1.0394 -0.3221 -0.4804
 9029TIP3   OH227050   2.812   6.755   4.063 -0.7519 -0.4531 -0.4460
 9029TIP3    H127051   2.733   6.807   4.049  0.4138  1.1947 -1.2869
 9029TIP3    H227052   2.829   6.763   4.157 -1.4475 -0.6191 -0.2999
 9030TIP3   OH227053   4.352   6.715   5.296 -0.0655  0.5547  0.1097
 9030TIP3    H127054   4.438   6.741   5.328  0.3302  1.4461 -1.5235
 9030TIP3    H227055   4.313   6.665   5.367  1.6902  0.3689  0.9840
 9031TIP3   OH227056   6.148   6.767   5.572 -0.1339  0.3771  0.2899
 9031TIP3    H127057   6.155   6.693   5.632 -0.6928  0.4181  0.4067
 9031TIP3    H227058   6.146   6.844   5.629  1.6699  0.5891  0.1382
 9032TIP3   OH227059   3.103   0.150   1.040 -0.1431  0.2896 -0.3886
 9032TIP3    H127060   3.153   0.203   0.977 -0.1408 -0.9709 -1.4944
 9032TIP3    H227061   3.046   0.096   0.986  0.3142 -1.2960  0.6358
 9033TIP3   OH227062   5.332   4.602   0.571 -0.4089  0.4216  0.8132
 9033TIP3    H127063   5.278   4.532   0.535 -1.3672  1.9900 -0.9422
 9033TIP3    H227064   5.342   4.579   0.664 -1.5561 -1.4663  0.5189
 9034TIP3   OH227065   0.320   0.541   5.567  0.0536 -0.2910 -0.0975
 9034TIP3    H127066   0.297   0.529   5.474  1.8123 -1.2136 -0.4658
 9034TIP3    H227067   0.380   0.469   5.586  1.8415  1.3952  1.0064
 9035TIP3   OH227068   1.674   6.484   3.306  0.0538 -0.0052  0.1554
 9035TIP3    H127069   1.580   6.481   3.320  0.0329  0.2287  0.0813
 9035TIP3    H227070   1.693   6.407   3.252  0.4278 -2.0300  2.9489
 9036TIP3   OH227071   0.933   6.577   2.123  0.3195 -0.0548  0.4648
 9036TIP3    H127072   0.945   6.493   2.167  2.1636  0.5910  1.2835
 9036TIP3    H227073   0.864   6.620   2.174 -1.0049 -1.2134 -0.2568
 9037TIP3   OH227074   2.085   3.365   4.842  0.5023  0.1024  0.3681
 9037TIP3    H127075   2.100   3.443   4.789 -0.0202 -0.7682 -1.1366
 9037TIP3    H227076   2.003   3.329   4.808  1.0585 -1.4368  0.5760
 9038TIP3   OH227077   0.254   1.933   1.067  0.4501  0.2334  0.1930
 9038TIP3    H127078   0.330   1.924   1.125 -0.2089  0.2994  1.0703
 9038TIP3    H227079   0.234   1.844   1.039  1.1792  0.2686 -0.4802
 9039TIP3   OH227080   6.682   6.074   0.425  0.4792  0.4800 -0.3339
 9039TIP3    H127081   6.590   6.092   0.443  0.1989 -0.2788 -0.9293
 9039TIP3    H227082   6.702   6.123   0.345  0.8283  1.2981  0.2467
 9040TIP3   OH227083   2.663   0.799   3.808 -0.2239  0.1307 -0.0069
 9040TIP3    H127084   2.740   0.829   3.759  0.5557 -2.8765 -0.8528
 9040TIP3    H227085   2.695   0.787   3.898 -0.2200  0.6517  0.0634
 9041TIP3   OH227086   0.537   6.203   5.505  0.2026 -0.3570  0.6637
 9041TIP3    H127087   0.455   6.245   5.531 -0.1669 -0.7540  0.1586
 9041TIP3    H227088   0.560   6.244   5.422  0.5325 -0.2385  0.8065
 9042TIP3   OH227089   6.870   6.491   0.512  0.4662 -0.1318  0.3977
 9042TIP3    H127090   6.953   6.540   0.514 -0.1930  1.0442  2.8963
 9042TIP3    H227091   6.881   6.423   0.578 -0.7463  0.4365  1.2161
 9043TIP3   OH227092   3.518   4.743   3.487 -0.3463 -0.2195  0.4508
 9043TIP3    H127093   3.442   4.752   3.430 -1.1372 -2.6590  1.0112
 9043TIP3    H227094   3.590   4.784   3.438 -1.7117  0.8936 -0.6939
 9044TIP3   OH227095   6.434   3.303   3.188  0.4824  0.0202  0.1225
 9044TIP3    H127096   6.392   3.238   3.244  1.4280 -0.2808  0.5184
 9044TIP3    H227097   6.491   3.352   3.247  0.3076  0.7425 -0.3045
 9045TIP3   OH227098   4.156   2.912   3.687  0.2908  0.2135  0.1558
 9045TIP3    H127099   4.143   2.819   3.707  0.3982  0.6962  2.9546
 9045TIP3    H227100   4.088   2.932   3.623 -0.3701 -1.5739  0.2197
 9046TIP3   OH227101   1.286   4.912   2.045 -0.3066  0.2833 -0.4088
 9046TIP3    H127102   1.193   4.913   2.065 -0.1267  2.9663  0.6824
 9046TIP3    H227103   1.305   5.001   2.014  1.3786 -0.9664 -3.4388
 9047TIP3   OH227104   4.936   2.981   3.026 -0.1667 -0.0528  0.2449
 9047TIP3    H127105   4.946   3.072   3.054  0.5460 -0.1970  0.4843
 9047TIP3    H227106   4.875   2.986   2.951  0.5000  0.7167 -0.2704
 9048TIP3   OH227107   2.337   0.633   4.906 -0.1593  0.0438 -0.7710
 9048TIP3    H127108   2.273   0.692   4.866 -0.4516 -0.1669 -0.6157
 9048TIP3    H227109   2.422   0.662   4.870  0.0105  2.0560  1.0632
 9049TIP3   OH227110   5.930   4.009   0.050 -0.5012 -0.4612 -0.8065
 9049TIP3    H127111   5.838   4.006   0.077 -0.4308  1.4732 -0.1785
 9049TIP3    H227112   5.929   4.062  -0.030  0.3088  2.2188  0.8141
 9050TIP3   OH227113   0.187   5.288   0.190  0.4983 -0.1897 -0.6002
 9050TIP3    H127114   0.185   5.358   0.255  0.3211  0.3010 -1.1202
 9050TIP3    H227115   0.231   5.215   0.234 -0.0925 -0.0517  0.2405
 9051TIP3   OH227116   7.148   5.200   0.090  0.5144 -0.3415  0.6471
 9051TIP3    H127117   7.089   5.257   0.040  1.5622 -0.6421 -1.0161
 9051TIP3    H227118   7.217   5.259   0.120  0.1183 -0.2427  1.3814
 9052TIP3   OH227119   2.506   4.429   0.300  0.3373 -0.1986  0.7560
 9052TIP3    H127120   2.524   4.523   0.300 -0.4241 -0.0314  1.6936
 9052TIP3    H227121   2.592   4.388   0.314  1.1726  0.1793 -2.5627
 9053TIP3   OH227122   1.292   4.808   3.913  0.0536 -0.3093 -0.0968
 9053TIP3    H127123   1.334   4.763   3.986 -2.5228 -1.5518  0.7273
 9053TIP3    H227124   1.311   4.901   3.927  0.8952 -0.6640  1.2513
 9054TIP3   OH227125   4.244   0.391   4.579  0.4639  0.1803 -0.0318
 9054TIP3    H127126   4.218   0.395   4.671  0.7208  1.0553  0.0107
 9054TIP3    H227127   4.337   0.372   4.581  0.0326 -2.2605 -0.1744
 9055TIP3   OH227128   2.882   6.718   2.129 -1.0021 -0.6729  0.2843
 9055TIP3    H127129   2.868   6.652   2.198 -0.0411 -0.8458  0.3334
 9055TIP3    H227130   2.911   6.796   2.177 -0.9427 -0.5953  0.1195
 9056TIP3   OH227131   5.572   3.516   2.312  0.0434 -0.7929 -0.1651
 9056TIP3    H127132   5.644   3.490   2.370  0.8252  0.0468 -0.7294
 9056TIP3    H227133   5.519   3.577   2.364  0.7719 -0.0008 -0.3304
 9057TIP3   OH227134   6.102   3.700   1.131  0.3833  0.0464 -0.5342
 9057TIP3    H127135   6.026   3.646   1.110  1.6332 -2.0008 -0.0928
 9057TIP3    H227136   6.173   3.663   1.079  1.6070  0.3252  0.8719
 9058TIP3   OH227137   6.043   3.147   1.539 -0.4086  0.0548 -0.0026
 9058TIP3    H127138   6.130   3.138   1.500 -1.2709  0.9059 -2.2421
 9058TIP3    H227139   6.015   3.057   1.553  0.9275 -0.2379  1.0693
 9059TIP3   OH227140   3.135   6.006   0.510  0.4257  0.0805  0.3669
 9059TIP3    H127141   3.117   5.913   0.527 -0.3833  0.0410 -0.6076
 9059TIP3    H227142   3.177   6.037   0.590  1.7984 -1.4141  0.2889
 9060TIP3   OH227143   5.053   1.349   2.197 -0.4477 -0.7759 -0.5008
 9060TIP3    H127144   4.977   1.306   2.157 -0.2283 -3.4431  1.6050
 9060TIP3    H227145   5.015   1.414   2.256 -0.8888  0.6311 -2.2885
 9061TIP3   OH227146   4.062   4.532   5.256 -0.2562 -0.4446  0.4537
 9061TIP3    H127147   4.057   4.538   5.351  1.2819  1.8375  0.4616
 9061TIP3    H227148   4.077   4.439   5.239 -0.8667 -0.9498  2.3851
 9062TIP3   OH227149   3.901   5.513   0.530 -0.0852 -0.0036 -0.3123
 9062TIP3    H127150   3.848   5.592   0.517  0.0394  0.2680  0.7316
 9062TIP3    H227151   3.950   5.503   0.449 -0.5229  0.6748 -0.6686
 9063TIP3   OH227152   5.707   0.365   2.526 -0.3250  0.1923 -0.0792
 9063TIP3    H127153   5.708   0.284   2.475 -1.5346  0.5286 -0.6863
 9063TIP3    H227154   5.668   0.340   2.610  0.9878 -0.2110  0.4330
 9064TIP3   OH227155   1.132   3.540   2.787 -0.4754  0.2491 -0.1818
 9064TIP3    H127156   1.068   3.483   2.829 -2.7497  0.8156 -2.6367
 9064TIP3    H227157   1.160   3.491   2.709  2.1021  0.0612  0.7478
 9065TIP3   OH227158   1.864   4.609   4.168  0.4126  0.2251  0.6628
 9065TIP3    H127159   1.894   4.700   4.170  0.8241  0.2750 -2.4018
 9065TIP3    H227160   1.943   4.557   4.185  0.6163  0.4436  0.4006
 9066TIP3   OH227161   1.322   1.048   3.529 -0.5414  0.5578 -0.1694
 9066TIP3    H127162   1.294   1.137   3.547  0.5728  0.7602  0.6758
 9066TIP3    H227163   1.247   0.994   3.555 -0.5760  1.1434  1.0393
 9067TIP3   OH227164   4.800   2.338   2.083  0.2148  0.5704  0.1208
 9067TIP3    H127165   4.844   2.392   2.018  0.1225  1.4247  0.7553
 9067TIP3    H227166   4.708   2.338   2.055  0.2533  0.5531 -0.0061
 9068TIP3   OH227167   6.813   4.380   3.654  0.0463  0.4583 -0.7930
 9068TIP3    H127168   6.728   4.406   3.621 -0.7018  0.8689  1.3120
 9068TIP3    H227169   6.799   4.294   3.694  0.6747  0.4274 -0.6164
 9069TIP3   OH227170   6.417   1.755   3.915 -0.0112  0.3898  0.1682
 9069TIP3    H127171   6.410   1.811   3.838 -0.3175 -0.6847 -0.6185
 9069TIP3    H227172   6.345   1.783   3.972 -0.3941  0.5450 -0.3789
 9070TIP3   OH227173   5.820   5.097   2.923 -0.4080  0.6689  0.2610
 9070TIP3    H127174   5.896   5.100   2.982 -0.0852  2.0482 -0.1688
 9070TIP3    H227175   5.807   5.004   2.905 -0.6790  0.1845  2.6818
 9071TIP3   OH227176   3.507   0.825   4.902  0.1642 -0.1656 -0.0754
 9071TIP3    H127177   3.523   0.904   4.954  0.1582  0.1903 -0.6103
 9071TIP3    H227178   3.570   0.761   4.936 -1.6316 -0.8578  2.2799
 9072TIP3   OH227179   1.646   3.808   3.696 -0.5329  0.0840  0.1641
 9072TIP3    H127180   1.675   3.873   3.760  2.5923  1.0730 -2.0630
 9072TIP3    H227181   1.605   3.859   3.626 -0.1404 -0.5538 -0.5465
 9073TIP3   OH227182   1.195   0.496   2.057  0.7707  0.2081 -0.4091
 9073TIP3    H127183   1.198   0.401   2.066  0.7584  0.3242  0.9405
 9073TIP3    H227184   1.104   0.519   2.078  0.6144  0.4772 -1.3185
 9074TIP3   OH227185   5.394   6.578   3.426  0.2630 -0.0597  0.4213
 9074TIP3    H127186   5.475   6.567   3.475 -0.4080  0.4260  1.6851
 9074TIP3    H227187   5.325   6.555   3.488 -0.5429 -1.7528 -1.0250
 9075TIP3   OH227188   4.303   4.907   3.909  0.0453  0.2172 -0.1571
 9075TIP3    H127189   4.396   4.885   3.921  0.4337 -0.7535 -3.6249
 9075TIP3    H227190   4.268   4.833   3.859 -2.1569  1.3722 -0.4291
 9076TIP3   OH227191   4.284   3.596   5.829 -0.0561  0.3034 -0.1584
 9076TIP3    H127192   4.260   3.556   5.746  1.8058  0.4767 -0.8274
 9076TIP3    H227193   4.252   3.534   5.895 -2.5555  0.6958 -0.8936
 9077TIP3   OH227194   1.937   3.942   1.668  0.3541 -0.1914  0.1305
 9077TIP3    H127195   2.026   3.975   1.684  0.2717  0.1446 -0.0865
 9077TIP3    H227196   1.889   4.018   1.634  0.5646 -0.8682 -1.8371
 9078TIP3   OH227197   3.957   4.124   3.837 -0.0295  0.0082  0.3808
 9078TIP3    H127198   4.041   4.126   3.793 -1.0284  1.9380 -1.5795
 9078TIP3    H227199   3.963   4.193   3.903  0.2500 -0.5594  0.9659
 9079TIP3   OH227200   4.740   5.339   5.075  0.0129 -0.3178  0.0116
 9079TIP3    H127201   4.675   5.359   5.008 -0.7145  3.0945  1.5230
 9079TIP3    H227202   4.819   5.386   5.046  0.1599 -0.0903  0.7577
 9080TIP3   OH227203   0.752   6.323   4.669 -0.0202  0.3256  0.0659
 9080TIP3    H127204   0.825   6.294   4.613 -1.2332 -1.2607 -0.7756
 9080TIP3    H227205   0.758   6.265   4.746 -1.6013 -1.3032 -0.9693
 9081TIP3   OH227206   0.725   0.500   5.251  0.4738  0.0918  0.3339
 9081TIP3    H127207   0.757   0.444   5.181  3.2372  1.1702  0.5953
 9081TIP3    H227208   0.700   0.582   5.208 -1.8639 -0.6248  0.1761
 9082TIP3   OH227209   0.581   5.301   2.357  0.0204 -0.1745 -0.1224
 9082TIP3    H127210   0.617   5.219   2.389  0.5290  0.0729 -0.0641
 9082TIP3    H227211   0.563   5.352   2.436 -1.9401 -0.8989 -0.0476
 9083TIP3   OH227212   1.988   3.591   3.465  0.5414  0.1353 -0.5148
 9083TIP3    H127213   1.907   3.615   3.421 -0.4973 -1.0135  0.6991
 9083TIP3    H227214   1.978   3.623   3.554  2.2599  1.6753 -0.8132
 9084TIP3   OH227215   1.077   3.704   5.089  0.0827 -0.2680  0.0853
 9084TIP3    H127216   0.997   3.681   5.042  0.5034  0.1390 -0.8502
 9084TIP3    H227217   1.081   3.800   5.084  0.7421 -0.2994 -0.0738
 9085TIP3   OH227218   0.192   0.789   3.092 -0.1225 -0.3344 -0.2806
 9085TIP3    H127219   0.188   0.721   3.025  1.1912 -0.8505  0.1248
 9085TIP3    H227220   0.103   0.826   3.095 -0.9725 -2.2837 -0.2437
 9086TIP3   OH227221   5.404   6.292   5.306 -0.4815 -0.6831 -0.3350
 9086TIP3    H127222   5.412   6.198   5.295  0.5566 -0.5862 -0.4720
 9086TIP3    H227223   5.458   6.330   5.236  0.3460 -0.0065  0.6366
 9087TIP3   OH227224   1.104   4.127   5.280 -0.2267 -0.3603  0.2015
 9087TIP3    H127225   1.056   4.080   5.348 -0.0185  0.6682  1.0772
 9087TIP3    H227226   1.080   4.219   5.293 -0.6538 -0.1905 -1.4934
 9088TIP3   OH227227   1.794   1.628   5.136 -0.9420 -0.6153 -0.2643
 9088TIP3    H127228   1.749   1.576   5.068 -0.8048 -1.1458  0.0408
 9088TIP3    H227229   1.837   1.698   5.088 -1.3164 -0.6578 -0.6668
 9089TIP3   OH227230   4.724   2.496   4.044 -0.2724  0.2333  0.0066
 9089TIP3    H127231   4.767   2.418   4.078  1.0345  0.1914 -1.6167
 9089TIP3    H227232   4.787   2.566   4.058 -0.1869  0.4222 -1.2141
 9090TIP3   OH227233   1.501   6.041   0.589 -0.0132 -0.2772 -0.2135
 9090TIP3    H127234   1.454   6.031   0.506 -1.2900 -1.6640  0.6332
 9090TIP3    H227235   1.434   6.071   0.650  0.4561 -1.1955  0.7719
 9091TIP3   OH227236   2.144   5.457   4.153  0.5907 -0.4330 -0.0146
 9091TIP3    H127237   2.137   5.551   4.133 -0.0572 -0.9683 -2.7512
 9091TIP3    H227238   2.075   5.442   4.218 -1.0472  0.6019 -1.3949
 9092TIP3   OH227239   1.535   6.111   4.012 -0.4987  0.1344  0.2488
 9092TIP3    H127240   1.628   6.090   4.016 -0.6440 -0.6342 -0.2888
 9092TIP3    H227241   1.507   6.081   3.926 -1.2478  0.3649  0.4036
 9093TIP3   OH227242   5.725   3.054   1.117  0.0546  0.1681  0.0726
 9093TIP3    H127243   5.783   3.010   1.179  1.1523  1.0584 -0.2744
 9093TIP3    H227244   5.776   3.059   1.036 -1.0757 -0.3280 -0.6946
 9094TIP3   OH227245   3.717   2.629   0.714 -0.0211  0.3402 -0.3137
 9094TIP3    H127246   3.762   2.667   0.789 -2.3393 -1.0568  1.9321
 9094TIP3    H227247   3.634   2.598   0.749 -1.2231 -0.4091 -3.4935
 9095TIP3   OH227248   0.174   5.043   4.529 -0.9565 -0.3310  0.1457
 9095TIP3    H127249   0.176   4.970   4.590 -1.6038  0.3021  0.9551
 9095TIP3    H227250   0.262   5.080   4.532 -0.3767 -1.5827 -0.9218
 9096TIP3   OH227251   3.198   0.261   1.675 -0.2046  0.3414  0.1403
 9096TIP3    H127252   3.292   0.279   1.672 -0.3669  1.5387  1.2990
 9096TIP3    H227253   3.167   0.276   1.586  0.5790  0.6297 -0.0927
 9097TIP3   OH227254   5.741   6.381   5.339 -0.2604 -0.2616 -0.0202
 9097TIP3    H127255   5.809   6.347   5.279 -1.6560  1.7431 -2.9954
 9097TIP3    H227256   5.710   6.304   5.386 -0.0716 -2.3644 -3.0159
 9098TIP3   OH227257   0.959   6.634   4.482  0.8058  0.1800 -0.2912
 9098TIP3    H127258   0.965   6.650   4.577 -0.6461  1.1518 -0.3542
 9098TIP3    H227259   1.039   6.673   4.447  1.2196  0.0689  0.4837
 9099TIP3   OH227260   2.330   6.252   1.129  0.6254  0.4008 -0.3097
 9099TIP3    H127261   2.271   6.184   1.162  0.1961  0.9056 -0.0207
 9099TIP3    H227262   2.316   6.326   1.187  1.4810  0.5640 -0.3003
 9100TIP3   OH227263   4.851   3.753   2.235  0.1190 -0.1738  0.1645
 9100TIP3    H127264   4.874   3.838   2.197  1.2877 -0.6531 -0.2549
 9100TIP3    H227265   4.818   3.773   2.323  1.1910  0.6615  0.3929
 9101TIP3   OH227266   6.002   2.508   2.774 -0.2568 -0.2812 -0.2222
 9101TIP3    H127267   6.098   2.512   2.767 -0.2412 -2.0402 -1.5094
 9101TIP3    H227268   5.972   2.588   2.732  0.6138 -0.1923 -0.7056
 9102TIP3   OH227269   0.800   5.610   4.915  0.4719  0.1064 -0.1388
 9102TIP3    H127270   0.762   5.633   4.831 -0.1786  0.4139  0.2292
 9102TIP3    H227271   0.891   5.587   4.896 -0.0373 -1.1971 -1.1265
 9103TIP3   OH227272   1.863   1.192   1.487  0.1231 -0.5054 -0.6504
 9103TIP3    H127273   1.845   1.159   1.398 -0.9066  1.1348 -1.0899
 9103TIP3    H227274   1.913   1.272   1.472 -0.7198  0.1920  0.2139
 9104TIP3   OH227275   5.162   4.126   4.342  0.2508  0.0503 -0.0001
 9104TIP3    H127276   5.210   4.051   4.376  0.6182  0.9501  1.5896
 9104TIP3    H227277   5.120   4.164   4.419  1.0814  2.1702 -0.5238
 9105TIP3   OH227278   4.484   4.955   0.640 -0.6916 -0.1467 -0.4851
 9105TIP3    H127279   4.518   5.041   0.619  0.0088 -0.3406 -0.1798
 9105TIP3    H227280   4.432   4.968   0.719 -2.0440  0.2988 -1.4154
 9106TIP3   OH227281   1.286   4.306   3.337  0.2533  0.3370 -0.4124
 9106TIP3    H127282   1.250   4.221   3.310  0.0528  0.2474  0.1350
 9106TIP3    H227283   1.379   4.299   3.315  0.1907  0.0764 -0.6135
 9107TIP3   OH227284   3.222   0.858   1.671  0.3174 -0.5292 -0.0996
 9107TIP3    H127285   3.216   0.903   1.755 -0.1344  0.4543 -0.6472
 9107TIP3    H227286   3.142   0.807   1.665 -0.1849  0.2869 -0.4285
 9108TIP3   OH227287   4.620   2.026   3.625 -0.2581 -0.1642  0.4365
 9108TIP3    H127288   4.706   1.993   3.649 -0.0597 -0.2730 -0.3964
 9108TIP3    H227289   4.616   2.114   3.662  1.1575  0.7830 -1.4967
 9109TIP3   OH227290   0.658   2.039   3.414  0.5944 -0.4020 -0.0007
 9109TIP3    H127291   0.630   1.968   3.356 -1.2626 -0.3558  0.7697
 9109TIP3    H227292   0.624   2.118   3.371 -0.5434 -0.3415  0.9582
 9110TIP3   OH227293   4.452   5.121   2.818 -0.0797  0.5601 -0.1052
 9110TIP3    H127294   4.428   5.040   2.862  0.1372  0.0507 -0.9156
 9110TIP3    H227295   4.416   5.190   2.874  0.6998 -0.0456  1.1959
 9111TIP3   OH227296   3.962   0.060   3.698 -0.2193  0.5435  0.7970
 9111TIP3    H127297   3.959   0.154   3.711 -1.6427  0.5435  0.6086
 9111TIP3    H227298   3.931   0.022   3.780 -1.9830  0.3439  0.0966
 9112TIP3   OH227299   5.596   4.665   3.330  0.1029 -0.3522 -0.0551
 9112TIP3    H127300   5.663   4.619   3.281  0.4193  1.2938 -1.2717
 9112TIP3    H227301   5.626   4.756   3.333 -1.4223  0.1776  0.5200
 9113TIP3   OH227302   2.298   3.307   4.559  0.0889  0.3756  0.0887
 9113TIP3    H127303   2.371   3.245   4.567  0.5914  0.8997 -0.3608
 9113TIP3    H227304   2.221   3.257   4.588  0.6492 -0.1234  0.7483
 9114TIP3   OH227305   0.357   0.183   3.842  0.3775  0.1928  0.2745
 9114TIP3    H127306   0.376   0.201   3.934  2.4195 -1.7365  0.3249
 9114TIP3    H227307   0.263   0.166   3.839  0.3978 -0.4263  2.1465
 9115TIP3   OH227308   3.153   2.990   2.361  0.4643 -0.1709  0.4251
 9115TIP3    H127309   3.149   3.066   2.418 -0.6510  1.0681 -1.1959
 9115TIP3    H227310   3.096   2.925   2.403 -0.1460  0.6180  0.8426
 9116TIP3   OH227311   0.985   1.372   2.876  0.3166  0.4260 -0.4372
 9116TIP3    H127312   0.948   1.432   2.940  0.1133  0.7307 -0.8317
 9116TIP3    H227313   1.004   1.293   2.925 -1.2719  0.0929 -0.2939
 9117TIP3   OH227314   0.957   4.618   1.212  0.0578 -0.1909 -0.2580
 9117TIP3    H127315   0.888   4.552   1.206 -3.0731  2.9126 -2.0405
 9117TIP3    H227316   1.008   4.592   1.289 -1.3037 -4.2062 -0.4535
 9118TIP3   OH227317   3.119   5.358   4.218  0.2297 -0.7296  0.0903
 9118TIP3    H127318   3.059   5.286   4.234 -0.7318 -0.3921 -1.7958
 9118TIP3    H227319   3.177   5.326   4.148  0.0576  0.1612 -0.4718
 9119TIP3   OH227320   7.188   3.852   0.292 -0.5684 -0.6174 -0.0028
 9119TIP3    H127321   7.166   3.944   0.302 -2.3066 -0.7928 -1.7395
 9119TIP3    H227322   7.121   3.805   0.342 -1.1437 -1.0030 -1.1128
 9120TIP3   OH227323   1.556   2.249   1.091  0.1158 -0.0382  0.0664
 9120TIP3    H127324   1.581   2.165   1.053  0.2681 -0.4724  1.0899
 9120TIP3    H227325   1.511   2.295   1.020  1.4784 -0.3009 -1.0107
 9121TIP3   OH227326   3.669   2.176   1.399 -0.3223  0.2614  0.5707
 9121TIP3    H127327   3.624   2.208   1.321 -0.3537  1.0264  0.8958
 9121TIP3    H227328   3.751   2.138   1.366 -1.3655 -1.5454 -0.0734
 9122TIP3   OH227329   0.947   2.156   1.543 -0.3301 -0.6283 -0.0375
 9122TIP3    H127330   0.939   2.249   1.524  0.9876 -0.4563  0.1518
 9122TIP3    H227331   0.930   2.148   1.637 -0.2592 -0.5454 -0.0179
 9123TIP3   OH227332   4.037   4.724   3.174  0.0079  0.4006  0.2550
 9123TIP3    H127333   4.106   4.660   3.155  0.3189  0.4862  1.0589
 9123TIP3    H227334   4.081   4.793   3.222 -0.2257  1.4916 -1.0428
 9124TIP3   OH227335   1.269   5.564   3.728 -0.3610  0.1927 -0.1319
 9124TIP3    H127336   1.182   5.540   3.694  0.4295 -0.7122 -1.6237
 9124TIP3    H227337   1.305   5.622   3.660 -0.4075  1.9317  1.2504
 9125TIP3   OH227338   5.965   1.820   5.291 -0.0678 -0.4065  0.3042
 9125TIP3    H127339   5.925   1.904   5.267  0.8286  0.1158  0.5620
 9125TIP3    H227340   5.900   1.754   5.267 -0.3538  0.2934 -0.9310
 9126TIP3   OH227341   5.174   5.974   0.094  0.1836  0.2661  0.2754
 9126TIP3    H127342   5.082   5.950   0.083 -0.0499  1.1325  0.2560
 9126TIP3    H227343   5.200   5.931   0.175  0.2742 -1.4170 -0.5922
 9127TIP3   OH227344   3.043   2.334   0.895  0.3351  0.2129 -0.4970
 9127TIP3    H127345   3.059   2.241   0.912  0.2364  0.0712 -1.1259
 9127TIP3    H227346   3.093   2.380   0.962 -0.6342 -0.3095  0.6428
 9128TIP3   OH227347   5.426   0.501   0.954  0.0375  0.0396  0.1840
 9128TIP3    H127348   5.365   0.496   0.881  1.2834  1.0005 -0.9698
 9128TIP3    H227349   5.377   0.545   1.023 -1.3221 -1.3294  0.1550
 9129TIP3   OH227350   1.077   4.495   1.461  0.6593  0.0081  0.0405
 9129TIP3    H127351   1.143   4.426   1.454 -0.8289 -1.3412 -1.6836
 9129TIP3    H227352   1.027   4.473   1.539  1.7495  0.6310  0.9446
 9130TIP3   OH227353   2.372   0.073   4.487 -0.0154 -0.2090 -0.1345
 9130TIP3    H127354   2.343   0.161   4.510  1.0478  0.0067  0.4661
 9130TIP3    H227355   2.368   0.024   4.569 -1.1120 -0.8878 -0.5702
 9131TIP3   OH227356   1.242   0.642   4.744  0.0991 -0.4105 -0.5792
 9131TIP3    H127357   1.233   0.730   4.780 -0.2339 -0.7492  0.1657
 9131TIP3    H227358   1.227   0.583   4.818  0.6316 -1.0951 -1.0011
 9132TIP3   OH227359   2.256   6.191   5.661 -0.1526  0.4041  0.2123
 9132TIP3    H127360   2.230   6.280   5.638  0.8229  0.4415 -0.8671
 9132TIP3    H227361   2.293   6.199   5.749 -1.1609  0.8361  0.6095
 9133TIP3   OH227362   4.442   1.459   0.221 -0.4106  0.1023 -0.0071
 9133TIP3    H127363   4.468   1.416   0.302 -0.5235 -1.1218 -0.5947
 9133TIP3    H227364   4.453   1.392   0.153 -2.7542  0.2460 -0.6337
 9134TIP3   OH227365   5.339   1.477   4.470  0.0089 -0.3762 -0.1164
 9134TIP3    H127366   5.325   1.500   4.378  0.0664  1.0876  0.2304
 9134TIP3    H227367   5.420   1.425   4.469  0.6789  0.6441 -0.7573
 9135TIP3   OH227368   5.647   0.599   3.320 -0.3266  0.2381  0.8411
 9135TIP3    H127369   5.637   0.667   3.254  0.9330 -1.5458 -1.3262
 9135TIP3    H227370   5.719   0.629   3.375  0.3510  0.6005 -0.2130
 9136TIP3   OH227371   3.981   6.231   2.500  1.1818 -0.1323  0.4597
 9136TIP3    H127372   3.963   6.170   2.572 -1.7275 -0.0911 -0.0878
 9136TIP3    H227373   4.000   6.314   2.543 -0.9699  0.0099  1.2729
 9137TIP3   OH227374   0.355   3.507   4.074  0.2314  0.4627  0.3475
 9137TIP3    H127375   0.448   3.518   4.096  0.2221 -0.7398  1.0906
 9137TIP3    H227376   0.354   3.441   4.005  0.0312  1.9404 -1.1282
 9138TIP3   OH227377   2.505   5.884   1.441  0.6446  0.2387  0.1867
 9138TIP3    H127378   2.548   5.831   1.373 -0.2337  0.0815 -0.2694
 9138TIP3    H227379   2.448   5.822   1.486  0.0256  0.6721  0.0131
 9139TIP3   OH227380   2.083   1.965   0.859 -0.2799  0.2063  0.2041
 9139TIP3    H127381   2.084   2.012   0.776  0.3025  0.4980  0.3704
 9139TIP3    H227382   2.166   1.988   0.900 -0.5977  0.1194  0.8998
 9140TIP3   OH227383   4.111   0.215   1.950 -0.3221 -0.0784 -0.2475
 9140TIP3    H127384   4.101   0.187   2.041  0.7830 -0.8368 -0.3387
 9140TIP3    H227385   4.174   0.286   1.953 -1.3651  0.8851 -0.2870
 9141TIP3   OH227386   2.963   1.851   4.337  0.4049 -0.2793  0.8522
 9141TIP3    H127387   2.896   1.809   4.391 -0.4873  0.9643  0.7464
 9141TIP3    H227388   3.034   1.786   4.332  0.2516 -0.6721  2.9816
 9142TIP3   OH227389   1.860   6.241   1.702 -0.6458  0.3882 -0.1768
 9142TIP3    H127390   1.774   6.212   1.672 -0.7050  1.6489 -1.3257
 9142TIP3    H227391   1.917   6.165   1.688 -1.6016 -0.5889  0.9344
 9143TIP3   OH227392   5.020   3.612   5.513 -0.1981  0.0861 -0.0010
 9143TIP3    H127393   5.047   3.659   5.434  2.3288  1.5108  1.5606
 9143TIP3    H227394   5.088   3.546   5.525  0.1222  0.6414  1.5306
 9144TIP3   OH227395   6.360   1.743   2.762 -0.1663 -0.2824 -0.1274
 9144TIP3    H127396   6.348   1.728   2.668 -2.2018  2.8805 -0.5371
 9144TIP3    H227397   6.277   1.716   2.802 -0.5275  1.2376  0.2442
 9145TIP3   OH227398   1.184   2.304   2.296  0.2029  0.0957  0.2265
 9145TIP3    H127399   1.262   2.358   2.292 -0.9398  1.7386 -1.2063
 9145TIP3    H227400   1.200   2.234   2.232  0.1916  0.8832 -0.6530
 9146TIP3   OH227401   0.875   0.620   4.191  0.4566 -0.3772  0.1061
 9146TIP3    H127402   0.800   0.587   4.142  0.3803 -1.1714  0.7288
 9146TIP3    H227403   0.945   0.557   4.174  0.6961 -0.1631  0.2883
 9147TIP3   OH227404   5.844   6.065   3.514  0.3494  0.2969 -0.0128
 9147TIP3    H127405   5.810   6.009   3.584  1.6608 -0.8629 -0.2476
 9147TIP3    H227406   5.770   6.078   3.455 -0.2490 -0.3634  0.5774
 9148TIP3   OH227407   5.719   0.360   5.851 -0.2529 -0.4459  0.9725
 9148TIP3    H127408   5.675   0.292   5.800 -0.0648 -0.1843  0.4528
 9148TIP3    H227409   5.804   0.323   5.874  0.9642  0.5263 -1.5561
 9149TIP3   OH227410   2.707   0.751   1.762  0.3050 -0.2179  0.0908
 9149TIP3    H127411   2.736   0.717   1.846  1.1197  0.7782  0.2321
 9149TIP3    H227412   2.788   0.774   1.716 -0.2070  1.3224 -0.0722
 9150TIP3   OH227413   0.429   1.069   0.375 -0.9148 -0.3706  0.1458
 9150TIP3    H127414   0.395   0.981   0.358 -1.0716 -0.1763 -0.5676
 9150TIP3    H227415   0.420   1.080   0.469  1.0791 -1.9509  0.6037
 9151TIP3   OH227416   3.944   6.163   5.188  0.2499  0.4767 -0.2420
 9151TIP3    H127417   4.021   6.175   5.132  0.6377 -0.9621 -0.0760
 9151TIP3    H227418   3.871   6.152   5.127  0.4937 -0.0112 -0.4546
 9152TIP3   OH227419   0.832   3.275   1.949 -0.4190  0.3190 -0.2350
 9152TIP3    H127420   0.792   3.352   1.990 -1.4705 -0.0058 -0.6121
 9152TIP3    H227421   0.923   3.275   1.980 -0.6609  1.1864  0.5023
 9153TIP3   OH227422   5.013   4.054   3.374 -0.3471 -0.6889 -0.5468
 9153TIP3    H127423   4.970   3.973   3.403  1.9713 -1.9086 -0.2048
 9153TIP3    H227424   5.041   4.035   3.284  1.5942 -0.9416  0.0629
 9154TIP3   OH227425   5.829   6.014   5.136  0.0433  0.4280 -0.2947
 9154TIP3    H127426   5.761   6.056   5.189  0.3001 -1.2585  1.4709
 9154TIP3    H227427   5.900   6.080   5.132 -0.2954  0.8819  0.8186
 9155TIP3   OH227428   6.873   6.172   4.115 -0.4985  0.3457 -0.5942
 9155TIP3    H127429   6.929   6.228   4.169 -1.3080  1.2495 -0.6501
 9155TIP3    H227430   6.881   6.085   4.154 -0.8754  0.9219  0.8616
 9156TIP3   OH227431   5.772   2.039   0.611  0.0432 -0.4509  0.2604
 9156TIP3    H127432   5.826   2.110   0.577 -1.3894  0.1604 -0.8785
 9156TIP3    H227433   5.767   2.056   0.705 -0.5372  1.2047 -0.0251
 9157TIP3   OH227434   6.157   6.520   5.361 -0.6374  0.5745  0.4150
 9157TIP3    H127435   6.192   6.447   5.413  1.7616  1.3012 -0.0561
 9157TIP3    H227436   6.171   6.597   5.415  1.2150  1.2450 -0.9066
 9158TIP3   OH227437   0.964   5.414   0.108 -0.3461 -0.6089  0.5186
 9158TIP3    H127438   0.891   5.374   0.156  0.1984 -1.4747  0.6338
 9158TIP3    H227439   1.012   5.340   0.072 -0.5827  0.0119 -1.1491
 9159TIP3   OH227440   0.344   6.689   1.828 -0.4147 -0.1789  0.2362
 9159TIP3    H127441   0.327   6.738   1.908  1.2085  1.1053 -0.1633
 9159TIP3    H227442   0.344   6.755   1.758 -0.4795 -1.0782 -0.6478
 9160TIP3   OH227443   0.582   3.738   3.576  0.3409  0.3503  0.3752
 9160TIP3    H127444   0.621   3.815   3.534  0.0415 -0.5216 -1.6551
 9160TIP3    H227445   0.523   3.703   3.509  0.6185 -1.7400  1.1561
 9161TIP3   OH227446   0.426   6.523   2.289  0.4720  0.1607 -0.2053
 9161TIP3    H127447   0.363   6.548   2.222  0.7492  0.8645 -0.2166
 9161TIP3    H227448   0.425   6.427   2.289 -0.5046  0.1565 -0.2820
 9162TIP3   OH227449   3.361   1.103   0.881 -0.9239  0.1993  0.5028
 9162TIP3    H127450   3.268   1.090   0.900 -1.1229 -0.2046 -0.6162
 9162TIP3    H227451   3.401   1.018   0.897 -0.8539  0.2194  0.4369
 9163TIP3   OH227452   6.640   3.044   2.507  0.3141  0.7239  0.0521
 9163TIP3    H127453   6.715   2.987   2.493  1.1042  1.8038 -0.2235
 9163TIP3    H227454   6.660   3.091   2.588  1.5686  3.4547 -1.7228
 9164TIP3   OH227455   4.362   1.058   2.871  0.1003  0.3712  0.2558
 9164TIP3    H127456   4.411   0.978   2.890  0.2192  0.2678 -0.4625
 9164TIP3    H227457   4.403   1.093   2.792 -1.4998 -0.1450 -0.8469
 9165TIP3   OH227458   6.873   0.183   0.340  0.0271 -0.2589  0.4623
 9165TIP3    H127459   6.913   0.104   0.302  1.9748  0.9158 -0.0426
 9165TIP3    H227460   6.946   0.243   0.353 -1.3422  1.2747  1.3606
 9166TIP3   OH227461   2.214   0.525   3.736  0.0590 -0.9021 -0.5782
 9166TIP3    H127462   2.234   0.612   3.701 -0.5806 -1.1752 -1.6723
 9166TIP3    H227463   2.284   0.508   3.799 -0.3713  0.8208  0.4178
 9167TIP3   OH227464   4.467   0.800   2.937  0.7475 -0.3115  0.5672
 9167TIP3    H127465   4.519   0.719   2.937  1.1411 -0.0682  0.1559
 9167TIP3    H227466   4.413   0.794   3.016  0.6830 -1.0298  0.4799
 9168TIP3   OH227467   2.161   1.873   0.366 -0.7079  0.0622 -0.5319
 9168TIP3    H127468   2.070   1.891   0.342 -0.4757  1.2508 -0.6067
 9168TIP3    H227469   2.202   1.959   0.368  0.8251 -0.5697 -2.1565
 9169TIP3   OH227470   4.433   1.559   0.984 -0.1456  0.8803  0.1361
 9169TIP3    H127471   4.461   1.643   1.018 -0.2073  0.2424  1.8449
 9169TIP3    H227472   4.341   1.552   1.008 -0.4323  0.7652 -0.9327
 9170TIP3   OH227473   3.353   1.066   3.991  0.2886 -0.3151 -0.1953
 9170TIP3    H127474   3.299   1.039   3.917  0.1529 -0.8568  0.0962
 9170TIP3    H227475   3.436   1.021   3.979  0.9271  1.0178 -0.9882
 9171TIP3   OH227476   0.551   2.797   1.786  0.1825  0.5647 -0.5852
 9171TIP3    H127477   0.626   2.846   1.753  1.2606 -1.2994 -1.0626
 9171TIP3    H227478   0.489   2.864   1.816  1.7024  2.1630 -0.8860
 9172TIP3   OH227479   3.854   1.800   3.420  0.1588 -0.3176  0.2263
 9172TIP3    H127480   3.829   1.847   3.499  0.8440  0.5249 -0.0452
 9172TIP3    H227481   3.784   1.819   3.357 -1.9283 -3.2693  1.4058
 9173TIP3   OH227482   6.922   0.432   4.442  0.0444 -0.8153 -0.5895
 9173TIP3    H127483   7.004   0.394   4.412  0.4671  0.6893 -1.4361
 9173TIP3    H227484   6.855   0.392   4.387  0.2271 -1.7940 -0.1234
 9174TIP3   OH227485   4.358   6.053   5.793  0.2527  0.2350  0.1762
 9174TIP3    H127486   4.315   5.968   5.800 -1.6886  1.0801 -0.7140
 9174TIP3    H227487   4.398   6.067   5.879  0.0744 -1.2980  0.5382
 9175TIP3   OH227488   0.265   3.891   2.336  0.7279  0.5754  0.3091
 9175TIP3    H127489   0.198   3.882   2.268  0.5102  2.3906  0.2215
 9175TIP3    H227490   0.216   3.920   2.413  1.2990  1.1795  0.4542
 9176TIP3   OH227491   5.902   4.646   1.859  0.3523 -0.0376 -0.0150
 9176TIP3    H127492   5.877   4.617   1.947  2.4350  0.2958  0.7661
 9176TIP3    H227493   5.982   4.597   1.840 -0.6460 -0.9025 -2.2244
 9177TIP3   OH227494   5.775   5.974   2.301  0.3568 -0.0308 -0.7126
 9177TIP3    H127495   5.720   6.051   2.319  1.7615  0.3194  2.9303
 9177TIP3    H227496   5.721   5.900   2.329  1.4017  0.2968  2.6319
 9178TIP3   OH227497   5.014   5.051   3.755 -0.3852 -0.0212  0.6693
 9178TIP3    H127498   4.993   4.963   3.783  2.2031 -1.0344 -0.2483
 9178TIP3    H227499   5.008   5.048   3.659 -0.3526  0.8131  0.6308
 9179TIP3   OH227500   6.821   6.076   2.274 -0.3584  0.1532  0.2214
 9179TIP3    H127501   6.911   6.080   2.241  0.4134 -1.2367  1.9655
 9179TIP3    H227502   6.776   6.149   2.232  2.3562  2.7315  1.4919
 9180TIP3   OH227503   1.022   1.604   1.251  0.0982  0.0799  0.0643
 9180TIP3    H127504   0.978   1.640   1.328  1.3939 -0.8149  1.2896
 9180TIP3    H227505   1.029   1.510   1.269 -1.5016 -0.5511 -2.1798
 9181TIP3   OH227506   0.384   6.445   4.649  0.2880 -0.2803  0.3602
 9181TIP3    H127507   0.302   6.444   4.599  0.8813 -1.0931 -0.6189
 9181TIP3    H227508   0.449   6.481   4.590  0.4845  1.2636  1.4500
 9182TIP3   OH227509   4.150   3.827   4.992  0.5757 -0.1300 -0.3095
 9182TIP3    H127510   4.111   3.755   4.943  2.2787 -0.6546 -0.9669
 9182TIP3    H227511   4.159   3.794   5.081  1.7571 -0.9237 -0.7064
 9183TIP3   OH227512   4.711   5.594   1.369 -0.3925  0.2433 -0.8851
 9183TIP3    H127513   4.765   5.552   1.437 -1.0278  0.1589 -0.4228
 9183TIP3    H227514   4.704   5.685   1.398 -2.2702 -0.1984  0.2378
 9184TIP3   OH227515   2.178   4.202   5.226 -0.2917  0.1133 -0.2861
 9184TIP3    H127516   2.230   4.260   5.169  2.8338 -0.2064  1.9551
 9184TIP3    H227517   2.195   4.114   5.193  1.6575 -0.0867  1.0765
 9185TIP3   OH227518   1.234   4.044   4.307  0.3261  0.4898 -0.1054
 9185TIP3    H127519   1.287   4.030   4.228 -0.5025 -4.7541 -0.1084
 9185TIP3    H227520   1.144   4.032   4.277 -0.0257 -1.1228  1.4587
 9186TIP3   OH227521   3.292   6.332   2.300 -0.7523 -0.5369 -0.3395
 9186TIP3    H127522   3.290   6.283   2.382 -2.3529 -0.0213 -0.0287
 9186TIP3    H227523   3.233   6.406   2.315 -0.2938  0.1256 -1.6250
 9187TIP3   OH227524   2.414   2.857   3.568 -0.5979  0.5087  0.0274
 9187TIP3    H127525   2.508   2.859   3.589 -0.5488  0.3895 -0.1837
 9187TIP3    H227526   2.409   2.895   3.481 -0.6984  0.0971 -0.1458
 9188TIP3   OH227527   3.067   4.082   1.028  0.3027 -0.8501  0.0095
 9188TIP3    H127528   2.997   4.024   1.058 -0.7647  0.6522  0.5430
 9188TIP3    H227529   3.082   4.058   0.937  0.2821 -2.3210  0.3745
 9189TIP3   OH227530   4.398   2.287   4.249  0.5615  0.2288  0.6807
 9189TIP3    H127531   4.395   2.201   4.207 -1.1813 -0.1217  1.4597
 9189TIP3    H227532   4.488   2.295   4.281  1.6722  0.0463 -2.0459
 9190TIP3   OH227533   1.078   0.326   5.383 -0.1105 -0.4460  0.1193
 9190TIP3    H127534   1.020   0.250   5.374 -1.1948  0.5026 -1.3971
 9190TIP3    H227535   1.028   0.387   5.438  0.0937 -0.2221  0.0569
 9191TIP3   OH227536   2.710   3.929   2.832 -0.3481  0.3852 -0.0872
 9191TIP3    H127537   2.754   3.941   2.748 -0.7478 -2.6524 -0.8449
 9191TIP3    H227538   2.623   3.897   2.809 -0.5066 -0.3991  1.4713
 9192TIP3   OH227539   1.685   3.291   5.216 -0.2797  0.3824 -0.4816
 9192TIP3    H127540   1.600   3.263   5.250  0.9406 -1.4065  1.3768
 9192TIP3    H227541   1.712   3.219   5.158  0.2834  0.5629 -0.4479
 9193TIP3   OH227542   2.046   3.054   0.991  0.1313 -0.4419 -0.6441
 9193TIP3    H127543   2.007   2.992   1.053  1.0100 -1.7841 -1.3792
 9193TIP3    H227544   1.991   3.132   0.997  1.0385  0.0736  2.8924
 9194TIP3   OH227545   5.426   3.987   5.719  0.3024 -0.0528 -0.1884
 9194TIP3    H127546   5.498   4.050   5.709  0.3554  0.0441  0.6862
 9194TIP3    H227547   5.442   3.946   5.804  1.3533 -2.6916 -1.5635
 9195TIP3   OH227548   4.512   3.247   3.495 -0.1698 -0.5821 -0.0819
 9195TIP3    H127549   4.583   3.268   3.434 -0.6859 -0.0899 -0.5312
 9195TIP3    H227550   4.444   3.207   3.441 -0.4279 -0.6068  0.2535
 9196TIP3   OH227551   1.010   2.780   5.564 -0.1128  0.7344 -0.3564
 9196TIP3    H127552   1.048   2.817   5.485  0.3650  0.1557 -0.4057
 9196TIP3    H227553   1.084   2.741   5.610 -0.1205  2.2554  1.0703
 9197TIP3   OH227554   6.356   3.620   4.126  0.7441  0.5474 -0.1187
 9197TIP3    H127555   6.300   3.618   4.048  0.3538  0.7315  0.1557
 9197TIP3    H227556   6.297   3.603   4.199  1.4855 -2.0672 -0.0300
 9198TIP3   OH227557   5.722   3.007   5.178  0.1663 -0.1847  0.1201
 9198TIP3    H127558   5.655   3.057   5.131  1.1171  0.8297 -0.1738
 9198TIP3    H227559   5.747   3.062   5.252  1.0864 -0.2934 -0.0955
 9199TIP3   OH227560   4.027   4.213   5.702  0.2232 -0.2013 -0.2367
 9199TIP3    H127561   4.081   4.204   5.623  0.1263  0.3681 -0.3661
 9199TIP3    H227562   3.941   4.240   5.670 -0.2961 -1.5616 -0.0712
 9200TIP3   OH227563   1.853   4.066   0.314 -0.4812 -0.4802 -0.5330
 9200TIP3    H127564   1.886   4.156   0.313 -0.4371 -0.4740  0.4126
 9200TIP3    H227565   1.760   4.074   0.337 -0.1965 -0.7368  0.7820
 9201TIP3   OH227566   5.707   4.740   0.454  0.4097 -0.0883 -0.2310
 9201TIP3    H127567   5.748   4.763   0.371 -2.5909  1.7788 -1.3742
 9201TIP3    H227568   5.693   4.824   0.498  1.8874 -1.0343  2.2210
 9202TIP3   OH227569   3.659   6.580   5.346  0.5301  0.6974 -0.2471
 9202TIP3    H127570   3.623   6.658   5.304 -0.3439  0.5292  0.1508
 9202TIP3    H227571   3.708   6.614   5.421 -0.5629  0.8446  0.4308
 9203TIP3   OH227572   2.871   3.291   4.923 -0.3230 -0.0730  0.2948
 9203TIP3    H127573   2.828   3.344   4.991 -2.9907 -1.0814 -0.4796
 9203TIP3    H227574   2.902   3.214   4.970 -0.3584  0.1503  0.6937
 9204TIP3   OH227575   4.165   3.511   2.569 -0.0649 -0.1924 -0.2936
 9204TIP3    H127576   4.070   3.509   2.560 -0.0958 -1.3012  0.1166
 9204TIP3    H227577   4.184   3.450   2.640  1.0797 -1.6517 -1.7709
 9205TIP3   OH227578   0.727   6.646   4.016 -0.6990  0.8764  0.1334
 9205TIP3    H127579   0.701   6.735   4.038  0.3397  1.2182  0.0588
 9205TIP3    H227580   0.667   6.590   4.065  0.0274  1.6098  1.9752
 9206TIP3   OH227581   0.763   0.011   0.043 -0.5158 -0.5699 -0.3385
 9206TIP3    H127582   0.725  -0.030  -0.035 -1.2455  1.6938 -1.2453
 9206TIP3    H227583   0.782   0.101   0.016 -0.5131  0.2051  2.0135
 9207TIP3   OH227584   0.979   0.264   3.650 -0.2240 -0.3578  0.0457
 9207TIP3    H127585   1.002   0.343   3.699  0.2542  1.1388 -2.4262
 9207TIP3    H227586   1.024   0.274   3.566 -0.3798 -3.1546 -0.4809
 9208TIP3   OH227587   4.249   1.292   1.506 -0.6374 -0.4543  0.6134
 9208TIP3    H127588   4.200   1.320   1.583 -0.5826  0.4316  0.3421
 9208TIP3    H227589   4.207   1.337   1.432  0.5038  0.2751  0.3657
 9209TIP3   OH227590   4.151   4.935   3.335  0.2379  0.0504 -0.3845
 9209TIP3    H127591   4.135   4.986   3.414  0.6832  2.1004 -1.5611
 9209TIP3    H227592   4.244   4.945   3.317  0.4174 -1.4862 -0.4885
 9210TIP3   OH227593   1.211   2.105   2.086 -0.0791  0.4442 -0.3994
 9210TIP3    H127594   1.189   2.036   2.024  1.2932 -0.7281  0.3606
 9210TIP3    H227595   1.250   2.059   2.161  1.2015  2.0505 -0.0184
 9211TIP3   OH227596   5.503   2.283   5.483 -0.3711  0.2437  0.0183
 9211TIP3    H127597   5.455   2.366   5.475  0.0082  0.3740 -1.0016
 9211TIP3    H227598   5.523   2.258   5.393 -1.6236 -1.6483  0.2167
 9212TIP3   OH227599   6.902   3.935   0.736  0.1924  0.5167  0.3172
 9212TIP3    H127600   6.868   3.851   0.769 -0.2058  0.9984  1.1695
 9212TIP3    H227601   6.824   3.983   0.708  0.4919  0.2563 -1.0649
 9213TIP3   OH227602   1.293   5.813   1.940  0.4274 -0.3448  0.2317
 9213TIP3    H127603   1.274   5.798   2.032  0.5416  0.4466  0.3926
 9213TIP3    H227604   1.323   5.904   1.936  0.0337 -0.2354 -0.6360
 9214TIP3   OH227605   5.985   1.260   4.570  0.4625 -0.2898 -0.6627
 9214TIP3    H127606   6.044   1.293   4.501  0.4581  0.3229 -0.3823
 9214TIP3    H227607   5.899   1.259   4.528  0.7515 -1.8683 -1.3029
 9215TIP3   OH227608   2.602   2.475   0.887  0.1463  0.3214 -0.1211
 9215TIP3    H127609   2.612   2.411   0.816 -1.3545  1.3004 -1.2553
 9215TIP3    H227610   2.692   2.501   0.908  0.7048 -1.1434 -0.5526
 9216TIP3   OH227611   4.151   3.667   2.854  0.5878  0.1620  0.2877
 9216TIP3    H127612   4.082   3.623   2.805 -1.0000  1.1038  1.5848
 9216TIP3    H227613   4.147   3.758   2.826  1.8480  0.0987 -0.1783
 9217TIP3   OH227614   2.475   5.627   1.549  0.1406  0.2509 -0.0182
 9217TIP3    H127615   2.452   5.601   1.638 -2.6167 -1.0112 -0.9954
 9217TIP3    H227616   2.553   5.575   1.528  1.6544  1.5321  2.0093
 9218TIP3   OH227617   6.887   2.955   0.628  0.2037 -0.1630  0.3775
 9218TIP3    H127618   6.919   3.044   0.613  2.7389 -1.2631 -1.7015
 9218TIP3    H227619   6.855   2.955   0.718  3.0734  2.0519  1.5451
 9219TIP3   OH227620   3.111   2.289   5.666 -0.1385 -0.3134  0.3694
 9219TIP3    H127621   3.043   2.235   5.627 -0.1819 -0.5872  0.8148
 9219TIP3    H227622   3.065   2.365   5.703 -0.2754 -0.7487  1.1203
 9220TIP3   OH227623   0.857   4.915   1.871 -0.4319 -0.2928  0.3924
 9220TIP3    H127624   0.839   5.009   1.871  0.8875 -0.0027 -0.7805
 9220TIP3    H227625   0.772   4.874   1.889 -2.0562  0.9886 -3.3524
 9221TIP3   OH227626   1.052   0.320   3.386  0.0529 -0.5783 -0.1619
 9221TIP3    H127627   1.119   0.259   3.354 -0.1215 -1.0760  0.4084
 9221TIP3    H227628   1.084   0.406   3.359  1.4873 -0.7005  1.0517
 9222TIP3   OH227629   2.215   1.876   1.473  0.1783  0.0759 -0.1619
 9222TIP3    H127630   2.192   1.918   1.556 -1.7990  1.0126 -1.1277
 9222TIP3    H227631   2.310   1.876   1.472  0.3088  3.5016  0.4464
 9223TIP3   OH227632   6.774   2.884   0.868  0.0368 -0.1551  0.0781
 9223TIP3    H127633   6.795   2.823   0.939 -1.8275 -2.5254 -1.2524
 9223TIP3    H227634   6.711   2.945   0.907 -1.2611 -1.6577  0.4404
 9224TIP3   OH227635   0.036   1.875   2.987 -0.2049 -0.3889 -0.0895
 9224TIP3    H127636   0.100   1.934   2.947 -1.2283  0.6084 -0.3215
 9224TIP3    H227637   0.042   1.794   2.936  1.2541 -0.5299  0.2591
 9225TIP3   OH227638   4.086   4.598   0.130 -0.0696  0.2322 -0.5559
 9225TIP3    H127639   4.127   4.608   0.044 -0.5794 -1.4431 -1.0409
 9225TIP3    H227640   4.106   4.508   0.155 -0.2172  0.5912  0.9438
 9226TIP3   OH227641   1.004   4.735   0.962 -0.4786 -0.5395 -0.0332
 9226TIP3    H127642   0.978   4.689   1.042  0.1143 -0.5202  0.1764
 9226TIP3    H227643   0.936   4.800   0.948 -0.4981 -0.4270  0.5593
 9227TIP3   OH227644   6.901   0.716   4.428  0.2814 -0.4011  0.3936
 9227TIP3    H127645   6.992   0.692   4.407  1.3066  1.6417  2.0673
 9227TIP3    H227646   6.870   0.645   4.484  1.0804 -0.8031  0.3438
 9228TIP3   OH227647   3.502   3.971  -0.003  0.4841 -0.5434 -0.4384
 9228TIP3    H127648   3.496   4.066  -0.005  2.5858 -0.3393  0.3731
 9228TIP3    H227649   3.425   3.943   0.046 -0.7375  0.6245 -1.6127
 9229TIP3   OH227650   5.559   0.724   0.189  0.3798  0.6110  0.0624
 9229TIP3    H127651   5.523   0.708   0.276 -0.7571  1.9320 -0.1266
 9229TIP3    H227652   5.587   0.638   0.159 -0.5522 -0.1088  1.1458
 9230TIP3   OH227653   1.695   0.570   3.117  0.3300 -0.3974 -0.2788
 9230TIP3    H127654   1.674   0.652   3.162  0.1274  0.0404 -1.1512
 9230TIP3    H227655   1.666   0.584   3.027  2.8050 -0.4075 -1.1502
 9231TIP3   OH227656   4.103   2.401   4.224 -0.0980  0.2630  0.4766
 9231TIP3    H127657   4.106   2.343   4.148  0.8140  1.0802 -0.1369
 9231TIP3    H227658   4.187   2.386   4.268  0.0251  0.9055  0.4655
 9232TIP3   OH227659   1.553   4.594   5.173 -0.2187  0.3211  0.3478
 9232TIP3    H127660   1.559   4.512   5.125  1.3983  0.3216  0.5048
 9232TIP3    H227661   1.459   4.614   5.175 -0.5612 -1.1144 -0.3485
 9233TIP3   OH227662   2.691   5.545   2.573  0.4051 -0.0766 -0.3370
 9233TIP3    H127663   2.632   5.544   2.498  0.0673  0.3114 -0.0805
 9233TIP3    H227664   2.655   5.612   2.631 -0.7944 -2.0569  1.3430
 9234TIP3   OH227665   5.372   5.245   2.754 -0.1773 -0.3751  0.1729
 9234TIP3    H127666   5.321   5.320   2.784 -1.0607 -1.1641  0.7065
 9234TIP3    H227667   5.314   5.198   2.694 -0.2023 -1.4081  0.9680
 9235TIP3   OH227668   6.356   2.645   0.509 -0.2144 -0.0031 -0.2390
 9235TIP3    H127669   6.411   2.680   0.579  1.9418  0.2616 -1.9630
 9235TIP3    H227670   6.365   2.550   0.516  2.4649  0.0264 -1.8657
 9236TIP3   OH227671   1.081   5.011   3.654  0.0434 -0.5547 -0.0371
 9236TIP3    H127672   1.032   4.931   3.637 -1.0078  0.3795 -1.6616
 9236TIP3    H227673   1.170   4.993   3.622  0.5864 -1.9302  2.0626
 9237TIP3   OH227674   4.898   5.096   5.600 -0.1926 -0.3712  0.2024
 9237TIP3    H127675   4.865   5.041   5.671 -0.1263 -0.8591 -0.1465
 9237TIP3    H227676   4.990   5.112   5.623  0.7300 -2.9872 -1.2400
 9238TIP3   OH227677   7.185   2.227   2.033  0.4304  0.5137  0.1999
 9238TIP3    H127678   7.193   2.147   2.084 -1.3424  0.6419  0.7347
 9238TIP3    H227679   7.210   2.297   2.094 -0.4807  0.5632  0.5275
 9239TIP3   OH227680   3.474   0.701   3.360 -0.2827 -0.1810  0.0998
 9239TIP3    H127681   3.451   0.784   3.319  0.8957  0.3011  0.3983
 9239TIP3    H227682   3.417   0.696   3.437  0.6637  1.0623  0.9114
 9240TIP3   OH227683   3.358   3.687   0.883 -0.4535 -0.3850  0.0342
 9240TIP3    H127684   3.392   3.704   0.972  1.0504 -1.5851 -0.2754
 9240TIP3    H227685   3.420   3.626   0.845 -2.1250 -1.3910 -1.2008
 9241TIP3   OH227686   3.688   5.981   1.034  0.2102 -0.1116  0.1235
 9241TIP3    H127687   3.634   5.942   0.966 -0.3398 -0.4757  0.7582
 9241TIP3    H227688   3.758   5.916   1.049 -0.6189 -0.8345  1.0718
 9242TIP3   OH227689   3.516   1.749   0.510  0.0895 -0.0887 -0.3985
 9242TIP3    H127690   3.467   1.795   0.578 -1.3209 -1.6253 -0.3194
 9242TIP3    H227691   3.460   1.675   0.486  1.2107 -0.4081 -2.1995
 9243TIP3   OH227692   4.656   1.400   2.769  0.5828 -0.1741 -0.4266
 9243TIP3    H127693   4.718   1.469   2.787 -0.5629  1.4791 -2.3459
 9243TIP3    H227694   4.570   1.439   2.787 -0.0027 -2.0205  1.0865
 9244TIP3   OH227695   5.041   6.806   5.546 -0.5549  0.3521  0.0478
 9244TIP3    H127696   5.032   6.711   5.540 -1.1985  0.4787 -2.2339
 9244TIP3    H227697   5.095   6.821   5.624 -0.3588 -1.8720  0.4032
 9245TIP3   OH227698   4.629   5.549   5.260  0.5955 -0.4879  0.0098
 9245TIP3    H127699   4.689   5.484   5.224 -0.9912 -1.6303 -0.7308
 9245TIP3    H227700   4.681   5.628   5.269  2.5814 -1.8013  0.8344
 9246TIP3   OH227701   6.236   1.046   2.403 -0.0256 -0.2031  0.3911
 9246TIP3    H127702   6.208   0.982   2.338  1.1736  0.3846 -0.7559
 9246TIP3    H227703   6.211   1.008   2.487  0.6021 -2.1549 -0.2665
 9247TIP3   OH227704   2.276   6.113   0.392  0.2844 -0.1292  0.2402
 9247TIP3    H127705   2.319   6.029   0.414  0.3265 -0.1073  0.2419
 9247TIP3    H227706   2.185   6.100   0.416  0.1695 -0.3828 -0.3292
 9248TIP3   OH227707   4.356   1.474   2.845 -0.1358  0.0515  0.5861
 9248TIP3    H127708   4.340   1.527   2.767 -0.4809 -0.2517  0.4450
 9248TIP3    H227709   4.292   1.403   2.839  1.0525 -1.0234  0.1956
 9249TIP3   OH227710   1.821   3.714   4.058  0.1956  0.0309 -0.1592
 9249TIP3    H127711   1.805   3.794   4.108  0.9343 -0.3789  0.7830
 9249TIP3    H227712   1.905   3.682   4.091 -0.2775 -1.3415 -0.2136
 9250TIP3   OH227713   5.713   1.084   0.345  0.2386  0.2012 -0.5698
 9250TIP3    H127714   5.746   1.174   0.336 -1.8377  1.0842  0.1984
 9250TIP3    H227715   5.730   1.062   0.437 -1.6811  0.8633 -0.0215
 9251TIP3   OH227716   4.561   5.412   0.674  0.1580 -0.2247 -0.1060
 9251TIP3    H127717   4.535   5.467   0.748 -0.0356 -0.0399 -0.3109
 9251TIP3    H227718   4.656   5.401   0.686  0.2987  0.6008 -0.3581
 9252TIP3   OH227719   5.663   2.627   1.375  0.1940  0.2347 -0.0292
 9252TIP3    H127720   5.717   2.691   1.422 -0.2377  0.3237  0.3554
 9252TIP3    H227721   5.652   2.664   1.287  3.0097 -1.0514 -1.0271
 9253TIP3   OH227722   4.270   5.722   4.192 -0.2424 -0.4209  0.1517
 9253TIP3    H127723   4.274   5.777   4.270 -0.3306  1.1715 -0.9353
 9253TIP3    H227724   4.194   5.665   4.207 -1.4622  1.2170  0.3856
 9254TIP3   OH227725   3.081   3.120   1.152 -0.0776 -0.4240  0.9403
 9254TIP3    H127726   3.008   3.074   1.112 -1.4596  0.9437  1.8102
 9254TIP3    H227727   3.146   3.129   1.081 -0.6306 -1.8321  0.2192
 9255TIP3   OH227728   5.784   6.446   0.717  0.5704  0.3303 -0.3443
 9255TIP3    H127729   5.832   6.393   0.781  0.4085  1.4890  0.7841
 9255TIP3    H227730   5.693   6.444   0.749  0.4238  0.6187 -0.7467
 9256TIP3   OH227731   5.265   1.722   4.882 -0.1774 -0.1156  0.0974
 9256TIP3    H127732   5.206   1.707   4.808  0.1642 -1.0689 -0.0002
 9256TIP3    H227733   5.222   1.679   4.956  0.8814 -1.7898 -0.2092
 9257TIP3   OH227734   2.281   6.201   4.267 -0.2402 -0.0058 -0.0255
 9257TIP3    H127735   2.332   6.130   4.228 -0.3546  1.3522 -2.9310
 9257TIP3    H227736   2.189   6.176   4.251 -0.2943  0.4702 -0.4835
 9258TIP3   OH227737   1.818   2.471   3.161 -0.2353  0.4435 -0.0273
 9258TIP3    H127738   1.909   2.497   3.177  0.2554 -0.3389 -1.3933
 9258TIP3    H227739   1.819   2.432   3.074 -1.1356 -2.9616  1.3165
 9259TIP3   OH227740   3.876   2.126   3.410 -0.1197 -0.2786 -0.1167
 9259TIP3    H127741   3.830   2.204   3.378  1.1838 -0.0633 -1.5713
 9259TIP3    H227742   3.961   2.157   3.439  0.5867 -1.1846 -1.1132
 9260TIP3   OH227743   5.325   4.356   4.641  0.4246 -0.7846  0.4473
 9260TIP3    H127744   5.361   4.405   4.715 -0.7556 -0.0477  0.5480
 9260TIP3    H227745   5.348   4.265   4.660  0.7394 -0.5244  1.3617
 9261TIP3   OH227746   4.113   6.125   2.885 -0.4587  0.0806  0.1239
 9261TIP3    H127747   4.169   6.178   2.828  0.0352  0.2079  0.7164
 9261TIP3    H227748   4.166   6.109   2.963 -0.1975 -2.1109 -0.4253
 9262TIP3   OH227749   0.967   5.325   1.918  0.4453  0.0054  0.4444
 9262TIP3    H127750   1.015   5.295   1.841  0.7622 -1.2696  1.1196
 9262TIP3    H227751   0.915   5.249   1.945  0.8464  0.2133  1.8739
 9263TIP3   OH227752   4.365   3.553   0.412 -0.0432  0.1391 -0.0828
 9263TIP3    H127753   4.448   3.507   0.402 -0.0360  0.2839 -0.6916
 9263TIP3    H227754   4.355   3.603   0.332 -1.6639 -1.3949 -0.8991
 9264TIP3   OH227755   3.035   5.827   4.657 -0.0064  0.0319 -0.2477
 9264TIP3    H127756   3.070   5.881   4.586 -0.9107  0.1298 -0.6291
 9264TIP3    H227757   2.985   5.888   4.711  0.2757 -0.1349  0.2082
 9265TIP3   OH227758   1.586   1.563   0.454  0.4585  0.4697  0.2842
 9265TIP3    H127759   1.599   1.650   0.492  1.3647  0.2100  0.6219
 9265TIP3    H227760   1.659   1.512   0.489  1.4505  0.2471 -1.9377
 9266TIP3   OH227761   5.648   5.656   5.755 -0.0778  0.2962  0.3756
 9266TIP3    H127762   5.666   5.563   5.742 -1.4817  0.3205 -2.6335
 9266TIP3    H227763   5.587   5.659   5.828  0.9761 -0.9976  1.3463
 9267TIP3   OH227764   2.988   1.341   3.432  0.1389 -0.4477  0.2376
 9267TIP3    H127765   3.034   1.337   3.348 -1.0462  0.0859 -0.4778
 9267TIP3    H227766   2.989   1.434   3.455  0.9213 -0.6597  1.1044
 9268TIP3   OH227767   3.727   1.345   5.600 -0.1992  0.2168 -0.3171
 9268TIP3    H127768   3.687   1.405   5.663 -0.2106 -0.1674  0.0457
 9268TIP3    H227769   3.721   1.391   5.516 -2.2152 -0.1916 -0.4486
 9269TIP3   OH227770   2.956   5.173   5.111  0.0164 -0.3875  0.0004
 9269TIP3    H127771   2.929   5.224   5.035  0.3171 -0.1142  0.0757
 9269TIP3    H227772   2.873   5.148   5.153 -0.2429  3.2712  2.1314
 9270TIP3   OH227773   0.041   3.346   5.663  0.2959 -0.0714  0.2970
 9270TIP3    H127774  -0.024   3.300   5.716 -0.9223  0.8003 -0.4011
 9270TIP3    H227775   0.051   3.431   5.705 -0.6396  0.6088 -0.7854
 9271TIP3   OH227776   4.732   2.168   1.431 -0.1441 -0.1643 -0.3086
 9271TIP3    H127777   4.756   2.202   1.518 -3.0690 -1.3925  1.0904
 9271TIP3    H227778   4.681   2.238   1.391 -2.6673 -1.1762  0.9155
 9272TIP3   OH227779   2.864   5.000   2.059 -0.4262  0.0513 -0.2018
 9272TIP3    H127780   2.792   4.994   1.997  0.0936  0.3973 -0.8561
 9272TIP3    H227781   2.867   4.914   2.101  0.5897 -0.9792 -2.2398
 9273TIP3   OH227782   5.670   3.113   4.727 -0.2222  0.1909  0.0142
 9273TIP3    H127783   5.626   3.029   4.737  0.4017 -0.0631  0.6531
 9273TIP3    H227784   5.758   3.091   4.697 -1.3057  0.7808 -4.3328
 9274TIP3   OH227785   6.446   1.382   5.000  0.3774  0.0163 -0.6268
 9274TIP3    H127786   6.523   1.418   5.045 -0.1939  0.4529  0.0278
 9274TIP3    H227787   6.407   1.458   4.958  1.2279 -0.4770 -2.3971
 9275TIP3   OH227788   6.561   1.497   3.211  0.0381 -0.4255 -0.3098
 9275TIP3    H127789   6.632   1.542   3.256  0.0253 -1.8439  1.2390
 9275TIP3    H227790   6.484   1.513   3.265  0.0891 -2.4518  0.4481
 9276TIP3   OH227791   1.370   1.929   0.899  0.2382 -0.2832 -0.1393
 9276TIP3    H127792   1.296   1.869   0.907  1.6198 -2.2928 -1.5256
 9276TIP3    H227793   1.344   1.990   0.830 -0.0192 -1.2016 -0.8723
 9277TIP3   OH227794   2.103   3.115   3.428  0.6431 -0.1673 -0.2962
 9277TIP3    H127795   2.058   3.188   3.469  1.4937  1.2583 -1.7732
 9277TIP3    H227796   2.134   3.061   3.501 -1.5736 -0.0774  0.7875
 9278TIP3   OH227797   4.234   3.103   3.485  0.0478  0.0227 -0.2926
 9278TIP3    H127798   4.195   3.043   3.421  2.8455 -0.1194 -2.0347
 9278TIP3    H227799   4.253   3.047   3.561 -0.4758 -0.5336 -0.5629
 9279TIP3   OH227800   4.435   2.856   3.708  0.0780 -0.3377  0.0285
 9279TIP3    H127801   4.463   2.779   3.659  0.2451 -0.6424  0.5912
 9279TIP3    H227802   4.342   2.842   3.724  0.0695 -0.3369 -0.0195
 9280TIP3   OH227803   3.308   2.024   1.159 -0.0241  0.1803  0.4240
 9280TIP3    H127804   3.281   2.037   1.250  0.4222  0.9729  0.4519
 9280TIP3    H227805   3.256   2.086   1.109  0.5205  0.5249  0.2767
 9281TIP3   OH227806   5.291   6.060   2.381 -0.0355 -0.4527 -0.4988
 9281TIP3    H127807   5.266   5.996   2.447 -0.0579  0.0664 -0.0022
 9281TIP3    H227808   5.240   6.036   2.304 -0.4071 -0.7382 -0.1670
 9282TIP3   OH227809   1.744   3.631   0.958  0.0589  0.4788  0.5153
 9282TIP3    H127810   1.825   3.601   1.001  2.3498  2.9992 -1.7223
 9282TIP3    H227811   1.730   3.569   0.887  0.0944  0.1535  0.7864
 9283TIP3   OH227812   6.415   2.177   0.142 -0.2233 -0.9913  0.0007
 9283TIP3    H127813   6.460   2.181   0.058 -0.7760  2.6864 -0.2905
 9283TIP3    H227814   6.330   2.138   0.121 -1.4345  2.2543 -1.8854
 9284TIP3   OH227815   2.370   5.412   4.277  0.1553  0.0506  0.8552
 9284TIP3    H127816   2.288   5.446   4.241  0.7500  0.3390 -0.2785
 9284TIP3    H227817   2.369   5.319   4.254 -0.1534 -0.0959  1.4382
 9285TIP3   OH227818   3.892   6.523   5.555 -0.5472  0.1760 -0.5297
 9285TIP3    H127819   3.857   6.609   5.530  3.2175  2.6970  1.7344
 9285TIP3    H227820   3.898   6.474   5.473  0.3866  3.4947 -2.6373
 9286TIP3   OH227821   0.593   4.195   0.034  0.4454  0.6160  0.2364
 9286TIP3    H127822   0.538   4.139   0.090  0.3107  1.6810  1.2140
 9286TIP3    H227823   0.672   4.142   0.018  0.7715  0.4891  1.9817
 9287TIP3   OH227824   6.317   0.331   4.426  0.1739 -0.3431  0.0763
 9287TIP3    H127825   6.395   0.378   4.453  2.1004 -2.5019 -1.3430
 9287TIP3    H227826   6.299   0.363   4.338  1.0878 -1.6595 -0.6257
 9288TIP3   OH227827   4.679   6.154   3.080  0.2242  0.0004  0.1240
 9288TIP3    H127828   4.686   6.079   3.021 -0.2474 -0.2900  0.4313
 9288TIP3    H227829   4.593   6.191   3.063 -0.2116 -0.5108  1.1132
 9289TIP3   OH227830   5.436   2.480   2.263 -0.4338 -0.5899  0.1773
 9289TIP3    H127831   5.527   2.464   2.289 -0.2116 -1.1077 -0.8840
 9289TIP3    H227832   5.429   2.576   2.260  0.2485 -0.5411 -0.2701
 9290TIP3   OH227833   6.261   0.248   0.602 -0.3893  0.2823 -0.0371
 9290TIP3    H127834   6.205   0.175   0.573 -0.5039  0.0006  0.8798
 9290TIP3    H227835   6.252   0.313   0.532  0.4652 -0.9415 -1.3613
 9291TIP3   OH227836   1.179   3.275   1.551 -0.2159 -0.4007 -0.7483
 9291TIP3    H127837   1.254   3.299   1.497 -0.2446 -0.1128 -0.6617
 9291TIP3    H227838   1.211   3.203   1.605  0.1934  0.1506 -0.2513
 9292TIP3   OH227839   4.529   0.577   5.350  0.2535 -0.2951  0.4178
 9292TIP3    H127840   4.619   0.564   5.379  0.9260  2.0052 -0.4013
 9292TIP3    H227841   4.500   0.657   5.395 -1.1351 -0.5876  0.1095
 9293TIP3   OH227842   4.915   4.310   2.231 -0.3709  0.6330  0.7271
 9293TIP3    H127843   4.896   4.327   2.323 -0.5793  0.2028  0.7686
 9293TIP3    H227844   4.948   4.393   2.197 -0.0963  0.7358  1.2401
 9294TIP3   OH227845   3.848   1.546   1.317 -0.5529  0.6431 -0.5714
 9294TIP3    H127846   3.770   1.590   1.350 -1.2759  0.3021 -1.7537
 9294TIP3    H227847   3.865   1.589   1.233 -0.4259 -0.3592 -1.0699
 9295TIP3   OH227848   0.643   2.483   3.191  0.1323 -0.8754 -0.5094
 9295TIP3    H127849   0.703   2.530   3.250 -1.1881  0.2175  0.0101
 9295TIP3    H227850   0.567   2.463   3.245 -0.3787 -1.3950 -1.4006
 9296TIP3   OH227851   0.211   1.441   1.596 -0.0925  0.0328  0.2535
 9296TIP3    H127852   0.197   1.409   1.686  0.4495 -0.2440  0.2459
 9296TIP3    H227853   0.154   1.387   1.542  2.1202 -2.2341  0.0131
 9297TIP3   OH227854   1.595   4.216   3.687 -0.7082  0.0485 -0.1458
 9297TIP3    H127855   1.657   4.286   3.705 -0.3931 -0.6801  1.7686
 9297TIP3    H227856   1.524   4.230   3.749 -0.9819 -0.9124 -0.2211
 9298TIP3   OH227857   2.672   2.395   2.944  0.6075 -0.3106 -0.6441
 9298TIP3    H127858   2.691   2.393   3.038  0.8653 -0.4636 -0.6978
 9298TIP3    H227859   2.749   2.435   2.904  0.6576 -0.5822 -0.8262
 9299TIP3   OH227860   7.218   4.417   1.721 -0.3596 -0.4075  0.5114
 9299TIP3    H127861   7.204   4.336   1.671 -0.7855 -0.1564  0.2134
 9299TIP3    H227862   7.135   4.429   1.769 -0.2928 -0.1537  0.5627
 9300TIP3   OH227863   4.221   4.171   4.481  1.1601  0.9488  0.3869
 9300TIP3    H127864   4.235   4.078   4.461 -0.4320  1.2159 -2.5109
 9300TIP3    H227865   4.136   4.173   4.525  0.4815  1.1345 -0.9054
 9301TIP3   OH227866   2.048   0.735   0.210 -0.0017  0.6293  0.8721
 9301TIP3    H127867   1.957   0.745   0.182 -0.2011  0.4880  1.4670
 9301TIP3    H227868   2.094   0.708   0.131 -0.1385  2.4428  0.1193
 9302TIP3   OH227869   6.405   0.805   5.862 -0.1262  0.0643 -0.3135
 9302TIP3    H127870   6.471   0.875   5.859 -0.2178  0.3166  1.9139
 9302TIP3    H227871   6.322   0.851   5.869 -0.5768 -0.2674 -2.6137
 9303TIP3   OH227872   4.421   2.105   5.484 -0.2012 -0.0004 -0.5311
 9303TIP3    H127873   4.471   2.119   5.565 -1.7825  2.5021  0.0987
 9303TIP3    H227874   4.475   2.144   5.416  1.2360 -2.2994 -0.8498
 9304TIP3   OH227875   6.942   3.531   4.434  0.3152 -0.0207  0.2003
 9304TIP3    H127876   6.953   3.471   4.359  0.6884  1.1244 -0.6959
 9304TIP3    H227877   7.029   3.533   4.475  0.0585 -0.8047  0.8021
 9305TIP3   OH227878   4.373   3.711   0.164  0.0164 -0.3340 -0.3677
 9305TIP3    H127879   4.289   3.718   0.117  0.0526  1.7657 -0.2077
 9305TIP3    H227880   4.438   3.696   0.096 -0.2997 -0.5275 -0.6314
 9306TIP3   OH227881   2.048   2.113   5.020  0.0214  0.4102  0.4780
 9306TIP3    H127882   1.986   2.166   5.069 -0.5748 -0.5787  0.8297
 9306TIP3    H227883   2.049   2.152   4.932 -0.2758  1.0932  0.7748
 9307TIP3   OH227884   2.442   2.250   2.917  0.2136 -0.2003 -0.1251
 9307TIP3    H127885   2.515   2.309   2.934 -0.5027  0.6072  0.2578
 9307TIP3    H227886   2.412   2.273   2.829 -1.2106  1.3308  0.6946
 9308TIP3   OH227887   1.850   5.468   2.373 -0.2695  0.4540 -0.0938
 9308TIP3    H127888   1.755   5.456   2.363 -0.4989  2.1080 -0.2235
 9308TIP3    H227889   1.860   5.504   2.461  0.4386 -1.2862  0.5907
 9309TIP3   OH227890   2.021   0.628   2.205  0.5546  0.5141  0.0560
 9309TIP3    H127891   2.105   0.598   2.239  1.2894  1.7050 -0.6679
 9309TIP3    H227892   2.043   0.687   2.133 -0.9046  0.6925 -0.2785
 9310TIP3   OH227893   1.773   1.994   5.811  0.2994  0.4178 -0.1095
 9310TIP3    H127894   1.749   1.909   5.849  0.6039  0.1817 -0.4334
 9310TIP3    H227895   1.837   1.972   5.743 -1.1895  0.6821 -1.6914
 9311TIP3   OH227896   0.569   2.353   4.485  1.2000  0.0198 -0.2277
 9311TIP3    H127897   0.594   2.397   4.404  0.6623 -1.6974 -1.3816
 9311TIP3    H227898   0.561   2.261   4.461 -1.6576 -0.1875  1.1008
 9312TIP3   OH227899   3.696   1.617   2.223 -0.0142 -0.0594  0.8149
 9312TIP3    H127900   3.740   1.678   2.164  1.4654 -2.3087 -0.5268
 9312TIP3    H227901   3.606   1.651   2.229  0.6134  1.9398 -0.2502
 9313TIP3   OH227902   0.741   3.786   4.075 -0.0455 -0.3467 -0.3858
 9313TIP3    H127903   0.736   3.763   3.982 -1.1282 -0.5227 -0.2914
 9313TIP3    H227904   0.784   3.711   4.116  1.6995  0.3000 -0.9198
 9314TIP3   OH227905   3.338   1.070   3.284 -0.1026 -0.1172 -0.2073
 9314TIP3    H127906   3.302   1.014   3.215 -0.9978  0.8544 -0.5597
 9314TIP3    H227907   3.431   1.051   3.285  0.0177  0.2123 -2.0500
 9315TIP3   OH227908   4.405   2.122   1.623  0.2210  0.7274  0.1017
 9315TIP3    H127909   4.491   2.139   1.660 -0.2292  0.0588  1.5386
 9315TIP3    H227910   4.416   2.045   1.567  0.6801  1.0558 -0.2646
 9316TIP3   OH227911   0.581   4.979   0.419 -0.2896  0.1728 -0.4704
 9316TIP3    H127912   0.543   4.892   0.427 -0.3181  0.2038 -0.2522
 9316TIP3    H227913   0.576   4.999   0.325  0.3700 -0.3439 -0.6171
 9317TIP3   OH227914   7.078   1.955   4.164  0.8263 -0.0467  0.3326
 9317TIP3    H127915   7.134   1.878   4.148  0.6510  0.3728 -3.0334
 9317TIP3    H227916   7.133   2.014   4.215  2.0283 -1.2149  0.4652
 9318TIP3   OH227917   1.272   2.578   3.000 -0.1026  0.4048  0.0165
 9318TIP3    H127918   1.245   2.576   3.092 -0.0177  0.3507  0.0405
 9318TIP3    H227919   1.354   2.626   3.000 -0.1465  0.4801 -0.0434
 9319TIP3   OH227920   6.810   3.718   2.899 -0.1136 -0.1459 -0.4003
 9319TIP3    H127921   6.774   3.807   2.896 -0.3081 -0.2155 -0.1831
 9319TIP3    H227922   6.736   3.663   2.928  0.1434 -0.3008 -0.0338
 9320TIP3   OH227923   7.217   3.052   1.562  0.2391 -0.3223  0.1757
 9320TIP3    H127924   7.176   3.086   1.641 -2.3339 -0.7165 -0.8920
 9320TIP3    H227925   7.225   3.128   1.505  0.4436 -0.3585  0.1562
 9321TIP3   OH227926   5.157   4.156   0.434  0.4653 -0.1248  0.2125
 9321TIP3    H127927   5.096   4.121   0.499 -1.2011 -0.1048 -1.2540
 9321TIP3    H227928   5.240   4.113   0.452 -0.1744 -0.7421  1.8041
 9322TIP3   OH227929   6.386   6.189   0.421 -0.3516 -0.1438  0.1968
 9322TIP3    H127930   6.385   6.242   0.342 -2.7871  0.2870  0.4529
 9322TIP3    H227931   6.381   6.253   0.493 -3.8239 -0.5692  0.5001
 9323TIP3   OH227932   0.643   0.496   2.346  0.2545  0.5375  0.0676
 9323TIP3    H127933   0.576   0.455   2.292 -0.5915 -0.1951  1.6202
 9323TIP3    H227934   0.626   0.590   2.337 -1.7298  0.3476  1.2895
 9324TIP3   OH227935   5.540   3.815   3.963  0.0854 -0.6116 -0.6086
 9324TIP3    H127936   5.578   3.755   3.899 -0.3301 -0.5890 -0.8816
 9324TIP3    H227937   5.515   3.892   3.912 -0.6786 -0.7824 -0.5116
 9325TIP3   OH227938   4.954   0.051   4.123 -0.2137  0.2951  0.0935
 9325TIP3    H127939   4.985   0.139   4.147  1.0442 -0.1316  0.1093
 9325TIP3    H227940   4.860   0.054   4.139 -0.1274  1.5113  0.5063
 9326TIP3   OH227941   3.894   6.581   3.023 -0.3355  0.2506 -0.2855
 9326TIP3    H127942   3.941   6.664   3.018 -0.7146  0.4613 -0.4217
 9326TIP3    H227943   3.936   6.526   2.957  0.5069  0.0218  0.4205
 9327TIP3   OH227944   0.939   4.406   5.340 -0.3968  0.9812  0.6384
 9327TIP3    H127945   0.898   4.328   5.379 -0.0274  0.5648  0.2160
 9327TIP3    H227946   1.018   4.420   5.391  0.7351 -0.2918 -0.6438
 9328TIP3   OH227947   2.441   1.147   2.201 -0.2314 -0.1975  0.3752
 9328TIP3    H127948   2.345   1.146   2.206 -0.1946  0.7845  2.3761
 9328TIP3    H227949   2.461   1.217   2.139 -0.7862 -1.8851 -1.7968
 9329TIP3   OH227950   7.172   0.065   3.126  0.2019  0.0506 -0.0036
 9329TIP3    H127951   7.181   0.139   3.186 -0.6674 -0.3350  0.6360
 9329TIP3    H227952   7.261   0.038   3.107  0.5690 -1.2225  2.9280
 9330TIP3   OH227953   1.669   3.530   5.624  0.4971  0.0932  0.5251
 9330TIP3    H127954   1.633   3.525   5.535  2.3325 -0.2241 -0.2408
 9330TIP3    H227955   1.615   3.470   5.674 -0.0572 -0.3597 -0.5685
 9331TIP3   OH227956   4.146   2.861   5.814 -0.0828 -0.4039  0.1407
 9331TIP3    H127957   4.239   2.837   5.806  0.1629  0.5756 -0.0602
 9331TIP3    H227958   4.131   2.922   5.742 -0.5573  0.4118  0.9121
 9332TIP3   OH227959   3.287   3.400   0.634  1.2732 -0.2462  0.7006
 9332TIP3    H127960   3.326   3.420   0.719  2.3048  0.0621  0.1700
 9332TIP3    H227961   3.324   3.315   0.611  1.3112 -0.1452  0.3863
 9333TIP3   OH227962   5.855   3.375   4.381  0.3746  0.1245 -0.4179
 9333TIP3    H127963   5.853   3.471   4.379 -0.2162  0.1253  0.0443
 9333TIP3    H227964   5.938   3.354   4.424 -0.3899  0.4691  1.3110
 9334TIP3   OH227965   2.767   3.976   1.566 -0.2806 -1.1239  0.5235
 9334TIP3    H127966   2.824   3.899   1.568  1.4496  0.0958  1.6779
 9334TIP3    H227967   2.778   4.016   1.652 -0.8850  0.5591 -0.1317
 9335TIP3   OH227968   4.535   2.571   2.932 -0.0764  0.8118 -0.7968
 9335TIP3    H127969   4.589   2.642   2.899 -2.0831  3.7474  1.7002
 9335TIP3    H227970   4.471   2.613   2.989 -1.9105 -2.9567  0.2922
 9336TIP3   OH227971   3.916   6.204   5.646  0.3707 -0.1810  0.4090
 9336TIP3    H127972   3.942   6.179   5.735  0.1650 -2.4522 -0.1002
 9336TIP3    H227973   3.968   6.282   5.627  1.3409 -0.3746  2.0654
 9337TIP3   OH227974   1.578   5.819   5.417  0.1863  0.5208 -0.3915
 9337TIP3    H127975   1.489   5.815   5.452 -0.0966  0.9321 -1.0500
 9337TIP3    H227976   1.616   5.733   5.438  0.3230  1.0360  1.6426
 9338TIP3   OH227977   3.668   3.580   2.559  0.2332  0.2332  0.3236
 9338TIP3    H127978   3.579   3.597   2.591  0.3734  1.3059  0.1613
 9338TIP3    H227979   3.693   3.660   2.514  0.3103 -0.9635 -1.9168
 9339TIP3   OH227980   1.471   6.297   5.250  0.1933  0.5584 -0.1511
 9339TIP3    H127981   1.490   6.282   5.158  0.0292 -1.9865  0.1525
 9339TIP3    H227982   1.380   6.327   5.251 -1.4601 -3.6762 -0.7141
 9340TIP3   OH227983   4.927   6.239   3.685  0.0139 -0.1556  0.1111
 9340TIP3    H127984   4.852   6.205   3.733  0.7504 -1.3603  0.4700
 9340TIP3    H227985   4.990   6.166   3.684  0.4426  0.1724 -1.7705
 9341TIP3   OH227986   5.971   2.944   4.098  0.0096  0.4547  0.1647
 9341TIP3    H127987   5.876   2.945   4.114  0.0739  0.4546  0.5432
 9341TIP3    H227988   5.981   2.889   4.020 -0.1458 -1.0431  1.1585
 9342TIP3   OH227989   4.846   6.292   0.385  0.0409 -0.0107  0.0558
 9342TIP3    H127990   4.873   6.375   0.347 -0.5562  0.1861  0.0532
 9342TIP3    H227991   4.898   6.284   0.465  1.5691 -0.5939 -0.9405
 9343TIP3   OH227992   1.263   3.329   0.356 -0.1502  0.3232  0.5546
 9343TIP3    H127993   1.283   3.281   0.436  0.6303 -0.1454  0.0915
 9343TIP3    H227994   1.295   3.273   0.286 -2.4288 -0.1080 -0.2180
 9344TIP3   OH227995   6.594   0.586   4.063 -0.1078 -0.2213  0.2999
 9344TIP3    H127996   6.626   0.667   4.023 -1.1158 -0.1281 -0.3298
 9344TIP3    H227997   6.606   0.519   3.995  2.0878 -0.9598  1.2892
 9345TIP3   OH227998   6.600   1.910   0.874  0.3273  0.1801  0.0836
 9345TIP3    H127999   6.686   1.951   0.872 -0.0189  0.9817  0.8075
 9345TIP3    H228000   6.596   1.857   0.794  2.6831 -2.3859  1.5224
 9346TIP3   OH228001   0.941   2.588   3.202  0.4682  0.1584  0.4659
 9346TIP3    H128002   0.959   2.540   3.122  1.1251  1.0374  0.0734
 9346TIP3    H228003   0.944   2.680   3.177 -4.1224  0.5622  0.4095
 9347TIP3   OH228004   5.949   4.362   1.745 -0.2101 -0.5657  0.2526
 9347TIP3    H128005   5.985   4.394   1.662 -0.8360  1.1242  0.5787
 9347TIP3    H228006   5.948   4.267   1.737  1.9859 -0.5612 -0.7238
 9348TIP3   OH228007   0.972   4.412   2.634 -0.2444 -0.0908 -0.2098
 9348TIP3    H128008   0.910   4.462   2.580  0.0043 -1.8128 -2.2200
 9348TIP3    H228009   0.973   4.458   2.718 -1.6989  1.9287 -1.2096
 9349TIP3   OH228010   0.110   4.493   1.172  0.1597  0.2522 -0.2305
 9349TIP3    H128011   0.093   4.573   1.123 -0.6208  0.4199  0.2853
 9349TIP3    H228012   0.051   4.499   1.248 -0.2821 -1.0405 -0.4428
 9350TIP3   OH228013   1.746   3.964   5.446 -0.1952  0.0206 -0.2984
 9350TIP3    H128014   1.701   4.003   5.371 -0.0948  0.0884 -0.3237
 9350TIP3    H228015   1.771   4.038   5.501 -0.0306 -0.0086 -0.3313
 9351TIP3   OH228016   3.643   4.289   0.207  0.1654  0.0849  0.3272
 9351TIP3    H128017   3.605   4.313   0.123 -1.1385  0.0405  0.8767
 9351TIP3    H228018   3.642   4.193   0.207 -0.4774  0.0873  0.6622
 9352TIP3   OH228019   7.094   3.143   4.521 -0.1948  0.1163  0.0965
 9352TIP3    H128020   7.156   3.212   4.497  0.3721 -0.4687 -0.1406
 9352TIP3    H228021   7.046   3.125   4.441  1.2569 -1.3846 -0.4803
 9353TIP3   OH228022   4.340   3.118   2.096 -0.0247  0.3646  0.2417
 9353TIP3    H128023   4.340   3.029   2.061 -1.1950  0.6843 -0.6523
 9353TIP3    H228024   4.421   3.157   2.063  0.2146 -0.1948  0.1612
 9354TIP3   OH228025   2.323   2.013   4.921  0.1159  0.2901 -0.9931
 9354TIP3    H128026   2.289   1.975   4.840 -0.8929 -0.5163 -0.2142
 9354TIP3    H228027   2.330   1.938   4.981  0.9989  0.8477 -0.3765
 9355TIP3   OH228028   6.573   2.050   0.310 -0.1281  0.3164  0.4166
 9355TIP3    H128029   6.517   2.111   0.261 -0.8932 -0.9263 -0.3151
 9355TIP3    H228030   6.554   2.069   0.402 -0.7794  0.7987  0.1940
 9356TIP3   OH228031   2.628   6.121   4.706  0.4005  0.1679  0.3141
 9356TIP3    H128032   2.654   6.089   4.792  1.0471  1.2222  0.5358
 9356TIP3    H228033   2.616   6.215   4.718  1.2500  0.4618 -0.9069
 9357TIP3   OH228034   7.102   0.868   1.827  0.1957  0.2789 -0.5126
 9357TIP3    H128035   7.028   0.921   1.856  0.2724  0.1113  0.0010
 9357TIP3    H228036   7.116   0.805   1.898 -0.0919 -0.6355 -1.2527
 9358TIP3   OH228037   4.957   3.241   4.892 -0.1856  0.2966  0.1474
 9358TIP3    H128038   5.020   3.188   4.941 -0.5604 -0.1829  0.1131
 9358TIP3    H228039   4.983   3.331   4.911 -0.4314  0.1299  1.3767
 9359TIP3   OH228040   6.857   6.709   2.811 -0.0663 -0.0884  0.1025
 9359TIP3    H128041   6.847   6.661   2.729 -1.3377 -0.4541  0.4431
 9359TIP3    H228042   6.923   6.659   2.860  2.8934  1.7214 -1.7720
 9360TIP3   OH228043   5.516   6.580   1.927 -0.1951 -0.3200 -0.1466
 9360TIP3    H128044   5.466   6.625   1.994 -3.0075 -3.7631  0.4013
 9360TIP3    H228045   5.600   6.561   1.968 -0.8103  0.0909  1.3744
 9361TIP3   OH228046   6.934   2.967   2.834 -0.4328  0.5565 -0.0435
 9361TIP3    H128047   6.970   2.927   2.913  0.1878  0.3958 -0.4057
 9361TIP3    H228048   6.997   2.946   2.765 -0.8957  0.8202 -0.5538
 9362TIP3   OH228049   4.064   3.734   5.588  0.3972  0.3504  0.0915
 9362TIP3    H128050   4.104   3.660   5.633 -0.6428 -0.4194 -0.2281
 9362TIP3    H228051   4.049   3.799   5.657 -0.1487 -0.3706  0.6630
 9363TIP3   OH228052   7.141   6.543   0.497  0.2848  0.2509 -0.3143
 9363TIP3    H128053   7.189   6.491   0.433  0.9336  0.4485  0.0055
 9363TIP3    H228054   7.163   6.503   0.582 -0.3711  0.1431 -0.1898
 9364TIP3   OH228055   1.078   2.921   4.495 -0.1153 -0.1133 -0.0956
 9364TIP3    H128056   1.148   2.940   4.433 -0.0880 -1.5467 -0.5365
 9364TIP3    H228057   1.115   2.855   4.554 -0.5967  0.2359  0.6249
 9365TIP3   OH228058   1.016   5.408   3.221 -0.3811  0.3590 -0.1200
 9365TIP3    H128059   1.027   5.437   3.311 -0.0251 -1.3959  0.4526
 9365TIP3    H228060   0.928   5.435   3.197 -0.4161  0.9952  0.6977
 9366TIP3   OH228061   4.424   4.734   4.223  0.2828  0.6521 -0.1274
 9366TIP3    H128062   4.335   4.725   4.188  0.3712  1.2529 -0.5272
 9366TIP3    H228063   4.411   4.767   4.312  0.0309 -1.5825  0.7262
 9367TIP3   OH228064   7.196   5.723   0.944 -0.2376  0.1346  0.2059
 9367TIP3    H128065   7.156   5.637   0.932  1.8604 -1.0781  1.4038
 9367TIP3    H228066   7.164   5.775   0.870 -1.0309 -1.8496 -0.9089
 9368TIP3   OH228067   0.958   5.207   1.598  0.1647 -0.3747  0.0471
 9368TIP3    H128068   1.048   5.174   1.594  0.4941  0.3840  0.8148
 9368TIP3    H228069   0.904   5.132   1.572  0.8904 -1.5533  1.7016
 9369TIP3   OH228070   0.414   4.674   1.444  0.2256 -0.1170  0.3360
 9369TIP3    H128071   0.497   4.659   1.489 -0.0195  0.1902  0.9005
 9369TIP3    H228072   0.355   4.608   1.482  0.1399 -0.1596  0.1270
 9370TIP3   OH228073   6.210   0.408   3.392 -0.2265 -0.2985  0.1337
 9370TIP3    H128074   6.276   0.456   3.442  2.2752 -0.4805 -2.6801
 9370TIP3    H228075   6.181   0.470   3.325 -1.6108 -0.8170  0.2267
 9371TIP3   OH228076   4.324   2.436   3.465 -0.1245 -0.1691  0.0608
 9371TIP3    H128077   4.256   2.500   3.448  1.5232  1.7661  0.4329
 9371TIP3    H228078   4.319   2.375   3.391 -2.7125 -0.5872  0.4785
 9372TIP3   OH228079   0.186   1.484   5.772 -0.0622  0.3629  0.6676
 9372TIP3    H128080   0.232   1.537   5.707  0.9426  0.0745  1.1253
 9372TIP3    H228081   0.200   1.529   5.855 -0.6504  0.2943  0.8059
 9373TIP3   OH228082   3.125   3.327   2.020  0.5530  0.2644  0.6125
 9373TIP3    H128083   3.121   3.388   2.093  0.4503 -0.9898  1.7016
 9373TIP3    H228084   3.133   3.382   1.943 -0.1323  1.6688  1.4958
 9374TIP3   OH228085   6.708   0.102   5.564 -0.5003  0.4382  0.3722
 9374TIP3    H128086   6.793   0.096   5.607 -0.9299  0.3143  1.2176
 9374TIP3    H228087   6.693   0.014   5.529 -0.0002  0.6257 -0.3501
 9375TIP3   OH228088   2.871   1.671   5.636  0.2277 -0.3057 -0.2420
 9375TIP3    H128089   2.845   1.584   5.609 -0.1868 -0.3836  0.3759
 9375TIP3    H228090   2.917   1.658   5.719 -1.5777  0.2211  0.8944
 9376TIP3   OH228091   3.935   0.491   5.090  0.0986  0.0504 -0.3423
 9376TIP3    H128092   3.862   0.531   5.044  1.5596  1.5766 -1.4733
 9376TIP3    H228093   3.894   0.435   5.156 -2.0579  0.5922 -1.1313
 9377TIP3   OH228094   6.398   4.624   4.778  0.5303 -0.3594 -0.8518
 9377TIP3    H128095   6.453   4.699   4.756 -1.8413  2.5299  2.0624
 9377TIP3    H228096   6.448   4.577   4.845 -0.1995  2.0420  1.5243
 9378TIP3   OH228097   5.802   3.209   5.368  0.8730  0.5873 -0.2452
 9378TIP3    H128098   5.787   3.227   5.461 -0.3441  1.9541 -0.6631
 9378TIP3    H228099   5.870   3.271   5.342  0.6125  0.7892 -0.4496
 9379TIP3   OH228100   0.809   1.168   1.705  0.5740 -0.9748  0.1678
 9379TIP3    H128101   0.743   1.226   1.744 -1.2844 -1.6524 -1.7612
 9379TIP3    H228102   0.833   1.107   1.775  0.3666  0.2687  1.3625
 9380TIP3   OH228103   5.861   6.663   0.575  0.3625 -0.0273 -0.0162
 9380TIP3    H128104   5.897   6.698   0.657  0.7050  0.8350 -0.5171
 9380TIP3    H228105   5.829   6.576   0.598  2.1040 -0.5487  0.6275
 9381TIP3   OH228106   2.047   5.426   2.789 -0.2845  0.0030  0.2154
 9381TIP3    H128107   2.018   5.335   2.795  2.6928 -1.0935  0.0897
 9381TIP3    H228108   2.059   5.454   2.880 -0.4215 -0.0094  0.2374
 9382TIP3   OH228109   5.772   3.248   0.151  0.1978 -0.2611 -0.0394
 9382TIP3    H128110   5.794   3.205   0.234 -0.2640 -0.2061  0.1189
 9382TIP3    H228111   5.815   3.195   0.084  1.5290  0.3496  0.3038
 9383TIP3   OH228112   7.206   3.820   3.470  0.0683  0.2709 -0.3067
 9383TIP3    H128113   7.170   3.740   3.430 -1.1187  0.9839 -0.7056
 9383TIP3    H228114   7.176   3.891   3.413  1.4549  0.9840 -0.1925
 9384TIP3   OH228115   4.037   0.208   2.254 -0.4792  0.2173 -0.3479
 9384TIP3    H128116   3.974   0.244   2.191  0.4048  2.0373 -0.2659
 9384TIP3    H228117   4.022   0.259   2.334  1.1774  0.8293 -0.3878
 9385TIP3   OH228118   5.639   1.923   4.842 -0.1234 -0.4514  0.0106
 9385TIP3    H128119   5.655   1.834   4.811  1.8629  0.6796 -2.5287
 9385TIP3    H228120   5.562   1.951   4.792  0.3248 -0.1755 -0.5392
 9386TIP3   OH228121   2.739   0.553   3.265  0.0683  0.5386  0.0911
 9386TIP3    H128122   2.705   0.601   3.340  0.6753  1.0733  0.0353
 9386TIP3    H228123   2.767   0.621   3.203  0.1306  0.1091 -0.3628
 9387TIP3   OH228124   3.231   3.712   1.247 -0.5805 -0.5081  0.1561
 9387TIP3    H128125   3.231   3.806   1.231  0.6740 -0.3821  0.7682
 9387TIP3    H228126   3.318   3.694   1.283 -0.3197 -2.1078 -1.1639
 9388TIP3   OH228127   0.242   1.553   4.677  0.0028 -0.4209 -0.1941
 9388TIP3    H128128   0.327   1.539   4.636  1.8379  1.6488  2.5241
 9388TIP3    H228129   0.225   1.472   4.726  0.4923 -0.7711 -0.5958
 9389TIP3   OH228130   1.225   1.221   4.917 -0.2661  0.0959  0.0546
 9389TIP3    H128131   1.167   1.270   4.859 -0.8753  0.6411  1.1159
 9389TIP3    H228132   1.313   1.248   4.890 -0.5792  1.8281  0.6207
 9390TIP3   OH228133   6.881   4.682   2.024 -0.5459 -0.1515 -0.0225
 9390TIP3    H128134   6.960   4.729   1.998 -1.3380  1.0718 -0.2957
 9390TIP3    H228135   6.845   4.733   2.097 -1.4375 -0.3090 -0.3366
 9391TIP3   OH228136   0.883   0.529   0.508  0.3134  0.1934  0.4172
 9391TIP3    H128137   0.936   0.451   0.524 -1.5014 -1.5071 -1.3287
 9391TIP3    H228138   0.827   0.506   0.434 -0.4473  3.1104 -0.0688
 9392TIP3   OH228139   0.188   5.254   1.703  0.2415 -0.7807 -0.2246
 9392TIP3    H128140   0.105   5.212   1.728  0.4600 -0.8884  0.3278
 9392TIP3    H228141   0.227   5.194   1.640 -0.0995 -0.7288 -0.4924
 9393TIP3   OH228142   4.562   5.778   2.536  0.3827  0.1796 -0.6822
 9393TIP3    H128143   4.483   5.742   2.496  0.0314  0.4241 -0.2142
 9393TIP3    H228144   4.633   5.750   2.478 -0.1631  0.9146 -1.7493
 9394TIP3   OH228145   6.014   5.638   5.825  0.1559 -0.2542  0.6607
 9394TIP3    H128146   5.930   5.592   5.823 -0.6653  1.0851  2.0492
 9394TIP3    H228147   6.049   5.620   5.912  0.2217  1.0252  0.9077
 9395TIP3   OH228148   4.980   1.936   5.780 -0.0606 -0.0335 -0.3162
 9395TIP3    H128149   4.935   1.875   5.722  0.1730  0.3988 -0.9657
 9395TIP3    H228150   4.910   1.989   5.819 -0.1339  0.7232 -1.4201
 9396TIP3   OH228151   6.446   0.994   0.657  0.0732  0.0440  0.1246
 9396TIP3    H128152   6.361   0.954   0.636  0.3983  0.5470 -2.4581
 9396TIP3    H228153   6.497   0.922   0.694 -0.6364 -0.9237 -0.7121
 9397TIP3   OH228154   3.449   4.931   2.364 -0.2671  0.5489 -0.2643
 9397TIP3    H128155   3.520   4.873   2.393  0.4738  1.6903  0.2733
 9397TIP3    H228156   3.376   4.908   2.422  0.2430  0.6472  0.4339
 9398TIP3   OH228157   4.139   5.678   3.862 -0.5074  0.2460  0.2993
 9398TIP3    H128158   4.096   5.593   3.877 -0.6873 -0.2167 -2.4171
 9398TIP3    H228159   4.230   5.663   3.889 -0.6511 -0.6620  0.3238
 9399TIP3   OH228160   0.164   2.047   0.417  0.4168 -0.3205  0.0984
 9399TIP3    H128161   0.091   2.107   0.428  0.8522  0.2958 -0.3128
 9399TIP3    H228162   0.191   2.025   0.506  0.1084 -0.0901  0.2494
 9400TIP3   OH228163   1.253   3.963   5.800  0.1905  0.3500  0.1157
 9400TIP3    H128164   1.326   3.975   5.861  1.0054 -1.3935 -0.4446
 9400TIP3    H228165   1.289   3.991   5.716  0.6986 -1.6689 -0.3986
 9401TIP3   OH228166   2.754   4.216   4.220 -0.1025  0.6383 -0.5983
 9401TIP3    H128167   2.675   4.246   4.175 -0.9229  0.2648  0.5680
 9401TIP3    H228168   2.749   4.255   4.307  0.7641  0.2386 -0.3565
 9402TIP3   OH228169   5.604   1.262   3.371  0.2662  0.3800 -0.3343
 9402TIP3    H128170   5.624   1.342   3.322  0.4749  1.2293  1.0903
 9402TIP3    H228171   5.682   1.246   3.423  0.6711 -1.4169 -1.4209
 9403TIP3   OH228172   3.427   4.076   1.098  0.4408  0.6149  0.1109
 9403TIP3    H128173   3.395   4.027   1.174  0.9461 -0.4426 -0.3482
 9403TIP3    H228174   3.373   4.156   1.098 -0.5509 -0.0217  0.7446
 9404TIP3   OH228175   5.934   6.469   1.356  0.4644  0.2419 -0.3458
 9404TIP3    H128176   5.891   6.538   1.304 -0.9065  0.0245  0.4545
 9404TIP3    H228177   5.866   6.439   1.416  0.9230 -2.0634 -0.8921
 9405TIP3   OH228178   0.644   4.580   1.533 -0.1787  0.0895  0.0225
 9405TIP3    H128179   0.724   4.631   1.545  0.0197 -0.2305  0.0705
 9405TIP3    H228180   0.655   4.539   1.448 -1.8325  2.8134 -1.6678
 9406TIP3   OH228181   3.711   2.122   3.011 -0.0448  0.1891 -0.4545
 9406TIP3    H128182   3.699   2.213   2.983 -1.3663 -0.4380 -2.0835
 9406TIP3    H228183   3.805   2.115   3.027 -0.1097  2.2395  1.2897
 9407TIP3   OH228184   2.031   0.894   5.237  0.4709 -0.0834  0.0162
 9407TIP3    H128185   2.115   0.876   5.194  0.6254 -0.2528  0.3893
 9407TIP3    H228186   2.011   0.815   5.287  0.5170  0.2814  0.6253
 9408TIP3   OH228187   6.362   6.441   2.917 -0.3731 -0.1849  0.0406
 9408TIP3    H128188   6.313   6.501   2.860  0.1303 -1.7568 -2.2173
 9408TIP3    H228189   6.393   6.372   2.857  0.3017 -1.9133  2.2588
 9409TIP3   OH228190   6.648   0.624   2.582 -0.1268  0.1191  0.9859
 9409TIP3    H128191   6.740   0.616   2.605  0.0848  1.9867  0.9043
 9409TIP3    H228192   6.615   0.696   2.635 -1.4062 -0.1481  0.6054
 9410TIP3   OH228193   7.120   6.491   5.169  0.1200 -0.1841  0.1213
 9410TIP3    H128194   7.191   6.428   5.183 -0.7484 -1.7326 -1.8768
 9410TIP3    H228195   7.161   6.562   5.119  0.0585 -1.9152 -2.6550
 9411TIP3   OH228196   7.016   0.695   3.644 -0.0731  0.2906 -0.4281
 9411TIP3    H128197   7.083   0.685   3.576  0.6159  1.8554 -0.0292
 9411TIP3    H228198   7.065   0.723   3.722 -0.6737 -2.5553  1.1283
 9412TIP3   OH228199   4.392   4.269   3.139 -0.2734 -0.2297 -0.2332
 9412TIP3    H128200   4.455   4.200   3.119 -0.5660 -0.9717  1.2560
 9412TIP3    H228201   4.358   4.297   3.054  1.9511  0.1111 -1.0782
 9413TIP3   OH228202   5.284   3.896   2.426  0.2733 -0.0959 -0.0922
 9413TIP3    H128203   5.260   3.988   2.427  2.0864  0.4686 -1.7033
 9413TIP3    H228204   5.293   3.874   2.333  1.3044 -1.4735  0.2843
 9414TIP3   OH228205   3.524   0.500   2.488  0.1914 -0.5710  0.6863
 9414TIP3    H128206   3.609   0.459   2.504  0.5819 -0.0782 -0.0506
 9414TIP3    H228207   3.481   0.499   2.573  1.6303  0.7336  1.4827
 9415TIP3   OH228208   0.740   3.292   2.935  0.1835 -0.3138 -0.3956
 9415TIP3    H128209   0.793   3.264   3.010  2.1884 -1.3277 -2.0838
 9415TIP3    H228210   0.689   3.215   2.912 -0.4064 -0.0127 -0.1099
 9416TIP3   OH228211   0.251   4.509   0.514 -0.1283  0.2014  0.2735
 9416TIP3    H128212   0.248   4.438   0.450 -1.3447 -0.2957  0.8330
 9416TIP3    H228213   0.264   4.465   0.598  0.7546  0.7881  0.4590
 9417TIP3   OH228214   2.307   3.157   1.333 -0.4363 -0.0828 -0.3082
 9417TIP3    H128215   2.214   3.178   1.335 -0.4324 -0.0950 -0.0018
 9417TIP3    H228216   2.324   3.134   1.241 -0.4987  0.9742 -0.5939
 9418TIP3   OH228217   3.763   1.462   4.297  0.0486 -0.5097  0.0175
 9418TIP3    H128218   3.784   1.491   4.386 -0.7985  0.4170 -0.0696
 9418TIP3    H228219   3.838   1.409   4.271  2.0452  2.1447 -0.0563
 9419TIP3   OH228220   2.162   4.262   2.098 -0.4736 -0.1923 -0.3002
 9419TIP3    H128221   2.157   4.175   2.139 -1.0308 -0.2601 -0.5028
 9419TIP3    H228222   2.254   4.288   2.109 -0.4830 -0.4602  0.4635
 9420TIP3   OH228223   3.584   5.630   1.689 -0.0292 -0.3272 -0.2346
 9420TIP3    H128224   3.622   5.711   1.724 -1.4624  0.3323 -0.1447
 9420TIP3    H228225   3.567   5.649   1.597 -1.4354 -0.1103  0.0561
 9421TIP3   OH228226   3.427   2.116   3.121  0.6693  0.0494 -0.5642
 9421TIP3    H128227   3.404   2.118   3.214 -0.7030  0.0243 -0.8847
 9421TIP3    H228228   3.520   2.138   3.119  0.9258 -0.7453  0.8745
 9422TIP3   OH228229   3.012   2.393   3.079 -0.0202 -0.2181  0.0782
 9422TIP3    H128230   2.971   2.480   3.089  1.8498  0.7401 -0.1397
 9422TIP3    H228231   2.964   2.352   3.008 -2.0774 -0.0939  1.3092
 9423TIP3   OH228232   0.595   1.194   4.497  0.1381  0.0278  0.8122
 9423TIP3    H128233   0.632   1.249   4.566 -0.5934  0.1049  1.1551
 9423TIP3    H228234   0.652   1.117   4.495  1.3706  0.9234  0.1019
 9424TIP3   OH228235   4.544   2.989   1.451 -0.0591 -0.0859 -0.1908
 9424TIP3    H128236   4.449   2.984   1.464  0.2278 -1.8875  1.6900
 9424TIP3    H228237   4.555   3.049   1.377 -2.6075  0.8512  0.0947
 9425TIP3   OH228238   2.637   4.366   1.930 -0.4869  0.1491  0.0571
 9425TIP3    H128239   2.596   4.393   1.848 -0.1859  1.3282  0.2703
 9425TIP3    H228240   2.729   4.391   1.920 -0.2532 -0.5735  0.3823
 9426TIP3   OH228241   4.511   2.051   3.383 -0.2629  0.0446 -0.0854
 9426TIP3    H128242   4.559   1.997   3.321  0.7065 -0.5669  1.1605
 9426TIP3    H228243   4.550   2.031   3.468 -1.8925  0.4533  0.8140
 9427TIP3   OH228244   4.046   3.151   5.143 -0.3084  0.1646  0.0275
 9427TIP3    H128245   4.115   3.092   5.171  0.6221  1.6756  1.1072
 9427TIP3    H228246   3.966   3.114   5.180  0.4583  0.3378  1.9693
 9428TIP3   OH228247   3.995   0.700   3.515 -0.6831 -0.3947 -0.1124
 9428TIP3    H128248   3.939   0.773   3.487 -1.3236 -0.3540  1.1905
 9428TIP3    H228249   4.048   0.737   3.586 -1.3842 -1.3001  0.9255
 9429TIP3   OH228250   4.628   6.253   3.525 -0.0446  0.3415  0.3637
 9429TIP3    H128251   4.542   6.292   3.542 -0.5379 -0.6790  0.2734
 9429TIP3    H228252   4.664   6.237   3.612 -0.6266 -0.6692  0.4364
 9430TIP3   OH228253   3.819   5.316   0.134  0.3917 -0.2419 -0.1111
 9430TIP3    H128254   3.891   5.368   0.170  0.2232 -0.5022  0.6138
 9430TIP3    H228255   3.789   5.263   0.208 -0.5960 -0.0761 -0.3879
 9431TIP3   OH228256   1.871   3.208   0.349  0.1168 -0.4924 -0.5566
 9431TIP3    H128257   1.820   3.288   0.355  1.7749  0.5401  0.8929
 9431TIP3    H228258   1.908   3.210   0.261 -0.2368  0.0910 -0.6981
 9432TIP3   OH228259   3.088   2.174   5.203  0.5486  0.6016  0.2004
 9432TIP3    H128260   3.168   2.169   5.255  2.2129  0.9119 -2.1885
 9432TIP3    H228261   3.115   2.214   5.121 -2.5152  2.7658  0.0921
 9433TIP3   OH228262   1.463   0.309   5.415 -0.2735 -0.0225 -0.3859
 9433TIP3    H128263   1.418   0.312   5.332 -1.0367  0.0941  0.0268
 9433TIP3    H228264   1.400   0.271   5.476  0.4767 -0.6665  0.0176
 9434TIP3   OH228265   4.609   1.261   3.357  0.7981 -0.7433 -0.0243
 9434TIP3    H128266   4.619   1.186   3.298  1.2303 -0.4688 -0.3045
 9434TIP3    H228267   4.615   1.338   3.300  1.0743 -0.4781  0.3527
 9435TIP3   OH228268   1.262   2.437   3.770  0.0553 -0.5422  0.6710
 9435TIP3    H128269   1.255   2.427   3.675  2.3217 -0.4603  0.4432
 9435TIP3    H228270   1.256   2.531   3.785 -1.8142 -0.6495  0.8045
 9436TIP3   OH228271   5.920   2.749   1.960 -0.0602  0.4665  0.4117
 9436TIP3    H128272   5.966   2.800   1.893 -0.4094 -0.9810 -0.9987
 9436TIP3    H228273   5.871   2.814   2.010  0.8956  1.6911 -0.1674
 9437TIP3   OH228274   4.564   3.647   5.659 -0.1161 -0.4944 -0.3397
 9437TIP3    H128275   4.642   3.689   5.624  1.3072 -2.4515  0.2602
 9437TIP3    H228276   4.563   3.671   5.752 -0.6982  0.1393 -0.4964
 9438TIP3   OH228277   6.046   1.806   0.425 -0.5044 -0.4785  0.4125
 9438TIP3    H128278   5.967   1.834   0.380  1.1024  0.1722 -2.2452
 9438TIP3    H228279   6.076   1.729   0.377 -0.7050 -2.2365  2.8703
 9439TIP3   OH228280   5.359   5.568   3.565 -0.6885  0.3761  0.2094
 9439TIP3    H128281   5.365   5.472   3.568 -0.4323  0.2796 -1.9395
 9439TIP3    H228282   5.273   5.588   3.601 -0.5276 -0.6124  1.1992
 9440TIP3   OH228283   2.844   6.336   2.818  0.1968  0.0971  0.3171
 9440TIP3    H128284   2.753   6.307   2.826 -0.0884  1.1863  1.3192
 9440TIP3    H228285   2.860   6.338   2.724 -0.6814 -0.5027  0.1421
 9441TIP3   OH228286   2.005   2.896   0.358  0.4096 -0.1402  0.3808
 9441TIP3    H128287   2.057   2.962   0.403  0.5502 -0.1198  0.1874
 9441TIP3    H228288   1.918   2.936   0.350  1.2516  1.3769 -2.5737
 9442TIP3   OH228289   3.931   1.939   4.366  0.3313  0.2922  0.0037
 9442TIP3    H128290   4.016   1.984   4.371  0.6661 -0.4155  0.8362
 9442TIP3    H228291   3.868   2.003   4.399  0.3780  1.1592 -1.4614
 9443TIP3   OH228292   5.784   4.789   2.941  0.1155 -0.7280  0.1861
 9443TIP3    H128293   5.766   4.722   3.008  0.0338 -2.8922 -1.8776
 9443TIP3    H228294   5.865   4.760   2.899  0.3141  0.7358 -0.5029
 9444TIP3   OH228295   5.134   5.097   5.746  0.0849 -0.0970 -0.2313
 9444TIP3    H128296   5.158   5.017   5.699 -2.9146 -0.4940 -1.3077
 9444TIP3    H228297   5.098   5.066   5.830 -0.0164  0.1900 -0.1663
 9445TIP3   OH228298   0.332   1.498   5.183 -0.5343 -0.1208 -0.0104
 9445TIP3    H128299   0.378   1.475   5.263  1.1037  0.4400 -0.7524
 9445TIP3    H228300   0.304   1.589   5.196 -1.3069 -0.4020  0.3654
 9446TIP3   OH228301   5.100   3.503   2.629  0.0947  0.8580  0.4100
 9446TIP3    H128302   5.090   3.516   2.535 -0.3940  0.1635  0.3620
 9446TIP3    H228303   5.024   3.547   2.667 -1.2965 -1.2808  0.2782
 9447TIP3   OH228304   5.039   5.537   2.069  0.0707 -0.0579  0.4260
 9447TIP3    H128305   5.123   5.495   2.050  0.4837  1.2714 -0.8888
 9447TIP3    H228306   5.018   5.510   2.158  0.4503 -2.7774 -0.1908
 9448TIP3   OH228307   0.667   6.094   4.219  0.2429  0.1298 -0.0380
 9448TIP3    H128308   0.673   6.087   4.123  0.7211  0.2811 -0.0208
 9448TIP3    H228309   0.746   6.142   4.244  0.3086 -0.2433  0.4716
 9449TIP3   OH228310   6.417   2.445   2.512 -0.5768 -0.2944  0.1042
 9449TIP3    H128311   6.370   2.476   2.435 -0.9955  0.6778  0.7332
 9449TIP3    H228312   6.505   2.480   2.502 -0.4436 -0.7259 -0.2547
 9450TIP3   OH228313   4.288   0.130   2.168  0.2858 -0.3797  0.1884
 9450TIP3    H128314   4.204   0.134   2.215  0.4096 -1.1176  0.4848
 9450TIP3    H228315   4.351   0.167   2.230  0.1800  0.1715 -0.0328
 9451TIP3   OH228316   5.594   5.892   5.052  0.2036 -0.2186 -0.5084
 9451TIP3    H128317   5.681   5.933   5.060  1.0417 -1.9575 -0.2410
 9451TIP3    H228318   5.538   5.944   5.109  1.6969 -0.6620  1.4705
 9452TIP3   OH228319   6.696   0.314   1.665 -0.0038  0.0478  0.1892
 9452TIP3    H128320   6.741   0.398   1.668 -1.1104  0.6466  0.7246
 9452TIP3    H228321   6.604   0.336   1.646 -0.1559 -1.1050 -0.5785
 9453TIP3   OH228322   3.100   5.227   5.757 -0.4605  0.3006 -0.3789
 9453TIP3    H128323   3.048   5.230   5.838  0.5721  2.7807  0.2990
 9453TIP3    H228324   3.149   5.145   5.763 -0.0862  0.6179  1.7616
 9454TIP3   OH228325   4.534   1.174   2.692  0.0190  0.0735  0.2765
 9454TIP3    H128326   4.593   1.240   2.729  1.8199 -0.5149 -1.3855
 9454TIP3    H228327   4.520   1.202   2.601 -1.4379 -0.3900  0.3303
 9455TIP3   OH228328   4.264   3.013   3.927  0.0425 -0.2926  0.4146
 9455TIP3    H128329   4.318   2.938   3.952  0.6719 -0.0728 -0.2301
 9455TIP3    H228330   4.277   3.021   3.832  1.0240  1.3837  0.6377
 9456TIP3   OH228331   6.171   0.578   5.486  0.2056  0.1668 -0.0435
 9456TIP3    H128332   6.092   0.585   5.540 -0.8335 -0.9482 -1.3532
 9456TIP3    H228333   6.236   0.538   5.544 -0.1946  0.9827  1.0171
 9457TIP3   OH228334   3.109   0.579   0.757  0.2674  0.6011 -0.0549
 9457TIP3    H128335   3.079   0.635   0.685  2.1005  1.1313 -0.4592
 9457TIP3    H228336   3.033   0.571   0.814 -1.1835  0.3795 -1.9032
 9458TIP3   OH228337   0.629   3.999   4.193  0.1107 -0.0232  0.0644
 9458TIP3    H128338   0.578   4.041   4.124  0.5967 -0.8512 -0.8134
 9458TIP3    H228339   0.677   3.929   4.149  1.3605  0.1882  1.0223
 9459TIP3   OH228340   4.769   1.138   5.020 -0.6272  0.0462  0.5263
 9459TIP3    H128341   4.805   1.199   4.957  0.8819  0.3120  1.5872
 9459TIP3    H228342   4.730   1.068   4.967 -2.5442  1.9240 -0.7194
 9460TIP3   OH228343   5.915  -0.013   5.276  0.4035 -0.0552 -0.4876
 9460TIP3    H128344   5.852   0.033   5.332 -0.4698  0.0010 -1.4661
 9460TIP3    H228345   5.949   0.055   5.218  0.2642 -0.3417 -0.9168
 9461TIP3   OH228346   4.037   3.647   3.382  0.0997  0.1895  0.0451
 9461TIP3    H128347   3.944   3.631   3.397 -0.0497  0.2228 -0.7587
 9461TIP3    H228348   4.075   3.559   3.371 -0.2142  0.2202 -1.5945
 9462TIP3   OH228349   0.164   5.866   3.776  0.1017 -0.0408 -0.0642
 9462TIP3    H128350   0.201   5.844   3.691 -0.3420  0.8158 -0.4868
 9462TIP3    H228351   0.226   5.929   3.813  0.3200 -0.4466  0.2853
 9463TIP3   OH228352   5.916   6.302   5.149  0.5295 -0.2840  0.4022
 9463TIP3    H128353   6.011   6.317   5.142  0.5223  0.3719  1.4656
 9463TIP3    H228354   5.876   6.381   5.116  0.4086  0.2729  1.8048
 9464TIP3   OH228355   0.376   1.091   3.542  0.2884  0.1447  0.2263
 9464TIP3    H128356   0.347   1.086   3.633 -0.1408 -0.1124  0.0804
 9464TIP3    H228357   0.296   1.110   3.493  0.5220  0.3093 -0.0961
 9465TIP3   OH228358   0.966   0.085   2.657 -0.4344 -0.1255  0.6918
 9465TIP3    H128359   0.968   0.162   2.715  0.7414  0.3405  0.0722
 9465TIP3    H228360   0.875   0.057   2.658 -0.9271  1.3814  0.8068
 9466TIP3   OH228361   4.057   6.685   1.594 -0.0721  0.0557 -0.3989
 9466TIP3    H128362   4.086   6.772   1.567 -0.6140  0.6097  0.7707
 9466TIP3    H228363   4.086   6.628   1.523 -0.2803  1.2728 -1.5090
 9467TIP3   OH228364   4.304   5.544   2.066  0.4988 -0.5017 -0.2288
 9467TIP3    H128365   4.283   5.516   1.977 -0.8852  3.1759 -1.2583
 9467TIP3    H228366   4.218   5.552   2.109  1.0274 -0.5390  0.8763
 9468TIP3   OH228367   4.945   2.593   1.500  0.0311 -0.6537 -0.2884
 9468TIP3    H128368   4.977   2.505   1.520 -0.3870 -0.4134  1.6704
 9468TIP3    H228369   5.013   2.651   1.534 -0.6771 -0.2161  0.4312
 9469TIP3   OH228370   2.213   0.272   1.930 -0.4048  0.1731 -0.3126
 9469TIP3    H128371   2.144   0.273   1.997 -0.2752  1.7692 -0.1749
 9469TIP3    H228372   2.186   0.338   1.866  1.1784  1.1164 -0.0603
 9470TIP3   OH228373   2.122   0.886   3.983 -0.5000  0.0599  0.6426
 9470TIP3    H128374   2.042   0.902   3.931  0.0892 -0.1034 -0.3440
 9470TIP3    H228375   2.123   0.791   3.995  0.3918 -0.1467 -0.7971
 9471TIP3   OH228376   3.714   4.651   1.067 -0.0718 -0.7627  0.1714
 9471TIP3    H128377   3.758   4.637   1.151  0.5963 -0.6460 -0.1495
 9471TIP3    H228378   3.655   4.576   1.058  0.6371 -1.3491  0.2580
 9472TIP3   OH228379   6.548   5.511   4.705 -0.3623  0.1573 -0.5990
 9472TIP3    H128380   6.496   5.588   4.683 -1.1593 -0.4722 -0.9539
 9472TIP3    H228381   6.484   5.440   4.717  0.3649 -0.5029 -0.4856
 9473TIP3   OH228382   5.640   1.359   5.635 -0.6823  0.0854  0.8768
 9473TIP3    H128383   5.669   1.364   5.726 -0.9769  0.9068  0.9331
 9473TIP3    H228384   5.636   1.266   5.617 -1.7002 -0.1254  2.0553
 9474TIP3   OH228385   6.456   4.633   3.470  0.2480 -0.0248 -0.3445
 9474TIP3    H128386   6.454   4.587   3.554  0.8440 -2.3017 -1.4964
 9474TIP3    H228387   6.510   4.710   3.486 -1.0115  0.5259  1.7407
 9475TIP3   OH228388   2.410   2.360   2.657 -0.3304 -0.1179  0.4350
 9475TIP3    H128389   2.345   2.319   2.600 -0.8209 -1.3404  1.8002
 9475TIP3    H228390   2.369   2.440   2.689 -1.0652 -0.7137  1.0251
 9476TIP3   OH228391   0.974   4.090   4.705 -0.0519  0.3125  0.1111
 9476TIP3    H128392   1.025   4.055   4.779 -0.3355 -0.7589 -0.1838
 9476TIP3    H228393   0.993   4.184   4.705  0.1649  0.2825  1.3791
 9477TIP3   OH228394   5.159   2.451   3.983 -0.3339 -0.4857  0.4777
 9477TIP3    H128395   5.230   2.425   4.041 -0.8762 -0.1136  1.3364
 9477TIP3    H228396   5.143   2.374   3.929  0.3805 -0.7455  0.6246
 9478TIP3   OH228397   2.656   0.626   5.081  0.1390 -0.1213  0.7143
 9478TIP3    H128398   2.598   0.551   5.073 -2.2530  1.6974 -0.6556
 9478TIP3    H228399   2.645   0.656   5.171  0.6851 -1.0582  1.1032
 9479TIP3   OH228400   2.447   4.280   3.180 -0.0640 -0.3263 -0.4373
 9479TIP3    H128401   2.524   4.225   3.194  0.7688  0.8186 -0.3142
 9479TIP3    H228402   2.384   4.252   3.246  1.9956  1.8084  2.6948
 9480TIP3   OH228403   6.304   5.051   3.206 -0.5234 -0.1670 -0.1059
 9480TIP3    H128404   6.303   5.093   3.292 -1.2019  0.0907 -0.2325
 9480TIP3    H228405   6.307   4.958   3.225 -0.8089 -0.1145  0.2007
 9481TIP3   OH228406   5.460   2.472   0.833 -0.1502 -0.5251  0.1336
 9481TIP3    H128407   5.422   2.518   0.758  1.7208  1.0103  0.0730
 9481TIP3    H228408   5.457   2.380   0.808 -0.9524 -0.1706 -1.1653
 9482TIP3   OH228409   6.849   2.665   1.029  0.4843  0.8818 -0.0762
 9482TIP3    H128410   6.828   2.600   1.096  0.8545  2.0942  1.2762
 9482TIP3    H228411   6.900   2.617   0.964 -1.5147 -0.7858 -0.5210
 9483TIP3   OH228412   1.770   6.737   3.322 -0.0989 -0.0790 -0.4200
 9483TIP3    H128413   1.704   6.801   3.348 -1.6534 -0.9370 -2.0529
 9483TIP3    H228414   1.720   6.657   3.303  1.5939 -1.2566 -0.1886
 9484TIP3   OH228415   6.879   0.024   3.167  0.5385 -0.8109 -0.1367
 9484TIP3    H128416   6.899  -0.034   3.241  1.5097  0.6782  0.8316
 9484TIP3    H228417   6.965   0.049   3.133  0.1400 -0.0008 -0.5702
 9485TIP3   OH228418   2.866   0.303   2.136 -0.0069 -0.3828 -0.1908
 9485TIP3    H128419   2.787   0.321   2.085 -0.3132 -0.8045  0.1274
 9485TIP3    H228420   2.893   0.216   2.106  1.3613  0.4819 -1.5972
 9486TIP3   OH228421   4.601   1.655   1.472 -0.3348 -0.0061  0.3456
 9486TIP3    H128422   4.682   1.605   1.482 -0.1412  0.3351  0.4838
 9486TIP3    H228423   4.534   1.588   1.457 -0.1443 -0.3368  0.9214
 9487TIP3   OH228424   1.158   0.798   0.777 -0.2976 -0.3274  0.0220
 9487TIP3    H128425   1.214   0.742   0.723 -0.4198  0.1308 -0.5899
 9487TIP3    H228426   1.093   0.833   0.716  0.3206  1.2088  0.2004
 9488TIP3   OH228427   5.627   3.016   1.643 -0.0883 -0.5725 -0.2806
 9488TIP3    H128428   5.578   3.063   1.711 -1.5324 -1.2297 -0.8158
 9488TIP3    H228429   5.596   2.926   1.650  1.4243 -1.1264 -0.3456
 9489TIP3   OH228430   4.415   6.480   2.432 -0.2274 -0.1957 -0.4668
 9489TIP3    H128431   4.367   6.563   2.441 -1.2253 -0.7688 -0.2994
 9489TIP3    H228432   4.442   6.459   2.521 -1.7046 -1.0235 -0.1792
 9490TIP3   OH228433   3.545   4.916   5.784  0.5740  0.3206  0.2788
 9490TIP3    H128434   3.536   4.944   5.693  1.4956  0.3213  0.1803
 9490TIP3    H228435   3.481   4.969   5.832  0.2304  0.4653 -0.3344
 9491TIP3   OH228436   1.971   3.041   5.639 -0.3772 -0.0119  0.6942
 9491TIP3    H128437   1.947   2.950   5.622 -0.5759 -0.4083  2.8280
 9491TIP3    H228438   1.903   3.092   5.595  0.6652 -0.7835 -1.9737
 9492TIP3   OH228439   3.562   3.548   5.779 -0.1355 -0.4417 -0.4271
 9492TIP3    H128440   3.574   3.623   5.837  0.5813 -0.5288 -0.4615
 9492TIP3    H228441   3.643   3.497   5.787 -0.1693 -0.6376 -1.2346
 9493TIP3   OH228442   1.024   1.225   3.123  0.1185  0.0066 -0.2618
 9493TIP3    H128443   1.046   1.135   3.147  0.7267  0.3241  0.3990
 9493TIP3    H228444   0.928   1.227   3.125  0.1161 -0.4218  0.5305
 9494TIP3   OH228445   3.800   4.390   3.433 -0.2115  0.4998  0.2413
 9494TIP3    H128446   3.713   4.431   3.430  0.0457  1.0321 -0.1977
 9494TIP3    H228447   3.783   4.297   3.448 -1.0308  0.0151 -2.9578
 9495TIP3   OH228448   2.567   5.437   3.622 -0.2671  0.1051 -0.0800
 9495TIP3    H128449   2.568   5.380   3.545 -1.4671 -1.5862  1.0786
 9495TIP3    H228450   2.659   5.451   3.644  0.1409 -3.2296  0.8387
 9496TIP3   OH228451   4.872   3.059   2.284  0.3760  0.1785 -0.2707
 9496TIP3    H128452   4.952   3.040   2.332  0.2791 -0.9288 -0.5099
 9496TIP3    H228453   4.837   3.138   2.325  1.3023  0.3638  0.1894
 9497TIP3   OH228454   6.982   4.670   0.042 -0.7027 -0.1313 -0.5932
 9497TIP3    H128455   6.995   4.759   0.075  0.2323 -0.1810 -0.7882
 9497TIP3    H228456   6.999   4.677  -0.052 -0.4916 -0.5366 -0.5875
 9498TIP3   OH228457   2.765   5.693   1.949  0.4385 -0.8921  0.1470
 9498TIP3    H128458   2.826   5.708   2.022 -0.5883 -2.4651  1.4231
 9498TIP3    H228459   2.812   5.723   1.872  1.2300  1.7187  1.5329
 9499TIP3   OH228460   5.485   4.314   0.896  0.0560 -0.2461  0.1733
 9499TIP3    H128461   5.581   4.320   0.893  0.0115  0.1086 -1.2644
 9499TIP3    H228462   5.455   4.397   0.860 -0.8029 -0.3231  0.6950
 9500TIP3   OH228463   6.218   4.512   5.462 -0.8348  0.4193 -0.3621
 9500TIP3    H128464   6.155   4.443   5.483 -2.5920  1.6294 -1.4541
 9500TIP3    H228465   6.270   4.521   5.542 -0.3873 -2.2850 -0.2506
 9501TIP3   OH228466   1.587   5.086   3.299  0.0396  0.4565  0.4692
 9501TIP3    H128467   1.606   5.081   3.393 -0.9944  0.4845  0.6930
 9501TIP3    H228468   1.524   5.016   3.284 -0.1080  0.7152 -0.1319
 9502TIP3   OH228469   7.005   2.617   0.385 -0.2919 -0.6762  0.9367
 9502TIP3    H128470   6.913   2.642   0.397 -0.1858 -0.7034  1.8851
 9502TIP3    H228471   7.001   2.530   0.346 -0.6764 -0.8955  1.4520
 9503TIP3   OH228472   2.588   3.366   2.452 -1.0647  0.6419 -0.3027
 9503TIP3    H128473   2.569   3.278   2.420 -0.7850  0.3001  0.4562
 9503TIP3    H228474   2.504   3.401   2.480 -1.1471  0.5580 -0.4425
 9504TIP3   OH228475   4.176   5.042   4.096  0.6933  0.1195  0.2058
 9504TIP3    H128476   4.222   4.993   4.028  0.2659 -1.0475  0.7113
 9504TIP3    H228477   4.236   5.043   4.171  0.2274 -0.7703  0.6192
 9505TIP3   OH228478   4.230   6.579   3.464 -0.3200 -0.2066  0.1598
 9505TIP3    H128479   4.218   6.618   3.377  0.2715  1.2915  0.7134
 9505TIP3    H228480   4.141   6.566   3.497 -0.5387  0.9409  0.0557
 9506TIP3   OH228481   3.172   3.351   1.690  0.1784  0.1347  0.2302
 9506TIP3    H128482   3.216   3.266   1.689 -1.0594 -0.5307 -0.5407
 9506TIP3    H228483   3.129   3.356   1.604 -1.2319  0.7461  0.9573
 9507TIP3   OH228484   4.773   0.511   2.652 -1.0962  0.7066  0.0764
 9507TIP3    H128485   4.745   0.553   2.570  1.2034 -0.4501 -1.4076
 9507TIP3    H228486   4.739   0.422   2.647  0.6888  0.0199 -0.6322
 9508TIP3   OH228487   0.515   3.706   4.400  0.0363  0.7911 -0.2096
 9508TIP3    H128488   0.482   3.768   4.465  0.0852  1.2718 -0.6362
 9508TIP3    H228489   0.576   3.757   4.347  0.9052  0.1056  0.0962
 9509TIP3   OH228490   4.952   6.202   5.214 -0.2076  0.2215  0.0997
 9509TIP3    H128491   5.001   6.248   5.281  0.7101 -0.6639  0.0552
 9509TIP3    H228492   4.920   6.123   5.257  1.3604 -0.9366 -0.7633
 9510TIP3   OH228493   4.167   2.010   0.682  0.0404  0.1058  0.8583
 9510TIP3    H128494   4.147   1.996   0.775 -2.0101 -1.1222  0.3079
 9510TIP3    H228495   4.145   1.926   0.641 -1.0059  1.2247 -0.9933
 9511TIP3   OH228496   4.923   3.012   4.661  0.2147 -0.4672  0.8687
 9511TIP3    H128497   4.992   3.077   4.654 -1.6999  1.4937 -1.5621
 9511TIP3    H228498   4.863   3.047   4.727 -0.5901  0.0809 -0.1208
 9512TIP3   OH228499   1.190   6.316   2.435  0.1170 -0.0063 -0.1735
 9512TIP3    H128500   1.156   6.325   2.346 -0.5050  1.1844  0.1590
 9512TIP3    H228501   1.152   6.235   2.467 -1.4583  0.6815 -0.2349
 9513TIP3   OH228502   4.680   6.082   0.962 -0.8976  0.0661  0.1036
 9513TIP3    H128503   4.599   6.065   1.010 -0.9022 -0.6726 -0.1517
 9513TIP3    H228504   4.656   6.148   0.897 -2.1008 -2.2735 -2.0011
 9514TIP3   OH228505   2.791   1.983   0.528  0.1699  0.1094 -0.5443
 9514TIP3    H128506   2.716   2.021   0.575  0.3027  2.0125 -1.7583
 9514TIP3    H228507   2.867   2.004   0.583  0.1073  0.6011 -0.6393
 9515TIP3   OH228508   6.052   0.666   0.973  0.8087 -0.5955  0.2911
 9515TIP3    H128509   6.087   0.729   1.037 -0.8827 -0.2053  0.8788
 9515TIP3    H228510   6.055   0.582   1.018 -1.4849 -0.1487  1.4225
 9516TIP3   OH228511   6.536   4.053   1.092 -0.4128  0.3963 -0.5891
 9516TIP3    H128512   6.481   4.131   1.098 -1.7257 -0.5482 -0.0648
 9516TIP3    H228513   6.516   4.003   1.171  0.6428 -0.3496 -0.7657
 9517TIP3   OH228514   5.026   2.887   0.210 -0.5873  0.1269 -0.4197
 9517TIP3    H128515   5.009   2.816   0.272 -0.1264  0.0456 -0.3794
 9517TIP3    H228516   5.086   2.848   0.147 -1.3620  0.0892 -1.1485
 9518TIP3   OH228517   4.711   3.714   3.873  0.0454  0.0732  0.1985
 9518TIP3    H128518   4.747   3.659   3.943  0.8912  0.4093  0.0473
 9518TIP3    H228519   4.694   3.653   3.802  0.5488 -0.0682  0.1927
 9519TIP3   OH228520   6.787   5.819   2.977 -0.2250  0.0465 -0.2087
 9519TIP3    H128521   6.858   5.757   2.963  0.3015  0.5374  0.2582
 9519TIP3    H228522   6.708   5.764   2.983  0.4281 -0.7753  1.9214
 9520TIP3   OH228523   1.182   1.714   0.256 -0.6297  0.2165  0.4598
 9520TIP3    H128524   1.093   1.741   0.277 -1.5891 -1.4415 -1.1548
 9520TIP3    H228525   1.233   1.737   0.333 -2.2996  1.8336  1.1605
 9521TIP3   OH228526   5.700   5.480   0.512 -0.0073 -0.5845  0.3597
 9521TIP3    H128527   5.691   5.498   0.605 -0.4682  0.2831  0.1649
 9521TIP3    H228528   5.620   5.434   0.488  0.1902 -0.9648  0.4227
 9522TIP3   OH228529   6.658   3.790   4.335 -0.1419 -0.2256 -0.4021
 9522TIP3    H128530   6.728   3.849   4.307 -0.6745  0.0924 -1.1141
 9522TIP3    H228531   6.676   3.708   4.290 -0.1091 -0.2118 -0.4139
 9523TIP3   OH228532   5.035   1.785   2.260 -0.0850 -0.2718 -0.4249
 9523TIP3    H128533   5.101   1.812   2.196  2.1726 -2.0432  0.9779
 9523TIP3    H228534   5.054   1.838   2.337  0.3201 -1.4185  0.2851
 9524TIP3   OH228535   4.370   0.307   3.976  0.1803  0.1253 -0.2726
 9524TIP3    H128536   4.426   0.283   3.903  0.0149  0.1311 -0.4031
 9524TIP3    H228537   4.361   0.226   4.027  1.5448  0.4965  0.5924
 9525TIP3   OH228538   1.169   5.142   4.107  0.6112 -0.9974 -0.4252
 9525TIP3    H128539   1.206   5.225   4.136 -0.4653  0.4496 -2.8820
 9525TIP3    H228540   1.152   5.094   4.188  1.0007  1.2647  1.0969
 9526TIP3   OH228541   6.190   6.061   2.102 -0.6242 -0.8439  0.5077
 9526TIP3    H128542   6.096   6.041   2.102 -1.6243  2.9391 -1.0548
 9526TIP3    H228543   6.225   6.013   2.026 -1.1233 -2.6445  1.3646
 9527TIP3   OH228544   1.858   1.565   5.382 -0.4480 -0.3442 -0.4492
 9527TIP3    H128545   1.769   1.573   5.416 -0.3025 -0.7288  0.0373
 9527TIP3    H228546   1.856   1.611   5.298 -0.3267  2.3661  0.9226
 9528TIP3   OH228547   1.732   3.576   3.401 -0.0604  0.6213 -0.0737
 9528TIP3    H128548   1.668   3.539   3.462 -0.1319 -1.6404 -1.3926
 9528TIP3    H228549   1.682   3.640   3.350 -1.2140 -0.7262 -0.7257
 9529TIP3   OH228550   3.603   0.295   1.686 -0.3820  0.2528  0.2696
 9529TIP3    H128551   3.555   0.275   1.605  1.3924  0.8278 -0.9764
 9529TIP3    H228552   3.688   0.328   1.656  0.1335  0.9798  2.3751
 9530TIP3   OH228553   3.547   0.958   2.467  0.3904  0.1246 -0.1051
 9530TIP3    H128554   3.482   0.921   2.527 -0.9381  1.1054 -0.8920
 9530TIP3    H228555   3.496   1.011   2.407  2.0162  1.5608 -0.2745
 9531TIP3   OH228556   3.593   3.612   2.855  0.2715 -0.2019  0.8680
 9531TIP3    H128557   3.508   3.573   2.835 -0.3150 -1.1356  4.4506
 9531TIP3    H228558   3.580   3.706   2.839  0.2526 -0.7305 -3.3536
 9532TIP3   OH228559   3.077   4.074   3.069 -0.1028  0.4282 -0.2711
 9532TIP3    H128560   3.038   4.097   3.153 -3.0715  0.1263 -1.4500
 9532TIP3    H228561   3.027   3.998   3.039  1.7715 -0.3123 -1.7218
 9533TIP3   OH228562   4.998   6.617   4.892  0.0269  0.5136  0.0681
 9533TIP3    H128563   4.949   6.579   4.965  0.4335 -2.3975 -1.0589
 9533TIP3    H228564   5.062   6.674   4.934  0.2874 -1.1128  2.0530
 9534TIP3   OH228565   0.450   4.087   3.677 -0.4751 -0.0256  0.5654
 9534TIP3    H128566   0.390   4.066   3.748 -1.1609 -0.3199 -0.0951
 9534TIP3    H228567   0.419   4.035   3.603  0.3389  0.1396  0.0975
 9535TIP3   OH228568   4.145   4.058   4.832 -0.6303  0.3956 -0.1352
 9535TIP3    H128569   4.147   3.973   4.875  0.6818  0.8326  0.7219
 9535TIP3    H228570   4.205   4.048   4.757  0.1544  0.7731  0.4250
 9536TIP3   OH228571   5.346   3.048   0.224  0.6581 -0.1000  0.0680
 9536TIP3    H128572   5.275   3.085   0.171  0.8443 -0.0813 -0.1707
 9536TIP3    H228573   5.304   3.024   0.307  0.3427 -0.2318 -0.1283
 9537TIP3   OH228574   2.558   0.381   2.555  0.2732  0.4081  0.4015
 9537TIP3    H128575   2.650   0.362   2.537  0.9684  0.1086  3.6195
 9537TIP3    H228576   2.515   0.376   2.470  3.0613 -0.3575 -1.0786
 9538TIP3   OH228577   2.300   2.240   4.684  0.3329  0.2258 -0.6220
 9538TIP3    H128578   2.207   2.247   4.703  0.2585 -1.9171  0.1455
 9538TIP3    H228579   2.344   2.268   4.764  0.1874 -2.0296  0.3459
 9539TIP3   OH228580   2.717   2.721   2.476  0.0611  0.1345 -0.0371
 9539TIP3    H128581   2.622   2.732   2.466  0.3559  1.1431 -2.1417
 9539TIP3    H228582   2.747   2.805   2.510  0.4624  0.6392 -1.5942
 9540TIP3   OH228583   1.372   4.019   3.320 -0.2965  0.1673 -0.1865
 9540TIP3    H128584   1.282   4.012   3.351 -0.6055 -0.1963 -1.1191
 9540TIP3    H228585   1.365   4.014   3.224  0.5913  1.5032 -0.3433
 9541TIP3   OH228586   4.822   5.674   2.503 -0.9951  0.3397  0.3513
 9541TIP3    H128587   4.781   5.633   2.580  0.3554 -0.5875  0.6110
 9541TIP3    H228588   4.832   5.602   2.440 -0.5205  0.7274 -0.0206
 9542TIP3   OH228589   1.072   2.314   0.218  0.5665 -0.2929 -0.0699
 9542TIP3    H128590   1.014   2.256   0.268 -0.7062  0.9507 -0.0397
 9542TIP3    H228591   1.048   2.300   0.127  0.5469 -0.1246 -0.0911
 9543TIP3   OH228592   3.849   5.043   1.388 -0.0035  0.1209 -0.3671
 9543TIP3    H128593   3.809   5.079   1.308  0.7282  2.0194  0.0681
 9543TIP3    H228594   3.775   5.006   1.437 -0.7379  0.5520 -1.1072
 9544TIP3   OH228595   6.723   5.287   5.100  0.5118  0.3348 -0.2010
 9544TIP3    H128596   6.679   5.369   5.077  1.3759  0.7839 -0.2940
 9544TIP3    H228597   6.662   5.243   5.159  0.6289  1.7096  1.0205
 9545TIP3   OH228598   4.614   3.761   0.369 -0.0353  0.2347  0.1584
 9545TIP3    H128599   4.641   3.852   0.373  0.7184 -0.0167  0.8765
 9545TIP3    H228600   4.528   3.764   0.326 -0.3278  1.3351  0.7905
 9546TIP3   OH228601   3.480   4.851   5.134  0.5154  0.1413 -0.6350
 9546TIP3    H128602   3.496   4.768   5.089 -0.2386 -0.1460 -0.3869
 9546TIP3    H228603   3.512   4.836   5.223  1.3254  0.4655 -0.8601
 9547TIP3   OH228604   3.184   0.814   1.016  0.2958  0.6104 -0.0815
 9547TIP3    H128605   3.189   0.896   1.064 -0.6287  1.0331 -0.7020
 9547TIP3    H228606   3.276   0.792   0.997  0.6088  0.9490  0.9879
 9548TIP3   OH228607   6.865   2.441   1.568  0.1872 -0.0965 -0.9201
 9548TIP3    H128608   6.944   2.473   1.611 -0.0544  0.3901 -0.8306
 9548TIP3    H228609   6.815   2.400   1.638 -0.6165  1.4776 -0.5310
 9549TIP3   OH228610   2.530   5.531   1.030 -0.1538  0.5670 -0.2512
 9549TIP3    H128611   2.525   5.438   1.052  1.3641  0.3482 -0.6945
 9549TIP3    H228612   2.566   5.572   1.109  0.9899  0.4730 -0.7123
 9550TIP3   OH228613   2.005   5.319   3.246 -0.1942 -0.1294  0.3197
 9550TIP3    H128614   2.079   5.349   3.194 -0.0436 -0.6544  0.2248
 9550TIP3    H228615   1.929   5.363   3.206 -0.0375 -0.2366 -0.1081
 9551TIP3   OH228616   1.095   6.092   4.801 -0.0142 -0.5571  0.2681
 9551TIP3    H128617   1.146   6.018   4.832  1.6325  0.2893 -0.2638
 9551TIP3    H228618   1.154   6.167   4.809 -0.0186 -0.0116 -3.2406
 9552TIP3   OH228619   5.981   0.347   1.617 -0.1606 -0.3958 -0.2725
 9552TIP3    H128620   6.059   0.389   1.653  0.3821 -0.5489 -1.2529
 9552TIP3    H228621   5.929   0.323   1.694  0.0733  0.9940  0.3570
 9553TIP3   OH228622   0.526   0.170   1.500 -0.7435  0.2256 -0.1748
 9553TIP3    H128623   0.528   0.187   1.406 -0.0862 -0.0332 -0.2113
 9553TIP3    H228624   0.481   0.086   1.509  0.6633 -0.5897 -0.4011
 9554TIP3   OH228625   4.970   0.182   3.569  0.0601 -0.0082  0.1352
 9554TIP3    H128626   4.977   0.147   3.480  0.3415  0.5083 -0.0511
 9554TIP3    H228627   4.940   0.108   3.622 -1.2971  0.0006 -0.6011
 9555TIP3   OH228628   4.920   3.878   3.555 -0.1716  0.7039 -0.2737
 9555TIP3    H128629   4.842   3.926   3.582 -0.0812  1.3049 -1.0495
 9555TIP3    H228630   4.945   3.827   3.633 -1.5368  0.2187 -0.1219
 9556TIP3   OH228631   0.282   5.335   2.758  0.2237 -0.2393  0.1940
 9556TIP3    H128632   0.190   5.344   2.781  0.3441  2.0478 -0.0358
 9556TIP3    H228633   0.301   5.242   2.770 -2.3684 -0.9670 -0.7790
 9557TIP3   OH228634   0.624   5.155   0.639 -0.5298 -0.1755 -0.1972
 9557TIP3    H128635   0.712   5.119   0.650 -0.6806 -0.6384 -0.4646
 9557TIP3    H228636   0.593   5.117   0.557 -0.7347  0.4934 -0.4368
 9558TIP3   OH228637   6.867   1.975   0.945 -0.1562 -0.8179 -1.2376
 9558TIP3    H128638   6.929   2.047   0.933 -1.4185  0.8018  1.1970
 9558TIP3    H228639   6.923   1.899   0.964  1.2294  0.6763  1.3163
 9559TIP3   OH228640   5.033   2.354   0.467 -0.2567  0.0553  0.3819
 9559TIP3    H128641   4.972   2.320   0.532  0.2154 -0.6081  0.4960
 9559TIP3    H228642   5.035   2.448   0.482 -0.1642 -0.0913  1.3270
 9560TIP3   OH228643   4.044   2.468   2.909  0.0877  0.3773  0.2990
 9560TIP3    H128644   4.030   2.436   2.820 -0.7347  0.7579  0.2784
 9560TIP3    H228645   4.131   2.437   2.933  0.2356  0.1108 -0.5684
 9561TIP3   OH228646   1.784   2.122   3.568 -0.5950  0.2420  0.3032
 9561TIP3    H128647   1.813   2.191   3.629  3.4449  1.1308 -2.2248
 9561TIP3    H228648   1.748   2.170   3.493 -1.7018 -0.6645  0.2296
 9562TIP3   OH228649   1.024   3.719   1.273 -0.4888  0.0071  0.5211
 9562TIP3    H128650   1.114   3.686   1.270 -0.2091  0.7154  0.9066
 9562TIP3    H228651   0.997   3.723   1.181 -0.2221 -0.4519  0.4192
 9563TIP3   OH228652   0.255   4.866   0.186  0.0598 -0.0035 -0.2354
 9563TIP3    H128653   0.192   4.794   0.180  0.4806 -0.3344 -0.8140
 9563TIP3    H228654   0.214   4.937   0.137 -0.7233  0.4376  1.0235
 9564TIP3   OH228655   0.029   3.002   5.426  0.0538  0.0722  0.4964
 9564TIP3    H128656   0.044   2.984   5.519  0.4511 -1.0131  0.2417
 9564TIP3    H228657   0.038   3.097   5.418  1.5057  0.0436  1.3229
 9565TIP3   OH228658   4.278   1.529   5.077  0.1983  0.1257 -0.3083
 9565TIP3    H128659   4.237   1.443   5.085 -0.4105  0.1529 -2.4967
 9565TIP3    H228660   4.366   1.511   5.043  0.4407  0.3138  0.2130
 9566TIP3   OH228661   1.805   6.672   4.344  0.0371 -0.2252  0.4207
 9566TIP3    H128662   1.842   6.734   4.407  2.4992 -0.0343 -1.0664
 9566TIP3    H228663   1.778   6.597   4.397 -0.2232  0.8999  1.9366
 9567TIP3   OH228664   3.606   1.063   5.033  0.0811  0.0971 -0.5626
 9567TIP3    H128665   3.621   1.105   4.948 -0.9150  0.9594 -0.3455
 9567TIP3    H228666   3.693   1.053   5.071  0.4417  0.8727 -1.1549
 9568TIP3   OH228667   1.839   2.253   1.031  0.4548  0.1557  0.3626
 9568TIP3    H128668   1.823   2.159   1.019 -0.0475 -0.0899  2.6260
 9568TIP3    H228669   1.761   2.295   0.994  0.1454 -0.3912  0.3778
 9569TIP3   OH228670   3.792   2.660   4.814  0.6252  0.0602  0.0531
 9569TIP3    H128671   3.869   2.674   4.871 -0.2841 -0.7961  1.5609
 9569TIP3    H228672   3.717   2.672   4.872 -0.3386 -1.4029 -0.8472
 9570TIP3   OH228673   2.780   0.850   2.243  0.2824  0.5377  0.0902
 9570TIP3    H128674   2.792   0.767   2.290 -1.4160 -0.1531 -0.6072
 9570TIP3    H228675   2.786   0.917   2.311  0.5332 -0.2373  0.8553
 9571TIP3   OH228676   6.646   2.025   1.705  0.1462  0.3296  0.2292
 9571TIP3    H128677   6.658   1.947   1.651 -0.3998 -0.0780  0.6846
 9571TIP3    H228678   6.565   2.010   1.753 -0.4114  1.5614 -0.2936
 9572TIP3   OH228679   1.239   5.450   1.497  0.4210 -0.3070 -0.0157
 9572TIP3    H128680   1.235   5.546   1.499  0.3371 -0.3212  1.4583
 9572TIP3    H228681   1.161   5.423   1.448 -0.3016  0.3467  0.7511
 9573TIP3   OH228682   5.501   2.331   4.843  0.1011  0.1755  0.1957
 9573TIP3    H128683   5.410   2.305   4.829 -0.1220  0.6661  0.7448
 9573TIP3    H228684   5.535   2.348   4.754  0.2494 -1.9200 -0.1965
 9574TIP3   OH228685   2.566   3.072   1.799  0.0417  0.0297 -0.2928
 9574TIP3    H128686   2.555   3.143   1.863 -0.0768 -0.5390  0.3202
 9574TIP3    H228687   2.508   3.097   1.726  1.7200  1.7531 -1.1390
 9575TIP3   OH228688   1.566   0.468   4.641 -0.1790  0.1673  0.2383
 9575TIP3    H128689   1.519   0.385   4.645  0.6120 -0.3384 -0.5974
 9575TIP3    H228690   1.497   0.534   4.634 -0.8147 -0.6617 -2.8725
 9576TIP3   OH228691   3.406   0.121   3.019  0.0351 -0.0738  0.0237
 9576TIP3    H128692   3.405   0.049   3.082 -0.8643 -1.2999 -1.3129
 9576TIP3    H228693   3.493   0.116   2.979  0.1719 -0.0674  0.3160
 9577TIP3   OH228694   3.786   3.850   3.413  0.2056  0.1347 -0.0600
 9577TIP3    H128695   3.834   3.836   3.331 -0.7217 -2.9029 -0.1966
 9577TIP3    H228696   3.696   3.825   3.393  0.3211 -2.6885  2.3131
 9578TIP3   OH228697   1.460   4.884   4.349  0.1983  0.4417  0.0176
 9578TIP3    H128698   1.539   4.829   4.355  0.2587  0.3456 -1.3913
 9578TIP3    H228699   1.391   4.824   4.322 -0.4228  0.4970  1.3968
 9579TIP3   OH228700   6.729   4.699   0.618  0.4270 -0.1233  0.2880
 9579TIP3    H128701   6.670   4.624   0.611 -0.3268  0.6161 -2.7668
 9579TIP3    H228702   6.681   4.762   0.672 -0.5848 -0.4295 -0.2267
 9580TIP3   OH228703   3.003   4.833   5.587 -0.6951 -0.3990 -0.4270
 9580TIP3    H128704   2.936   4.834   5.655 -0.5633  1.7139 -0.2678
 9580TIP3    H228705   3.033   4.742   5.584 -1.2197 -0.6998  1.8128
 9581TIP3   OH228706   3.867   6.497   1.091  0.2484  0.4340  0.4018
 9581TIP3    H128707   3.814   6.418   1.103 -0.6213  0.3633 -2.8807
 9581TIP3    H228708   3.943   6.468   1.039  0.9310  1.4161  0.8199
 9582TIP3   OH228709   0.290   4.588   4.148  0.3575  0.2049 -0.3320
 9582TIP3    H128710   0.206   4.572   4.192  0.9387 -2.5972 -0.0322
 9582TIP3    H228711   0.333   4.654   4.202 -0.5546 -0.3060  1.0764
 9583TIP3   OH228712   1.997   4.160   1.140  0.3794  0.0149 -0.3390
 9583TIP3    H128713   1.932   4.189   1.076  1.4765  0.3942 -1.3173
 9583TIP3    H228714   2.020   4.071   1.111  0.4391 -0.0448 -0.1082
 9584TIP3   OH228715   1.843   4.558   2.428 -0.5164 -0.3363  0.1046
 9584TIP3    H128716   1.841   4.653   2.431 -0.3752 -0.2798 -1.1780
 9584TIP3    H228717   1.756   4.531   2.456 -0.8213  0.1965 -0.3346
 9585TIP3   OH228718   2.626   0.617   4.743 -0.6331  0.5211  0.2969
 9585TIP3    H128719   2.658   0.630   4.653  0.6133 -0.6798  0.5245
 9585TIP3    H228720   2.551   0.558   4.733 -0.7641  0.7377  0.0039
 9586TIP3   OH228721   0.293   4.004   4.226  0.7809  0.3146  0.3217
 9586TIP3    H128722   0.211   4.017   4.178 -0.0221 -2.3191  0.8295
 9586TIP3    H228723   0.342   3.941   4.173  1.4040  0.0287  1.2198
 9587TIP3   OH228724   3.018   1.715   2.311 -0.0829 -0.0753  0.1520
 9587TIP3    H128725   2.981   1.723   2.399 -1.5365 -0.2963 -0.3996
 9587TIP3    H228726   2.941   1.707   2.254  0.7720  1.1058 -1.2516
 9588TIP3   OH228727   2.094   2.497   3.196  0.2492  1.0155 -0.1276
 9588TIP3    H128728   2.105   2.534   3.283 -0.8908  3.2973 -0.8702
 9588TIP3    H228729   2.181   2.463   3.174  1.3761  3.0898  0.7709
 9589TIP3   OH228730   5.040   1.985   1.064  0.2664  0.3667  0.5266
 9589TIP3    H128731   4.947   1.967   1.077  0.1500  1.7305  2.0147
 9589TIP3    H228732   5.044   2.079   1.045  1.0983 -0.2899 -3.2342
 9590TIP3   OH228733   2.417   2.701   2.442 -0.0123  0.4868  0.6593
 9590TIP3    H128734   2.331   2.678   2.477 -0.2121 -1.4715 -0.9710
 9590TIP3    H228735   2.401   2.718   2.349  1.4151 -0.3355  0.2390
 9591TIP3   OH228736   0.508   4.153   3.995 -0.2196  0.7380  0.1227
 9591TIP3    H128737   0.442   4.110   3.941  0.4159  0.6566 -0.5926
 9591TIP3    H228738   0.521   4.239   3.955 -0.3342  0.9956  0.6261
 9592TIP3   OH228739   6.697   0.052   2.232  0.2849  0.8218 -0.0010
 9592TIP3    H128740   6.658   0.012   2.154 -2.9152  2.6890  0.4566
 9592TIP3    H228741   6.630   0.042   2.299  0.9926  3.4088  1.1822
 9593TIP3   OH228742   2.616   3.587   5.080  0.1677 -0.0506 -0.0736
 9593TIP3    H128743   2.577   3.522   5.022  0.5480  0.1403 -0.5490
 9593TIP3    H228744   2.672   3.535   5.139 -1.5810 -0.4576  1.3275
 9594TIP3   OH228745   4.066   4.289   0.712  0.3012 -0.0738  0.4381
 9594TIP3    H128746   4.096   4.259   0.626  1.5714  0.3047  0.7296
 9594TIP3    H228747   4.015   4.215   0.747  2.0369 -1.3215  0.4763
 9595TIP3   OH228748   1.338   3.281   3.902  0.2081 -0.7948 -0.4259
 9595TIP3    H128749   1.295   3.197   3.892  1.2297 -1.3006 -0.6668
 9595TIP3    H228750   1.266   3.345   3.903 -0.5205 -1.5817 -1.1231
 9596TIP3   OH228751   3.196   5.161   4.953 -0.0058  0.6393 -0.4782
 9596TIP3    H128752   3.146   5.197   4.880  0.3572  0.2030 -0.9556
 9596TIP3    H228753   3.132   5.148   5.023 -0.3346  1.1875 -0.6694
 9597TIP3   OH228754   5.521   0.563   4.603 -0.0148  0.1026  0.3242
 9597TIP3    H128755   5.485   0.493   4.656  0.1774  0.5063  1.0052
 9597TIP3    H228756   5.612   0.571   4.633  0.3610 -0.2575 -0.6885
 9598TIP3   OH228757   4.865   1.016   0.031 -0.2148 -0.7961 -0.1778
 9598TIP3    H128758   4.943   0.986   0.078 -0.1221 -1.5445 -0.7846
 9598TIP3    H228759   4.834   1.091   0.081  1.0310 -0.3384 -0.0538
 9599TIP3   OH228760   0.638   0.775   3.805 -0.0891 -0.0236  0.0930
 9599TIP3    H128761   0.623   0.756   3.713 -0.9559 -1.1146  0.4414
 9599TIP3    H228762   0.732   0.793   3.811 -0.4235  2.8915 -1.4442
 9600TIP3   OH228763   1.051   3.074   0.781 -0.3082 -0.8784  0.5131
 9600TIP3    H128764   1.015   3.155   0.744  1.9632 -0.3122 -0.6170
 9600TIP3    H228765   0.983   3.009   0.764 -1.9137  0.6127  0.8650
 9601TIP3   OH228766   6.576   0.751   0.168  0.2103  0.1164 -0.1372
 9601TIP3    H128767   6.595   0.716   0.081  1.5795  1.7222 -0.5485
 9601TIP3    H228768   6.510   0.819   0.152 -1.1922 -1.0799  0.4135
 9602TIP3   OH228769   5.192   5.758   3.044 -0.1598 -0.1808  0.0139
 9602TIP3    H128770   5.145   5.763   2.961 -1.2635 -2.2397  0.4314
 9602TIP3    H228771   5.283   5.741   3.019 -0.2109  0.6079 -0.7656
 9603TIP3   OH228772   4.294   6.597   4.419  0.1995 -0.7993 -0.0309
 9603TIP3    H128773   4.347   6.579   4.496  0.6461 -1.0066 -0.3802
 9603TIP3    H228774   4.253   6.681   4.437 -0.7094 -1.4295  0.9727
 9604TIP3   OH228775   0.957   6.756   1.157 -0.2678  0.6464  0.1770
 9604TIP3    H128776   1.024   6.735   1.092 -0.5623  2.5984 -0.8228
 9604TIP3    H228777   0.874   6.752   1.109 -0.7985 -0.5997  1.1237
 9605TIP3   OH228778   6.331   0.653   4.463 -0.4345  0.5272  0.2473
 9605TIP3    H128779   6.362   0.611   4.544  0.8669 -0.6116 -0.8078
 9605TIP3    H228780   6.327   0.746   4.486 -0.0018  0.2429  1.5974
 9606TIP3   OH228781   4.756   3.628   5.459  0.5715 -0.5109 -0.4840
 9606TIP3    H128782   4.840   3.609   5.500  1.3063  2.1230 -0.6507
 9606TIP3    H228783   4.776   3.685   5.385 -1.2417 -0.9608 -1.3959
 9607TIP3   OH228784   1.997   5.823   0.391 -0.0573 -0.9030  0.3244
 9607TIP3    H128785   2.039   5.824   0.305 -0.4286 -1.4026  0.1273
 9607TIP3    H228786   1.954   5.737   0.396  1.1379 -1.4696  1.5779
 9608TIP3   OH228787   3.643   1.418   1.610 -0.0348  0.5951  0.4220
 9608TIP3    H128788   3.712   1.368   1.567 -0.8717  0.6524 -1.0312
 9608TIP3    H228789   3.584   1.443   1.540 -0.8229  1.7168  1.4550
 9609TIP3   OH228790   5.528   2.008   2.908  0.2561 -0.6639 -0.2328
 9609TIP3    H128791   5.444   2.028   2.948  0.4106 -0.0450 -0.2124
 9609TIP3    H228792   5.511   1.930   2.854 -0.8655  0.7349 -1.9936
 9610TIP3   OH228793   6.071   3.563   0.067  0.0938  0.4174  0.2484
 9610TIP3    H128794   5.976   3.558   0.070  0.0167  1.2384 -0.3632
 9610TIP3    H228795   6.090   3.656   0.078  0.8094  0.3031  0.0269
 9611TIP3   OH228796   0.580   1.319   0.024 -0.2598  0.3333 -0.0231
 9611TIP3    H128797   0.512   1.280   0.079 -1.1369  0.3964 -1.0449
 9611TIP3    H228798   0.538   1.334  -0.060  1.4919 -1.3134 -1.2754
 9612TIP3   OH228799   6.135   3.910   5.192 -0.2003 -0.5892  0.2409
 9612TIP3    H128800   6.112   3.840   5.253  1.4879 -1.6821 -0.3215
 9612TIP3    H228801   6.197   3.965   5.239  0.5769 -1.0413 -0.2460
 9613TIP3   OH228802   0.256   1.763   1.982  0.4006  0.6409 -0.0017
 9613TIP3    H128803   0.301   1.742   1.900  1.5928  0.3440  0.7032
 9613TIP3    H228804   0.210   1.845   1.964  1.8695  1.3840 -0.5364
 9614TIP3   OH228805   2.932   3.352   1.539  0.1083  0.0341 -0.0558
 9614TIP3    H128806   3.006   3.332   1.482  0.3981 -0.2366  0.4003
 9614TIP3    H228807   2.855   3.336   1.486  0.3404 -1.6328  0.0532
 9615TIP3   OH228808   4.107   4.166   3.249 -0.6446 -0.0015 -0.0284
 9615TIP3    H128809   4.139   4.143   3.162 -0.3219 -0.2805  0.1584
 9615TIP3    H228810   4.012   4.170   3.240 -0.6217 -0.1869 -0.3589
 9616TIP3   OH228811   5.737   5.409   1.068 -0.2177  0.4417  0.5194
 9616TIP3    H128812   5.818   5.452   1.094 -0.2788 -0.4545  2.3583
 9616TIP3    H228813   5.669   5.475   1.085 -0.1126  0.3245  1.5051
 9617TIP3   OH228814   6.024   1.599   4.821 -0.1357  0.4859  0.6851
 9617TIP3    H128815   6.065   1.555   4.746 -1.0542  1.3152 -0.3393
 9617TIP3    H228816   6.068   1.683   4.826  0.1219  0.3219  1.2778
 9618TIP3   OH228817   6.610   1.028   3.314  0.2230  0.4778  0.1322
 9618TIP3    H128818   6.562   0.956   3.272 -0.9193 -0.1682  2.4083
 9618TIP3    H228819   6.702   1.004   3.303 -0.0473 -0.0566 -1.2533
 9619TIP3   OH228820   6.302   4.986   5.492  0.0326 -0.1477 -0.3528
 9619TIP3    H128821   6.383   5.008   5.538  0.3405 -1.2048 -0.3634
 9619TIP3    H228822   6.254   5.069   5.486  0.5977  0.2684  0.6651
 9620TIP3   OH228823   5.203   1.969   3.863  0.2892  0.4008  0.1142
 9620TIP3    H128824   5.240   2.055   3.881 -0.1215  0.4965  0.5151
 9620TIP3    H228825   5.278   1.910   3.869  1.2450  1.0366 -3.3029
 9621TIP3   OH228826   3.338   2.690   5.126 -0.1495 -0.0191 -0.0633
 9621TIP3    H128827   3.374   2.712   5.040  0.6154  2.3910  0.8081
 9621TIP3    H228828   3.369   2.759   5.184 -1.5786 -0.9539  1.9445
 9622TIP3   OH228829   4.788   0.697   3.668 -0.2436 -0.5534 -0.0893
 9622TIP3    H128830   4.840   0.622   3.697  0.9687  0.3320  0.1153
 9622TIP3    H228831   4.744   0.667   3.589  0.9285 -1.1954 -0.5178
 9623TIP3   OH228832   3.462   4.847   3.815 -0.7295  0.1009 -0.1841
 9623TIP3    H128833   3.544   4.818   3.776  0.3948  0.7848  1.5419
 9623TIP3    H228834   3.439   4.778   3.878  0.1700  1.2679  1.5042
 9624TIP3   OH228835   5.935   2.564   5.480  0.1557 -0.1461 -0.0647
 9624TIP3    H128836   5.842   2.586   5.487  0.2134 -0.1023  0.6962
 9624TIP3    H228837   5.981   2.647   5.494  0.3258 -0.3317  0.5166
 9625TIP3   OH228838   6.778   1.824   3.799  0.0491  0.2879  0.2873
 9625TIP3    H128839   6.846   1.774   3.754  0.0289 -0.2329  0.8241
 9625TIP3    H228840   6.699   1.811   3.745  0.3188  0.7184 -0.2187
 9626TIP3   OH228841   4.430   6.432   3.556  0.7969 -0.2550 -0.3958
 9626TIP3    H128842   4.363   6.492   3.587 -0.2309 -1.6647  0.2319
 9626TIP3    H228843   4.426   6.438   3.461 -0.0315 -0.1292 -0.3558
 9627TIP3   OH228844   0.467   1.890   4.805 -0.4342 -0.1249 -0.0610
 9627TIP3    H128845   0.396   1.833   4.835 -1.5102  0.7871 -0.7560
 9627TIP3    H228846   0.472   1.874   4.711 -0.6244  0.7712 -0.2323
 9628TIP3   OH228847   1.093   0.838   0.511  0.8313  0.4196  0.2990
 9628TIP3    H128848   1.019   0.822   0.452  2.2345  1.5343 -1.8825
 9628TIP3    H228849   1.128   0.751   0.530 -0.3041 -0.0299  0.4045
 9629TIP3   OH228850   3.826   4.609   2.673 -0.0467  0.1683 -0.1052
 9629TIP3    H128851   3.850   4.657   2.752  0.8649  2.3220 -1.6041
 9629TIP3    H228852   3.744   4.649   2.644 -0.6776 -0.9815 -0.0024
 9630TIP3   OH228853   5.445   4.022   4.151 -0.4384  0.1753  0.0599
 9630TIP3    H128854   5.522   4.035   4.096  0.1751  0.6004  0.9960
 9630TIP3    H228855   5.375   4.068   4.105 -0.2887 -0.6934 -1.0938
 9631TIP3   OH228856   0.020   6.084   1.077 -0.3820  0.2527 -0.4249
 9631TIP3    H128857  -0.048   6.045   1.022 -0.4192 -0.6656  0.2433
 9631TIP3    H228858   0.097   6.088   1.020 -1.0359  1.5353 -1.2641
 9632TIP3   OH228859   2.763   0.588   4.489 -0.2390  0.5238  0.2043
 9632TIP3    H128860   2.783   0.560   4.400 -1.0876 -2.1854  0.7843
 9632TIP3    H228861   2.831   0.651   4.511  0.0136  1.2043 -2.3170
 9633TIP3   OH228862   3.724   1.616   0.864 -0.6029  0.0260 -0.8112
 9633TIP3    H128863   3.682   1.548   0.812 -0.7060 -0.9362  0.4708
 9633TIP3    H228864   3.733   1.690   0.805 -1.5069 -0.7272 -1.9242
 9634TIP3   OH228865   1.436   0.706   0.155 -0.0243  0.0095  0.6875
 9634TIP3    H128866   1.480   0.628   0.121 -0.4790 -0.1903  0.5477
 9634TIP3    H228867   1.450   0.702   0.250 -1.6066 -1.2611  0.9276
 9635TIP3   OH228868   4.534   3.050   3.269 -0.4042  0.1487  0.1591
 9635TIP3    H128869   4.584   2.989   3.322 -1.9921 -0.3280  1.1705
 9635TIP3    H228870   4.595   3.122   3.251  1.1029 -1.1070  0.0129
 9636TIP3   OH228871   0.085   0.156   2.828  0.2962 -0.2117  0.4740
 9636TIP3    H128872   0.138   0.116   2.759 -0.2648 -1.0171  0.5004
 9636TIP3    H228873   0.055   0.239   2.790  0.7646 -0.2064  0.1063
 9637TIP3   OH228874   4.986   3.357   2.850  0.0055 -0.0017  0.3501
 9637TIP3    H128875   5.026   3.435   2.812  1.3749 -0.5951  0.5173
 9637TIP3    H228876   4.924   3.327   2.784  1.4721 -0.3266 -0.9331
 9638TIP3   OH228877   3.656   0.878   1.249 -0.0724  0.1745 -0.6824
 9638TIP3    H128878   3.659   0.965   1.289  0.5404  0.5245 -1.4818
 9638TIP3    H228879   3.713   0.884   1.173  0.3698 -1.0698 -0.4677
 9639TIP3   OH228880   7.013   3.660   0.833  0.2261 -0.2285  0.0045
 9639TIP3    H128881   7.073   3.629   0.766  1.2754 -0.8295  1.1880
 9639TIP3    H228882   7.068   3.701   0.899 -0.6413 -0.7331  1.0902
 9640TIP3   OH228883   5.745   6.540   5.062 -0.1951  0.0690 -0.0561
 9640TIP3    H128884   5.754   6.625   5.020  0.6285 -0.0562 -0.1458
 9640TIP3    H228885   5.745   6.559   5.156  0.8685  0.0966 -0.0554
 9641TIP3   OH228886   0.252   4.493   1.570 -0.5195 -0.2342  0.3460
 9641TIP3    H128887   0.162   4.476   1.598  0.0496 -0.1925  2.3034
 9641TIP3    H228888   0.291   4.406   1.560  0.5606 -0.3707  4.2454
 9642TIP3   OH228889   1.076   6.535   2.591 -0.5668  0.0052  0.3200
 9642TIP3    H128890   1.092   6.475   2.663 -0.3308  0.9582  1.0764
 9642TIP3    H228891   1.135   6.506   2.521 -2.1376 -2.0984 -0.2223
 9643TIP3   OH228892   3.771   2.209   0.164 -0.8349  0.5957 -0.0597
 9643TIP3    H128893   3.777   2.298   0.198 -2.4272  0.7970 -0.2558
 9643TIP3    H228894   3.862   2.186   0.142 -0.3584  2.0414  0.2865
 9644TIP3   OH228895   1.412   3.704   3.198 -0.2825  0.2154  0.3082
 9644TIP3    H128896   1.344   3.724   3.133 -0.8742 -0.0086  0.8419
 9644TIP3    H228897   1.365   3.656   3.267 -0.0163  1.8501  1.6829
 9645TIP3   OH228898   0.075   0.832   0.273 -0.8384  0.7141  0.0967
 9645TIP3    H128899   0.016   0.805   0.344 -0.2800  0.5333  0.4996
 9645TIP3    H228900   0.032   0.907   0.233 -1.7328  0.1037 -0.1282
 9646TIP3   OH228901   1.746   0.365   5.337  0.4305 -0.7176 -0.6796
 9646TIP3    H128902   1.738   0.341   5.245  0.7201 -0.5604 -0.7439
 9646TIP3    H228903   1.660   0.343   5.374 -0.1631  0.4956 -1.2761
 9647TIP3   OH228904   5.575   4.880   0.713 -0.2821  0.6790 -0.1801
 9647TIP3    H128905   5.610   4.795   0.740 -1.3862  0.0067 -0.7982
 9647TIP3    H228906   5.637   4.911   0.646  0.6437  0.8202  0.7278
 9648TIP3   OH228907   1.578   3.857   0.462  0.0943  0.1551 -0.5735
 9648TIP3    H128908   1.524   3.809   0.400 -0.9689  0.3066  0.2149
 9648TIP3    H228909   1.547   3.829   0.548  0.8570  0.7122 -0.1011
 9649TIP3   OH228910   0.860   1.961   5.754 -0.2391  0.0910  0.1040
 9649TIP3    H128911   0.939   1.960   5.808 -0.3245  1.8921  0.3291
 9649TIP3    H228912   0.838   2.054   5.745 -1.6585 -0.3050 -0.9512
 9650TIP3   OH228913   2.677   4.401   2.406  0.1082  0.1599  0.4679
 9650TIP3    H128914   2.693   4.353   2.324  2.1981  0.0684  0.8589
 9650TIP3    H228915   2.593   4.369   2.438  0.3186 -1.4493 -0.5109
 9651TIP3   OH228916   5.918   0.049   3.595 -0.1231 -0.4307  0.1524
 9651TIP3    H128917   5.822   0.050   3.596 -0.1439  0.5226  2.0710
 9651TIP3    H228918   5.942   0.101   3.518 -1.1621  0.0514  0.1420
 9652TIP3   OH228919   6.963   1.245   2.226  0.1810 -0.7649 -0.4014
 9652TIP3    H128920   6.956   1.277   2.315 -0.0386  0.8563 -0.9720
 9652TIP3    H228921   6.953   1.323   2.171  1.4695 -1.5379 -1.8152
 9653TIP3   OH228922   5.465   3.694   2.753  0.0356 -0.4658 -0.2345
 9653TIP3    H128923   5.451   3.777   2.799 -0.8509  0.5559 -2.2577
 9653TIP3    H228924   5.513   3.640   2.816  2.0850  2.1220  0.5753
 9654TIP3   OH228925   6.188   5.363   4.846 -0.1622  0.6005  0.0290
 9654TIP3    H128926   6.169   5.429   4.913 -1.1212  0.0530  0.3096
 9654TIP3    H228927   6.104   5.349   4.802  0.0736 -0.3154 -0.1311
 9655TIP3   OH228928   0.235   0.380   4.862 -0.3714 -1.4807 -0.9786
 9655TIP3    H128929   0.221   0.389   4.767  1.5165 -0.0616 -1.1998
 9655TIP3    H228930   0.163   0.429   4.901  0.4184  0.5222 -1.8359
 9656TIP3   OH228931   3.886   4.830   4.512  0.1181 -0.2212  0.0518
 9656TIP3    H128932   3.912   4.917   4.481 -0.8901  0.2661  0.5265
 9656TIP3    H228933   3.966   4.778   4.508  0.1685 -0.0645 -2.9181
 9657TIP3   OH228934   0.184   4.908   3.735  0.0552  0.3465 -0.1303
 9657TIP3    H128935   0.139   4.828   3.709 -2.2696  1.5283  0.0031
 9657TIP3    H228936   0.200   4.897   3.829 -0.1847  0.0249 -0.1267
 9658TIP3   OH228937   1.359   2.893   2.082 -0.5835  0.0436  0.0663
 9658TIP3    H128938   1.435   2.841   2.105  1.4086  3.0907  1.0860
 9658TIP3    H228939   1.343   2.876   1.990  1.2040 -0.8286 -0.1060
 9659TIP3   OH228940   0.438   4.585   5.582 -0.2612  0.2098  0.2934
 9659TIP3    H128941   0.363   4.568   5.639  0.1536  0.8112  1.0325
 9659TIP3    H228942   0.446   4.680   5.580 -0.3927  0.2090 -0.9466
 9660TIP3   OH228943   2.794   0.067   2.655  0.4614  0.4843 -0.1341
 9660TIP3    H128944   2.706   0.049   2.688  0.7215 -0.3198  0.1336
 9660TIP3    H228945   2.812  -0.005   2.594  1.2357  0.2190  0.3973
 9661TIP3   OH228946   6.235   0.302   0.879  0.4779 -0.3355  0.0507
 9661TIP3    H128947   6.302   0.235   0.893  1.7377  0.8321 -0.2706
 9661TIP3    H228948   6.223   0.305   0.784  1.0891  0.5294 -0.0011
 9662TIP3   OH228949   6.889   5.299   4.066 -0.7924 -0.0440  0.5368
 9662TIP3    H128950   6.919   5.267   3.981 -0.7007  1.3518  0.0176
 9662TIP3    H228951   6.849   5.222   4.108  2.8594 -1.9159  1.0273
 9663TIP3   OH228952   2.827   6.644   1.475 -0.3438  0.1623 -0.0722
 9663TIP3    H128953   2.790   6.646   1.387  0.6898 -1.8014 -0.5998
 9663TIP3    H228954   2.873   6.561   1.480  1.9314  1.3897  1.3757
 9664TIP3   OH228955   1.619   2.201   5.885 -0.0344 -0.1938 -0.2445
 9664TIP3    H128956   1.674   2.128   5.856 -1.1342 -2.2125  2.2770
 9664TIP3    H228957   1.632   2.269   5.820  1.5923 -2.3988 -2.4053
 9665TIP3   OH228958   2.071   1.870   3.986  0.2393 -0.1558  0.4945
 9665TIP3    H128959   2.140   1.908   3.932  1.6629 -1.1713  1.5246
 9665TIP3    H228960   1.990   1.897   3.943  1.1669  2.6939  0.2829
 9666TIP3   OH228961   0.749   0.407   5.006  0.2724 -0.0454 -0.0467
 9666TIP3    H128962   0.794   0.339   4.957  0.1862  0.0499 -0.2568
 9666TIP3    H228963   0.657   0.397   4.983  0.1585 -0.3576  0.5220
 9667TIP3   OH228964   7.121   5.279   0.587  0.2407 -0.2197  0.3825
 9667TIP3    H128965   7.098   5.199   0.538 -1.5176  0.1946  0.4786
 9667TIP3    H228966   7.072   5.349   0.543 -0.9778  0.2434  2.3678
 9668TIP3   OH228967   2.423   0.557   4.575  0.4084  0.2670  0.1518
 9668TIP3    H128968   2.329   0.566   4.594  0.9357  0.6336  3.0070
 9668TIP3    H228969   2.428   0.558   4.480 -2.7506 -2.4073 -0.2459
 9669TIP3   OH228970   5.766   4.855   4.653  0.1950  0.4051  0.0004
 9669TIP3    H128971   5.750   4.761   4.645 -0.9011  0.5095  0.7595
 9669TIP3    H228972   5.723   4.894   4.578  0.3785  0.3362 -0.1425
 9670TIP3   OH228973   0.011   2.383   2.260 -0.0856  0.0576 -0.1604
 9670TIP3    H128974  -0.027   2.353   2.343 -0.6050  0.7914 -0.1175
 9670TIP3    H228975   0.097   2.419   2.284  0.1256 -0.5003 -0.0725
 9671TIP3   OH228976   2.356   0.013   4.755  0.7101 -0.0171 -0.8668
 9671TIP3    H128977   2.309  -0.026   4.829  2.0532 -1.8137 -0.8779
 9671TIP3    H228978   2.382   0.099   4.785 -1.0674  0.3441 -0.2553
 9672TIP3   OH228979   5.105   3.216   5.208  0.1327 -0.3056 -0.4256
 9672TIP3    H128980   5.122   3.152   5.277 -1.9053 -0.4529 -0.0044
 9672TIP3    H228981   5.168   3.287   5.226 -0.2885 -0.3716  1.5583
 9673TIP3   OH228982   6.877   2.345   0.338  0.1256 -0.2675 -0.3337
 9673TIP3    H128983   6.784   2.363   0.326  0.1553  1.7303  1.8654
 9673TIP3    H228984   6.879   2.270   0.398 -0.1255  1.0540  1.3764
 9674TIP3   OH228985   0.823   4.873   1.227 -0.3579 -0.2030 -0.0400
 9674TIP3    H128986   0.865   4.788   1.239  0.7696 -0.1372 -2.6745
 9674TIP3    H228987   0.842   4.921   1.307  0.6139 -1.7962  0.7375
 9675TIP3   OH228988   2.555   4.389   0.705  0.1572 -0.5177  0.7016
 9675TIP3    H128989   2.549   4.457   0.773 -3.0576  3.1472 -2.7274
 9675TIP3    H228990   2.593   4.434   0.630  0.4530 -3.4138 -1.0225
 9676TIP3   OH228991   2.454   0.167   1.907  0.0088 -0.0758 -0.1593
 9676TIP3    H128992   2.484   0.195   1.821  1.4484 -0.4081  0.2055
 9676TIP3    H228993   2.371   0.213   1.920  0.9626  1.8800 -0.7074
 9677TIP3   OH228994   3.659   4.472   4.390 -0.1152 -0.1526  0.1666
 9677TIP3    H128995   3.685   4.487   4.299  3.0716  0.4581  1.0447
 9677TIP3    H228996   3.646   4.377   4.395 -1.6624 -0.0588 -1.1573
 9678TIP3   OH228997   4.545   3.975   1.251 -0.5973  0.4810  0.1464
 9678TIP3    H128998   4.482   4.030   1.204 -0.3745  0.0224 -0.7098
 9678TIP3    H228999   4.591   3.927   1.182 -2.2045 -2.3547  0.8401
 9679TIP3   OH229000   6.051   1.562   4.554  0.1815  0.2140 -0.1110
 9679TIP3    H129001   6.146   1.563   4.540  0.1849 -0.6356 -0.2017
 9679TIP3    H229002   6.017   1.621   4.488  0.6965  1.0525  0.3500
 9680TIP3   OH229003   0.105   2.476   5.374 -0.3378  0.3282 -0.3754
 9680TIP3    H129004   0.078   2.524   5.296  0.0179 -0.6748 -1.1368
 9680TIP3    H229005   0.024   2.447   5.414 -0.6761  2.9201  1.0380
 9681TIP3   OH229006   3.004   1.875   1.721 -0.0027 -0.0536  0.5506
 9681TIP3    H129007   2.966   1.807   1.777 -3.0727  0.6522 -0.4371
 9681TIP3    H229008   2.939   1.945   1.723 -0.4114 -0.0569 -3.9608
 9682TIP3   OH229009   5.923   1.667   5.656  0.1749 -0.1808  0.7703
 9682TIP3    H129010   5.945   1.629   5.741  1.6203  0.1748  0.5713
 9682TIP3    H229011   5.829   1.685   5.662 -0.1607 -1.9667  1.5625
 9683TIP3   OH229012   2.122   4.282   0.835 -0.1937 -0.1884 -0.3707
 9683TIP3    H129013   2.117   4.374   0.810  1.1440  0.3316  1.0927
 9683TIP3    H229014   2.052   4.239   0.785  0.6567  1.1803 -2.9276
 9684TIP3   OH229015   6.622   2.464   0.891 -0.0316 -0.2718  0.6995
 9684TIP3    H129016   6.625   2.458   0.986 -0.8204 -1.5281  0.6815
 9684TIP3    H229017   6.530   2.446   0.869  0.4816 -1.8811 -0.3680
 9685TIP3   OH229018   4.773   2.426   2.993  0.1948  0.4136 -0.1371
 9685TIP3    H129019   4.687   2.467   2.990 -0.1150 -0.2555 -0.5426
 9685TIP3    H229020   4.831   2.487   2.947 -0.0197  0.9445  0.2837
 9686TIP3   OH229021   5.489   5.681   0.349  0.2824 -0.4393  0.0527
 9686TIP3    H129022   5.462   5.592   0.327  1.0756 -0.7245  0.2035
 9686TIP3    H229023   5.521   5.718   0.267  0.9111 -0.6501  0.1974
 9687TIP3   OH229024   3.369   1.142   3.564  0.0067  0.1922 -0.5184
 9687TIP3    H129025   3.358   1.100   3.479  0.6170 -3.2304  0.9016
 9687TIP3    H229026   3.448   1.102   3.601 -0.8735  0.6352  2.0794
 9688TIP3   OH229027   1.026   6.498   2.907  0.3907 -0.2006  0.3000
 9688TIP3    H129028   0.970   6.425   2.935 -0.5995  0.2912 -0.3142
 9688TIP3    H229029   1.106   6.457   2.876 -0.2399 -1.0578 -0.2622
 9689TIP3   OH229030   2.401   3.669   3.213  0.5799 -0.1806 -0.0979
 9689TIP3    H129031   2.427   3.678   3.304 -1.3783 -0.5911  0.5418
 9689TIP3    H229032   2.429   3.752   3.172  0.6914  0.3799  1.0716
 9690TIP3   OH229033   1.303   3.831   2.236  0.5316  0.3805  0.1371
 9690TIP3    H129034   1.215   3.800   2.257  1.3818 -0.6303  2.5897
 9690TIP3    H229035   1.309   3.917   2.279  1.0878 -0.0774  1.0143
 9691TIP3   OH229036   5.714   2.823   2.334 -0.6852 -0.3347  0.3287
 9691TIP3    H129037   5.670   2.745   2.368 -0.5203 -0.8249 -0.5589
 9691TIP3    H229038   5.793   2.789   2.293 -0.9750  0.2263 -0.7106
 9692TIP3   OH229039   3.303   3.429   1.173  0.4150 -0.1340  0.3573
 9692TIP3    H129040   3.298   3.361   1.240 -1.9941 -1.3875 -0.9680
 9692TIP3    H229041   3.243   3.498   1.203 -0.1966 -0.4222 -0.1736
 9693TIP3   OH229042   6.879   3.240   5.792 -0.1812  0.4750  0.4997
 9693TIP3    H129043   6.818   3.166   5.803  1.7458 -1.1357  0.9353
 9693TIP3    H229044   6.965   3.202   5.806  1.0113  2.5332 -0.7841
 9694TIP3   OH229045   7.208   1.175   4.429 -0.2759  0.1910  0.0756
 9694TIP3    H129046   7.120   1.212   4.443  0.9025  3.2594  0.0318
 9694TIP3    H229047   7.247   1.174   4.516 -0.0655 -0.3901 -0.0257
 9695TIP3   OH229048   3.742   5.779   4.310  0.6442 -0.5105  0.1066
 9695TIP3    H129049   3.808   5.775   4.241  0.6134 -0.9931  0.1046
 9695TIP3    H229050   3.672   5.833   4.273  1.6880  1.3226  0.6681
 9696TIP3   OH229051   5.822   2.422   1.353 -0.2989  0.5877  0.6687
 9696TIP3    H129052   5.817   2.379   1.267  0.2135 -0.2800  1.0564
 9696TIP3    H229053   5.753   2.488   1.351 -1.4844 -0.6321  0.2529
 9697TIP3   OH229054   4.428   2.604   0.679 -0.5914 -0.0211 -0.2040
 9697TIP3    H129055   4.419   2.520   0.724  2.3777  0.2373  1.0622
 9697TIP3    H229056   4.369   2.597   0.603 -0.9883 -2.9179  0.2745
 9698TIP3   OH229057   5.963   2.862   1.253 -0.5076  0.2087 -0.2238
 9698TIP3    H129058   6.009   2.941   1.226 -0.4469  0.0167 -0.6831
 9698TIP3    H229059   6.024   2.791   1.233 -0.7732  0.0008 -0.3029
 9699TIP3   OH229060   4.882   2.342   4.221  0.3319  0.3856 -0.2839
 9699TIP3    H129061   4.894   2.260   4.174 -0.5440  0.4070 -0.5539
 9699TIP3    H229062   4.970   2.363   4.254  0.7075 -0.2764 -0.8251
 9700TIP3   OH229063   1.552   0.964   4.836 -0.3310  0.1911  0.2281
 9700TIP3    H129064   1.630   1.007   4.801  0.5751 -0.8738  0.8740
 9700TIP3    H229065   1.486   0.976   4.769  0.7174  0.1145 -0.8537
 9701TIP3   OH229066   1.365   0.576   2.985  0.5965 -0.1020 -0.5341
 9701TIP3    H129067   1.292   0.636   2.968 -1.3243 -1.7002  1.4456
 9701TIP3    H229068   1.361   0.513   2.913 -0.1825 -0.3347 -0.2970
 9702TIP3   OH229069   6.966   0.223   1.708 -0.1509  0.1278 -0.1587
 9702TIP3    H129070   6.871   0.219   1.721  0.0579  0.8818  1.8698
 9702TIP3    H229071   6.997   0.135   1.730 -0.2044  0.3995  1.0737
 9703TIP3   OH229072   3.918   6.032   1.863 -0.1930  0.0697  0.2615
 9703TIP3    H129073   3.870   6.114   1.876 -1.2263 -0.4173 -0.3920
 9703TIP3    H229074   3.976   6.026   1.939  0.7828  1.9987 -0.2690
 9704TIP3   OH229075   1.529   1.789   2.214 -0.1364  0.4874 -0.8010
 9704TIP3    H129076   1.618   1.762   2.194  0.7653  2.5540  0.1434
 9704TIP3    H229077   1.487   1.711   2.250  0.1262 -1.5290 -4.4390
 9705TIP3   OH229078   3.725   1.870   2.378 -0.2758  0.4629 -0.1658
 9705TIP3    H129079   3.737   1.828   2.293  0.4077  1.3513 -0.5298
 9705TIP3    H229080   3.729   1.799   2.441  1.2845  0.0178 -0.7154
 9706TIP3   OH229081   3.784   2.804   1.491 -0.1156  0.2321 -0.3672
 9706TIP3    H129082   3.690   2.823   1.490 -0.3569 -0.8339  0.3374
 9706TIP3    H229083   3.795   2.740   1.562  0.8506 -1.0778 -1.6197
 9707TIP3   OH229084   4.019   1.186   3.332 -0.1950  0.1626  0.1089
 9707TIP3    H129085   4.052   1.260   3.382 -2.5990  0.8559  0.7832
 9707TIP3    H229086   4.098   1.140   3.303  1.3063  1.1431  2.3891
 9708TIP3   OH229087   4.191   6.591   1.365 -0.4046 -0.4087  0.1587
 9708TIP3    H129088   4.210   6.674   1.322  0.8344 -0.0547  1.3323
 9708TIP3    H229089   4.199   6.525   1.296  1.5152  0.1422 -0.1798
 9709TIP3   OH229090   6.696   0.371   2.429  0.2989  0.2410  0.1212
 9709TIP3    H129091   6.724   0.462   2.437  0.8026  0.0434  0.7170
 9709TIP3    H229092   6.753   0.333   2.363 -0.5458  0.5948 -0.8302
 9710TIP3   OH229093   0.547   2.969   2.075  0.2043  0.2354  0.0812
 9710TIP3    H129094   0.558   2.882   2.037  2.2705  0.7914 -0.7249
 9710TIP3    H229095   0.462   2.998   2.043 -0.2282 -1.2248 -0.1721
 9711TIP3   OH229096   0.047   4.700   0.809 -0.1398 -0.3974 -0.3905
 9711TIP3    H129097   0.046   4.790   0.776 -1.4449 -0.3993 -0.3842
 9711TIP3    H229098  -0.042   4.668   0.796  0.1627 -1.5023  0.1338
 9712TIP3   OH229099   5.670   2.835   2.680 -0.0492 -0.1332 -0.0930
 9712TIP3    H129100   5.624   2.752   2.697 -3.1641  1.7430  1.7233
 9712TIP3    H229101   5.601   2.902   2.684  2.7408  2.9671  2.3983
 9713TIP3   OH229102   3.647   2.978   4.032 -0.0804 -0.3228  0.7350
 9713TIP3    H129103   3.655   2.966   3.938  2.9254 -0.2345  0.8887
 9713TIP3    H229104   3.657   2.890   4.069  1.2856 -0.0732  1.0219
 9714TIP3   OH229105   3.100   1.657   3.299  0.4810 -0.2212 -0.1479
 9714TIP3    H129106   3.126   1.739   3.340  0.9326 -1.1302  1.4799
 9714TIP3    H229107   3.006   1.650   3.318  0.4562 -0.1164 -0.2308
 9715TIP3   OH229108   3.880   1.849   2.674  0.2028 -0.8065 -0.5094
 9715TIP3    H129109   3.924   1.829   2.756  0.1196  3.4725  0.7678
 9715TIP3    H229110   3.787   1.833   2.692  0.1237  0.6211  0.4879
 9716TIP3   OH229111   2.745   0.063   1.047 -0.4007 -0.4058  0.0568
 9716TIP3    H129112   2.762  -0.025   1.081  1.6020  0.3137  1.0444
 9716TIP3    H229113   2.687   0.103   1.111 -1.6167 -1.0773 -0.5776
 9717TIP3   OH229114   5.864   4.128   0.431  0.1487 -0.0340 -0.0894
 9717TIP3    H129115   5.795   4.171   0.481 -0.6172  1.3518 -2.2155
 9717TIP3    H229116   5.818   4.070   0.371  1.0894 -2.1900  1.1479
 9718TIP3   OH229117   5.219   3.667   3.456  0.5785  0.1748 -0.4553
 9718TIP3    H129118   5.151   3.723   3.491  1.0631  1.1918 -1.0987
 9718TIP3    H229119   5.285   3.662   3.526 -0.4118 -1.3450  0.4247
 9719TIP3   OH229120   1.049   1.316   3.974 -0.4978 -0.2749 -0.1276
 9719TIP3    H129121   1.144   1.319   3.970 -0.2187 -0.9377  3.0198
 9719TIP3    H229122   1.020   1.398   3.932  1.6020  1.0559  0.8562
 9720TIP3   OH229123   3.139   5.951   1.330 -0.4920  0.4975  0.0829
 9720TIP3    H129124   3.133   5.994   1.244 -1.2857 -1.3512 -0.8410
 9720TIP3    H229125   3.049   5.921   1.347 -0.0336 -0.4708  0.8556
 9721TIP3   OH229126   2.152   6.681   5.405  0.2525  0.3682 -1.3378
 9721TIP3    H129127   2.224   6.625   5.374  0.8716  0.4212 -0.0659
 9721TIP3    H229128   2.170   6.694   5.498 -0.9957  1.0299 -1.1650
 9722TIP3   OH229129   2.882   4.157   3.660 -0.3266 -0.1852  0.5400
 9722TIP3    H129130   2.795   4.118   3.649 -0.2849 -0.2590  0.4712
 9722TIP3    H229131   2.942   4.092   3.624 -0.1891 -0.4273  1.1889
 9723TIP3   OH229132   4.589   0.542   2.857 -0.3694 -0.0829 -0.4951
 9723TIP3    H129133   4.659   0.553   2.793  1.1997 -0.1230  1.1306
 9723TIP3    H229134   4.603   0.455   2.893 -2.5625 -0.9676 -1.5539
 9724TIP3   OH229135   4.940   1.111   2.683  0.2418  0.1462 -0.7415
 9724TIP3    H129136   4.912   1.142   2.769 -0.5170 -1.2894 -0.4400
 9724TIP3    H229137   4.904   1.175   2.622 -0.5262  0.3491 -0.1021
 9725TIP3   OH229138   0.167   1.147   5.601 -0.0833  0.2079 -0.2368
 9725TIP3    H129139   0.205   1.235   5.599  1.0217 -0.2257  1.0458
 9725TIP3    H229140   0.190   1.112   5.687 -1.2752 -1.0131 -0.3853
 9726TIP3   OH229141   1.647   5.258   3.798  0.1470  0.2401  0.1765
 9726TIP3    H129142   1.637   5.192   3.867  2.3227  0.8040  1.1047
 9726TIP3    H229143   1.582   5.325   3.820  0.5033  0.2022  1.4744
 9727TIP3   OH229144   1.171   0.199   2.087  0.0005 -0.5742  0.5165
 9727TIP3    H129145   1.098   0.185   2.147 -1.7678  3.1727 -0.4810
 9727TIP3    H229146   1.140   0.165   2.003 -1.2235  1.9792 -0.1662
 9728TIP3   OH229147   4.117   0.253   1.674  0.2403 -0.2544  0.3545
 9728TIP3    H129148   4.137   0.242   1.767 -0.2545 -1.2740  0.3566
 9728TIP3    H229149   4.025   0.230   1.667  0.0293  0.7350 -0.2503
 9729TIP3   OH229150   4.523   5.851   3.573 -0.0290  0.2804  0.0374
 9729TIP3    H129151   4.475   5.895   3.643 -1.5240 -0.4814 -0.4640
 9729TIP3    H229152   4.560   5.773   3.614  0.6459  0.7712  0.3813
 9730TIP3   OH229153   0.187   0.749   4.458  0.0118  0.5958 -0.3912
 9730TIP3    H129154   0.210   0.767   4.367  1.3060  0.5754 -0.0849
 9730TIP3    H229155   0.091   0.742   4.458 -0.0070  0.6886 -1.7256
 9731TIP3   OH229156   5.326   2.230   0.696  0.0084 -0.1155  0.3963
 9731TIP3    H129157   5.368   2.152   0.661 -0.3839 -0.4723  0.7060
 9731TIP3    H229158   5.261   2.197   0.757  0.3921  0.4834  1.1483
 9732TIP3   OH229159   3.073   5.239   0.021 -0.2456  0.1315 -0.2154
 9732TIP3    H129160   3.145   5.265  -0.036  1.5578 -4.3957 -0.4239
 9732TIP3    H229161   3.108   5.248   0.109  0.2917 -1.0993 -0.2791
 9733TIP3   OH229162   5.845   3.038   0.876 -0.4207  1.1834  0.2076
 9733TIP3    H129163   5.774   3.029   0.813 -1.1902  1.0132  1.0733
 9733TIP3    H229164   5.924   3.015   0.827 -1.1281 -0.1012 -0.3918
 9734TIP3   OH229165   3.426   2.313   1.183 -0.3145 -0.5893  0.7485
 9734TIP3    H129166   3.418   2.344   1.093 -2.2906  1.1985  1.4684
 9734TIP3    H229167   3.455   2.222   1.174  0.3837 -0.2169 -1.6306
 9735TIP3   OH229168   3.408   5.796   5.570  0.2595 -0.4474 -0.7037
 9735TIP3    H129169   3.411   5.892   5.568  1.5650 -0.4201  0.7613
 9735TIP3    H229170   3.436   5.770   5.483 -0.5795  0.4944 -1.2805
 9736TIP3   OH229171   4.603   0.453   1.875 -0.1018  0.4810  0.5744
 9736TIP3    H129172   4.577   0.364   1.851 -0.8588  1.5002 -3.0925
 9736TIP3    H229173   4.681   0.470   1.821 -1.9999  3.0724 -1.6505
 9737TIP3   OH229174   2.198   0.934   4.569 -0.4662 -0.1365 -0.3168
 9737TIP3    H129175   2.221   0.927   4.476 -0.2154  0.0400 -0.2699
 9737TIP3    H229176   2.233   1.019   4.596 -0.1970 -0.3527  0.0308
 9738TIP3   OH229177   2.411   6.614   5.046  0.5754 -0.2142 -0.3293
 9738TIP3    H129178   2.471   6.632   4.974  2.0109 -1.0114  0.6177
 9738TIP3    H229179   2.423   6.521   5.064 -1.6526 -0.6210 -0.6956
 9739TIP3   OH229180   6.682   4.210   1.474  0.4807 -0.0641 -0.1779
 9739TIP3    H129181   6.708   4.299   1.498 -2.3900  0.6459  0.7083
 9739TIP3    H229182   6.660   4.168   1.558 -2.8552  0.0826 -0.8384
 9740TIP3   OH229183   2.464   1.757   5.284 -0.1189 -0.1761 -0.3918
 9740TIP3    H129184   2.527   1.829   5.290 -0.8270  0.3759  0.5398
 9740TIP3    H229185   2.518   1.678   5.289  0.4687  0.2850  1.1105
 9741TIP3   OH229186   6.537   2.282   5.290 -0.4825 -0.8260  0.1234
 9741TIP3    H129187   6.518   2.305   5.381  1.1622 -0.0623  0.3165
 9741TIP3    H229188   6.538   2.186   5.289 -0.9356 -0.8435  0.8064
 9742TIP3   OH229189   5.385   5.552   1.752 -0.4925  0.1869  0.1456
 9742TIP3    H129190   5.319   5.483   1.755 -1.6200  1.2173 -0.1381
 9742TIP3    H229191   5.382   5.591   1.840  0.0463 -0.0208  0.2621
 9743TIP3   OH229192   4.840   3.179   1.418  0.2993  0.1355  0.3676
 9743TIP3    H129193   4.818   3.172   1.510 -1.4260 -1.3813 -0.1024
 9743TIP3    H229194   4.850   3.273   1.403 -2.7845  0.7429  1.4102
 9744TIP3   OH229195   0.029   0.850   4.878 -0.0666 -0.1915  0.3205
 9744TIP3    H129196   0.059   0.895   4.799  3.5227 -0.1376  1.5114
 9744TIP3    H229197  -0.010   0.769   4.846 -1.3702  1.1127 -1.5962
 9745TIP3   OH229198   4.200   3.524   0.632  0.1584  0.0522 -0.4017
 9745TIP3    H129199   4.264   3.509   0.562 -0.1565  0.8893 -0.8826
 9745TIP3    H229200   4.166   3.612   0.615  0.5608  0.5548  1.1955
 9746TIP3   OH229201   2.495   5.193   1.595 -0.1232 -0.1157 -0.4088
 9746TIP3    H129202   2.413   5.190   1.643  1.0342  2.1806  2.0343
 9746TIP3    H229203   2.560   5.219   1.661  2.1092  0.5738 -2.7120
 9747TIP3   OH229204   5.261   1.988   2.949  0.1299  0.2737 -0.0675
 9747TIP3    H129205   5.225   1.925   3.011 -1.8173  1.1194 -0.2547
 9747TIP3    H229206   5.202   2.063   2.955  2.7455  2.4256  0.6862
 9748TIP3   OH229207   1.348   1.987   1.204 -0.0700  0.1274 -0.4125
 9748TIP3    H129208   1.321   1.992   1.112 -1.0955 -0.7795 -0.1846
 9748TIP3    H229209   1.267   1.985   1.253  0.4392 -0.5910  0.4372
 9749TIP3   OH229210   5.517   5.823   2.336 -0.3516 -0.2476 -0.3476
 9749TIP3    H129211   5.509   5.731   2.359 -0.8261 -0.2079 -0.3309
 9749TIP3    H229212   5.512   5.870   2.420  0.7830 -0.2489 -0.2694
   7.21546   6.80281   5.89139   0.00000   0.00000  -2.40515   0.00000  -2.40515  -3.40140
