Title t= 314.00000 step= 157000
29212
    1ASP      N    1   3.123   1.596   2.758
    1ASP    HT1    2   3.107   1.561   2.855
    1ASP    HT2    3   3.208   1.657   2.766
    1ASP    HT3    4   3.151   1.513   2.703
    1ASP     CA    5   3.008   1.682   2.711
    1ASP     HA    6   3.026   1.780   2.752
    1ASP     CB    7   2.988   1.689   2.559
    1ASP    HB1    8   2.891   1.738   2.536
    1ASP    HB2    9   3.006   1.591   2.510
    1ASP     CG   10   3.090   1.782   2.508
    1ASP    OD1   11   3.191   1.817   2.571
    1ASP    OD2   12   3.089   1.812   2.382
    1ASP      C   13   2.884   1.650   2.786
    1ASP      O   14   2.835   1.729   2.864
    2GLY      N   15   2.820   1.543   2.756
    2GLY     HN   16   2.862   1.481   2.690
    2GLY     CA   17   2.693   1.492   2.811
    2GLY    HA1   18   2.687   1.509   2.917
    2GLY    HA2   19   2.702   1.386   2.791
    2GLY      C   20   2.569   1.550   2.732
    2GLY      O   21   2.575   1.632   2.641
    3ASP      N   22   2.451   1.507   2.775
    3ASP     HN   23   2.438   1.433   2.841
    3ASP     CA   24   2.330   1.531   2.705
    3ASP     HA   25   2.342   1.505   2.601
    3ASP     CB   26   2.217   1.444   2.749
    3ASP    HB1   27   2.126   1.469   2.690
    3ASP    HB2   28   2.191   1.463   2.855
    3ASP     CG   29   2.239   1.288   2.739
    3ASP    OD1   30   2.181   1.206   2.817
    3ASP    OD2   31   2.299   1.243   2.639
    3ASP      C   32   2.293   1.681   2.708
    3ASP      O   33   2.296   1.746   2.812
    4GLY      N   34   2.261   1.740   2.591
    4GLY     HN   35   2.274   1.685   2.509
    4GLY     CA   36   2.198   1.874   2.572
    4GLY    HA1   37   2.173   1.878   2.467
    4GLY    HA2   38   2.269   1.951   2.601
    4GLY      C   39   2.074   1.899   2.659
    4GLY      O   40   2.029   1.808   2.721
    5PRO      N   41   2.012   2.013   2.651
    5PRO     CD   42   2.062   2.126   2.580
    5PRO    HD1   43   2.033   2.113   2.474
    5PRO    HD2   44   2.168   2.149   2.601
    5PRO     CA   45   1.873   2.034   2.696
    5PRO     HA   46   1.879   2.020   2.803
    5PRO     CB   47   1.843   2.179   2.670
    5PRO    HB1   48   1.798   2.229   2.759
    5PRO    HB2   49   1.782   2.192   2.579
    5PRO     CG   50   1.984   2.240   2.648
    5PRO    HG1   51   1.976   2.334   2.588
    5PRO    HG2   52   2.032   2.259   2.747
    5PRO      C   53   1.765   1.932   2.635
    5PRO      O   54   1.746   1.930   2.514
    6GLY      N   55   1.690   1.861   2.721
    6GLY     HN   56   1.705   1.864   2.819
    6GLY     CA   57   1.591   1.766   2.685
    6GLY    HA1   58   1.596   1.686   2.757
    6GLY    HA2   59   1.601   1.735   2.582
    6GLY      C   60   1.461   1.832   2.704
    6GLY      O   61   1.448   1.953   2.693
    7ASP      N   62   1.360   1.760   2.747
    7ASP     HN   63   1.376   1.661   2.749
    7ASP     CA   64   1.229   1.807   2.782
    7ASP     HA   65   1.205   1.907   2.746
    7ASP     CB   66   1.121   1.703   2.732
    7ASP    HB1   67   1.017   1.719   2.768
    7ASP    HB2   68   1.141   1.601   2.770
    7ASP     CG   69   1.114   1.688   2.584
    7ASP    OD1   70   1.071   1.582   2.533
    7ASP    OD2   71   1.159   1.779   2.510
    7ASP      C   72   1.225   1.816   2.933
    7ASP      O   73   1.253   1.714   3.000
    8PRO      N   74   1.197   1.929   3.002
    8PRO     CD   75   1.213   2.064   2.951
    8PRO    HD1   76   1.136   2.082   2.873
    8PRO    HD2   77   1.318   2.082   2.918
    8PRO     CA   78   1.166   1.933   3.143
    8PRO     HA   79   1.257   1.913   3.198
    8PRO     CB   80   1.114   2.077   3.158
    8PRO    HB1   81   1.116   2.113   3.263
    8PRO    HB2   82   1.007   2.078   3.127
    8PRO     CG   83   1.196   2.159   3.067
    8PRO    HG1   84   1.156   2.260   3.046
    8PRO    HG2   85   1.293   2.161   3.121
    8PRO      C   86   1.070   1.838   3.207
    8PRO      O   87   0.962   1.815   3.153
    9GLY      N   88   1.098   1.788   3.329
    9GLY     HN   89   1.183   1.807   3.377
    9GLY     CA   90   1.001   1.711   3.406
    9GLY    HA1   91   1.054   1.665   3.489
    9GLY    HA2   92   0.945   1.639   3.348
    9GLY      C   93   0.888   1.791   3.465
    9GLY      O   94   0.881   1.914   3.468
   10ASP      N   95   0.798   1.724   3.530
   10ASP     HN   96   0.806   1.624   3.536
   10ASP     CA   97   0.695   1.785   3.614
   10ASP     HA   98   0.648   1.858   3.550
   10ASP     CB   99   0.586   1.683   3.646
   10ASP    HB1  100   0.500   1.725   3.701
   10ASP    HB2  101   0.629   1.611   3.719
   10ASP     CG  102   0.529   1.605   3.532
   10ASP    OD1  103   0.532   1.633   3.409
   10ASP    OD2  104   0.458   1.505   3.568
   10ASP      C  105   0.752   1.855   3.742
   10ASP      O  106   0.804   1.785   3.828
   11GLY      N  107   0.719   1.987   3.753
   11GLY     HN  108   0.684   2.038   3.675
   11GLY     CA  109   0.729   2.067   3.875
   11GLY    HA1  110   0.779   2.009   3.950
   11GLY    HA2  111   0.628   2.094   3.905
   11GLY      C  112   0.803   2.195   3.862
   11GLY    OT1  113   0.896   2.210   3.779
   11GLY    OT2  114   0.776   2.279   3.950
   12LIT    LIT  115   0.832   0.009   1.524
   13LIT    LIT  116   6.676   0.524   0.548
   14LIT    LIT  117   4.722   1.668   5.207
   15LIT    LIT  118   0.476   5.117   2.554
   16LIT    LIT  119   0.960   2.345   3.940
   17LIT    LIT  120   4.490   6.448   3.312
   18LIT    LIT  121   2.451   2.364   3.558
   19LIT    LIT  122   1.999   4.068   0.629
   20LIT    LIT  123   0.225   1.061   5.713
   21LIT    LIT  124   1.298   6.151   4.343
   22LIT    LIT  125   5.246   1.337   4.529
   23LIT    LIT  126   3.079   6.744   2.129
   24LIT    LIT  127   5.940   4.344   5.886
   25LIT    LIT  128   0.298   3.099   3.082
   26LIT    LIT  129   0.371   1.527   3.397
   27LIT    LIT  130   1.590   0.212   3.556
   28LIT    LIT  131   1.293   6.336   5.481
   29LIT    LIT  132   5.824   2.416   3.280
   30LIT    LIT  133   0.301   0.903   2.263
   31LIT    LIT  134   5.738   2.187   2.142
   32LIT    LIT  135   6.231   5.300   5.741
   33LIT    LIT  136   3.574   4.145   3.070
   34LIT    LIT  137   6.973   1.447   4.763
   35LIT    LIT  138   0.920   1.033   2.161
   36LIT    LIT  139   6.604   5.864   2.724
   37LIT    LIT  140   2.910   5.989   3.512
   38LIT    LIT  141   0.264   1.410   0.519
   39LIT    LIT  142   3.281   1.875   2.410
   40LIT    LIT  143   2.538   5.093   2.664
   41LIT    LIT  144   2.021   1.447   4.484
   42LIT    LIT  145   2.201   1.066   2.662
   43CLA    CLA  146   2.595   5.007   2.442
   44CLA    CLA  147   1.935   0.476   3.984
   45CLA    CLA  148   2.562   3.091   3.609
   46CLA    CLA  149   5.772   3.449   0.067
   47CLA    CLA  150   0.502   1.020   3.149
   48CLA    CLA  151   6.425   0.076   1.488
   49CLA    CLA  152   1.375   4.841   3.441
   50CLA    CLA  153   1.286   3.083   2.584
   51CLA    CLA  154   5.745   0.820   2.325
   52CLA    CLA  155   2.701   4.759   4.201
   53CLA    CLA  156   3.011   2.174   3.333
   54CLA    CLA  157   2.528   2.055   0.964
   55CLA    CLA  158   5.665   1.338   4.708
   56CLA    CLA  159   0.410   1.721   4.748
   57CLA    CLA  160   3.067   1.622   5.334
   58CLA    CLA  161   3.689   4.328   3.169
   59CLA    CLA  162   4.373   0.649   2.105
   60CLA    CLA  163   3.390   0.026   2.427
   61CLA    CLA  164   1.683   1.341   2.319
   62CLA    CLA  165   2.206   0.507   2.230
   63CLA    CLA  166   2.654   5.288   5.050
   64CLA    CLA  167   2.743   4.469   0.352
   65CLA    CLA  168   6.157   4.836   5.206
   66CLA    CLA  169   0.941   4.694   2.032
   67CLA    CLA  170   2.077   4.786   5.389
   68CLA    CLA  171   5.356   3.799   4.486
   69CLA    CLA  172   3.406   4.674   3.744
   70TIP3   OH2  173   3.118   4.914   0.568
   70TIP3    H1  174   3.148   4.892   0.480
   70TIP3    H2  175   3.026   4.887   0.570
   71TIP3   OH2  176   2.318   1.011   1.893
   71TIP3    H1  177   2.298   1.072   1.963
   71TIP3    H2  178   2.253   0.942   1.901
   72TIP3   OH2  179   1.720   6.317   3.079
   72TIP3    H1  180   1.667   6.240   3.058
   72TIP3    H2  181   1.760   6.295   3.163
   73TIP3   OH2  182   4.789   4.433   4.569
   73TIP3    H1  183   4.842   4.471   4.499
   73TIP3    H2  184   4.850   4.422   4.642
   74TIP3   OH2  185   3.290   4.455   5.546
   74TIP3    H1  186   3.343   4.375   5.553
   74TIP3    H2  187   3.203   4.423   5.523
   75TIP3   OH2  188   5.224   2.224   1.206
   75TIP3    H1  189   5.150   2.223   1.145
   75TIP3    H2  190   5.300   2.202   1.152
   76TIP3   OH2  191   2.732   5.332   5.355
   76TIP3    H1  192   2.689   5.331   5.269
   76TIP3    H2  193   2.675   5.386   5.410
   77TIP3   OH2  194   3.046   2.001   1.400
   77TIP3    H1  195   3.009   1.932   1.454
   77TIP3    H2  196   2.991   2.003   1.322
   78TIP3   OH2  197   1.714   3.725   3.624
   78TIP3    H1  198   1.645   3.668   3.591
   78TIP3    H2  199   1.719   3.705   3.717
   79TIP3   OH2  200   2.942   1.368   1.258
   79TIP3    H1  201   2.959   1.462   1.259
   79TIP3    H2  202   3.023   1.329   1.226
   80TIP3   OH2  203   2.037   1.462   5.512
   80TIP3    H1  204   1.975   1.506   5.571
   80TIP3    H2  205   2.045   1.521   5.438
   81TIP3   OH2  206   7.070   4.255   2.312
   81TIP3    H1  207   7.055   4.313   2.237
   81TIP3    H2  208   7.003   4.281   2.375
   82TIP3   OH2  209   3.155   4.706   4.576
   82TIP3    H1  210   3.081   4.733   4.631
   82TIP3    H2  211   3.119   4.702   4.487
   83TIP3   OH2  212   0.657   1.989   0.515
   83TIP3    H1  213   0.679   2.006   0.424
   83TIP3    H2  214   0.564   1.969   0.514
   84TIP3   OH2  215   4.152   1.607   4.299
   84TIP3    H1  216   4.062   1.629   4.274
   84TIP3    H2  217   4.144   1.573   4.388
   85TIP3   OH2  218   7.068   0.973   1.487
   85TIP3    H1  219   7.044   0.946   1.576
   85TIP3    H2  220   7.149   1.024   1.499
   86TIP3   OH2  221   2.474   0.477   0.388
   86TIP3    H1  222   2.531   0.544   0.426
   86TIP3    H2  223   2.507   0.394   0.423
   87TIP3   OH2  224   5.934   6.624   1.767
   87TIP3    H1  225   5.973   6.709   1.746
   87TIP3    H2  226   5.914   6.629   1.860
   88TIP3   OH2  227   2.916   5.152   5.129
   88TIP3    H1  228   2.839   5.201   5.098
   88TIP3    H2  229   2.936   5.092   5.057
   89TIP3   OH2  230   1.057   5.444   0.505
   89TIP3    H1  231   0.985   5.454   0.443
   89TIP3    H2  232   1.015   5.451   0.591
   90TIP3   OH2  233   4.178   2.680   3.115
   90TIP3    H1  234   4.214   2.687   3.026
   90TIP3    H2  235   4.085   2.659   3.101
   91TIP3   OH2  236   6.920   1.383   1.221
   91TIP3    H1  237   6.913   1.464   1.170
   91TIP3    H2  238   6.830   1.349   1.224
   92TIP3   OH2  239   1.482   6.175   0.033
   92TIP3    H1  240   1.544   6.174  -0.040
   92TIP3    H2  241   1.505   6.254   0.083
   93TIP3   OH2  242   2.918   1.973   3.593
   93TIP3    H1  243   2.958   2.009   3.514
   93TIP3    H2  244   2.964   2.016   3.665
   94TIP3   OH2  245   0.467   3.436   5.234
   94TIP3    H1  246   0.562   3.444   5.237
   94TIP3    H2  247   0.447   3.427   5.140
   95TIP3   OH2  248   0.207   1.550   0.391
   95TIP3    H1  249   0.245   1.597   0.317
   95TIP3    H2  250   0.114   1.569   0.386
   96TIP3   OH2  251   6.216   4.785   4.837
   96TIP3    H1  252   6.135   4.829   4.861
   96TIP3    H2  253   6.279   4.813   4.904
   97TIP3   OH2  254   0.515   4.891   4.662
   97TIP3    H1  255   0.553   4.809   4.694
   97TIP3    H2  256   0.423   4.870   4.647
   98TIP3   OH2  257   0.912   3.873   0.713
   98TIP3    H1  258   0.862   3.810   0.661
   98TIP3    H2  259   0.907   3.840   0.802
   99TIP3   OH2  260   1.679   3.602   4.912
   99TIP3    H1  261   1.731   3.673   4.876
   99TIP3    H2  262   1.669   3.625   5.005
  100TIP3   OH2  263   2.184   3.831   4.214
  100TIP3    H1  264   2.236   3.858   4.138
  100TIP3    H2  265   2.249   3.820   4.284
  101TIP3   OH2  266   5.747   3.553   2.546
  101TIP3    H1  267   5.710   3.606   2.475
  101TIP3    H2  268   5.809   3.495   2.502
  102TIP3   OH2  269   0.640   3.021   0.462
  102TIP3    H1  270   0.696   3.097   0.446
  102TIP3    H2  271   0.629   3.018   0.557
  103TIP3   OH2  272   6.141   0.375   1.518
  103TIP3    H1  273   6.211   0.435   1.543
  103TIP3    H2  274   6.163   0.293   1.563
  104TIP3   OH2  275   0.163   2.581   4.204
  104TIP3    H1  276   0.227   2.557   4.136
  104TIP3    H2  277   0.103   2.641   4.161
  105TIP3   OH2  278   4.641   5.455   1.948
  105TIP3    H1  279   4.645   5.368   1.907
  105TIP3    H2  280   4.571   5.500   1.901
  106TIP3   OH2  281   0.649   0.115   5.206
  106TIP3    H1  282   0.743   0.110   5.219
  106TIP3    H2  283   0.638   0.122   5.111
  107TIP3   OH2  284   6.517   6.290   4.042
  107TIP3    H1  285   6.572   6.267   3.967
  107TIP3    H2  286   6.470   6.369   4.015
  108TIP3   OH2  287   1.517   5.730   0.497
  108TIP3    H1  288   1.507   5.653   0.552
  108TIP3    H2  289   1.534   5.694   0.409
  109TIP3   OH2  290   6.811   2.033   5.549
  109TIP3    H1  291   6.850   2.117   5.570
  109TIP3    H2  292   6.835   2.017   5.457
  110TIP3   OH2  293   1.866   0.859   3.673
  110TIP3    H1  294   1.830   0.773   3.698
  110TIP3    H2  295   1.961   0.847   3.679
  111TIP3   OH2  296   6.660   2.007   0.602
  111TIP3    H1  297   6.636   2.060   0.526
  111TIP3    H2  298   6.591   2.023   0.666
  112TIP3   OH2  299   4.235   4.637   2.392
  112TIP3    H1  300   4.301   4.641   2.324
  112TIP3    H2  301   4.252   4.712   2.448
  113TIP3   OH2  302   1.341   6.541   1.891
  113TIP3    H1  303   1.436   6.545   1.885
  113TIP3    H2  304   1.316   6.629   1.922
  114TIP3   OH2  305   1.719   3.274   5.884
  114TIP3    H1  306   1.770   3.267   5.803
  114TIP3    H2  307   1.704   3.184   5.911
  115TIP3   OH2  308   1.262   5.767   2.643
  115TIP3    H1  309   1.246   5.705   2.572
  115TIP3    H2  310   1.184   5.823   2.644
  116TIP3   OH2  311   1.292   0.449   3.654
  116TIP3    H1  312   1.382   0.457   3.685
  116TIP3    H2  313   1.246   0.521   3.696
  117TIP3   OH2  314   4.784   5.502   2.883
  117TIP3    H1  315   4.867   5.537   2.913
  117TIP3    H2  316   4.774   5.535   2.793
  118TIP3   OH2  317   6.705   1.490   0.245
  118TIP3    H1  318   6.632   1.547   0.269
  118TIP3    H2  319   6.695   1.478   0.151
  119TIP3   OH2  320   3.314   3.058   2.872
  119TIP3    H1  321   3.258   3.135   2.879
  119TIP3    H2  322   3.257   2.984   2.892
  120TIP3   OH2  323   3.789   4.820   1.470
  120TIP3    H1  324   3.774   4.786   1.382
  120TIP3    H2  325   3.879   4.854   1.467
  121TIP3   OH2  326   5.628   0.688   0.528
  121TIP3    H1  327   5.587   0.623   0.584
  121TIP3    H2  328   5.573   0.692   0.450
  122TIP3   OH2  329   3.919   2.954   5.003
  122TIP3    H1  330   3.826   2.945   5.022
  122TIP3    H2  331   3.931   3.046   4.981
  123TIP3   OH2  332   7.046   5.435   1.048
  123TIP3    H1  333   6.975   5.496   1.063
  123TIP3    H2  334   7.005   5.360   1.005
  124TIP3   OH2  335   3.277   6.501   1.357
  124TIP3    H1  336   3.255   6.495   1.264
  124TIP3    H2  337   3.273   6.595   1.376
  125TIP3   OH2  338   3.585   2.516   5.369
  125TIP3    H1  339   3.521   2.487   5.303
  125TIP3    H2  340   3.534   2.529   5.449
  126TIP3   OH2  341   1.935   5.985   1.435
  126TIP3    H1  342   2.003   6.006   1.371
  126TIP3    H2  343   1.857   6.030   1.403
  127TIP3   OH2  344   6.708   3.812   3.142
  127TIP3    H1  345   6.715   3.907   3.144
  127TIP3    H2  346   6.615   3.794   3.157
  128TIP3   OH2  347   1.820   2.666   5.513
  128TIP3    H1  348   1.865   2.692   5.433
  128TIP3    H2  349   1.888   2.627   5.567
  129TIP3   OH2  350   3.088   1.510   0.110
  129TIP3    H1  351   3.155   1.577   0.097
  129TIP3    H2  352   3.086   1.461   0.028
  130TIP3   OH2  353   4.841   6.587   1.541
  130TIP3    H1  354   4.853   6.643   1.464
  130TIP3    H2  355   4.929   6.577   1.577
  131TIP3   OH2  356   6.807   0.273   4.507
  131TIP3    H1  357   6.815   0.207   4.576
  131TIP3    H2  358   6.729   0.246   4.458
  132TIP3   OH2  359   4.657   1.696   2.803
  132TIP3    H1  360   4.628   1.751   2.875
  132TIP3    H2  361   4.678   1.612   2.843
  133TIP3   OH2  362   0.921   2.848   2.291
  133TIP3    H1  363   0.888   2.760   2.273
  133TIP3    H2  364   0.975   2.869   2.214
  134TIP3   OH2  365   3.579   1.883   5.049
  134TIP3    H1  366   3.539   1.970   5.051
  134TIP3    H2  367   3.563   1.846   5.136
  135TIP3   OH2  368   2.731   6.670   3.711
  135TIP3    H1  369   2.763   6.745   3.662
  135TIP3    H2  370   2.646   6.650   3.671
  136TIP3   OH2  371   1.120   4.916   2.868
  136TIP3    H1  372   1.099   4.876   2.953
  136TIP3    H2  373   1.215   4.912   2.863
  137TIP3   OH2  374   4.438   0.613   2.557
  137TIP3    H1  375   4.468   0.617   2.648
  137TIP3    H2  376   4.493   0.675   2.510
  138TIP3   OH2  377   5.877   1.562   0.656
  138TIP3    H1  378   5.844   1.530   0.572
  138TIP3    H2  379   5.799   1.567   0.712
  139TIP3   OH2  380   0.281   2.203   4.255
  139TIP3    H1  381   0.193   2.241   4.246
  139TIP3    H2  382   0.280   2.126   4.200
  140TIP3   OH2  383   3.349   3.371   2.847
  140TIP3    H1  384   3.438   3.405   2.861
  140TIP3    H2  385   3.296   3.450   2.831
  141TIP3   OH2  386   0.000   6.128   5.669
  141TIP3    H1  387  -0.072   6.189   5.655
  141TIP3    H2  388   0.078   6.183   5.674
  142TIP3   OH2  389   0.800   4.904   2.195
  142TIP3    H1  390   0.863   4.891   2.266
  142TIP3    H2  391   0.816   4.831   2.135
  143TIP3   OH2  392   6.799   6.025   1.805
  143TIP3    H1  393   6.711   6.035   1.769
  143TIP3    H2  394   6.793   6.065   1.892
  144TIP3   OH2  395   5.549   0.246   0.440
  144TIP3    H1  396   5.456   0.237   0.460
  144TIP3    H2  397   5.555   0.325   0.386
  145TIP3   OH2  398   6.956   5.079   4.886
  145TIP3    H1  399   6.872   5.055   4.926
  145TIP3    H2  400   6.962   5.024   4.808
  146TIP3   OH2  401   4.302   1.743   5.556
  146TIP3    H1  402   4.349   1.826   5.562
  146TIP3    H2  403   4.342   1.688   5.624
  147TIP3   OH2  404   7.166   1.612   5.631
  147TIP3    H1  405   7.173   1.705   5.609
  147TIP3    H2  406   7.079   1.586   5.599
  148TIP3   OH2  407   5.952   0.549   2.520
  148TIP3    H1  408   5.964   0.529   2.427
  148TIP3    H2  409   5.858   0.559   2.531
  149TIP3   OH2  410   1.138   2.350   4.382
  149TIP3    H1  411   1.177   2.392   4.459
  149TIP3    H2  412   1.212   2.309   4.337
  150TIP3   OH2  413   0.727   5.444   3.037
  150TIP3    H1  414   0.819   5.453   3.014
  150TIP3    H2  415   0.706   5.524   3.085
  151TIP3   OH2  416   1.606   0.424   4.102
  151TIP3    H1  417   1.663   0.347   4.105
  151TIP3    H2  418   1.664   0.494   4.072
  152TIP3   OH2  419   2.592   3.092   4.740
  152TIP3    H1  420   2.575   3.107   4.647
  152TIP3    H2  421   2.650   3.164   4.766
  153TIP3   OH2  422   6.992   3.828   3.535
  153TIP3    H1  423   6.906   3.855   3.566
  153TIP3    H2  424   7.001   3.869   3.449
  154TIP3   OH2  425   0.970   4.143   5.871
  154TIP3    H1  426   0.885   4.100   5.857
  154TIP3    H2  427   0.960   4.230   5.833
  155TIP3   OH2  428   4.363   4.991   5.753
  155TIP3    H1  429   4.448   5.034   5.759
  155TIP3    H2  430   4.307   5.038   5.814
  156TIP3   OH2  431   0.166   5.041   5.375
  156TIP3    H1  432   0.183   4.960   5.423
  156TIP3    H2  433   0.082   5.027   5.332
  157TIP3   OH2  434   0.506   4.971   1.481
  157TIP3    H1  435   0.553   4.890   1.500
  157TIP3    H2  436   0.558   5.040   1.524
  158TIP3   OH2  437   2.580   6.133   0.155
  158TIP3    H1  438   2.565   6.039   0.143
  158TIP3    H2  439   2.676   6.141   0.160
  159TIP3   OH2  440   6.088   0.123   3.399
  159TIP3    H1  441   6.149   0.165   3.459
  159TIP3    H2  442   6.043   0.057   3.453
  160TIP3   OH2  443   3.014   5.853   5.845
  160TIP3    H1  444   2.964   5.926   5.808
  160TIP3    H2  445   3.067   5.821   5.772
  161TIP3   OH2  446   5.275   3.548   0.961
  161TIP3    H1  447   5.310   3.589   0.882
  161TIP3    H2  448   5.317   3.596   1.033
  162TIP3   OH2  449   2.628   6.088   4.550
  162TIP3    H1  450   2.617   6.108   4.457
  162TIP3    H2  451   2.620   6.172   4.594
  163TIP3   OH2  452   5.844   5.666   1.176
  163TIP3    H1  453   5.795   5.680   1.095
  163TIP3    H2  454   5.816   5.738   1.233
  164TIP3   OH2  455   3.353   5.026   1.964
  164TIP3    H1  456   3.444   5.024   1.994
  164TIP3    H2  457   3.301   5.016   2.045
  165TIP3   OH2  458   3.179   5.742   1.089
  165TIP3    H1  459   3.256   5.796   1.108
  165TIP3    H2  460   3.127   5.746   1.170
  166TIP3   OH2  461   6.590   0.974   5.524
  166TIP3    H1  462   6.623   0.997   5.611
  166TIP3    H2  463   6.638   1.032   5.465
  167TIP3   OH2  464   5.712   4.328   3.197
  167TIP3    H1  465   5.742   4.356   3.111
  167TIP3    H2  466   5.624   4.366   3.205
  168TIP3   OH2  467   4.973   5.152   3.839
  168TIP3    H1  468   5.032   5.077   3.846
  168TIP3    H2  469   4.886   5.113   3.834
  169TIP3   OH2  470   3.019   1.663   1.236
  169TIP3    H1  471   3.084   1.649   1.168
  169TIP3    H2  472   2.942   1.695   1.189
  170TIP3   OH2  473   4.461   1.877   3.350
  170TIP3    H1  474   4.488   1.791   3.321
  170TIP3    H2  475   4.543   1.925   3.364
  171TIP3   OH2  476   4.668   4.886   0.249
  171TIP3    H1  477   4.611   4.962   0.261
  171TIP3    H2  478   4.662   4.838   0.332
  172TIP3   OH2  479   4.753   2.336   5.759
  172TIP3    H1  480   4.845   2.314   5.778
  172TIP3    H2  481   4.705   2.303   5.834
  173TIP3   OH2  482   6.603   0.088   4.803
  173TIP3    H1  483   6.663   0.160   4.784
  173TIP3    H2  484   6.545   0.123   4.871
  174TIP3   OH2  485   4.991   4.315   2.114
  174TIP3    H1  486   5.050   4.357   2.177
  174TIP3    H2  487   4.909   4.366   2.120
  175TIP3   OH2  488   6.431   0.409   1.464
  175TIP3    H1  489   6.394   0.322   1.480
  175TIP3    H2  490   6.504   0.393   1.404
  176TIP3   OH2  491   4.459   5.463   1.447
  176TIP3    H1  492   4.380   5.504   1.484
  176TIP3    H2  493   4.489   5.403   1.515
  177TIP3   OH2  494   1.551   4.137   1.634
  177TIP3    H1  495   1.574   4.217   1.681
  177TIP3    H2  496   1.542   4.070   1.702
  178TIP3   OH2  497   2.966   5.138   3.666
  178TIP3    H1  498   2.987   5.204   3.600
  178TIP3    H2  499   3.004   5.057   3.632
  179TIP3   OH2  500   6.876   3.712   0.755
  179TIP3    H1  501   6.958   3.670   0.784
  179TIP3    H2  502   6.850   3.767   0.829
  180TIP3   OH2  503   2.575   2.462   2.915
  180TIP3    H1  504   2.613   2.547   2.891
  180TIP3    H2  505   2.532   2.432   2.835
  181TIP3   OH2  506   4.850   6.784   5.085
  181TIP3    H1  507   4.757   6.775   5.064
  181TIP3    H2  508   4.890   6.818   5.005
  182TIP3   OH2  509   6.219   6.575   3.372
  182TIP3    H1  510   6.166   6.495   3.371
  182TIP3    H2  511   6.171   6.635   3.315
  183TIP3   OH2  512   6.711   6.583   0.279
  183TIP3    H1  513   6.721   6.548   0.190
  183TIP3    H2  514   6.740   6.674   0.273
  184TIP3   OH2  515   5.663   4.830   3.621
  184TIP3    H1  516   5.601   4.888   3.666
  184TIP3    H2  517   5.610   4.780   3.559
  185TIP3   OH2  518   3.937   1.425   2.755
  185TIP3    H1  519   3.903   1.361   2.692
  185TIP3    H2  520   3.866   1.487   2.768
  186TIP3   OH2  521   3.371   0.376   2.778
  186TIP3    H1  522   3.416   0.342   2.701
  186TIP3    H2  523   3.294   0.319   2.788
  187TIP3   OH2  524   5.262   5.359   2.903
  187TIP3    H1  525   5.279   5.268   2.925
  187TIP3    H2  526   5.183   5.381   2.952
  188TIP3   OH2  527   2.148   0.360   4.930
  188TIP3    H1  528   2.120   0.435   4.982
  188TIP3    H2  529   2.182   0.297   4.994
  189TIP3   OH2  530   5.761   0.521   1.533
  189TIP3    H1  531   5.801   0.477   1.459
  189TIP3    H2  532   5.669   0.498   1.529
  190TIP3   OH2  533   0.779   1.569   5.203
  190TIP3    H1  534   0.854   1.580   5.262
  190TIP3    H2  535   0.783   1.477   5.176
  191TIP3   OH2  536   1.491   1.847   1.354
  191TIP3    H1  537   1.415   1.800   1.319
  191TIP3    H2  538   1.465   1.870   1.443
  192TIP3   OH2  539   1.773   1.061   0.060
  192TIP3    H1  540   1.695   1.005   0.055
  192TIP3    H2  541   1.737   1.150   0.059
  193TIP3   OH2  542   0.157   2.845   0.317
  193TIP3    H1  543   0.208   2.826   0.238
  193TIP3    H2  544   0.159   2.764   0.367
  194TIP3   OH2  545   3.641   4.698   2.453
  194TIP3    H1  546   3.732   4.701   2.482
  194TIP3    H2  547   3.623   4.787   2.421
  195TIP3   OH2  548   1.971   1.118   0.778
  195TIP3    H1  549   2.013   1.034   0.800
  195TIP3    H2  550   2.031   1.184   0.813
  196TIP3   OH2  551   2.452   3.198   2.606
  196TIP3    H1  552   2.433   3.148   2.527
  196TIP3    H2  553   2.434   3.137   2.678
  197TIP3   OH2  554   6.283   4.274   4.427
  197TIP3    H1  555   6.275   4.370   4.428
  197TIP3    H2  556   6.202   4.243   4.467
  198TIP3   OH2  557   1.006   5.208   3.701
  198TIP3    H1  558   1.010   5.173   3.790
  198TIP3    H2  559   1.032   5.135   3.645
  199TIP3   OH2  560   6.649   3.463   3.789
  199TIP3    H1  561   6.653   3.441   3.882
  199TIP3    H2  562   6.669   3.382   3.743
  200TIP3   OH2  563   3.165   1.249   5.195
  200TIP3    H1  564   3.230   1.278   5.259
  200TIP3    H2  565   3.162   1.319   5.130
  201TIP3   OH2  566   7.128   5.476   0.060
  201TIP3    H1  567   7.209   5.430   0.038
  201TIP3    H2  568   7.156   5.548   0.116
  202TIP3   OH2  569   5.522   3.634   5.386
  202TIP3    H1  570   5.500   3.720   5.351
  202TIP3    H2  571   5.527   3.646   5.480
  203TIP3   OH2  572   6.799   6.381   2.364
  203TIP3    H1  573   6.819   6.391   2.271
  203TIP3    H2  574   6.858   6.444   2.408
  204TIP3   OH2  575   2.245   1.707   0.733
  204TIP3    H1  576   2.237   1.797   0.764
  204TIP3    H2  577   2.333   1.681   0.758
  205TIP3   OH2  578   2.907   1.325   2.601
  205TIP3    H1  579   2.987   1.317   2.550
  205TIP3    H2  580   2.881   1.235   2.621
  206TIP3   OH2  581   6.977   3.808   3.049
  206TIP3    H1  582   7.046   3.872   3.027
  206TIP3    H2  583   6.898   3.861   3.058
  207TIP3   OH2  584   2.460   4.044   1.007
  207TIP3    H1  585   2.400   3.970   0.992
  207TIP3    H2  586   2.438   4.106   0.938
  208TIP3   OH2  587   3.115   3.094   0.354
  208TIP3    H1  588   3.069   3.175   0.329
  208TIP3    H2  589   3.157   3.115   0.437
  209TIP3   OH2  590   1.808   4.413   0.729
  209TIP3    H1  591   1.845   4.476   0.668
  209TIP3    H2  592   1.756   4.465   0.790
  210TIP3   OH2  593   0.135   4.352   1.492
  210TIP3    H1  594   0.115   4.261   1.514
  210TIP3    H2  595   0.052   4.398   1.501
  211TIP3   OH2  596   3.970   3.336   4.292
  211TIP3    H1  597   4.056   3.293   4.295
  211TIP3    H2  598   3.954   3.362   4.383
  212TIP3   OH2  599   1.073   6.214   3.926
  212TIP3    H1  600   0.979   6.220   3.941
  212TIP3    H2  601   1.088   6.123   3.902
  213TIP3   OH2  602   2.113   4.368   3.517
  213TIP3    H1  603   2.171   4.379   3.442
  213TIP3    H2  604   2.165   4.396   3.592
  214TIP3   OH2  605   2.852   1.896   1.579
  214TIP3    H1  606   2.883   1.938   1.659
  214TIP3    H2  607   2.841   1.804   1.602
  215TIP3   OH2  608   1.310   1.467   4.635
  215TIP3    H1  609   1.264   1.497   4.712
  215TIP3    H2  610   1.241   1.436   4.576
  216TIP3   OH2  611   4.220   6.631   2.518
  216TIP3    H1  612   4.261   6.553   2.557
  216TIP3    H2  613   4.230   6.699   2.585
  217TIP3   OH2  614   4.702   5.960   4.533
  217TIP3    H1  615   4.775   6.013   4.564
  217TIP3    H2  616   4.682   5.901   4.605
  218TIP3   OH2  617   2.386   1.925   1.428
  218TIP3    H1  618   2.324   1.951   1.360
  218TIP3    H2  619   2.440   2.002   1.443
  219TIP3   OH2  620   5.057   1.032   1.656
  219TIP3    H1  621   5.044   1.064   1.567
  219TIP3    H2  622   4.972   1.045   1.699
  220TIP3   OH2  623   5.550   5.464   0.688
  220TIP3    H1  624   5.483   5.514   0.640
  220TIP3    H2  625   5.597   5.530   0.739
  221TIP3   OH2  626   5.229   2.639   0.034
  221TIP3    H1  627   5.280   2.683   0.102
  221TIP3    H2  628   5.237   2.695  -0.043
  222TIP3   OH2  629   1.673   1.839   2.197
  222TIP3    H1  630   1.669   1.905   2.127
  222TIP3    H2  631   1.753   1.790   2.178
  223TIP3   OH2  632   1.957   3.065   4.816
  223TIP3    H1  633   1.869   3.097   4.838
  223TIP3    H2  634   1.990   3.028   4.898
  224TIP3   OH2  635   0.246   2.838   5.349
  224TIP3    H1  636   0.330   2.833   5.303
  224TIP3    H2  637   0.206   2.918   5.316
  225TIP3   OH2  638   3.604   0.859   3.622
  225TIP3    H1  639   3.627   0.943   3.582
  225TIP3    H2  640   3.578   0.804   3.548
  226TIP3   OH2  641   3.728   1.458   1.024
  226TIP3    H1  642   3.821   1.464   1.003
  226TIP3    H2  643   3.698   1.549   1.024
  227TIP3   OH2  644   2.704   1.939   2.153
  227TIP3    H1  645   2.615   1.962   2.179
  227TIP3    H2  646   2.704   1.947   2.057
  228TIP3   OH2  647   6.386   5.798   3.393
  228TIP3    H1  648   6.418   5.816   3.305
  228TIP3    H2  649   6.301   5.841   3.397
  229TIP3   OH2  650   0.339   3.970   0.040
  229TIP3    H1  651   0.374   3.917  -0.032
  229TIP3    H2  652   0.317   4.054   0.001
  230TIP3   OH2  653   5.780   6.593   0.465
  230TIP3    H1  654   5.820   6.634   0.388
  230TIP3    H2  655   5.782   6.499   0.445
  231TIP3   OH2  656   5.266   3.570   1.755
  231TIP3    H1  657   5.286   3.564   1.849
  231TIP3    H2  658   5.199   3.638   1.750
  232TIP3   OH2  659   4.982   1.647   2.808
  232TIP3    H1  660   4.957   1.675   2.721
  232TIP3    H2  661   4.984   1.727   2.860
  233TIP3   OH2  662   5.320   1.758   4.880
  233TIP3    H1  663   5.270   1.689   4.925
  233TIP3    H2  664   5.260   1.791   4.813
  234TIP3   OH2  665   1.745   3.453   2.371
  234TIP3    H1  666   1.687   3.467   2.296
  234TIP3    H2  667   1.692   3.406   2.435
  235TIP3   OH2  668   3.320   5.482   5.547
  235TIP3    H1  669   3.266   5.438   5.481
  235TIP3    H2  670   3.316   5.425   5.623
  236TIP3   OH2  671   3.678   3.620   1.872
  236TIP3    H1  672   3.643   3.531   1.884
  236TIP3    H2  673   3.664   3.663   1.956
  237TIP3   OH2  674   5.314   2.982   4.136
  237TIP3    H1  675   5.336   2.983   4.229
  237TIP3    H2  676   5.269   2.898   4.123
  238TIP3   OH2  677   0.084   2.029   4.869
  238TIP3    H1  678   0.001   2.043   4.914
  238TIP3    H2  679   0.059   1.995   4.783
  239TIP3   OH2  680   5.041   5.603   5.491
  239TIP3    H1  681   5.133   5.622   5.510
  239TIP3    H2  682   4.992   5.673   5.534
  240TIP3   OH2  683   4.049   3.033   3.110
  240TIP3    H1  684   4.140   3.040   3.139
  240TIP3    H2  685   4.054   2.993   3.023
  241TIP3   OH2  686   0.051   6.459   3.174
  241TIP3    H1  687   0.107   6.536   3.160
  241TIP3    H2  688   0.112   6.385   3.171
  242TIP3   OH2  689   2.488   5.741   5.739
  242TIP3    H1  690   2.488   5.685   5.661
  242TIP3    H2  691   2.409   5.795   5.729
  243TIP3   OH2  692   4.519   1.155   2.906
  243TIP3    H1  693   4.525   1.246   2.935
  243TIP3    H2  694   4.450   1.117   2.959
  244TIP3   OH2  695   5.372   6.075   0.810
  244TIP3    H1  696   5.297   6.096   0.755
  244TIP3    H2  697   5.397   5.987   0.784
  245TIP3   OH2  698   0.614   4.960   4.390
  245TIP3    H1  699   0.588   4.904   4.463
  245TIP3    H2  700   0.533   4.975   4.341
  246TIP3   OH2  701   0.401   0.134   0.794
  246TIP3    H1  702   0.396   0.039   0.807
  246TIP3    H2  703   0.453   0.144   0.714
  247TIP3   OH2  704   2.887   2.290   4.084
  247TIP3    H1  705   2.883   2.197   4.104
  247TIP3    H2  706   2.890   2.333   4.169
  248TIP3   OH2  707   6.440   6.301   1.692
  248TIP3    H1  708   6.427   6.260   1.778
  248TIP3    H2  709   6.534   6.294   1.676
  249TIP3   OH2  710   3.563   5.371   1.998
  249TIP3    H1  711   3.647   5.336   1.967
  249TIP3    H2  712   3.584   5.413   2.081
  250TIP3   OH2  713   3.389   2.008   4.688
  250TIP3    H1  714   3.314   2.011   4.629
  250TIP3    H2  715   3.462   2.039   4.634
  251TIP3   OH2  716   0.842   0.594   2.090
  251TIP3    H1  717   0.877   0.640   2.166
  251TIP3    H2  718   0.844   0.501   2.114
  252TIP3   OH2  719   1.592   5.213   5.369
  252TIP3    H1  720   1.620   5.122   5.375
  252TIP3    H2  721   1.496   5.209   5.376
  253TIP3   OH2  722   2.650   4.971   1.845
  253TIP3    H1  723   2.725   4.973   1.785
  253TIP3    H2  724   2.665   5.045   1.903
  254TIP3   OH2  725   3.612   3.923   4.764
  254TIP3    H1  726   3.536   3.971   4.796
  254TIP3    H2  727   3.605   3.928   4.668
  255TIP3   OH2  728   6.139   4.762   0.071
  255TIP3    H1  729   6.086   4.734   0.145
  255TIP3    H2  730   6.224   4.784   0.109
  256TIP3   OH2  731   1.878   1.231   2.075
  256TIP3    H1  732   1.817   1.276   2.016
  256TIP3    H2  733   1.850   1.256   2.163
  257TIP3   OH2  734   1.437   6.760   0.134
  257TIP3    H1  735   1.423   6.681   0.187
  257TIP3    H2  736   1.364   6.818   0.156
  258TIP3   OH2  737   5.376   6.393   2.844
  258TIP3    H1  738   5.462   6.350   2.842
  258TIP3    H2  739   5.380   6.450   2.921
  259TIP3   OH2  740   4.039   2.082   5.153
  259TIP3    H1  741   4.130   2.104   5.172
  259TIP3    H2  742   4.018   2.013   5.216
  260TIP3   OH2  743   0.984   6.404   0.580
  260TIP3    H1  744   0.975   6.419   0.674
  260TIP3    H2  745   1.018   6.487   0.546
  261TIP3   OH2  746   3.794   0.661   4.594
  261TIP3    H1  747   3.790   0.752   4.563
  261TIP3    H2  748   3.887   0.646   4.611
  262TIP3   OH2  749   3.081   0.817   3.155
  262TIP3    H1  750   3.044   0.755   3.219
  262TIP3    H2  751   3.128   0.762   3.093
  263TIP3   OH2  752   1.223   0.488   2.915
  263TIP3    H1  753   1.305   0.535   2.903
  263TIP3    H2  754   1.159   0.539   2.865
  264TIP3   OH2  755   4.789   1.135   2.308
  264TIP3    H1  756   4.772   1.083   2.230
  264TIP3    H2  757   4.710   1.188   2.320
  265TIP3   OH2  758   5.761   1.311   2.223
  265TIP3    H1  759   5.684   1.325   2.168
  265TIP3    H2  760   5.800   1.230   2.189
  266TIP3   OH2  761   1.102   0.590   1.018
  266TIP3    H1  762   1.029   0.646   1.042
  266TIP3    H2  763   1.159   0.591   1.095
  267TIP3   OH2  764   2.142   2.416   5.446
  267TIP3    H1  765   2.231   2.412   5.411
  267TIP3    H2  766   2.138   2.344   5.510
  268TIP3   OH2  767   6.509   4.845   4.091
  268TIP3    H1  768   6.540   4.759   4.064
  268TIP3    H2  769   6.432   4.827   4.145
  269TIP3   OH2  770   6.562   5.131   1.369
  269TIP3    H1  771   6.654   5.157   1.365
  269TIP3    H2  772   6.516   5.202   1.323
  270TIP3   OH2  773   4.947   2.150   3.281
  270TIP3    H1  774   5.028   2.164   3.331
  270TIP3    H2  775   4.888   2.218   3.312
  271TIP3   OH2  776   1.317   2.610   4.805
  271TIP3    H1  777   1.377   2.577   4.872
  271TIP3    H2  778   1.241   2.640   4.854
  272TIP3   OH2  779   7.097   5.045   1.827
  272TIP3    H1  780   7.142   4.999   1.898
  272TIP3    H2  781   7.160   5.047   1.756
  273TIP3   OH2  782   4.336   3.795   2.090
  273TIP3    H1  783   4.413   3.811   2.036
  273TIP3    H2  784   4.287   3.727   2.043
  274TIP3   OH2  785   4.837   3.611   0.652
  274TIP3    H1  786   4.913   3.552   0.658
  274TIP3    H2  787   4.765   3.554   0.624
  275TIP3   OH2  788   1.381   4.119   2.527
  275TIP3    H1  789   1.328   4.085   2.455
  275TIP3    H2  790   1.469   4.086   2.508
  276TIP3   OH2  791   4.373   2.947   4.600
  276TIP3    H1  792   4.381   2.856   4.631
  276TIP3    H2  793   4.302   2.944   4.535
  277TIP3   OH2  794   1.716   2.709   0.435
  277TIP3    H1  795   1.801   2.663   0.438
  277TIP3    H2  796   1.728   2.777   0.369
  278TIP3   OH2  797   5.685   3.895   1.888
  278TIP3    H1  798   5.603   3.944   1.878
  278TIP3    H2  799   5.747   3.957   1.925
  279TIP3   OH2  800   4.272   2.913   5.425
  279TIP3    H1  801   4.334   2.950   5.488
  279TIP3    H2  802   4.218   2.988   5.397
  280TIP3   OH2  803   3.638   3.738   2.979
  280TIP3    H1  804   3.709   3.677   2.998
  280TIP3    H2  805   3.558   3.685   2.984
  281TIP3   OH2  806   6.541   6.593   2.024
  281TIP3    H1  807   6.604   6.594   1.952
  281TIP3    H2  808   6.458   6.619   1.984
  282TIP3   OH2  809   0.417   1.306   4.584
  282TIP3    H1  810   0.410   1.277   4.675
  282TIP3    H2  811   0.346   1.369   4.573
  283TIP3   OH2  812   1.781   1.366   3.981
  283TIP3    H1  813   1.823   1.301   4.037
  283TIP3    H2  814   1.711   1.403   4.035
  284TIP3   OH2  815   3.343   2.551   5.851
  284TIP3    H1  816   3.397   2.551   5.772
  284TIP3    H2  817   3.267   2.604   5.828
  285TIP3   OH2  818   6.672   1.868   3.234
  285TIP3    H1  819   6.626   1.785   3.245
  285TIP3    H2  820   6.730   1.853   3.159
  286TIP3   OH2  821   5.356   6.723   1.837
  286TIP3    H1  822   5.328   6.735   1.927
  286TIP3    H2  823   5.367   6.812   1.803
  287TIP3   OH2  824   0.586   0.251   2.275
  287TIP3    H1  825   0.510   0.206   2.239
  287TIP3    H2  826   0.549   0.317   2.334
  288TIP3   OH2  827   5.376   3.203   3.508
  288TIP3    H1  828   5.438   3.187   3.580
  288TIP3    H2  829   5.381   3.298   3.494
  289TIP3   OH2  830   5.108   4.800   3.292
  289TIP3    H1  831   5.126   4.884   3.249
  289TIP3    H2  832   5.027   4.815   3.342
  290TIP3   OH2  833   1.055   4.747   5.928
  290TIP3    H1  834   0.970   4.789   5.919
  290TIP3    H2  835   1.100   4.766   5.846
  291TIP3   OH2  836   5.499   1.940   4.157
  291TIP3    H1  837   5.555   2.011   4.189
  291TIP3    H2  838   5.416   1.954   4.203
  292TIP3   OH2  839   4.843   1.484   1.368
  292TIP3    H1  840   4.913   1.548   1.359
  292TIP3    H2  841   4.864   1.417   1.302
  293TIP3   OH2  842   3.359   3.792   1.949
  293TIP3    H1  843   3.445   3.834   1.941
  293TIP3    H2  844   3.353   3.768   2.041
  294TIP3   OH2  845   2.575   0.757   1.125
  294TIP3    H1  846   2.499   0.699   1.130
  294TIP3    H2  847   2.557   0.813   1.050
  295TIP3   OH2  848   6.228   2.971   2.413
  295TIP3    H1  849   6.229   3.053   2.363
  295TIP3    H2  850   6.146   2.973   2.462
  296TIP3   OH2  851   6.841   5.048   1.937
  296TIP3    H1  852   6.859   5.063   2.030
  296TIP3    H2  853   6.927   5.053   1.895
  297TIP3   OH2  854   1.292   6.518   5.561
  297TIP3    H1  855   1.268   6.522   5.654
  297TIP3    H2  856   1.360   6.584   5.551
  298TIP3   OH2  857   4.293   1.841   5.848
  298TIP3    H1  858   4.310   1.884   5.765
  298TIP3    H2  859   4.362   1.874   5.906
  299TIP3   OH2  860   6.873   5.456   2.913
  299TIP3    H1  861   6.860   5.515   2.839
  299TIP3    H2  862   6.946   5.494   2.962
  300TIP3   OH2  863   1.618   5.572   4.604
  300TIP3    H1  864   1.649   5.629   4.674
  300TIP3    H2  865   1.664   5.603   4.526
  301TIP3   OH2  866   3.682   5.426   4.993
  301TIP3    H1  867   3.600   5.449   5.036
  301TIP3    H2  868   3.703   5.338   5.024
  302TIP3   OH2  869   5.295   0.315   2.560
  302TIP3    H1  870   5.274   0.405   2.586
  302TIP3    H2  871   5.213   0.281   2.525
  303TIP3   OH2  872   2.016   1.169   4.781
  303TIP3    H1  873   1.957   1.239   4.754
  303TIP3    H2  874   2.103   1.203   4.767
  304TIP3   OH2  875   5.820   2.755   5.787
  304TIP3    H1  876   5.784   2.705   5.861
  304TIP3    H2  877   5.801   2.700   5.711
  305TIP3   OH2  878   2.521   6.774   5.441
  305TIP3    H1  879   2.439   6.769   5.490
  305TIP3    H2  880   2.559   6.686   5.449
  306TIP3   OH2  881   7.145   5.764   0.691
  306TIP3    H1  882   7.184   5.758   0.778
  306TIP3    H2  883   7.219   5.751   0.631
  307TIP3   OH2  884   4.807   3.287   4.423
  307TIP3    H1  885   4.754   3.279   4.343
  307TIP3    H2  886   4.897   3.285   4.392
  308TIP3   OH2  887   5.489   2.334   5.838
  308TIP3    H1  888   5.466   2.247   5.870
  308TIP3    H2  889   5.502   2.385   5.918
  309TIP3   OH2  890   5.550   3.352   1.756
  309TIP3    H1  891   5.630   3.299   1.746
  309TIP3    H2  892   5.521   3.334   1.845
  310TIP3   OH2  893   2.569   0.281   1.162
  310TIP3    H1  894   2.531   0.193   1.157
  310TIP3    H2  895   2.615   0.283   1.246
  311TIP3   OH2  896   4.047   6.597   3.561
  311TIP3    H1  897   4.090   6.514   3.581
  311TIP3    H2  898   4.116   6.650   3.520
  312TIP3   OH2  899   0.349   0.493   1.799
  312TIP3    H1  900   0.312   0.471   1.714
  312TIP3    H2  901   0.444   0.493   1.785
  313TIP3   OH2  902   2.859   6.108   0.140
  313TIP3    H1  903   2.891   6.031   0.094
  313TIP3    H2  904   2.914   6.180   0.109
  314TIP3   OH2  905   7.109   1.010   4.698
  314TIP3    H1  906   7.062   0.979   4.776
  314TIP3    H2  907   7.078   0.954   4.627
  315TIP3   OH2  908   0.771   4.690   5.054
  315TIP3    H1  909   0.730   4.758   5.107
  315TIP3    H2  910   0.808   4.629   5.118
  316TIP3   OH2  911   3.093   5.145   0.728
  316TIP3    H1  912   3.185   5.172   0.731
  316TIP3    H2  913   3.084   5.103   0.642
  317TIP3   OH2  914   1.348   0.981   5.362
  317TIP3    H1  915   1.403   1.054   5.391
  317TIP3    H2  916   1.270   1.022   5.326
  318TIP3   OH2  917   3.003   1.496   4.548
  318TIP3    H1  918   3.032   1.488   4.457
  318TIP3    H2  919   2.973   1.586   4.556
  319TIP3   OH2  920   2.709   2.035   5.304
  319TIP3    H1  921   2.753   2.078   5.378
  319TIP3    H2  922   2.766   1.961   5.282
  320TIP3   OH2  923   1.550   5.904   5.852
  320TIP3    H1  924   1.561   5.882   5.760
  320TIP3    H2  925   1.512   5.992   5.851
  321TIP3   OH2  926   3.589   3.466   0.862
  321TIP3    H1  927   3.657   3.432   0.804
  321TIP3    H2  928   3.545   3.388   0.896
  322TIP3   OH2  929   0.039   4.040   4.777
  322TIP3    H1  930  -0.009   4.026   4.859
  322TIP3    H2  931   0.112   4.097   4.802
  323TIP3   OH2  932   4.389   1.326   0.478
  323TIP3    H1  933   4.351   1.410   0.506
  323TIP3    H2  934   4.424   1.343   0.391
  324TIP3   OH2  935   2.325   2.752   0.241
  324TIP3    H1  936   2.363   2.686   0.183
  324TIP3    H2  937   2.291   2.819   0.182
  325TIP3   OH2  938   2.589   4.201   0.394
  325TIP3    H1  939   2.514   4.206   0.336
  325TIP3    H2  940   2.633   4.285   0.385
  326TIP3   OH2  941   3.750   1.654   2.599
  326TIP3    H1  942   3.735   1.746   2.579
  326TIP3    H2  943   3.753   1.650   2.694
  327TIP3   OH2  944   1.793   5.173   1.090
  327TIP3    H1  945   1.747   5.241   1.140
  327TIP3    H2  946   1.809   5.103   1.153
  328TIP3   OH2  947   2.470   1.679   5.400
  328TIP3    H1  948   2.541   1.669   5.465
  328TIP3    H2  949   2.390   1.669   5.451
  329TIP3   OH2  950   3.455   4.491   1.196
  329TIP3    H1  951   3.381   4.461   1.248
  329TIP3    H2  952   3.419   4.504   1.108
  330TIP3   OH2  953   5.325   3.609   0.038
  330TIP3    H1  954   5.304   3.702   0.027
  330TIP3    H2  955   5.355   3.581  -0.048
  331TIP3   OH2  956   2.069   0.850   4.489
  331TIP3    H1  957   2.088   0.935   4.529
  331TIP3    H2  958   1.998   0.867   4.428
  332TIP3   OH2  959   1.391   1.781   0.742
  332TIP3    H1  960   1.298   1.756   0.744
  332TIP3    H2  961   1.436   1.702   0.714
  333TIP3   OH2  962   1.108   0.957   0.359
  333TIP3    H1  963   1.114   0.893   0.431
  333TIP3    H2  964   1.108   1.042   0.403
  334TIP3   OH2  965   0.950   5.270   2.498
  334TIP3    H1  966   0.986   5.341   2.550
  334TIP3    H2  967   0.928   5.202   2.561
  335TIP3   OH2  968   4.760   4.370   4.166
  335TIP3    H1  969   4.829   4.318   4.207
  335TIP3    H2  970   4.777   4.460   4.195
  336TIP3   OH2  971   5.309   5.774   0.197
  336TIP3    H1  972   5.356   5.715   0.257
  336TIP3    H2  973   5.286   5.850   0.250
  337TIP3   OH2  974   1.413   0.710   1.927
  337TIP3    H1  975   1.440   0.791   1.969
  337TIP3    H2  976   1.420   0.643   1.995
  338TIP3   OH2  977   6.921   4.395   1.034
  338TIP3    H1  978   6.913   4.479   1.079
  338TIP3    H2  979   6.960   4.416   0.949
  339TIP3   OH2  980   2.855   1.370   1.616
  339TIP3    H1  981   2.938   1.324   1.601
  339TIP3    H2  982   2.791   1.318   1.567
  340TIP3   OH2  983   0.125   1.038   1.540
  340TIP3    H1  984   0.121   1.131   1.562
  340TIP3    H2  985   0.211   1.026   1.501
  341TIP3   OH2  986   0.853   4.021   2.472
  341TIP3    H1  987   0.781   3.975   2.515
  341TIP3    H2  988   0.831   4.114   2.483
  342TIP3   OH2  989   3.952   2.452   4.265
  342TIP3    H1  990   3.927   2.426   4.354
  342TIP3    H2  991   3.961   2.369   4.218
  343TIP3   OH2  992   6.534   0.087   1.803
  343TIP3    H1  993   6.491   0.087   1.717
  343TIP3    H2  994   6.480   0.145   1.857
  344TIP3   OH2  995   1.147   1.352   2.904
  344TIP3    H1  996   1.133   1.386   2.993
  344TIP3    H2  997   1.228   1.395   2.875
  345TIP3   OH2  998   3.753   6.094   4.636
  345TIP3    H1  999   3.797   6.165   4.590
  345TIP3    H2 1000   3.780   6.015   4.589
  346TIP3   OH2 1001   0.968   3.634   2.521
  346TIP3    H1 1002   1.002   3.671   2.602
  346TIP3    H2 1003   0.978   3.539   2.532
  347TIP3   OH2 1004   2.313   1.832   4.168
  347TIP3    H1 1005   2.280   1.922   4.172
  347TIP3    H2 1006   2.235   1.778   4.172
  348TIP3   OH2 1007   6.790   4.053   2.995
  348TIP3    H1 1008   6.698   4.077   2.982
  348TIP3    H2 1009   6.839   4.127   2.959
  349TIP3   OH2 1010   3.549   0.764   0.744
  349TIP3    H1 1011   3.531   0.684   0.794
  349TIP3    H2 1012   3.571   0.829   0.810
  350TIP3   OH2 1013   5.556   5.870   0.657
  350TIP3    H1 1014   5.478   5.871   0.602
  350TIP3    H2 1015   5.623   5.827   0.604
  351TIP3   OH2 1016   4.954   5.337   5.569
  351TIP3    H1 1017   4.937   5.281   5.493
  351TIP3    H2 1018   4.967   5.424   5.532
  352TIP3   OH2 1019   1.557   6.601   0.635
  352TIP3    H1 1020   1.634   6.622   0.582
  352TIP3    H2 1021   1.497   6.559   0.573
  353TIP3   OH2 1022   0.833   6.068   5.840
  353TIP3    H1 1023   0.827   6.024   5.925
  353TIP3    H2 1024   0.804   6.157   5.857
  354TIP3   OH2 1025   5.225   0.168   4.389
  354TIP3    H1 1026   5.229   0.114   4.468
  354TIP3    H2 1027   5.183   0.112   4.324
  355TIP3   OH2 1028   2.097   3.944   5.198
  355TIP3    H1 1029   2.095   3.924   5.104
  355TIP3    H2 1030   2.015   3.991   5.214
  356TIP3   OH2 1031   2.096   1.154   3.769
  356TIP3    H1 1032   2.121   1.236   3.811
  356TIP3    H2 1033   2.006   1.167   3.742
  357TIP3   OH2 1034   1.398   0.290   3.952
  357TIP3    H1 1035   1.450   0.339   4.016
  357TIP3    H2 1036   1.307   0.301   3.981
  358TIP3   OH2 1037   0.431   6.107   0.675
  358TIP3    H1 1038   0.496   6.146   0.734
  358TIP3    H2 1039   0.380   6.049   0.731
  359TIP3   OH2 1040   5.963   2.359   5.421
  359TIP3    H1 1041   6.020   2.432   5.446
  359TIP3    H2 1042   6.009   2.281   5.452
  360TIP3   OH2 1043   6.972   6.555   2.622
  360TIP3    H1 1044   7.005   6.467   2.637
  360TIP3    H2 1045   7.002   6.578   2.534
  361TIP3   OH2 1046   0.413   1.601   5.829
  361TIP3    H1 1047   0.331   1.604   5.879
  361TIP3    H2 1048   0.388   1.629   5.741
  362TIP3   OH2 1049   6.137   3.999   5.158
  362TIP3    H1 1050   6.209   4.032   5.211
  362TIP3    H2 1051   6.116   4.070   5.098
  363TIP3   OH2 1052   0.728   0.456   0.090
  363TIP3    H1 1053   0.810   0.500   0.109
  363TIP3    H2 1054   0.754   0.367   0.065
  364TIP3   OH2 1055   1.789   3.501   4.402
  364TIP3    H1 1056   1.840   3.549   4.336
  364TIP3    H2 1057   1.802   3.550   4.483
  365TIP3   OH2 1058   6.272   4.134   3.942
  365TIP3    H1 1059   6.360   4.168   3.925
  365TIP3    H2 1060   6.272   4.047   3.901
  366TIP3   OH2 1061   3.306   2.171   3.276
  366TIP3    H1 1062   3.304   2.130   3.189
  366TIP3    H2 1063   3.214   2.174   3.302
  367TIP3   OH2 1064   4.047   5.178   2.318
  367TIP3    H1 1065   3.980   5.222   2.267
  367TIP3    H2 1066   4.090   5.119   2.256
  368TIP3   OH2 1067   1.483   0.308   4.733
  368TIP3    H1 1068   1.525   0.237   4.684
  368TIP3    H2 1069   1.545   0.330   4.802
  369TIP3   OH2 1070   1.267   6.296   3.060
  369TIP3    H1 1071   1.171   6.300   3.061
  369TIP3    H2 1072   1.292   6.348   2.983
  370TIP3   OH2 1073   6.554   2.899   0.224
  370TIP3    H1 1074   6.599   2.906   0.308
  370TIP3    H2 1075   6.497   2.976   0.221
  371TIP3   OH2 1076   3.784   4.413   2.396
  371TIP3    H1 1077   3.787   4.461   2.479
  371TIP3    H2 1078   3.815   4.325   2.419
  372TIP3   OH2 1079   1.333   4.203   1.494
  372TIP3    H1 1080   1.401   4.166   1.551
  372TIP3    H2 1081   1.258   4.217   1.552
  373TIP3   OH2 1082   1.194   5.276   5.102
  373TIP3    H1 1083   1.126   5.329   5.062
  373TIP3    H2 1084   1.275   5.305   5.061
  374TIP3   OH2 1085   1.281   3.599   4.284
  374TIP3    H1 1086   1.230   3.532   4.239
  374TIP3    H2 1087   1.372   3.583   4.256
  375TIP3   OH2 1088   3.984   2.228   1.161
  375TIP3    H1 1089   3.925   2.250   1.233
  375TIP3    H2 1090   4.045   2.302   1.156
  376TIP3   OH2 1091   7.095   5.402   4.635
  376TIP3    H1 1092   7.122   5.362   4.718
  376TIP3    H2 1093   7.130   5.491   4.640
  377TIP3   OH2 1094   1.156   2.381   5.487
  377TIP3    H1 1095   1.164   2.468   5.526
  377TIP3    H2 1096   1.112   2.396   5.403
  378TIP3   OH2 1097   0.138   3.270   3.335
  378TIP3    H1 1098   0.080   3.231   3.400
  378TIP3    H2 1099   0.095   3.351   3.310
  379TIP3   OH2 1100   0.685   5.211   5.673
  379TIP3    H1 1101   0.702   5.272   5.601
  379TIP3    H2 1102   0.635   5.261   5.737
  380TIP3   OH2 1103   1.770   1.345   5.067
  380TIP3    H1 1104   1.775   1.376   5.157
  380TIP3    H2 1105   1.824   1.266   5.065
  381TIP3   OH2 1106   4.410   0.896   5.528
  381TIP3    H1 1107   4.386   0.819   5.580
  381TIP3    H2 1108   4.338   0.907   5.466
  382TIP3   OH2 1109   2.801   0.916   2.360
  382TIP3    H1 1110   2.771   0.864   2.285
  382TIP3    H2 1111   2.725   0.969   2.384
  383TIP3   OH2 1112   1.231   5.389   4.301
  383TIP3    H1 1113   1.195   5.321   4.245
  383TIP3    H2 1114   1.310   5.350   4.339
  384TIP3   OH2 1115   4.247   5.692   0.554
  384TIP3    H1 1116   4.273   5.730   0.638
  384TIP3    H2 1117   4.152   5.691   0.556
  385TIP3   OH2 1118   5.684   0.877   4.899
  385TIP3    H1 1119   5.640   0.941   4.954
  385TIP3    H2 1120   5.707   0.806   4.958
  386TIP3   OH2 1121   3.987   3.856   4.950
  386TIP3    H1 1122   3.971   3.950   4.949
  386TIP3    H2 1123   4.026   3.838   5.035
  387TIP3   OH2 1124   4.296   0.991   0.423
  387TIP3    H1 1125   4.341   0.983   0.508
  387TIP3    H2 1126   4.367   0.988   0.359
  388TIP3   OH2 1127   0.622   4.755   3.174
  388TIP3    H1 1128   0.535   4.715   3.186
  388TIP3    H2 1129   0.621   4.832   3.230
  389TIP3   OH2 1130   1.756   0.914   1.676
  389TIP3    H1 1131   1.806   0.994   1.692
  389TIP3    H2 1132   1.812   0.843   1.708
  390TIP3   OH2 1133   0.211   1.365   3.409
  390TIP3    H1 1134   0.138   1.348   3.350
  390TIP3    H2 1135   0.222   1.285   3.459
  391TIP3   OH2 1136   4.429   5.372   5.648
  391TIP3    H1 1137   4.436   5.308   5.577
  391TIP3    H2 1138   4.491   5.341   5.714
  392TIP3   OH2 1139   2.163   4.551   5.546
  392TIP3    H1 1140   2.137   4.626   5.492
  392TIP3    H2 1141   2.211   4.590   5.619
  393TIP3   OH2 1142   3.231   2.449   3.202
  393TIP3    H1 1143   3.181   2.370   3.183
  393TIP3    H2 1144   3.167   2.520   3.197
  394TIP3   OH2 1145   6.372   3.639   3.915
  394TIP3    H1 1146   6.379   3.551   3.952
  394TIP3    H2 1147   6.295   3.636   3.859
  395TIP3   OH2 1148   2.806   5.813   4.002
  395TIP3    H1 1149   2.883   5.868   4.017
  395TIP3    H2 1150   2.780   5.832   3.912
  396TIP3   OH2 1151   4.666   0.275   5.487
  396TIP3    H1 1152   4.730   0.253   5.420
  396TIP3    H2 1153   4.619   0.350   5.452
  397TIP3   OH2 1154   2.459   4.740   2.328
  397TIP3    H1 1155   2.458   4.690   2.409
  397TIP3    H2 1156   2.517   4.814   2.346
  398TIP3   OH2 1157   0.219   1.764   2.644
  398TIP3    H1 1158   0.254   1.786   2.730
  398TIP3    H2 1159   0.203   1.849   2.602
  399TIP3   OH2 1160   0.118   1.857   0.451
  399TIP3    H1 1161   0.039   1.861   0.396
  399TIP3    H2 1162   0.084   1.837   0.538
  400TIP3   OH2 1163   4.445   5.821   5.212
  400TIP3    H1 1164   4.508   5.753   5.189
  400TIP3    H2 1165   4.431   5.810   5.306
  401TIP3   OH2 1166   0.826   2.726   4.868
  401TIP3    H1 1167   0.742   2.718   4.822
  401TIP3    H2 1168   0.849   2.819   4.861
  402TIP3   OH2 1169   3.410   0.662   1.173
  402TIP3    H1 1170   3.393   0.664   1.267
  402TIP3    H2 1171   3.438   0.751   1.151
  403TIP3   OH2 1172   4.879   5.170   5.825
  403TIP3    H1 1173   4.915   5.169   5.914
  403TIP3    H2 1174   4.937   5.229   5.776
  404TIP3   OH2 1175   6.427   5.704   4.377
  404TIP3    H1 1176   6.423   5.734   4.286
  404TIP3    H2 1177   6.388   5.775   4.428
  405TIP3   OH2 1178   6.149   3.315   2.665
  405TIP3    H1 1179   6.227   3.323   2.719
  405TIP3    H2 1180   6.120   3.405   2.651
  406TIP3   OH2 1181   1.305   1.787   0.123
  406TIP3    H1 1182   1.320   1.880   0.141
  406TIP3    H2 1183   1.258   1.787   0.040
  407TIP3   OH2 1184   5.346   3.650   1.224
  407TIP3    H1 1185   5.306   3.736   1.210
  407TIP3    H2 1186   5.439   3.668   1.238
  408TIP3   OH2 1187   0.196   2.603   3.725
  408TIP3    H1 1188   0.238   2.531   3.678
  408TIP3    H2 1189   0.110   2.612   3.683
  409TIP3   OH2 1190   2.353   4.677   2.574
  409TIP3    H1 1191   2.282   4.632   2.529
  409TIP3    H2 1192   2.332   4.770   2.567
  410TIP3   OH2 1193   2.078   3.672   2.231
  410TIP3    H1 1194   2.165   3.689   2.194
  410TIP3    H2 1195   2.068   3.577   2.226
  411TIP3   OH2 1196   3.918   2.780   2.286
  411TIP3    H1 1197   3.872   2.697   2.300
  411TIP3    H2 1198   3.850   2.842   2.261
  412TIP3   OH2 1199   6.698   6.205   3.867
  412TIP3    H1 1200   6.752   6.164   3.934
  412TIP3    H2 1201   6.706   6.148   3.790
  413TIP3   OH2 1202   4.573   3.813   1.938
  413TIP3    H1 1203   4.653   3.863   1.955
  413TIP3    H2 1204   4.589   3.728   1.980
  414TIP3   OH2 1205   6.590   4.505   5.588
  414TIP3    H1 1206   6.505   4.486   5.629
  414TIP3    H2 1207   6.654   4.491   5.657
  415TIP3   OH2 1208   5.366   1.520   3.197
  415TIP3    H1 1209   5.305   1.591   3.218
  415TIP3    H2 1210   5.313   1.441   3.198
  416TIP3   OH2 1211   6.046   4.080   4.134
  416TIP3    H1 1212   6.018   4.042   4.051
  416TIP3    H2 1213   6.096   4.158   4.109
  417TIP3   OH2 1214   0.427   4.398   0.890
  417TIP3    H1 1215   0.417   4.366   0.980
  417TIP3    H2 1216   0.397   4.489   0.893
  418TIP3   OH2 1217   6.753   6.443   3.520
  418TIP3    H1 1218   6.760   6.408   3.431
  418TIP3    H2 1219   6.664   6.478   3.525
  419TIP3   OH2 1220   3.358   0.667   2.285
  419TIP3    H1 1221   3.312   0.625   2.358
  419TIP3    H2 1222   3.337   0.613   2.209
  420TIP3   OH2 1223   6.620   5.622   4.113
  420TIP3    H1 1224   6.637   5.666   4.030
  420TIP3    H2 1225   6.537   5.576   4.099
  421TIP3   OH2 1226   0.206   4.267   2.787
  421TIP3    H1 1227   0.283   4.313   2.754
  421TIP3    H2 1228   0.241   4.204   2.851
  422TIP3   OH2 1229   0.069   4.001   5.568
  422TIP3    H1 1230   0.111   3.932   5.619
  422TIP3    H2 1231   0.113   3.997   5.483
  423TIP3   OH2 1232   4.840   0.128   1.794
  423TIP3    H1 1233   4.750   0.129   1.825
  423TIP3    H2 1234   4.835   0.170   1.708
  424TIP3   OH2 1235   4.720   4.407   0.687
  424TIP3    H1 1236   4.692   4.324   0.648
  424TIP3    H2 1237   4.785   4.383   0.753
  425TIP3   OH2 1238   0.857   3.981   1.255
  425TIP3    H1 1239   0.881   4.058   1.305
  425TIP3    H2 1240   0.808   3.927   1.317
  426TIP3   OH2 1241   7.176   6.776   4.079
  426TIP3    H1 1242   7.181   6.681   4.092
  426TIP3    H2 1243   7.192   6.814   4.166
  427TIP3   OH2 1244   2.391   0.557   1.203
  427TIP3    H1 1245   2.310   0.578   1.249
  427TIP3    H2 1246   2.441   0.503   1.265
  428TIP3   OH2 1247   6.634   4.605   2.460
  428TIP3    H1 1248   6.596   4.665   2.395
  428TIP3    H2 1249   6.632   4.655   2.542
  429TIP3   OH2 1250   1.146   1.554   4.851
  429TIP3    H1 1251   1.064   1.599   4.830
  429TIP3    H2 1252   1.213   1.620   4.836
  430TIP3   OH2 1253   3.895   0.364   0.767
  430TIP3    H1 1254   3.941   0.412   0.699
  430TIP3    H2 1255   3.931   0.399   0.849
  431TIP3   OH2 1256   1.925   4.983   4.375
  431TIP3    H1 1257   1.959   5.041   4.442
  431TIP3    H2 1258   1.986   4.910   4.373
  432TIP3   OH2 1259   3.715   5.647   4.833
  432TIP3    H1 1260   3.653   5.610   4.896
  432TIP3    H2 1261   3.788   5.585   4.832
  433TIP3   OH2 1262   6.538   4.918   5.870
  433TIP3    H1 1263   6.450   4.882   5.864
  433TIP3    H2 1264   6.567   4.927   5.779
  434TIP3   OH2 1265   4.171   1.766   5.311
  434TIP3    H1 1266   4.219   1.759   5.394
  434TIP3    H2 1267   4.221   1.713   5.249
  435TIP3   OH2 1268   2.622   2.263   4.840
  435TIP3    H1 1269   2.529   2.274   4.860
  435TIP3    H2 1270   2.666   2.330   4.892
  436TIP3   OH2 1271   2.191   5.619   5.854
  436TIP3    H1 1272   2.238   5.538   5.831
  436TIP3    H2 1273   2.201   5.675   5.778
  437TIP3   OH2 1274   2.742   2.984   2.262
  437TIP3    H1 1275   2.731   2.979   2.357
  437TIP3    H2 1276   2.654   2.968   2.228
  438TIP3   OH2 1277   4.493   2.318   1.326
  438TIP3    H1 1278   4.474   2.242   1.271
  438TIP3    H2 1279   4.412   2.336   1.373
  439TIP3   OH2 1280   0.266   5.744   5.381
  439TIP3    H1 1281   0.322   5.670   5.404
  439TIP3    H2 1282   0.180   5.705   5.364
  440TIP3   OH2 1283   0.506   3.223   2.395
  440TIP3    H1 1284   0.538   3.270   2.318
  440TIP3    H2 1285   0.532   3.278   2.469
  441TIP3   OH2 1286   2.563   3.448   5.365
  441TIP3    H1 1287   2.548   3.476   5.275
  441TIP3    H2 1288   2.648   3.486   5.388
  442TIP3   OH2 1289   7.073   4.118   0.939
  442TIP3    H1 1290   7.099   4.040   0.891
  442TIP3    H2 1291   6.994   4.149   0.895
  443TIP3   OH2 1292   4.121   5.193   1.429
  443TIP3    H1 1293   4.085   5.119   1.477
  443TIP3    H2 1294   4.070   5.198   1.348
  444TIP3   OH2 1295   6.402   3.210   3.626
  444TIP3    H1 1296   6.372   3.163   3.548
  444TIP3    H2 1297   6.496   3.194   3.630
  445TIP3   OH2 1298   4.190   5.673   4.690
  445TIP3    H1 1299   4.246   5.750   4.697
  445TIP3    H2 1300   4.149   5.681   4.604
  446TIP3   OH2 1301   1.984   5.420   1.679
  446TIP3    H1 1302   1.927   5.370   1.619
  446TIP3    H2 1303   1.930   5.494   1.707
  447TIP3   OH2 1304   6.035   2.448   4.112
  447TIP3    H1 1305   6.083   2.414   4.036
  447TIP3    H2 1306   6.101   2.455   4.181
  448TIP3   OH2 1307   7.131   6.159   3.128
  448TIP3    H1 1308   7.203   6.168   3.191
  448TIP3    H2 1309   7.111   6.249   3.102
  449TIP3   OH2 1310   3.259   6.668   1.079
  449TIP3    H1 1311   3.354   6.665   1.065
  449TIP3    H2 1312   3.237   6.761   1.076
  450TIP3   OH2 1313   5.024   4.971   1.703
  450TIP3    H1 1314   5.085   4.980   1.776
  450TIP3    H2 1315   4.937   4.971   1.744
  451TIP3   OH2 1316   7.054   6.424   0.833
  451TIP3    H1 1317   7.008   6.466   0.906
  451TIP3    H2 1318   7.132   6.477   0.820
  452TIP3   OH2 1319   4.596   0.307   4.276
  452TIP3    H1 1320   4.530   0.328   4.210
  452TIP3    H2 1321   4.578   0.217   4.301
  453TIP3   OH2 1322   6.654   0.553   3.434
  453TIP3    H1 1323   6.720   0.509   3.488
  453TIP3    H2 1324   6.679   0.645   3.437
  454TIP3   OH2 1325   0.505   3.062   0.747
  454TIP3    H1 1326   0.578   3.115   0.780
  454TIP3    H2 1327   0.433   3.080   0.808
  455TIP3   OH2 1328   4.988   4.838   4.081
  455TIP3    H1 1329   4.901   4.798   4.087
  455TIP3    H2 1330   4.983   4.913   4.141
  456TIP3   OH2 1331   4.167   6.568   4.081
  456TIP3    H1 1332   4.232   6.626   4.041
  456TIP3    H2 1333   4.201   6.551   4.169
  457TIP3   OH2 1334   3.665   1.934   2.611
  457TIP3    H1 1335   3.640   1.988   2.686
  457TIP3    H2 1336   3.703   1.997   2.549
  458TIP3   OH2 1337   2.186   2.577   2.496
  458TIP3    H1 1338   2.095   2.550   2.482
  458TIP3    H2 1339   2.180   2.652   2.555
  459TIP3   OH2 1340   5.260   6.380   3.189
  459TIP3    H1 1341   5.291   6.397   3.278
  459TIP3    H2 1342   5.270   6.464   3.144
  460TIP3   OH2 1343   4.076   2.734   4.829
  460TIP3    H1 1344   4.043   2.822   4.846
  460TIP3    H2 1345   4.170   2.740   4.846
  461TIP3   OH2 1346   1.848   1.607   2.304
  461TIP3    H1 1347   1.786   1.535   2.313
  461TIP3    H2 1348   1.889   1.594   2.219
  462TIP3   OH2 1349   2.483   6.057   5.647
  462TIP3    H1 1350   2.430   6.039   5.569
  462TIP3    H2 1351   2.528   6.139   5.626
  463TIP3   OH2 1352   1.793   6.737   3.153
  463TIP3    H1 1353   1.717   6.791   3.133
  463TIP3    H2 1354   1.772   6.695   3.236
  464TIP3   OH2 1355   3.089   5.916   4.571
  464TIP3    H1 1356   3.034   5.887   4.643
  464TIP3    H2 1357   3.027   5.947   4.505
  465TIP3   OH2 1358   4.490   3.392   5.284
  465TIP3    H1 1359   4.537   3.309   5.278
  465TIP3    H2 1360   4.472   3.416   5.193
  466TIP3   OH2 1361   6.752   1.488   2.754
  466TIP3    H1 1362   6.789   1.403   2.731
  466TIP3    H2 1363   6.749   1.537   2.671
  467TIP3   OH2 1364   1.639   0.173   2.646
  467TIP3    H1 1365   1.626   0.082   2.674
  467TIP3    H2 1366   1.551   0.209   2.642
  468TIP3   OH2 1367   0.471   1.324   5.574
  468TIP3    H1 1368   0.400   1.381   5.605
  468TIP3    H2 1369   0.502   1.367   5.494
  469TIP3   OH2 1370   4.152   5.920   4.841
  469TIP3    H1 1371   4.180   5.849   4.899
  469TIP3    H2 1372   4.211   5.916   4.766
  470TIP3   OH2 1373   2.091   1.122   3.053
  470TIP3    H1 1374   2.119   1.134   2.963
  470TIP3    H2 1375   2.128   1.196   3.101
  471TIP3   OH2 1376   0.864   0.436   2.844
  471TIP3    H1 1377   0.926   0.409   2.912
  471TIP3    H2 1378   0.804   0.496   2.887
  472TIP3   OH2 1379   5.945   5.964   3.867
  472TIP3    H1 1380   5.924   5.872   3.882
  472TIP3    H2 1381   6.041   5.967   3.869
  473TIP3   OH2 1382   2.184   5.701   1.096
  473TIP3    H1 1383   2.201   5.616   1.056
  473TIP3    H2 1384   2.266   5.723   1.142
  474TIP3   OH2 1385   6.047   3.770   4.434
  474TIP3    H1 1386   6.120   3.757   4.495
  474TIP3    H2 1387   6.069   3.715   4.358
  475TIP3   OH2 1388   3.571   2.172   2.423
  475TIP3    H1 1389   3.638   2.199   2.486
  475TIP3    H2 1390   3.612   2.185   2.337
  476TIP3   OH2 1391   7.058   2.454   0.128
  476TIP3    H1 1392   7.013   2.410   0.057
  476TIP3    H2 1393   7.122   2.511   0.085
  477TIP3   OH2 1394   5.185   5.730   2.680
  477TIP3    H1 1395   5.274   5.731   2.646
  477TIP3    H2 1396   5.142   5.804   2.638
  478TIP3   OH2 1397   1.742   6.142   1.347
  478TIP3    H1 1398   1.774   6.177   1.264
  478TIP3    H2 1399   1.668   6.198   1.371
  479TIP3   OH2 1400   2.517   3.685   3.933
  479TIP3    H1 1401   2.598   3.634   3.928
  479TIP3    H2 1402   2.545   3.771   3.962
  480TIP3   OH2 1403   5.172   6.538   3.868
  480TIP3    H1 1404   5.257   6.565   3.903
  480TIP3    H2 1405   5.192   6.464   3.811
  481TIP3   OH2 1406   5.955   6.340   1.890
  481TIP3    H1 1407   6.014   6.352   1.815
  481TIP3    H2 1408   5.931   6.429   1.915
  482TIP3   OH2 1409   6.489   0.803   1.753
  482TIP3    H1 1410   6.567   0.830   1.703
  482TIP3    H2 1411   6.461   0.722   1.711
  483TIP3   OH2 1412   5.714   6.533   2.774
  483TIP3    H1 1413   5.667   6.513   2.693
  483TIP3    H2 1414   5.645   6.545   2.839
  484TIP3   OH2 1415   5.436   6.516   5.708
  484TIP3    H1 1416   5.374   6.511   5.781
  484TIP3    H2 1417   5.417   6.600   5.666
  485TIP3   OH2 1418   2.408   5.253   4.524
  485TIP3    H1 1419   2.478   5.301   4.480
  485TIP3    H2 1420   2.389   5.305   4.602
  486TIP3   OH2 1421   4.543   2.850  -0.009
  486TIP3    H1 1422   4.563   2.899  -0.089
  486TIP3    H2 1423   4.629   2.821   0.024
  487TIP3   OH2 1424   1.776   5.575   0.895
  487TIP3    H1 1425   1.770   5.485   0.863
  487TIP3    H2 1426   1.868   5.598   0.885
  488TIP3   OH2 1427   0.207   2.078   2.911
  488TIP3    H1 1428   0.118   2.075   2.944
  488TIP3    H2 1429   0.237   1.987   2.912
  489TIP3   OH2 1430   0.674   3.555   4.290
  489TIP3    H1 1431   0.583   3.583   4.299
  489TIP3    H2 1432   0.693   3.509   4.372
  490TIP3   OH2 1433   7.142   1.766   0.076
  490TIP3    H1 1434   7.100   1.705   0.137
  490TIP3    H2 1435   7.236   1.753   0.090
  491TIP3   OH2 1436   6.928   5.087   4.112
  491TIP3    H1 1437   6.995   5.148   4.145
  491TIP3    H2 1438   6.964   5.055   4.030
  492TIP3   OH2 1439   6.322   0.865   5.663
  492TIP3    H1 1440   6.317   0.858   5.759
  492TIP3    H2 1441   6.364   0.950   5.648
  493TIP3   OH2 1442   6.482   6.746   0.321
  493TIP3    H1 1443   6.400   6.715   0.282
  493TIP3    H2 1444   6.537   6.668   0.324
  494TIP3   OH2 1445   1.644   0.933   3.802
  494TIP3    H1 1446   1.715   0.931   3.738
  494TIP3    H2 1447   1.674   0.876   3.873
  495TIP3   OH2 1448   0.919   0.163   5.323
  495TIP3    H1 1449   0.953   0.160   5.233
  495TIP3    H2 1450   0.997   0.155   5.378
  496TIP3   OH2 1451   6.259   3.921   2.639
  496TIP3    H1 1452   6.262   3.951   2.548
  496TIP3    H2 1453   6.184   3.862   2.642
  497TIP3   OH2 1454   5.031   0.514   5.651
  497TIP3    H1 1455   4.967   0.454   5.613
  497TIP3    H2 1456   5.113   0.465   5.651
  498TIP3   OH2 1457   2.715   5.377   3.286
  498TIP3    H1 1458   2.793   5.321   3.281
  498TIP3    H2 1459   2.669   5.346   3.364
  499TIP3   OH2 1460   7.205   3.437   3.928
  499TIP3    H1 1461   7.163   3.378   3.866
  499TIP3    H2 1462   7.135   3.462   3.988
  500TIP3   OH2 1463   4.242   3.668   1.662
  500TIP3    H1 1464   4.192   3.747   1.684
  500TIP3    H2 1465   4.278   3.686   1.575
  501TIP3   OH2 1466   2.441   2.260   5.764
  501TIP3    H1 1467   2.527   2.227   5.738
  501TIP3    H2 1468   2.407   2.195   5.825
  502TIP3   OH2 1469   2.943   0.349   3.128
  502TIP3    H1 1470   2.915   0.278   3.186
  502TIP3    H2 1471   2.973   0.418   3.186
  503TIP3   OH2 1472   3.250   2.799   4.926
  503TIP3    H1 1473   3.187   2.812   4.997
  503TIP3    H2 1474   3.316   2.741   4.963
  504TIP3   OH2 1475   2.398   6.708   5.054
  504TIP3    H1 1476   2.369   6.711   5.145
  504TIP3    H2 1477   2.485   6.746   5.055
  505TIP3   OH2 1478   3.856   6.807   3.212
  505TIP3    H1 1479   3.806   6.741   3.164
  505TIP3    H2 1480   3.792   6.847   3.272
  506TIP3   OH2 1481   1.045   5.508   2.581
  506TIP3    H1 1482   1.029   5.573   2.649
  506TIP3    H2 1483   1.008   5.546   2.502
  507TIP3   OH2 1484   5.873   6.687   4.974
  507TIP3    H1 1485   5.848   6.699   5.065
  507TIP3    H2 1486   5.957   6.643   4.977
  508TIP3   OH2 1487   7.125   2.164   1.402
  508TIP3    H1 1488   7.108   2.247   1.446
  508TIP3    H2 1489   7.043   2.141   1.360
  509TIP3   OH2 1490   4.685   6.312   1.425
  509TIP3    H1 1491   4.640   6.326   1.508
  509TIP3    H2 1492   4.756   6.375   1.425
  510TIP3   OH2 1493   4.032   5.472   4.442
  510TIP3    H1 1494   4.116   5.427   4.438
  510TIP3    H2 1495   3.975   5.413   4.491
  511TIP3   OH2 1496   5.099   2.628   1.098
  511TIP3    H1 1497   5.134   2.713   1.072
  511TIP3    H2 1498   5.005   2.636   1.086
  512TIP3   OH2 1499   2.117   6.218   5.444
  512TIP3    H1 1500   2.069   6.203   5.525
  512TIP3    H2 1501   2.209   6.222   5.471
  513TIP3   OH2 1502  -0.005   6.068   1.270
  513TIP3    H1 1503   0.040   5.983   1.272
  513TIP3    H2 1504   0.042   6.118   1.203
  514TIP3   OH2 1505   5.962   0.237   0.761
  514TIP3    H1 1506   5.909   0.285   0.697
  514TIP3    H2 1507   5.937   0.145   0.747
  515TIP3   OH2 1508   4.629   3.301   0.946
  515TIP3    H1 1509   4.558   3.361   0.923
  515TIP3    H2 1510   4.613   3.280   1.038
  516TIP3   OH2 1511   6.995   5.501   3.714
  516TIP3    H1 1512   7.021   5.413   3.685
  516TIP3    H2 1513   7.071   5.534   3.762
  517TIP3   OH2 1514   3.010   3.075   2.302
  517TIP3    H1 1515   2.919   3.051   2.321
  517TIP3    H2 1516   3.003   3.140   2.232
  518TIP3   OH2 1517   0.570   4.953   3.349
  518TIP3    H1 1518   0.629   5.023   3.377
  518TIP3    H2 1519   0.483   4.990   3.358
  519TIP3   OH2 1520   4.790   3.771   5.325
  519TIP3    H1 1521   4.741   3.849   5.352
  519TIP3    H2 1522   4.736   3.698   5.356
  520TIP3   OH2 1523   3.247   4.953   5.814
  520TIP3    H1 1524   3.218   5.038   5.845
  520TIP3    H2 1525   3.231   4.894   5.888
  521TIP3   OH2 1526   1.955   1.168   0.263
  521TIP3    H1 1527   1.900   1.108   0.213
  521TIP3    H2 1528   1.942   1.253   0.222
  522TIP3   OH2 1529   0.811   3.892   5.049
  522TIP3    H1 1530   0.771   3.963   5.099
  522TIP3    H2 1531   0.745   3.869   4.983
  523TIP3   OH2 1532   2.556   1.667   4.271
  523TIP3    H1 1533   2.495   1.734   4.242
  523TIP3    H2 1534   2.606   1.708   4.341
  524TIP3   OH2 1535   4.723   0.972   2.005
  524TIP3    H1 1536   4.799   1.031   2.009
  524TIP3    H2 1537   4.648   1.030   2.014
  525TIP3   OH2 1538   2.476   5.183   3.552
  525TIP3    H1 1539   2.476   5.141   3.638
  525TIP3    H2 1540   2.526   5.264   3.565
  526TIP3   OH2 1541   0.948   3.534   4.801
  526TIP3    H1 1542   0.933   3.594   4.728
  526TIP3    H2 1543   0.864   3.532   4.847
  527TIP3   OH2 1544   2.175   4.155   1.007
  527TIP3    H1 1545   2.183   4.062   1.030
  527TIP3    H2 1546   2.217   4.162   0.922
  528TIP3   OH2 1547   2.508   2.207   4.318
  528TIP3    H1 1548   2.526   2.210   4.224
  528TIP3    H2 1549   2.428   2.155   4.326
  529TIP3   OH2 1550   3.389   3.329   4.281
  529TIP3    H1 1551   3.385   3.262   4.213
  529TIP3    H2 1552   3.410   3.280   4.361
  530TIP3   OH2 1553   4.460   5.253   2.612
  530TIP3    H1 1554   4.394   5.246   2.681
  530TIP3    H2 1555   4.416   5.301   2.541
  531TIP3   OH2 1556   6.346   4.379   5.682
  531TIP3    H1 1557   6.270   4.435   5.665
  531TIP3    H2 1558   6.361   4.387   5.777
  532TIP3   OH2 1559   6.292   0.806   0.349
  532TIP3    H1 1560   6.293   0.712   0.331
  532TIP3    H2 1561   6.279   0.846   0.263
  533TIP3   OH2 1562   0.114   5.623   1.433
  533TIP3    H1 1563   0.165   5.555   1.389
  533TIP3    H2 1564   0.023   5.604   1.409
  534TIP3   OH2 1565   6.691   1.143   3.824
  534TIP3    H1 1566   6.617   1.083   3.829
  534TIP3    H2 1567   6.672   1.198   3.748
  535TIP3   OH2 1568   6.056   2.282   3.896
  535TIP3    H1 1569   5.992   2.237   3.841
  535TIP3    H2 1570   6.055   2.233   3.978
  536TIP3   OH2 1571   2.754   6.420   0.475
  536TIP3    H1 1572   2.750   6.436   0.570
  536TIP3    H2 1573   2.721   6.332   0.464
  537TIP3   OH2 1574   6.043   2.440   1.937
  537TIP3    H1 1575   6.056   2.362   1.882
  537TIP3    H2 1576   6.011   2.507   1.877
  538TIP3   OH2 1577   4.251   0.334   1.686
  538TIP3    H1 1578   4.167   0.330   1.639
  538TIP3    H2 1579   4.236   0.283   1.766
  539TIP3   OH2 1580   0.178   5.204   4.964
  539TIP3    H1 1581   0.106   5.246   4.916
  539TIP3    H2 1582   0.170   5.238   5.053
  540TIP3   OH2 1583   0.712   4.336   1.385
  540TIP3    H1 1584   0.805   4.343   1.405
  540TIP3    H2 1585   0.708   4.333   1.289
  541TIP3   OH2 1586   5.724   0.078   3.312
  541TIP3    H1 1587   5.715   0.002   3.370
  541TIP3    H2 1588   5.685   0.049   3.229
  542TIP3   OH2 1589   3.890   3.172   1.704
  542TIP3    H1 1590   3.859   3.138   1.788
  542TIP3    H2 1591   3.910   3.095   1.652
  543TIP3   OH2 1592   2.026   4.208   0.746
  543TIP3    H1 1593   2.088   4.281   0.746
  543TIP3    H2 1594   1.962   4.231   0.814
  544TIP3   OH2 1595   2.631   6.180   0.458
  544TIP3    H1 1596   2.579   6.190   0.378
  544TIP3    H2 1597   2.584   6.114   0.509
  545TIP3   OH2 1598   4.503   6.217   0.076
  545TIP3    H1 1599   4.493   6.270  -0.004
  545TIP3    H2 1600   4.545   6.136   0.046
  546TIP3   OH2 1601   6.295   5.193   0.853
  546TIP3    H1 1602   6.349   5.218   0.777
  546TIP3    H2 1603   6.351   5.211   0.929
  547TIP3   OH2 1604   4.035   3.364   3.542
  547TIP3    H1 1605   4.021   3.274   3.515
  547TIP3    H2 1606   4.130   3.376   3.538
  548TIP3   OH2 1607   3.050   3.469   2.885
  548TIP3    H1 1608   3.032   3.523   2.808
  548TIP3    H2 1609   3.002   3.512   2.956
  549TIP3   OH2 1610   3.820   6.436   2.348
  549TIP3    H1 1611   3.900   6.385   2.336
  549TIP3    H2 1612   3.838   6.491   2.424
  550TIP3   OH2 1613   2.892   0.715   2.567
  550TIP3    H1 1614   2.873   0.752   2.481
  550TIP3    H2 1615   2.830   0.643   2.577
  551TIP3   OH2 1616   5.516   3.033   0.648
  551TIP3    H1 1617   5.475   3.037   0.561
  551TIP3    H2 1618   5.567   3.114   0.654
  552TIP3   OH2 1619   1.802   1.058   3.503
  552TIP3    H1 1620   1.843   0.979   3.538
  552TIP3    H2 1621   1.812   1.123   3.574
  553TIP3   OH2 1622   2.206   0.010   0.532
  553TIP3    H1 1623   2.137   0.028   0.468
  553TIP3    H2 1624   2.274  -0.036   0.483
  554TIP3   OH2 1625   1.284   1.981   3.986
  554TIP3    H1 1626   1.228   2.008   3.914
  554TIP3    H2 1627   1.346   1.919   3.946
  555TIP3   OH2 1628   6.151   4.606   3.300
  555TIP3    H1 1629   6.095   4.529   3.308
  555TIP3    H2 1630   6.099   4.667   3.246
  556TIP3   OH2 1631   0.250   3.641   0.384
  556TIP3    H1 1632   0.259   3.690   0.466
  556TIP3    H2 1633   0.159   3.656   0.357
  557TIP3   OH2 1634   4.498   0.562   5.610
  557TIP3    H1 1635   4.438   0.630   5.641
  557TIP3    H2 1636   4.444   0.508   5.552
  558TIP3   OH2 1637   4.081   0.518   3.027
  558TIP3    H1 1638   4.176   0.533   3.033
  558TIP3    H2 1639   4.066   0.498   2.935
  559TIP3   OH2 1640   0.289   5.916   4.567
  559TIP3    H1 1641   0.296   5.904   4.472
  559TIP3    H2 1642   0.327   6.003   4.583
  560TIP3   OH2 1643   4.112   2.443   1.509
  560TIP3    H1 1644   4.047   2.512   1.502
  560TIP3    H2 1645   4.105   2.412   1.599
  561TIP3   OH2 1646   3.066   3.136   4.102
  561TIP3    H1 1647   2.987   3.083   4.110
  561TIP3    H2 1648   3.036   3.220   4.069
  562TIP3   OH2 1649   5.116   2.368   1.011
  562TIP3    H1 1650   5.162   2.450   1.032
  562TIP3    H2 1651   5.028   2.396   0.986
  563TIP3   OH2 1652   3.081   3.825   0.750
  563TIP3    H1 1653   3.078   3.920   0.737
  563TIP3    H2 1654   3.163   3.798   0.710
  564TIP3   OH2 1655   0.614   3.434   4.726
  564TIP3    H1 1656   0.519   3.426   4.718
  564TIP3    H2 1657   0.626   3.494   4.800
  565TIP3   OH2 1658   4.663   0.072   0.619
  565TIP3    H1 1659   4.651   0.033   0.532
  565TIP3    H2 1660   4.668  -0.004   0.678
  566TIP3   OH2 1661   1.651   6.305   1.856
  566TIP3    H1 1662   1.700   6.267   1.783
  566TIP3    H2 1663   1.693   6.270   1.934
  567TIP3   OH2 1664   4.856   0.535   1.234
  567TIP3    H1 1665   4.902   0.451   1.238
  567TIP3    H2 1666   4.788   0.529   1.301
  568TIP3   OH2 1667   4.171   0.253   0.784
  568TIP3    H1 1668   4.166   0.245   0.689
  568TIP3    H2 1669   4.251   0.303   0.800
  569TIP3   OH2 1670   1.763   3.711   4.594
  569TIP3    H1 1671   1.692   3.707   4.530
  569TIP3    H2 1672   1.782   3.804   4.604
  570TIP3   OH2 1673   6.309   2.034   2.237
  570TIP3    H1 1674   6.244   2.020   2.168
  570TIP3    H2 1675   6.276   2.108   2.288
  571TIP3   OH2 1676   0.848   5.627   4.700
  571TIP3    H1 1677   0.899   5.573   4.640
  571TIP3    H2 1678   0.766   5.579   4.712
  572TIP3   OH2 1679   2.116   4.996   4.627
  572TIP3    H1 1680   2.146   5.032   4.711
  572TIP3    H2 1681   2.196   4.968   4.583
  573TIP3   OH2 1682   0.583   2.827   5.652
  573TIP3    H1 1683   0.490   2.806   5.661
  573TIP3    H2 1684   0.593   2.851   5.560
  574TIP3   OH2 1685   2.077   3.135   5.350
  574TIP3    H1 1686   2.113   3.221   5.373
  574TIP3    H2 1687   2.055   3.143   5.257
  575TIP3   OH2 1688   4.978   6.389   4.276
  575TIP3    H1 1689   4.974   6.412   4.184
  575TIP3    H2 1690   4.891   6.353   4.296
  576TIP3   OH2 1691   3.454   1.561   1.909
  576TIP3    H1 1692   3.425   1.536   1.997
  576TIP3    H2 1693   3.418   1.648   1.896
  577TIP3   OH2 1694   4.683   3.907   3.710
  577TIP3    H1 1695   4.698   3.944   3.797
  577TIP3    H2 1696   4.753   3.843   3.699
  578TIP3   OH2 1697   5.691   4.190   5.097
  578TIP3    H1 1698   5.786   4.197   5.090
  578TIP3    H2 1699   5.658   4.275   5.068
  579TIP3   OH2 1700   2.768   2.938   1.070
  579TIP3    H1 1701   2.695   2.910   1.015
  579TIP3    H2 1702   2.727   2.977   1.147
  580TIP3   OH2 1703   5.508   6.062   5.324
  580TIP3    H1 1704   5.466   5.998   5.382
  580TIP3    H2 1705   5.600   6.039   5.325
  581TIP3   OH2 1706   5.419   5.447   1.672
  581TIP3    H1 1707   5.337   5.422   1.714
  581TIP3    H2 1708   5.441   5.372   1.616
  582TIP3   OH2 1709   5.096   2.388   3.676
  582TIP3    H1 1710   5.160   2.457   3.658
  582TIP3    H2 1711   5.111   2.364   3.768
  583TIP3   OH2 1712   4.667   2.292   5.394
  583TIP3    H1 1713   4.729   2.255   5.456
  583TIP3    H2 1714   4.599   2.332   5.448
  584TIP3   OH2 1715   1.443   6.146   1.282
  584TIP3    H1 1716   1.466   6.222   1.335
  584TIP3    H2 1717   1.411   6.184   1.200
  585TIP3   OH2 1718   4.357   3.380   1.400
  585TIP3    H1 1719   4.406   3.389   1.482
  585TIP3    H2 1720   4.301   3.457   1.396
  586TIP3   OH2 1721   5.314   5.389   0.282
  586TIP3    H1 1722   5.283   5.361   0.196
  586TIP3    H2 1723   5.409   5.395   0.273
  587TIP3   OH2 1724   2.623   4.920   3.508
  587TIP3    H1 1725   2.635   4.867   3.587
  587TIP3    H2 1726   2.576   4.998   3.539
  588TIP3   OH2 1727   2.681   1.708   5.178
  588TIP3    H1 1728   2.749   1.769   5.208
  588TIP3    H2 1729   2.636   1.682   5.259
  589TIP3   OH2 1730   3.221   2.472   1.570
  589TIP3    H1 1731   3.136   2.497   1.607
  589TIP3    H2 1732   3.201   2.397   1.514
  590TIP3   OH2 1733   5.411   1.905   5.086
  590TIP3    H1 1734   5.489   1.958   5.071
  590TIP3    H2 1735   5.405   1.848   5.010
  591TIP3   OH2 1736   3.613   1.837   1.563
  591TIP3    H1 1737   3.529   1.824   1.606
  591TIP3    H2 1738   3.662   1.757   1.583
  592TIP3   OH2 1739   4.769   3.067   1.019
  592TIP3    H1 1740   4.784   2.988   0.967
  592TIP3    H2 1741   4.778   3.139   0.957
  593TIP3   OH2 1742   0.342   1.574   1.111
  593TIP3    H1 1743   0.364   1.500   1.167
  593TIP3    H2 1744   0.396   1.646   1.143
  594TIP3   OH2 1745   1.261   3.315   2.376
  594TIP3    H1 1746   1.287   3.250   2.441
  594TIP3    H2 1747   1.166   3.323   2.387
  595TIP3   OH2 1748   3.989   6.517   5.356
  595TIP3    H1 1749   3.900   6.513   5.390
  595TIP3    H2 1750   4.033   6.443   5.397
  596TIP3   OH2 1751   4.379   0.859   4.529
  596TIP3    H1 1752   4.295   0.903   4.545
  596TIP3    H2 1753   4.430   0.923   4.479
  597TIP3   OH2 1754   6.456   4.338   5.350
  597TIP3    H1 1755   6.482   4.401   5.283
  597TIP3    H2 1756   6.410   4.390   5.415
  598TIP3   OH2 1757   0.398   4.147   5.806
  598TIP3    H1 1758   0.386   4.232   5.764
  598TIP3    H2 1759   0.348   4.153   5.888
  599TIP3   OH2 1760   6.945   3.458   4.072
  599TIP3    H1 1761   6.930   3.370   4.040
  599TIP3    H2 1762   6.858   3.498   4.074
  600TIP3   OH2 1763   1.230   2.783   1.012
  600TIP3    H1 1764   1.306   2.754   1.062
  600TIP3    H2 1765   1.198   2.861   1.059
  601TIP3   OH2 1766   4.902   3.304   2.876
  601TIP3    H1 1767   4.833   3.247   2.908
  601TIP3    H2 1768   4.856   3.374   2.830
  602TIP3   OH2 1769   3.805   0.434   2.075
  602TIP3    H1 1770   3.758   0.516   2.088
  602TIP3    H2 1771   3.856   0.423   2.155
  603TIP3   OH2 1772   2.428   2.734   3.948
  603TIP3    H1 1773   2.497   2.760   3.886
  603TIP3    H2 1774   2.370   2.810   3.952
  604TIP3   OH2 1775   5.948   3.615   2.266
  604TIP3    H1 1776   5.904   3.697   2.291
  604TIP3    H2 1777   5.902   3.587   2.187
  605TIP3   OH2 1778   7.105   0.567   4.813
  605TIP3    H1 1779   7.121   0.478   4.846
  605TIP3    H2 1780   7.015   0.586   4.837
  606TIP3   OH2 1781   5.347   2.550   4.052
  606TIP3    H1 1782   5.269   2.588   4.013
  606TIP3    H2 1783   5.362   2.470   4.002
  607TIP3   OH2 1784   6.767   2.034   2.732
  607TIP3    H1 1785   6.708   1.981   2.678
  607TIP3    H2 1786   6.774   2.117   2.686
  608TIP3   OH2 1787   5.939   4.702   4.588
  608TIP3    H1 1788   6.010   4.762   4.613
  608TIP3    H2 1789   5.874   4.758   4.546
  609TIP3   OH2 1790   5.667   1.466   5.404
  609TIP3    H1 1791   5.677   1.382   5.360
  609TIP3    H2 1792   5.608   1.448   5.477
  610TIP3   OH2 1793   3.569   1.213   1.878
  610TIP3    H1 1794   3.503   1.268   1.835
  610TIP3    H2 1795   3.606   1.160   1.808
  611TIP3   OH2 1796   1.191   5.052   4.834
  611TIP3    H1 1797   1.244   4.973   4.844
  611TIP3    H2 1798   1.127   5.047   4.905
  612TIP3   OH2 1799   4.728   1.109   0.482
  612TIP3    H1 1800   4.755   1.035   0.536
  612TIP3    H2 1801   4.671   1.071   0.415
  613TIP3   OH2 1802   5.142   1.067   3.798
  613TIP3    H1 1803   5.161   1.047   3.706
  613TIP3    H2 1804   5.100   1.153   3.795
  614TIP3   OH2 1805   4.968   1.339   1.150
  614TIP3    H1 1806   4.885   1.314   1.109
  614TIP3    H2 1807   5.030   1.345   1.078
  615TIP3   OH2 1808   6.137   3.942   1.417
  615TIP3    H1 1809   6.119   3.854   1.450
  615TIP3    H2 1810   6.205   3.976   1.475
  616TIP3   OH2 1811   6.808   5.044   1.150
  616TIP3    H1 1812   6.826   5.115   1.213
  616TIP3    H2 1813   6.737   4.993   1.190
  617TIP3   OH2 1814   4.640   0.164   2.455
  617TIP3    H1 1815   4.609   0.230   2.393
  617TIP3    H2 1816   4.712   0.120   2.410
  618TIP3   OH2 1817   0.234   4.811   1.489
  618TIP3    H1 1818   0.270   4.724   1.507
  618TIP3    H2 1819   0.302   4.872   1.517
  619TIP3   OH2 1820   3.860   1.425   5.090
  619TIP3    H1 1821   3.933   1.411   5.029
  619TIP3    H2 1822   3.825   1.337   5.105
  620TIP3   OH2 1823   2.844   5.654   0.175
  620TIP3    H1 1824   2.911   5.640   0.242
  620TIP3    H2 1825   2.763   5.667   0.224
  621TIP3   OH2 1826   2.110   2.992   4.541
  621TIP3    H1 1827   2.131   3.016   4.451
  621TIP3    H2 1828   2.017   3.014   4.551
  622TIP3   OH2 1829   5.452   1.293   0.652
  622TIP3    H1 1830   5.408   1.208   0.647
  622TIP3    H2 1831   5.389   1.355   0.614
  623TIP3   OH2 1832   2.181   5.218   4.368
  623TIP3    H1 1833   2.117   5.254   4.429
  623TIP3    H2 1834   2.252   5.186   4.424
  624TIP3   OH2 1835   4.223   3.522   2.802
  624TIP3    H1 1836   4.219   3.427   2.797
  624TIP3    H2 1837   4.143   3.552   2.758
  625TIP3   OH2 1838   4.743   2.588   2.207
  625TIP3    H1 1839   4.727   2.587   2.113
  625TIP3    H2 1840   4.801   2.513   2.222
  626TIP3   OH2 1841   6.437   0.448   4.057
  626TIP3    H1 1842   6.385   0.510   4.109
  626TIP3    H2 1843   6.448   0.491   3.973
  627TIP3   OH2 1844   1.575   2.149   5.684
  627TIP3    H1 1845   1.586   2.079   5.619
  627TIP3    H2 1846   1.493   2.192   5.660
  628TIP3   OH2 1847   3.891   1.782   0.009
  628TIP3    H1 1848   3.864   1.700  -0.034
  628TIP3    H2 1849   3.884   1.763   0.102
  629TIP3   OH2 1850   1.895   5.873   5.566
  629TIP3    H1 1851   1.951   5.945   5.596
  629TIP3    H2 1852   1.918   5.861   5.474
  630TIP3   OH2 1853   1.942   1.856   2.370
  630TIP3    H1 1854   1.898   1.779   2.334
  630TIP3    H2 1855   1.885   1.887   2.439
  631TIP3   OH2 1856   6.100   0.863   0.114
  631TIP3    H1 1857   6.042   0.892   0.044
  631TIP3    H2 1858   6.054   0.885   0.195
  632TIP3   OH2 1859   7.228   0.841   5.357
  632TIP3    H1 1860   7.240   0.770   5.294
  632TIP3    H2 1861   7.134   0.861   5.353
  633TIP3   OH2 1862   6.133   1.421   3.969
  633TIP3    H1 1863   6.125   1.414   4.064
  633TIP3    H2 1864   6.063   1.481   3.943
  634TIP3   OH2 1865   2.012   0.901   4.142
  634TIP3    H1 1866   2.051   0.819   4.172
  634TIP3    H2 1867   2.081   0.944   4.091
  635TIP3   OH2 1868   4.325   4.186   4.378
  635TIP3    H1 1869   4.393   4.228   4.325
  635TIP3    H2 1870   4.336   4.223   4.465
  636TIP3   OH2 1871   3.569   2.221   4.604
  636TIP3    H1 1872   3.528   2.298   4.563
  636TIP3    H2 1873   3.552   2.233   4.697
  637TIP3   OH2 1874   4.575   5.569   4.529
  637TIP3    H1 1875   4.568   5.576   4.434
  637TIP3    H2 1876   4.660   5.527   4.544
  638TIP3   OH2 1877   0.411   3.922   5.399
  638TIP3    H1 1878   0.413   3.946   5.492
  638TIP3    H2 1879   0.496   3.881   5.383
  639TIP3   OH2 1880   4.114   2.234   3.856
  639TIP3    H1 1881   4.198   2.192   3.838
  639TIP3    H2 1882   4.050   2.163   3.855
  640TIP3   OH2 1883   3.038   0.989   2.924
  640TIP3    H1 1884   3.117   1.026   2.884
  640TIP3    H2 1885   3.071   0.930   2.991
  641TIP3   OH2 1886   5.236   2.735   1.332
  641TIP3    H1 1887   5.185   2.712   1.255
  641TIP3    H2 1888   5.322   2.760   1.298
  642TIP3   OH2 1889   6.486   4.737   1.966
  642TIP3    H1 1890   6.505   4.705   1.878
  642TIP3    H2 1891   6.496   4.832   1.960
  643TIP3   OH2 1892   3.874   6.047   5.358
  643TIP3    H1 1893   3.781   6.027   5.351
  643TIP3    H2 1894   3.909   6.026   5.271
  644TIP3   OH2 1895   3.869   4.551   5.165
  644TIP3    H1 1896   3.856   4.468   5.211
  644TIP3    H2 1897   3.794   4.605   5.191
  645TIP3   OH2 1898   2.139   5.600   2.092
  645TIP3    H1 1899   2.108   5.567   2.176
  645TIP3    H2 1900   2.060   5.606   2.038
  646TIP3   OH2 1901   4.780   4.758   5.805
  646TIP3    H1 1902   4.775   4.706   5.885
  646TIP3    H2 1903   4.752   4.698   5.736
  647TIP3   OH2 1904   3.650   1.511   4.293
  647TIP3    H1 1905   3.594   1.437   4.272
  647TIP3    H2 1906   3.635   1.528   4.386
  648TIP3   OH2 1907   0.183   5.307   5.226
  648TIP3    H1 1908   0.258   5.364   5.210
  648TIP3    H2 1909   0.215   5.244   5.291
  649TIP3   OH2 1910   2.335   1.276   4.192
  649TIP3    H1 1911   2.256   1.230   4.164
  649TIP3    H2 1912   2.303   1.352   4.240
  650TIP3   OH2 1913   2.786   4.134   0.169
  650TIP3    H1 1914   2.736   4.187   0.107
  650TIP3    H2 1915   2.719   4.092   0.223
  651TIP3   OH2 1916   2.752   1.100   3.065
  651TIP3    H1 1917   2.784   1.048   2.991
  651TIP3    H2 1918   2.770   1.191   3.040
  652TIP3   OH2 1919   3.418   2.357   0.767
  652TIP3    H1 1920   3.436   2.294   0.836
  652TIP3    H2 1921   3.326   2.343   0.745
  653TIP3   OH2 1922   5.183   6.712   3.250
  653TIP3    H1 1923   5.190   6.678   3.339
  653TIP3    H2 1924   5.094   6.689   3.223
  654TIP3   OH2 1925   1.166   1.950   4.473
  654TIP3    H1 1926   1.223   1.899   4.531
  654TIP3    H2 1927   1.105   1.886   4.437
  655TIP3   OH2 1928   0.745   5.248   0.270
  655TIP3    H1 1929   0.784   5.307   0.334
  655TIP3    H2 1930   0.797   5.260   0.190
  656TIP3   OH2 1931   3.273   6.281   1.688
  656TIP3    H1 1932   3.303   6.199   1.726
  656TIP3    H2 1933   3.185   6.263   1.656
  657TIP3   OH2 1934   6.233   4.551   5.282
  657TIP3    H1 1935   6.210   4.639   5.252
  657TIP3    H2 1936   6.310   4.527   5.231
  658TIP3   OH2 1937   3.561   5.591   5.514
  658TIP3    H1 1938   3.475   5.555   5.534
  658TIP3    H2 1939   3.597   5.531   5.448
  659TIP3   OH2 1940   5.100   4.018   4.395
  659TIP3    H1 1941   5.181   3.967   4.390
  659TIP3    H2 1942   5.121   4.090   4.455
  660TIP3   OH2 1943   0.550   2.414   3.496
  660TIP3    H1 1944   0.645   2.414   3.503
  660TIP3    H2 1945   0.532   2.469   3.419
  661TIP3   OH2 1946   6.264   2.328   2.531
  661TIP3    H1 1947   6.351   2.299   2.557
  661TIP3    H2 1948   6.278   2.374   2.449
  662TIP3   OH2 1949   6.407   3.293   0.573
  662TIP3    H1 1950   6.409   3.389   0.567
  662TIP3    H2 1951   6.427   3.275   0.665
  663TIP3   OH2 1952   1.261   1.364   2.224
  663TIP3    H1 1953   1.321   1.408   2.283
  663TIP3    H2 1954   1.174   1.392   2.252
  664TIP3   OH2 1955   6.141   1.195   4.750
  664TIP3    H1 1956   6.086   1.272   4.734
  664TIP3    H2 1957   6.079   1.123   4.758
  665TIP3   OH2 1958   5.992   4.739   0.303
  665TIP3    H1 1959   5.979   4.701   0.390
  665TIP3    H2 1960   6.039   4.821   0.320
  666TIP3   OH2 1961   1.060   6.400   2.629
  666TIP3    H1 1962   1.136   6.371   2.679
  666TIP3    H2 1963   1.052   6.493   2.648
  667TIP3   OH2 1964   0.818   5.597   4.138
  667TIP3    H1 1965   0.909   5.582   4.114
  667TIP3    H2 1966   0.795   5.523   4.193
  668TIP3   OH2 1967   1.808   6.168   1.671
  668TIP3    H1 1968   1.900   6.152   1.690
  668TIP3    H2 1969   1.808   6.227   1.595
  669TIP3   OH2 1970   2.069   4.100   1.789
  669TIP3    H1 1971   2.093   4.173   1.847
  669TIP3    H2 1972   2.048   4.142   1.706
  670TIP3   OH2 1973   0.954   5.679   2.772
  670TIP3    H1 1974   0.962   5.772   2.754
  670TIP3    H2 1975   0.966   5.671   2.866
  671TIP3   OH2 1976   2.963   4.395   2.426
  671TIP3    H1 1977   2.940   4.477   2.381
  671TIP3    H2 1978   2.890   4.336   2.406
  672TIP3   OH2 1979   4.822   4.933   1.181
  672TIP3    H1 1980   4.852   4.846   1.155
  672TIP3    H2 1981   4.739   4.917   1.227
  673TIP3   OH2 1982   3.946   3.008   5.326
  673TIP3    H1 1983   3.981   2.924   5.296
  673TIP3    H2 1984   3.858   3.012   5.290
  674TIP3   OH2 1985   5.607   5.718   5.537
  674TIP3    H1 1986   5.594   5.813   5.549
  674TIP3    H2 1987   5.702   5.708   5.531
  675TIP3   OH2 1988   7.257   4.865   0.078
  675TIP3    H1 1989   7.254   4.785   0.026
  675TIP3    H2 1990   7.242   4.935   0.014
  676TIP3   OH2 1991   3.253   5.067   2.251
  676TIP3    H1 1992   3.252   4.972   2.263
  676TIP3    H2 1993   3.186   5.084   2.185
  677TIP3   OH2 1994   3.786   5.603   5.189
  677TIP3    H1 1995   3.779   5.573   5.098
  677TIP3    H2 1996   3.740   5.537   5.240
  678TIP3   OH2 1997   4.086   2.037   3.512
  678TIP3    H1 1998   4.005   2.082   3.491
  678TIP3    H2 1999   4.153   2.081   3.459
  679TIP3   OH2 2000   5.662   1.996   0.364
  679TIP3    H1 2001   5.614   1.991   0.281
  679TIP3    H2 2002   5.695   1.907   0.377
  680TIP3   OH2 2003   1.535   6.512   0.971
  680TIP3    H1 2004   1.505   6.458   0.898
  680TIP3    H2 2005   1.454   6.541   1.014
  681TIP3   OH2 2006   7.091   3.146   1.763
  681TIP3    H1 2007   7.032   3.209   1.804
  681TIP3    H2 2008   7.090   3.170   1.670
  682TIP3   OH2 2009   4.213   2.279   4.176
  682TIP3    H1 2010   4.302   2.249   4.192
  682TIP3    H2 2011   4.161   2.199   4.172
  683TIP3   OH2 2012   3.305   2.421   5.515
  683TIP3    H1 2013   3.270   2.337   5.486
  683TIP3    H2 2014   3.244   2.486   5.480
  684TIP3   OH2 2015   3.134   0.861   4.560
  684TIP3    H1 2016   3.161   0.832   4.473
  684TIP3    H2 2017   3.175   0.799   4.621
  685TIP3   OH2 2018   0.560   0.820   4.899
  685TIP3    H1 2019   0.538   0.733   4.931
  685TIP3    H2 2020   0.568   0.811   4.805
  686TIP3   OH2 2021   2.219   3.916   1.927
  686TIP3    H1 2022   2.228   4.004   1.890
  686TIP3    H2 2023   2.183   3.930   2.014
  687TIP3   OH2 2024   2.377   3.646   2.197
  687TIP3    H1 2025   2.417   3.671   2.113
  687TIP3    H2 2026   2.381   3.727   2.249
  688TIP3   OH2 2027   1.384   5.488   3.398
  688TIP3    H1 2028   1.337   5.405   3.393
  688TIP3    H2 2029   1.449   5.483   3.328
  689TIP3   OH2 2030   5.892   6.062   5.809
  689TIP3    H1 2031   5.877   6.039   5.901
  689TIP3    H2 2032   5.984   6.043   5.794
  690TIP3   OH2 2033   3.652   1.238   2.936
  690TIP3    H1 2034   3.694   1.234   3.022
  690TIP3    H2 2035   3.568   1.282   2.952
  691TIP3   OH2 2036   3.940   3.973   0.670
  691TIP3    H1 2037   3.959   3.930   0.753
  691TIP3    H2 2038   3.868   4.034   0.690
  692TIP3   OH2 2039   3.025   0.300   2.254
  692TIP3    H1 2040   2.952   0.355   2.227
  692TIP3    H2 2041   3.049   0.333   2.341
  693TIP3   OH2 2042   3.337   2.369   1.891
  693TIP3    H1 2043   3.265   2.421   1.926
  693TIP3    H2 2044   3.393   2.432   1.847
  694TIP3   OH2 2045   2.117   2.582   5.226
  694TIP3    H1 2046   2.182   2.652   5.226
  694TIP3    H2 2047   2.102   2.563   5.318
  695TIP3   OH2 2048   3.917   4.954   3.870
  695TIP3    H1 2049   3.836   4.952   3.921
  695TIP3    H2 2050   3.931   4.864   3.843
  696TIP3   OH2 2051   6.131   4.970   0.937
  696TIP3    H1 2052   6.213   5.016   0.918
  696TIP3    H2 2053   6.142   4.941   1.028
  697TIP3   OH2 2054   5.568   4.250   4.467
  697TIP3    H1 2055   5.474   4.254   4.453
  697TIP3    H2 2056   5.604   4.221   4.383
  698TIP3   OH2 2057   5.607   0.565   3.351
  698TIP3    H1 2058   5.540   0.607   3.297
  698TIP3    H2 2059   5.644   0.497   3.295
  699TIP3   OH2 2060   1.689   4.048   1.412
  699TIP3    H1 2061   1.645   4.031   1.329
  699TIP3    H2 2062   1.621   4.085   1.468
  700TIP3   OH2 2063   4.203   5.428   1.903
  700TIP3    H1 2064   4.174   5.399   1.817
  700TIP3    H2 2065   4.287   5.471   1.887
  701TIP3   OH2 2066   4.941   6.605   2.253
  701TIP3    H1 2067   4.869   6.553   2.290
  701TIP3    H2 2068   5.011   6.597   2.317
  702TIP3   OH2 2069   6.828   2.789   5.091
  702TIP3    H1 2070   6.906   2.821   5.135
  702TIP3    H2 2071   6.861   2.739   5.016
  703TIP3   OH2 2072   4.008   2.123   3.124
  703TIP3    H1 2073   3.977   2.157   3.040
  703TIP3    H2 2074   3.935   2.073   3.159
  704TIP3   OH2 2075   6.747   0.897   4.783
  704TIP3    H1 2076   6.758   0.907   4.688
  704TIP3    H2 2077   6.707   0.810   4.793
  705TIP3   OH2 2078   3.422   0.337   3.345
  705TIP3    H1 2079   3.438   0.379   3.429
  705TIP3    H2 2080   3.404   0.409   3.285
  706TIP3   OH2 2081   2.536   3.802   2.950
  706TIP3    H1 2082   2.471   3.788   3.019
  706TIP3    H2 2083   2.549   3.716   2.911
  707TIP3   OH2 2084   6.982   0.270   1.984
  707TIP3    H1 2085   6.990   0.347   1.928
  707TIP3    H2 2086   7.022   0.296   2.067
  708TIP3   OH2 2087   6.998   2.488   4.506
  708TIP3    H1 2088   7.018   2.424   4.575
  708TIP3    H2 2089   7.050   2.460   4.431
  709TIP3   OH2 2090   4.433   6.516   3.512
  709TIP3    H1 2091   4.348   6.475   3.530
  709TIP3    H2 2092   4.426   6.603   3.552
  710TIP3   OH2 2093   1.012   6.333   4.543
  710TIP3    H1 2094   0.940   6.293   4.495
  710TIP3    H2 2095   1.030   6.414   4.495
  711TIP3   OH2 2096   2.418   5.482   1.035
  711TIP3    H1 2097   2.343   5.448   0.986
  711TIP3    H2 2098   2.426   5.572   1.006
  712TIP3   OH2 2099   7.033   2.679   0.676
  712TIP3    H1 2100   7.023   2.745   0.745
  712TIP3    H2 2101   7.128   2.666   0.668
  713TIP3   OH2 2102   3.084   0.952   1.015
  713TIP3    H1 2103   3.167   0.977   0.974
  713TIP3    H2 2104   3.093   0.858   1.033
  714TIP3   OH2 2105   0.935   5.535   1.947
  714TIP3    H1 2106   1.021   5.509   1.912
  714TIP3    H2 2107   0.872   5.489   1.892
  715TIP3   OH2 2108   5.805   1.921   2.607
  715TIP3    H1 2109   5.767   1.840   2.641
  715TIP3    H2 2110   5.893   1.896   2.578
  716TIP3   OH2 2111   0.147   1.568   3.919
  716TIP3    H1 2112   0.190   1.493   3.877
  716TIP3    H2 2113   0.061   1.572   3.878
  717TIP3   OH2 2114   0.909   6.743   2.009
  717TIP3    H1 2115   0.837   6.690   1.976
  717TIP3    H2 2116   0.867   6.809   2.065
  718TIP3   OH2 2117   4.328   2.970   2.401
  718TIP3    H1 2118   4.347   2.986   2.308
  718TIP3    H2 2119   4.410   2.936   2.436
  719TIP3   OH2 2120   4.672   4.139   1.674
  719TIP3    H1 2121   4.681   4.044   1.673
  719TIP3    H2 2122   4.578   4.155   1.663
  720TIP3   OH2 2123   0.904   0.006   1.335
  720TIP3    H1 2124   0.974  -0.051   1.303
  720TIP3    H2 2125   0.899   0.077   1.271
  721TIP3   OH2 2126   4.831   4.063   5.180
  721TIP3    H1 2127   4.833   3.969   5.161
  721TIP3    H2 2128   4.873   4.071   5.265
  722TIP3   OH2 2129   0.255   5.218   2.255
  722TIP3    H1 2130   0.288   5.128   2.265
  722TIP3    H2 2131   0.262   5.236   2.161
  723TIP3   OH2 2132   2.807   2.641   0.266
  723TIP3    H1 2133   2.901   2.659   0.258
  723TIP3    H2 2134   2.766   2.709   0.213
  724TIP3   OH2 2135   7.048   4.877   1.128
  724TIP3    H1 2136   7.130   4.916   1.099
  724TIP3    H2 2137   6.986   4.950   1.130
  725TIP3   OH2 2138   3.163   2.816   1.606
  725TIP3    H1 2139   3.178   2.756   1.533
  725TIP3    H2 2140   3.078   2.856   1.587
  726TIP3   OH2 2141   5.287   3.535   4.135
  726TIP3    H1 2142   5.352   3.549   4.067
  726TIP3    H2 2143   5.327   3.473   4.195
  727TIP3   OH2 2144   4.753   0.625   5.216
  727TIP3    H1 2145   4.696   0.610   5.141
  727TIP3    H2 2146   4.716   0.702   5.260
  728TIP3   OH2 2147   0.437   0.859   5.267
  728TIP3    H1 2148   0.348   0.824   5.278
  728TIP3    H2 2149   0.490   0.807   5.327
  729TIP3   OH2 2150   5.370   6.066   4.907
  729TIP3    H1 2151   5.401   6.085   4.819
  729TIP3    H2 2152   5.317   5.986   4.898
  730TIP3   OH2 2153   5.871   5.991   1.601
  730TIP3    H1 2154   5.822   6.046   1.662
  730TIP3    H2 2155   5.925   5.936   1.656
  731TIP3   OH2 2156   4.348   0.695   3.375
  731TIP3    H1 2157   4.324   0.607   3.403
  731TIP3    H2 2158   4.266   0.744   3.377
  732TIP3   OH2 2159   2.228   1.375   2.410
  732TIP3    H1 2160   2.136   1.351   2.421
  732TIP3    H2 2161   2.273   1.328   2.480
  733TIP3   OH2 2162   0.295   5.929   2.875
  733TIP3    H1 2163   0.380   5.969   2.860
  733TIP3    H2 2164   0.297   5.847   2.825
  734TIP3   OH2 2165   3.593   4.548   1.581
  734TIP3    H1 2166   3.677   4.521   1.545
  734TIP3    H2 2167   3.567   4.623   1.527
  735TIP3   OH2 2168   2.635   1.922   1.882
  735TIP3    H1 2169   2.588   1.839   1.890
  735TIP3    H2 2170   2.568   1.985   1.856
  736TIP3   OH2 2171   1.343   5.950   0.474
  736TIP3    H1 2172   1.248   5.936   0.471
  736TIP3    H2 2173   1.379   5.863   0.488
  737TIP3   OH2 2174   3.494   6.043   3.193
  737TIP3    H1 2175   3.550   6.054   3.269
  737TIP3    H2 2176   3.523   5.961   3.153
  738TIP3   OH2 2177   2.483   2.868   2.134
  738TIP3    H1 2178   2.444   2.795   2.085
  738TIP3    H2 2179   2.423   2.941   2.121
  739TIP3   OH2 2180   3.104   4.103   3.672
  739TIP3    H1 2181   3.075   4.184   3.629
  739TIP3    H2 2182   3.114   4.128   3.764
  740TIP3   OH2 2183   3.363   4.668   5.362
  740TIP3    H1 2184   3.345   4.581   5.397
  740TIP3    H2 2185   3.325   4.728   5.426
  741TIP3   OH2 2186   5.501   3.326   4.582
  741TIP3    H1 2187   5.477   3.413   4.614
  741TIP3    H2 2188   5.435   3.268   4.618
  742TIP3   OH2 2189   1.594   5.514   5.557
  742TIP3    H1 2190   1.506   5.508   5.519
  742TIP3    H2 2191   1.608   5.430   5.601
  743TIP3   OH2 2192   1.660   0.209   1.576
  743TIP3    H1 2193   1.731   0.247   1.525
  743TIP3    H2 2194   1.580   0.232   1.528
  744TIP3   OH2 2195   6.389   3.990   3.673
  744TIP3    H1 2196   6.368   3.903   3.640
  744TIP3    H2 2197   6.317   4.045   3.643
  745TIP3   OH2 2198   7.012   3.366   3.399
  745TIP3    H1 2199   7.015   3.456   3.367
  745TIP3    H2 2200   7.078   3.363   3.468
  746TIP3   OH2 2201   2.885   3.517   4.232
  746TIP3    H1 2202   2.882   3.551   4.143
  746TIP3    H2 2203   2.979   3.509   4.252
  747TIP3   OH2 2204   2.737   2.024   4.240
  747TIP3    H1 2205   2.719   2.027   4.146
  747TIP3    H2 2206   2.686   2.095   4.277
  748TIP3   OH2 2207   5.961   5.744   1.718
  748TIP3    H1 2208   6.048   5.766   1.754
  748TIP3    H2 2209   5.980   5.702   1.634
  749TIP3   OH2 2210   1.193   2.735   0.673
  749TIP3    H1 2211   1.193   2.710   0.580
  749TIP3    H2 2212   1.273   2.697   0.708
  750TIP3   OH2 2213   5.181   6.288   4.646
  750TIP3    H1 2214   5.273   6.312   4.631
  750TIP3    H2 2215   5.166   6.213   4.589
  751TIP3   OH2 2216   5.112   6.548   2.492
  751TIP3    H1 2217   5.185   6.571   2.549
  751TIP3    H2 2218   5.092   6.457   2.514
  752TIP3   OH2 2219   5.334   0.921   4.748
  752TIP3    H1 2220   5.315   0.829   4.763
  752TIP3    H2 2221   5.429   0.928   4.756
  753TIP3   OH2 2222   6.197   4.933   0.326
  753TIP3    H1 2223   6.278   4.973   0.294
  753TIP3    H2 2224   6.224   4.881   0.401
  754TIP3   OH2 2225   2.511   4.721   5.398
  754TIP3    H1 2226   2.474   4.633   5.393
  754TIP3    H2 2227   2.593   4.710   5.446
  755TIP3   OH2 2228   1.237   3.627   2.989
  755TIP3    H1 2229   1.318   3.575   2.992
  755TIP3    H2 2230   1.262   3.708   2.946
  756TIP3   OH2 2231   1.939   4.788   3.930
  756TIP3    H1 2232   1.950   4.827   3.843
  756TIP3    H2 2233   1.985   4.848   3.989
  757TIP3   OH2 2234   4.798   5.876   4.313
  757TIP3    H1 2235   4.878   5.846   4.355
  757TIP3    H2 2236   4.754   5.928   4.381
  758TIP3   OH2 2237   5.219   1.600   1.145
  758TIP3    H1 2238   5.195   1.615   1.236
  758TIP3    H2 2239   5.254   1.511   1.144
  759TIP3   OH2 2240   6.579   1.643   4.791
  759TIP3    H1 2241   6.575   1.599   4.706
  759TIP3    H2 2242   6.494   1.626   4.831
  760TIP3   OH2 2243   4.252   0.686   5.649
  760TIP3    H1 2244   4.200   0.763   5.672
  760TIP3    H2 2245   4.190   0.626   5.608
  761TIP3   OH2 2246   3.220   3.546   1.526
  761TIP3    H1 2247   3.195   3.637   1.541
  761TIP3    H2 2248   3.252   3.516   1.611
  762TIP3   OH2 2249   1.379   5.450   4.977
  762TIP3    H1 2250   1.462   5.486   5.007
  762TIP3    H2 2251   1.391   5.437   4.883
  763TIP3   OH2 2252   2.781   3.985   3.813
  763TIP3    H1 2253   2.796   3.973   3.720
  763TIP3    H2 2254   2.808   3.903   3.853
  764TIP3   OH2 2255   2.232   0.249   2.056
  764TIP3    H1 2256   2.141   0.262   2.027
  764TIP3    H2 2257   2.251   0.327   2.109
  765TIP3   OH2 2258   4.925   0.739   1.988
  765TIP3    H1 2259   4.872   0.811   1.954
  765TIP3    H2 2260   4.987   0.720   1.918
  766TIP3   OH2 2261   1.833   4.208   2.460
  766TIP3    H1 2262   1.801   4.169   2.542
  766TIP3    H2 2263   1.789   4.157   2.392
  767TIP3   OH2 2264   0.594   1.211   1.997
  767TIP3    H1 2265   0.560   1.184   1.912
  767TIP3    H2 2266   0.679   1.251   1.978
  768TIP3   OH2 2267   0.074   1.569   1.168
  768TIP3    H1 2268   0.051   1.657   1.137
  768TIP3    H2 2269   0.169   1.565   1.162
  769TIP3   OH2 2270   7.071   5.913   5.761
  769TIP3    H1 2271   7.001   5.947   5.816
  769TIP3    H2 2272   7.105   5.990   5.714
  770TIP3   OH2 2273   7.006  -0.002   4.989
  770TIP3    H1 2274   7.039  -0.065   4.925
  770TIP3    H2 2275   6.951   0.057   4.938
  771TIP3   OH2 2276   1.850   0.029   4.643
  771TIP3    H1 2277   1.921   0.094   4.646
  771TIP3    H2 2278   1.793   0.052   4.716
  772TIP3   OH2 2279   5.672   1.669   2.704
  772TIP3    H1 2280   5.687   1.586   2.750
  772TIP3    H2 2281   5.599   1.710   2.752
  773TIP3   OH2 2282   4.336   4.014   4.053
  773TIP3    H1 2283   4.359   4.106   4.060
  773TIP3    H2 2284   4.240   4.012   4.062
  774TIP3   OH2 2285   4.580   1.004   3.510
  774TIP3    H1 2286   4.538   1.084   3.478
  774TIP3    H2 2287   4.509   0.953   3.549
  775TIP3   OH2 2288   4.300   1.160   5.633
  775TIP3    H1 2289   4.357   1.098   5.586
  775TIP3    H2 2290   4.263   1.215   5.564
  776TIP3   OH2 2291   4.314   0.699   0.106
  776TIP3    H1 2292   4.312   0.793   0.090
  776TIP3    H2 2293   4.232   0.667   0.069
  777TIP3   OH2 2294   6.665   0.653   3.004
  777TIP3    H1 2295   6.626   0.600   3.073
  777TIP3    H2 2296   6.756   0.624   3.001
  778TIP3   OH2 2297   1.367   4.838   4.855
  778TIP3    H1 2298   1.451   4.876   4.881
  778TIP3    H2 2299   1.387   4.786   4.777
  779TIP3   OH2 2300   6.088   2.048   2.030
  779TIP3    H1 2301   6.121   1.980   1.972
  779TIP3    H2 2302   6.117   2.130   1.990
  780TIP3   OH2 2303   6.955   4.346   0.651
  780TIP3    H1 2304   6.886   4.385   0.705
  780TIP3    H2 2305   6.908   4.311   0.575
  781TIP3   OH2 2306   2.944   5.196   3.306
  781TIP3    H1 2307   3.038   5.200   3.325
  781TIP3    H2 2308   2.918   5.108   3.332
  782TIP3   OH2 2309   6.070   5.067   2.659
  782TIP3    H1 2310   6.161   5.071   2.630
  782TIP3    H2 2311   6.024   5.024   2.587
  783TIP3   OH2 2312   4.560   6.161   5.283
  783TIP3    H1 2313   4.477   6.201   5.311
  783TIP3    H2 2314   4.627   6.210   5.331
  784TIP3   OH2 2315   2.222   3.746   3.397
  784TIP3    H1 2316   2.194   3.824   3.445
  784TIP3    H2 2317   2.243   3.682   3.464
  785TIP3   OH2 2318   0.243   2.635   1.710
  785TIP3    H1 2319   0.272   2.610   1.797
  785TIP3    H2 2320   0.172   2.574   1.690
  786TIP3   OH2 2321   2.958   2.761   3.396
  786TIP3    H1 2322   2.983   2.840   3.347
  786TIP3    H2 2323   2.882   2.788   3.447
  787TIP3   OH2 2324   4.958   2.295   4.517
  787TIP3    H1 2325   5.004   2.357   4.574
  787TIP3    H2 2326   5.019   2.222   4.508
  788TIP3   OH2 2327   5.793   4.224   0.209
  788TIP3    H1 2328   5.736   4.270   0.147
  788TIP3    H2 2329   5.882   4.249   0.183
  789TIP3   OH2 2330   6.179   4.888   3.737
  789TIP3    H1 2331   6.176   4.821   3.668
  789TIP3    H2 2332   6.228   4.847   3.808
  790TIP3   OH2 2333   3.759   4.876   0.156
  790TIP3    H1 2334   3.731   4.829   0.078
  790TIP3    H2 2335   3.772   4.808   0.222
  791TIP3   OH2 2336   6.257   0.822   1.541
  791TIP3    H1 2337   6.208   0.759   1.487
  791TIP3    H2 2338   6.344   0.784   1.549
  792TIP3   OH2 2339   5.952   1.671   4.355
  792TIP3    H1 2340   5.967   1.583   4.321
  792TIP3    H2 2341   5.864   1.668   4.392
  793TIP3   OH2 2342   4.710   2.721   1.827
  793TIP3    H1 2343   4.705   2.639   1.876
  793TIP3    H2 2344   4.682   2.788   1.889
  794TIP3   OH2 2345   3.484   2.695   5.032
  794TIP3    H1 2346   3.579   2.684   5.040
  794TIP3    H2 2347   3.450   2.675   5.119
  795TIP3   OH2 2348   6.142   2.185   0.876
  795TIP3    H1 2349   6.190   2.177   0.958
  795TIP3    H2 2350   6.079   2.113   0.877
  796TIP3   OH2 2351   0.967   4.812   0.939
  796TIP3    H1 2352   0.949   4.722   0.966
  796TIP3    H2 2353   1.012   4.850   1.015
  797TIP3   OH2 2354   5.485   1.569   1.379
  797TIP3    H1 2355   5.571   1.562   1.338
  797TIP3    H2 2356   5.440   1.488   1.355
  798TIP3   OH2 2357   0.838   2.678   5.513
  798TIP3    H1 2358   0.897   2.680   5.588
  798TIP3    H2 2359   0.752   2.703   5.549
  799TIP3   OH2 2360   4.201   3.070   0.445
  799TIP3    H1 2361   4.190   3.087   0.351
  799TIP3    H2 2362   4.255   2.991   0.449
  800TIP3   OH2 2363   3.083   4.680   2.457
  800TIP3    H1 2364   3.075   4.605   2.516
  800TIP3    H2 2365   3.004   4.731   2.473
  801TIP3   OH2 2366   5.658   2.171   0.572
  801TIP3    H1 2367   5.662   2.246   0.512
  801TIP3    H2 2368   5.637   2.096   0.517
  802TIP3   OH2 2369   6.835   1.210   2.707
  802TIP3    H1 2370   6.798   1.179   2.625
  802TIP3    H2 2371   6.822   1.138   2.769
  803TIP3   OH2 2372   5.983   6.702   4.288
  803TIP3    H1 2373   5.896   6.686   4.323
  803TIP3    H2 2374   5.997   6.795   4.300
  804TIP3   OH2 2375   1.892   6.120   5.278
  804TIP3    H1 2376   1.937   6.047   5.235
  804TIP3    H2 2377   1.959   6.187   5.288
  805TIP3   OH2 2378   3.337   6.259   3.240
  805TIP3    H1 2379   3.248   6.244   3.209
  805TIP3    H2 2380   3.386   6.182   3.211
  806TIP3   OH2 2381   4.527   4.471   2.460
  806TIP3    H1 2382   4.506   4.563   2.476
  806TIP3    H2 2383   4.459   4.422   2.507
  807TIP3   OH2 2384   5.511   3.032   2.187
  807TIP3    H1 2385   5.471   3.103   2.238
  807TIP3    H2 2386   5.456   3.026   2.108
  808TIP3   OH2 2387   2.670   1.124   3.737
  808TIP3    H1 2388   2.754   1.169   3.751
  808TIP3    H2 2389   2.688   1.032   3.753
  809TIP3   OH2 2390   0.997   0.049   0.986
  809TIP3    H1 2391   1.077   0.063   1.036
  809TIP3    H2 2392   1.001   0.113   0.915
  810TIP3   OH2 2393   3.258   3.163   0.566
  810TIP3    H1 2394   3.320   3.236   0.570
  810TIP3    H2 2395   3.210   3.168   0.649
  811TIP3   OH2 2396   0.775   0.395   0.683
  811TIP3    H1 2397   0.757   0.342   0.606
  811TIP3    H2 2398   0.770   0.334   0.756
  812TIP3   OH2 2399   6.071   2.772  -0.023
  812TIP3    H1 2400   6.001   2.819   0.023
  812TIP3    H2 2401   6.151   2.816   0.004
  813TIP3   OH2 2402   2.616   6.527   5.324
  813TIP3    H1 2403   2.689   6.485   5.369
  813TIP3    H2 2404   2.647   6.538   5.234
  814TIP3   OH2 2405   0.137   0.813   2.284
  814TIP3    H1 2406   0.085   0.799   2.363
  814TIP3    H2 2407   0.106   0.745   2.223
  815TIP3   OH2 2408   2.679   1.367   0.646
  815TIP3    H1 2409   2.672   1.276   0.676
  815TIP3    H2 2410   2.732   1.362   0.567
  816TIP3   OH2 2411   7.001   2.564   3.228
  816TIP3    H1 2412   6.984   2.546   3.320
  816TIP3    H2 2413   6.918   2.545   3.184
  817TIP3   OH2 2414   5.159   1.506   4.559
  817TIP3    H1 2415   5.088   1.509   4.624
  817TIP3    H2 2416   5.161   1.595   4.523
  818TIP3   OH2 2417   3.420   2.482   4.754
  818TIP3    H1 2418   3.335   2.493   4.796
  818TIP3    H2 2419   3.471   2.429   4.815
  819TIP3   OH2 2420   2.665   0.297   0.121
  819TIP3    H1 2421   2.741   0.267   0.170
  819TIP3    H2 2422   2.627   0.218   0.084
  820TIP3   OH2 2423   3.245   6.175   2.443
  820TIP3    H1 2424   3.261   6.203   2.533
  820TIP3    H2 2425   3.169   6.118   2.448
  821TIP3   OH2 2426   6.648   3.373   1.702
  821TIP3    H1 2427   6.570   3.422   1.729
  821TIP3    H2 2428   6.645   3.294   1.755
  822TIP3   OH2 2429   1.245   3.014   1.169
  822TIP3    H1 2430   1.189   3.019   1.247
  822TIP3    H2 2431   1.334   3.020   1.204
  823TIP3   OH2 2432   1.854   4.589   5.274
  823TIP3    H1 2433   1.908   4.663   5.302
  823TIP3    H2 2434   1.909   4.512   5.288
  824TIP3   OH2 2435   6.910   5.500   2.488
  824TIP3    H1 2436   6.984   5.440   2.497
  824TIP3    H2 2437   6.906   5.520   2.395
  825TIP3   OH2 2438   3.084   1.274   3.586
  825TIP3    H1 2439   3.153   1.209   3.586
  825TIP3    H2 2440   3.032   1.254   3.664
  826TIP3   OH2 2441   2.496   0.652   3.180
  826TIP3    H1 2442   2.517   0.625   3.269
  826TIP3    H2 2443   2.506   0.747   3.180
  827TIP3   OH2 2444   3.801   3.274   0.356
  827TIP3    H1 2445   3.779   3.190   0.397
  827TIP3    H2 2446   3.840   3.250   0.272
  828TIP3   OH2 2447   6.540   2.502   1.774
  828TIP3    H1 2448   6.514   2.449   1.699
  828TIP3    H2 2449   6.562   2.438   1.843
  829TIP3   OH2 2450   2.709   0.802   4.428
  829TIP3    H1 2451   2.672   0.827   4.343
  829TIP3    H2 2452   2.779   0.741   4.406
  830TIP3   OH2 2453   2.534   2.465   0.849
  830TIP3    H1 2454   2.612   2.429   0.809
  830TIP3    H2 2455   2.516   2.546   0.800
  831TIP3   OH2 2456   0.372   0.691   5.722
  831TIP3    H1 2457   0.396   0.626   5.656
  831TIP3    H2 2458   0.277   0.686   5.729
  832TIP3   OH2 2459   6.096   2.148   5.118
  832TIP3    H1 2460   6.068   2.238   5.129
  832TIP3    H2 2461   6.168   2.137   5.180
  833TIP3   OH2 2462   6.886   6.546   5.703
  833TIP3    H1 2463   6.964   6.600   5.688
  833TIP3    H2 2464   6.818   6.609   5.725
  834TIP3   OH2 2465   1.518   1.450   2.092
  834TIP3    H1 2466   1.428   1.450   2.125
  834TIP3    H2 2467   1.571   1.428   2.169
  835TIP3   OH2 2468   1.547   1.101   5.120
  835TIP3    H1 2469   1.510   1.164   5.058
  835TIP3    H2 2470   1.478   1.036   5.132
  836TIP3   OH2 2471   3.201   0.381   3.070
  836TIP3    H1 2472   3.258   0.306   3.049
  836TIP3    H2 2473   3.112   0.347   3.058
  837TIP3   OH2 2474   5.851   4.661   2.093
  837TIP3    H1 2475   5.883   4.737   2.141
  837TIP3    H2 2476   5.782   4.624   2.149
  838TIP3   OH2 2477   0.769   5.112   1.276
  838TIP3    H1 2478   0.723   5.040   1.232
  838TIP3    H2 2479   0.758   5.094   1.370
  839TIP3   OH2 2480   2.756   6.571   2.735
  839TIP3    H1 2481   2.776   6.489   2.690
  839TIP3    H2 2482   2.765   6.551   2.828
  840TIP3   OH2 2483   4.787   3.361   3.882
  840TIP3    H1 2484   4.869   3.403   3.907
  840TIP3    H2 2485   4.805   3.267   3.886
  841TIP3   OH2 2486   5.480   1.435   5.622
  841TIP3    H1 2487   5.456   1.523   5.594
  841TIP3    H2 2488   5.396   1.391   5.638
  842TIP3   OH2 2489   0.546   6.726   0.917
  842TIP3    H1 2490   0.553   6.776   0.835
  842TIP3    H2 2491   0.630   6.739   0.960
  843TIP3   OH2 2492   6.697   6.422   0.736
  843TIP3    H1 2493   6.756   6.497   0.724
  843TIP3    H2 2494   6.610   6.457   0.719
  844TIP3   OH2 2495   4.558   1.438   2.703
  844TIP3    H1 2496   4.597   1.426   2.790
  844TIP3    H2 2497   4.493   1.368   2.696
  845TIP3   OH2 2498   2.887   1.460   2.277
  845TIP3    H1 2499   2.821   1.528   2.261
  845TIP3    H2 2500   2.847   1.380   2.244
  846TIP3   OH2 2501   7.060   5.544   1.460
  846TIP3    H1 2502   6.969   5.536   1.488
  846TIP3    H2 2503   7.099   5.459   1.477
  847TIP3   OH2 2504   3.410   4.211   5.513
  847TIP3    H1 2505   3.428   4.174   5.599
  847TIP3    H2 2506   3.494   4.247   5.484
  848TIP3   OH2 2507   5.305   5.671   3.790
  848TIP3    H1 2508   5.380   5.612   3.787
  848TIP3    H2 2509   5.314   5.717   3.874
  849TIP3   OH2 2510   1.803   1.909   4.937
  849TIP3    H1 2511   1.758   1.925   5.020
  849TIP3    H2 2512   1.888   1.950   4.947
  850TIP3   OH2 2513   5.903   1.014   4.009
  850TIP3    H1 2514   5.964   1.087   4.003
  850TIP3    H2 2515   5.822   1.047   3.969
  851TIP3   OH2 2516   1.168   5.883   0.803
  851TIP3    H1 2517   1.215   5.804   0.777
  851TIP3    H2 2518   1.182   5.889   0.898
  852TIP3   OH2 2519   6.868   3.173   4.958
  852TIP3    H1 2520   6.856   3.142   5.048
  852TIP3    H2 2521   6.842   3.266   4.961
  853TIP3   OH2 2522   6.900   4.678   0.996
  853TIP3    H1 2523   6.921   4.755   1.049
  853TIP3    H2 2524   6.985   4.647   0.964
  854TIP3   OH2 2525   2.201   3.345   1.523
  854TIP3    H1 2526   2.174   3.415   1.582
  854TIP3    H2 2527   2.127   3.333   1.464
  855TIP3   OH2 2528   6.960   6.079   2.280
  855TIP3    H1 2529   7.045   6.117   2.301
  855TIP3    H2 2530   6.910   6.087   2.361
  856TIP3   OH2 2531   5.839   6.199   2.086
  856TIP3    H1 2532   5.772   6.148   2.041
  856TIP3    H2 2533   5.883   6.248   2.016
  857TIP3   OH2 2534   5.093   6.247   2.234
  857TIP3    H1 2535   5.005   6.219   2.207
  857TIP3    H2 2536   5.100   6.221   2.325
  858TIP3   OH2 2537   5.244   1.017   4.295
  858TIP3    H1 2538   5.300   0.993   4.221
  858TIP3    H2 2539   5.227   0.934   4.340
  859TIP3   OH2 2540   3.681   1.954   0.877
  859TIP3    H1 2541   3.636   1.891   0.933
  859TIP3    H2 2542   3.756   1.983   0.929
  860TIP3   OH2 2543   3.973   3.154   4.850
  860TIP3    H1 2544   3.960   3.088   4.783
  860TIP3    H2 2545   3.903   3.218   4.834
  861TIP3   OH2 2546   3.093   3.222   2.985
  861TIP3    H1 2547   3.109   3.308   2.946
  861TIP3    H2 2548   3.017   3.236   3.042
  862TIP3   OH2 2549   4.030   2.344   2.350
  862TIP3    H1 2550   4.040   2.263   2.301
  862TIP3    H2 2551   4.039   2.319   2.442
  863TIP3   OH2 2552   5.666   6.705   3.981
  863TIP3    H1 2553   5.667   6.752   3.898
  863TIP3    H2 2554   5.678   6.613   3.957
  864TIP3   OH2 2555   0.410   0.385   0.069
  864TIP3    H1 2556   0.492   0.426   0.099
  864TIP3    H2 2557   0.344   0.454   0.078
  865TIP3   OH2 2558   1.922   0.350   2.135
  865TIP3    H1 2559   1.855   0.416   2.151
  865TIP3    H2 2560   1.988   0.367   2.203
  866TIP3   OH2 2561   2.388   3.709   1.917
  866TIP3    H1 2562   2.448   3.747   1.852
  866TIP3    H2 2563   2.315   3.770   1.921
  867TIP3   OH2 2564   5.429   5.064   3.467
  867TIP3    H1 2565   5.471   5.145   3.438
  867TIP3    H2 2566   5.466   4.997   3.411
  868TIP3   OH2 2567   4.655   2.824   2.814
  868TIP3    H1 2568   4.574   2.788   2.849
  868TIP3    H2 2569   4.724   2.770   2.852
  869TIP3   OH2 2570   0.193   1.246   2.029
  869TIP3    H1 2571   0.153   1.308   1.968
  869TIP3    H2 2572   0.119   1.194   2.061
  870TIP3   OH2 2573   1.050   0.859   0.658
  870TIP3    H1 2574   0.978   0.826   0.712
  870TIP3    H2 2575   1.079   0.784   0.607
  871TIP3   OH2 2576   4.880   0.175   4.206
  871TIP3    H1 2577   4.842   0.191   4.120
  871TIP3    H2 2578   4.959   0.230   4.207
  872TIP3   OH2 2579   3.345   5.734   0.417
  872TIP3    H1 2580   3.331   5.827   0.396
  872TIP3    H2 2581   3.283   5.715   0.486
  873TIP3   OH2 2582   1.145   0.726   1.824
  873TIP3    H1 2583   1.145   0.797   1.760
  873TIP3    H2 2584   1.229   0.733   1.869
  874TIP3   OH2 2585   5.108   3.501   2.218
  874TIP3    H1 2586   5.151   3.491   2.304
  874TIP3    H2 2587   5.118   3.415   2.177
  875TIP3   OH2 2588   6.285   2.737   4.837
  875TIP3    H1 2589   6.315   2.646   4.838
  875TIP3    H2 2590   6.317   2.771   4.753
  876TIP3   OH2 2591   0.366   1.928   2.433
  876TIP3    H1 2592   0.374   1.888   2.346
  876TIP3    H2 2593   0.275   1.959   2.437
  877TIP3   OH2 2594   1.715   2.752   1.896
  877TIP3    H1 2595   1.719   2.781   1.987
  877TIP3    H2 2596   1.774   2.677   1.891
  878TIP3   OH2 2597   2.525   0.560   3.914
  878TIP3    H1 2598   2.505   0.497   3.983
  878TIP3    H2 2599   2.456   0.626   3.920
  879TIP3   OH2 2600   4.404   2.882   1.619
  879TIP3    H1 2601   4.379   2.969   1.587
  879TIP3    H2 2602   4.464   2.848   1.553
  880TIP3   OH2 2603   3.422   1.140   5.016
  880TIP3    H1 2604   3.339   1.136   5.064
  880TIP3    H2 2605   3.424   1.227   4.978
  881TIP3   OH2 2606   5.211   1.969   4.170
  881TIP3    H1 2607   5.237   2.060   4.157
  881TIP3    H2 2608   5.187   1.938   4.083
  882TIP3   OH2 2609   4.415   4.722   1.764
  882TIP3    H1 2610   4.457   4.644   1.729
  882TIP3    H2 2611   4.340   4.689   1.814
  883TIP3   OH2 2612   6.810   3.111   5.229
  883TIP3    H1 2613   6.795   3.200   5.261
  883TIP3    H2 2614   6.771   3.054   5.295
  884TIP3   OH2 2615   3.575   0.781   5.571
  884TIP3    H1 2616   3.543   0.864   5.535
  884TIP3    H2 2617   3.497   0.739   5.606
  885TIP3   OH2 2618   6.284   0.283   5.286
  885TIP3    H1 2619   6.362   0.322   5.326
  885TIP3    H2 2620   6.255   0.217   5.348
  886TIP3   OH2 2621   1.984   5.791   1.612
  886TIP3    H1 2622   2.050   5.811   1.678
  886TIP3    H2 2623   1.970   5.873   1.564
  887TIP3   OH2 2624   5.552   2.239   2.080
  887TIP3    H1 2625   5.514   2.325   2.096
  887TIP3    H2 2626   5.488   2.177   2.117
  888TIP3   OH2 2627   1.021   4.320   2.269
  888TIP3    H1 2628   1.032   4.415   2.274
  888TIP3    H2 2629   0.928   4.305   2.285
  889TIP3   OH2 2630   6.270   5.676   4.680
  889TIP3    H1 2631   6.350   5.624   4.671
  889TIP3    H2 2632   6.300   5.762   4.709
  890TIP3   OH2 2633   0.797   6.266   0.419
  890TIP3    H1 2634   0.868   6.302   0.472
  890TIP3    H2 2635   0.777   6.335   0.355
  891TIP3   OH2 2636   5.194   6.420   5.507
  891TIP3    H1 2637   5.203   6.483   5.579
  891TIP3    H2 2638   5.270   6.437   5.452
  892TIP3   OH2 2639   6.278   3.699   1.123
  892TIP3    H1 2640   6.264   3.789   1.092
  892TIP3    H2 2641   6.355   3.669   1.074
  893TIP3   OH2 2642   5.417   1.535   4.305
  893TIP3    H1 2643   5.334   1.571   4.273
  893TIP3    H2 2644   5.464   1.511   4.225
  894TIP3   OH2 2645   0.356   3.905   3.228
  894TIP3    H1 2646   0.393   3.992   3.214
  894TIP3    H2 2647   0.401   3.872   3.305
  895TIP3   OH2 2648   1.807  -0.005   0.574
  895TIP3    H1 2649   1.746  -0.031   0.505
  895TIP3    H2 2650   1.875   0.045   0.529
  896TIP3   OH2 2651   6.574   4.234   4.839
  896TIP3    H1 2652   6.631   4.162   4.815
  896TIP3    H2 2653   6.623   4.284   4.904
  897TIP3   OH2 2654   6.969   2.682   4.176
  897TIP3    H1 2655   6.983   2.621   4.104
  897TIP3    H2 2656   7.045   2.739   4.174
  898TIP3   OH2 2657   6.902   0.390   1.150
  898TIP3    H1 2658   6.982   0.423   1.191
  898TIP3    H2 2659   6.905   0.296   1.165
  899TIP3   OH2 2660   4.113   2.820   0.120
  899TIP3    H1 2661   4.036   2.856   0.162
  899TIP3    H2 2662   4.145   2.754   0.180
  900TIP3   OH2 2663   5.942   1.883   0.794
  900TIP3    H1 2664   5.885   1.959   0.804
  900TIP3    H2 2665   5.975   1.889   0.705
  901TIP3   OH2 2666   4.109   6.153   3.514
  901TIP3    H1 2667   4.170   6.092   3.474
  901TIP3    H2 2668   4.026   6.137   3.470
  902TIP3   OH2 2669   3.994   2.543   1.103
  902TIP3    H1 2670   4.013   2.506   1.017
  902TIP3    H2 2671   4.079   2.547   1.146
  903TIP3   OH2 2672   3.932   6.295   4.226
  903TIP3    H1 2673   3.860   6.244   4.189
  903TIP3    H2 2674   4.008   6.268   4.174
  904TIP3   OH2 2675   3.742   2.264   0.840
  904TIP3    H1 2676   3.650   2.235   0.837
  904TIP3    H2 2677   3.762   2.270   0.934
  905TIP3   OH2 2678   0.709   6.376   0.151
  905TIP3    H1 2679   0.692   6.364   0.058
  905TIP3    H2 2680   0.622   6.377   0.191
  906TIP3   OH2 2681   6.552   0.462   0.132
  906TIP3    H1 2682   6.553   0.479   0.038
  906TIP3    H2 2683   6.592   0.375   0.141
  907TIP3   OH2 2684   4.561   2.892   0.287
  907TIP3    H1 2685   4.529   2.978   0.314
  907TIP3    H2 2686   4.577   2.900   0.193
  908TIP3   OH2 2687   4.623   3.665   3.393
  908TIP3    H1 2688   4.603   3.604   3.463
  908TIP3    H2 2689   4.538   3.692   3.358
  909TIP3   OH2 2690   4.923   2.709   4.982
  909TIP3    H1 2691   4.964   2.793   5.001
  909TIP3    H2 2692   4.995   2.652   4.957
  910TIP3   OH2 2693   5.148   3.400   4.523
  910TIP3    H1 2694   5.155   3.360   4.610
  910TIP3    H2 2695   5.177   3.491   4.537
  911TIP3   OH2 2696   0.833   4.886   1.581
  911TIP3    H1 2697   0.787   4.802   1.571
  911TIP3    H2 2698   0.818   4.910   1.673
  912TIP3   OH2 2699   0.410   2.084   5.840
  912TIP3    H1 2700   0.394   2.141   5.915
  912TIP3    H2 2701   0.458   2.010   5.877
  913TIP3   OH2 2702   4.884   1.774   4.163
  913TIP3    H1 2703   4.849   1.860   4.187
  913TIP3    H2 2704   4.852   1.758   4.075
  914TIP3   OH2 2705   5.307   2.275   2.328
  914TIP3    H1 2706   5.357   2.307   2.404
  914TIP3    H2 2707   5.273   2.354   2.287
  915TIP3   OH2 2708   1.080   1.330   2.643
  915TIP3    H1 2709   1.086   1.413   2.596
  915TIP3    H2 2710   1.067   1.355   2.734
  916TIP3   OH2 2711   3.540   1.200   2.685
  916TIP3    H1 2712   3.594   1.207   2.764
  916TIP3    H2 2713   3.528   1.291   2.655
  917TIP3   OH2 2714   2.304   2.112   4.755
  917TIP3    H1 2715   2.289   2.139   4.664
  917TIP3    H2 2716   2.341   2.190   4.796
  918TIP3   OH2 2717   5.414   3.099   4.921
  918TIP3    H1 2718   5.341   3.052   4.882
  918TIP3    H2 2719   5.445   3.042   4.992
  919TIP3   OH2 2720   4.383   4.113   5.089
  919TIP3    H1 2721   4.365   4.100   4.995
  919TIP3    H2 2722   4.468   4.156   5.091
  920TIP3   OH2 2723   1.287   4.239   4.808
  920TIP3    H1 2724   1.204   4.286   4.822
  920TIP3    H2 2725   1.307   4.253   4.716
  921TIP3   OH2 2726   0.041   5.562   3.872
  921TIP3    H1 2727   0.127   5.553   3.831
  921TIP3    H2 2728   0.050   5.517   3.957
  922TIP3   OH2 2729   0.868   4.134   1.722
  922TIP3    H1 2730   0.786   4.174   1.691
  922TIP3    H2 2731   0.846   4.101   1.809
  923TIP3   OH2 2732   2.339   4.078   3.465
  923TIP3    H1 2733   2.345   4.044   3.554
  923TIP3    H2 2734   2.245   4.075   3.444
  924TIP3   OH2 2735   5.507   1.353   2.066
  924TIP3    H1 2736   5.501   1.429   2.008
  924TIP3    H2 2737   5.474   1.280   2.015
  925TIP3   OH2 2738   0.889   5.090   4.269
  925TIP3    H1 2739   0.806   5.053   4.300
  925TIP3    H2 2740   0.952   5.018   4.278
  926TIP3   OH2 2741   6.616   1.363   4.948
  926TIP3    H1 2742   6.522   1.356   4.937
  926TIP3    H2 2743   6.646   1.274   4.967
  927TIP3   OH2 2744   6.687   2.057   1.547
  927TIP3    H1 2745   6.720   2.143   1.521
  927TIP3    H2 2746   6.626   2.033   1.478
  928TIP3   OH2 2747   3.588   0.658   2.446
  928TIP3    H1 2748   3.554   0.646   2.534
  928TIP3    H2 2749   3.510   0.670   2.391
  929TIP3   OH2 2750   0.884   6.561  -0.005
  929TIP3    H1 2751   0.869   6.547  -0.098
  929TIP3    H2 2752   0.835   6.491   0.038
  930TIP3   OH2 2753   5.077   3.909   4.026
  930TIP3    H1 2754   5.102   3.860   4.105
  930TIP3    H2 2755   5.156   3.958   4.003
  931TIP3   OH2 2756   1.100   6.496   3.377
  931TIP3    H1 2757   1.158   6.426   3.406
  931TIP3    H2 2758   1.091   6.553   3.453
  932TIP3   OH2 2759   4.313   1.396   3.593
  932TIP3    H1 2760   4.308   1.463   3.525
  932TIP3    H2 2761   4.295   1.443   3.675
  933TIP3   OH2 2762   6.249   0.426   2.270
  933TIP3    H1 2763   6.278   0.413   2.360
  933TIP3    H2 2764   6.161   0.463   2.279
  934TIP3   OH2 2765   0.983   1.971   2.532
  934TIP3    H1 2766   0.989   2.031   2.458
  934TIP3    H2 2767   1.040   1.898   2.508
  935TIP3   OH2 2768   4.185   4.342   5.683
  935TIP3    H1 2769   4.201   4.346   5.589
  935TIP3    H2 2770   4.218   4.257   5.710
  936TIP3   OH2 2771   5.060   6.239   2.537
  936TIP3    H1 2772   5.119   6.221   2.610
  936TIP3    H2 2773   4.978   6.267   2.578
  937TIP3   OH2 2774   4.616   3.537   2.481
  937TIP3    H1 2775   4.571   3.620   2.497
  937TIP3    H2 2776   4.546   3.474   2.464
  938TIP3   OH2 2777   1.743   4.442   5.518
  938TIP3    H1 2778   1.751   4.403   5.431
  938TIP3    H2 2779   1.727   4.368   5.577
  939TIP3   OH2 2780   2.682   3.358   0.129
  939TIP3    H1 2781   2.765   3.396   0.099
  939TIP3    H2 2782   2.705   3.269   0.156
  940TIP3   OH2 2783   0.914   2.172   1.993
  940TIP3    H1 2784   1.005   2.147   2.004
  940TIP3    H2 2785   0.865   2.090   1.998
  941TIP3   OH2 2786   3.321   6.157   3.549
  941TIP3    H1 2787   3.315   6.249   3.524
  941TIP3    H2 2788   3.410   6.146   3.582
  942TIP3   OH2 2789   6.988   5.152   2.684
  942TIP3    H1 2790   6.990   5.148   2.780
  942TIP3    H2 2791   7.059   5.212   2.661
  943TIP3   OH2 2792   0.225   1.770   5.373
  943TIP3    H1 2793   0.197   1.822   5.297
  943TIP3    H2 2794   0.144   1.739   5.412
  944TIP3   OH2 2795   0.069   5.809   3.531
  944TIP3    H1 2796   0.052   5.724   3.490
  944TIP3    H2 2797   0.088   5.789   3.622
  945TIP3   OH2 2798   3.458   4.673   0.060
  945TIP3    H1 2799   3.470   4.607  -0.009
  945TIP3    H2 2800   3.408   4.743   0.017
  946TIP3   OH2 2801   5.405   1.200   1.860
  946TIP3    H1 2802   5.439   1.112   1.875
  946TIP3    H2 2803   5.449   1.229   1.780
  947TIP3   OH2 2804   2.428   6.566   5.660
  947TIP3    H1 2805   2.379   6.545   5.581
  947TIP3    H2 2806   2.404   6.657   5.680
  948TIP3   OH2 2807   4.670   0.763   4.301
  948TIP3    H1 2808   4.762   0.759   4.273
  948TIP3    H2 2809   4.660   0.691   4.362
  949TIP3   OH2 2810   2.015   1.060   2.644
  949TIP3    H1 2811   1.948   1.064   2.577
  949TIP3    H2 2812   1.967   1.058   2.727
  950TIP3   OH2 2813   1.189   3.002   3.575
  950TIP3    H1 2814   1.125   2.936   3.548
  950TIP3    H2 2815   1.259   2.952   3.617
  951TIP3   OH2 2816   2.409   3.571   4.773
  951TIP3    H1 2817   2.405   3.493   4.717
  951TIP3    H2 2818   2.350   3.552   4.845
  952TIP3   OH2 2819   4.333   5.460   4.591
  952TIP3    H1 2820   4.411   5.515   4.585
  952TIP3    H2 2821   4.273   5.510   4.646
  953TIP3   OH2 2822   4.844   1.226   3.942
  953TIP3    H1 2823   4.772   1.270   3.987
  953TIP3    H2 2824   4.808   1.200   3.857
  954TIP3   OH2 2825   2.967   3.787   4.202
  954TIP3    H1 2826   3.053   3.803   4.163
  954TIP3    H2 2827   2.985   3.770   4.294
  955TIP3   OH2 2828   4.809   1.124   3.239
  955TIP3    H1 2829   4.868   1.051   3.255
  955TIP3    H2 2830   4.727   1.083   3.210
  956TIP3   OH2 2831   4.861   2.481   0.930
  956TIP3    H1 2832   4.832   2.521   0.848
  956TIP3    H2 2833   4.780   2.454   0.973
  957TIP3   OH2 2834   0.736   1.969   2.012
  957TIP3    H1 2835   0.787   1.888   2.011
  957TIP3    H2 2836   0.651   1.943   1.974
  958TIP3   OH2 2837   5.830   2.772   3.577
  958TIP3    H1 2838   5.856   2.861   3.604
  958TIP3    H2 2839   5.736   2.777   3.566
  959TIP3   OH2 2840   2.043   5.344   5.662
  959TIP3    H1 2841   1.979   5.415   5.659
  959TIP3    H2 2842   2.025   5.292   5.583
  960TIP3   OH2 2843   2.782   5.048   4.177
  960TIP3    H1 2844   2.869   5.051   4.139
  960TIP3    H2 2845   2.758   4.955   4.175
  961TIP3   OH2 2846   6.287   0.033   5.511
  961TIP3    H1 2847   6.346   0.103   5.539
  961TIP3    H2 2848   6.331  -0.048   5.537
  962TIP3   OH2 2849   5.802   5.264   5.704
  962TIP3    H1 2850   5.897   5.251   5.706
  962TIP3    H2 2851   5.789   5.335   5.642
  963TIP3   OH2 2852   7.035   4.638   0.502
  963TIP3    H1 2853   7.060   4.564   0.446
  963TIP3    H2 2854   6.942   4.625   0.518
  964TIP3   OH2 2855   5.037   4.220   5.103
  964TIP3    H1 2856   5.081   4.156   5.047
  964TIP3    H2 2857   4.952   4.180   5.123
  965TIP3   OH2 2858   6.859   4.801   4.966
  965TIP3    H1 2859   6.877   4.711   4.995
  965TIP3    H2 2860   6.877   4.800   4.872
  966TIP3   OH2 2861   6.401   3.759   5.017
  966TIP3    H1 2862   6.352   3.828   4.973
  966TIP3    H2 2863   6.336   3.695   5.044
  967TIP3   OH2 2864   0.532   4.438   3.967
  967TIP3    H1 2865   0.559   4.489   4.044
  967TIP3    H2 2866   0.437   4.441   3.968
  968TIP3   OH2 2867   2.978   2.066   2.299
  968TIP3    H1 2868   3.010   2.100   2.215
  968TIP3    H2 2869   3.026   1.984   2.311
  969TIP3   OH2 2870   1.001   1.741   4.468
  969TIP3    H1 2871   0.972   1.711   4.554
  969TIP3    H2 2872   0.943   1.697   4.406
  970TIP3   OH2 2873   5.518   3.881   3.271
  970TIP3    H1 2874   5.489   3.806   3.323
  970TIP3    H2 2875   5.491   3.860   3.182
  971TIP3   OH2 2876   1.884   0.321   1.122
  971TIP3    H1 2877   1.790   0.306   1.129
  971TIP3    H2 2878   1.905   0.298   1.031
  972TIP3   OH2 2879   2.708   0.585   5.090
  972TIP3    H1 2880   2.634   0.602   5.032
  972TIP3    H2 2881   2.783   0.621   5.043
  973TIP3   OH2 2882   4.742   2.602   2.682
  973TIP3    H1 2883   4.702   2.684   2.655
  973TIP3    H2 2884   4.828   2.627   2.717
  974TIP3   OH2 2885   4.637   2.617   5.860
  974TIP3    H1 2886   4.558   2.571   5.889
  974TIP3    H2 2887   4.661   2.574   5.778
  975TIP3   OH2 2888   7.030   3.922   1.545
  975TIP3    H1 2889   6.962   3.871   1.588
  975TIP3    H2 2890   7.008   3.917   1.452
  976TIP3   OH2 2891   2.957   2.523   1.675
  976TIP3    H1 2892   2.949   2.427   1.678
  976TIP3    H2 2893   2.921   2.552   1.759
  977TIP3   OH2 2894   0.608   4.604   4.691
  977TIP3    H1 2895   0.542   4.580   4.626
  977TIP3    H2 2896   0.584   4.554   4.769
  978TIP3   OH2 2897   4.900   5.013   0.378
  978TIP3    H1 2898   4.893   4.922   0.404
  978TIP3    H2 2899   4.952   5.054   0.446
  979TIP3   OH2 2900   3.866   4.937   2.177
  979TIP3    H1 2901   3.796   4.949   2.113
  979TIP3    H2 2902   3.873   5.021   2.222
  980TIP3   OH2 2903   0.338   5.903   3.972
  980TIP3    H1 2904   0.254   5.943   3.998
  980TIP3    H2 2905   0.343   5.917   3.878
  981TIP3   OH2 2906   4.812   1.840   5.254
  981TIP3    H1 2907   4.817   1.909   5.187
  981TIP3    H2 2908   4.867   1.872   5.325
  982TIP3   OH2 2909   1.967   2.213   0.938
  982TIP3    H1 2910   2.008   2.193   1.022
  982TIP3    H2 2911   1.895   2.151   0.930
  983TIP3   OH2 2912   5.963   5.139   2.917
  983TIP3    H1 2913   5.879   5.154   2.874
  983TIP3    H2 2914   6.025   5.130   2.845
  984TIP3   OH2 2915   3.247   4.053   2.758
  984TIP3    H1 2916   3.212   3.980   2.809
  984TIP3    H2 2917   3.186   4.062   2.684
  985TIP3   OH2 2918   6.321   5.961   5.024
  985TIP3    H1 2919   6.369   5.983   4.944
  985TIP3    H2 2920   6.280   5.877   5.005
  986TIP3   OH2 2921   5.795   3.798   0.604
  986TIP3    H1 2922   5.765   3.889   0.593
  986TIP3    H2 2923   5.755   3.769   0.686
  987TIP3   OH2 2924   1.282   6.611   1.244
  987TIP3    H1 2925   1.308   6.555   1.171
  987TIP3    H2 2926   1.288   6.554   1.321
  988TIP3   OH2 2927   6.356   4.767   3.441
  988TIP3    H1 2928   6.300   4.712   3.386
  988TIP3    H2 2929   6.326   4.856   3.422
  989TIP3   OH2 2930   5.711   5.007   2.635
  989TIP3    H1 2931   5.800   4.974   2.629
  989TIP3    H2 2932   5.661   4.935   2.675
  990TIP3   OH2 2933   3.381   6.695   2.851
  990TIP3    H1 2934   3.435   6.632   2.804
  990TIP3    H2 2935   3.321   6.730   2.785
  991TIP3   OH2 2936   4.486   5.509   0.547
  991TIP3    H1 2937   4.458   5.575   0.483
  991TIP3    H2 2938   4.547   5.556   0.604
  992TIP3   OH2 2939   4.834   2.955   0.403
  992TIP3    H1 2940   4.823   2.966   0.497
  992TIP3    H2 2941   4.745   2.947   0.369
  993TIP3   OH2 2942   1.256   2.462   3.262
  993TIP3    H1 2943   1.302   2.544   3.246
  993TIP3    H2 2944   1.325   2.401   3.288
  994TIP3   OH2 2945   0.788   5.828   5.709
  994TIP3    H1 2946   0.812   5.917   5.734
  994TIP3    H2 2947   0.847   5.807   5.636
  995TIP3   OH2 2948   1.566   1.500   3.137
  995TIP3    H1 2949   1.494   1.468   3.191
  995TIP3    H2 2950   1.578   1.591   3.164
  996TIP3   OH2 2951   1.630   3.309   1.232
  996TIP3    H1 2952   1.597   3.368   1.300
  996TIP3    H2 2953   1.594   3.223   1.256
  997TIP3   OH2 2954   1.869   0.043   4.330
  997TIP3    H1 2955   1.957   0.046   4.293
  997TIP3    H2 2956   1.873   0.100   4.407
  998TIP3   OH2 2957   5.437   6.326   0.931
  998TIP3    H1 2958   5.355   6.375   0.929
  998TIP3    H2 2959   5.413   6.238   0.902
  999TIP3   OH2 2960   2.826   6.353   3.128
  999TIP3    H1 2961   2.824   6.449   3.133
  999TIP3    H2 2962   2.810   6.334   3.036
 1000TIP3   OH2 2963   3.280   3.759   1.222
 1000TIP3    H1 2964   3.271   3.745   1.127
 1000TIP3    H2 2965   3.191   3.752   1.255
 1001TIP3   OH2 2966   1.287   6.286   5.308
 1001TIP3    H1 2967   1.215   6.234   5.274
 1001TIP3    H2 2968   1.361   6.266   5.250
 1002TIP3   OH2 2969   2.255   2.976   0.077
 1002TIP3    H1 2970   2.182   2.994   0.016
 1002TIP3    H2 2971   2.333   3.001   0.028
 1003TIP3   OH2 2972   0.221   5.701   5.697
 1003TIP3    H1 2973   0.180   5.759   5.762
 1003TIP3    H2 2974   0.257   5.761   5.631
 1004TIP3   OH2 2975   3.602   1.167   4.771
 1004TIP3    H1 2976   3.515   1.195   4.743
 1004TIP3    H2 2977   3.585   1.094   4.831
 1005TIP3   OH2 2978   5.214   3.371   0.424
 1005TIP3    H1 2979   5.245   3.336   0.507
 1005TIP3    H2 2980   5.224   3.466   0.433
 1006TIP3   OH2 2981   3.871   4.172   5.671
 1006TIP3    H1 2982   3.965   4.188   5.656
 1006TIP3    H2 2983   3.834   4.260   5.681
 1007TIP3   OH2 2984   5.597   0.302   2.049
 1007TIP3    H1 2985   5.594   0.381   2.103
 1007TIP3    H2 2986   5.563   0.329   1.964
 1008TIP3   OH2 2987   2.519   0.038   2.309
 1008TIP3    H1 2988   2.497   0.024   2.401
 1008TIP3    H2 2989   2.497   0.130   2.294
 1009TIP3   OH2 2990   6.180   5.697   5.027
 1009TIP3    H1 2991   6.179   5.602   5.025
 1009TIP3    H2 2992   6.091   5.723   5.006
 1010TIP3   OH2 2993   5.861   6.236   3.340
 1010TIP3    H1 2994   5.833   6.148   3.364
 1010TIP3    H2 2995   5.855   6.238   3.244
 1011TIP3   OH2 2996   4.197   0.923   5.353
 1011TIP3    H1 2997   4.177   0.910   5.260
 1011TIP3    H2 2998   4.139   0.994   5.379
 1012TIP3   OH2 2999   4.853   6.416   3.092
 1012TIP3    H1 3000   4.860   6.388   3.001
 1012TIP3    H2 3001   4.911   6.358   3.140
 1013TIP3   OH2 3002   6.445   4.568   5.857
 1013TIP3    H1 3003   6.510   4.616   5.909
 1013TIP3    H2 3004   6.419   4.630   5.788
 1014TIP3   OH2 3005   5.868   0.139   5.170
 1014TIP3    H1 3006   5.874   0.224   5.214
 1014TIP3    H2 3007   5.797   0.094   5.216
 1015TIP3   OH2 3008   6.288   4.040   1.639
 1015TIP3    H1 3009   6.334   3.958   1.657
 1015TIP3    H2 3010   6.277   4.080   1.725
 1016TIP3   OH2 3011   4.017   1.702   0.579
 1016TIP3    H1 3012   3.976   1.619   0.602
 1016TIP3    H2 3013   3.946   1.767   0.586
 1017TIP3   OH2 3014   2.702   5.781   1.783
 1017TIP3    H1 3015   2.748   5.786   1.867
 1017TIP3    H2 3016   2.708   5.689   1.758
 1018TIP3   OH2 3017   2.639   5.414   0.811
 1018TIP3    H1 3018   2.635   5.503   0.846
 1018TIP3    H2 3019   2.727   5.384   0.833
 1019TIP3   OH2 3020   7.202   5.228   2.048
 1019TIP3    H1 3021   7.230   5.207   2.137
 1019TIP3    H2 3022   7.111   5.197   2.044
 1020TIP3   OH2 3023   5.466   4.348   0.611
 1020TIP3    H1 3024   5.410   4.393   0.548
 1020TIP3    H2 3025   5.523   4.293   0.557
 1021TIP3   OH2 3026   5.972   2.681   1.775
 1021TIP3    H1 3027   5.938   2.658   1.689
 1021TIP3    H2 3028   6.057   2.722   1.757
 1022TIP3   OH2 3029   2.531   6.592   3.540
 1022TIP3    H1 3030   2.448   6.640   3.532
 1022TIP3    H2 3031   2.575   6.608   3.457
 1023TIP3   OH2 3032   2.439   5.648   4.791
 1023TIP3    H1 3033   2.418   5.731   4.832
 1023TIP3    H2 3034   2.429   5.664   4.697
 1024TIP3   OH2 3035   3.887   1.181   4.561
 1024TIP3    H1 3036   3.870   1.225   4.644
 1024TIP3    H2 3037   3.883   1.251   4.495
 1025TIP3   OH2 3038   2.609   5.540   2.572
 1025TIP3    H1 3039   2.633   5.542   2.479
 1025TIP3    H2 3040   2.655   5.615   2.610
 1026TIP3   OH2 3041   4.374   3.451   0.844
 1026TIP3    H1 3042   4.338   3.536   0.819
 1026TIP3    H2 3043   4.298   3.392   0.843
 1027TIP3   OH2 3044   1.578   3.223   0.136
 1027TIP3    H1 3045   1.590   3.242   0.229
 1027TIP3    H2 3046   1.555   3.130   0.133
 1028TIP3   OH2 3047   2.737   3.318   4.718
 1028TIP3    H1 3048   2.717   3.410   4.735
 1028TIP3    H2 3049   2.763   3.316   4.626
 1029TIP3   OH2 3050   6.050   6.458   4.718
 1029TIP3    H1 3051   6.030   6.454   4.624
 1029TIP3    H2 3052   5.969   6.488   4.758
 1030TIP3   OH2 3053   1.496   3.108   3.149
 1030TIP3    H1 3054   1.504   3.046   3.077
 1030TIP3    H2 3055   1.416   3.157   3.129
 1031TIP3   OH2 3056   3.207   1.774   3.411
 1031TIP3    H1 3057   3.175   1.701   3.464
 1031TIP3    H2 3058   3.201   1.850   3.468
 1032TIP3   OH2 3059   4.258   2.227   1.717
 1032TIP3    H1 3060   4.293   2.314   1.698
 1032TIP3    H2 3061   4.177   2.244   1.765
 1033TIP3   OH2 3062   0.492   4.744   3.865
 1033TIP3    H1 3063   0.480   4.690   3.943
 1033TIP3    H2 3064   0.523   4.828   3.898
 1034TIP3   OH2 3065   5.731   5.021   0.378
 1034TIP3    H1 3066   5.672   4.947   0.395
 1034TIP3    H2 3067   5.680   5.098   0.404
 1035TIP3   OH2 3068   5.046   0.878   2.236
 1035TIP3    H1 3069   4.995   0.812   2.189
 1035TIP3    H2 3070   4.989   0.904   2.308
 1036TIP3   OH2 3071   3.790   6.399   0.029
 1036TIP3    H1 3072   3.732   6.455   0.080
 1036TIP3    H2 3073   3.763   6.414  -0.062
 1037TIP3   OH2 3074   6.744   2.723   0.127
 1037TIP3    H1 3075   6.698   2.650   0.085
 1037TIP3    H2 3076   6.674   2.782   0.155
 1038TIP3   OH2 3077   2.566   5.025   3.770
 1038TIP3    H1 3078   2.544   4.972   3.846
 1038TIP3    H2 3079   2.657   5.052   3.784
 1039TIP3   OH2 3080   6.814   5.729   5.734
 1039TIP3    H1 3081   6.808   5.816   5.772
 1039TIP3    H2 3082   6.908   5.714   5.722
 1040TIP3   OH2 3083   5.506   0.417   1.532
 1040TIP3    H1 3084   5.430   0.456   1.577
 1040TIP3    H2 3085   5.487   0.324   1.531
 1041TIP3   OH2 3086   1.529   5.895   5.213
 1041TIP3    H1 3087   1.537   5.985   5.183
 1041TIP3    H2 3088   1.605   5.882   5.271
 1042TIP3   OH2 3089   4.539   0.439   5.333
 1042TIP3    H1 3090   4.600   0.495   5.284
 1042TIP3    H2 3091   4.453   0.464   5.301
 1043TIP3   OH2 3092   2.817   4.943   2.150
 1043TIP3    H1 3093   2.753   4.885   2.109
 1043TIP3    H2 3094   2.767   4.991   2.217
 1044TIP3   OH2 3095   4.757   6.553   4.868
 1044TIP3    H1 3096   4.731   6.521   4.954
 1044TIP3    H2 3097   4.842   6.513   4.851
 1045TIP3   OH2 3098   5.823   0.775   3.252
 1045TIP3    H1 3099   5.796   0.742   3.338
 1045TIP3    H2 3100   5.803   0.703   3.192
 1046TIP3   OH2 3101   1.441   6.644   5.305
 1046TIP3    H1 3102   1.497   6.623   5.380
 1046TIP3    H2 3103   1.490   6.611   5.230
 1047TIP3   OH2 3104   0.119   2.999   2.702
 1047TIP3    H1 3105   0.171   2.951   2.638
 1047TIP3    H2 3106   0.037   3.018   2.658
 1048TIP3   OH2 3107   5.661   2.447   3.173
 1048TIP3    H1 3108   5.647   2.501   3.096
 1048TIP3    H2 3109   5.573   2.416   3.196
 1049TIP3   OH2 3110   1.927   4.208   2.870
 1049TIP3    H1 3111   2.002   4.173   2.919
 1049TIP3    H2 3112   1.967   4.268   2.806
 1050TIP3   OH2 3113   3.481   2.166   0.963
 1050TIP3    H1 3114   3.543   2.207   1.023
 1050TIP3    H2 3115   3.530   2.096   0.921
 1051TIP3   OH2 3116   2.101   0.283   5.836
 1051TIP3    H1 3117   2.151   0.360   5.809
 1051TIP3    H2 3118   2.084   0.236   5.754
 1052TIP3   OH2 3119   5.138   4.767   3.608
 1052TIP3    H1 3120   5.130   4.785   3.514
 1052TIP3    H2 3121   5.110   4.676   3.618
 1053TIP3   OH2 3122   6.643   1.948   5.146
 1053TIP3    H1 3123   6.627   2.027   5.095
 1053TIP3    H2 3124   6.716   1.905   5.102
 1054TIP3   OH2 3125   4.782   4.709   0.078
 1054TIP3    H1 3126   4.752   4.623   0.106
 1054TIP3    H2 3127   4.755   4.768   0.148
 1055TIP3   OH2 3128   2.034   2.051   4.942
 1055TIP3    H1 3129   2.002   2.108   4.872
 1055TIP3    H2 3130   2.075   2.111   5.005
 1056TIP3   OH2 3131   3.022   0.839   4.176
 1056TIP3    H1 3132   3.054   0.911   4.122
 1056TIP3    H2 3133   2.941   0.812   4.135
 1057TIP3   OH2 3134   3.916   4.228   3.956
 1057TIP3    H1 3135   3.877   4.232   3.869
 1057TIP3    H2 3136   3.986   4.292   3.954
 1058TIP3   OH2 3137   3.453   5.787   0.762
 1058TIP3    H1 3138   3.415   5.822   0.843
 1058TIP3    H2 3139   3.483   5.864   0.714
 1059TIP3   OH2 3140   4.829   6.204   1.773
 1059TIP3    H1 3141   4.920   6.211   1.745
 1059TIP3    H2 3142   4.794   6.292   1.765
 1060TIP3   OH2 3143   3.678   4.680   2.822
 1060TIP3    H1 3144   3.737   4.680   2.897
 1060TIP3    H2 3145   3.640   4.768   2.821
 1061TIP3   OH2 3146   0.957   0.087   2.280
 1061TIP3    H1 3147   0.958   0.015   2.343
 1061TIP3    H2 3148   0.951   0.166   2.333
 1062TIP3   OH2 3149   4.013   5.078   0.739
 1062TIP3    H1 3150   3.963   5.152   0.706
 1062TIP3    H2 3151   4.071   5.054   0.667
 1063TIP3   OH2 3152   2.704   5.546   2.307
 1063TIP3    H1 3153   2.691   5.552   2.212
 1063TIP3    H2 3154   2.702   5.452   2.326
 1064TIP3   OH2 3155   2.993   1.850   0.292
 1064TIP3    H1 3156   3.087   1.837   0.310
 1064TIP3    H2 3157   2.953   1.857   0.379
 1065TIP3   OH2 3158   0.786   3.486   4.053
 1065TIP3    H1 3159   0.759   3.398   4.030
 1065TIP3    H2 3160   0.749   3.501   4.140
 1066TIP3   OH2 3161   2.727   5.022   0.862
 1066TIP3    H1 3162   2.642   5.005   0.901
 1066TIP3    H2 3163   2.716   5.004   0.769
 1067TIP3   OH2 3164   6.036   2.220   1.759
 1067TIP3    H1 3165   5.959   2.273   1.737
 1067TIP3    H2 3166   6.023   2.137   1.712
 1068TIP3   OH2 3167   0.579   3.380   1.199
 1068TIP3    H1 3168   0.554   3.334   1.279
 1068TIP3    H2 3169   0.642   3.446   1.227
 1069TIP3   OH2 3170   5.416   5.302   3.188
 1069TIP3    H1 3171   5.493   5.251   3.163
 1069TIP3    H2 3172   5.451   5.382   3.226
 1070TIP3   OH2 3173   3.975   2.944   1.042
 1070TIP3    H1 3174   4.069   2.936   1.025
 1070TIP3    H2 3175   3.936   2.957   0.956
 1071TIP3   OH2 3176   4.827   6.745   5.442
 1071TIP3    H1 3177   4.764   6.742   5.370
 1071TIP3    H2 3178   4.869   6.658   5.441
 1072TIP3   OH2 3179   5.895   4.085   1.055
 1072TIP3    H1 3180   5.884   4.118   0.965
 1072TIP3    H2 3181   5.872   4.160   1.110
 1073TIP3   OH2 3182   2.664   4.547   4.514
 1073TIP3    H1 3183   2.598   4.616   4.519
 1073TIP3    H2 3184   2.657   4.513   4.425
 1074TIP3   OH2 3185   5.378   5.679   2.062
 1074TIP3    H1 3186   5.331   5.698   2.143
 1074TIP3    H2 3187   5.449   5.744   2.059
 1075TIP3   OH2 3188   6.803   3.549   4.705
 1075TIP3    H1 3189   6.855   3.510   4.775
 1075TIP3    H2 3190   6.867   3.571   4.637
 1076TIP3   OH2 3191   6.137   2.709   4.415
 1076TIP3    H1 3192   6.053   2.724   4.372
 1076TIP3    H2 3193   6.202   2.748   4.357
 1077TIP3   OH2 3194   5.880   2.084   5.389
 1077TIP3    H1 3195   5.969   2.109   5.411
 1077TIP3    H2 3196   5.887   1.991   5.364
 1078TIP3   OH2 3197   1.371   2.047   0.153
 1078TIP3    H1 3198   1.433   2.066   0.082
 1078TIP3    H2 3199   1.392   2.112   0.220
 1079TIP3   OH2 3200   2.241   1.428   4.934
 1079TIP3    H1 3201   2.299   1.476   4.993
 1079TIP3    H2 3202   2.178   1.493   4.904
 1080TIP3   OH2 3203   5.126   1.725   1.849
 1080TIP3    H1 3204   5.083   1.717   1.935
 1080TIP3    H2 3205   5.194   1.792   1.863
 1081TIP3   OH2 3206   0.113   6.569   0.968
 1081TIP3    H1 3207   0.175   6.546   0.898
 1081TIP3    H2 3208   0.167   6.614   1.033
 1082TIP3   OH2 3209   3.842   0.991   1.010
 1082TIP3    H1 3210   3.807   0.907   1.040
 1082TIP3    H2 3211   3.911   0.968   0.947
 1083TIP3   OH2 3212   3.452   1.788   2.444
 1083TIP3    H1 3213   3.533   1.771   2.395
 1083TIP3    H2 3214   3.480   1.802   2.534
 1084TIP3   OH2 3215   3.915   3.283   0.909
 1084TIP3    H1 3216   3.980   3.230   0.956
 1084TIP3    H2 3217   3.874   3.223   0.847
 1085TIP3   OH2 3218   1.542   1.872   4.229
 1085TIP3    H1 3219   1.577   1.821   4.301
 1085TIP3    H2 3220   1.451   1.842   4.221
 1086TIP3   OH2 3221   6.074   5.661   1.461
 1086TIP3    H1 3222   6.007   5.592   1.456
 1086TIP3    H2 3223   6.029   5.739   1.429
 1087TIP3   OH2 3224   7.034   2.436   0.538
 1087TIP3    H1 3225   6.994   2.500   0.597
 1087TIP3    H2 3226   7.090   2.488   0.481
 1088TIP3   OH2 3227   3.085   0.257   1.627
 1088TIP3    H1 3228   3.181   0.256   1.625
 1088TIP3    H2 3229   3.061   0.343   1.592
 1089TIP3   OH2 3230   0.424   6.473   0.255
 1089TIP3    H1 3231   0.388   6.402   0.308
 1089TIP3    H2 3232   0.387   6.459   0.168
 1090TIP3   OH2 3233   7.114   6.064   4.781
 1090TIP3    H1 3234   7.083   6.143   4.736
 1090TIP3    H2 3235   7.050   6.051   4.851
 1091TIP3   OH2 3236   0.129   2.054   1.597
 1091TIP3    H1 3237   0.215   2.013   1.598
 1091TIP3    H2 3238   0.072   1.989   1.556
 1092TIP3   OH2 3239   1.396   2.096   4.580
 1092TIP3    H1 3240   1.346   2.101   4.662
 1092TIP3    H2 3241   1.332   2.067   4.515
 1093TIP3   OH2 3242   3.901   4.102   3.255
 1093TIP3    H1 3243   3.861   4.016   3.242
 1093TIP3    H2 3244   3.829   4.164   3.242
 1094TIP3   OH2 3245   1.268   4.162   3.110
 1094TIP3    H1 3246   1.332   4.223   3.074
 1094TIP3    H2 3247   1.308   4.131   3.191
 1095TIP3   OH2 3248   4.485   1.258   1.271
 1095TIP3    H1 3249   4.541   1.334   1.289
 1095TIP3    H2 3250   4.399   1.295   1.252
 1096TIP3   OH2 3251   5.022   3.313   0.205
 1096TIP3    H1 3252   5.085   3.291   0.274
 1096TIP3    H2 3253   4.962   3.375   0.247
 1097TIP3   OH2 3254   2.837   1.080   5.195
 1097TIP3    H1 3255   2.846   1.173   5.214
 1097TIP3    H2 3256   2.897   1.065   5.122
 1098TIP3   OH2 3257   0.506   0.788   1.611
 1098TIP3    H1 3258   0.484   0.695   1.612
 1098TIP3    H2 3259   0.600   0.790   1.593
 1099TIP3   OH2 3260   5.275   2.255   1.915
 1099TIP3    H1 3261   5.285   2.326   1.978
 1099TIP3    H2 3262   5.353   2.262   1.860
 1100TIP3   OH2 3263   4.355   2.014   5.674
 1100TIP3    H1 3264   4.319   2.099   5.648
 1100TIP3    H2 3265   4.450   2.025   5.664
 1101TIP3   OH2 3266   4.754   1.925   3.795
 1101TIP3    H1 3267   4.763   1.830   3.803
 1101TIP3    H2 3268   4.665   1.943   3.826
 1102TIP3   OH2 3269   7.234   5.827   3.807
 1102TIP3    H1 3270   7.233   5.759   3.874
 1102TIP3    H2 3271   7.161   5.805   3.749
 1103TIP3   OH2 3272   3.667   4.062   0.863
 1103TIP3    H1 3273   3.586   4.099   0.898
 1103TIP3    H2 3274   3.696   4.001   0.930
 1104TIP3   OH2 3275   1.642   4.801   4.886
 1104TIP3    H1 3276   1.670   4.839   4.803
 1104TIP3    H2 3277   1.719   4.754   4.919
 1105TIP3   OH2 3278   4.405   4.937   3.310
 1105TIP3    H1 3279   4.469   4.873   3.279
 1105TIP3    H2 3280   4.407   4.929   3.405
 1106TIP3   OH2 3281   3.892   6.737   5.200
 1106TIP3    H1 3282   3.963   6.793   5.233
 1106TIP3    H2 3283   3.899   6.657   5.252
 1107TIP3   OH2 3284   6.876   4.168   1.620
 1107TIP3    H1 3285   6.922   4.155   1.704
 1107TIP3    H2 3286   6.909   4.099   1.563
 1108TIP3   OH2 3287   0.943   0.947   1.726
 1108TIP3    H1 3288   0.895   1.024   1.696
 1108TIP3    H2 3289   1.035   0.970   1.716
 1109TIP3   OH2 3290   0.438   1.499   4.038
 1109TIP3    H1 3291   0.423   1.409   4.067
 1109TIP3    H2 3292   0.478   1.542   4.114
 1110TIP3   OH2 3293   0.457   5.381   5.630
 1110TIP3    H1 3294   0.483   5.308   5.575
 1110TIP3    H2 3295   0.363   5.388   5.619
 1111TIP3   OH2 3296   3.508   6.020   2.780
 1111TIP3    H1 3297   3.557   5.957   2.834
 1111TIP3    H2 3298   3.576   6.067   2.731
 1112TIP3   OH2 3299   3.521   5.679   4.123
 1112TIP3    H1 3300   3.498   5.601   4.174
 1112TIP3    H2 3301   3.529   5.749   4.189
 1113TIP3   OH2 3302   1.427   1.675   4.863
 1113TIP3    H1 3303   1.492   1.745   4.876
 1113TIP3    H2 3304   1.476   1.594   4.878
 1114TIP3   OH2 3305   4.013   5.992   0.770
 1114TIP3    H1 3306   3.997   5.945   0.688
 1114TIP3    H2 3307   3.926   6.005   0.808
 1115TIP3   OH2 3308   4.530   4.494   2.037
 1115TIP3    H1 3309   4.623   4.481   2.050
 1115TIP3    H2 3310   4.514   4.584   2.067
 1116TIP3   OH2 3311   4.185   2.297   5.580
 1116TIP3    H1 3312   4.125   2.290   5.655
 1116TIP3    H2 3313   4.167   2.384   5.544
 1117TIP3   OH2 3314   1.214   4.553   4.905
 1117TIP3    H1 3315   1.251   4.619   4.847
 1117TIP3    H2 3316   1.170   4.491   4.847
 1118TIP3   OH2 3317   4.695   3.416   5.034
 1118TIP3    H1 3318   4.696   3.390   5.126
 1118TIP3    H2 3319   4.611   3.460   5.023
 1119TIP3   OH2 3320   6.155   3.686   0.696
 1119TIP3    H1 3321   6.149   3.591   0.684
 1119TIP3    H2 3322   6.075   3.709   0.742
 1120TIP3   OH2 3323   0.167   0.029   5.661
 1120TIP3    H1 3324   0.145   0.006   5.571
 1120TIP3    H2 3325   0.107  -0.023   5.714
 1121TIP3   OH2 3326   0.411   5.311   4.323
 1121TIP3    H1 3327   0.378   5.339   4.238
 1121TIP3    H2 3328   0.506   5.319   4.315
 1122TIP3   OH2 3329   2.218   6.624   0.169
 1122TIP3    H1 3330   2.140   6.598   0.120
 1122TIP3    H2 3331   2.271   6.544   0.174
 1123TIP3   OH2 3332   2.074   6.258   1.002
 1123TIP3    H1 3333   2.102   6.231   0.915
 1123TIP3    H2 3334   2.077   6.178   1.054
 1124TIP3   OH2 3335   5.424   4.841   5.679
 1124TIP3    H1 3336   5.350   4.898   5.700
 1124TIP3    H2 3337   5.480   4.895   5.623
 1125TIP3   OH2 3338   2.269   4.525   1.041
 1125TIP3    H1 3339   2.276   4.465   1.115
 1125TIP3    H2 3340   2.230   4.604   1.078
 1126TIP3   OH2 3341   5.643   0.416   5.213
 1126TIP3    H1 3342   5.731   0.434   5.178
 1126TIP3    H2 3343   5.596   0.499   5.202
 1127TIP3   OH2 3344   5.999   2.887   3.284
 1127TIP3    H1 3345   5.915   2.894   3.330
 1127TIP3    H2 3346   6.038   2.974   3.291
 1128TIP3   OH2 3347   5.099   4.536   0.113
 1128TIP3    H1 3348   5.127   4.456   0.157
 1128TIP3    H2 3349   5.022   4.511   0.063
 1129TIP3   OH2 3350   5.027   5.873   0.422
 1129TIP3    H1 3351   4.946   5.835   0.388
 1129TIP3    H2 3352   5.088   5.800   0.427
 1130TIP3   OH2 3353   6.875   3.154   2.280
 1130TIP3    H1 3354   6.960   3.126   2.246
 1130TIP3    H2 3355   6.856   3.094   2.352
 1131TIP3   OH2 3356   1.257   0.197   2.003
 1131TIP3    H1 3357   1.226   0.131   2.065
 1131TIP3    H2 3358   1.349   0.175   1.989
 1132TIP3   OH2 3359   4.031   0.917   0.334
 1132TIP3    H1 3360   4.124   0.902   0.317
 1132TIP3    H2 3361   4.030   0.977   0.409
 1133TIP3   OH2 3362   2.794   2.470   5.245
 1133TIP3    H1 3363   2.779   2.524   5.323
 1133TIP3    H2 3364   2.714   2.419   5.236
 1134TIP3   OH2 3365   3.801   5.951   0.360
 1134TIP3    H1 3366   3.878   5.903   0.328
 1134TIP3    H2 3367   3.738   5.882   0.382
 1135TIP3   OH2 3368   3.236   6.791   4.265
 1135TIP3    H1 3369   3.188   6.718   4.226
 1135TIP3    H2 3370   3.312   6.751   4.306
 1136TIP3   OH2 3371   5.377   2.507   1.055
 1136TIP3    H1 3372   5.350   2.540   0.969
 1136TIP3    H2 3373   5.370   2.412   1.047
 1137TIP3   OH2 3374   0.632   4.795   0.796
 1137TIP3    H1 3375   0.600   4.835   0.715
 1137TIP3    H2 3376   0.727   4.793   0.786
 1138TIP3   OH2 3377   0.335   1.841   2.872
 1138TIP3    H1 3378   0.429   1.855   2.871
 1138TIP3    H2 3379   0.320   1.785   2.948
 1139TIP3   OH2 3380   6.535   2.885   0.956
 1139TIP3    H1 3381   6.493   2.850   0.877
 1139TIP3    H2 3382   6.602   2.945   0.924
 1140TIP3   OH2 3383   0.070   1.676   0.682
 1140TIP3    H1 3384   0.027   1.747   0.730
 1140TIP3    H2 3385  -0.002   1.629   0.640
 1141TIP3   OH2 3386   0.157   4.285   3.782
 1141TIP3    H1 3387   0.202   4.247   3.707
 1141TIP3    H2 3388   0.103   4.214   3.817
 1142TIP3   OH2 3389   3.523   4.541   3.395
 1142TIP3    H1 3390   3.583   4.483   3.347
 1142TIP3    H2 3391   3.456   4.484   3.430
 1143TIP3   OH2 3392   6.803   3.086   5.576
 1143TIP3    H1 3393   6.757   3.033   5.641
 1143TIP3    H2 3394   6.743   3.158   5.557
 1144TIP3   OH2 3395   0.844   4.474   3.315
 1144TIP3    H1 3396   0.886   4.544   3.265
 1144TIP3    H2 3397   0.916   4.420   3.347
 1145TIP3   OH2 3398   2.220   5.397   1.843
 1145TIP3    H1 3399   2.145   5.408   1.784
 1145TIP3    H2 3400   2.186   5.422   1.929
 1146TIP3   OH2 3401   1.359   5.632   0.784
 1146TIP3    H1 3402   1.374   5.573   0.710
 1146TIP3    H2 3403   1.295   5.585   0.838
 1147TIP3   OH2 3404   6.787   2.283   1.979
 1147TIP3    H1 3405   6.722   2.312   2.043
 1147TIP3    H2 3406   6.839   2.218   2.027
 1148TIP3   OH2 3407   2.911   4.235   5.302
 1148TIP3    H1 3408   2.949   4.199   5.222
 1148TIP3    H2 3409   2.884   4.324   5.278
 1149TIP3   OH2 3410   5.214   4.194   2.535
 1149TIP3    H1 3411   5.145   4.140   2.573
 1149TIP3    H2 3412   5.230   4.156   2.448
 1150TIP3   OH2 3413   2.782   1.957   3.952
 1150TIP3    H1 3414   2.751   2.025   3.892
 1150TIP3    H2 3415   2.714   1.890   3.947
 1151TIP3   OH2 3416   4.282   1.654   1.888
 1151TIP3    H1 3417   4.364   1.680   1.930
 1151TIP3    H2 3418   4.294   1.561   1.869
 1152TIP3   OH2 3419   3.295   5.539   2.317
 1152TIP3    H1 3420   3.262   5.557   2.405
 1152TIP3    H2 3421   3.219   5.506   2.270
 1153TIP3   OH2 3422   5.912   0.310   2.988
 1153TIP3    H1 3423   5.841   0.343   2.934
 1153TIP3    H2 3424   5.992   0.336   2.942
 1154TIP3   OH2 3425   6.484   0.604   3.833
 1154TIP3    H1 3426   6.404   0.653   3.815
 1154TIP3    H2 3427   6.537   0.665   3.885
 1155TIP3   OH2 3428   1.607   2.443   0.699
 1155TIP3    H1 3429   1.686   2.461   0.749
 1155TIP3    H2 3430   1.638   2.435   0.608
 1156TIP3   OH2 3431   5.106   0.447   3.560
 1156TIP3    H1 3432   5.134   0.473   3.472
 1156TIP3    H2 3433   5.102   0.529   3.610
 1157TIP3   OH2 3434   0.927   2.946   1.229
 1157TIP3    H1 3435   0.951   3.022   1.175
 1157TIP3    H2 3436   1.010   2.912   1.261
 1158TIP3   OH2 3437   0.875   6.430   4.190
 1158TIP3    H1 3438   0.802   6.492   4.189
 1158TIP3    H2 3439   0.952   6.484   4.204
 1159TIP3   OH2 3440   4.725   3.693   4.241
 1159TIP3    H1 3441   4.656   3.628   4.229
 1159TIP3    H2 3442   4.806   3.643   4.229
 1160TIP3   OH2 3443   6.779   0.925   3.482
 1160TIP3    H1 3444   6.849   0.946   3.420
 1160TIP3    H2 3445   6.824   0.891   3.559
 1161TIP3   OH2 3446   4.504   0.857   5.866
 1161TIP3    H1 3447   4.423   0.823   5.903
 1161TIP3    H2 3448   4.543   0.783   5.820
 1162TIP3   OH2 3449   1.906   2.440   4.313
 1162TIP3    H1 3450   1.977   2.388   4.276
 1162TIP3    H2 3451   1.944   2.526   4.327
 1163TIP3   OH2 3452   1.828   1.904   0.327
 1163TIP3    H1 3453   1.842   1.823   0.377
 1163TIP3    H2 3454   1.734   1.921   0.335
 1164TIP3   OH2 3455   5.767   1.792   1.451
 1164TIP3    H1 3456   5.794   1.881   1.472
 1164TIP3    H2 3457   5.678   1.801   1.415
 1165TIP3   OH2 3458   4.941   0.268   1.250
 1165TIP3    H1 3459   4.944   0.251   1.344
 1165TIP3    H2 3460   4.946   0.181   1.210
 1166TIP3   OH2 3461   2.049   5.149   5.877
 1166TIP3    H1 3462   2.136   5.157   5.914
 1166TIP3    H2 3463   2.042   5.222   5.815
 1167TIP3   OH2 3464   0.647   5.392   2.073
 1167TIP3    H1 3465   0.651   5.296   2.063
 1167TIP3    H2 3466   0.724   5.413   2.127
 1168TIP3   OH2 3467   6.639   3.872   0.251
 1168TIP3    H1 3468   6.607   3.787   0.281
 1168TIP3    H2 3469   6.637   3.927   0.330
 1169TIP3   OH2 3470   5.041   2.196   5.848
 1169TIP3    H1 3471   5.123   2.162   5.883
 1169TIP3    H2 3472   4.981   2.197   5.922
 1170TIP3   OH2 3473   5.027   1.394   2.731
 1170TIP3    H1 3474   5.085   1.387   2.655
 1170TIP3    H2 3475   5.027   1.487   2.753
 1171TIP3   OH2 3476   2.350   0.733   1.424
 1171TIP3    H1 3477   2.395   0.810   1.389
 1171TIP3    H2 3478   2.413   0.661   1.413
 1172TIP3   OH2 3479   4.558   4.863   1.955
 1172TIP3    H1 3480   4.502   4.844   1.880
 1172TIP3    H2 3481   4.610   4.939   1.927
 1173TIP3   OH2 3482   5.632   5.788   4.981
 1173TIP3    H1 3483   5.589   5.757   4.902
 1173TIP3    H2 3484   5.635   5.883   4.972
 1174TIP3   OH2 3485   5.144   5.624   2.238
 1174TIP3    H1 3486   5.168   5.712   2.212
 1174TIP3    H2 3487   5.108   5.584   2.159
 1175TIP3   OH2 3488   3.167   3.421   4.985
 1175TIP3    H1 3489   3.135   3.381   4.904
 1175TIP3    H2 3490   3.210   3.350   5.031
 1176TIP3   OH2 3491   6.001   1.505   1.230
 1176TIP3    H1 3492   5.983   1.537   1.142
 1176TIP3    H2 3493   6.036   1.417   1.217
 1177TIP3   OH2 3494   1.640   3.208   0.671
 1177TIP3    H1 3495   1.602   3.279   0.722
 1177TIP3    H2 3496   1.635   3.132   0.730
 1178TIP3   OH2 3497   1.647   1.636   0.641
 1178TIP3    H1 3498   1.718   1.595   0.690
 1178TIP3    H2 3499   1.652   1.596   0.554
 1179TIP3   OH2 3500   4.740   2.838   4.797
 1179TIP3    H1 3501   4.780   2.809   4.879
 1179TIP3    H2 3502   4.660   2.882   4.823
 1180TIP3   OH2 3503   1.296   6.330   3.483
 1180TIP3    H1 3504   1.340   6.251   3.452
 1180TIP3    H2 3505   1.348   6.359   3.558
 1181TIP3   OH2 3506   4.896   2.851   4.473
 1181TIP3    H1 3507   4.803   2.864   4.494
 1181TIP3    H2 3508   4.904   2.756   4.460
 1182TIP3   OH2 3509   4.004   5.455   5.900
 1182TIP3    H1 3510   4.089   5.432   5.937
 1182TIP3    H2 3511   3.982   5.380   5.844
 1183TIP3   OH2 3512   3.677   2.926   2.796
 1183TIP3    H1 3513   3.704   2.882   2.715
 1183TIP3    H2 3514   3.650   2.855   2.853
 1184TIP3   OH2 3515   4.938   4.624   5.405
 1184TIP3    H1 3516   5.024   4.595   5.375
 1184TIP3    H2 3517   4.929   4.713   5.371
 1185TIP3   OH2 3518   6.972   6.610   2.368
 1185TIP3    H1 3519   6.999   6.621   2.277
 1185TIP3    H2 3520   6.917   6.686   2.386
 1186TIP3   OH2 3521   2.909   4.219   4.988
 1186TIP3    H1 3522   2.818   4.199   4.970
 1186TIP3    H2 3523   2.906   4.295   5.047
 1187TIP3   OH2 3524   3.167   3.571   2.268
 1187TIP3    H1 3525   3.132   3.637   2.207
 1187TIP3    H2 3526   3.180   3.494   2.214
 1188TIP3   OH2 3527   1.427   5.457   0.587
 1188TIP3    H1 3528   1.381   5.402   0.524
 1188TIP3    H2 3529   1.475   5.395   0.643
 1189TIP3   OH2 3530   0.795   1.175   1.627
 1189TIP3    H1 3531   0.870   1.219   1.586
 1189TIP3    H2 3532   0.754   1.243   1.681
 1190TIP3   OH2 3533   6.570   3.827   2.549
 1190TIP3    H1 3534   6.523   3.753   2.588
 1190TIP3    H2 3535   6.641   3.787   2.498
 1191TIP3   OH2 3536   2.673   3.970   3.199
 1191TIP3    H1 3537   2.639   3.896   3.250
 1191TIP3    H2 3538   2.600   4.031   3.193
 1192TIP3   OH2 3539   4.978   1.892   3.209
 1192TIP3    H1 3540   4.963   1.985   3.224
 1192TIP3    H2 3541   5.043   1.868   3.276
 1193TIP3   OH2 3542   3.362   5.871   5.110
 1193TIP3    H1 3543   3.428   5.872   5.040
 1193TIP3    H2 3544   3.385   5.946   5.165
 1194TIP3   OH2 3545   3.288   1.148   0.923
 1194TIP3    H1 3546   3.246   1.228   0.893
 1194TIP3    H2 3547   3.310   1.165   1.015
 1195TIP3   OH2 3548  -0.010   0.378   1.056
 1195TIP3    H1 3549   0.008   0.468   1.029
 1195TIP3    H2 3550   0.050   0.325   1.002
 1196TIP3   OH2 3551   5.435   1.269   0.933
 1196TIP3    H1 3552   5.454   1.175   0.927
 1196TIP3    H2 3553   5.463   1.305   0.849
 1197TIP3   OH2 3554   3.635   2.074   0.557
 1197TIP3    H1 3555   3.727   2.048   0.554
 1197TIP3    H2 3556   3.594   2.010   0.617
 1198TIP3   OH2 3557   0.167   2.149   1.274
 1198TIP3    H1 3558   0.121   2.207   1.213
 1198TIP3    H2 3559   0.118   2.155   1.356
 1199TIP3   OH2 3560   6.519   0.390   5.353
 1199TIP3    H1 3561   6.595   0.333   5.341
 1199TIP3    H2 3562   6.552   0.479   5.338
 1200TIP3   OH2 3563   7.080   4.929   0.770
 1200TIP3    H1 3564   6.991   4.898   0.754
 1200TIP3    H2 3565   7.129   4.849   0.791
 1201TIP3   OH2 3566   2.188   3.215   2.320
 1201TIP3    H1 3567   2.262   3.262   2.283
 1201TIP3    H2 3568   2.214   3.123   2.318
 1202TIP3   OH2 3569   2.498   2.221   1.336
 1202TIP3    H1 3570   2.558   2.288   1.370
 1202TIP3    H2 3571   2.477   2.251   1.248
 1203TIP3   OH2 3572   3.908   0.164   2.169
 1203TIP3    H1 3573   3.833   0.174   2.227
 1203TIP3    H2 3574   3.960   0.243   2.183
 1204TIP3   OH2 3575   2.549   1.955   3.403
 1204TIP3    H1 3576   2.626   1.900   3.417
 1204TIP3    H2 3577   2.583   2.033   3.359
 1205TIP3   OH2 3578   4.937   1.514   0.842
 1205TIP3    H1 3579   4.968   1.542   0.928
 1205TIP3    H2 3580   4.888   1.589   0.809
 1206TIP3   OH2 3581   1.736   0.308   2.904
 1206TIP3    H1 3582   1.672   0.334   2.838
 1206TIP3    H2 3583   1.746   0.385   2.959
 1207TIP3   OH2 3584   3.175   2.973   2.505
 1207TIP3    H1 3585   3.114   2.959   2.578
 1207TIP3    H2 3586   3.118   2.990   2.430
 1208TIP3   OH2 3587   1.127   4.133   2.416
 1208TIP3    H1 3588   1.080   4.194   2.359
 1208TIP3    H2 3589   1.077   4.052   2.412
 1209TIP3   OH2 3590   5.358   5.838   4.468
 1209TIP3    H1 3591   5.268   5.870   4.481
 1209TIP3    H2 3592   5.347   5.745   4.448
 1210TIP3   OH2 3593   0.971   1.812   1.605
 1210TIP3    H1 3594   0.917   1.870   1.550
 1210TIP3    H2 3595   1.057   1.812   1.563
 1211TIP3   OH2 3596   5.990   5.931   1.354
 1211TIP3    H1 3597   6.056   5.985   1.309
 1211TIP3    H2 3598   5.974   5.977   1.436
 1212TIP3   OH2 3599   2.193   1.077   4.019
 1212TIP3    H1 3600   2.160   1.110   3.935
 1212TIP3    H2 3601   2.278   1.038   3.998
 1213TIP3   OH2 3602   4.961   5.104   2.718
 1213TIP3    H1 3603   5.056   5.101   2.726
 1213TIP3    H2 3604   4.933   5.013   2.722
 1214TIP3   OH2 3605   0.348   1.743   5.055
 1214TIP3    H1 3606   0.352   1.834   5.084
 1214TIP3    H2 3607   0.366   1.747   4.961
 1215TIP3   OH2 3608   4.235   6.626   1.663
 1215TIP3    H1 3609   4.161   6.663   1.615
 1215TIP3    H2 3610   4.205   6.620   1.754
 1216TIP3   OH2 3611   1.769   4.425   0.351
 1216TIP3    H1 3612   1.696   4.421   0.414
 1216TIP3    H2 3613   1.811   4.509   0.369
 1217TIP3   OH2 3614   1.206   0.974   1.696
 1217TIP3    H1 3615   1.296   0.945   1.680
 1217TIP3    H2 3616   1.198   1.056   1.648
 1218TIP3   OH2 3617   3.344   4.116   1.725
 1218TIP3    H1 3618   3.298   4.051   1.778
 1218TIP3    H2 3619   3.301   4.111   1.639
 1219TIP3   OH2 3620   4.279   0.443   4.270
 1219TIP3    H1 3621   4.329   0.516   4.234
 1219TIP3    H2 3622   4.234   0.479   4.346
 1220TIP3   OH2 3623   0.996   3.414   1.339
 1220TIP3    H1 3624   1.088   3.422   1.314
 1220TIP3    H2 3625   0.991   3.336   1.394
 1221TIP3   OH2 3626   5.189   0.770   4.394
 1221TIP3    H1 3627   5.192   0.720   4.312
 1221TIP3    H2 3628   5.112   0.737   4.440
 1222TIP3   OH2 3629   3.773   1.930   1.798
 1222TIP3    H1 3630   3.723   1.972   1.729
 1222TIP3    H2 3631   3.835   1.873   1.752
 1223TIP3   OH2 3632   3.714   6.520   5.558
 1223TIP3    H1 3633   3.653   6.588   5.528
 1223TIP3    H2 3634   3.791   6.569   5.586
 1224TIP3   OH2 3635   0.994   6.443   0.858
 1224TIP3    H1 3636   0.930   6.480   0.919
 1224TIP3    H2 3637   1.005   6.353   0.887
 1225TIP3   OH2 3638   5.227   4.229   0.774
 1225TIP3    H1 3639   5.238   4.309   0.825
 1225TIP3    H2 3640   5.314   4.214   0.735
 1226TIP3   OH2 3641   5.676   1.733   3.126
 1226TIP3    H1 3642   5.728   1.665   3.169
 1226TIP3    H2 3643   5.719   1.745   3.041
 1227TIP3   OH2 3644   2.244   2.178   4.499
 1227TIP3    H1 3645   2.273   2.268   4.512
 1227TIP3    H2 3646   2.155   2.176   4.533
 1228TIP3   OH2 3647   5.722   6.426   3.930
 1228TIP3    H1 3648   5.720   6.331   3.921
 1228TIP3    H2 3649   5.749   6.457   3.844
 1229TIP3   OH2 3650   1.629   6.749   1.274
 1229TIP3    H1 3651   1.590   6.798   1.201
 1229TIP3    H2 3652   1.555   6.723   1.328
 1230TIP3   OH2 3653   5.006   2.264   4.833
 1230TIP3    H1 3654   5.049   2.191   4.878
 1230TIP3    H2 3655   4.920   2.230   4.809
 1231TIP3   OH2 3656   5.503   0.985   2.272
 1231TIP3    H1 3657   5.449   0.948   2.202
 1231TIP3    H2 3658   5.586   0.938   2.266
 1232TIP3   OH2 3659   3.550   2.796   0.537
 1232TIP3    H1 3660   3.623   2.783   0.598
 1232TIP3    H2 3661   3.496   2.718   0.548
 1233TIP3   OH2 3662   3.393   4.605   4.333
 1233TIP3    H1 3663   3.432   4.622   4.247
 1233TIP3    H2 3664   3.298   4.611   4.318
 1234TIP3   OH2 3665   1.587   1.594   5.688
 1234TIP3    H1 3666   1.519   1.545   5.734
 1234TIP3    H2 3667   1.580   1.683   5.723
 1235TIP3   OH2 3668   3.185   0.259   2.509
 1235TIP3    H1 3669   3.212   0.170   2.489
 1235TIP3    H2 3670   3.112   0.249   2.570
 1236TIP3   OH2 3671   1.216   4.851   0.567
 1236TIP3    H1 3672   1.233   4.931   0.517
 1236TIP3    H2 3673   1.127   4.825   0.541
 1237TIP3   OH2 3674   3.530   4.133   1.392
 1237TIP3    H1 3675   3.610   4.129   1.445
 1237TIP3    H2 3676   3.541   4.063   1.327
 1238TIP3   OH2 3677   6.797   0.076   1.981
 1238TIP3    H1 3678   6.865   0.143   1.983
 1238TIP3    H2 3679   6.745   0.096   1.904
 1239TIP3   OH2 3680   2.199   3.343   3.110
 1239TIP3    H1 3681   2.166   3.418   3.160
 1239TIP3    H2 3682   2.165   3.356   3.021
 1240TIP3   OH2 3683   1.916   5.491   1.949
 1240TIP3    H1 3684   1.910   5.397   1.934
 1240TIP3    H2 3685   1.843   5.529   1.901
 1241TIP3   OH2 3686   4.711   5.485   5.697
 1241TIP3    H1 3687   4.702   5.463   5.790
 1241TIP3    H2 3688   4.803   5.470   5.677
 1242TIP3   OH2 3689   2.001   3.601   1.245
 1242TIP3    H1 3690   2.067   3.659   1.207
 1242TIP3    H2 3691   1.952   3.657   1.305
 1243TIP3   OH2 3692   5.879   3.068   3.645
 1243TIP3    H1 3693   5.804   3.043   3.699
 1243TIP3    H2 3694   5.944   3.099   3.707
 1244TIP3   OH2 3695   2.629   2.925   2.537
 1244TIP3    H1 3696   2.628   2.872   2.616
 1244TIP3    H2 3697   2.539   2.957   2.528
 1245TIP3   OH2 3698   6.916   6.308   5.189
 1245TIP3    H1 3699   6.998   6.358   5.192
 1245TIP3    H2 3700   6.856   6.357   5.245
 1246TIP3   OH2 3701   2.362   0.725   4.128
 1246TIP3    H1 3702   2.281   0.750   4.173
 1246TIP3    H2 3703   2.343   0.740   4.035
 1247TIP3   OH2 3704   1.420   0.888   2.480
 1247TIP3    H1 3705   1.409   0.945   2.556
 1247TIP3    H2 3706   1.391   0.942   2.406
 1248TIP3   OH2 3707   2.237   3.116   5.007
 1248TIP3    H1 3708   2.249   3.156   4.921
 1248TIP3    H2 3709   2.146   3.137   5.030
 1249TIP3   OH2 3710   5.858   2.609   0.875
 1249TIP3    H1 3711   5.909   2.690   0.881
 1249TIP3    H2 3712   5.774   2.637   0.839
 1250TIP3   OH2 3713   5.745   6.044   1.861
 1250TIP3    H1 3714   5.730   5.951   1.878
 1250TIP3    H2 3715   5.659   6.078   1.836
 1251TIP3   OH2 3716   4.837   3.711   0.072
 1251TIP3    H1 3717   4.909   3.658   0.038
 1251TIP3    H2 3718   4.766   3.648   0.086
 1252TIP3   OH2 3719   2.983   2.398   2.872
 1252TIP3    H1 3720   3.032   2.345   2.935
 1252TIP3    H2 3721   2.961   2.478   2.921
 1253TIP3   OH2 3722   5.306   0.737   1.199
 1253TIP3    H1 3723   5.248   0.737   1.122
 1253TIP3    H2 3724   5.359   0.816   1.189
 1254TIP3   OH2 3725   1.873   3.795   1.371
 1254TIP3    H1 3726   1.790   3.786   1.417
 1254TIP3    H2 3727   1.859   3.869   1.312
 1255TIP3   OH2 3728   3.584   5.683   2.563
 1255TIP3    H1 3729   3.530   5.756   2.595
 1255TIP3    H2 3730   3.522   5.610   2.554
 1256TIP3   OH2 3731   7.018   0.118   4.030
 1256TIP3    H1 3732   7.007   0.038   4.081
 1256TIP3    H2 3733   7.084   0.169   4.078
 1257TIP3   OH2 3734   5.125   0.685   0.981
 1257TIP3    H1 3735   5.163   0.674   0.894
 1257TIP3    H2 3736   5.039   0.723   0.965
 1258TIP3   OH2 3737   2.280   2.395   0.186
 1258TIP3    H1 3738   2.291   2.357   0.099
 1258TIP3    H2 3739   2.365   2.383   0.229
 1259TIP3   OH2 3740   2.489   4.073   2.860
 1259TIP3    H1 3741   2.519   3.982   2.863
 1259TIP3    H2 3742   2.436   4.084   2.938
 1260TIP3   OH2 3743   0.654   3.304   4.473
 1260TIP3    H1 3744   0.604   3.225   4.491
 1260TIP3    H2 3745   0.645   3.356   4.553
 1261TIP3   OH2 3746   4.724   3.127   2.100
 1261TIP3    H1 3747   4.780   3.109   2.176
 1261TIP3    H2 3748   4.778   3.183   2.044
 1262TIP3   OH2 3749   3.670   2.398   2.955
 1262TIP3    H1 3750   3.637   2.438   3.036
 1262TIP3    H2 3751   3.765   2.397   2.966
 1263TIP3   OH2 3752   5.843   4.015   3.173
 1263TIP3    H1 3753   5.765   4.070   3.176
 1263TIP3    H2 3754   5.852   3.982   3.263
 1264TIP3   OH2 3755   2.710   2.444   0.072
 1264TIP3    H1 3756   2.726   2.512   0.138
 1264TIP3    H2 3757   2.760   2.472  -0.005
 1265TIP3   OH2 3758   6.786   5.503   4.290
 1265TIP3    H1 3759   6.725   5.539   4.225
 1265TIP3    H2 3760   6.782   5.408   4.276
 1266TIP3   OH2 3761   5.422   2.592   5.667
 1266TIP3    H1 3762   5.388   2.647   5.738
 1266TIP3    H2 3763   5.456   2.515   5.711
 1267TIP3   OH2 3764   4.851   0.668   3.361
 1267TIP3    H1 3765   4.792   0.595   3.345
 1267TIP3    H2 3766   4.799   0.730   3.412
 1268TIP3   OH2 3767   0.583   3.396   3.802
 1268TIP3    H1 3768   0.667   3.365   3.835
 1268TIP3    H2 3769   0.530   3.317   3.793
 1269TIP3   OH2 3770   3.404   0.371   4.456
 1269TIP3    H1 3771   3.357   0.399   4.378
 1269TIP3    H2 3772   3.335   0.347   4.518
 1270TIP3   OH2 3773   1.474   5.860   4.849
 1270TIP3    H1 3774   1.406   5.823   4.906
 1270TIP3    H2 3775   1.471   5.954   4.865
 1271TIP3   OH2 3776   1.175   2.154   5.265
 1271TIP3    H1 3777   1.086   2.122   5.278
 1271TIP3    H2 3778   1.165   2.249   5.254
 1272TIP3   OH2 3779   5.306   6.165   5.508
 1272TIP3    H1 3780   5.255   6.246   5.515
 1272TIP3    H2 3781   5.380   6.189   5.452
 1273TIP3   OH2 3782   3.548   5.052   3.066
 1273TIP3    H1 3783   3.505   4.994   3.003
 1273TIP3    H2 3784   3.554   5.000   3.146
 1274TIP3   OH2 3785   0.075   5.039   4.643
 1274TIP3    H1 3786   0.128   5.118   4.633
 1274TIP3    H2 3787   0.003   5.051   4.580
 1275TIP3   OH2 3788   2.004   6.404   1.574
 1275TIP3    H1 3789   2.042   6.334   1.626
 1275TIP3    H2 3790   2.069   6.474   1.577
 1276TIP3   OH2 3791   0.031   0.610   0.930
 1276TIP3    H1 3792  -0.050   0.640   0.888
 1276TIP3    H2 3793   0.100   0.638   0.870
 1277TIP3   OH2 3794   0.543   6.064   2.065
 1277TIP3    H1 3795   0.616   6.062   2.003
 1277TIP3    H2 3796   0.464   6.061   2.011
 1278TIP3   OH2 3797   3.316   2.186   0.422
 1278TIP3    H1 3798   3.374   2.207   0.495
 1278TIP3    H2 3799   3.315   2.265   0.368
 1279TIP3   OH2 3800   1.502  -0.020   4.710
 1279TIP3    H1 3801   1.419   0.011   4.746
 1279TIP3    H2 3802   1.562  -0.017   4.784
 1280TIP3   OH2 3803   0.129   5.541   3.112
 1280TIP3    H1 3804   0.090   5.627   3.100
 1280TIP3    H2 3805   0.187   5.551   3.188
 1281TIP3   OH2 3806   6.633   6.324   5.787
 1281TIP3    H1 3807   6.584   6.302   5.866
 1281TIP3    H2 3808   6.696   6.390   5.816
 1282TIP3   OH2 3809   6.231   0.051   4.946
 1282TIP3    H1 3810   6.166   0.120   4.941
 1282TIP3    H2 3811   6.230   0.024   5.038
 1283TIP3   OH2 3812   0.974   2.176   0.337
 1283TIP3    H1 3813   1.002   2.148   0.249
 1283TIP3    H2 3814   0.901   2.118   0.358
 1284TIP3   OH2 3815   2.625   3.191   3.059
 1284TIP3    H1 3816   2.604   3.134   3.133
 1284TIP3    H2 3817   2.550   3.249   3.051
 1285TIP3   OH2 3818   5.652   2.213   1.216
 1285TIP3    H1 3819   5.704   2.289   1.242
 1285TIP3    H2 3820   5.717   2.146   1.195
 1286TIP3   OH2 3821   0.263   4.923   0.649
 1286TIP3    H1 3822   0.359   4.919   0.647
 1286TIP3    H2 3823   0.240   4.899   0.738
 1287TIP3   OH2 3824   1.803   6.189   4.977
 1287TIP3    H1 3825   1.827   6.129   4.906
 1287TIP3    H2 3826   1.788   6.132   5.052
 1288TIP3   OH2 3827   4.313   4.562   2.894
 1288TIP3    H1 3828   4.350   4.650   2.901
 1288TIP3    H2 3829   4.228   4.576   2.852
 1289TIP3   OH2 3830   1.777   1.600   0.998
 1289TIP3    H1 3831   1.772   1.687   0.960
 1289TIP3    H2 3832   1.842   1.553   0.946
 1290TIP3   OH2 3833   1.712   0.044   5.139
 1290TIP3    H1 3834   1.620   0.019   5.144
 1290TIP3    H2 3835   1.724   0.101   5.215
 1291TIP3   OH2 3836   1.782   6.769   4.951
 1291TIP3    H1 3837   1.696   6.728   4.939
 1291TIP3    H2 3838   1.773   6.817   5.034
 1292TIP3   OH2 3839   2.473   0.335   2.345
 1292TIP3    H1 3840   2.489   0.376   2.260
 1292TIP3    H2 3841   2.378   0.329   2.352
 1293TIP3   OH2 3842   1.358   6.367   2.126
 1293TIP3    H1 3843   1.453   6.371   2.136
 1293TIP3    H2 3844   1.338   6.434   2.061
 1294TIP3   OH2 3845   4.154   2.124   0.382
 1294TIP3    H1 3846   4.140   2.189   0.451
 1294TIP3    H2 3847   4.240   2.087   0.400
 1295TIP3   OH2 3848   0.414   4.498   4.557
 1295TIP3    H1 3849   0.396   4.508   4.463
 1295TIP3    H2 3850   0.427   4.404   4.569
 1296TIP3   OH2 3851   0.114   5.391   3.592
 1296TIP3    H1 3852   0.109   5.470   3.538
 1296TIP3    H2 3853   0.091   5.320   3.532
 1297TIP3   OH2 3854   2.801   1.653   5.502
 1297TIP3    H1 3855   2.779   1.562   5.479
 1297TIP3    H2 3856   2.885   1.669   5.458
 1298TIP3   OH2 3857   6.485   3.740   5.714
 1298TIP3    H1 3858   6.536   3.685   5.774
 1298TIP3    H2 3859   6.403   3.692   5.702
 1299TIP3   OH2 3860   7.131   3.600   5.869
 1299TIP3    H1 3861   7.210   3.592   5.814
 1299TIP3    H2 3862   7.092   3.513   5.867
 1300TIP3   OH2 3863   0.374   5.083   3.097
 1300TIP3    H1 3864   0.463   5.099   3.064
 1300TIP3    H2 3865   0.345   5.005   3.051
 1301TIP3   OH2 3866   1.760   4.213   4.775
 1301TIP3    H1 3867   1.702   4.145   4.741
 1301TIP3    H2 3868   1.712   4.295   4.765
 1302TIP3   OH2 3869   3.318   5.072   5.204
 1302TIP3    H1 3870   3.233   5.045   5.239
 1302TIP3    H2 3871   3.297   5.109   5.118
 1303TIP3   OH2 3872   6.357   1.753   2.642
 1303TIP3    H1 3873   6.359   1.707   2.558
 1303TIP3    H2 3874   6.272   1.731   2.680
 1304TIP3   OH2 3875   6.923   6.410   0.401
 1304TIP3    H1 3876   6.867   6.412   0.478
 1304TIP3    H2 3877   6.864   6.421   0.327
 1305TIP3   OH2 3878   0.912   1.544   4.186
 1305TIP3    H1 3879   0.852   1.579   4.252
 1305TIP3    H2 3880   0.970   1.617   4.164
 1306TIP3   OH2 3881   6.046   1.397   0.848
 1306TIP3    H1 3882   6.137   1.376   0.827
 1306TIP3    H2 3883   6.007   1.314   0.874
 1307TIP3   OH2 3884   4.658   0.268   3.167
 1307TIP3    H1 3885   4.722   0.283   3.236
 1307TIP3    H2 3886   4.630   0.177   3.180
 1308TIP3   OH2 3887   4.474   3.005   1.846
 1308TIP3    H1 3888   4.520   2.956   1.915
 1308TIP3    H2 3889   4.468   2.943   1.774
 1309TIP3   OH2 3890   1.598   3.375   3.240
 1309TIP3    H1 3891   1.523   3.315   3.231
 1309TIP3    H2 3892   1.558   3.461   3.246
 1310TIP3   OH2 3893   1.676   4.195   0.621
 1310TIP3    H1 3894   1.734   4.271   0.635
 1310TIP3    H2 3895   1.596   4.233   0.585
 1311TIP3   OH2 3896   2.575   4.169   5.450
 1311TIP3    H1 3897   2.515   4.106   5.408
 1311TIP3    H2 3898   2.662   4.134   5.433
 1312TIP3   OH2 3899   5.173   2.873   0.965
 1312TIP3    H1 3900   5.143   2.962   0.951
 1312TIP3    H2 3901   5.266   2.875   0.943
 1313TIP3   OH2 3902   1.903   3.320   4.634
 1313TIP3    H1 3903   1.812   3.335   4.608
 1313TIP3    H2 3904   1.907   3.227   4.655
 1314TIP3   OH2 3905   2.594   2.523   2.594
 1314TIP3    H1 3906   2.628   2.436   2.615
 1314TIP3    H2 3907   2.651   2.555   2.524
 1315TIP3   OH2 3908   2.252   6.393   1.315
 1315TIP3    H1 3909   2.308   6.454   1.362
 1315TIP3    H2 3910   2.165   6.433   1.317
 1316TIP3   OH2 3911   5.188   4.767   5.106
 1316TIP3    H1 3912   5.247   4.772   5.031
 1316TIP3    H2 3913   5.177   4.673   5.122
 1317TIP3   OH2 3914   0.944   3.630   2.950
 1317TIP3    H1 3915   0.958   3.552   2.895
 1317TIP3    H2 3916   1.027   3.643   2.995
 1318TIP3   OH2 3917   3.340   1.206   5.905
 1318TIP3    H1 3918   3.431   1.227   5.883
 1318TIP3    H2 3919   3.295   1.290   5.904
 1319TIP3   OH2 3920   0.060   2.461   1.636
 1319TIP3    H1 3921   0.088   2.372   1.654
 1319TIP3    H2 3922   0.025   2.458   1.547
 1320TIP3   OH2 3923   1.157   2.158   2.326
 1320TIP3    H1 3924   1.096   2.111   2.269
 1320TIP3    H2 3925   1.222   2.093   2.351
 1321TIP3   OH2 3926   3.744   0.754   1.061
 1321TIP3    H1 3927   3.730   0.721   1.150
 1321TIP3    H2 3928   3.709   0.685   1.004
 1322TIP3   OH2 3929   3.372   5.867   2.611
 1322TIP3    H1 3930   3.376   5.911   2.527
 1322TIP3    H2 3931   3.393   5.935   2.675
 1323TIP3   OH2 3932   5.322   3.489   2.003
 1323TIP3    H1 3933   5.379   3.434   2.057
 1323TIP3    H2 3934   5.359   3.578   2.012
 1324TIP3   OH2 3935   2.140   4.714   1.181
 1324TIP3    H1 3936   2.044   4.714   1.178
 1324TIP3    H2 3937   2.162   4.652   1.251
 1325TIP3   OH2 3938   6.402   5.239   3.047
 1325TIP3    H1 3939   6.329   5.287   3.009
 1325TIP3    H2 3940   6.479   5.290   3.023
 1326TIP3   OH2 3941   5.927   0.887   0.767
 1326TIP3    H1 3942   5.869   0.885   0.843
 1326TIP3    H2 3943   5.875   0.849   0.696
 1327TIP3   OH2 3944   5.256   6.340   4.197
 1327TIP3    H1 3945   5.299   6.404   4.254
 1327TIP3    H2 3946   5.167   6.334   4.230
 1328TIP3   OH2 3947   0.268   2.353   2.863
 1328TIP3    H1 3948   0.287   2.385   2.775
 1328TIP3    H2 3949   0.241   2.262   2.851
 1329TIP3   OH2 3950   6.526   6.714   5.460
 1329TIP3    H1 3951   6.562   6.801   5.445
 1329TIP3    H2 3952   6.601   6.661   5.488
 1330TIP3   OH2 3953   2.830   4.605   1.967
 1330TIP3    H1 3954   2.752   4.635   2.014
 1330TIP3    H2 3955   2.875   4.685   1.940
 1331TIP3   OH2 3956   2.148   6.741   3.691
 1331TIP3    H1 3957   2.146   6.671   3.756
 1331TIP3    H2 3958   2.184   6.700   3.612
 1332TIP3   OH2 3959   4.190   5.981   1.242
 1332TIP3    H1 3960   4.118   5.968   1.180
 1332TIP3    H2 3961   4.211   6.074   1.234
 1333TIP3   OH2 3962   1.834   0.724   1.476
 1333TIP3    H1 3963   1.898   0.794   1.467
 1333TIP3    H2 3964   1.778   0.751   1.548
 1334TIP3   OH2 3965   2.897   4.471   5.121
 1334TIP3    H1 3966   2.850   4.536   5.069
 1334TIP3    H2 3967   2.983   4.510   5.135
 1335TIP3   OH2 3968   0.505   4.614   4.994
 1335TIP3    H1 3969   0.592   4.654   4.995
 1335TIP3    H2 3970   0.503   4.558   5.071
 1336TIP3   OH2 3971   1.871   4.078   3.259
 1336TIP3    H1 3972   1.858   3.988   3.228
 1336TIP3    H2 3973   1.961   4.099   3.234
 1337TIP3   OH2 3974   7.183   2.086   0.210
 1337TIP3    H1 3975   7.090   2.065   0.223
 1337TIP3    H2 3976   7.223   2.001   0.190
 1338TIP3   OH2 3977   2.450   5.789   3.513
 1338TIP3    H1 3978   2.416   5.791   3.423
 1338TIP3    H2 3979   2.426   5.875   3.549
 1339TIP3   OH2 3980   2.918   4.295   3.533
 1339TIP3    H1 3981   2.993   4.342   3.496
 1339TIP3    H2 3982   2.841   4.336   3.493
 1340TIP3   OH2 3983   1.104   2.473   3.506
 1340TIP3    H1 3984   1.172   2.424   3.551
 1340TIP3    H2 3985   1.139   2.488   3.418
 1341TIP3   OH2 3986   1.691   3.059   1.381
 1341TIP3    H1 3987   1.700   3.108   1.463
 1341TIP3    H2 3988   1.758   2.991   1.387
 1342TIP3   OH2 3989   3.162   0.807   1.532
 1342TIP3    H1 3990   3.252   0.775   1.540
 1342TIP3    H2 3991   3.141   0.842   1.619
 1343TIP3   OH2 3992   6.910   0.857   1.736
 1343TIP3    H1 3993   6.889   0.786   1.676
 1343TIP3    H2 3994   6.860   0.932   1.702
 1344TIP3   OH2 3995   6.578   4.772   3.598
 1344TIP3    H1 3996   6.509   4.746   3.537
 1344TIP3    H2 3997   6.596   4.864   3.578
 1345TIP3   OH2 3998   6.887   3.847   5.637
 1345TIP3    H1 3999   6.932   3.882   5.560
 1345TIP3    H2 4000   6.809   3.805   5.602
 1346TIP3   OH2 4001   2.489   3.830   0.477
 1346TIP3    H1 4002   2.512   3.745   0.441
 1346TIP3    H2 4003   2.555   3.846   0.545
 1347TIP3   OH2 4004   5.002   0.513   0.605
 1347TIP3    H1 4005   4.955   0.452   0.662
 1347TIP3    H2 4006   4.954   0.511   0.522
 1348TIP3   OH2 4007   1.676   1.332   0.680
 1348TIP3    H1 4008   1.661   1.251   0.729
 1348TIP3    H2 4009   1.626   1.321   0.599
 1349TIP3   OH2 4010   3.865   4.586   2.616
 1349TIP3    H1 4011   3.914   4.653   2.569
 1349TIP3    H2 4012   3.800   4.634   2.667
 1350TIP3   OH2 4013   3.249   1.196   3.872
 1350TIP3    H1 4014   3.271   1.213   3.780
 1350TIP3    H2 4015   3.257   1.281   3.914
 1351TIP3   OH2 4016   5.280   0.532   0.146
 1351TIP3    H1 4017   5.233   0.483   0.213
 1351TIP3    H2 4018   5.217   0.597   0.116
 1352TIP3   OH2 4019   2.572   6.151   2.189
 1352TIP3    H1 4020   2.653   6.116   2.152
 1352TIP3    H2 4021   2.602   6.209   2.260
 1353TIP3   OH2 4022   0.215   1.841   0.097
 1353TIP3    H1 4023   0.263   1.759   0.108
 1353TIP3    H2 4024   0.234   1.868   0.007
 1354TIP3   OH2 4025   4.332   1.577   2.186
 1354TIP3    H1 4026   4.252   1.631   2.184
 1354TIP3    H2 4027   4.329   1.535   2.272
 1355TIP3   OH2 4028   4.898   2.398   2.357
 1355TIP3    H1 4029   4.913   2.304   2.357
 1355TIP3    H2 4030   4.985   2.436   2.344
 1356TIP3   OH2 4031   5.622   5.370   4.299
 1356TIP3    H1 4032   5.610   5.301   4.365
 1356TIP3    H2 4033   5.707   5.409   4.320
 1357TIP3   OH2 4034   0.364   1.609   5.566
 1357TIP3    H1 4035   0.306   1.644   5.498
 1357TIP3    H2 4036   0.450   1.642   5.544
 1358TIP3   OH2 4037   1.963   5.693   1.287
 1358TIP3    H1 4038   1.997   5.728   1.369
 1358TIP3    H2 4039   2.037   5.696   1.226
 1359TIP3   OH2 4040   2.230   3.041   3.182
 1359TIP3    H1 4041   2.311   3.031   3.132
 1359TIP3    H2 4042   2.211   3.135   3.178
 1360TIP3   OH2 4043   4.519   1.644   3.217
 1360TIP3    H1 4044   4.470   1.568   3.247
 1360TIP3    H2 4045   4.611   1.622   3.234
 1361TIP3   OH2 4046   6.211   1.468   3.254
 1361TIP3    H1 4047   6.178   1.546   3.300
 1361TIP3    H2 4048   6.278   1.503   3.194
 1362TIP3   OH2 4049   2.597   3.293   4.170
 1362TIP3    H1 4050   2.635   3.262   4.252
 1362TIP3    H2 4051   2.530   3.228   4.148
 1363TIP3   OH2 4052   0.583   1.283   3.541
 1363TIP3    H1 4053   0.535   1.364   3.553
 1363TIP3    H2 4054   0.587   1.270   3.446
 1364TIP3   OH2 4055   0.296   4.471   4.866
 1364TIP3    H1 4056   0.342   4.443   4.787
 1364TIP3    H2 4057   0.361   4.524   4.914
 1365TIP3   OH2 4058   1.311   1.511   1.679
 1365TIP3    H1 4059   1.280   1.475   1.596
 1365TIP3    H2 4060   1.373   1.446   1.711
 1366TIP3   OH2 4061   4.086   3.895   0.086
 1366TIP3    H1 4062   4.048   3.978   0.060
 1366TIP3    H2 4063   4.165   3.919   0.136
 1367TIP3   OH2 4064   2.226   5.430   2.731
 1367TIP3    H1 4065   2.146   5.480   2.716
 1367TIP3    H2 4066   2.297   5.490   2.710
 1368TIP3   OH2 4067   1.101   5.152   0.723
 1368TIP3    H1 4068   1.076   5.244   0.715
 1368TIP3    H2 4069   1.196   5.154   0.739
 1369TIP3   OH2 4070   3.734   5.327   1.011
 1369TIP3    H1 4071   3.739   5.417   1.045
 1369TIP3    H2 4072   3.803   5.323   0.945
 1370TIP3   OH2 4073   2.435   2.900   2.969
 1370TIP3    H1 4074   2.395   2.978   2.929
 1370TIP3    H2 4075   2.476   2.854   2.896
 1371TIP3   OH2 4076   6.677   0.644   5.081
 1371TIP3    H1 4077   6.642   0.629   5.169
 1371TIP3    H2 4078   6.606   0.686   5.033
 1372TIP3   OH2 4079   3.919   4.199   0.877
 1372TIP3    H1 4080   3.909   4.254   0.955
 1372TIP3    H2 4081   3.834   4.154   0.869
 1373TIP3   OH2 4082   0.515   0.743   4.637
 1373TIP3    H1 4083   0.544   0.746   4.546
 1373TIP3    H2 4084   0.461   0.821   4.648
 1374TIP3   OH2 4085   7.021   3.858   5.884
 1374TIP3    H1 4086   6.984   3.860   5.795
 1374TIP3    H2 4087   7.057   3.770   5.892
 1375TIP3   OH2 4088   6.182   1.777   0.914
 1375TIP3    H1 4089   6.186   1.725   0.834
 1375TIP3    H2 4090   6.094   1.815   0.914
 1376TIP3   OH2 4091   0.964   4.879   3.263
 1376TIP3    H1 4092   1.042   4.920   3.300
 1376TIP3    H2 4093   0.912   4.854   3.339
 1377TIP3   OH2 4094   4.893   1.159   2.801
 1377TIP3    H1 4095   4.945   1.098   2.749
 1377TIP3    H2 4096   4.906   1.244   2.758
 1378TIP3   OH2 4097   0.062  -0.018   1.326
 1378TIP3    H1 4098  -0.005   0.039   1.288
 1378TIP3    H2 4099   0.134   0.041   1.349
 1379TIP3   OH2 4100   2.629   4.756   0.332
 1379TIP3    H1 4101   2.674   4.672   0.324
 1379TIP3    H2 4102   2.698   4.818   0.357
 1380TIP3   OH2 4103   5.359   3.351   4.330
 1380TIP3    H1 4104   5.337   3.369   4.421
 1380TIP3    H2 4105   5.454   3.339   4.330
 1381TIP3   OH2 4106   5.813   2.801   2.000
 1381TIP3    H1 4107   5.852   2.754   1.926
 1381TIP3    H2 4108   5.835   2.893   1.984
 1382TIP3   OH2 4109   4.067   1.694   2.229
 1382TIP3    H1 4110   4.002   1.703   2.159
 1382TIP3    H2 4111   4.022   1.644   2.297
 1383TIP3   OH2 4112   2.692   6.707   1.421
 1383TIP3    H1 4113   2.751   6.664   1.359
 1383TIP3    H2 4114   2.701   6.657   1.502
 1384TIP3   OH2 4115   5.382   2.778   0.242
 1384TIP3    H1 4116   5.456   2.763   0.301
 1384TIP3    H2 4117   5.346   2.863   0.270
 1385TIP3   OH2 4118   2.512   5.307   2.147
 1385TIP3    H1 4119   2.570   5.293   2.221
 1385TIP3    H2 4120   2.542   5.389   2.108
 1386TIP3   OH2 4121   4.050   2.048   0.980
 1386TIP3    H1 4122   4.034   2.121   1.040
 1386TIP3    H2 4123   4.127   2.003   1.016
 1387TIP3   OH2 4124   0.522   2.650   1.318
 1387TIP3    H1 4125   0.484   2.636   1.231
 1387TIP3    H2 4126   0.447   2.662   1.375
 1388TIP3   OH2 4127   0.466   1.210   4.114
 1388TIP3    H1 4128   0.473   1.220   4.209
 1388TIP3    H2 4129   0.474   1.116   4.099
 1389TIP3   OH2 4130   1.752   2.342   1.557
 1389TIP3    H1 4131   1.810   2.330   1.481
 1389TIP3    H2 4132   1.748   2.255   1.597
 1390TIP3   OH2 4133   3.573   4.110   3.647
 1390TIP3    H1 4134   3.643   4.045   3.654
 1390TIP3    H2 4135   3.604   4.185   3.698
 1391TIP3   OH2 4136   2.111   2.912   2.353
 1391TIP3    H1 4137   2.072   2.964   2.283
 1391TIP3    H2 4138   2.037   2.877   2.402
 1392TIP3   OH2 4139   6.186   1.183   4.398
 1392TIP3    H1 4140   6.246   1.183   4.324
 1392TIP3    H2 4141   6.123   1.114   4.378
 1393TIP3   OH2 4142   2.669   3.676   4.387
 1393TIP3    H1 4143   2.747   3.677   4.330
 1393TIP3    H2 4144   2.607   3.619   4.342
 1394TIP3   OH2 4145   6.240   2.955   1.886
 1394TIP3    H1 4146   6.285   2.900   1.822
 1394TIP3    H2 4147   6.211   2.894   1.954
 1395TIP3   OH2 4148   6.577   1.976   2.324
 1395TIP3    H1 4149   6.506   2.038   2.309
 1395TIP3    H2 4150   6.557   1.902   2.265
 1396TIP3   OH2 4151   7.182   2.930   5.663
 1396TIP3    H1 4152   7.203   2.870   5.735
 1396TIP3    H2 4153   7.265   2.941   5.616
 1397TIP3   OH2 4154   5.080   1.971   2.202
 1397TIP3    H1 4155   5.160   2.001   2.159
 1397TIP3    H2 4156   5.111   1.908   2.268
 1398TIP3   OH2 4157   6.390   2.253   1.778
 1398TIP3    H1 4158   6.350   2.308   1.711
 1398TIP3    H2 4159   6.413   2.173   1.732
 1399TIP3   OH2 4160   2.064   2.329   2.069
 1399TIP3    H1 4161   2.047   2.351   2.161
 1399TIP3    H2 4162   2.144   2.278   2.070
 1400TIP3   OH2 4163   3.256   6.068   3.021
 1400TIP3    H1 4164   3.322   6.115   2.969
 1400TIP3    H2 4165   3.306   6.021   3.087
 1401TIP3   OH2 4166   4.464   0.747   2.849
 1401TIP3    H1 4167   4.442   0.720   2.938
 1401TIP3    H2 4168   4.386   0.794   2.819
 1402TIP3   OH2 4169   6.923   4.684   4.514
 1402TIP3    H1 4170   6.870   4.738   4.454
 1402TIP3    H2 4171   6.979   4.632   4.456
 1403TIP3   OH2 4172   3.553   6.637   0.610
 1403TIP3    H1 4173   3.648   6.634   0.608
 1403TIP3    H2 4174   3.529   6.700   0.542
 1404TIP3   OH2 4175   5.000   0.687   4.570
 1404TIP3    H1 4176   4.960   0.602   4.552
 1404TIP3    H2 4177   4.927   0.749   4.571
 1405TIP3   OH2 4178   6.991   5.765   0.361
 1405TIP3    H1 4179   6.898   5.755   0.379
 1405TIP3    H2 4180   7.030   5.683   0.391
 1406TIP3   OH2 4181   0.285   0.972   2.086
 1406TIP3    H1 4182   0.254   0.905   2.026
 1406TIP3    H2 4183   0.324   1.039   2.029
 1407TIP3   OH2 4184   1.988   2.082   2.231
 1407TIP3    H1 4185   1.975   2.009   2.292
 1407TIP3    H2 4186   2.055   2.051   2.170
 1408TIP3   OH2 4187   4.978   2.613   4.597
 1408TIP3    H1 4188   5.037   2.653   4.661
 1408TIP3    H2 4189   4.893   2.610   4.641
 1409TIP3   OH2 4190   1.905   5.839   2.370
 1409TIP3    H1 4191   1.827   5.868   2.418
 1409TIP3    H2 4192   1.872   5.774   2.308
 1410TIP3   OH2 4193   4.281   6.630   1.326
 1410TIP3    H1 4194   4.292   6.679   1.245
 1410TIP3    H2 4195   4.188   6.638   1.346
 1411TIP3   OH2 4196   3.861   6.751   0.184
 1411TIP3    H1 4197   3.916   6.720   0.256
 1411TIP3    H2 4198   3.867   6.846   0.189
 1412TIP3   OH2 4199   6.356   6.365   2.131
 1412TIP3    H1 4200   6.445   6.396   2.118
 1412TIP3    H2 4201   6.303   6.445   2.134
 1413TIP3   OH2 4202   5.036   0.765   5.755
 1413TIP3    H1 4203   5.002   0.681   5.725
 1413TIP3    H2 4204   4.991   0.830   5.700
 1414TIP3   OH2 4205   1.722   2.741   4.160
 1414TIP3    H1 4206   1.770   2.753   4.242
 1414TIP3    H2 4207   1.788   2.758   4.092
 1415TIP3   OH2 4208   1.057   2.207   1.238
 1415TIP3    H1 4209   1.085   2.291   1.201
 1415TIP3    H2 4210   0.989   2.175   1.179
 1416TIP3   OH2 4211   1.070   2.120   3.530
 1416TIP3    H1 4212   1.031   2.043   3.489
 1416TIP3    H2 4213   0.996   2.167   3.568
 1417TIP3   OH2 4214   7.167   5.212   5.445
 1417TIP3    H1 4215   7.117   5.179   5.370
 1417TIP3    H2 4216   7.251   5.166   5.440
 1418TIP3   OH2 4217   3.215   5.238   3.390
 1418TIP3    H1 4218   3.229   5.285   3.472
 1418TIP3    H2 4219   3.293   5.183   3.380
 1419TIP3   OH2 4220   3.015   3.636   4.704
 1419TIP3    H1 4221   3.024   3.685   4.786
 1419TIP3    H2 4222   3.005   3.545   4.732
 1420TIP3   OH2 4223   0.692   0.976   5.361
 1420TIP3    H1 4224   0.633   0.907   5.390
 1420TIP3    H2 4225   0.688   0.973   5.266
 1421TIP3   OH2 4226   4.733   4.468   5.851
 1421TIP3    H1 4227   4.658   4.412   5.830
 1421TIP3    H2 4228   4.709   4.513   5.932
 1422TIP3   OH2 4229   5.432   4.925   3.233
 1422TIP3    H1 4230   5.438   4.878   3.150
 1422TIP3    H2 4231   5.348   4.971   3.229
 1423TIP3   OH2 4232   4.932   3.162   0.654
 1423TIP3    H1 4233   4.945   3.230   0.720
 1423TIP3    H2 4234   4.903   3.209   0.576
 1424TIP3   OH2 4235   1.925   6.376   5.147
 1424TIP3    H1 4236   1.909   6.299   5.092
 1424TIP3    H2 4237   1.998   6.421   5.105
 1425TIP3   OH2 4238   1.951   5.615   0.571
 1425TIP3    H1 4239   1.928   5.692   0.519
 1425TIP3    H2 4240   1.933   5.642   0.661
 1426TIP3   OH2 4241   4.268   1.291   0.790
 1426TIP3    H1 4242   4.175   1.297   0.812
 1426TIP3    H2 4243   4.270   1.269   0.697
 1427TIP3   OH2 4244   5.486   0.190   4.074
 1427TIP3    H1 4245   5.529   0.140   4.144
 1427TIP3    H2 4246   5.447   0.124   4.018
 1428TIP3   OH2 4247   0.188   2.170   3.399
 1428TIP3    H1 4248   0.122   2.101   3.395
 1428TIP3    H2 4249   0.231   2.168   3.314
 1429TIP3   OH2 4250   5.899   4.646   3.576
 1429TIP3    H1 4251   5.818   4.696   3.580
 1429TIP3    H2 4252   5.961   4.703   3.531
 1430TIP3   OH2 4253   1.099   2.523   2.242
 1430TIP3    H1 4254   1.118   2.610   2.278
 1430TIP3    H2 4255   1.155   2.464   2.292
 1431TIP3   OH2 4256   5.443   2.013   2.234
 1431TIP3    H1 4257   5.434   1.918   2.238
 1431TIP3    H2 4258   5.438   2.041   2.325
 1432TIP3   OH2 4259   6.035   2.101   4.823
 1432TIP3    H1 4260   5.972   2.042   4.781
 1432TIP3    H2 4261   5.985   2.142   4.894
 1433TIP3   OH2 4262   5.366   0.378   3.158
 1433TIP3    H1 4263   5.305   0.434   3.110
 1433TIP3    H2 4264   5.449   0.388   3.112
 1434TIP3   OH2 4265   3.909   2.290   4.065
 1434TIP3    H1 4266   3.978   2.268   4.002
 1434TIP3    H2 4267   3.838   2.230   4.044
 1435TIP3   OH2 4268   1.768   4.491   2.211
 1435TIP3    H1 4269   1.764   4.514   2.118
 1435TIP3    H2 4270   1.716   4.411   2.218
 1436TIP3   OH2 4271   3.674   4.009   2.954
 1436TIP3    H1 4272   3.669   3.914   2.962
 1436TIP3    H2 4273   3.656   4.026   2.862
 1437TIP3   OH2 4274   5.673   2.685   2.536
 1437TIP3    H1 4275   5.692   2.751   2.470
 1437TIP3    H2 4276   5.755   2.675   2.585
 1438TIP3   OH2 4277   0.242   0.579   0.093
 1438TIP3    H1 4278   0.216   0.642   0.026
 1438TIP3    H2 4279   0.261   0.633   0.170
 1439TIP3   OH2 4280   1.843   0.123   5.863
 1439TIP3    H1 4281   1.778   0.188   5.836
 1439TIP3    H2 4282   1.919   0.174   5.890
 1440TIP3   OH2 4283   1.312   4.841   1.485
 1440TIP3    H1 4284   1.391   4.895   1.484
 1440TIP3    H2 4285   1.302   4.815   1.577
 1441TIP3   OH2 4286   2.504   6.321   5.092
 1441TIP3    H1 4287   2.519   6.226   5.092
 1441TIP3    H2 4288   2.482   6.342   5.182
 1442TIP3   OH2 4289   3.888   5.639   1.583
 1442TIP3    H1 4290   3.795   5.640   1.562
 1442TIP3    H2 4291   3.892   5.662   1.676
 1443TIP3   OH2 4292   1.319   6.267   2.673
 1443TIP3    H1 4293   1.339   6.262   2.579
 1443TIP3    H2 4294   1.403   6.288   2.714
 1444TIP3   OH2 4295   6.929   1.140   3.946
 1444TIP3    H1 4296   6.842   1.129   3.908
 1444TIP3    H2 4297   6.977   1.192   3.882
 1445TIP3   OH2 4298   5.573   3.347   5.394
 1445TIP3    H1 4299   5.623   3.322   5.316
 1445TIP3    H2 4300   5.566   3.442   5.389
 1446TIP3   OH2 4301   1.234   5.895   1.116
 1446TIP3    H1 4302   1.253   5.853   1.200
 1446TIP3    H2 4303   1.190   5.977   1.139
 1447TIP3   OH2 4304   2.680   6.144   4.293
 1447TIP3    H1 4305   2.699   6.230   4.255
 1447TIP3    H2 4306   2.619   6.104   4.231
 1448TIP3   OH2 4307   6.718   2.246   0.023
 1448TIP3    H1 4308   6.745   2.207  -0.060
 1448TIP3    H2 4309   6.800   2.270   0.066
 1449TIP3   OH2 4310   4.485   2.334   4.851
 1449TIP3    H1 4311   4.391   2.347   4.849
 1449TIP3    H2 4312   4.521   2.420   4.877
 1450TIP3   OH2 4313   1.857   2.447   5.774
 1450TIP3    H1 4314   1.794   2.442   5.702
 1450TIP3    H2 4315   1.818   2.509   5.835
 1451TIP3   OH2 4316   2.060   1.432   3.957
 1451TIP3    H1 4317   1.969   1.403   3.963
 1451TIP3    H2 4318   2.076   1.441   3.863
 1452TIP3   OH2 4319   6.799   1.695   3.616
 1452TIP3    H1 4320   6.707   1.721   3.610
 1452TIP3    H2 4321   6.832   1.704   3.526
 1453TIP3   OH2 4322   2.118   4.820   3.389
 1453TIP3    H1 4323   2.187   4.794   3.449
 1453TIP3    H2 4324   2.038   4.784   3.427
 1454TIP3   OH2 4325   6.817   3.799   3.843
 1454TIP3    H1 4326   6.829   3.717   3.795
 1454TIP3    H2 4327   6.725   3.798   3.870
 1455TIP3   OH2 4328   1.036   0.310   2.095
 1455TIP3    H1 4329   1.119   0.277   2.060
 1455TIP3    H2 4330   1.006   0.241   2.155
 1456TIP3   OH2 4331   3.703   5.125   4.828
 1456TIP3    H1 4332   3.611   5.100   4.821
 1456TIP3    H2 4333   3.739   5.113   4.740
 1457TIP3   OH2 4334   3.179   4.407   1.206
 1457TIP3    H1 4335   3.146   4.400   1.296
 1457TIP3    H2 4336   3.170   4.500   1.185
 1458TIP3   OH2 4337   1.791   3.595   5.707
 1458TIP3    H1 4338   1.717   3.558   5.756
 1458TIP3    H2 4339   1.778   3.690   5.713
 1459TIP3   OH2 4340   4.883   6.155   4.643
 1459TIP3    H1 4341   4.797   6.151   4.686
 1459TIP3    H2 4342   4.946   6.142   4.714
 1460TIP3   OH2 4343   5.606   4.027   2.925
 1460TIP3    H1 4344   5.658   3.982   2.992
 1460TIP3    H2 4345   5.534   3.967   2.907
 1461TIP3   OH2 4346   6.777   3.029   2.851
 1461TIP3    H1 4347   6.683   3.049   2.850
 1461TIP3    H2 4348   6.782   2.937   2.827
 1462TIP3   OH2 4349   6.246   2.278   0.098
 1462TIP3    H1 4350   6.280   2.347   0.042
 1462TIP3    H2 4351   6.159   2.259   0.061
 1463TIP3   OH2 4352   0.014   2.773   4.087
 1463TIP3    H1 4353   0.083   2.840   4.095
 1463TIP3    H2 4354  -0.023   2.788   4.000
 1464TIP3   OH2 4355   0.175   3.955   1.122
 1464TIP3    H1 4356   0.248   3.893   1.130
 1464TIP3    H2 4357   0.138   3.937   1.035
 1465TIP3   OH2 4358   0.427   2.103   2.628
 1465TIP3    H1 4359   0.417   2.027   2.569
 1465TIP3    H2 4360   0.476   2.068   2.703
 1466TIP3   OH2 4361   3.384   1.740   2.739
 1466TIP3    H1 4362   3.327   1.738   2.662
 1466TIP3    H2 4363   3.385   1.832   2.766
 1467TIP3   OH2 4364   2.774   2.650   5.464
 1467TIP3    H1 4365   2.830   2.617   5.534
 1467TIP3    H2 4366   2.702   2.693   5.508
 1468TIP3   OH2 4367   1.260   4.005   1.138
 1468TIP3    H1 4368   1.267   4.022   1.232
 1468TIP3    H2 4369   1.328   4.061   1.099
 1469TIP3   OH2 4370   4.615   3.566   3.964
 1469TIP3    H1 4371   4.675   3.492   3.961
 1469TIP3    H2 4372   4.670   3.642   3.941
 1470TIP3   OH2 4373   0.140   6.372   2.820
 1470TIP3    H1 4374   0.072   6.439   2.816
 1470TIP3    H2 4375   0.098   6.293   2.787
 1471TIP3   OH2 4376   1.060   4.317   3.713
 1471TIP3    H1 4377   1.093   4.232   3.743
 1471TIP3    H2 4378   1.137   4.360   3.675
 1472TIP3   OH2 4379   1.898   1.224   5.563
 1472TIP3    H1 4380   1.914   1.179   5.480
 1472TIP3    H2 4381   1.966   1.291   5.567
 1473TIP3   OH2 4382   1.430   1.277   5.363
 1473TIP3    H1 4383   1.429   1.297   5.269
 1473TIP3    H2 4384   1.488   1.343   5.401
 1474TIP3   OH2 4385   2.931   0.839   1.365
 1474TIP3    H1 4386   2.938   0.789   1.283
 1474TIP3    H2 4387   3.020   0.839   1.400
 1475TIP3   OH2 4388   1.356   0.143   5.357
 1475TIP3    H1 4389   1.396   0.092   5.287
 1475TIP3    H2 4390   1.264   0.117   5.356
 1476TIP3   OH2 4391   7.091   1.115   2.043
 1476TIP3    H1 4392   7.000   1.105   2.016
 1476TIP3    H2 4393   7.126   1.026   2.045
 1477TIP3   OH2 4394   7.146   4.793   2.628
 1477TIP3    H1 4395   7.148   4.698   2.640
 1477TIP3    H2 4396   7.216   4.826   2.683
 1478TIP3   OH2 4397   6.909   4.891   2.570
 1478TIP3    H1 4398   6.990   4.840   2.567
 1478TIP3    H2 4399   6.937   4.979   2.596
 1479TIP3   OH2 4400   6.956   1.009   3.279
 1479TIP3    H1 4401   7.034   1.005   3.223
 1479TIP3    H2 4402   6.886   0.975   3.224
 1480TIP3   OH2 4403   5.164   0.794   1.776
 1480TIP3    H1 4404   5.119   0.853   1.716
 1480TIP3    H2 4405   5.237   0.758   1.726
 1481TIP3   OH2 4406   1.181   4.497   2.550
 1481TIP3    H1 4407   1.161   4.413   2.591
 1481TIP3    H2 4408   1.138   4.493   2.464
 1482TIP3   OH2 4409   0.216   5.711   0.602
 1482TIP3    H1 4410   0.243   5.620   0.596
 1482TIP3    H2 4411   0.243   5.750   0.519
 1483TIP3   OH2 4412   4.398   0.951   5.037
 1483TIP3    H1 4413   4.429   0.914   5.120
 1483TIP3    H2 4414   4.449   0.904   4.971
 1484TIP3   OH2 4415   2.420   5.658   2.979
 1484TIP3    H1 4416   2.413   5.637   2.886
 1484TIP3    H2 4417   2.509   5.630   3.003
 1485TIP3   OH2 4418   0.613   0.936   4.151
 1485TIP3    H1 4419   0.657   1.009   4.193
 1485TIP3    H2 4420   0.603   0.871   4.221
 1486TIP3   OH2 4421   4.040   5.326   2.563
 1486TIP3    H1 4422   3.952   5.345   2.594
 1486TIP3    H2 4423   4.029   5.260   2.495
 1487TIP3   OH2 4424   2.238   2.944   3.908
 1487TIP3    H1 4425   2.184   2.950   3.828
 1487TIP3    H2 4426   2.286   3.027   3.910
 1488TIP3   OH2 4427   3.362   6.181   1.118
 1488TIP3    H1 4428   3.267   6.192   1.119
 1488TIP3    H2 4429   3.390   6.195   1.208
 1489TIP3   OH2 4430   3.939   2.014   1.513
 1489TIP3    H1 4431   3.904   2.087   1.463
 1489TIP3    H2 4432   3.886   1.939   1.485
 1490TIP3   OH2 4433   6.807   2.285   3.394
 1490TIP3    H1 4434   6.848   2.203   3.420
 1490TIP3    H2 4435   6.831   2.296   3.302
 1491TIP3   OH2 4436   5.511   3.140   1.223
 1491TIP3    H1 4437   5.531   3.129   1.316
 1491TIP3    H2 4438   5.483   3.231   1.216
 1492TIP3   OH2 4439   1.705   3.161   5.175
 1492TIP3    H1 4440   1.719   3.123   5.261
 1492TIP3    H2 4441   1.615   3.193   5.177
 1493TIP3   OH2 4442   1.146   0.976   4.595
 1493TIP3    H1 4443   1.060   1.013   4.575
 1493TIP3    H2 4444   1.129   0.884   4.614
 1494TIP3   OH2 4445   6.055   4.631   2.429
 1494TIP3    H1 4446   6.150   4.639   2.419
 1494TIP3    H2 4447   6.038   4.538   2.414
 1495TIP3   OH2 4448   5.703   3.150   1.783
 1495TIP3    H1 4449   5.646   3.082   1.819
 1495TIP3    H2 4450   5.792   3.116   1.797
 1496TIP3   OH2 4451   6.121   6.087   2.032
 1496TIP3    H1 4452   6.087   6.169   1.997
 1496TIP3    H2 4453   6.055   6.022   2.010
 1497TIP3   OH2 4454   2.864   0.474   0.465
 1497TIP3    H1 4455   2.903   0.422   0.395
 1497TIP3    H2 4456   2.914   0.556   0.465
 1498TIP3   OH2 4457   1.527   4.088   4.726
 1498TIP3    H1 4458   1.504   3.995   4.733
 1498TIP3    H2 4459   1.447   4.135   4.747
 1499TIP3   OH2 4460   5.881   6.029   2.914
 1499TIP3    H1 4461   5.906   6.112   2.875
 1499TIP3    H2 4462   5.790   6.016   2.887
 1500TIP3   OH2 4463   7.087   3.369   2.182
 1500TIP3    H1 4464   7.014   3.343   2.126
 1500TIP3    H2 4465   7.049   3.435   2.241
 1501TIP3   OH2 4466   1.629   6.434   2.197
 1501TIP3    H1 4467   1.617   6.526   2.176
 1501TIP3    H2 4468   1.636   6.432   2.293
 1502TIP3   OH2 4469   3.140   1.565   2.243
 1502TIP3    H1 4470   3.125   1.658   2.257
 1502TIP3    H2 4471   3.056   1.524   2.264
 1503TIP3   OH2 4472   5.080   3.833   1.693
 1503TIP3    H1 4473   5.029   3.903   1.733
 1503TIP3    H2 4474   5.171   3.858   1.708
 1504TIP3   OH2 4475   6.636   5.747   3.037
 1504TIP3    H1 4476   6.729   5.724   3.035
 1504TIP3    H2 4477   6.596   5.689   2.972
 1505TIP3   OH2 4478   4.865   5.631   3.907
 1505TIP3    H1 4479   4.790   5.625   3.848
 1505TIP3    H2 4480   4.877   5.542   3.939
 1506TIP3   OH2 4481   2.916   3.504   2.394
 1506TIP3    H1 4482   2.987   3.552   2.352
 1506TIP3    H2 4483   2.950   3.480   2.480
 1507TIP3   OH2 4484   1.132   4.824   1.157
 1507TIP3    H1 4485   1.210   4.769   1.150
 1507TIP3    H2 4486   1.108   4.819   1.250
 1508TIP3   OH2 4487   2.276   4.826   0.806
 1508TIP3    H1 4488   2.302   4.772   0.731
 1508TIP3    H2 4489   2.356   4.836   0.857
 1509TIP3   OH2 4490   0.909   6.179   2.733
 1509TIP3    H1 4491   0.941   6.245   2.670
 1509TIP3    H2 4492   0.830   6.144   2.692
 1510TIP3   OH2 4493   3.532   2.510   3.174
 1510TIP3    H1 4494   3.438   2.500   3.192
 1510TIP3    H2 4495   3.572   2.520   3.261
 1511TIP3   OH2 4496   1.677   4.373   3.978
 1511TIP3    H1 4497   1.690   4.413   3.892
 1511TIP3    H2 4498   1.765   4.348   4.006
 1512TIP3   OH2 4499   6.872   4.935   5.213
 1512TIP3    H1 4500   6.879   4.891   5.129
 1512TIP3    H2 4501   6.786   4.909   5.246
 1513TIP3   OH2 4502   1.956   4.477   3.886
 1513TIP3    H1 4503   1.908   4.519   3.814
 1513TIP3    H2 4504   1.936   4.531   3.963
 1514TIP3   OH2 4505   1.286   0.807   4.388
 1514TIP3    H1 4506   1.200   0.791   4.427
 1514TIP3    H2 4507   1.345   0.746   4.433
 1515TIP3   OH2 4508   3.190   6.566   4.101
 1515TIP3    H1 4509   3.138   6.516   4.038
 1515TIP3    H2 4510   3.263   6.508   4.123
 1516TIP3   OH2 4511   0.842   1.938   1.409
 1516TIP3    H1 4512   0.813   2.027   1.386
 1516TIP3    H2 4513   0.885   1.906   1.330
 1517TIP3   OH2 4514   5.748   3.723   3.571
 1517TIP3    H1 4515   5.716   3.714   3.660
 1517TIP3    H2 4516   5.671   3.713   3.516
 1518TIP3   OH2 4517   1.884   6.457   3.320
 1518TIP3    H1 4518   1.840   6.376   3.346
 1518TIP3    H2 4519   1.918   6.493   3.402
 1519TIP3   OH2 4520   3.941   3.395   4.572
 1519TIP3    H1 4521   3.983   3.463   4.624
 1519TIP3    H2 4522   3.865   3.438   4.533
 1520TIP3   OH2 4523   5.054   0.021   2.231
 1520TIP3    H1 4524   4.965   0.013   2.266
 1520TIP3    H2 4525   5.042   0.035   2.137
 1521TIP3   OH2 4526   6.903   0.198   4.810
 1521TIP3    H1 4527   6.984   0.236   4.775
 1521TIP3    H2 4528   6.853   0.273   4.841
 1522TIP3   OH2 4529   4.933   2.076   3.613
 1522TIP3    H1 4530   4.902   2.167   3.614
 1522TIP3    H2 4531   4.872   2.030   3.671
 1523TIP3   OH2 4532   1.145   2.313   3.880
 1523TIP3    H1 4533   1.138   2.321   3.785
 1523TIP3    H2 4534   1.217   2.251   3.893
 1524TIP3   OH2 4535   2.459   3.237   5.807
 1524TIP3    H1 4536   2.445   3.254   5.714
 1524TIP3    H2 4537   2.374   3.252   5.847
 1525TIP3   OH2 4538   1.012   0.681   2.339
 1525TIP3    H1 4539   1.071   0.639   2.275
 1525TIP3    H2 4540   1.065   0.687   2.418
 1526TIP3   OH2 4541   2.001   3.385   1.948
 1526TIP3    H1 4542   2.011   3.413   2.039
 1526TIP3    H2 4543   2.074   3.426   1.903
 1527TIP3   OH2 4544  -0.007   6.455   4.754
 1527TIP3    H1 4545   0.042   6.457   4.672
 1527TIP3    H2 4546   0.022   6.375   4.798
 1528TIP3   OH2 4547   4.635   4.862   5.470
 1528TIP3    H1 4548   4.637   4.799   5.398
 1528TIP3    H2 4549   4.635   4.808   5.549
 1529TIP3   OH2 4550   6.122   0.821   4.964
 1529TIP3    H1 4551   6.123   0.734   4.924
 1529TIP3    H2 4552   6.092   0.806   5.054
 1530TIP3   OH2 4553   2.977   4.163   2.653
 1530TIP3    H1 4554   2.927   4.230   2.700
 1530TIP3    H2 4555   2.984   4.197   2.564
 1531TIP3   OH2 4556   6.739   2.705   2.301
 1531TIP3    H1 4557   6.775   2.616   2.303
 1531TIP3    H2 4558   6.644   2.692   2.297
 1532TIP3   OH2 4559   1.679   4.848   4.013
 1532TIP3    H1 4560   1.694   4.941   3.999
 1532TIP3    H2 4561   1.763   4.807   3.996
 1533TIP3   OH2 4562   1.361   1.728   1.896
 1533TIP3    H1 4563   1.454   1.740   1.874
 1533TIP3    H2 4564   1.333   1.653   1.844
 1534TIP3   OH2 4565   2.559   0.325   3.749
 1534TIP3    H1 4566   2.543   0.378   3.827
 1534TIP3    H2 4567   2.621   0.258   3.778
 1535TIP3   OH2 4568   2.715   5.304   5.738
 1535TIP3    H1 4569   2.658   5.339   5.670
 1535TIP3    H2 4570   2.799   5.348   5.724
 1536TIP3   OH2 4571   6.419   2.692   1.980
 1536TIP3    H1 4572   6.418   2.636   1.903
 1536TIP3    H2 4573   6.327   2.713   1.997
 1537TIP3   OH2 4574   0.912   0.927   5.523
 1537TIP3    H1 4575   0.843   0.971   5.474
 1537TIP3    H2 4576   0.866   0.883   5.595
 1538TIP3   OH2 4577   3.164   6.682   1.948
 1538TIP3    H1 4578   3.187   6.727   1.867
 1538TIP3    H2 4579   3.209   6.598   1.943
 1539TIP3   OH2 4580   3.274   2.837   3.273
 1539TIP3    H1 4581   3.335   2.838   3.346
 1539TIP3    H2 4582   3.208   2.903   3.296
 1540TIP3   OH2 4583   0.332   2.992   2.497
 1540TIP3    H1 4584   0.248   3.037   2.486
 1540TIP3    H2 4585   0.395   3.062   2.513
 1541TIP3   OH2 4586   3.183   2.563   2.794
 1541TIP3    H1 4587   3.129   2.485   2.811
 1541TIP3    H2 4588   3.268   2.528   2.767
 1542TIP3   OH2 4589   4.226   5.848   2.326
 1542TIP3    H1 4590   4.262   5.926   2.368
 1542TIP3    H2 4591   4.300   5.808   2.281
 1543TIP3   OH2 4592   4.382   0.360   0.181
 1543TIP3    H1 4593   4.414   0.418   0.249
 1543TIP3    H2 4594   4.427   0.390   0.101
 1544TIP3   OH2 4595   4.411   6.369   5.836
 1544TIP3    H1 4596   4.390   6.275   5.835
 1544TIP3    H2 4597   4.335   6.410   5.878
 1545TIP3   OH2 4598   0.730   5.185   3.922
 1545TIP3    H1 4599   0.773   5.271   3.915
 1545TIP3    H2 4600   0.761   5.137   3.844
 1546TIP3   OH2 4601   3.460   1.525   5.196
 1546TIP3    H1 4602   3.515   1.454   5.162
 1546TIP3    H2 4603   3.408   1.553   5.120
 1547TIP3   OH2 4604   5.176   3.122   5.713
 1547TIP3    H1 4605   5.181   3.217   5.719
 1547TIP3    H2 4606   5.086   3.104   5.686
 1548TIP3   OH2 4607   0.025   3.351   5.473
 1548TIP3    H1 4608  -0.045   3.292   5.499
 1548TIP3    H2 4609   0.105   3.300   5.484
 1549TIP3   OH2 4610   2.402   5.722   0.907
 1549TIP3    H1 4611   2.478   5.777   0.922
 1549TIP3    H2 4612   2.328   5.783   0.909
 1550TIP3   OH2 4613   6.612   1.182   2.164
 1550TIP3    H1 4614   6.571   1.176   2.078
 1550TIP3    H2 4615   6.590   1.100   2.207
 1551TIP3   OH2 4616   4.173   6.397   2.078
 1551TIP3    H1 4617   4.189   6.488   2.105
 1551TIP3    H2 4618   4.113   6.404   2.004
 1552TIP3   OH2 4619   5.322   3.966   3.958
 1552TIP3    H1 4620   5.377   4.034   3.918
 1552TIP3    H2 4621   5.377   3.929   4.027
 1553TIP3   OH2 4622   1.318   5.592   2.424
 1553TIP3    H1 4623   1.412   5.591   2.404
 1553TIP3    H2 4624   1.282   5.660   2.367
 1554TIP3   OH2 4625   1.734   5.145   1.507
 1554TIP3    H1 4626   1.764   5.235   1.498
 1554TIP3    H2 4627   1.809   5.098   1.546
 1555TIP3   OH2 4628   1.506   4.546   1.830
 1555TIP3    H1 4629   1.555   4.625   1.811
 1555TIP3    H2 4630   1.516   4.533   1.925
 1556TIP3   OH2 4631   5.956   6.033   0.168
 1556TIP3    H1 4632   5.902   5.985   0.105
 1556TIP3    H2 4633   5.947   5.984   0.249
 1557TIP3   OH2 4634   3.742   0.545   0.055
 1557TIP3    H1 4635   3.810   0.480   0.076
 1557TIP3    H2 4636   3.743   0.605   0.130
 1558TIP3   OH2 4637   3.183   4.840   1.303
 1558TIP3    H1 4638   3.167   4.783   1.228
 1558TIP3    H2 4639   3.227   4.783   1.366
 1559TIP3   OH2 4640   5.254   0.848   2.043
 1559TIP3    H1 4641   5.211   0.818   1.963
 1559TIP3    H2 4642   5.183   0.858   2.106
 1560TIP3   OH2 4643   5.821   6.362   2.437
 1560TIP3    H1 4644   5.856   6.275   2.415
 1560TIP3    H2 4645   5.741   6.369   2.385
 1561TIP3   OH2 4646   3.741   2.683   5.165
 1561TIP3    H1 4647   3.825   2.723   5.188
 1561TIP3    H2 4648   3.705   2.653   5.249
 1562TIP3   OH2 4649   1.801   3.723   2.288
 1562TIP3    H1 4650   1.798   3.637   2.328
 1562TIP3    H2 4651   1.893   3.735   2.263
 1563TIP3   OH2 4652   5.278   5.085   2.895
 1563TIP3    H1 4653   5.285   5.113   2.803
 1563TIP3    H2 4654   5.338   5.011   2.902
 1564TIP3   OH2 4655   3.295   5.215   4.965
 1564TIP3    H1 4656   3.348   5.169   4.901
 1564TIP3    H2 4657   3.206   5.214   4.928
 1565TIP3   OH2 4658   3.028   4.573   4.798
 1565TIP3    H1 4659   3.076   4.567   4.716
 1565TIP3    H2 4660   2.977   4.492   4.803
 1566TIP3   OH2 4661   5.001   5.552   2.012
 1566TIP3    H1 4662   4.939   5.619   1.982
 1566TIP3    H2 4663   4.950   5.496   2.071
 1567TIP3   OH2 4664   2.946   3.446   1.452
 1567TIP3    H1 4665   2.965   3.359   1.416
 1567TIP3    H2 4666   3.032   3.481   1.475
 1568TIP3   OH2 4667   4.025   5.659   2.372
 1568TIP3    H1 4668   4.032   5.649   2.467
 1568TIP3    H2 4669   4.106   5.701   2.346
 1569TIP3   OH2 4670   4.844   0.939   3.488
 1569TIP3    H1 4671   4.881   1.025   3.504
 1569TIP3    H2 4672   4.750   0.950   3.499
 1570TIP3   OH2 4673   7.126   0.375   5.555
 1570TIP3    H1 4674   7.078   0.292   5.557
 1570TIP3    H2 4675   7.171   0.374   5.471
 1571TIP3   OH2 4676   5.846   5.490   1.494
 1571TIP3    H1 4677   5.810   5.414   1.539
 1571TIP3    H2 4678   5.774   5.554   1.496
 1572TIP3   OH2 4679   3.402   3.050   0.325
 1572TIP3    H1 4680   3.425   3.141   0.303
 1572TIP3    H2 4681   3.309   3.054   0.347
 1573TIP3   OH2 4682   1.031   6.473   5.339
 1573TIP3    H1 4683   1.067   6.391   5.306
 1573TIP3    H2 4684   1.080   6.541   5.293
 1574TIP3   OH2 4685   6.029   3.595   2.693
 1574TIP3    H1 4686   6.069   3.659   2.635
 1574TIP3    H2 4687   5.937   3.594   2.669
 1575TIP3   OH2 4688   1.957   2.251   0.314
 1575TIP3    H1 4689   1.970   2.346   0.315
 1575TIP3    H2 4690   1.931   2.232   0.224
 1576TIP3   OH2 4691   4.441   0.778   3.611
 1576TIP3    H1 4692   4.404   0.760   3.525
 1576TIP3    H2 4693   4.438   0.694   3.657
 1577TIP3   OH2 4694   5.578   5.189   4.532
 1577TIP3    H1 4695   5.562   5.184   4.626
 1577TIP3    H2 4696   5.524   5.119   4.494
 1578TIP3   OH2 4697   4.343   1.179   5.312
 1578TIP3    H1 4698   4.312   1.206   5.225
 1578TIP3    H2 4699   4.385   1.094   5.297
 1579TIP3   OH2 4700   6.657   4.459   0.380
 1579TIP3    H1 4701   6.647   4.443   0.286
 1579TIP3    H2 4702   6.649   4.373   0.421
 1580TIP3   OH2 4703   1.898   4.846   2.654
 1580TIP3    H1 4704   1.858   4.781   2.597
 1580TIP3    H2 4705   1.824   4.890   2.696
 1581TIP3   OH2 4706   1.238   3.241   3.666
 1581TIP3    H1 4707   1.221   3.149   3.645
 1581TIP3    H2 4708   1.153   3.283   3.664
 1582TIP3   OH2 4709   5.814   6.327   0.318
 1582TIP3    H1 4710   5.899   6.288   0.341
 1582TIP3    H2 4711   5.820   6.341   0.223
 1583TIP3   OH2 4712   2.570   5.055   0.429
 1583TIP3    H1 4713   2.475   5.062   0.435
 1583TIP3    H2 4714   2.588   5.037   0.337
 1584TIP3   OH2 4715   4.377   5.974   2.937
 1584TIP3    H1 4716   4.325   5.896   2.916
 1584TIP3    H2 4717   4.455   5.966   2.882
 1585TIP3   OH2 4718   2.106   4.291   1.556
 1585TIP3    H1 4719   2.134   4.281   1.465
 1585TIP3    H2 4720   2.012   4.271   1.555
 1586TIP3   OH2 4721   5.103   6.596   1.590
 1586TIP3    H1 4722   5.143   6.679   1.564
 1586TIP3    H2 4723   5.177   6.537   1.606
 1587TIP3   OH2 4724   1.073   2.013   3.811
 1587TIP3    H1 4725   0.999   2.073   3.804
 1587TIP3    H2 4726   1.086   1.979   3.722
 1588TIP3   OH2 4727   2.776   1.168   0.021
 1588TIP3    H1 4728   2.720   1.146  -0.052
 1588TIP3    H2 4729   2.726   1.143   0.099
 1589TIP3   OH2 4730   2.424   3.840   5.095
 1589TIP3    H1 4731   2.504   3.832   5.042
 1589TIP3    H2 4732   2.355   3.857   5.031
 1590TIP3   OH2 4733   0.737   0.800   3.159
 1590TIP3    H1 4734   0.678   0.725   3.158
 1590TIP3    H2 4735   0.680   0.877   3.163
 1591TIP3   OH2 4736   3.415   1.351   2.923
 1591TIP3    H1 4737   3.320   1.365   2.933
 1591TIP3    H2 4738   3.454   1.436   2.941
 1592TIP3   OH2 4739   5.739   3.096   0.433
 1592TIP3    H1 4740   5.711   3.017   0.479
 1592TIP3    H2 4741   5.668   3.115   0.371
 1593TIP3   OH2 4742   4.920   2.864   2.576
 1593TIP3    H1 4743   4.899   2.855   2.482
 1593TIP3    H2 4744   5.003   2.818   2.587
 1594TIP3   OH2 4745   7.043   0.457   3.987
 1594TIP3    H1 4746   7.106   0.404   3.940
 1594TIP3    H2 4747   7.017   0.403   4.062
 1595TIP3   OH2 4748   3.115   2.225   3.039
 1595TIP3    H1 4749   3.075   2.198   3.121
 1595TIP3    H2 4750   3.179   2.157   3.019
 1596TIP3   OH2 4751   0.908   3.871   3.216
 1596TIP3    H1 4752   0.853   3.796   3.195
 1596TIP3    H2 4753   0.871   3.944   3.166
 1597TIP3   OH2 4754   4.318   1.623   5.145
 1597TIP3    H1 4755   4.319   1.529   5.132
 1597TIP3    H2 4756   4.291   1.659   5.060
 1598TIP3   OH2 4757   5.230   0.100   1.150
 1598TIP3    H1 4758   5.270   0.107   1.064
 1598TIP3    H2 4759   5.263   0.177   1.198
 1599TIP3   OH2 4760   0.385   4.162   3.194
 1599TIP3    H1 4761   0.324   4.236   3.200
 1599TIP3    H2 4762   0.472   4.203   3.194
 1600TIP3   OH2 4763   2.948   0.328   5.556
 1600TIP3    H1 4764   2.854   0.344   5.548
 1600TIP3    H2 4765   2.977   0.391   5.622
 1601TIP3   OH2 4766   3.782   0.929   4.610
 1601TIP3    H1 4767   3.794   1.023   4.620
 1601TIP3    H2 4768   3.689   0.914   4.627
 1602TIP3   OH2 4769   6.232   0.905   1.805
 1602TIP3    H1 4770   6.202   0.879   1.718
 1602TIP3    H2 4771   6.327   0.912   1.797
 1603TIP3   OH2 4772   3.231   4.684   1.976
 1603TIP3    H1 4773   3.200   4.708   1.889
 1603TIP3    H2 4774   3.173   4.730   2.036
 1604TIP3   OH2 4775   2.876   1.365   0.443
 1604TIP3    H1 4776   2.944   1.431   0.429
 1604TIP3    H2 4777   2.924   1.287   0.472
 1605TIP3   OH2 4778   3.535   2.998   4.218
 1605TIP3    H1 4779   3.564   2.916   4.178
 1605TIP3    H2 4780   3.606   3.060   4.200
 1606TIP3   OH2 4781   1.420   2.629   0.775
 1606TIP3    H1 4782   1.475   2.559   0.740
 1606TIP3    H2 4783   1.460   2.652   0.859
 1607TIP3   OH2 4784   5.854   1.953   4.690
 1607TIP3    H1 4785   5.826   2.038   4.657
 1607TIP3    H2 4786   5.773   1.905   4.704
 1608TIP3   OH2 4787   5.860   3.336   5.254
 1608TIP3    H1 4788   5.872   3.385   5.336
 1608TIP3    H2 4789   5.937   3.358   5.202
 1609TIP3   OH2 4790   4.504   3.970   0.796
 1609TIP3    H1 4791   4.588   3.964   0.843
 1609TIP3    H2 4792   4.485   3.880   0.769
 1610TIP3   OH2 4793   0.593   5.784   4.795
 1610TIP3    H1 4794   0.668   5.840   4.813
 1610TIP3    H2 4795   0.612   5.703   4.843
 1611TIP3   OH2 4796   5.419   1.275   4.510
 1611TIP3    H1 4797   5.432   1.202   4.450
 1611TIP3    H2 4798   5.506   1.293   4.546
 1612TIP3   OH2 4799   1.637   5.305   0.739
 1612TIP3    H1 4800   1.633   5.294   0.644
 1612TIP3    H2 4801   1.723   5.270   0.764
 1613TIP3   OH2 4802   1.286   3.314   2.088
 1613TIP3    H1 4803   1.296   3.221   2.068
 1613TIP3    H2 4804   1.300   3.320   2.183
 1614TIP3   OH2 4805   2.722   4.444   3.040
 1614TIP3    H1 4806   2.727   4.400   2.955
 1614TIP3    H2 4807   2.718   4.537   3.018
 1615TIP3   OH2 4808   3.971   1.397   1.914
 1615TIP3    H1 4809   4.028   1.379   1.988
 1615TIP3    H2 4810   4.024   1.450   1.855
 1616TIP3   OH2 4811   4.871   5.932   1.501
 1616TIP3    H1 4812   4.873   5.882   1.419
 1616TIP3    H2 4813   4.957   5.975   1.504
 1617TIP3   OH2 4814   2.573   1.148   4.246
 1617TIP3    H1 4815   2.627   1.146   4.168
 1617TIP3    H2 4816   2.501   1.208   4.224
 1618TIP3   OH2 4817   1.888   2.597   2.555
 1618TIP3    H1 4818   1.844   2.547   2.485
 1618TIP3    H2 4819   1.892   2.686   2.521
 1619TIP3   OH2 4820   6.025   3.261   3.499
 1619TIP3    H1 4821   5.974   3.204   3.556
 1619TIP3    H2 4822   5.960   3.307   3.446
 1620TIP3   OH2 4823   2.009   2.825   0.587
 1620TIP3    H1 4824   2.022   2.866   0.502
 1620TIP3    H2 4825   2.058   2.879   0.648
 1621TIP3   OH2 4826   0.516   4.154   2.197
 1621TIP3    H1 4827   0.481   4.105   2.123
 1621TIP3    H2 4828   0.484   4.108   2.274
 1622TIP3   OH2 4829   6.168   5.035   1.828
 1622TIP3    H1 4830   6.175   5.122   1.789
 1622TIP3    H2 4831   6.235   4.983   1.784
 1623TIP3   OH2 4832   5.588   2.070   2.525
 1623TIP3    H1 4833   5.667   2.021   2.546
 1623TIP3    H2 4834   5.516   2.008   2.538
 1624TIP3   OH2 4835   5.976   0.027   3.025
 1624TIP3    H1 4836   5.978   0.122   3.024
 1624TIP3    H2 4837   5.908   0.003   2.962
 1625TIP3   OH2 4838   1.142   4.782   3.805
 1625TIP3    H1 4839   1.212   4.725   3.838
 1625TIP3    H2 4840   1.107   4.737   3.729
 1626TIP3   OH2 4841   3.408   1.790   3.207
 1626TIP3    H1 4842   3.484   1.753   3.250
 1626TIP3    H2 4843   3.337   1.781   3.271
 1627TIP3   OH2 4844   1.234   1.059   2.384
 1627TIP3    H1 4845   1.258   1.146   2.353
 1627TIP3    H2 4846   1.221   1.069   2.478
 1628TIP3   OH2 4847   5.007   2.789   3.250
 1628TIP3    H1 4848   5.088   2.738   3.261
 1628TIP3    H2 4849   5.019   2.865   3.307
 1629TIP3   OH2 4850   7.026   5.978   2.681
 1629TIP3    H1 4851   7.094   5.985   2.747
 1629TIP3    H2 4852   7.067   5.930   2.609
 1630TIP3   OH2 4853   0.996   6.610   1.231
 1630TIP3    H1 4854   0.989   6.580   1.321
 1630TIP3    H2 4855   1.089   6.632   1.220
 1631TIP3   OH2 4856   5.305   5.688   1.589
 1631TIP3    H1 4857   5.324   5.598   1.562
 1631TIP3    H2 4858   5.217   5.684   1.626
 1632TIP3   OH2 4859   4.477   2.855   5.158
 1632TIP3    H1 4860   4.550   2.900   5.200
 1632TIP3    H2 4861   4.409   2.850   5.225
 1633TIP3   OH2 4862   0.002   1.794   1.041
 1633TIP3    H1 4863   0.001   1.869   1.101
 1633TIP3    H2 4864  -0.037   1.827   0.960
 1634TIP3   OH2 4865   1.104   4.684   3.565
 1634TIP3    H1 4866   1.038   4.676   3.496
 1634TIP3    H2 4867   1.187   4.693   3.517
 1635TIP3   OH2 4868   6.303   5.592   1.839
 1635TIP3    H1 4869   6.272   5.618   1.753
 1635TIP3    H2 4870   6.306   5.673   1.890
 1636TIP3   OH2 4871   5.701   5.195   2.832
 1636TIP3    H1 4872   5.685   5.133   2.761
 1636TIP3    H2 4873   5.671   5.279   2.797
 1637TIP3   OH2 4874   1.425   2.880   2.995
 1637TIP3    H1 4875   1.488   2.826   2.949
 1637TIP3    H2 4876   1.346   2.877   2.941
 1638TIP3   OH2 4877   1.135   0.670   0.440
 1638TIP3    H1 4878   1.122   0.579   0.466
 1638TIP3    H2 4879   1.163   0.665   0.349
 1639TIP3   OH2 4880   1.387   2.456   4.486
 1639TIP3    H1 4881   1.426   2.502   4.411
 1639TIP3    H2 4882   1.449   2.471   4.558
 1640TIP3   OH2 4883   3.348   5.742   1.366
 1640TIP3    H1 4884   3.259   5.777   1.362
 1640TIP3    H2 4885   3.341   5.654   1.329
 1641TIP3   OH2 4886   6.336   1.213   5.232
 1641TIP3    H1 4887   6.333   1.306   5.253
 1641TIP3    H2 4888   6.332   1.209   5.137
 1642TIP3   OH2 4889   0.297   2.046   5.580
 1642TIP3    H1 4890   0.362   2.007   5.522
 1642TIP3    H2 4891   0.344   2.061   5.662
 1643TIP3   OH2 4892   2.839   3.012   5.501
 1643TIP3    H1 4893   2.847   2.944   5.433
 1643TIP3    H2 4894   2.835   2.964   5.583
 1644TIP3   OH2 4895   6.768   5.919   4.143
 1644TIP3    H1 4896   6.784   5.994   4.086
 1644TIP3    H2 4897   6.852   5.874   4.147
 1645TIP3   OH2 4898   1.034   4.426   1.265
 1645TIP3    H1 4899   1.126   4.406   1.244
 1645TIP3    H2 4900   1.039   4.489   1.336
 1646TIP3   OH2 4901   3.819   2.723   4.422
 1646TIP3    H1 4902   3.816   2.753   4.513
 1646TIP3    H2 4903   3.906   2.683   4.413
 1647TIP3   OH2 4904   0.040   1.895   5.586
 1647TIP3    H1 4905   0.088   1.955   5.530
 1647TIP3    H2 4906   0.037   1.938   5.671
 1648TIP3   OH2 4907   4.681   3.203   1.748
 1648TIP3    H1 4908   4.597   3.161   1.765
 1648TIP3    H2 4909   4.739   3.131   1.723
 1649TIP3   OH2 4910   2.305   0.533   1.618
 1649TIP3    H1 4911   2.366   0.561   1.686
 1649TIP3    H2 4912   2.246   0.472   1.663
 1650TIP3   OH2 4913   5.886   4.715   1.277
 1650TIP3    H1 4914   5.903   4.644   1.214
 1650TIP3    H2 4915   5.906   4.795   1.228
 1651TIP3   OH2 4916   4.815   3.070   3.864
 1651TIP3    H1 4917   4.868   3.063   3.785
 1651TIP3    H2 4918   4.728   3.039   3.837
 1652TIP3   OH2 4919   5.171   1.321   5.340
 1652TIP3    H1 4920   5.076   1.322   5.337
 1652TIP3    H2 4921   5.198   1.370   5.262
 1653TIP3   OH2 4922   3.387   3.581   1.766
 1653TIP3    H1 4923   3.366   3.662   1.812
 1653TIP3    H2 4924   3.463   3.603   1.711
 1654TIP3   OH2 4925   5.176   2.060   0.774
 1654TIP3    H1 4926   5.236   1.985   0.774
 1654TIP3    H2 4927   5.233   2.135   0.754
 1655TIP3   OH2 4928   3.996   4.199   0.066
 1655TIP3    H1 4929   3.976   4.254   0.142
 1655TIP3    H2 4930   4.040   4.257   0.005
 1656TIP3   OH2 4931   2.471   0.022   1.150
 1656TIP3    H1 4932   2.417   0.029   1.229
 1656TIP3    H2 4933   2.543  -0.036   1.175
 1657TIP3   OH2 4934   6.272   1.993   3.729
 1657TIP3    H1 4935   6.367   1.991   3.718
 1657TIP3    H2 4936   6.244   2.069   3.678
 1658TIP3   OH2 4937   0.104   6.246   0.077
 1658TIP3    H1 4938   0.026   6.300   0.065
 1658TIP3    H2 4939   0.120   6.249   0.171
 1659TIP3   OH2 4940   3.916   1.995   0.311
 1659TIP3    H1 4941   3.877   2.054   0.247
 1659TIP3    H2 4942   3.987   2.046   0.351
 1660TIP3   OH2 4943   1.904   1.581   2.556
 1660TIP3    H1 4944   1.894   1.599   2.462
 1660TIP3    H2 4945   1.947   1.659   2.590
 1661TIP3   OH2 4946   2.391   3.670   2.659
 1661TIP3    H1 4947   2.435   3.676   2.744
 1661TIP3    H2 4948   2.447   3.611   2.608
 1662TIP3   OH2 4949   5.019   5.820   4.500
 1662TIP3    H1 4950   5.041   5.727   4.495
 1662TIP3    H2 4951   5.035   5.844   4.591
 1663TIP3   OH2 4952   0.851   6.760   4.346
 1663TIP3    H1 4953   0.924   6.716   4.391
 1663TIP3    H2 4954   0.796   6.689   4.314
 1664TIP3   OH2 4955   3.526   5.419   2.534
 1664TIP3    H1 4956   3.526   5.375   2.449
 1664TIP3    H2 4957   3.458   5.376   2.584
 1665TIP3   OH2 4958   3.701   6.588   3.065
 1665TIP3    H1 4959   3.648   6.512   3.090
 1665TIP3    H2 4960   3.637   6.656   3.045
 1666TIP3   OH2 4961   6.695   4.053   1.814
 1666TIP3    H1 4962   6.740   4.030   1.896
 1666TIP3    H2 4963   6.696   3.971   1.764
 1667TIP3   OH2 4964   2.756   2.026   4.930
 1667TIP3    H1 4965   2.707   1.984   5.001
 1667TIP3    H2 4966   2.701   2.099   4.903
 1668TIP3   OH2 4967   3.067   1.005   2.443
 1668TIP3    H1 4968   3.078   1.096   2.417
 1668TIP3    H2 4969   2.979   0.982   2.414
 1669TIP3   OH2 4970   1.655   1.070   2.177
 1669TIP3    H1 4971   1.652   1.153   2.225
 1669TIP3    H2 4972   1.747   1.045   2.178
 1670TIP3   OH2 4973   0.759   1.325   4.068
 1670TIP3    H1 4974   0.694   1.333   3.998
 1670TIP3    H2 4975   0.771   1.414   4.100
 1671TIP3   OH2 4976   0.327   2.633   4.412
 1671TIP3    H1 4977   0.336   2.544   4.446
 1671TIP3    H2 4978   0.257   2.627   4.347
 1672TIP3   OH2 4979   6.453   5.767   1.444
 1672TIP3    H1 4980   6.466   5.861   1.454
 1672TIP3    H2 4981   6.536   5.728   1.471
 1673TIP3   OH2 4982   2.112   1.367   1.347
 1673TIP3    H1 4983   2.097   1.415   1.429
 1673TIP3    H2 4984   2.075   1.281   1.362
 1674TIP3   OH2 4985   0.815   1.783   2.923
 1674TIP3    H1 4986   0.840   1.863   2.876
 1674TIP3    H2 4987   0.867   1.786   3.003
 1675TIP3   OH2 4988   1.489   0.778   5.210
 1675TIP3    H1 4989   1.462   0.828   5.134
 1675TIP3    H2 4990   1.533   0.841   5.267
 1676TIP3   OH2 4991   3.624   5.748   0.421
 1676TIP3    H1 4992   3.531   5.726   0.427
 1676TIP3    H2 4993   3.655   5.700   0.344
 1677TIP3   OH2 4994   3.554   2.169   1.501
 1677TIP3    H1 4995   3.498   2.234   1.458
 1677TIP3    H2 4996   3.606   2.132   1.430
 1678TIP3   OH2 4997   2.544   3.450   2.494
 1678TIP3    H1 4998   2.507   3.408   2.417
 1678TIP3    H2 4999   2.554   3.378   2.557
 1679TIP3   OH2 5000   0.817   5.594   1.293
 1679TIP3    H1 5001   0.748   5.546   1.247
 1679TIP3    H2 5002   0.892   5.534   1.291
 1680TIP3   OH2 5003   6.364   6.332   4.683
 1680TIP3    H1 5004   6.326   6.321   4.596
 1680TIP3    H2 5005   6.293   6.372   4.734
 1681TIP3   OH2 5006   7.049   1.292   4.683
 1681TIP3    H1 5007   7.061   1.285   4.588
 1681TIP3    H2 5008   7.062   1.203   4.715
 1682TIP3   OH2 5009   1.336   0.455   1.751
 1682TIP3    H1 5010   1.328   0.543   1.787
 1682TIP3    H2 5011   1.283   0.400   1.808
 1683TIP3   OH2 5012   0.228   2.510   3.965
 1683TIP3    H1 5013   0.200   2.426   3.929
 1683TIP3    H2 5014   0.197   2.574   3.901
 1684TIP3   OH2 5015   7.135   6.762   5.311
 1684TIP3    H1 5016   7.057   6.738   5.263
 1684TIP3    H2 5017   7.201   6.780   5.244
 1685TIP3   OH2 5018   1.563   2.597   4.677
 1685TIP3    H1 5019   1.474   2.595   4.712
 1685TIP3    H2 5020   1.620   2.603   4.753
 1686TIP3   OH2 5021   6.483   2.267   2.671
 1686TIP3    H1 5022   6.488   2.348   2.721
 1686TIP3    H2 5023   6.574   2.243   2.653
 1687TIP3   OH2 5024   7.068   3.626   3.291
 1687TIP3    H1 5025   7.043   3.714   3.263
 1687TIP3    H2 5026   7.162   3.621   3.277
 1688TIP3   OH2 5027   2.234   3.842   2.933
 1688TIP3    H1 5028   2.243   3.772   2.868
 1688TIP3    H2 5029   2.152   3.886   2.909
 1689TIP3   OH2 5030   6.188   0.981   5.319
 1689TIP3    H1 5031   6.265   0.938   5.356
 1689TIP3    H2 5032   6.223   1.061   5.279
 1690TIP3   OH2 5033   2.066   3.995   2.155
 1690TIP3    H1 5034   2.092   4.084   2.180
 1690TIP3    H2 5035   2.050   3.951   2.239
 1691TIP3   OH2 5036   6.686   2.904   3.139
 1691TIP3    H1 5037   6.672   2.897   3.233
 1691TIP3    H2 5038   6.742   2.982   3.128
 1692TIP3   OH2 5039   5.946   1.835   3.965
 1692TIP3    H1 5040   5.890   1.822   4.042
 1692TIP3    H2 5041   5.886   1.833   3.891
 1693TIP3   OH2 5042   1.861   1.159   1.708
 1693TIP3    H1 5043   1.807   1.185   1.634
 1693TIP3    H2 5044   1.817   1.195   1.785
 1694TIP3   OH2 5045   2.013   4.863   1.475
 1694TIP3    H1 5046   2.002   4.941   1.529
 1694TIP3    H2 5047   2.105   4.840   1.482
 1695TIP3   OH2 5048   0.759   2.971   3.956
 1695TIP3    H1 5049   0.743   2.902   4.021
 1695TIP3    H2 5050   0.724   2.934   3.875
 1696TIP3   OH2 5051   1.273   3.528   4.560
 1696TIP3    H1 5052   1.342   3.561   4.617
 1696TIP3    H2 5053   1.289   3.571   4.476
 1697TIP3   OH2 5054   3.282   5.804   1.626
 1697TIP3    H1 5055   3.308   5.717   1.658
 1697TIP3    H2 5056   3.301   5.801   1.532
 1698TIP3   OH2 5057   0.651   1.319   5.065
 1698TIP3    H1 5058   0.619   1.229   5.061
 1698TIP3    H2 5059   0.572   1.373   5.073
 1699TIP3   OH2 5060   1.373   1.099   2.929
 1699TIP3    H1 5061   1.365   1.172   2.990
 1699TIP3    H2 5062   1.312   1.033   2.962
 1700TIP3   OH2 5063   3.130   1.572   1.806
 1700TIP3    H1 5064   3.097   1.627   1.877
 1700TIP3    H2 5065   3.118   1.625   1.727
 1701TIP3   OH2 5066   4.661   4.157   0.571
 1701TIP3    H1 5067   4.567   4.143   0.560
 1701TIP3    H2 5068   4.691   4.080   0.619
 1702TIP3   OH2 5069   3.423   0.685   1.449
 1702TIP3    H1 5070   3.476   0.724   1.518
 1702TIP3    H2 5071   3.383   0.608   1.490
 1703TIP3   OH2 5072   3.691   3.564   5.173
 1703TIP3    H1 5073   3.708   3.631   5.107
 1703TIP3    H2 5074   3.624   3.509   5.134
 1704TIP3   OH2 5075   3.651   6.316   3.583
 1704TIP3    H1 5076   3.661   6.405   3.550
 1704TIP3    H2 5077   3.702   6.315   3.664
 1705TIP3   OH2 5078   4.851   6.677   2.004
 1705TIP3    H1 5079   4.923   6.657   1.945
 1705TIP3    H2 5080   4.877   6.638   2.088
 1706TIP3   OH2 5081   4.208   6.719   1.060
 1706TIP3    H1 5082   4.124   6.688   1.095
 1706TIP3    H2 5083   4.184   6.781   0.992
 1707TIP3   OH2 5084   0.784   0.745   3.519
 1707TIP3    H1 5085   0.860   0.744   3.461
 1707TIP3    H2 5086   0.744   0.831   3.505
 1708TIP3   OH2 5087   6.520   4.147   2.219
 1708TIP3    H1 5088   6.610   4.145   2.252
 1708TIP3    H2 5089   6.529   4.178   2.129
 1709TIP3   OH2 5090   2.105   6.198   0.387
 1709TIP3    H1 5091   2.050   6.262   0.432
 1709TIP3    H2 5092   2.182   6.188   0.443
 1710TIP3   OH2 5093   5.692   1.617   1.195
 1710TIP3    H1 5094   5.785   1.622   1.177
 1710TIP3    H2 5095   5.649   1.652   1.117
 1711TIP3   OH2 5096   0.029   3.763   1.312
 1711TIP3    H1 5097  -0.056   3.723   1.291
 1711TIP3    H2 5098   0.043   3.827   1.243
 1712TIP3   OH2 5099   4.255   0.083   1.343
 1712TIP3    H1 5100   4.298   0.093   1.258
 1712TIP3    H2 5101   4.180   0.027   1.326
 1713TIP3   OH2 5102   0.462   3.046   4.480
 1713TIP3    H1 5103   0.377   3.001   4.480
 1713TIP3    H2 5104   0.485   3.054   4.388
 1714TIP3   OH2 5105   2.371   3.505   0.449
 1714TIP3    H1 5106   2.285   3.469   0.470
 1714TIP3    H2 5107   2.423   3.492   0.529
 1715TIP3   OH2 5108   5.158   1.891   3.644
 1715TIP3    H1 5109   5.094   1.959   3.623
 1715TIP3    H2 5110   5.207   1.879   3.563
 1716TIP3   OH2 5111   1.129   2.026   5.643
 1716TIP3    H1 5112   1.135   1.955   5.707
 1716TIP3    H2 5113   1.070   2.090   5.683
 1717TIP3   OH2 5114   2.566   4.225   1.483
 1717TIP3    H1 5115   2.557   4.201   1.391
 1717TIP3    H2 5116   2.660   4.222   1.500
 1718TIP3   OH2 5117   6.116   3.490   0.973
 1718TIP3    H1 5118   6.097   3.583   0.985
 1718TIP3    H2 5119   6.192   3.473   1.029
 1719TIP3   OH2 5120   6.418   1.767   0.415
 1719TIP3    H1 5121   6.446   1.856   0.391
 1719TIP3    H2 5122   6.453   1.711   0.347
 1720TIP3   OH2 5123   0.497   6.665   4.449
 1720TIP3    H1 5124   0.522   6.706   4.532
 1720TIP3    H2 5125   0.401   6.661   4.452
 1721TIP3   OH2 5126   6.743   4.962   0.911
 1721TIP3    H1 5127   6.671   4.905   0.940
 1721TIP3    H2 5128   6.761   5.019   0.986
 1722TIP3   OH2 5129   1.434   6.262   4.402
 1722TIP3    H1 5130   1.465   6.352   4.411
 1722TIP3    H2 5131   1.460   6.220   4.484
 1723TIP3   OH2 5132   2.465   3.728   1.323
 1723TIP3    H1 5133   2.528   3.768   1.383
 1723TIP3    H2 5134   2.484   3.769   1.238
 1724TIP3   OH2 5135   6.376   5.874   1.025
 1724TIP3    H1 5136   6.385   5.850   0.933
 1724TIP3    H2 5137   6.283   5.861   1.043
 1725TIP3   OH2 5138   6.971   1.961   1.853
 1725TIP3    H1 5139   6.980   1.866   1.868
 1725TIP3    H2 5140   6.878   1.975   1.840
 1726TIP3   OH2 5141   3.609   0.397   1.140
 1726TIP3    H1 5142   3.594   0.483   1.179
 1726TIP3    H2 5143   3.595   0.335   1.212
 1727TIP3   OH2 5144   6.444   6.429   1.273
 1727TIP3    H1 5145   6.528   6.440   1.228
 1727TIP3    H2 5146   6.385   6.397   1.204
 1728TIP3   OH2 5147   2.790   3.220   0.827
 1728TIP3    H1 5148   2.782   3.316   0.827
 1728TIP3    H2 5149   2.728   3.191   0.761
 1729TIP3   OH2 5150   7.205   1.344   3.219
 1729TIP3    H1 5151   7.111   1.338   3.234
 1729TIP3    H2 5152   7.218   1.433   3.184
 1730TIP3   OH2 5153   1.491   0.993   3.164
 1730TIP3    H1 5154   1.423   1.058   3.181
 1730TIP3    H2 5155   1.550   1.035   3.102
 1731TIP3   OH2 5156   2.696   2.352   2.013
 1731TIP3    H1 5157   2.636   2.309   1.951
 1731TIP3    H2 5158   2.642   2.416   2.059
 1732TIP3   OH2 5159   0.513   0.007   5.628
 1732TIP3    H1 5160   0.438   0.065   5.645
 1732TIP3    H2 5161   0.574   0.061   5.577
 1733TIP3   OH2 5162   5.659   2.082   4.333
 1733TIP3    H1 5163   5.718   2.041   4.270
 1733TIP3    H2 5164   5.708   2.084   4.415
 1734TIP3   OH2 5165   2.196   2.738   4.624
 1734TIP3    H1 5166   2.238   2.708   4.544
 1734TIP3    H2 5167   2.158   2.823   4.601
 1735TIP3   OH2 5168   1.003   5.755   2.087
 1735TIP3    H1 5169   0.994   5.663   2.063
 1735TIP3    H2 5170   0.933   5.799   2.038
 1736TIP3   OH2 5171   3.634   5.628   4.571
 1736TIP3    H1 5172   3.645   5.620   4.665
 1736TIP3    H2 5173   3.650   5.540   4.537
 1737TIP3   OH2 5174   2.525   1.044   4.489
 1737TIP3    H1 5175   2.539   1.077   4.400
 1737TIP3    H2 5176   2.561   0.955   4.488
 1738TIP3   OH2 5177   4.546   6.623   1.869
 1738TIP3    H1 5178   4.493   6.641   1.791
 1738TIP3    H2 5179   4.551   6.708   1.914
 1739TIP3   OH2 5180   2.858   0.530   2.271
 1739TIP3    H1 5181   2.799   0.601   2.246
 1739TIP3    H2 5182   2.943   0.555   2.236
 1740TIP3   OH2 5183   6.616   1.620   1.644
 1740TIP3    H1 5184   6.658   1.585   1.565
 1740TIP3    H2 5185   6.653   1.568   1.715
 1741TIP3   OH2 5186   3.918   4.616   2.176
 1741TIP3    H1 5187   3.885   4.566   2.251
 1741TIP3    H2 5188   3.872   4.700   2.182
 1742TIP3   OH2 5189   1.629   2.069   3.013
 1742TIP3    H1 5190   1.714   2.099   3.045
 1742TIP3    H2 5191   1.647   1.987   2.968
 1743TIP3   OH2 5192   1.709   1.219   1.476
 1743TIP3    H1 5193   1.654   1.144   1.452
 1743TIP3    H2 5194   1.651   1.295   1.468
 1744TIP3   OH2 5195   6.184   1.712   3.807
 1744TIP3    H1 5196   6.113   1.741   3.865
 1744TIP3    H2 5197   6.204   1.789   3.754
 1745TIP3   OH2 5198   4.454   3.100   2.191
 1745TIP3    H1 5199   4.545   3.111   2.161
 1745TIP3    H2 5200   4.415   3.187   2.180
 1746TIP3   OH2 5201   5.775   6.140   4.303
 1746TIP3    H1 5202   5.711   6.070   4.313
 1746TIP3    H2 5203   5.757   6.199   4.377
 1747TIP3   OH2 5204   5.053   5.862   1.185
 1747TIP3    H1 5205   5.000   5.798   1.232
 1747TIP3    H2 5206   5.139   5.820   1.175
 1748TIP3   OH2 5207   0.375   6.147   1.423
 1748TIP3    H1 5208   0.372   6.054   1.444
 1748TIP3    H2 5209   0.422   6.151   1.340
 1749TIP3   OH2 5210   2.853   3.527   0.534
 1749TIP3    H1 5211   2.941   3.551   0.505
 1749TIP3    H2 5212   2.795   3.562   0.466
 1750TIP3   OH2 5213   5.226   1.070   3.541
 1750TIP3    H1 5214   5.298   1.131   3.559
 1750TIP3    H2 5215   5.266   1.002   3.487
 1751TIP3   OH2 5216   0.256   0.597   3.962
 1751TIP3    H1 5217   0.330   0.617   4.020
 1751TIP3    H2 5218   0.261   0.502   3.949
 1752TIP3   OH2 5219   6.042   4.970   4.645
 1752TIP3    H1 5220   6.056   5.037   4.712
 1752TIP3    H2 5221   5.986   5.012   4.580
 1753TIP3   OH2 5222   6.422   5.427   3.782
 1753TIP3    H1 5223   6.437   5.486   3.709
 1753TIP3    H2 5224   6.507   5.388   3.800
 1754TIP3   OH2 5225   4.126   4.348   4.826
 1754TIP3    H1 5226   4.136   4.254   4.842
 1754TIP3    H2 5227   4.173   4.390   4.899
 1755TIP3   OH2 5228   6.526   5.442   2.580
 1755TIP3    H1 5229   6.578   5.363   2.594
 1755TIP3    H2 5230   6.435   5.414   2.593
 1756TIP3   OH2 5231   4.678   2.376   2.520
 1756TIP3    H1 5232   4.754   2.368   2.463
 1756TIP3    H2 5233   4.706   2.436   2.589
 1757TIP3   OH2 5234   0.865   5.614   2.398
 1757TIP3    H1 5235   0.832   5.700   2.373
 1757TIP3    H2 5236   0.860   5.562   2.318
 1758TIP3   OH2 5237   0.146   5.699   4.943
 1758TIP3    H1 5238   0.150   5.772   4.882
 1758TIP3    H2 5239   0.183   5.625   4.895
 1759TIP3   OH2 5240   0.944   2.168   4.483
 1759TIP3    H1 5241   1.005   2.242   4.482
 1759TIP3    H2 5242   0.978   2.108   4.417
 1760TIP3   OH2 5243   7.061   3.906   4.316
 1760TIP3    H1 5244   7.130   3.860   4.269
 1760TIP3    H2 5245   7.094   3.914   4.405
 1761TIP3   OH2 5246   2.472   6.459   0.754
 1761TIP3    H1 5247   2.566   6.478   0.757
 1761TIP3    H2 5248   2.440   6.506   0.677
 1762TIP3   OH2 5249   6.569   3.297   5.577
 1762TIP3    H1 5250   6.483   3.277   5.538
 1762TIP3    H2 5251   6.548   3.341   5.659
 1763TIP3   OH2 5252   5.670   2.612   4.927
 1763TIP3    H1 5253   5.664   2.667   5.005
 1763TIP3    H2 5254   5.653   2.672   4.854
 1764TIP3   OH2 5255   5.625   1.989   3.243
 1764TIP3    H1 5256   5.570   2.048   3.191
 1764TIP3    H2 5257   5.620   1.905   3.198
 1765TIP3   OH2 5258   3.263   2.048   0.079
 1765TIP3    H1 5259   3.180   2.078   0.116
 1765TIP3    H2 5260   3.237   1.987   0.009
 1766TIP3   OH2 5261   2.448   6.034   4.109
 1766TIP3    H1 5262   2.444   6.028   4.014
 1766TIP3    H2 5263   2.358   6.044   4.137
 1767TIP3   OH2 5264   4.013   3.095   3.433
 1767TIP3    H1 5265   4.099   3.114   3.471
 1767TIP3    H2 5266   4.030   3.031   3.364
 1768TIP3   OH2 5267   5.695   2.334   0.372
 1768TIP3    H1 5268   5.738   2.273   0.312
 1768TIP3    H2 5269   5.644   2.392   0.315
 1769TIP3   OH2 5270   6.707   3.359   2.994
 1769TIP3    H1 5271   6.720   3.410   3.073
 1769TIP3    H2 5272   6.613   3.363   2.977
 1770TIP3   OH2 5273   6.490   1.976   1.392
 1770TIP3    H1 5274   6.462   1.975   1.300
 1770TIP3    H2 5275   6.413   1.947   1.441
 1771TIP3   OH2 5276   0.626   2.773   0.347
 1771TIP3    H1 5277   0.688   2.735   0.410
 1771TIP3    H2 5278   0.618   2.864   0.374
 1772TIP3   OH2 5279   7.151   4.116   5.801
 1772TIP3    H1 5280   7.186   4.081   5.719
 1772TIP3    H2 5281   7.085   4.053   5.829
 1773TIP3   OH2 5282   5.673   4.036   3.888
 1773TIP3    H1 5283   5.751   4.090   3.880
 1773TIP3    H2 5284   5.602   4.098   3.905
 1774TIP3   OH2 5285   6.460   3.064   3.300
 1774TIP3    H1 5286   6.497   3.002   3.238
 1774TIP3    H2 5287   6.466   3.149   3.255
 1775TIP3   OH2 5288   2.381   2.662   4.430
 1775TIP3    H1 5289   2.421   2.748   4.426
 1775TIP3    H2 5290   2.391   2.626   4.342
 1776TIP3   OH2 5291   1.527   1.492   0.866
 1776TIP3    H1 5292   1.577   1.461   0.791
 1776TIP3    H2 5293   1.591   1.532   0.924
 1777TIP3   OH2 5294   1.542   3.559   4.234
 1777TIP3    H1 5295   1.520   3.468   4.217
 1777TIP3    H2 5296   1.633   3.567   4.207
 1778TIP3   OH2 5297   2.842   2.836   5.267
 1778TIP3    H1 5298   2.828   2.769   5.334
 1778TIP3    H2 5299   2.753   2.859   5.238
 1779TIP3   OH2 5300   1.305   1.425   5.742
 1779TIP3    H1 5301   1.270   1.506   5.705
 1779TIP3    H2 5302   1.284   1.358   5.677
 1780TIP3   OH2 5303   2.584   0.184   4.716
 1780TIP3    H1 5304   2.519   0.114   4.723
 1780TIP3    H2 5305   2.563   0.244   4.788
 1781TIP3   OH2 5306   2.106   1.604   3.419
 1781TIP3    H1 5307   2.087   1.652   3.339
 1781TIP3    H2 5308   2.197   1.627   3.440
 1782TIP3   OH2 5309   3.415   0.925   1.079
 1782TIP3    H1 5310   3.455   0.967   1.003
 1782TIP3    H2 5311   3.440   0.981   1.153
 1783TIP3   OH2 5312   6.002   0.397   3.874
 1783TIP3    H1 5313   6.012   0.373   3.782
 1783TIP3    H2 5314   5.946   0.329   3.911
 1784TIP3   OH2 5315   0.564   4.825   2.340
 1784TIP3    H1 5316   0.637   4.860   2.289
 1784TIP3    H2 5317   0.573   4.730   2.331
 1785TIP3   OH2 5318   4.696   6.084   3.313
 1785TIP3    H1 5319   4.642   6.106   3.237
 1785TIP3    H2 5320   4.733   5.998   3.292
 1786TIP3   OH2 5321   3.124   4.006   4.604
 1786TIP3    H1 5322   3.141   3.920   4.565
 1786TIP3    H2 5323   3.046   4.038   4.559
 1787TIP3   OH2 5324   6.906   3.335   0.331
 1787TIP3    H1 5325   6.990   3.366   0.298
 1787TIP3    H2 5326   6.913   3.240   0.329
 1788TIP3   OH2 5327   2.080   5.745   2.826
 1788TIP3    H1 5328   1.990   5.725   2.797
 1788TIP3    H2 5329   2.126   5.768   2.745
 1789TIP3   OH2 5330   4.036   3.716   0.275
 1789TIP3    H1 5331   4.040   3.792   0.217
 1789TIP3    H2 5332   3.962   3.733   0.333
 1790TIP3   OH2 5333   0.289   6.242   3.583
 1790TIP3    H1 5334   0.198   6.262   3.564
 1790TIP3    H2 5335   0.338   6.319   3.554
 1791TIP3   OH2 5336   2.050   6.216   1.798
 1791TIP3    H1 5337   2.027   6.148   1.861
 1791TIP3    H2 5338   2.035   6.298   1.845
 1792TIP3   OH2 5339   4.675   6.447   2.372
 1792TIP3    H1 5340   4.641   6.447   2.283
 1792TIP3    H2 5341   4.632   6.522   2.414
 1793TIP3   OH2 5342   2.763   1.922   5.608
 1793TIP3    H1 5343   2.746   1.834   5.573
 1793TIP3    H2 5344   2.858   1.925   5.619
 1794TIP3   OH2 5345   4.239   3.182   4.131
 1794TIP3    H1 5346   4.307   3.131   4.086
 1794TIP3    H2 5347   4.270   3.188   4.221
 1795TIP3   OH2 5348   5.821   1.420   3.653
 1795TIP3    H1 5349   5.837   1.349   3.716
 1795TIP3    H2 5350   5.908   1.453   3.631
 1796TIP3   OH2 5351   4.401   4.821   0.454
 1796TIP3    H1 5352   4.325   4.860   0.411
 1796TIP3    H2 5353   4.444   4.895   0.498
 1797TIP3   OH2 5354   3.497   0.096   5.493
 1797TIP3    H1 5355   3.458   0.032   5.553
 1797TIP3    H2 5356   3.546   0.156   5.549
 1798TIP3   OH2 5357   5.695   4.603   4.756
 1798TIP3    H1 5358   5.754   4.611   4.681
 1798TIP3    H2 5359   5.674   4.693   4.779
 1799TIP3   OH2 5360   3.045   4.729   5.018
 1799TIP3    H1 5361   3.048   4.661   4.950
 1799TIP3    H2 5362   3.036   4.811   4.970
 1800TIP3   OH2 5363   5.474   0.702   3.816
 1800TIP3    H1 5364   5.518   0.643   3.755
 1800TIP3    H2 5365   5.487   0.789   3.779
 1801TIP3   OH2 5366   5.352   2.080   3.488
 1801TIP3    H1 5367   5.394   2.091   3.574
 1801TIP3    H2 5368   5.377   1.992   3.460
 1802TIP3   OH2 5369   0.486   3.888   5.686
 1802TIP3    H1 5370   0.494   3.808   5.738
 1802TIP3    H2 5371   0.437   3.948   5.742
 1803TIP3   OH2 5372   3.377   4.449   4.786
 1803TIP3    H1 5373   3.307   4.384   4.780
 1803TIP3    H2 5374   3.429   4.435   4.707
 1804TIP3   OH2 5375   2.002   0.033   0.221
 1804TIP3    H1 5376   2.011   0.087   0.300
 1804TIP3    H2 5377   1.932   0.075   0.171
 1805TIP3   OH2 5378   5.506   4.397   2.909
 1805TIP3    H1 5379   5.487   4.365   2.821
 1805TIP3    H2 5380   5.434   4.363   2.963
 1806TIP3   OH2 5381   3.283   2.337   3.508
 1806TIP3    H1 5382   3.191   2.318   3.527
 1806TIP3    H2 5383   3.302   2.286   3.429
 1807TIP3   OH2 5384   1.858   6.392   5.707
 1807TIP3    H1 5385   1.925   6.431   5.763
 1807TIP3    H2 5386   1.886   6.415   5.618
 1808TIP3   OH2 5387   0.622   3.931   0.417
 1808TIP3    H1 5388   0.648   3.877   0.491
 1808TIP3    H2 5389   0.551   3.986   0.452
 1809TIP3   OH2 5390   4.779   1.573   5.369
 1809TIP3    H1 5391   4.865   1.537   5.389
 1809TIP3    H2 5392   4.718   1.521   5.421
 1810TIP3   OH2 5393   2.223   5.906   1.349
 1810TIP3    H1 5394   2.182   5.838   1.403
 1810TIP3    H2 5395   2.293   5.860   1.302
 1811TIP3   OH2 5396   6.460   0.782   2.032
 1811TIP3    H1 5397   6.419   0.696   2.038
 1811TIP3    H2 5398   6.486   0.791   1.941
 1812TIP3   OH2 5399   1.810   5.798   4.675
 1812TIP3    H1 5400   1.754   5.856   4.623
 1812TIP3    H2 5401   1.804   5.833   4.764
 1813TIP3   OH2 5402   2.512   4.438   5.464
 1813TIP3    H1 5403   2.576   4.370   5.445
 1813TIP3    H2 5404   2.450   4.397   5.525
 1814TIP3   OH2 5405   6.393   4.219   2.571
 1814TIP3    H1 5406   6.370   4.139   2.523
 1814TIP3    H2 5407   6.310   4.264   2.586
 1815TIP3   OH2 5408   0.314   5.850   1.891
 1815TIP3    H1 5409   0.311   5.784   1.822
 1815TIP3    H2 5410   0.363   5.923   1.853
 1816TIP3   OH2 5411   1.269   1.183   3.162
 1816TIP3    H1 5412   1.263   1.257   3.223
 1816TIP3    H2 5413   1.178   1.165   3.137
 1817TIP3   OH2 5414   1.724   1.009   0.686
 1817TIP3    H1 5415   1.802   1.063   0.697
 1817TIP3    H2 5416   1.749   0.923   0.720
 1818TIP3   OH2 5417   0.144   5.253   3.117
 1818TIP3    H1 5418   0.229   5.213   3.102
 1818TIP3    H2 5419   0.161   5.347   3.115
 1819TIP3   OH2 5420   5.191   0.796   2.815
 1819TIP3    H1 5421   5.157   0.713   2.781
 1819TIP3    H2 5422   5.190   0.786   2.910
 1820TIP3   OH2 5423   6.690   2.773   2.760
 1820TIP3    H1 5424   6.608   2.772   2.809
 1820TIP3    H2 5425   6.749   2.717   2.810
 1821TIP3   OH2 5426   6.679   4.795   1.316
 1821TIP3    H1 5427   6.622   4.724   1.345
 1821TIP3    H2 5428   6.763   4.777   1.358
 1822TIP3   OH2 5429   3.794   2.131   5.003
 1822TIP3    H1 5430   3.872   2.112   5.055
 1822TIP3    H2 5431   3.747   2.048   4.998
 1823TIP3   OH2 5432   4.437   5.720   0.363
 1823TIP3    H1 5433   4.455   5.814   0.355
 1823TIP3    H2 5434   4.349   5.717   0.401
 1824TIP3   OH2 5435   2.472   2.321   3.368
 1824TIP3    H1 5436   2.457   2.373   3.290
 1824TIP3    H2 5437   2.530   2.251   3.340
 1825TIP3   OH2 5438   3.715   6.137   4.120
 1825TIP3    H1 5439   3.732   6.047   4.093
 1825TIP3    H2 5440   3.620   6.143   4.124
 1826TIP3   OH2 5441   5.442   6.238   5.143
 1826TIP3    H1 5442   5.476   6.171   5.203
 1826TIP3    H2 5443   5.422   6.190   5.063
 1827TIP3   OH2 5444   4.058   3.636   3.514
 1827TIP3    H1 5445   4.051   3.541   3.511
 1827TIP3    H2 5446   4.032   3.660   3.603
 1828TIP3   OH2 5447   3.652   0.131   2.314
 1828TIP3    H1 5448   3.576   0.092   2.357
 1828TIP3    H2 5449   3.645   0.104   2.223
 1829TIP3   OH2 5450   7.074   3.166   5.609
 1829TIP3    H1 5451   7.115   3.082   5.631
 1829TIP3    H2 5452   6.980   3.151   5.622
 1830TIP3   OH2 5453   6.304   2.061   1.067
 1830TIP3    H1 5454   6.366   1.990   1.052
 1830TIP3    H2 5455   6.225   2.018   1.101
 1831TIP3   OH2 5456   3.646   3.514   4.616
 1831TIP3    H1 5457   3.678   3.585   4.560
 1831TIP3    H2 5458   3.602   3.558   4.688
 1832TIP3   OH2 5459   1.410   6.288   1.667
 1832TIP3    H1 5460   1.408   6.338   1.749
 1832TIP3    H2 5461   1.413   6.197   1.695
 1833TIP3   OH2 5462   5.643   6.408   4.195
 1833TIP3    H1 5463   5.666   6.316   4.207
 1833TIP3    H2 5464   5.645   6.421   4.100
 1834TIP3   OH2 5465   6.245   4.397   3.536
 1834TIP3    H1 5466   6.284   4.401   3.623
 1834TIP3    H2 5467   6.237   4.488   3.508
 1835TIP3   OH2 5468   1.284   2.841   3.965
 1835TIP3    H1 5469   1.356   2.778   3.963
 1835TIP3    H2 5470   1.288   2.880   4.052
 1836TIP3   OH2 5471   1.153   5.549   3.083
 1836TIP3    H1 5472   1.080   5.612   3.082
 1836TIP3    H2 5473   1.112   5.465   3.058
 1837TIP3   OH2 5474   5.718   4.299   0.450
 1837TIP3    H1 5475   5.696   4.391   0.435
 1837TIP3    H2 5476   5.731   4.263   0.362
 1838TIP3   OH2 5477   5.541   6.004   0.354
 1838TIP3    H1 5478   5.569   5.944   0.285
 1838TIP3    H2 5479   5.446   5.998   0.354
 1839TIP3   OH2 5480   3.450   5.295   2.303
 1839TIP3    H1 5481   3.432   5.387   2.283
 1839TIP3    H2 5482   3.401   5.246   2.238
 1840TIP3   OH2 5483   2.689   0.776   1.504
 1840TIP3    H1 5484   2.640   0.857   1.517
 1840TIP3    H2 5485   2.773   0.804   1.468
 1841TIP3   OH2 5486   7.046   4.050   1.201
 1841TIP3    H1 5487   7.136   4.080   1.214
 1841TIP3    H2 5488   7.032   4.057   1.107
 1842TIP3   OH2 5489   4.002   5.748   4.468
 1842TIP3    H1 5490   3.983   5.655   4.473
 1842TIP3    H2 5491   4.076   5.754   4.408
 1843TIP3   OH2 5492   4.695   5.286   0.951
 1843TIP3    H1 5493   4.719   5.251   0.865
 1843TIP3    H2 5494   4.773   5.274   1.004
 1844TIP3   OH2 5495   4.938   1.896   5.904
 1844TIP3    H1 5496   4.995   1.903   5.981
 1844TIP3    H2 5497   4.998   1.880   5.831
 1845TIP3   OH2 5498   4.521   1.866   4.342
 1845TIP3    H1 5499   4.559   1.886   4.428
 1845TIP3    H2 5500   4.489   1.950   4.311
 1846TIP3   OH2 5501   0.009   4.798   5.073
 1846TIP3    H1 5502  -0.020   4.822   4.985
 1846TIP3    H2 5503   0.097   4.762   5.059
 1847TIP3   OH2 5504   0.201   1.180   0.897
 1847TIP3    H1 5505   0.151   1.260   0.914
 1847TIP3    H2 5506   0.135   1.110   0.900
 1848TIP3   OH2 5507   6.244   6.248   1.443
 1848TIP3    H1 5508   6.216   6.308   1.374
 1848TIP3    H2 5509   6.250   6.302   1.522
 1849TIP3   OH2 5510   3.457   4.218   1.069
 1849TIP3    H1 5511   3.394   4.183   1.132
 1849TIP3    H2 5512   3.491   4.297   1.109
 1850TIP3   OH2 5513   0.759   5.288   1.815
 1850TIP3    H1 5514   0.850   5.267   1.798
 1850TIP3    H2 5515   0.743   5.257   1.904
 1851TIP3   OH2 5516   1.574   5.489   3.186
 1851TIP3    H1 5517   1.649   5.438   3.216
 1851TIP3    H2 5518   1.568   5.470   3.092
 1852TIP3   OH2 5519   3.798   4.225   4.754
 1852TIP3    H1 5520   3.822   4.315   4.777
 1852TIP3    H2 5521   3.807   4.222   4.658
 1853TIP3   OH2 5522   0.591   1.917   2.755
 1853TIP3    H1 5523   0.575   1.848   2.690
 1853TIP3    H2 5524   0.686   1.932   2.751
 1854TIP3   OH2 5525   3.498   5.256   1.579
 1854TIP3    H1 5526   3.508   5.288   1.669
 1854TIP3    H2 5527   3.563   5.186   1.571
 1855TIP3   OH2 5528   1.843   6.456   3.941
 1855TIP3    H1 5529   1.759   6.447   3.987
 1855TIP3    H2 5530   1.819   6.493   3.856
 1856TIP3   OH2 5531   4.382   6.068   2.372
 1856TIP3    H1 5532   4.460   6.052   2.319
 1856TIP3    H2 5533   4.320   6.109   2.311
 1857TIP3   OH2 5534   6.477   0.263   5.045
 1857TIP3    H1 5535   6.404   0.236   5.101
 1857TIP3    H2 5536   6.550   0.275   5.106
 1858TIP3   OH2 5537   2.093   5.769   3.798
 1858TIP3    H1 5538   2.038   5.733   3.729
 1858TIP3    H2 5539   2.093   5.864   3.781
 1859TIP3   OH2 5540   6.508   5.999   1.726
 1859TIP3    H1 5541   6.435   5.942   1.701
 1859TIP3    H2 5542   6.471   6.059   1.790
 1860TIP3   OH2 5543   4.519   2.195   2.401
 1860TIP3    H1 5544   4.574   2.118   2.410
 1860TIP3    H2 5545   4.574   2.268   2.429
 1861TIP3   OH2 5546   4.179   1.064   1.752
 1861TIP3    H1 5547   4.200   1.043   1.661
 1861TIP3    H2 5548   4.263   1.086   1.792
 1862TIP3   OH2 5549   1.870   6.527   4.534
 1862TIP3    H1 5550   1.870   6.501   4.627
 1862TIP3    H2 5551   1.924   6.460   4.491
 1863TIP3   OH2 5552   3.931   4.787   0.626
 1863TIP3    H1 5553   3.850   4.800   0.576
 1863TIP3    H2 5554   3.909   4.813   0.715
 1864TIP3   OH2 5555   1.918   4.041   1.252
 1864TIP3    H1 5556   1.837   4.049   1.303
 1864TIP3    H2 5557   1.894   4.074   1.165
 1865TIP3   OH2 5558   4.689   6.188   2.008
 1865TIP3    H1 5559   4.730   6.187   1.921
 1865TIP3    H2 5560   4.617   6.250   2.000
 1866TIP3   OH2 5561   6.422   4.007   4.438
 1866TIP3    H1 5562   6.370   3.963   4.371
 1866TIP3    H2 5563   6.400   4.100   4.428
 1867TIP3   OH2 5564   2.076   1.520   0.596
 1867TIP3    H1 5565   2.124   1.585   0.648
 1867TIP3    H2 5566   2.076   1.441   0.650
 1868TIP3   OH2 5567   1.647   1.310   5.644
 1868TIP3    H1 5568   1.653   1.404   5.630
 1868TIP3    H2 5569   1.732   1.275   5.618
 1869TIP3   OH2 5570   3.898   0.116   0.601
 1869TIP3    H1 5571   3.922   0.052   0.668
 1869TIP3    H2 5572   3.885   0.197   0.649
 1870TIP3   OH2 5573   3.771   6.504   0.461
 1870TIP3    H1 5574   3.738   6.530   0.376
 1870TIP3    H2 5575   3.771   6.408   0.459
 1871TIP3   OH2 5576   3.898   4.712   1.756
 1871TIP3    H1 5577   3.890   4.641   1.820
 1871TIP3    H2 5578   3.951   4.674   1.686
 1872TIP3   OH2 5579   5.790   6.608   0.778
 1872TIP3    H1 5580   5.828   6.571   0.858
 1872TIP3    H2 5581   5.865   6.621   0.720
 1873TIP3   OH2 5582   3.063   1.532   5.817
 1873TIP3    H1 5583   2.987   1.496   5.772
 1873TIP3    H2 5584   3.139   1.503   5.766
 1874TIP3   OH2 5585   0.401   1.297   2.189
 1874TIP3    H1 5586   0.455   1.265   2.117
 1874TIP3    H2 5587   0.311   1.295   2.154
 1875TIP3   OH2 5588   2.004   0.966   2.024
 1875TIP3    H1 5589   1.973   0.951   2.113
 1875TIP3    H2 5590   1.984   1.058   2.007
 1876TIP3   OH2 5591   1.465   3.940   0.429
 1876TIP3    H1 5592   1.473   4.024   0.474
 1876TIP3    H2 5593   1.537   3.886   0.464
 1877TIP3   OH2 5594   1.062   3.359   4.567
 1877TIP3    H1 5595   1.008   3.383   4.642
 1877TIP3    H2 5596   1.126   3.430   4.560
 1878TIP3   OH2 5597   6.032   4.649   3.057
 1878TIP3    H1 5598   6.124   4.631   3.041
 1878TIP3    H2 5599   6.018   4.738   3.025
 1879TIP3   OH2 5600   1.207   3.467   4.897
 1879TIP3    H1 5601   1.234   3.553   4.930
 1879TIP3    H2 5602   1.115   3.478   4.873
 1880TIP3   OH2 5603   2.959   1.389   4.889
 1880TIP3    H1 5604   3.034   1.428   4.936
 1880TIP3    H2 5605   2.999   1.336   4.821
 1881TIP3   OH2 5606   6.974   5.117   2.160
 1881TIP3    H1 5607   6.906   5.165   2.207
 1881TIP3    H2 5608   6.987   5.037   2.211
 1882TIP3   OH2 5609   6.871   0.963   2.218
 1882TIP3    H1 5610   6.779   0.938   2.227
 1882TIP3    H2 5611   6.873   1.023   2.143
 1883TIP3   OH2 5612   4.911   3.632   0.916
 1883TIP3    H1 5613   4.965   3.704   0.948
 1883TIP3    H2 5614   4.880   3.661   0.830
 1884TIP3   OH2 5615   3.436   3.628   0.007
 1884TIP3    H1 5616   3.378   3.606  -0.066
 1884TIP3    H2 5617   3.443   3.723   0.004
 1885TIP3   OH2 5618   2.738   2.967   1.870
 1885TIP3    H1 5619   2.738   3.046   1.924
 1885TIP3    H2 5620   2.758   2.896   1.931
 1886TIP3   OH2 5621   1.005   6.667   3.616
 1886TIP3    H1 5622   1.053   6.646   3.695
 1886TIP3    H2 5623   0.971   6.756   3.631
 1887TIP3   OH2 5624   5.269   5.858   2.237
 1887TIP3    H1 5625   5.319   5.847   2.318
 1887TIP3    H2 5626   5.313   5.930   2.192
 1888TIP3   OH2 5627   4.059   5.286   4.064
 1888TIP3    H1 5628   4.038   5.317   3.976
 1888TIP3    H2 5629   4.027   5.196   4.066
 1889TIP3   OH2 5630   0.740   3.334   5.252
 1889TIP3    H1 5631   0.775   3.398   5.314
 1889TIP3    H2 5632   0.802   3.334   5.179
 1890TIP3   OH2 5633   3.275   0.620   3.898
 1890TIP3    H1 5634   3.363   0.599   3.868
 1890TIP3    H2 5635   3.238   0.674   3.828
 1891TIP3   OH2 5636   5.528   3.115   4.008
 1891TIP3    H1 5637   5.449   3.080   4.048
 1891TIP3    H2 5638   5.582   3.144   4.081
 1892TIP3   OH2 5639   4.022   1.830   5.802
 1892TIP3    H1 5640   3.984   1.812   5.716
 1892TIP3    H2 5641   4.112   1.800   5.795
 1893TIP3   OH2 5642   3.037   2.334   4.791
 1893TIP3    H1 5643   3.002   2.293   4.870
 1893TIP3    H2 5644   3.026   2.428   4.806
 1894TIP3   OH2 5645   5.475   4.455   4.763
 1894TIP3    H1 5646   5.545   4.519   4.751
 1894TIP3    H2 5647   5.519   4.377   4.798
 1895TIP3   OH2 5648   4.499   0.994   2.694
 1895TIP3    H1 5649   4.540   0.908   2.689
 1895TIP3    H2 5650   4.532   1.032   2.776
 1896TIP3   OH2 5651   4.240   5.151   4.865
 1896TIP3    H1 5652   4.175   5.121   4.801
 1896TIP3    H2 5653   4.189   5.198   4.931
 1897TIP3   OH2 5654   6.387   0.650   1.205
 1897TIP3    H1 5655   6.394   0.568   1.156
 1897TIP3    H2 5656   6.322   0.632   1.273
 1898TIP3   OH2 5657   2.755   0.813   5.634
 1898TIP3    H1 5658   2.837   0.766   5.648
 1898TIP3    H2 5659   2.751   0.826   5.539
 1899TIP3   OH2 5660   4.365   0.552   3.991
 1899TIP3    H1 5661   4.358   0.586   4.080
 1899TIP3    H2 5662   4.434   0.485   3.997
 1900TIP3   OH2 5663   2.801   1.747   3.472
 1900TIP3    H1 5664   2.849   1.816   3.518
 1900TIP3    H2 5665   2.797   1.675   3.536
 1901TIP3   OH2 5666   2.695   5.374   3.977
 1901TIP3    H1 5667   2.770   5.432   3.991
 1901TIP3    H2 5668   2.729   5.303   3.923
 1902TIP3   OH2 5669   1.627   5.960   1.742
 1902TIP3    H1 5670   1.693   6.000   1.798
 1902TIP3    H2 5671   1.640   6.000   1.657
 1903TIP3   OH2 5672   0.691   0.153   1.516
 1903TIP3    H1 5673   0.658   0.199   1.594
 1903TIP3    H2 5674   0.704   0.222   1.451
 1904TIP3   OH2 5675   6.876   5.659   2.725
 1904TIP3    H1 5676   6.900   5.628   2.638
 1904TIP3    H2 5677   6.916   5.745   2.732
 1905TIP3   OH2 5678   0.702   4.165   5.801
 1905TIP3    H1 5679   0.670   4.252   5.823
 1905TIP3    H2 5680   0.626   4.120   5.763
 1906TIP3   OH2 5681   2.067   4.383   1.928
 1906TIP3    H1 5682   1.978   4.408   1.905
 1906TIP3    H2 5683   2.119   4.463   1.919
 1907TIP3   OH2 5684   1.179   3.213   0.245
 1907TIP3    H1 5685   1.225   3.174   0.171
 1907TIP3    H2 5686   1.231   3.186   0.321
 1908TIP3   OH2 5687   0.265   5.896   0.791
 1908TIP3    H1 5688   0.266   5.826   0.725
 1908TIP3    H2 5689   0.198   5.957   0.760
 1909TIP3   OH2 5690   3.687   0.696   1.314
 1909TIP3    H1 5691   3.730   0.693   1.400
 1909TIP3    H2 5692   3.595   0.674   1.334
 1910TIP3   OH2 5693   4.516   0.301   5.731
 1910TIP3    H1 5694   4.552   0.322   5.645
 1910TIP3    H2 5695   4.469   0.380   5.757
 1911TIP3   OH2 5696   2.539   1.326   5.744
 1911TIP3    H1 5697   2.462   1.313   5.690
 1911TIP3    H2 5698   2.507   1.318   5.834
 1912TIP3   OH2 5699   3.879   6.532   2.778
 1912TIP3    H1 5700   3.834   6.565   2.856
 1912TIP3    H2 5701   3.868   6.600   2.713
 1913TIP3   OH2 5702   4.250   5.854   4.178
 1913TIP3    H1 5703   4.179   5.906   4.216
 1913TIP3    H2 5704   4.252   5.774   4.230
 1914TIP3   OH2 5705   0.226   4.493   3.974
 1914TIP3    H1 5706   0.198   4.434   3.904
 1914TIP3    H2 5707   0.167   4.474   4.047
 1915TIP3   OH2 5708   5.326   4.305   2.090
 1915TIP3    H1 5709   5.277   4.297   2.009
 1915TIP3    H2 5710   5.358   4.395   2.090
 1916TIP3   OH2 5711   4.630   2.976   3.110
 1916TIP3    H1 5712   4.566   3.024   3.163
 1916TIP3    H2 5713   4.588   2.892   3.092
 1917TIP3   OH2 5714   2.432   4.734   0.115
 1917TIP3    H1 5715   2.392   4.814   0.084
 1917TIP3    H2 5716   2.492   4.762   0.184
 1918TIP3   OH2 5717   2.118   1.563   0.198
 1918TIP3    H1 5718   2.178   1.634   0.175
 1918TIP3    H2 5719   2.052   1.604   0.254
 1919TIP3   OH2 5720   1.864   2.419   0.812
 1919TIP3    H1 5721   1.861   2.486   0.880
 1919TIP3    H2 5722   1.887   2.339   0.859
 1920TIP3   OH2 5723   0.366   2.408   5.710
 1920TIP3    H1 5724   0.338   2.444   5.625
 1920TIP3    H2 5725   0.359   2.313   5.699
 1921TIP3   OH2 5726   3.670   6.324   0.718
 1921TIP3    H1 5727   3.725   6.335   0.641
 1921TIP3    H2 5728   3.581   6.326   0.685
 1922TIP3   OH2 5729   0.718   4.266   0.462
 1922TIP3    H1 5730   0.632   4.225   0.449
 1922TIP3    H2 5731   0.701   4.340   0.520
 1923TIP3   OH2 5732   6.052   6.445   5.843
 1923TIP3    H1 5733   5.957   6.447   5.832
 1923TIP3    H2 5734   6.076   6.354   5.825
 1924TIP3   OH2 5735   3.363   1.197   1.551
 1924TIP3    H1 5736   3.275   1.177   1.521
 1924TIP3    H2 5737   3.351   1.255   1.626
 1925TIP3   OH2 5738   3.338   1.243   4.695
 1925TIP3    H1 5739   3.306   1.331   4.673
 1925TIP3    H2 5740   3.265   1.201   4.741
 1926TIP3   OH2 5741   2.196   1.021   5.618
 1926TIP3    H1 5742   2.250   1.085   5.572
 1926TIP3    H2 5743   2.228   0.936   5.587
 1927TIP3   OH2 5744   4.446   6.105   4.466
 1927TIP3    H1 5745   4.532   6.063   4.468
 1927TIP3    H2 5746   4.441   6.153   4.549
 1928TIP3   OH2 5747   4.606   0.799   5.375
 1928TIP3    H1 5748   4.587   0.888   5.348
 1928TIP3    H2 5749   4.550   0.784   5.451
 1929TIP3   OH2 5750   0.132   6.141   0.409
 1929TIP3    H1 5751   0.060   6.086   0.437
 1929TIP3    H2 5752   0.100   6.231   0.419
 1930TIP3   OH2 5753   0.765   3.575   5.403
 1930TIP3    H1 5754   0.839   3.587   5.462
 1930TIP3    H2 5755   0.700   3.529   5.455
 1931TIP3   OH2 5756   4.274   0.497   2.363
 1931TIP3    H1 5757   4.301   0.541   2.282
 1931TIP3    H2 5758   4.330   0.536   2.430
 1932TIP3   OH2 5759   3.961   3.438   2.169
 1932TIP3    H1 5760   3.963   3.409   2.078
 1932TIP3    H2 5761   3.885   3.395   2.206
 1933TIP3   OH2 5762   5.972   6.662   5.643
 1933TIP3    H1 5763   5.975   6.709   5.726
 1933TIP3    H2 5764   6.017   6.579   5.661
 1934TIP3   OH2 5765   1.589   2.957   0.283
 1934TIP3    H1 5766   1.516   3.007   0.319
 1934TIP3    H2 5767   1.549   2.879   0.245
 1935TIP3   OH2 5768   7.068   3.534   2.394
 1935TIP3    H1 5769   7.121   3.608   2.365
 1935TIP3    H2 5770   7.114   3.499   2.470
 1936TIP3   OH2 5771   0.722   5.700   0.911
 1936TIP3    H1 5772   0.646   5.754   0.932
 1936TIP3    H2 5773   0.702   5.615   0.950
 1937TIP3   OH2 5774   3.182   2.823   2.911
 1937TIP3    H1 5775   3.176   2.738   2.868
 1937TIP3    H2 5776   3.170   2.804   3.004
 1938TIP3   OH2 5777   3.076   1.271   2.372
 1938TIP3    H1 5778   3.001   1.315   2.332
 1938TIP3    H2 5779   3.149   1.290   2.312
 1939TIP3   OH2 5780   6.757   1.445   1.814
 1939TIP3    H1 5781   6.698   1.430   1.888
 1939TIP3    H2 5782   6.835   1.392   1.834
 1940TIP3   OH2 5783   6.266   4.505   4.847
 1940TIP3    H1 5784   6.249   4.599   4.843
 1940TIP3    H2 5785   6.191   4.465   4.803
 1941TIP3   OH2 5786   4.891   1.196   4.815
 1941TIP3    H1 5787   4.918   1.163   4.900
 1941TIP3    H2 5788   4.863   1.118   4.767
 1942TIP3   OH2 5789   0.895   1.173   3.654
 1942TIP3    H1 5790   0.881   1.257   3.611
 1942TIP3    H2 5791   0.807   1.143   3.676
 1943TIP3   OH2 5792   0.085   3.286   2.330
 1943TIP3    H1 5793   0.008   3.321   2.284
 1943TIP3    H2 5794   0.051   3.212   2.380
 1944TIP3   OH2 5795   6.805   0.589   5.577
 1944TIP3    H1 5796   6.801   0.503   5.536
 1944TIP3    H2 5797   6.899   0.603   5.594
 1945TIP3   OH2 5798   0.453   5.685   4.114
 1945TIP3    H1 5799   0.413   5.760   4.070
 1945TIP3    H2 5800   0.539   5.717   4.141
 1946TIP3   OH2 5801   0.801   1.603   2.528
 1946TIP3    H1 5802   0.765   1.690   2.515
 1946TIP3    H2 5803   0.895   1.617   2.538
 1947TIP3   OH2 5804   1.175   2.117   2.024
 1947TIP3    H1 5805   1.178   2.023   2.006
 1947TIP3    H2 5806   1.261   2.150   1.998
 1948TIP3   OH2 5807   1.200   3.050   5.734
 1948TIP3    H1 5808   1.136   3.114   5.701
 1948TIP3    H2 5809   1.151   2.968   5.741
 1949TIP3   OH2 5810   3.958   0.304   2.618
 1949TIP3    H1 5811   3.905   0.350   2.553
 1949TIP3    H2 5812   4.033   0.362   2.632
 1950TIP3   OH2 5813   4.418   2.978   3.876
 1950TIP3    H1 5814   4.424   3.067   3.842
 1950TIP3    H2 5815   4.326   2.953   3.864
 1951TIP3   OH2 5816   2.009   6.233   2.687
 1951TIP3    H1 5817   1.931   6.193   2.726
 1951TIP3    H2 5818   1.975   6.293   2.621
 1952TIP3   OH2 5819   6.494   2.104   4.200
 1952TIP3    H1 5820   6.560   2.037   4.220
 1952TIP3    H2 5821   6.414   2.071   4.240
 1953TIP3   OH2 5822   0.633   1.638   5.516
 1953TIP3    H1 5823   0.642   1.713   5.457
 1953TIP3    H2 5824   0.711   1.643   5.572
 1954TIP3   OH2 5825   5.719   2.285   5.673
 1954TIP3    H1 5826   5.678   2.329   5.598
 1954TIP3    H2 5827   5.648   2.276   5.736
 1955TIP3   OH2 5828   1.364   0.299   2.602
 1955TIP3    H1 5829   1.300   0.369   2.616
 1955TIP3    H2 5830   1.383   0.302   2.508
 1956TIP3   OH2 5831   6.142   3.662   1.510
 1956TIP3    H1 5832   6.165   3.650   1.418
 1956TIP3    H2 5833   6.100   3.580   1.535
 1957TIP3   OH2 5834   6.189   5.046   1.524
 1957TIP3    H1 5835   6.101   5.025   1.554
 1957TIP3    H2 5836   6.246   4.986   1.572
 1958TIP3   OH2 5837   1.594   6.243   4.047
 1958TIP3    H1 5838   1.621   6.313   4.107
 1958TIP3    H2 5839   1.665   6.179   4.051
 1959TIP3   OH2 5840   4.784   1.048   4.169
 1959TIP3    H1 5841   4.815   0.966   4.132
 1959TIP3    H2 5842   4.782   1.109   4.094
 1960TIP3   OH2 5843   7.170   4.460   3.728
 1960TIP3    H1 5844   7.105   4.447   3.797
 1960TIP3    H2 5845   7.227   4.384   3.734
 1961TIP3   OH2 5846   7.100   0.001   3.523
 1961TIP3    H1 5847   7.112  -0.060   3.596
 1961TIP3    H2 5848   7.064   0.079   3.564
 1962TIP3   OH2 5849   0.626   4.996   2.540
 1962TIP3    H1 5850   0.599   4.922   2.486
 1962TIP3    H2 5851   0.720   4.983   2.553
 1963TIP3   OH2 5852   2.387   1.419   0.712
 1963TIP3    H1 5853   2.480   1.403   0.692
 1963TIP3    H2 5854   2.387   1.448   0.803
 1964TIP3   OH2 5855   0.677   2.765   0.049
 1964TIP3    H1 5856   0.651   2.773   0.140
 1964TIP3    H2 5857   0.602   2.799  -0.001
 1965TIP3   OH2 5858   6.629   3.453   2.012
 1965TIP3    H1 5859   6.546   3.425   1.973
 1965TIP3    H2 5860   6.627   3.549   2.007
 1966TIP3   OH2 5861   1.144   1.194   0.449
 1966TIP3    H1 5862   1.184   1.251   0.515
 1966TIP3    H2 5863   1.133   1.249   0.372
 1967TIP3   OH2 5864   4.901   5.855   5.605
 1967TIP3    H1 5865   4.816   5.863   5.561
 1967TIP3    H2 5866   4.946   5.936   5.584
 1968TIP3   OH2 5867   4.785   2.830   3.474
 1968TIP3    H1 5868   4.768   2.846   3.566
 1968TIP3    H2 5869   4.840   2.903   3.446
 1969TIP3   OH2 5870   4.046   5.089   4.686
 1969TIP3    H1 5871   4.022   5.003   4.721
 1969TIP3    H2 5872   4.085   5.071   4.600
 1970TIP3   OH2 5873   4.169   6.518   5.141
 1970TIP3    H1 5874   4.210   6.458   5.204
 1970TIP3    H2 5875   4.102   6.564   5.192
 1971TIP3   OH2 5876   5.290   4.625   3.210
 1971TIP3    H1 5877   5.246   4.693   3.261
 1971TIP3    H2 5878   5.313   4.668   3.127
 1972TIP3   OH2 5879   5.512   5.586   0.360
 1972TIP3    H1 5880   5.547   5.554   0.277
 1972TIP3    H2 5881   5.586   5.628   0.404
 1973TIP3   OH2 5882   4.837   2.810   1.621
 1973TIP3    H1 5883   4.809   2.756   1.547
 1973TIP3    H2 5884   4.790   2.775   1.696
 1974TIP3   OH2 5885   3.279   4.345   5.103
 1974TIP3    H1 5886   3.329   4.406   5.048
 1974TIP3    H2 5887   3.241   4.400   5.171
 1975TIP3   OH2 5888   1.244   1.700   1.273
 1975TIP3    H1 5889   1.219   1.779   1.320
 1975TIP3    H2 5890   1.200   1.707   1.188
 1976TIP3   OH2 5891   7.023   3.069   3.627
 1976TIP3    H1 5892   7.024   3.160   3.657
 1976TIP3    H2 5893   6.945   3.032   3.668
 1977TIP3   OH2 5894   5.922   4.880   2.489
 1977TIP3    H1 5895   5.971   4.804   2.455
 1977TIP3    H2 5896   5.834   4.869   2.454
 1978TIP3   OH2 5897   4.767   3.159   4.988
 1978TIP3    H1 5898   4.758   3.254   4.979
 1978TIP3    H2 5899   4.691   3.124   4.943
 1979TIP3   OH2 5900   2.408   2.456   3.126
 1979TIP3    H1 5901   2.475   2.487   3.065
 1979TIP3    H2 5902   2.330   2.442   3.071
 1980TIP3   OH2 5903   2.960   5.683   4.747
 1980TIP3    H1 5904   3.014   5.619   4.701
 1980TIP3    H2 5905   2.874   5.641   4.753
 1981TIP3   OH2 5906   0.887   0.742   4.324
 1981TIP3    H1 5907   0.853   0.688   4.253
 1981TIP3    H2 5908   0.952   0.799   4.282
 1982TIP3   OH2 5909   2.572   6.503   3.043
 1982TIP3    H1 5910   2.484   6.531   3.020
 1982TIP3    H2 5911   2.574   6.410   3.019
 1983TIP3   OH2 5912   4.057   0.610   4.662
 1983TIP3    H1 5913   4.044   0.526   4.705
 1983TIP3    H2 5914   4.149   0.610   4.636
 1984TIP3   OH2 5915   2.226   3.599   4.009
 1984TIP3    H1 5916   2.188   3.687   4.016
 1984TIP3    H2 5917   2.295   3.608   3.943
 1985TIP3   OH2 5918   1.907   3.250   0.634
 1985TIP3    H1 5919   1.908   3.156   0.653
 1985TIP3    H2 5920   1.814   3.274   0.637
 1986TIP3   OH2 5921   4.641   6.730   5.640
 1986TIP3    H1 5922   4.679   6.706   5.725
 1986TIP3    H2 5923   4.716   6.761   5.589
 1987TIP3   OH2 5924   3.720   3.912   5.702
 1987TIP3    H1 5925   3.780   3.982   5.679
 1987TIP3    H2 5926   3.747   3.885   5.789
 1988TIP3   OH2 5927   0.390   1.263   4.862
 1988TIP3    H1 5928   0.360   1.344   4.904
 1988TIP3    H2 5929   0.375   1.196   4.929
 1989TIP3   OH2 5930   5.847   2.198   3.681
 1989TIP3    H1 5931   5.793   2.277   3.676
 1989TIP3    H2 5932   5.804   2.135   3.623
 1990TIP3   OH2 5933   3.838   2.986   5.680
 1990TIP3    H1 5934   3.856   3.073   5.715
 1990TIP3    H2 5935   3.922   2.956   5.645
 1991TIP3   OH2 5936   3.853   3.902   1.691
 1991TIP3    H1 5937   3.801   3.917   1.771
 1991TIP3    H2 5938   3.826   3.972   1.631
 1992TIP3   OH2 5939   5.405   4.811   1.798
 1992TIP3    H1 5940   5.421   4.718   1.811
 1992TIP3    H2 5941   5.470   4.837   1.733
 1993TIP3   OH2 5942   1.250   4.457   0.007
 1993TIP3    H1 5943   1.190   4.434   0.077
 1993TIP3    H2 5944   1.325   4.399   0.019
 1994TIP3   OH2 5945   4.968   4.039   3.604
 1994TIP3    H1 5946   4.937   3.956   3.639
 1994TIP3    H2 5947   4.899   4.068   3.545
 1995TIP3   OH2 5948   4.371   5.878   1.857
 1995TIP3    H1 5949   4.358   5.968   1.828
 1995TIP3    H2 5950   4.291   5.833   1.830
 1996TIP3   OH2 5951   4.388   4.149   0.971
 1996TIP3    H1 5952   4.447   4.095   0.918
 1996TIP3    H2 5953   4.303   4.107   0.963
 1997TIP3   OH2 5954   3.468   0.566   1.952
 1997TIP3    H1 5955   3.477   0.471   1.957
 1997TIP3    H2 5956   3.549   0.600   1.989
 1998TIP3   OH2 5957   4.517   3.285   0.146
 1998TIP3    H1 5958   4.581   3.219   0.119
 1998TIP3    H2 5959   4.494   3.261   0.236
 1999TIP3   OH2 5960   4.040   2.308   0.579
 1999TIP3    H1 5961   4.127   2.345   0.561
 1999TIP3    H2 5962   4.058   2.228   0.628
 2000TIP3   OH2 5963   4.639   2.864   4.536
 2000TIP3    H1 5964   4.665   2.868   4.628
 2000TIP3    H2 5965   4.545   2.878   4.536
 2001TIP3   OH2 5966   7.085   6.490   4.354
 2001TIP3    H1 5967   7.011   6.466   4.298
 2001TIP3    H2 5968   7.059   6.573   4.394
 2002TIP3   OH2 5969   3.541   2.369   0.185
 2002TIP3    H1 5970   3.566   2.459   0.163
 2002TIP3    H2 5971   3.470   2.379   0.249
 2003TIP3   OH2 5972   7.069   5.507   0.423
 2003TIP3    H1 5973   7.088   5.456   0.344
 2003TIP3    H2 5974   7.112   5.458   0.493
 2004TIP3   OH2 5975   3.744   1.584   3.792
 2004TIP3    H1 5976   3.727   1.548   3.878
 2004TIP3    H2 5977   3.672   1.644   3.775
 2005TIP3   OH2 5978   0.613   1.729   1.896
 2005TIP3    H1 5979   0.709   1.730   1.885
 2005TIP3    H2 5980   0.583   1.800   1.839
 2006TIP3   OH2 5981   6.566   6.209   2.421
 2006TIP3    H1 5982   6.635   6.276   2.427
 2006TIP3    H2 5983   6.556   6.194   2.327
 2007TIP3   OH2 5984   0.339   4.960   4.357
 2007TIP3    H1 5985   0.301   4.876   4.330
 2007TIP3    H2 5986   0.311   5.022   4.290
 2008TIP3   OH2 5987   1.886   0.403   5.213
 2008TIP3    H1 5988   1.801   0.447   5.221
 2008TIP3    H2 5989   1.947   0.472   5.190
 2009TIP3   OH2 5990   5.399   4.774   3.003
 2009TIP3    H1 5991   5.382   4.799   2.913
 2009TIP3    H2 5992   5.476   4.717   2.998
 2010TIP3   OH2 5993   0.797   4.338   4.991
 2010TIP3    H1 5994   0.770   4.384   5.070
 2010TIP3    H2 5995   0.721   4.340   4.934
 2011TIP3   OH2 5996   1.608   4.754   3.627
 2011TIP3    H1 5997   1.534   4.768   3.569
 2011TIP3    H2 5998   1.615   4.835   3.677
 2012TIP3   OH2 5999   5.544   6.735   0.506
 2012TIP3    H1 6000   5.509   6.698   0.425
 2012TIP3    H2 6001   5.636   6.710   0.507
 2013TIP3   OH2 6002   4.071   4.504   3.327
 2013TIP3    H1 6003   4.131   4.472   3.259
 2013TIP3    H2 6004   4.089   4.598   3.332
 2014TIP3   OH2 6005   4.249   5.569   1.621
 2014TIP3    H1 6006   4.219   5.659   1.627
 2014TIP3    H2 6007   4.169   5.517   1.633
 2015TIP3   OH2 6008   2.305   5.400   5.753
 2015TIP3    H1 6009   2.342   5.330   5.806
 2015TIP3    H2 6010   2.216   5.372   5.735
 2016TIP3   OH2 6011   4.612   2.601   1.575
 2016TIP3    H1 6012   4.653   2.515   1.578
 2016TIP3    H2 6013   4.628   2.638   1.662
 2017TIP3   OH2 6014   2.211   6.721   5.285
 2017TIP3    H1 6015   2.264   6.675   5.350
 2017TIP3    H2 6016   2.180   6.653   5.226
 2018TIP3   OH2 6017   5.258   5.316   5.181
 2018TIP3    H1 6018   5.277   5.257   5.109
 2018TIP3    H2 6019   5.273   5.263   5.260
 2019TIP3   OH2 6020   4.771   4.645   3.024
 2019TIP3    H1 6021   4.707   4.581   3.055
 2019TIP3    H2 6022   4.856   4.607   3.048
 2020TIP3   OH2 6023   0.672   2.897   1.622
 2020TIP3    H1 6024   0.673   2.802   1.609
 2020TIP3    H2 6025   0.669   2.932   1.533
 2021TIP3   OH2 6026   7.072   3.573   2.961
 2021TIP3    H1 6027   7.156   3.605   2.926
 2021TIP3    H2 6028   7.036   3.646   3.010
 2022TIP3   OH2 6029   2.083   2.179   1.192
 2022TIP3    H1 6030   2.115   2.251   1.246
 2022TIP3    H2 6031   2.152   2.113   1.198
 2023TIP3   OH2 6032   4.854   5.310   5.094
 2023TIP3    H1 6033   4.758   5.314   5.098
 2023TIP3    H2 6034   4.883   5.385   5.146
 2024TIP3   OH2 6035   1.133   3.758   3.644
 2024TIP3    H1 6036   1.221   3.795   3.634
 2024TIP3    H2 6037   1.110   3.728   3.556
 2025TIP3   OH2 6038   4.809   5.678   4.879
 2025TIP3    H1 6039   4.776   5.713   4.962
 2025TIP3    H2 6040   4.881   5.737   4.855
 2026TIP3   OH2 6041   2.382   5.994   2.306
 2026TIP3    H1 6042   2.438   6.048   2.251
 2026TIP3    H2 6043   2.316   5.959   2.247
 2027TIP3   OH2 6044   2.709   1.393   5.519
 2027TIP3    H1 6045   2.719   1.309   5.474
 2027TIP3    H2 6046   2.678   1.370   5.606
 2028TIP3   OH2 6047   3.358   5.601   4.874
 2028TIP3    H1 6048   3.273   5.645   4.872
 2028TIP3    H2 6049   3.420   5.666   4.842
 2029TIP3   OH2 6050   5.811   6.341   1.480
 2029TIP3    H1 6051   5.846   6.252   1.491
 2029TIP3    H2 6052   5.718   6.333   1.504
 2030TIP3   OH2 6053   2.674   3.907   2.513
 2030TIP3    H1 6054   2.669   3.816   2.483
 2030TIP3    H2 6055   2.595   3.948   2.479
 2031TIP3   OH2 6056   5.009   6.269   3.237
 2031TIP3    H1 6057   5.096   6.304   3.219
 2031TIP3    H2 6058   5.024   6.203   3.305
 2032TIP3   OH2 6059   3.482   6.438   1.563
 2032TIP3    H1 6060   3.462   6.494   1.488
 2032TIP3    H2 6061   3.398   6.428   1.609
 2033TIP3   OH2 6062   1.998   4.395   2.350
 2033TIP3    H1 6063   1.924   4.438   2.308
 2033TIP3    H2 6064   1.959   4.324   2.401
 2034TIP3   OH2 6065   6.579   0.847   0.883
 2034TIP3    H1 6066   6.548   0.779   0.942
 2034TIP3    H2 6067   6.502   0.900   0.864
 2035TIP3   OH2 6068   5.969   1.487   5.028
 2035TIP3    H1 6069   5.926   1.567   4.996
 2035TIP3    H2 6070   6.042   1.519   5.081
 2036TIP3   OH2 6071   3.999   0.195   0.325
 2036TIP3    H1 6072   4.069   0.132   0.311
 2036TIP3    H2 6073   3.963   0.172   0.411
 2037TIP3   OH2 6074   2.662   3.514   1.622
 2037TIP3    H1 6075   2.717   3.536   1.547
 2037TIP3    H2 6076   2.581   3.480   1.584
 2038TIP3   OH2 6077   4.723   5.232   3.692
 2038TIP3    H1 6078   4.693   5.245   3.783
 2038TIP3    H2 6079   4.807   5.277   3.688
 2039TIP3   OH2 6080   0.629   6.576   3.169
 2039TIP3    H1 6081   0.721   6.552   3.164
 2039TIP3    H2 6082   0.629   6.670   3.185
 2040TIP3   OH2 6083   6.094   0.071   4.625
 2040TIP3    H1 6084   6.109  -0.023   4.637
 2040TIP3    H2 6085   6.177   0.105   4.591
 2041TIP3   OH2 6086   7.155   0.535   4.419
 2041TIP3    H1 6087   7.062   0.530   4.441
 2041TIP3    H2 6088   7.165   0.621   4.379
 2042TIP3   OH2 6089   2.850   2.259   5.816
 2042TIP3    H1 6090   2.913   2.228   5.751
 2042TIP3    H2 6091   2.903   2.307   5.880
 2043TIP3   OH2 6092   0.397   2.917   3.054
 2043TIP3    H1 6093   0.425   2.859   3.124
 2043TIP3    H2 6094   0.345   2.862   2.995
 2044TIP3   OH2 6095   2.986   0.056   5.658
 2044TIP3    H1 6096   3.021  -0.030   5.636
 2044TIP3    H2 6097   2.914   0.069   5.596
 2045TIP3   OH2 6098   0.073   5.585   4.470
 2045TIP3    H1 6099   0.042   5.673   4.491
 2045TIP3    H2 6100   0.159   5.599   4.431
 2046TIP3   OH2 6101   7.098   0.477   1.381
 2046TIP3    H1 6102   7.141   0.533   1.317
 2046TIP3    H2 6103   7.145   0.493   1.463
 2047TIP3   OH2 6104   1.112   4.433   4.069
 2047TIP3    H1 6105   1.188   4.418   4.012
 2047TIP3    H2 6106   1.149   4.438   4.157
 2048TIP3   OH2 6107   5.051   6.141   5.202
 2048TIP3    H1 6108   5.088   6.196   5.133
 2048TIP3    H2 6109   5.080   6.052   5.180
 2049TIP3   OH2 6110   6.586   1.157   1.887
 2049TIP3    H1 6111   6.512   1.101   1.908
 2049TIP3    H2 6112   6.555   1.216   1.819
 2050TIP3   OH2 6113   0.073   3.436   1.131
 2050TIP3    H1 6114   0.166   3.430   1.108
 2050TIP3    H2 6115   0.051   3.528   1.117
 2051TIP3   OH2 6116   0.835   6.584   2.272
 2051TIP3    H1 6117   0.860   6.665   2.316
 2051TIP3    H2 6118   0.840   6.517   2.340
 2052TIP3   OH2 6119   0.440   3.242   0.489
 2052TIP3    H1 6120   0.493   3.162   0.479
 2052TIP3    H2 6121   0.417   3.244   0.582
 2053TIP3   OH2 6122   6.331   2.124   5.245
 2053TIP3    H1 6123   6.414   2.128   5.198
 2053TIP3    H2 6124   6.327   2.035   5.280
 2054TIP3   OH2 6125   3.876   4.402   0.626
 2054TIP3    H1 6126   3.945   4.341   0.651
 2054TIP3    H2 6127   3.922   4.478   0.590
 2055TIP3   OH2 6128   0.731   1.040   2.195
 2055TIP3    H1 6129   0.722   1.039   2.290
 2055TIP3    H2 6130   0.646   1.070   2.163
 2056TIP3   OH2 6131   3.153   3.654   5.149
 2056TIP3    H1 6132   3.130   3.595   5.077
 2056TIP3    H2 6133   3.170   3.595   5.223
 2057TIP3   OH2 6134   4.368   0.524   3.696
 2057TIP3    H1 6135   4.336   0.489   3.779
 2057TIP3    H2 6136   4.322   0.474   3.629
 2058TIP3   OH2 6137   4.351   5.778   1.055
 2058TIP3    H1 6138   4.376   5.685   1.051
 2058TIP3    H2 6139   4.288   5.783   1.127
 2059TIP3   OH2 6140   2.109   1.395   3.123
 2059TIP3    H1 6141   2.056   1.379   3.201
 2059TIP3    H2 6142   2.053   1.367   3.051
 2060TIP3   OH2 6143   4.913   3.070   5.735
 2060TIP3    H1 6144   4.832   3.077   5.684
 2060TIP3    H2 6145   4.886   3.091   5.825
 2061TIP3   OH2 6146   6.369   4.721   4.299
 2061TIP3    H1 6147   6.326   4.761   4.374
 2061TIP3    H2 6148   6.451   4.685   4.333
 2062TIP3   OH2 6149   0.971   4.315   0.019
 2062TIP3    H1 6150   1.020   4.328   0.100
 2062TIP3    H2 6151   0.929   4.229   0.030
 2063TIP3   OH2 6152   2.632   5.516   2.045
 2063TIP3    H1 6153   2.705   5.557   1.999
 2063TIP3    H2 6154   2.554   5.555   2.005
 2064TIP3   OH2 6155   2.519   1.331   4.911
 2064TIP3    H1 6156   2.575   1.357   4.984
 2064TIP3    H2 6157   2.438   1.380   4.924
 2065TIP3   OH2 6158   0.707   4.095   0.736
 2065TIP3    H1 6159   0.801   4.112   0.733
 2065TIP3    H2 6160   0.699   4.012   0.784
 2066TIP3   OH2 6161   7.169   4.825   4.791
 2066TIP3    H1 6162   7.083   4.863   4.774
 2066TIP3    H2 6163   7.231   4.891   4.758
 2067TIP3   OH2 6164   6.309   4.097   5.395
 2067TIP3    H1 6165   6.357   4.177   5.374
 2067TIP3    H2 6166   6.227   4.127   5.435
 2068TIP3   OH2 6167   3.555   1.975   2.174
 2068TIP3    H1 6168   3.475   1.985   2.123
 2068TIP3    H2 6169   3.578   2.065   2.201
 2069TIP3   OH2 6170   2.166   2.606   0.650
 2069TIP3    H1 6171   2.109   2.672   0.611
 2069TIP3    H2 6172   2.221   2.577   0.577
 2070TIP3   OH2 6173   1.771   0.704   0.544
 2070TIP3    H1 6174   1.793   0.713   0.636
 2070TIP3    H2 6175   1.726   0.620   0.538
 2071TIP3   OH2 6176   0.730   2.816   3.095
 2071TIP3    H1 6177   0.745   2.732   3.138
 2071TIP3    H2 6178   0.740   2.798   3.002
 2072TIP3   OH2 6179   1.891   1.518   1.828
 2072TIP3    H1 6180   1.963   1.456   1.814
 2072TIP3    H2 6181   1.825   1.493   1.764
 2073TIP3   OH2 6182   5.420   2.043   4.454
 2073TIP3    H1 6183   5.495   2.093   4.423
 2073TIP3    H2 6184   5.457   1.959   4.482
 2074TIP3   OH2 6185   5.725   1.381   5.770
 2074TIP3    H1 6186   5.641   1.409   5.733
 2074TIP3    H2 6187   5.708   1.296   5.810
 2075TIP3   OH2 6188   6.648   4.198   0.130
 2075TIP3    H1 6189   6.604   4.247   0.060
 2075TIP3    H2 6190   6.589   4.205   0.204
 2076TIP3   OH2 6191   5.411   4.624   4.322
 2076TIP3    H1 6192   5.375   4.590   4.404
 2076TIP3    H2 6193   5.340   4.611   4.259
 2077TIP3   OH2 6194   6.596   2.354   0.866
 2077TIP3    H1 6195   6.652   2.356   0.789
 2077TIP3    H2 6196   6.513   2.392   0.836
 2078TIP3   OH2 6197   0.142   0.963   0.032
 2078TIP3    H1 6198   0.105   0.895  -0.024
 2078TIP3    H2 6199   0.071   1.026   0.043
 2079TIP3   OH2 6200   5.136   3.137   0.964
 2079TIP3    H1 6201   5.207   3.194   0.991
 2079TIP3    H2 6202   5.062   3.196   0.948
 2080TIP3   OH2 6203   6.248   5.785   1.621
 2080TIP3    H1 6204   6.173   5.742   1.580
 2080TIP3    H2 6205   6.321   5.765   1.563
 2081TIP3   OH2 6206   4.474   1.821   2.314
 2081TIP3    H1 6207   4.397   1.875   2.330
 2081TIP3    H2 6208   4.442   1.731   2.317
 2082TIP3   OH2 6209   4.694   1.570   1.777
 2082TIP3    H1 6210   4.763   1.505   1.763
 2082TIP3    H2 6211   4.636   1.530   1.842
 2083TIP3   OH2 6212   0.885   5.251   0.999
 2083TIP3    H1 6213   0.802   5.263   1.045
 2083TIP3    H2 6214   0.948   5.227   1.068
 2084TIP3   OH2 6215   6.505   1.130   0.207
 2084TIP3    H1 6216   6.451   1.062   0.167
 2084TIP3    H2 6217   6.461   1.212   0.184
 2085TIP3   OH2 6218   3.529   0.927   2.618
 2085TIP3    H1 6219   3.525   1.021   2.633
 2085TIP3    H2 6220   3.441   0.905   2.587
 2086TIP3   OH2 6221   0.389   4.335   1.822
 2086TIP3    H1 6222   0.393   4.252   1.774
 2086TIP3    H2 6223   0.296   4.346   1.844
 2087TIP3   OH2 6224   6.254   1.823   1.387
 2087TIP3    H1 6225   6.186   1.757   1.404
 2087TIP3    H2 6226   6.214   1.882   1.323
 2088TIP3   OH2 6227   4.896   5.942   2.287
 2088TIP3    H1 6228   4.866   6.032   2.273
 2088TIP3    H2 6229   4.934   5.916   2.203
 2089TIP3   OH2 6230   6.013   0.647   2.838
 2089TIP3    H1 6231   6.072   0.657   2.763
 2089TIP3    H2 6232   6.069   0.613   2.908
 2090TIP3   OH2 6233   4.265   4.242   2.969
 2090TIP3    H1 6234   4.222   4.280   2.892
 2090TIP3    H2 6235   4.204   4.174   3.000
 2091TIP3   OH2 6236   5.505   4.190   5.830
 2091TIP3    H1 6237   5.542   4.104   5.810
 2091TIP3    H2 6238   5.467   4.219   5.747
 2092TIP3   OH2 6239   1.417   5.842   3.130
 2092TIP3    H1 6240   1.353   5.802   3.188
 2092TIP3    H2 6241   1.400   5.804   3.044
 2093TIP3   OH2 6242   5.770   1.811   3.725
 2093TIP3    H1 6243   5.760   1.858   3.641
 2093TIP3    H2 6244   5.701   1.746   3.724
 2094TIP3   OH2 6245   1.056   0.254   5.107
 2094TIP3    H1 6246   1.098   0.329   5.148
 2094TIP3    H2 6247   1.093   0.251   5.018
 2095TIP3   OH2 6248   3.908   2.312   0.045
 2095TIP3    H1 6249   3.852   2.249   0.000
 2095TIP3    H2 6250   3.997   2.293   0.014
 2096TIP3   OH2 6251   1.595   5.793   5.625
 2096TIP3    H1 6252   1.585   5.699   5.615
 2096TIP3    H2 6253   1.643   5.821   5.547
 2097TIP3   OH2 6254   3.795   5.138   0.038
 2097TIP3    H1 6255   3.785   5.051   0.077
 2097TIP3    H2 6256   3.874   5.174   0.079
 2098TIP3   OH2 6257   3.753   2.894   1.860
 2098TIP3    H1 6258   3.729   2.987   1.868
 2098TIP3    H2 6259   3.670   2.847   1.872
 2099TIP3   OH2 6260   6.085   1.128   0.917
 2099TIP3    H1 6261   6.113   1.107   1.006
 2099TIP3    H2 6262   5.991   1.112   0.917
 2100TIP3   OH2 6263   5.423   1.369   2.696
 2100TIP3    H1 6264   5.506   1.356   2.651
 2100TIP3    H2 6265   5.446   1.414   2.777
 2101TIP3   OH2 6266   5.106   2.729   0.408
 2101TIP3    H1 6267   5.138   2.651   0.453
 2101TIP3    H2 6268   5.054   2.776   0.473
 2102TIP3   OH2 6269   2.651   2.570   1.100
 2102TIP3    H1 6270   2.670   2.493   1.047
 2102TIP3    H2 6271   2.737   2.600   1.130
 2103TIP3   OH2 6272   0.859   2.562   3.194
 2103TIP3    H1 6273   0.848   2.472   3.164
 2103TIP3    H2 6274   0.937   2.593   3.148
 2104TIP3   OH2 6275   3.128   0.425   4.471
 2104TIP3    H1 6276   3.101   0.333   4.462
 2104TIP3    H2 6277   3.090   0.468   4.394
 2105TIP3   OH2 6278   1.767   2.151   5.150
 2105TIP3    H1 6279   1.780   2.245   5.138
 2105TIP3    H2 6280   1.672   2.140   5.157
 2106TIP3   OH2 6281   6.459   0.911   2.646
 2106TIP3    H1 6282   6.461   1.006   2.657
 2106TIP3    H2 6283   6.456   0.876   2.735
 2107TIP3   OH2 6284   2.684   3.362   1.242
 2107TIP3    H1 6285   2.723   3.395   1.322
 2107TIP3    H2 6286   2.752   3.307   1.202
 2108TIP3   OH2 6287   6.017   3.774   3.298
 2108TIP3    H1 6288   5.967   3.702   3.338
 2108TIP3    H2 6289   5.992   3.851   3.349
 2109TIP3   OH2 6290   6.287   3.542   4.331
 2109TIP3    H1 6291   6.228   3.583   4.268
 2109TIP3    H2 6292   6.371   3.588   4.319
 2110TIP3   OH2 6293   2.742   6.509   0.724
 2110TIP3    H1 6294   2.770   6.419   0.741
 2110TIP3    H2 6295   2.791   6.562   0.786
 2111TIP3   OH2 6296   0.649   1.116   3.761
 2111TIP3    H1 6297   0.604   1.032   3.772
 2111TIP3    H2 6298   0.596   1.163   3.696
 2112TIP3   OH2 6299   4.411   5.387   0.297
 2112TIP3    H1 6300   4.424   5.409   0.389
 2112TIP3    H2 6301   4.337   5.441   0.269
 2113TIP3   OH2 6302   3.105   5.034   0.147
 2113TIP3    H1 6303   3.109   4.960   0.208
 2113TIP3    H2 6304   3.097   4.994   0.061
 2114TIP3   OH2 6305   3.207   4.414   0.330
 2114TIP3    H1 6306   3.151   4.338   0.349
 2114TIP3    H2 6307   3.205   4.421   0.234
 2115TIP3   OH2 6308   1.111   5.966   3.821
 2115TIP3    H1 6309   1.185   5.934   3.769
 2115TIP3    H2 6310   1.042   5.901   3.808
 2116TIP3   OH2 6311   1.526   1.360   4.377
 2116TIP3    H1 6312   1.536   1.426   4.444
 2116TIP3    H2 6313   1.499   1.281   4.424
 2117TIP3   OH2 6314   3.434   2.037   1.712
 2117TIP3    H1 6315   3.485   2.096   1.657
 2117TIP3    H2 6316   3.410   1.965   1.654
 2118TIP3   OH2 6317   4.248   2.502   4.324
 2118TIP3    H1 6318   4.251   2.420   4.275
 2118TIP3    H2 6319   4.170   2.547   4.291
 2119TIP3   OH2 6320   5.393   2.298   0.345
 2119TIP3    H1 6321   5.407   2.204   0.337
 2119TIP3    H2 6322   5.343   2.322   0.267
 2120TIP3   OH2 6323   1.819   4.992   5.860
 2120TIP3    H1 6324   1.898   5.041   5.884
 2120TIP3    H2 6325   1.836   4.962   5.770
 2121TIP3   OH2 6326   3.131   6.503   3.230
 2121TIP3    H1 6327   3.098   6.414   3.240
 2121TIP3    H2 6328   3.198   6.496   3.161
 2122TIP3   OH2 6329   4.535   1.964   5.365
 2122TIP3    H1 6330   4.588   1.999   5.294
 2122TIP3    H2 6331   4.486   2.040   5.398
 2123TIP3   OH2 6332   0.327   5.008   2.594
 2123TIP3    H1 6333   0.333   4.925   2.641
 2123TIP3    H2 6334   0.242   5.043   2.618
 2124TIP3   OH2 6335   5.149   0.701   3.679
 2124TIP3    H1 6336   5.237   0.677   3.649
 2124TIP3    H2 6337   5.164   0.746   3.762
 2125TIP3   OH2 6338   4.149   0.419   4.822
 2125TIP3    H1 6339   4.153   0.323   4.818
 2125TIP3    H2 6340   4.229   0.444   4.869
 2126TIP3   OH2 6341   4.891   0.200   0.502
 2126TIP3    H1 6342   4.887   0.273   0.441
 2126TIP3    H2 6343   4.800   0.184   0.527
 2127TIP3   OH2 6344   0.208   5.261   0.267
 2127TIP3    H1 6345   0.245   5.299   0.347
 2127TIP3    H2 6346   0.125   5.223   0.295
 2128TIP3   OH2 6347   4.682   0.101   4.868
 2128TIP3    H1 6348   4.587   0.099   4.878
 2128TIP3    H2 6349   4.715   0.048   4.940
 2129TIP3   OH2 6350   5.456   2.319   4.899
 2129TIP3    H1 6351   5.444   2.412   4.878
 2129TIP3    H2 6352   5.394   2.273   4.843
 2130TIP3   OH2 6353   5.469   0.094   2.460
 2130TIP3    H1 6354   5.404   0.165   2.468
 2130TIP3    H2 6355   5.417   0.014   2.469
 2131TIP3   OH2 6356   0.621   4.723   1.493
 2131TIP3    H1 6357   0.630   4.658   1.424
 2131TIP3    H2 6358   0.545   4.695   1.543
 2132TIP3   OH2 6359   1.932   1.800   4.530
 2132TIP3    H1 6360   2.007   1.832   4.579
 2132TIP3    H2 6361   1.968   1.773   4.445
 2133TIP3   OH2 6362   5.908   0.170   1.057
 2133TIP3    H1 6363   5.910   0.104   1.127
 2133TIP3    H2 6364   5.939   0.123   0.980
 2134TIP3   OH2 6365   3.780   1.647   0.780
 2134TIP3    H1 6366   3.762   1.574   0.721
 2134TIP3    H2 6367   3.698   1.660   0.828
 2135TIP3   OH2 6368   6.168   4.187   0.923
 2135TIP3    H1 6369   6.142   4.215   1.011
 2135TIP3    H2 6370   6.103   4.120   0.899
 2136TIP3   OH2 6371   0.360   3.788   2.882
 2136TIP3    H1 6372   0.454   3.771   2.890
 2136TIP3    H2 6373   0.353   3.838   2.800
 2137TIP3   OH2 6374   2.572   4.352   3.388
 2137TIP3    H1 6375   2.507   4.315   3.328
 2137TIP3    H2 6376   2.656   4.324   3.352
 2138TIP3   OH2 6377   3.443   4.747   4.851
 2138TIP3    H1 6378   3.511   4.698   4.805
 2138TIP3    H2 6379   3.364   4.695   4.839
 2139TIP3   OH2 6380   5.294   4.287   5.196
 2139TIP3    H1 6381   5.202   4.282   5.170
 2139TIP3    H2 6382   5.298   4.245   5.282
 2140TIP3   OH2 6383   2.136   3.934   0.660
 2140TIP3    H1 6384   2.128   3.853   0.711
 2140TIP3    H2 6385   2.230   3.940   0.640
 2141TIP3   OH2 6386   0.079   1.123   1.252
 2141TIP3    H1 6387   0.037   1.045   1.288
 2141TIP3    H2 6388   0.012   1.164   1.198
 2142TIP3   OH2 6389   5.830   0.140   1.841
 2142TIP3    H1 6390   5.795   0.219   1.802
 2142TIP3    H2 6391   5.792   0.068   1.790
 2143TIP3   OH2 6392   5.413   4.876   4.071
 2143TIP3    H1 6393   5.432   4.819   3.997
 2143TIP3    H2 6394   5.333   4.840   4.110
 2144TIP3   OH2 6395   5.676   3.258   2.503
 2144TIP3    H1 6396   5.720   3.195   2.446
 2144TIP3    H2 6397   5.678   3.340   2.454
 2145TIP3   OH2 6398   3.594   1.021   0.839
 2145TIP3    H1 6399   3.662   1.073   0.881
 2145TIP3    H2 6400   3.626   1.008   0.749
 2146TIP3   OH2 6401   4.327   2.005   4.007
 2146TIP3    H1 6402   4.377   1.959   3.940
 2146TIP3    H2 6403   4.262   1.941   4.037
 2147TIP3   OH2 6404   0.756   0.426   4.806
 2147TIP3    H1 6405   0.778   0.516   4.781
 2147TIP3    H2 6406   0.766   0.425   4.902
 2148TIP3   OH2 6407   0.416   0.047   1.473
 2148TIP3    H1 6408   0.382   0.096   1.399
 2148TIP3    H2 6409   0.511   0.053   1.466
 2149TIP3   OH2 6410   0.327   6.295   5.568
 2149TIP3    H1 6411   0.395   6.354   5.600
 2149TIP3    H2 6412   0.276   6.273   5.646
 2150TIP3   OH2 6413   4.945   6.525   0.869
 2150TIP3    H1 6414   4.937   6.527   0.774
 2150TIP3    H2 6415   4.899   6.445   0.895
 2151TIP3   OH2 6416   6.590  -0.010   3.002
 2151TIP3    H1 6417   6.503  -0.001   2.964
 2151TIP3    H2 6418   6.610   0.077   3.036
 2152TIP3   OH2 6419   6.425   0.171   1.191
 2152TIP3    H1 6420   6.399   0.162   1.283
 2152TIP3    H2 6421   6.513   0.133   1.188
 2153TIP3   OH2 6422   5.974   5.375   1.850
 2153TIP3    H1 6423   5.886   5.341   1.834
 2153TIP3    H2 6424   6.021   5.360   1.767
 2154TIP3   OH2 6425   5.434   4.193   3.854
 2154TIP3    H1 6426   5.462   4.283   3.869
 2154TIP3    H2 6427   5.459   4.174   3.764
 2155TIP3   OH2 6428   0.429   6.727   5.006
 2155TIP3    H1 6429   0.334   6.730   5.012
 2155TIP3    H2 6430   0.447   6.649   4.953
 2156TIP3   OH2 6431   5.897   5.879   4.304
 2156TIP3    H1 6432   5.933   5.893   4.216
 2156TIP3    H2 6433   5.869   5.966   4.332
 2157TIP3   OH2 6434   1.184   0.106   4.063
 2157TIP3    H1 6435   1.267   0.106   4.111
 2157TIP3    H2 6436   1.164   0.013   4.050
 2158TIP3   OH2 6437   1.526   5.336   3.948
 2158TIP3    H1 6438   1.490   5.255   3.911
 2158TIP3    H2 6439   1.567   5.308   4.030
 2159TIP3   OH2 6440   3.009   2.639   2.583
 2159TIP3    H1 6441   3.076   2.622   2.650
 2159TIP3    H2 6442   2.946   2.696   2.627
 2160TIP3   OH2 6443   1.378   2.638   1.576
 2160TIP3    H1 6444   1.457   2.611   1.530
 2160TIP3    H2 6445   1.397   2.624   1.669
 2161TIP3   OH2 6446   4.305   3.109   4.888
 2161TIP3    H1 6447   4.219   3.113   4.929
 2161TIP3    H2 6448   4.321   3.198   4.856
 2162TIP3   OH2 6449   5.056   1.257   0.709
 2162TIP3    H1 6450   5.067   1.323   0.777
 2162TIP3    H2 6451   4.990   1.294   0.650
 2163TIP3   OH2 6452   1.435   3.514   2.596
 2163TIP3    H1 6453   1.363   3.533   2.656
 2163TIP3    H2 6454   1.500   3.582   2.614
 2164TIP3   OH2 6455   0.013   1.259   2.301
 2164TIP3    H1 6456  -0.045   1.207   2.245
 2164TIP3    H2 6457  -0.019   1.242   2.390
 2165TIP3   OH2 6458   6.964   1.297   5.532
 2165TIP3    H1 6459   6.901   1.348   5.481
 2165TIP3    H2 6460   7.049   1.338   5.513
 2166TIP3   OH2 6461   6.375   5.882   0.752
 2166TIP3    H1 6462   6.367   5.971   0.720
 2166TIP3    H2 6463   6.309   5.832   0.704
 2167TIP3   OH2 6464   1.408   3.523   1.876
 2167TIP3    H1 6465   1.417   3.481   1.791
 2167TIP3    H2 6466   1.386   3.451   1.936
 2168TIP3   OH2 6467   2.168   3.379   0.611
 2168TIP3    H1 6468   2.083   3.335   0.621
 2168TIP3    H2 6469   2.219   3.349   0.686
 2169TIP3   OH2 6470   6.573   0.253   2.805
 2169TIP3    H1 6471   6.614   0.224   2.887
 2169TIP3    H2 6472   6.491   0.203   2.801
 2170TIP3   OH2 6473   3.501   3.833   1.570
 2170TIP3    H1 6474   3.511   3.851   1.477
 2170TIP3    H2 6475   3.487   3.918   1.610
 2171TIP3   OH2 6476   2.333   4.930   5.499
 2171TIP3    H1 6477   2.399   4.867   5.469
 2171TIP3    H2 6478   2.251   4.898   5.461
 2172TIP3   OH2 6479   6.622   0.635   4.241
 2172TIP3    H1 6480   6.670   0.641   4.158
 2172TIP3    H2 6481   6.609   0.540   4.253
 2173TIP3   OH2 6482   6.591   3.589   5.252
 2173TIP3    H1 6483   6.536   3.554   5.183
 2173TIP3    H2 6484   6.567   3.539   5.330
 2174TIP3   OH2 6485   5.451   3.819   3.608
 2174TIP3    H1 6486   5.389   3.831   3.680
 2174TIP3    H2 6487   5.409   3.756   3.550
 2175TIP3   OH2 6488   5.944   4.030   4.417
 2175TIP3    H1 6489   6.011   4.062   4.357
 2175TIP3    H2 6490   5.974   3.944   4.445
 2176TIP3   OH2 6491   2.237   3.120   5.644
 2176TIP3    H1 6492   2.307   3.071   5.600
 2176TIP3    H2 6493   2.169   3.055   5.661
 2177TIP3   OH2 6494   3.389   5.077   4.034
 2177TIP3    H1 6495   3.392   5.135   4.110
 2177TIP3    H2 6496   3.313   5.107   3.984
 2178TIP3   OH2 6497   1.570   0.865   0.063
 2178TIP3    H1 6498   1.520   0.911   0.130
 2178TIP3    H2 6499   1.504   0.823   0.009
 2179TIP3   OH2 6500   4.613   2.347   0.977
 2179TIP3    H1 6501   4.551   2.298   1.031
 2179TIP3    H2 6502   4.559   2.391   0.912
 2180TIP3   OH2 6503   5.214   5.358   0.021
 2180TIP3    H1 6504   5.238   5.266   0.018
 2180TIP3    H2 6505   5.209   5.384  -0.071
 2181TIP3   OH2 6506   0.038   4.058   2.004
 2181TIP3    H1 6507  -0.030   4.054   1.937
 2181TIP3    H2 6508   0.087   3.976   1.993
 2182TIP3   OH2 6509   0.567   6.019   3.707
 2182TIP3    H1 6510   0.652   6.057   3.683
 2182TIP3    H2 6511   0.590   5.936   3.749
 2183TIP3   OH2 6512   5.658   4.612   0.865
 2183TIP3    H1 6513   5.696   4.630   0.951
 2183TIP3    H2 6514   5.675   4.518   0.851
 2184TIP3   OH2 6515   5.804   2.540   1.247
 2184TIP3    H1 6516   5.755   2.588   1.180
 2184TIP3    H2 6517   5.740   2.526   1.317
 2185TIP3   OH2 6518   5.943   3.795   1.667
 2185TIP3    H1 6519   5.916   3.855   1.598
 2185TIP3    H2 6520   6.006   3.737   1.624
 2186TIP3   OH2 6521   0.463   0.085   3.795
 2186TIP3    H1 6522   0.506   0.104   3.878
 2186TIP3    H2 6523   0.518   0.129   3.730
 2187TIP3   OH2 6524   1.179   1.074   4.913
 2187TIP3    H1 6525   1.151   1.047   4.826
 2187TIP3    H2 6526   1.125   1.151   4.933
 2188TIP3   OH2 6527   3.814   0.238   4.725
 2188TIP3    H1 6528   3.722   0.258   4.744
 2188TIP3    H2 6529   3.859   0.247   4.809
 2189TIP3   OH2 6530   2.114   3.042   0.743
 2189TIP3    H1 6531   2.158   3.104   0.685
 2189TIP3    H2 6532   2.090   3.094   0.820
 2190TIP3   OH2 6533   0.223   4.117   0.398
 2190TIP3    H1 6534   0.138   4.131   0.440
 2190TIP3    H2 6535   0.213   4.156   0.311
 2191TIP3   OH2 6536   0.338   1.418   3.776
 2191TIP3    H1 6537   0.368   1.459   3.858
 2191TIP3    H2 6538   0.389   1.462   3.708
 2192TIP3   OH2 6539   0.068   4.609   3.157
 2192TIP3    H1 6540   0.029   4.621   3.071
 2192TIP3    H2 6541   0.078   4.697   3.193
 2193TIP3   OH2 6542   2.668   1.104   4.889
 2193TIP3    H1 6543   2.742   1.129   4.833
 2193TIP3    H2 6544   2.615   1.183   4.895
 2194TIP3   OH2 6545   6.620   6.527   2.831
 2194TIP3    H1 6546   6.669   6.446   2.819
 2194TIP3    H2 6547   6.598   6.528   2.924
 2195TIP3   OH2 6548   5.430   4.643   1.551
 2195TIP3    H1 6549   5.519   4.660   1.520
 2195TIP3    H2 6550   5.432   4.552   1.580
 2196TIP3   OH2 6551   5.429   4.309   1.492
 2196TIP3    H1 6552   5.338   4.316   1.522
 2196TIP3    H2 6553   5.481   4.317   1.572
 2197TIP3   OH2 6554   0.826   3.007   0.889
 2197TIP3    H1 6555   0.777   3.080   0.927
 2197TIP3    H2 6556   0.781   2.929   0.921
 2198TIP3   OH2 6557   3.998   5.035   1.002
 2198TIP3    H1 6558   4.000   5.080   0.918
 2198TIP3    H2 6559   3.993   4.942   0.979
 2199TIP3   OH2 6560   3.391   0.455   1.618
 2199TIP3    H1 6561   3.353   0.476   1.704
 2199TIP3    H2 6562   3.460   0.392   1.638
 2200TIP3   OH2 6563   0.491   4.473   2.037
 2200TIP3    H1 6564   0.580   4.440   2.034
 2200TIP3    H2 6565   0.440   4.410   1.986
 2201TIP3   OH2 6566   1.611   3.046   2.826
 2201TIP3    H1 6567   1.582   2.960   2.797
 2201TIP3    H2 6568   1.705   3.048   2.806
 2202TIP3   OH2 6569   5.250   5.069   2.589
 2202TIP3    H1 6570   5.186   5.099   2.524
 2202TIP3    H2 6571   5.319   5.136   2.588
 2203TIP3   OH2 6572   2.677   3.597   4.754
 2203TIP3    H1 6573   2.583   3.605   4.771
 2203TIP3    H2 6574   2.714   3.682   4.779
 2204TIP3   OH2 6575   2.665   0.712   2.135
 2204TIP3    H1 6576   2.580   0.753   2.152
 2204TIP3    H2 6577   2.643   0.621   2.115
 2205TIP3   OH2 6578   5.590   2.699   0.813
 2205TIP3    H1 6579   5.589   2.707   0.908
 2205TIP3    H2 6580   5.529   2.627   0.794
 2206TIP3   OH2 6581   3.773   5.729   0.807
 2206TIP3    H1 6582   3.691   5.720   0.758
 2206TIP3    H2 6583   3.751   5.789   0.879
 2207TIP3   OH2 6584   2.728   5.194   1.987
 2207TIP3    H1 6585   2.640   5.227   2.009
 2207TIP3    H2 6586   2.778   5.272   1.966
 2208TIP3   OH2 6587   3.367   5.030   3.297
 2208TIP3    H1 6588   3.308   5.034   3.221
 2208TIP3    H2 6589   3.402   4.941   3.295
 2209TIP3   OH2 6590   0.931   4.198   5.406
 2209TIP3    H1 6591   1.022   4.221   5.423
 2209TIP3    H2 6592   0.882   4.250   5.471
 2210TIP3   OH2 6593   3.887   2.540   0.189
 2210TIP3    H1 6594   3.899   2.460   0.139
 2210TIP3    H2 6595   3.869   2.511   0.278
 2211TIP3   OH2 6596   3.930   6.532   0.706
 2211TIP3    H1 6597   3.966   6.445   0.727
 2211TIP3    H2 6598   3.910   6.527   0.613
 2212TIP3   OH2 6599   0.785   2.276   0.868
 2212TIP3    H1 6600   0.758   2.288   0.776
 2212TIP3    H2 6601   0.793   2.365   0.902
 2213TIP3   OH2 6602   6.784   1.082   1.651
 2213TIP3    H1 6603   6.701   1.126   1.671
 2213TIP3    H2 6604   6.832   1.146   1.598
 2214TIP3   OH2 6605   6.168   0.471   5.119
 2214TIP3    H1 6606   6.155   0.376   5.118
 2214TIP3    H2 6607   6.224   0.487   5.195
 2215TIP3   OH2 6608   6.536   1.279   1.662
 2215TIP3    H1 6609   6.532   1.374   1.645
 2215TIP3    H2 6610   6.505   1.239   1.581
 2216TIP3   OH2 6611   1.849   0.735   0.210
 2216TIP3    H1 6612   1.771   0.789   0.194
 2216TIP3    H2 6613   1.922   0.789   0.183
 2217TIP3   OH2 6614   4.296   6.310   5.273
 2217TIP3    H1 6615   4.298   6.317   5.368
 2217TIP3    H2 6616   4.244   6.231   5.256
 2218TIP3   OH2 6617   5.448   3.733   3.027
 2218TIP3    H1 6618   5.377   3.679   3.062
 2218TIP3    H2 6619   5.406   3.794   2.968
 2219TIP3   OH2 6620   6.520   6.092   3.415
 2219TIP3    H1 6621   6.451   6.156   3.397
 2219TIP3    H2 6622   6.530   6.044   3.333
 2220TIP3   OH2 6623   2.764   2.032   2.809
 2220TIP3    H1 6624   2.779   2.114   2.762
 2220TIP3    H2 6625   2.852   2.002   2.834
 2221TIP3   OH2 6626   2.860   6.251   5.813
 2221TIP3    H1 6627   2.806   6.329   5.802
 2221TIP3    H2 6628   2.899   6.236   5.727
 2222TIP3   OH2 6629   4.492   2.705   0.688
 2222TIP3    H1 6630   4.517   2.614   0.675
 2222TIP3    H2 6631   4.417   2.701   0.748
 2223TIP3   OH2 6632   2.071   1.641   4.871
 2223TIP3    H1 6633   1.976   1.638   4.862
 2223TIP3    H2 6634   2.086   1.681   4.957
 2224TIP3   OH2 6635   6.152   2.963   3.533
 2224TIP3    H1 6636   6.075   3.006   3.569
 2224TIP3    H2 6637   6.168   3.007   3.449
 2225TIP3   OH2 6638   4.517   6.433   4.790
 2225TIP3    H1 6639   4.593   6.480   4.824
 2225TIP3    H2 6640   4.442   6.480   4.826
 2226TIP3   OH2 6641   0.081   6.165   0.773
 2226TIP3    H1 6642   0.017   6.233   0.793
 2226TIP3    H2 6643   0.135   6.202   0.703
 2227TIP3   OH2 6644   4.664   3.477   1.588
 2227TIP3    H1 6645   4.682   3.395   1.634
 2227TIP3    H2 6646   4.570   3.491   1.602
 2228TIP3   OH2 6647   0.591   0.613   2.003
 2228TIP3    H1 6648   0.676   0.628   2.043
 2228TIP3    H2 6649   0.572   0.694   1.956
 2229TIP3   OH2 6650   0.553   0.741   4.355
 2229TIP3    H1 6651   0.484   0.705   4.298
 2229TIP3    H2 6652   0.618   0.671   4.360
 2230TIP3   OH2 6653   1.168   0.497   5.213
 2230TIP3    H1 6654   1.112   0.562   5.254
 2230TIP3    H2 6655   1.235   0.478   5.279
 2231TIP3   OH2 6656   2.075   4.056   3.763
 2231TIP3    H1 6657   2.144   4.122   3.751
 2231TIP3    H2 6658   2.018   4.093   3.831
 2232TIP3   OH2 6659   0.731   3.964   3.986
 2232TIP3    H1 6660   0.751   4.035   3.925
 2232TIP3    H2 6661   0.790   3.893   3.960
 2233TIP3   OH2 6662   0.768   5.802   0.641
 2233TIP3    H1 6663   0.771   5.897   0.641
 2233TIP3    H2 6664   0.805   5.776   0.725
 2234TIP3   OH2 6665   0.724   2.712   2.525
 2234TIP3    H1 6666   0.629   2.704   2.539
 2234TIP3    H2 6667   0.737   2.687   2.433
 2235TIP3   OH2 6668   7.115   1.598   0.444
 2235TIP3    H1 6669   7.089   1.556   0.362
 2235TIP3    H2 6670   7.054   1.670   0.455
 2236TIP3   OH2 6671   3.137   3.801   0.123
 2236TIP3    H1 6672   3.127   3.825   0.215
 2236TIP3    H2 6673   3.070   3.853   0.078
 2237TIP3   OH2 6674   4.821   6.257   5.293
 2237TIP3    H1 6675   4.877   6.333   5.276
 2237TIP3    H2 6676   4.868   6.184   5.252
 2238TIP3   OH2 6677   1.835   3.392   2.840
 2238TIP3    H1 6678   1.783   3.429   2.769
 2238TIP3    H2 6679   1.778   3.325   2.879
 2239TIP3   OH2 6680   2.814   4.788   5.462
 2239TIP3    H1 6681   2.778   4.876   5.470
 2239TIP3    H2 6682   2.811   4.769   5.368
 2240TIP3   OH2 6683   4.887   4.156   0.233
 2240TIP3    H1 6684   4.911   4.210   0.158
 2240TIP3    H2 6685   4.886   4.217   0.307
 2241TIP3   OH2 6686   2.620   2.482   1.370
 2241TIP3    H1 6687   2.628   2.483   1.275
 2241TIP3    H2 6688   2.711   2.488   1.401
 2242TIP3   OH2 6689   4.859   3.561   3.280
 2242TIP3    H1 6690   4.797   3.620   3.323
 2242TIP3    H2 6691   4.819   3.543   3.195
 2243TIP3   OH2 6692   2.437   4.537   1.518
 2243TIP3    H1 6693   2.488   4.603   1.565
 2243TIP3    H2 6694   2.490   4.458   1.521
 2244TIP3   OH2 6695   0.746   4.137   5.187
 2244TIP3    H1 6696   0.749   4.193   5.109
 2244TIP3    H2 6697   0.823   4.163   5.238
 2245TIP3   OH2 6698   5.933   6.256   2.743
 2245TIP3    H1 6699   5.893   6.333   2.704
 2245TIP3    H2 6700   6.009   6.236   2.688
 2246TIP3   OH2 6701   4.762   6.253   4.411
 2246TIP3    H1 6702   4.729   6.337   4.442
 2246TIP3    H2 6703   4.805   6.214   4.488
 2247TIP3   OH2 6704   6.783   1.210   2.436
 2247TIP3    H1 6705   6.818   1.278   2.379
 2247TIP3    H2 6706   6.724   1.159   2.380
 2248TIP3   OH2 6707   0.311   2.780   1.488
 2248TIP3    H1 6708   0.319   2.748   1.578
 2248TIP3    H2 6709   0.217   2.788   1.473
 2249TIP3   OH2 6710   6.148   5.048   4.190
 2249TIP3    H1 6711   6.155   4.958   4.156
 2249TIP3    H2 6712   6.118   5.099   4.115
 2250TIP3   OH2 6713   2.709   3.654   2.406
 2250TIP3    H1 6714   2.655   3.590   2.453
 2250TIP3    H2 6715   2.792   3.608   2.391
 2251TIP3   OH2 6716   1.580   2.378   5.333
 2251TIP3    H1 6717   1.507   2.432   5.302
 2251TIP3    H2 6718   1.655   2.438   5.336
 2252TIP3   OH2 6719   4.908   0.469   3.782
 2252TIP3    H1 6720   4.877   0.541   3.726
 2252TIP3    H2 6721   4.978   0.508   3.835
 2253TIP3   OH2 6722   7.055   1.032   4.303
 2253TIP3    H1 6723   7.039   1.109   4.359
 2253TIP3    H2 6724   7.129   1.058   4.249
 2254TIP3   OH2 6725   6.017   6.310   0.740
 2254TIP3    H1 6726   6.022   6.344   0.651
 2254TIP3    H2 6727   5.928   6.329   0.769
 2255TIP3   OH2 6728   7.061   2.259   4.648
 2255TIP3    H1 6729   7.152   2.235   4.660
 2255TIP3    H2 6730   7.033   2.209   4.571
 2256TIP3   OH2 6731   3.895   2.411   3.364
 2256TIP3    H1 6732   3.894   2.431   3.270
 2256TIP3    H2 6733   3.897   2.315   3.368
 2257TIP3   OH2 6734   2.499   0.346   3.419
 2257TIP3    H1 6735   2.425   0.357   3.479
 2257TIP3    H2 6736   2.543   0.267   3.451
 2258TIP3   OH2 6737   3.806   0.311   1.356
 2258TIP3    H1 6738   3.762   0.334   1.438
 2258TIP3    H2 6739   3.785   0.218   1.343
 2259TIP3   OH2 6740   6.783   4.292   3.869
 2259TIP3    H1 6741   6.837   4.335   3.936
 2259TIP3    H2 6742   6.762   4.363   3.808
 2260TIP3   OH2 6743   4.064   0.631   2.497
 2260TIP3    H1 6744   4.122   0.583   2.555
 2260TIP3    H2 6745   4.042   0.710   2.545
 2261TIP3   OH2 6746   3.552   2.437   2.377
 2261TIP3    H1 6747   3.575   2.349   2.406
 2261TIP3    H2 6748   3.466   2.427   2.335
 2262TIP3   OH2 6749   0.302   5.979   3.688
 2262TIP3    H1 6750   0.243   6.054   3.693
 2262TIP3    H2 6751   0.389   6.018   3.677
 2263TIP3   OH2 6752   0.920   2.504   2.910
 2263TIP3    H1 6753   0.836   2.523   2.951
 2263TIP3    H2 6754   0.919   2.553   2.828
 2264TIP3   OH2 6755   6.006   6.037   4.973
 2264TIP3    H1 6756   6.090   6.069   5.004
 2264TIP3    H2 6757   5.965   6.111   4.929
 2265TIP3   OH2 6758   3.779   2.955   2.141
 2265TIP3    H1 6759   3.770   2.904   2.061
 2265TIP3    H2 6760   3.695   3.001   2.149
 2266TIP3   OH2 6761   3.389   2.913   5.386
 2266TIP3    H1 6762   3.385   2.968   5.465
 2266TIP3    H2 6763   3.482   2.903   5.368
 2267TIP3   OH2 6764   6.948   6.058   3.329
 2267TIP3    H1 6765   6.888   6.132   3.338
 2267TIP3    H2 6766   7.024   6.093   3.282
 2268TIP3   OH2 6767   3.940   5.878   3.924
 2268TIP3    H1 6768   3.918   5.877   4.018
 2268TIP3    H2 6769   3.905   5.795   3.891
 2269TIP3   OH2 6770   6.606   3.121   2.160
 2269TIP3    H1 6771   6.697   3.149   2.172
 2269TIP3    H2 6772   6.613   3.030   2.130
 2270TIP3   OH2 6773   4.337   4.752   4.882
 2270TIP3    H1 6774   4.263   4.796   4.839
 2270TIP3    H2 6775   4.344   4.668   4.837
 2271TIP3   OH2 6776   0.440   6.480   0.912
 2271TIP3    H1 6777   0.515   6.450   0.963
 2271TIP3    H2 6778   0.444   6.575   0.916
 2272TIP3   OH2 6779   7.043   2.984   2.618
 2272TIP3    H1 6780   6.957   2.983   2.577
 2272TIP3    H2 6781   7.033   3.040   2.694
 2273TIP3   OH2 6782   1.777   2.945   3.162
 2273TIP3    H1 6783   1.751   3.021   3.215
 2273TIP3    H2 6784   1.718   2.875   3.190
 2274TIP3   OH2 6785   4.977   3.001   3.648
 2274TIP3    H1 6786   4.960   3.025   3.557
 2274TIP3    H2 6787   5.068   3.028   3.663
 2275TIP3   OH2 6788   2.560   4.466   5.134
 2275TIP3    H1 6789   2.627   4.485   5.199
 2275TIP3    H2 6790   2.566   4.539   5.072
 2276TIP3   OH2 6791   1.981   0.493   0.237
 2276TIP3    H1 6792   1.947   0.582   0.240
 2276TIP3    H2 6793   2.039   0.487   0.313
 2277TIP3   OH2 6794   6.354   4.503   2.749
 2277TIP3    H1 6795   6.277   4.450   2.733
 2277TIP3    H2 6796   6.385   4.476   2.835
 2278TIP3   OH2 6797   3.962   1.375   4.224
 2278TIP3    H1 6798   4.053   1.343   4.216
 2278TIP3    H2 6799   3.912   1.297   4.249
 2279TIP3   OH2 6800   4.668   0.531   3.069
 2279TIP3    H1 6801   4.733   0.517   3.000
 2279TIP3    H2 6802   4.663   0.447   3.114
 2280TIP3   OH2 6803   3.041   6.185   4.846
 2280TIP3    H1 6804   3.028   6.131   4.925
 2280TIP3    H2 6805   3.134   6.173   4.825
 2281TIP3   OH2 6806   1.403   4.384   0.749
 2281TIP3    H1 6807   1.428   4.476   0.754
 2281TIP3    H2 6808   1.336   4.375   0.817
 2282TIP3   OH2 6809   6.833   1.048   1.962
 2282TIP3    H1 6810   6.758   1.099   1.929
 2282TIP3    H2 6811   6.861   0.996   1.887
 2283TIP3   OH2 6812   3.578   6.349   3.131
 2283TIP3    H1 6813   3.589   6.272   3.076
 2283TIP3    H2 6814   3.505   6.327   3.190
 2284TIP3   OH2 6815   3.821   2.141   3.452
 2284TIP3    H1 6816   3.759   2.086   3.403
 2284TIP3    H2 6817   3.785   2.145   3.540
 2285TIP3   OH2 6818   0.811   2.024   4.277
 2285TIP3    H1 6819   0.787   2.116   4.265
 2285TIP3    H2 6820   0.902   2.019   4.246
 2286TIP3   OH2 6821   1.480   2.117   5.296
 2286TIP3    H1 6822   1.526   2.197   5.323
 2286TIP3    H2 6823   1.395   2.148   5.265
 2287TIP3   OH2 6824   5.062   3.457   5.436
 2287TIP3    H1 6825   5.037   3.514   5.363
 2287TIP3    H2 6826   5.157   3.468   5.442
 2288TIP3   OH2 6827   0.441   1.834   2.174
 2288TIP3    H1 6828   0.500   1.763   2.148
 2288TIP3    H2 6829   0.480   1.912   2.135
 2289TIP3   OH2 6830   1.076   5.537   3.842
 2289TIP3    H1 6831   1.111   5.571   3.924
 2289TIP3    H2 6832   1.151   5.497   3.798
 2290TIP3   OH2 6833   4.220   0.857   2.835
 2290TIP3    H1 6834   4.218   0.918   2.761
 2290TIP3    H2 6835   4.137   0.871   2.880
 2291TIP3   OH2 6836   3.407   6.303   2.878
 2291TIP3    H1 6837   3.494   6.306   2.839
 2291TIP3    H2 6838   3.347   6.304   2.804
 2292TIP3   OH2 6839   6.125   3.697   2.469
 2292TIP3    H1 6840   6.191   3.627   2.473
 2292TIP3    H2 6841   6.072   3.676   2.392
 2293TIP3   OH2 6842   1.214   3.655   0.710
 2293TIP3    H1 6843   1.273   3.583   0.733
 2293TIP3    H2 6844   1.162   3.669   0.789
 2294TIP3   OH2 6845   3.607   3.442   0.173
 2294TIP3    H1 6846   3.632   3.362   0.220
 2294TIP3    H2 6847   3.542   3.414   0.109
 2295TIP3   OH2 6848   1.009   2.674   4.465
 2295TIP3    H1 6849   1.075   2.730   4.506
 2295TIP3    H2 6850   1.022   2.687   4.371
 2296TIP3   OH2 6851   5.566   3.180   0.234
 2296TIP3    H1 6852   5.476   3.147   0.233
 2296TIP3    H2 6853   5.561   3.263   0.187
 2297TIP3   OH2 6854   5.369   5.796   4.033
 2297TIP3    H1 6855   5.289   5.829   4.074
 2297TIP3    H2 6856   5.399   5.726   4.091
 2298TIP3   OH2 6857   0.284   0.936   2.939
 2298TIP3    H1 6858   0.344   0.971   3.005
 2298TIP3    H2 6859   0.197   0.966   2.968
 2299TIP3   OH2 6860   2.126   2.558   1.704
 2299TIP3    H1 6861   2.086   2.645   1.703
 2299TIP3    H2 6862   2.215   2.572   1.671
 2300TIP3   OH2 6863   2.816   1.088   2.661
 2300TIP3    H1 6864   2.730   1.108   2.622
 2300TIP3    H2 6865   2.801   1.008   2.711
 2301TIP3   OH2 6866   6.737   4.124   5.057
 2301TIP3    H1 6867   6.715   4.105   4.966
 2301TIP3    H2 6868   6.680   4.067   5.108
 2302TIP3   OH2 6869   5.109   2.680   3.637
 2302TIP3    H1 6870   5.183   2.696   3.578
 2302TIP3    H2 6871   5.073   2.767   3.653
 2303TIP3   OH2 6872   3.790   4.547   1.935
 2303TIP3    H1 6873   3.828   4.542   2.023
 2303TIP3    H2 6874   3.717   4.485   1.937
 2304TIP3   OH2 6875   1.754   5.787   5.316
 2304TIP3    H1 6876   1.764   5.717   5.380
 2304TIP3    H2 6877   1.843   5.814   5.295
 2305TIP3   OH2 6878   5.147   2.241   3.439
 2305TIP3    H1 6879   5.122   2.284   3.521
 2305TIP3    H2 6880   5.227   2.193   3.460
 2306TIP3   OH2 6881   3.762   5.448   2.679
 2306TIP3    H1 6882   3.677   5.443   2.636
 2306TIP3    H2 6883   3.752   5.518   2.744
 2307TIP3   OH2 6884   1.105   1.329   5.022
 2307TIP3    H1 6885   1.187   1.350   5.066
 2307TIP3    H2 6886   1.103   1.387   4.946
 2308TIP3   OH2 6887   4.084   4.090   4.125
 2308TIP3    H1 6888   4.110   4.164   4.180
 2308TIP3    H2 6889   4.024   4.127   4.061
 2309TIP3   OH2 6890   4.013   0.650   0.756
 2309TIP3    H1 6891   3.989   0.607   0.673
 2309TIP3    H2 6892   4.107   0.636   0.764
 2310TIP3   OH2 6893   1.491   2.629   2.135
 2310TIP3    H1 6894   1.416   2.583   2.097
 2310TIP3    H2 6895   1.519   2.690   2.067
 2311TIP3   OH2 6896   7.129   4.896   3.053
 2311TIP3    H1 6897   7.101   4.968   2.997
 2311TIP3    H2 6898   7.083   4.819   3.020
 2312TIP3   OH2 6899   2.146   6.093   0.165
 2312TIP3    H1 6900   2.126   6.152   0.237
 2312TIP3    H2 6901   2.069   6.037   0.157
 2313TIP3   OH2 6902   3.201   0.184   5.536
 2313TIP3    H1 6903   3.160   0.196   5.451
 2313TIP3    H2 6904   3.130   0.195   5.600
 2314TIP3   OH2 6905   4.016   1.775   3.459
 2314TIP3    H1 6906   3.995   1.728   3.378
 2314TIP3    H2 6907   4.074   1.846   3.431
 2315TIP3   OH2 6908   4.198   6.304   1.368
 2315TIP3    H1 6909   4.267   6.270   1.311
 2315TIP3    H2 6910   4.244   6.359   1.431
 2316TIP3   OH2 6911   4.135   4.531   0.791
 2316TIP3    H1 6912   4.230   4.540   0.781
 2316TIP3    H2 6913   4.111   4.459   0.734
 2317TIP3   OH2 6914   3.633   3.731   0.920
 2317TIP3    H1 6915   3.634   3.635   0.914
 2317TIP3    H2 6916   3.593   3.749   1.005
 2318TIP3   OH2 6917   0.580   4.338   4.797
 2318TIP3    H1 6918   0.538   4.266   4.844
 2318TIP3    H2 6919   0.615   4.298   4.718
 2319TIP3   OH2 6920   1.085   3.257   5.561
 2319TIP3    H1 6921   1.000   3.212   5.554
 2319TIP3    H2 6922   1.098   3.296   5.475
 2320TIP3   OH2 6923   2.820   1.694   1.045
 2320TIP3    H1 6924   2.843   1.615   0.996
 2320TIP3    H2 6925   2.750   1.666   1.104
 2321TIP3   OH2 6926   4.300   1.627   3.439
 2321TIP3    H1 6927   4.248   1.656   3.364
 2321TIP3    H2 6928   4.329   1.709   3.480
 2322TIP3   OH2 6929   0.806   2.214   1.388
 2322TIP3    H1 6930   0.895   2.237   1.360
 2322TIP3    H2 6931   0.749   2.257   1.325
 2323TIP3   OH2 6932   4.844   1.720   3.568
 2323TIP3    H1 6933   4.754   1.691   3.580
 2323TIP3    H2 6934   4.856   1.727   3.474
 2324TIP3   OH2 6935   5.920   1.042   1.468
 2324TIP3    H1 6936   6.013   1.056   1.449
 2324TIP3    H2 6937   5.919   0.973   1.535
 2325TIP3   OH2 6938   5.367   3.382   0.199
 2325TIP3    H1 6939   5.309   3.348   0.267
 2325TIP3    H2 6940   5.324   3.462   0.169
 2326TIP3   OH2 6941   6.144   5.543   0.705
 2326TIP3    H1 6942   6.132   5.455   0.669
 2326TIP3    H2 6943   6.076   5.551   0.772
 2327TIP3   OH2 6944   0.751   4.100   2.779
 2327TIP3    H1 6945   0.754   4.005   2.792
 2327TIP3    H2 6946   0.767   4.136   2.867
 2328TIP3   OH2 6947   0.858   2.232   5.820
 2328TIP3    H1 6948   0.823   2.294   5.884
 2328TIP3    H2 6949   0.943   2.208   5.855
 2329TIP3   OH2 6950   1.956   1.892   0.634
 2329TIP3    H1 6951   1.912   1.971   0.604
 2329TIP3    H2 6952   2.026   1.877   0.570
 2330TIP3   OH2 6953   5.454   5.157   1.930
 2330TIP3    H1 6954   5.468   5.169   1.836
 2330TIP3    H2 6955   5.438   5.246   1.964
 2331TIP3   OH2 6956   3.178   5.710   5.645
 2331TIP3    H1 6957   3.249   5.646   5.637
 2331TIP3    H2 6958   3.117   5.687   5.575
 2332TIP3   OH2 6959   0.100   4.294   2.456
 2332TIP3    H1 6960   0.125   4.211   2.497
 2332TIP3    H2 6961   0.014   4.277   2.417
 2333TIP3   OH2 6962   1.273   3.867   2.320
 2333TIP3    H1 6963   1.267   3.781   2.278
 2333TIP3    H2 6964   1.188   3.880   2.362
 2334TIP3   OH2 6965   2.190   6.456   0.718
 2334TIP3    H1 6966   2.253   6.441   0.788
 2334TIP3    H2 6967   2.239   6.502   0.650
 2335TIP3   OH2 6968   6.772   2.931   1.294
 2335TIP3    H1 6969   6.769   2.951   1.387
 2335TIP3    H2 6970   6.864   2.908   1.278
 2336TIP3   OH2 6971   5.873   5.382   4.420
 2336TIP3    H1 6972   5.888   5.381   4.514
 2336TIP3    H2 6973   5.912   5.463   4.390
 2337TIP3   OH2 6974   3.643   2.107   2.875
 2337TIP3    H1 6975   3.731   2.140   2.861
 2337TIP3    H2 6976   3.601   2.172   2.932
 2338TIP3   OH2 6977   4.577   5.133   5.465
 2338TIP3    H1 6978   4.566   5.039   5.448
 2338TIP3    H2 6979   4.628   5.137   5.546
 2339TIP3   OH2 6980   4.278   5.433   5.874
 2339TIP3    H1 6981   4.264   5.338   5.874
 2339TIP3    H2 6982   4.341   5.448   5.803
 2340TIP3   OH2 6983   2.289   2.098   5.126
 2340TIP3    H1 6984   2.339   2.038   5.183
 2340TIP3    H2 6985   2.207   2.112   5.173
 2341TIP3   OH2 6986   5.958   2.496   3.145
 2341TIP3    H1 6987   6.046   2.521   3.172
 2341TIP3    H2 6988   5.970   2.450   3.062
 2342TIP3   OH2 6989   3.332   4.454   2.513
 2342TIP3    H1 6990   3.397   4.475   2.446
 2342TIP3    H2 6991   3.384   4.441   2.593
 2343TIP3   OH2 6992   3.189   5.392   3.605
 2343TIP3    H1 6993   3.117   5.444   3.641
 2343TIP3    H2 6994   3.265   5.416   3.658
 2344TIP3   OH2 6995   4.079   0.955   1.215
 2344TIP3    H1 6996   4.076   0.871   1.262
 2344TIP3    H2 6997   4.044   0.935   1.128
 2345TIP3   OH2 6998   6.554   1.061   0.474
 2345TIP3    H1 6999   6.542   1.085   0.383
 2345TIP3    H2 7000   6.610   0.983   0.471
 2346TIP3   OH2 7001   3.744   1.610   5.716
 2346TIP3    H1 7002   3.813   1.560   5.760
 2346TIP3    H2 7003   3.727   1.684   5.773
 2347TIP3   OH2 7004   4.976   0.308   1.521
 2347TIP3    H1 7005   4.990   0.396   1.555
 2347TIP3    H2 7006   4.882   0.293   1.530
 2348TIP3   OH2 7007   6.646   6.633   5.792
 2348TIP3    H1 7008   6.563   6.638   5.746
 2348TIP3    H2 7009   6.655   6.717   5.836
 2349TIP3   OH2 7010   5.990   6.327   4.449
 2349TIP3    H1 7011   5.910   6.376   4.427
 2349TIP3    H2 7012   5.958   6.249   4.494
 2350TIP3   OH2 7013   2.532   0.369   5.247
 2350TIP3    H1 7014   2.616   0.340   5.210
 2350TIP3    H2 7015   2.516   0.310   5.320
 2351TIP3   OH2 7016   4.008   2.398   0.838
 2351TIP3    H1 7017   4.020   2.385   0.744
 2351TIP3    H2 7018   3.921   2.362   0.856
 2352TIP3   OH2 7019   1.848   4.855   5.603
 2352TIP3    H1 7020   1.909   4.837   5.531
 2352TIP3    H2 7021   1.823   4.769   5.636
 2353TIP3   OH2 7022   6.433   6.487   2.483
 2353TIP3    H1 7023   6.471   6.403   2.457
 2353TIP3    H2 7024   6.481   6.552   2.432
 2354TIP3   OH2 7025   2.437   1.622   1.508
 2354TIP3    H1 7026   2.411   1.712   1.489
 2354TIP3    H2 7027   2.379   1.594   1.579
 2355TIP3   OH2 7028   6.690   3.766   2.864
 2355TIP3    H1 7029   6.718   3.787   2.953
 2355TIP3    H2 7030   6.677   3.851   2.822
 2356TIP3   OH2 7031   2.046   4.365   5.350
 2356TIP3    H1 7032   2.104   4.381   5.276
 2356TIP3    H2 7033   2.083   4.417   5.421
 2357TIP3   OH2 7034   0.444   1.115   1.777
 2357TIP3    H1 7035   0.425   1.071   1.695
 2357TIP3    H2 7036   0.373   1.179   1.786
 2358TIP3   OH2 7037   0.762   2.705   1.191
 2358TIP3    H1 7038   0.676   2.710   1.233
 2358TIP3    H2 7039   0.804   2.788   1.214
 2359TIP3   OH2 7040   0.947   1.499   5.447
 2359TIP3    H1 7041   1.037   1.502   5.478
 2359TIP3    H2 7042   0.933   1.408   5.421
 2360TIP3   OH2 7043   0.219   5.978   0.051
 2360TIP3    H1 7044   0.154   5.922   0.093
 2360TIP3    H2 7045   0.179   6.065   0.050
 2361TIP3   OH2 7046   1.226   6.413   3.836
 2361TIP3    H1 7047   1.180   6.335   3.867
 2361TIP3    H2 7048   1.315   6.382   3.816
 2362TIP3   OH2 7049   7.204   5.761   2.531
 2362TIP3    H1 7050   7.198   5.829   2.465
 2362TIP3    H2 7051   7.287   5.716   2.513
 2363TIP3   OH2 7052   2.723   5.541   4.681
 2363TIP3    H1 7053   2.638   5.568   4.646
 2363TIP3    H2 7054   2.782   5.543   4.605
 2364TIP3   OH2 7055   2.704   1.067   1.718
 2364TIP3    H1 7056   2.679   1.060   1.626
 2364TIP3    H2 7057   2.633   1.116   1.759
 2365TIP3   OH2 7058   4.268   5.177   4.482
 2365TIP3    H1 7059   4.301   5.102   4.532
 2365TIP3    H2 7060   4.313   5.252   4.520
 2366TIP3   OH2 7061   0.969   0.786   1.337
 2366TIP3    H1 7062   1.063   0.770   1.345
 2366TIP3    H2 7063   0.958   0.877   1.364
 2367TIP3   OH2 7064   1.487   5.199   1.987
 2367TIP3    H1 7065   1.426   5.263   2.023
 2367TIP3    H2 7066   1.460   5.189   1.896
 2368TIP3   OH2 7067   5.030   3.891   0.981
 2368TIP3    H1 7068   4.963   3.959   0.994
 2368TIP3    H2 7069   5.099   3.914   1.043
 2369TIP3   OH2 7070   0.137  -0.006   2.831
 2369TIP3    H1 7071   0.106  -0.076   2.773
 2369TIP3    H2 7072   0.059   0.022   2.878
 2370TIP3   OH2 7073   4.215   0.073   2.690
 2370TIP3    H1 7074   4.146   0.120   2.737
 2370TIP3    H2 7075   4.288   0.135   2.685
 2371TIP3   OH2 7076   1.010   5.238   2.108
 2371TIP3    H1 7077   1.079   5.304   2.112
 2371TIP3    H2 7078   1.056   5.157   2.089
 2372TIP3   OH2 7079   1.458   4.633   0.849
 2372TIP3    H1 7080   1.370   4.670   0.862
 2372TIP3    H2 7081   1.511   4.707   0.818
 2373TIP3   OH2 7082   3.665   1.730   1.072
 2373TIP3    H1 7083   3.735   1.772   1.121
 2373TIP3    H2 7084   3.590   1.731   1.131
 2374TIP3   OH2 7085   7.094   1.273   4.419
 2374TIP3    H1 7086   7.186   1.279   4.393
 2374TIP3    H2 7087   7.053   1.350   4.379
 2375TIP3   OH2 7088   4.232   5.544   5.505
 2375TIP3    H1 7089   4.157   5.513   5.454
 2375TIP3    H2 7090   4.252   5.471   5.564
 2376TIP3   OH2 7091   5.851   2.034   5.753
 2376TIP3    H1 7092   5.830   2.121   5.717
 2376TIP3    H2 7093   5.897   1.990   5.681
 2377TIP3   OH2 7094   4.356   4.303   4.654
 2377TIP3    H1 7095   4.424   4.278   4.717
 2377TIP3    H2 7096   4.283   4.333   4.708
 2378TIP3   OH2 7097   4.064   4.576   1.302
 2378TIP3    H1 7098   4.090   4.667   1.286
 2378TIP3    H2 7099   4.073   4.533   1.217
 2379TIP3   OH2 7100   4.247   4.981   3.099
 2379TIP3    H1 7101   4.293   4.952   3.177
 2379TIP3    H2 7102   4.174   5.034   3.132
 2380TIP3   OH2 7103   2.405   2.632   1.926
 2380TIP3    H1 7104   2.417   2.541   1.953
 2380TIP3    H2 7105   2.476   2.649   1.865
 2381TIP3   OH2 7106   6.591   1.485   4.534
 2381TIP3    H1 7107   6.631   1.499   4.449
 2381TIP3    H2 7108   6.500   1.461   4.514
 2382TIP3   OH2 7109   5.096   4.297   3.283
 2382TIP3    H1 7110   5.149   4.316   3.361
 2382TIP3    H2 7111   5.017   4.350   3.294
 2383TIP3   OH2 7112   6.814   3.353   5.393
 2383TIP3    H1 7113   6.870   3.422   5.428
 2383TIP3    H2 7114   6.737   3.354   5.449
 2384TIP3   OH2 7115   6.863   3.457   2.788
 2384TIP3    H1 7116   6.825   3.393   2.848
 2384TIP3    H2 7117   6.895   3.527   2.845
 2385TIP3   OH2 7118   6.028   2.795   4.670
 2385TIP3    H1 7119   6.097   2.794   4.735
 2385TIP3    H2 7120   6.066   2.751   4.594
 2386TIP3   OH2 7121   7.027   2.186   2.557
 2386TIP3    H1 7122   7.008   2.100   2.518
 2386TIP3    H2 7123   7.085   2.228   2.494
 2387TIP3   OH2 7124   0.574   6.743   0.018
 2387TIP3    H1 7125   0.577   6.744   0.114
 2387TIP3    H2 7126   0.625   6.666  -0.006
 2388TIP3   OH2 7127   2.323   0.937   5.218
 2388TIP3    H1 7128   2.414   0.930   5.189
 2388TIP3    H2 7129   2.279   0.985   5.148
 2389TIP3   OH2 7130   0.784   6.477   4.726
 2389TIP3    H1 7131   0.852   6.534   4.763
 2389TIP3    H2 7132   0.831   6.398   4.698
 2390TIP3   OH2 7133   4.948   1.556   0.103
 2390TIP3    H1 7134   4.956   1.638   0.053
 2390TIP3    H2 7135   4.853   1.545   0.114
 2391TIP3   OH2 7136   2.382   5.667   1.971
 2391TIP3    H1 7137   2.298   5.633   2.002
 2391TIP3    H2 7138   2.370   5.762   1.969
 2392TIP3   OH2 7139   0.912   1.178   5.687
 2392TIP3    H1 7140   0.910   1.212   5.598
 2392TIP3    H2 7141   0.954   1.092   5.680
 2393TIP3   OH2 7142   6.700   0.448   1.331
 2393TIP3    H1 7143   6.722   0.408   1.415
 2393TIP3    H2 7144   6.778   0.435   1.277
 2394TIP3   OH2 7145   0.364   5.218   0.830
 2394TIP3    H1 7146   0.395   5.143   0.882
 2394TIP3    H2 7147   0.271   5.200   0.816
 2395TIP3   OH2 7148   4.990   4.427   5.744
 2395TIP3    H1 7149   4.902   4.436   5.782
 2395TIP3    H2 7150   4.976   4.387   5.659
 2396TIP3   OH2 7151   2.930   2.074   4.449
 2396TIP3    H1 7152   2.902   2.057   4.359
 2396TIP3    H2 7153   2.862   2.131   4.485
 2397TIP3   OH2 7154   1.086   4.577   2.279
 2397TIP3    H1 7155   1.039   4.632   2.216
 2397TIP3    H2 7156   1.176   4.610   2.276
 2398TIP3   OH2 7157   4.106   4.834   4.788
 2398TIP3    H1 7158   4.047   4.831   4.863
 2398TIP3    H2 7159   4.096   4.749   4.746
 2399TIP3   OH2 7160   5.157   4.730   1.604
 2399TIP3    H1 7161   5.155   4.816   1.646
 2399TIP3    H2 7162   5.248   4.702   1.610
 2400TIP3   OH2 7163   1.564   1.547   1.166
 2400TIP3    H1 7164   1.504   1.618   1.145
 2400TIP3    H2 7165   1.649   1.576   1.132
 2401TIP3   OH2 7166   4.843   6.265   5.604
 2401TIP3    H1 7167   4.890   6.192   5.564
 2401TIP3    H2 7168   4.779   6.292   5.538
 2402TIP3   OH2 7169   1.139   6.181   0.204
 2402TIP3    H1 7170   1.050   6.216   0.195
 2402TIP3    H2 7171   1.128   6.086   0.209
 2403TIP3   OH2 7172   2.717   0.149   1.830
 2403TIP3    H1 7173   2.768   0.229   1.844
 2403TIP3    H2 7174   2.733   0.096   1.909
 2404TIP3   OH2 7175   4.557   1.510   2.041
 2404TIP3    H1 7176   4.473   1.531   2.081
 2404TIP3    H2 7177   4.622   1.559   2.092
 2405TIP3   OH2 7178   4.866   2.716   3.836
 2405TIP3    H1 7179   4.799   2.777   3.805
 2405TIP3    H2 7180   4.929   2.771   3.883
 2406TIP3   OH2 7181   0.602   0.494   1.694
 2406TIP3    H1 7182   0.578   0.497   1.601
 2406TIP3    H2 7183   0.689   0.534   1.698
 2407TIP3   OH2 7184   1.510   3.610   5.787
 2407TIP3    H1 7185   1.568   3.614   5.863
 2407TIP3    H2 7186   1.472   3.698   5.781
 2408TIP3   OH2 7187   2.473   0.917   4.854
 2408TIP3    H1 7188   2.546   0.978   4.870
 2408TIP3    H2 7189   2.499   0.868   4.776
 2409TIP3   OH2 7190   5.084   2.544   5.452
 2409TIP3    H1 7191   5.033   2.478   5.406
 2409TIP3    H2 7192   5.083   2.516   5.543
 2410TIP3   OH2 7193   4.970   2.355   4.169
 2410TIP3    H1 7194   5.026   2.320   4.238
 2410TIP3    H2 7195   4.881   2.352   4.205
 2411TIP3   OH2 7196   5.015   4.506   5.120
 2411TIP3    H1 7197   5.089   4.528   5.065
 2411TIP3    H2 7198   5.006   4.411   5.114
 2412TIP3   OH2 7199   5.800   4.255   4.149
 2412TIP3    H1 7200   5.892   4.262   4.126
 2412TIP3    H2 7201   5.774   4.344   4.172
 2413TIP3   OH2 7202   1.106   6.650   0.403
 2413TIP3    H1 7203   1.108   6.630   0.309
 2413TIP3    H2 7204   1.176   6.714   0.416
 2414TIP3   OH2 7205   0.720   1.155   0.821
 2414TIP3    H1 7206   0.747   1.247   0.819
 2414TIP3    H2 7207   0.625   1.158   0.810
 2415TIP3   OH2 7208   5.680   3.789   4.716
 2415TIP3    H1 7209   5.649   3.793   4.807
 2415TIP3    H2 7210   5.649   3.870   4.676
 2416TIP3   OH2 7211   2.802   4.840   1.498
 2416TIP3    H1 7212   2.847   4.895   1.562
 2416TIP3    H2 7213   2.865   4.770   1.478
 2417TIP3   OH2 7214   1.016   3.817   5.818
 2417TIP3    H1 7215   0.937   3.780   5.779
 2417TIP3    H2 7216   0.984   3.893   5.868
 2418TIP3   OH2 7217   2.291   2.962   5.398
 2418TIP3    H1 7218   2.207   3.009   5.395
 2418TIP3    H2 7219   2.304   2.930   5.309
 2419TIP3   OH2 7220   6.821   4.996   0.632
 2419TIP3    H1 7221   6.790   4.990   0.723
 2419TIP3    H2 7222   6.805   4.909   0.595
 2420TIP3   OH2 7223   4.005   6.040   3.269
 2420TIP3    H1 7224   3.970   5.952   3.256
 2420TIP3    H2 7225   3.927   6.096   3.272
 2421TIP3   OH2 7226   7.092   5.339   5.698
 2421TIP3    H1 7227   7.068   5.428   5.673
 2421TIP3    H2 7228   7.091   5.290   5.617
 2422TIP3   OH2 7229   0.793   4.973   3.732
 2422TIP3    H1 7230   0.783   4.899   3.792
 2422TIP3    H2 7231   0.820   4.934   3.649
 2423TIP3   OH2 7232   0.926   0.218   4.673
 2423TIP3    H1 7233   0.873   0.270   4.734
 2423TIP3    H2 7234   0.863   0.169   4.621
 2424TIP3   OH2 7235   4.819   5.936   4.048
 2424TIP3    H1 7236   4.815   5.843   4.027
 2424TIP3    H2 7237   4.824   5.939   4.144
 2425TIP3   OH2 7238   4.721   1.972   3.414
 2425TIP3    H1 7239   4.792   2.028   3.382
 2425TIP3    H2 7240   4.750   1.947   3.502
 2426TIP3   OH2 7241   2.522   1.488   3.516
 2426TIP3    H1 7242   2.475   1.415   3.474
 2426TIP3    H2 7243   2.602   1.497   3.464
 2427TIP3   OH2 7244   2.874   4.929   3.402
 2427TIP3    H1 7245   2.930   4.892   3.470
 2427TIP3    H2 7246   2.787   4.894   3.422
 2428TIP3   OH2 7247   0.565   4.559   2.321
 2428TIP3    H1 7248   0.517   4.535   2.242
 2428TIP3    H2 7249   0.589   4.475   2.360
 2429TIP3   OH2 7250   1.906   2.486   0.523
 2429TIP3    H1 7251   1.972   2.550   0.498
 2429TIP3    H2 7252   1.908   2.486   0.619
 2430TIP3   OH2 7253   3.153   1.726   3.003
 2430TIP3    H1 7254   3.108   1.811   3.011
 2430TIP3    H2 7255   3.140   1.684   3.088
 2431TIP3   OH2 7256   6.683   4.010   2.723
 2431TIP3    H1 7257   6.625   4.064   2.777
 2431TIP3    H2 7258   6.629   3.985   2.648
 2432TIP3   OH2 7259   6.996   0.166   3.741
 2432TIP3    H1 7260   6.904   0.188   3.726
 2432TIP3    H2 7261   6.999   0.135   3.831
 2433TIP3   OH2 7262   4.831   0.648   2.209
 2433TIP3    H1 7263   4.760   0.712   2.221
 2433TIP3    H2 7264   4.876   0.678   2.130
 2434TIP3   OH2 7265   4.059   4.902   1.403
 2434TIP3    H1 7266   4.103   4.898   1.318
 2434TIP3    H2 7267   4.130   4.890   1.466
 2435TIP3   OH2 7268   1.284   2.412   2.037
 2435TIP3    H1 7269   1.212   2.361   2.074
 2435TIP3    H2 7270   1.359   2.352   2.039
 2436TIP3   OH2 7271   2.358   5.229   0.592
 2436TIP3    H1 7272   2.307   5.310   0.589
 2436TIP3    H2 7273   2.372   5.214   0.686
 2437TIP3   OH2 7274   3.003   0.518   1.555
 2437TIP3    H1 7275   2.935   0.534   1.490
 2437TIP3    H2 7276   3.057   0.597   1.553
 2438TIP3   OH2 7277   6.542   0.469   4.603
 2438TIP3    H1 7278   6.457   0.513   4.606
 2438TIP3    H2 7279   6.538   0.415   4.524
 2439TIP3   OH2 7280   1.121   5.199   4.142
 2439TIP3    H1 7281   1.142   5.137   4.072
 2439TIP3    H2 7282   1.026   5.192   4.152
 2440TIP3   OH2 7283   4.909   1.527   5.604
 2440TIP3    H1 7284   4.983   1.486   5.650
 2440TIP3    H2 7285   4.884   1.600   5.660
 2441TIP3   OH2 7286   2.602   4.490   3.867
 2441TIP3    H1 7287   2.657   4.419   3.835
 2441TIP3    H2 7288   2.542   4.450   3.929
 2442TIP3   OH2 7289   0.981   5.663   1.008
 2442TIP3    H1 7290   0.998   5.723   1.080
 2442TIP3    H2 7291   0.897   5.692   0.972
 2443TIP3   OH2 7292   0.193   4.310   4.435
 2443TIP3    H1 7293   0.117   4.272   4.479
 2443TIP3    H2 7294   0.268   4.270   4.478
 2444TIP3   OH2 7295   0.102   1.049   5.547
 2444TIP3    H1 7296   0.011   1.036   5.576
 2444TIP3    H2 7297   0.115   0.983   5.479
 2445TIP3   OH2 7298   7.030   3.970   5.440
 2445TIP3    H1 7299   7.022   4.064   5.424
 2445TIP3    H2 7300   7.107   3.962   5.496
 2446TIP3   OH2 7301   4.645   0.654   3.869
 2446TIP3    H1 7302   4.666   0.687   3.781
 2446TIP3    H2 7303   4.627   0.561   3.855
 2447TIP3   OH2 7304   0.178  -0.001   0.599
 2447TIP3    H1 7305   0.235   0.002   0.522
 2447TIP3    H2 7306   0.159   0.091   0.619
 2448TIP3   OH2 7307   0.087   4.619   3.481
 2448TIP3    H1 7308   0.014   4.560   3.503
 2448TIP3    H2 7309   0.158   4.592   3.539
 2449TIP3   OH2 7310   1.678   5.831   2.862
 2449TIP3    H1 7311   1.727   5.763   2.817
 2449TIP3    H2 7312   1.589   5.796   2.869
 2450TIP3   OH2 7313   3.223   4.812   2.284
 2450TIP3    H1 7314   3.314   4.793   2.306
 2450TIP3    H2 7315   3.171   4.762   2.347
 2451TIP3   OH2 7316   7.138   4.321   2.759
 2451TIP3    H1 7317   7.233   4.310   2.765
 2451TIP3    H2 7318   7.106   4.237   2.725
 2452TIP3   OH2 7319   5.354   1.872   1.951
 2452TIP3    H1 7320   5.404   1.883   1.870
 2452TIP3    H2 7321   5.373   1.950   2.002
 2453TIP3   OH2 7322   6.919   1.688   3.360
 2453TIP3    H1 7323   6.883   1.771   3.328
 2453TIP3    H2 7324   6.894   1.624   3.294
 2454TIP3   OH2 7325   4.181   0.214   5.651
 2454TIP3    H1 7326   4.094   0.241   5.682
 2454TIP3    H2 7327   4.212   0.153   5.717
 2455TIP3   OH2 7328   2.995   1.583   0.758
 2455TIP3    H1 7329   2.932   1.631   0.704
 2455TIP3    H2 7330   2.941   1.529   0.815
 2456TIP3   OH2 7331   6.759   6.301   3.266
 2456TIP3    H1 7332   6.756   6.273   3.175
 2456TIP3    H2 7333   6.668   6.296   3.296
 2457TIP3   OH2 7334   3.691   0.172   3.484
 2457TIP3    H1 7335   3.669   0.148   3.574
 2457TIP3    H2 7336   3.696   0.089   3.437
 2458TIP3   OH2 7337   3.542   1.482   5.549
 2458TIP3    H1 7338   3.592   1.555   5.585
 2458TIP3    H2 7339   3.471   1.523   5.500
 2459TIP3   OH2 7340   5.391   1.079   3.903
 2459TIP3    H1 7341   5.449   1.086   3.828
 2459TIP3    H2 7342   5.303   1.067   3.865
 2460TIP3   OH2 7343   6.021   3.105   5.089
 2460TIP3    H1 7344   6.055   3.195   5.095
 2460TIP3    H2 7345   6.005   3.092   4.996
 2461TIP3   OH2 7346   2.859   0.758   1.921
 2461TIP3    H1 7347   2.862   0.711   2.004
 2461TIP3    H2 7348   2.804   0.703   1.865
 2462TIP3   OH2 7349   0.654   3.586   4.976
 2462TIP3    H1 7350   0.717   3.582   5.048
 2462TIP3    H2 7351   0.659   3.676   4.944
 2463TIP3   OH2 7352   2.246   1.035   0.898
 2463TIP3    H1 7353   2.237   0.954   0.848
 2463TIP3    H2 7354   2.253   1.006   0.989
 2464TIP3   OH2 7355   2.086   5.406   3.115
 2464TIP3    H1 7356   2.162   5.463   3.123
 2464TIP3    H2 7357   2.120   5.326   3.076
 2465TIP3   OH2 7358   0.234   6.796   2.635
 2465TIP3    H1 7359   0.266   6.727   2.577
 2465TIP3    H2 7360   0.143   6.811   2.607
 2466TIP3   OH2 7361   7.134   1.827   2.788
 2466TIP3    H1 7362   7.163   1.737   2.773
 2466TIP3    H2 7363   7.081   1.848   2.712
 2467TIP3   OH2 7364   1.525   4.325   2.661
 2467TIP3    H1 7365   1.473   4.250   2.633
 2467TIP3    H2 7366   1.464   4.379   2.711
 2468TIP3   OH2 7367   3.947   4.279   1.145
 2468TIP3    H1 7368   3.963   4.208   1.208
 2468TIP3    H2 7369   3.855   4.302   1.158
 2469TIP3   OH2 7370   4.485   4.281   4.104
 2469TIP3    H1 7371   4.580   4.289   4.095
 2469TIP3    H2 7372   4.455   4.369   4.128
 2470TIP3   OH2 7373   5.256   3.861   0.063
 2470TIP3    H1 7374   5.318   3.921   0.105
 2470TIP3    H2 7375   5.170   3.890   0.093
 2471TIP3   OH2 7376   5.933   2.374   2.886
 2471TIP3    H1 7377   5.980   2.393   2.805
 2471TIP3    H2 7378   5.924   2.279   2.888
 2472TIP3   OH2 7379   3.948   3.510   1.259
 2472TIP3    H1 7380   3.929   3.490   1.350
 2472TIP3    H2 7381   4.035   3.475   1.243
 2473TIP3   OH2 7382   7.223   3.704   3.604
 2473TIP3    H1 7383   7.149   3.764   3.593
 2473TIP3    H2 7384   7.299   3.757   3.581
 2474TIP3   OH2 7385   1.957   3.537   5.035
 2474TIP3    H1 7386   1.941   3.552   4.942
 2474TIP3    H2 7387   1.884   3.581   5.079
 2475TIP3   OH2 7388   5.840   2.523   3.453
 2475TIP3    H1 7389   5.774   2.488   3.512
 2475TIP3    H2 7390   5.851   2.614   3.481
 2476TIP3   OH2 7391   2.772   3.270   5.517
 2476TIP3    H1 7392   2.780   3.175   5.509
 2476TIP3    H2 7393   2.677   3.286   5.518
 2477TIP3   OH2 7394   6.205   0.435   5.662
 2477TIP3    H1 7395   6.252   0.355   5.639
 2477TIP3    H2 7396   6.264   0.482   5.720
 2478TIP3   OH2 7397   3.452   1.403   1.011
 2478TIP3    H1 7398   3.547   1.411   0.999
 2478TIP3    H2 7399   3.442   1.350   1.089
 2479TIP3   OH2 7400   0.311   3.209   0.868
 2479TIP3    H1 7401   0.241   3.221   0.805
 2479TIP3    H2 7402   0.326   3.296   0.905
 2480TIP3   OH2 7403   2.486   1.187   0.951
 2480TIP3    H1 7404   2.430   1.129   0.899
 2480TIP3    H2 7405   2.425   1.236   1.006
 2481TIP3   OH2 7406   5.155   0.187   3.926
 2481TIP3    H1 7407   5.145   0.100   3.965
 2481TIP3    H2 7408   5.231   0.180   3.869
 2482TIP3   OH2 7409   6.785   1.420   4.724
 2482TIP3    H1 7410   6.738   1.465   4.653
 2482TIP3    H2 7411   6.717   1.384   4.779
 2483TIP3   OH2 7412   7.205   5.531   5.446
 2483TIP3    H1 7413   7.162   5.446   5.438
 2483TIP3    H2 7414   7.183   5.577   5.365
 2484TIP3   OH2 7415   1.494   3.625   4.688
 2484TIP3    H1 7416   1.545   3.623   4.769
 2484TIP3    H2 7417   1.522   3.548   4.639
 2485TIP3   OH2 7418   5.239   1.135   1.307
 2485TIP3    H1 7419   5.200   1.060   1.261
 2485TIP3    H2 7420   5.167   1.171   1.358
 2486TIP3   OH2 7421   4.398   0.082   2.101
 2486TIP3    H1 7422   4.432   0.137   2.172
 2486TIP3    H2 7423   4.368   0.003   2.144
 2487TIP3   OH2 7424   0.051   3.242   3.621
 2487TIP3    H1 7425   0.102   3.320   3.597
 2487TIP3    H2 7426  -0.022   3.277   3.672
 2488TIP3   OH2 7427   5.945   3.928   5.370
 2488TIP3    H1 7428   6.017   3.944   5.308
 2488TIP3    H2 7429   5.890   3.864   5.327
 2489TIP3   OH2 7430   6.739   5.264   2.591
 2489TIP3    H1 7431   6.818   5.264   2.645
 2489TIP3    H2 7432   6.769   5.290   2.504
 2490TIP3   OH2 7433   6.516   4.944   4.732
 2490TIP3    H1 7434   6.539   4.851   4.732
 2490TIP3    H2 7435   6.573   4.984   4.797
 2491TIP3   OH2 7436   2.856   2.205   5.441
 2491TIP3    H1 7437   2.857   2.300   5.456
 2491TIP3    H2 7438   2.948   2.179   5.447
 2492TIP3   OH2 7439   6.306   6.288   0.773
 2492TIP3    H1 7440   6.336   6.238   0.697
 2492TIP3    H2 7441   6.211   6.271   0.775
 2493TIP3   OH2 7442   3.008   6.617   1.348
 2493TIP3    H1 7443   3.073   6.687   1.357
 2493TIP3    H2 7444   3.012   6.594   1.255
 2494TIP3   OH2 7445   3.490   1.634   2.976
 2494TIP3    H1 7446   3.470   1.683   3.056
 2494TIP3    H2 7447   3.475   1.697   2.906
 2495TIP3   OH2 7448   0.628   4.449   0.630
 2495TIP3    H1 7449   0.585   4.428   0.713
 2495TIP3    H2 7450   0.704   4.502   0.655
 2496TIP3   OH2 7451   5.048   3.555   0.027
 2496TIP3    H1 7452   5.131   3.598   0.050
 2496TIP3    H2 7453   5.045   3.478   0.084
 2497TIP3   OH2 7454   2.381   0.156   0.898
 2497TIP3    H1 7455   2.397   0.103   0.977
 2497TIP3    H2 7456   2.382   0.246   0.930
 2498TIP3   OH2 7457   5.553   4.199   4.800
 2498TIP3    H1 7458   5.646   4.179   4.809
 2498TIP3    H2 7459   5.521   4.136   4.735
 2499TIP3   OH2 7460   4.521   6.713   2.457
 2499TIP3    H1 7461   4.569   6.784   2.414
 2499TIP3    H2 7462   4.429   6.737   2.448
 2500TIP3   OH2 7463   5.345   0.196   2.785
 2500TIP3    H1 7464   5.288   0.255   2.835
 2500TIP3    H2 7465   5.363   0.243   2.704
 2501TIP3   OH2 7466   0.263   6.460   4.208
 2501TIP3    H1 7467   0.343   6.420   4.173
 2501TIP3    H2 7468   0.266   6.439   4.302
 2502TIP3   OH2 7469   6.652   6.284   0.988
 2502TIP3    H1 7470   6.655   6.343   0.913
 2502TIP3    H2 7471   6.743   6.260   1.003
 2503TIP3   OH2 7472   4.772   4.637   0.539
 2503TIP3    H1 7473   4.702   4.638   0.474
 2503TIP3    H2 7474   4.747   4.569   0.602
 2504TIP3   OH2 7475   3.465   1.351   0.373
 2504TIP3    H1 7476   3.497   1.405   0.446
 2504TIP3    H2 7477   3.370   1.353   0.382
 2505TIP3   OH2 7478   7.051   5.279   3.902
 2505TIP3    H1 7479   7.010   5.364   3.916
 2505TIP3    H2 7480   6.991   5.233   3.843
 2506TIP3   OH2 7481   4.483   2.279   4.500
 2506TIP3    H1 7482   4.488   2.201   4.444
 2506TIP3    H2 7483   4.567   2.322   4.487
 2507TIP3   OH2 7484   4.956   2.896   2.077
 2507TIP3    H1 7485   4.960   2.967   2.013
 2507TIP3    H2 7486   4.985   2.819   2.029
 2508TIP3   OH2 7487   0.850   4.065   0.051
 2508TIP3    H1 7488   0.767   4.021   0.068
 2508TIP3    H2 7489   0.875   4.036  -0.036
 2509TIP3   OH2 7490   4.409   4.537   4.124
 2509TIP3    H1 7491   4.478   4.554   4.060
 2509TIP3    H2 7492   4.439   4.579   4.204
 2510TIP3   OH2 7493   1.001   0.376   3.599
 2510TIP3    H1 7494   1.030   0.334   3.680
 2510TIP3    H2 7495   1.069   0.440   3.579
 2511TIP3   OH2 7496   2.795   4.894   3.140
 2511TIP3    H1 7497   2.831   4.909   3.228
 2511TIP3    H2 7498   2.872   4.895   3.083
 2512TIP3   OH2 7499   4.378   1.651   2.637
 2512TIP3    H1 7500   4.453   1.600   2.606
 2512TIP3    H2 7501   4.336   1.595   2.703
 2513TIP3   OH2 7502   1.127   0.171   3.262
 2513TIP3    H1 7503   1.053   0.179   3.322
 2513TIP3    H2 7504   1.192   0.231   3.296
 2514TIP3   OH2 7505   4.239   1.037   1.468
 2514TIP3    H1 7506   4.183   0.962   1.447
 2514TIP3    H2 7507   4.299   1.044   1.394
 2515TIP3   OH2 7508   7.038   1.125   3.531
 2515TIP3    H1 7509   6.997   1.203   3.492
 2515TIP3    H2 7510   7.030   1.058   3.464
 2516TIP3   OH2 7511   3.667   3.998   5.353
 2516TIP3    H1 7512   3.619   4.041   5.281
 2516TIP3    H2 7513   3.608   3.929   5.384
 2517TIP3   OH2 7514   4.188   0.278   3.810
 2517TIP3    H1 7515   4.170   0.273   3.904
 2517TIP3    H2 7516   4.104   0.298   3.770
 2518TIP3   OH2 7517   6.711   2.269   4.601
 2518TIP3    H1 7518   6.778   2.258   4.669
 2518TIP3    H2 7519   6.640   2.212   4.629
 2519TIP3   OH2 7520   4.343   1.850   2.834
 2519TIP3    H1 7521   4.351   1.932   2.785
 2519TIP3    H2 7522   4.346   1.782   2.768
 2520TIP3   OH2 7523   6.182   0.802   0.954
 2520TIP3    H1 7524   6.187   0.710   0.979
 2520TIP3    H2 7525   6.088   0.821   0.950
 2521TIP3   OH2 7526   3.086   4.245   3.236
 2521TIP3    H1 7527   2.993   4.268   3.238
 2521TIP3    H2 7528   3.092   4.175   3.171
 2522TIP3   OH2 7529   5.028   6.064   5.484
 2522TIP3    H1 7530   5.024   6.057   5.389
 2522TIP3    H2 7531   5.121   6.073   5.504
 2523TIP3   OH2 7532   4.557   6.459   5.508
 2523TIP3    H1 7533   4.580   6.526   5.573
 2523TIP3    H2 7534   4.511   6.507   5.439
 2524TIP3   OH2 7535   5.991   4.185   1.433
 2524TIP3    H1 7536   6.084   4.205   1.441
 2524TIP3    H2 7537   5.987   4.089   1.437
 2525TIP3   OH2 7538   1.849   5.038   4.743
 2525TIP3    H1 7539   1.898   4.962   4.714
 2525TIP3    H2 7540   1.797   5.064   4.667
 2526TIP3   OH2 7541   1.668   4.061   3.946
 2526TIP3    H1 7542   1.761   4.076   3.929
 2526TIP3    H2 7543   1.633   4.027   3.864
 2527TIP3   OH2 7544   5.670   1.778   0.023
 2527TIP3    H1 7545   5.601   1.828  -0.021
 2527TIP3    H2 7546   5.697   1.712  -0.041
 2528TIP3   OH2 7547   0.236   5.371   2.775
 2528TIP3    H1 7548   0.264   5.353   2.865
 2528TIP3    H2 7549   0.165   5.435   2.784
 2529TIP3   OH2 7550   2.009   6.177   3.295
 2529TIP3    H1 7551   2.043   6.263   3.271
 2529TIP3    H2 7552   2.062   6.149   3.370
 2530TIP3   OH2 7553   0.068   3.630   4.506
 2530TIP3    H1 7554   0.101   3.612   4.418
 2530TIP3    H2 7555   0.055   3.544   4.545
 2531TIP3   OH2 7556   4.454   0.662   0.803
 2531TIP3    H1 7557   4.536   0.654   0.755
 2531TIP3    H2 7558   4.409   0.579   0.788
 2532TIP3   OH2 7559   6.988   4.671   4.066
 2532TIP3    H1 7560   6.971   4.736   3.998
 2532TIP3    H2 7561   7.056   4.710   4.121
 2533TIP3   OH2 7562   1.362   0.704   4.787
 2533TIP3    H1 7563   1.449   0.694   4.749
 2533TIP3    H2 7564   1.302   0.682   4.715
 2534TIP3   OH2 7565   5.764   4.388   4.568
 2534TIP3    H1 7566   5.707   4.449   4.615
 2534TIP3    H2 7567   5.704   4.326   4.527
 2535TIP3   OH2 7568   5.387   4.590   2.106
 2535TIP3    H1 7569   5.296   4.620   2.114
 2535TIP3    H2 7570   5.402   4.585   2.011
 2536TIP3   OH2 7571   1.313   5.993   4.463
 2536TIP3    H1 7572   1.344   5.903   4.454
 2536TIP3    H2 7573   1.258   5.992   4.541
 2537TIP3   OH2 7574   3.909   2.368   3.777
 2537TIP3    H1 7575   3.999   2.350   3.802
 2537TIP3    H2 7576   3.895   2.459   3.800
 2538TIP3   OH2 7577   3.569   5.399   4.013
 2538TIP3    H1 7578   3.495   5.392   4.073
 2538TIP3    H2 7579   3.623   5.469   4.050
 2539TIP3   OH2 7580   1.373   4.331   3.980
 2539TIP3    H1 7581   1.346   4.242   4.001
 2539TIP3    H2 7582   1.464   4.323   3.952
 2540TIP3   OH2 7583   1.828   3.056   4.506
 2540TIP3    H1 7584   1.820   2.971   4.462
 2540TIP3    H2 7585   1.740   3.073   4.541
 2541TIP3   OH2 7586   2.514   2.518   2.174
 2541TIP3    H1 7587   2.561   2.539   2.254
 2541TIP3    H2 7588   2.446   2.585   2.166
 2542TIP3   OH2 7589   2.797   2.354   0.799
 2542TIP3    H1 7590   2.753   2.277   0.765
 2542TIP3    H2 7591   2.804   2.413   0.724
 2543TIP3   OH2 7592   2.581   4.403   2.273
 2543TIP3    H1 7593   2.633   4.341   2.222
 2543TIP3    H2 7594   2.522   4.442   2.209
 2544TIP3   OH2 7595   0.338   0.044   0.383
 2544TIP3    H1 7596   0.375   0.020   0.298
 2544TIP3    H2 7597   0.412   0.077   0.434
 2545TIP3   OH2 7598   1.227   3.543   1.527
 2545TIP3    H1 7599   1.282   3.483   1.576
 2545TIP3    H2 7600   1.220   3.504   1.440
 2546TIP3   OH2 7601   0.819   0.334   1.356
 2546TIP3    H1 7602   0.801   0.427   1.365
 2546TIP3    H2 7603   0.868   0.326   1.274
 2547TIP3   OH2 7604   3.134   4.306   1.460
 2547TIP3    H1 7605   3.229   4.313   1.445
 2547TIP3    H2 7606   3.125   4.312   1.555
 2548TIP3   OH2 7607   6.308   1.362   0.804
 2548TIP3    H1 7608   6.371   1.427   0.774
 2548TIP3    H2 7609   6.324   1.354   0.898
 2549TIP3   OH2 7610   1.334   0.085   0.285
 2549TIP3    H1 7611   1.346   0.079   0.379
 2549TIP3    H2 7612   1.411   0.042   0.248
 2550TIP3   OH2 7613   6.579   3.574   3.471
 2550TIP3    H1 7614   6.572   3.546   3.562
 2550TIP3    H2 7615   6.601   3.667   3.476
 2551TIP3   OH2 7616   2.611   2.253   5.156
 2551TIP3    H1 7617   2.525   2.264   5.196
 2551TIP3    H2 7618   2.650   2.178   5.201
 2552TIP3   OH2 7619   2.824   0.734   4.736
 2552TIP3    H1 7620   2.904   0.747   4.684
 2552TIP3    H2 7621   2.758   0.709   4.671
 2553TIP3   OH2 7622   3.157   3.274   1.285
 2553TIP3    H1 7623   3.208   3.289   1.205
 2553TIP3    H2 7624   3.223   3.262   1.353
 2554TIP3   OH2 7625   5.583   4.795   0.433
 2554TIP3    H1 7626   5.604   4.794   0.526
 2554TIP3    H2 7627   5.581   4.703   0.407
 2555TIP3   OH2 7628   5.526   1.677   3.743
 2555TIP3    H1 7629   5.495   1.723   3.821
 2555TIP3    H2 7630   5.526   1.585   3.768
 2556TIP3   OH2 7631   0.565   2.915   1.068
 2556TIP3    H1 7632   0.506   2.884   1.137
 2556TIP3    H2 7633   0.584   2.837   1.015
 2557TIP3   OH2 7634   5.440   4.962   5.169
 2557TIP3    H1 7635   5.378   4.989   5.236
 2557TIP3    H2 7636   5.426   4.868   5.159
 2558TIP3   OH2 7637   3.841   4.069   0.258
 2558TIP3    H1 7638   3.907   4.057   0.327
 2558TIP3    H2 7639   3.889   4.111   0.186
 2559TIP3   OH2 7640   2.070   0.199   4.549
 2559TIP3    H1 7641   2.095   0.236   4.464
 2559TIP3    H2 7642   2.043   0.275   4.601
 2560TIP3   OH2 7643   2.220   6.725   4.106
 2560TIP3    H1 7644   2.306   6.710   4.066
 2560TIP3    H2 7645   2.176   6.640   4.101
 2561TIP3   OH2 7646   6.681   0.489   1.043
 2561TIP3    H1 7647   6.655   0.462   1.131
 2561TIP3    H2 7648   6.776   0.492   1.046
 2562TIP3   OH2 7649   1.178   1.821   3.643
 2562TIP3    H1 7650   1.120   1.767   3.695
 2562TIP3    H2 7651   1.266   1.795   3.670
 2563TIP3   OH2 7652   0.933   3.216   1.144
 2563TIP3    H1 7653   0.925   3.277   1.217
 2563TIP3    H2 7654   0.844   3.205   1.111
 2564TIP3   OH2 7655   4.721   0.206   1.532
 2564TIP3    H1 7656   4.628   0.230   1.539
 2564TIP3    H2 7657   4.720   0.117   1.497
 2565TIP3   OH2 7658   3.671   5.105   2.356
 2565TIP3    H1 7659   3.630   5.187   2.326
 2565TIP3    H2 7660   3.696   5.122   2.447
 2566TIP3   OH2 7661   6.580   2.170   0.403
 2566TIP3    H1 7662   6.532   2.253   0.402
 2566TIP3    H2 7663   6.550   2.124   0.325
 2567TIP3   OH2 7664   7.131   3.002   4.893
 2567TIP3    H1 7665   7.077   2.996   4.972
 2567TIP3    H2 7666   7.181   2.921   4.892
 2568TIP3   OH2 7667   2.092   2.657   5.607
 2568TIP3    H1 7668   2.121   2.623   5.691
 2568TIP3    H2 7669   2.165   2.639   5.547
 2569TIP3   OH2 7670   0.667   3.635   2.197
 2569TIP3    H1 7671   0.643   3.558   2.146
 2569TIP3    H2 7672   0.752   3.661   2.161
 2570TIP3   OH2 7673   5.823   3.436   0.915
 2570TIP3    H1 7674   5.908   3.477   0.896
 2570TIP3    H2 7675   5.786   3.489   0.985
 2571TIP3   OH2 7676   1.085   0.209   3.812
 2571TIP3    H1 7677   1.150   0.174   3.751
 2571TIP3    H2 7678   1.108   0.172   3.897
 2572TIP3   OH2 7679   4.905   3.770   3.636
 2572TIP3    H1 7680   4.848   3.712   3.587
 2572TIP3    H2 7681   4.918   3.726   3.720
 2573TIP3   OH2 7682   2.087   2.663   4.308
 2573TIP3    H1 7683   2.140   2.585   4.324
 2573TIP3    H2 7684   2.132   2.708   4.236
 2574TIP3   OH2 7685   1.498   2.839   4.502
 2574TIP3    H1 7686   1.555   2.771   4.537
 2574TIP3    H2 7687   1.417   2.794   4.480
 2575TIP3   OH2 7688   5.900   2.617   1.519
 2575TIP3    H1 7689   5.966   2.560   1.479
 2575TIP3    H2 7690   5.887   2.687   1.456
 2576TIP3   OH2 7691   1.758   2.642   0.005
 2576TIP3    H1 7692   1.676   2.640   0.055
 2576TIP3    H2 7693   1.759   2.559  -0.042
 2577TIP3   OH2 7694   1.738   5.062   3.328
 2577TIP3    H1 7695   1.819   5.098   3.365
 2577TIP3    H2 7696   1.668   5.108   3.374
 2578TIP3   OH2 7697   2.203   6.176   4.013
 2578TIP3    H1 7698   2.181   6.089   4.048
 2578TIP3    H2 7699   2.254   6.217   4.083
 2579TIP3   OH2 7700   3.303   3.861   3.189
 2579TIP3    H1 7701   3.244   3.899   3.125
 2579TIP3    H2 7702   3.257   3.869   3.272
 2580TIP3   OH2 7703   6.344   3.565   0.103
 2580TIP3    H1 7704   6.314   3.476   0.084
 2580TIP3    H2 7705   6.291   3.593   0.177
 2581TIP3   OH2 7706   2.265   0.714   4.636
 2581TIP3    H1 7707   2.221   0.757   4.563
 2581TIP3    H2 7708   2.208   0.729   4.711
 2582TIP3   OH2 7709   5.149   3.901   5.294
 2582TIP3    H1 7710   5.090   3.963   5.335
 2582TIP3    H2 7711   5.096   3.822   5.281
 2583TIP3   OH2 7712   0.021   6.679   0.404
 2583TIP3    H1 7713   0.089   6.692   0.338
 2583TIP3    H2 7714   0.069   6.649   0.481
 2584TIP3   OH2 7715   3.211   6.471   2.447
 2584TIP3    H1 7716   3.181   6.395   2.497
 2584TIP3    H2 7717   3.305   6.476   2.465
 2585TIP3   OH2 7718   1.982   6.646   2.639
 2585TIP3    H1 7719   1.915   6.712   2.657
 2585TIP3    H2 7720   2.021   6.627   2.724
 2586TIP3   OH2 7721   5.964   5.074   0.213
 2586TIP3    H1 7722   5.883   5.043   0.255
 2586TIP3    H2 7723   6.033   5.054   0.276
 2587TIP3   OH2 7724   3.609   2.743   3.039
 2587TIP3    H1 7725   3.545   2.808   3.068
 2587TIP3    H2 7726   3.595   2.669   3.098
 2588TIP3   OH2 7727   6.947   1.441   5.221
 2588TIP3    H1 7728   6.878   1.384   5.255
 2588TIP3    H2 7729   6.905   1.488   5.148
 2589TIP3   OH2 7730   4.278   1.454   1.500
 2589TIP3    H1 7731   4.373   1.455   1.489
 2589TIP3    H2 7732   4.263   1.386   1.565
 2590TIP3   OH2 7733   2.629   2.771   0.078
 2590TIP3    H1 7734   2.550   2.719   0.066
 2590TIP3    H2 7735   2.651   2.804  -0.009
 2591TIP3   OH2 7736   6.480   1.514   3.448
 2591TIP3    H1 7737   6.443   1.593   3.408
 2591TIP3    H2 7738   6.485   1.451   3.376
 2592TIP3   OH2 7739   5.721   4.558   4.165
 2592TIP3    H1 7740   5.744   4.578   4.256
 2592TIP3    H2 7741   5.702   4.644   4.126
 2593TIP3   OH2 7742   7.182   3.694   0.230
 2593TIP3    H1 7743   7.097   3.738   0.231
 2593TIP3    H2 7744   7.237   3.751   0.176
 2594TIP3   OH2 7745   0.815   4.642   1.265
 2594TIP3    H1 7746   0.871   4.666   1.338
 2594TIP3    H2 7747   0.875   4.608   1.199
 2595TIP3   OH2 7748   1.953   6.138   5.667
 2595TIP3    H1 7749   2.009   6.126   5.744
 2595TIP3    H2 7750   1.901   6.216   5.687
 2596TIP3   OH2 7751   3.673   2.742   4.193
 2596TIP3    H1 7752   3.662   2.647   4.188
 2596TIP3    H2 7753   3.719   2.757   4.275
 2597TIP3   OH2 7754   3.053   1.954   4.079
 2597TIP3    H1 7755   2.969   1.978   4.040
 2597TIP3    H2 7756   3.037   1.867   4.117
 2598TIP3   OH2 7757   4.626   5.621   0.168
 2598TIP3    H1 7758   4.592   5.670   0.092
 2598TIP3    H2 7759   4.559   5.632   0.235
 2599TIP3   OH2 7760   4.679   3.998   1.228
 2599TIP3    H1 7761   4.673   4.093   1.241
 2599TIP3    H2 7762   4.700   3.964   1.315
 2600TIP3   OH2 7763   3.724   3.104   3.475
 2600TIP3    H1 7764   3.816   3.099   3.447
 2600TIP3    H2 7765   3.729   3.142   3.563
 2601TIP3   OH2 7766   5.156   0.062   3.064
 2601TIP3    H1 7767   5.099   0.061   3.141
 2601TIP3    H2 7768   5.229   0.119   3.089
 2602TIP3   OH2 7769   2.377   1.736   3.058
 2602TIP3    H1 7770   2.452   1.792   3.041
 2602TIP3    H2 7771   2.357   1.696   2.973
 2603TIP3   OH2 7772   2.120   4.134   0.072
 2603TIP3    H1 7773   2.164   4.198   0.015
 2603TIP3    H2 7774   2.050   4.183   0.114
 2604TIP3   OH2 7775   1.250   0.449   2.384
 2604TIP3    H1 7776   1.264   0.532   2.429
 2604TIP3    H2 7777   1.199   0.471   2.306
 2605TIP3   OH2 7778   6.486   6.354   3.252
 2605TIP3    H1 7779   6.394   6.329   3.241
 2605TIP3    H2 7780   6.496   6.433   3.199
 2606TIP3   OH2 7781   5.339   5.231   2.230
 2606TIP3    H1 7782   5.408   5.169   2.252
 2606TIP3    H2 7783   5.328   5.284   2.308
 2607TIP3   OH2 7784   2.061   6.554   5.807
 2607TIP3    H1 7785   2.148   6.589   5.829
 2607TIP3    H2 7786   2.008   6.570   5.885
 2608TIP3   OH2 7787   0.259   4.057   2.973
 2608TIP3    H1 7788   0.285   3.968   2.952
 2608TIP3    H2 7789   0.291   4.072   3.062
 2609TIP3   OH2 7790   1.257   4.996   3.196
 2609TIP3    H1 7791   1.337   4.996   3.144
 2609TIP3    H2 7792   1.272   4.930   3.263
 2610TIP3   OH2 7793   3.849   1.439   4.483
 2610TIP3    H1 7794   3.852   1.470   4.393
 2610TIP3    H2 7795   3.932   1.467   4.521
 2611TIP3   OH2 7796   3.571   0.801   0.476
 2611TIP3    H1 7797   3.509   0.872   0.458
 2611TIP3    H2 7798   3.553   0.776   0.567
 2612TIP3   OH2 7799   0.535   3.385   1.876
 2612TIP3    H1 7800   0.497   3.297   1.875
 2612TIP3    H2 7801   0.598   3.386   1.804
 2613TIP3   OH2 7802   6.280   3.934   4.212
 2613TIP3    H1 7803   6.282   3.979   4.128
 2613TIP3    H2 7804   6.188   3.913   4.226
 2614TIP3   OH2 7805   7.084   6.333   3.597
 2614TIP3    H1 7806   7.066   6.344   3.690
 2614TIP3    H2 7807   7.126   6.247   3.591
 2615TIP3   OH2 7808   4.479   0.808   1.042
 2615TIP3    H1 7809   4.478   0.771   0.954
 2615TIP3    H2 7810   4.473   0.902   1.029
 2616TIP3   OH2 7811   4.866   4.378   0.044
 2616TIP3    H1 7812   4.778   4.392   0.077
 2616TIP3    H2 7813   4.854   4.339  -0.043
 2617TIP3   OH2 7814   6.095   6.521   2.845
 2617TIP3    H1 7815   6.172   6.473   2.813
 2617TIP3    H2 7816   6.029   6.509   2.777
 2618TIP3   OH2 7817   3.620   1.466   0.589
 2618TIP3    H1 7818   3.632   1.378   0.624
 2618TIP3    H2 7819   3.527   1.484   0.601
 2619TIP3   OH2 7820   3.255   0.509   4.219
 2619TIP3    H1 7821   3.265   0.417   4.193
 2619TIP3    H2 7822   3.260   0.558   4.137
 2620TIP3   OH2 7823   6.033   1.657   1.442
 2620TIP3    H1 7824   6.036   1.598   1.366
 2620TIP3    H2 7825   5.945   1.696   1.439
 2621TIP3   OH2 7826   3.351   1.485   0.627
 2621TIP3    H1 7827   3.286   1.521   0.567
 2621TIP3    H2 7828   3.299   1.436   0.692
 2622TIP3   OH2 7829   0.271   3.178   2.898
 2622TIP3    H1 7830   0.249   3.267   2.871
 2622TIP3    H2 7831   0.239   3.122   2.827
 2623TIP3   OH2 7832   1.626   3.603   1.236
 2623TIP3    H1 7833   1.698   3.542   1.253
 2623TIP3    H2 7834   1.657   3.658   1.165
 2624TIP3   OH2 7835   3.175   5.002   0.968
 2624TIP3    H1 7836   3.103   4.944   0.994
 2624TIP3    H2 7837   3.142   5.049   0.892
 2625TIP3   OH2 7838   0.540   2.304   2.164
 2625TIP3    H1 7839   0.599   2.375   2.137
 2625TIP3    H2 7840   0.473   2.301   2.096
 2626TIP3   OH2 7841   1.760   2.445   3.352
 2626TIP3    H1 7842   1.855   2.439   3.345
 2626TIP3    H2 7843   1.744   2.492   3.434
 2627TIP3   OH2 7844   1.272   3.082   4.452
 2627TIP3    H1 7845   1.275   3.042   4.539
 2627TIP3    H2 7846   1.206   3.151   4.460
 2628TIP3   OH2 7847   0.870   6.053   0.610
 2628TIP3    H1 7848   0.826   6.113   0.550
 2628TIP3    H2 7849   0.872   6.101   0.693
 2629TIP3   OH2 7850   0.367   3.255   1.621
 2629TIP3    H1 7851   0.351   3.185   1.558
 2629TIP3    H2 7852   0.419   3.213   1.691
 2630TIP3   OH2 7853   0.914   6.015   0.122
 2630TIP3    H1 7854   0.933   5.931   0.164
 2630TIP3    H2 7855   0.832   6.044   0.161
 2631TIP3   OH2 7856   2.258   0.501   5.882
 2631TIP3    H1 7857   2.310   0.539   5.811
 2631TIP3    H2 7858   2.319   0.443   5.927
 2632TIP3   OH2 7859   4.220   2.174   3.280
 2632TIP3    H1 7860   4.239   2.268   3.278
 2632TIP3    H2 7861   4.141   2.164   3.226
 2633TIP3   OH2 7862   6.295   1.059   3.609
 2633TIP3    H1 7863   6.269   1.144   3.574
 2633TIP3    H2 7864   6.385   1.047   3.578
 2634TIP3   OH2 7865   0.810   0.103   0.754
 2634TIP3    H1 7866   0.765   0.076   0.674
 2634TIP3    H2 7867   0.760   0.061   0.825
 2635TIP3   OH2 7868   2.940   5.870   0.012
 2635TIP3    H1 7869   2.868   5.889  -0.048
 2635TIP3    H2 7870   2.916   5.786   0.051
 2636TIP3   OH2 7871   7.124   3.012   3.368
 2636TIP3    H1 7872   7.071   3.042   3.442
 2636TIP3    H2 7873   7.198   2.966   3.407
 2637TIP3   OH2 7874   0.568   6.643   3.583
 2637TIP3    H1 7875   0.615   6.659   3.664
 2637TIP3    H2 7876   0.479   6.622   3.611
 2638TIP3   OH2 7877   5.443   4.031   2.429
 2638TIP3    H1 7878   5.500   4.062   2.500
 2638TIP3    H2 7879   5.384   3.968   2.471
 2639TIP3   OH2 7880   2.002   3.238   5.125
 2639TIP3    H1 7881   1.913   3.211   5.150
 2639TIP3    H2 7882   1.991   3.326   5.088
 2640TIP3   OH2 7883   5.160   0.995   5.397
 2640TIP3    H1 7884   5.178   0.926   5.333
 2640TIP3    H2 7885   5.241   1.046   5.401
 2641TIP3   OH2 7886   3.337   1.331   5.389
 2641TIP3    H1 7887   3.362   1.422   5.376
 2641TIP3    H2 7888   3.418   1.282   5.380
 2642TIP3   OH2 7889   1.098   2.370   0.627
 2642TIP3    H1 7890   1.159   2.409   0.565
 2642TIP3    H2 7891   1.012   2.397   0.597
 2643TIP3   OH2 7892   3.758   3.176   1.960
 2643TIP3    H1 7893   3.838   3.196   2.009
 2643TIP3    H2 7894   3.708   3.257   1.961
 2644TIP3   OH2 7895   5.242   0.467   4.604
 2644TIP3    H1 7896   5.173   0.509   4.553
 2644TIP3    H2 7897   5.318   0.524   4.591
 2645TIP3   OH2 7898   4.031   5.498   1.095
 2645TIP3    H1 7899   4.050   5.551   1.172
 2645TIP3    H2 7900   4.021   5.562   1.024
 2646TIP3   OH2 7901   4.406   1.081   3.927
 2646TIP3    H1 7902   4.412   1.144   3.999
 2646TIP3    H2 7903   4.461   1.007   3.956
 2647TIP3   OH2 7904   1.379   5.172   1.205
 2647TIP3    H1 7905   1.290   5.143   1.187
 2647TIP3    H2 7906   1.433   5.095   1.192
 2648TIP3   OH2 7907   3.183   1.999   4.516
 2648TIP3    H1 7908   3.089   2.011   4.502
 2648TIP3    H2 7909   3.224   2.074   4.474
 2649TIP3   OH2 7910   4.285   4.943   2.330
 2649TIP3    H1 7911   4.285   4.946   2.425
 2649TIP3    H2 7912   4.378   4.950   2.306
 2650TIP3   OH2 7913   1.151   0.947   5.826
 2650TIP3    H1 7914   1.200   0.980   5.901
 2650TIP3    H2 7915   1.218   0.907   5.770
 2651TIP3   OH2 7916   5.813   0.854   2.779
 2651TIP3    H1 7917   5.786   0.789   2.713
 2651TIP3    H2 7918   5.889   0.813   2.822
 2652TIP3   OH2 7919   6.236   4.255   1.442
 2652TIP3    H1 7920   6.245   4.179   1.499
 2652TIP3    H2 7921   6.282   4.325   1.488
 2653TIP3   OH2 7922   3.278   3.087   1.657
 2653TIP3    H1 7923   3.248   3.011   1.607
 2653TIP3    H2 7924   3.326   3.139   1.593
 2654TIP3   OH2 7925   4.252   2.956   4.330
 2654TIP3    H1 7926   4.195   3.004   4.269
 2654TIP3    H2 7927   4.260   2.869   4.291
 2655TIP3   OH2 7928   5.297   1.484   0.464
 2655TIP3    H1 7929   5.288   1.570   0.505
 2655TIP3    H2 7930   5.215   1.471   0.416
 2656TIP3   OH2 7931   0.387   2.699   2.175
 2656TIP3    H1 7932   0.414   2.786   2.147
 2656TIP3    H2 7933   0.468   2.648   2.176
 2657TIP3   OH2 7934   2.240   5.172   4.101
 2657TIP3    H1 7935   2.333   5.151   4.111
 2657TIP3    H2 7936   2.212   5.200   4.188
 2658TIP3   OH2 7937   6.209   5.693   3.625
 2658TIP3    H1 7938   6.301   5.713   3.607
 2658TIP3    H2 7939   6.202   5.692   3.720
 2659TIP3   OH2 7940   6.765   3.141   0.540
 2659TIP3    H1 7941   6.852   3.136   0.501
 2659TIP3    H2 7942   6.713   3.076   0.492
 2660TIP3   OH2 7943   5.026   1.715   0.997
 2660TIP3    H1 7944   5.075   1.671   1.067
 2660TIP3    H2 7945   5.074   1.796   0.981
 2661TIP3   OH2 7946   1.045   5.256   5.651
 2661TIP3    H1 7947   1.014   5.166   5.660
 2661TIP3    H2 7948   0.983   5.296   5.590
 2662TIP3   OH2 7949   5.986   2.816   2.228
 2662TIP3    H1 7950   5.900   2.794   2.193
 2662TIP3    H2 7951   5.968   2.858   2.312
 2663TIP3   OH2 7952   3.393   6.777   3.649
 2663TIP3    H1 7953   3.478   6.766   3.607
 2663TIP3    H2 7954   3.414   6.800   3.740
 2664TIP3   OH2 7955   1.028   5.756   5.524
 2664TIP3    H1 7956   1.060   5.827   5.469
 2664TIP3    H2 7957   1.028   5.679   5.466
 2665TIP3   OH2 7958   1.686   5.556   4.326
 2665TIP3    H1 7959   1.773   5.582   4.294
 2665TIP3    H2 7960   1.634   5.542   4.248
 2666TIP3   OH2 7961   2.218   6.003   4.258
 2666TIP3    H1 7962   2.189   5.946   4.187
 2666TIP3    H2 7963   2.184   5.962   4.338
 2667TIP3   OH2 7964   4.832   0.202   5.227
 2667TIP3    H1 7965   4.747   0.191   5.182
 2667TIP3    H2 7966   4.891   0.142   5.180
 2668TIP3   OH2 7967   5.728   2.970   3.894
 2668TIP3    H1 7968   5.650   3.016   3.924
 2668TIP3    H2 7969   5.788   2.973   3.969
 2669TIP3   OH2 7970   0.726   0.004   1.023
 2669TIP3    H1 7971   0.821   0.018   1.020
 2669TIP3    H2 7972   0.714  -0.084   0.987
 2670TIP3   OH2 7973   0.334   6.794   1.598
 2670TIP3    H1 7974   0.295   6.717   1.639
 2670TIP3    H2 7975   0.302   6.867   1.651
 2671TIP3   OH2 7976   2.480   4.449   1.819
 2671TIP3    H1 7977   2.429   4.386   1.768
 2671TIP3    H2 7978   2.515   4.398   1.892
 2672TIP3   OH2 7979   1.620   6.692   4.046
 2672TIP3    H1 7980   1.587   6.669   3.958
 2672TIP3    H2 7981   1.672   6.771   4.032
 2673TIP3   OH2 7982   4.445   4.784   3.576
 2673TIP3    H1 7983   4.505   4.715   3.546
 2673TIP3    H2 7984   4.503   4.856   3.602
 2674TIP3   OH2 7985   5.601   1.093   5.054
 2674TIP3    H1 7986   5.663   1.165   5.047
 2674TIP3    H2 7987   5.525   1.121   5.004
 2675TIP3   OH2 7988   6.820   5.437   0.547
 2675TIP3    H1 7989   6.895   5.497   0.539
 2675TIP3    H2 7990   6.796   5.442   0.640
 2676TIP3   OH2 7991   3.113   0.228   5.282
 2676TIP3    H1 7992   3.050   0.177   5.230
 2676TIP3    H2 7993   3.197   0.215   5.237
 2677TIP3   OH2 7994   1.215   3.011   4.721
 2677TIP3    H1 7995   1.267   3.082   4.759
 2677TIP3    H2 7996   1.131   3.016   4.767
 2678TIP3   OH2 7997   5.230   1.206   0.446
 2678TIP3    H1 7998   5.272   1.291   0.433
 2678TIP3    H2 7999   5.156   1.224   0.505
 2679TIP3   OH2 8000   1.929   3.084   1.152
 2679TIP3    H1 8001   1.842   3.113   1.123
 2679TIP3    H2 8002   1.930   2.990   1.134
 2680TIP3   OH2 8003   5.963   4.565   1.726
 2680TIP3    H1 8004   6.035   4.561   1.789
 2680TIP3    H2 8005   5.997   4.619   1.654
 2681TIP3   OH2 8006   6.690   0.530   0.359
 2681TIP3    H1 8007   6.640   0.525   0.278
 2681TIP3    H2 8008   6.778   0.501   0.336
 2682TIP3   OH2 8009   0.939   3.520   1.616
 2682TIP3    H1 8010   0.982   3.549   1.535
 2682TIP3    H2 8011   0.944   3.595   1.675
 2683TIP3   OH2 8012   5.467   6.188   3.206
 2683TIP3    H1 8013   5.395   6.243   3.175
 2683TIP3    H2 8014   5.453   6.180   3.300
 2684TIP3   OH2 8015   0.634   0.733   3.890
 2684TIP3    H1 8016   0.709   0.767   3.938
 2684TIP3    H2 8017   0.565   0.797   3.904
 2685TIP3   OH2 8018   5.622   0.885   1.526
 2685TIP3    H1 8019   5.559   0.819   1.555
 2685TIP3    H2 8020   5.574   0.939   1.464
 2686TIP3   OH2 8021   3.221   6.638   4.779
 2686TIP3    H1 8022   3.273   6.712   4.749
 2686TIP3    H2 8023   3.235   6.636   4.874
 2687TIP3   OH2 8024   3.072   1.588   3.230
 2687TIP3    H1 8025   3.110   1.508   3.265
 2687TIP3    H2 8026   3.070   1.649   3.304
 2688TIP3   OH2 8027   5.581   1.521   2.473
 2688TIP3    H1 8028   5.629   1.590   2.429
 2688TIP3    H2 8029   5.644   1.484   2.535
 2689TIP3   OH2 8030   2.291   6.129   1.497
 2689TIP3    H1 8031   2.271   6.208   1.447
 2689TIP3    H2 8032   2.263   6.057   1.442
 2690TIP3   OH2 8033   3.624   4.326   5.452
 2690TIP3    H1 8034   3.666   4.390   5.510
 2690TIP3    H2 8035   3.671   4.334   5.370
 2691TIP3   OH2 8036   0.644   1.184   4.785
 2691TIP3    H1 8037   0.657   1.278   4.774
 2691TIP3    H2 8038   0.568   1.176   4.843
 2692TIP3   OH2 8039   5.396   1.964   1.033
 2692TIP3    H1 8040   5.422   1.918   1.113
 2692TIP3    H2 8041   5.302   1.948   1.026
 2693TIP3   OH2 8042   2.696   1.185   3.340
 2693TIP3    H1 8043   2.681   1.275   3.368
 2693TIP3    H2 8044   2.697   1.189   3.245
 2694TIP3   OH2 8045   4.044   6.049   4.575
 2694TIP3    H1 8046   4.024   6.139   4.601
 2694TIP3    H2 8047   4.053   6.001   4.657
 2695TIP3   OH2 8048   2.692   0.057   5.561
 2695TIP3    H1 8049   2.616   0.049   5.618
 2695TIP3    H2 8050   2.689   0.147   5.528
 2696TIP3   OH2 8051   6.511   5.537   5.157
 2696TIP3    H1 8052   6.455   5.605   5.195
 2696TIP3    H2 8053   6.593   5.543   5.205
 2697TIP3   OH2 8054   4.177   4.831   2.001
 2697TIP3    H1 8055   4.189   4.738   1.980
 2697TIP3    H2 8056   4.083   4.841   2.013
 2698TIP3   OH2 8057   2.387   2.035   2.940
 2698TIP3    H1 8058   2.378   2.010   2.848
 2698TIP3    H2 8059   2.443   1.968   2.978
 2699TIP3   OH2 8060   2.478   6.458   1.461
 2699TIP3    H1 8061   2.529   6.488   1.536
 2699TIP3    H2 8062   2.533   6.392   1.419
 2700TIP3   OH2 8063   1.792   4.184   1.060
 2700TIP3    H1 8064   1.742   4.181   0.978
 2700TIP3    H2 8065   1.860   4.249   1.043
 2701TIP3   OH2 8066   0.716   3.794   2.861
 2701TIP3    H1 8067   0.664   3.742   2.799
 2701TIP3    H2 8068   0.745   3.732   2.927
 2702TIP3   OH2 8069   4.388   1.997   0.501
 2702TIP3    H1 8070   4.440   1.954   0.433
 2702TIP3    H2 8071   4.336   1.927   0.540
 2703TIP3   OH2 8072   1.675   2.399   0.440
 2703TIP3    H1 8073   1.654   2.442   0.356
 2703TIP3    H2 8074   1.760   2.434   0.464
 2704TIP3   OH2 8075   6.180   3.700   5.394
 2704TIP3    H1 8076   6.111   3.760   5.421
 2704TIP3    H2 8077   6.262   3.746   5.415
 2705TIP3   OH2 8078   5.940   3.168   4.820
 2705TIP3    H1 8079   5.893   3.105   4.764
 2705TIP3    H2 8080   5.877   3.238   4.835
 2706TIP3   OH2 8081   5.419   4.253   0.258
 2706TIP3    H1 8082   5.419   4.348   0.272
 2706TIP3    H2 8083   5.327   4.231   0.242
 2707TIP3   OH2 8084   4.248   5.278   3.522
 2707TIP3    H1 8085   4.343   5.271   3.538
 2707TIP3    H2 8086   4.209   5.215   3.583
 2708TIP3   OH2 8087   2.589   6.195   1.852
 2708TIP3    H1 8088   2.631   6.129   1.797
 2708TIP3    H2 8089   2.502   6.207   1.813
 2709TIP3   OH2 8090   4.167   5.669   2.058
 2709TIP3    H1 8091   4.196   5.656   1.968
 2709TIP3    H2 8092   4.245   5.699   2.104
 2710TIP3   OH2 8093   2.906   6.448   4.112
 2710TIP3    H1 8094   2.954   6.480   4.188
 2710TIP3    H2 8095   2.967   6.456   4.039
 2711TIP3   OH2 8096   3.267   0.904   5.147
 2711TIP3    H1 8097   3.281   0.816   5.114
 2711TIP3    H2 8098   3.355   0.939   5.161
 2712TIP3   OH2 8099   4.543   2.415   3.730
 2712TIP3    H1 8100   4.538   2.333   3.779
 2712TIP3    H2 8101   4.464   2.416   3.677
 2713TIP3   OH2 8102   3.573   0.300   0.440
 2713TIP3    H1 8103   3.540   0.216   0.408
 2713TIP3    H2 8104   3.545   0.304   0.531
 2714TIP3   OH2 8105   3.722   5.649   0.202
 2714TIP3    H1 8106   3.709   5.707   0.128
 2714TIP3    H2 8107   3.811   5.616   0.191
 2715TIP3   OH2 8108   5.043   3.354   3.555
 2715TIP3    H1 8109   5.011   3.412   3.624
 2715TIP3    H2 8110   5.077   3.278   3.602
 2716TIP3   OH2 8111   6.757   1.901   4.894
 2716TIP3    H1 8112   6.691   1.875   4.830
 2716TIP3    H2 8113   6.780   1.991   4.871
 2717TIP3   OH2 8114   5.711   5.912   1.319
 2717TIP3    H1 8115   5.805   5.898   1.322
 2717TIP3    H2 8116   5.701   6.003   1.292
 2718TIP3   OH2 8117   2.465   6.196   2.630
 2718TIP3    H1 8118   2.430   6.238   2.708
 2718TIP3    H2 8119   2.388   6.179   2.576
 2719TIP3   OH2 8120   6.911   6.383   4.139
 2719TIP3    H1 8121   6.882   6.428   4.060
 2719TIP3    H2 8122   6.936   6.295   4.109
 2720TIP3   OH2 8123   3.214   5.881   0.034
 2720TIP3    H1 8124   3.124   5.878   0.001
 2720TIP3    H2 8125   3.262   5.932  -0.031
 2721TIP3   OH2 8126   2.036   6.272   3.816
 2721TIP3    H1 8127   2.100   6.235   3.878
 2721TIP3    H2 8128   1.957   6.285   3.868
 2722TIP3   OH2 8129   1.925   3.210   3.344
 2722TIP3    H1 8130   2.005   3.211   3.292
 2722TIP3    H2 8131   1.953   3.239   3.431
 2723TIP3   OH2 8132   3.269   2.732   4.204
 2723TIP3    H1 8133   3.301   2.642   4.204
 2723TIP3    H2 8134   3.296   2.767   4.119
 2724TIP3   OH2 8135   0.227   0.871   4.071
 2724TIP3    H1 8136   0.216   0.782   4.037
 2724TIP3    H2 8137   0.166   0.924   4.021
 2725TIP3   OH2 8138   0.287   2.721   2.429
 2725TIP3    H1 8139   0.331   2.714   2.344
 2725TIP3    H2 8140   0.280   2.815   2.446
 2726TIP3   OH2 8141   3.903   2.649   4.055
 2726TIP3    H1 8142   3.839   2.706   4.098
 2726TIP3    H2 8143   3.917   2.577   4.116
 2727TIP3   OH2 8144   2.522   3.740   3.647
 2727TIP3    H1 8145   2.562   3.660   3.612
 2727TIP3    H2 8146   2.529   3.730   3.742
 2728TIP3   OH2 8147   6.398   2.718   4.288
 2728TIP3    H1 8148   6.382   2.727   4.382
 2728TIP3    H2 8149   6.461   2.646   4.282
 2729TIP3   OH2 8150   6.406   3.457   1.820
 2729TIP3    H1 8151   6.380   3.370   1.850
 2729TIP3    H2 8152   6.325   3.507   1.818
 2730TIP3   OH2 8153   5.960   4.656   2.716
 2730TIP3    H1 8154   5.976   4.679   2.624
 2730TIP3    H2 8155   6.012   4.719   2.766
 2731TIP3   OH2 8156   1.138   6.135   1.183
 2731TIP3    H1 8157   1.097   6.153   1.268
 2731TIP3    H2 8158   1.069   6.151   1.119
 2732TIP3   OH2 8159   0.326   1.511   2.380
 2732TIP3    H1 8160   0.406   1.553   2.348
 2732TIP3    H2 8161   0.324   1.426   2.337
 2733TIP3   OH2 8162   1.091   5.134   1.184
 2733TIP3    H1 8163   1.019   5.122   1.246
 2733TIP3    H2 8164   1.082   5.061   1.123
 2734TIP3   OH2 8165   0.538   5.820   5.585
 2734TIP3    H1 8166   0.505   5.906   5.611
 2734TIP3    H2 8167   0.614   5.806   5.642
 2735TIP3   OH2 8168   3.677   2.261   1.772
 2735TIP3    H1 8169   3.622   2.193   1.811
 2735TIP3    H2 8170   3.647   2.266   1.681
 2736TIP3   OH2 8171   3.533   4.034   3.224
 2736TIP3    H1 8172   3.505   4.064   3.311
 2736TIP3    H2 8173   3.490   3.949   3.213
 2737TIP3   OH2 8174   3.150   2.771   5.862
 2737TIP3    H1 8175   3.070   2.737   5.901
 2737TIP3    H2 8176   3.141   2.751   5.769
 2738TIP3   OH2 8177   5.936   0.517   1.746
 2738TIP3    H1 8178   6.020   0.481   1.715
 2738TIP3    H2 8179   5.883   0.524   1.667
 2739TIP3   OH2 8180   7.211   0.667   3.199
 2739TIP3    H1 8181   7.140   0.627   3.250
 2739TIP3    H2 8182   7.172   0.748   3.165
 2740TIP3   OH2 8183   1.740   4.755   2.937
 2740TIP3    H1 8184   1.696   4.770   3.021
 2740TIP3    H2 8185   1.767   4.842   2.909
 2741TIP3   OH2 8186   3.591   3.580   2.145
 2741TIP3    H1 8187   3.565   3.491   2.120
 2741TIP3    H2 8188   3.522   3.609   2.204
 2742TIP3   OH2 8189   1.140   6.142   1.787
 2742TIP3    H1 8190   1.229   6.108   1.777
 2742TIP3    H2 8191   1.102   6.090   1.857
 2743TIP3   OH2 8192   2.004   4.345   1.046
 2743TIP3    H1 8193   2.039   4.431   1.025
 2743TIP3    H2 8194   2.078   4.285   1.036
 2744TIP3   OH2 8195   3.309   0.957   3.352
 2744TIP3    H1 8196   3.378   0.989   3.293
 2744TIP3    H2 8197   3.245   0.916   3.294
 2745TIP3   OH2 8198   1.112   4.775   4.099
 2745TIP3    H1 8199   1.072   4.761   4.013
 2745TIP3    H2 8200   1.148   4.864   4.094
 2746TIP3   OH2 8201   7.091   1.477   4.917
 2746TIP3    H1 8202   7.144   1.409   4.957
 2746TIP3    H2 8203   7.104   1.554   4.973
 2747TIP3   OH2 8204   2.960   0.444   2.596
 2747TIP3    H1 8205   2.964   0.455   2.691
 2747TIP3    H2 8206   2.884   0.388   2.581
 2748TIP3   OH2 8207   1.171   3.734   1.837
 2748TIP3    H1 8208   1.245   3.793   1.848
 2748TIP3    H2 8209   1.209   3.646   1.845
 2749TIP3   OH2 8210   2.190   3.115   4.311
 2749TIP3    H1 8211   2.233   3.198   4.294
 2749TIP3    H2 8212   2.130   3.104   4.237
 2750TIP3   OH2 8213   5.392   2.025   0.460
 2750TIP3    H1 8214   5.371   1.977   0.541
 2750TIP3    H2 8215   5.445   1.963   0.409
 2751TIP3   OH2 8216   0.534   0.394   2.929
 2751TIP3    H1 8217   0.498   0.312   2.964
 2751TIP3    H2 8218   0.461   0.432   2.880
 2752TIP3   OH2 8219   5.810   1.983   3.494
 2752TIP3    H1 8220   5.905   1.993   3.482
 2752TIP3    H2 8221   5.788   1.905   3.443
 2753TIP3   OH2 8222   7.122   1.860   1.568
 2753TIP3    H1 8223   7.143   1.772   1.600
 2753TIP3    H2 8224   7.039   1.882   1.610
 2754TIP3   OH2 8225   3.478   1.714   1.274
 2754TIP3    H1 8226   3.472   1.784   1.339
 2754TIP3    H2 8227   3.500   1.636   1.325
 2755TIP3   OH2 8228   4.934   4.801   2.652
 2755TIP3    H1 8229   4.870   4.801   2.723
 2755TIP3    H2 8230   4.931   4.712   2.617
 2756TIP3   OH2 8231   5.099   5.387   4.253
 2756TIP3    H1 8232   5.128   5.413   4.165
 2756TIP3    H2 8233   5.147   5.306   4.271
 2757TIP3   OH2 8234   3.185   4.908   3.784
 2757TIP3    H1 8235   3.174   4.942   3.695
 2757TIP3    H2 8236   3.246   4.835   3.774
 2758TIP3   OH2 8237   6.441   2.911   4.048
 2758TIP3    H1 8238   6.390   2.836   4.079
 2758TIP3    H2 8239   6.387   2.952   3.981
 2759TIP3   OH2 8240   4.417   1.020   1.885
 2759TIP3    H1 8241   4.442   1.083   1.952
 2759TIP3    H2 8242   4.500   0.992   1.846
 2760TIP3   OH2 8243   7.042   2.925   1.204
 2760TIP3    H1 8244   7.045   3.003   1.149
 2760TIP3    H2 8245   7.134   2.898   1.211
 2761TIP3   OH2 8246   0.431   2.451   1.723
 2761TIP3    H1 8247   0.495   2.414   1.662
 2761TIP3    H2 8248   0.367   2.495   1.667
 2762TIP3   OH2 8249   0.534   6.779   4.704
 2762TIP3    H1 8250   0.538   6.704   4.763
 2762TIP3    H2 8251   0.472   6.839   4.745
 2763TIP3   OH2 8252   6.594   0.722   5.770
 2763TIP3    H1 8253   6.593   0.801   5.715
 2763TIP3    H2 8254   6.680   0.683   5.753
 2764TIP3   OH2 8255   6.912   4.681   3.041
 2764TIP3    H1 8256   6.901   4.593   3.076
 2764TIP3    H2 8257   6.827   4.702   3.002
 2765TIP3   OH2 8258   4.264   3.207   2.592
 2765TIP3    H1 8259   4.177   3.217   2.631
 2765TIP3    H2 8260   4.249   3.152   2.515
 2766TIP3   OH2 8261   2.175   2.749   2.951
 2766TIP3    H1 8262   2.142   2.771   3.039
 2766TIP3    H2 8263   2.263   2.785   2.949
 2767TIP3   OH2 8264   1.109   4.975   2.089
 2767TIP3    H1 8265   1.075   4.890   2.063
 2767TIP3    H2 8266   1.117   4.971   2.184
 2768TIP3   OH2 8267   0.510   2.493   4.084
 2768TIP3    H1 8268   0.423   2.498   4.046
 2768TIP3    H2 8269   0.567   2.466   4.012
 2769TIP3   OH2 8270   3.783   4.293   5.236
 2769TIP3    H1 8271   3.836   4.225   5.276
 2769TIP3    H2 8272   3.744   4.251   5.159
 2770TIP3   OH2 8273   5.555   5.520   3.304
 2770TIP3    H1 8274   5.491   5.590   3.289
 2770TIP3    H2 8275   5.607   5.518   3.224
 2771TIP3   OH2 8276   1.061   4.964   1.457
 2771TIP3    H1 8277   0.998   4.937   1.524
 2771TIP3    H2 8278   1.142   4.918   1.481
 2772TIP3   OH2 8279   6.432   4.746   2.969
 2772TIP3    H1 8280   6.407   4.657   2.946
 2772TIP3    H2 8281   6.354   4.799   2.949
 2773TIP3   OH2 8282   0.738   4.386   3.017
 2773TIP3    H1 8283   0.685   4.370   3.095
 2773TIP3    H2 8284   0.828   4.370   3.045
 2774TIP3   OH2 8285   5.646   5.254   3.444
 2774TIP3    H1 8286   5.733   5.248   3.404
 2774TIP3    H2 8287   5.625   5.348   3.440
 2775TIP3   OH2 8288   5.284   5.040   1.258
 2775TIP3    H1 8289   5.293   5.090   1.340
 2775TIP3    H2 8290   5.355   5.073   1.203
 2776TIP3   OH2 8291   4.896   0.351   3.301
 2776TIP3    H1 8292   4.910   0.405   3.378
 2776TIP3    H2 8293   4.948   0.272   3.317
 2777TIP3   OH2 8294   6.139   4.321   2.615
 2777TIP3    H1 8295   6.104   4.326   2.526
 2777TIP3    H2 8296   6.064   4.343   2.671
 2778TIP3   OH2 8297   6.411   1.435   2.742
 2778TIP3    H1 8298   6.459   1.496   2.686
 2778TIP3    H2 8299   6.319   1.461   2.733
 2779TIP3   OH2 8300   4.099   5.295   3.295
 2779TIP3    H1 8301   4.098   5.201   3.281
 2779TIP3    H2 8302   4.120   5.305   3.388
 2780TIP3   OH2 8303   2.250   0.912   2.777
 2780TIP3    H1 8304   2.197   0.878   2.850
 2780TIP3    H2 8305   2.335   0.932   2.816
 2781TIP3   OH2 8306   2.063   0.179   5.594
 2781TIP3    H1 8307   2.101   0.236   5.527
 2781TIP3    H2 8308   1.987   0.139   5.551
 2782TIP3   OH2 8309   1.229   4.106   3.726
 2782TIP3    H1 8310   1.321   4.128   3.712
 2782TIP3    H2 8311   1.214   4.029   3.671
 2783TIP3   OH2 8312   6.091   5.906   2.569
 2783TIP3    H1 8313   6.146   5.828   2.571
 2783TIP3    H2 8314   6.061   5.912   2.478
 2784TIP3   OH2 8315   1.794   3.143   2.618
 2784TIP3    H1 8316   1.850   3.204   2.569
 2784TIP3    H2 8317   1.705   3.172   2.599
 2785TIP3   OH2 8318   0.643   2.552   2.104
 2785TIP3    H1 8319   0.668   2.585   2.017
 2785TIP3    H2 8320   0.723   2.560   2.156
 2786TIP3   OH2 8321   2.155   2.527   0.994
 2786TIP3    H1 8322   2.167   2.472   1.072
 2786TIP3    H2 8323   2.173   2.468   0.921
 2787TIP3   OH2 8324   5.525   3.729   2.381
 2787TIP3    H1 8325   5.559   3.715   2.293
 2787TIP3    H2 8326   5.439   3.771   2.367
 2788TIP3   OH2 8327   6.468   1.620   0.184
 2788TIP3    H1 8328   6.379   1.643   0.159
 2788TIP3    H2 8329   6.520   1.635   0.105
 2789TIP3   OH2 8330   0.503   4.712   3.537
 2789TIP3    H1 8331   0.555   4.719   3.617
 2789TIP3    H2 8332   0.412   4.710   3.568
 2790TIP3   OH2 8333   1.636   6.374   4.864
 2790TIP3    H1 8334   1.701   6.428   4.819
 2790TIP3    H2 8335   1.686   6.303   4.903
 2791TIP3   OH2 8336   1.841   3.597   3.395
 2791TIP3    H1 8337   1.811   3.634   3.478
 2791TIP3    H2 8338   1.772   3.535   3.370
 2792TIP3   OH2 8339   2.149   6.784   3.056
 2792TIP3    H1 8340   2.219   6.764   2.994
 2792TIP3    H2 8341   2.070   6.786   3.003
 2793TIP3   OH2 8342   6.396   2.999   4.339
 2793TIP3    H1 8343   6.316   3.009   4.288
 2793TIP3    H2 8344   6.435   2.918   4.308
 2794TIP3   OH2 8345   1.844  -0.017   3.828
 2794TIP3    H1 8346   1.926  -0.032   3.783
 2794TIP3    H2 8347   1.827   0.077   3.817
 2795TIP3   OH2 8348   4.301   0.902   0.767
 2795TIP3    H1 8349   4.350   0.820   0.766
 2795TIP3    H2 8350   4.354   0.963   0.716
 2796TIP3   OH2 8351   6.827   1.750   0.966
 2796TIP3    H1 8352   6.763   1.691   0.926
 2796TIP3    H2 8353   6.895   1.692   1.001
 2797TIP3   OH2 8354   4.798   0.063   3.744
 2797TIP3    H1 8355   4.863   0.076   3.675
 2797TIP3    H2 8356   4.716   0.047   3.698
 2798TIP3   OH2 8357   2.997   5.024   2.430
 2798TIP3    H1 8358   2.958   4.963   2.367
 2798TIP3    H2 8359   3.068   5.067   2.382
 2799TIP3   OH2 8360   0.802   6.531   5.790
 2799TIP3    H1 8361   0.880   6.557   5.839
 2799TIP3    H2 8362   0.771   6.611   5.749
 2800TIP3   OH2 8363   3.173   3.524   5.404
 2800TIP3    H1 8364   3.136   3.436   5.413
 2800TIP3    H2 8365   3.132   3.575   5.473
 2801TIP3   OH2 8366   0.609   2.916   4.668
 2801TIP3    H1 8367   0.568   2.974   4.604
 2801TIP3    H2 8368   0.649   2.847   4.616
 2802TIP3   OH2 8369   3.988   2.106   1.901
 2802TIP3    H1 8370   4.053   2.037   1.911
 2802TIP3    H2 8371   3.907   2.060   1.878
 2803TIP3   OH2 8372   6.526   4.143   2.915
 2803TIP3    H1 8373   6.466   4.217   2.911
 2803TIP3    H2 8374   6.470   4.069   2.942
 2804TIP3   OH2 8375   4.697   2.911   5.294
 2804TIP3    H1 8376   4.693   2.894   5.388
 2804TIP3    H2 8377   4.783   2.879   5.268
 2805TIP3   OH2 8378   0.178   4.356   3.114
 2805TIP3    H1 8379   0.203   4.354   3.021
 2805TIP3    H2 8380   0.132   4.440   3.124
 2806TIP3   OH2 8381   3.320   3.432   4.713
 2806TIP3    H1 8382   3.233   3.393   4.724
 2806TIP3    H2 8383   3.380   3.358   4.715
 2807TIP3   OH2 8384   4.817   4.510   2.079
 2807TIP3    H1 8385   4.812   4.571   2.153
 2807TIP3    H2 8386   4.832   4.567   2.003
 2808TIP3   OH2 8387   4.207   0.856   1.928
 2808TIP3    H1 8388   4.269   0.803   1.979
 2808TIP3    H2 8389   4.262   0.918   1.880
 2809TIP3   OH2 8390   1.581   1.007   4.740
 2809TIP3    H1 8391   1.608   0.915   4.735
 2809TIP3    H2 8392   1.541   1.025   4.655
 2810TIP3   OH2 8393   2.234   5.636   5.361
 2810TIP3    H1 8394   2.303   5.691   5.397
 2810TIP3    H2 8395   2.277   5.584   5.294
 2811TIP3   OH2 8396   0.584   4.357   2.515
 2811TIP3    H1 8397   0.569   4.434   2.570
 2811TIP3    H2 8398   0.550   4.284   2.565
 2812TIP3   OH2 8399   0.341   3.433   1.072
 2812TIP3    H1 8400   0.349   3.528   1.080
 2812TIP3    H2 8401   0.410   3.398   1.128
 2813TIP3   OH2 8402   0.409   0.643   1.032
 2813TIP3    H1 8403   0.438   0.597   0.954
 2813TIP3    H2 8404   0.433   0.734   1.017
 2814TIP3   OH2 8405   3.645   2.162   4.084
 2814TIP3    H1 8406   3.626   2.091   4.023
 2814TIP3    H2 8407   3.582   2.150   4.155
 2815TIP3   OH2 8408   3.314   1.124   3.598
 2815TIP3    H1 8409   3.339   1.051   3.654
 2815TIP3    H2 8410   3.330   1.094   3.509
 2816TIP3   OH2 8411   0.495   1.870   3.308
 2816TIP3    H1 8412   0.496   1.780   3.341
 2816TIP3    H2 8413   0.405   1.883   3.277
 2817TIP3   OH2 8414   0.200   1.583   2.131
 2817TIP3    H1 8415   0.288   1.566   2.097
 2817TIP3    H2 8416   0.213   1.594   2.226
 2818TIP3   OH2 8417   5.854   5.096   4.510
 2818TIP3    H1 8418   5.850   5.073   4.417
 2818TIP3    H2 8419   5.785   5.161   4.521
 2819TIP3   OH2 8420   4.170   3.468   2.332
 2819TIP3    H1 8421   4.099   3.460   2.268
 2819TIP3    H2 8422   4.183   3.562   2.342
 2820TIP3   OH2 8423   2.248   0.015   1.296
 2820TIP3    H1 8424   2.196   0.010   1.215
 2820TIP3    H2 8425   2.242   0.107   1.322
 2821TIP3   OH2 8426   3.844   2.605   5.788
 2821TIP3    H1 8427   3.864   2.536   5.851
 2821TIP3    H2 8428   3.828   2.682   5.841
 2822TIP3   OH2 8429   3.974   5.759   3.611
 2822TIP3    H1 8430   4.043   5.821   3.633
 2822TIP3    H2 8431   4.018   5.674   3.606
 2823TIP3   OH2 8432   3.305   5.978   0.272
 2823TIP3    H1 8433   3.398   6.000   0.270
 2823TIP3    H2 8434   3.286   5.942   0.185
 2824TIP3   OH2 8435   5.380   0.561   5.341
 2824TIP3    H1 8436   5.308   0.624   5.336
 2824TIP3    H2 8437   5.340   0.483   5.379
 2825TIP3   OH2 8438   6.938   4.980   1.589
 2825TIP3    H1 8439   6.980   4.930   1.519
 2825TIP3    H2 8440   6.966   4.937   1.669
 2826TIP3   OH2 8441   2.441   0.338   2.705
 2826TIP3    H1 8442   2.411   0.251   2.679
 2826TIP3    H2 8443   2.433   0.339   2.800
 2827TIP3   OH2 8444   2.858   4.113   1.545
 2827TIP3    H1 8445   2.885   4.130   1.455
 2827TIP3    H2 8446   2.931   4.145   1.598
 2828TIP3   OH2 8447   5.473   1.601   1.916
 2828TIP3    H1 8448   5.408   1.651   1.966
 2828TIP3    H2 8449   5.431   1.584   1.832
 2829TIP3   OH2 8450   6.273   1.900   5.418
 2829TIP3    H1 8451   6.309   1.817   5.450
 2829TIP3    H2 8452   6.184   1.879   5.391
 2830TIP3   OH2 8453   5.700   5.621   0.848
 2830TIP3    H1 8454   5.786   5.583   0.833
 2830TIP3    H2 8455   5.717   5.704   0.893
 2831TIP3   OH2 8456   4.584   1.369   4.947
 2831TIP3    H1 8457   4.583   1.408   4.859
 2831TIP3    H2 8458   4.571   1.275   4.932
 2832TIP3   OH2 8459   1.776   2.947   0.703
 2832TIP3    H1 8460   1.837   2.882   0.670
 2832TIP3    H2 8461   1.803   2.963   0.793
 2833TIP3   OH2 8462   4.099   0.459   4.028
 2833TIP3    H1 8463   4.187   0.466   3.991
 2833TIP3    H2 8464   4.104   0.385   4.088
 2834TIP3   OH2 8465   5.246   3.500   3.102
 2834TIP3    H1 8466   5.164   3.457   3.126
 2834TIP3    H2 8467   5.257   3.568   3.169
 2835TIP3   OH2 8468   5.572   2.347   0.766
 2835TIP3    H1 8469   5.611   2.271   0.724
 2835TIP3    H2 8470   5.496   2.312   0.812
 2836TIP3   OH2 8471   5.466   0.138   1.546
 2836TIP3    H1 8472   5.453   0.120   1.640
 2836TIP3    H2 8473   5.400   0.085   1.502
 2837TIP3   OH2 8474   2.715   5.242   4.722
 2837TIP3    H1 8475   2.723   5.214   4.813
 2837TIP3    H2 8476   2.716   5.338   4.726
 2838TIP3   OH2 8477   4.585   5.897   2.043
 2838TIP3    H1 8478   4.510   5.910   1.986
 2838TIP3    H2 8479   4.648   5.964   2.017
 2839TIP3   OH2 8480   5.172   6.075   4.477
 2839TIP3    H1 8481   5.233   6.058   4.405
 2839TIP3    H2 8482   5.089   6.036   4.448
 2840TIP3   OH2 8483   4.538   0.140   1.826
 2840TIP3    H1 8484   4.494   0.103   1.750
 2840TIP3    H2 8485   4.468   0.161   1.888
 2841TIP3   OH2 8486   5.044   3.999   2.713
 2841TIP3    H1 8487   5.076   4.074   2.763
 2841TIP3    H2 8488   4.951   4.016   2.699
 2842TIP3   OH2 8489   3.268   1.845   5.211
 2842TIP3    H1 8490   3.216   1.788   5.267
 2842TIP3    H2 8491   3.290   1.791   5.135
 2843TIP3   OH2 8492   6.491   2.119   0.149
 2843TIP3    H1 8493   6.407   2.163   0.133
 2843TIP3    H2 8494   6.556   2.179   0.112
 2844TIP3   OH2 8495   1.159   0.592   4.937
 2844TIP3    H1 8496   1.188   0.559   5.022
 2844TIP3    H2 8497   1.239   0.624   4.895
 2845TIP3   OH2 8498   5.011   0.643   5.067
 2845TIP3    H1 8499   4.949   0.608   5.132
 2845TIP3    H2 8500   5.025   0.734   5.095
 2846TIP3   OH2 8501   6.544   3.953   5.171
 2846TIP3    H1 8502   6.498   3.886   5.120
 2846TIP3    H2 8503   6.552   3.914   5.259
 2847TIP3   OH2 8504   2.222   3.694   5.677
 2847TIP3    H1 8505   2.298   3.732   5.720
 2847TIP3    H2 8506   2.236   3.711   5.584
 2848TIP3   OH2 8507   2.504   0.209   1.960
 2848TIP3    H1 8508   2.541   0.145   1.900
 2848TIP3    H2 8509   2.410   0.192   1.958
 2849TIP3   OH2 8510   4.043   1.016   3.582
 2849TIP3    H1 8511   3.984   1.045   3.652
 2849TIP3    H2 8512   4.128   1.008   3.625
 2850TIP3   OH2 8513   3.706   3.109   3.184
 2850TIP3    H1 8514   3.629   3.055   3.163
 2850TIP3    H2 8515   3.769   3.048   3.221
 2851TIP3   OH2 8516   4.497   0.101   1.091
 2851TIP3    H1 8517   4.522   0.185   1.129
 2851TIP3    H2 8518   4.520   0.110   0.998
 2852TIP3   OH2 8519   7.122   4.889   0.451
 2852TIP3    H1 8520   7.092   4.798   0.447
 2852TIP3    H2 8521   7.046   4.937   0.484
 2853TIP3   OH2 8522   5.543   2.712   2.837
 2853TIP3    H1 8523   5.605   2.639   2.847
 2853TIP3    H2 8524   5.551   2.760   2.919
 2854TIP3   OH2 8525   6.779   5.222   3.123
 2854TIP3    H1 8526   6.775   5.266   3.038
 2854TIP3    H2 8527   6.868   5.237   3.154
 2855TIP3   OH2 8528   2.821   6.026   4.751
 2855TIP3    H1 8529   2.883   6.097   4.734
 2855TIP3    H2 8530   2.790   6.000   4.664
 2856TIP3   OH2 8531   5.753   2.465   4.567
 2856TIP3    H1 8532   5.706   2.537   4.608
 2856TIP3    H2 8533   5.814   2.434   4.634
 2857TIP3   OH2 8534   1.079   4.525   2.902
 2857TIP3    H1 8535   1.008   4.462   2.895
 2857TIP3    H2 8536   1.053   4.582   2.975
 2858TIP3   OH2 8537   1.156   0.590   2.136
 2858TIP3    H1 8538   1.244   0.591   2.100
 2858TIP3    H2 8539   1.113   0.517   2.092
 2859TIP3   OH2 8540   2.196   3.199   4.732
 2859TIP3    H1 8541   2.111   3.162   4.755
 2859TIP3    H2 8542   2.227   3.144   4.660
 2860TIP3   OH2 8543   3.275   6.351   2.211
 2860TIP3    H1 8544   3.281   6.424   2.271
 2860TIP3    H2 8545   3.294   6.274   2.264
 2861TIP3   OH2 8546   1.374   1.115   4.476
 2861TIP3    H1 8547   1.306   1.176   4.505
 2861TIP3    H2 8548   1.330   1.030   4.471
 2862TIP3   OH2 8549   6.547   1.083   5.057
 2862TIP3    H1 8550   6.502   1.008   5.097
 2862TIP3    H2 8551   6.568   1.053   4.968
 2863TIP3   OH2 8552   5.778   5.936   5.623
 2863TIP3    H1 8553   5.835   5.991   5.677
 2863TIP3    H2 8554   5.692   5.944   5.663
 2864TIP3   OH2 8555   2.883   5.253   0.894
 2864TIP3    H1 8556   2.812   5.189   0.889
 2864TIP3    H2 8557   2.956   5.210   0.850
 2865TIP3   OH2 8558   4.735   2.566   4.726
 2865TIP3    H1 8559   4.747   2.521   4.810
 2865TIP3    H2 8560   4.717   2.657   4.749
 2866TIP3   OH2 8561   0.289   2.580   5.500
 2866TIP3    H1 8562   0.270   2.638   5.427
 2866TIP3    H2 8563   0.272   2.633   5.578
 2867TIP3   OH2 8564   0.658   1.077   0.070
 2867TIP3    H1 8565   0.593   1.008   0.061
 2867TIP3    H2 8566   0.648   1.131  -0.009
 2868TIP3   OH2 8567   2.033   4.481   4.257
 2868TIP3    H1 8568   1.967   4.547   4.277
 2868TIP3    H2 8569   2.044   4.433   4.339
 2869TIP3   OH2 8570   4.946   4.921   5.086
 2869TIP3    H1 8571   4.926   4.928   5.180
 2869TIP3    H2 8572   5.030   4.876   5.082
 2870TIP3   OH2 8573   0.207   3.795   5.686
 2870TIP3    H1 8574   0.154   3.715   5.683
 2870TIP3    H2 8575   0.295   3.767   5.659
 2871TIP3   OH2 8576   0.856   1.948   5.315
 2871TIP3    H1 8577   0.827   2.018   5.374
 2871TIP3    H2 8578   0.789   1.944   5.247
 2872TIP3   OH2 8579   4.879   2.880   3.035
 2872TIP3    H1 8580   4.787   2.887   3.061
 2872TIP3    H2 8581   4.927   2.869   3.118
 2873TIP3   OH2 8582   6.111   0.388   1.946
 2873TIP3    H1 8583   6.079   0.393   2.036
 2873TIP3    H2 8584   6.131   0.478   1.922
 2874TIP3   OH2 8585   6.705   5.677   1.489
 2874TIP3    H1 8586   6.717   5.583   1.506
 2874TIP3    H2 8587   6.794   5.713   1.488
 2875TIP3   OH2 8588   7.208   6.385   0.372
 2875TIP3    H1 8589   7.115   6.361   0.366
 2875TIP3    H2 8590   7.208   6.481   0.367
 2876TIP3   OH2 8591   1.018   3.605   0.446
 2876TIP3    H1 8592   1.109   3.635   0.445
 2876TIP3    H2 8593   0.973   3.661   0.383
 2877TIP3   OH2 8594   2.854   5.330   1.150
 2877TIP3    H1 8595   2.890   5.324   1.062
 2877TIP3    H2 8596   2.923   5.295   1.206
 2878TIP3   OH2 8597   6.362   5.236   5.594
 2878TIP3    H1 8598   6.381   5.276   5.509
 2878TIP3    H2 8599   6.448   5.223   5.634
 2879TIP3   OH2 8600   1.867   0.245   0.104
 2879TIP3    H1 8601   1.897   0.273   0.017
 2879TIP3    H2 8602   1.881   0.322   0.159
 2880TIP3   OH2 8603   1.318   2.171   4.222
 2880TIP3    H1 8604   1.399   2.220   4.210
 2880TIP3    H2 8605   1.311   2.118   4.142
 2881TIP3   OH2 8606   6.867   1.097   0.779
 2881TIP3    H1 8607   6.857   1.021   0.722
 2881TIP3    H2 8608   6.844   1.065   0.866
 2882TIP3   OH2 8609   6.859   0.548   4.444
 2882TIP3    H1 8610   6.829   0.466   4.483
 2882TIP3    H2 8611   6.801   0.615   4.481
 2883TIP3   OH2 8612   3.527   4.136   5.746
 2883TIP3    H1 8613   3.561   4.219   5.779
 2883TIP3    H2 8614   3.605   4.085   5.725
 2884TIP3   OH2 8615   0.409   5.548   3.555
 2884TIP3    H1 8616   0.341   5.508   3.499
 2884TIP3    H2 8617   0.430   5.480   3.619
 2885TIP3   OH2 8618   4.723   5.094   3.939
 2885TIP3    H1 8619   4.636   5.057   3.923
 2885TIP3    H2 8620   4.728   5.103   4.034
 2886TIP3   OH2 8621   3.841   4.162   2.514
 2886TIP3    H1 8622   3.853   4.163   2.609
 2886TIP3    H2 8623   3.757   4.117   2.501
 2887TIP3   OH2 8624   4.418   1.202   3.428
 2887TIP3    H1 8625   4.337   1.157   3.403
 2887TIP3    H2 8626   4.391   1.263   3.497
 2888TIP3   OH2 8627   4.620   3.443   0.576
 2888TIP3    H1 8628   4.563   3.456   0.501
 2888TIP3    H2 8629   4.587   3.363   0.617
 2889TIP3   OH2 8630   3.767   2.554   1.244
 2889TIP3    H1 8631   3.813   2.585   1.321
 2889TIP3    H2 8632   3.834   2.554   1.175
 2890TIP3   OH2 8633   0.713   2.248   5.274
 2890TIP3    H1 8634   0.688   2.340   5.286
 2890TIP3    H2 8635   0.641   2.199   5.313
 2891TIP3   OH2 8636   6.816   1.812   1.579
 2891TIP3    H1 8637   6.763   1.891   1.574
 2891TIP3    H2 8638   6.756   1.746   1.615
 2892TIP3   OH2 8639   7.067   0.760   0.776
 2892TIP3    H1 8640   6.972   0.756   0.770
 2892TIP3    H2 8641   7.097   0.765   0.685
 2893TIP3   OH2 8642   1.259   3.317   2.795
 2893TIP3    H1 8643   1.322   3.315   2.867
 2893TIP3    H2 8644   1.277   3.238   2.745
 2894TIP3   OH2 8645   5.676   5.688   3.539
 2894TIP3    H1 8646   5.631   5.662   3.459
 2894TIP3    H2 8647   5.710   5.775   3.520
 2895TIP3   OH2 8648   5.740   5.756   1.866
 2895TIP3    H1 8649   5.807   5.729   1.803
 2895TIP3    H2 8650   5.684   5.679   1.876
 2896TIP3   OH2 8651   5.410   1.326   3.573
 2896TIP3    H1 8652   5.343   1.393   3.590
 2896TIP3    H2 8653   5.489   1.360   3.616
 2897TIP3   OH2 8654   6.458   5.019   0.234
 2897TIP3    H1 8655   6.527   5.049   0.293
 2897TIP3    H2 8656   6.445   5.092   0.173
 2898TIP3   OH2 8657   2.526   5.469   4.344
 2898TIP3    H1 8658   2.592   5.402   4.327
 2898TIP3    H2 8659   2.530   5.526   4.267
 2899TIP3   OH2 8660   1.773   6.545   1.155
 2899TIP3    H1 8661   1.712   6.530   1.083
 2899TIP3    H2 8662   1.740   6.624   1.199
 2900TIP3   OH2 8663   1.300   1.799   4.634
 2900TIP3    H1 8664   1.232   1.823   4.697
 2900TIP3    H2 8665   1.375   1.775   4.689
 2901TIP3   OH2 8666   4.230   5.781   3.889
 2901TIP3    H1 8667   4.229   5.854   3.827
 2901TIP3    H2 8668   4.210   5.821   3.974
 2902TIP3   OH2 8669   6.503   4.661   1.706
 2902TIP3    H1 8670   6.587   4.640   1.667
 2902TIP3    H2 8671   6.439   4.613   1.653
 2903TIP3   OH2 8672   6.141   2.979   4.248
 2903TIP3    H1 8673   6.078   3.028   4.303
 2903TIP3    H2 8674   6.093   2.961   4.167
 2904TIP3   OH2 8675   6.713   3.440   0.600
 2904TIP3    H1 8676   6.757   3.478   0.523
 2904TIP3    H2 8677   6.704   3.347   0.579
 2905TIP3   OH2 8678   0.602   2.458   5.549
 2905TIP3    H1 8679   0.584   2.396   5.619
 2905TIP3    H2 8680   0.519   2.504   5.536
 2906TIP3   OH2 8681   3.559   3.897   1.276
 2906TIP3    H1 8682   3.637   3.860   1.234
 2906TIP3    H2 8683   3.486   3.859   1.228
 2907TIP3   OH2 8684   4.527   3.692   4.824
 2907TIP3    H1 8685   4.559   3.721   4.909
 2907TIP3    H2 8686   4.607   3.673   4.774
 2908TIP3   OH2 8687   1.336   3.095   1.654
 2908TIP3    H1 8688   1.363   3.056   1.737
 2908TIP3    H2 8689   1.367   3.033   1.588
 2909TIP3   OH2 8690   4.036   1.731   1.792
 2909TIP3    H1 8691   4.101   1.661   1.803
 2909TIP3    H2 8692   4.021   1.763   1.881
 2910TIP3   OH2 8693   1.321   0.008   1.698
 2910TIP3    H1 8694   1.384   0.000   1.627
 2910TIP3    H2 8695   1.368   0.054   1.767
 2911TIP3   OH2 8696   4.209   1.906   2.354
 2911TIP3    H1 8697   4.161   1.825   2.336
 2911TIP3    H2 8698   4.149   1.975   2.327
 2912TIP3   OH2 8699   1.535   0.527   1.473
 2912TIP3    H1 8700   1.555   0.583   1.548
 2912TIP3    H2 8701   1.614   0.530   1.419
 2913TIP3   OH2 8702   1.434   4.963   0.889
 2913TIP3    H1 8703   1.394   5.047   0.863
 2913TIP3    H2 8704   1.361   4.902   0.894
 2914TIP3   OH2 8705   1.239   5.630   0.332
 2914TIP3    H1 8706   1.222   5.564   0.399
 2914TIP3    H2 8707   1.334   5.645   0.337
 2915TIP3   OH2 8708   1.894   4.859   1.077
 2915TIP3    H1 8709   1.869   4.914   1.151
 2915TIP3    H2 8710   1.876   4.912   1.000
 2916TIP3   OH2 8711   2.254   1.404   5.667
 2916TIP3    H1 8712   2.179   1.432   5.616
 2916TIP3    H2 8713   2.248   1.454   5.749
 2917TIP3   OH2 8714   0.582   6.531   2.141
 2917TIP3    H1 8715   0.662   6.569   2.179
 2917TIP3    H2 8716   0.520   6.604   2.140
 2918TIP3   OH2 8717   3.913   4.490   3.052
 2918TIP3    H1 8718   3.834   4.443   3.077
 2918TIP3    H2 8719   3.981   4.456   3.111
 2919TIP3   OH2 8720   0.721   2.639   3.709
 2919TIP3    H1 8721   0.718   2.621   3.615
 2919TIP3    H2 8722   0.684   2.727   3.718
 2920TIP3   OH2 8723   4.330   1.926   1.352
 2920TIP3    H1 8724   4.308   1.881   1.434
 2920TIP3    H2 8725   4.268   1.998   1.347
 2921TIP3   OH2 8726   0.403   4.349   5.436
 2921TIP3    H1 8727   0.320   4.396   5.442
 2921TIP3    H2 8728   0.437   4.347   5.525
 2922TIP3   OH2 8729   4.944   3.469   5.873
 2922TIP3    H1 8730   4.984   3.442   5.791
 2922TIP3    H2 8731   4.973   3.403   5.936
 2923TIP3   OH2 8732   4.632   4.323   5.554
 2923TIP3    H1 8733   4.622   4.260   5.626
 2923TIP3    H2 8734   4.550   4.317   5.505
 2924TIP3   OH2 8735   6.258   5.991   3.865
 2924TIP3    H1 8736   6.242   6.085   3.871
 2924TIP3    H2 8737   6.322   5.982   3.794
 2925TIP3   OH2 8738   0.353   6.502   3.268
 2925TIP3    H1 8739   0.331   6.467   3.182
 2925TIP3    H2 8740   0.445   6.527   3.261
 2926TIP3   OH2 8741   5.190   4.764   4.657
 2926TIP3    H1 8742   5.208   4.804   4.572
 2926TIP3    H2 8743   5.106   4.803   4.684
 2927TIP3   OH2 8744   5.148   2.729   3.930
 2927TIP3    H1 8745   5.094   2.687   3.997
 2927TIP3    H2 8746   5.135   2.676   3.851
 2928TIP3   OH2 8747   5.192   5.376   3.988
 2928TIP3    H1 8748   5.253   5.303   3.977
 2928TIP3    H2 8749   5.118   5.353   3.931
 2929TIP3   OH2 8750   6.336   5.142   4.701
 2929TIP3    H1 8751   6.394   5.068   4.685
 2929TIP3    H2 8752   6.291   5.156   4.618
 2930TIP3   OH2 8753   0.925   1.398   4.643
 2930TIP3    H1 8754   0.923   1.331   4.711
 2930TIP3    H2 8755   1.003   1.378   4.591
 2931TIP3   OH2 8756   1.529   1.437   2.575
 2931TIP3    H1 8757   1.565   1.411   2.490
 2931TIP3    H2 8758   1.443   1.472   2.556
 2932TIP3   OH2 8759   0.452   4.147   0.760
 2932TIP3    H1 8760   0.546   4.146   0.744
 2932TIP3    H2 8761   0.438   4.219   0.821
 2933TIP3   OH2 8762   6.838   1.537   0.628
 2933TIP3    H1 8763   6.814   1.587   0.550
 2933TIP3    H2 8764   6.793   1.453   0.617
 2934TIP3   OH2 8765   0.894   5.383   4.284
 2934TIP3    H1 8766   0.963   5.430   4.332
 2934TIP3    H2 8767   0.906   5.291   4.307
 2935TIP3   OH2 8768   5.142   4.576   0.815
 2935TIP3    H1 8769   5.112   4.631   0.743
 2935TIP3    H2 8770   5.237   4.578   0.809
 2936TIP3   OH2 8771   3.970   5.756   0.581
 2936TIP3    H1 8772   3.878   5.752   0.609
 2936TIP3    H2 8773   3.965   5.774   0.487
 2937TIP3   OH2 8774   6.621   0.749   0.619
 2937TIP3    H1 8775   6.530   0.719   0.626
 2937TIP3    H2 8776   6.626   0.823   0.678
 2938TIP3   OH2 8777   0.311   2.770   4.712
 2938TIP3    H1 8778   0.279   2.687   4.678
 2938TIP3    H2 8779   0.405   2.770   4.693
 2939TIP3   OH2 8780   6.152   3.267   4.707
 2939TIP3    H1 8781   6.232   3.251   4.758
 2939TIP3    H2 8782   6.082   3.230   4.760
 2940TIP3   OH2 8783   2.921   3.658   5.608
 2940TIP3    H1 8784   2.895   3.590   5.670
 2940TIP3    H2 8785   2.974   3.719   5.660
 2941TIP3   OH2 8786   4.143   2.915   3.837
 2941TIP3    H1 8787   4.066   2.929   3.782
 2941TIP3    H2 8788   4.119   2.950   3.922
 2942TIP3   OH2 8789   2.588   2.702   1.718
 2942TIP3    H1 8790   2.596   2.787   1.675
 2942TIP3    H2 8791   2.676   2.683   1.750
 2943TIP3   OH2 8792   0.845   1.411   0.791
 2943TIP3    H1 8793   0.903   1.465   0.845
 2943TIP3    H2 8794   0.870   1.433   0.701
 2944TIP3   OH2 8795   3.887   0.870   1.790
 2944TIP3    H1 8796   3.958   0.859   1.727
 2944TIP3    H2 8797   3.916   0.940   1.848
 2945TIP3   OH2 8798   3.768   5.968   4.879
 2945TIP3    H1 8799   3.793   5.879   4.855
 2945TIP3    H2 8800   3.786   6.020   4.800
 2946TIP3   OH2 8801   0.864   5.775   0.379
 2946TIP3    H1 8802   0.956   5.804   0.385
 2946TIP3    H2 8803   0.834   5.774   0.470
 2947TIP3   OH2 8804   1.728   5.882   4.918
 2947TIP3    H1 8805   1.633   5.869   4.912
 2947TIP3    H2 8806   1.759   5.810   4.971
 2948TIP3   OH2 8807   3.214   4.389   3.565
 2948TIP3    H1 8808   3.222   4.373   3.472
 2948TIP3    H2 8809   3.189   4.482   3.572
 2949TIP3   OH2 8810   2.951   3.261   5.721
 2949TIP3    H1 8811   2.882   3.238   5.659
 2949TIP3    H2 8812   2.915   3.335   5.770
 2950TIP3   OH2 8813   4.900   6.050   2.739
 2950TIP3    H1 8814   4.985   6.029   2.699
 2950TIP3    H2 8815   4.855   6.102   2.672
 2951TIP3   OH2 8816   0.435   5.852   1.356
 2951TIP3    H1 8817   0.492   5.872   1.281
 2951TIP3    H2 8818   0.494   5.849   1.431
 2952TIP3   OH2 8819   1.176   4.375   5.781
 2952TIP3    H1 8820   1.088   4.410   5.790
 2952TIP3    H2 8821   1.218   4.431   5.715
 2953TIP3   OH2 8822   5.924   4.967   1.522
 2953TIP3    H1 8823   5.858   4.969   1.591
 2953TIP3    H2 8824   5.875   4.985   1.442
 2954TIP3   OH2 8825   4.498   4.473   5.212
 2954TIP3    H1 8826   4.551   4.552   5.219
 2954TIP3    H2 8827   4.556   4.409   5.172
 2955TIP3   OH2 8828   2.097   0.891   0.216
 2955TIP3    H1 8829   2.186   0.870   0.245
 2955TIP3    H2 8830   2.080   0.978   0.252
 2956TIP3   OH2 8831   3.845   5.262   2.148
 2956TIP3    H1 8832   3.876   5.247   2.058
 2956TIP3    H2 8833   3.825   5.355   2.151
 2957TIP3   OH2 8834   2.365   1.210   1.375
 2957TIP3    H1 8835   2.407   1.264   1.442
 2957TIP3    H2 8836   2.283   1.256   1.355
 2958TIP3   OH2 8837   2.677   2.056   3.707
 2958TIP3    H1 8838   2.745   2.026   3.647
 2958TIP3    H2 8839   2.596   2.045   3.659
 2959TIP3   OH2 8840   2.572   5.822   4.263
 2959TIP3    H1 8841   2.540   5.896   4.211
 2959TIP3    H2 8842   2.597   5.757   4.197
 2960TIP3   OH2 8843   2.265   6.562   1.886
 2960TIP3    H1 8844   2.180   6.524   1.906
 2960TIP3    H2 8845   2.273   6.636   1.946
 2961TIP3   OH2 8846   5.050   5.208   2.469
 2961TIP3    H1 8847   5.075   5.285   2.520
 2961TIP3    H2 8848   4.990   5.159   2.525
 2962TIP3   OH2 8849   2.390   0.170   1.593
 2962TIP3    H1 8850   2.411   0.083   1.628
 2962TIP3    H2 8851   2.294   0.171   1.589
 2963TIP3   OH2 8852   4.541   3.244   3.535
 2963TIP3    H1 8853   4.500   3.199   3.461
 2963TIP3    H2 8854   4.629   3.266   3.504
 2964TIP3   OH2 8855   3.729   5.912   3.624
 2964TIP3    H1 8856   3.822   5.890   3.628
 2964TIP3    H2 8857   3.707   5.939   3.714
 2965TIP3   OH2 8858   1.653   5.821   4.223
 2965TIP3    H1 8859   1.743   5.820   4.192
 2965TIP3    H2 8860   1.602   5.850   4.148
 2966TIP3   OH2 8861   1.285   1.182   1.501
 2966TIP3    H1 8862   1.353   1.198   1.567
 2966TIP3    H2 8863   1.322   1.114   1.445
 2967TIP3   OH2 8864   2.610   0.638   3.676
 2967TIP3    H1 8865   2.579   0.603   3.759
 2967TIP3    H2 8866   2.694   0.680   3.697
 2968TIP3   OH2 8867   2.318   1.365   0.413
 2968TIP3    H1 8868   2.333   1.445   0.462
 2968TIP3    H2 8869   2.232   1.335   0.442
 2969TIP3   OH2 8870   6.807   2.946   3.771
 2969TIP3    H1 8871   6.725   2.901   3.750
 2969TIP3    H2 8872   6.832   2.911   3.857
 2970TIP3   OH2 8873   3.873   6.469   3.238
 2970TIP3    H1 8874   3.835   6.512   3.161
 2970TIP3    H2 8875   3.965   6.458   3.216
 2971TIP3   OH2 8876   3.470   5.989   4.612
 2971TIP3    H1 8877   3.431   5.927   4.674
 2971TIP3    H2 8878   3.541   6.030   4.660
 2972TIP3   OH2 8879   6.037   5.283   4.052
 2972TIP3    H1 8880   5.973   5.350   4.027
 2972TIP3    H2 8881   6.091   5.325   4.119
 2973TIP3   OH2 8882   4.230   3.156   3.586
 2973TIP3    H1 8883   4.279   3.237   3.599
 2973TIP3    H2 8884   4.284   3.088   3.628
 2974TIP3   OH2 8885   5.123   3.709   2.004
 2974TIP3    H1 8886   5.219   3.713   2.004
 2974TIP3    H2 8887   5.100   3.664   2.085
 2975TIP3   OH2 8888   2.511   2.823   3.265
 2975TIP3    H1 8889   2.522   2.844   3.172
 2975TIP3    H2 8890   2.494   2.908   3.306
 2976TIP3   OH2 8891   1.509   5.647   0.211
 2976TIP3    H1 8892   1.575   5.604   0.156
 2976TIP3    H2 8893   1.455   5.696   0.149
 2977TIP3   OH2 8894   6.107   3.227   2.290
 2977TIP3    H1 8895   6.089   3.200   2.200
 2977TIP3    H2 8896   6.197   3.261   2.287
 2978TIP3   OH2 8897   5.142   3.191   3.994
 2978TIP3    H1 8898   5.095   3.223   4.071
 2978TIP3    H2 8899   5.182   3.109   4.024
 2979TIP3   OH2 8900   0.350   3.722   4.791
 2979TIP3    H1 8901   0.353   3.752   4.700
 2979TIP3    H2 8902   0.314   3.633   4.785
 2980TIP3   OH2 8903   1.051   4.121   4.256
 2980TIP3    H1 8904   1.003   4.127   4.338
 2980TIP3    H2 8905   1.103   4.041   4.264
 2981TIP3   OH2 8906   0.570   5.689   0.471
 2981TIP3    H1 8907   0.629   5.720   0.539
 2981TIP3    H2 8908   0.555   5.766   0.416
 2982TIP3   OH2 8909   2.408   6.298   5.835
 2982TIP3    H1 8910   2.433   6.312   5.743
 2982TIP3    H2 8911   2.462   6.360   5.884
 2983TIP3   OH2 8912   0.010   2.310   2.428
 2983TIP3    H1 8913   0.051   2.384   2.474
 2983TIP3    H2 8914   0.056   2.307   2.343
 2984TIP3   OH2 8915   4.865   6.529   1.229
 2984TIP3    H1 8916   4.844   6.614   1.266
 2984TIP3    H2 8917   4.957   6.514   1.255
 2985TIP3   OH2 8918   0.815   6.391   2.014
 2985TIP3    H1 8919   0.800   6.441   1.934
 2985TIP3    H2 8920   0.792   6.451   2.084
 2986TIP3   OH2 8921   5.884   6.075   1.051
 2986TIP3    H1 8922   5.808   6.091   0.996
 2986TIP3    H2 8923   5.934   6.157   1.046
 2987TIP3   OH2 8924   0.569   0.374   4.620
 2987TIP3    H1 8925   0.508   0.448   4.625
 2987TIP3    H2 8926   0.624   0.383   4.698
 2988TIP3   OH2 8927   1.451   0.217   3.690
 2988TIP3    H1 8928   1.361   0.192   3.669
 2988TIP3    H2 8929   1.449   0.235   3.784
 2989TIP3   OH2 8930   3.240   3.319   2.311
 2989TIP3    H1 8931   3.221   3.398   2.363
 2989TIP3    H2 8932   3.205   3.247   2.363
 2990TIP3   OH2 8933   4.734   5.062   4.450
 2990TIP3    H1 8934   4.797   5.083   4.518
 2990TIP3    H2 8935   4.649   5.072   4.492
 2991TIP3   OH2 8936   1.483   1.856   1.635
 2991TIP3    H1 8937   1.474   1.761   1.632
 2991TIP3    H2 8938   1.399   1.887   1.667
 2992TIP3   OH2 8939   6.417   2.626   3.224
 2992TIP3    H1 8940   6.360   2.571   3.277
 2992TIP3    H2 8941   6.356   2.682   3.175
 2993TIP3   OH2 8942   0.592   6.204   0.864
 2993TIP3    H1 8943   0.661   6.137   0.857
 2993TIP3    H2 8944   0.625   6.264   0.931
 2994TIP3   OH2 8945   0.294   1.184   3.904
 2994TIP3    H1 8946   0.351   1.192   3.981
 2994TIP3    H2 8947   0.327   1.251   3.844
 2995TIP3   OH2 8948   1.919   6.775   0.624
 2995TIP3    H1 8949   1.873   6.702   0.581
 2995TIP3    H2 8950   1.950   6.739   0.707
 2996TIP3   OH2 8951   6.430   0.785   2.887
 2996TIP3    H1 8952   6.501   0.742   2.935
 2996TIP3    H2 8953   6.357   0.787   2.949
 2997TIP3   OH2 8954   2.354   4.489   0.223
 2997TIP3    H1 8955   2.355   4.576   0.183
 2997TIP3    H2 8956   2.442   4.480   0.262
 2998TIP3   OH2 8957   0.227   3.228   5.130
 2998TIP3    H1 8958   0.244   3.210   5.038
 2998TIP3    H2 8959   0.234   3.324   5.136
 2999TIP3   OH2 8960   3.649   0.506   2.745
 2999TIP3    H1 8961   3.576   0.449   2.770
 2999TIP3    H2 8962   3.725   0.447   2.743
 3000TIP3   OH2 8963   2.167   0.545   3.762
 3000TIP3    H1 8964   2.094   0.554   3.824
 3000TIP3    H2 8965   2.158   0.456   3.727
 3001TIP3   OH2 8966   7.114   1.485   1.373
 3001TIP3    H1 8967   7.048   1.425   1.337
 3001TIP3    H2 8968   7.153   1.526   1.296
 3002TIP3   OH2 8969   6.295   5.580   1.315
 3002TIP3    H1 8970   6.348   5.655   1.341
 3002TIP3    H2 8971   6.213   5.590   1.365
 3003TIP3   OH2 8972   4.520   5.898   0.692
 3003TIP3    H1 8973   4.521   5.802   0.685
 3003TIP3    H2 8974   4.453   5.916   0.759
 3004TIP3   OH2 8975   0.857   3.156   2.165
 3004TIP3    H1 8976   0.845   3.241   2.122
 3004TIP3    H2 8977   0.933   3.118   2.120
 3005TIP3   OH2 8978   2.431   5.757   1.195
 3005TIP3    H1 8979   2.507   5.803   1.162
 3005TIP3    H2 8980   2.466   5.694   1.259
 3006TIP3   OH2 8981   1.368   5.242   3.258
 3006TIP3    H1 8982   1.423   5.243   3.180
 3006TIP3    H2 8983   1.308   5.169   3.245
 3007TIP3   OH2 8984   7.173   6.424   2.109
 3007TIP3    H1 8985   7.206   6.513   2.122
 3007TIP3    H2 8986   7.250   6.374   2.081
 3008TIP3   OH2 8987   7.073   1.890   3.196
 3008TIP3    H1 8988   6.996   1.940   3.220
 3008TIP3    H2 8989   7.107   1.933   3.118
 3009TIP3   OH2 8990   6.209   5.099   1.255
 3009TIP3    H1 8991   6.208   5.062   1.343
 3009TIP3    H2 8992   6.118   5.125   1.239
 3010TIP3   OH2 8993   1.338   1.409   5.121
 3010TIP3    H1 8994   1.403   1.396   5.052
 3010TIP3    H2 8995   1.344   1.503   5.142
 3011TIP3   OH2 8996   1.538   2.049   3.286
 3011TIP3    H1 8997   1.546   2.036   3.191
 3011TIP3    H2 8998   1.628   2.047   3.318
 3012TIP3   OH2 8999   1.247   2.968   4.206
 3012TIP3    H1 9000   1.157   2.985   4.177
 3012TIP3    H2 9001   1.254   3.014   4.290
 3013TIP3   OH2 9002   4.668   5.627   4.263
 3013TIP3    H1 9003   4.617   5.606   4.185
 3013TIP3    H2 9004   4.694   5.718   4.252
 3014TIP3   OH2 9005   1.681   4.741   1.926
 3014TIP3    H1 9006   1.723   4.768   2.007
 3014TIP3    H2 9007   1.635   4.819   1.895
 3015TIP3   OH2 9008   3.050   2.135   2.032
 3015TIP3    H1 9009   3.018   2.084   1.957
 3015TIP3    H2 9010   3.145   2.138   2.019
 3016TIP3   OH2 9011   0.097   5.215   0.830
 3016TIP3    H1 9012   0.067   5.169   0.752
 3016TIP3    H2 9013   0.017   5.252   0.868
 3017TIP3   OH2 9014   1.518   4.566   5.005
 3017TIP3    H1 9015   1.424   4.553   5.018
 3017TIP3    H2 9016   1.525   4.656   4.971
 3018TIP3   OH2 9017   3.592   1.110   5.526
 3018TIP3    H1 9018   3.504   1.082   5.551
 3018TIP3    H2 9019   3.645   1.093   5.604
 3019TIP3   OH2 9020   1.487   2.340   3.364
 3019TIP3    H1 9021   1.504   2.257   3.321
 3019TIP3    H2 9022   1.561   2.396   3.340
 3020TIP3   OH2 9023   0.414   0.964   0.437
 3020TIP3    H1 9024   0.408   0.928   0.349
 3020TIP3    H2 9025   0.497   0.931   0.471
 3021TIP3   OH2 9026   4.245   2.700   1.725
 3021TIP3    H1 9027   4.160   2.743   1.728
 3021TIP3    H2 9028   4.301   2.762   1.678
 3022TIP3   OH2 9029   4.168   3.749   2.308
 3022TIP3    H1 9030   4.230   3.791   2.248
 3022TIP3    H2 9031   4.110   3.820   2.336
 3023TIP3   OH2 9032   2.231   1.961   5.498
 3023TIP3    H1 9033   2.317   1.992   5.469
 3023TIP3    H2 9034   2.249   1.881   5.547
 3024TIP3   OH2 9035   6.704   4.407   5.020
 3024TIP3    H1 9036   6.784   4.460   5.022
 3024TIP3    H2 9037   6.731   4.322   5.056
 3025TIP3   OH2 9038   6.335   1.247   4.934
 3025TIP3    H1 9039   6.255   1.222   4.889
 3025TIP3    H2 9040   6.404   1.202   4.886
 3026TIP3   OH2 9041   3.426   0.132   1.112
 3026TIP3    H1 9042   3.506   0.143   1.061
 3026TIP3    H2 9043   3.432   0.042   1.146
 3027TIP3   OH2 9044   0.790   3.685   5.733
 3027TIP3    H1 9045   0.733   3.741   5.785
 3027TIP3    H2 9046   0.732   3.646   5.667
 3028TIP3   OH2 9047   5.773   0.977   5.627
 3028TIP3    H1 9048   5.763   0.947   5.718
 3028TIP3    H2 9049   5.857   1.023   5.626
 3029TIP3   OH2 9050   2.943   3.327   2.632
 3029TIP3    H1 9051   2.910   3.320   2.722
 3029TIP3    H2 9052   2.874   3.290   2.578
 3030TIP3   OH2 9053   5.345   3.498   3.763
 3030TIP3    H1 9054   5.394   3.465   3.839
 3030TIP3    H2 9055   5.343   3.593   3.776
 3031TIP3   OH2 9056   6.393   3.990   2.415
 3031TIP3    H1 9057   6.456   3.932   2.457
 3031TIP3    H2 9058   6.436   4.020   2.335
 3032TIP3   OH2 9059   1.308   3.721   4.967
 3032TIP3    H1 9060   1.231   3.778   4.965
 3032TIP3    H2 9061   1.371   3.764   4.908
 3033TIP3   OH2 9062   4.475   0.296   2.269
 3033TIP3    H1 9063   4.523   0.367   2.226
 3033TIP3    H2 9064   4.397   0.338   2.305
 3034TIP3   OH2 9065   0.411   0.565   4.192
 3034TIP3    H1 9066   0.340   0.522   4.240
 3034TIP3    H2 9067   0.476   0.495   4.178
 3035TIP3   OH2 9068   1.397   5.706   4.307
 3035TIP3    H1 9069   1.487   5.736   4.295
 3035TIP3    H2 9070   1.394   5.675   4.398
 3036TIP3   OH2 9071   0.373   3.190   4.039
 3036TIP3    H1 9072   0.370   3.284   4.021
 3036TIP3    H2 9073   0.368   3.149   3.952
 3037TIP3   OH2 9074   4.379   6.412   0.424
 3037TIP3    H1 9075   4.368   6.343   0.490
 3037TIP3    H2 9076   4.473   6.415   0.407
 3038TIP3   OH2 9077   0.381   4.752   1.884
 3038TIP3    H1 9078   0.351   4.662   1.870
 3038TIP3    H2 9079   0.468   4.754   1.846
 3039TIP3   OH2 9080   5.304   6.744   2.666
 3039TIP3    H1 9081   5.370   6.814   2.663
 3039TIP3    H2 9082   5.232   6.778   2.614
 3040TIP3   OH2 9083   3.321   6.754   1.669
 3040TIP3    H1 9084   3.276   6.701   1.604
 3040TIP3    H2 9085   3.373   6.816   1.618
 3041TIP3   OH2 9086   1.203   4.555   4.426
 3041TIP3    H1 9087   1.245   4.586   4.346
 3041TIP3    H2 9088   1.180   4.635   4.473
 3042TIP3   OH2 9089   2.296   2.273   3.609
 3042TIP3    H1 9090   2.233   2.231   3.550
 3042TIP3    H2 9091   2.298   2.216   3.686
 3043TIP3   OH2 9092   0.805   0.696   2.919
 3043TIP3    H1 9093   0.854   0.768   2.881
 3043TIP3    H2 9094   0.827   0.699   3.012
 3044TIP3   OH2 9095   4.844   1.720   0.679
 3044TIP3    H1 9096   4.836   1.725   0.584
 3044TIP3    H2 9097   4.845   1.811   0.707
 3045TIP3   OH2 9098   1.368   5.764   4.614
 3045TIP3    H1 9099   1.365   5.670   4.632
 3045TIP3    H2 9100   1.438   5.797   4.671
 3046TIP3   OH2 9101   4.728   2.200   4.751
 3046TIP3    H1 9102   4.735   2.231   4.661
 3046TIP3    H2 9103   4.648   2.240   4.785
 3047TIP3   OH2 9104   6.183   0.368   3.582
 3047TIP3    H1 9105   6.185   0.461   3.557
 3047TIP3    H2 9106   6.272   0.348   3.608
 3048TIP3   OH2 9107   4.133   0.446   5.531
 3048TIP3    H1 9108   4.062   0.430   5.469
 3048TIP3    H2 9109   4.145   0.364   5.577
 3049TIP3   OH2 9110   4.800   0.292   4.466
 3049TIP3    H1 9111   4.717   0.299   4.419
 3049TIP3    H2 9112   4.864   0.331   4.408
 3050TIP3   OH2 9113   5.105   1.771   5.693
 3050TIP3    H1 9114   5.174   1.794   5.756
 3050TIP3    H2 9115   5.148   1.713   5.630
 3051TIP3   OH2 9116   5.224   2.807   5.546
 3051TIP3    H1 9117   5.226   2.712   5.541
 3051TIP3    H2 9118   5.191   2.835   5.461
 3052TIP3   OH2 9119   3.890   2.729   3.041
 3052TIP3    H1 9120   3.931   2.802   2.994
 3052TIP3    H2 9121   3.798   2.733   3.015
 3053TIP3   OH2 9122   3.296   6.045   4.380
 3053TIP3    H1 9123   3.223   6.103   4.401
 3053TIP3    H2 9124   3.344   6.036   4.462
 3054TIP3   OH2 9125   3.355   1.358   1.778
 3054TIP3    H1 9126   3.376   1.429   1.839
 3054TIP3    H2 9127   3.269   1.328   1.806
 3055TIP3   OH2 9128   4.704   3.117   5.543
 3055TIP3    H1 9129   4.771   3.152   5.485
 3055TIP3    H2 9130   4.712   3.022   5.534
 3056TIP3   OH2 9131   5.734   5.551   2.100
 3056TIP3    H1 9132   5.716   5.478   2.159
 3056TIP3    H2 9133   5.682   5.532   2.022
 3057TIP3   OH2 9134   1.926   4.214   3.942
 3057TIP3    H1 9135   1.983   4.193   4.016
 3057TIP3    H2 9136   1.963   4.294   3.905
 3058TIP3   OH2 9137   4.728   5.714   1.695
 3058TIP3    H1 9138   4.759   5.625   1.677
 3058TIP3    H2 9139   4.765   5.736   1.780
 3059TIP3   OH2 9140   3.301   0.685   1.762
 3059TIP3    H1 9141   3.234   0.731   1.813
 3059TIP3    H2 9142   3.371   0.667   1.825
 3060TIP3   OH2 9143   5.514   0.405   3.815
 3060TIP3    H1 9144   5.560   0.437   3.737
 3060TIP3    H2 9145   5.436   0.362   3.780
 3061TIP3   OH2 9146   6.122   3.015   0.668
 3061TIP3    H1 9147   6.162   3.088   0.714
 3061TIP3    H2 9148   6.190   2.986   0.607
 3062TIP3   OH2 9149   4.494   3.298   2.479
 3062TIP3    H1 9150   4.404   3.277   2.503
 3062TIP3    H2 9151   4.541   3.215   2.486
 3063TIP3   OH2 9152   4.189   0.791   2.321
 3063TIP3    H1 9153   4.242   0.752   2.252
 3063TIP3    H2 9154   4.184   0.724   2.389
 3064TIP3   OH2 9155   3.801   3.646   2.285
 3064TIP3    H1 9156   3.715   3.631   2.246
 3064TIP3    H2 9157   3.861   3.596   2.230
 3065TIP3   OH2 9158   6.954   3.564   1.902
 3065TIP3    H1 9159   7.033   3.584   1.853
 3065TIP3    H2 9160   6.916   3.489   1.857
 3066TIP3   OH2 9161   1.448   0.666   0.433
 3066TIP3    H1 9162   1.404   0.669   0.348
 3066TIP3    H2 9163   1.445   0.574   0.458
 3067TIP3   OH2 9164   6.595   1.887   2.578
 3067TIP3    H1 9165   6.594   1.915   2.486
 3067TIP3    H2 9166   6.510   1.847   2.592
 3068TIP3   OH2 9167   2.661   1.879   2.567
 3068TIP3    H1 9168   2.703   1.916   2.646
 3068TIP3    H2 9169   2.637   1.790   2.593
 3069TIP3   OH2 9170   5.302   4.276   4.360
 3069TIP3    H1 9171   5.209   4.266   4.383
 3069TIP3    H2 9172   5.301   4.305   4.269
 3070TIP3   OH2 9173   0.942   1.164   5.171
 3070TIP3    H1 9174   1.021   1.208   5.139
 3070TIP3    H2 9175   0.870   1.222   5.148
 3071TIP3   OH2 9176   3.883   4.264   2.861
 3071TIP3    H1 9177   3.851   4.315   2.935
 3071TIP3    H2 9178   3.922   4.186   2.900
 3072TIP3   OH2 9179  -0.007   0.931   3.104
 3072TIP3    H1 9180   0.000   0.994   3.032
 3072TIP3    H2 9181   0.046   0.968   3.174
 3073TIP3   OH2 9182   6.362   2.926   5.031
 3073TIP3    H1 9183   6.328   2.857   4.974
 3073TIP3    H2 9184   6.439   2.960   4.985
 3074TIP3   OH2 9185   2.302   1.784   0.179
 3074TIP3    H1 9186   2.385   1.737   0.191
 3074TIP3    H2 9187   2.329   1.870   0.146
 3075TIP3   OH2 9188   7.170   2.756   2.708
 3075TIP3    H1 9189   7.123   2.827   2.664
 3075TIP3    H2 9190   7.139   2.760   2.799
 3076TIP3   OH2 9191   4.679   0.173   3.457
 3076TIP3    H1 9192   4.721   0.253   3.489
 3076TIP3    H2 9193   4.585   0.192   3.461
 3077TIP3   OH2 9194   6.911   3.008   1.548
 3077TIP3    H1 9195   6.977   2.954   1.591
 3077TIP3    H2 9196   6.829   2.985   1.591
 3078TIP3   OH2 9197   3.083   2.558   5.370
 3078TIP3    H1 9198   3.088   2.648   5.337
 3078TIP3    H2 9199   2.999   2.526   5.337
 3079TIP3   OH2 9200   1.886   0.729   5.854
 3079TIP3    H1 9201   1.931   0.742   5.771
 3079TIP3    H2 9202   1.822   0.800   5.859
 3080TIP3   OH2 9203   0.265   0.391   0.324
 3080TIP3    H1 9204   0.319   0.373   0.247
 3080TIP3    H2 9205   0.227   0.477   0.306
 3081TIP3   OH2 9206   6.236   0.250   3.060
 3081TIP3    H1 9207   6.235   0.171   3.114
 3081TIP3    H2 9208   6.220   0.322   3.122
 3082TIP3   OH2 9209   4.639   1.354   4.067
 3082TIP3    H1 9210   4.624   1.440   4.106
 3082TIP3    H2 9211   4.561   1.303   4.089
 3083TIP3   OH2 9212   3.977   3.790   2.996
 3083TIP3    H1 9213   3.938   3.836   2.922
 3083TIP3    H2 9214   3.927   3.709   3.003
 3084TIP3   OH2 9215   5.380   5.164   4.023
 3084TIP3    H1 9216   5.470   5.190   4.001
 3084TIP3    H2 9217   5.376   5.071   4.000
 3085TIP3   OH2 9218   3.972   1.302   2.310
 3085TIP3    H1 9219   3.921   1.379   2.334
 3085TIP3    H2 9220   4.018   1.327   2.230
 3086TIP3   OH2 9221   6.571   4.696   4.786
 3086TIP3    H1 9222   6.530   4.620   4.744
 3086TIP3    H2 9223   6.561   4.679   4.880
 3087TIP3   OH2 9224   1.816   3.100   0.391
 3087TIP3    H1 9225   1.791   3.056   0.472
 3087TIP3    H2 9226   1.761   3.060   0.324
 3088TIP3   OH2 9227   1.433   0.977   0.624
 3088TIP3    H1 9228   1.416   1.010   0.536
 3088TIP3    H2 9229   1.524   1.003   0.642
 3089TIP3   OH2 9230   5.411   4.323   2.653
 3089TIP3    H1 9231   5.329   4.276   2.636
 3089TIP3    H2 9232   5.480   4.261   2.629
 3090TIP3   OH2 9233   1.414   4.951   2.012
 3090TIP3    H1 9234   1.395   4.953   2.106
 3090TIP3    H2 9235   1.464   5.031   1.996
 3091TIP3   OH2 9236   3.437   3.555   1.359
 3091TIP3    H1 9237   3.428   3.629   1.299
 3091TIP3    H2 9238   3.359   3.559   1.414
 3092TIP3   OH2 9239   4.802   4.871   2.873
 3092TIP3    H1 9240   4.739   4.929   2.916
 3092TIP3    H2 9241   4.788   4.786   2.915
 3093TIP3   OH2 9242   6.665   1.292   1.196
 3093TIP3    H1 9243   6.619   1.338   1.125
 3093TIP3    H2 9244   6.641   1.200   1.185
 3094TIP3   OH2 9245   6.683   2.653   1.598
 3094TIP3    H1 9246   6.777   2.636   1.593
 3094TIP3    H2 9247   6.651   2.590   1.662
 3095TIP3   OH2 9248   4.458   6.189   1.322
 3095TIP3    H1 9249   4.481   6.097   1.308
 3095TIP3    H2 9250   4.538   6.228   1.356
 3096TIP3   OH2 9251   6.664   5.018   1.637
 3096TIP3    H1 9252   6.624   4.992   1.554
 3096TIP3    H2 9253   6.758   5.016   1.620
 3097TIP3   OH2 9254   0.607   0.182   1.790
 3097TIP3    H1 9255   0.522   0.205   1.827
 3097TIP3    H2 9256   0.670   0.207   1.856
 3098TIP3   OH2 9257   3.871   3.935   3.984
 3098TIP3    H1 9258   3.919   3.940   4.067
 3098TIP3    H2 9259   3.779   3.932   4.010
 3099TIP3   OH2 9260   5.279  -0.002   4.975
 3099TIP3    H1 9261   5.296   0.040   4.891
 3099TIP3    H2 9262   5.296  -0.095   4.959
 3100TIP3   OH2 9263   0.582   3.367   2.141
 3100TIP3    H1 9264   0.543   3.406   2.063
 3100TIP3    H2 9265   0.673   3.351   2.118
 3101TIP3   OH2 9266   4.055   2.481   2.831
 3101TIP3    H1 9267   4.069   2.456   2.740
 3101TIP3    H2 9268   4.133   2.532   2.854
 3102TIP3   OH2 9269   4.572   2.030   1.510
 3102TIP3    H1 9270   4.569   2.005   1.603
 3102TIP3    H2 9271   4.491   2.080   1.496
 3103TIP3   OH2 9272   2.348   2.476   3.862
 3103TIP3    H1 9273   2.441   2.490   3.876
 3103TIP3    H2 9274   2.334   2.497   3.770
 3104TIP3   OH2 9275   5.621   0.565   2.191
 3104TIP3    H1 9276   5.621   0.653   2.228
 3104TIP3    H2 9277   5.658   0.576   2.103
 3105TIP3   OH2 9278   1.110   6.113   4.313
 3105TIP3    H1 9279   1.028   6.163   4.315
 3105TIP3    H2 9280   1.101   6.057   4.236
 3106TIP3   OH2 9281   3.639   5.009   1.938
 3106TIP3    H1 9282   3.679   5.089   1.903
 3106TIP3    H2 9283   3.627   4.954   1.861
 3107TIP3   OH2 9284   1.625   0.906   0.955
 3107TIP3    H1 9285   1.609   0.864   1.040
 3107TIP3    H2 9286   1.545   0.955   0.937
 3108TIP3   OH2 9287   6.807   3.455   1.159
 3108TIP3    H1 9288   6.754   3.436   1.237
 3108TIP3    H2 9289   6.773   3.537   1.125
 3109TIP3   OH2 9290   2.312   1.350   1.607
 3109TIP3    H1 9291   2.252   1.278   1.628
 3109TIP3    H2 9292   2.273   1.427   1.649
 3110TIP3   OH2 9293   4.416   3.942   2.725
 3110TIP3    H1 9294   4.486   3.888   2.689
 3110TIP3    H2 9295   4.458   4.023   2.752
 3111TIP3   OH2 9296   2.832   2.773   2.748
 3111TIP3    H1 9297   2.859   2.863   2.732
 3111TIP3    H2 9298   2.741   2.781   2.777
 3112TIP3   OH2 9299   1.273   5.934   2.009
 3112TIP3    H1 9300   1.293   5.973   1.924
 3112TIP3    H2 9301   1.273   6.008   2.070
 3113TIP3   OH2 9302   5.237   5.118   4.899
 3113TIP3    H1 9303   5.241   5.029   4.934
 3113TIP3    H2 9304   5.146   5.127   4.869
 3114TIP3   OH2 9305   1.462   4.724   4.616
 3114TIP3    H1 9306   1.542   4.776   4.605
 3114TIP3    H2 9307   1.490   4.634   4.603
 3115TIP3   OH2 9308   6.218   5.262   1.687
 3115TIP3    H1 9309   6.205   5.193   1.622
 3115TIP3    H2 9310   6.276   5.325   1.644
 3116TIP3   OH2 9311   1.790   6.735   4.372
 3116TIP3    H1 9312   1.815   6.653   4.415
 3116TIP3    H2 9313   1.842   6.802   4.416
 3117TIP3   OH2 9314   1.387   6.455   0.268
 3117TIP3    H1 9315   1.384   6.359   0.274
 3117TIP3    H2 9316   1.298   6.480   0.244
 3118TIP3   OH2 9317   1.740   0.193   5.364
 3118TIP3    H1 9318   1.753   0.280   5.327
 3118TIP3    H2 9319   1.698   0.210   5.449
 3119TIP3   OH2 9320   2.058   1.203   0.515
 3119TIP3    H1 9321   2.024   1.200   0.426
 3119TIP3    H2 9322   2.000   1.145   0.565
 3120TIP3   OH2 9323   3.185   3.427   2.564
 3120TIP3    H1 9324   3.214   3.494   2.626
 3120TIP3    H2 9325   3.106   3.391   2.604
 3121TIP3   OH2 9326   5.698   4.756   5.770
 3121TIP3    H1 9327   5.690   4.845   5.736
 3121TIP3    H2 9328   5.609   4.720   5.765
 3122TIP3   OH2 9329   1.247   6.079   2.254
 3122TIP3    H1 9330   1.325   6.134   2.256
 3122TIP3    H2 9331   1.179   6.131   2.296
 3123TIP3   OH2 9332   6.119   0.196   0.514
 3123TIP3    H1 9333   6.112   0.256   0.440
 3123TIP3    H2 9334   6.105   0.250   0.591
 3124TIP3   OH2 9335   4.396   3.817   3.611
 3124TIP3    H1 9336   4.389   3.804   3.705
 3124TIP3    H2 9337   4.475   3.870   3.600
 3125TIP3   OH2 9338   6.117   0.781   2.575
 3125TIP3    H1 9339   6.091   0.852   2.515
 3125TIP3    H2 9340   6.059   0.708   2.552
 3126TIP3   OH2 9341   5.397   0.040   3.827
 3126TIP3    H1 9342   5.334  -0.015   3.780
 3126TIP3    H2 9343   5.457   0.070   3.759
 3127TIP3   OH2 9344   1.099   2.467   4.648
 3127TIP3    H1 9345   1.063   2.546   4.608
 3127TIP3    H2 9346   1.193   2.471   4.629
 3128TIP3   OH2 9347   5.918   2.140   0.468
 3128TIP3    H1 9348   5.822   2.138   0.463
 3128TIP3    H2 9349   5.944   2.194   0.393
 3129TIP3   OH2 9350   5.709   1.885   1.822
 3129TIP3    H1 9351   5.643   1.875   1.754
 3129TIP3    H2 9352   5.734   1.795   1.845
 3130TIP3   OH2 9353   2.699   6.437   4.322
 3130TIP3    H1 9354   2.621   6.492   4.307
 3130TIP3    H2 9355   2.767   6.477   4.267
 3131TIP3   OH2 9356   3.185   5.682   0.652
 3131TIP3    H1 9357   3.108   5.624   0.655
 3131TIP3    H2 9358   3.237   5.657   0.729
 3132TIP3   OH2 9359   5.820   1.225   1.650
 3132TIP3    H1 9360   5.794   1.169   1.723
 3132TIP3    H2 9361   5.844   1.165   1.580
 3133TIP3   OH2 9362   1.540   0.700   5.500
 3133TIP3    H1 9363   1.474   0.688   5.432
 3133TIP3    H2 9364   1.518   0.635   5.567
 3134TIP3   OH2 9365   1.561   1.851   0.332
 3134TIP3    H1 9366   1.539   1.912   0.403
 3134TIP3    H2 9367   1.511   1.883   0.257
 3135TIP3   OH2 9368   6.546   2.261   3.147
 3135TIP3    H1 9369   6.567   2.199   3.078
 3135TIP3    H2 9370   6.467   2.306   3.116
 3136TIP3   OH2 9371   0.544   5.530   2.450
 3136TIP3    H1 9372   0.626   5.523   2.402
 3136TIP3    H2 9373   0.570   5.534   2.542
 3137TIP3   OH2 9374   0.579   4.021   1.109
 3137TIP3    H1 9375   0.605   3.934   1.077
 3137TIP3    H2 9376   0.657   4.075   1.096
 3138TIP3   OH2 9377   5.970   1.466   2.302
 3138TIP3    H1 9378   6.025   1.387   2.305
 3138TIP3    H2 9379   5.882   1.433   2.286
 3139TIP3   OH2 9380   5.411   0.964   0.623
 3139TIP3    H1 9381   5.459   0.884   0.602
 3139TIP3    H2 9382   5.321   0.934   0.640
 3140TIP3   OH2 9383   3.209   4.301   2.038
 3140TIP3    H1 9384   3.171   4.356   2.107
 3140TIP3    H2 9385   3.267   4.241   2.084
 3141TIP3   OH2 9386   2.570   4.168   2.619
 3141TIP3    H1 9387   2.487   4.186   2.576
 3141TIP3    H2 9388   2.547   4.157   2.712
 3142TIP3   OH2 9389   2.774   1.363   1.883
 3142TIP3    H1 9390   2.783   1.342   1.790
 3142TIP3    H2 9391   2.782   1.458   1.888
 3143TIP3   OH2 9392   3.708   1.374   1.274
 3143TIP3    H1 9393   3.711   1.406   1.184
 3143TIP3    H2 9394   3.773   1.304   1.277
 3144TIP3   OH2 9395   4.970   2.693   2.827
 3144TIP3    H1 9396   4.952   2.738   2.910
 3144TIP3    H2 9397   5.058   2.720   2.803
 3145TIP3   OH2 9398   0.534   1.214   2.589
 3145TIP3    H1 9399   0.547   1.129   2.632
 3145TIP3    H2 9400   0.610   1.266   2.616
 3146TIP3   OH2 9401   0.148   2.289   0.115
 3146TIP3    H1 9402   0.078   2.230   0.142
 3146TIP3    H2 9403   0.112   2.337   0.041
 3147TIP3   OH2 9404   6.341   5.263   1.963
 3147TIP3    H1 9405   6.287   5.314   1.903
 3147TIP3    H2 9406   6.305   5.175   1.958
 3148TIP3   OH2 9407   3.844   4.914   3.444
 3148TIP3    H1 9408   3.769   4.969   3.421
 3148TIP3    H2 9409   3.805   4.837   3.487
 3149TIP3   OH2 9410   5.823   3.016   5.272
 3149TIP3    H1 9411   5.903   3.038   5.224
 3149TIP3    H2 9412   5.758   3.079   5.240
 3150TIP3   OH2 9413   6.705   5.800   4.388
 3150TIP3    H1 9414   6.724   5.814   4.295
 3150TIP3    H2 9415   6.613   5.775   4.389
 3151TIP3   OH2 9416   5.635   4.553   0.295
 3151TIP3    H1 9417   5.709   4.564   0.236
 3151TIP3    H2 9418   5.558   4.558   0.239
 3152TIP3   OH2 9419   0.508   5.836   2.393
 3152TIP3    H1 9420   0.515   5.805   2.303
 3152TIP3    H2 9421   0.415   5.860   2.403
 3153TIP3   OH2 9422   6.728   5.703   0.418
 3153TIP3    H1 9423   6.673   5.625   0.418
 3153TIP3    H2 9424   6.698   5.753   0.494
 3154TIP3   OH2 9425   1.531   2.944   1.175
 3154TIP3    H1 9426   1.498   2.868   1.223
 3154TIP3    H2 9427   1.590   2.987   1.236
 3155TIP3   OH2 9428   2.759   0.514   5.355
 3155TIP3    H1 9429   2.686   0.471   5.310
 3155TIP3    H2 9430   2.771   0.596   5.307
 3156TIP3   OH2 9431   6.612   2.511   0.036
 3156TIP3    H1 9432   6.525   2.492   0.001
 3156TIP3    H2 9433   6.662   2.431   0.021
 3157TIP3   OH2 9434   5.306   5.625   5.843
 3157TIP3    H1 9435   5.231   5.583   5.886
 3157TIP3    H2 9436   5.375   5.622   5.909
 3158TIP3   OH2 9437   7.110   3.371   2.643
 3158TIP3    H1 9438   7.080   3.301   2.700
 3158TIP3    H2 9439   7.035   3.430   2.636
 3159TIP3   OH2 9440   0.607   4.345   3.287
 3159TIP3    H1 9441   0.687   4.395   3.307
 3159TIP3    H2 9442   0.554   4.352   3.366
 3160TIP3   OH2 9443   0.442   0.762   2.229
 3160TIP3    H1 9444   0.523   0.754   2.278
 3160TIP3    H2 9445   0.457   0.713   2.149
 3161TIP3   OH2 9446   3.031   2.264   0.438
 3161TIP3    H1 9447   3.049   2.348   0.479
 3161TIP3    H2 9448   3.103   2.207   0.464
 3162TIP3   OH2 9449   5.364   2.588   3.173
 3162TIP3    H1 9450   5.284   2.549   3.209
 3162TIP3    H2 9451   5.353   2.682   3.185
 3163TIP3   OH2 9452   0.214   3.566   4.252
 3163TIP3    H1 9453   0.300   3.541   4.287
 3163TIP3    H2 9454   0.214   3.531   4.163
 3164TIP3   OH2 9455   3.388   3.212   1.453
 3164TIP3    H1 9456   3.387   3.164   1.370
 3164TIP3    H2 9457   3.478   3.244   1.461
 3165TIP3   OH2 9458   0.159   3.954   5.319
 3165TIP3    H1 9459   0.243   3.920   5.352
 3165TIP3    H2 9460   0.106   3.875   5.306
 3166TIP3   OH2 9461   1.071   4.702   1.717
 3166TIP3    H1 9462   1.025   4.734   1.794
 3166TIP3    H2 9463   1.120   4.625   1.747
 3167TIP3   OH2 9464   7.142   6.277   2.362
 3167TIP3    H1 9465   7.120   6.336   2.289
 3167TIP3    H2 9466   7.227   6.308   2.393
 3168TIP3   OH2 9467   3.092   3.021   1.376
 3168TIP3    H1 9468   3.099   3.088   1.308
 3168TIP3    H2 9469   3.033   3.058   1.441
 3169TIP3   OH2 9470   5.174   4.238   0.094
 3169TIP3    H1 9471   5.108   4.224   0.026
 3169TIP3    H2 9472   5.258   4.237   0.047
 3170TIP3   OH2 9473   6.467   4.449   2.107
 3170TIP3    H1 9474   6.500   4.522   2.054
 3170TIP3    H2 9475   6.483   4.371   2.054
 3171TIP3   OH2 9476   2.080   1.762   1.734
 3171TIP3    H1 9477   2.132   1.842   1.743
 3171TIP3    H2 9478   1.990   1.793   1.730
 3172TIP3   OH2 9479   2.549   2.589   5.640
 3172TIP3    H1 9480   2.559   2.504   5.683
 3172TIP3    H2 9481   2.533   2.650   5.712
 3173TIP3   OH2 9482   4.204   2.602   0.587
 3173TIP3    H1 9483   4.197   2.640   0.675
 3173TIP3    H2 9484   4.157   2.664   0.531
 3174TIP3   OH2 9485   3.841   2.332   4.478
 3174TIP3    H1 9486   3.863   2.349   4.569
 3174TIP3    H2 9487   3.832   2.237   4.473
 3175TIP3   OH2 9488   6.764   5.113   2.328
 3175TIP3    H1 9489   6.791   5.055   2.399
 3175TIP3    H2 9490   6.677   5.080   2.303
 3176TIP3   OH2 9491   6.359   1.500   5.245
 3176TIP3    H1 9492   6.319   1.510   5.332
 3176TIP3    H2 9493   6.395   1.586   5.225
 3177TIP3   OH2 9494   1.917   5.902   1.068
 3177TIP3    H1 9495   1.918   5.816   1.110
 3177TIP3    H2 9496   1.833   5.940   1.093
 3178TIP3   OH2 9497   5.410   3.674   0.756
 3178TIP3    H1 9498   5.462   3.695   0.678
 3178TIP3    H2 9499   5.353   3.749   0.768
 3179TIP3   OH2 9500   1.080   3.860   1.396
 3179TIP3    H1 9501   1.032   3.841   1.477
 3179TIP3    H2 9502   1.013   3.894   1.337
 3180TIP3   OH2 9503   3.454   4.085   4.471
 3180TIP3    H1 9504   3.506   4.069   4.392
 3180TIP3    H2 9505   3.505   4.150   4.519
 3181TIP3   OH2 9506   4.864   2.409   3.080
 3181TIP3    H1 9507   4.860   2.387   3.174
 3181TIP3    H2 9508   4.781   2.451   3.062
 3182TIP3   OH2 9509   5.178   5.017   3.150
 3182TIP3    H1 9510   5.197   5.000   3.057
 3182TIP3    H2 9511   5.147   5.107   3.152
 3183TIP3   OH2 9512   4.056   6.438   0.310
 3183TIP3    H1 9513   4.088   6.395   0.389
 3183TIP3    H2 9514   4.058   6.532   0.332
 3184TIP3   OH2 9515   1.567   5.772   0.856
 3184TIP3    H1 9516   1.631   5.702   0.841
 3184TIP3    H2 9517   1.485   5.737   0.823
 3185TIP3   OH2 9518   6.623   5.759   3.863
 3185TIP3    H1 9519   6.662   5.682   3.822
 3185TIP3    H2 9520   6.562   5.793   3.798
 3186TIP3   OH2 9521   2.113   3.321   3.842
 3186TIP3    H1 9522   2.067   3.394   3.802
 3186TIP3    H2 9523   2.084   3.321   3.933
 3187TIP3   OH2 9524   7.250   5.055   1.065
 3187TIP3    H1 9525   7.226   5.112   0.992
 3187TIP3    H2 9526   7.259   5.114   1.140
 3188TIP3   OH2 9527   7.012   1.040   5.596
 3188TIP3    H1 9528   6.981   1.004   5.513
 3188TIP3    H2 9529   6.990   1.133   5.591
 3189TIP3   OH2 9530   2.708   0.093   3.766
 3189TIP3    H1 9531   2.685   0.047   3.686
 3189TIP3    H2 9532   2.786   0.047   3.798
 3190TIP3   OH2 9533   6.111   4.269   5.494
 3190TIP3    H1 9534   6.016   4.262   5.481
 3190TIP3    H2 9535   6.128   4.363   5.492
 3191TIP3   OH2 9536   2.222   0.810   1.656
 3191TIP3    H1 9537   2.187   0.726   1.684
 3191TIP3    H2 9538   2.282   0.789   1.584
 3192TIP3   OH2 9539   3.188   1.779   4.750
 3192TIP3    H1 9540   3.171   1.796   4.657
 3192TIP3    H2 9541   3.105   1.797   4.793
 3193TIP3   OH2 9542   3.470   3.074   5.626
 3193TIP3    H1 9543   3.436   3.075   5.716
 3193TIP3    H2 9544   3.483   3.167   5.605
 3194TIP3   OH2 9545   6.795   5.169   5.702
 3194TIP3    H1 9546   6.770   5.133   5.617
 3194TIP3    H2 9547   6.789   5.264   5.691
 3195TIP3   OH2 9548   5.447   4.992   4.402
 3195TIP3    H1 9549   5.520   4.958   4.350
 3195TIP3    H2 9550   5.387   4.918   4.409
 3196TIP3   OH2 9551   2.159   0.033   3.337
 3196TIP3    H1 9552   2.175   0.118   3.295
 3196TIP3    H2 9553   2.242  -0.014   3.328
 3197TIP3   OH2 9554   1.409   4.667   0.451
 3197TIP3    H1 9555   1.414   4.652   0.357
 3197TIP3    H2 9556   1.352   4.743   0.461
 3198TIP3   OH2 9557   5.805   2.548   5.611
 3198TIP3    H1 9558   5.831   2.456   5.620
 3198TIP3    H2 9559   5.767   2.554   5.524
 3199TIP3   OH2 9560   6.642   2.697   4.042
 3199TIP3    H1 9561   6.570   2.761   4.041
 3199TIP3    H2 9562   6.682   2.705   3.956
 3200TIP3   OH2 9563   3.536   2.682   2.157
 3200TIP3    H1 9564   3.563   2.719   2.241
 3200TIP3    H2 9565   3.583   2.599   2.151
 3201TIP3   OH2 9566   2.907   1.003   0.393
 3201TIP3    H1 9567   2.973   0.996   0.324
 3201TIP3    H2 9568   2.956   1.029   0.471
 3202TIP3   OH2 9569   3.235   1.487   4.675
 3202TIP3    H1 9570   3.147   1.492   4.639
 3202TIP3    H2 9571   3.240   1.560   4.737
 3203TIP3   OH2 9572   1.002   2.736   3.541
 3203TIP3    H1 9573   1.033   2.645   3.550
 3203TIP3    H2 9574   0.961   2.755   3.625
 3204TIP3   OH2 9575   0.859   5.914   4.881
 3204TIP3    H1 9576   0.948   5.889   4.857
 3204TIP3    H2 9577   0.863   6.009   4.891
 3205TIP3   OH2 9578   2.133   1.921   2.075
 3205TIP3    H1 9579   2.059   1.860   2.085
 3205TIP3    H2 9580   2.155   1.916   1.982
 3206TIP3   OH2 9581   2.669   3.072   4.356
 3206TIP3    H1 9582   2.677   2.989   4.309
 3206TIP3    H2 9583   2.759   3.095   4.380
 3207TIP3   OH2 9584   0.460   0.922   0.971
 3207TIP3    H1 9585   0.534   0.969   0.934
 3207TIP3    H2 9586   0.425   0.981   1.038
 3208TIP3   OH2 9587   0.478   5.453  -0.027
 3208TIP3    H1 9588   0.481   5.358  -0.019
 3208TIP3    H2 9589   0.515   5.486   0.055
 3209TIP3   OH2 9590   0.143   0.184   0.882
 3209TIP3    H1 9591   0.188   0.207   0.801
 3209TIP3    H2 9592   0.173   0.095   0.902
 3210TIP3   OH2 9593   6.815   3.516   5.074
 3210TIP3    H1 9594   6.755   3.490   5.144
 3210TIP3    H2 9595   6.814   3.612   5.077
 3211TIP3   OH2 9596   3.662   4.472   0.162
 3211TIP3    H1 9597   3.662   4.412   0.236
 3211TIP3    H2 9598   3.672   4.559   0.201
 3212TIP3   OH2 9599   5.163   0.682   3.071
 3212TIP3    H1 9600   5.115   0.600   3.081
 3212TIP3    H2 9601   5.098   0.750   3.088
 3213TIP3   OH2 9602   2.358   4.087   0.519
 3213TIP3    H1 9603   2.447   4.111   0.492
 3213TIP3    H2 9604   2.309   4.083   0.437
 3214TIP3   OH2 9605   6.616   1.472   3.923
 3214TIP3    H1 9606   6.582   1.550   3.879
 3214TIP3    H2 9607   6.703   1.459   3.885
 3215TIP3   OH2 9608   2.165   5.506   0.353
 3215TIP3    H1 9609   2.106   5.558   0.298
 3215TIP3    H2 9610   2.241   5.489   0.296
 3216TIP3   OH2 9611   0.182   3.003   3.693
 3216TIP3    H1 9612   0.130   3.083   3.683
 3216TIP3    H2 9613   0.181   2.963   3.606
 3217TIP3   OH2 9614   4.035   3.388   0.516
 3217TIP3    H1 9615   3.943   3.365   0.502
 3217TIP3    H2 9616   4.071   3.400   0.428
 3218TIP3   OH2 9617   1.607   0.299   5.807
 3218TIP3    H1 9618   1.543   0.240   5.846
 3218TIP3    H2 9619   1.641   0.350   5.881
 3219TIP3   OH2 9620   2.315   5.379   3.264
 3219TIP3    H1 9621   2.229   5.399   3.299
 3219TIP3    H2 9622   2.326   5.285   3.279
 3220TIP3   OH2 9623   0.405   3.439   4.974
 3220TIP3    H1 9624   0.457   3.507   4.930
 3220TIP3    H2 9625   0.318   3.446   4.934
 3221TIP3   OH2 9626   4.494   6.601   3.210
 3221TIP3    H1 9627   4.535   6.688   3.214
 3221TIP3    H2 9628   4.472   6.589   3.118
 3222TIP3   OH2 9629   4.446   5.994   0.366
 3222TIP3    H1 9630   4.472   6.006   0.457
 3222TIP3    H2 9631   4.519   6.029   0.315
 3223TIP3   OH2 9632   2.213   3.778   1.236
 3223TIP3    H1 9633   2.196   3.861   1.279
 3223TIP3    H2 9634   2.288   3.742   1.283
 3224TIP3   OH2 9635   5.972   4.855   3.372
 3224TIP3    H1 9636   6.036   4.914   3.332
 3224TIP3    H2 9637   5.888   4.881   3.335
 3225TIP3   OH2 9638   0.937   4.772   4.334
 3225TIP3    H1 9639   0.990   4.763   4.255
 3225TIP3    H2 9640   1.000   4.764   4.406
 3226TIP3   OH2 9641   3.381   3.890   0.036
 3226TIP3    H1 9642   3.383   3.986   0.038
 3226TIP3    H2 9643   3.297   3.867   0.076
 3227TIP3   OH2 9644   3.962   6.198   5.700
 3227TIP3    H1 9645   3.924   6.113   5.725
 3227TIP3    H2 9646   3.940   6.256   5.773
 3228TIP3   OH2 9647   5.771   5.441   3.094
 3228TIP3    H1 9648   5.852   5.434   3.145
 3228TIP3    H2 9649   5.791   5.506   3.027
 3229TIP3   OH2 9650   3.126   6.374   0.771
 3229TIP3    H1 9651   3.118   6.309   0.701
 3229TIP3    H2 9652   3.163   6.451   0.727
 3230TIP3   OH2 9653   6.010   4.912   2.006
 3230TIP3    H1 9654   6.075   4.842   2.015
 3230TIP3    H2 9655   6.058   4.986   1.970
 3231TIP3   OH2 9656   4.707   0.692   5.750
 3231TIP3    H1 9657   4.655   0.652   5.681
 3231TIP3    H2 9658   4.784   0.727   5.706
 3232TIP3   OH2 9659   5.221   0.622   0.719
 3232TIP3    H1 9660   5.248   0.556   0.782
 3232TIP3    H2 9661   5.144   0.584   0.675
 3233TIP3   OH2 9662   4.909   5.849   2.964
 3233TIP3    H1 9663   4.969   5.775   2.966
 3233TIP3    H2 9664   4.894   5.866   2.871
 3234TIP3   OH2 9665   3.443   0.999   1.988
 3234TIP3    H1 9666   3.512   0.942   1.953
 3234TIP3    H2 9667   3.479   1.087   1.980
 3235TIP3   OH2 9668   4.320   0.602   4.584
 3235TIP3    H1 9669   4.364   0.671   4.535
 3235TIP3    H2 9670   4.386   0.573   4.647
 3236TIP3   OH2 9671   1.406   3.410   3.775
 3236TIP3    H1 9672   1.380   3.319   3.763
 3236TIP3    H2 9673   1.370   3.455   3.698
 3237TIP3   OH2 9674   2.801   3.790   0.732
 3237TIP3    H1 9675   2.874   3.733   0.709
 3237TIP3    H2 9676   2.838   3.878   0.733
 3238TIP3   OH2 9677   3.023   5.967   3.960
 3238TIP3    H1 9678   3.077   6.012   3.895
 3238TIP3    H2 9679   3.084   5.908   4.004
 3239TIP3   OH2 9680   1.631   3.282   2.967
 3239TIP3    H1 9681   1.581   3.204   2.946
 3239TIP3    H2 9682   1.637   3.281   3.063
 3240TIP3   OH2 9683   5.861   6.608   5.260
 3240TIP3    H1 9684   5.924   6.535   5.251
 3240TIP3    H2 9685   5.775   6.566   5.256
 3241TIP3   OH2 9686   3.614   5.243   5.769
 3241TIP3    H1 9687   3.522   5.268   5.760
 3241TIP3    H2 9688   3.636   5.202   5.685
 3242TIP3   OH2 9689   6.410   5.038   3.895
 3242TIP3    H1 9690   6.315   5.033   3.881
 3242TIP3    H2 9691   6.435   4.948   3.919
 3243TIP3   OH2 9692   6.778   2.740   0.922
 3243TIP3    H1 9693   6.827   2.809   0.877
 3243TIP3    H2 9694   6.695   2.781   0.946
 3244TIP3   OH2 9695   2.959   5.836   0.910
 3244TIP3    H1 9696   3.038   5.803   0.953
 3244TIP3    H2 9697   2.979   5.927   0.891
 3245TIP3   OH2 9698   4.524   4.423   4.412
 3245TIP3    H1 9699   4.604   4.435   4.464
 3245TIP3    H2 9700   4.555   4.399   4.325
 3246TIP3   OH2 9701   5.164   4.234   3.676
 3246TIP3    H1 9702   5.184   4.231   3.770
 3246TIP3    H2 9703   5.075   4.200   3.670
 3247TIP3   OH2 9704   1.836   4.527   1.838
 3247TIP3    H1 9705   1.858   4.550   1.748
 3247TIP3    H2 9706   1.807   4.610   1.877
 3248TIP3   OH2 9707   7.130   0.505   0.345
 3248TIP3    H1 9708   7.080   0.426   0.326
 3248TIP3    H2 9709   7.139   0.548   0.260
 3249TIP3   OH2 9710   3.444   2.562   1.689
 3249TIP3    H1 9711   3.385   2.616   1.743
 3249TIP3    H2 9712   3.385   2.513   1.631
 3250TIP3   OH2 9713   6.886   3.223   3.936
 3250TIP3    H1 9714   6.793   3.233   3.956
 3250TIP3    H2 9715   6.907   3.132   3.956
 3251TIP3   OH2 9716   2.116   2.179   0.654
 3251TIP3    H1 9717   2.028   2.216   0.655
 3251TIP3    H2 9718   2.173   2.254   0.671
 3252TIP3   OH2 9719   1.565   4.897   5.712
 3252TIP3    H1 9720   1.573   4.821   5.654
 3252TIP3    H2 9721   1.655   4.926   5.725
 3253TIP3   OH2 9722   7.116   5.749   4.094
 3253TIP3    H1 9723   7.159   5.663   4.093
 3253TIP3    H2 9724   7.067   5.750   4.176
 3254TIP3   OH2 9725   3.399   5.523   2.863
 3254TIP3    H1 9726   3.445   5.440   2.866
 3254TIP3    H2 9727   3.409   5.553   2.772
 3255TIP3   OH2 9728   2.865   0.503   0.836
 3255TIP3    H1 9729   2.810   0.486   0.913
 3255TIP3    H2 9730   2.855   0.597   0.820
 3256TIP3   OH2 9731   0.279   5.730   1.643
 3256TIP3    H1 9732   0.332   5.781   1.581
 3256TIP3    H2 9733   0.199   5.710   1.596
 3257TIP3   OH2 9734   4.173   0.141   4.734
 3257TIP3    H1 9735   4.229   0.128   4.810
 3257TIP3    H2 9736   4.221   0.101   4.662
 3258TIP3   OH2 9737   2.877   3.164   1.523
 3258TIP3    H1 9738   2.801   3.160   1.465
 3258TIP3    H2 9739   2.845   3.205   1.603
 3259TIP3   OH2 9740   2.315   6.391   3.628
 3259TIP3    H1 9741   2.347   6.443   3.555
 3259TIP3    H2 9742   2.383   6.399   3.695
 3260TIP3   OH2 9743   2.987   0.961   5.820
 3260TIP3    H1 9744   2.952   1.012   5.747
 3260TIP3    H2 9745   3.006   0.875   5.782
 3261TIP3   OH2 9746   6.066   5.884   1.008
 3261TIP3    H1 9747   6.099   5.915   1.092
 3261TIP3    H2 9748   5.990   5.939   0.990
 3262TIP3   OH2 9749   1.100   5.825   4.825
 3262TIP3    H1 9750   1.176   5.833   4.882
 3262TIP3    H2 9751   1.091   5.731   4.810
 3263TIP3   OH2 9752   3.645   1.769   3.364
 3263TIP3    H1 9753   3.623   1.814   3.446
 3263TIP3    H2 9754   3.644   1.676   3.387
 3264TIP3   OH2 9755   3.654   4.605   4.719
 3264TIP3    H1 9756   3.630   4.534   4.661
 3264TIP3    H2 9757   3.728   4.571   4.770
 3265TIP3   OH2 9758   5.557   5.476   4.693
 3265TIP3    H1 9759   5.517   5.405   4.643
 3265TIP3    H2 9760   5.640   5.493   4.649
 3266TIP3   OH2 9761   1.119   0.999   3.510
 3266TIP3    H1 9762   1.081   1.082   3.538
 3266TIP3    H2 9763   1.062   0.969   3.439
 3267TIP3   OH2 9764   1.708   6.115   5.528
 3267TIP3    H1 9765   1.778   6.077   5.581
 3267TIP3    H2 9766   1.746   6.129   5.442
 3268TIP3   OH2 9767   3.836   6.230   0.437
 3268TIP3    H1 9768   3.827   6.136   0.421
 3268TIP3    H2 9769   3.928   6.248   0.421
 3269TIP3   OH2 9770   6.361   6.746   5.784
 3269TIP3    H1 9771   6.335   6.794   5.705
 3269TIP3    H2 9772   6.368   6.814   5.852
 3270TIP3   OH2 9773   6.931   0.118   1.028
 3270TIP3    H1 9774   7.013   0.162   1.048
 3270TIP3    H2 9775   6.955   0.026   1.019
 3271TIP3   OH2 9776   4.980   5.125   1.987
 3271TIP3    H1 9777   4.993   5.196   2.049
 3271TIP3    H2 9778   5.060   5.072   1.992
 3272TIP3   OH2 9779   0.699   2.067   0.255
 3272TIP3    H1 9780   0.759   2.092   0.184
 3272TIP3    H2 9781   0.612   2.072   0.215
 3273TIP3   OH2 9782   6.085   5.411   5.847
 3273TIP3    H1 9783   6.091   5.455   5.932
 3273TIP3    H2 9784   6.003   5.442   5.810
 3274TIP3   OH2 9785   4.560   0.184   5.181
 3274TIP3    H1 9786   4.553   0.254   5.246
 3274TIP3    H2 9787   4.584   0.106   5.232
 3275TIP3   OH2 9788   4.332   3.770   5.759
 3275TIP3    H1 9789   4.277   3.750   5.683
 3275TIP3    H2 9790   4.409   3.813   5.722
 3276TIP3   OH2 9791   6.084   0.894   3.675
 3276TIP3    H1 9792   6.141   0.837   3.726
 3276TIP3    H2 9793   6.144   0.959   3.637
 3277TIP3   OH2 9794   5.916   0.331   5.564
 3277TIP3    H1 9795   5.902   0.237   5.562
 3277TIP3    H2 9796   5.992   0.343   5.622
 3278TIP3   OH2 9797   5.547   5.143   0.700
 3278TIP3    H1 9798   5.510   5.224   0.737
 3278TIP3    H2 9799   5.633   5.135   0.741
 3279TIP3   OH2 9800   1.608   0.051   2.132
 3279TIP3    H1 9801   1.581  -0.022   2.076
 3279TIP3    H2 9802   1.702   0.061   2.114
 3280TIP3   OH2 9803   0.937   5.443   5.068
 3280TIP3    H1 9804   0.857   5.423   5.018
 3280TIP3    H2 9805   0.981   5.511   5.016
 3281TIP3   OH2 9806   4.419   4.771   0.972
 3281TIP3    H1 9807   4.454   4.841   0.917
 3281TIP3    H2 9808   4.475   4.696   0.955
 3282TIP3   OH2 9809   7.017   3.342   3.073
 3282TIP3    H1 9810   7.080   3.343   3.145
 3282TIP3    H2 9811   7.024   3.429   3.034
 3283TIP3   OH2 9812   6.086   5.203   4.791
 3283TIP3    H1 9813   6.172   5.184   4.754
 3283TIP3    H2 9814   6.085   5.299   4.800
 3284TIP3   OH2 9815   3.378   4.087   4.761
 3284TIP3    H1 9816   3.319   4.109   4.833
 3284TIP3    H2 9817   3.321   4.072   4.686
 3285TIP3   OH2 9818   2.239   2.274   1.422
 3285TIP3    H1 9819   2.201   2.218   1.489
 3285TIP3    H2 9820   2.329   2.244   1.413
 3286TIP3   OH2 9821   2.023   3.284   2.522
 3286TIP3    H1 9822   2.076   3.265   2.444
 3286TIP3    H2 9823   2.074   3.349   2.570
 3287TIP3   OH2 9824   3.544   1.219   0.679
 3287TIP3    H1 9825   3.543   1.180   0.767
 3287TIP3    H2 9826   3.494   1.158   0.625
 3288TIP3   OH2 9827   0.473   1.612   0.818
 3288TIP3    H1 9828   0.549   1.666   0.837
 3288TIP3    H2 9829   0.433   1.597   0.904
 3289TIP3   OH2 9830   4.151   3.558   5.296
 3289TIP3    H1 9831   4.154   3.464   5.279
 3289TIP3    H2 9832   4.058   3.581   5.292
 3290TIP3   OH2 9833   0.075   1.587   2.523
 3290TIP3    H1 9834   0.130   1.653   2.566
 3290TIP3    H2 9835   0.136   1.534   2.472
 3291TIP3   OH2 9836   0.231   1.308   0.082
 3291TIP3    H1 9837   0.258   1.280  -0.006
 3291TIP3    H2 9838   0.196   1.228   0.122
 3292TIP3   OH2 9839   5.880   0.325   3.510
 3292TIP3    H1 9840   5.824   0.317   3.433
 3292TIP3    H2 9841   5.962   0.282   3.485
 3293TIP3   OH2 9842   2.320   2.942   1.234
 3293TIP3    H1 9843   2.363   2.857   1.240
 3293TIP3    H2 9844   2.349   2.978   1.150
 3294TIP3   OH2 9845   1.805   0.603   3.690
 3294TIP3    H1 9846   1.812   0.573   3.599
 3294TIP3    H2 9847   1.846   0.533   3.741
 3295TIP3   OH2 9848   0.635   2.552   2.990
 3295TIP3    H1 9849   0.637   2.457   2.987
 3295TIP3    H2 9850   0.543   2.575   3.005
 3296TIP3   OH2 9851   3.721   0.447   3.422
 3296TIP3    H1 9852   3.708   0.353   3.414
 3296TIP3    H2 9853   3.782   0.469   3.351
 3297TIP3   OH2 9854   3.870   5.056   2.828
 3297TIP3    H1 9855   3.836   5.057   2.918
 3297TIP3    H2 9856   3.954   5.012   2.835
 3298TIP3   OH2 9857   4.162   5.946   5.544
 3298TIP3    H1 9858   4.165   5.932   5.450
 3298TIP3    H2 9859   4.100   6.018   5.556
 3299TIP3   OH2 9860   1.060   0.400   0.510
 3299TIP3    H1 9861   1.039   0.308   0.526
 3299TIP3    H2 9862   1.077   0.436   0.597
 3300TIP3   OH2 9863   1.860   2.793   4.425
 3300TIP3    H1 9864   1.952   2.801   4.399
 3300TIP3    H2 9865   1.861   2.733   4.500
 3301TIP3   OH2 9866   5.441   0.907   5.212
 3301TIP3    H1 9867   5.503   0.862   5.269
 3301TIP3    H2 9868   5.468   0.999   5.215
 3302TIP3   OH2 9869   3.766   6.078   3.836
 3302TIP3    H1 9870   3.809   6.163   3.830
 3302TIP3    H2 9871   3.836   6.017   3.859
 3303TIP3   OH2 9872   3.605   1.041   1.657
 3303TIP3    H1 9873   3.511   1.053   1.643
 3303TIP3    H2 9874   3.612   0.962   1.710
 3304TIP3   OH2 9875   1.071   0.524   0.748
 3304TIP3    H1 9876   1.110   0.549   0.832
 3304TIP3    H2 9877   0.977   0.526   0.764
 3305TIP3   OH2 9878   4.366   5.302   3.921
 3305TIP3    H1 9879   4.375   5.384   3.873
 3305TIP3    H2 9880   4.324   5.242   3.859
 3306TIP3   OH2 9881   2.418   3.280   1.971
 3306TIP3    H1 9882   2.357   3.320   1.909
 3306TIP3    H2 9883   2.376   3.197   1.994
 3307TIP3   OH2 9884   3.727   6.623   4.739
 3307TIP3    H1 9885   3.672   6.622   4.817
 3307TIP3    H2 9886   3.815   6.640   4.772
 3308TIP3   OH2 9887   7.032   6.428   3.010
 3308TIP3    H1 9888   6.946   6.463   3.036
 3308TIP3    H2 9889   7.093   6.463   3.075
 3309TIP3   OH2 9890   0.807   0.699   1.653
 3309TIP3    H1 9891   0.862   0.777   1.650
 3309TIP3    H2 9892   0.854   0.639   1.711
 3310TIP3   OH2 9893   6.212   4.869   0.637
 3310TIP3    H1 9894   6.169   4.857   0.722
 3310TIP3    H2 9895   6.207   4.782   0.596
 3311TIP3   OH2 9896   6.898   4.910   4.675
 3311TIP3    H1 9897   6.835   4.971   4.635
 3311TIP3    H2 9898   6.918   4.848   4.605
 3312TIP3   OH2 9899   2.480   0.880   2.207
 3312TIP3    H1 9900   2.397   0.863   2.164
 3312TIP3    H2 9901   2.458   0.892   2.300
 3313TIP3   OH2 9902   4.950   0.536   1.694
 3313TIP3    H1 9903   4.873   0.497   1.734
 3313TIP3    H2 9904   4.925   0.626   1.675
 3314TIP3   OH2 9905   6.120   3.643   0.355
 3314TIP3    H1 9906   6.149   3.656   0.445
 3314TIP3    H2 9907   6.070   3.562   0.356
 3315TIP3   OH2 9908   0.816   4.643   0.622
 3315TIP3    H1 9909   0.902   4.684   0.610
 3315TIP3    H2 9910   0.778   4.642   0.534
 3316TIP3   OH2 9911   5.044   5.075   1.085
 3316TIP3    H1 9912   4.962   5.042   1.122
 3316TIP3    H2 9913   5.112   5.044   1.146
 3317TIP3   OH2 9914   2.252   1.648   2.340
 3317TIP3    H1 9915   2.204   1.569   2.365
 3317TIP3    H2 9916   2.275   1.633   2.248
 3318TIP3   OH2 9917   2.362   0.995   1.190
 3318TIP3    H1 9918   2.379   1.042   1.271
 3318TIP3    H2 9919   2.441   1.008   1.137
 3319TIP3   OH2 9920   4.751   6.743   4.435
 3319TIP3    H1 9921   4.721   6.822   4.481
 3319TIP3    H2 9922   4.723   6.756   4.345
 3320TIP3   OH2 9923   7.052   4.416   0.329
 3320TIP3    H1 9924   7.007   4.361   0.265
 3320TIP3    H2 9925   7.127   4.452   0.280
 3321TIP3   OH2 9926   7.132   3.083   4.036
 3321TIP3    H1 9927   7.136   3.030   4.115
 3321TIP3    H2 9928   7.129   3.173   4.068
 3322TIP3   OH2 9929   2.140   6.540   2.262
 3322TIP3    H1 9930   2.079   6.593   2.314
 3322TIP3    H2 9931   2.187   6.605   2.208
 3323TIP3   OH2 9932   7.107   4.358   5.613
 3323TIP3    H1 9933   7.049   4.285   5.589
 3323TIP3    H2 9934   7.180   4.316   5.658
 3324TIP3   OH2 9935   0.210   2.942   5.856
 3324TIP3    H1 9936   0.275   2.971   5.919
 3324TIP3    H2 9937   0.231   2.989   5.775
 3325TIP3   OH2 9938   5.108   5.471   1.198
 3325TIP3    H1 9939   5.068   5.450   1.114
 3325TIP3    H2 9940   5.197   5.500   1.175
 3326TIP3   OH2 9941   4.154   4.872   3.636
 3326TIP3    H1 9942   4.235   4.832   3.604
 3326TIP3    H2 9943   4.092   4.798   3.642
 3327TIP3   OH2 9944   3.529   2.582   0.876
 3327TIP3    H1 9945   3.524   2.507   0.817
 3327TIP3    H2 9946   3.451   2.633   0.857
 3328TIP3   OH2 9947   0.333   0.165   2.891
 3328TIP3    H1 9948   0.271   0.229   2.856
 3328TIP3    H2 9949   0.297   0.080   2.865
 3329TIP3   OH2 9950   1.875   0.691   4.660
 3329TIP3    H1 9951   1.890   0.725   4.748
 3329TIP3    H2 9952   1.917   0.754   4.602
 3330TIP3   OH2 9953   3.202   3.198   5.126
 3330TIP3    H1 9954   3.156   3.115   5.141
 3330TIP3    H2 9955   3.250   3.214   5.207
 3331TIP3   OH2 9956   5.291   3.628   2.711
 3331TIP3    H1 9957   5.374   3.674   2.708
 3331TIP3    H2 9958   5.228   3.690   2.673
 3332TIP3   OH2 9959   7.139   5.232   4.184
 3332TIP3    H1 9960   7.189   5.272   4.255
 3332TIP3    H2 9961   7.159   5.285   4.107
 3333TIP3   OH2 9962   0.032   3.889   1.760
 3333TIP3    H1 9963  -0.023   3.900   1.683
 3333TIP3    H2 9964   0.014   3.799   1.790
 3334TIP3   OH2 9965   3.347   2.586   0.573
 3334TIP3    H1 9966   3.286   2.531   0.623
 3334TIP3    H2 9967   3.309   2.674   0.579
 3335TIP3   OH2 9968   6.816   2.925   2.482
 3335TIP3    H1 9969   6.779   2.865   2.417
 3335TIP3    H2 9970   6.775   2.899   2.565
 3336TIP3   OH2 9971   3.909   3.654   5.362
 3336TIP3    H1 9972   3.872   3.659   5.450
 3336TIP3    H2 9973   3.833   3.649   5.304
 3337TIP3   OH2 9974   2.153   5.169   5.468
 3337TIP3    H1 9975   2.238   5.203   5.442
 3337TIP3    H2 9976   2.165   5.074   5.472
 3338TIP3   OH2 9977   6.010   1.428   5.770
 3338TIP3    H1 9978   5.917   1.405   5.771
 3338TIP3    H2 9979   6.012   1.523   5.779
 3339TIP3   OH2 9980   2.276   5.998   3.425
 3339TIP3    H1 9981   2.318   6.005   3.339
 3339TIP3    H2 9982   2.311   6.072   3.475
 3340TIP3   OH2 9983   6.400   5.109   4.976
 3340TIP3    H1 9984   6.360   5.123   4.890
 3340TIP3    H2 9985   6.493   5.123   4.962
 3341TIP3   OH2 9986   3.661   2.804   1.468
 3341TIP3    H1 9987   3.633   2.713   1.478
 3341TIP3    H2 9988   3.591   2.845   1.416
 3342TIP3   OH2 9989   1.181   0.204   4.376
 3342TIP3    H1 9990   1.249   0.201   4.308
 3342TIP3    H2 9991   1.100   0.219   4.327
 3343TIP3   OH2 9992   3.268   1.366   4.136
 3343TIP3    H1 9993   3.319   1.444   4.115
 3343TIP3    H2 9994   3.199   1.397   4.193
 3344TIP3   OH2 9995   2.487   3.254   5.544
 3344TIP3    H1 9996   2.458   3.180   5.490
 3344TIP3    H2 9997   2.487   3.328   5.484
 3345TIP3   OH2 9998   4.983   0.412   2.271
 3345TIP3    H1 9999   5.042   0.438   2.201
 3345TIP3    H210000   4.939   0.492   2.298
 3346TIP3   OH210001   5.723   3.314   4.123
 3346TIP3    H110002   5.706   3.333   4.216
 3346TIP3    H210003   5.818   3.310   4.116
 3347TIP3   OH210004   0.702   5.431   0.580
 3347TIP3    H110005   0.662   5.515   0.557
 3347TIP3    H210006   0.748   5.448   0.662
 3348TIP3   OH210007   4.982   0.090   3.291
 3348TIP3    H110008   4.906   0.095   3.348
 3348TIP3    H210009   5.009  -0.002   3.293
 3349TIP3   OH210010   1.843   1.768   0.071
 3349TIP3    H110011   1.768   1.712   0.092
 3349TIP3    H210012   1.859   1.818   0.151
 3350TIP3   OH210013   1.384   2.846   3.705
 3350TIP3    H110014   1.332   2.852   3.785
 3350TIP3    H210015   1.468   2.808   3.734
 3351TIP3   OH210016   5.408   1.864   2.795
 3351TIP3    H110017   5.352   1.939   2.777
 3351TIP3    H210018   5.351   1.788   2.785
 3352TIP3   OH210019   6.637   6.745   0.859
 3352TIP3    H110020   6.565   6.689   0.889
 3352TIP3    H210021   6.625   6.750   0.765
 3353TIP3   OH210022   7.023   1.605   4.647
 3353TIP3    H110023   7.106   1.615   4.601
 3353TIP3    H210024   6.973   1.684   4.624
 3354TIP3   OH210025   0.166   3.484   3.570
 3354TIP3    H110026   0.107   3.558   3.585
 3354TIP3    H210027   0.251   3.514   3.603
 3355TIP3   OH210028   5.876   0.058   5.532
 3355TIP3    H110029   5.929   0.028   5.606
 3355TIP3    H210030   5.936   0.056   5.457
 3356TIP3   OH210031   4.472   0.735   1.578
 3356TIP3    H110032   4.392   0.725   1.526
 3356TIP3    H210033   4.456   0.683   1.657
 3357TIP3   OH210034   2.494   5.049   1.309
 3357TIP3    H110035   2.516   5.136   1.275
 3357TIP3    H210036   2.398   5.049   1.314
 3358TIP3   OH210037   4.088   3.568   4.013
 3358TIP3    H110038   4.142   3.605   4.084
 3358TIP3    H210039   4.049   3.489   4.050
 3359TIP3   OH210040   0.306   3.640   3.129
 3359TIP3    H110041   0.328   3.730   3.102
 3359TIP3    H210042   0.375   3.586   3.089
 3360TIP3   OH210043   5.735   3.965   0.188
 3360TIP3    H110044   5.814   3.918   0.214
 3360TIP3    H210045   5.749   4.055   0.219
 3361TIP3   OH210046   4.653   6.408   0.543
 3361TIP3    H110047   4.745   6.434   0.549
 3361TIP3    H210048   4.619   6.421   0.632
 3362TIP3   OH210049   5.323   4.362   4.054
 3362TIP3    H110050   5.284   4.421   3.990
 3362TIP3    H210051   5.415   4.357   4.029
 3363TIP3   OH210052   4.648   4.139   5.797
 3363TIP3    H110053   4.659   4.164   5.888
 3363TIP3    H210054   4.633   4.045   5.799
 3364TIP3   OH210055   6.294   5.153   3.564
 3364TIP3    H110056   6.317   5.245   3.547
 3364TIP3    H210057   6.268   5.151   3.656
 3365TIP3   OH210058   6.576   1.918   1.072
 3365TIP3    H110059   6.666   1.894   1.050
 3365TIP3    H210060   6.522   1.852   1.028
 3366TIP3   OH210061   3.503   6.520   2.424
 3366TIP3    H110062   3.515   6.453   2.357
 3366TIP3    H210063   3.572   6.584   2.406
 3367TIP3   OH210064   4.439   5.614   3.527
 3367TIP3    H110065   4.469   5.529   3.494
 3367TIP3    H210066   4.448   5.673   3.452
 3368TIP3   OH210067   5.477   5.735   2.708
 3368TIP3    H110068   5.482   5.774   2.621
 3368TIP3    H210069   5.534   5.790   2.763
 3369TIP3   OH210070   3.418   5.926   1.036
 3369TIP3    H110071   3.499   5.902   1.082
 3369TIP3    H210072   3.406   6.019   1.055
 3370TIP3   OH210073   0.476   5.725   2.151
 3370TIP3    H110074   0.435   5.652   2.104
 3370TIP3    H210075   0.464   5.800   2.094
 3371TIP3   OH210076   0.780   3.256   0.504
 3371TIP3    H110077   0.815   3.202   0.576
 3371TIP3    H210078   0.807   3.345   0.527
 3372TIP3   OH210079   2.136   2.691   3.917
 3372TIP3    H110080   2.209   2.631   3.935
 3372TIP3    H210081   2.177   2.777   3.909
 3373TIP3   OH210082   1.005   2.381   4.125
 3373TIP3    H110083   1.012   2.474   4.145
 3373TIP3    H210084   1.044   2.337   4.200
 3374TIP3   OH210085   6.184   4.526   4.460
 3374TIP3    H110086   6.093   4.549   4.439
 3374TIP3    H210087   6.225   4.609   4.485
 3375TIP3   OH210088   3.666   1.063   5.806
 3375TIP3    H110089   3.631   1.014   5.880
 3375TIP3    H210090   3.760   1.072   5.826
 3376TIP3   OH210091   2.466   3.427   3.072
 3376TIP3    H110092   2.371   3.417   3.068
 3376TIP3    H210093   2.481   3.486   3.146
 3377TIP3   OH210094   2.745   3.866   5.633
 3377TIP3    H110095   2.805   3.793   5.644
 3377TIP3    H210096   2.775   3.910   5.553
 3378TIP3   OH210097   6.296   1.795   4.707
 3378TIP3    H110098   6.253   1.711   4.721
 3378TIP3    H210099   6.253   1.833   4.630
 3379TIP3   OH210100   5.757   0.598   3.060
 3379TIP3    H110101   5.812   0.555   2.995
 3379TIP3    H210102   5.701   0.657   3.010
 3380TIP3   OH210103   0.337   2.027   3.782
 3380TIP3    H110104   0.395   2.057   3.712
 3380TIP3    H210105   0.387   1.959   3.827
 3381TIP3   OH210106   6.255   5.664   2.512
 3381TIP3    H110107   6.329   5.605   2.500
 3381TIP3    H210108   6.178   5.612   2.487
 3382TIP3   OH210109   0.202   4.851   0.378
 3382TIP3    H110110   0.228   4.887   0.463
 3382TIP3    H210111   0.106   4.852   0.380
 3383TIP3   OH210112   2.594   5.454   3.026
 3383TIP3    H110113   2.632   5.429   3.110
 3383TIP3    H210114   2.669   5.471   2.969
 3384TIP3   OH210115   1.406   0.722   0.736
 3384TIP3    H110116   1.442   0.810   0.734
 3384TIP3    H210117   1.395   0.699   0.643
 3385TIP3   OH210118   1.485   2.182   0.362
 3385TIP3    H110119   1.458   2.220   0.445
 3385TIP3    H210120   1.566   2.228   0.339
 3386TIP3   OH210121   2.255   1.002   0.578
 3386TIP3    H110122   2.201   0.926   0.597
 3386TIP3    H210123   2.194   1.076   0.576
 3387TIP3   OH210124   3.213   4.796   0.329
 3387TIP3    H110125   3.263   4.723   0.366
 3387TIP3    H210126   3.273   4.838   0.268
 3388TIP3   OH210127   7.225   4.039   2.276
 3388TIP3    H110128   7.165   4.111   2.294
 3388TIP3    H210129   7.243   4.046   2.182
 3389TIP3   OH210130   1.123   0.013   5.433
 3389TIP3    H110131   1.094  -0.049   5.366
 3389TIP3    H210132   1.138  -0.040   5.511
 3390TIP3   OH210133   3.576   6.335   2.227
 3390TIP3    H110134   3.662   6.338   2.270
 3390TIP3    H210135   3.588   6.382   2.145
 3391TIP3   OH210136   2.619   2.006   0.273
 3391TIP3    H110137   2.655   2.085   0.313
 3391TIP3    H210138   2.614   1.943   0.345
 3392TIP3   OH210139   2.006   0.483   2.604
 3392TIP3    H110140   2.068   0.549   2.636
 3392TIP3    H210141   1.992   0.426   2.680
 3393TIP3   OH210142   5.326   1.837   0.644
 3393TIP3    H110143   5.245   1.788   0.628
 3393TIP3    H210144   5.396   1.775   0.626
 3394TIP3   OH210145   6.280   3.585   5.628
 3394TIP3    H110146   6.240   3.575   5.541
 3394TIP3    H210147   6.264   3.501   5.671
 3395TIP3   OH210148   4.463   0.856   4.781
 3395TIP3    H110149   4.474   0.860   4.686
 3395TIP3    H210150   4.373   0.827   4.794
 3396TIP3   OH210151   6.939   2.741   0.333
 3396TIP3    H110152   6.875   2.729   0.403
 3396TIP3    H210153   6.891   2.723   0.252
 3397TIP3   OH210154   1.918   3.013   2.165
 3397TIP3    H110155   1.959   3.029   2.080
 3397TIP3    H210156   1.824   3.009   2.145
 3398TIP3   OH210157   3.954   1.164   5.832
 3398TIP3    H110158   3.994   1.205   5.755
 3398TIP3    H210159   3.910   1.237   5.878
 3399TIP3   OH210160   3.749   3.327   1.142
 3399TIP3    H110161   3.784   3.287   1.063
 3399TIP3    H210162   3.821   3.381   1.175
 3400TIP3   OH210163   6.867   0.855   3.765
 3400TIP3    H110164   6.830   0.941   3.787
 3400TIP3    H210165   6.885   0.815   3.850
 3401TIP3   OH210166   1.370   0.245   2.949
 3401TIP3    H110167   1.344   0.336   2.935
 3401TIP3    H210168   1.347   0.201   2.866
 3402TIP3   OH210169   4.007   5.039   3.242
 3402TIP3    H110170   3.950   5.070   3.171
 3402TIP3    H210171   3.946   5.010   3.310
 3403TIP3   OH210172   0.216   0.371   2.575
 3403TIP3    H110173   0.252   0.427   2.644
 3403TIP3    H210174   0.244   0.413   2.493
 3404TIP3   OH210175   6.056   6.341   3.077
 3404TIP3    H110176   5.969   6.366   3.105
 3404TIP3    H210177   6.055   6.352   2.981
 3405TIP3   OH210178   4.759   0.955   1.109
 3405TIP3    H110179   4.768   1.050   1.105
 3405TIP3    H210180   4.736   0.936   1.200
 3406TIP3   OH210181   1.709   4.169   3.048
 3406TIP3    H110182   1.786   4.191   2.995
 3406TIP3    H210183   1.733   4.194   3.137
 3407TIP3   OH210184   0.769   2.775   2.834
 3407TIP3    H110185   0.691   2.720   2.837
 3407TIP3    H210186   0.780   2.795   2.741
 3408TIP3   OH210187   5.867   2.346   0.951
 3408TIP3    H110188   5.813   2.425   0.943
 3408TIP3    H210189   5.934   2.370   1.015
 3409TIP3   OH210190   0.828   6.612   1.013
 3409TIP3    H110191   0.870   6.658   0.940
 3409TIP3    H210192   0.878   6.640   1.090
 3410TIP3   OH210193   4.997   5.344   0.943
 3410TIP3    H110194   5.048   5.264   0.956
 3410TIP3    H210195   4.982   5.347   0.848
 3411TIP3   OH210196   4.262   5.829   0.798
 3411TIP3    H110197   4.264   5.822   0.893
 3411TIP3    H210198   4.206   5.904   0.780
 3412TIP3   OH210199   2.731   2.219   2.280
 3412TIP3    H110200   2.750   2.256   2.194
 3412TIP3    H210201   2.788   2.142   2.286
 3413TIP3   OH210202   4.823   3.910   5.583
 3413TIP3    H110203   4.731   3.902   5.606
 3413TIP3    H210204   4.863   3.827   5.611
 3414TIP3   OH210205   2.149   1.624   5.850
 3414TIP3    H110206   2.057   1.615   5.824
 3414TIP3    H210207   2.146   1.652   5.941
 3415TIP3   OH210208   7.052   1.298   2.857
 3415TIP3    H110209   6.996   1.276   2.782
 3415TIP3    H210210   7.086   1.385   2.837
 3416TIP3   OH210211   0.519   5.916   3.158
 3416TIP3    H110212   0.493   5.975   3.229
 3416TIP3    H210213   0.594   5.960   3.118
 3417TIP3   OH210214   0.157   4.863   0.905
 3417TIP3    H110215   0.111   4.940   0.937
 3417TIP3    H210216   0.182   4.816   0.984
 3418TIP3   OH210217   4.893   1.300   5.296
 3418TIP3    H110218   4.814   1.352   5.282
 3418TIP3    H210219   4.869   1.212   5.266
 3419TIP3   OH210220   5.183   1.278   4.351
 3419TIP3    H110221   5.143   1.316   4.273
 3419TIP3    H210222   5.198   1.186   4.328
 3420TIP3   OH210223   6.204   1.552   1.854
 3420TIP3    H110224   6.153   1.631   1.869
 3420TIP3    H210225   6.199   1.537   1.760
 3421TIP3   OH210226   6.451   1.626   2.141
 3421TIP3    H110227   6.385   1.615   2.210
 3421TIP3    H210228   6.419   1.700   2.089
 3422TIP3   OH210229   3.529   4.495   2.274
 3422TIP3    H110230   3.533   4.590   2.282
 3422TIP3    H210231   3.614   4.464   2.306
 3423TIP3   OH210232   3.064   1.151   1.620
 3423TIP3    H110233   3.107   1.186   1.699
 3423TIP3    H210234   3.017   1.074   1.651
 3424TIP3   OH210235   2.182   6.118   5.835
 3424TIP3    H110236   2.271   6.154   5.842
 3424TIP3    H210237   2.140   6.141   5.917
 3425TIP3   OH210238   1.897   2.217   5.442
 3425TIP3    H110239   1.880   2.298   5.491
 3425TIP3    H210240   1.845   2.226   5.362
 3426TIP3   OH210241   1.132   3.216   5.060
 3426TIP3    H110242   1.220   3.241   5.033
 3426TIP3    H210243   1.146   3.153   5.131
 3427TIP3   OH210244   5.227   5.932   3.687
 3427TIP3    H110245   5.263   5.933   3.598
 3427TIP3    H210246   5.224   5.839   3.711
 3428TIP3   OH210247   4.159   5.730   5.806
 3428TIP3    H110248   4.075   5.727   5.761
 3428TIP3    H210249   4.161   5.650   5.858
 3429TIP3   OH210250   5.460   4.004   0.857
 3429TIP3    H110251   5.485   4.083   0.906
 3429TIP3    H210252   5.365   4.012   0.847
 3430TIP3   OH210253   0.226   6.350   1.504
 3430TIP3    H110254   0.287   6.283   1.473
 3430TIP3    H210255   0.146   6.301   1.524
 3431TIP3   OH210256   1.850   5.889   0.328
 3431TIP3    H110257   1.789   5.878   0.401
 3431TIP3    H210258   1.795   5.897   0.251
 3432TIP3   OH210259   2.049   1.578   1.159
 3432TIP3    H110260   1.955   1.589   1.142
 3432TIP3    H210261   2.054   1.503   1.217
 3433TIP3   OH210262   4.262   2.508   2.354
 3433TIP3    H110263   4.236   2.596   2.379
 3433TIP3    H210264   4.179   2.461   2.341
 3434TIP3   OH210265   4.683   2.846   4.245
 3434TIP3    H110266   4.705   2.753   4.237
 3434TIP3    H210267   4.651   2.856   4.334
 3435TIP3   OH210268   3.315   1.224   1.196
 3435TIP3    H110269   3.394   1.202   1.245
 3435TIP3    H210270   3.246   1.170   1.235
 3436TIP3   OH210271   4.013   2.460   4.903
 3436TIP3    H110272   3.977   2.473   4.990
 3436TIP3    H210273   4.027   2.548   4.869
 3437TIP3   OH210274   6.506   6.580   1.510
 3437TIP3    H110275   6.513   6.510   1.575
 3437TIP3    H210276   6.518   6.535   1.426
 3438TIP3   OH210277   2.874   6.178   3.544
 3438TIP3    H110278   2.888   6.249   3.607
 3438TIP3    H210279   2.789   6.198   3.504
 3439TIP3   OH210280   1.973   1.732   3.204
 3439TIP3    H110281   2.022   1.773   3.133
 3439TIP3    H210282   1.916   1.668   3.161
 3440TIP3   OH210283   2.057   3.411   4.100
 3440TIP3    H110284   2.088   3.397   4.189
 3440TIP3    H210285   2.104   3.488   4.070
 3441TIP3   OH210286   2.275   1.249   4.742
 3441TIP3    H110287   2.355   1.279   4.698
 3441TIP3    H210288   2.264   1.310   4.815
 3442TIP3   OH210289   4.932   6.570   3.520
 3442TIP3    H110290   4.847   6.558   3.563
 3442TIP3    H210291   4.911   6.615   3.438
 3443TIP3   OH210292   3.518   1.104   1.328
 3443TIP3    H110293   3.602   1.148   1.318
 3443TIP3    H210294   3.501   1.107   1.422
 3444TIP3   OH210295   6.711   1.454   1.448
 3444TIP3    H110296   6.677   1.398   1.379
 3444TIP3    H210297   6.758   1.523   1.402
 3445TIP3   OH210298   3.619   0.296   1.555
 3445TIP3    H110299   3.558   0.333   1.491
 3445TIP3    H210300   3.601   0.202   1.554
 3446TIP3   OH210301   3.071   0.685   2.151
 3446TIP3    H110302   3.102   0.737   2.077
 3446TIP3    H210303   3.138   0.698   2.219
 3447TIP3   OH210304   5.855   1.670   4.859
 3447TIP3    H110305   5.904   1.705   4.785
 3447TIP3    H210306   5.763   1.688   4.837
 3448TIP3   OH210307   3.724   5.161   2.628
 3448TIP3    H110308   3.779   5.126   2.698
 3448TIP3    H210309   3.706   5.251   2.654
 3449TIP3   OH210310   5.691   0.261   4.941
 3449TIP3    H110311   5.732   0.178   4.915
 3449TIP3    H210312   5.764   0.324   4.943
 3450TIP3   OH210313   6.205   1.428   5.501
 3450TIP3    H110314   6.247   1.356   5.548
 3450TIP3    H210315   6.119   1.436   5.542
 3451TIP3   OH210316   2.363   6.705   0.850
 3451TIP3    H110317   2.305   6.675   0.920
 3451TIP3    H210318   2.420   6.631   0.832
 3452TIP3   OH210319   0.490   3.109   1.823
 3452TIP3    H110320   0.441   3.080   1.901
 3452TIP3    H210321   0.531   3.029   1.790
 3453TIP3   OH210322   5.894   1.552   3.168
 3453TIP3    H110323   5.930   1.534   3.255
 3453TIP3    H210324   5.911   1.472   3.118
 3454TIP3   OH210325   2.648   2.864   4.182
 3454TIP3    H110326   2.703   2.912   4.121
 3454TIP3    H210327   2.589   2.814   4.126
 3455TIP3   OH210328   6.383   5.503   0.433
 3455TIP3    H110329   6.311   5.444   0.407
 3455TIP3    H210330   6.462   5.462   0.398
 3456TIP3   OH210331   5.688   0.241   4.373
 3456TIP3    H110332   5.672   0.157   4.330
 3456TIP3    H210333   5.601   0.273   4.397
 3457TIP3   OH210334   0.488   1.062   5.026
 3457TIP3    H110335   0.525   0.985   4.983
 3457TIP3    H210336   0.444   1.027   5.104
 3458TIP3   OH210337   2.434   1.934   5.275
 3458TIP3    H110338   2.462   1.844   5.294
 3458TIP3    H210339   2.515   1.985   5.274
 3459TIP3   OH210340   2.218   2.881   3.417
 3459TIP3    H110341   2.245   2.949   3.355
 3459TIP3    H210342   2.144   2.838   3.374
 3460TIP3   OH210343   1.323   4.489   5.574
 3460TIP3    H110344   1.399   4.520   5.623
 3460TIP3    H210345   1.312   4.552   5.503
 3461TIP3   OH210346   5.620   2.036   2.859
 3461TIP3    H110347   5.546   2.047   2.918
 3461TIP3    H210348   5.594   1.964   2.802
 3462TIP3   OH210349   0.967   3.442   0.683
 3462TIP3    H110350   0.980   3.519   0.628
 3462TIP3    H210351   1.052   3.427   0.724
 3463TIP3   OH210352   4.549   1.557   1.070
 3463TIP3    H110353   4.563   1.519   1.158
 3463TIP3    H210354   4.625   1.613   1.056
 3464TIP3   OH210355   3.330   5.601   4.516
 3464TIP3    H110356   3.417   5.593   4.553
 3464TIP3    H210357   3.272   5.565   4.582
 3465TIP3   OH210358   3.190   2.214   1.450
 3465TIP3    H110359   3.206   2.129   1.490
 3465TIP3    H210360   3.116   2.200   1.391
 3466TIP3   OH210361   4.504   3.964   4.676
 3466TIP3    H110362   4.511   4.014   4.595
 3466TIP3    H210363   4.537   3.877   4.653
 3467TIP3   OH210364   0.448   1.232   0.811
 3467TIP3    H110365   0.359   1.198   0.825
 3467TIP3    H210366   0.441   1.284   0.730
 3468TIP3   OH210367   3.750   3.854   0.061
 3468TIP3    H110368   3.790   3.920   0.118
 3468TIP3    H210369   3.726   3.903  -0.018
 3469TIP3   OH210370   2.907   5.317   1.643
 3469TIP3    H110371   2.859   5.261   1.583
 3469TIP3    H210372   2.999   5.304   1.620
 3470TIP3   OH210373   2.818   5.731   2.032
 3470TIP3    H110374   2.887   5.697   1.975
 3470TIP3    H210375   2.840   5.698   2.119
 3471TIP3   OH210376   3.825   3.689   4.500
 3471TIP3    H110377   3.895   3.685   4.565
 3471TIP3    H210378   3.869   3.714   4.419
 3472TIP3   OH210379   5.880   0.788   1.525
 3472TIP3    H110380   5.872   0.699   1.559
 3472TIP3    H210381   5.791   0.824   1.533
 3473TIP3   OH210382   2.353   0.629   3.565
 3473TIP3    H110383   2.442   0.642   3.597
 3473TIP3    H210384   2.302   0.607   3.643
 3474TIP3   OH210385   7.022   1.942   2.406
 3474TIP3    H110386   7.073   1.914   2.330
 3474TIP3    H210387   7.030   1.870   2.469
 3475TIP3   OH210388   0.251   2.516   1.356
 3475TIP3    H110389   0.179   2.560   1.402
 3475TIP3    H210390   0.240   2.542   1.264
 3476TIP3   OH210391   5.460   4.547   5.458
 3476TIP3    H110392   5.422   4.632   5.436
 3476TIP3    H210393   5.547   4.568   5.494
 3477TIP3   OH210394   4.023   0.927   0.837
 3477TIP3    H110395   3.986   0.847   0.801
 3477TIP3    H210396   4.116   0.908   0.849
 3478TIP3   OH210397   6.922   2.274   5.605
 3478TIP3    H110398   6.948   2.288   5.514
 3478TIP3    H210399   6.982   2.331   5.655
 3479TIP3   OH210400   5.513   1.582   3.440
 3479TIP3    H110401   5.441   1.570   3.502
 3479TIP3    H210402   5.472   1.575   3.354
 3480TIP3   OH210403   5.111   3.215   5.094
 3480TIP3    H110404   5.147   3.232   5.181
 3480TIP3    H210405   5.171   3.260   5.034
 3481TIP3   OH210406   0.035   4.751   1.679
 3481TIP3    H110407   0.053   4.671   1.728
 3481TIP3    H210408   0.120   4.776   1.642
 3482TIP3   OH210409   0.839   2.136   5.557
 3482TIP3    H110410   0.823   2.174   5.644
 3482TIP3    H210411   0.895   2.200   5.513
 3483TIP3   OH210412   6.078   0.005   5.691
 3483TIP3    H110413   6.143   0.018   5.622
 3483TIP3    H210414   6.113   0.053   5.766
 3484TIP3   OH210415   0.761   5.345   3.586
 3484TIP3    H110416   0.843   5.330   3.633
 3484TIP3    H210417   0.701   5.378   3.653
 3485TIP3   OH210418   6.870   2.986   4.341
 3485TIP3    H110419   6.847   2.907   4.390
 3485TIP3    H210420   6.965   2.981   4.331
 3486TIP3   OH210421   1.169   3.981   0.699
 3486TIP3    H110422   1.174   3.996   0.605
 3486TIP3    H210423   1.094   3.922   0.709
 3487TIP3   OH210424   3.561   3.304   4.015
 3487TIP3    H110425   3.641   3.288   4.064
 3487TIP3    H210426   3.500   3.237   4.045
 3488TIP3   OH210427   5.279   1.332   5.063
 3488TIP3    H110428   5.322   1.263   5.012
 3488TIP3    H210429   5.335   1.408   5.052
 3489TIP3   OH210430   5.871   2.988   2.823
 3489TIP3    H110431   5.784   3.012   2.855
 3489TIP3    H210432   5.898   3.062   2.768
 3490TIP3   OH210433   1.823   3.702   3.969
 3490TIP3    H110434   1.791   3.756   4.041
 3490TIP3    H210435   1.825   3.613   4.005
 3491TIP3   OH210436   3.096   0.994   5.408
 3491TIP3    H110437   3.075   0.901   5.408
 3491TIP3    H210438   3.129   1.011   5.319
 3492TIP3   OH210439   0.596   2.964   4.968
 3492TIP3    H110440   0.604   3.058   4.955
 3492TIP3    H210441   0.609   2.926   4.881
 3493TIP3   OH210442   3.060   5.676   1.918
 3493TIP3    H110443   3.124   5.722   1.973
 3493TIP3    H210444   3.113   5.616   1.866
 3494TIP3   OH210445   3.489   4.234   3.427
 3494TIP3    H110446   3.577   4.250   3.391
 3494TIP3    H210447   3.506   4.189   3.510
 3495TIP3   OH210448   4.128   0.247   2.922
 3495TIP3    H110449   4.184   0.289   2.987
 3495TIP3    H210450   4.041   0.248   2.962
 3496TIP3   OH210451   0.949   4.654   0.233
 3496TIP3    H110452   0.920   4.628   0.146
 3496TIP3    H210453   0.956   4.572   0.282
 3497TIP3   OH210454   5.739   1.739   0.282
 3497TIP3    H110455   5.698   1.774   0.203
 3497TIP3    H210456   5.832   1.732   0.259
 3498TIP3   OH210457   6.258   5.516   3.365
 3498TIP3    H110458   6.230   5.583   3.427
 3498TIP3    H210459   6.344   5.546   3.335
 3499TIP3   OH210460   0.957   0.264   4.206
 3499TIP3    H110461   1.020   0.217   4.152
 3499TIP3    H210462   0.964   0.355   4.177
 3500TIP3   OH210463   2.765   3.976   0.452
 3500TIP3    H110464   2.692   4.037   0.441
 3500TIP3    H210465   2.822   4.018   0.517
 3501TIP3   OH210466   0.907   4.909   2.510
 3501TIP3    H110467   0.941   4.837   2.563
 3501TIP3    H210468   0.981   4.936   2.456
 3502TIP3   OH210469   2.273   1.064   4.987
 3502TIP3    H110470   2.298   1.150   4.954
 3502TIP3    H210471   2.331   1.003   4.941
 3503TIP3   OH210472   4.682   3.787   2.878
 3503TIP3    H110473   4.660   3.768   2.787
 3503TIP3    H210474   4.716   3.877   2.877
 3504TIP3   OH210475   2.317   0.749   3.868
 3504TIP3    H110476   2.285   0.673   3.820
 3504TIP3    H210477   2.290   0.824   3.816
 3505TIP3   OH210478   5.517   6.231   5.661
 3505TIP3    H110479   5.428   6.208   5.635
 3505TIP3    H210480   5.511   6.321   5.692
 3506TIP3   OH210481   4.327   6.731   3.738
 3506TIP3    H110482   4.285   6.758   3.656
 3506TIP3    H210483   4.324   6.809   3.794
 3507TIP3   OH210484   5.089   0.209   0.695
 3507TIP3    H110485   5.037   0.204   0.775
 3507TIP3    H210486   5.025   0.207   0.624
 3508TIP3   OH210487   5.281   5.713   2.952
 3508TIP3    H110488   5.366   5.687   2.987
 3508TIP3    H210489   5.291   5.707   2.857
 3509TIP3   OH210490   5.742   5.841   0.977
 3509TIP3    H110491   5.675   5.893   0.933
 3509TIP3    H210492   5.775   5.898   1.046
 3510TIP3   OH210493   5.665   3.197   5.153
 3510TIP3    H110494   5.675   3.215   5.060
 3510TIP3    H210495   5.735   3.248   5.195
 3511TIP3   OH210496   6.982   6.138   0.822
 3511TIP3    H110497   6.912   6.139   0.757
 3511TIP3    H210498   6.998   6.230   0.842
 3512TIP3   OH210499   6.826   4.786   1.796
 3512TIP3    H110500   6.774   4.866   1.797
 3512TIP3    H210501   6.773   4.723   1.845
 3513TIP3   OH210502   3.824   1.718   5.089
 3513TIP3    H110503   3.833   1.629   5.056
 3513TIP3    H210504   3.732   1.741   5.074
 3514TIP3   OH210505   3.867   4.648   0.315
 3514TIP3    H110506   3.899   4.639   0.225
 3514TIP3    H210507   3.946   4.647   0.369
 3515TIP3   OH210508   0.688   6.687   3.941
 3515TIP3    H110509   0.700   6.687   4.036
 3515TIP3    H210510   0.766   6.644   3.907
 3516TIP3   OH210511   6.416   1.768   3.323
 3516TIP3    H110512   6.450   1.857   3.327
 3516TIP3    H210513   6.377   1.760   3.236
 3517TIP3   OH210514   0.123   5.521   0.993
 3517TIP3    H110515   0.125   5.445   0.935
 3517TIP3    H210516   0.031   5.528   1.020
 3518TIP3   OH210517   4.327   2.716   4.951
 3518TIP3    H110518   4.288   2.648   5.006
 3518TIP3    H210519   4.371   2.774   5.013
 3519TIP3   OH210520   3.803   3.814   3.548
 3519TIP3    H110521   3.859   3.825   3.471
 3519TIP3    H210522   3.841   3.874   3.613
 3520TIP3   OH210523   5.429   0.522   4.051
 3520TIP3    H110524   5.480   0.590   4.006
 3520TIP3    H210525   5.452   0.441   4.006
 3521TIP3   OH210526   4.084   6.351   2.420
 3521TIP3    H110527   4.150   6.328   2.354
 3521TIP3    H210528   4.129   6.409   2.481
 3522TIP3   OH210529   1.544   3.744   2.231
 3522TIP3    H110530   1.509   3.800   2.300
 3522TIP3    H210531   1.637   3.736   2.251
 3523TIP3   OH210532   6.015   1.154   0.186
 3523TIP3    H110533   6.077   1.222   0.213
 3523TIP3    H210534   5.966   1.193   0.114
 3524TIP3   OH210535   0.392   5.035   4.908
 3524TIP3    H110536   0.311   5.080   4.932
 3524TIP3    H210537   0.402   5.053   4.814
 3525TIP3   OH210538   5.024   2.375   0.736
 3525TIP3    H110539   4.963   2.399   0.806
 3525TIP3    H210540   5.108   2.362   0.781
 3526TIP3   OH210541   1.277   5.711   4.996
 3526TIP3    H110542   1.257   5.720   5.089
 3526TIP3    H210543   1.311   5.622   4.987
 3527TIP3   OH210544   4.557   1.877   1.737
 3527TIP3    H110545   4.488   1.883   1.803
 3527TIP3    H210546   4.591   1.788   1.746
 3528TIP3   OH210547   1.468   5.390   1.371
 3528TIP3    H110548   1.452   5.302   1.337
 3528TIP3    H210549   1.381   5.428   1.381
 3529TIP3   OH210550   4.314   2.188   5.116
 3529TIP3    H110551   4.283   2.207   5.028
 3529TIP3    H210552   4.402   2.152   5.104
 3530TIP3   OH210553   6.303   0.045   5.844
 3530TIP3    H110554   6.310   0.132   5.882
 3530TIP3    H210555   6.312  -0.014   5.919
 3531TIP3   OH210556   6.796   2.510   1.279
 3531TIP3    H110557   6.702   2.518   1.261
 3531TIP3    H210558   6.836   2.504   1.192
 3532TIP3   OH210559   0.299   0.388   1.538
 3532TIP3    H110560   0.232   0.398   1.470
 3532TIP3    H210561   0.367   0.452   1.513
 3533TIP3   OH210562   5.062   3.024   4.320
 3533TIP3    H110563   5.024   3.007   4.233
 3533TIP3    H210564   4.992   3.001   4.381
 3534TIP3   OH210565   5.053   2.953   0.256
 3534TIP3    H110566   4.991   2.986   0.321
 3534TIP3    H210567   5.079   2.867   0.289
 3535TIP3   OH210568   2.299   3.115   2.878
 3535TIP3    H110569   2.216   3.093   2.836
 3535TIP3    H210570   2.285   3.202   2.915
 3536TIP3   OH210571   6.829   4.587   4.749
 3536TIP3    H110572   6.740   4.622   4.751
 3536TIP3    H210573   6.858   4.600   4.659
 3537TIP3   OH210574   0.373   2.367   4.481
 3537TIP3    H110575   0.356   2.309   4.406
 3537TIP3    H210576   0.458   2.338   4.515
 3538TIP3   OH210577   3.422   4.334   3.758
 3538TIP3    H110578   3.449   4.426   3.760
 3538TIP3    H210579   3.389   4.320   3.669
 3539TIP3   OH210580   2.695   3.908   5.063
 3539TIP3    H110581   2.777   3.878   5.104
 3539TIP3    H210582   2.647   3.952   5.132
 3540TIP3   OH210583   2.343   2.048   0.104
 3540TIP3    H110584   2.430   2.087   0.097
 3540TIP3    H210585   2.301   2.096   0.176
 3541TIP3   OH210586   1.023   3.231   1.561
 3541TIP3    H110587   1.036   3.320   1.595
 3541TIP3    H210588   0.984   3.183   1.634
 3542TIP3   OH210589   0.744   5.147   1.553
 3542TIP3    H110590   0.751   5.177   1.644
 3542TIP3    H210591   0.790   5.063   1.551
 3543TIP3   OH210592   4.888   6.380   2.701
 3543TIP3    H110593   4.941   6.435   2.758
 3543TIP3    H210594   4.809   6.362   2.752
 3544TIP3   OH210595   1.367   6.676   1.593
 3544TIP3    H110596   1.363   6.672   1.689
 3544TIP3    H210597   1.347   6.587   1.565
 3545TIP3   OH210598   5.507   6.183   1.181
 3545TIP3    H110599   5.417   6.215   1.169
 3545TIP3    H210600   5.560   6.244   1.129
 3546TIP3   OH210601   4.944   1.760   0.412
 3546TIP3    H110602   4.983   1.846   0.427
 3546TIP3    H210603   4.901   1.767   0.327
 3547TIP3   OH210604   4.770   0.707   2.834
 3547TIP3    H110605   4.780   0.798   2.863
 3547TIP3    H210606   4.675   0.694   2.830
 3548TIP3   OH210607   5.794   2.825   1.367
 3548TIP3    H110608   5.712   2.814   1.416
 3548TIP3    H210609   5.773   2.891   1.301
 3549TIP3   OH210610   1.561   3.438   2.169
 3549TIP3    H110611   1.619   3.432   2.093
 3549TIP3    H210612   1.478   3.471   2.134
 3550TIP3   OH210613   2.040   6.799   4.877
 3550TIP3    H110614   1.966   6.778   4.933
 3550TIP3    H210615   2.043   6.727   4.813
 3551TIP3   OH210616   6.421   4.785   0.133
 3551TIP3    H110617   6.475   4.732   0.192
 3551TIP3    H210618   6.428   4.874   0.168
 3552TIP3   OH210619   5.601   4.687   3.394
 3552TIP3    H110620   5.669   4.679   3.327
 3552TIP3    H210621   5.519   4.673   3.347
 3553TIP3   OH210622   2.829   6.419   5.480
 3553TIP3    H110623   2.889   6.345   5.478
 3553TIP3    H210624   2.884   6.495   5.461
 3554TIP3   OH210625   6.218   1.616   2.324
 3554TIP3    H110626   6.156   1.546   2.306
 3554TIP3    H210627   6.165   1.695   2.325
 3555TIP3   OH210628   5.029   5.514   3.304
 3555TIP3    H110629   5.059   5.524   3.394
 3555TIP3    H210630   4.937   5.540   3.306
 3556TIP3   OH210631   4.823   2.018   2.620
 3556TIP3    H110632   4.860   2.034   2.707
 3556TIP3    H210633   4.867   2.083   2.564
 3557TIP3   OH210634   3.256   6.008   1.817
 3557TIP3    H110635   3.268   5.945   1.746
 3557TIP3    H210636   3.256   5.956   1.897
 3558TIP3   OH210637   3.769   4.809   4.543
 3558TIP3    H110638   3.688   4.759   4.555
 3558TIP3    H210639   3.743   4.900   4.558
 3559TIP3   OH210640   1.650   2.119   4.474
 3559TIP3    H110641   1.562   2.145   4.501
 3559TIP3    H210642   1.645   2.024   4.464
 3560TIP3   OH210643   6.289   6.684   2.991
 3560TIP3    H110644   6.255   6.599   3.020
 3560TIP3    H210645   6.233   6.749   3.035
 3561TIP3   OH210646   6.508   3.468   2.353
 3561TIP3    H110647   6.600   3.443   2.343
 3561TIP3    H210648   6.459   3.393   2.320
 3562TIP3   OH210649   5.331   2.846   0.739
 3562TIP3    H110650   5.390   2.921   0.733
 3562TIP3    H210651   5.254   2.872   0.689
 3563TIP3   OH210652   4.047   6.247   5.437
 3563TIP3    H110653   4.032   6.223   5.529
 3563TIP3    H210654   3.979   6.200   5.389
 3564TIP3   OH210655   2.510   6.003   0.638
 3564TIP3    H110656   2.476   5.915   0.625
 3564TIP3    H210657   2.594   5.990   0.682
 3565TIP3   OH210658   4.514   5.022   2.995
 3565TIP3    H110659   4.424   5.039   3.022
 3565TIP3    H210660   4.549   5.109   2.975
 3566TIP3   OH210661   4.116   3.222   5.390
 3566TIP3    H110662   4.090   3.235   5.481
 3566TIP3    H210663   4.061   3.150   5.359
 3567TIP3   OH210664   4.913   4.942   5.671
 3567TIP3    H110665   4.902   5.027   5.713
 3567TIP3    H210666   4.871   4.881   5.731
 3568TIP3   OH210667   3.984   3.176   1.342
 3568TIP3    H110668   4.056   3.152   1.283
 3568TIP3    H210669   4.027   3.222   1.414
 3569TIP3   OH210670   4.954   3.069   1.630
 3569TIP3    H110671   4.956   3.089   1.536
 3569TIP3    H210672   4.923   2.979   1.634
 3570TIP3   OH210673   1.626   2.688   3.184
 3570TIP3    H110674   1.566   2.674   3.111
 3570TIP3    H210675   1.695   2.623   3.172
 3571TIP3   OH210676   3.999   0.066   1.877
 3571TIP3    H110677   3.967   0.069   1.967
 3571TIP3    H210678   3.988  -0.025   1.851
 3572TIP3   OH210679   2.393   0.335   0.034
 3572TIP3    H110680   2.404   0.250  -0.007
 3572TIP3    H210681   2.480   0.359   0.065
 3573TIP3   OH210682   3.073   6.222   1.159
 3573TIP3    H110683   3.013   6.170   1.106
 3573TIP3    H210684   3.054   6.312   1.135
 3574TIP3   OH210685   3.918   4.832   2.499
 3574TIP3    H110686   3.939   4.922   2.525
 3574TIP3    H210687   3.966   4.818   2.418
 3575TIP3   OH210688   0.196   4.223   4.904
 3575TIP3    H110689   0.195   4.215   5.000
 3575TIP3    H210690   0.232   4.310   4.888
 3576TIP3   OH210691   1.541   6.497   4.449
 3576TIP3    H110692   1.506   6.575   4.406
 3576TIP3    H210693   1.550   6.523   4.541
 3577TIP3   OH210694   1.161   1.435   3.495
 3577TIP3    H110695   1.189   1.459   3.583
 3577TIP3    H210696   1.067   1.421   3.502
 3578TIP3   OH210697   0.940   0.887   2.750
 3578TIP3    H110698   0.984   0.946   2.811
 3578TIP3    H210699   0.898   0.945   2.687
 3579TIP3   OH210700   5.918   0.832   4.208
 3579TIP3    H110701   5.924   0.879   4.125
 3579TIP3    H210702   5.932   0.740   4.185
 3580TIP3   OH210703   0.872   3.578   0.923
 3580TIP3    H110704   0.887   3.517   0.851
 3580TIP3    H210705   0.958   3.590   0.963
 3581TIP3   OH210706   6.410   1.391   1.037
 3581TIP3    H110707   6.346   1.333   1.077
 3581TIP3    H210708   6.413   1.467   1.095
 3582TIP3   OH210709   5.015   3.906   0.186
 3582TIP3    H110710   4.967   3.829   0.155
 3582TIP3    H210711   4.948   3.973   0.199
 3583TIP3   OH210712   1.641   0.386   1.793
 3583TIP3    H110713   1.575   0.426   1.737
 3583TIP3    H210714   1.690   0.328   1.736
 3584TIP3   OH210715   4.717   1.246   1.077
 3584TIP3    H110716   4.641   1.212   1.125
 3584TIP3    H210717   4.681   1.281   0.996
 3585TIP3   OH210718   0.935   6.210   0.969
 3585TIP3    H110719   0.979   6.166   0.896
 3585TIP3    H210720   0.878   6.142   1.006
 3586TIP3   OH210721   3.526   2.723   3.904
 3586TIP3    H110722   3.584   2.781   3.952
 3586TIP3    H210723   3.572   2.708   3.821
 3587TIP3   OH210724   4.862   4.675   4.970
 3587TIP3    H110725   4.900   4.626   5.042
 3587TIP3    H210726   4.834   4.758   5.009
 3588TIP3   OH210727   6.041   2.772   5.605
 3588TIP3    H110728   6.000   2.755   5.690
 3588TIP3    H210729   5.969   2.801   5.549
 3589TIP3   OH210730   2.009   0.546   1.604
 3589TIP3    H110731   2.010   0.556   1.700
 3589TIP3    H210732   1.959   0.621   1.573
 3590TIP3   OH210733   0.403   0.651   0.594
 3590TIP3    H110734   0.397   0.586   0.664
 3590TIP3    H210735   0.497   0.669   0.586
 3591TIP3   OH210736   2.025   3.630   5.853
 3591TIP3    H110737   1.941   3.654   5.815
 3591TIP3    H210738   2.087   3.636   5.780
 3592TIP3   OH210739   6.275   3.608   3.286
 3592TIP3    H110740   6.267   3.518   3.317
 3592TIP3    H210741   6.188   3.645   3.297
 3593TIP3   OH210742   1.860   3.503   0.173
 3593TIP3    H110743   1.812   3.479   0.252
 3593TIP3    H210744   1.951   3.486   0.194
 3594TIP3   OH210745   3.163   3.118   3.834
 3594TIP3    H110746   3.143   3.142   3.924
 3594TIP3    H210747   3.164   3.201   3.786
 3595TIP3   OH210748   7.020   4.428   3.973
 3595TIP3    H110749   7.088   4.399   4.034
 3595TIP3    H210750   6.996   4.515   4.005
 3596TIP3   OH210751   3.205   2.781   1.308
 3596TIP3    H110752   3.166   2.781   1.220
 3596TIP3    H210753   3.180   2.865   1.346
 3597TIP3   OH210754   4.087   6.649   1.970
 3597TIP3    H110755   4.103   6.739   1.942
 3597TIP3    H210756   4.091   6.653   2.066
 3598TIP3   OH210757   3.084   2.688   3.168
 3598TIP3    H110758   3.156   2.743   3.198
 3598TIP3    H210759   3.019   2.692   3.238
 3599TIP3   OH210760   0.547   1.169   1.343
 3599TIP3    H110761   0.463   1.212   1.329
 3599TIP3    H210762   0.601   1.235   1.387
 3600TIP3   OH210763   1.879   2.835   1.355
 3600TIP3    H110764   1.844   2.767   1.412
 3600TIP3    H210765   1.930   2.787   1.290
 3601TIP3   OH210766   1.102   3.012   2.091
 3601TIP3    H110767   1.164   3.000   2.163
 3601TIP3    H210768   1.141   2.966   2.017
 3602TIP3   OH210769   1.385   4.175   0.554
 3602TIP3    H110770   1.307   4.141   0.510
 3602TIP3    H210771   1.354   4.247   0.609
 3603TIP3   OH210772   1.267   1.250   1.973
 3603TIP3    H110773   1.184   1.268   1.930
 3603TIP3    H210774   1.257   1.286   2.061
 3604TIP3   OH210775   0.680   4.730   4.182
 3604TIP3    H110776   0.699   4.800   4.245
 3604TIP3    H210777   0.585   4.730   4.174
 3605TIP3   OH210778   0.073   3.442   0.689
 3605TIP3    H110779   0.083   3.347   0.681
 3605TIP3    H210780   0.162   3.476   0.687
 3606TIP3   OH210781   3.270   2.739   2.157
 3606TIP3    H110782   3.358   2.702   2.166
 3606TIP3    H210783   3.282   2.833   2.167
 3607TIP3   OH210784   1.967   0.422   0.598
 3607TIP3    H110785   1.883   0.467   0.591
 3607TIP3    H210786   2.021   0.479   0.653
 3608TIP3   OH210787   3.286   0.326   4.728
 3608TIP3    H110788   3.248   0.246   4.693
 3608TIP3    H210789   3.211   0.382   4.748
 3609TIP3   OH210790   5.604   1.556   0.753
 3609TIP3    H110791   5.528   1.576   0.807
 3609TIP3    H210792   5.584   1.470   0.715
 3610TIP3   OH210793   4.776   0.726   4.749
 3610TIP3    H110794   4.702   0.666   4.763
 3610TIP3    H210795   4.848   0.669   4.722
 3611TIP3   OH210796   0.082   0.251   2.153
 3611TIP3    H110797   0.110   0.222   2.067
 3611TIP3    H210798   0.079   0.347   2.146
 3612TIP3   OH210799   6.361   1.925   3.030
 3612TIP3    H110800   6.431   1.867   3.001
 3612TIP3    H210801   6.388   2.012   3.000
 3613TIP3   OH210802   0.243   5.999   5.269
 3613TIP3    H110803   0.329   6.032   5.295
 3613TIP3    H210804   0.237   5.913   5.309
 3614TIP3   OH210805   2.184   4.050   1.334
 3614TIP3    H110806   2.167   4.037   1.428
 3614TIP3    H210807   2.097   4.054   1.295
 3615TIP3   OH210808   4.699   4.001   4.867
 3615TIP3    H110809   4.675   3.959   4.949
 3615TIP3    H210810   4.632   3.972   4.805
 3616TIP3   OH210811   4.995   4.766   2.303
 3616TIP3    H110812   5.005   4.810   2.388
 3616TIP3    H210813   4.901   4.760   2.290
 3617TIP3   OH210814   0.261   0.752   2.582
 3617TIP3    H110815   0.166   0.739   2.583
 3617TIP3    H210816   0.292   0.694   2.512
 3618TIP3   OH210817   5.917   1.630   0.972
 3618TIP3    H110818   5.962   1.566   0.917
 3618TIP3    H210819   5.893   1.701   0.912
 3619TIP3   OH210820   4.813   2.703   1.205
 3619TIP3    H110821   4.806   2.798   1.220
 3619TIP3    H210822   4.862   2.671   1.281
 3620TIP3   OH210823   7.072   6.031   1.711
 3620TIP3    H110824   6.981   6.019   1.739
 3620TIP3    H210825   7.121   6.037   1.793
 3621TIP3   OH210826   5.609   5.810   2.129
 3621TIP3    H110827   5.680   5.808   2.065
 3621TIP3    H210828   5.614   5.724   2.172
 3622TIP3   OH210829   0.679   4.705   1.901
 3622TIP3    H110830   0.765   4.687   1.941
 3622TIP3    H210831   0.616   4.674   1.965
 3623TIP3   OH210832   3.492   1.398   0.088
 3623TIP3    H110833   3.420   1.409   0.026
 3623TIP3    H210834   3.450   1.363   0.167
 3624TIP3   OH210835   1.019   1.497   1.776
 3624TIP3    H110836   0.964   1.515   1.700
 3624TIP3    H210837   1.108   1.512   1.745
 3625TIP3   OH210838   1.087   5.967   5.388
 3625TIP3    H110839   1.054   6.029   5.322
 3625TIP3    H210840   1.024   5.975   5.461
 3626TIP3   OH210841   4.041   6.016   4.316
 3626TIP3    H110842   4.010   6.003   4.406
 3626TIP3    H210843   4.084   6.101   4.318
 3627TIP3   OH210844   2.100   1.557   4.352
 3627TIP3    H110845   2.185   1.524   4.380
 3627TIP3    H210846   2.106   1.560   4.256
 3628TIP3   OH210847   2.605   1.852   2.957
 3628TIP3    H110848   2.650   1.930   2.924
 3628TIP3    H210849   2.669   1.781   2.944
 3629TIP3   OH210850   0.943   2.879   3.316
 3629TIP3    H110851   0.963   2.812   3.251
 3629TIP3    H210852   0.980   2.845   3.397
 3630TIP3   OH210853   1.799   3.010   3.622
 3630TIP3    H110854   1.893   2.999   3.608
 3630TIP3    H210855   1.761   3.010   3.534
 3631TIP3   OH210856   7.042   6.276   2.613
 3631TIP3    H110857   7.071   6.186   2.629
 3631TIP3    H210858   7.055   6.289   2.519
 3632TIP3   OH210859   0.731   0.746   5.707
 3632TIP3    H110860   0.710   0.661   5.748
 3632TIP3    H210861   0.764   0.799   5.779
 3633TIP3   OH210862   3.502   5.643   5.798
 3633TIP3    H110863   3.513   5.574   5.863
 3633TIP3    H210864   3.564   5.619   5.729
 3634TIP3   OH210865   0.882   6.077   4.574
 3634TIP3    H110866   0.893   6.114   4.487
 3634TIP3    H210867   0.850   5.988   4.558
 3635TIP3   OH210868   0.223   1.672   3.424
 3635TIP3    H110869   0.240   1.719   3.505
 3635TIP3    H210870   0.128   1.669   3.416
 3636TIP3   OH210871   6.386   3.186   1.926
 3636TIP3    H110872   6.476   3.169   1.896
 3636TIP3    H210873   6.344   3.100   1.927
 3637TIP3   OH210874   0.668   3.793   1.891
 3637TIP3    H110875   0.589   3.756   1.851
 3637TIP3    H210876   0.636   3.865   1.945
 3638TIP3   OH210877   2.742   2.494   0.516
 3638TIP3    H110878   2.801   2.449   0.454
 3638TIP3    H210879   2.731   2.581   0.479
 3639TIP3   OH210880   0.631   0.241   3.624
 3639TIP3    H110881   0.580   0.269   3.548
 3639TIP3    H210882   0.679   0.319   3.651
 3640TIP3   OH210883   2.626   3.036   1.293
 3640TIP3    H110884   2.568   3.093   1.344
 3640TIP3    H210885   2.603   2.947   1.322
 3641TIP3   OH210886   4.139   1.062   2.414
 3641TIP3    H110887   4.107   1.112   2.338
 3641TIP3    H210888   4.138   0.971   2.385
 3642TIP3   OH210889   6.892   1.181   3.053
 3642TIP3    H110890   6.851   1.135   2.980
 3642TIP3    H210891   6.950   1.245   3.012
 3643TIP3   OH210892  -0.054   3.843   0.835
 3643TIP3    H110893   0.033   3.881   0.831
 3643TIP3    H210894  -0.082   3.836   0.744
 3644TIP3   OH210895   2.761   4.610   1.105
 3644TIP3    H110896   2.791   4.632   1.017
 3644TIP3    H210897   2.715   4.689   1.135
 3645TIP3   OH210898   2.599   2.135   0.666
 3645TIP3    H110899   2.538   2.076   0.623
 3645TIP3    H210900   2.579   2.127   0.759
 3646TIP3   OH210901   2.707   5.565   4.959
 3646TIP3    H110902   2.709   5.552   4.865
 3646TIP3    H210903   2.706   5.476   4.995
 3647TIP3   OH210904   6.559   3.865   1.363
 3647TIP3    H110905   6.502   3.844   1.289
 3647TIP3    H210906   6.628   3.920   1.326
 3648TIP3   OH210907   6.876   1.497   3.806
 3648TIP3    H110908   6.867   1.583   3.764
 3648TIP3    H210909   6.968   1.494   3.833
 3649TIP3   OH210910   3.392   4.233   0.464
 3649TIP3    H110911   3.346   4.309   0.430
 3649TIP3    H210912   3.461   4.269   0.520
 3650TIP3   OH210913   3.884   5.613   3.937
 3650TIP3    H110914   3.868   5.572   4.022
 3650TIP3    H210915   3.973   5.585   3.913
 3651TIP3   OH210916   3.100   6.040   5.070
 3651TIP3    H110917   3.193   6.023   5.061
 3651TIP3    H210918   3.079   6.009   5.158
 3652TIP3   OH210919   6.230   6.178   2.278
 3652TIP3    H110920   6.283   6.241   2.229
 3652TIP3    H210921   6.182   6.130   2.211
 3653TIP3   OH210922   6.772   2.754   0.570
 3653TIP3    H110923   6.715   2.679   0.554
 3653TIP3    H210924   6.826   2.728   0.645
 3654TIP3   OH210925   1.953   2.092   3.089
 3654TIP3    H110926   2.029   2.040   3.063
 3654TIP3    H210927   1.990   2.168   3.134
 3655TIP3   OH210928   4.770   5.177   4.205
 3655TIP3    H110929   4.801   5.259   4.242
 3655TIP3    H210930   4.720   5.136   4.275
 3656TIP3   OH210931   2.487   2.958   4.977
 3656TIP3    H110932   2.422   3.025   5.000
 3656TIP3    H210933   2.515   2.982   4.889
 3657TIP3   OH210934   4.977   1.185   1.410
 3657TIP3    H110935   4.987   1.238   1.331
 3657TIP3    H210936   4.886   1.156   1.408
 3658TIP3   OH210937   7.177   1.618   3.222
 3658TIP3    H110938   7.138   1.698   3.188
 3658TIP3    H210939   7.128   1.598   3.301
 3659TIP3   OH210940   5.002   1.077   1.939
 3659TIP3    H110941   5.056   1.107   2.012
 3659TIP3    H210942   5.062   1.075   1.864
 3660TIP3   OH210943   4.182   0.218   0.024
 3660TIP3    H110944   4.258   0.226   0.080
 3660TIP3    H210945   4.160   0.124   0.026
 3661TIP3   OH210946   0.953   0.529   1.812
 3661TIP3    H110947   0.910   0.546   1.895
 3661TIP3    H210948   1.031   0.583   1.813
 3662TIP3   OH210949   0.667   5.275   5.195
 3662TIP3    H110950   0.725   5.230   5.133
 3662TIP3    H210951   0.638   5.353   5.149
 3663TIP3   OH210952   4.120   6.237   0.515
 3663TIP3    H110953   4.201   6.230   0.565
 3663TIP3    H210954   4.052   6.206   0.575
 3664TIP3   OH210955   5.051   2.361   0.309
 3664TIP3    H110956   5.121   2.409   0.264
 3664TIP3    H210957   5.021   2.296   0.245
 3665TIP3   OH210958   0.365   0.971   1.450
 3665TIP3    H110959   0.427   1.019   1.395
 3665TIP3    H210960   0.418   0.903   1.492
 3666TIP3   OH210961   3.102   4.342   4.023
 3666TIP3    H110962   3.189   4.363   4.055
 3666TIP3    H210963   3.075   4.265   4.073
 3667TIP3   OH210964   6.347   5.700   5.278
 3667TIP3    H110965   6.330   5.776   5.334
 3667TIP3    H210966   6.280   5.706   5.209
 3668TIP3   OH210967   4.542   2.599   2.428
 3668TIP3    H110968   4.567   2.551   2.507
 3668TIP3    H210969   4.600   2.565   2.360
 3669TIP3   OH210970   6.564   3.599   1.377
 3669TIP3    H110971   6.614   3.524   1.410
 3669TIP3    H210972   6.618   3.675   1.399
 3670TIP3   OH210973   3.012   0.168   3.878
 3670TIP3    H110974   3.035   0.080   3.907
 3670TIP3    H210975   3.041   0.172   3.786
 3671TIP3   OH210976   5.722   3.748   3.855
 3671TIP3    H110977   5.749   3.839   3.849
 3671TIP3    H210978   5.656   3.747   3.924
 3672TIP3   OH210979   6.755   4.588   1.610
 3672TIP3    H110980   6.848   4.581   1.634
 3672TIP3    H210981   6.745   4.526   1.538
 3673TIP3   OH210982   1.919   4.129   5.278
 3673TIP3    H110983   1.854   4.149   5.211
 3673TIP3    H210984   1.971   4.209   5.286
 3674TIP3   OH210985   4.138   1.119   2.694
 3674TIP3    H110986   4.047   1.128   2.665
 3674TIP3    H210987   4.183   1.078   2.620
 3675TIP3   OH210988   4.663   1.207   5.487
 3675TIP3    H110989   4.639   1.299   5.494
 3675TIP3    H210990   4.664   1.176   5.578
 3676TIP3   OH210991   5.487   5.305   3.704
 3676TIP3    H110992   5.422   5.240   3.681
 3676TIP3    H210993   5.571   5.264   3.682
 3677TIP3   OH210994   3.559   0.525   0.894
 3677TIP3    H110995   3.538   0.452   0.836
 3677TIP3    H210996   3.546   0.490   0.982
 3678TIP3   OH210997   3.792   0.992   2.081
 3678TIP3    H110998   3.764   1.071   2.035
 3678TIP3    H210999   3.838   1.024   2.159
 3679TIP3   OH211000   2.425   4.268   5.677
 3679TIP3    H111001   2.353   4.206   5.690
 3679TIP3    H211002   2.478   4.230   5.607
 3680TIP3   OH211003   6.216   1.486   1.588
 3680TIP3    H111004   6.162   1.553   1.546
 3680TIP3    H211005   6.284   1.467   1.524
 3681TIP3   OH211006   0.277   1.814   0.956
 3681TIP3    H111007   0.199   1.836   1.007
 3681TIP3    H211008   0.335   1.769   1.018
 3682TIP3   OH211009   1.868   4.611   5.731
 3682TIP3    H111010   1.887   4.551   5.803
 3682TIP3    H211011   1.812   4.560   5.672
 3683TIP3   OH211012   6.458   2.641   0.770
 3683TIP3    H111013   6.389   2.575   0.761
 3683TIP3    H211014   6.524   2.616   0.705
 3684TIP3   OH211015   2.838   6.783   4.593
 3684TIP3    H111016   2.802   6.840   4.661
 3684TIP3    H211017   2.798   6.698   4.609
 3685TIP3   OH211018   5.991   4.252   0.513
 3685TIP3    H111019   5.898   4.248   0.488
 3685TIP3    H211020   6.030   4.312   0.449
 3686TIP3   OH211021   2.274   0.491   5.451
 3686TIP3    H111022   2.298   0.398   5.460
 3686TIP3    H211023   2.275   0.507   5.357
 3687TIP3   OH211024   2.981   5.485   3.759
 3687TIP3    H111025   2.976   5.479   3.854
 3687TIP3    H211026   2.901   5.530   3.733
 3688TIP3   OH211027   6.030   5.692   5.583
 3688TIP3    H111028   6.052   5.766   5.640
 3688TIP3    H211029   6.028   5.731   5.495
 3689TIP3   OH211030   4.294   2.445   4.603
 3689TIP3    H111031   4.260   2.466   4.516
 3689TIP3    H211032   4.370   2.389   4.586
 3690TIP3   OH211033   0.736   1.744   0.157
 3690TIP3    H111034   0.696   1.678   0.214
 3690TIP3    H211035   0.679   1.821   0.165
 3691TIP3   OH211036   6.895   1.584   5.528
 3691TIP3    H111037   6.861   1.621   5.446
 3691TIP3    H211038   6.892   1.657   5.590
 3692TIP3   OH211039   0.894   3.892   0.994
 3692TIP3    H111040   0.881   3.798   1.004
 3692TIP3    H211041   0.904   3.925   1.083
 3693TIP3   OH211042   1.500   2.305   4.051
 3693TIP3    H111043   1.472   2.340   3.966
 3693TIP3    H211044   1.579   2.355   4.073
 3694TIP3   OH211045   2.768   2.009   0.049
 3694TIP3    H111046   2.796   1.921   0.076
 3694TIP3    H211047   2.696   2.030   0.108
 3695TIP3   OH211048   6.646   3.038   4.505
 3695TIP3    H111049   6.717   3.040   4.441
 3695TIP3    H211050   6.575   3.086   4.463
 3696TIP3   OH211051   6.499   0.831   4.000
 3696TIP3    H111052   6.493   0.903   3.937
 3696TIP3    H211053   6.500   0.874   4.086
 3697TIP3   OH211054   1.970   1.403   0.081
 3697TIP3    H111055   2.000   1.414  -0.009
 3697TIP3    H211056   2.008   1.476   0.129
 3698TIP3   OH211057   5.814   4.194   4.764
 3698TIP3    H111058   5.897   4.147   4.755
 3698TIP3    H211059   5.819   4.264   4.698
 3699TIP3   OH211060   5.264   0.347   5.656
 3699TIP3    H111061   5.272   0.252   5.657
 3699TIP3    H211062   5.354   0.379   5.646
 3700TIP3   OH211063   1.436   3.885   3.900
 3700TIP3    H111064   1.377   3.911   3.971
 3700TIP3    H211065   1.511   3.847   3.944
 3701TIP3   OH211066   0.784   5.161   3.344
 3701TIP3    H111067   0.806   5.245   3.385
 3701TIP3    H211068   0.868   5.121   3.324
 3702TIP3   OH211069   1.529   3.115   2.180
 3702TIP3    H111070   1.470   3.058   2.228
 3702TIP3    H211071   1.522   3.200   2.223
 3703TIP3   OH211072   1.513   4.738   2.715
 3703TIP3    H111073   1.507   4.669   2.782
 3703TIP3    H211074   1.522   4.690   2.632
 3704TIP3   OH211075   3.881   2.829   3.316
 3704TIP3    H111076   3.902   2.807   3.225
 3704TIP3    H211077   3.918   2.757   3.367
 3705TIP3   OH211078   0.682   4.430   5.459
 3705TIP3    H111079   0.610   4.368   5.460
 3705TIP3    H211080   0.647   4.510   5.498
 3706TIP3   OH211081   5.590   2.688   4.671
 3706TIP3    H111082   5.509   2.647   4.703
 3706TIP3    H211083   5.560   2.767   4.626
 3707TIP3   OH211084   2.033   1.808   5.110
 3707TIP3    H111085   2.099   1.834   5.046
 3707TIP3    H211086   2.004   1.889   5.151
 3708TIP3   OH211087   5.687   5.962   4.675
 3708TIP3    H111088   5.631   5.889   4.702
 3708TIP3    H211089   5.638   6.040   4.700
 3709TIP3   OH211090   2.699   4.606   3.410
 3709TIP3    H111091   2.631   4.632   3.472
 3709TIP3    H211092   2.669   4.522   3.376
 3710TIP3   OH211093   2.083   6.315   2.136
 3710TIP3    H111094   2.169   6.276   2.116
 3710TIP3    H211095   2.104   6.394   2.185
 3711TIP3   OH211096   6.499   2.976   2.433
 3711TIP3    H111097   6.514   3.045   2.369
 3711TIP3    H211098   6.405   2.977   2.448
 3712TIP3   OH211099   3.761   5.868   4.468
 3712TIP3    H111100   3.720   5.790   4.503
 3712TIP3    H211101   3.855   5.851   4.474
 3713TIP3   OH211102   6.414   0.914   1.270
 3713TIP3    H111103   6.390   0.821   1.264
 3713TIP3    H211104   6.477   0.926   1.199
 3714TIP3   OH211105   4.545   6.592   5.233
 3714TIP3    H111106   4.547   6.652   5.159
 3714TIP3    H211107   4.535   6.505   5.194
 3715TIP3   OH211108   2.394   3.558   5.137
 3715TIP3    H111109   2.420   3.650   5.132
 3715TIP3    H211110   2.309   3.555   5.093
 3716TIP3   OH211111   1.268   1.494   0.998
 3716TIP3    H111112   1.256   1.437   0.923
 3716TIP3    H211113   1.363   1.507   1.004
 3717TIP3   OH211114   6.565   4.613   4.457
 3717TIP3    H111115   6.605   4.547   4.400
 3717TIP3    H211116   6.511   4.563   4.517
 3718TIP3   OH211117   3.169   4.146   4.942
 3718TIP3    H111118   3.200   4.209   5.007
 3718TIP3    H211119   3.074   4.146   4.953
 3719TIP3   OH211120   6.091   5.677   0.236
 3719TIP3    H111121   6.040   5.717   0.307
 3719TIP3    H211122   6.094   5.584   0.259
 3720TIP3   OH211123   6.776   0.090   1.255
 3720TIP3    H111124   6.790   0.031   1.329
 3720TIP3    H211125   6.814   0.043   1.180
 3721TIP3   OH211126   2.276   0.259   5.153
 3721TIP3    H111127   2.196   0.229   5.196
 3721TIP3    H211128   2.340   0.263   5.223
 3722TIP3   OH211129   7.032   1.854   3.827
 3722TIP3    H111130   7.030   1.947   3.808
 3722TIP3    H211131   7.007   1.811   3.745
 3723TIP3   OH211132   5.547   1.204   4.072
 3723TIP3    H111133   5.494   1.142   4.022
 3723TIP3    H211134   5.543   1.172   4.162
 3724TIP3   OH211135   2.033   5.447   5.071
 3724TIP3    H111136   1.960   5.420   5.127
 3724TIP3    H211137   2.110   5.407   5.110
 3725TIP3   OH211138   3.169   3.885   0.384
 3725TIP3    H111139   3.229   3.932   0.327
 3725TIP3    H211140   3.127   3.953   0.436
 3726TIP3   OH211141   4.057   4.206   3.499
 3726TIP3    H111142   3.997   4.189   3.426
 3726TIP3    H211143   4.107   4.282   3.471
 3727TIP3   OH211144   2.300   5.556   0.027
 3727TIP3    H111145   2.282   5.598  -0.057
 3727TIP3    H211146   2.317   5.628   0.088
 3728TIP3   OH211147   4.328   3.923   0.442
 3728TIP3    H111148   4.307   3.830   0.440
 3728TIP3    H211149   4.308   3.954   0.354
 3729TIP3   OH211150   4.780   0.005   2.688
 3729TIP3    H111151   4.728   0.067   2.739
 3729TIP3    H211152   4.869   0.018   2.719
 3730TIP3   OH211153   5.703   1.332   2.635
 3730TIP3    H111154   5.739   1.250   2.601
 3730TIP3    H211155   5.766   1.360   2.702
 3731TIP3   OH211156   1.347   4.070   2.096
 3731TIP3    H111157   1.335   4.009   2.169
 3731TIP3    H211158   1.435   4.050   2.063
 3732TIP3   OH211159   5.145   5.093   0.564
 3732TIP3    H111160   5.136   5.176   0.516
 3732TIP3    H211161   5.235   5.065   0.547
 3733TIP3   OH211162   3.606   0.264   5.149
 3733TIP3    H111163   3.683   0.258   5.207
 3733TIP3    H211164   3.577   0.355   5.158
 3734TIP3   OH211165   2.607   3.456   3.589
 3734TIP3    H111166   2.535   3.414   3.637
 3734TIP3    H211167   2.582   3.446   3.497
 3735TIP3   OH211168   1.186   2.343   0.285
 3735TIP3    H111169   1.138   2.278   0.337
 3735TIP3    H211170   1.258   2.371   0.341
 3736TIP3   OH211171   6.921   2.125   1.233
 3736TIP3    H111172   6.968   2.145   1.151
 3736TIP3    H211173   6.831   2.150   1.215
 3737TIP3   OH211174   4.113   4.424   2.130
 3737TIP3    H111175   4.062   4.504   2.124
 3737TIP3    H211176   4.144   4.422   2.221
 3738TIP3   OH211177   3.264   3.885   4.242
 3738TIP3    H111178   3.272   3.855   4.332
 3738TIP3    H211179   3.343   3.937   4.226
 3739TIP3   OH211180   7.226   4.035   3.819
 3739TIP3    H111181   7.131   4.022   3.812
 3739TIP3    H211182   7.261   3.947   3.833
 3740TIP3   OH211183   0.727   2.291   4.204
 3740TIP3    H111184   0.792   2.358   4.221
 3740TIP3    H211185   0.733   2.274   4.110
 3741TIP3   OH211186   3.705   5.168   3.997
 3741TIP3    H111187   3.635   5.232   3.985
 3741TIP3    H211188   3.686   5.100   3.933
 3742TIP3   OH211189   1.897   5.284   0.870
 3742TIP3    H111190   1.868   5.236   0.947
 3742TIP3    H211191   1.983   5.246   0.849
 3743TIP3   OH211192   3.957   0.228   1.676
 3743TIP3    H111193   3.945   0.179   1.758
 3743TIP3    H211194   3.898   0.303   1.685
 3744TIP3   OH211195   6.412   3.832   5.463
 3744TIP3    H111196   6.439   3.833   5.554
 3744TIP3    H211197   6.362   3.913   5.452
 3745TIP3   OH211198   3.607   6.722   5.310
 3745TIP3    H111199   3.564   6.767   5.238
 3745TIP3    H211200   3.700   6.728   5.291
 3746TIP3   OH211201   1.792   0.657   4.989
 3746TIP3    H111202   1.840   0.608   5.056
 3746TIP3    H211203   1.778   0.743   5.028
 3747TIP3   OH211204   3.955   3.038   2.576
 3747TIP3    H111205   3.916   3.116   2.616
 3747TIP3    H211206   3.968   3.061   2.484
 3748TIP3   OH211207   1.729   3.572   2.660
 3748TIP3    H111208   1.766   3.540   2.578
 3748TIP3    H211209   1.772   3.656   2.674
 3749TIP3   OH211210   2.913   1.757   2.172
 3749TIP3    H111211   2.833   1.808   2.185
 3749TIP3    H211212   2.971   1.785   2.242
 3750TIP3   OH211213   4.914   3.228   1.396
 3750TIP3    H111214   4.892   3.287   1.467
 3750TIP3    H211215   4.983   3.273   1.347
 3751TIP3   OH211216   3.414   3.818   2.571
 3751TIP3    H111217   3.486   3.881   2.563
 3751TIP3    H211218   3.338   3.866   2.538
 3752TIP3   OH211219   0.891   0.762   1.074
 3752TIP3    H111220   0.909   0.764   1.167
 3752TIP3    H211221   0.927   0.845   1.041
 3753TIP3   OH211222   2.749   3.849   4.765
 3753TIP3    H111223   2.709   3.889   4.843
 3753TIP3    H211224   2.836   3.889   4.761
 3754TIP3   OH211225   6.756   0.973   2.835
 3754TIP3    H111226   6.738   0.880   2.828
 3754TIP3    H211227   6.701   1.003   2.907
 3755TIP3   OH211228   0.449   6.513   3.940
 3755TIP3    H111229   0.385   6.575   3.905
 3755TIP3    H211230   0.532   6.562   3.940
 3756TIP3   OH211231   4.809   1.689   5.804
 3756TIP3    H111232   4.738   1.728   5.752
 3756TIP3    H211233   4.849   1.763   5.850
 3757TIP3   OH211234   2.055   3.032   2.745
 3757TIP3    H111235   2.002   3.050   2.668
 3757TIP3    H211236   1.995   2.988   2.806
 3758TIP3   OH211237   3.862   1.303   4.781
 3758TIP3    H111238   3.828   1.392   4.772
 3758TIP3    H211239   3.786   1.252   4.810
 3759TIP3   OH211240   3.217   4.505   2.205
 3759TIP3    H111241   3.156   4.542   2.268
 3759TIP3    H211242   3.194   4.547   2.122
 3760TIP3   OH211243   1.013   5.108   5.336
 3760TIP3    H111244   1.056   5.026   5.356
 3760TIP3    H211245   1.033   5.124   5.243
 3761TIP3   OH211246   5.315   2.783   2.268
 3761TIP3    H111247   5.372   2.841   2.218
 3761TIP3    H211248   5.364   2.763   2.348
 3762TIP3   OH211249   1.244   2.765   4.579
 3762TIP3    H111250   1.284   2.701   4.638
 3762TIP3    H211251   1.251   2.848   4.626
 3763TIP3   OH211252   5.664   3.197   4.867
 3763TIP3    H111253   5.580   3.163   4.895
 3763TIP3    H211254   5.647   3.236   4.781
 3764TIP3   OH211255   0.066   5.040   1.495
 3764TIP3    H111256   0.102   4.960   1.457
 3764TIP3    H211257   0.093   5.037   1.587
 3765TIP3   OH211258   0.662   2.524   5.277
 3765TIP3    H111259   0.667   2.619   5.265
 3765TIP3    H211260   0.685   2.510   5.369
 3766TIP3   OH211261   1.300   0.031   2.773
 3766TIP3    H111262   1.308   0.008   2.680
 3766TIP3    H211263   1.312  -0.051   2.819
 3767TIP3   OH211264   0.354   0.066   4.388
 3767TIP3    H111265   0.411   0.068   4.465
 3767TIP3    H211266   0.304  -0.015   4.397
 3768TIP3   OH211267   1.437   1.204   4.885
 3768TIP3    H111268   1.492   1.134   4.850
 3768TIP3    H211269   1.347   1.176   4.864
 3769TIP3   OH211270   4.278   6.051   3.192
 3769TIP3    H111271   4.192   6.009   3.186
 3769TIP3    H211272   4.305   6.063   3.101
 3770TIP3   OH211273   6.357   6.430   5.303
 3770TIP3    H111274   6.421   6.412   5.371
 3770TIP3    H211275   6.304   6.502   5.337
 3771TIP3   OH211276   2.501   1.372   3.993
 3771TIP3    H111277   2.438   1.360   4.064
 3771TIP3    H211278   2.468   1.319   3.921
 3772TIP3   OH211279   4.169   3.664   4.268
 3772TIP3    H111280   4.188   3.756   4.288
 3772TIP3    H211281   4.076   3.654   4.288
 3773TIP3   OH211282   3.602   5.056   4.542
 3773TIP3    H111283   3.615   5.081   4.451
 3773TIP3    H211284   3.556   4.972   4.538
 3774TIP3   OH211285   2.368   1.992   3.655
 3774TIP3    H111286   2.365   1.903   3.690
 3774TIP3    H211287   2.335   1.984   3.566
 3775TIP3   OH211288   4.514   6.121   5.003
 3775TIP3    H111289   4.423   6.139   4.977
 3775TIP3    H211290   4.508   6.099   5.096
 3776TIP3   OH211291   6.661   0.476   1.965
 3776TIP3    H111292   6.697   0.438   1.885
 3776TIP3    H211293   6.567   0.485   1.947
 3777TIP3   OH211294   4.663   6.202   2.614
 3777TIP3    H111295   4.596   6.198   2.546
 3777TIP3    H211296   4.695   6.292   2.611
 3778TIP3   OH211297   1.737   5.104   3.966
 3778TIP3    H111298   1.811   5.160   3.943
 3778TIP3    H211299   1.690   5.091   3.884
 3779TIP3   OH211300   2.821   3.168   3.796
 3779TIP3    H111301   2.866   3.252   3.788
 3779TIP3    H211302   2.748   3.174   3.734
 3780TIP3   OH211303   2.218   0.923   3.680
 3780TIP3    H111304   2.176   1.007   3.702
 3780TIP3    H211305   2.235   0.929   3.586
 3781TIP3   OH211306   5.972   1.020   4.403
 3781TIP3    H111307   5.894   1.016   4.459
 3781TIP3    H211308   5.957   0.954   4.336
 3782TIP3   OH211309   4.252   0.987   0.087
 3782TIP3    H111310   4.247   1.082   0.075
 3782TIP3    H211311   4.255   0.951  -0.001
 3783TIP3   OH211312   0.154   4.538   2.120
 3783TIP3    H111313   0.191   4.467   2.172
 3783TIP3    H211314   0.104   4.590   2.183
 3784TIP3   OH211315   5.817   6.457   3.149
 3784TIP3    H111316   5.849   6.541   3.116
 3784TIP3    H211317   5.761   6.479   3.223
 3785TIP3   OH211318   1.651   3.790   1.011
 3785TIP3    H111319   1.593   3.803   0.936
 3785TIP3    H211320   1.737   3.770   0.972
 3786TIP3   OH211321   3.517   6.427   5.282
 3786TIP3    H111322   3.531   6.519   5.303
 3786TIP3    H211323   3.537   6.381   5.363
 3787TIP3   OH211324   2.813   6.603   2.990
 3787TIP3    H111325   2.807   6.685   3.038
 3787TIP3    H211326   2.724   6.567   2.993
 3788TIP3   OH211327   2.609   2.332   3.647
 3788TIP3    H111328   2.663   2.258   3.672
 3788TIP3    H211329   2.663   2.409   3.664
 3789TIP3   OH211330   4.033   0.770   5.080
 3789TIP3    H111331   3.997   0.798   4.995
 3789TIP3    H211332   3.991   0.685   5.096
 3790TIP3   OH211333  -0.025   5.571   2.786
 3790TIP3    H111334  -0.028   5.652   2.735
 3790TIP3    H211335  -0.054   5.596   2.873
 3791TIP3   OH211336   6.395   3.438   5.382
 3791TIP3    H111337   6.333   3.511   5.387
 3791TIP3    H211338   6.411   3.428   5.288
 3792TIP3   OH211339   0.672   6.075   2.609
 3792TIP3    H111340   0.680   5.980   2.614
 3792TIP3    H211341   0.667   6.094   2.515
 3793TIP3   OH211342   3.199   4.159   5.845
 3793TIP3    H111343   3.277   4.104   5.850
 3793TIP3    H211344   3.219   4.233   5.903
 3794TIP3   OH211345   3.457   5.925   5.770
 3794TIP3    H111346   3.495   5.928   5.682
 3794TIP3    H211347   3.455   5.832   5.792
 3795TIP3   OH211348   5.394   6.510   2.588
 3795TIP3    H111349   5.374   6.475   2.675
 3795TIP3    H211350   5.389   6.605   2.599
 3796TIP3   OH211351   1.736   3.999   2.295
 3796TIP3    H111352   1.782   3.919   2.318
 3796TIP3    H211353   1.735   4.001   2.200
 3797TIP3   OH211354   0.862   0.005   3.338
 3797TIP3    H111355   0.789  -0.036   3.382
 3797TIP3    H211356   0.844   0.099   3.343
 3798TIP3   OH211357   1.200   6.208   5.579
 3798TIP3    H111358   1.217   6.197   5.673
 3798TIP3    H211359   1.129   6.147   5.561
 3799TIP3   OH211360   0.706   0.596   0.935
 3799TIP3    H111361   0.774   0.649   0.977
 3799TIP3    H211362   0.747   0.511   0.921
 3800TIP3   OH211363   0.045   5.492   1.854
 3800TIP3    H111364   0.084   5.575   1.828
 3800TIP3    H211365   0.118   5.440   1.886
 3801TIP3   OH211366   7.067   4.423   1.900
 3801TIP3    H111367   7.155   4.407   1.868
 3801TIP3    H211368   7.079   4.448   1.992
 3802TIP3   OH211369   5.002   6.184   1.404
 3802TIP3    H111370   4.909   6.187   1.383
 3802TIP3    H211371   5.046   6.218   1.326
 3803TIP3   OH211372   0.549   0.298   4.194
 3803TIP3    H111373   0.534   0.207   4.171
 3803TIP3    H211374   0.610   0.330   4.128
 3804TIP3   OH211375   0.427   2.198   5.326
 3804TIP3    H111376   0.448   2.202   5.419
 3804TIP3    H211377   0.404   2.107   5.310
 3805TIP3   OH211378   6.565   3.700   0.470
 3805TIP3    H111379   6.524   3.663   0.548
 3805TIP3    H211380   6.601   3.625   0.423
 3806TIP3   OH211381   6.367   4.931   1.679
 3806TIP3    H111382   6.431   4.963   1.742
 3806TIP3    H211383   6.403   4.848   1.648
 3807TIP3   OH211384   0.077   6.228   5.359
 3807TIP3    H111385   0.025   6.187   5.429
 3807TIP3    H211386   0.092   6.158   5.296
 3808TIP3   OH211387   4.737   4.016   2.447
 3808TIP3    H111388   4.824   4.041   2.415
 3808TIP3    H211389   4.679   4.029   2.373
 3809TIP3   OH211390   3.220   0.096   4.602
 3809TIP3    H111391   3.126   0.090   4.581
 3809TIP3    H211392   3.264   0.095   4.517
 3810TIP3   OH211393   0.033   3.748   4.137
 3810TIP3    H111394   0.039   3.756   4.042
 3810TIP3    H211395   0.115   3.706   4.163
 3811TIP3   OH211396   5.088   2.438   2.931
 3811TIP3    H111397   5.047   2.519   2.901
 3811TIP3    H211398   5.028   2.403   2.997
 3812TIP3   OH211399   4.037   5.676   1.326
 3812TIP3    H111400   4.121   5.716   1.350
 3812TIP3    H211401   3.987   5.678   1.408
 3813TIP3   OH211402   0.137   6.518   5.050
 3813TIP3    H111403   0.046   6.501   5.074
 3813TIP3    H211404   0.179   6.432   5.055
 3814TIP3   OH211405   2.214   0.668   2.678
 3814TIP3    H111406   2.306   0.656   2.652
 3814TIP3    H211407   2.209   0.758   2.708
 3815TIP3   OH211408   7.123   3.259   0.047
 3815TIP3    H111409   7.105   3.340  -0.002
 3815TIP3    H211410   7.145   3.288   0.135
 3816TIP3   OH211411   1.656   6.739   5.481
 3816TIP3    H111412   1.659   6.654   5.525
 3816TIP3    H211413   1.579   6.782   5.517
 3817TIP3   OH211414   7.111   5.857   4.584
 3817TIP3    H111415   7.090   5.774   4.628
 3817TIP3    H211416   7.097   5.923   4.652
 3818TIP3   OH211417   3.063   5.109   2.053
 3818TIP3    H111418   2.993   5.063   2.099
 3818TIP3    H211419   3.019   5.177   2.003
 3819TIP3   OH211420   2.831   3.038   4.945
 3819TIP3    H111421   2.745   3.006   4.916
 3819TIP3    H211422   2.874   3.066   4.864
 3820TIP3   OH211423   1.017   3.681   3.396
 3820TIP3    H111424   0.954   3.611   3.414
 3820TIP3    H211425   0.966   3.748   3.351
 3821TIP3   OH211426   6.769   5.925   2.804
 3821TIP3    H111427   6.760   5.953   2.895
 3821TIP3    H211428   6.857   5.951   2.779
 3822TIP3   OH211429   3.834   5.538   2.137
 3822TIP3    H111430   3.922   5.564   2.164
 3822TIP3    H211431   3.778   5.561   2.210
 3823TIP3   OH211432   5.163   2.073   3.893
 3823TIP3    H111433   5.125   1.987   3.907
 3823TIP3    H211434   5.190   2.073   3.801
 3824TIP3   OH211435   1.587   1.888   4.752
 3824TIP3    H111436   1.534   1.965   4.731
 3824TIP3    H211437   1.649   1.919   4.818
 3825TIP3   OH211438   0.709   2.054   3.291
 3825TIP3    H111439   0.659   1.972   3.293
 3825TIP3    H211440   0.779   2.040   3.355
 3826TIP3   OH211441   1.230   5.795   2.263
 3826TIP3    H111442   1.247   5.887   2.243
 3826TIP3    H211443   1.186   5.761   2.185
 3827TIP3   OH211444   3.803   2.079   5.690
 3827TIP3    H111445   3.755   2.059   5.770
 3827TIP3    H211446   3.827   1.994   5.654
 3828TIP3   OH211447   1.411   3.330   4.036
 3828TIP3    H111448   1.408   3.383   3.956
 3828TIP3    H211449   1.474   3.260   4.016
 3829TIP3   OH211450   0.829   1.004   3.981
 3829TIP3    H111451   0.736   0.992   4.000
 3829TIP3    H211452   0.831   1.076   3.917
 3830TIP3   OH211453   3.383   6.179   1.454
 3830TIP3    H111454   3.358   6.243   1.520
 3830TIP3    H211455   3.474   6.157   1.473
 3831TIP3   OH211456   1.440   5.156   2.706
 3831TIP3    H111457   1.501   5.140   2.634
 3831TIP3    H211458   1.391   5.233   2.679
 3832TIP3   OH211459   3.427   6.464   5.837
 3832TIP3    H111460   3.400   6.398   5.901
 3832TIP3    H211461   3.412   6.422   5.752
 3833TIP3   OH211462   2.930   1.005   4.649
 3833TIP3    H111463   3.007   0.965   4.608
 3833TIP3    H211464   2.856   0.952   4.617
 3834TIP3   OH211465   5.937   6.704   0.218
 3834TIP3    H111466   5.892   6.768   0.162
 3834TIP3    H211467   6.024   6.741   0.230
 3835TIP3   OH211468   6.758   1.575   5.042
 3835TIP3    H111469   6.710   1.493   5.049
 3835TIP3    H211470   6.711   1.626   4.975
 3836TIP3   OH211471   2.388   3.811   3.187
 3836TIP3    H111472   2.311   3.813   3.131
 3836TIP3    H211473   2.359   3.766   3.267
 3837TIP3   OH211474   5.457   3.010   5.261
 3837TIP3    H111475   5.531   2.953   5.281
 3837TIP3    H211476   5.497   3.091   5.229
 3838TIP3   OH211477   3.909   1.844   5.292
 3838TIP3    H111478   3.862   1.801   5.221
 3838TIP3    H211479   3.995   1.801   5.293
 3839TIP3   OH211480   0.853   5.339   5.453
 3839TIP3    H111481   0.810   5.419   5.423
 3839TIP3    H211482   0.833   5.274   5.385
 3840TIP3   OH211483   2.494   4.283   4.598
 3840TIP3    H111484   2.458   4.308   4.513
 3840TIP3    H211485   2.448   4.202   4.621
 3841TIP3   OH211486   6.484   5.399   0.663
 3841TIP3    H111487   6.479   5.453   0.742
 3841TIP3    H211488   6.447   5.454   0.595
 3842TIP3   OH211489   2.121   0.065   1.634
 3842TIP3    H111490   2.189  -0.002   1.633
 3842TIP3    H211491   2.060   0.038   1.566
 3843TIP3   OH211492   6.909   3.276   4.462
 3843TIP3    H111493   6.882   3.220   4.536
 3843TIP3    H211494   6.939   3.357   4.503
 3844TIP3   OH211495   0.918   6.267   1.705
 3844TIP3    H111496   0.927   6.361   1.723
 3844TIP3    H211497   0.997   6.228   1.742
 3845TIP3   OH211498   1.167   1.489   3.153
 3845TIP3    H111499   1.247   1.474   3.203
 3845TIP3    H211500   1.181   1.573   3.110
 3846TIP3   OH211501   6.669   5.912   4.678
 3846TIP3    H111502   6.700   5.886   4.591
 3846TIP3    H211503   6.718   5.991   4.698
 3847TIP3   OH211504   1.760   3.369   0.401
 3847TIP3    H111505   1.778   3.276   0.411
 3847TIP3    H211506   1.669   3.379   0.430
 3848TIP3   OH211507   5.738   5.539   2.666
 3848TIP3    H111508   5.659   5.518   2.716
 3848TIP3    H211509   5.783   5.454   2.656
 3849TIP3   OH211510   4.940   0.732   4.228
 3849TIP3    H111511   4.879   0.659   4.214
 3849TIP3    H211512   5.021   0.705   4.185
 3850TIP3   OH211513   4.949   4.224   4.300
 3850TIP3    H111514   4.946   4.128   4.302
 3850TIP3    H211515   4.971   4.248   4.390
 3851TIP3   OH211516   0.118   1.943   5.850
 3851TIP3    H111517   0.045   2.000   5.873
 3851TIP3    H211518   0.194   1.982   5.894
 3852TIP3   OH211519   5.963   3.009   1.834
 3852TIP3    H111520   6.050   2.980   1.864
 3852TIP3    H211521   5.973   3.016   1.739
 3853TIP3   OH211522   2.053   1.808   1.287
 3853TIP3    H111523   2.060   1.722   1.247
 3853TIP3    H211524   2.074   1.870   1.217
 3854TIP3   OH211525   3.083   5.242   1.286
 3854TIP3    H111526   3.126   5.235   1.371
 3854TIP3    H211527   3.096   5.156   1.245
 3855TIP3   OH211528   2.201   2.790   2.675
 3855TIP3    H111529   2.166   2.879   2.685
 3855TIP3    H211530   2.200   2.754   2.763
 3856TIP3   OH211531   1.231   0.963   1.170
 3856TIP3    H111532   1.161   0.992   1.112
 3856TIP3    H211533   1.253   1.041   1.221
 3857TIP3   OH211534   5.332   3.920   1.684
 3857TIP3    H111535   5.311   3.998   1.632
 3857TIP3    H211536   5.426   3.908   1.671
 3858TIP3   OH211537   4.539   3.037   4.108
 3858TIP3    H111538   4.499   2.989   4.035
 3858TIP3    H211539   4.591   2.971   4.154
 3859TIP3   OH211540   2.835   4.293   4.435
 3859TIP3    H111541   2.769   4.344   4.388
 3859TIP3    H211542   2.908   4.354   4.446
 3860TIP3   OH211543   2.994   5.293   5.433
 3860TIP3    H111544   2.923   5.299   5.369
 3860TIP3    H211545   2.975   5.361   5.497
 3861TIP3   OH211546   4.221   0.061   4.130
 3861TIP3    H111547   4.223   0.006   4.208
 3861TIP3    H211548   4.157   0.129   4.150
 3862TIP3   OH211549   2.895   2.576   5.712
 3862TIP3    H111550   2.970   2.522   5.736
 3862TIP3    H211551   2.829   2.556   5.778
 3863TIP3   OH211552   2.758   3.221   2.025
 3863TIP3    H111553   2.850   3.235   2.045
 3863TIP3    H211554   2.717   3.205   2.110
 3864TIP3   OH211555   6.962   1.539   0.183
 3864TIP3    H111556   6.887   1.543   0.242
 3864TIP3    H211557   6.937   1.475   0.116
 3865TIP3   OH211558   0.820   3.532   3.524
 3865TIP3    H111559   0.742   3.516   3.471
 3865TIP3    H211560   0.792   3.594   3.591
 3866TIP3   OH211561   3.458   3.352   2.584
 3866TIP3    H111562   3.370   3.369   2.548
 3866TIP3    H211563   3.442   3.312   2.669
 3867TIP3   OH211564   5.208   4.795   0.007
 3867TIP3    H111565   5.170   4.707   0.005
 3867TIP3    H211566   5.134   4.854   0.015
 3868TIP3   OH211567   5.896   2.806   3.030
 3868TIP3    H111568   5.913   2.839   3.118
 3868TIP3    H211569   5.887   2.885   2.976
 3869TIP3   OH211570   6.258   4.768   2.108
 3869TIP3    H111571   6.254   4.691   2.164
 3869TIP3    H211572   6.341   4.759   2.061
 3870TIP3   OH211573   5.976   5.864   2.014
 3870TIP3    H111574   5.911   5.863   1.944
 3870TIP3    H211575   5.997   5.772   2.028
 3871TIP3   OH211576   3.421   4.684   4.067
 3871TIP3    H111577   3.467   4.767   4.082
 3871TIP3    H211578   3.426   4.670   3.973
 3872TIP3   OH211579   4.221   2.276   4.827
 3872TIP3    H111580   4.223   2.311   4.738
 3872TIP3    H211581   4.138   2.306   4.863
 3873TIP3   OH211582   1.955   5.285   4.532
 3873TIP3    H111583   1.866   5.266   4.561
 3873TIP3    H211584   2.001   5.314   4.610
 3874TIP3   OH211585   1.501   4.569   5.796
 3874TIP3    H111586   1.461   4.498   5.847
 3874TIP3    H211587   1.522   4.636   5.861
 3875TIP3   OH211588   2.382   1.631   0.483
 3875TIP3    H111589   2.329   1.666   0.555
 3875TIP3    H211590   2.438   1.704   0.457
 3876TIP3   OH211591   2.242   4.982   1.130
 3876TIP3    H111592   2.226   4.889   1.144
 3876TIP3    H211593   2.210   5.024   1.210
 3877TIP3   OH211594   2.301   2.074   2.270
 3877TIP3    H111595   2.266   2.016   2.202
 3877TIP3    H211596   2.373   2.024   2.309
 3878TIP3   OH211597   0.209   5.285   4.637
 3878TIP3    H111598   0.260   5.367   4.642
 3878TIP3    H211599   0.231   5.239   4.718
 3879TIP3   OH211600   6.480   2.421   4.403
 3879TIP3    H111601   6.540   2.466   4.345
 3879TIP3    H211602   6.511   2.331   4.405
 3880TIP3   OH211603   6.954   1.509   4.338
 3880TIP3    H111604   6.950   1.603   4.353
 3880TIP3    H211605   6.873   1.489   4.290
 3881TIP3   OH211606   1.716   1.987   1.939
 3881TIP3    H111607   1.740   2.079   1.948
 3881TIP3    H211608   1.698   1.975   1.846
 3882TIP3   OH211609   3.808   1.642   1.636
 3882TIP3    H111610   3.889   1.630   1.685
 3882TIP3    H211611   3.753   1.568   1.662
 3883TIP3   OH211612   5.070   5.567   0.155
 3883TIP3    H111613   5.103   5.481   0.129
 3883TIP3    H211614   5.124   5.630   0.107
 3884TIP3   OH211615   2.147   4.386   0.381
 3884TIP3    H111616   2.121   4.456   0.440
 3884TIP3    H211617   2.225   4.418   0.337
 3885TIP3   OH211618   0.190   2.572   1.058
 3885TIP3    H111619   0.098   2.597   1.063
 3885TIP3    H211620   0.191   2.497   0.998
 3886TIP3   OH211621   0.633   0.484   3.974
 3886TIP3    H111622   0.621   0.574   3.943
 3886TIP3    H211623   0.668   0.436   3.899
 3887TIP3   OH211624   4.932   6.502   5.450
 3887TIP3    H111625   4.890   6.470   5.530
 3887TIP3    H211626   5.019   6.462   5.451
 3888TIP3   OH211627   1.288   0.364   3.380
 3888TIP3    H111628   1.279   0.390   3.472
 3888TIP3    H211629   1.345   0.431   3.341
 3889TIP3   OH211630   5.913   5.544   5.262
 3889TIP3    H111631   5.823   5.553   5.229
 3889TIP3    H211632   5.944   5.634   5.272
 3890TIP3   OH211633   2.873   3.466   3.728
 3890TIP3    H111634   2.928   3.520   3.671
 3890TIP3    H211635   2.793   3.454   3.678
 3891TIP3   OH211636   3.671   2.075   5.342
 3891TIP3    H111637   3.605   2.010   5.366
 3891TIP3    H211638   3.747   2.024   5.315
 3892TIP3   OH211639   4.537   2.354   3.203
 3892TIP3    H111640   4.618   2.354   3.255
 3892TIP3    H211641   4.524   2.262   3.181
 3893TIP3   OH211642   4.474   0.721   3.141
 3893TIP3    H111643   4.431   0.704   3.224
 3893TIP3    H211644   4.554   0.667   3.144
 3894TIP3   OH211645   5.174   0.584   2.618
 3894TIP3    H111646   5.196   0.615   2.530
 3894TIP3    H211647   5.079   0.574   2.617
 3895TIP3   OH211648   5.061   3.093   2.846
 3895TIP3    H111649   4.995   3.044   2.895
 3895TIP3    H211650   5.024   3.181   2.837
 3896TIP3   OH211651   4.625   4.584   3.493
 3896TIP3    H111652   4.673   4.536   3.561
 3896TIP3    H211653   4.570   4.518   3.452
 3897TIP3   OH211654   1.453   5.878   4.030
 3897TIP3    H111655   1.379   5.865   4.090
 3897TIP3    H211656   1.424   5.839   3.947
 3898TIP3   OH211657   6.351   0.816   4.329
 3898TIP3    H111658   6.415   0.866   4.278
 3898TIP3    H211659   6.286   0.787   4.266
 3899TIP3   OH211660   4.060   1.004   3.076
 3899TIP3    H111661   4.063   1.071   3.007
 3899TIP3    H211662   4.014   0.931   3.035
 3900TIP3   OH211663   3.696   2.434   1.975
 3900TIP3    H111664   3.782   2.476   1.971
 3900TIP3    H211665   3.686   2.390   1.891
 3901TIP3   OH211666   6.571   4.525   1.365
 3901TIP3    H111667   6.613   4.440   1.376
 3901TIP3    H211668   6.494   4.522   1.422
 3902TIP3   OH211669   3.816   1.106   3.199
 3902TIP3    H111670   3.908   1.107   3.170
 3902TIP3    H211671   3.777   1.034   3.149
 3903TIP3   OH211672   5.488   2.894   2.575
 3903TIP3    H111673   5.493   2.810   2.621
 3903TIP3    H211674   5.409   2.936   2.610
 3904TIP3   OH211675   6.335   3.763   3.547
 3904TIP3    H111676   6.368   3.683   3.588
 3904TIP3    H211677   6.369   3.761   3.458
 3905TIP3   OH211678   0.105   4.285   1.825
 3905TIP3    H111679   0.107   4.228   1.902
 3905TIP3    H211680   0.072   4.230   1.754
 3906TIP3   OH211681   3.378   3.321   0.292
 3906TIP3    H111682   3.336   3.346   0.374
 3906TIP3    H211683   3.462   3.367   0.292
 3907TIP3   OH211684   6.535   2.246   2.112
 3907TIP3    H111685   6.460   2.195   2.084
 3907TIP3    H211686   6.498   2.317   2.164
 3908TIP3   OH211687   0.248   3.839   1.442
 3908TIP3    H111688   0.161   3.807   1.419
 3908TIP3    H211689   0.300   3.761   1.461
 3909TIP3   OH211690   4.654   0.186   2.872
 3909TIP3    H111691   4.659   0.160   2.964
 3909TIP3    H211692   4.688   0.276   2.871
 3910TIP3   OH211693   0.196   0.148   5.233
 3910TIP3    H111694   0.272   0.100   5.265
 3910TIP3    H211695   0.147   0.084   5.181
 3911TIP3   OH211696   4.111   2.823   1.285
 3911TIP3    H111697   4.069   2.887   1.342
 3911TIP3    H211698   4.067   2.834   1.201
 3912TIP3   OH211699   5.398   2.791   5.053
 3912TIP3    H111700   5.341   2.751   5.118
 3912TIP3    H211701   5.347   2.788   4.971
 3913TIP3   OH211702   4.357   6.050   3.995
 3913TIP3    H111703   4.386   6.122   4.051
 3913TIP3    H211704   4.303   5.995   4.052
 3914TIP3   OH211705   4.281   0.970   3.701
 3914TIP3    H111706   4.311   1.028   3.772
 3914TIP3    H211707   4.351   0.904   3.694
 3915TIP3   OH211708   0.548   6.124   2.339
 3915TIP3    H111709   0.521   6.037   2.369
 3915TIP3    H211710   0.581   6.109   2.250
 3916TIP3   OH211711   2.429   4.511   3.068
 3916TIP3    H111712   2.358   4.514   3.003
 3916TIP3    H211713   2.455   4.420   3.071
 3917TIP3   OH211714   3.917   5.236   4.982
 3917TIP3    H111715   3.904   5.177   5.056
 3917TIP3    H211716   3.847   5.214   4.920
 3918TIP3   OH211717   2.553   1.269   2.048
 3918TIP3    H111718   2.626   1.329   2.058
 3918TIP3    H211719   2.548   1.252   1.954
 3919TIP3   OH211720   3.156   2.437   0.690
 3919TIP3    H111721   3.148   2.470   0.779
 3919TIP3    H211722   3.105   2.498   0.637
 3920TIP3   OH211723   0.681   0.469   4.392
 3920TIP3    H111724   0.641   0.414   4.459
 3920TIP3    H211725   0.656   0.428   4.309
 3921TIP3   OH211726   1.774   2.527   1.213
 3921TIP3    H111727   1.860   2.561   1.237
 3921TIP3    H211728   1.774   2.437   1.246
 3922TIP3   OH211729   1.388   0.874   5.728
 3922TIP3    H111730   1.480   0.852   5.740
 3922TIP3    H211731   1.390   0.965   5.698
 3923TIP3   OH211732   2.513   2.211   4.010
 3923TIP3    H111733   2.428   2.234   3.973
 3923TIP3    H211734   2.508   2.116   4.024
 3924TIP3   OH211735   5.637   3.670   4.467
 3924TIP3    H111736   5.544   3.686   4.453
 3924TIP3    H211737   5.656   3.708   4.553
 3925TIP3   OH211738   3.274   5.654   5.222
 3925TIP3    H111739   3.357   5.701   5.229
 3925TIP3    H211740   3.229   5.694   5.148
 3926TIP3   OH211741   4.442   3.774   4.169
 3926TIP3    H111742   4.532   3.761   4.138
 3926TIP3    H211743   4.416   3.859   4.133
 3927TIP3   OH211744   0.335   2.699   3.301
 3927TIP3    H111745   0.320   2.648   3.221
 3927TIP3    H211746   0.423   2.672   3.330
 3928TIP3   OH211747   3.076   5.043   5.333
 3928TIP3    H111748   2.998   5.010   5.287
 3928TIP3    H211749   3.047   5.123   5.376
 3929TIP3   OH211750   0.653   2.891   3.359
 3929TIP3    H111751   0.631   2.914   3.269
 3929TIP3    H211752   0.747   2.871   3.357
 3930TIP3   OH211753   5.531   4.437   3.848
 3930TIP3    H111754   5.521   4.468   3.758
 3930TIP3    H211755   5.568   4.512   3.895
 3931TIP3   OH211756   2.763   6.581   0.206
 3931TIP3    H111757   2.816   6.648   0.248
 3931TIP3    H211758   2.723   6.532   0.278
 3932TIP3   OH211759   1.495   0.900   1.694
 3932TIP3    H111760   1.584   0.898   1.659
 3932TIP3    H211761   1.508   0.908   1.789
 3933TIP3   OH211762   4.936   3.662   5.660
 3933TIP3    H111763   4.995   3.612   5.716
 3933TIP3    H211764   4.994   3.709   5.600
 3934TIP3   OH211765   4.970   1.340   3.702
 3934TIP3    H111766   5.007   1.331   3.614
 3934TIP3    H211767   4.899   1.276   3.705
 3935TIP3   OH211768   3.098   0.048   3.221
 3935TIP3    H111769   3.104   0.115   3.289
 3935TIP3    H211770   3.186   0.043   3.184
 3936TIP3   OH211771   0.139   4.202   5.195
 3936TIP3    H111772   0.158   4.116   5.232
 3936TIP3    H211773   0.043   4.205   5.188
 3937TIP3   OH211774   0.568   6.120   4.993
 3937TIP3    H111775   0.498   6.062   4.963
 3937TIP3    H211776   0.523   6.184   5.048
 3938TIP3   OH211777   2.937   4.697   4.377
 3938TIP3    H111778   2.862   4.712   4.320
 3938TIP3    H211779   2.965   4.608   4.356
 3939TIP3   OH211780   6.822   6.831   3.611
 3939TIP3    H111781   6.892   6.791   3.661
 3939TIP3    H211782   6.840   6.807   3.520
 3940TIP3   OH211783   1.565   2.005   1.063
 3940TIP3    H111784   1.641   2.018   1.119
 3940TIP3    H211785   1.561   2.084   1.009
 3941TIP3   OH211786   1.593   0.521   5.171
 3941TIP3    H111787   1.534   0.466   5.222
 3941TIP3    H211788   1.567   0.611   5.191
 3942TIP3   OH211789   0.902   1.780   1.886
 3942TIP3    H111790   0.996   1.766   1.902
 3942TIP3    H211791   0.896   1.794   1.792
 3943TIP3   OH211792   6.303   6.770   1.460
 3943TIP3    H111793   6.331   6.825   1.386
 3943TIP3    H211794   6.379   6.715   1.479
 3944TIP3   OH211795   1.967   2.559   2.813
 3944TIP3    H111796   1.934   2.585   2.727
 3944TIP3    H211797   2.005   2.639   2.849
 3945TIP3   OH211798   5.557   4.002   4.588
 3945TIP3    H111799   5.573   4.082   4.538
 3945TIP3    H211800   5.514   3.943   4.526
 3946TIP3   OH211801   4.852   2.986   1.260
 3946TIP3    H111802   4.850   3.005   1.166
 3946TIP3    H211803   4.838   3.071   1.302
 3947TIP3   OH211804   6.515   5.630   5.578
 3947TIP3    H111805   6.546   5.712   5.540
 3947TIP3    H211806   6.516   5.645   5.673
 3948TIP3   OH211807   5.129   0.664   5.400
 3948TIP3    H111808   5.083   0.584   5.376
 3948TIP3    H211809   5.075   0.703   5.469
 3949TIP3   OH211810   5.795   5.017   1.855
 3949TIP3    H111811   5.740   4.968   1.793
 3949TIP3    H211812   5.846   4.950   1.900
 3950TIP3   OH211813   5.386   6.504   4.667
 3950TIP3    H111814   5.312   6.508   4.728
 3950TIP3    H211815   5.462   6.525   4.720
 3951TIP3   OH211816   3.344   5.193   0.138
 3951TIP3    H111817   3.272   5.132   0.123
 3951TIP3    H211818   3.302   5.272   0.173
 3952TIP3   OH211819   3.536   6.619   4.966
 3952TIP3    H111820   3.528   6.710   4.938
 3952TIP3    H211821   3.446   6.591   4.982
 3953TIP3   OH211822   7.058   5.717   2.992
 3953TIP3    H111823   7.000   5.792   2.982
 3953TIP3    H211824   7.142   5.756   3.018
 3954TIP3   OH211825   4.217   4.768   4.493
 3954TIP3    H111826   4.139   4.720   4.520
 3954TIP3    H211827   4.197   4.800   4.405
 3955TIP3   OH211828   6.850   0.512   4.936
 3955TIP3    H111829   6.782   0.455   4.898
 3955TIP3    H211830   6.804   0.563   5.002
 3956TIP3   OH211831   0.760   1.525   0.327
 3956TIP3    H111832   0.801   1.527   0.413
 3956TIP3    H211833   0.666   1.531   0.344
 3957TIP3   OH211834   1.132   3.902   4.675
 3957TIP3    H111835   1.211   3.883   4.725
 3957TIP3    H211836   1.100   3.817   4.645
 3958TIP3   OH211837   2.483   1.223   1.790
 3958TIP3    H111838   2.429   1.279   1.734
 3958TIP3    H211839   2.429   1.147   1.808
 3959TIP3   OH211840   1.382   0.380   0.457
 3959TIP3    H111841   1.294   0.386   0.492
 3959TIP3    H211842   1.413   0.293   0.484
 3960TIP3   OH211843   4.861   1.042   5.249
 3960TIP3    H111844   4.934   1.067   5.191
 3960TIP3    H211845   4.859   0.947   5.245
 3961TIP3   OH211846   6.853   3.023   1.913
 3961TIP3    H111847   6.826   2.968   1.987
 3961TIP3    H211848   6.941   2.991   1.891
 3962TIP3   OH211849   3.167   4.227   2.459
 3962TIP3    H111850   3.233   4.292   2.482
 3962TIP3    H211851   3.096   4.277   2.419
 3963TIP3   OH211852   3.143   0.562   2.416
 3963TIP3    H111853   3.145   0.470   2.440
 3963TIP3    H211854   3.065   0.596   2.459
 3964TIP3   OH211855   4.540   5.363   3.489
 3964TIP3    H111856   4.611   5.363   3.425
 3964TIP3    H211857   4.580   5.334   3.571
 3965TIP3   OH211858   5.215   3.385   2.783
 3965TIP3    H111859   5.241   3.361   2.872
 3965TIP3    H211860   5.254   3.471   2.769
 3966TIP3   OH211861   5.264   5.493   0.686
 3966TIP3    H111862   5.180   5.462   0.651
 3966TIP3    H211863   5.253   5.587   0.694
 3967TIP3   OH211864   4.918   4.081   3.292
 3967TIP3    H111865   4.949   3.993   3.273
 3967TIP3    H211866   4.995   4.136   3.280
 3968TIP3   OH211867   1.961   3.691   4.255
 3968TIP3    H111868   2.046   3.731   4.239
 3968TIP3    H211869   1.906   3.763   4.286
 3969TIP3   OH211870   6.692   1.282   0.640
 3969TIP3    H111871   6.636   1.210   0.610
 3969TIP3    H211872   6.752   1.241   0.703
 3970TIP3   OH211873   5.613   6.497   3.343
 3970TIP3    H111874   5.592   6.410   3.379
 3970TIP3    H211875   5.531   6.546   3.351
 3971TIP3   OH211876   5.201   4.621   4.162
 3971TIP3    H111877   5.164   4.675   4.092
 3971TIP3    H211878   5.158   4.536   4.151
 3972TIP3   OH211879   6.536   6.087   5.173
 3972TIP3    H111880   6.595   6.017   5.200
 3972TIP3    H211881   6.470   6.044   5.118
 3973TIP3   OH211882   6.141   6.233   3.939
 3973TIP3    H111883   6.100   6.181   4.008
 3973TIP3    H211884   6.186   6.303   3.986
 3974TIP3   OH211885   1.524   1.138   0.351
 3974TIP3    H111886   1.578   1.061   0.367
 3974TIP3    H211887   1.452   1.107   0.297
 3975TIP3   OH211888   6.680   5.853   5.250
 3975TIP3    H111889   6.617   5.828   5.318
 3975TIP3    H211890   6.764   5.854   5.295
 3976TIP3   OH211891   0.165   6.222   4.786
 3976TIP3    H111892   0.203   6.255   4.867
 3976TIP3    H211893   0.131   6.135   4.809
 3977TIP3   OH211894   5.542   0.014   2.744
 3977TIP3    H111895   5.554   0.054   2.658
 3977TIP3    H211896   5.454   0.039   2.771
 3978TIP3   OH211897   1.119   3.826   0.217
 3978TIP3    H111898   1.026   3.825   0.240
 3978TIP3    H211899   1.121   3.817   0.122
 3979TIP3   OH211900   0.547   2.169   0.956
 3979TIP3    H111901   0.613   2.206   1.015
 3979TIP3    H211902   0.555   2.221   0.876
 3980TIP3   OH211903   4.517   2.737   1.334
 3980TIP3    H111904   4.435   2.692   1.356
 3980TIP3    H211905   4.586   2.681   1.370
 3981TIP3   OH211906   4.582   4.999   0.545
 3981TIP3    H111907   4.610   5.083   0.508
 3981TIP3    H211908   4.652   4.976   0.606
 3982TIP3   OH211909   5.826   3.521   4.875
 3982TIP3    H111910   5.760   3.479   4.930
 3982TIP3    H211911   5.860   3.592   4.929
 3983TIP3   OH211912   4.183   5.688   2.647
 3983TIP3    H111913   4.229   5.609   2.619
 3983TIP3    H211914   4.236   5.760   2.614
 3984TIP3   OH211915   5.873   3.121   5.533
 3984TIP3    H111916   5.938   3.174   5.486
 3984TIP3    H211917   5.846   3.054   5.470
 3985TIP3   OH211918   0.905   1.133   2.568
 3985TIP3    H111919   0.971   1.200   2.586
 3985TIP3    H211920   0.823   1.170   2.599
 3986TIP3   OH211921   0.896   3.079   3.011
 3986TIP3    H111922   0.922   2.992   3.041
 3986TIP3    H211923   0.800   3.076   3.006
 3987TIP3   OH211924   6.503   4.789   5.224
 3987TIP3    H111925   6.490   4.706   5.179
 3987TIP3    H211926   6.424   4.839   5.203
 3988TIP3   OH211927   3.521   3.996   4.201
 3988TIP3    H111928   3.561   3.911   4.219
 3988TIP3    H211929   3.594   4.058   4.204
 3989TIP3   OH211930   2.206   2.013   1.810
 3989TIP3    H111931   2.160   2.079   1.863
 3989TIP3    H211932   2.298   2.040   1.813
 3990TIP3   OH211933   5.935   6.393   5.120
 3990TIP3    H111934   5.893   6.344   5.050
 3990TIP3    H211935   6.014   6.430   5.080
 3991TIP3   OH211936   5.525   4.911   2.046
 3991TIP3    H111937   5.478   4.877   1.970
 3991TIP3    H211938   5.508   5.005   2.044
 3992TIP3   OH211939   4.273   2.612   1.375
 3992TIP3    H111940   4.229   2.540   1.419
 3992TIP3    H211941   4.201   2.667   1.341
 3993TIP3   OH211942   5.015   1.740   4.445
 3993TIP3    H111943   5.054   1.788   4.372
 3993TIP3    H211944   4.928   1.715   4.413
 3994TIP3   OH211945   1.222   1.656   5.107
 3994TIP3    H111946   1.169   1.613   5.040
 3994TIP3    H211947   1.166   1.661   5.184
 3995TIP3   OH211948   2.379   1.545   2.101
 3995TIP3    H111949   2.427   1.580   2.026
 3995TIP3    H211950   2.445   1.497   2.151
 3996TIP3   OH211951   6.929   2.056   4.479
 3996TIP3    H111952   6.977   1.975   4.464
 3996TIP3    H211953   6.837   2.032   4.471
 3997TIP3   OH211954   2.212   1.096   4.516
 3997TIP3    H111955   2.238   1.121   4.604
 3997TIP3    H211956   2.294   1.082   4.469
 3998TIP3   OH211957   4.167   0.923   5.754
 3998TIP3    H111958   4.086   0.959   5.718
 3998TIP3    H211959   4.232   0.993   5.741
 3999TIP3   OH211960   3.155   3.811   3.783
 3999TIP3    H111961   3.232   3.819   3.727
 3999TIP3    H211962   3.155   3.891   3.836
 4000TIP3   OH211963   2.245   1.247   0.155
 4000TIP3    H111964   2.165   1.297   0.140
 4000TIP3    H211965   2.278   1.279   0.239
 4001TIP3   OH211966   2.298   1.732   5.648
 4001TIP3    H111967   2.246   1.687   5.714
 4001TIP3    H211968   2.383   1.746   5.689
 4002TIP3   OH211969   1.001   2.552   0.209
 4002TIP3    H111970   1.074   2.490   0.210
 4002TIP3    H211971   0.930   2.506   0.164
 4003TIP3   OH211972   5.787   1.213   0.349
 4003TIP3    H111973   5.817   1.225   0.440
 4003TIP3    H211974   5.868   1.201   0.299
 4004TIP3   OH211975   1.783   3.864   5.734
 4004TIP3    H111976   1.830   3.929   5.682
 4004TIP3    H211977   1.692   3.870   5.703
 4005TIP3   OH211978   5.975   4.959   5.611
 4005TIP3    H111979   5.962   4.906   5.532
 4005TIP3    H211980   5.891   4.955   5.657
 4006TIP3   OH211981   2.140   1.325   0.755
 4006TIP3    H111982   2.229   1.352   0.731
 4006TIP3    H211983   2.117   1.257   0.691
 4007TIP3   OH211984   2.793   3.997   5.404
 4007TIP3    H111985   2.808   3.929   5.339
 4007TIP3    H211986   2.853   4.067   5.380
 4008TIP3   OH211987   2.380   2.558   1.588
 4008TIP3    H111988   2.450   2.617   1.616
 4008TIP3    H211989   2.380   2.564   1.493
 4009TIP3   OH211990   4.723   0.621   0.995
 4009TIP3    H111991   4.780   0.607   1.070
 4009TIP3    H211992   4.654   0.679   1.028
 4010TIP3   OH211993   1.880   0.079   2.067
 4010TIP3    H111994   1.904   0.172   2.072
 4010TIP3    H211995   1.855   0.066   1.975
 4011TIP3   OH211996   6.818   0.172   0.423
 4011TIP3    H111997   6.904   0.159   0.464
 4011TIP3    H211998   6.837   0.177   0.329
 4012TIP3   OH211999   6.586   5.205   3.728
 4012TIP3    H112000   6.597   5.133   3.667
 4012TIP3    H212001   6.530   5.170   3.797
 4013TIP3   OH212002   1.481   5.927   3.574
 4013TIP3    H112003   1.550   5.916   3.508
 4013TIP3    H212004   1.402   5.946   3.523
 4014TIP3   OH212005   5.258   6.032   0.408
 4014TIP3    H112006   5.171   5.993   0.413
 4014TIP3    H212007   5.243   6.126   0.411
 4015TIP3   OH212008   1.864   2.884   0.967
 4015TIP3    H112009   1.815   2.811   1.005
 4015TIP3    H212010   1.949   2.846   0.943
 4016TIP3   OH212011   3.109   5.506   3.001
 4016TIP3    H112012   3.067   5.536   3.082
 4016TIP3    H212013   3.175   5.443   3.031
 4017TIP3   OH212014   2.141   3.534   0.222
 4017TIP3    H112015   2.197   3.542   0.145
 4017TIP3    H212016   2.157   3.614   0.272
 4018TIP3   OH212017   0.677   0.349   0.394
 4018TIP3    H112018   0.681   0.443   0.379
 4018TIP3    H212019   0.737   0.312   0.329
 4019TIP3   OH212020   6.075   5.246   2.381
 4019TIP3    H112021   6.142   5.313   2.396
 4019TIP3    H212022   6.044   5.264   2.292
 4020TIP3   OH212023   1.129   5.502   0.864
 4020TIP3    H112024   1.078   5.560   0.920
 4020TIP3    H212025   1.180   5.448   0.924
 4021TIP3   OH212026   1.989   2.251   4.759
 4021TIP3    H112027   2.058   2.316   4.746
 4021TIP3    H212028   1.919   2.278   4.699
 4022TIP3   OH212029   6.478   0.671   1.498
 4022TIP3    H112030   6.470   0.579   1.474
 4022TIP3    H212031   6.560   0.700   1.457
 4023TIP3   OH212032   2.792   1.742   0.131
 4023TIP3    H112033   2.818   1.650   0.141
 4023TIP3    H212034   2.857   1.791   0.181
 4024TIP3   OH212035   5.710   2.006   3.919
 4024TIP3    H112036   5.744   1.938   3.861
 4024TIP3    H212037   5.727   1.973   4.007
 4025TIP3   OH212038   1.880   5.412   3.511
 4025TIP3    H112039   1.823   5.383   3.582
 4025TIP3    H212040   1.846   5.367   3.434
 4026TIP3   OH212041   6.199   0.040   2.139
 4026TIP3    H112042   6.188   0.012   2.048
 4026TIP3    H212043   6.280   0.092   2.138
 4027TIP3   OH212044   2.201   2.405   4.246
 4027TIP3    H112045   2.294   2.408   4.225
 4027TIP3    H212046   2.161   2.356   4.174
 4028TIP3   OH212047   2.182   4.287   3.184
 4028TIP3    H112048   2.143   4.283   3.097
 4028TIP3    H212049   2.132   4.356   3.229
 4029TIP3   OH212050   7.000   3.647   4.544
 4029TIP3    H112051   7.094   3.649   4.560
 4029TIP3    H212052   6.991   3.663   4.450
 4030TIP3   OH212053   3.147   3.800   1.576
 4030TIP3    H112054   3.199   3.869   1.535
 4030TIP3    H212055   3.163   3.811   1.670
 4031TIP3   OH212056   5.193   3.803   5.565
 4031TIP3    H112057   5.221   3.859   5.637
 4031TIP3    H212058   5.231   3.844   5.487
 4032TIP3   OH212059   0.644   0.207   5.494
 4032TIP3    H112060   0.712   0.255   5.541
 4032TIP3    H212061   0.686   0.179   5.413
 4033TIP3   OH212062   5.466   4.553   1.853
 4033TIP3    H112063   5.561   4.557   1.846
 4033TIP3    H212064   5.440   4.482   1.794
 4034TIP3   OH212065   2.172   0.293   1.201
 4034TIP3    H112066   2.077   0.301   1.187
 4034TIP3    H212067   2.196   0.371   1.250
 4035TIP3   OH212068   3.447   5.430   3.741
 4035TIP3    H112069   3.501   5.423   3.820
 4035TIP3    H212070   3.466   5.517   3.706
 4036TIP3   OH212071   1.380   4.953   2.337
 4036TIP3    H112072   1.315   4.968   2.406
 4036TIP3    H212073   1.464   4.970   2.380
 4037TIP3   OH212074   0.229   5.914   3.313
 4037TIP3    H112075   0.318   5.941   3.335
 4037TIP3    H212076   0.192   5.884   3.396
 4038TIP3   OH212077   1.953   3.590   4.768
 4038TIP3    H112078   1.931   3.655   4.701
 4038TIP3    H212079   1.913   3.509   4.736
 4039TIP3   OH212080   0.638   5.467   1.116
 4039TIP3    H112081   0.576   5.428   1.178
 4039TIP3    H212082   0.600   5.450   1.030
 4040TIP3   OH212083   2.587   1.809   4.792
 4040TIP3    H112084   2.621   1.737   4.846
 4040TIP3    H212085   2.664   1.861   4.770
 4041TIP3   OH212086   5.820   2.408   1.704
 4041TIP3    H112087   5.745   2.435   1.757
 4041TIP3    H212088   5.819   2.468   1.629
 4042TIP3   OH212089   3.548   1.819   0.195
 4042TIP3    H112090   3.600   1.900   0.194
 4042TIP3    H212091   3.483   1.833   0.264
 4043TIP3   OH212092   3.714   3.441   2.522
 4043TIP3    H112093   3.722   3.426   2.428
 4043TIP3    H212094   3.631   3.400   2.547
 4044TIP3   OH212095   0.349   0.525   2.760
 4044TIP3    H112096   0.406   0.593   2.725
 4044TIP3    H212097   0.301   0.567   2.831
 4045TIP3   OH212098   6.279   1.189   5.643
 4045TIP3    H112099   6.297   1.211   5.734
 4045TIP3    H212100   6.206   1.126   5.647
 4046TIP3   OH212101   0.029   1.393   4.116
 4046TIP3    H112102   0.051   1.436   4.199
 4046TIP3    H212103   0.080   1.441   4.050
 4047TIP3   OH212104   1.597   5.569   1.553
 4047TIP3    H112105   1.552   5.498   1.507
 4047TIP3    H212106   1.615   5.634   1.486
 4048TIP3   OH212107   0.058   2.167   0.472
 4048TIP3    H112108   0.030   2.140   0.385
 4048TIP3    H212109   0.112   2.244   0.458
 4049TIP3   OH212110   0.384   3.155   5.340
 4049TIP3    H112111   0.331   3.175   5.263
 4049TIP3    H212112   0.469   3.128   5.305
 4050TIP3   OH212113   5.650   5.205   3.983
 4050TIP3    H112114   5.703   5.276   4.017
 4050TIP3    H212115   5.656   5.214   3.888
 4051TIP3   OH212116   4.053   4.036   0.419
 4051TIP3    H112117   4.031   3.994   0.502
 4051TIP3    H212118   4.078   4.125   0.444
 4052TIP3   OH212119   1.813   2.019   3.318
 4052TIP3    H112120   1.855   1.940   3.351
 4052TIP3    H212121   1.864   2.043   3.240
 4053TIP3   OH212122   1.741   1.145   5.313
 4053TIP3    H112123   1.666   1.143   5.254
 4053TIP3    H212124   1.751   1.237   5.337
 4054TIP3   OH212125   3.159   4.571   5.196
 4054TIP3    H112126   3.198   4.621   5.268
 4054TIP3    H212127   3.121   4.639   5.139
 4055TIP3   OH212128   2.877   6.675   0.917
 4055TIP3    H112129   2.809   6.712   0.974
 4055TIP3    H212130   2.928   6.617   0.974
 4056TIP3   OH212131   5.408   2.283   1.417
 4056TIP3    H112132   5.342   2.242   1.362
 4056TIP3    H212133   5.460   2.335   1.357
 4057TIP3   OH212134   1.784   1.533   1.524
 4057TIP3    H112135   1.696   1.506   1.496
 4057TIP3    H212136   1.797   1.618   1.481
 4058TIP3   OH212137   3.632   0.099   3.766
 4058TIP3    H112138   3.536   0.097   3.768
 4058TIP3    H212139   3.655   0.174   3.821
 4059TIP3   OH212140   0.175   0.984   5.093
 4059TIP3    H112141   0.153   0.893   5.076
 4059TIP3    H212142   0.178   1.025   5.007
 4060TIP3   OH212143   0.352   0.704   3.676
 4060TIP3    H112144   0.369   0.686   3.768
 4060TIP3    H212145   0.408   0.779   3.655
 4061TIP3   OH212146   6.946   5.472   4.064
 4061TIP3    H112147   6.859   5.447   4.033
 4061TIP3    H212148   6.930   5.510   4.151
 4062TIP3   OH212149   2.927   4.834   1.917
 4062TIP3    H112150   2.892   4.882   1.992
 4062TIP3    H212151   2.905   4.888   1.842
 4063TIP3   OH212152   4.802   3.195   3.188
 4063TIP3    H112153   4.768   3.114   3.148
 4063TIP3    H212154   4.724   3.247   3.205
 4064TIP3   OH212155   0.204   2.376   0.368
 4064TIP3    H112156   0.180   2.371   0.276
 4064TIP3    H212157   0.224   2.468   0.383
 4065TIP3   OH212158   2.461   6.495   4.854
 4065TIP3    H112159   2.512   6.433   4.906
 4065TIP3    H212160   2.436   6.563   4.916
 4066TIP3   OH212161   3.804   5.160   3.103
 4066TIP3    H112162   3.786   5.253   3.114
 4066TIP3    H212163   3.718   5.119   3.096
 4067TIP3   OH212164   2.024   6.688   5.542
 4067TIP3    H112165   1.986   6.637   5.471
 4067TIP3    H212166   2.026   6.629   5.617
 4068TIP3   OH212167   4.644   4.606   5.586
 4068TIP3    H112168   4.706   4.601   5.513
 4068TIP3    H212169   4.613   4.516   5.596
 4069TIP3   OH212170   2.029   5.808   5.340
 4069TIP3    H112171   2.061   5.877   5.282
 4069TIP3    H212172   2.091   5.736   5.330
 4070TIP3   OH212173   5.228   4.785   1.219
 4070TIP3    H112174   5.254   4.875   1.239
 4070TIP3    H212175   5.311   4.736   1.217
 4071TIP3   OH212176   5.714   5.962   2.465
 4071TIP3    H112177   5.779   6.030   2.484
 4071TIP3    H212178   5.755   5.881   2.496
 4072TIP3   OH212179   1.785   1.422   5.323
 4072TIP3    H112180   1.856   1.483   5.345
 4072TIP3    H212181   1.706   1.468   5.351
 4073TIP3   OH212182   4.082   4.584   1.578
 4073TIP3    H112183   4.146   4.520   1.612
 4073TIP3    H212184   4.099   4.587   1.484
 4074TIP3   OH212185   3.340   1.721   4.980
 4074TIP3    H112186   3.430   1.754   4.971
 4074TIP3    H212187   3.294   1.755   4.904
 4075TIP3   OH212188   3.125   4.503   0.057
 4075TIP3    H112189   3.105   4.534  -0.032
 4075TIP3    H212190   3.052   4.535   0.110
 4076TIP3   OH212191   1.717   0.930   5.542
 4076TIP3    H112192   1.710   0.990   5.467
 4076TIP3    H212193   1.649   0.864   5.525
 4077TIP3   OH212194   0.659   4.731   0.124
 4077TIP3    H112195   0.673   4.768   0.211
 4077TIP3    H212196   0.615   4.801   0.075
 4078TIP3   OH212197   1.752   1.950   5.503
 4078TIP3    H112198   1.776   2.035   5.466
 4078TIP3    H212199   1.688   1.914   5.442
 4079TIP3   OH212200   6.139   2.128   5.505
 4079TIP3    H112201   6.192   2.063   5.459
 4079TIP3    H212202   6.194   2.155   5.579
 4080TIP3   OH212203   6.356   0.774   0.634
 4080TIP3    H112204   6.365   0.845   0.697
 4080TIP3    H212205   6.328   0.817   0.553
 4081TIP3   OH212206   3.049   5.328   2.503
 4081TIP3    H112207   3.008   5.252   2.544
 4081TIP3    H212208   3.117   5.355   2.565
 4082TIP3   OH212209   0.288   4.762   3.692
 4082TIP3    H112210   0.343   4.765   3.770
 4082TIP3    H212211   0.226   4.834   3.703
 4083TIP3   OH212212   6.890   5.339   3.377
 4083TIP3    H112213   6.979   5.305   3.372
 4083TIP3    H212214   6.841   5.272   3.424
 4084TIP3   OH212215   0.328   6.609   3.704
 4084TIP3    H112216   0.265   6.620   3.775
 4084TIP3    H212217   0.277   6.568   3.634
 4085TIP3   OH212218   1.766   6.182   0.206
 4085TIP3    H112219   1.817   6.102   0.222
 4085TIP3    H212220   1.684   6.167   0.253
 4086TIP3   OH212221   1.706   5.170   4.542
 4086TIP3    H112222   1.626   5.201   4.584
 4086TIP3    H212223   1.688   5.177   4.448
 4087TIP3   OH212224   3.416   5.447   5.111
 4087TIP3    H112225   3.366   5.432   5.031
 4087TIP3    H212226   3.373   5.522   5.152
 4088TIP3   OH212227   1.718   0.139   4.848
 4088TIP3    H112228   1.719   0.234   4.845
 4088TIP3    H212229   1.728   0.118   4.941
 4089TIP3   OH212230   0.939   1.797   1.167
 4089TIP3    H112231   1.002   1.817   1.099
 4089TIP3    H212232   0.856   1.834   1.135
 4090TIP3   OH212233   0.676   0.621   0.318
 4090TIP3    H112234   0.682   0.714   0.295
 4090TIP3    H212235   0.677   0.576   0.233
 4091TIP3   OH212236   2.942   0.724   0.397
 4091TIP3    H112237   2.902   0.691   0.317
 4091TIP3    H212238   2.904   0.811   0.409
 4092TIP3   OH212239   3.823   4.436   3.456
 4092TIP3    H112240   3.915   4.458   3.445
 4092TIP3    H212241   3.792   4.413   3.368
 4093TIP3   OH212242   0.975   4.992   0.064
 4093TIP3    H112243   0.916   4.920   0.038
 4093TIP3    H212244   1.060   4.950   0.074
 4094TIP3   OH212245   0.308   4.007   2.323
 4094TIP3    H112246   0.220   4.035   2.348
 4094TIP3    H212247   0.305   3.912   2.325
 4095TIP3   OH212248   3.998   4.987   1.815
 4095TIP3    H112249   3.957   4.902   1.802
 4095TIP3    H212250   4.048   4.978   1.896
 4096TIP3   OH212251   6.085   6.289   0.338
 4096TIP3    H112252   6.142   6.213   0.351
 4096TIP3    H212253   6.109   6.323   0.253
 4097TIP3   OH212254   2.838   0.351   2.858
 4097TIP3    H112255   2.769   0.285   2.858
 4097TIP3    H212256   2.900   0.322   2.925
 4098TIP3   OH212257   2.558   5.023   0.114
 4098TIP3    H112258   2.470   5.003   0.082
 4098TIP3    H212259   2.570   5.116   0.096
 4099TIP3   OH212260   6.006   0.058   1.301
 4099TIP3    H112261   6.066   0.063   1.226
 4099TIP3    H212262   6.011  -0.033   1.329
 4100TIP3   OH212263   2.918   4.372   0.757
 4100TIP3    H112264   2.947   4.446   0.704
 4100TIP3    H212265   2.998   4.338   0.797
 4101TIP3   OH212266   1.457   5.995   0.972
 4101TIP3    H112267   1.378   5.953   1.006
 4101TIP3    H212268   1.502   5.925   0.924
 4102TIP3   OH212269   3.311   3.413   5.743
 4102TIP3    H112270   3.249   3.381   5.678
 4102TIP3    H212271   3.365   3.477   5.697
 4103TIP3   OH212272   5.131   3.461   1.292
 4103TIP3    H112273   5.125   3.491   1.383
 4103TIP3    H212274   5.196   3.520   1.252
 4104TIP3   OH212275   7.208   2.714   5.296
 4104TIP3    H112276   7.285   2.768   5.314
 4104TIP3    H212277   7.138   2.777   5.279
 4105TIP3   OH212278   5.212   4.851   4.372
 4105TIP3    H112279   5.148   4.913   4.335
 4105TIP3    H212280   5.211   4.777   4.311
 4106TIP3   OH212281   0.724   0.839   0.772
 4106TIP3    H112282   0.723   0.795   0.687
 4106TIP3    H212283   0.686   0.775   0.833
 4107TIP3   OH212284   5.660   5.203   3.100
 4107TIP3    H112285   5.716   5.277   3.122
 4107TIP3    H212286   5.673   5.190   3.006
 4108TIP3   OH212287   0.099   1.639   4.750
 4108TIP3    H112288   0.076   1.585   4.826
 4108TIP3    H212289   0.181   1.682   4.775
 4109TIP3   OH212290   5.180   1.451   2.515
 4109TIP3    H112291   5.262   1.407   2.493
 4109TIP3    H212292   5.129   1.448   2.434
 4110TIP3   OH212293   5.912   5.732   4.971
 4110TIP3    H112294   5.941   5.816   4.935
 4110TIP3    H212295   5.822   5.748   5.001
 4111TIP3   OH212296   0.899   0.202   0.298
 4111TIP3    H112297   0.988   0.234   0.283
 4111TIP3    H212298   0.896   0.182   0.391
 4112TIP3   OH212299   3.297   3.779   0.958
 4112TIP3    H112300   3.298   3.697   0.909
 4112TIP3    H212301   3.318   3.846   0.893
 4113TIP3   OH212302   0.292   5.427   3.314
 4113TIP3    H112303   0.369   5.433   3.258
 4113TIP3    H212304   0.282   5.333   3.329
 4114TIP3   OH212305   0.899   0.270   3.387
 4114TIP3    H112306   0.950   0.282   3.467
 4114TIP3    H212307   0.846   0.349   3.380
 4115TIP3   OH212308   3.082   6.381   3.884
 4115TIP3    H112309   3.093   6.286   3.880
 4115TIP3    H212310   3.165   6.416   3.853
 4116TIP3   OH212311   3.752   5.202   1.380
 4116TIP3    H112312   3.797   5.209   1.295
 4116TIP3    H212313   3.741   5.108   1.393
 4117TIP3   OH212314   7.069   4.222   5.204
 4117TIP3    H112315   7.083   4.297   5.146
 4117TIP3    H212316   7.022   4.258   5.279
 4118TIP3   OH212317   5.512   3.294   2.015
 4118TIP3    H112318   5.602   3.262   2.014
 4118TIP3    H212319   5.483   3.281   2.105
 4119TIP3   OH212320   5.566   6.066   2.250
 4119TIP3    H112321   5.621   6.044   2.326
 4119TIP3    H212322   5.572   5.988   2.194
 4120TIP3   OH212323   1.774   0.268   3.812
 4120TIP3    H112324   1.840   0.311   3.867
 4120TIP3    H212325   1.690   0.290   3.852
 4121TIP3   OH212326   2.344   3.505   1.130
 4121TIP3    H112327   2.387   3.509   1.044
 4121TIP3    H212328   2.360   3.590   1.169
 4122TIP3   OH212329   3.455   4.492   1.994
 4122TIP3    H112330   3.447   4.471   2.087
 4122TIP3    H212331   3.373   4.536   1.971
 4123TIP3   OH212332   4.563   6.111   3.080
 4123TIP3    H112333   4.489   6.063   3.042
 4123TIP3    H212334   4.593   6.169   3.010
 4124TIP3   OH212335   1.170   0.238   1.333
 4124TIP3    H112336   1.116   0.191   1.397
 4124TIP3    H212337   1.247   0.266   1.382
 4125TIP3   OH212338   2.148   5.317   0.083
 4125TIP3    H112339   2.208   5.391   0.072
 4125TIP3    H212340   2.198   5.252   0.133
 4126TIP3   OH212341   3.275   6.577   0.651
 4126TIP3    H112342   3.252   6.648   0.591
 4126TIP3    H212343   3.367   6.594   0.673
 4127TIP3   OH212344   6.804   4.364   1.466
 4127TIP3    H112345   6.806   4.293   1.531
 4127TIP3    H212346   6.888   4.358   1.422
 4128TIP3   OH212347   1.933   4.336   5.002
 4128TIP3    H112348   2.015   4.289   4.991
 4128TIP3    H212349   1.951   4.424   4.969
 4129TIP3   OH212350   4.650   4.258   5.124
 4129TIP3    H112351   4.703   4.180   5.141
 4129TIP3    H212352   4.705   4.311   5.065
 4130TIP3   OH212353   6.012   4.498   5.771
 4130TIP3    H112354   6.041   4.578   5.814
 4130TIP3    H212355   6.029   4.513   5.678
 4131TIP3   OH212356   0.514   6.130   2.841
 4131TIP3    H112357   0.592   6.094   2.883
 4131TIP3    H212358   0.531   6.122   2.747
 4132TIP3   OH212359   4.432   4.395   5.781
 4132TIP3    H112360   4.385   4.443   5.713
 4132TIP3    H212361   4.385   4.416   5.862
 4133TIP3   OH212362   4.863   3.913   1.972
 4133TIP3    H112363   4.896   3.892   2.059
 4133TIP3    H212364   4.913   3.990   1.944
 4134TIP3   OH212365   0.624   3.451   5.581
 4134TIP3    H112366   0.559   3.513   5.615
 4134TIP3    H212367   0.640   3.391   5.654
 4135TIP3   OH212368   2.567   5.451   3.591
 4135TIP3    H112369   2.533   5.541   3.590
 4135TIP3    H212370   2.568   5.427   3.684
 4136TIP3   OH212371   5.751   1.631   1.908
 4136TIP3    H112372   5.668   1.589   1.928
 4136TIP3    H212373   5.801   1.564   1.860
 4137TIP3   OH212374   7.254   5.288   1.223
 4137TIP3    H112375   7.176   5.328   1.185
 4137TIP3    H212376   7.244   5.300   1.317
 4138TIP3   OH212377   0.262   2.691   5.748
 4138TIP3    H112378   0.236   2.773   5.790
 4138TIP3    H212379   0.221   2.622   5.802
 4139TIP3   OH212380   1.127   1.934   1.353
 4139TIP3    H112381   1.079   1.953   1.272
 4139TIP3    H212382   1.165   2.018   1.378
 4140TIP3   OH212383   2.075   6.481   4.080
 4140TIP3    H112384   2.069   6.398   4.127
 4140TIP3    H212385   2.014   6.472   4.006
 4141TIP3   OH212386   3.463   5.428   4.258
 4141TIP3    H112387   3.520   5.450   4.332
 4141TIP3    H212388   3.374   5.435   4.293
 4142TIP3   OH212389   4.397   3.373   2.192
 4142TIP3    H112390   4.308   3.400   2.215
 4142TIP3    H212391   4.448   3.385   2.272
 4143TIP3   OH212392   2.680   3.030   2.847
 4143TIP3    H112393   2.637   3.071   2.922
 4143TIP3    H212394   2.743   3.096   2.817
 4144TIP3   OH212395   4.365   4.058   2.398
 4144TIP3    H112396   4.275   4.081   2.373
 4144TIP3    H212397   4.419   4.099   2.331
 4145TIP3   OH212398   6.055   4.249   4.563
 4145TIP3    H112399   6.067   4.183   4.632
 4145TIP3    H212400   5.987   4.213   4.507
 4146TIP3   OH212401   6.891   2.352   5.110
 4146TIP3    H112402   6.987   2.353   5.108
 4146TIP3    H212403   6.865   2.413   5.041
 4147TIP3   OH212404   6.303   0.205   4.049
 4147TIP3    H112405   6.230   0.215   4.111
 4147TIP3    H212406   6.341   0.293   4.043
 4148TIP3   OH212407   7.135   0.087   1.864
 4148TIP3    H112408   7.054   0.127   1.895
 4148TIP3    H212409   7.156   0.020   1.930
 4149TIP3   OH212410   4.603   6.634   0.054
 4149TIP3    H112411   4.600   6.729   0.069
 4149TIP3    H212412   4.514   6.604   0.070
 4150TIP3   OH212413   6.345   6.135   4.211
 4150TIP3    H112414   6.393   6.200   4.159
 4150TIP3    H212415   6.378   6.051   4.181
 4151TIP3   OH212416   6.366   6.126   0.542
 4151TIP3    H112417   6.432   6.064   0.510
 4151TIP3    H212418   6.350   6.184   0.467
 4152TIP3   OH212419   6.844   4.012   0.714
 4152TIP3    H112420   6.811   3.927   0.683
 4152TIP3    H212421   6.774   4.074   0.693
 4153TIP3   OH212422   6.664   5.369   0.296
 4153TIP3    H112423   6.740   5.373   0.355
 4153TIP3    H212424   6.643   5.276   0.290
 4154TIP3   OH212425   3.354   0.764   5.738
 4154TIP3    H112426   3.306   0.682   5.731
 4154TIP3    H212427   3.331   0.799   5.824
 4155TIP3   OH212428   4.652   1.131   0.008
 4155TIP3    H112429   4.719   1.068   0.035
 4155TIP3    H212430   4.701   1.212  -0.011
 4156TIP3   OH212431   3.313   2.590   3.604
 4156TIP3    H112432   3.406   2.609   3.621
 4156TIP3    H212433   3.314   2.500   3.572
 4157TIP3   OH212434   6.180   4.804   4.043
 4157TIP3    H112435   6.092   4.768   4.055
 4157TIP3    H212436   6.235   4.728   4.025
 4158TIP3   OH212437   3.091   4.747   3.198
 4158TIP3    H112438   3.168   4.761   3.253
 4158TIP3    H212439   3.037   4.685   3.248
 4159TIP3   OH212440   5.041   2.721   1.818
 4159TIP3    H112441   4.969   2.693   1.762
 4159TIP3    H212442   5.110   2.748   1.758
 4160TIP3   OH212443   2.747   1.632   1.625
 4160TIP3    H112444   2.796   1.550   1.617
 4160TIP3    H212445   2.660   1.611   1.591
 4161TIP3   OH212446   0.180   4.499   5.185
 4161TIP3    H112447   0.175   4.409   5.216
 4161TIP3    H212448   0.144   4.495   5.096
 4162TIP3   OH212449   5.056   0.966   2.653
 4162TIP3    H112450   5.094   0.888   2.693
 4162TIP3    H212451   5.132   1.019   2.629
 4163TIP3   OH212452   6.438   2.926   4.685
 4163TIP3    H112453   6.514   2.867   4.689
 4163TIP3    H212454   6.443   2.965   4.598
 4164TIP3   OH212455   1.603   4.838   0.020
 4164TIP3    H112456   1.632   4.874   0.103
 4164TIP3    H212457   1.513   4.810   0.035
 4165TIP3   OH212458   2.410   5.931   1.671
 4165TIP3    H112459   2.503   5.953   1.679
 4165TIP3    H212460   2.380   5.982   1.595
 4166TIP3   OH212461   3.472   1.382   3.638
 4166TIP3    H112462   3.388   1.386   3.592
 4166TIP3    H212463   3.506   1.295   3.620
 4167TIP3   OH212464   3.714   4.857   4.948
 4167TIP3    H112465   3.660   4.793   4.903
 4167TIP3    H212466   3.707   4.936   4.895
 4168TIP3   OH212467   1.612   0.400   3.517
 4168TIP3    H112468   1.586   0.476   3.568
 4168TIP3    H212469   1.674   0.434   3.453
 4169TIP3   OH212470   1.172   3.173   0.981
 4169TIP3    H112471   1.222   3.122   1.044
 4169TIP3    H212472   1.084   3.177   1.018
 4170TIP3   OH212473   5.002   1.927   5.438
 4170TIP3    H112474   5.016   1.882   5.521
 4170TIP3    H212475   5.086   1.921   5.393
 4171TIP3   OH212476   1.855   6.055   3.982
 4171TIP3    H112477   1.817   6.027   3.899
 4171TIP3    H212478   1.877   5.973   4.027
 4172TIP3   OH212479   0.495   1.792   1.188
 4172TIP3    H112480   0.478   1.823   1.276
 4172TIP3    H212481   0.557   1.855   1.151
 4173TIP3   OH212482   6.982   1.570   2.419
 4173TIP3    H112483   6.954   1.501   2.359
 4173TIP3    H212484   7.063   1.535   2.458
 4174TIP3   OH212485   4.275   1.350   5.872
 4174TIP3    H112486   4.254   1.291   5.800
 4174TIP3    H212487   4.194   1.358   5.922
 4175TIP3   OH212488   5.680   0.255   2.489
 4175TIP3    H112489   5.643   0.340   2.513
 4175TIP3    H212490   5.604   0.198   2.479
 4176TIP3   OH212491   5.227   5.419   1.472
 4176TIP3    H112492   5.277   5.475   1.413
 4176TIP3    H212493   5.149   5.395   1.422
 4177TIP3   OH212494   0.904   0.921   2.006
 4177TIP3    H112495   0.916   0.931   1.912
 4177TIP3    H212496   0.916   0.827   2.022
 4178TIP3   OH212497   7.000   4.153   1.854
 4178TIP3    H112498   7.023   4.232   1.902
 4178TIP3    H212499   6.941   4.106   1.913
 4179TIP3   OH212500   6.689   4.511   1.906
 4179TIP3    H112501   6.647   4.490   1.823
 4179TIP3    H212502   6.771   4.463   1.904
 4180TIP3   OH212503   7.037   4.411   1.625
 4180TIP3    H112504   7.033   4.420   1.720
 4180TIP3    H212505   6.994   4.326   1.607
 4181TIP3   OH212506   3.541   6.244   4.777
 4181TIP3    H112507   3.633   6.224   4.759
 4181TIP3    H212508   3.544   6.301   4.854
 4182TIP3   OH212509   2.512   0.508   1.454
 4182TIP3    H112510   2.432   0.506   1.507
 4182TIP3    H212511   2.574   0.453   1.502
 4183TIP3   OH212512   0.473   3.597   5.755
 4183TIP3    H112513   0.399   3.541   5.780
 4183TIP3    H212514   0.544   3.569   5.813
 4184TIP3   OH212515   5.480   2.243   1.703
 4184TIP3    H112516   5.521   2.158   1.689
 4184TIP3    H212517   5.455   2.273   1.615
 4185TIP3   OH212518   5.820   3.119   2.324
 4185TIP3    H112519   5.915   3.125   2.336
 4185TIP3    H212520   5.800   3.026   2.336
 4186TIP3   OH212521   4.918   2.939   4.092
 4186TIP3    H112522   4.834   2.937   4.138
 4186TIP3    H212523   4.899   2.984   4.010
 4187TIP3   OH212524   5.221   3.873   0.777
 4187TIP3    H112525   5.187   3.921   0.702
 4187TIP3    H212526   5.157   3.887   0.846
 4188TIP3   OH212527   6.690   4.879   2.942
 4188TIP3    H112528   6.613   4.828   2.966
 4188TIP3    H212529   6.711   4.930   3.020
 4189TIP3   OH212530   5.968   4.619   4.071
 4189TIP3    H112531   6.044   4.563   4.082
 4189TIP3    H212532   5.901   4.580   4.128
 4190TIP3   OH212533   7.098   0.185   1.568
 4190TIP3    H112534   7.142   0.149   1.645
 4190TIP3    H212535   7.024   0.125   1.553
 4191TIP3   OH212536   0.152   4.522   5.828
 4191TIP3    H112537   0.117   4.441   5.867
 4191TIP3    H212538   0.224   4.547   5.885
 4192TIP3   OH212539   3.201   2.152   1.750
 4192TIP3    H112540   3.284   2.115   1.721
 4192TIP3    H212541   3.225   2.225   1.807
 4193TIP3   OH212542   3.728   0.535   0.442
 4193TIP3    H112543   3.671   0.610   0.461
 4193TIP3    H212544   3.669   0.460   0.441
 4194TIP3   OH212545   6.782   2.590   3.783
 4194TIP3    H112546   6.810   2.556   3.698
 4194TIP3    H212547   6.697   2.549   3.798
 4195TIP3   OH212548   2.811   4.190   4.137
 4195TIP3    H112549   2.782   4.260   4.196
 4195TIP3    H212550   2.888   4.153   4.181
 4196TIP3   OH212551   6.939   2.088   3.528
 4196TIP3    H112552   6.935   2.109   3.621
 4196TIP3    H212553   7.031   2.094   3.505
 4197TIP3   OH212554   7.119   1.601   5.902
 4197TIP3    H112555   7.031   1.564   5.913
 4197TIP3    H212556   7.134   1.599   5.807
 4198TIP3   OH212557   5.895   0.309   0.189
 4198TIP3    H112558   5.820   0.360   0.220
 4198TIP3    H212559   5.909   0.339   0.099
 4199TIP3   OH212560   6.307   1.186   0.606
 4199TIP3    H112561   6.314   1.243   0.682
 4199TIP3    H212562   6.385   1.131   0.610
 4200TIP3   OH212563   2.192   1.409   1.921
 4200TIP3    H112564   2.244   1.442   1.994
 4200TIP3    H212565   2.117   1.366   1.962
 4201TIP3   OH212566   5.852   6.248   4.897
 4201TIP3    H112567   5.866   6.220   4.807
 4201TIP3    H212568   5.759   6.267   4.902
 4202TIP3   OH212569   3.708   6.478   1.759
 4202TIP3    H112570   3.655   6.451   1.685
 4202TIP3    H212571   3.742   6.564   1.736
 4203TIP3   OH212572   0.562   3.520   0.429
 4203TIP3    H112573   0.595   3.435   0.401
 4203TIP3    H212574   0.499   3.545   0.361
 4204TIP3   OH212575   2.225   0.021   3.838
 4204TIP3    H112576   2.266   0.030   3.924
 4204TIP3    H212577   2.272  -0.052   3.797
 4205TIP3   OH212578   7.044   3.320   1.239
 4205TIP3    H112579   6.976   3.381   1.213
 4205TIP3    H212580   7.125   3.359   1.207
 4206TIP3   OH212581   5.460   4.961   1.466
 4206TIP3    H112582   5.500   4.938   1.383
 4206TIP3    H212583   5.368   4.938   1.456
 4207TIP3   OH212584   2.953   6.381   1.690
 4207TIP3    H112585   3.011   6.429   1.749
 4207TIP3    H212586   2.906   6.321   1.747
 4208TIP3   OH212587   2.137   1.513   4.630
 4208TIP3    H112588   2.105   1.551   4.712
 4208TIP3    H212589   2.225   1.548   4.619
 4209TIP3   OH212590   4.404   4.991   1.280
 4209TIP3    H112591   4.331   4.933   1.260
 4209TIP3    H212592   4.438   5.017   1.194
 4210TIP3   OH212593   2.721   3.943   4.205
 4210TIP3    H112594   2.754   4.029   4.179
 4210TIP3    H212595   2.798   3.898   4.241
 4211TIP3   OH212596   4.319   3.776   3.879
 4211TIP3    H112597   4.289   3.724   3.953
 4211TIP3    H212598   4.333   3.863   3.916
 4212TIP3   OH212599   3.080   2.439   4.514
 4212TIP3    H112600   3.041   2.525   4.504
 4212TIP3    H212601   3.083   2.424   4.609
 4213TIP3   OH212602   3.645   0.903   3.076
 4213TIP3    H112603   3.629   0.810   3.090
 4213TIP3    H212604   3.670   0.910   2.984
 4214TIP3   OH212605   5.352   2.581   0.791
 4214TIP3    H112606   5.295   2.544   0.723
 4214TIP3    H212607   5.362   2.673   0.767
 4215TIP3   OH212608   0.420   3.460   0.673
 4215TIP3    H112609   0.471   3.392   0.715
 4215TIP3    H212610   0.474   3.490   0.600
 4216TIP3   OH212611   5.169   6.117   3.440
 4216TIP3    H112612   5.239   6.060   3.406
 4216TIP3    H212613   5.165   6.097   3.533
 4217TIP3   OH212614   5.649   3.435   3.245
 4217TIP3    H112615   5.662   3.500   3.176
 4217TIP3    H212616   5.601   3.364   3.202
 4218TIP3   OH212617   3.888   6.647   4.105
 4218TIP3    H112618   3.971   6.601   4.092
 4218TIP3    H212619   3.843   6.640   4.021
 4219TIP3   OH212620   6.036   5.558   2.380
 4219TIP3    H112621   5.960   5.529   2.330
 4219TIP3    H212622   6.111   5.533   2.327
 4220TIP3   OH212623   6.740   6.150   0.682
 4220TIP3    H112624   6.699   6.236   0.676
 4220TIP3    H212625   6.694   6.107   0.755
 4221TIP3   OH212626   3.009   1.979   2.940
 4221TIP3    H112627   3.033   2.071   2.951
 4221TIP3    H212628   2.998   1.946   3.030
 4222TIP3   OH212629   2.035   0.171   5.273
 4222TIP3    H112630   1.974   0.244   5.258
 4222TIP3    H212631   1.979   0.093   5.275
 4223TIP3   OH212632   0.229   0.204   3.717
 4223TIP3    H112633   0.302   0.161   3.761
 4223TIP3    H212634   0.239   0.181   3.625
 4224TIP3   OH212635   7.098   2.435   5.410
 4224TIP3    H112636   7.132   2.523   5.428
 4224TIP3    H212637   7.176   2.384   5.387
 4225TIP3   OH212638   4.554   3.000   4.905
 4225TIP3    H112639   4.470   3.045   4.894
 4225TIP3    H212640   4.549   2.962   4.993
 4226TIP3   OH212641   4.519   4.194   3.096
 4226TIP3    H112642   4.485   4.178   3.184
 4226TIP3    H212643   4.440   4.200   3.041
 4227TIP3   OH212644   5.225   2.955   4.814
 4227TIP3    H112645   5.204   2.943   4.721
 4227TIP3    H212646   5.155   3.011   4.847
 4228TIP3   OH212647   1.620   2.579   1.481
 4228TIP3    H112648   1.698   2.629   1.503
 4228TIP3    H212649   1.644   2.488   1.501
 4229TIP3   OH212650   6.876   1.494   5.799
 4229TIP3    H112651   6.816   1.562   5.831
 4229TIP3    H212652   6.851   1.481   5.708
 4230TIP3   OH212653   0.638   1.124   5.684
 4230TIP3    H112654   0.605   1.194   5.626
 4230TIP3    H212655   0.733   1.131   5.677
 4231TIP3   OH212656   4.651   1.922   4.684
 4231TIP3    H112657   4.705   1.980   4.629
 4231TIP3    H212658   4.570   1.971   4.698
 4232TIP3   OH212659   0.037   4.503   0.157
 4232TIP3    H112660   0.020   4.548   0.075
 4232TIP3    H212661   0.119   4.541   0.189
 4233TIP3   OH212662   6.108   4.079   4.774
 4233TIP3    H112663   6.060   4.002   4.805
 4233TIP3    H212664   6.200   4.059   4.790
 4234TIP3   OH212665   6.005   5.439   1.156
 4234TIP3    H112666   6.051   5.469   1.234
 4234TIP3    H212667   5.915   5.471   1.168
 4235TIP3   OH212668   3.751   3.306   2.261
 4235TIP3    H112669   3.658   3.318   2.242
 4235TIP3    H212670   3.768   3.213   2.241
 4236TIP3   OH212671   6.281   6.697   0.759
 4236TIP3    H112672   6.314   6.691   0.849
 4236TIP3    H212673   6.339   6.640   0.708
 4237TIP3   OH212674   5.581   5.298   1.301
 4237TIP3    H112675   5.536   5.256   1.228
 4237TIP3    H212676   5.658   5.338   1.262
 4238TIP3   OH212677   0.593   2.613   4.329
 4238TIP3    H112678   0.568   2.555   4.257
 4238TIP3    H212679   0.509   2.649   4.360
 4239TIP3   OH212680   0.427   2.377   2.582
 4239TIP3    H112681   0.405   2.390   2.490
 4239TIP3    H212682   0.428   2.282   2.593
 4240TIP3   OH212683   6.078   5.195  -0.005
 4240TIP3    H112684   6.027   5.273  -0.025
 4240TIP3    H212685   6.060   5.177   0.088
 4241TIP3   OH212686   5.922   5.465   3.584
 4241TIP3    H112687   6.004   5.504   3.615
 4241TIP3    H212688   5.855   5.531   3.601
 4242TIP3   OH212689   5.740   5.690   0.504
 4242TIP3    H112690   5.772   5.599   0.507
 4242TIP3    H212691   5.818   5.742   0.483
 4243TIP3   OH212692   5.438   1.829   1.268
 4243TIP3    H112693   5.474   1.889   1.333
 4243TIP3    H212694   5.429   1.746   1.314
 4244TIP3   OH212695   5.942   3.677   3.039
 4244TIP3    H112696   6.020   3.625   3.018
 4244TIP3    H212697   5.967   3.728   3.116
 4245TIP3   OH212698   5.251   3.215   3.031
 4245TIP3    H112699   5.203   3.146   2.986
 4245TIP3    H212700   5.184   3.275   3.063
 4246TIP3   OH212701   3.693   4.185   5.000
 4246TIP3    H112702   3.614   4.139   5.028
 4246TIP3    H212703   3.702   4.163   4.908
 4247TIP3   OH212704   2.734   3.176   2.524
 4247TIP3    H112705   2.646   3.213   2.532
 4247TIP3    H212706   2.720   3.083   2.508
 4248TIP3   OH212707   2.449   5.218   0.853
 4248TIP3    H112708   2.511   5.291   0.854
 4248TIP3    H212709   2.460   5.175   0.938
 4249TIP3   OH212710   4.847   1.370   0.538
 4249TIP3    H112711   4.793   1.428   0.591
 4249TIP3    H212712   4.788   1.299   0.512
 4250TIP3   OH212713   4.686   0.979   0.838
 4250TIP3    H112714   4.645   1.062   0.863
 4250TIP3    H212715   4.722   0.945   0.920
 4251TIP3   OH212716   2.694   2.622   4.661
 4251TIP3    H112717   2.615   2.651   4.706
 4251TIP3    H212718   2.666   2.604   4.572
 4252TIP3   OH212719   5.248   3.720   3.289
 4252TIP3    H112720   5.190   3.678   3.352
 4252TIP3    H212721   5.257   3.810   3.320
 4253TIP3   OH212722   0.937   5.340   1.414
 4253TIP3    H112723   0.875   5.268   1.405
 4253TIP3    H212724   0.896   5.400   1.476
 4254TIP3   OH212725   2.180   5.136   0.892
 4254TIP3    H112726   2.185   5.069   0.960
 4254TIP3    H212727   2.271   5.149   0.864
 4255TIP3   OH212728   3.322   4.760   3.469
 4255TIP3    H112729   3.342   4.725   3.557
 4255TIP3    H212730   3.379   4.710   3.411
 4256TIP3   OH212731   1.396   6.156   0.649
 4256TIP3    H112732   1.416   6.087   0.585
 4256TIP3    H212733   1.333   6.212   0.605
 4257TIP3   OH212734   3.437   3.226   0.916
 4257TIP3    H112735   3.456   3.267   1.001
 4257TIP3    H212736   3.454   3.133   0.930
 4258TIP3   OH212737   4.618   0.032   4.346
 4258TIP3    H112738   4.609  -0.011   4.262
 4258TIP3    H212739   4.695   0.088   4.338
 4259TIP3   OH212740   1.648   2.762   2.381
 4259TIP3    H112741   1.673   2.672   2.357
 4259TIP3    H212742   1.572   2.751   2.438
 4260TIP3   OH212743   5.733   6.339   0.618
 4260TIP3    H112744   5.670   6.317   0.549
 4260TIP3    H212745   5.715   6.430   0.639
 4261TIP3   OH212746   1.902   1.743   1.990
 4261TIP3    H112747   1.851   1.816   1.955
 4261TIP3    H212748   1.904   1.679   1.919
 4262TIP3   OH212749   6.610   5.803   0.668
 4262TIP3    H112750   6.528   5.843   0.699
 4262TIP3    H212751   6.646   5.760   0.746
 4263TIP3   OH212752   2.435   1.914   0.497
 4263TIP3    H112753   2.411   1.897   0.588
 4263TIP3    H212754   2.377   1.985   0.470
 4264TIP3   OH212755   6.485   1.157   1.405
 4264TIP3    H112756   6.402   1.110   1.419
 4264TIP3    H212757   6.538   1.096   1.353
 4265TIP3   OH212758   3.439   0.292   1.349
 4265TIP3    H112759   3.345   0.280   1.358
 4265TIP3    H212760   3.462   0.243   1.270
 4266TIP3   OH212761   5.909   1.453   1.745
 4266TIP3    H112762   6.001   1.428   1.735
 4266TIP3    H212763   5.861   1.392   1.688
 4267TIP3   OH212764   0.554   2.153   5.592
 4267TIP3    H112765   0.648   2.144   5.575
 4267TIP3    H212766   0.544   2.132   5.685
 4268TIP3   OH212767   6.302   5.833   0.120
 4268TIP3    H112768   6.363   5.776   0.074
 4268TIP3    H212769   6.255   5.775   0.180
 4269TIP3   OH212770   5.789   5.480   5.542
 4269TIP3    H112771   5.872   5.487   5.496
 4269TIP3    H212772   5.794   5.548   5.610
 4270TIP3   OH212773   4.606   5.216   5.798
 4270TIP3    H112774   4.582   5.240   5.887
 4270TIP3    H212775   4.701   5.205   5.801
 4271TIP3   OH212776   1.579   1.050   4.307
 4271TIP3    H112777   1.545   0.985   4.246
 4271TIP3    H212778   1.508   1.063   4.370
 4272TIP3   OH212779   5.239   4.180   1.790
 4272TIP3    H112780   5.154   4.171   1.833
 4272TIP3    H212781   5.237   4.267   1.750
 4273TIP3   OH212782   4.079   1.253   2.927
 4273TIP3    H112783   4.112   1.208   2.848
 4273TIP3    H212784   3.999   1.297   2.898
 4274TIP3   OH212785   7.092   5.636   5.693
 4274TIP3    H112786   7.163   5.618   5.632
 4274TIP3    H212787   7.101   5.729   5.713
 4275TIP3   OH212788   6.622   2.931   4.938
 4275TIP3    H112789   6.642   2.926   4.844
 4275TIP3    H212790   6.702   2.902   4.981
 4276TIP3   OH212791   7.166   1.162   0.424
 4276TIP3    H112792   7.084   1.137   0.466
 4276TIP3    H212793   7.153   1.139   0.332
 4277TIP3   OH212794   5.905   6.680   3.020
 4277TIP3    H112795   5.898   6.611   2.954
 4277TIP3    H212796   5.818   6.719   3.023
 4278TIP3   OH212797   0.585   4.156   1.555
 4278TIP3    H112798   0.637   4.223   1.511
 4278TIP3    H212799   0.528   4.122   1.486
 4279TIP3   OH212800   0.724   1.059   1.056
 4279TIP3    H112801   0.723   1.144   1.100
 4279TIP3    H212802   0.737   1.080   0.964
 4280TIP3   OH212803   2.553   5.787   3.865
 4280TIP3    H112804   2.484   5.745   3.814
 4280TIP3    H212805   2.523   5.877   3.878
 4281TIP3   OH212806   3.989   0.394   2.276
 4281TIP3    H112807   3.924   0.435   2.333
 4281TIP3    H212808   4.065   0.453   2.282
 4282TIP3   OH212809   1.480   1.712   4.017
 4282TIP3    H112810   1.538   1.641   4.045
 4282TIP3    H212811   1.513   1.789   4.064
 4283TIP3   OH212812   1.488   4.311   0.073
 4283TIP3    H112813   1.554   4.367   0.115
 4283TIP3    H212814   1.497   4.227   0.117
 4284TIP3   OH212815   3.383   3.469   3.531
 4284TIP3    H112816   3.425   3.409   3.469
 4284TIP3    H212817   3.451   3.535   3.549
 4285TIP3   OH212818   2.133   2.037   1.532
 4285TIP3    H112819   2.112   1.966   1.471
 4285TIP3    H212820   2.168   1.993   1.609
 4286TIP3   OH212821   4.730   1.685   3.917
 4286TIP3    H112822   4.801   1.630   3.885
 4286TIP3    H212823   4.651   1.633   3.904
 4287TIP3   OH212824   6.032   2.507   0.078
 4287TIP3    H112825   6.031   2.589   0.028
 4287TIP3    H212826   6.003   2.441   0.016
 4288TIP3   OH212827   6.913   4.933   5.827
 4288TIP3    H112828   6.853   5.005   5.805
 4288TIP3    H212829   6.922   4.884   5.746
 4289TIP3   OH212830   5.505   0.454   2.741
 4289TIP3    H112831   5.419   0.493   2.761
 4289TIP3    H212832   5.510   0.455   2.646
 4290TIP3   OH212833   4.196   1.521   2.784
 4290TIP3    H112834   4.110   1.480   2.774
 4290TIP3    H212835   4.253   1.448   2.810
 4291TIP3   OH212836   3.913   1.808   4.845
 4291TIP3    H112837   3.919   1.783   4.938
 4291TIP3    H212838   3.978   1.876   4.835
 4292TIP3   OH212839   4.919   4.274   1.641
 4292TIP3    H112840   4.911   4.326   1.561
 4292TIP3    H212841   4.833   4.233   1.652
 4293TIP3   OH212842   6.143   4.349   1.168
 4293TIP3    H112843   6.217   4.406   1.145
 4293TIP3    H212844   6.159   4.325   1.259
 4294TIP3   OH212845   5.084   3.478   0.674
 4294TIP3    H112846   5.103   3.568   0.649
 4294TIP3    H212847   5.169   3.434   0.672
 4295TIP3   OH212848   3.772   1.274   2.042
 4295TIP3    H112849   3.843   1.321   1.997
 4295TIP3    H212850   3.707   1.259   1.973
 4296TIP3   OH212851   1.175   4.839   0.196
 4296TIP3    H112852   1.107   4.773   0.188
 4296TIP3    H212853   1.246   4.807   0.140
 4297TIP3   OH212854   4.744   1.601   5.019
 4297TIP3    H112855   4.693   1.524   4.993
 4297TIP3    H212856   4.799   1.619   4.942
 4298TIP3   OH212857   2.243   3.970   1.582
 4298TIP3    H112858   2.328   3.926   1.582
 4298TIP3    H212859   2.224   3.986   1.674
 4299TIP3   OH212860   0.960   1.160   1.239
 4299TIP3    H112861   0.954   1.118   1.153
 4299TIP3    H212862   1.032   1.223   1.230
 4300TIP3   OH212863   1.537   2.678   5.492
 4300TIP3    H112864   1.535   2.595   5.540
 4300TIP3    H212865   1.630   2.698   5.483
 4301TIP3   OH212866   6.682   0.464   2.634
 4301TIP3    H112867   6.770   0.426   2.628
 4301TIP3    H212868   6.629   0.396   2.675
 4302TIP3   OH212869   3.713   2.345   5.645
 4302TIP3    H112870   3.742   2.254   5.651
 4302TIP3    H212871   3.772   2.386   5.582
 4303TIP3   OH212872   0.018   6.504   4.117
 4303TIP3    H112873  -0.042   6.476   4.186
 4303TIP3    H212874   0.105   6.481   4.150
 4304TIP3   OH212875   6.016   5.794   2.792
 4304TIP3    H112876   5.978   5.875   2.828
 4304TIP3    H212877   6.046   5.819   2.705
 4305TIP3   OH212878   3.121   1.914   0.657
 4305TIP3    H112879   3.169   1.881   0.733
 4305TIP3    H212880   3.086   1.999   0.686
 4306TIP3   OH212881   6.669   0.837   0.324
 4306TIP3    H112882   6.577   0.834   0.297
 4306TIP3    H212883   6.690   0.746   0.345
 4307TIP3   OH212884   5.705   4.787   0.671
 4307TIP3    H112885   5.677   4.727   0.740
 4307TIP3    H212886   5.711   4.872   0.714
 4308TIP3   OH212887   3.434   3.839   5.547
 4308TIP3    H112888   3.385   3.919   5.527
 4308TIP3    H212889   3.492   3.864   5.618
 4309TIP3   OH212890   6.483   4.696   0.399
 4309TIP3    H112891   6.536   4.773   0.379
 4309TIP3    H212892   6.547   4.625   0.409
 4310TIP3   OH212893   2.446   3.947   5.356
 4310TIP3    H112894   2.495   3.892   5.418
 4310TIP3    H212895   2.430   3.890   5.281
 4311TIP3   OH212896   0.111   5.922   4.156
 4311TIP3    H112897   0.034   5.933   4.211
 4311TIP3    H212898   0.104   5.832   4.123
 4312TIP3   OH212899   4.718   3.394   2.253
 4312TIP3    H112900   4.721   3.301   2.272
 4312TIP3    H212901   4.725   3.436   2.339
 4313TIP3   OH212902   4.584   0.383   3.980
 4313TIP3    H112903   4.670   0.345   3.960
 4313TIP3    H212904   4.531   0.309   4.008
 4314TIP3   OH212905   3.628   3.117   0.533
 4314TIP3    H112906   3.549   3.169   0.545
 4314TIP3    H212907   3.604   3.050   0.469
 4315TIP3   OH212908   0.448   4.117   5.178
 4315TIP3    H112909   0.373   4.092   5.232
 4315TIP3    H212910   0.524   4.084   5.225
 4316TIP3   OH212911   0.355   2.584   3.035
 4316TIP3    H112912   0.308   2.638   2.971
 4316TIP3    H212913   0.320   2.496   3.021
 4317TIP3   OH212914   0.948   6.052   5.598
 4317TIP3    H112915   0.953   6.051   5.694
 4317TIP3    H212916   0.872   6.107   5.578
 4318TIP3   OH212917   3.772   3.038   1.203
 4318TIP3    H112918   3.828   3.012   1.130
 4318TIP3    H212919   3.807   3.122   1.232
 4319TIP3   OH212920   3.080   5.275   2.825
 4319TIP3    H112921   3.080   5.369   2.844
 4319TIP3    H212922   3.024   5.236   2.892
 4320TIP3   OH212923   5.513   0.493   0.017
 4320TIP3    H112924   5.426   0.506   0.054
 4320TIP3    H212925   5.530   0.572  -0.034
 4321TIP3   OH212926   4.374   3.413   5.017
 4321TIP3    H112927   4.370   3.388   4.925
 4321TIP3    H212928   4.295   3.376   5.056
 4322TIP3   OH212929   3.684   1.771   2.292
 4322TIP3    H112930   3.642   1.852   2.263
 4322TIP3    H212931   3.659   1.706   2.227
 4323TIP3   OH212932   6.870   5.763   0.069
 4323TIP3    H112933   6.885   5.776   0.162
 4323TIP3    H212934   6.817   5.683   0.064
 4324TIP3   OH212935   6.942   4.664   3.563
 4324TIP3    H112936   6.944   4.600   3.492
 4324TIP3    H212937   6.872   4.633   3.621
 4325TIP3   OH212938   4.236   6.158   4.981
 4325TIP3    H112939   4.231   6.087   4.916
 4325TIP3    H212940   4.235   6.113   5.065
 4326TIP3   OH212941   1.773   4.415   3.217
 4326TIP3    H112942   1.830   4.491   3.227
 4326TIP3    H212943   1.739   4.423   3.128
 4327TIP3   OH212944   2.020   2.824   1.679
 4327TIP3    H112945   2.057   2.848   1.764
 4327TIP3    H212946   2.088   2.846   1.615
 4328TIP3   OH212947   3.411   3.649   0.283
 4328TIP3    H112948   3.500   3.652   0.248
 4328TIP3    H212949   3.356   3.631   0.207
 4329TIP3   OH212950   3.755   1.179   4.107
 4329TIP3    H112951   3.661   1.192   4.118
 4329TIP3    H212952   3.765   1.085   4.095
 4330TIP3   OH212953   3.718   6.613   3.873
 4330TIP3    H112954   3.656   6.583   3.940
 4330TIP3    H212955   3.710   6.708   3.873
 4331TIP3   OH212956   0.105   5.663   0.189
 4331TIP3    H112957   0.075   5.746   0.224
 4331TIP3    H212958   0.168   5.630   0.253
 4332TIP3   OH212959   3.682   2.549   2.600
 4332TIP3    H112960   3.743   2.622   2.608
 4332TIP3    H212961   3.661   2.545   2.507
 4333TIP3   OH212962   5.688   1.139   0.689
 4333TIP3    H112963   5.769   1.174   0.652
 4333TIP3    H212964   5.624   1.209   0.677
 4334TIP3   OH212965   3.365   3.987   0.715
 4334TIP3    H112966   3.403   4.074   0.718
 4334TIP3    H212967   3.403   3.947   0.636
 4335TIP3   OH212968   3.961   3.235   5.736
 4335TIP3    H112969   4.016   3.305   5.699
 4335TIP3    H212970   4.021   3.183   5.790
 4336TIP3   OH212971   5.316   0.919   0.294
 4336TIP3    H112972   5.353   0.980   0.229
 4336TIP3    H212973   5.296   0.974   0.369
 4337TIP3   OH212974   3.648   6.748   3.609
 4337TIP3    H112975   3.709   6.794   3.667
 4337TIP3    H212976   3.701   6.680   3.567
 4338TIP3   OH212977   3.484   3.215   4.737
 4338TIP3    H112978   3.503   3.170   4.655
 4338TIP3    H212979   3.468   3.146   4.800
 4339TIP3   OH212980   3.073   3.741   4.466
 4339TIP3    H112981   3.030   3.711   4.546
 4339TIP3    H212982   3.165   3.720   4.478
 4340TIP3   OH212983   0.524   4.502   0.076
 4340TIP3    H112984   0.449   4.517   0.134
 4340TIP3    H212985   0.584   4.574   0.095
 4341TIP3   OH212986   2.639   4.934   4.456
 4341TIP3    H112987   2.552   4.962   4.431
 4341TIP3    H212988   2.679   4.902   4.376
 4342TIP3   OH212989   2.701   1.299   1.355
 4342TIP3    H112990   2.790   1.332   1.347
 4342TIP3    H212991   2.699   1.220   1.302
 4343TIP3   OH212992   4.003   3.871   1.222
 4343TIP3    H112993   4.007   3.838   1.312
 4343TIP3    H212994   4.060   3.813   1.172
 4344TIP3   OH212995   7.173   0.331   2.683
 4344TIP3    H112996   7.264   0.313   2.657
 4344TIP3    H212997   7.169   0.310   2.776
 4345TIP3   OH212998   6.586   3.168   3.988
 4345TIP3    H112999   6.566   3.076   3.971
 4345TIP3    H213000   6.615   3.169   4.079
 4346TIP3   OH213001   3.556   0.088   4.962
 4346TIP3    H113002   3.566   0.152   5.032
 4346TIP3    H213003   3.473   0.045   4.979
 4347TIP3   OH213004   2.615   0.329   1.641
 4347TIP3    H113005   2.531   0.296   1.610
 4347TIP3    H213006   2.640   0.269   1.712
 4348TIP3   OH213007   0.015   5.421   0.625
 4348TIP3    H113008  -0.005   5.331   0.650
 4348TIP3    H213009   0.109   5.431   0.642
 4349TIP3   OH213010   2.120   1.868   2.991
 4349TIP3    H113011   2.209   1.875   3.025
 4349TIP3    H213012   2.127   1.811   2.915
 4350TIP3   OH213013   6.381   6.060   5.806
 4350TIP3    H113014   6.437   6.092   5.877
 4350TIP3    H213015   6.442   6.023   5.743
 4351TIP3   OH213016   1.144   1.836   1.014
 4351TIP3    H113017   1.232   1.803   0.998
 4351TIP3    H213018   1.144   1.924   0.977
 4352TIP3   OH213019   3.329   1.844   1.555
 4352TIP3    H113020   3.244   1.800   1.553
 4352TIP3    H213021   3.337   1.885   1.468
 4353TIP3   OH213022   5.833   0.563   0.885
 4353TIP3    H113023   5.819   0.621   0.960
 4353TIP3    H213024   5.924   0.535   0.893
 4354TIP3   OH213025   2.259   5.093   0.327
 4354TIP3    H113026   2.235   5.055   0.411
 4354TIP3    H213027   2.290   5.181   0.348
 4355TIP3   OH213028   2.187   0.494   0.050
 4355TIP3    H113029   2.250   0.422   0.052
 4355TIP3    H213030   2.112   0.463   0.101
 4356TIP3   OH213031   7.207   4.611   4.306
 4356TIP3    H113032   7.228   4.684   4.365
 4356TIP3    H213033   7.132   4.568   4.348
 4357TIP3   OH213034   5.523   2.877   5.553
 4357TIP3    H113035   5.445   2.823   5.537
 4357TIP3    H213036   5.497   2.936   5.623
 4358TIP3   OH213037   3.024   5.901   3.034
 4358TIP3    H113038   3.063   5.822   3.072
 4358TIP3    H213039   3.093   5.967   3.039
 4359TIP3   OH213040   2.909   1.355   5.265
 4359TIP3    H113041   2.983   1.297   5.282
 4359TIP3    H213042   2.948   1.442   5.259
 4360TIP3   OH213043   2.746   0.554   1.080
 4360TIP3    H113044   2.679   0.608   1.123
 4360TIP3    H213045   2.704   0.469   1.069
 4361TIP3   OH213046   6.823   3.696   2.389
 4361TIP3    H113047   6.847   3.605   2.372
 4361TIP3    H213048   6.896   3.732   2.439
 4362TIP3   OH213049   4.379   1.427   5.370
 4362TIP3    H113050   4.302   1.465   5.328
 4362TIP3    H213051   4.360   1.333   5.374
 4363TIP3   OH213052   4.431   3.952   5.390
 4363TIP3    H113053   4.428   3.874   5.335
 4363TIP3    H213054   4.379   4.017   5.343
 4364TIP3   OH213055   5.831   2.222   3.320
 4364TIP3    H113056   5.776   2.147   3.344
 4364TIP3    H213057   5.920   2.190   3.329
 4365TIP3   OH213058   3.286   5.335   3.119
 4365TIP3    H113059   3.311   5.248   3.150
 4365TIP3    H213060   3.353   5.394   3.153
 4366TIP3   OH213061   6.216   0.445   2.876
 4366TIP3    H113062   6.227   0.375   2.939
 4366TIP3    H213063   6.199   0.400   2.793
 4367TIP3   OH213064   1.557   1.454   1.418
 4367TIP3    H113065   1.467   1.434   1.442
 4367TIP3    H213066   1.553   1.473   1.324
 4368TIP3   OH213067   5.667   1.725   5.476
 4368TIP3    H113068   5.668   1.631   5.458
 4368TIP3    H213069   5.634   1.764   5.395
 4369TIP3   OH213070   3.565   6.214   4.410
 4369TIP3    H113071   3.657   6.241   4.405
 4369TIP3    H213072   3.566   6.135   4.465
 4370TIP3   OH213073   2.746   3.518   3.980
 4370TIP3    H113074   2.698   3.457   4.036
 4370TIP3    H213075   2.793   3.461   3.919
 4371TIP3   OH213076   2.013   5.498   3.887
 4371TIP3    H113077   1.950   5.525   3.820
 4371TIP3    H213078   2.039   5.579   3.930
 4372TIP3   OH213079   1.542   0.418   1.150
 4372TIP3    H113080   1.608   0.479   1.182
 4372TIP3    H213081   1.508   0.460   1.071
 4373TIP3   OH213082   2.531   1.663   1.867
 4373TIP3    H113083   2.600   1.605   1.833
 4373TIP3    H213084   2.452   1.635   1.821
 4374TIP3   OH213085   5.153   1.782   2.367
 4374TIP3    H113086   5.221   1.723   2.400
 4374TIP3    H213087   5.071   1.735   2.383
 4375TIP3   OH213088   7.038   5.323   1.734
 4375TIP3    H113089   7.116   5.350   1.783
 4375TIP3    H213090   7.007   5.245   1.779
 4376TIP3   OH213091   2.079   0.839   4.819
 4376TIP3    H113092   2.115   0.927   4.827
 4376TIP3    H213093   2.050   0.816   4.907
 4377TIP3   OH213094   1.515   2.167   1.306
 4377TIP3    H113095   1.459   2.152   1.382
 4377TIP3    H213096   1.505   2.088   1.253
 4378TIP3   OH213097   6.718   3.338   1.422
 4378TIP3    H113098   6.694   3.329   1.514
 4378TIP3    H213099   6.812   3.321   1.420
 4379TIP3   OH213100   5.794   5.008   0.813
 4379TIP3    H113101   5.826   4.989   0.901
 4379TIP3    H213102   5.872   5.035   0.765
 4380TIP3   OH213103   3.584   1.895   4.237
 4380TIP3    H113104   3.501   1.939   4.217
 4380TIP3    H213105   3.579   1.876   4.331
 4381TIP3   OH213106   1.723   4.381   4.473
 4381TIP3    H113107   1.711   4.441   4.547
 4381TIP3    H213108   1.658   4.408   4.409
 4382TIP3   OH213109   5.926   1.916   5.052
 4382TIP3    H113110   5.961   1.848   4.994
 4382TIP3    H213111   5.996   1.982   5.057
 4383TIP3   OH213112   3.120   0.185   0.045
 4383TIP3    H113113   3.188   0.136   0.091
 4383TIP3    H213114   3.064   0.118   0.006
 4384TIP3   OH213115   6.901   4.082   4.549
 4384TIP3    H113116   6.853   4.029   4.485
 4384TIP3    H213117   6.989   4.043   4.550
 4385TIP3   OH213118   5.985   5.614   0.908
 4385TIP3    H113119   5.998   5.569   0.991
 4385TIP3    H213120   6.002   5.706   0.928
 4386TIP3   OH213121   0.855   5.915   1.816
 4386TIP3    H113122   0.792   5.863   1.865
 4386TIP3    H213123   0.831   6.006   1.835
 4387TIP3   OH213124   1.599   6.600   1.808
 4387TIP3    H113125   1.623   6.660   1.737
 4387TIP3    H213126   1.601   6.513   1.767
 4388TIP3   OH213127   2.758   1.440   4.311
 4388TIP3    H113128   2.686   1.456   4.251
 4388TIP3    H213129   2.728   1.475   4.395
 4389TIP3   OH213130   1.508   1.214   0.864
 4389TIP3    H113131   1.442   1.283   0.864
 4389TIP3    H213132   1.514   1.185   0.955
 4390TIP3   OH213133   3.150   0.802   2.674
 4390TIP3    H113134   3.209   0.820   2.601
 4390TIP3    H213135   3.063   0.823   2.641
 4391TIP3   OH213136   2.324   1.719   1.113
 4391TIP3    H113137   2.234   1.696   1.090
 4391TIP3    H213138   2.366   1.635   1.132
 4392TIP3   OH213139   6.255   2.906   5.511
 4392TIP3    H113140   6.246   2.919   5.417
 4392TIP3    H213141   6.175   2.861   5.537
 4393TIP3   OH213142   6.770   6.152   2.075
 4393TIP3    H113143   6.848   6.121   2.121
 4393TIP3    H213144   6.786   6.246   2.064
 4394TIP3   OH213145   0.589   5.779   2.843
 4394TIP3    H113146   0.639   5.846   2.889
 4394TIP3    H213147   0.614   5.789   2.751
 4395TIP3   OH213148   3.581   6.025   5.301
 4395TIP3    H113149   3.571   6.070   5.216
 4395TIP3    H213150   3.493   6.027   5.339
 4396TIP3   OH213151   6.416   3.368   3.076
 4396TIP3    H113152   6.322   3.370   3.092
 4396TIP3    H213153   6.455   3.367   3.164
 4397TIP3   OH213154   6.586   1.803   4.238
 4397TIP3    H113155   6.600   1.805   4.143
 4397TIP3    H213156   6.505   1.754   4.250
 4398TIP3   OH213157   4.243   0.385   5.239
 4398TIP3    H113158   4.158   0.404   5.277
 4398TIP3    H213159   4.274   0.307   5.285
 4399TIP3   OH213160   0.310   3.553   1.567
 4399TIP3    H113161   0.223   3.560   1.527
 4399TIP3    H213162   0.325   3.459   1.576
 4400TIP3   OH213163   6.580   3.358   3.296
 4400TIP3    H113164   6.634   3.414   3.240
 4400TIP3    H213165   6.561   3.412   3.373
 4401TIP3   OH213166   2.184   4.512   1.360
 4401TIP3    H113167   2.235   4.452   1.306
 4401TIP3    H213168   2.235   4.523   1.440
 4402TIP3   OH213169   6.946   0.680   5.234
 4402TIP3    H113170   6.867   0.629   5.218
 4402TIP3    H213171   6.920   0.747   5.297
 4403TIP3   OH213172   3.851   1.921   0.652
 4403TIP3    H113173   3.803   1.911   0.734
 4403TIP3    H213174   3.925   1.977   0.675
 4404TIP3   OH213175   7.204   0.362   3.749
 4404TIP3    H113176   7.139   0.294   3.732
 4404TIP3    H213177   7.287   0.315   3.755
 4405TIP3   OH213178   0.675   5.812   2.586
 4405TIP3    H113179   0.714   5.726   2.569
 4405TIP3    H213180   0.612   5.825   2.515
 4406TIP3   OH213181   2.276   4.848   1.568
 4406TIP3    H113182   2.272   4.887   1.655
 4406TIP3    H213183   2.357   4.797   1.568
 4407TIP3   OH213184   0.118   3.809   0.041
 4407TIP3    H113185   0.181   3.881   0.035
 4407TIP3    H213186   0.119   3.769  -0.046
 4408TIP3   OH213187   0.271   1.936   1.959
 4408TIP3    H113188   0.297   1.881   2.033
 4408TIP3    H213189   0.176   1.942   1.965
 4409TIP3   OH213190   1.395   5.901   0.028
 4409TIP3    H113191   1.341   5.872  -0.045
 4409TIP3    H213192   1.406   5.995   0.015
 4410TIP3   OH213193   5.575   4.962   5.455
 4410TIP3    H113194   5.615   4.999   5.377
 4410TIP3    H213195   5.521   4.890   5.422
 4411TIP3   OH213196   4.673   0.275   0.256
 4411TIP3    H113197   4.586   0.236   0.267
 4411TIP3    H213198   4.708   0.234   0.176
 4412TIP3   OH213199   4.755   2.029   0.525
 4412TIP3    H113200   4.824   2.091   0.501
 4412TIP3    H213201   4.784   1.992   0.608
 4413TIP3   OH213202   5.472   2.345   2.551
 4413TIP3    H113203   5.513   2.344   2.638
 4413TIP3    H213204   5.482   2.256   2.518
 4414TIP3   OH213205   4.813   4.827   3.821
 4414TIP3    H113206   4.773   4.848   3.906
 4414TIP3    H213207   4.837   4.735   3.827
 4415TIP3   OH213208   3.307   1.932   1.290
 4415TIP3    H113209   3.212   1.919   1.288
 4415TIP3    H213210   3.330   1.964   1.203
 4416TIP3   OH213211   6.810   2.495   1.010
 4416TIP3    H113212   6.750   2.438   0.963
 4416TIP3    H213213   6.790   2.583   0.978
 4417TIP3   OH213214   3.710   1.558   4.725
 4417TIP3    H113215   3.688   1.651   4.731
 4417TIP3    H213216   3.713   1.539   4.631
 4418TIP3   OH213217   3.290   4.279   4.296
 4418TIP3    H113218   3.351   4.276   4.222
 4418TIP3    H213219   3.334   4.230   4.365
 4419TIP3   OH213220   2.431   3.284  -0.018
 4419TIP3    H113221   2.506   3.320   0.030
 4419TIP3    H213222   2.379   3.240   0.050
 4420TIP3   OH213223   3.461   3.356   1.169
 4420TIP3    H113224   3.427   3.430   1.220
 4420TIP3    H213225   3.556   3.363   1.178
 4421TIP3   OH213226   3.404   4.384   1.449
 4421TIP3    H113227   3.443   4.297   1.443
 4421TIP3    H213228   3.445   4.424   1.525
 4422TIP3   OH213229   6.532   4.181   3.234
 4422TIP3    H113230   6.446   4.222   3.229
 4422TIP3    H213231   6.593   4.255   3.243
 4423TIP3   OH213232   3.651   4.788   1.735
 4423TIP3    H113233   3.611   4.721   1.679
 4423TIP3    H213234   3.740   4.755   1.752
 4424TIP3   OH213235   4.114   0.481   0.288
 4424TIP3    H113236   4.090   0.517   0.202
 4424TIP3    H213237   4.185   0.419   0.268
 4425TIP3   OH213238   6.423   2.966   3.034
 4425TIP3    H113239   6.432   2.992   2.943
 4425TIP3    H213240   6.506   2.923   3.055
 4426TIP3   OH213241   7.116   2.195   1.717
 4426TIP3    H113242   7.076   2.125   1.768
 4426TIP3    H213243   7.172   2.150   1.654
 4427TIP3   OH213244   2.131   5.222   2.531
 4427TIP3    H113245   2.050   5.224   2.583
 4427TIP3    H213246   2.201   5.228   2.596
 4428TIP3   OH213247   5.198   3.876   5.835
 4428TIP3    H113248   5.115   3.924   5.832
 4428TIP3    H213249   5.176   3.792   5.875
 4429TIP3   OH213250   4.724   4.487   2.785
 4429TIP3    H113251   4.728   4.397   2.818
 4429TIP3    H213252   4.709   4.541   2.863
 4430TIP3   OH213253   0.099   6.079   5.062
 4430TIP3    H113254   0.147   6.026   5.126
 4430TIP3    H213255   0.023   6.026   5.039
 4431TIP3   OH213256   5.212   6.520   4.891
 4431TIP3    H113257   5.125   6.487   4.872
 4431TIP3    H213258   5.244   6.465   4.962
 4432TIP3   OH213259   3.172   4.622   4.164
 4432TIP3    H113260   3.260   4.643   4.133
 4432TIP3    H213261   3.117   4.627   4.086
 4433TIP3   OH213262   6.312   6.025   5.524
 4433TIP3    H113263   6.304   6.117   5.551
 4433TIP3    H213264   6.274   6.022   5.437
 4434TIP3   OH213265   5.583   5.087   2.337
 4434TIP3    H113266   5.584   4.998   2.303
 4434TIP3    H213267   5.585   5.076   2.432
 4435TIP3   OH213268   2.367   1.063   3.080
 4435TIP3    H113269   2.292   1.022   3.036
 4435TIP3    H213270   2.439   1.053   3.018
 4436TIP3   OH213271   3.974   0.758   5.542
 4436TIP3    H113272   3.955   0.726   5.454
 4436TIP3    H213273   3.962   0.852   5.537
 4437TIP3   OH213274   3.753   4.600   5.506
 4437TIP3    H113275   3.833   4.603   5.453
 4437TIP3    H213276   3.682   4.609   5.443
 4438TIP3   OH213277   5.483   4.044   0.121
 4438TIP3    H113278   5.481   4.138   0.141
 4438TIP3    H213279   5.574   4.019   0.132
 4439TIP3   OH213280   5.474   1.432   3.842
 4439TIP3    H113281   5.392   1.477   3.864
 4439TIP3    H213282   5.451   1.339   3.839
 4440TIP3   OH213283   2.996   6.047   2.479
 4440TIP3    H113284   2.994   6.005   2.565
 4440TIP3    H213285   2.910   6.087   2.470
 4441TIP3   OH213286   1.012   4.375   4.519
 4441TIP3    H113287   0.924   4.412   4.507
 4441TIP3    H213288   1.071   4.439   4.479
 4442TIP3   OH213289   1.603   4.942   2.524
 4442TIP3    H113290   1.587   4.862   2.574
 4442TIP3    H213291   1.689   4.929   2.484
 4443TIP3   OH213292   5.900   4.798   5.022
 4443TIP3    H113293   5.823   4.793   5.078
 4443TIP3    H213294   5.974   4.798   5.082
 4444TIP3   OH213295   5.756   5.213   3.713
 4444TIP3    H113296   5.813   5.287   3.690
 4444TIP3    H213297   5.808   5.135   3.692
 4445TIP3   OH213298   1.884   6.566   3.592
 4445TIP3    H113299   1.862   6.658   3.608
 4445TIP3    H213300   1.976   6.559   3.617
 4446TIP3   OH213301   3.320   1.761   4.371
 4446TIP3    H113302   3.328   1.782   4.278
 4446TIP3    H213303   3.259   1.828   4.405
 4447TIP3   OH213304   6.789   4.340   2.733
 4447TIP3    H113305   6.713   4.289   2.705
 4447TIP3    H213306   6.864   4.286   2.710
 4448TIP3   OH213307   2.772   4.193   2.396
 4448TIP3    H113308   2.724   4.189   2.479
 4448TIP3    H213309   2.720   4.140   2.336
 4449TIP3   OH213310   2.019   6.751   2.383
 4449TIP3    H113311   2.047   6.842   2.394
 4449TIP3    H213312   2.010   6.717   2.472
 4450TIP3   OH213313   0.524   5.193   0.005
 4450TIP3    H113314   0.593   5.183  -0.060
 4450TIP3    H213315   0.516   5.106   0.044
 4451TIP3   OH213316   6.565   0.683   4.822
 4451TIP3    H113317   6.476   0.716   4.817
 4451TIP3    H213318   6.562   0.599   4.776
 4452TIP3   OH213319   6.665   4.702   5.426
 4452TIP3    H113320   6.592   4.730   5.371
 4452TIP3    H213321   6.625   4.642   5.489
 4453TIP3   OH213322   4.087   3.704   4.570
 4453TIP3    H113323   4.113   3.795   4.573
 4453TIP3    H213324   4.095   3.673   4.660
 4454TIP3   OH213325   0.776   0.506   3.711
 4454TIP3    H113326   0.741   0.588   3.677
 4454TIP3    H213327   0.858   0.493   3.663
 4455TIP3   OH213328   0.846   1.422   5.803
 4455TIP3    H113329   0.755   1.409   5.827
 4455TIP3    H213330   0.865   1.352   5.740
 4456TIP3   OH213331   5.609   2.044   5.473
 4456TIP3    H113332   5.688   2.081   5.433
 4456TIP3    H213333   5.632   2.033   5.565
 4457TIP3   OH213334   2.907   6.048   4.407
 4457TIP3    H113335   2.955   6.126   4.435
 4457TIP3    H213336   2.830   6.081   4.362
 4458TIP3   OH213337   0.748   0.134   2.482
 4458TIP3    H113338   0.714   0.161   2.397
 4458TIP3    H213339   0.732   0.210   2.539
 4459TIP3   OH213340   0.887   0.571   4.568
 4459TIP3    H113341   0.861   0.612   4.485
 4459TIP3    H213342   0.904   0.480   4.546
 4460TIP3   OH213343   1.013   2.889   2.588
 4460TIP3    H113344   1.090   2.945   2.575
 4460TIP3    H213345   0.955   2.910   2.515
 4461TIP3   OH213346   1.205   4.247   5.451
 4461TIP3    H113347   1.275   4.195   5.411
 4461TIP3    H213348   1.251   4.308   5.510
 4462TIP3   OH213349   0.755   4.868   5.501
 4462TIP3    H113350   0.714   4.940   5.454
 4462TIP3    H213351   0.835   4.849   5.453
 4463TIP3   OH213352   4.714   5.904   5.076
 4463TIP3    H113353   4.670   5.971   5.128
 4463TIP3    H213354   4.760   5.851   5.141
 4464TIP3   OH213355   1.253   5.938   3.417
 4464TIP3    H113356   1.256   5.847   3.388
 4464TIP3    H213357   1.159   5.955   3.429
 4465TIP3   OH213358   4.754   2.611   5.330
 4465TIP3    H113359   4.802   2.693   5.321
 4465TIP3    H213360   4.807   2.547   5.283
 4466TIP3   OH213361   5.269   2.339   4.377
 4466TIP3    H113362   5.249   2.426   4.341
 4466TIP3    H213363   5.242   2.344   4.469
 4467TIP3   OH213364   6.763   5.361   0.880
 4467TIP3    H113365   6.833   5.408   0.835
 4467TIP3    H213366   6.697   5.428   0.898
 4468TIP3   OH213367   2.540   4.685   3.710
 4468TIP3    H113368   2.539   4.750   3.781
 4468TIP3    H213369   2.550   4.601   3.755
 4469TIP3   OH213370   6.288   5.267   0.157
 4469TIP3    H113371   6.219   5.232   0.101
 4469TIP3    H213372   6.359   5.291   0.097
 4470TIP3   OH213373   3.762   1.393   3.208
 4470TIP3    H113374   3.842   1.438   3.236
 4470TIP3    H213375   3.787   1.300   3.206
 4471TIP3   OH213376   0.139   5.917   4.780
 4471TIP3    H113377   0.181   5.913   4.694
 4471TIP3    H213378   0.050   5.947   4.762
 4472TIP3   OH213379   4.425   2.057   4.813
 4472TIP3    H113380   4.422   2.151   4.835
 4472TIP3    H213381   4.357   2.046   4.747
 4473TIP3   OH213382   3.615   2.832   5.675
 4473TIP3    H113383   3.526   2.864   5.662
 4473TIP3    H213384   3.669   2.911   5.680
 4474TIP3   OH213385   1.877   5.048   3.086
 4474TIP3    H113386   1.959   5.001   3.101
 4474TIP3    H213387   1.826   5.031   3.166
 4475TIP3   OH213388   5.451   0.647   4.502
 4475TIP3    H113389   5.519   0.708   4.534
 4475TIP3    H213390   5.382   0.704   4.468
 4476TIP3   OH213391   5.185   3.950   3.444
 4476TIP3    H113392   5.247   4.021   3.433
 4476TIP3    H213393   5.112   3.988   3.492
 4477TIP3   OH213394   2.455   0.554   2.533
 4477TIP3    H113395   2.452   0.538   2.439
 4477TIP3    H213396   2.433   0.470   2.572
 4478TIP3   OH213397   2.991   2.723   4.510
 4478TIP3    H113398   3.070   2.776   4.511
 4478TIP3    H213399   2.960   2.729   4.419
 4479TIP3   OH213400   4.558   1.961   2.644
 4479TIP3    H113401   4.549   1.867   2.653
 4479TIP3    H213402   4.652   1.976   2.633
 4480TIP3   OH213403   4.667   4.227   0.937
 4480TIP3    H113404   4.591   4.269   0.895
 4480TIP3    H213405   4.662   4.255   1.029
 4481TIP3   OH213406   1.196   6.256   0.502
 4481TIP3    H113407   1.125   6.318   0.485
 4481TIP3    H213408   1.195   6.198   0.425
 4482TIP3   OH213409   3.037   2.589   0.495
 4482TIP3    H113410   3.109   2.597   0.433
 4482TIP3    H213411   3.000   2.677   0.500
 4483TIP3   OH213412   3.111   4.089   0.549
 4483TIP3    H113413   3.087   4.152   0.481
 4483TIP3    H213414   3.206   4.095   0.555
 4484TIP3   OH213415   5.892   4.926   1.061
 4484TIP3    H113416   5.970   4.902   1.010
 4484TIP3    H213417   5.909   5.015   1.091
 4485TIP3   OH213418   4.949   3.359   1.644
 4485TIP3    H113419   4.961   3.428   1.709
 4485TIP3    H213420   4.931   3.280   1.696
 4486TIP3   OH213421   7.102   1.235   0.771
 4486TIP3    H113422   7.122   1.187   0.851
 4486TIP3    H213423   7.016   1.203   0.745
 4487TIP3   OH213424   1.839   4.768   0.758
 4487TIP3    H113425   1.889   4.849   0.747
 4487TIP3    H213426   1.750   4.792   0.730
 4488TIP3   OH213427   4.121   4.270   0.688
 4488TIP3    H113428   4.099   4.242   0.777
 4488TIP3    H213429   4.174   4.198   0.653
 4489TIP3   OH213430   4.898   3.472   4.872
 4489TIP3    H113431   4.825   3.443   4.927
 4489TIP3    H213432   4.922   3.557   4.908
 4490TIP3   OH213433   2.762   2.245   4.610
 4490TIP3    H113434   2.820   2.263   4.684
 4490TIP3    H213435   2.674   2.263   4.642
 4491TIP3   OH213436   1.379   3.441   0.347
 4491TIP3    H113437   1.403   3.527   0.383
 4491TIP3    H213438   1.300   3.458   0.296
 4492TIP3   OH213439   6.522   1.580   5.702
 4492TIP3    H113440   6.545   1.529   5.625
 4492TIP3    H213441   6.512   1.516   5.772
 4493TIP3   OH213442   4.438   4.202   3.803
 4493TIP3    H113443   4.510   4.191   3.865
 4493TIP3    H213444   4.361   4.165   3.848
 4494TIP3   OH213445   5.099   6.462   0.341
 4494TIP3    H113446   5.086   6.555   0.323
 4494TIP3    H213447   5.022   6.419   0.302
 4495TIP3   OH213448   0.935   0.248   1.838
 4495TIP3    H113449   0.943   0.251   1.933
 4495TIP3    H213450   0.932   0.340   1.811
 4496TIP3   OH213451   5.063   6.066   3.039
 4496TIP3    H113452   5.019   5.985   3.013
 4496TIP3    H213453   4.996   6.114   3.088
 4497TIP3   OH213454   4.803   3.938   0.691
 4497TIP3    H113455   4.823   3.853   0.652
 4497TIP3    H213456   4.789   3.919   0.784
 4498TIP3   OH213457   0.876   6.720   5.060
 4498TIP3    H113458   0.910   6.802   5.097
 4498TIP3    H213459   0.825   6.681   5.131
 4499TIP3   OH213460   2.562   3.855   3.414
 4499TIP3    H113461   2.536   3.820   3.499
 4499TIP3    H213462   2.487   3.908   3.387
 4500TIP3   OH213463   1.056   6.646   4.530
 4500TIP3    H113464   1.143   6.683   4.545
 4500TIP3    H213465   1.025   6.624   4.618
 4501TIP3   OH213466   1.549   1.934   5.106
 4501TIP3    H113467   1.459   1.921   5.079
 4501TIP3    H213468   1.543   1.979   5.190
 4502TIP3   OH213469   1.241   5.699   3.312
 4502TIP3    H113470   1.185   5.662   3.243
 4502TIP3    H213471   1.284   5.623   3.351
 4503TIP3   OH213472   6.916   1.305   3.351
 4503TIP3    H113473   6.836   1.342   3.389
 4503TIP3    H213474   6.888   1.221   3.314
 4504TIP3   OH213475   2.441   3.146   1.488
 4504TIP3    H113476   2.469   3.237   1.479
 4504TIP3    H213477   2.360   3.141   1.436
 4505TIP3   OH213478   1.361   3.399   5.452
 4505TIP3    H113479   1.373   3.408   5.547
 4505TIP3    H213480   1.394   3.311   5.432
 4506TIP3   OH213481   2.142   3.419   4.591
 4506TIP3    H113482   2.055   3.380   4.580
 4506TIP3    H213483   2.189   3.358   4.647
 4507TIP3   OH213484   1.792   0.051   1.818
 4507TIP3    H113485   1.773   0.089   1.733
 4507TIP3    H213486   1.831  -0.034   1.798
 4508TIP3   OH213487   4.792   0.225   2.160
 4508TIP3    H113488   4.839   0.277   2.224
 4508TIP3    H213489   4.734   0.288   2.116
 4509TIP3   OH213490   3.418   0.120   0.339
 4509TIP3    H113491   3.377   0.036   0.357
 4509TIP3    H213492   3.391   0.143   0.250
 4510TIP3   OH213493   6.204   4.555   1.864
 4510TIP3    H113494   6.159   4.542   1.947
 4510TIP3    H213495   6.261   4.630   1.879
 4511TIP3   OH213496   1.973   6.117   2.364
 4511TIP3    H113497   2.018   6.172   2.300
 4511TIP3    H213498   1.983   6.028   2.330
 4512TIP3   OH213499   0.546   5.417   0.865
 4512TIP3    H113500   0.631   5.374   0.866
 4512TIP3    H213501   0.483   5.346   0.849
 4513TIP3   OH213502   5.159   2.161   2.525
 4513TIP3    H113503   5.193   2.180   2.437
 4513TIP3    H213504   5.159   2.247   2.569
 4514TIP3   OH213505   6.721   4.349   3.457
 4514TIP3    H113506   6.672   4.278   3.498
 4514TIP3    H213507   6.813   4.323   3.467
 4515TIP3   OH213508   3.495   4.475   2.729
 4515TIP3    H113509   3.534   4.415   2.793
 4515TIP3    H213510   3.563   4.541   2.714
 4516TIP3   OH213511   4.438   2.576   5.329
 4516TIP3    H113512   4.446   2.515   5.402
 4516TIP3    H213513   4.500   2.647   5.350
 4517TIP3   OH213514   1.337   4.202   4.327
 4517TIP3    H113515   1.387   4.181   4.249
 4517TIP3    H213516   1.246   4.184   4.303
 4518TIP3   OH213517   4.023   4.950   0.448
 4518TIP3    H113518   3.999   4.895   0.522
 4518TIP3    H213519   3.940   4.988   0.419
 4519TIP3   OH213520   2.068   4.110   4.158
 4519TIP3    H113521   2.049   4.073   4.244
 4519TIP3    H213522   2.115   4.041   4.112
 4520TIP3   OH213523   0.484   6.169   1.149
 4520TIP3    H113524   0.518   6.256   1.127
 4520TIP3    H213525   0.415   6.153   1.084
 4521TIP3   OH213526   5.411   0.975   2.805
 4521TIP3    H113527   5.322   0.963   2.772
 4521TIP3    H213528   5.467   0.962   2.729
 4522TIP3   OH213529   4.896   4.352   5.490
 4522TIP3    H113530   4.908   4.445   5.467
 4522TIP3    H213531   4.803   4.336   5.480
 4523TIP3   OH213532   4.139   5.423   4.998
 4523TIP3    H113533   4.142   5.506   5.045
 4523TIP3    H213534   4.058   5.382   5.026
 4524TIP3   OH213535   6.008   1.268   2.751
 4524TIP3    H113536   5.970   1.186   2.780
 4524TIP3    H213537   6.075   1.288   2.816
 4525TIP3   OH213538   2.258   3.406   4.298
 4525TIP3    H113539   2.295   3.485   4.259
 4525TIP3    H213540   2.228   3.434   4.384
 4526TIP3   OH213541   4.613   3.810   5.092
 4526TIP3    H113542   4.665   3.753   5.148
 4526TIP3    H213543   4.528   3.816   5.136
 4527TIP3   OH213544   0.414   0.931   0.052
 4527TIP3    H113545   0.389   0.841   0.031
 4527TIP3    H213546   0.332   0.981   0.044
 4528TIP3   OH213547   4.659   4.948   3.648
 4528TIP3    H113548   4.718   4.888   3.693
 4528TIP3    H213549   4.692   5.035   3.670
 4529TIP3   OH213550   4.433   1.025   2.392
 4529TIP3    H113551   4.338   1.017   2.389
 4529TIP3    H213552   4.459   0.968   2.465
 4530TIP3   OH213553   6.811   3.188   3.411
 4530TIP3    H113554   6.742   3.226   3.357
 4530TIP3    H213555   6.892   3.223   3.374
 4531TIP3   OH213556   4.073   3.185   2.351
 4531TIP3    H113557   4.063   3.156   2.260
 4531TIP3    H213558   4.100   3.277   2.344
 4532TIP3   OH213559   2.153   4.812   4.335
 4532TIP3    H113560   2.241   4.849   4.348
 4532TIP3    H213561   2.167   4.737   4.277
 4533TIP3   OH213562   2.262   1.969   0.806
 4533TIP3    H113563   2.330   2.002   0.864
 4533TIP3    H213564   2.221   2.048   0.770
 4534TIP3   OH213565   1.832   1.555   3.058
 4534TIP3    H113566   1.874   1.479   3.019
 4534TIP3    H213567   1.741   1.527   3.071
 4535TIP3   OH213568   2.903   5.012   1.681
 4535TIP3    H113569   2.998   5.019   1.673
 4535TIP3    H213570   2.871   5.101   1.666
 4536TIP3   OH213571   3.082   5.269   4.354
 4536TIP3    H113572   3.152   5.239   4.411
 4536TIP3    H213573   3.069   5.197   4.292
 4537TIP3   OH213574   4.104   2.544   5.481
 4537TIP3    H113575   4.140   2.607   5.418
 4537TIP3    H213576   4.017   2.577   5.500
 4538TIP3   OH213577   4.444   5.821   3.284
 4538TIP3    H113578   4.480   5.773   3.210
 4538TIP3    H213579   4.350   5.826   3.265
 4539TIP3   OH213580   6.173   5.471   4.814
 4539TIP3    H113581   6.215   5.545   4.770
 4539TIP3    H213582   6.243   5.432   4.867
 4540TIP3   OH213583   3.049   0.490   5.743
 4540TIP3    H113584   3.106   0.413   5.753
 4540TIP3    H213585   3.057   0.536   5.826
 4541TIP3   OH213586   0.647   3.640   0.048
 4541TIP3    H113587   0.595   3.693   0.109
 4541TIP3    H213588   0.589   3.568   0.023
 4542TIP3   OH213589   5.818   6.059   0.493
 4542TIP3    H113590   5.731   6.029   0.466
 4542TIP3    H213591   5.802   6.143   0.536
 4543TIP3   OH213592   2.734   1.115   0.978
 4543TIP3    H113593   2.644   1.144   0.963
 4543TIP3    H213594   2.762   1.078   0.895
 4544TIP3   OH213595   1.738   3.868   4.240
 4544TIP3    H113596   1.696   3.953   4.247
 4544TIP3    H213597   1.712   3.821   4.319
 4545TIP3   OH213598   2.743   2.959   0.478
 4545TIP3    H113599   2.652   2.929   0.480
 4545TIP3    H213600   2.737   3.052   0.498
 4546TIP3   OH213601   6.965   2.684   4.846
 4546TIP3    H113602   7.037   2.629   4.816
 4546TIP3    H213603   6.960   2.754   4.781
 4547TIP3   OH213604   1.858   2.886   2.897
 4547TIP3    H113605   1.800   2.814   2.875
 4547TIP3    H213606   1.847   2.899   2.991
 4548TIP3   OH213607   2.369   1.815   5.031
 4548TIP3    H113608   2.376   1.896   4.979
 4548TIP3    H213609   2.359   1.845   5.121
 4549TIP3   OH213610   3.000   3.696   1.310
 4549TIP3    H113611   3.024   3.732   1.396
 4549TIP3    H213612   2.940   3.624   1.330
 4550TIP3   OH213613   7.068   2.828   2.086
 4550TIP3    H113614   7.008   2.762   2.050
 4550TIP3    H213615   7.107   2.785   2.162
 4551TIP3   OH213616   2.800   5.980   0.653
 4551TIP3    H113617   2.783   5.964   0.561
 4551TIP3    H213618   2.792   5.895   0.695
 4552TIP3   OH213619   5.299   3.027   0.451
 4552TIP3    H113620   5.282   3.081   0.374
 4552TIP3    H213621   5.213   3.003   0.484
 4553TIP3   OH213622   4.697   5.235   1.629
 4553TIP3    H113623   4.767   5.175   1.605
 4553TIP3    H213624   4.621   5.205   1.579
 4554TIP3   OH213625   4.935   4.821   4.705
 4554TIP3    H113626   4.917   4.761   4.777
 4554TIP3    H213627   4.855   4.818   4.651
 4555TIP3   OH213628   2.324   0.757   2.403
 4555TIP3    H113629   2.364   0.715   2.480
 4555TIP3    H213630   2.306   0.685   2.344
 4556TIP3   OH213631   4.233   1.547   3.788
 4556TIP3    H113632   4.172   1.564   3.859
 4556TIP3    H213633   4.241   1.631   3.743
 4557TIP3   OH213634   4.990   1.972   1.444
 4557TIP3    H113635   4.922   1.995   1.380
 4557TIP3    H213636   4.946   1.914   1.506
 4558TIP3   OH213637   4.045   2.835   5.598
 4558TIP3    H113638   3.973   2.775   5.576
 4558TIP3    H213639   4.114   2.814   5.536
 4559TIP3   OH213640   3.848   3.211   0.097
 4559TIP3    H113641   3.900   3.237   0.022
 4559TIP3    H213642   3.772   3.166   0.060
 4560TIP3   OH213643   0.024   4.751   5.859
 4560TIP3    H113644   0.076   4.676   5.831
 4560TIP3    H213645   0.088   4.815   5.891
 4561TIP3   OH213646   1.385   0.307   1.481
 4561TIP3    H113647   1.351   0.299   1.570
 4561TIP3    H213648   1.429   0.392   1.480
 4562TIP3   OH213649   0.628   1.794   5.234
 4562TIP3    H113650   0.622   1.856   5.162
 4562TIP3    H213651   0.688   1.727   5.203
 4563TIP3   OH213652   7.150   2.772   2.970
 4563TIP3    H113653   7.201   2.726   3.037
 4563TIP3    H213654   7.141   2.861   3.003
 4564TIP3   OH213655   0.023   0.473   1.866
 4564TIP3    H113656   0.043   0.525   1.943
 4564TIP3    H213657   0.096   0.410   1.860
 4565TIP3   OH213658   2.287   3.586   5.407
 4565TIP3    H113659   2.265   3.652   5.340
 4565TIP3    H213660   2.351   3.529   5.364
 4566TIP3   OH213661   5.298   6.751   0.161
 4566TIP3    H113662   5.227   6.693   0.135
 4566TIP3    H213663   5.357   6.696   0.212
 4567TIP3   OH213664   6.124   0.401   0.324
 4567TIP3    H113665   6.078   0.459   0.384
 4567TIP3    H213666   6.058   0.376   0.259
 4568TIP3   OH213667   2.423   4.686   4.593
 4568TIP3    H113668   2.426   4.768   4.643
 4568TIP3    H213669   2.331   4.660   4.596
 4569TIP3   OH213670   5.667   4.884   1.655
 4569TIP3    H113671   5.604   4.920   1.593
 4569TIP3    H213672   5.678   4.793   1.628
 4570TIP3   OH213673   0.175   1.791   3.673
 4570TIP3    H113674   0.101   1.778   3.733
 4570TIP3    H213675   0.232   1.852   3.719
 4571TIP3   OH213676   6.376   4.508   1.147
 4571TIP3    H113677   6.404   4.568   1.077
 4571TIP3    H213678   6.451   4.502   1.205
 4572TIP3   OH213679   6.702   1.936   3.503
 4572TIP3    H113680   6.790   1.971   3.490
 4572TIP3    H213681   6.666   1.929   3.414
 4573TIP3   OH213682   3.717   4.229   4.474
 4573TIP3    H113683   3.734   4.136   4.462
 4573TIP3    H213684   3.778   4.273   4.415
 4574TIP3   OH213685   5.145   5.661   3.518
 4574TIP3    H113686   5.194   5.630   3.594
 4574TIP3    H213687   5.070   5.708   3.556
 4575TIP3   OH213688   5.654   0.459   0.270
 4575TIP3    H113689   5.688   0.548   0.274
 4575TIP3    H213690   5.601   0.458   0.190
 4576TIP3   OH213691   6.691   0.226   5.225
 4576TIP3    H113692   6.781   0.210   5.194
 4576TIP3    H213693   6.664   0.143   5.264
 4577TIP3   OH213694   0.647   2.336   1.196
 4577TIP3    H113695   0.568   2.351   1.249
 4577TIP3    H213696   0.658   2.417   1.147
 4578TIP3   OH213697   7.079   0.640   5.549
 4578TIP3    H113698   7.093   0.550   5.579
 4578TIP3    H213699   7.104   0.639   5.456
 4579TIP3   OH213700   1.438   2.892   3.434
 4579TIP3    H113701   1.517   2.945   3.425
 4579TIP3    H213702   1.422   2.888   3.528
 4580TIP3   OH213703   7.039   4.924   3.587
 4580TIP3    H113704   7.079   4.958   3.507
 4580TIP3    H213705   6.993   4.845   3.559
 4581TIP3   OH213706   4.186   0.476   1.960
 4581TIP3    H113707   4.237   0.535   2.015
 4581TIP3    H213708   4.227   0.391   1.972
 4582TIP3   OH213709   3.953   0.800   2.952
 4582TIP3    H113710   3.933   0.730   3.014
 4582TIP3    H213711   3.893   0.785   2.879
 4583TIP3   OH213712   1.317   1.968   2.454
 4583TIP3    H113713   1.255   1.899   2.476
 4583TIP3    H213714   1.377   1.970   2.529
 4584TIP3   OH213715   6.106   4.377   2.319
 4584TIP3    H113716   6.152   4.313   2.264
 4584TIP3    H213717   6.166   4.451   2.325
 4585TIP3   OH213718   6.381   6.529   4.924
 4585TIP3    H113719   6.462   6.554   4.879
 4585TIP3    H213720   6.410   6.474   4.997
 4586TIP3   OH213721   5.611   5.920   3.936
 4586TIP3    H113722   5.626   5.946   3.845
 4586TIP3    H213723   5.519   5.891   3.937
 4587TIP3   OH213724   0.998   2.645   1.996
 4587TIP3    H113725   0.996   2.621   2.089
 4587TIP3    H213726   1.082   2.690   1.985
 4588TIP3   OH213727   3.489   4.782   4.533
 4588TIP3    H113728   3.442   4.740   4.461
 4588TIP3    H213729   3.468   4.730   4.610
 4589TIP3   OH213730   2.230   2.382   2.935
 4589TIP3    H113731   2.151   2.415   2.892
 4589TIP3    H213732   2.277   2.335   2.866
 4590TIP3   OH213733   5.787   6.674   5.891
 4590TIP3    H113734   5.701   6.654   5.853
 4590TIP3    H213735   5.770   6.681   5.985
 4591TIP3   OH213736   4.289   1.572   1.104
 4591TIP3    H113737   4.383   1.559   1.093
 4591TIP3    H213738   4.249   1.490   1.075
 4592TIP3   OH213739   0.664   2.548   0.609
 4592TIP3    H113740   0.696   2.469   0.565
 4592TIP3    H213741   0.744   2.597   0.630
 4593TIP3   OH213742   5.124   2.442   1.335
 4593TIP3    H113743   5.142   2.506   1.266
 4593TIP3    H213744   5.174   2.365   1.310
 4594TIP3   OH213745   1.964   3.517   3.702
 4594TIP3    H113746   1.987   3.606   3.727
 4594TIP3    H213747   1.868   3.514   3.708
 4595TIP3   OH213748   0.956   2.640   1.515
 4595TIP3    H113749   0.952   2.573   1.584
 4595TIP3    H213750   0.865   2.659   1.495
 4596TIP3   OH213751   4.947   3.561   4.204
 4596TIP3    H113752   4.990   3.476   4.207
 4596TIP3    H213753   5.018   3.624   4.207
 4597TIP3   OH213754   0.057   6.472   5.458
 4597TIP3    H113755   0.069   6.393   5.406
 4597TIP3    H213756   0.120   6.534   5.421
 4598TIP3   OH213757   3.723   0.025   0.412
 4598TIP3    H113758   3.717   0.072   0.329
 4598TIP3    H213759   3.770   0.085   0.470
 4599TIP3   OH213760   3.690   4.818   1.214
 4599TIP3    H113761   3.679   4.903   1.172
 4599TIP3    H213762   3.742   4.767   1.152
 4600TIP3   OH213763   3.894   4.880   4.295
 4600TIP3    H113764   3.855   4.844   4.375
 4600TIP3    H213765   3.933   4.963   4.322
 4601TIP3   OH213766   5.096   3.344   1.922
 4601TIP3    H113767   5.054   3.425   1.895
 4601TIP3    H213768   5.174   3.371   1.971
 4602TIP3   OH213769   5.229   5.338   5.676
 4602TIP3    H113770   5.147   5.359   5.632
 4602TIP3    H213771   5.218   5.375   5.764
 4603TIP3   OH213772   6.738   0.782   1.305
 4603TIP3    H113773   6.714   0.702   1.258
 4603TIP3    H213774   6.828   0.800   1.278
 4604TIP3   OH213775   0.565   1.389   5.877
 4604TIP3    H113776   0.525   1.303   5.865
 4604TIP3    H213777   0.496   1.451   5.852
 4605TIP3   OH213778   1.935   1.667   5.330
 4605TIP3    H113779   1.956   1.734   5.394
 4605TIP3    H213780   1.959   1.706   5.246
 4606TIP3   OH213781   2.673   0.547   2.753
 4606TIP3    H113782   2.640   0.498   2.679
 4606TIP3    H213783   2.714   0.481   2.809
 4607TIP3   OH213784   3.485   3.336   2.180
 4607TIP3    H113785   3.398   3.351   2.219
 4607TIP3    H213786   3.485   3.243   2.158
 4608TIP3   OH213787   6.739   3.085   1.079
 4608TIP3    H113788   6.754   3.033   1.157
 4608TIP3    H213789   6.826   3.098   1.042
 4609TIP3   OH213790   3.588   6.225   5.750
 4609TIP3    H113791   3.677   6.260   5.745
 4609TIP3    H213792   3.587   6.174   5.831
 4610TIP3   OH213793   0.959   3.072   0.335
 4610TIP3    H113794   0.906   3.137   0.380
 4610TIP3    H213795   1.022   3.124   0.285
 4611TIP3   OH213796   1.761   3.426   4.098
 4611TIP3    H113797   1.766   3.374   4.018
 4611TIP3    H213798   1.835   3.396   4.151
 4612TIP3   OH213799   0.535   5.597   1.731
 4612TIP3    H113800   0.503   5.584   1.820
 4612TIP3    H213801   0.466   5.562   1.675
 4613TIP3   OH213802   3.264   3.249   5.512
 4613TIP3    H113803   3.173   3.252   5.482
 4613TIP3    H213804   3.316   3.255   5.432
 4614TIP3   OH213805   0.418   4.693   4.159
 4614TIP3    H113806   0.329   4.728   4.149
 4614TIP3    H213807   0.405   4.606   4.198
 4615TIP3   OH213808   2.477   4.632   0.891
 4615TIP3    H113809   2.554   4.609   0.942
 4615TIP3    H213810   2.407   4.576   0.926
 4616TIP3   OH213811   5.285   4.001   1.146
 4616TIP3    H113812   5.277   4.024   1.239
 4616TIP3    H213813   5.354   4.060   1.113
 4617TIP3   OH213814   5.975   4.387   3.287
 4617TIP3    H113815   5.904   4.360   3.228
 4617TIP3    H213816   5.957   4.341   3.369
 4618TIP3   OH213817   2.103   0.059   4.131
 4618TIP3    H113818   2.125   0.148   4.160
 4618TIP3    H213819   2.188   0.017   4.115
 4619TIP3   OH213820   4.924   0.020   4.519
 4619TIP3    H113821   4.876   0.089   4.474
 4619TIP3    H213822   4.933   0.051   4.609
 4620TIP3   OH213823   0.936   3.840   1.980
 4620TIP3    H113824   0.858   3.805   1.937
 4620TIP3    H213825   1.003   3.773   1.969
 4621TIP3   OH213826   4.652   3.551   1.327
 4621TIP3    H113827   4.715   3.502   1.275
 4621TIP3    H213828   4.672   3.528   1.418
 4622TIP3   OH213829   1.313   2.966   2.302
 4622TIP3    H113830   1.338   2.874   2.294
 4622TIP3    H213831   1.303   2.980   2.396
 4623TIP3   OH213832   1.649   5.379   2.927
 4623TIP3    H113833   1.649   5.358   2.834
 4623TIP3    H213834   1.741   5.377   2.952
 4624TIP3   OH213835   5.567   2.666   4.143
 4624TIP3    H113836   5.544   2.755   4.118
 4624TIP3    H213837   5.486   2.616   4.134
 4625TIP3   OH213838   3.045   6.255   3.248
 4625TIP3    H113839   2.965   6.288   3.205
 4625TIP3    H213840   3.013   6.199   3.318
 4626TIP3   OH213841   1.821   0.711   4.368
 4626TIP3    H113842   1.796   0.624   4.399
 4626TIP3    H213843   1.759   0.729   4.297
 4627TIP3   OH213844   7.189   0.619   2.658
 4627TIP3    H113845   7.125   0.667   2.710
 4627TIP3    H213846   7.181   0.528   2.686
 4628TIP3   OH213847   0.514   5.873   1.632
 4628TIP3    H113848   0.504   5.790   1.677
 4628TIP3    H213849   0.604   5.873   1.599
 4629TIP3   OH213850   3.889   0.764   2.329
 4629TIP3    H113851   3.944   0.719   2.393
 4629TIP3    H213852   3.925   0.739   2.244
 4630TIP3   OH213853   2.019   6.287   4.441
 4630TIP3    H113854   2.016   6.266   4.348
 4630TIP3    H213855   2.102   6.250   4.472
 4631TIP3   OH213856   7.124   5.297   4.903
 4631TIP3    H113857   7.089   5.342   4.980
 4631TIP3    H213858   7.071   5.218   4.895
 4632TIP3   OH213859   1.661   4.063   2.029
 4632TIP3    H113860   1.666   4.153   1.995
 4632TIP3    H213861   1.714   4.012   1.968
 4633TIP3   OH213862   3.896   5.685   1.869
 4633TIP3    H113863   3.825   5.640   1.916
 4633TIP3    H213864   3.953   5.717   1.939
 4634TIP3   OH213865   3.627   1.772   4.494
 4634TIP3    H113866   3.644   1.791   4.587
 4634TIP3    H213867   3.533   1.756   4.490
 4635TIP3   OH213868   4.733   4.716   2.241
 4635TIP3    H113869   4.697   4.676   2.320
 4635TIP3    H213870   4.699   4.805   2.241
 4636TIP3   OH213871   1.474   2.601   2.941
 4636TIP3    H113872   1.500   2.511   2.961
 4636TIP3    H213873   1.380   2.595   2.922
 4637TIP3   OH213874   3.884   4.039   3.722
 4637TIP3    H113875   3.886   4.013   3.814
 4637TIP3    H213876   3.976   4.045   3.696
 4638TIP3   OH213877   2.154   5.795   2.533
 4638TIP3    H113878   2.156   5.704   2.503
 4638TIP3    H213879   2.076   5.832   2.493
 4639TIP3   OH213880   6.459   1.698   0.991
 4639TIP3    H113881   6.499   1.676   0.907
 4639TIP3    H213882   6.369   1.724   0.969
 4640TIP3   OH213883   1.838   3.282  -0.003
 4640TIP3    H113884   1.777   3.219   0.034
 4640TIP3    H213885   1.836   3.356   0.058
 4641TIP3   OH213886   4.499   3.681   5.331
 4641TIP3    H113887   4.424   3.639   5.289
 4641TIP3    H213888   4.542   3.610   5.378
 4642TIP3   OH213889   6.736   1.761   0.463
 4642TIP3    H113890   6.692   1.832   0.510
 4642TIP3    H213891   6.737   1.789   0.372
 4643TIP3   OH213892   6.488   5.974   2.832
 4643TIP3    H113893   6.474   6.069   2.838
 4643TIP3    H213894   6.434   5.938   2.902
 4644TIP3   OH213895   3.836   2.639   5.510
 4644TIP3    H113896   3.774   2.578   5.471
 4644TIP3    H213897   3.808   2.647   5.601
 4645TIP3   OH213898   0.481   4.091   4.916
 4645TIP3    H113899   0.470   4.107   5.010
 4645TIP3    H213900   0.498   3.997   4.911
 4646TIP3   OH213901   6.237   2.681   2.540
 4646TIP3    H113902   6.187   2.605   2.510
 4646TIP3    H213903   6.192   2.756   2.501
 4647TIP3   OH213904   6.941   0.636   3.333
 4647TIP3    H113905   7.000   0.692   3.383
 4647TIP3    H213906   6.889   0.591   3.399
 4648TIP3   OH213907   0.815   3.245   3.910
 4648TIP3    H113908   0.893   3.265   3.858
 4648TIP3    H213909   0.806   3.150   3.903
 4649TIP3   OH213910   7.195   6.053   1.954
 4649TIP3    H113911   7.260   5.986   1.974
 4649TIP3    H213912   7.183   6.100   2.037
 4650TIP3   OH213913   7.072   0.157   0.749
 4650TIP3    H113914   6.999   0.151   0.811
 4650TIP3    H213915   7.148   0.179   0.803
 4651TIP3   OH213916   5.582   4.128   2.659
 4651TIP3    H113917   5.675   4.130   2.638
 4651TIP3    H213918   5.578   4.087   2.746
 4652TIP3   OH213919   6.562   5.968   3.167
 4652TIP3    H113920   6.639   6.018   3.142
 4652TIP3    H213921   6.573   5.884   3.122
 4653TIP3   OH213922   2.067   4.629   0.505
 4653TIP3    H113923   2.021   4.664   0.428
 4653TIP3    H213924   2.022   4.669   0.579
 4654TIP3   OH213925   2.767   6.274   1.184
 4654TIP3    H113926   2.694   6.262   1.244
 4654TIP3    H213927   2.837   6.311   1.238
 4655TIP3   OH213928   3.650   3.024   3.761
 4655TIP3    H113929   3.657   3.118   3.776
 4655TIP3    H213930   3.564   3.013   3.720
 4656TIP3   OH213931   1.347   1.518   0.275
 4656TIP3    H113932   1.330   1.448   0.212
 4656TIP3    H213933   1.366   1.594   0.220
 4657TIP3   OH213934   4.172   1.062   5.089
 4657TIP3    H113935   4.106   1.002   5.054
 4657TIP3    H213936   4.254   1.014   5.081
 4658TIP3   OH213937   2.503   4.780   3.959
 4658TIP3    H113938   2.567   4.777   4.031
 4658TIP3    H213939   2.425   4.738   3.994
 4659TIP3   OH213940   2.385   6.398   3.290
 4659TIP3    H113941   2.299   6.375   3.254
 4659TIP3    H213942   2.408   6.480   3.246
 4660TIP3   OH213943   7.254   2.942   1.629
 4660TIP3    H113944   7.232   3.027   1.665
 4660TIP3    H213945   7.255   2.883   1.704
 4661TIP3   OH213946   0.391   2.251   1.456
 4661TIP3    H113947   0.391   2.346   1.443
 4661TIP3    H213948   0.313   2.220   1.409
 4662TIP3   OH213949   2.941   6.676   2.560
 4662TIP3    H113950   3.033   6.652   2.576
 4662TIP3    H213951   2.905   6.692   2.647
 4663TIP3   OH213952   0.949   0.807   3.745
 4663TIP3    H113953   0.911   0.882   3.790
 4663TIP3    H213954   0.880   0.777   3.686
 4664TIP3   OH213955   1.686   1.811   5.794
 4664TIP3    H113956   1.678   1.869   5.870
 4664TIP3    H213957   1.717   1.869   5.724
 4665TIP3   OH213958   0.745   5.819   4.507
 4665TIP3    H113959   0.696   5.842   4.587
 4665TIP3    H213960   0.764   5.726   4.516
 4666TIP3   OH213961   4.420   6.204   1.669
 4666TIP3    H113962   4.499   6.157   1.643
 4666TIP3    H213963   4.428   6.289   1.627
 4667TIP3   OH213964   5.315   6.239   1.448
 4667TIP3    H113965   5.332   6.149   1.421
 4667TIP3    H213966   5.241   6.232   1.508
 4668TIP3   OH213967   4.178   3.576   3.092
 4668TIP3    H113968   4.198   3.554   3.001
 4668TIP3    H213969   4.143   3.665   3.088
 4669TIP3   OH213970   5.300   6.287   1.843
 4669TIP3    H113971   5.300   6.343   1.921
 4669TIP3    H213972   5.207   6.272   1.825
 4670TIP3   OH213973   0.317   1.466   0.687
 4670TIP3    H113974   0.241   1.491   0.740
 4670TIP3    H213975   0.388   1.522   0.720
 4671TIP3   OH213976   5.169   0.460   3.892
 4671TIP3    H113977   5.253   0.488   3.927
 4671TIP3    H213978   5.158   0.370   3.923
 4672TIP3   OH213979   6.666   2.446   3.566
 4672TIP3    H113980   6.657   2.521   3.507
 4672TIP3    H213981   6.700   2.376   3.511
 4673TIP3   OH213982   5.406   5.279   2.591
 4673TIP3    H113983   5.465   5.331   2.646
 4673TIP3    H213984   5.395   5.331   2.512
 4674TIP3   OH213985   5.674   3.779   0.865
 4674TIP3    H113986   5.631   3.845   0.920
 4674TIP3    H213987   5.607   3.712   0.852
 4675TIP3   OH213988   1.752   6.124   2.524
 4675TIP3    H113989   1.769   6.110   2.617
 4675TIP3    H213990   1.838   6.116   2.483
 4676TIP3   OH213991   4.081   5.947   1.542
 4676TIP3    H113992   3.992   5.975   1.519
 4676TIP3    H213993   4.132   5.963   1.463
 4677TIP3   OH213994   5.226   1.237   2.869
 4677TIP3    H113995   5.281   1.226   2.791
 4677TIP3    H213996   5.147   1.280   2.837
 4678TIP3   OH213997   3.624   2.119   0.196
 4678TIP3    H113998   3.643   2.115   0.290
 4678TIP3    H213999   3.589   2.207   0.183
 4679TIP3   OH214000   1.494   1.063   1.358
 4679TIP3    H114001   1.524   0.987   1.309
 4679TIP3    H214002   1.503   1.136   1.296
 4680TIP3   OH214003   4.713   3.816   1.429
 4680TIP3    H114004   4.749   3.770   1.504
 4680TIP3    H214005   4.692   3.748   1.365
 4681TIP3   OH214006   2.558   6.351   4.628
 4681TIP3    H114007   2.509   6.353   4.546
 4681TIP3    H214008   2.492   6.366   4.696
 4682TIP3   OH214009   5.710   1.185   3.207
 4682TIP3    H114010   5.695   1.241   3.284
 4682TIP3    H214011   5.786   1.224   3.164
 4683TIP3   OH214012   5.139   1.849   5.133
 4683TIP3    H114013   5.117   1.757   5.149
 4683TIP3    H214014   5.234   1.849   5.121
 4684TIP3   OH214015   1.096   2.779   3.103
 4684TIP3    H114016   1.159   2.723   3.148
 4684TIP3    H214017   1.143   2.812   3.026
 4685TIP3   OH214018   5.919   5.029   3.602
 4685TIP3    H114019   5.865   4.952   3.586
 4685TIP3    H214020   5.995   4.996   3.649
 4686TIP3   OH214021   7.041   2.945   5.174
 4686TIP3    H114022   6.977   3.013   5.197
 4686TIP3    H214023   7.126   2.988   5.188
 4687TIP3   OH214024   6.733   0.225   1.502
 4687TIP3    H114025   6.658   0.170   1.521
 4687TIP3    H214026   6.768   0.192   1.419
 4688TIP3   OH214027   4.666   6.162   0.410
 4688TIP3    H114028   4.697   6.207   0.331
 4688TIP3    H214029   4.672   6.228   0.479
 4689TIP3   OH214030   0.502   3.817   3.475
 4689TIP3    H114031   0.544   3.897   3.506
 4689TIP3    H214032   0.547   3.746   3.520
 4690TIP3   OH214033   4.377   4.172   1.639
 4690TIP3    H114034   4.331   4.101   1.594
 4690TIP3    H214035   4.385   4.241   1.573
 4691TIP3   OH214036   4.469   3.494   2.907
 4691TIP3    H114037   4.409   3.420   2.918
 4691TIP3    H214038   4.413   3.566   2.880
 4692TIP3   OH214039   2.983   6.307   2.186
 4692TIP3    H114040   2.992   6.212   2.185
 4692TIP3    H214041   3.071   6.339   2.202
 4693TIP3   OH214042   4.406   0.397   0.801
 4693TIP3    H114043   4.455   0.386   0.719
 4693TIP3    H214044   4.464   0.361   0.868
 4694TIP3   OH214045   5.992   5.803   5.319
 4694TIP3    H114046   5.911   5.855   5.318
 4694TIP3    H214047   6.062   5.867   5.303
 4695TIP3   OH214048   0.956   3.304   3.657
 4695TIP3    H114049   0.956   3.240   3.585
 4695TIP3    H214050   0.899   3.375   3.625
 4696TIP3   OH214051   5.812   3.350   4.646
 4696TIP3    H114052   5.819   3.427   4.704
 4696TIP3    H214053   5.853   3.378   4.564
 4697TIP3   OH214054   3.258   4.448   3.254
 4697TIP3    H114055   3.190   4.498   3.210
 4697TIP3    H214056   3.232   4.357   3.242
 4698TIP3   OH214057   2.933   3.414   5.164
 4698TIP3    H114058   2.860   3.382   5.110
 4698TIP3    H214059   3.009   3.411   5.105
 4699TIP3   OH214060   5.678   6.796   1.716
 4699TIP3    H114061   5.630   6.731   1.767
 4699TIP3    H214062   5.706   6.861   1.781
 4700TIP3   OH214063   6.429   3.810   1.620
 4700TIP3    H114064   6.465   3.828   1.533
 4700TIP3    H214065   6.364   3.742   1.605
 4701TIP3   OH214066   4.328   5.748   1.390
 4701TIP3    H114067   4.389   5.811   1.429
 4701TIP3    H214068   4.367   5.662   1.409
 4702TIP3   OH214069   1.713   1.790   2.992
 4702TIP3    H114070   1.776   1.717   2.988
 4702TIP3    H214071   1.698   1.803   3.085
 4703TIP3   OH214072   2.621   4.692   2.988
 4703TIP3    H114073   2.672   4.741   3.052
 4703TIP3    H214074   2.552   4.649   3.039
 4704TIP3   OH214075   1.956   2.731   2.134
 4704TIP3    H114076   1.895   2.659   2.152
 4704TIP3    H214077   1.921   2.805   2.184
 4705TIP3   OH214078   2.788   5.695   3.034
 4705TIP3    H114079   2.786   5.647   3.117
 4705TIP3    H214080   2.814   5.784   3.058
 4706TIP3   OH214081   2.352   4.649   5.796
 4706TIP3    H114082   2.370   4.740   5.819
 4706TIP3    H214083   2.431   4.619   5.751
 4707TIP3   OH214084   1.658   6.440   2.455
 4707TIP3    H114085   1.668   6.528   2.491
 4707TIP3    H214086   1.748   6.410   2.441
 4708TIP3   OH214087   0.687   1.805   4.134
 4708TIP3    H114088   0.721   1.746   4.202
 4708TIP3    H214089   0.706   1.893   4.167
 4709TIP3   OH214090   1.193   0.631   1.270
 4709TIP3    H114091   1.274   0.591   1.302
 4709TIP3    H214092   1.125   0.598   1.329
 4710TIP3   OH214093   3.790   5.419   3.052
 4710TIP3    H114094   3.791   5.512   3.027
 4710TIP3    H214095   3.729   5.378   2.990
 4711TIP3   OH214096   4.923   5.771   3.628
 4711TIP3    H114097   4.835   5.741   3.650
 4711TIP3    H214098   4.936   5.848   3.684
 4712TIP3   OH214099   2.769   6.308   2.863
 4712TIP3    H114100   2.723   6.271   2.788
 4712TIP3    H214101   2.854   6.262   2.863
 4713TIP3   OH214102   5.362   6.514   1.659
 4713TIP3    H114103   5.395   6.569   1.730
 4713TIP3    H214104   5.354   6.427   1.699
 4714TIP3   OH214105   4.160   2.606   0.282
 4714TIP3    H114106   4.198   2.518   0.283
 4714TIP3    H214107   4.066   2.591   0.271
 4715TIP3   OH214108   1.716   3.241   1.596
 4715TIP3    H114109   1.745   3.332   1.606
 4715TIP3    H214110   1.713   3.207   1.686
 4716TIP3   OH214111   6.580   5.122   3.273
 4716TIP3    H114112   6.504   5.158   3.226
 4716TIP3    H214113   6.656   5.156   3.226
 4717TIP3   OH214114   4.256   5.704   2.921
 4717TIP3    H114115   4.298   5.619   2.935
 4717TIP3    H214116   4.210   5.694   2.838
 4718TIP3   OH214117   3.687   1.586   0.176
 4718TIP3    H114118   3.635   1.667   0.179
 4718TIP3    H214119   3.626   1.519   0.147
 4719TIP3   OH214120   6.423   6.549   3.542
 4719TIP3    H114121   6.408   6.454   3.550
 4719TIP3    H214122   6.355   6.579   3.482
 4720TIP3   OH214123   3.919   0.435   5.284
 4720TIP3    H114124   3.912   0.340   5.280
 4720TIP3    H214125   3.952   0.461   5.199
 4721TIP3   OH214126   4.927   2.809   0.840
 4721TIP3    H114127   5.009   2.813   0.890
 4721TIP3    H214128   4.899   2.717   0.846
 4722TIP3   OH214129   0.290   0.677   0.335
 4722TIP3    H114130   0.333   0.652   0.417
 4722TIP3    H214131   0.227   0.744   0.361
 4723TIP3   OH214132   5.393   1.374   2.340
 4723TIP3    H114133   5.437   1.333   2.265
 4723TIP3    H214134   5.464   1.416   2.389
 4724TIP3   OH214135   3.050   2.946   5.123
 4724TIP3    H114136   2.990   2.911   5.188
 4724TIP3    H214137   2.993   2.982   5.055
 4725TIP3   OH214138   3.796   6.201   3.282
 4725TIP3    H114139   3.768   6.292   3.286
 4725TIP3    H214140   3.733   6.155   3.338
 4726TIP3   OH214141   1.388   4.356   4.571
 4726TIP3    H114142   1.399   4.295   4.499
 4726TIP3    H214143   1.336   4.427   4.535
 4727TIP3   OH214144   5.211   5.516   4.919
 4727TIP3    H114145   5.211   5.467   5.001
 4727TIP3    H214146   5.304   5.526   4.897
 4728TIP3   OH214147   6.085   0.047   1.862
 4728TIP3    H114148   5.991   0.066   1.867
 4728TIP3    H214149   6.097   0.007   1.776
 4729TIP3   OH214150   0.501   6.094   1.801
 4729TIP3    H114151   0.578   6.150   1.793
 4729TIP3    H214152   0.510   6.031   1.729
 4730TIP3   OH214153   4.034   2.840   0.513
 4730TIP3    H114154   4.107   2.900   0.496
 4730TIP3    H214155   3.980   2.845   0.434
 4731TIP3   OH214156   0.673   1.028   2.733
 4731TIP3    H114157   0.692   1.051   2.824
 4731TIP3    H214158   0.582   0.998   2.734
 4732TIP3   OH214159   1.365   3.956   4.452
 4732TIP3    H114160   1.307   3.906   4.394
 4732TIP3    H214161   1.351   4.047   4.428
 4733TIP3   OH214162   6.587   6.032   0.899
 4733TIP3    H114163   6.614   6.106   0.953
 4733TIP3    H214164   6.514   5.993   0.948
 4734TIP3   OH214165   6.924   4.242   4.321
 4734TIP3    H114166   6.992   4.196   4.272
 4734TIP3    H214167   6.916   4.194   4.403
 4735TIP3   OH214168   6.669   5.842   2.282
 4735TIP3    H114169   6.626   5.762   2.311
 4735TIP3    H214170   6.761   5.817   2.269
 4736TIP3   OH214171   7.001   0.816   1.243
 4736TIP3    H114172   7.067   0.747   1.250
 4736TIP3    H214173   7.023   0.878   1.313
 4737TIP3   OH214174   1.355   4.560   3.843
 4737TIP3    H114175   1.339   4.541   3.750
 4737TIP3    H214176   1.355   4.473   3.885
 4738TIP3   OH214177   3.952   6.632   5.664
 4738TIP3    H114178   3.974   6.689   5.738
 4738TIP3    H214179   4.027   6.572   5.658
 4739TIP3   OH214180   5.437   4.062   1.919
 4739TIP3    H114181   5.347   4.065   1.886
 4739TIP3    H214182   5.442   4.133   1.983
 4740TIP3   OH214183   6.669   6.322   4.271
 4740TIP3    H114184   6.710   6.403   4.241
 4740TIP3    H214185   6.625   6.287   4.193
 4741TIP3   OH214186   5.162   0.395   2.849
 4741TIP3    H114187   5.094   0.385   2.783
 4741TIP3    H214188   5.116   0.427   2.927
 4742TIP3   OH214189   5.888   4.473   4.965
 4742TIP3    H114190   5.910   4.447   4.876
 4742TIP3    H214191   5.848   4.560   4.955
 4743TIP3   OH214192   4.376   6.262   5.547
 4743TIP3    H114193   4.384   6.220   5.633
 4743TIP3    H214194   4.428   6.342   5.554
 4744TIP3   OH214195   0.895   0.899   5.925
 4744TIP3    H114196   0.980   0.937   5.901
 4744TIP3    H214197   0.838   0.975   5.939
 4745TIP3   OH214198   1.700   4.854   4.591
 4745TIP3    H114199   1.694   4.903   4.509
 4745TIP3    H214200   1.787   4.815   4.588
 4746TIP3   OH214201   5.816   2.183   0.194
 4746TIP3    H114202   5.785   2.098   0.162
 4746TIP3    H214203   5.897   2.199   0.146
 4747TIP3   OH214204   0.534   5.278   1.320
 4747TIP3    H114205   0.608   5.220   1.338
 4747TIP3    H214206   0.486   5.234   1.250
 4748TIP3   OH214207   2.739   0.374   2.464
 4748TIP3    H114208   2.665   0.349   2.409
 4748TIP3    H214209   2.802   0.414   2.404
 4749TIP3   OH214210   2.594   5.274   2.662
 4749TIP3    H114211   2.561   5.349   2.613
 4749TIP3    H214212   2.661   5.312   2.720
 4750TIP3   OH214213   2.348   4.225   1.687
 4750TIP3    H114214   2.398   4.178   1.621
 4750TIP3    H214215   2.259   4.230   1.651
 4751TIP3   OH214216   1.038   4.383   4.791
 4751TIP3    H114217   1.028   4.357   4.700
 4751TIP3    H214218   0.962   4.346   4.835
 4752TIP3   OH214219   4.382   2.484   1.683
 4752TIP3    H114220   4.453   2.513   1.626
 4752TIP3    H214221   4.325   2.561   1.692
 4753TIP3   OH214222   0.794   6.445   2.498
 4753TIP3    H114223   0.795   6.526   2.550
 4753TIP3    H214224   0.856   6.387   2.544
 4754TIP3   OH214225   5.234   0.651   1.436
 4754TIP3    H114226   5.147   0.693   1.434
 4754TIP3    H214227   5.277   0.682   1.357
 4755TIP3   OH214228   4.343   3.691   3.367
 4755TIP3    H114229   4.261   3.643   3.361
 4755TIP3    H214230   4.342   3.729   3.455
 4756TIP3   OH214231   2.110   3.615   1.623
 4756TIP3    H114232   2.031   3.656   1.660
 4756TIP3    H214233   2.136   3.674   1.552
 4757TIP3   OH214234   1.980   4.368   0.182
 4757TIP3    H114235   2.045   4.376   0.251
 4757TIP3    H214236   1.896   4.373   0.228
 4758TIP3   OH214237   4.525   1.354   0.871
 4758TIP3    H114238   4.432   1.341   0.852
 4758TIP3    H214239   4.526   1.406   0.951
 4759TIP3   OH214240   2.104   0.300   3.675
 4759TIP3    H114241   2.101   0.316   3.581
 4759TIP3    H214242   2.044   0.227   3.689
 4760TIP3   OH214243   2.832   0.856   2.798
 4760TIP3    H114244   2.852   0.780   2.744
 4760TIP3    H214245   2.918   0.891   2.823
 4761TIP3   OH214246   2.539   3.072   0.801
 4761TIP3    H114247   2.513   2.981   0.811
 4761TIP3    H214248   2.558   3.103   0.890
 4762TIP3   OH214249   6.674   5.681   1.787
 4762TIP3    H114250   6.693   5.742   1.716
 4762TIP3    H214251   6.600   5.720   1.833
 4763TIP3   OH214252   6.141   0.390   1.238
 4763TIP3    H114253   6.141   0.371   1.332
 4763TIP3    H214254   6.153   0.305   1.196
 4764TIP3   OH214255   6.693   2.999   0.771
 4764TIP3    H114256   6.725   3.067   0.712
 4764TIP3    H214257   6.665   2.928   0.714
 4765TIP3   OH214258   7.056   3.595   4.271
 4765TIP3    H114259   7.118   3.660   4.237
 4765TIP3    H214260   7.027   3.546   4.194
 4766TIP3   OH214261   6.900   3.576   3.649
 4766TIP3    H114262   6.827   3.558   3.591
 4766TIP3    H214263   6.930   3.664   3.624
 4767TIP3   OH214264   6.923   1.764   2.596
 4767TIP3    H114265   6.915   1.689   2.537
 4767TIP3    H214266   6.834   1.797   2.605
 4768TIP3   OH214267   6.637   1.004   1.171
 4768TIP3    H114268   6.655   0.928   1.226
 4768TIP3    H214269   6.676   0.982   1.086
 4769TIP3   OH214270   0.598   2.893   3.743
 4769TIP3    H114271   0.584   2.963   3.680
 4769TIP3    H214272   0.512   2.852   3.754
 4770TIP3   OH214273   5.597  -0.009   0.389
 4770TIP3    H114274   5.645  -0.001   0.307
 4770TIP3    H214275   5.602   0.079   0.428
 4771TIP3   OH214276   3.612   0.137   4.094
 4771TIP3    H114277   3.606   0.133   4.189
 4771TIP3    H214278   3.663   0.216   4.077
 4772TIP3   OH214279   6.164   0.538   1.027
 4772TIP3    H114280   6.250   0.502   1.004
 4772TIP3    H214281   6.131   0.479   1.094
 4773TIP3   OH214282   3.530   4.447   4.536
 4773TIP3    H114283   3.595   4.381   4.515
 4773TIP3    H214284   3.506   4.485   4.452
 4774TIP3   OH214285   2.268   4.527   2.787
 4774TIP3    H114286   2.203   4.588   2.821
 4774TIP3    H214287   2.315   4.577   2.720
 4775TIP3   OH214288   1.965   5.240   3.962
 4775TIP3    H114289   1.963   5.332   3.935
 4775TIP3    H214290   2.058   5.218   3.964
 4776TIP3   OH214291   6.045   3.446   0.592
 4776TIP3    H114292   5.954   3.466   0.570
 4776TIP3    H214293   6.071   3.379   0.529
 4777TIP3   OH214294   4.201   6.293   4.354
 4777TIP3    H114295   4.221   6.238   4.430
 4777TIP3    H214296   4.284   6.300   4.307
 4778TIP3   OH214297   1.431   3.369   1.639
 4778TIP3    H114298   1.397   3.280   1.646
 4778TIP3    H214299   1.522   3.357   1.611
 4779TIP3   OH214300   6.554   5.895   5.511
 4779TIP3    H114301   6.608   5.949   5.570
 4779TIP3    H214302   6.471   5.942   5.505
 4780TIP3   OH214303   1.382   2.141   4.852
 4780TIP3    H114304   1.320   2.206   4.882
 4780TIP3    H214305   1.388   2.078   4.924
 4781TIP3   OH214306   0.178   1.456   5.675
 4781TIP3    H114307   0.099   1.509   5.662
 4781TIP3    H214308   0.249   1.513   5.645
 4782TIP3   OH214309   0.287   0.553   3.473
 4782TIP3    H114310   0.302   0.603   3.393
 4782TIP3    H214311   0.321   0.608   3.543
 4783TIP3   OH214312   2.393   6.249   5.447
 4783TIP3    H114313   2.462   6.284   5.504
 4783TIP3    H214314   2.438   6.191   5.386
 4784TIP3   OH214315   0.604   2.988   2.696
 4784TIP3    H114316   0.525   2.935   2.681
 4784TIP3    H214317   0.658   2.973   2.619
 4785TIP3   OH214318   0.205   1.465   2.870
 4785TIP3    H114319   0.262   1.468   2.793
 4785TIP3    H214320   0.239   1.392   2.922
 4786TIP3   OH214321   2.524   0.942   2.888
 4786TIP3    H114322   2.606   0.894   2.875
 4786TIP3    H214323   2.518   1.000   2.813
 4787TIP3   OH214324   0.950   4.429   0.409
 4787TIP3    H114325   0.871   4.379   0.427
 4787TIP3    H214326   0.992   4.441   0.494
 4788TIP3   OH214327   2.286   6.677   3.471
 4788TIP3    H114328   2.282   6.773   3.475
 4788TIP3    H214329   2.226   6.654   3.400
 4789TIP3   OH214330   6.551   5.089   5.341
 4789TIP3    H114331   6.516   5.003   5.319
 4789TIP3    H214332   6.530   5.144   5.265
 4790TIP3   OH214333   6.555   5.710   1.165
 4790TIP3    H114334   6.482   5.744   1.114
 4790TIP3    H214335   6.575   5.779   1.228
 4791TIP3   OH214336   1.171   2.401   1.724
 4791TIP3    H114337   1.080   2.428   1.724
 4791TIP3    H214338   1.192   2.385   1.632
 4792TIP3   OH214339   1.738   1.452   2.743
 4792TIP3    H114340   1.803   1.493   2.685
 4792TIP3    H214341   1.661   1.440   2.688
 4793TIP3   OH214342   3.564   4.942   2.699
 4793TIP3    H114343   3.637   5.003   2.689
 4793TIP3    H214344   3.522   4.941   2.612
 4794TIP3   OH214345   3.653   2.510   1.521
 4794TIP3    H114346   3.607   2.476   1.445
 4794TIP3    H214347   3.585   2.522   1.587
 4795TIP3   OH214348   6.579   5.383   5.477
 4795TIP3    H114349   6.542   5.469   5.500
 4795TIP3    H214350   6.548   5.367   5.388
 4796TIP3   OH214351   0.862   3.821   0.309
 4796TIP3    H114352   0.868   3.903   0.358
 4796TIP3    H214353   0.771   3.817   0.280
 4797TIP3   OH214354   4.505   1.134   2.146
 4797TIP3    H114355   4.472   1.066   2.204
 4797TIP3    H214356   4.516   1.211   2.203
 4798TIP3   OH214357   6.976   4.246   2.987
 4798TIP3    H114358   7.002   4.281   3.072
 4798TIP3    H214359   7.014   4.307   2.923
 4799TIP3   OH214360   4.313   2.018   4.578
 4799TIP3    H114361   4.366   2.097   4.567
 4799TIP3    H214362   4.223   2.050   4.586
 4800TIP3   OH214363   0.221   3.245   4.381
 4800TIP3    H114364   0.134   3.252   4.343
 4800TIP3    H214365   0.211   3.184   4.453
 4801TIP3   OH214366   2.046   4.339   2.653
 4801TIP3    H114367   1.987   4.404   2.614
 4801TIP3    H214368   2.127   4.388   2.669
 4802TIP3   OH214369   5.590   0.392   2.991
 4802TIP3    H114370   5.650   0.466   2.998
 4802TIP3    H214371   5.549   0.402   2.905
 4803TIP3   OH214372   4.036   1.260   1.385
 4803TIP3    H114373   4.107   1.197   1.402
 4803TIP3    H214374   3.958   1.206   1.378
 4804TIP3   OH214375   3.328   6.514   3.053
 4804TIP3    H114376   3.352   6.567   2.978
 4804TIP3    H214377   3.360   6.426   3.032
 4805TIP3   OH214378   0.796   1.948   5.746
 4805TIP3    H114379   0.790   1.856   5.720
 4805TIP3    H214380   0.815   1.994   5.664
 4806TIP3   OH214381   3.415   5.745   3.038
 4806TIP3    H114382   3.405   5.674   2.974
 4806TIP3    H214383   3.505   5.777   3.025
 4807TIP3   OH214384   3.887   5.929   1.245
 4807TIP3    H114385   3.847   5.916   1.331
 4807TIP3    H214386   3.933   5.847   1.227
 4808TIP3   OH214387   0.352   3.718   1.100
 4808TIP3    H114388   0.447   3.720   1.097
 4808TIP3    H214389   0.325   3.730   1.009
 4809TIP3   OH214390   3.823   2.652   3.787
 4809TIP3    H114391   3.841   2.650   3.881
 4809TIP3    H214392   3.843   2.742   3.761
 4810TIP3   OH214393   1.587   6.068   3.025
 4810TIP3    H114394   1.671   6.053   2.980
 4810TIP3    H214395   1.546   5.981   3.027
 4811TIP3   OH214396   0.773   2.308   3.201
 4811TIP3    H114397   0.773   2.213   3.207
 4811TIP3    H214398   0.796   2.338   3.289
 4812TIP3   OH214399   3.092   0.353   0.984
 4812TIP3    H114400   3.002   0.364   0.954
 4812TIP3    H214401   3.132   0.440   0.974
 4813TIP3   OH214402   1.185   1.481   4.250
 4813TIP3    H114403   1.126   1.543   4.206
 4813TIP3    H214404   1.251   1.537   4.292
 4814TIP3   OH214405   6.627   0.348   2.215
 4814TIP3    H114406   6.605   0.415   2.280
 4814TIP3    H214407   6.664   0.397   2.142
 4815TIP3   OH214408   6.823   5.707   4.778
 4815TIP3    H114409   6.766   5.780   4.754
 4815TIP3    H214410   6.821   5.648   4.704
 4816TIP3   OH214411   1.644   5.561   2.008
 4816TIP3    H114412   1.570   5.619   2.029
 4816TIP3    H214413   1.614   5.511   1.932
 4817TIP3   OH214414   1.810   0.769   0.805
 4817TIP3    H114415   1.744   0.818   0.854
 4817TIP3    H214416   1.866   0.731   0.873
 4818TIP3   OH214417   3.807   1.101   1.280
 4818TIP3    H114418   3.831   1.056   1.200
 4818TIP3    H214419   3.825   1.038   1.350
 4819TIP3   OH214420   2.037   3.075   1.907
 4819TIP3    H114421   2.090   3.070   1.828
 4819TIP3    H214422   2.006   3.166   1.910
 4820TIP3   OH214423   0.852   5.383   2.256
 4820TIP3    H114424   0.917   5.336   2.203
 4820TIP3    H214425   0.874   5.360   2.346
 4821TIP3   OH214426   6.822   3.135   3.121
 4821TIP3    H114427   6.828   3.098   3.032
 4821TIP3    H214428   6.840   3.228   3.109
 4822TIP3   OH214429   0.324   0.556   2.381
 4822TIP3    H114430   0.321   0.521   2.292
 4822TIP3    H214431   0.402   0.515   2.419
 4823TIP3   OH214432   4.185   1.852   1.588
 4823TIP3    H114433   4.153   1.782   1.645
 4823TIP3    H214434   4.109   1.908   1.573
 4824TIP3   OH214435   5.284   4.060   1.427
 4824TIP3    H114436   5.199   4.031   1.396
 4824TIP3    H214437   5.279   4.155   1.425
 4825TIP3   OH214438   3.547   1.508   1.440
 4825TIP3    H114439   3.537   1.460   1.523
 4825TIP3    H214440   3.626   1.471   1.400
 4826TIP3   OH214441   0.566   2.059   4.783
 4826TIP3    H114442   0.499   2.041   4.717
 4826TIP3    H214443   0.647   2.068   4.733
 4827TIP3   OH214444   3.029   4.049   1.004
 4827TIP3    H114445   3.079   3.983   0.957
 4827TIP3    H214446   2.938   4.021   0.995
 4828TIP3   OH214447   3.479   2.967   3.121
 4828TIP3    H114448   3.430   3.014   3.053
 4828TIP3    H214449   3.411   2.935   3.181
 4829TIP3   OH214450   1.042   4.891   5.007
 4829TIP3    H114451   1.032   4.797   4.990
 4829TIP3    H214452   0.955   4.920   5.035
 4830TIP3   OH214453   0.397   3.566   3.702
 4830TIP3    H114454   0.394   3.659   3.726
 4830TIP3    H214455   0.480   3.535   3.739
 4831TIP3   OH214456   2.558   3.155   5.260
 4831TIP3    H114457   2.613   3.230   5.238
 4831TIP3    H214458   2.471   3.179   5.228
 4832TIP3   OH214459   1.530   5.132   3.466
 4832TIP3    H114460   1.497   5.043   3.469
 4832TIP3    H214461   1.467   5.180   3.411
 4833TIP3   OH214462   3.408   2.964   0.982
 4833TIP3    H114463   3.364   2.891   0.936
 4833TIP3    H214464   3.478   2.922   1.032
 4834TIP3   OH214465   1.834   1.867   1.670
 4834TIP3    H114466   1.802   1.831   1.587
 4834TIP3    H214467   1.851   1.960   1.650
 4835TIP3   OH214468   3.767   4.640   1.018
 4835TIP3    H114469   3.730   4.593   0.943
 4835TIP3    H214470   3.765   4.577   1.090
 4836TIP3   OH214471   0.880   1.801   2.243
 4836TIP3    H114472   0.974   1.788   2.254
 4836TIP3    H214473   0.865   1.891   2.271
 4837TIP3   OH214474   2.732   6.719   4.029
 4837TIP3    H114475   2.769   6.689   3.946
 4837TIP3    H214476   2.646   6.678   4.034
 4838TIP3   OH214477   1.896   5.245   2.673
 4838TIP3    H114478   1.811   5.289   2.663
 4838TIP3    H214479   1.925   5.270   2.761
 4839TIP3   OH214480   5.023   3.338   3.109
 4839TIP3    H114481   4.994   3.342   3.018
 4839TIP3    H214482   4.961   3.280   3.152
 4840TIP3   OH214483   7.109   2.651   2.308
 4840TIP3    H114484   7.027   2.674   2.351
 4840TIP3    H214485   7.165   2.619   2.379
 4841TIP3   OH214486   5.514   1.745   2.224
 4841TIP3    H114487   5.583   1.708   2.169
 4841TIP3    H214488   5.436   1.694   2.204
 4842TIP3   OH214489   2.467   2.109   1.781
 4842TIP3    H114490   2.523   2.101   1.703
 4842TIP3    H214491   2.442   2.201   1.783
 4843TIP3   OH214492   2.829   0.540   1.371
 4843TIP3    H114493   2.759   0.601   1.395
 4843TIP3    H214494   2.827   0.537   1.276
 4844TIP3   OH214495   5.743   1.049   1.252
 4844TIP3    H114496   5.770   1.137   1.227
 4844TIP3    H214497   5.778   1.037   1.340
 4845TIP3   OH214498   4.555   0.497   4.698
 4845TIP3    H114499   4.494   0.424   4.705
 4845TIP3    H214500   4.625   0.475   4.760
 4846TIP3   OH214501   0.922   5.277   0.060
 4846TIP3    H114502   0.955   5.187   0.053
 4846TIP3    H214503   0.939   5.315  -0.026
 4847TIP3   OH214504   2.961   1.217   3.815
 4847TIP3    H114505   2.987   1.292   3.867
 4847TIP3    H214506   2.977   1.141   3.871
 4848TIP3   OH214507   0.611   3.329   0.820
 4848TIP3    H114508   0.655   3.413   0.827
 4848TIP3    H214509   0.590   3.305   0.910
 4849TIP3   OH214510   1.757   4.716   2.425
 4849TIP3    H114511   1.755   4.632   2.472
 4849TIP3    H214512   1.737   4.694   2.334
 4850TIP3   OH214513   1.350   5.479   4.624
 4850TIP3    H114514   1.444   5.494   4.610
 4850TIP3    H214515   1.342   5.384   4.628
 4851TIP3   OH214516   6.813   0.642   2.280
 4851TIP3    H114517   6.871   0.710   2.313
 4851TIP3    H214518   6.735   0.647   2.335
 4852TIP3   OH214519   3.063   0.800   3.529
 4852TIP3    H114520   3.149   0.780   3.565
 4852TIP3    H214521   3.068   0.891   3.501
 4853TIP3   OH214522   0.970   1.039   4.339
 4853TIP3    H114523   0.876   1.038   4.356
 4853TIP3    H214524   0.980   1.095   4.262
 4854TIP3   OH214525   5.989   2.438   5.766
 4854TIP3    H114526   5.917   2.380   5.789
 4854TIP3    H214527   5.947   2.509   5.717
 4855TIP3   OH214528   5.971   2.780   0.422
 4855TIP3    H114529   5.960   2.812   0.512
 4855TIP3    H214530   5.938   2.690   0.425
 4856TIP3   OH214531   6.074   6.228   5.595
 4856TIP3    H114532   5.987   6.254   5.625
 4856TIP3    H214533   6.132   6.253   5.667
 4857TIP3   OH214534   3.723   6.127   2.599
 4857TIP3    H114535   3.817   6.122   2.580
 4857TIP3    H214536   3.680   6.097   2.519
 4858TIP3   OH214537   1.897   4.988   5.226
 4858TIP3    H114538   1.813   4.991   5.272
 4858TIP3    H214539   1.958   4.953   5.290
 4859TIP3   OH214540   0.410   1.284   0.460
 4859TIP3    H114541   0.404   1.188   0.463
 4859TIP3    H214542   0.491   1.301   0.412
 4860TIP3   OH214543   6.325   5.384   5.340
 4860TIP3    H114544   6.326   5.471   5.300
 4860TIP3    H214545   6.233   5.361   5.348
 4861TIP3   OH214546   5.301   4.351   3.475
 4861TIP3    H114547   5.323   4.272   3.426
 4861TIP3    H214548   5.287   4.321   3.565
 4862TIP3   OH214549   6.387   2.751   2.753
 4862TIP3    H114550   6.349   2.715   2.673
 4862TIP3    H214551   6.410   2.841   2.730
 4863TIP3   OH214552   3.011   6.679   5.390
 4863TIP3    H114553   3.064   6.753   5.362
 4863TIP3    H214554   3.008   6.622   5.313
 4864TIP3   OH214555   2.186   4.441   0.742
 4864TIP3    H114556   2.130   4.515   0.766
 4864TIP3    H214557   2.261   4.481   0.699
 4865TIP3   OH214558   3.739   0.649   5.387
 4865TIP3    H114559   3.765   0.563   5.421
 4865TIP3    H214560   3.712   0.698   5.465
 4866TIP3   OH214561   3.914   0.319   0.099
 4866TIP3    H114562   3.959   0.260   0.039
 4866TIP3    H214563   3.954   0.302   0.185
 4867TIP3   OH214564   1.156   6.557   2.294
 4867TIP3    H114565   1.210   6.589   2.222
 4867TIP3    H214566   1.129   6.637   2.341
 4868TIP3   OH214567   3.611   4.798   2.085
 4868TIP3    H114568   3.623   4.732   2.016
 4868TIP3    H214569   3.609   4.882   2.038
 4869TIP3   OH214570   5.539   3.170   3.731
 4869TIP3    H114571   5.597   3.246   3.734
 4869TIP3    H214572   5.528   3.144   3.822
 4870TIP3   OH214573   6.756   2.563   4.621
 4870TIP3    H114574   6.835   2.546   4.570
 4870TIP3    H214575   6.695   2.494   4.595
 4871TIP3   OH214576   3.193   0.687   2.942
 4871TIP3    H114577   3.251   0.618   2.912
 4871TIP3    H214578   3.143   0.712   2.864
 4872TIP3   OH214579   6.717   6.162   1.261
 4872TIP3    H114580   6.767   6.085   1.234
 4872TIP3    H214581   6.782   6.221   1.297
 4873TIP3   OH214582   5.227   4.115   2.287
 4873TIP3    H114583   5.313   4.073   2.294
 4873TIP3    H214584   5.243   4.192   2.233
 4874TIP3   OH214585   6.011   2.454   0.709
 4874TIP3    H114586   6.028   2.375   0.760
 4874TIP3    H214587   5.965   2.512   0.770
 4875TIP3   OH214588   5.355   5.237   5.447
 4875TIP3    H114589   5.352   5.291   5.527
 4875TIP3    H214590   5.425   5.275   5.395
 4876TIP3   OH214591   6.537   5.001   1.911
 4876TIP3    H114592   6.524   5.095   1.898
 4876TIP3    H214593   6.631   4.992   1.927
 4877TIP3   OH214594   3.823   5.275   0.538
 4877TIP3    H114595   3.815   5.199   0.480
 4877TIP3    H214596   3.739   5.320   0.531
 4878TIP3   OH214597   3.999   5.829   2.773
 4878TIP3    H114598   4.060   5.771   2.728
 4878TIP3    H214599   3.942   5.864   2.704
 4879TIP3   OH214600   4.798   0.532   4.095
 4879TIP3    H114601   4.788   0.581   4.013
 4879TIP3    H214602   4.727   0.468   4.093
 4880TIP3   OH214603   2.039   4.460   2.980
 4880TIP3    H114604   1.947   4.434   2.975
 4880TIP3    H214605   2.039   4.555   2.968
 4881TIP3   OH214606   1.948   1.832   5.648
 4881TIP3    H114607   1.968   1.885   5.725
 4881TIP3    H214608   1.890   1.886   5.595
 4882TIP3   OH214609   4.292   5.381   4.185
 4882TIP3    H114610   4.201   5.354   4.175
 4882TIP3    H214611   4.339   5.338   4.114
 4883TIP3   OH214612   1.829   0.430   4.455
 4883TIP3    H114613   1.757   0.368   4.471
 4883TIP3    H214614   1.869   0.442   4.541
 4884TIP3   OH214615   5.015   6.742   1.002
 4884TIP3    H114616   4.983   6.738   1.093
 4884TIP3    H214617   4.980   6.663   0.961
 4885TIP3   OH214618   4.794   1.697   4.715
 4885TIP3    H114619   4.721   1.756   4.701
 4885TIP3    H214620   4.861   1.750   4.757
 4886TIP3   OH214621   6.897   4.387   2.461
 4886TIP3    H114622   6.847   4.380   2.543
 4886TIP3    H214623   6.837   4.428   2.400
 4887TIP3   OH214624   6.205   2.570   0.528
 4887TIP3    H114625   6.132   2.520   0.564
 4887TIP3    H214626   6.268   2.503   0.501
 4888TIP3   OH214627   4.702   3.442   2.755
 4888TIP3    H114628   4.622   3.436   2.807
 4888TIP3    H214629   4.674   3.479   2.671
 4889TIP3   OH214630   2.697   2.150   3.271
 4889TIP3    H114631   2.686   2.175   3.179
 4889TIP3    H214632   2.792   2.150   3.284
 4890TIP3   OH214633   1.109   4.476   0.626
 4890TIP3    H114634   1.145   4.565   0.622
 4890TIP3    H214635   1.164   4.431   0.690
 4891TIP3   OH214636   4.060   6.350   3.957
 4891TIP3    H114637   4.084   6.434   3.996
 4891TIP3    H214638   4.126   6.336   3.889
 4892TIP3   OH214639   2.001   0.678   1.003
 4892TIP3    H114640   2.020   0.704   1.093
 4892TIP3    H214641   2.035   0.589   0.995
 4893TIP3   OH214642   1.643   5.345   2.628
 4893TIP3    H114643   1.548   5.356   2.633
 4893TIP3    H214644   1.660   5.327   2.535
 4894TIP3   OH214645   3.930   0.110   1.073
 4894TIP3    H114646   4.003   0.091   1.014
 4894TIP3    H214647   3.909   0.202   1.057
 4895TIP3   OH214648   6.641   5.806   4.973
 4895TIP3    H114649   6.682   5.891   4.952
 4895TIP3    H214650   6.658   5.794   5.067
 4896TIP3   OH214651   3.323   2.294   5.757
 4896TIP3    H114652   3.327   2.329   5.668
 4896TIP3    H214653   3.408   2.317   5.795
 4897TIP3   OH214654   2.368   6.626   0.527
 4897TIP3    H114655   2.319   6.668   0.456
 4897TIP3    H214656   2.459   6.649   0.509
 4898TIP3   OH214657   3.439   5.021   4.815
 4898TIP3    H114658   3.391   4.996   4.736
 4898TIP3    H214659   3.468   4.938   4.853
 4899TIP3   OH214660   3.872   5.282   5.736
 4899TIP3    H114661   3.903   5.193   5.749
 4899TIP3    H214662   3.778   5.278   5.751
 4900TIP3   OH214663   3.107   5.723   4.980
 4900TIP3    H114664   3.045   5.710   4.908
 4900TIP3    H214665   3.055   5.706   5.059
 4901TIP3   OH214666   2.270   0.448   4.640
 4901TIP3    H114667   2.251   0.542   4.638
 4901TIP3    H214668   2.243   0.420   4.728
 4902TIP3   OH214669   6.195   5.153   4.469
 4902TIP3    H114670   6.215   5.113   4.385
 4902TIP3    H214671   6.101   5.173   4.464
 4903TIP3   OH214672   0.058   5.789   0.934
 4903TIP3    H114673   0.080   5.716   0.992
 4903TIP3    H214674   0.142   5.822   0.903
 4904TIP3   OH214675   5.926   0.563   0.495
 4904TIP3    H114676   5.847   0.599   0.456
 4904TIP3    H214677   5.895   0.503   0.563
 4905TIP3   OH214678   0.911   0.526   4.082
 4905TIP3    H114679   0.819   0.503   4.068
 4905TIP3    H214680   0.918   0.617   4.053
 4906TIP3   OH214681   0.824   4.264   3.584
 4906TIP3    H114682   0.893   4.239   3.522
 4906TIP3    H214683   0.871   4.283   3.665
 4907TIP3   OH214684   1.272   5.653   1.900
 4907TIP3    H114685   1.325   5.685   1.826
 4907TIP3    H214686   1.255   5.731   1.953
 4908TIP3   OH214687   6.596   4.129   3.566
 4908TIP3    H114688   6.567   4.121   3.475
 4908TIP3    H214689   6.547   4.061   3.613
 4909TIP3   OH214690   1.232   3.207   3.085
 4909TIP3    H114691   1.187   3.189   3.167
 4909TIP3    H214692   1.164   3.197   3.018
 4910TIP3   OH214693   1.897   3.326   5.661
 4910TIP3    H114694   1.992   3.336   5.658
 4910TIP3    H214695   1.863   3.416   5.661
 4911TIP3   OH214696   0.804   4.539   4.517
 4911TIP3    H114697   0.744   4.595   4.565
 4911TIP3    H214698   0.804   4.574   4.428
 4912TIP3   OH214699   6.328   4.994   2.602
 4912TIP3    H114700   6.416   5.007   2.638
 4912TIP3    H214701   6.339   5.003   2.507
 4913TIP3   OH214702   4.519   4.771   4.277
 4913TIP3    H114703   4.443   4.828   4.287
 4913TIP3    H214704   4.583   4.805   4.339
 4914TIP3   OH214705   3.058   6.611   5.674
 4914TIP3    H114706   3.130   6.559   5.637
 4914TIP3    H214707   3.028   6.666   5.602
 4915TIP3   OH214708   2.777   5.795   4.425
 4915TIP3    H114709   2.816   5.883   4.423
 4915TIP3    H214710   2.689   5.808   4.388
 4916TIP3   OH214711   6.079   3.698   4.139
 4916TIP3    H114712   5.987   3.672   4.135
 4916TIP3    H214713   6.092   3.750   4.059
 4917TIP3   OH214714   2.999   1.491   3.927
 4917TIP3    H114715   3.001   1.578   3.889
 4917TIP3    H214716   3.070   1.491   3.992
 4918TIP3   OH214717   7.177   5.571   2.144
 4918TIP3    H114718   7.166   5.531   2.058
 4918TIP3    H214719   7.097   5.622   2.158
 4919TIP3   OH214720   7.116   5.229   0.305
 4919TIP3    H114721   7.033   5.233   0.258
 4919TIP3    H214722   7.092   5.210   0.396
 4920TIP3   OH214723   3.063   2.992   3.608
 4920TIP3    H114724   3.062   2.903   3.641
 4920TIP3    H214725   3.083   3.046   3.684
 4921TIP3   OH214726   1.685   0.421   0.550
 4921TIP3    H114727   1.706   0.335   0.586
 4921TIP3    H214728   1.603   0.408   0.503
 4922TIP3   OH214729   1.820   0.993   4.397
 4922TIP3    H114730   1.739   1.030   4.362
 4922TIP3    H214731   1.822   0.903   4.362
 4923TIP3   OH214732   3.050   2.673   2.301
 4923TIP3    H114733   3.050   2.671   2.397
 4923TIP3    H214734   3.138   2.702   2.278
 4924TIP3   OH214735   2.852   3.753   3.943
 4924TIP3    H114736   2.881   3.772   4.032
 4924TIP3    H214737   2.832   3.659   3.944
 4925TIP3   OH214738   4.864   0.788   1.609
 4925TIP3    H114739   4.940   0.802   1.553
 4925TIP3    H214740   4.790   0.817   1.555
 4926TIP3   OH214741   6.548   2.538   5.963
 4926TIP3    H114742   6.586   2.598   5.899
 4926TIP3    H214743   6.454   2.537   5.943
 4927TIP3   OH214744   6.342   2.803   0.554
 4927TIP3    H114745   6.407   2.765   0.612
 4927TIP3    H214746   6.301   2.728   0.512
 4928TIP3   OH214747   5.464   2.099   3.728
 4928TIP3    H114748   5.560   2.093   3.729
 4928TIP3    H214749   5.440   2.098   3.821
 4929TIP3   OH214750   5.949   1.955   1.706
 4929TIP3    H114751   5.876   1.935   1.764
 4929TIP3    H214752   5.909   1.977   1.622
 4930TIP3   OH214753   7.097   1.732   3.536
 4930TIP3    H114754   7.018   1.724   3.482
 4930TIP3    H214755   7.132   1.643   3.541
 4931TIP3   OH214756   3.908   2.283   4.750
 4931TIP3    H114757   3.839   2.239   4.800
 4931TIP3    H214758   3.942   2.350   4.810
 4932TIP3   OH214759   1.201   2.897   2.824
 4932TIP3    H114760   1.131   2.867   2.767
 4932TIP3    H214761   1.260   2.946   2.767
 4933TIP3   OH214762   3.092   6.240   4.468
 4933TIP3    H114763   3.118   6.332   4.469
 4933TIP3    H214764   3.103   6.211   4.559
 4934TIP3   OH214765   1.036   1.240   4.163
 4934TIP3    H114766   0.962   1.235   4.102
 4934TIP3    H214767   1.051   1.333   4.175
 4935TIP3   OH214768   1.510   6.251   0.885
 4935TIP3    H114769   1.478   6.216   0.802
 4935TIP3    H214770   1.499   6.179   0.947
 4936TIP3   OH214771   2.259   6.793   2.105
 4936TIP3    H114772   2.317   6.869   2.118
 4936TIP3    H214773   2.174   6.831   2.082
 4937TIP3   OH214774   3.153   0.160   1.176
 4937TIP3    H114775   3.115   0.214   1.107
 4937TIP3    H214776   3.247   0.158   1.155
 4938TIP3   OH214777   6.638   1.645   0.780
 4938TIP3    H114778   6.714   1.641   0.722
 4938TIP3    H214779   6.563   1.632   0.722
 4939TIP3   OH214780   5.188   2.942   5.332
 4939TIP3    H114781   5.272   2.963   5.292
 4939TIP3    H214782   5.160   3.023   5.374
 4940TIP3   OH214783   6.692   3.829   3.561
 4940TIP3    H114784   6.676   3.868   3.647
 4940TIP3    H214785   6.637   3.878   3.501
 4941TIP3   OH214786   1.869   1.025   2.873
 4941TIP3    H114787   1.855   1.107   2.921
 4941TIP3    H214788   1.876   0.958   2.942
 4942TIP3   OH214789   6.945   0.262   3.436
 4942TIP3    H114790   7.037   0.288   3.430
 4942TIP3    H214791   6.902   0.334   3.482
 4943TIP3   OH214792   5.177   0.140   1.543
 4943TIP3    H114793   5.103   0.200   1.534
 4943TIP3    H214794   5.155   0.067   1.485
 4944TIP3   OH214795   3.585   5.701   1.883
 4944TIP3    H114796   3.571   5.792   1.906
 4944TIP3    H214797   3.596   5.656   1.967
 4945TIP3   OH214798   1.589   0.738   4.646
 4945TIP3    H114799   1.683   0.718   4.651
 4945TIP3    H214800   1.554   0.675   4.583
 4946TIP3   OH214801   1.304   6.500   2.855
 4946TIP3    H114802   1.307   6.472   2.764
 4946TIP3    H214803   1.382   6.555   2.865
 4947TIP3   OH214804   5.255   1.265   3.178
 4947TIP3    H114805   5.333   1.212   3.165
 4947TIP3    H214806   5.213   1.267   3.092
 4948TIP3   OH214807   0.466   0.327   3.398
 4948TIP3    H114808   0.434   0.324   3.308
 4948TIP3    H214809   0.406   0.385   3.443
 4949TIP3   OH214810   6.175   2.048   2.579
 4949TIP3    H114811   6.263   2.012   2.565
 4949TIP3    H214812   6.178   2.135   2.537
 4950TIP3   OH214813   4.477   2.188   3.859
 4950TIP3    H114814   4.438   2.119   3.914
 4950TIP3    H214815   4.435   2.177   3.774
 4951TIP3   OH214816   0.500   4.152   2.682
 4951TIP3    H114817   0.578   4.149   2.738
 4951TIP3    H214818   0.510   4.076   2.624
 4952TIP3   OH214819   6.436   1.747   5.162
 4952TIP3    H114820   6.507   1.807   5.186
 4952TIP3    H214821   6.399   1.784   5.083
 4953TIP3   OH214822   3.217   0.318   5.857
 4953TIP3    H114823   3.300   0.361   5.879
 4953TIP3    H214824   3.220   0.235   5.904
 4954TIP3   OH214825   4.111   4.396   2.412
 4954TIP3    H114826   4.084   4.375   2.501
 4954TIP3    H214827   4.138   4.487   2.416
 4955TIP3   OH214828   0.459   3.806   3.801
 4955TIP3    H114829   0.547   3.769   3.793
 4955TIP3    H214830   0.474   3.901   3.803
 4956TIP3   OH214831   1.979   5.990   3.682
 4956TIP3    H114832   1.988   6.072   3.633
 4956TIP3    H214833   1.888   5.991   3.714
 4957TIP3   OH214834   3.608   4.370   5.833
 4957TIP3    H114835   3.558   4.439   5.790
 4957TIP3    H214836   3.696   4.376   5.795
 4958TIP3   OH214837   5.239   3.090   3.298
 4958TIP3    H114838   5.304   3.134   3.353
 4958TIP3    H214839   5.245   3.135   3.214
 4959TIP3   OH214840   4.455   0.191   2.671
 4959TIP3    H114841   4.523   0.181   2.604
 4959TIP3    H214842   4.503   0.211   2.751
 4960TIP3   OH214843   5.372   1.808   3.126
 4960TIP3    H114844   5.458   1.769   3.111
 4960TIP3    H214845   5.361   1.871   3.055
 4961TIP3   OH214846   1.672   6.245   3.345
 4961TIP3    H114847   1.699   6.164   3.388
 4961TIP3    H214848   1.584   6.228   3.313
 4962TIP3   OH214849   1.375   6.026   1.752
 4962TIP3    H114850   1.463   5.991   1.763
 4962TIP3    H214851   1.347   5.996   1.666
 4963TIP3   OH214852   4.356   4.251   2.605
 4963TIP3    H114853   4.359   4.187   2.534
 4963TIP3    H214854   4.264   4.277   2.610
 4964TIP3   OH214855   0.591   3.566   2.708
 4964TIP3    H114856   0.610   3.589   2.618
 4964TIP3    H214857   0.603   3.471   2.712
 4965TIP3   OH214858   0.452   2.302   4.855
 4965TIP3    H114859   0.497   2.227   4.816
 4965TIP3    H214860   0.520   2.348   4.904
 4966TIP3   OH214861   0.318   3.004   2.007
 4966TIP3    H114862   0.263   3.066   2.056
 4966TIP3    H214863   0.256   2.953   1.956
 4967TIP3   OH214864   4.947   2.165   0.147
 4967TIP3    H114865   4.988   2.083   0.119
 4967TIP3    H214866   4.858   2.161   0.113
 4968TIP3   OH214867   4.793   3.353   3.457
 4968TIP3    H114868   4.812   3.398   3.375
 4968TIP3    H214869   4.877   3.319   3.486
 4969TIP3   OH214870   5.393   5.592   1.156
 4969TIP3    H114871   5.404   5.655   1.227
 4969TIP3    H214872   5.340   5.637   1.091
 4970TIP3   OH214873   0.423   3.177   3.760
 4970TIP3    H114874   0.338   3.169   3.719
 4970TIP3    H214875   0.486   3.167   3.689
 4971TIP3   OH214876   2.415   1.382   5.354
 4971TIP3    H114877   2.442   1.441   5.425
 4971TIP3    H214878   2.394   1.300   5.398
 4972TIP3   OH214879   3.753   5.898   1.748
 4972TIP3    H114880   3.774   5.972   1.805
 4972TIP3    H214881   3.798   5.824   1.788
 4973TIP3   OH214882   2.095   1.463   3.687
 4973TIP3    H114883   2.178   1.454   3.639
 4973TIP3    H214884   2.028   1.441   3.622
 4974TIP3   OH214885   0.641   1.030   4.556
 4974TIP3    H114886   0.652   1.061   4.645
 4974TIP3    H214887   0.692   0.949   4.552
 4975TIP3   OH214888   4.263   5.231   0.837
 4975TIP3    H114889   4.176   5.199   0.863
 4975TIP3    H214890   4.297   5.161   0.780
 4976TIP3   OH214891   6.681   1.154   3.207
 4976TIP3    H114892   6.677   1.059   3.198
 4976TIP3    H214893   6.763   1.179   3.164
 4977TIP3   OH214894   6.054   6.516   0.492
 4977TIP3    H114895   6.073   6.431   0.452
 4977TIP3    H214896   6.044   6.576   0.419
 4978TIP3   OH214897   5.809   6.602   4.682
 4978TIP3    H114898   5.774   6.635   4.765
 4978TIP3    H214899   5.836   6.681   4.635
 4979TIP3   OH214900   2.761   4.425   1.332
 4979TIP3    H114901   2.769   4.486   1.259
 4979TIP3    H214902   2.669   4.399   1.331
 4980TIP3   OH214903   4.174   4.511   5.245
 4980TIP3    H114904   4.151   4.419   5.240
 4980TIP3    H214905   4.256   4.519   5.196
 4981TIP3   OH214906   6.417   5.255   1.149
 4981TIP3    H114907   6.336   5.207   1.166
 4981TIP3    H214908   6.388   5.341   1.119
 4982TIP3   OH214909   2.117   2.798   0.939
 4982TIP3    H114910   2.181   2.839   0.881
 4982TIP3    H214911   2.122   2.705   0.919
 4983TIP3   OH214912   3.844   5.908   4.173
 4983TIP3    H114913   3.917   5.957   4.210
 4983TIP3    H214914   3.790   5.884   4.248
 4984TIP3   OH214915   5.568   5.430   5.387
 4984TIP3    H114916   5.581   5.514   5.343
 4984TIP3    H214917   5.628   5.433   5.462
 4985TIP3   OH214918   4.068   2.148   4.536
 4985TIP3    H114919   3.995   2.176   4.592
 4985TIP3    H214920   4.026   2.118   4.455
 4986TIP3   OH214921   0.614   0.130   4.893
 4986TIP3    H114922   0.529   0.086   4.883
 4986TIP3    H214923   0.593   0.224   4.889
 4987TIP3   OH214924   3.298   5.485   1.282
 4987TIP3    H114925   3.230   5.424   1.257
 4987TIP3    H214926   3.379   5.433   1.282
 4988TIP3   OH214927   2.255   4.256   2.872
 4988TIP3    H114928   2.239   4.348   2.852
 4988TIP3    H214929   2.316   4.226   2.804
 4989TIP3   OH214930   1.076   0.530   1.501
 4989TIP3    H114931   0.988   0.564   1.514
 4989TIP3    H214932   1.085   0.459   1.564
 4990TIP3   OH214933   3.643   2.461   3.422
 4990TIP3    H114934   3.642   2.529   3.489
 4990TIP3    H214935   3.735   2.437   3.413
 4991TIP3   OH214936   3.200   4.645   0.768
 4991TIP3    H114937   3.260   4.712   0.734
 4991TIP3    H214938   3.133   4.637   0.701
 4992TIP3   OH214939   6.085   3.386   5.503
 4992TIP3    H114940   6.134   3.344   5.433
 4992TIP3    H214941   6.128   3.356   5.583
 4993TIP3   OH214942   6.237   4.377   0.121
 4993TIP3    H114943   6.227   4.283   0.104
 4993TIP3    H214944   6.293   4.409   0.050
 4994TIP3   OH214945   4.289   3.908   3.180
 4994TIP3    H114946   4.286   3.840   3.247
 4994TIP3    H214947   4.359   3.880   3.120
 4995TIP3   OH214948   0.840   3.209   4.263
 4995TIP3    H114949   0.791   3.266   4.322
 4995TIP3    H214950   0.774   3.152   4.223
 4996TIP3   OH214951   6.811   6.181   0.221
 4996TIP3    H114952   6.718   6.163   0.220
 4996TIP3    H214953   6.843   6.141   0.301
 4997TIP3   OH214954   3.679   5.138   5.535
 4997TIP3    H114955   3.721   5.053   5.524
 4997TIP3    H214956   3.611   5.139   5.468
 4998TIP3   OH214957   1.009   5.483   4.536
 4998TIP3    H114958   1.086   5.539   4.525
 4998TIP3    H214959   1.044   5.394   4.534
 4999TIP3   OH214960   5.005   4.794   2.010
 4999TIP3    H114961   5.027   4.795   2.103
 4999TIP3    H214962   5.053   4.868   1.973
 5000TIP3   OH214963   4.591   3.942   3.452
 5000TIP3    H114964   4.615   3.858   3.414
 5000TIP3    H214965   4.619   3.936   3.543
 5001TIP3   OH214966   5.038   0.000   1.939
 5001TIP3    H114967   5.010  -0.090   1.922
 5001TIP3    H214968   4.971   0.055   1.897
 5002TIP3   OH214969   3.357   4.814   1.589
 5002TIP3    H114970   3.307   4.737   1.616
 5002TIP3    H214971   3.411   4.782   1.516
 5003TIP3   OH214972   2.741   6.316   2.377
 5003TIP3    H114973   2.743   6.407   2.347
 5003TIP3    H214974   2.806   6.272   2.323
 5004TIP3   OH214975   5.149   1.497   1.712
 5004TIP3    H114976   5.137   1.580   1.758
 5004TIP3    H214977   5.240   1.499   1.684
 5005TIP3   OH214978   3.337   1.576   3.953
 5005TIP3    H114979   3.316   1.645   4.017
 5005TIP3    H214980   3.408   1.613   3.900
 5006TIP3   OH214981   4.108   2.055   0.706
 5006TIP3    H114982   4.092   2.050   0.800
 5006TIP3    H214983   4.156   1.976   0.685
 5007TIP3   OH214984   2.441   4.701   1.902
 5007TIP3    H114985   2.481   4.616   1.884
 5007TIP3    H214986   2.347   4.682   1.904
 5008TIP3   OH214987   3.047   2.998   3.295
 5008TIP3    H114988   3.025   3.065   3.231
 5008TIP3    H214989   3.011   3.030   3.377
 5009TIP3   OH214990   1.463   3.893   1.765
 5009TIP3    H114991   1.458   3.838   1.844
 5009TIP3    H214992   1.455   3.831   1.692
 5010TIP3   OH214993   1.294   1.935   5.431
 5010TIP3    H114994   1.229   1.991   5.473
 5010TIP3    H214995   1.361   1.996   5.400
 5011TIP3   OH214996   2.962   3.898   3.574
 5011TIP3    H114997   3.015   3.978   3.583
 5011TIP3    H214998   3.007   3.833   3.628
 5012TIP3   OH214999   4.667   6.397   0.198
 5012TIP3    H115000   4.643   6.482   0.161
 5012TIP3    H215001   4.608   6.335   0.156
 5013TIP3   OH215002   7.008   2.454   3.994
 5013TIP3    H115003   6.942   2.391   3.965
 5013TIP3    H215004   7.039   2.494   3.912
 5014TIP3   OH215005   4.966   1.592   3.789
 5014TIP3    H115006   4.959   1.501   3.758
 5014TIP3    H215007   4.942   1.645   3.713
 5015TIP3   OH215008   3.915   2.933   0.284
 5015TIP3    H115009   3.826   2.947   0.252
 5015TIP3    H215010   3.960   3.015   0.264
 5016TIP3   OH215011   4.754   5.218   3.019
 5016TIP3    H115012   4.746   5.303   2.974
 5016TIP3    H215013   4.825   5.174   2.974
 5017TIP3   OH215014   3.671   5.881   2.950
 5017TIP3    H115015   3.704   5.965   2.983
 5017TIP3    H215016   3.734   5.817   2.983
 5018TIP3   OH215017   0.589   1.808   4.513
 5018TIP3    H115018   0.524   1.821   4.445
 5018TIP3    H215019   0.540   1.775   4.588
 5019TIP3   OH215020   3.280   5.266   2.633
 5019TIP3    H115021   3.221   5.234   2.702
 5019TIP3    H215022   3.314   5.187   2.591
 5020TIP3   OH215023   3.402   4.918   2.903
 5020TIP3    H115024   3.367   4.829   2.904
 5020TIP3    H215025   3.424   4.934   2.811
 5021TIP3   OH215026   4.960   3.723   4.955
 5021TIP3    H115027   5.004   3.748   4.874
 5021TIP3    H215028   4.977   3.796   5.015
 5022TIP3   OH215029   3.207   0.599   1.011
 5022TIP3    H115030   3.280   0.609   1.072
 5022TIP3    H215031   3.237   0.645   0.932
 5023TIP3   OH215032   4.940   4.561   4.379
 5023TIP3    H115033   4.898   4.643   4.352
 5023TIP3    H215034   5.022   4.588   4.420
 5024TIP3   OH215035   4.337   6.381   2.610
 5024TIP3    H115036   4.392   6.416   2.680
 5024TIP3    H215037   4.328   6.288   2.630
 5025TIP3   OH215038   2.312   6.732   1.475
 5025TIP3    H115039   2.302   6.659   1.536
 5025TIP3    H215040   2.398   6.717   1.435
 5026TIP3   OH215041   1.821   5.340   3.235
 5026TIP3    H115042   1.902   5.381   3.206
 5026TIP3    H215043   1.831   5.247   3.210
 5027TIP3   OH215044   4.258   4.780   5.147
 5027TIP3    H115045   4.291   4.772   5.058
 5027TIP3    H215046   4.176   4.730   5.147
 5028TIP3   OH215047   0.163   3.801   0.623
 5028TIP3    H115048   0.198   3.884   0.655
 5028TIP3    H215049   0.078   3.823   0.586
 5029TIP3   OH215050   6.059   4.320   3.988
 5029TIP3    H115051   6.128   4.277   3.939
 5029TIP3    H215052   5.999   4.354   3.922
 5030TIP3   OH215053   6.794   2.636   5.763
 5030TIP3    H115054   6.885   2.612   5.782
 5030TIP3    H215055   6.787   2.630   5.668
 5031TIP3   OH215056   3.559   4.766   3.213
 5031TIP3    H115057   3.529   4.701   3.149
 5031TIP3    H215058   3.592   4.713   3.286
 5032TIP3   OH215059   3.609   0.630   3.009
 5032TIP3    H115060   3.623   0.603   2.918
 5032TIP3    H215061   3.653   0.563   3.061
 5033TIP3   OH215062   6.543   0.495   3.187
 5033TIP3    H115063   6.449   0.500   3.207
 5033TIP3    H215064   6.585   0.503   3.273
 5034TIP3   OH215065   1.605   3.647   0.292
 5034TIP3    H115066   1.520   3.669   0.253
 5034TIP3    H215067   1.664   3.641   0.217
 5035TIP3   OH215068   1.606   0.646   1.694
 5035TIP3    H115069   1.664   0.639   1.769
 5035TIP3    H215070   1.548   0.719   1.715
 5036TIP3   OH215071   4.496   2.643   3.899
 5036TIP3    H115072   4.480   2.572   3.838
 5036TIP3    H215073   4.510   2.720   3.844
 5037TIP3   OH215074   3.784   1.568   5.350
 5037TIP3    H115075   3.819   1.504   5.413
 5037TIP3    H215076   3.818   1.539   5.266
 5038TIP3   OH215077   1.421   3.763   1.994
 5038TIP3    H115078   1.413   3.680   1.947
 5038TIP3    H215079   1.461   3.739   2.078
 5039TIP3   OH215080   2.782   2.325   2.682
 5039TIP3    H115081   2.845   2.384   2.724
 5039TIP3    H215082   2.831   2.283   2.612
 5040TIP3   OH215083   0.384   4.667   3.305
 5040TIP3    H115084   0.293   4.695   3.316
 5040TIP3    H215085   0.429   4.697   3.384
 5041TIP3   OH215086   2.717   6.542   1.633
 5041TIP3    H115087   2.682   6.537   1.722
 5041TIP3    H215088   2.802   6.498   1.639
 5042TIP3   OH215089   5.781   2.014   2.068
 5042TIP3    H115090   5.876   2.005   2.058
 5042TIP3    H215091   5.745   1.955   2.003
 5043TIP3   OH215092   0.780   3.566   1.289
 5043TIP3    H115093   0.861   3.514   1.286
 5043TIP3    H215094   0.810   3.656   1.300
 5044TIP3   OH215095   5.115   2.573   2.024
 5044TIP3    H115096   5.084   2.643   1.966
 5044TIP3    H215097   5.085   2.492   1.983
 5045TIP3   OH215098   3.697   3.514   0.545
 5045TIP3    H115099   3.738   3.597   0.522
 5045TIP3    H215100   3.746   3.448   0.496
 5046TIP3   OH215101   1.250   1.047   3.770
 5046TIP3    H115102   1.328   1.071   3.719
 5046TIP3    H215103   1.187   1.017   3.705
 5047TIP3   OH215104   0.573   2.635   4.857
 5047TIP3    H115105   0.609   2.561   4.906
 5047TIP3    H215106   0.517   2.595   4.790
 5048TIP3   OH215107   3.382   3.074   4.941
 5048TIP3    H115108   3.312   3.103   5.000
 5048TIP3    H215109   3.337   3.027   4.871
 5049TIP3   OH215110   6.406   1.428   1.410
 5049TIP3    H115111   6.448   1.342   1.417
 5049TIP3    H215112   6.458   1.474   1.344
 5050TIP3   OH215113   6.071   3.057   1.534
 5050TIP3    H115114   6.050   3.020   1.449
 5050TIP3    H215115   6.114   3.141   1.515
 5051TIP3   OH215116   4.624   0.469   2.092
 5051TIP3    H115117   4.541   0.514   2.075
 5051TIP3    H215118   4.682   0.538   2.124
 5052TIP3   OH215119   7.091   0.183   0.470
 5052TIP3    H115120   7.120   0.162   0.558
 5052TIP3    H215121   7.170   0.175   0.416
 5053TIP3   OH215122   1.894   1.431   0.839
 5053TIP3    H115123   1.972   1.389   0.804
 5053TIP3    H215124   1.824   1.403   0.780
 5054TIP3   OH215125   3.205   5.194   3.855
 5054TIP3    H115126   3.120   5.160   3.827
 5054TIP3    H215127   3.223   5.266   3.795
 5055TIP3   OH215128   2.435   5.729   0.610
 5055TIP3    H115129   2.431   5.697   0.700
 5055TIP3    H215130   2.343   5.743   0.586
 5056TIP3   OH215131   4.906   1.307   3.047
 5056TIP3    H115132   4.879   1.242   3.111
 5056TIP3    H215133   4.919   1.257   2.966
 5057TIP3   OH215134   5.385   6.184   3.697
 5057TIP3    H115135   5.394   6.089   3.703
 5057TIP3    H215136   5.365   6.211   3.787
 5058TIP3   OH215137   2.002   3.417   2.223
 5058TIP3    H115138   2.077   3.360   2.244
 5058TIP3    H215139   1.927   3.373   2.264
 5059TIP3   OH215140   7.117   1.894   0.816
 5059TIP3    H115141   7.024   1.919   0.819
 5059TIP3    H215142   7.163   1.975   0.796
 5060TIP3   OH215143   5.866   5.617   4.157
 5060TIP3    H115144   5.950   5.659   4.136
 5060TIP3    H215145   5.817   5.684   4.204
 5061TIP3   OH215146   1.827   5.766   3.972
 5061TIP3    H115147   1.765   5.693   3.981
 5061TIP3    H215148   1.866   5.752   3.886
 5062TIP3   OH215149   6.090   2.676   3.591
 5062TIP3    H115150   5.998   2.655   3.607
 5062TIP3    H215151   6.088   2.741   3.521
 5063TIP3   OH215152   6.906   2.075   0.276
 5063TIP3    H115153   6.830   2.036   0.233
 5063TIP3    H215154   6.880   2.166   0.294
 5064TIP3   OH215155   1.707   1.812   3.812
 5064TIP3    H115156   1.727   1.719   3.819
 5064TIP3    H215157   1.763   1.853   3.878
 5065TIP3   OH215158   1.567   5.612   5.094
 5065TIP3    H115159   1.612   5.555   5.156
 5065TIP3    H215160   1.565   5.697   5.138
 5066TIP3   OH215161   3.961   1.758   3.730
 5066TIP3    H115162   3.986   1.760   3.638
 5066TIP3    H215163   3.867   1.743   3.729
 5067TIP3   OH215164   3.434   3.691   2.338
 5067TIP3    H115165   3.348   3.666   2.304
 5067TIP3    H215166   3.415   3.735   2.421
 5068TIP3   OH215167   7.157   4.037   2.923
 5068TIP3    H115168   7.081   4.094   2.917
 5068TIP3    H215169   7.221   4.088   2.973
 5069TIP3   OH215170   0.309   0.349   4.340
 5069TIP3    H115171   0.279   0.260   4.362
 5069TIP3    H215172   0.401   0.338   4.317
 5070TIP3   OH215173   5.134   5.429   4.665
 5070TIP3    H115174   5.208   5.376   4.636
 5070TIP3    H215175   5.159   5.461   4.752
 5071TIP3   OH215176   1.896   5.356   0.439
 5071TIP3    H115177   1.921   5.446   0.459
 5071TIP3    H215178   1.902   5.349   0.344
 5072TIP3   OH215179   0.749   6.761   1.410
 5072TIP3    H115180   0.730   6.839   1.358
 5072TIP3    H215181   0.675   6.702   1.394
 5073TIP3   OH215182   0.120   5.876   5.871
 5073TIP3    H115183   0.032   5.896   5.839
 5073TIP3    H215184   0.127   5.922   5.954
 5074TIP3   OH215185   0.978   3.008   4.131
 5074TIP3    H115186   0.897   3.010   4.080
 5074TIP3    H215187   0.967   3.077   4.197
 5075TIP3   OH215188   2.436   5.662   4.516
 5075TIP3    H115189   2.467   5.743   4.477
 5075TIP3    H215190   2.455   5.594   4.452
 5076TIP3   OH215191   3.651   5.368   4.487
 5076TIP3    H115192   3.579   5.315   4.520
 5076TIP3    H215193   3.728   5.335   4.533
 5077TIP3   OH215194   1.103   5.458   5.846
 5077TIP3    H115195   1.052   5.414   5.778
 5077TIP3    H215196   1.172   5.395   5.868
 5078TIP3   OH215197   5.071   0.205   2.434
 5078TIP3    H115198   5.078   0.135   2.369
 5078TIP3    H215199   5.033   0.278   2.386
 5079TIP3   OH215200   4.626   5.963   2.767
 5079TIP3    H115201   4.718   5.971   2.793
 5079TIP3    H215202   4.620   6.014   2.686
 5080TIP3   OH215203   1.495   6.155   5.146
 5080TIP3    H115204   1.558   6.220   5.114
 5080TIP3    H215205   1.431   6.147   5.076
 5081TIP3   OH215206   3.420   1.031   0.455
 5081TIP3    H115207   3.337   1.050   0.410
 5081TIP3    H215208   3.487   1.067   0.397
 5082TIP3   OH215209   5.985   3.818   4.722
 5082TIP3    H115210   5.910   3.769   4.686
 5082TIP3    H215211   6.062   3.770   4.692
 5083TIP3   OH215212   5.604   4.265   2.329
 5083TIP3    H115213   5.537   4.197   2.340
 5083TIP3    H215214   5.681   4.230   2.373
 5084TIP3   OH215215   0.427   4.855   2.957
 5084TIP3    H115216   0.429   4.764   2.985
 5084TIP3    H215217   0.434   4.851   2.861
 5085TIP3   OH215218   2.655   0.388   3.112
 5085TIP3    H115219   2.748   0.381   3.093
 5085TIP3    H215220   2.643   0.479   3.141
 5086TIP3   OH215221   0.806   1.429   2.002
 5086TIP3    H115222   0.792   1.487   2.076
 5086TIP3    H215223   0.857   1.481   1.940
 5087TIP3   OH215224   6.525   2.029   3.698
 5087TIP3    H115225   6.546   2.122   3.701
 5087TIP3    H215226   6.574   1.996   3.623
 5088TIP3   OH215227   4.751   3.157   4.660
 5088TIP3    H115228   4.656   3.162   4.648
 5088TIP3    H215229   4.785   3.221   4.598
 5089TIP3   OH215230   0.658   4.043   3.562
 5089TIP3    H115231   0.702   4.128   3.561
 5089TIP3    H215232   0.730   3.980   3.557
 5090TIP3   OH215233   4.558   4.477   3.078
 5090TIP3    H115234   4.477   4.487   3.029
 5090TIP3    H215235   4.560   4.385   3.104
 5091TIP3   OH215236   2.797   3.580   5.347
 5091TIP3    H115237   2.824   3.563   5.438
 5091TIP3    H215238   2.852   3.521   5.295
 5092TIP3   OH215239   3.984   6.691   4.786
 5092TIP3    H115240   4.066   6.741   4.782
 5092TIP3    H215241   3.940   6.724   4.865
 5093TIP3   OH215242   0.134   3.156   0.660
 5093TIP3    H115243   0.104   3.072   0.693
 5093TIP3    H215244   0.117   3.153   0.566
 5094TIP3   OH215245   2.914   6.686   0.400
 5094TIP3    H115246   3.009   6.690   0.390
 5094TIP3    H215247   2.900   6.628   0.474
 5095TIP3   OH215248   5.854   3.163   0.824
 5095TIP3    H115249   5.849   3.247   0.870
 5095TIP3    H215250   5.944   3.158   0.792
 5096TIP3   OH215251   1.975   0.917   0.489
 5096TIP3    H115252   1.956   0.834   0.445
 5096TIP3    H215253   1.892   0.942   0.530
 5097TIP3   OH215254   4.089   2.208   2.587
 5097TIP3    H115255   4.116   2.119   2.610
 5097TIP3    H215256   4.157   2.264   2.625
 5098TIP3   OH215257   6.560   4.970   5.605
 5098TIP3    H115258   6.609   4.889   5.589
 5098TIP3    H215259   6.546   5.008   5.518
 5099TIP3   OH215260   2.816   2.923   4.560
 5099TIP3    H115261   2.724   2.903   4.578
 5099TIP3    H215262   2.858   2.838   4.548
 5100TIP3   OH215263   0.801   2.274   2.810
 5100TIP3    H115264   0.716   2.268   2.854
 5100TIP3    H215265   0.854   2.328   2.869
 5101TIP3   OH215266   4.281   0.420   3.463
 5101TIP3    H115267   4.290   0.325   3.453
 5101TIP3    H215268   4.197   0.440   3.421
 5102TIP3   OH215269   1.182   3.889   5.593
 5102TIP3    H115270   1.243   3.942   5.643
 5102TIP3    H215271   1.131   3.842   5.659
 5103TIP3   OH215272   2.145   3.416   5.564
 5103TIP3    H115273   2.191   3.345   5.610
 5103TIP3    H215274   2.208   3.488   5.563
 5104TIP3   OH215275   3.916   2.189   2.850
 5104TIP3    H115276   3.945   2.109   2.806
 5104TIP3    H215277   3.988   2.251   2.836
 5105TIP3   OH215278   2.111   1.998   3.407
 5105TIP3    H115279   2.094   1.927   3.468
 5105TIP3    H215280   2.159   1.957   3.335
 5106TIP3   OH215281   3.833   4.467   1.467
 5106TIP3    H115282   3.849   4.436   1.557
 5106TIP3    H215283   3.917   4.502   1.438
 5107TIP3   OH215284   5.247   4.776   0.377
 5107TIP3    H115285   5.277   4.857   0.419
 5107TIP3    H215286   5.215   4.805   0.291
 5108TIP3   OH215287   4.115   4.477   1.058
 5108TIP3    H115288   4.061   4.406   1.091
 5108TIP3    H215289   4.104   4.473   0.963
 5109TIP3   OH215290   2.750   4.658   5.723
 5109TIP3    H115291   2.834   4.612   5.726
 5109TIP3    H215292   2.753   4.708   5.642
 5110TIP3   OH215293   0.183   3.481   5.251
 5110TIP3    H115294   0.279   3.485   5.247
 5110TIP3    H215295   0.163   3.462   5.343
 5111TIP3   OH215296   5.269   1.110   5.692
 5111TIP3    H115297   5.255   1.022   5.656
 5111TIP3    H215298   5.289   1.096   5.784
 5112TIP3   OH215299   5.727   4.270   2.912
 5112TIP3    H115300   5.725   4.175   2.901
 5112TIP3    H215301   5.636   4.295   2.927
 5113TIP3   OH215302   3.696   5.819   1.082
 5113TIP3    H115303   3.675   5.778   1.166
 5113TIP3    H215304   3.767   5.879   1.102
 5114TIP3   OH215305   6.124   3.607   3.776
 5114TIP3    H115306   6.174   3.548   3.720
 5114TIP3    H215307   6.040   3.564   3.787
 5115TIP3   OH215308   7.014   3.564   5.500
 5115TIP3    H115309   7.106   3.545   5.479
 5115TIP3    H215310   6.993   3.642   5.448
 5116TIP3   OH215311   0.748   5.989   0.998
 5116TIP3    H115312   0.783   5.921   1.054
 5116TIP3    H215313   0.661   5.959   0.974
 5117TIP3   OH215314   2.355   1.474   4.386
 5117TIP3    H115315   2.388   1.415   4.454
 5117TIP3    H215316   2.423   1.540   4.377
 5118TIP3   OH215317   2.614   0.823   4.175
 5118TIP3    H115318   2.604   0.909   4.135
 5118TIP3    H215319   2.525   0.790   4.184
 5119TIP3   OH215320   6.818   1.804   2.234
 5119TIP3    H115321   6.788   1.871   2.173
 5119TIP3    H215322   6.837   1.852   2.315
 5120TIP3   OH215323   3.812   6.750   0.820
 5120TIP3    H115324   3.828   6.664   0.780
 5120TIP3    H215325   3.891   6.800   0.801
 5121TIP3   OH215326   5.709   0.704   2.594
 5121TIP3    H115327   5.615   0.695   2.610
 5121TIP3    H215328   5.715   0.747   2.508
 5122TIP3   OH215329   5.582   0.692   1.820
 5122TIP3    H115330   5.669   0.673   1.856
 5122TIP3    H215331   5.531   0.612   1.837
 5123TIP3   OH215332   6.574   0.531   2.381
 5123TIP3    H115333   6.592   0.497   2.469
 5123TIP3    H215334   6.508   0.599   2.394
 5124TIP3   OH215335   0.931   5.936   4.172
 5124TIP3    H115336   0.906   5.934   4.079
 5124TIP3    H215337   0.858   5.895   4.218
 5125TIP3   OH215338   4.080   1.588   4.767
 5125TIP3    H115339   4.002   1.643   4.764
 5125TIP3    H215340   4.146   1.641   4.810
 5126TIP3   OH215341   1.363   3.836   2.876
 5126TIP3    H115342   1.444   3.856   2.922
 5126TIP3    H215343   1.380   3.863   2.786
 5127TIP3   OH215344   6.810   6.501   4.598
 5127TIP3    H115345   6.726   6.511   4.642
 5127TIP3    H215346   6.791   6.519   4.506
 5128TIP3   OH215347   6.585   2.465   5.043
 5128TIP3    H115348   6.583   2.542   5.099
 5128TIP3    H215349   6.653   2.484   4.979
 5129TIP3   OH215350   3.627   5.869   5.521
 5129TIP3    H115351   3.642   5.904   5.433
 5129TIP3    H215352   3.593   5.781   5.506
 5130TIP3   OH215353   1.024   2.654   0.885
 5130TIP3    H115354   1.049   2.641   0.793
 5130TIP3    H215355   1.098   2.702   0.923
 5131TIP3   OH215356   5.818   0.374   1.305
 5131TIP3    H115357   5.904   0.372   1.263
 5131TIP3    H215358   5.758   0.349   1.236
 5132TIP3   OH215359   4.701   3.885   0.966
 5132TIP3    H115360   4.672   3.794   0.972
 5132TIP3    H215361   4.710   3.915   1.056
 5133TIP3   OH215362   4.850   0.724   3.663
 5133TIP3    H115363   4.827   0.791   3.599
 5133TIP3    H215364   4.945   0.726   3.667
 5134TIP3   OH215365   0.214   0.346   4.600
 5134TIP3    H115366   0.221   0.432   4.640
 5134TIP3    H215367   0.254   0.356   4.513
 5135TIP3   OH215368   4.546   1.474   4.699
 5135TIP3    H115369   4.527   1.566   4.683
 5135TIP3    H215370   4.518   1.430   4.618
 5136TIP3   OH215371   3.990   4.984   5.833
 5136TIP3    H115372   3.934   4.925   5.782
 5136TIP3    H215373   3.998   4.942   5.918
 5137TIP3   OH215374   2.667   6.216   3.377
 5137TIP3    H115375   2.688   6.176   3.293
 5137TIP3    H215376   2.613   6.292   3.355
 5138TIP3   OH215377   4.334   1.373   2.417
 5138TIP3    H115378   4.348   1.328   2.500
 5138TIP3    H215379   4.254   1.334   2.382
 5139TIP3   OH215380   5.336   5.690   3.322
 5139TIP3    H115381   5.267   5.667   3.384
 5139TIP3    H215382   5.302   5.768   3.277
 5140TIP3   OH215383   6.197   2.796   3.105
 5140TIP3    H115384   6.114   2.830   3.138
 5140TIP3    H215385   6.253   2.873   3.098
 5141TIP3   OH215386   5.783   4.225   3.714
 5141TIP3    H115387   5.780   4.260   3.625
 5141TIP3    H215388   5.787   4.302   3.770
 5142TIP3   OH215389   5.141   3.182   2.246
 5142TIP3    H115390   5.151   3.094   2.284
 5142TIP3    H215391   5.160   3.241   2.319
 5143TIP3   OH215392   6.645   1.242   5.727
 5143TIP3    H115393   6.610   1.171   5.781
 5143TIP3    H215394   6.739   1.224   5.723
 5144TIP3   OH215395   2.548   5.181   4.107
 5144TIP3    H115396   2.619   5.120   4.128
 5144TIP3    H215397   2.588   5.242   4.045
 5145TIP3   OH215398   2.189   0.803   3.015
 5145TIP3    H115399   2.155   0.837   3.097
 5145TIP3    H215400   2.144   0.719   3.002
 5146TIP3   OH215401   4.524   1.141   4.793
 5146TIP3    H115402   4.504   1.047   4.797
 5146TIP3    H215403   4.619   1.144   4.780
 5147TIP3   OH215404   3.993   6.118   2.556
 5147TIP3    H115405   4.018   6.197   2.508
 5147TIP3    H215406   4.071   6.095   2.607
 5148TIP3   OH215407   5.420   4.350   5.617
 5148TIP3    H115408   5.416   4.400   5.536
 5148TIP3    H215409   5.452   4.413   5.682
 5149TIP3   OH215410   4.078   0.573   0.026
 5149TIP3    H115411   4.078   0.479   0.007
 5149TIP3    H215412   4.063   0.615  -0.059
 5150TIP3   OH215413   3.975   6.659   3.818
 5150TIP3    H115414   3.998   6.632   3.729
 5150TIP3    H215415   3.880   6.645   3.823
 5151TIP3   OH215416   5.740   2.184   2.335
 5151TIP3    H115417   5.711   2.106   2.383
 5151TIP3    H215418   5.752   2.250   2.403
 5152TIP3   OH215419   2.710   0.586   1.718
 5152TIP3    H115420   2.615   0.575   1.724
 5152TIP3    H215421   2.722   0.654   1.652
 5153TIP3   OH215422   5.048   0.315   1.878
 5153TIP3    H115423   4.975   0.254   1.866
 5153TIP3    H215424   5.025   0.391   1.825
 5154TIP3   OH215425   1.625   2.459   2.462
 5154TIP3    H115426   1.672   2.380   2.434
 5154TIP3    H215427   1.563   2.428   2.528
 5155TIP3   OH215428   2.904   0.384   3.606
 5155TIP3    H115429   2.833   0.395   3.670
 5155TIP3    H215430   2.880   0.442   3.534
 5156TIP3   OH215431   3.645   1.740   4.015
 5156TIP3    H115432   3.714   1.675   4.022
 5156TIP3    H215433   3.626   1.765   4.106
 5157TIP3   OH215434   0.264   2.396   0.668
 5157TIP3    H115435   0.346   2.350   0.684
 5157TIP3    H215436   0.254   2.395   0.572
 5158TIP3   OH215437   0.107   1.325   0.576
 5158TIP3    H115438   0.064   1.344   0.659
 5158TIP3    H215439   0.050   1.260   0.534
 5159TIP3   OH215440   2.293   3.872   3.702
 5159TIP3    H115441   2.365   3.816   3.672
 5159TIP3    H215442   2.223   3.811   3.726
 5160TIP3   OH215443   1.457   3.152   5.428
 5160TIP3    H115444   1.538   3.177   5.473
 5160TIP3    H215445   1.479   3.070   5.384
 5161TIP3   OH215446   1.295   3.850   2.607
 5161TIP3    H115447   1.270   3.829   2.518
 5161TIP3    H215448   1.222   3.818   2.661
 5162TIP3   OH215449   6.043   1.687   5.883
 5162TIP3    H115450   6.084   1.763   5.924
 5162TIP3    H215451   5.978   1.724   5.824
 5163TIP3   OH215452   6.169   1.538   4.719
 5163TIP3    H115453   6.203   1.538   4.808
 5163TIP3    H215454   6.083   1.498   4.726
 5164TIP3   OH215455   6.451   6.498   4.409
 5164TIP3    H115456   6.384   6.431   4.407
 5164TIP3    H215457   6.521   6.464   4.354
 5165TIP3   OH215458   2.224   4.827   2.200
 5165TIP3    H115459   2.307   4.782   2.218
 5165TIP3    H215460   2.238   4.916   2.233
 5166TIP3   OH215461   6.025   6.405   3.747
 5166TIP3    H115462   6.052   6.488   3.785
 5166TIP3    H215463   6.067   6.339   3.802
 5167TIP3   OH215464   2.500   1.107   3.533
 5167TIP3    H115465   2.551   1.103   3.614
 5167TIP3    H215466   2.564   1.127   3.465
 5168TIP3   OH215467   4.924   2.084   1.920
 5168TIP3    H115468   4.921   2.048   2.009
 5168TIP3    H215469   4.835   2.072   1.887
 5169TIP3   OH215470   3.158   3.098   1.042
 5169TIP3    H115471   3.145   3.138   0.956
 5169TIP3    H215472   3.252   3.085   1.048
 5170TIP3   OH215473   3.875   5.938   5.673
 5170TIP3    H115474   3.810   5.942   5.603
 5170TIP3    H215475   3.938   5.872   5.644
 5171TIP3   OH215476   3.153   4.975   3.515
 5171TIP3    H115477   3.222   4.908   3.515
 5171TIP3    H215478   3.175   5.033   3.443
 5172TIP3   OH215479   0.363   5.161   3.356
 5172TIP3    H115480   0.285   5.126   3.398
 5172TIP3    H215481   0.362   5.123   3.268
 5173TIP3   OH215482   1.079   2.409   5.215
 5173TIP3    H115483   1.091   2.393   5.121
 5173TIP3    H215484   1.061   2.503   5.222
 5174TIP3   OH215485   1.090   4.127   0.954
 5174TIP3    H115486   1.085   4.081   0.870
 5174TIP3    H215487   1.158   4.081   1.002
 5175TIP3   OH215488   6.852   4.914   4.325
 5175TIP3    H115489   6.763   4.928   4.357
 5175TIP3    H215490   6.861   4.975   4.251
 5176TIP3   OH215491   3.597   2.862   3.480
 5176TIP3    H115492   3.634   2.951   3.479
 5176TIP3    H215493   3.515   2.871   3.528
 5177TIP3   OH215494   3.014   1.202   0.996
 5177TIP3    H115495   2.925   1.180   1.023
 5177TIP3    H215496   3.060   1.117   0.994
 5178TIP3   OH215497   2.096   1.691   4.063
 5178TIP3    H115498   2.020   1.746   4.082
 5178TIP3    H215499   2.059   1.613   4.021
 5179TIP3   OH215500   7.177   1.476   2.143
 5179TIP3    H115501   7.211   1.404   2.196
 5179TIP3    H215502   7.254   1.530   2.124
 5180TIP3   OH215503   3.134   5.056   4.175
 5180TIP3    H115504   3.114   5.055   4.082
 5180TIP3    H215505   3.184   4.976   4.190
 5181TIP3   OH215506   2.174   2.095   0.383
 5181TIP3    H115507   2.184   2.110   0.477
 5181TIP3    H215508   2.113   2.163   0.354
 5182TIP3   OH215509   5.120   1.789   3.927
 5182TIP3    H115510   5.162   1.793   3.841
 5182TIP3    H215511   5.053   1.722   3.918
 5183TIP3   OH215512   2.656   4.098   5.739
 5183TIP3    H115513   2.703   4.027   5.696
 5183TIP3    H215514   2.643   4.163   5.670
 5184TIP3   OH215515   3.129   1.470   0.386
 5184TIP3    H115516   3.127   1.479   0.291
 5184TIP3    H215517   3.148   1.558   0.418
 5185TIP3   OH215518   6.910   5.992   1.175
 5185TIP3    H115519   6.992   6.003   1.223
 5185TIP3    H215520   6.936   5.945   1.095
 5186TIP3   OH215521   6.686   3.175   3.664
 5186TIP3    H115522   6.720   3.097   3.709
 5186TIP3    H215523   6.737   3.179   3.583
 5187TIP3   OH215524   6.954   4.521   4.320
 5187TIP3    H115525   6.916   4.436   4.342
 5187TIP3    H215526   6.937   4.531   4.226
 5188TIP3   OH215527   1.155   1.827   5.814
 5188TIP3    H115528   1.097   1.783   5.877
 5188TIP3    H215529   1.243   1.803   5.841
 5189TIP3   OH215530   5.530   4.422   5.202
 5189TIP3    H115531   5.437   4.401   5.196
 5189TIP3    H215532   5.542   4.451   5.292
 5190TIP3   OH215533   6.538   2.293   3.978
 5190TIP3    H115534   6.511   2.249   4.059
 5190TIP3    H215535   6.456   2.309   3.932
 5191TIP3   OH215536   0.385   1.978   0.512
 5191TIP3    H115537   0.311   1.944   0.461
 5191TIP3    H215538   0.352   1.987   0.601
 5192TIP3   OH215539   6.929   5.970   3.025
 5192TIP3    H115540   6.884   5.947   3.106
 5192TIP3    H215541   6.987   6.042   3.048
 5193TIP3   OH215542   1.243   2.004   5.057
 5193TIP3    H115543   1.214   2.055   5.132
 5193TIP3    H215544   1.166   1.954   5.030
 5194TIP3   OH215545   5.432   3.075   5.762
 5194TIP3    H115546   5.337   3.086   5.771
 5194TIP3    H215547   5.453   3.121   5.681
 5195TIP3   OH215548   0.033   3.025   2.414
 5195TIP3    H115549  -0.044   2.999   2.464
 5195TIP3    H215550   0.000   3.038   2.325
 5196TIP3   OH215551   1.724   0.030   3.038
 5196TIP3    H115552   1.638  -0.010   3.022
 5196TIP3    H215553   1.721   0.114   2.991
 5197TIP3   OH215554   6.725   3.165   4.232
 5197TIP3    H115555   6.706   3.246   4.279
 5197TIP3    H215556   6.792   3.121   4.284
 5198TIP3   OH215557  -0.038   1.538   2.769
 5198TIP3    H115558   0.037   1.501   2.817
 5198TIP3    H215559  -0.016   1.525   2.677
 5199TIP3   OH215560   5.709   1.582   4.481
 5199TIP3    H115561   5.628   1.545   4.446
 5199TIP3    H215562   5.715   1.546   4.570
 5200TIP3   OH215563   2.537   1.707   5.770
 5200TIP3    H115564   2.524   1.636   5.833
 5200TIP3    H215565   2.632   1.708   5.756
 5201TIP3   OH215566   4.355   2.828   0.475
 5201TIP3    H115567   4.384   2.756   0.530
 5201TIP3    H215568   4.425   2.838   0.410
 5202TIP3   OH215569   5.336   4.157   5.440
 5202TIP3    H115570   5.374   4.218   5.503
 5202TIP3    H215571   5.258   4.123   5.484
 5203TIP3   OH215572   0.020   4.196   3.479
 5203TIP3    H115573   0.077   4.132   3.522
 5203TIP3    H215574   0.076   4.273   3.466
 5204TIP3   OH215575   6.918   0.165   5.685
 5204TIP3    H115576   6.942   0.072   5.687
 5204TIP3    H215577   6.948   0.199   5.769
 5205TIP3   OH215578   6.168   3.589   5.151
 5205TIP3    H115579   6.097   3.636   5.108
 5205TIP3    H215580   6.178   3.633   5.235
 5206TIP3   OH215581   2.075   0.339   3.399
 5206TIP3    H115582   1.996   0.285   3.386
 5206TIP3    H215583   2.105   0.358   3.310
 5207TIP3   OH215584   1.131   5.858   0.227
 5207TIP3    H115585   1.157   5.779   0.273
 5207TIP3    H215586   1.173   5.851   0.141
 5208TIP3   OH215587   2.528   1.616   0.215
 5208TIP3    H115588   2.503   1.540   0.267
 5208TIP3    H215589   2.614   1.594   0.180
 5209TIP3   OH215590   1.995   6.618  -0.017
 5209TIP3    H115591   2.038   6.694  -0.058
 5209TIP3    H215592   1.908   6.616  -0.057
 5210TIP3   OH215593   5.941   0.013   0.415
 5210TIP3    H115594   5.914   0.038   0.326
 5210TIP3    H215595   6.011   0.074   0.438
 5211TIP3   OH215596   3.242   5.832   3.205
 5211TIP3    H115597   3.299   5.812   3.130
 5211TIP3    H215598   3.272   5.772   3.274
 5212TIP3   OH215599   2.759   4.348   2.779
 5212TIP3    H115600   2.703   4.287   2.730
 5212TIP3    H215601   2.755   4.430   2.730
 5213TIP3   OH215602   1.592   3.551   5.403
 5213TIP3    H115603   1.517   3.493   5.418
 5213TIP3    H215604   1.669   3.495   5.416
 5214TIP3   OH215605   0.118   4.805   2.825
 5214TIP3    H115606   0.148   4.714   2.826
 5214TIP3    H215607   0.111   4.829   2.917
 5215TIP3   OH215608   0.396   6.174   4.625
 5215TIP3    H115609   0.437   6.259   4.607
 5215TIP3    H215610   0.315   6.196   4.671
 5216TIP3   OH215611   1.210   4.992   3.983
 5216TIP3    H115612   1.177   4.942   3.909
 5216TIP3    H215613   1.296   4.955   4.001
 5217TIP3   OH215614   1.638   3.905   3.023
 5217TIP3    H115615   1.683   3.867   3.098
 5217TIP3    H215616   1.660   3.998   3.026
 5218TIP3   OH215617   6.499   6.361   5.526
 5218TIP3    H115618   6.415   6.394   5.557
 5218TIP3    H215619   6.553   6.355   5.605
 5219TIP3   OH215620   4.585   6.149   0.741
 5219TIP3    H115621   4.558   6.070   0.695
 5219TIP3    H215622   4.590   6.123   0.833
 5220TIP3   OH215623   6.651   4.231   5.710
 5220TIP3    H115624   6.618   4.253   5.623
 5220TIP3    H215625   6.744   4.216   5.698
 5221TIP3   OH215626   6.851   3.920   0.988
 5221TIP3    H115627   6.819   3.989   1.047
 5221TIP3    H215628   6.853   3.962   0.902
 5222TIP3   OH215629   0.470   6.471   1.607
 5222TIP3    H115630   0.526   6.394   1.610
 5222TIP3    H215631   0.391   6.442   1.562
 5223TIP3   OH215632   4.773   5.243   2.560
 5223TIP3    H115633   4.699   5.260   2.618
 5223TIP3    H215634   4.838   5.199   2.615
 5224TIP3   OH215635   2.972   0.613   3.330
 5224TIP3    H115636   2.972   0.647   3.420
 5224TIP3    H215637   2.881   0.593   3.312
 5225TIP3   OH215638   4.510   0.841   4.018
 5225TIP3    H115639   4.562   0.774   3.972
 5225TIP3    H215640   4.462   0.792   4.085
 5226TIP3   OH215641   4.014   0.516   1.276
 5226TIP3    H115642   3.969   0.439   1.310
 5226TIP3    H215643   4.032   0.569   1.353
 5227TIP3   OH215644   4.288   2.459   3.290
 5227TIP3    H115645   4.247   2.530   3.240
 5227TIP3    H215646   4.373   2.446   3.248
 5228TIP3   OH215647   4.155   3.574   0.677
 5228TIP3    H115648   4.119   3.576   0.766
 5228TIP3    H215649   4.107   3.503   0.633
 5229TIP3   OH215650   6.398   6.688   2.720
 5229TIP3    H115651   6.465   6.620   2.714
 5229TIP3    H215652   6.386   6.700   2.815
 5230TIP3   OH215653   4.517   1.728   1.447
 5230TIP3    H115654   4.549   1.785   1.517
 5230TIP3    H215655   4.475   1.788   1.385
 5231TIP3   OH215656   1.618   2.101   1.679
 5231TIP3    H115657   1.608   2.024   1.624
 5231TIP3    H215658   1.531   2.115   1.718
 5232TIP3   OH215659   4.689   6.197   4.142
 5232TIP3    H115660   4.755   6.142   4.099
 5232TIP3    H215661   4.709   6.190   4.235
 5233TIP3   OH215662   3.390   2.007   2.791
 5233TIP3    H115663   3.479   2.039   2.804
 5233TIP3    H215664   3.347   2.075   2.739
 5234TIP3   OH215665   5.707   0.369   1.771
 5234TIP3    H115666   5.790   0.415   1.784
 5234TIP3    H215667   5.679   0.394   1.683
 5235TIP3   OH215668   5.272   1.386   0.132
 5235TIP3    H115669   5.226   1.460   0.171
 5235TIP3    H215670   5.237   1.381   0.043
 5236TIP3   OH215671   2.095   0.646   3.417
 5236TIP3    H115672   2.179   0.692   3.419
 5236TIP3    H215673   2.118   0.555   3.436
 5237TIP3   OH215674   6.863   2.388   1.738
 5237TIP3    H115675   6.826   2.368   1.823
 5237TIP3    H215676   6.951   2.350   1.740
 5238TIP3   OH215677   0.997   5.119   3.098
 5238TIP3    H115678   1.090   5.097   3.092
 5238TIP3    H215679   0.956   5.041   3.134
 5239TIP3   OH215680   3.996   4.662   5.395
 5239TIP3    H115681   4.074   4.713   5.415
 5239TIP3    H215682   4.027   4.593   5.336
 5240TIP3   OH215683   6.372   3.313   2.811
 5240TIP3    H115684   6.444   3.371   2.787
 5240TIP3    H215685   6.364   3.321   2.906
 5241TIP3   OH215686   6.044   2.590   2.361
 5241TIP3    H115687   6.015   2.680   2.350
 5241TIP3    H215688   5.972   2.537   2.327
 5242TIP3   OH215689   4.977   2.366   1.881
 5242TIP3    H115690   5.034   2.365   1.804
 5242TIP3    H215691   4.966   2.274   1.905
 5243TIP3   OH215692   6.454   1.848   0.019
 5243TIP3    H115693   6.444   1.867  -0.074
 5243TIP3    H215694   6.418   1.925   0.063
 5244TIP3   OH215695   2.763   0.278   0.987
 5244TIP3    H115696   2.813   0.204   1.021
 5244TIP3    H215697   2.680   0.275   1.033
 5245TIP3   OH215698   3.101   2.810   1.044
 5245TIP3    H115699   3.065   2.896   1.025
 5245TIP3    H215700   3.025   2.752   1.050
 5246TIP3   OH215701   2.910   4.671   2.865
 5246TIP3    H115702   2.846   4.686   2.796
 5246TIP3    H215703   2.916   4.755   2.911
 5247TIP3   OH215704   1.192   6.638   5.181
 5247TIP3    H115705   1.160   6.722   5.212
 5247TIP3    H215706   1.282   6.632   5.214
 5248TIP3   OH215707   3.766   5.059   0.374
 5248TIP3    H115708   3.736   5.015   0.295
 5248TIP3    H215709   3.685   5.084   0.420
 5249TIP3   OH215710   2.964   6.585   4.380
 5249TIP3    H115711   3.038   6.561   4.436
 5249TIP3    H215712   2.897   6.616   4.441
 5250TIP3   OH215713   2.294   3.251   0.217
 5250TIP3    H115714   2.271   3.332   0.263
 5250TIP3    H215715   2.252   3.182   0.268
 5251TIP3   OH215716   4.850   1.237   5.806
 5251TIP3    H115717   4.934   1.244   5.761
 5251TIP3    H215718   4.787   1.214   5.737
 5252TIP3   OH215719   5.975   5.751  -0.008
 5252TIP3    H115720   6.036   5.757  -0.082
 5252TIP3    H215721   6.028   5.716   0.064
 5253TIP3   OH215722   1.179   4.030   0.429
 5253TIP3    H115723   1.090   4.058   0.406
 5253TIP3    H215724   1.191   3.948   0.382
 5254TIP3   OH215725   1.789   5.373   5.253
 5254TIP3    H115726   1.739   5.307   5.300
 5254TIP3    H215727   1.862   5.395   5.312
 5255TIP3   OH215728   6.102   6.755   3.195
 5255TIP3    H115729   6.053   6.829   3.231
 5255TIP3    H215730   6.048   6.722   3.124
 5256TIP3   OH215731   1.645   6.835   3.485
 5256TIP3    H115732   1.692   6.832   3.568
 5256TIP3    H215733   1.646   6.744   3.453
 5257TIP3   OH215734   3.546   3.379   1.869
 5257TIP3    H115735   3.478   3.422   1.818
 5257TIP3    H215736   3.521   3.287   1.868
 5258TIP3   OH215737   0.842   1.524   2.844
 5258TIP3    H115738   0.820   1.617   2.847
 5258TIP3    H215739   0.810   1.489   2.927
 5259TIP3   OH215740   5.086   6.127   3.898
 5259TIP3    H115741   5.109   6.115   3.806
 5259TIP3    H215742   5.048   6.214   3.903
 5260TIP3   OH215743   6.372   4.394   1.630
 5260TIP3    H115744   6.311   4.417   1.700
 5260TIP3    H215745   6.446   4.353   1.674
 5261TIP3   OH215746   6.232   6.645   5.434
 5261TIP3    H115747   6.321   6.678   5.445
 5261TIP3    H215748   6.176   6.722   5.443
 5262TIP3   OH215749   5.280   4.385   1.015
 5262TIP3    H115750   5.228   4.344   1.084
 5262TIP3    H215751   5.228   4.461   0.988
 5263TIP3   OH215752   1.536   3.391   0.844
 5263TIP3    H115753   1.528   3.469   0.789
 5263TIP3    H215754   1.448   3.352   0.842
 5264TIP3   OH215755   3.493   0.313   2.521
 5264TIP3    H115756   3.416   0.366   2.503
 5264TIP3    H215757   3.476   0.230   2.477
 5265TIP3   OH215758   6.684   0.090   2.590
 5265TIP3    H115759   6.667   0.084   2.496
 5265TIP3    H215760   6.635   0.167   2.618
 5266TIP3   OH215761   1.868   4.646   4.971
 5266TIP3    H115762   1.855   4.641   5.066
 5266TIP3    H215763   1.961   4.624   4.959
 5267TIP3   OH215764   4.055   0.253   4.272
 5267TIP3    H115765   4.028   0.238   4.362
 5267TIP3    H215766   4.124   0.318   4.278
 5268TIP3   OH215767   1.984   2.060   3.853
 5268TIP3    H115768   1.958   2.145   3.888
 5268TIP3    H215769   1.936   2.053   3.770
 5269TIP3   OH215770   6.378   3.022   1.412
 5269TIP3    H115771   6.427   3.071   1.347
 5269TIP3    H215772   6.288   3.026   1.382
 5270TIP3   OH215773   4.622   2.865   2.033
 5270TIP3    H115774   4.558   2.845   2.101
 5270TIP3    H215775   4.678   2.932   2.071
 5271TIP3   OH215776   5.784   1.096   0.928
 5271TIP3    H115777   5.760   1.110   0.836
 5271TIP3    H215778   5.700   1.103   0.975
 5272TIP3   OH215779   5.553   3.172   2.791
 5272TIP3    H115780   5.553   3.197   2.698
 5272TIP3    H215781   5.479   3.112   2.799
 5273TIP3   OH215782   3.863   4.764   5.707
 5273TIP3    H115783   3.955   4.742   5.695
 5273TIP3    H215784   3.815   4.695   5.661
 5274TIP3   OH215785   0.367   6.609   2.856
 5274TIP3    H115786   0.299   6.569   2.801
 5274TIP3    H215787   0.433   6.639   2.793
 5275TIP3   OH215788   0.523   1.986   1.844
 5275TIP3    H115789   0.439   1.993   1.889
 5275TIP3    H215790   0.502   1.999   1.752
 5276TIP3   OH215791   5.609   3.554   0.323
 5276TIP3    H115792   5.526   3.506   0.320
 5276TIP3    H215793   5.664   3.512   0.256
 5277TIP3   OH215794   3.408   4.253   0.766
 5277TIP3    H115795   3.399   4.341   0.730
 5277TIP3    H215796   3.402   4.265   0.861
 5278TIP3   OH215797   3.628   4.842   4.181
 5278TIP3    H115798   3.706   4.840   4.237
 5278TIP3    H215799   3.616   4.935   4.161
 5279TIP3   OH215800   5.687   1.726   5.124
 5279TIP3    H115801   5.667   1.818   5.139
 5279TIP3    H215802   5.755   1.726   5.057
 5280TIP3   OH215803   3.206   2.481   0.995
 5280TIP3    H115804   3.271   2.526   1.050
 5280TIP3    H215805   3.181   2.404   1.046
 5281TIP3   OH215806   0.499   3.396   0.148
 5281TIP3    H115807   0.588   3.369   0.128
 5281TIP3    H215808   0.465   3.327   0.206
 5282TIP3   OH215809   6.755   0.190   0.841
 5282TIP3    H115810   6.777   0.097   0.830
 5282TIP3    H215811   6.780   0.211   0.931
 5283TIP3   OH215812   1.472   5.024   0.468
 5283TIP3    H115813   1.522   5.103   0.487
 5283TIP3    H215814   1.384   5.055   0.446
 5284TIP3   OH215815   5.720   4.627   1.856
 5284TIP3    H115816   5.793   4.606   1.799
 5284TIP3    H215817   5.760   4.657   1.938
 5285TIP3   OH215818   4.578   1.881   0.372
 5285TIP3    H115819   4.595   1.917   0.285
 5285TIP3    H215820   4.636   1.929   0.430
 5286TIP3   OH215821   4.916   4.122   4.777
 5286TIP3    H115822   4.970   4.062   4.726
 5286TIP3    H215823   4.834   4.074   4.789
 5287TIP3   OH215824   3.752   1.475   4.051
 5287TIP3    H115825   3.702   1.479   4.133
 5287TIP3    H215826   3.821   1.411   4.069
 5288TIP3   OH215827   1.685   4.461   3.684
 5288TIP3    H115828   1.749   4.449   3.613
 5288TIP3    H215829   1.636   4.539   3.658
 5289TIP3   OH215830   1.643   3.167   1.890
 5289TIP3    H115831   1.666   3.256   1.916
 5289TIP3    H215832   1.581   3.138   1.956
 5290TIP3   OH215833   1.254   5.807   5.248
 5290TIP3    H115834   1.203   5.859   5.310
 5290TIP3    H215835   1.345   5.826   5.270
 5291TIP3   OH215836   1.116   2.681   0.400
 5291TIP3    H115837   1.070   2.625   0.337
 5291TIP3    H215838   1.177   2.732   0.346
 5292TIP3   OH215839   3.490   0.961   4.042
 5292TIP3    H115840   3.572   0.971   3.993
 5292TIP3    H215841   3.469   1.049   4.074
 5293TIP3   OH215842   6.201   3.226   5.327
 5293TIP3    H115843   6.219   3.132   5.333
 5293TIP3    H215844   6.228   3.249   5.238
 5294TIP3   OH215845   5.785   3.506   0.537
 5294TIP3    H115846   5.746   3.497   0.451
 5294TIP3    H215847   5.776   3.598   0.559
 5295TIP3   OH215848   4.529   5.655   2.751
 5295TIP3    H115849   4.582   5.594   2.699
 5295TIP3    H215850   4.594   5.705   2.802
 5296TIP3   OH215851   4.760   2.467   3.877
 5296TIP3    H115852   4.683   2.473   3.821
 5296TIP3    H215853   4.804   2.551   3.868
 5297TIP3   OH215854   2.341   1.167   3.331
 5297TIP3    H115855   2.359   1.123   3.248
 5297TIP3    H215856   2.391   1.118   3.396
 5298TIP3   OH215857   1.544   3.658   3.249
 5298TIP3    H115858   1.581   3.633   3.165
 5298TIP3    H215859   1.496   3.739   3.231
 5299TIP3   OH215860   3.063   1.864   5.587
 5299TIP3    H115861   3.048   1.782   5.541
 5299TIP3    H215862   3.146   1.851   5.633
 5300TIP3   OH215863   2.876   0.947   0.825
 5300TIP3    H115864   2.923   0.953   0.742
 5300TIP3    H215865   2.941   0.917   0.888
 5301TIP3   OH215866   5.992   4.048   3.751
 5301TIP3    H115867   6.059   4.095   3.702
 5301TIP3    H215868   5.917   4.108   3.754
 5302TIP3   OH215869   5.394   4.776   2.429
 5302TIP3    H115870   5.348   4.725   2.362
 5302TIP3    H215871   5.378   4.728   2.511
 5303TIP3   OH215872   1.439   4.809   3.895
 5303TIP3    H115873   1.519   4.829   3.944
 5303TIP3    H215874   1.445   4.716   3.875
 5304TIP3   OH215875   4.183   1.319   4.081
 5304TIP3    H115876   4.126   1.298   4.008
 5304TIP3    H215877   4.217   1.406   4.061
 5305TIP3   OH215878   6.237   6.025   1.192
 5305TIP3    H115879   6.301   6.070   1.137
 5305TIP3    H215880   6.258   6.053   1.281
 5306TIP3   OH215881   1.482   0.133   5.595
 5306TIP3    H115882   1.491   0.222   5.631
 5306TIP3    H215883   1.425   0.144   5.519
 5307TIP3   OH215884   6.535   3.857   3.888
 5307TIP3    H115885   6.474   3.784   3.900
 5307TIP3    H215886   6.493   3.912   3.822
 5308TIP3   OH215887   5.467   0.298   5.359
 5308TIP3    H115888   5.515   0.353   5.297
 5308TIP3    H215889   5.520   0.301   5.439
 5309TIP3   OH215890   6.517   6.153   0.243
 5309TIP3    H115891   6.433   6.119   0.210
 5309TIP3    H215892   6.540   6.094   0.315
 5310TIP3   OH215893   6.945   0.754   2.788
 5310TIP3    H115894   6.860   0.755   2.744
 5310TIP3    H215895   6.932   0.697   2.864
 5311TIP3   OH215896   6.899   5.245   5.115
 5311TIP3    H115897   6.940   5.191   5.047
 5311TIP3    H215898   6.972   5.294   5.153
 5312TIP3   OH215899   5.358   0.414   1.232
 5312TIP3    H115900   5.304   0.423   1.153
 5312TIP3    H215901   5.306   0.454   1.302
 5313TIP3   OH215902   0.732   1.539   1.145
 5313TIP3    H115903   0.684   1.457   1.137
 5313TIP3    H215904   0.670   1.599   1.186
 5314TIP3   OH215905   0.924   1.109   4.755
 5314TIP3    H115906   0.929   1.014   4.766
 5314TIP3    H215907   0.831   1.129   4.770
 5315TIP3   OH215908   0.673   5.816   4.215
 5315TIP3    H115909   0.674   5.814   4.310
 5315TIP3    H215910   0.725   5.740   4.188
 5316TIP3   OH215911   3.415   3.489   5.089
 5316TIP3    H115912   3.435   3.580   5.066
 5316TIP3    H215913   3.335   3.469   5.041
 5317TIP3   OH215914   2.957   4.964   4.916
 5317TIP3    H115915   2.865   4.964   4.891
 5317TIP3    H215916   3.002   5.006   4.842
 5318TIP3   OH215917   5.735   0.998   1.771
 5318TIP3    H115918   5.663   0.988   1.833
 5318TIP3    H215919   5.695   0.984   1.686
 5319TIP3   OH215920   2.627   1.443   3.259
 5319TIP3    H115921   2.687   1.513   3.233
 5319TIP3    H215922   2.577   1.422   3.180
 5320TIP3   OH215923   2.214   4.992   3.606
 5320TIP3    H115924   2.242   5.079   3.637
 5320TIP3    H215925   2.231   4.994   3.512
 5321TIP3   OH215926   0.985   1.581   0.958
 5321TIP3    H115927   1.068   1.543   0.988
 5321TIP3    H215928   0.932   1.588   1.037
 5322TIP3   OH215929   3.086   1.399   5.550
 5322TIP3    H115930   3.160   1.367   5.500
 5322TIP3    H215931   3.040   1.459   5.491
 5323TIP3   OH215932   5.231   0.246   4.737
 5323TIP3    H115933   5.232   0.307   4.663
 5323TIP3    H215934   5.321   0.248   4.770
 5324TIP3   OH215935   6.739   2.306   0.615
 5324TIP3    H115936   6.694   2.263   0.542
 5324TIP3    H215937   6.807   2.244   0.642
 5325TIP3   OH215938   6.151   2.162   2.992
 5325TIP3    H115939   6.140   2.160   3.087
 5325TIP3    H215940   6.078   2.109   2.959
 5326TIP3   OH215941   2.708   3.921   1.355
 5326TIP3    H115942   2.726   3.896   1.265
 5326TIP3    H215943   2.763   3.998   1.370
 5327TIP3   OH215944   0.528   0.056   4.595
 5327TIP3    H115945   0.547   0.149   4.609
 5327TIP3    H215946   0.474   0.031   4.670
 5328TIP3   OH215947   6.736   5.796   0.906
 5328TIP3    H115948   6.690   5.879   0.897
 5328TIP3    H215949   6.826   5.820   0.928
 5329TIP3   OH215950   4.306   0.308   3.151
 5329TIP3    H115951   4.219   0.319   3.189
 5329TIP3    H215952   4.346   0.239   3.204
 5330TIP3   OH215953   6.620   5.381   3.511
 5330TIP3    H115954   6.597   5.331   3.590
 5330TIP3    H215955   6.706   5.346   3.485
 5331TIP3   OH215956   4.580   2.892   2.463
 5331TIP3    H115957   4.634   2.885   2.541
 5331TIP3    H215958   4.643   2.890   2.390
 5332TIP3   OH215959   1.695   5.277   2.356
 5332TIP3    H115960   1.693   5.348   2.292
 5332TIP3    H215961   1.755   5.213   2.319
 5333TIP3   OH215962   5.238   0.928   5.020
 5333TIP3    H115963   5.313   0.894   5.070
 5333TIP3    H215964   5.271   0.935   4.930
 5334TIP3   OH215965   2.796   6.129   5.135
 5334TIP3    H115966   2.885   6.121   5.169
 5334TIP3    H215967   2.780   6.047   5.089
 5335TIP3   OH215968   6.222   2.966   5.257
 5335TIP3    H115969   6.287   2.917   5.206
 5335TIP3    H215970   6.146   2.972   5.199
 5336TIP3   OH215971   3.103   3.599   3.605
 5336TIP3    H115972   3.154   3.645   3.539
 5336TIP3    H215973   3.121   3.645   3.687
 5337TIP3   OH215974   5.755   3.260   3.415
 5337TIP3    H115975   5.713   3.338   3.379
 5337TIP3    H215976   5.742   3.266   3.509
 5338TIP3   OH215977   1.153   3.858   4.310
 5338TIP3    H115978   1.175   3.766   4.294
 5338TIP3    H215979   1.057   3.860   4.311
 5339TIP3   OH215980   1.035   5.956   2.821
 5339TIP3    H115981   1.121   5.988   2.847
 5339TIP3    H215982   1.005   6.018   2.754
 5340TIP3   OH215983   3.073   4.763   5.417
 5340TIP3    H115984   2.982   4.765   5.448
 5340TIP3    H215985   3.090   4.853   5.388
 5341TIP3   OH215986   3.175   1.774   0.884
 5341TIP3    H115987   3.225   1.714   0.939
 5341TIP3    H215988   3.104   1.721   0.849
 5342TIP3   OH215989   4.687   2.103   0.070
 5342TIP3    H115990   4.603   2.058   0.082
 5342TIP3    H215991   4.684   2.137  -0.019
 5343TIP3   OH215992   5.834   2.347   2.077
 5343TIP3    H115993   5.791   2.424   2.114
 5343TIP3    H215994   5.914   2.381   2.037
 5344TIP3   OH215995   6.622   3.376   4.371
 5344TIP3    H115996   6.636   3.453   4.426
 5344TIP3    H215997   6.527   3.360   4.376
 5345TIP3   OH215998   3.344   0.170   3.670
 5345TIP3    H115999   3.250   0.165   3.686
 5345TIP3    H216000   3.363   0.264   3.667
 5346TIP3   OH216001   2.435   5.941   4.683
 5346TIP3    H116002   2.348   5.956   4.645
 5346TIP3    H216003   2.495   5.984   4.622
 5347TIP3   OH216004   2.123   5.321   3.646
 5347TIP3    H116005   2.032   5.333   3.618
 5347TIP3    H216006   2.169   5.396   3.608
 5348TIP3   OH216007   1.927   0.197   0.417
 5348TIP3    H116008   1.920   0.268   0.481
 5348TIP3    H216009   1.863   0.220   0.349
 5349TIP3   OH216010   0.866   5.852   1.208
 5349TIP3    H116011   0.936   5.883   1.265
 5349TIP3    H216012   0.840   5.768   1.246
 5350TIP3   OH216013   0.323   4.942   2.264
 5350TIP3    H116014   0.403   4.892   2.278
 5350TIP3    H216015   0.258   4.901   2.322
 5351TIP3   OH216016   5.797   5.686   3.869
 5351TIP3    H116017   5.801   5.737   3.949
 5351TIP3    H216018   5.704   5.688   3.844
 5352TIP3   OH216019   5.594   6.804   4.522
 5352TIP3    H116020   5.633   6.799   4.435
 5352TIP3    H216021   5.504   6.830   4.507
 5353TIP3   OH216022   4.815   6.005   5.892
 5353TIP3    H116023   4.788   5.914   5.884
 5353TIP3    H216024   4.759   6.053   5.830
 5354TIP3   OH216025   1.132   0.890   2.986
 5354TIP3    H116026   1.061   0.950   3.009
 5354TIP3    H216027   1.154   0.845   3.068
 5355TIP3   OH216028   1.180   1.339   1.194
 5355TIP3    H116029   1.222   1.364   1.111
 5355TIP3    H216030   1.111   1.404   1.207
 5356TIP3   OH216031   2.673   5.911   1.373
 5356TIP3    H116032   2.754   5.953   1.404
 5356TIP3    H216033   2.691   5.888   1.282
 5357TIP3   OH216034   3.097   6.053   2.208
 5357TIP3    H116035   3.159   6.011   2.147
 5357TIP3    H216036   3.098   5.997   2.285
 5358TIP3   OH216037   0.066   4.214   1.214
 5358TIP3    H116038   0.111   4.295   1.237
 5358TIP3    H216039   0.127   4.166   1.158
 5359TIP3   OH216040   1.357   1.674   4.359
 5359TIP3    H116041   1.442   1.636   4.382
 5359TIP3    H216042   1.330   1.723   4.437
 5360TIP3   OH216043   1.866   5.007   1.296
 5360TIP3    H116044   1.854   5.082   1.354
 5360TIP3    H216045   1.910   4.941   1.349
 5361TIP3   OH216046   3.951   0.521   5.004
 5361TIP3    H116047   3.858   0.510   4.985
 5361TIP3    H216048   3.995   0.489   4.925
 5362TIP3   OH216049   4.892   6.723   4.110
 5362TIP3    H116050   4.798   6.742   4.112
 5362TIP3    H216051   4.896   6.628   4.119
 5363TIP3   OH216052   6.993   6.580   1.849
 5363TIP3    H116053   7.070   6.587   1.906
 5363TIP3    H216054   7.019   6.516   1.782
 5364TIP3   OH216055   6.636   0.110   4.393
 5364TIP3    H116056   6.605   0.020   4.408
 5364TIP3    H216057   6.689   0.105   4.314
 5365TIP3   OH216058   4.010   4.624   4.622
 5365TIP3    H116059   3.932   4.679   4.625
 5365TIP3    H216060   3.978   4.540   4.587
 5366TIP3   OH216061   0.898   1.644   4.731
 5366TIP3    H116062   0.809   1.667   4.757
 5366TIP3    H216063   0.891   1.554   4.698
 5367TIP3   OH216064   5.187   3.459   5.757
 5367TIP3    H116065   5.260   3.431   5.812
 5367TIP3    H216066   5.228   3.482   5.674
 5368TIP3   OH216067   5.480   2.580   3.430
 5368TIP3    H116068   5.446   2.512   3.489
 5368TIP3    H216069   5.447   2.555   3.344
 5369TIP3   OH216070   2.731   5.649   3.388
 5369TIP3    H116071   2.643   5.672   3.357
 5369TIP3    H216072   2.749   5.564   3.349
 5370TIP3   OH216073   6.135   0.558   5.415
 5370TIP3    H116074   6.182   0.516   5.488
 5370TIP3    H216075   6.079   0.623   5.458
 5371TIP3   OH216076   3.896   0.164   5.228
 5371TIP3    H116077   3.957   0.092   5.243
 5371TIP3    H216078   3.901   0.179   5.133
 5372TIP3   OH216079   5.796   0.225   3.938
 5372TIP3    H116080   5.770   0.133   3.933
 5372TIP3    H216081   5.716   0.274   3.919
 5373TIP3   OH216082   4.456   1.855   1.995
 5373TIP3    H116083   4.426   1.943   2.017
 5373TIP3    H216084   4.504   1.826   2.072
 5374TIP3   OH216085   1.358   5.336   5.897
 5374TIP3    H116086   1.371   5.331   5.802
 5374TIP3    H216087   1.392   5.254   5.931
 5375TIP3   OH216088   6.878   5.547   2.214
 5375TIP3    H116089   6.922   5.610   2.157
 5375TIP3    H216090   6.842   5.482   2.153
 5376TIP3   OH216091   0.265   1.520   4.540
 5376TIP3    H116092   0.315   1.592   4.578
 5376TIP3    H216093   0.174   1.546   4.548
 5377TIP3   OH216094   7.128   6.414   1.286
 5377TIP3    H116095   7.185   6.344   1.253
 5377TIP3    H216096   7.187   6.471   1.336
 5378TIP3   OH216097   2.689   5.167   1.547
 5378TIP3    H116098   2.643   5.098   1.498
 5378TIP3    H216099   2.640   5.247   1.529
 5379TIP3   OH216100   5.941   2.720   4.174
 5379TIP3    H116101   5.952   2.790   4.109
 5379TIP3    H216102   6.006   2.654   4.148
 5380TIP3   OH216103   6.466   1.551   2.429
 5380TIP3    H116104   6.375   1.564   2.406
 5380TIP3    H216105   6.483   1.459   2.408
 5381TIP3   OH216106   0.160   2.559   5.076
 5381TIP3    H116107   0.253   2.548   5.094
 5381TIP3    H216108   0.129   2.620   5.143
 5382TIP3   OH216109   0.287   0.093   4.076
 5382TIP3    H116110   0.223   0.026   4.103
 5382TIP3    H216111   0.366   0.071   4.125
 5383TIP3   OH216112   1.775   2.198   3.962
 5383TIP3    H116113   1.769   2.288   3.993
 5383TIP3    H216114   1.703   2.190   3.899
 5384TIP3   OH216115   3.151   5.953   0.592
 5384TIP3    H116116   3.185   5.867   0.617
 5384TIP3    H216117   3.083   5.934   0.527
 5385TIP3   OH216118   3.400   4.566   0.920
 5385TIP3    H116119   3.424   4.657   0.942
 5385TIP3    H216120   3.318   4.574   0.872
 5386TIP3   OH216121   5.029   1.706   2.107
 5386TIP3    H116122   5.036   1.799   2.127
 5386TIP3    H216123   5.112   1.669   2.137
 5387TIP3   OH216124   5.390   3.403   4.942
 5387TIP3    H116125   5.344   3.429   4.862
 5387TIP3    H216126   5.437   3.323   4.918
 5388TIP3   OH216127   2.892   3.677   0.999
 5388TIP3    H116128   2.864   3.748   0.941
 5388TIP3    H216129   2.920   3.721   1.079
 5389TIP3   OH216130   1.506   1.413   0.457
 5389TIP3    H116131   1.516   1.328   0.412
 5389TIP3    H216132   1.444   1.461   0.401
 5390TIP3   OH216133   1.583   3.113   4.026
 5390TIP3    H116134   1.582   3.028   3.982
 5390TIP3    H216135   1.589   3.091   4.119
 5391TIP3   OH216136   0.287   0.336   3.962
 5391TIP3    H116137   0.286   0.251   4.006
 5391TIP3    H216138   0.284   0.315   3.869
 5392TIP3   OH216139   5.224   2.880   3.479
 5392TIP3    H116140   5.237   2.959   3.427
 5392TIP3    H216141   5.287   2.888   3.551
 5393TIP3   OH216142   2.820   3.544   3.366
 5393TIP3    H116143   2.855   3.626   3.401
 5393TIP3    H216144   2.861   3.475   3.418
 5394TIP3   OH216145   3.134   3.066   1.895
 5394TIP3    H116146   3.071   3.006   1.857
 5394TIP3    H216147   3.185   3.098   1.821
 5395TIP3   OH216148   1.060   5.884   0.549
 5395TIP3    H116149   1.002   5.960   0.545
 5395TIP3    H216150   1.101   5.889   0.635
 5396TIP3   OH216151   2.118   0.548   1.894
 5396TIP3    H116152   2.130   0.535   1.988
 5396TIP3    H216153   2.104   0.460   1.859
 5397TIP3   OH216154   5.611   2.674   1.101
 5397TIP3    H116155   5.549   2.604   1.084
 5397TIP3    H216156   5.564   2.735   1.157
 5398TIP3   OH216157   1.935   5.156   4.968
 5398TIP3    H116158   1.929   5.108   5.050
 5398TIP3    H216159   1.903   5.095   4.902
 5399TIP3   OH216160   3.692   6.762   2.391
 5399TIP3    H116161   3.606   6.805   2.390
 5399TIP3    H216162   3.740   6.801   2.318
 5400TIP3   OH216163   3.724   0.349   3.839
 5400TIP3    H116164   3.741   0.373   3.929
 5400TIP3    H216165   3.716   0.432   3.792
 5401TIP3   OH216166   0.115   3.477   4.909
 5401TIP3    H116167   0.036   3.437   4.945
 5401TIP3    H216168   0.112   3.568   4.938
 5402TIP3   OH216169   5.249   2.397   0.127
 5402TIP3    H116170   5.253   2.480   0.080
 5402TIP3    H216171   5.235   2.332   0.058
 5403TIP3   OH216172   0.626   6.645   5.484
 5403TIP3    H116173   0.710   6.602   5.474
 5403TIP3    H216174   0.627   6.716   5.420
 5404TIP3   OH216175   1.836   2.144   0.570
 5404TIP3    H116176   1.904   2.163   0.505
 5404TIP3    H216177   1.755   2.171   0.527
 5405TIP3   OH216178   7.151   5.591   3.428
 5405TIP3    H116179   7.139   5.568   3.336
 5405TIP3    H216180   7.082   5.654   3.447
 5406TIP3   OH216181   5.258   5.024   0.911
 5406TIP3    H116182   5.263   5.086   0.839
 5406TIP3    H216183   5.172   5.040   0.951
 5407TIP3   OH216184   2.285   4.668   3.537
 5407TIP3    H116185   2.259   4.617   3.614
 5407TIP3    H216186   2.371   4.703   3.560
 5408TIP3   OH216187   0.110   6.298   1.895
 5408TIP3    H116188   0.095   6.204   1.907
 5408TIP3    H216189   0.081   6.315   1.805
 5409TIP3   OH216190   5.138   5.425   2.634
 5409TIP3    H116191   5.137   5.520   2.624
 5409TIP3    H216192   5.203   5.410   2.703
 5410TIP3   OH216193   2.009   6.469   1.932
 5410TIP3    H116194   2.028   6.399   1.994
 5410TIP3    H216195   1.946   6.525   1.977
 5411TIP3   OH216196   1.434   0.553   3.203
 5411TIP3    H116197   1.508   0.614   3.196
 5411TIP3    H216198   1.362   0.598   3.160
 5412TIP3   OH216199   2.951   2.735   4.261
 5412TIP3    H116200   3.014   2.751   4.190
 5412TIP3    H216201   2.870   2.776   4.232
 5413TIP3   OH216202   7.009   6.092   5.386
 5413TIP3    H116203   7.009   6.166   5.326
 5413TIP3    H216204   6.953   6.120   5.459
 5414TIP3   OH216205   0.006   0.400   2.988
 5414TIP3    H116206   0.063   0.477   2.993
 5414TIP3    H216207   0.031   0.347   3.063
 5415TIP3   OH216208   5.457   5.983   5.809
 5415TIP3    H116209   5.473   5.932   5.729
 5415TIP3    H216210   5.494   6.069   5.789
 5416TIP3   OH216211   1.594   4.031   1.157
 5416TIP3    H116212   1.669   4.087   1.136
 5416TIP3    H216213   1.610   3.949   1.111
 5417TIP3   OH216214   0.908   0.029   2.017
 5417TIP3    H116215   0.823   0.064   1.992
 5417TIP3    H216216   0.922   0.061   2.106
 5418TIP3   OH216217   2.856   4.680   0.864
 5418TIP3    H116218   2.877   4.773   0.866
 5418TIP3    H216219   2.835   4.662   0.772
 5419TIP3   OH216220   1.196   5.580   4.100
 5419TIP3    H116221   1.190   5.671   4.127
 5419TIP3    H216222   1.193   5.530   4.181
 5420TIP3   OH216223   6.802   2.228   3.977
 5420TIP3    H116224   6.720   2.278   3.976
 5420TIP3    H216225   6.808   2.193   4.066
 5421TIP3   OH216226   1.901   4.624   1.580
 5421TIP3    H116227   1.942   4.702   1.543
 5421TIP3    H216228   1.893   4.563   1.506
 5422TIP3   OH216229   6.750   2.912   3.400
 5422TIP3    H116230   6.819   2.867   3.449
 5422TIP3    H216231   6.772   3.005   3.407
 5423TIP3   OH216232   3.100   5.977   3.474
 5423TIP3    H116233   3.174   6.029   3.504
 5423TIP3    H216234   3.126   5.945   3.388
 5424TIP3   OH216235   2.301   1.590   1.776
 5424TIP3    H116236   2.230   1.653   1.761
 5424TIP3    H216237   2.256   1.511   1.806
 5425TIP3   OH216238   4.183   3.584   1.960
 5425TIP3    H116239   4.087   3.584   1.958
 5425TIP3    H216240   4.208   3.635   1.882
 5426TIP3   OH216241   7.130   1.278   1.087
 5426TIP3    H116242   7.157   1.365   1.058
 5426TIP3    H216243   7.042   1.291   1.122
 5427TIP3   OH216244   2.745   2.581   2.383
 5427TIP3    H116245   2.826   2.608   2.427
 5427TIP3    H216246   2.741   2.634   2.304
 5428TIP3   OH216247   2.265   1.373   3.474
 5428TIP3    H116248   2.286   1.291   3.430
 5428TIP3    H216249   2.239   1.432   3.403
 5429TIP3   OH216250   5.374   1.921   2.523
 5429TIP3    H116251   5.388   1.838   2.567
 5429TIP3    H216252   5.279   1.925   2.510
 5430TIP3   OH216253   3.031   0.500   5.344
 5430TIP3    H116254   3.057   0.412   5.370
 5430TIP3    H216255   2.935   0.500   5.352
 5431TIP3   OH216256   5.633   4.002   0.642
 5431TIP3    H116257   5.567   3.995   0.712
 5431TIP3    H216258   5.585   4.034   0.567
 5432TIP3   OH216259   2.798   2.956   3.991
 5432TIP3    H116260   2.816   3.018   3.920
 5432TIP3    H216261   2.874   2.897   3.991
 5433TIP3   OH216262   6.040   4.476   2.066
 5433TIP3    H116263   5.963   4.532   2.059
 5433TIP3    H216264   6.032   4.435   2.153
 5434TIP3   OH216265   5.474   4.440   3.246
 5434TIP3    H116266   5.434   4.384   3.313
 5434TIP3    H216267   5.402   4.494   3.214
 5435TIP3   OH216268   5.571   5.903   4.287
 5435TIP3    H116269   5.538   5.884   4.375
 5435TIP3    H216270   5.493   5.925   4.236
 5436TIP3   OH216271   0.534   2.252   0.654
 5436TIP3    H116272   0.546   2.311   0.580
 5436TIP3    H216273   0.501   2.171   0.616
 5437TIP3   OH216274   7.028   0.742   3.586
 5437TIP3    H116275   7.118   0.731   3.619
 5437TIP3    H216276   6.984   0.793   3.653
 5438TIP3   OH216277   1.573   4.852   0.669
 5438TIP3    H116278   1.543   4.905   0.595
 5438TIP3    H216279   1.556   4.907   0.746
 5439TIP3   OH216280   2.384   3.323   3.687
 5439TIP3    H116281   2.340   3.284   3.763
 5439TIP3    H216282   2.435   3.251   3.649
 5440TIP3   OH216283   5.273   1.558   2.170
 5440TIP3    H116284   5.228   1.497   2.111
 5440TIP3    H216285   5.323   1.502   2.229
 5441TIP3   OH216286   6.385   6.306   1.020
 5441TIP3    H116287   6.481   6.309   1.028
 5441TIP3    H216288   6.370   6.275   0.931
 5442TIP3   OH216289   0.141   3.024   3.159
 5442TIP3    H116290   0.069   2.963   3.144
 5442TIP3    H216291   0.110   3.083   3.227
 5443TIP3   OH216292   0.126   6.695   4.833
 5443TIP3    H116293   0.123   6.633   4.906
 5443TIP3    H216294   0.042   6.686   4.789
 5444TIP3   OH216295   5.667   1.355   3.453
 5444TIP3    H116296   5.729   1.371   3.524
 5444TIP3    H216297   5.611   1.432   3.452
 5445TIP3   OH216298   2.578   5.306   1.195
 5445TIP3    H116299   2.535   5.366   1.133
 5445TIP3    H216300   2.671   5.320   1.180
 5446TIP3   OH216301   6.762   0.315   1.763
 5446TIP3    H116302   6.735   0.274   1.680
 5446TIP3    H216303   6.855   0.333   1.752
 5447TIP3   OH216304   4.000   5.134   3.661
 5447TIP3    H116305   3.973   5.102   3.575
 5447TIP3    H216306   3.962   5.072   3.723
 5448TIP3   OH216307   6.046   3.417   4.466
 5448TIP3    H116308   6.127   3.437   4.420
 5448TIP3    H216309   6.073   3.400   4.557
 5449TIP3   OH216310   2.800   0.053   0.596
 5449TIP3    H116311   2.825   0.142   0.618
 5449TIP3    H216312   2.882   0.003   0.601
 5450TIP3   OH216313   0.703   1.791   4.840
 5450TIP3    H116314   0.611   1.766   4.844
 5450TIP3    H216315   0.702   1.875   4.794
 5451TIP3   OH216316   4.158   4.381   1.753
 5451TIP3    H116317   4.096   4.336   1.810
 5451TIP3    H216318   4.189   4.314   1.692
 5452TIP3   OH216319   2.904   6.772   2.077
 5452TIP3    H116320   2.855   6.716   2.018
 5452TIP3    H216321   2.838   6.831   2.115
 5453TIP3   OH216322   0.797   5.518   1.666
 5453TIP3    H116323   0.706   5.547   1.675
 5453TIP3    H216324   0.800   5.436   1.714
 5454TIP3   OH216325   3.588   6.350   1.013
 5454TIP3    H116326   3.611   6.305   0.932
 5454TIP3    H216327   3.536   6.287   1.062
 5455TIP3   OH216328   2.785   5.356   2.830
 5455TIP3    H116329   2.820   5.271   2.858
 5455TIP3    H216330   2.863   5.407   2.807
 5456TIP3   OH216331   3.919   0.292   3.657
 5456TIP3    H116332   3.853   0.316   3.722
 5456TIP3    H216333   3.870   0.249   3.587
 5457TIP3   OH216334   4.124   5.530   3.575
 5457TIP3    H116335   4.164   5.449   3.542
 5457TIP3    H216336   4.195   5.575   3.621
 5458TIP3   OH216337   6.696   4.634   4.028
 5458TIP3    H116338   6.748   4.689   4.087
 5458TIP3    H216339   6.687   4.551   4.075
 5459TIP3   OH216340   6.764   0.140   4.136
 5459TIP3    H116341   6.843   0.168   4.090
 5459TIP3    H216342   6.703   0.113   4.067
 5460TIP3   OH216343   3.352   4.962   5.539
 5460TIP3    H116344   3.274   4.991   5.492
 5460TIP3    H216345   3.324   4.955   5.630
 5461TIP3   OH216346   5.302   3.315   1.079
 5461TIP3    H116347   5.268   3.400   1.051
 5461TIP3    H216348   5.384   3.305   1.030
 5462TIP3   OH216349   1.841   4.149   3.560
 5462TIP3    H116350   1.886   4.226   3.594
 5462TIP3    H216351   1.874   4.140   3.470
 5463TIP3   OH216352   1.084   1.106   5.383
 5463TIP3    H116353   1.028   1.040   5.425
 5463TIP3    H216354   1.031   1.138   5.309
 5464TIP3   OH216355   5.124   2.507   4.947
 5464TIP3    H116356   5.112   2.412   4.945
 5464TIP3    H216357   5.174   2.523   5.027
 5465TIP3   OH216358   2.126   1.927   4.680
 5465TIP3    H116359   2.053   1.923   4.742
 5465TIP3    H216360   2.190   1.983   4.722
 5466TIP3   OH216361   7.004   2.896   4.680
 5466TIP3    H116362   7.019   2.954   4.755
 5466TIP3    H216363   6.980   2.954   4.608
 5467TIP3   OH216364   1.570   5.678   2.335
 5467TIP3    H116365   1.644   5.628   2.301
 5467TIP3    H216366   1.546   5.736   2.262
 5468TIP3   OH216367   3.030   5.471   2.278
 5468TIP3    H116368   3.053   5.407   2.346
 5468TIP3    H216369   2.970   5.425   2.220
 5469TIP3   OH216370   3.166   0.467   5.102
 5469TIP3    H116371   3.119   0.389   5.072
 5469TIP3    H216372   3.131   0.484   5.189
 5470TIP3   OH216373   4.125   1.457   4.543
 5470TIP3    H116374   4.196   1.397   4.567
 5470TIP3    H216375   4.098   1.496   4.626
 5471TIP3   OH216376   2.234   5.221   2.101
 5471TIP3    H116377   2.263   5.178   2.181
 5471TIP3    H216378   2.314   5.238   2.052
 5472TIP3   OH216379   4.784   0.962   2.933
 5472TIP3    H116380   4.710   0.984   2.989
 5472TIP3    H216381   4.819   1.047   2.905
 5473TIP3   OH216382   0.076   3.741   2.889
 5473TIP3    H116383   0.066   3.786   2.973
 5473TIP3    H216384   0.170   3.738   2.874
 5474TIP3   OH216385   2.446   0.603   0.747
 5474TIP3    H116386   2.471   0.686   0.788
 5474TIP3    H216387   2.487   0.606   0.661
 5475TIP3   OH216388   2.941   2.153   2.556
 5475TIP3    H116389   2.951   2.182   2.465
 5475TIP3    H216390   2.928   2.058   2.549
 5476TIP3   OH216391   4.558   5.557   5.412
 5476TIP3    H116392   4.604   5.547   5.496
 5476TIP3    H216393   4.503   5.635   5.424
 5477TIP3   OH216394   2.367   2.921   4.377
 5477TIP3    H116395   2.448   2.972   4.367
 5477TIP3    H216396   2.298   2.980   4.346
 5478TIP3   OH216397   5.679   0.714   4.684
 5478TIP3    H116398   5.637   0.647   4.738
 5478TIP3    H216399   5.674   0.793   4.737
 5479TIP3   OH216400   3.437   0.658   0.271
 5479TIP3    H116401   3.366   0.716   0.243
 5479TIP3    H216402   3.479   0.705   0.342
 5480TIP3   OH216403   6.346   4.468   3.778
 5480TIP3    H116404   6.316   4.478   3.868
 5480TIP3    H216405   6.432   4.426   3.785
 5481TIP3   OH216406   6.400   2.056   0.707
 5481TIP3    H116407   6.367   2.108   0.633
 5481TIP3    H216408   6.321   2.020   0.748
 5482TIP3   OH216409   2.916   5.594   5.177
 5482TIP3    H116410   2.843   5.581   5.116
 5482TIP3    H216411   2.970   5.516   5.167
 5483TIP3   OH216412   3.065   3.873   4.858
 5483TIP3    H116413   3.098   3.896   4.771
 5483TIP3    H216414   3.113   3.930   4.918
 5484TIP3   OH216415   6.152   3.860   3.885
 5484TIP3    H116416   6.143   3.783   3.830
 5484TIP3    H216417   6.109   3.930   3.836
 5485TIP3   OH216418   2.079   5.957   0.729
 5485TIP3    H116419   2.136   6.032   0.743
 5485TIP3    H216420   1.995   5.995   0.703
 5486TIP3   OH216421   4.599   5.629   5.142
 5486TIP3    H116422   4.567   5.575   5.214
 5486TIP3    H216423   4.583   5.576   5.063
 5487TIP3   OH216424   7.061   2.120   4.209
 5487TIP3    H116425   7.012   2.110   4.290
 5487TIP3    H216426   7.071   2.215   4.199
 5488TIP3   OH216427   6.888   1.000   0.362
 5488TIP3    H116428   6.868   1.093   0.354
 5488TIP3    H216429   6.803   0.956   0.351
 5489TIP3   OH216430   6.373   5.439   5.791
 5489TIP3    H116431   6.409   5.453   5.703
 5489TIP3    H216432   6.444   5.396   5.839
 5490TIP3   OH216433   3.345   3.137   4.087
 5490TIP3    H116434   3.396   3.080   4.144
 5490TIP3    H216435   3.254   3.119   4.111
 5491TIP3   OH216436   1.313   5.446   3.707
 5491TIP3    H116437   1.366   5.478   3.634
 5491TIP3    H216438   1.367   5.463   3.785
 5492TIP3   OH216439   6.754   5.299   4.047
 5492TIP3    H116440   6.784   5.208   4.054
 5492TIP3    H216441   6.659   5.294   4.061
 5493TIP3   OH216442   5.566   2.697   2.109
 5493TIP3    H116443   5.649   2.706   2.063
 5493TIP3    H216444   5.550   2.784   2.146
 5494TIP3   OH216445   6.202   2.644   0.248
 5494TIP3    H116446   6.177   2.646   0.340
 5494TIP3    H216447   6.136   2.589   0.206
 5495TIP3   OH216448   3.680   0.409   5.529
 5495TIP3    H116449   3.590   0.425   5.560
 5495TIP3    H216450   3.688   0.314   5.531
 5496TIP3   OH216451   3.874   1.021   0.129
 5496TIP3    H116452   3.932   1.080   0.081
 5496TIP3    H216453   3.927   0.992   0.203
 5497TIP3   OH216454   4.693   6.357   0.946
 5497TIP3    H116455   4.601   6.358   0.974
 5497TIP3    H216456   4.697   6.288   0.880
 5498TIP3   OH216457   5.232   0.429   4.249
 5498TIP3    H116458   5.251   0.335   4.247
 5498TIP3    H216459   5.305   0.469   4.201
 5499TIP3   OH216460   0.122   6.576   1.369
 5499TIP3    H116461   0.160   6.522   1.439
 5499TIP3    H216462   0.196   6.595   1.312
 5500TIP3   OH216463   4.660   5.271   0.493
 5500TIP3    H116464   4.610   5.308   0.565
 5500TIP3    H216465   4.646   5.332   0.420
 5501TIP3   OH216466   1.105   0.167   1.608
 5501TIP3    H116467   1.049   0.185   1.683
 5501TIP3    H216468   1.156   0.091   1.634
 5502TIP3   OH216469   5.882   0.465   4.890
 5502TIP3    H116470   5.964   0.514   4.886
 5502TIP3    H216471   5.817   0.530   4.919
 5503TIP3   OH216472   3.687   0.261   1.923
 5503TIP3    H116473   3.595   0.266   1.949
 5503TIP3    H216474   3.735   0.307   1.992
 5504TIP3   OH216475   4.328   3.256   2.955
 5504TIP3    H116476   4.373   3.174   2.936
 5504TIP3    H216477   4.307   3.251   3.049
 5505TIP3   OH216478   5.012   6.600   4.428
 5505TIP3    H116479   4.927   6.642   4.442
 5505TIP3    H216480   4.993   6.524   4.372
 5506TIP3   OH216481   1.344   5.434   2.900
 5506TIP3    H116482   1.306   5.483   2.972
 5506TIP3    H216483   1.375   5.353   2.939
 5507TIP3   OH216484   6.949   4.223   3.532
 5507TIP3    H116485   7.044   4.232   3.522
 5507TIP3    H216486   6.937   4.172   3.612
 5508TIP3   OH216487   0.830   4.768   3.924
 5508TIP3    H116488   0.780   4.759   4.005
 5508TIP3    H216489   0.840   4.678   3.892
 5509TIP3   OH216490   7.162   0.600   2.385
 5509TIP3    H116491   7.201   0.596   2.473
 5509TIP3    H216492   7.118   0.684   2.382
 5510TIP3   OH216493   6.976   3.756   1.258
 5510TIP3    H116494   6.912   3.751   1.329
 5510TIP3    H216495   6.945   3.826   1.202
 5511TIP3   OH216496   0.482   6.653   1.407
 5511TIP3    H116497   0.416   6.709   1.448
 5511TIP3    H216498   0.490   6.578   1.466
 5512TIP3   OH216499   0.420   3.429   4.389
 5512TIP3    H116500   0.340   3.376   4.395
 5512TIP3    H216501   0.491   3.365   4.391
 5513TIP3   OH216502   3.433   5.407   0.997
 5513TIP3    H116503   3.461   5.452   1.076
 5513TIP3    H216504   3.427   5.315   1.023
 5514TIP3   OH216505   6.436   2.913   3.553
 5514TIP3    H116506   6.341   2.913   3.540
 5514TIP3    H216507   6.470   2.953   3.473
 5515TIP3   OH216508   4.425   2.710   2.213
 5515TIP3    H116509   4.455   2.680   2.299
 5515TIP3    H216510   4.402   2.630   2.166
 5516TIP3   OH216511   6.185   0.639   4.171
 5516TIP3    H116512   6.094   0.615   4.151
 5516TIP3    H216513   6.199   0.605   4.259
 5517TIP3   OH216514   6.910   3.442   1.607
 5517TIP3    H116515   6.832   3.407   1.650
 5517TIP3    H216516   6.960   3.365   1.581
 5518TIP3   OH216517   4.003   2.838   1.727
 5518TIP3    H116518   3.922   2.854   1.776
 5518TIP3    H216519   3.986   2.876   1.641
 5519TIP3   OH216520   0.324   3.679   0.835
 5519TIP3    H116521   0.367   3.602   0.798
 5519TIP3    H216522   0.271   3.714   0.764
 5520TIP3   OH216523   1.571   0.988   2.740
 5520TIP3    H116524   1.507   1.005   2.809
 5520TIP3    H216525   1.655   1.006   2.781
 5521TIP3   OH216526   1.732   5.119   2.078
 5521TIP3    H116527   1.646   5.159   2.064
 5521TIP3    H216528   1.792   5.172   2.026
 5522TIP3   OH216529   4.013   1.327   5.628
 5522TIP3    H116530   3.926   1.327   5.589
 5522TIP3    H216531   4.055   1.406   5.593
 5523TIP3   OH216532   6.379   5.986   4.446
 5523TIP3    H116533   6.450   6.039   4.480
 5523TIP3    H216534   6.348   6.032   4.368
 5524TIP3   OH216535   0.381   2.450   5.221
 5524TIP3    H116536   0.466   2.494   5.221
 5524TIP3    H216537   0.399   2.362   5.255
 5525TIP3   OH216538   0.313   5.712   1.102
 5525TIP3    H116539   0.240   5.732   1.161
 5525TIP3    H216540   0.282   5.639   1.050
 5526TIP3   OH216541   6.669   0.326   0.620
 5526TIP3    H116542   6.693   0.304   0.710
 5526TIP3    H216543   6.730   0.276   0.566
 5527TIP3   OH216544   5.163   1.552   4.914
 5527TIP3    H116545   5.179   1.460   4.934
 5527TIP3    H216546   5.086   1.552   4.858
 5528TIP3   OH216547   0.716   0.426   5.716
 5528TIP3    H116548   0.799   0.440   5.670
 5528TIP3    H216549   0.742   0.396   5.803
 5529TIP3   OH216550   3.711   5.405   5.359
 5529TIP3    H116551   3.774   5.355   5.410
 5529TIP3    H216552   3.659   5.339   5.313
 5530TIP3   OH216553   3.028   2.241   3.858
 5530TIP3    H116554   2.971   2.263   3.932
 5530TIP3    H216555   3.011   2.310   3.794
 5531TIP3   OH216556   2.411   6.036   3.820
 5531TIP3    H116557   2.323   6.074   3.824
 5531TIP3    H216558   2.450   6.075   3.743
 5532TIP3   OH216559   7.190   2.610   0.376
 5532TIP3    H116560   7.250   2.607   0.302
 5532TIP3    H216561   7.126   2.678   0.353
 5533TIP3   OH216562   3.918   3.366   3.271
 5533TIP3    H116563   3.834   3.330   3.241
 5533TIP3    H216564   3.901   3.393   3.362
 5534TIP3   OH216565   1.856   4.440   3.484
 5534TIP3    H116566   1.812   4.393   3.414
 5534TIP3    H216567   1.947   4.411   3.479
 5535TIP3   OH216568   5.812   1.680   2.179
 5535TIP3    H116569   5.885   1.624   2.207
 5535TIP3    H216570   5.793   1.650   2.090
 5536TIP3   OH216571   1.423   1.731   5.309
 5536TIP3    H116572   1.373   1.714   5.229
 5536TIP3    H216573   1.377   1.802   5.353
 5537TIP3   OH216574   4.646   3.517   1.995
 5537TIP3    H116575   4.566   3.466   1.978
 5537TIP3    H216576   4.698   3.462   2.052
 5538TIP3   OH216577   3.562   5.684   3.548
 5538TIP3    H116578   3.595   5.762   3.593
 5538TIP3    H216579   3.640   5.644   3.510
 5539TIP3   OH216580   2.556   6.405   3.789
 5539TIP3    H116581   2.637   6.435   3.747
 5539TIP3    H216582   2.586   6.342   3.855
 5540TIP3   OH216583   7.158   5.364   2.617
 5540TIP3    H116584   7.231   5.379   2.558
 5540TIP3    H216585   7.163   5.436   2.680
 5541TIP3   OH216586   5.340   4.627   2.655
 5541TIP3    H116587   5.317   4.534   2.643
 5541TIP3    H216588   5.280   4.658   2.722
 5542TIP3   OH216589   6.395   4.422   3.006
 5542TIP3    H116590   6.350   4.399   3.087
 5542TIP3    H216591   6.485   4.442   3.033
 5543TIP3   OH216592   6.025   1.717   0.280
 5543TIP3    H116593   6.085   1.693   0.210
 5543TIP3    H216594   6.063   1.797   0.317
 5544TIP3   OH216595   5.562   6.432   0.059
 5544TIP3    H116596   5.573   6.354   0.005
 5544TIP3    H216597   5.646   6.479   0.052
 5545TIP3   OH216598   6.335   5.390   5.018
 5545TIP3    H116599   6.353   5.303   5.053
 5545TIP3    H216600   6.390   5.449   5.070
 5546TIP3   OH216601   0.605   5.494   2.748
 5546TIP3    H116602   0.663   5.449   2.810
 5546TIP3    H216603   0.599   5.583   2.781
 5547TIP3   OH216604   2.155   4.638   1.876
 5547TIP3    H116605   2.125   4.639   1.785
 5547TIP3    H216606   2.101   4.704   1.920
 5548TIP3   OH216607   3.633   4.806   0.771
 5548TIP3    H116608   3.661   4.776   0.685
 5548TIP3    H216609   3.656   4.735   0.830
 5549TIP3   OH216610   2.962   3.999   0.021
 5549TIP3    H116611   2.914   4.038  -0.052
 5549TIP3    H216612   2.908   4.016   0.098
 5550TIP3   OH216613   6.438   2.371   5.386
 5550TIP3    H116614   6.515   2.317   5.365
 5550TIP3    H216615   6.364   2.315   5.363
 5551TIP3   OH216616   2.448   2.569   4.180
 5551TIP3    H116617   2.410   2.626   4.113
 5551TIP3    H216618   2.508   2.512   4.132
 5552TIP3   OH216619   5.628   4.529   2.231
 5552TIP3    H116620   5.541   4.552   2.198
 5552TIP3    H216621   5.615   4.446   2.278
 5553TIP3   OH216622   6.110   0.259   2.669
 5553TIP3    H116623   6.049   0.300   2.607
 5553TIP3    H216624   6.101   0.165   2.653
 5554TIP3   OH216625   1.679   4.938   5.405
 5554TIP3    H116626   1.661   4.846   5.425
 5554TIP3    H216627   1.732   4.968   5.478
 5555TIP3   OH216628   0.404  -0.010   5.325
 5555TIP3    H116629   0.487   0.024   5.293
 5555TIP3    H216630   0.414  -0.013   5.420
 5556TIP3   OH216631   1.783   0.513   3.088
 5556TIP3    H116632   1.803   0.439   3.145
 5556TIP3    H216633   1.726   0.569   3.140
 5557TIP3   OH216634   6.966   3.046   0.373
 5557TIP3    H116635   7.059   3.065   0.359
 5557TIP3    H216636   6.964   2.954   0.399
 5558TIP3   OH216637   1.709   2.351   3.662
 5558TIP3    H116638   1.804   2.339   3.667
 5558TIP3    H216639   1.674   2.263   3.647
 5559TIP3   OH216640   1.649   2.862   5.023
 5559TIP3    H116641   1.707   2.902   5.088
 5559TIP3    H216642   1.638   2.930   4.956
 5560TIP3   OH216643   4.904   1.743   1.650
 5560TIP3    H116644   4.968   1.711   1.714
 5560TIP3    H216645   4.821   1.742   1.697
 5561TIP3   OH216646   4.131   4.028   5.621
 5561TIP3    H116647   4.215   4.032   5.666
 5561TIP3    H216648   4.116   3.935   5.605
 5562TIP3   OH216649   3.810   2.739   4.739
 5562TIP3    H116650   3.769   2.656   4.716
 5562TIP3    H216651   3.893   2.714   4.781
 5563TIP3   OH216652   4.681   3.120   2.848
 5563TIP3    H116653   4.604   3.156   2.890
 5563TIP3    H216654   4.667   3.025   2.849
 5564TIP3   OH216655   4.627   4.127   0.160
 5564TIP3    H116656   4.716   4.108   0.188
 5564TIP3    H216657   4.612   4.068   0.086
 5565TIP3   OH216658   1.414   5.203   1.697
 5565TIP3    H116659   1.335   5.181   1.746
 5565TIP3    H216660   1.392   5.185   1.605
 5566TIP3   OH216661   6.136   0.563   4.868
 5566TIP3    H116662   6.150   0.526   4.955
 5566TIP3    H216663   6.195   0.515   4.811
 5567TIP3   OH216664   6.606   2.657   3.413
 5567TIP3    H116665   6.633   2.749   3.409
 5567TIP3    H216666   6.537   2.650   3.346
 5568TIP3   OH216667   5.503   2.895  -0.006
 5568TIP3    H116668   5.477   2.909   0.085
 5568TIP3    H216669   5.528   2.983  -0.037
 5569TIP3   OH216670   2.137   0.236   3.138
 5569TIP3    H116671   2.137   0.153   3.090
 5569TIP3    H216672   2.086   0.295   3.083
 5570TIP3   OH216673   1.774   0.945   5.084
 5570TIP3    H116674   1.685   0.979   5.095
 5570TIP3    H216675   1.828   1.022   5.071
 5571TIP3   OH216676   4.467   3.136   0.360
 5571TIP3    H116677   4.525   3.146   0.436
 5571TIP3    H216678   4.379   3.147   0.395
 5572TIP3   OH216679   1.012   3.355   2.461
 5572TIP3    H116680   0.997   3.281   2.521
 5572TIP3    H216681   0.939   3.350   2.399
 5573TIP3   OH216682   4.121   6.054   0.026
 5573TIP3    H116683   4.122   6.095   0.113
 5573TIP3    H216684   4.053   6.101  -0.022
 5574TIP3   OH216685   1.460   0.475   0.038
 5574TIP3    H116686   1.543   0.510   0.006
 5574TIP3    H216687   1.484   0.394   0.083
 5575TIP3   OH216688   2.017   5.508   2.494
 5575TIP3    H116689   1.968   5.529   2.414
 5575TIP3    H216690   2.076   5.437   2.468
 5576TIP3   OH216691   5.160   5.805   0.729
 5576TIP3    H116692   5.102   5.746   0.680
 5576TIP3    H216693   5.100   5.863   0.776
 5577TIP3   OH216694   4.454   5.578   1.787
 5577TIP3    H116695   4.387   5.568   1.720
 5577TIP3    H216696   4.496   5.662   1.767
 5578TIP3   OH216697   3.992   3.135   2.083
 5578TIP3    H116698   4.068   3.098   2.037
 5578TIP3    H216699   3.940   3.058   2.106
 5579TIP3   OH216700   2.705   3.528   2.085
 5579TIP3    H116701   2.768   3.456   2.073
 5579TIP3    H216702   2.659   3.507   2.166
 5580TIP3   OH216703   3.133   1.672   1.483
 5580TIP3    H116704   3.064   1.689   1.419
 5580TIP3    H216705   3.174   1.592   1.453
 5581TIP3   OH216706   0.338   5.588   0.330
 5581TIP3    H116707   0.388   5.623   0.404
 5581TIP3    H216708   0.373   5.499   0.318
 5582TIP3   OH216709   6.864   3.731   0.493
 5582TIP3    H116710   6.773   3.709   0.475
 5582TIP3    H216711   6.872   3.727   0.588
 5583TIP3   OH216712   2.618   4.238   4.968
 5583TIP3    H116713   2.600   4.288   5.047
 5583TIP3    H216714   2.545   4.260   4.909
 5584TIP3   OH216715   5.976   6.517   2.596
 5584TIP3    H116716   5.924   6.470   2.531
 5584TIP3    H216717   6.042   6.564   2.544
 5585TIP3   OH216718   4.741   3.539   3.634
 5585TIP3    H116719   4.744   3.493   3.718
 5585TIP3    H216720   4.735   3.468   3.569
 5586TIP3   OH216721   0.372   2.179   3.121
 5586TIP3    H116722   0.298   2.158   3.063
 5586TIP3    H216723   0.411   2.094   3.142
 5587TIP3   OH216724   3.464   2.560   2.785
 5587TIP3    H116725   3.494   2.527   2.869
 5587TIP3    H216726   3.536   2.543   2.725
 5588TIP3   OH216727   2.272   1.412   0.988
 5588TIP3    H116728   2.225   1.382   0.910
 5588TIP3    H216729   2.202   1.442   1.047
 5589TIP3   OH216730   3.539   5.361   1.269
 5589TIP3    H116731   3.610   5.424   1.254
 5589TIP3    H216732   3.580   5.289   1.317
 5590TIP3   OH216733   5.123   1.035   0.878
 5590TIP3    H116734   5.177   0.986   0.817
 5590TIP3    H216735   5.081   1.103   0.825
 5591TIP3   OH216736   2.613   5.659   1.524
 5591TIP3    H116737   2.541   5.658   1.587
 5591TIP3    H216738   2.644   5.749   1.524
 5592TIP3   OH216739   2.827   1.584   3.698
 5592TIP3    H116740   2.880   1.643   3.752
 5592TIP3    H216741   2.790   1.521   3.759
 5593TIP3   OH216742   6.845   0.957   4.128
 5593TIP3    H116743   6.868   1.025   4.065
 5593TIP3    H216744   6.902   0.973   4.203
 5594TIP3   OH216745   5.995   6.119   4.145
 5594TIP3    H116746   5.976   6.132   4.238
 5594TIP3    H216747   5.912   6.132   4.100
 5595TIP3   OH216748   1.392   5.732   1.670
 5595TIP3    H116749   1.437   5.654   1.636
 5595TIP3    H216750   1.397   5.796   1.599
 5596TIP3   OH216751   7.113   5.670   4.780
 5596TIP3    H116752   7.025   5.666   4.817
 5596TIP3    H216753   7.171   5.649   4.854
 5597TIP3   OH216754   2.573   4.192   1.205
 5597TIP3    H116755   2.517   4.128   1.162
 5597TIP3    H216756   2.657   4.186   1.159
 5598TIP3   OH216757   0.945   5.747   3.049
 5598TIP3    H116758   1.008   5.819   3.043
 5598TIP3    H216759   0.876   5.781   3.105
 5599TIP3   OH216760   4.856   3.109   2.327
 5599TIP3    H116761   4.857   3.102   2.423
 5599TIP3    H216762   4.946   3.091   2.301
 5600TIP3   OH216763   7.163   0.217   4.602
 5600TIP3    H116764   7.110   0.213   4.522
 5600TIP3    H216765   7.239   0.270   4.578
 5601TIP3   OH216766   0.456   1.553   2.037
 5601TIP3    H116767   0.505   1.519   2.111
 5601TIP3    H216768   0.520   1.601   1.985
 5602TIP3   OH216769   3.212   4.974   4.608
 5602TIP3    H116770   3.212   4.879   4.609
 5602TIP3    H216771   3.122   4.998   4.586
 5603TIP3   OH216772   0.599   2.627   3.339
 5603TIP3    H116773   0.686   2.595   3.313
 5603TIP3    H216774   0.615   2.716   3.370
 5604TIP3   OH216775   5.134   4.911   3.864
 5604TIP3    H116776   5.104   4.874   3.780
 5604TIP3    H216777   5.060   4.897   3.923
 5605TIP3   OH216778   5.846   1.942   4.207
 5605TIP3    H116779   5.918   2.001   4.186
 5605TIP3    H216780   5.888   1.863   4.241
 5606TIP3   OH216781   1.405   0.434   5.367
 5606TIP3    H116782   1.433   0.462   5.454
 5606TIP3    H216783   1.400   0.338   5.374
 5607TIP3   OH216784   1.610   1.667   1.940
 5607TIP3    H116785   1.703   1.655   1.923
 5607TIP3    H216786   1.585   1.592   1.994
 5608TIP3   OH216787   1.767   2.271   1.281
 5608TIP3    H116788   1.672   2.273   1.294
 5608TIP3    H216789   1.783   2.189   1.234
 5609TIP3   OH216790   1.792   6.462   0.249
 5609TIP3    H116791   1.833   6.376   0.259
 5609TIP3    H216792   1.709   6.444   0.204
 5610TIP3   OH216793   1.436   0.143   2.357
 5610TIP3    H116794   1.460   0.058   2.321
 5610TIP3    H216795   1.478   0.207   2.300
 5611TIP3   OH216796   0.543   1.629   2.991
 5611TIP3    H116797   0.572   1.695   2.927
 5611TIP3    H216798   0.602   1.641   3.065
 5612TIP3   OH216799   4.650   6.077   1.609
 5612TIP3    H116800   4.666   6.117   1.695
 5612TIP3    H216801   4.738   6.057   1.576
 5613TIP3   OH216802   2.161   2.166   5.662
 5613TIP3    H116803   2.174   2.093   5.602
 5613TIP3    H216804   2.250   2.196   5.682
 5614TIP3   OH216805   6.176   4.833   2.852
 5614TIP3    H116806   6.181   4.891   2.928
 5614TIP3    H216807   6.233   4.873   2.787
 5615TIP3   OH216808   3.040   6.607   2.272
 5615TIP3    H116809   3.114   6.556   2.306
 5615TIP3    H216810   2.963   6.559   2.303
 5616TIP3   OH216811   6.940   5.292   0.111
 5616TIP3    H116812   6.993   5.366   0.083
 5616TIP3    H216813   6.980   5.216   0.068
 5617TIP3   OH216814   4.896   5.300   0.682
 5617TIP3    H116815   4.967   5.318   0.622
 5617TIP3    H216816   4.819   5.286   0.626
 5618TIP3   OH216817   6.776   2.500   4.880
 5618TIP3    H116818   6.853   2.556   4.875
 5618TIP3    H216819   6.738   2.504   4.792
 5619TIP3   OH216820   7.085   0.949   2.680
 5619TIP3    H116821   7.033   0.876   2.713
 5619TIP3    H216822   7.141   0.973   2.753
 5620TIP3   OH216823   1.401   0.797   3.888
 5620TIP3    H116824   1.359   0.843   3.961
 5620TIP3    H216825   1.458   0.863   3.848
 5621TIP3   OH216826   2.050   3.285   3.590
 5621TIP3    H116827   2.101   3.262   3.667
 5621TIP3    H216828   1.989   3.352   3.620
 5622TIP3   OH216829   5.677   5.593   5.169
 5622TIP3    H116830   5.609   5.539   5.128
 5622TIP3    H216831   5.668   5.679   5.128
 5623TIP3   OH216832   2.733   2.482   4.951
 5623TIP3    H116833   2.781   2.487   5.034
 5623TIP3    H216834   2.790   2.528   4.889
 5624TIP3   OH216835   6.605   3.311   0.892
 5624TIP3    H116836   6.683   3.347   0.849
 5624TIP3    H216837   6.637   3.233   0.937
 5625TIP3   OH216838   0.411   4.687   0.907
 5625TIP3    H116839   0.339   4.701   0.847
 5625TIP3    H216840   0.478   4.749   0.879
 5626TIP3   OH216841   4.719   4.802   4.110
 5626TIP3    H116842   4.720   4.788   4.205
 5626TIP3    H216843   4.626   4.802   4.087
 5627TIP3   OH216844   3.565   2.825   2.414
 5627TIP3    H116845   3.617   2.795   2.488
 5627TIP3    H216846   3.517   2.901   2.446
 5628TIP3   OH216847   2.392   5.343   0.314
 5628TIP3    H116848   2.476   5.324   0.273
 5628TIP3    H216849   2.406   5.326   0.407
 5629TIP3   OH216850   3.289   2.828   3.958
 5629TIP3    H116851   3.335   2.911   3.946
 5629TIP3    H216852   3.357   2.761   3.946
 5630TIP3   OH216853   5.677   2.593   0.223
 5630TIP3    H116854   5.772   2.596   0.238
 5630TIP3    H216855   5.641   2.659   0.282
 5631TIP3   OH216856   6.116   6.536   4.980
 5631TIP3    H116857   6.209   6.555   4.975
 5631TIP3    H216858   6.093   6.505   4.892
 5632TIP3   OH216859   0.929   3.751   4.610
 5632TIP3    H116860   0.889   3.833   4.641
 5632TIP3    H216861   0.918   3.754   4.515
 5633TIP3   OH216862   2.658   2.791   3.749
 5633TIP3    H116863   2.695   2.795   3.661
 5633TIP3    H216864   2.621   2.878   3.763
 5634TIP3   OH216865   5.556   6.277   0.399
 5634TIP3    H116866   5.618   6.287   0.327
 5634TIP3    H216867   5.547   6.182   0.410
 5635TIP3   OH216868   4.013   2.342   1.735
 5635TIP3    H116869   3.986   2.267   1.788
 5635TIP3    H216870   3.997   2.418   1.791
 5636TIP3   OH216871   6.169   2.532   5.483
 5636TIP3    H116872   6.221   2.556   5.406
 5636TIP3    H216873   6.125   2.613   5.507
 5637TIP3   OH216874   4.087   2.014   4.887
 5637TIP3    H116875   4.114   2.098   4.851
 5637TIP3    H216876   4.081   2.029   4.981
 5638TIP3   OH216877   5.534   3.272   3.076
 5638TIP3    H116878   5.439   3.278   3.078
 5638TIP3    H216879   5.555   3.247   2.986
 5639TIP3   OH216880   1.192   2.444   1.163
 5639TIP3    H116881   1.136   2.516   1.194
 5639TIP3    H216882   1.172   2.437   1.070
 5640TIP3   OH216883   6.416   4.736   3.816
 5640TIP3    H116884   6.477   4.759   3.746
 5640TIP3    H216885   6.369   4.659   3.784
 5641TIP3   OH216886   2.136   3.700   2.570
 5641TIP3    H116887   2.151   3.682   2.477
 5641TIP3    H216888   2.217   3.674   2.613
 5642TIP3   OH216889   5.481   4.512   3.587
 5642TIP3    H116890   5.410   4.468   3.541
 5642TIP3    H216891   5.530   4.557   3.518
 5643TIP3   OH216892   0.525   4.558   1.711
 5643TIP3    H116893   0.500   4.485   1.768
 5643TIP3    H216894   0.618   4.572   1.730
 5644TIP3   OH216895   4.655   6.390   5.073
 5644TIP3    H116896   4.717   6.339   5.125
 5644TIP3    H216897   4.584   6.329   5.053
 5645TIP3   OH216898   2.040   4.334   5.653
 5645TIP3    H116899   1.965   4.345   5.594
 5645TIP3    H216900   2.099   4.405   5.630
 5646TIP3   OH216901   3.987   1.171   5.282
 5646TIP3    H116902   4.068   1.148   5.236
 5646TIP3    H216903   3.918   1.149   5.219
 5647TIP3   OH216904   6.718   5.404   2.010
 5647TIP3    H116905   6.689   5.493   1.986
 5647TIP3    H216906   6.681   5.348   1.942
 5648TIP3   OH216907   5.451   5.429   2.054
 5648TIP3    H116908   5.417   5.519   2.057
 5648TIP3    H216909   5.421   5.389   2.135
 5649TIP3   OH216910   0.419   3.745   0.196
 5649TIP3    H116911   0.363   3.812   0.156
 5649TIP3    H216912   0.363   3.701   0.260
 5650TIP3   OH216913   6.238   4.165   2.164
 5650TIP3    H116914   6.254   4.104   2.092
 5650TIP3    H216915   6.323   4.174   2.207
 5651TIP3   OH216916   0.213   6.659   4.471
 5651TIP3    H116917   0.177   6.697   4.391
 5651TIP3    H216918   0.179   6.570   4.473
 5652TIP3   OH216919   6.442   4.250   0.287
 5652TIP3    H116920   6.422   4.239   0.380
 5652TIP3    H216921   6.365   4.294   0.251
 5653TIP3   OH216922   4.399   0.687   4.227
 5653TIP3    H116923   4.339   0.758   4.248
 5653TIP3    H216924   4.484   0.717   4.256
 5654TIP3   OH216925   2.067   2.881   3.657
 5654TIP3    H116926   2.109   2.876   3.571
 5654TIP3    H216927   2.040   2.791   3.676
 5655TIP3   OH216928   3.476   1.207   4.177
 5655TIP3    H116929   3.394   1.252   4.156
 5655TIP3    H216930   3.483   1.211   4.272
 5656TIP3   OH216931   0.455   1.915   5.395
 5656TIP3    H116932   0.526   1.864   5.355
 5656TIP3    H216933   0.375   1.871   5.368
 5657TIP3   OH216934   0.120   0.932   5.839
 5657TIP3    H116935   0.035   0.955   5.879
 5657TIP3    H216936   0.123   0.836   5.844
 5658TIP3   OH216937   4.253   4.439   3.141
 5658TIP3    H116938   4.270   4.510   3.079
 5658TIP3    H216939   4.250   4.360   3.088
 5659TIP3   OH216940   0.745   0.635   1.319
 5659TIP3    H116941   0.689   0.695   1.269
 5659TIP3    H216942   0.819   0.690   1.346
 5660TIP3   OH216943   6.312   3.523   1.320
 5660TIP3    H116944   6.404   3.531   1.346
 5660TIP3    H216945   6.307   3.567   1.235
 5661TIP3   OH216946   4.877   0.919   2.452
 5661TIP3    H116947   4.937   0.930   2.526
 5661TIP3    H216948   4.844   1.007   2.434
 5662TIP3   OH216949   5.399   2.620   2.492
 5662TIP3    H116950   5.384   2.528   2.512
 5662TIP3    H216951   5.492   2.634   2.507
 5663TIP3   OH216952   0.111   2.810   4.913
 5663TIP3    H116953   0.181   2.794   4.849
 5663TIP3    H216954   0.098   2.725   4.956
 5664TIP3   OH216955   6.718   1.585   2.087
 5664TIP3    H116956   6.625   1.603   2.082
 5664TIP3    H216957   6.755   1.663   2.129
 5665TIP3   OH216958   0.581   0.725   5.456
 5665TIP3    H116959   0.550   0.638   5.478
 5665TIP3    H216960   0.619   0.759   5.537
 5666TIP3   OH216961   5.516   2.029   1.458
 5666TIP3    H116962   5.421   2.028   1.472
 5666TIP3    H216963   5.538   2.122   1.448
 5667TIP3   OH216964   1.564   4.448   4.230
 5667TIP3    H116965   1.594   4.413   4.146
 5667TIP3    H216966   1.470   4.461   4.219
 5668TIP3   OH216967   4.820   4.364   0.405
 5668TIP3    H116968   4.750   4.415   0.365
 5668TIP3    H216969   4.776   4.307   0.468
 5669TIP3   OH216970   3.440   5.964   3.861
 5669TIP3    H116971   3.422   6.000   3.948
 5669TIP3    H216972   3.517   5.908   3.874
 5670TIP3   OH216973   5.506   4.910   0.943
 5670TIP3    H116974   5.541   4.891   0.857
 5670TIP3    H216975   5.416   4.937   0.928
 5671TIP3   OH216976   2.726   2.871   3.473
 5671TIP3    H116977   2.660   2.846   3.408
 5671TIP3    H216978   2.687   2.943   3.521
 5672TIP3   OH216979   2.909   5.264   0.109
 5672TIP3    H116980   2.984   5.294   0.161
 5672TIP3    H216981   2.934   5.176   0.081
 5673TIP3   OH216982   3.976   4.244   1.973
 5673TIP3    H116983   4.026   4.314   2.016
 5673TIP3    H216984   4.034   4.169   1.973
 5674TIP3   OH216985   2.275   0.161   0.259
 5674TIP3    H116986   2.307   0.228   0.199
 5674TIP3    H216987   2.321   0.179   0.341
 5675TIP3   OH216988   1.338   1.306   0.097
 5675TIP3    H116989   1.386   1.324   0.016
 5675TIP3    H216990   1.357   1.215   0.117
 5676TIP3   OH216991   0.745   4.905   2.977
 5676TIP3    H116992   0.712   4.842   3.041
 5676TIP3    H216993   0.717   4.990   3.010
 5677TIP3   OH216994   6.129   2.308   4.675
 5677TIP3    H116995   6.075   2.382   4.703
 5677TIP3    H216996   6.092   2.232   4.721
 5678TIP3   OH216997   5.235   0.509   1.673
 5678TIP3    H116998   5.141   0.505   1.691
 5678TIP3    H216999   5.242   0.555   1.589
 5679TIP3   OH217000   2.388   5.124   5.169
 5679TIP3    H117001   2.379   5.029   5.160
 5679TIP3    H217002   2.465   5.146   5.118
 5680TIP3   OH217003   4.896   4.915   5.398
 5680TIP3    H117004   4.808   4.922   5.435
 5680TIP3    H217005   4.952   4.899   5.473
 5681TIP3   OH217006   5.989   3.021   5.779
 5681TIP3    H117007   5.945   2.941   5.809
 5681TIP3    H217008   5.938   3.048   5.703
 5682TIP3   OH217009   0.599   3.830   4.861
 5682TIP3    H117010   0.627   3.883   4.787
 5682TIP3    H217011   0.505   3.821   4.849
 5683TIP3   OH217012   6.286   6.600   0.184
 5683TIP3    H117013   6.354   6.537   0.158
 5683TIP3    H217014   6.203   6.554   0.167
 5684TIP3   OH217015   3.933   4.702   3.792
 5684TIP3    H117016   4.001   4.636   3.808
 5684TIP3    H217017   3.851   4.654   3.803
 5685TIP3   OH217018   2.336   3.833   4.809
 5685TIP3    H117019   2.360   3.751   4.766
 5685TIP3    H217020   2.346   3.900   4.742
 5686TIP3   OH217021   5.164   2.039   1.801
 5686TIP3    H117022   5.206   2.111   1.847
 5686TIP3    H217023   5.077   2.034   1.839
 5687TIP3   OH217024   3.775   3.144   4.571
 5687TIP3    H117025   3.813   3.231   4.575
 5687TIP3    H217026   3.842   3.090   4.529
 5688TIP3   OH217027   2.929   2.615   4.817
 5688TIP3    H117028   2.885   2.647   4.739
 5688TIP3    H217029   2.949   2.694   4.868
 5689TIP3   OH217030   2.587   2.940   1.616
 5689TIP3    H117031   2.644   3.003   1.661
 5689TIP3    H217032   2.517   2.994   1.578
 5690TIP3   OH217033   5.491   5.212   1.570
 5690TIP3    H117034   5.450   5.127   1.553
 5690TIP3    H217035   5.506   5.248   1.483
 5691TIP3   OH217036   6.882   2.725   4.417
 5691TIP3    H117037   6.921   2.658   4.473
 5691TIP3    H217038   6.911   2.703   4.329
 5692TIP3   OH217039   1.464   4.236   5.303
 5692TIP3    H117040   1.417   4.202   5.228
 5692TIP3    H217041   1.530   4.295   5.266
 5693TIP3   OH217042   3.675   6.252   1.448
 5693TIP3    H117043   3.604   6.307   1.482
 5693TIP3    H217044   3.711   6.303   1.375
 5694TIP3   OH217045   4.227   5.319   2.785
 5694TIP3    H117046   4.164   5.315   2.857
 5694TIP3    H217047   4.175   5.306   2.706
 5695TIP3   OH217048   6.834   1.984   0.821
 5695TIP3    H117049   6.816   1.899   0.863
 5695TIP3    H217050   6.777   1.985   0.744
 5696TIP3   OH217051   3.820   0.700   0.271
 5696TIP3    H117052   3.793   0.648   0.347
 5696TIP3    H217053   3.913   0.715   0.284
 5697TIP3   OH217054   0.640   1.366   4.467
 5697TIP3    H117055   0.704   1.379   4.537
 5697TIP3    H217056   0.566   1.322   4.509
 5698TIP3   OH217057   4.747   4.269   2.970
 5698TIP3    H117058   4.832   4.249   3.009
 5698TIP3    H217059   4.683   4.232   3.031
 5699TIP3   OH217060   4.496   5.629   4.036
 5699TIP3    H117061   4.475   5.590   3.952
 5699TIP3    H217062   4.413   5.631   4.083
 5700TIP3   OH217063   2.925   0.290   4.125
 5700TIP3    H117064   3.008   0.337   4.130
 5700TIP3    H217065   2.922   0.255   4.036
 5701TIP3   OH217066   3.586   2.734   1.111
 5701TIP3    H117067   3.568   2.670   1.042
 5701TIP3    H217068   3.661   2.699   1.159
 5702TIP3   OH217069   2.901   6.020   1.468
 5702TIP3    H117070   2.925   5.954   1.533
 5702TIP3    H217071   2.985   6.055   1.438
 5703TIP3   OH217072   3.644   1.830   4.765
 5703TIP3    H117073   3.582   1.887   4.811
 5703TIP3    H217074   3.715   1.817   4.827
 5704TIP3   OH217075   3.686   0.651   4.021
 5704TIP3    H117076   3.778   0.650   3.994
 5704TIP3    H217077   3.669   0.742   4.047
 5705TIP3   OH217078   0.864   2.409   0.452
 5705TIP3    H117079   0.869   2.473   0.381
 5705TIP3    H217080   0.888   2.326   0.411
 5706TIP3   OH217081   0.981   6.273   3.016
 5706TIP3    H117082   0.979   6.270   2.920
 5706TIP3    H217083   0.896   6.308   3.041
 5707TIP3   OH217084   0.230   1.773   1.732
 5707TIP3    H117085   0.245   1.826   1.810
 5707TIP3    H217086   0.155   1.814   1.689
 5708TIP3   OH217087   6.362   4.727   5.643
 5708TIP3    H117088   6.344   4.746   5.551
 5708TIP3    H217089   6.338   4.808   5.689
 5709TIP3   OH217090   4.687   3.736   4.551
 5709TIP3    H117091   4.759   3.799   4.544
 5709TIP3    H217092   4.730   3.651   4.556
 5710TIP3   OH217093   6.429   6.142   1.942
 5710TIP3    H117094   6.352   6.181   1.984
 5710TIP3    H217095   6.491   6.127   2.014
 5711TIP3   OH217096   0.698   0.593   2.653
 5711TIP3    H117097   0.783   0.565   2.687
 5711TIP3    H217098   0.654   0.632   2.729
 5712TIP3   OH217099   4.323   3.125   1.552
 5712TIP3    H117100   4.356   3.197   1.498
 5712TIP3    H217101   4.275   3.169   1.623
 5713TIP3   OH217102   2.639   4.061   2.207
 5713TIP3    H117103   2.548   4.084   2.187
 5713TIP3    H217104   2.647   3.970   2.178
 5714TIP3   OH217105   5.491   1.110   1.400
 5714TIP3    H117106   5.406   1.112   1.357
 5714TIP3    H217107   5.552   1.143   1.334
 5715TIP3   OH217108   4.766   6.159   3.598
 5715TIP3    H117109   4.767   6.116   3.513
 5715TIP3    H217110   4.799   6.094   3.659
 5716TIP3   OH217111   0.836   5.822   3.934
 5716TIP3    H117112   0.744   5.805   3.915
 5716TIP3    H217113   0.883   5.782   3.861
 5717TIP3   OH217114   4.312   2.609   1.091
 5717TIP3    H117115   4.331   2.609   1.185
 5717TIP3    H217116   4.311   2.517   1.066
 5718TIP3   OH217117   4.788   2.632   0.686
 5718TIP3    H117118   4.796   2.563   0.620
 5718TIP3    H217119   4.722   2.692   0.650
 5719TIP3   OH217120   2.057   4.050   3.037
 5719TIP3    H117121   2.142   4.093   3.035
 5719TIP3    H217122   2.077   3.956   3.036
 5720TIP3   OH217123   2.920   0.146   2.646
 5720TIP3    H117124   2.846   0.087   2.635
 5720TIP3    H217125   2.884   0.222   2.691
 5721TIP3   OH217126   3.374   5.245   0.726
 5721TIP3    H117127   3.445   5.183   0.747
 5721TIP3    H217128   3.416   5.331   0.727
 5722TIP3   OH217129   4.931   5.193   5.346
 5722TIP3    H117130   4.917   5.220   5.256
 5722TIP3    H217131   4.911   5.099   5.346
 5723TIP3   OH217132   0.718   3.195   4.950
 5723TIP3    H117133   0.801   3.241   4.939
 5723TIP3    H217134   0.651   3.260   4.928
 5724TIP3   OH217135   5.505   5.174   4.810
 5724TIP3    H117136   5.413   5.186   4.833
 5724TIP3    H217137   5.553   5.220   4.879
 5725TIP3   OH217138   1.825   0.973   1.146
 5725TIP3    H117139   1.764   0.979   1.072
 5725TIP3    H217140   1.906   0.939   1.108
 5726TIP3   OH217141   5.153   4.849   5.606
 5726TIP3    H117142   5.191   4.937   5.612
 5726TIP3    H217143   5.087   4.848   5.676
 5727TIP3   OH217144   0.622   1.441   4.757
 5727TIP3    H117145   0.627   1.455   4.852
 5727TIP3    H217146   0.571   1.516   4.725
 5728TIP3   OH217147   6.856   2.272   3.118
 5728TIP3    H117148   6.770   2.231   3.106
 5728TIP3    H217149   6.911   2.232   3.050
 5729TIP3   OH217150   6.031   1.080   3.374
 5729TIP3    H117151   6.065   1.169   3.361
 5729TIP3    H217152   5.954   1.092   3.430
 5730TIP3   OH217153   6.803   0.715   4.026
 5730TIP3    H117154   6.893   0.684   4.028
 5730TIP3    H217155   6.807   0.800   4.071
 5731TIP3   OH217156   1.898   6.402   4.770
 5731TIP3    H117157   1.992   6.416   4.771
 5731TIP3    H217158   1.888   6.307   4.761
 5732TIP3   OH217159   0.107   5.217   3.816
 5732TIP3    H117160   0.162   5.262   3.752
 5732TIP3    H217161   0.022   5.262   3.810
 5733TIP3   OH217162   6.679   0.887   3.147
 5733TIP3    H117163   6.704   0.802   3.111
 5733TIP3    H217164   6.584   0.887   3.147
 5734TIP3   OH217165   5.149   2.693   2.574
 5734TIP3    H117166   5.243   2.676   2.564
 5734TIP3    H217167   5.115   2.618   2.623
 5735TIP3   OH217168   0.165   5.063   1.748
 5735TIP3    H117169   0.248   5.111   1.751
 5735TIP3    H217170   0.170   5.001   1.820
 5736TIP3   OH217171   6.190   1.865   4.108
 5736TIP3    H117172   6.206   1.958   4.092
 5736TIP3    H217173   6.104   1.849   4.070
 5737TIP3   OH217174   0.570   3.182   5.840
 5737TIP3    H117175   0.630   3.240   5.886
 5737TIP3    H217176   0.507   3.155   5.907
 5738TIP3   OH217177   0.135   2.315   2.197
 5738TIP3    H117178   0.093   2.261   2.130
 5738TIP3    H217179   0.216   2.345   2.157
 5739TIP3   OH217180   5.058   4.497   3.690
 5739TIP3    H117181   4.992   4.446   3.738
 5739TIP3    H217182   5.133   4.438   3.682
 5740TIP3   OH217183   2.404   1.448   3.100
 5740TIP3    H117184   2.399   1.542   3.083
 5740TIP3    H217185   2.313   1.421   3.116
 5741TIP3   OH217186   3.287   6.147   5.750
 5741TIP3    H117187   3.354   6.079   5.752
 5741TIP3    H217188   3.238   6.134   5.831
 5742TIP3   OH217189   5.812   1.282   3.990
 5742TIP3    H117190   5.820   1.375   4.013
 5742TIP3    H217191   5.722   1.259   4.011
 5743TIP3   OH217192   3.963   3.708   3.821
 5743TIP3    H117193   4.010   3.656   3.886
 5743TIP3    H217194   3.937   3.788   3.867
 5744TIP3   OH217195   6.849   6.596   3.221
 5744TIP3    H117196   6.910   6.533   3.258
 5744TIP3    H217197   6.867   6.678   3.267
 5745TIP3   OH217198   5.695   3.378   3.665
 5745TIP3    H117199   5.643   3.450   3.629
 5745TIP3    H217200   5.743   3.418   3.738
 5746TIP3   OH217201   0.669   4.876   1.178
 5746TIP3    H117202   0.612   4.799   1.184
 5746TIP3    H217203   0.757   4.842   1.194
 5747TIP3   OH217204   5.618   3.206   5.611
 5747TIP3    H117205   5.712   3.196   5.596
 5747TIP3    H217206   5.585   3.242   5.529
 5748TIP3   OH217207   2.198   0.493   0.409
 5748TIP3    H117208   2.292   0.509   0.406
 5748TIP3    H217209   2.187   0.420   0.470
 5749TIP3   OH217210   6.537   5.535   0.912
 5749TIP3    H117211   6.565   5.603   0.974
 5749TIP3    H217212   6.471   5.484   0.960
 5750TIP3   OH217213   3.370   3.955   3.730
 5750TIP3    H117214   3.437   4.001   3.679
 5750TIP3    H217215   3.293   4.012   3.725
 5751TIP3   OH217216   2.219   0.242   0.685
 5751TIP3    H117217   2.277   0.213   0.756
 5751TIP3    H217218   2.204   0.164   0.632
 5752TIP3   OH217219   5.992   4.423   5.206
 5752TIP3    H117220   6.063   4.483   5.230
 5752TIP3    H217221   5.968   4.448   5.117
 5753TIP3   OH217222   0.099   4.788   4.484
 5753TIP3    H117223   0.101   4.884   4.493
 5753TIP3    H217224   0.156   4.756   4.554
 5754TIP3   OH217225   5.029   6.537   2.878
 5754TIP3    H117226   5.019   6.632   2.881
 5754TIP3    H217227   5.121   6.522   2.900
 5755TIP3   OH217228   3.959   5.846   2.167
 5755TIP3    H117229   3.938   5.826   2.258
 5755TIP3    H217230   4.050   5.817   2.157
 5756TIP3   OH217231   6.268   6.297   4.407
 5756TIP3    H117232   6.286   6.224   4.347
 5756TIP3    H217233   6.175   6.314   4.396
 5757TIP3   OH217234   3.323   5.701   3.443
 5757TIP3    H117235   3.402   5.692   3.497
 5757TIP3    H217236   3.260   5.745   3.501
 5758TIP3   OH217237   4.820   6.222   2.252
 5758TIP3    H117238   4.772   6.217   2.169
 5758TIP3    H217239   4.786   6.302   2.294
 5759TIP3   OH217240   1.616   1.931   0.611
 5759TIP3    H117241   1.634   1.837   0.616
 5759TIP3    H217242   1.526   1.940   0.641
 5760TIP3   OH217243   5.835   3.624   5.780
 5760TIP3    H117244   5.816   3.693   5.843
 5760TIP3    H217245   5.902   3.662   5.723
 5761TIP3   OH217246   4.337   4.867   1.532
 5761TIP3    H117247   4.371   4.957   1.532
 5761TIP3    H217248   4.363   4.831   1.617
 5762TIP3   OH217249   3.114   3.837   5.710
 5762TIP3    H117250   3.204   3.818   5.682
 5762TIP3    H217251   3.121   3.856   5.803
 5763TIP3   OH217252   6.664   2.874   5.742
 5763TIP3    H117253   6.591   2.815   5.723
 5763TIP3    H217254   6.721   2.825   5.801
 5764TIP3   OH217255   5.831   4.323   1.636
 5764TIP3    H117256   5.873   4.409   1.640
 5764TIP3    H217257   5.879   4.276   1.567
 5765TIP3   OH217258   5.422   5.920   5.552
 5765TIP3    H117259   5.376   5.838   5.571
 5765TIP3    H217260   5.353   5.985   5.542
 5766TIP3   OH217261   5.866   3.839   1.406
 5766TIP3    H117262   5.861   3.747   1.381
 5766TIP3    H217263   5.812   3.884   1.341
 5767TIP3   OH217264   5.325   6.411   3.446
 5767TIP3    H117265   5.340   6.440   3.536
 5767TIP3    H217266   5.259   6.342   3.453
 5768TIP3   OH217267   1.151   2.386   0.895
 5768TIP3    H117268   1.167   2.376   0.801
 5768TIP3    H217269   1.090   2.459   0.902
 5769TIP3   OH217270   2.376   5.015   2.977
 5769TIP3    H117271   2.434   4.982   3.046
 5769TIP3    H217272   2.377   5.110   2.989
 5770TIP3   OH217273   1.897   2.414   3.030
 5770TIP3    H117274   1.968   2.449   3.084
 5770TIP3    H217275   1.903   2.464   2.948
 5771TIP3   OH217276   0.332   5.998   4.295
 5771TIP3    H117277   0.262   5.979   4.233
 5771TIP3    H217278   0.413   5.981   4.247
 5772TIP3   OH217279   2.582   2.894   5.226
 5772TIP3    H117280   2.584   2.935   5.139
 5772TIP3    H217281   2.551   2.963   5.285
 5773TIP3   OH217282   6.514   6.349   5.101
 5773TIP3    H117283   6.448   6.368   5.168
 5773TIP3    H217284   6.537   6.257   5.115
 5774TIP3   OH217285   3.680   3.646   1.244
 5774TIP3    H117286   3.645   3.586   1.310
 5774TIP3    H217287   3.769   3.615   1.229
 5775TIP3   OH217288   4.888   5.459   1.670
 5775TIP3    H117289   4.943   5.421   1.738
 5775TIP3    H217290   4.834   5.387   1.640
 5776TIP3   OH217291   7.043   2.209   2.848
 5776TIP3    H117292   7.053   2.303   2.863
 5776TIP3    H217293   7.048   2.199   2.753
 5777TIP3   OH217294   4.107   4.625   5.713
 5777TIP3    H117295   4.175   4.668   5.662
 5777TIP3    H217296   4.152   4.552   5.756
 5778TIP3   OH217297   4.000   6.316   4.988
 5778TIP3    H117298   4.047   6.233   4.985
 5778TIP3    H217299   4.055   6.372   5.042
 5779TIP3   OH217300   5.198   2.390   2.682
 5779TIP3    H117301   5.149   2.425   2.757
 5779TIP3    H217302   5.285   2.370   2.717
 5780TIP3   OH217303   6.198   0.737   3.064
 5780TIP3    H117304   6.123   0.795   3.053
 5780TIP3    H217305   6.226   0.751   3.155
 5781TIP3   OH217306   3.345   5.476   1.558
 5781TIP3    H117307   3.313   5.514   1.476
 5781TIP3    H217308   3.384   5.393   1.533
 5782TIP3   OH217309   0.554   0.603   3.125
 5782TIP3    H117310   0.534   0.556   3.044
 5782TIP3    H217311   0.477   0.590   3.180
 5783TIP3   OH217312   6.916   1.292   1.540
 5783TIP3    H117313   6.878   1.379   1.553
 5783TIP3    H217314   6.944   1.292   1.448
 5784TIP3   OH217315   4.038   5.663   0.889
 5784TIP3    H117316   4.094   5.656   0.812
 5784TIP3    H217317   3.951   5.681   0.853
 5785TIP3   OH217318   6.935   1.701   1.905
 5785TIP3    H117319   6.852   1.659   1.925
 5785TIP3    H217320   6.983   1.635   1.854
 5786TIP3   OH217321   2.449   4.335   4.044
 5786TIP3    H117322   2.464   4.243   4.022
 5786TIP3    H217323   2.354   4.344   4.043
 5787TIP3   OH217324   5.425   4.596   0.126
 5787TIP3    H117325   5.361   4.660   0.094
 5787TIP3    H217326   5.421   4.524   0.063
 5788TIP3   OH217327   6.851   5.520   4.555
 5788TIP3    H117328   6.801   5.513   4.473
 5788TIP3    H217329   6.930   5.468   4.539
 5789TIP3   OH217330   5.938   1.331   4.356
 5789TIP3    H117331   5.846   1.319   4.377
 5789TIP3    H217332   5.979   1.246   4.376
 5790TIP3   OH217333   1.364   2.683   2.378
 5790TIP3    H117334   1.344   2.597   2.414
 5790TIP3    H217335   1.392   2.665   2.288
 5791TIP3   OH217336   6.585   4.941   4.439
 5791TIP3    H117337   6.558   4.948   4.531
 5791TIP3    H217338   6.570   4.849   4.416
 5792TIP3   OH217339   5.061   3.448   3.866
 5792TIP3    H117340   5.154   3.450   3.844
 5792TIP3    H217341   5.058   3.408   3.952
 5793TIP3   OH217342   6.656   6.565   5.189
 5793TIP3    H117343   6.626   6.653   5.165
 5793TIP3    H217344   6.602   6.506   5.137
 5794TIP3   OH217345   0.685   1.253   0.441
 5794TIP3    H117346   0.722   1.165   0.441
 5794TIP3    H217347   0.701   1.286   0.529
 5795TIP3   OH217348   0.798   6.203   4.800
 5795TIP3    H117349   0.703   6.194   4.809
 5795TIP3    H217350   0.818   6.158   4.718
 5796TIP3   OH217351   5.335   6.469   5.271
 5796TIP3    H117352   5.385   6.404   5.222
 5796TIP3    H217353   5.265   6.495   5.211
 5797TIP3   OH217354   7.120   4.537   4.748
 5797TIP3    H117355   7.036   4.530   4.793
 5797TIP3    H217356   7.137   4.631   4.743
 5798TIP3   OH217357   3.201   6.438   5.507
 5798TIP3    H117358   3.273   6.374   5.503
 5798TIP3    H217359   3.229   6.509   5.450
 5799TIP3   OH217360   5.493   5.147   1.099
 5799TIP3    H117361   5.487   5.214   1.030
 5799TIP3    H217362   5.505   5.065   1.051
 5800TIP3   OH217363   0.050   0.827   1.715
 5800TIP3    H117364   0.038   0.862   1.803
 5800TIP3    H217365   0.073   0.904   1.662
 5801TIP3   OH217366   1.861   3.241   4.310
 5801TIP3    H117367   1.824   3.322   4.346
 5801TIP3    H217368   1.858   3.179   4.384
 5802TIP3   OH217369   6.945   4.563   5.057
 5802TIP3    H117370   7.007   4.490   5.049
 5802TIP3    H217371   6.971   4.609   5.137
 5803TIP3   OH217372   2.258   4.288   3.769
 5803TIP3    H117373   2.258   4.381   3.791
 5803TIP3    H217374   2.350   4.267   3.754
 5804TIP3   OH217375   1.763   5.023   2.834
 5804TIP3    H117376   1.822   5.073   2.778
 5804TIP3    H217377   1.793   5.039   2.923
 5805TIP3   OH217378   2.199   5.893   2.114
 5805TIP3    H117379   2.135   5.959   2.087
 5805TIP3    H217380   2.148   5.813   2.125
 5806TIP3   OH217381   4.799   4.702   1.865
 5806TIP3    H117382   4.880   4.742   1.899
 5806TIP3    H217383   4.730   4.760   1.896
 5807TIP3   OH217384   1.754   2.089   0.841
 5807TIP3    H117385   1.777   2.092   0.748
 5807TIP3    H217386   1.688   2.157   0.851
 5808TIP3   OH217387   2.311   3.952   3.992
 5808TIP3    H117388   2.274   3.970   3.905
 5808TIP3    H217389   2.406   3.956   3.979
 5809TIP3   OH217390   6.664   4.544   1.092
 5809TIP3    H117391   6.733   4.601   1.058
 5809TIP3    H217392   6.657   4.567   1.185
 5810TIP3   OH217393   4.313   3.788   0.849
 5810TIP3    H117394   4.317   3.876   0.812
 5810TIP3    H217395   4.350   3.731   0.782
 5811TIP3   OH217396   6.535   2.428   1.160
 5811TIP3    H117397   6.531   2.506   1.105
 5811TIP3    H217398   6.608   2.377   1.125
 5812TIP3   OH217399   1.190   2.334   4.932
 5812TIP3    H117400   1.166   2.413   4.882
 5812TIP3    H217401   1.136   2.265   4.895
 5813TIP3   OH217402   6.873   0.134   2.794
 5813TIP3    H117403   6.879   0.213   2.740
 5813TIP3    H217404   6.805   0.082   2.752
 5814TIP3   OH217405   2.417   1.541   5.091
 5814TIP3    H117406   2.426   1.544   5.186
 5814TIP3    H217407   2.457   1.623   5.061
 5815TIP3   OH217408   1.862   5.045   2.422
 5815TIP3    H117409   1.945   5.000   2.404
 5815TIP3    H217410   1.877   5.089   2.506
 5816TIP3   OH217411   3.041   6.482   0.250
 5816TIP3    H117412   3.023   6.394   0.281
 5816TIP3    H217413   2.954   6.523   0.243
 5817TIP3   OH217414   6.517   3.017   0.501
 5817TIP3    H117415   6.451   3.077   0.536
 5817TIP3    H217416   6.466   2.944   0.466
 5818TIP3   OH217417   2.631   4.716   2.125
 5818TIP3    H117418   2.566   4.753   2.065
 5818TIP3    H217419   2.580   4.689   2.201
 5819TIP3   OH217420   1.848   5.158   3.706
 5819TIP3    H117421   1.922   5.180   3.763
 5819TIP3    H217422   1.874   5.077   3.663
 5820TIP3   OH217423   2.494   1.479   1.299
 5820TIP3    H117424   2.466   1.537   1.370
 5820TIP3    H217425   2.547   1.412   1.341
 5821TIP3   OH217426   0.233   4.378   3.424
 5821TIP3    H117427   0.320   4.399   3.460
 5821TIP3    H217428   0.225   4.435   3.348
 5822TIP3   OH217429   5.810   5.427   3.954
 5822TIP3    H117430   5.815   5.480   4.034
 5822TIP3    H217431   5.800   5.492   3.884
 5823TIP3   OH217432   6.496   2.247   3.407
 5823TIP3    H117433   6.541   2.244   3.322
 5823TIP3    H217434   6.543   2.316   3.455
 5824TIP3   OH217435   7.162   2.321   5.055
 5824TIP3    H117436   7.179   2.401   5.006
 5824TIP3    H217437   7.241   2.307   5.107
 5825TIP3   OH217438   0.971   1.532   1.248
 5825TIP3    H117439   0.886   1.513   1.207
 5825TIP3    H217440   0.969   1.627   1.262
 5826TIP3   OH217441   5.387   2.511   2.041
 5826TIP3    H117442   5.454   2.580   2.044
 5826TIP3    H217443   5.305   2.556   2.058
 5827TIP3   OH217444   1.847   5.672   2.689
 5827TIP3    H117445   1.810   5.723   2.616
 5827TIP3    H217446   1.856   5.583   2.654
 5828TIP3   OH217447   1.329   5.403   1.024
 5828TIP3    H117448   1.319   5.349   1.103
 5828TIP3    H217449   1.403   5.461   1.044
 5829TIP3   OH217450   0.263   3.469   2.223
 5829TIP3    H117451   0.189   3.411   2.241
 5829TIP3    H217452   0.340   3.417   2.244
 5830TIP3   OH217453   4.567   6.534   1.246
 5830TIP3    H117454   4.615   6.580   1.177
 5830TIP3    H217455   4.635   6.488   1.296
 5831TIP3   OH217456   6.548   5.136   0.677
 5831TIP3    H117457   6.538   5.230   0.662
 5831TIP3    H217458   6.605   5.130   0.753
 5832TIP3   OH217459   1.496   3.900   5.704
 5832TIP3    H117460   1.485   3.898   5.609
 5832TIP3    H217461   1.439   3.971   5.734
 5833TIP3   OH217462   5.586   3.708   1.330
 5833TIP3    H117463   5.564   3.686   1.421
 5833TIP3    H217464   5.621   3.797   1.335
 5834TIP3   OH217465   4.799   4.113   2.695
 5834TIP3    H117466   4.723   4.143   2.744
 5834TIP3    H217467   4.765   4.093   2.607
 5835TIP3   OH217468   0.137   1.254   4.338
 5835TIP3    H117469   0.157   1.164   4.313
 5835TIP3    H217470   0.221   1.292   4.363
 5836TIP3   OH217471   2.094   3.318   2.824
 5836TIP3    H117472   2.005   3.354   2.827
 5836TIP3    H217473   2.085   3.237   2.773
 5837TIP3   OH217474   4.598   5.865   2.355
 5837TIP3    H117475   4.618   5.879   2.263
 5837TIP3    H217476   4.667   5.912   2.402
 5838TIP3   OH217477   5.413   6.473   1.326
 5838TIP3    H117478   5.334   6.526   1.329
 5838TIP3    H217479   5.384   6.384   1.346
 5839TIP3   OH217480   4.385   4.614   4.647
 5839TIP3    H117481   4.373   4.526   4.613
 5839TIP3    H217482   4.328   4.669   4.593
 5840TIP3   OH217483   4.538   3.866   5.632
 5840TIP3    H117484   4.541   3.776   5.600
 5840TIP3    H217485   4.529   3.919   5.553
 5841TIP3   OH217486   3.188   0.169   2.858
 5841TIP3    H117487   3.096   0.146   2.869
 5841TIP3    H217488   3.231   0.129   2.934
 5842TIP3   OH217489   2.529   1.313   4.523
 5842TIP3    H117490   2.530   1.218   4.511
 5842TIP3    H217491   2.613   1.333   4.564
 5843TIP3   OH217492   5.640   4.735   2.720
 5843TIP3    H117493   5.679   4.706   2.802
 5843TIP3    H217494   5.665   4.667   2.656
 5844TIP3   OH217495   7.062   0.842   2.397
 5844TIP3    H117496   7.012   0.894   2.334
 5844TIP3    H217497   7.040   0.880   2.482
 5845TIP3   OH217498   3.478   2.463   4.441
 5845TIP3    H117499   3.426   2.517   4.500
 5845TIP3    H217500   3.554   2.517   4.420
 5846TIP3   OH217501   7.138   2.396   4.252
 5846TIP3    H117502   7.106   2.441   4.173
 5846TIP3    H217503   7.225   2.432   4.266
 5847TIP3   OH217504   0.025   0.886   3.877
 5847TIP3    H117505   0.060   0.834   3.805
 5847TIP3    H217506  -0.024   0.824   3.931
 5848TIP3   OH217507   0.800   4.711   3.427
 5848TIP3    H117508   0.709   4.731   3.408
 5848TIP3    H217509   0.799   4.619   3.454
 5849TIP3   OH217510   6.212   6.636   2.029
 5849TIP3    H117511   6.218   6.580   1.951
 5849TIP3    H217512   6.118   6.648   2.042
 5850TIP3   OH217513   4.054   5.827   0.297
 5850TIP3    H117514   4.113   5.902   0.304
 5850TIP3    H217515   4.107   5.758   0.257
 5851TIP3   OH217516   4.871   0.408   0.830
 5851TIP3    H117517   4.836   0.460   0.902
 5851TIP3    H217518   4.868   0.318   0.863
 5852TIP3   OH217519   0.404   0.124   2.085
 5852TIP3    H117520   0.340   0.140   2.016
 5852TIP3    H217521   0.357   0.076   2.152
 5853TIP3   OH217522   1.703   3.745   0.513
 5853TIP3    H117523   1.781   3.689   0.517
 5853TIP3    H217524   1.664   3.726   0.427
 5854TIP3   OH217525   0.879   6.473   3.201
 5854TIP3    H117526   0.872   6.443   3.292
 5854TIP3    H217527   0.971   6.493   3.188
 5855TIP3   OH217528   6.984   6.285   0.017
 5855TIP3    H117529   7.049   6.217   0.002
 5855TIP3    H217530   6.922   6.247   0.080
 5856TIP3   OH217531   4.727   4.436   4.878
 5856TIP3    H117532   4.821   4.415   4.881
 5856TIP3    H217533   4.724   4.531   4.885
 5857TIP3   OH217534   6.162   1.460   4.275
 5857TIP3    H117535   6.088   1.407   4.303
 5857TIP3    H217536   6.234   1.430   4.331
 5858TIP3   OH217537   0.584   4.710   0.399
 5858TIP3    H117538   0.522   4.649   0.358
 5858TIP3    H217539   0.548   4.725   0.487
 5859TIP3   OH217540   1.615   2.411   1.804
 5859TIP3    H117541   1.691   2.459   1.839
 5859TIP3    H217542   1.646   2.371   1.723
 5860TIP3   OH217543   1.447   2.954   0.015
 5860TIP3    H117544   1.412   3.043   0.011
 5860TIP3    H217545   1.383   2.906   0.068
 5861TIP3   OH217546   6.405   5.608   2.944
 5861TIP3    H117547   6.380   5.691   2.985
 5861TIP3    H217548   6.323   5.561   2.933
 5862TIP3   OH217549   6.019   6.608   4.049
 5862TIP3    H117550   6.040   6.619   4.142
 5862TIP3    H217551   5.952   6.540   4.047
 5863TIP3   OH217552   2.827   3.326   4.455
 5863TIP3    H117553   2.802   3.393   4.391
 5863TIP3    H217554   2.921   3.340   4.469
 5864TIP3   OH217555   1.010   5.222   1.693
 5864TIP3    H117556   1.081   5.166   1.723
 5864TIP3    H217557   1.047   5.272   1.620
 5865TIP3   OH217558   3.316   2.688   2.449
 5865TIP3    H117559   3.404   2.717   2.425
 5865TIP3    H217560   3.289   2.745   2.521
 5866TIP3   OH217561   1.265   4.070   5.755
 5866TIP3    H117562   1.263   4.089   5.849
 5866TIP3    H217563   1.212   4.140   5.715
 5867TIP3   OH217564   4.999   1.361   2.330
 5867TIP3    H117565   4.989   1.384   2.238
 5867TIP3    H217566   4.911   1.337   2.358
 5868TIP3   OH217567   5.603   4.012   5.641
 5868TIP3    H117568   5.698   4.004   5.629
 5868TIP3    H217569   5.572   4.053   5.560
 5869TIP3   OH217570   7.087   6.053   4.232
 5869TIP3    H117571   7.002   6.041   4.275
 5869TIP3    H217572   7.142   6.092   4.300
 5870TIP3   OH217573   3.690   0.689   2.120
 5870TIP3    H117574   3.777   0.717   2.089
 5870TIP3    H217575   3.685   0.721   2.210
 5871TIP3   OH217576   5.298   0.572   2.351
 5871TIP3    H117577   5.374   0.598   2.298
 5871TIP3    H217578   5.225   0.573   2.289
 5872TIP3   OH217579   0.878   3.897   3.549
 5872TIP3    H117580   0.935   3.871   3.621
 5872TIP3    H217581   0.935   3.947   3.490
 5873TIP3   OH217582   7.014   1.872   0.452
 5873TIP3    H117583   6.929   1.851   0.490
 5873TIP3    H217584   6.997   1.947   0.395
 5874TIP3   OH217585   0.560   1.413   5.323
 5874TIP3    H117586   0.498   1.440   5.256
 5874TIP3    H217587   0.617   1.489   5.335
 5875TIP3   OH217588   2.052   2.670   1.234
 5875TIP3    H117589   2.133   2.639   1.276
 5875TIP3    H217590   2.073   2.672   1.141
 5876TIP3   OH217591   3.933   2.590   1.898
 5876TIP3    H117592   3.984   2.649   1.954
 5876TIP3    H217593   3.905   2.645   1.824
 5877TIP3   OH217594   1.701   5.944   3.756
 5877TIP3    H117595   1.654   5.883   3.814
 5877TIP3    H217596   1.635   5.972   3.693
 5878TIP3   OH217597   5.487   2.978   1.787
 5878TIP3    H117598   5.448   2.976   1.700
 5878TIP3    H217599   5.416   3.007   1.845
 5879TIP3   OH217600   0.499   5.203   2.379
 5879TIP3    H117601   0.427   5.236   2.325
 5879TIP3    H217602   0.576   5.249   2.346
 5880TIP3   OH217603   5.439   3.888   5.301
 5880TIP3    H117604   5.347   3.913   5.293
 5880TIP3    H217605   5.486   3.971   5.311
 5881TIP3   OH217606   0.592   5.478   4.728
 5881TIP3    H117607   0.506   5.519   4.720
 5881TIP3    H217608   0.585   5.397   4.678
 5882TIP3   OH217609   5.532   0.478   2.466
 5882TIP3    H117610   5.602   0.510   2.408
 5882TIP3    H217611   5.451   0.505   2.423
 5883TIP3   OH217612   4.962   3.082   3.380
 5883TIP3    H117613   4.902   3.109   3.311
 5883TIP3    H217614   5.050   3.098   3.345
 5884TIP3   OH217615   4.436   4.310   1.410
 5884TIP3    H117616   4.422   4.385   1.351
 5884TIP3    H217617   4.528   4.288   1.399
 5885TIP3   OH217618   5.581   0.790   2.932
 5885TIP3    H117619   5.654   0.830   2.884
 5885TIP3    H217620   5.505   0.842   2.907
 5886TIP3   OH217621   3.800   4.101   1.517
 5886TIP3    H117622   3.808   4.174   1.579
 5886TIP3    H217623   3.882   4.103   1.468
 5887TIP3   OH217624   3.115   2.001   3.764
 5887TIP3    H117625   3.084   2.088   3.787
 5887TIP3    H217626   3.209   2.002   3.783
 5888TIP3   OH217627   6.565   5.696   5.848
 5888TIP3    H117628   6.655   5.673   5.824
 5888TIP3    H217629   6.567   5.702   5.943
 5889TIP3   OH217630   4.391   4.538   0.733
 5889TIP3    H117631   4.408   4.474   0.664
 5889TIP3    H217632   4.475   4.551   0.775
 5890TIP3   OH217633   0.579   1.362   2.945
 5890TIP3    H117634   0.507   1.342   3.004
 5890TIP3    H217635   0.577   1.458   2.936
 5891TIP3   OH217636   3.088   2.433   5.832
 5891TIP3    H117637   3.149   2.371   5.792
 5891TIP3    H217638   3.120   2.443   5.922
 5892TIP3   OH217639   6.368   2.575   4.597
 5892TIP3    H117640   6.394   2.511   4.530
 5892TIP3    H217641   6.388   2.532   4.680
 5893TIP3   OH217642   0.999   4.233   3.148
 5893TIP3    H117643   1.028   4.296   3.214
 5893TIP3    H217644   1.079   4.202   3.107
 5894TIP3   OH217645   7.012   6.765   4.511
 5894TIP3    H117646   6.968   6.847   4.490
 5894TIP3    H217647   6.956   6.723   4.576
 5895TIP3   OH217648   1.573   5.419   1.790
 5895TIP3    H117649   1.577   5.454   1.702
 5895TIP3    H217650   1.532   5.333   1.780
 5896TIP3   OH217651   4.394   4.748   3.850
 5896TIP3    H117652   4.310   4.711   3.879
 5896TIP3    H217653   4.392   4.739   3.754
 5897TIP3   OH217654   0.837   6.102   3.714
 5897TIP3    H117655   0.821   6.149   3.795
 5897TIP3    H217656   0.904   6.037   3.736
 5898TIP3   OH217657   2.080   4.953   4.087
 5898TIP3    H117658   2.123   5.036   4.067
 5898TIP3    H217659   2.090   4.942   4.182
 5899TIP3   OH217660   0.535   0.375   5.205
 5899TIP3    H117661   0.573   0.292   5.233
 5899TIP3    H217662   0.573   0.391   5.119
 5900TIP3   OH217663   6.053   2.862   3.994
 5900TIP3    H117664   6.040   2.941   3.942
 5900TIP3    H217665   6.112   2.808   3.942
 5901TIP3   OH217666   6.479   3.531   0.983
 5901TIP3    H117667   6.512   3.442   0.992
 5901TIP3    H217668   6.550   3.587   1.014
 5902TIP3   OH217669   0.356   5.942   4.988
 5902TIP3    H117670   0.274   5.951   4.940
 5902TIP3    H217671   0.331   5.918   5.076
 5903TIP3   OH217672   5.597   1.464   0.035
 5903TIP3    H117673   5.521   1.488  -0.017
 5903TIP3    H217674   5.584   1.507   0.119
 5904TIP3   OH217675   0.473   6.079   5.423
 5904TIP3    H117676   0.415   6.116   5.489
 5904TIP3    H217677   0.516   6.156   5.384
 5905TIP3   OH217678   5.003   1.173   5.561
 5905TIP3    H117679   5.047   1.115   5.499
 5905TIP3    H217680   4.921   1.198   5.518
 5906TIP3   OH217681   4.110   1.636   3.222
 5906TIP3    H117682   4.080   1.656   3.133
 5906TIP3    H217683   4.109   1.541   3.227
 5907TIP3   OH217684   6.990   2.212   0.670
 5907TIP3    H117685   7.054   2.154   0.628
 5907TIP3    H217686   7.004   2.297   0.628
 5908TIP3   OH217687   0.509   6.518   4.820
 5908TIP3    H117688   0.590   6.475   4.792
 5908TIP3    H217689   0.442   6.485   4.759
 5909TIP3   OH217690   6.899   6.105   4.981
 5909TIP3    H117691   6.891   6.181   5.039
 5909TIP3    H217692   6.829   6.117   4.916
 5910TIP3   OH217693   0.210   2.944   4.392
 5910TIP3    H117694   0.195   2.850   4.394
 5910TIP3    H217695   0.199   2.969   4.301
 5911TIP3   OH217696   5.342   1.729   5.546
 5911TIP3    H117697   5.343   1.804   5.486
 5911TIP3    H217698   5.410   1.749   5.611
 5912TIP3   OH217699   2.924   5.879   5.249
 5912TIP3    H117700   2.949   5.787   5.256
 5912TIP3    H217701   2.895   5.889   5.158
 5913TIP3   OH217702   0.717   4.237   4.562
 5913TIP3    H117703   0.688   4.289   4.486
 5913TIP3    H217704   0.799   4.198   4.534
 5914TIP3   OH217705   0.705   0.450   3.301
 5914TIP3    H117706   0.630   0.409   3.346
 5914TIP3    H217707   0.669   0.479   3.217
 5915TIP3   OH217708   4.237   0.189   1.909
 5915TIP3    H117709   4.173   0.127   1.877
 5915TIP3    H217710   4.274   0.147   1.987
 5916TIP3   OH217711   6.183   1.996   0.271
 5916TIP3    H117712   6.211   2.087   0.263
 5916TIP3    H217713   6.170   1.967   0.181
 5917TIP3   OH217714   4.772   2.363   1.301
 5917TIP3    H117715   4.789   2.442   1.250
 5917TIP3    H217716   4.685   2.334   1.272
 5918TIP3   OH217717   6.145   4.506   0.723
 5918TIP3    H117718   6.183   4.534   0.639
 5918TIP3    H217719   6.203   4.436   0.753
 5919TIP3   OH217720   0.164   6.197   3.249
 5919TIP3    H117721   0.248   6.186   3.204
 5919TIP3    H217722   0.174   6.148   3.331
 5920TIP3   OH217723   3.575   1.769   5.338
 5920TIP3    H117724   3.646   1.705   5.345
 5920TIP3    H217725   3.495   1.717   5.349
 5921TIP3   OH217726   3.447   5.465   3.314
 5921TIP3    H117727   3.393   5.535   3.352
 5921TIP3    H217728   3.490   5.425   3.389
 5922TIP3   OH217729   5.865   3.654   1.972
 5922TIP3    H117730   5.901   3.735   2.009
 5922TIP3    H217731   5.809   3.683   1.899
 5923TIP3   OH217732   2.341   4.273   4.344
 5923TIP3    H117733   2.386   4.192   4.370
 5923TIP3    H217734   2.367   4.285   4.252
 5924TIP3   OH217735   3.759   5.534   1.231
 5924TIP3    H117736   3.840   5.495   1.263
 5924TIP3    H217737   3.735   5.599   1.296
 5925TIP3   OH217738   1.939   6.433   5.453
 5925TIP3    H117739   2.004   6.363   5.446
 5925TIP3    H217740   1.906   6.444   5.364
 5926TIP3   OH217741   2.910   1.865   5.223
 5926TIP3    H117742   2.957   1.792   5.263
 5926TIP3    H217743   2.977   1.912   5.174
 5927TIP3   OH217744   0.609   3.796   5.259
 5927TIP3    H117745   0.690   3.751   5.282
 5927TIP3    H217746   0.571   3.743   5.189
 5928TIP3   OH217747   2.371   3.943   2.619
 5928TIP3    H117748   2.379   3.848   2.628
 5928TIP3    H217749   2.414   3.979   2.697
 5929TIP3   OH217750   3.500   4.579   5.707
 5929TIP3    H117751   3.523   4.661   5.663
 5929TIP3    H217752   3.417   4.553   5.666
 5930TIP3   OH217753   3.768   3.581   3.707
 5930TIP3    H117754   3.732   3.661   3.669
 5930TIP3    H217755   3.855   3.606   3.737
 5931TIP3   OH217756   5.280   5.065   5.733
 5931TIP3    H117757   5.247   5.148   5.701
 5931TIP3    H217758   5.275   5.072   5.829
 5932TIP3   OH217759   0.181   0.180   1.919
 5932TIP3    H117760   0.106   0.124   1.898
 5932TIP3    H217761   0.236   0.176   1.841
 5933TIP3   OH217762   2.242   6.161   0.733
 5933TIP3    H117763   2.247   6.253   0.758
 5933TIP3    H217764   2.332   6.136   0.715
 5934TIP3   OH217765   4.555   6.728   1.542
 5934TIP3    H117766   4.505   6.661   1.496
 5934TIP3    H217767   4.638   6.685   1.564
 5935TIP3   OH217768   0.080   3.867   3.151
 5935TIP3    H117769   0.068   3.961   3.164
 5935TIP3    H217770   0.165   3.848   3.189
 5936TIP3   OH217771   1.720   1.208   3.064
 5936TIP3    H117772   1.811   1.238   3.061
 5936TIP3    H217773   1.669   1.281   3.029
 5937TIP3   OH217774   1.796   0.267   3.233
 5937TIP3    H117775   1.704   0.278   3.211
 5937TIP3    H217776   1.812   0.173   3.224
 5938TIP3   OH217777   4.870   5.436   0.375
 5938TIP3    H117778   4.799   5.498   0.358
 5938TIP3    H217779   4.878   5.386   0.294
 5939TIP3   OH217780   2.607   1.843   1.175
 5939TIP3    H117781   2.566   1.913   1.124
 5939TIP3    H217782   2.541   1.819   1.240
 5940TIP3   OH217783   4.280   4.814   2.608
 5940TIP3    H117784   4.335   4.816   2.686
 5940TIP3    H217785   4.190   4.817   2.642
 5941TIP3   OH217786   3.968   0.890   4.414
 5941TIP3    H117787   3.892   0.918   4.466
 5941TIP3    H217788   4.041   0.892   4.475
 5942TIP3   OH217789   6.873   0.924   1.014
 5942TIP3    H117790   6.902   0.864   1.082
 5942TIP3    H217791   6.937   0.912   0.943
 5943TIP3   OH217792   2.379   0.227   5.439
 5943TIP3    H117793   2.318   0.172   5.390
 5943TIP3    H217794   2.396   0.178   5.520
 5944TIP3   OH217795   7.002   4.000   5.055
 5944TIP3    H117796   6.929   4.055   5.082
 5944TIP3    H217797   7.078   4.033   5.104
 5945TIP3   OH217798   4.566   5.830   1.514
 5945TIP3    H117799   4.579   5.922   1.539
 5945TIP3    H217800   4.638   5.784   1.556
 5946TIP3   OH217801   0.170   0.279   0.583
 5946TIP3    H117802   0.083   0.307   0.555
 5946TIP3    H217803   0.228   0.309   0.513
 5947TIP3   OH217804   5.086   6.043   0.006
 5947TIP3    H117805   5.024   6.017   0.073
 5947TIP3    H217806   5.156   6.087   0.054
 5948TIP3   OH217807   4.106   2.794   3.511
 5948TIP3    H117808   4.045   2.830   3.575
 5948TIP3    H217809   4.103   2.699   3.525
 5949TIP3   OH217810   1.642   4.957   1.757
 5949TIP3    H117811   1.558   4.998   1.736
 5949TIP3    H217812   1.649   4.883   1.696
 5950TIP3   OH217813   5.977   6.657   2.262
 5950TIP3    H117814   6.030   6.580   2.282
 5950TIP3    H217815   5.960   6.697   2.347
 5951TIP3   OH217816   4.645   5.920   5.439
 5951TIP3    H117817   4.577   5.875   5.490
 5951TIP3    H217818   4.598   5.993   5.397
 5952TIP3   OH217819   4.604   0.981   3.133
 5952TIP3    H117820   4.522   1.023   3.107
 5952TIP3    H217821   4.582   0.889   3.146
 5953TIP3   OH217822   4.670   4.722   1.610
 5953TIP3    H117823   4.742   4.738   1.670
 5953TIP3    H217824   4.621   4.649   1.649
 5954TIP3   OH217825   6.398   0.948   3.287
 5954TIP3    H117826   6.425   1.001   3.361
 5954TIP3    H217827   6.343   0.880   3.326
 5955TIP3   OH217828   5.883   1.078   2.140
 5955TIP3    H117829   5.815   1.012   2.128
 5955TIP3    H217830   5.939   1.069   2.063
 5956TIP3   OH217831   1.304   3.278   4.723
 5956TIP3    H117832   1.287   3.322   4.640
 5956TIP3    H217833   1.272   3.339   4.789
 5957TIP3   OH217834   5.692   6.124   0.854
 5957TIP3    H117835   5.718   6.114   0.762
 5957TIP3    H217836   5.598   6.110   0.854
 5958TIP3   OH217837   1.959   2.623   3.590
 5958TIP3    H117838   2.002   2.573   3.520
 5958TIP3    H217839   1.883   2.663   3.548
 5959TIP3   OH217840   7.051   3.225   1.507
 5959TIP3    H117841   6.995   3.148   1.497
 5959TIP3    H217842   7.063   3.259   1.419
 5960TIP3   OH217843   5.382   1.779   3.958
 5960TIP3    H117844   5.405   1.846   4.023
 5960TIP3    H217845   5.286   1.778   3.958
 5961TIP3   OH217846   4.466   4.787   2.805
 5961TIP3    H117847   4.551   4.751   2.780
 5961TIP3    H217848   4.485   4.846   2.878
 5962TIP3   OH217849   2.703   4.644   4.925
 5962TIP3    H117850   2.737   4.582   4.860
 5962TIP3    H217851   2.687   4.724   4.876
 5963TIP3   OH217852   6.449   1.279   3.283
 5963TIP3    H117853   6.378   1.235   3.237
 5963TIP3    H217854   6.528   1.249   3.239
 5964TIP3   OH217855   6.888   3.322   0.809
 5964TIP3    H117856   6.926   3.408   0.825
 5964TIP3    H217857   6.885   3.315   0.713
 5965TIP3   OH217858   0.147   5.838   1.281
 5965TIP3    H117859   0.232   5.846   1.323
 5965TIP3    H217860   0.107   5.760   1.319
 5966TIP3   OH217861   2.930   2.933   0.225
 5966TIP3    H117862   2.939   2.969   0.313
 5966TIP3    H217863   2.991   2.859   0.223
 5967TIP3   OH217864   6.432   1.062   3.864
 5967TIP3    H117865   6.423   1.150   3.899
 5967TIP3    H217866   6.360   1.053   3.802
 5968TIP3   OH217867   0.621   3.070   2.966
 5968TIP3    H117868   0.561   3.009   3.007
 5968TIP3    H217869   0.619   3.046   2.873
 5969TIP3   OH217870   1.562   3.758   4.412
 5969TIP3    H117871   1.536   3.691   4.349
 5969TIP3    H217872   1.497   3.828   4.401
 5970TIP3   OH217873   2.673   5.288   0.285
 5970TIP3    H117874   2.692   5.240   0.366
 5970TIP3    H217875   2.755   5.285   0.236
 5971TIP3   OH217876   5.912   2.532   4.826
 5971TIP3    H117877   5.956   2.615   4.805
 5971TIP3    H217878   5.831   2.559   4.869
 5972TIP3   OH217879   0.980   4.790   0.461
 5972TIP3    H117880   0.957   4.742   0.382
 5972TIP3    H217881   0.944   4.878   0.447
 5973TIP3   OH217882   2.201   0.332   4.017
 5973TIP3    H117883   2.120   0.384   4.012
 5973TIP3    H217884   2.214   0.299   3.928
 5974TIP3   OH217885   4.840   5.478   4.696
 5974TIP3    H117886   4.934   5.493   4.688
 5974TIP3    H217887   4.809   5.551   4.751
 5975TIP3   OH217888   2.824   4.582   0.057
 5975TIP3    H117889   2.810   4.575   0.152
 5975TIP3    H217890   2.737   4.597   0.021
 5976TIP3   OH217891   5.851   6.261   0.042
 5976TIP3    H117892   5.760   6.241   0.023
 5976TIP3    H217893   5.885   6.181   0.082
 5977TIP3   OH217894   1.892   4.946   0.337
 5977TIP3    H117895   1.893   5.003   0.414
 5977TIP3    H217896   1.921   5.003   0.265
 5978TIP3   OH217897   4.055   3.552   0.930
 5978TIP3    H117898   4.096   3.561   1.016
 5978TIP3    H217899   4.012   3.466   0.934
 5979TIP3   OH217900   6.700   1.106   5.325
 5979TIP3    H117901   6.657   1.082   5.243
 5979TIP3    H217902   6.668   1.194   5.343
 5980TIP3   OH217903   0.860   0.995   1.430
 5980TIP3    H117904   0.889   1.076   1.386
 5980TIP3    H217905   0.826   1.025   1.515
 5981TIP3   OH217906   1.118   0.691   2.781
 5981TIP3    H117907   1.155   0.737   2.856
 5981TIP3    H217908   1.064   0.757   2.736
 5982TIP3   OH217909   0.592   5.753   3.828
 5982TIP3    H117910   0.513   5.784   3.872
 5982TIP3    H217911   0.565   5.670   3.786
 5983TIP3   OH217912   5.168   1.223   4.662
 5983TIP3    H117913   5.120   1.141   4.664
 5983TIP3    H217914   5.211   1.228   4.748
 5984TIP3   OH217915   6.184   0.105   3.811
 5984TIP3    H117916   6.239   0.145   3.743
 5984TIP3    H217917   6.233   0.117   3.892
 5985TIP3   OH217918   3.399   4.500   0.626
 5985TIP3    H117919   3.447   4.568   0.579
 5985TIP3    H217920   3.338   4.548   0.682
 5986TIP3   OH217921   3.020   1.880   3.198
 5986TIP3    H117922   3.111   1.886   3.226
 5986TIP3    H217923   2.971   1.924   3.268
 5987TIP3   OH217924   4.178   0.853   4.224
 5987TIP3    H117925   4.106   0.895   4.271
 5987TIP3    H217926   4.153   0.860   4.132
 5988TIP3   OH217927   6.912   4.257   5.442
 5988TIP3    H117928   6.915   4.348   5.412
 5988TIP3    H217929   6.822   4.229   5.425
 5989TIP3   OH217930   0.207   0.451   4.960
 5989TIP3    H117931   0.256   0.494   4.890
 5989TIP3    H217932   0.256   0.472   5.040
 5990TIP3   OH217933   1.732   2.725   3.441
 5990TIP3    H117934   1.683   2.714   3.359
 5990TIP3    H217935   1.674   2.775   3.497
 5991TIP3   OH217936   2.375   0.645   0.196
 5991TIP3    H117937   2.432   0.599   0.259
 5991TIP3    H217938   2.304   0.584   0.179
 5992TIP3   OH217939   3.276   0.221   4.169
 5992TIP3    H117940   3.313   0.164   4.102
 5992TIP3    H217941   3.259   0.163   4.243
 5993TIP3   OH217942   6.051   3.009   1.041
 5993TIP3    H117943   5.976   3.067   1.034
 5993TIP3    H217944   6.044   2.971   1.129
 5994TIP3   OH217945   6.398   1.577   0.620
 5994TIP3    H117946   6.411   1.629   0.540
 5994TIP3    H217947   6.310   1.601   0.649
 5995TIP3   OH217948   2.056   1.514   1.561
 5995TIP3    H117949   1.961   1.515   1.558
 5995TIP3    H217950   2.080   1.597   1.604
 5996TIP3   OH217951   2.456   3.760   5.782
 5996TIP3    H117952   2.490   3.674   5.755
 5996TIP3    H217953   2.522   3.822   5.752
 5997TIP3   OH217954   1.070   5.462   3.562
 5997TIP3    H117955   1.157   5.480   3.597
 5997TIP3    H217956   1.057   5.368   3.578
 5998TIP3   OH217957   2.790   5.751   2.608
 5998TIP3    H117958   2.761   5.779   2.521
 5998TIP3    H217959   2.840   5.826   2.642
 5999TIP3   OH217960   1.578   4.424   1.005
 5999TIP3    H117961   1.645   4.473   1.053
 5999TIP3    H217962   1.527   4.492   0.960
 6000TIP3   OH217963   2.767   6.377   5.025
 6000TIP3    H117964   2.679   6.339   5.030
 6000TIP3    H217965   2.822   6.317   5.074
 6001TIP3   OH217966   0.115   3.543   3.280
 6001TIP3    H117967   0.167   3.538   3.360
 6001TIP3    H217968   0.176   3.576   3.213
 6002TIP3   OH217969   4.011   5.561   5.318
 6002TIP3    H117970   3.978   5.503   5.386
 6002TIP3    H217971   3.940   5.568   5.255
 6003TIP3   OH217972   2.573   3.030   0.198
 6003TIP3    H117973   2.633   2.965   0.232
 6003TIP3    H217974   2.534   2.989   0.121
 6004TIP3   OH217975   0.307   1.276   3.047
 6004TIP3    H117976   0.372   1.209   3.069
 6004TIP3    H217977   0.256   1.288   3.127
 6005TIP3   OH217978   2.395   4.967   1.790
 6005TIP3    H117979   2.385   4.886   1.841
 6005TIP3    H217980   2.489   4.986   1.794
 6006TIP3   OH217981   6.987   2.133   3.790
 6006TIP3    H117982   7.043   2.210   3.780
 6006TIP3    H217983   6.921   2.159   3.853
 6007TIP3   OH217984   5.399   0.442   3.478
 6007TIP3    H117985   5.488   0.472   3.459
 6007TIP3    H217986   5.344   0.492   3.417
 6008TIP3   OH217987   5.991   0.971   2.368
 6008TIP3    H117988   6.010   1.018   2.287
 6008TIP3    H217989   5.919   0.913   2.346
 6009TIP3   OH217990   6.167   0.527   4.431
 6009TIP3    H117991   6.083   0.550   4.472
 6009TIP3    H217992   6.232   0.577   4.480
 6010TIP3   OH217993   2.473   2.792   1.027
 6010TIP3    H117994   2.435   2.767   0.942
 6010TIP3    H217995   2.540   2.726   1.043
 6011TIP3   OH217996   5.231   0.099   5.779
 6011TIP3    H117997   5.239   0.077   5.872
 6011TIP3    H217998   5.141   0.130   5.769
 6012TIP3   OH217999   5.658   3.455   2.295
 6012TIP3    H118000   5.618   3.525   2.242
 6012TIP3    H218001   5.711   3.406   2.233
 6013TIP3   OH218002   5.600   1.178   0.137
 6013TIP3    H118003   5.614   1.270   0.114
 6013TIP3    H218004   5.628   1.172   0.229
 6014TIP3   OH218005   1.642   4.416   5.216
 6014TIP3    H118006   1.601   4.456   5.140
 6014TIP3    H218007   1.709   4.479   5.243
 6015TIP3   OH218008   0.260   3.072   1.113
 6015TIP3    H118009   0.271   3.101   1.022
 6015TIP3    H218010   0.220   3.147   1.157
 6016TIP3   OH218011   4.575   5.328   5.279
 6016TIP3    H118012   4.589   5.262   5.347
 6016TIP3    H218013   4.550   5.406   5.327
 6017TIP3   OH218014   4.552   4.173   2.787
 6017TIP3    H118015   4.497   4.224   2.728
 6017TIP3    H218016   4.548   4.219   2.870
 6018TIP3   OH218017   0.130   4.496   1.001
 6018TIP3    H118018   0.114   4.548   1.079
 6018TIP3    H218019   0.220   4.517   0.975
 6019TIP3   OH218020   7.092   1.182   2.530
 6019TIP3    H118021   7.099   1.112   2.595
 6019TIP3    H218022   6.999   1.203   2.528
 6020TIP3   OH218023   5.926   4.497   4.377
 6020TIP3    H118024   5.880   4.433   4.431
 6020TIP3    H218025   5.907   4.582   4.418
 6021TIP3   OH218026   3.801   0.853   5.232
 6021TIP3    H118027   3.780   0.827   5.142
 6021TIP3    H218028   3.762   0.784   5.286
 6022TIP3   OH218029   6.669   5.111   0.392
 6022TIP3    H118030   6.621   5.111   0.475
 6022TIP3    H218031   6.761   5.108   0.418
 6023TIP3   OH218032   2.265   6.524   2.660
 6023TIP3    H118033   2.333   6.476   2.612
 6023TIP3    H218034   2.268   6.613   2.625
 6024TIP3   OH218035   2.843   6.239   0.721
 6024TIP3    H118036   2.925   6.253   0.674
 6024TIP3    H218037   2.816   6.151   0.697
 6025TIP3   OH218038   2.018   5.943   5.036
 6025TIP3    H118039   1.981   5.855   5.026
 6025TIP3    H218040   2.092   5.945   4.975
 6026TIP3   OH218041   0.783   0.220   3.091
 6026TIP3    H118042   0.754   0.284   3.155
 6026TIP3    H218043   0.763   0.260   3.006
 6027TIP3   OH218044   1.263   2.394   2.418
 6027TIP3    H118045   1.209   2.316   2.404
 6027TIP3    H218046   1.330   2.366   2.480
 6028TIP3   OH218047   4.757   2.073   1.297
 6028TIP3    H118048   4.697   2.040   1.364
 6028TIP3    H218049   4.768   2.166   1.318
 6029TIP3   OH218050   6.444   1.652   3.812
 6029TIP3    H118051   6.420   1.642   3.720
 6029TIP3    H218052   6.360   1.661   3.858
 6030TIP3   OH218053   5.165   1.297   0.971
 6030TIP3    H118054   5.256   1.328   0.964
 6030TIP3    H218055   5.172   1.202   0.968
 6031TIP3   OH218056   3.572   5.409   0.497
 6031TIP3    H118057   3.528   5.448   0.573
 6031TIP3    H218058   3.505   5.404   0.430
 6032TIP3   OH218059   2.182   0.053   4.935
 6032TIP3    H118060   2.160   0.138   4.897
 6032TIP3    H218061   2.169  -0.010   4.865
 6033TIP3   OH218062   0.007   1.096   2.873
 6033TIP3    H118063   0.074   1.140   2.821
 6033TIP3    H218064  -0.067   1.158   2.875
 6034TIP3   OH218065   2.106   6.429   2.872
 6034TIP3    H118066   2.141   6.471   2.793
 6034TIP3    H218067   2.076   6.343   2.842
 6035TIP3   OH218068   1.941   5.662   4.484
 6035TIP3    H118069   1.885   5.690   4.557
 6035TIP3    H218070   1.921   5.569   4.474
 6036TIP3   OH218071   1.568   5.034   3.745
 6036TIP3    H118072   1.515   5.073   3.676
 6036TIP3    H218073   1.513   4.964   3.780
 6037TIP3   OH218074   4.969   6.468   4.035
 6037TIP3    H118075   4.930   6.418   3.963
 6037TIP3    H218076   5.012   6.541   3.991
 6038TIP3   OH218077   4.631   5.284   2.181
 6038TIP3    H118078   4.614   5.346   2.252
 6038TIP3    H218079   4.617   5.335   2.101
 6039TIP3   OH218080   6.256   5.016   2.303
 6039TIP3    H118081   6.206   4.966   2.239
 6039TIP3    H218082   6.194   5.080   2.337
 6040TIP3   OH218083   7.082   4.986   3.315
 6040TIP3    H118084   7.145   4.955   3.250
 6040TIP3    H218085   7.003   4.935   3.299
 6041TIP3   OH218086   3.805   6.309   4.454
 6041TIP3    H118087   3.845   6.298   4.367
 6041TIP3    H218088   3.816   6.402   4.474
 6042TIP3   OH218089   2.869   4.036   4.494
 6042TIP3    H118090   2.858   4.127   4.467
 6042TIP3    H218091   2.780   4.003   4.505
 6043TIP3   OH218092   3.428   4.973   0.315
 6043TIP3    H118093   3.443   5.029   0.391
 6043TIP3    H218094   3.418   5.034   0.242
 6044TIP3   OH218095   4.108   5.827   5.312
 6044TIP3    H118096   4.022   5.852   5.278
 6044TIP3    H218097   4.101   5.732   5.324
 6045TIP3   OH218098   5.364   2.798   3.781
 6045TIP3    H118099   5.304   2.753   3.840
 6045TIP3    H218100   5.451   2.776   3.814
 6046TIP3   OH218101   0.087   2.217   5.624
 6046TIP3    H118102   0.156   2.151   5.628
 6046TIP3    H218103   0.102   2.262   5.541
 6047TIP3   OH218104   5.011   3.358   2.561
 6047TIP3    H118105   4.947   3.291   2.584
 6047TIP3    H218106   5.062   3.373   2.641
 6048TIP3   OH218107   5.206   3.989   0.382
 6048TIP3    H118108   5.141   4.019   0.446
 6048TIP3    H218109   5.154   3.956   0.309
 6049TIP3   OH218110   2.776   3.974   1.025
 6049TIP3    H118111   2.694   3.927   1.010
 6049TIP3    H218112   2.760   4.062   0.991
 6050TIP3   OH218113   6.670   3.762   4.901
 6050TIP3    H118114   6.579   3.740   4.917
 6050TIP3    H218115   6.709   3.768   4.988
 6051TIP3   OH218116   0.749   5.143   2.069
 6051TIP3    H118117   0.736   5.052   2.096
 6051TIP3    H218118   0.843   5.156   2.071
 6052TIP3   OH218119   0.082   2.107   0.754
 6052TIP3    H118120   0.068   2.147   0.668
 6052TIP3    H218121   0.167   2.065   0.748
 6053TIP3   OH218122   5.132   5.289   3.149
 6053TIP3    H118123   5.226   5.301   3.156
 6053TIP3    H218124   5.095   5.351   3.211
 6054TIP3   OH218125   4.290   2.556   1.972
 6054TIP3    H118126   4.279   2.594   1.885
 6054TIP3    H218127   4.247   2.617   2.031
 6055TIP3   OH218128   2.541   1.485   1.029
 6055TIP3    H118129   2.457   1.456   0.992
 6055TIP3    H218130   2.534   1.468   1.122
 6056TIP3   OH218131   1.921   5.420   4.269
 6056TIP3    H118132   1.861   5.369   4.324
 6056TIP3    H218133   1.976   5.355   4.226
 6057TIP3   OH218134   1.084   6.659   2.687
 6057TIP3    H118135   1.070   6.708   2.605
 6057TIP3    H218136   1.151   6.710   2.733
 6058TIP3   OH218137   3.038   1.327   1.854
 6058TIP3    H118138   3.076   1.412   1.833
 6058TIP3    H218139   2.949   1.346   1.883
 6059TIP3   OH218140   5.083   5.985   4.142
 6059TIP3    H118141   5.069   6.034   4.062
 6059TIP3    H218142   5.071   5.894   4.117
 6060TIP3   OH218143   4.429   3.243   3.787
 6060TIP3    H118144   4.498   3.261   3.723
 6060TIP3    H218145   4.389   3.329   3.802
 6061TIP3   OH218146   3.450   2.245   3.720
 6061TIP3    H118147   3.492   2.324   3.754
 6061TIP3    H218148   3.401   2.274   3.643
 6062TIP3   OH218149   3.741   0.971   2.413
 6062TIP3    H118150   3.675   0.939   2.474
 6062TIP3    H218151   3.792   0.894   2.389
 6063TIP3   OH218152   5.275   2.598   5.216
 6063TIP3    H118153   5.359   2.584   5.259
 6063TIP3    H218154   5.212   2.602   5.288
 6064TIP3   OH218155   6.216   4.781   1.160
 6064TIP3    H118156   6.278   4.844   1.196
 6064TIP3    H218157   6.259   4.747   1.082
 6065TIP3   OH218158   6.201   0.026   1.124
 6065TIP3    H118159   6.200   0.013   1.029
 6065TIP3    H218160   6.288   0.061   1.142
 6066TIP3   OH218161   2.073   2.356   2.348
 6066TIP3    H118162   2.091   2.263   2.338
 6066TIP3    H218163   2.156   2.394   2.376
 6067TIP3   OH218164   1.666   4.537   0.119
 6067TIP3    H118165   1.744   4.558   0.170
 6067TIP3    H218166   1.615   4.618   0.118
 6068TIP3   OH218167   6.095   3.793   5.701
 6068TIP3    H118168   6.156   3.731   5.661
 6068TIP3    H218169   6.138   3.822   5.781
 6069TIP3   OH218170   3.421   3.306   5.299
 6069TIP3    H118171   3.478   3.345   5.366
 6069TIP3    H218172   3.442   3.354   5.219
 6070TIP3   OH218173   1.008   5.356   2.960
 6070TIP3    H118174   1.000   5.336   2.867
 6070TIP3    H218175   1.002   5.271   3.003
 6071TIP3   OH218176   6.052   0.800   5.548
 6071TIP3    H118177   5.988   0.867   5.524
 6071TIP3    H218178   6.122   0.848   5.593
 6072TIP3   OH218179   0.077   5.499   4.131
 6072TIP3    H118180   0.039   5.479   4.216
 6072TIP3    H218181   0.164   5.459   4.133
 6073TIP3   OH218182   6.060   5.149   3.204
 6073TIP3    H118183   5.980   5.137   3.254
 6073TIP3    H218184   6.032   5.146   3.112
 6074TIP3   OH218185   4.157   3.262   1.715
 6074TIP3    H118186   4.068   3.236   1.737
 6074TIP3    H218187   4.174   3.338   1.771
 6075TIP3   OH218188   1.111   1.608   0.400
 6075TIP3    H118189   1.179   1.581   0.337
 6075TIP3    H218190   1.134   1.698   0.422
 6076TIP3   OH218191   5.151   0.863   0.631
 6076TIP3    H118192   5.061   0.863   0.663
 6076TIP3    H218193   5.190   0.785   0.669
 6077TIP3   OH218194   2.959   4.031   2.286
 6077TIP3    H118195   2.901   3.955   2.278
 6077TIP3    H218196   2.901   4.102   2.314
 6078TIP3   OH218197   3.847   1.368   3.590
 6078TIP3    H118198   3.783   1.435   3.566
 6078TIP3    H218199   3.892   1.404   3.666
 6079TIP3   OH218200   2.775   4.516   1.669
 6079TIP3    H118201   2.691   4.548   1.636
 6079TIP3    H218202   2.770   4.528   1.764
 6080TIP3   OH218203   0.405   2.009   1.578
 6080TIP3    H118204   0.416   2.099   1.547
 6080TIP3    H218205   0.450   1.955   1.513
 6081TIP3   OH218206   4.029   6.306   4.710
 6081TIP3    H118207   4.024   6.309   4.806
 6081TIP3    H218208   3.971   6.376   4.681
 6082TIP3   OH218209   2.944   1.760   4.540
 6082TIP3    H118210   2.924   1.778   4.632
 6082TIP3    H218211   2.873   1.804   4.492
 6083TIP3   OH218212   3.482   4.695   1.362
 6083TIP3    H118213   3.469   4.620   1.303
 6083TIP3    H218214   3.558   4.740   1.326
 6084TIP3   OH218215   2.196   5.593   1.509
 6084TIP3    H118216   2.268   5.604   1.572
 6084TIP3    H218217   2.133   5.537   1.555
 6085TIP3   OH218218   6.304   3.288   4.230
 6085TIP3    H118219   6.358   3.211   4.252
 6085TIP3    H218220   6.299   3.337   4.312
 6086TIP3   OH218221   2.572   3.947   3.961
 6086TIP3    H118222   2.605   3.955   4.050
 6086TIP3    H218223   2.644   3.976   3.905
 6087TIP3   OH218224   5.756   5.048   1.315
 6087TIP3    H118225   5.698   4.981   1.279
 6087TIP3    H218226   5.704   5.129   1.312
 6088TIP3   OH218227   5.931   5.336   2.148
 6088TIP3    H118228   5.865   5.272   2.120
 6088TIP3    H218229   5.958   5.379   2.067
 6089TIP3   OH218230   4.564   5.906   1.183
 6089TIP3    H118231   4.596   5.835   1.239
 6089TIP3    H218232   4.484   5.873   1.145
 6090TIP3   OH218233   7.067   5.916   5.050
 6090TIP3    H118234   7.025   5.831   5.038
 6090TIP3    H218235   6.995   5.979   5.042
 6091TIP3   OH218236   1.073   1.851   4.782
 6091TIP3    H118237   1.026   1.782   4.736
 6091TIP3    H218238   1.022   1.865   4.862
 6092TIP3   OH218239   6.012   0.936   3.132
 6092TIP3    H118240   6.021   0.996   3.206
 6092TIP3    H218241   5.939   0.879   3.156
 6093TIP3   OH218242   1.351   2.515   5.237
 6093TIP3    H118243   1.340   2.609   5.225
 6093TIP3    H218244   1.268   2.486   5.275
 6094TIP3   OH218245   6.119   3.558   1.801
 6094TIP3    H118246   6.068   3.517   1.732
 6094TIP3    H218247   6.054   3.603   1.855
 6095TIP3   OH218248   2.575   6.117   4.886
 6095TIP3    H118249   2.665   6.127   4.919
 6095TIP3    H218250   2.583   6.059   4.811
 6096TIP3   OH218251   5.156   2.491   3.299
 6096TIP3    H118252   5.157   2.400   3.329
 6096TIP3    H218253   5.082   2.531   3.344
 6097TIP3   OH218254   1.529   6.657   4.987
 6097TIP3    H118255   1.545   6.564   4.976
 6097TIP3    H218256   1.464   6.678   4.920
 6098TIP3   OH218257   4.441   4.481   3.697
 6098TIP3    H118258   4.441   4.385   3.702
 6098TIP3    H218259   4.434   4.499   3.603
 6099TIP3   OH218260   4.029   2.955   2.851
 6099TIP3    H118261   3.973   2.948   2.775
 6099TIP3    H218262   4.111   2.991   2.817
 6100TIP3   OH218263   1.565   4.074   0.204
 6100TIP3    H118264   1.500   4.034   0.261
 6100TIP3    H218265   1.642   4.085   0.260
 6101TIP3   OH218266   7.041   4.793   1.988
 6101TIP3    H118267   7.124   4.765   1.948
 6101TIP3    H218268   6.979   4.794   1.915
 6102TIP3   OH218269   3.245   5.832   2.076
 6102TIP3    H118270   3.218   5.781   2.153
 6102TIP3    H218271   3.339   5.846   2.088
 6103TIP3   OH218272   1.774   2.927   5.662
 6103TIP3    H118273   1.740   2.839   5.643
 6103TIP3    H218274   1.748   2.943   5.753
 6104TIP3   OH218275   1.136   3.570   0.977
 6104TIP3    H118276   1.181   3.489   1.002
 6104TIP3    H218277   1.164   3.634   1.042
 6105TIP3   OH218278   3.852   1.818   5.572
 6105TIP3    H118279   3.831   1.725   5.584
 6105TIP3    H218280   3.892   1.822   5.485
 6106TIP3   OH218281   6.950   5.873   3.913
 6106TIP3    H118282   6.930   5.819   3.837
 6106TIP3    H218283   7.013   5.822   3.965
 6107TIP3   OH218284   5.392   4.109   3.390
 6107TIP3    H118285   5.449   4.089   3.464
 6107TIP3    H218286   5.414   4.043   3.324
 6108TIP3   OH218287   2.218   2.432   4.647
 6108TIP3    H118288   2.219   2.527   4.658
 6108TIP3    H218289   2.310   2.408   4.635
 6109TIP3   OH218290   4.266   3.492   4.546
 6109TIP3    H118291   4.328   3.556   4.512
 6109TIP3    H218292   4.195   3.545   4.583
 6110TIP3   OH218293   6.490   3.099   5.268
 6110TIP3    H118294   6.407   3.062   5.238
 6110TIP3    H218295   6.536   3.025   5.308
 6111TIP3   OH218296   0.735   3.333   1.676
 6111TIP3    H118297   0.768   3.246   1.697
 6111TIP3    H218298   0.808   3.377   1.633
 6112TIP3   OH218299   1.627   5.245   5.629
 6112TIP3    H118300   1.640   5.243   5.534
 6112TIP3    H218301   1.543   5.199   5.642
 6113TIP3   OH218302   6.839   2.168   4.838
 6113TIP3    H118303   6.814   2.211   4.919
 6113TIP3    H218304   6.920   2.211   4.811
 6114TIP3   OH218305   1.632   6.622   3.775
 6114TIP3    H118306   1.645   6.538   3.731
 6114TIP3    H218307   1.537   6.635   3.773
 6115TIP3   OH218308   3.265   3.404   2.016
 6115TIP3    H118309   3.353   3.369   2.030
 6115TIP3    H218310   3.275   3.463   1.941
 6116TIP3   OH218311   1.762   0.472   5.450
 6116TIP3    H118312   1.708   0.550   5.459
 6116TIP3    H218313   1.851   0.506   5.441
 6117TIP3   OH218314   7.016   3.364   3.746
 6117TIP3    H118315   6.957   3.323   3.810
 6117TIP3    H218316   6.960   3.427   3.700
 6118TIP3   OH218317   0.076   3.762   3.868
 6118TIP3    H118318   0.010   3.717   3.814
 6118TIP3    H218319   0.157   3.755   3.818
 6119TIP3   OH218320   1.606   5.188   0.195
 6119TIP3    H118321   1.612   5.092   0.197
 6119TIP3    H218322   1.683   5.216   0.146
 6120TIP3   OH218323   1.269   5.310   0.414
 6120TIP3    H118324   1.187   5.348   0.443
 6120TIP3    H218325   1.249   5.218   0.397
 6121TIP3   OH218326   2.948   0.080   2.958
 6121TIP3    H118327   2.965   0.048   3.047
 6121TIP3    H218328   2.854   0.068   2.946
 6122TIP3   OH218329   0.346   2.035   4.962
 6122TIP3    H118330   0.268   2.040   4.907
 6122TIP3    H218331   0.412   1.992   4.907
 6123TIP3   OH218332   3.332   1.939   0.339
 6123TIP3    H118333   3.312   1.948   0.246
 6123TIP3    H218334   3.340   2.029   0.370
 6124TIP3   OH218335   6.246   4.801   4.541
 6124TIP3    H118336   6.199   4.882   4.522
 6124TIP3    H218337   6.224   4.781   4.632
 6125TIP3   OH218338   5.022   5.504   5.225
 6125TIP3    H118339   5.026   5.534   5.316
 6125TIP3    H218340   5.095   5.442   5.217
 6126TIP3   OH218341   6.075   1.046   0.604
 6126TIP3    H118342   6.047   1.004   0.685
 6126TIP3    H218343   6.156   1.091   0.627
 6127TIP3   OH218344   6.272   5.466   1.062
 6127TIP3    H118345   6.181   5.441   1.075
 6127TIP3    H218346   6.289   5.532   1.130
 6128TIP3   OH218347   2.889   2.639   2.981
 6128TIP3    H118348   2.865   2.696   2.908
 6128TIP3    H218349   2.966   2.680   3.019
 6129TIP3   OH218350   3.068   0.139   1.908
 6129TIP3    H118351   3.085   0.231   1.888
 6129TIP3    H218352   3.040   0.101   1.824
 6130TIP3   OH218353   3.596   0.599   3.773
 6130TIP3    H118354   3.592   0.686   3.733
 6130TIP3    H218355   3.602   0.616   3.867
 6131TIP3   OH218356   3.299   3.131   3.441
 6131TIP3    H118357   3.265   3.172   3.362
 6131TIP3    H218358   3.224   3.084   3.478
 6132TIP3   OH218359   6.541   4.826   3.214
 6132TIP3    H118360   6.513   4.794   3.128
 6132TIP3    H218361   6.506   4.915   3.219
 6133TIP3   OH218362   2.158   1.119   1.665
 6133TIP3    H118363   2.067   1.110   1.695
 6133TIP3    H218364   2.204   1.047   1.709
 6134TIP3   OH218365   4.702   0.543   1.474
 6134TIP3    H118366   4.629   0.605   1.479
 6134TIP3    H218367   4.707   0.504   1.561
 6135TIP3   OH218368   4.352   2.167   0.852
 6135TIP3    H118369   4.371   2.074   0.867
 6135TIP3    H218370   4.399   2.188   0.771
 6136TIP3   OH218371   5.269   5.158   4.275
 6136TIP3    H118372   5.313   5.176   4.192
 6136TIP3    H218373   5.331   5.104   4.324
 6137TIP3   OH218374   6.703   6.166   3.017
 6137TIP3    H118375   6.613   6.179   2.986
 6137TIP3    H218376   6.757   6.213   2.954
 6138TIP3   OH218377   2.288   3.889   0.305
 6138TIP3    H118378   2.212   3.857   0.355
 6138TIP3    H218379   2.363   3.869   0.361
 6139TIP3   OH218380   4.472   3.470   4.200
 6139TIP3    H118381   4.386   3.496   4.232
 6139TIP3    H218382   4.471   3.494   4.107
 6140TIP3   OH218383   2.477   5.924   2.555
 6140TIP3    H118384   2.441   5.949   2.470
 6140TIP3    H218385   2.436   5.984   2.617
 6141TIP3   OH218386   0.809   6.226   5.450
 6141TIP3    H118387   0.754   6.227   5.373
 6141TIP3    H218388   0.829   6.319   5.466
 6142TIP3   OH218389   1.649   4.385   1.645
 6142TIP3    H118390   1.628   4.427   1.562
 6142TIP3    H218391   1.629   4.451   1.712
 6143TIP3   OH218392   6.374   0.120   0.601
 6143TIP3    H118393   6.281   0.130   0.583
 6143TIP3    H218394   6.400   0.201   0.644
 6144TIP3   OH218395   2.394   6.458   1.059
 6144TIP3    H118396   2.328   6.452   1.127
 6144TIP3    H218397   2.408   6.368   1.031
 6145TIP3   OH218398   6.489   3.562   0.703
 6145TIP3    H118399   6.480   3.542   0.796
 6145TIP3    H218400   6.575   3.527   0.679
 6146TIP3   OH218401   1.784   6.780   0.302
 6146TIP3    H118402   1.815   6.694   0.330
 6146TIP3    H218403   1.775   6.774   0.207
 6147TIP3   OH218404   2.283   3.937   0.018
 6147TIP3    H118405   2.296   3.928   0.113
 6147TIP3    H218406   2.204   3.990   0.009
 6148TIP3   OH218407   0.160   0.055   2.359
 6148TIP3    H118408   0.110   0.119   2.307
 6148TIP3    H218409   0.143  -0.028   2.316
 6149TIP3   OH218410   0.906   3.188   2.646
 6149TIP3    H118411   0.939   3.138   2.720
 6149TIP3    H218412   0.871   3.122   2.586
 6150TIP3   OH218413   3.071   4.122   4.222
 6150TIP3    H118414   3.131   4.184   4.264
 6150TIP3    H218415   3.097   4.036   4.257
 6151TIP3   OH218416   3.595   2.252   2.170
 6151TIP3    H118417   3.647   2.299   2.105
 6151TIP3    H218418   3.506   2.283   2.157
 6152TIP3   OH218419   5.999   3.922   2.937
 6152TIP3    H118420   5.966   3.967   3.015
 6152TIP3    H218421   5.968   3.832   2.946
 6153TIP3   OH218422   3.889   1.662   4.257
 6153TIP3    H118423   3.800   1.667   4.290
 6153TIP3    H218424   3.901   1.570   4.234
 6154TIP3   OH218425   1.122   2.821   1.645
 6154TIP3    H118426   1.050   2.784   1.594
 6154TIP3    H218427   1.190   2.754   1.642
 6155TIP3   OH218428   2.312   5.318   3.857
 6155TIP3    H118429   2.292   5.254   3.926
 6155TIP3    H218430   2.251   5.296   3.786
 6156TIP3   OH218431   7.155   3.282   4.307
 6156TIP3    H118432   7.136   3.364   4.262
 6156TIP3    H218433   7.074   3.260   4.354
 6157TIP3   OH218434   4.619   3.952   2.196
 6157TIP3    H118435   4.631   3.863   2.228
 6157TIP3    H218436   4.534   3.951   2.153
 6158TIP3   OH218437   6.044   1.083   5.538
 6158TIP3    H118438   6.072   1.064   5.449
 6158TIP3    H218439   5.970   1.143   5.528
 6159TIP3   OH218440   4.844   3.453   0.365
 6159TIP3    H118441   4.763   3.416   0.399
 6159TIP3    H218442   4.848   3.542   0.402
 6160TIP3   OH218443   2.750   2.504   3.182
 6160TIP3    H118444   2.780   2.573   3.122
 6160TIP3    H218445   2.764   2.423   3.134
 6161TIP3   OH218446   0.940   6.873   3.075
 6161TIP3    H118447   0.953   6.783   3.044
 6161TIP3    H218448   0.981   6.874   3.162
 6162TIP3   OH218449   3.655   4.713   3.548
 6162TIP3    H118450   3.584   4.725   3.611
 6162TIP3    H218451   3.631   4.634   3.500
 6163TIP3   OH218452   4.169   3.085   0.917
 6163TIP3    H118453   4.219   3.150   0.966
 6163TIP3    H218454   4.164   3.121   0.828
 6164TIP3   OH218455   4.380   2.741   2.608
 6164TIP3    H118456   4.442   2.689   2.556
 6164TIP3    H218457   4.302   2.747   2.554
 6165TIP3   OH218458   0.021   0.955   0.881
 6165TIP3    H118459  -0.040   0.901   0.830
 6165TIP3    H218460   0.107   0.916   0.865
 6166TIP3   OH218461   5.367   5.487   2.381
 6166TIP3    H118462   5.408   5.570   2.405
 6166TIP3    H218463   5.290   5.512   2.330
 6167TIP3   OH218464   3.674   4.516   0.810
 6167TIP3    H118465   3.580   4.495   0.811
 6167TIP3    H218466   3.710   4.460   0.741
 6168TIP3   OH218467   6.993   3.138   1.008
 6168TIP3    H118468   6.978   3.200   0.937
 6168TIP3    H218469   6.990   3.191   1.088
 6169TIP3   OH218470   0.870   0.831   4.673
 6169TIP3    H118471   0.868   0.790   4.759
 6169TIP3    H218472   0.856   0.760   4.611
 6170TIP3   OH218473   3.443   3.768   5.022
 6170TIP3    H118474   3.394   3.828   5.078
 6170TIP3    H218475   3.527   3.812   5.007
 6171TIP3   OH218476   2.416   2.437   5.287
 6171TIP3    H118477   2.406   2.512   5.346
 6171TIP3    H218478   2.409   2.474   5.199
 6172TIP3   OH218479   4.206   6.380   3.633
 6172TIP3    H118480   4.188   6.301   3.583
 6172TIP3    H218481   4.267   6.351   3.701
 6173TIP3   OH218482   4.400   3.777   2.484
 6173TIP3    H118483   4.364   3.854   2.528
 6173TIP3    H218484   4.334   3.754   2.419
 6174TIP3   OH218485   1.262   3.456   3.221
 6174TIP3    H118486   1.248   3.511   3.144
 6174TIP3    H218487   1.234   3.368   3.194
 6175TIP3   OH218488   1.855   2.890   2.467
 6175TIP3    H118489   1.766   2.867   2.438
 6175TIP3    H218490   1.848   2.980   2.497
 6176TIP3   OH218491   2.755   5.063   5.502
 6176TIP3    H118492   2.750   5.112   5.584
 6176TIP3    H218493   2.769   5.130   5.435
 6177TIP3   OH218494   6.338   2.275   1.253
 6177TIP3    H118495   6.358   2.206   1.189
 6177TIP3    H218496   6.400   2.345   1.232
 6178TIP3   OH218497   6.280   1.234   1.739
 6178TIP3    H118498   6.228   1.313   1.726
 6178TIP3    H218499   6.370   1.261   1.725
 6179TIP3   OH218500   6.205   0.634   3.845
 6179TIP3    H118501   6.195   0.652   3.939
 6179TIP3    H218502   6.156   0.553   3.831
 6180TIP3   OH218503   3.172   5.768   4.036
 6180TIP3    H118504   3.152   5.674   4.039
 6180TIP3    H218505   3.197   5.790   4.126
 6181TIP3   OH218506   6.682   3.766   1.731
 6181TIP3    H118507   6.666   3.723   1.815
 6181TIP3    H218508   6.596   3.769   1.690
 6182TIP3   OH218509   1.808   1.632   4.898
 6182TIP3    H118510   1.766   1.615   4.983
 6182TIP3    H218511   1.797   1.726   4.885
 6183TIP3   OH218512   3.778   1.324   5.506
 6183TIP3    H118513   3.692   1.359   5.532
 6183TIP3    H218514   3.757   1.241   5.463
 6184TIP3   OH218515   1.618   5.584   4.039
 6184TIP3    H118516   1.562   5.526   3.989
 6184TIP3    H218517   1.558   5.643   4.085
 6185TIP3   OH218518   2.522   1.481   2.331
 6185TIP3    H118519   2.434   1.471   2.369
 6185TIP3    H218520   2.581   1.473   2.405
 6186TIP3   OH218521   1.703   4.230   5.692
 6186TIP3    H118522   1.797   4.221   5.706
 6186TIP3    H218523   1.684   4.174   5.617
 6187TIP3   OH218524   1.591   6.032   2.279
 6187TIP3    H118525   1.513   6.076   2.312
 6187TIP3    H218526   1.640   6.008   2.358
 6188TIP3   OH218527   4.757   1.646   2.216
 6188TIP3    H118528   4.784   1.605   2.299
 6188TIP3    H218529   4.833   1.699   2.190
 6189TIP3   OH218530   3.798   6.118   3.032
 6189TIP3    H118531   3.834   6.156   2.951
 6189TIP3    H218532   3.837   6.171   3.102
 6190TIP3   OH218533   6.746   0.100   2.277
 6190TIP3    H118534   6.711   0.189   2.277
 6190TIP3    H218535   6.763   0.081   2.185
 6191TIP3   OH218536   0.628   0.895   1.264
 6191TIP3    H118537   0.668   0.962   1.319
 6191TIP3    H218538   0.668   0.907   1.179
 6192TIP3   OH218539   5.248   3.412   2.448
 6192TIP3    H118540   5.283   3.472   2.513
 6192TIP3    H218541   5.160   3.391   2.479
 6193TIP3   OH218542   6.897   2.647   1.953
 6193TIP3    H118543   6.958   2.575   1.970
 6193TIP3    H218544   6.811   2.606   1.956
 6194TIP3   OH218545   6.735   2.827   4.706
 6194TIP3    H118546   6.822   2.862   4.687
 6194TIP3    H218547   6.737   2.738   4.670
 6195TIP3   OH218548   1.876   4.740   3.497
 6195TIP3    H118549   1.789   4.747   3.534
 6195TIP3    H218550   1.885   4.647   3.474
 6196TIP3   OH218551   7.035   5.202   0.871
 6196TIP3    H118552   6.946   5.231   0.851
 6196TIP3    H218553   7.043   5.117   0.827
 6197TIP3   OH218554   1.607   4.840   3.198
 6197TIP3    H118555   1.537   4.806   3.254
 6197TIP3    H218556   1.650   4.907   3.251
 6198TIP3   OH218557   2.381   6.325   4.176
 6198TIP3    H118558   2.376   6.391   4.245
 6198TIP3    H218559   2.450   6.357   4.118
 6199TIP3   OH218560   4.189   6.082   0.307
 6199TIP3    H118561   4.284   6.073   0.301
 6199TIP3    H218562   4.175   6.146   0.377
 6200TIP3   OH218563   0.409   4.047   1.360
 6200TIP3    H118564   0.328   4.000   1.378
 6200TIP3    H218565   0.427   4.028   1.268
 6201TIP3   OH218566   6.998   2.242   0.955
 6201TIP3    H118567   6.999   2.214   0.863
 6201TIP3    H218568   6.947   2.323   0.955
 6202TIP3   OH218569   7.196   6.683   3.506
 6202TIP3    H118570   7.194   6.767   3.552
 6202TIP3    H218571   7.153   6.622   3.566
 6203TIP3   OH218572   0.188   1.670   3.072
 6203TIP3    H118573   0.171   1.609   3.000
 6203TIP3    H218574   0.122   1.648   3.138
 6204TIP3   OH218575   4.924   5.848   0.922
 6204TIP3    H118576   4.926   5.752   0.918
 6204TIP3    H218577   4.976   5.870   0.999
 6205TIP3   OH218578   2.915   6.670   3.290
 6205TIP3    H118579   2.994   6.619   3.274
 6205TIP3    H218580   2.940   6.760   3.267
 6206TIP3   OH218581   7.004   6.259   4.564
 6206TIP3    H118582   7.014   6.353   4.549
 6206TIP3    H218583   6.980   6.224   4.479
 6207TIP3   OH218584   4.676   6.552   3.630
 6207TIP3    H118585   4.671   6.526   3.722
 6207TIP3    H218586   4.590   6.528   3.594
 6208TIP3   OH218587   5.319   3.465   3.493
 6208TIP3    H118588   5.339   3.462   3.586
 6208TIP3    H218589   5.225   3.446   3.488
 6209TIP3   OH218590   2.859   3.859   3.005
 6209TIP3    H118591   2.839   3.906   2.924
 6209TIP3    H218592   2.799   3.896   3.070
 6210TIP3   OH218593   1.514   6.096   0.300
 6210TIP3    H118594   1.491   6.058   0.215
 6210TIP3    H218595   1.458   6.050   0.363
 6211TIP3   OH218596   5.581   4.854   1.207
 6211TIP3    H118597   5.559   4.866   1.114
 6211TIP3    H218598   5.557   4.762   1.225
 6212TIP3   OH218599   4.539   1.720   5.236
 6212TIP3    H118600   4.453   1.692   5.203
 6212TIP3    H218601   4.519   1.797   5.290
 6213TIP3   OH218602   3.419   3.692   4.749
 6213TIP3    H118603   3.416   3.702   4.845
 6213TIP3    H218604   3.356   3.623   4.731
 6214TIP3   OH218605   0.024   2.761   1.419
 6214TIP3    H118606  -0.058   2.763   1.370
 6214TIP3    H218607   0.004   2.803   1.502
 6215TIP3   OH218608   0.185   4.023   0.804
 6215TIP3    H118609   0.155   4.092   0.863
 6215TIP3    H218610   0.275   4.048   0.782
 6216TIP3   OH218611   1.339   2.429   0.497
 6216TIP3    H118612   1.378   2.409   0.582
 6216TIP3    H218613   1.364   2.520   0.480
 6217TIP3   OH218614   7.146   4.601   1.466
 6217TIP3    H118615   7.158   4.677   1.523
 6217TIP3    H218616   7.109   4.533   1.523
 6218TIP3   OH218617   2.539   3.908   1.565
 6218TIP3    H118618   2.581   3.943   1.644
 6218TIP3    H218619   2.591   3.944   1.493
 6219TIP3   OH218620   6.265   5.872   2.959
 6219TIP3    H118621   6.187   5.866   2.903
 6219TIP3    H218622   6.232   5.903   3.043
 6220TIP3   OH218623   2.448   6.040   5.921
 6220TIP3    H118624   2.461   6.026   5.828
 6220TIP3    H218625   2.458   6.134   5.934
 6221TIP3   OH218626   2.659   4.408   0.668
 6221TIP3    H118627   2.736   4.401   0.725
 6221TIP3    H218628   2.694   4.427   0.582
 6222TIP3   OH218629   3.063   6.508   2.906
 6222TIP3    H118630   2.973   6.527   2.934
 6222TIP3    H218631   3.118   6.565   2.959
 6223TIP3   OH218632   3.746   6.054   0.764
 6223TIP3    H118633   3.736   6.149   0.764
 6223TIP3    H218634   3.661   6.020   0.734
 6224TIP3   OH218635   0.149   2.329   5.385
 6224TIP3    H118636   0.199   2.299   5.309
 6224TIP3    H218637   0.190   2.411   5.411
 6225TIP3   OH218638   0.415   5.422   1.543
 6225TIP3    H118639   0.462   5.381   1.470
 6225TIP3    H218640   0.326   5.432   1.511
 6226TIP3   OH218641   6.957   4.755   1.354
 6226TIP3    H118642   7.027   4.695   1.379
 6226TIP3    H218643   6.995   4.808   1.284
 6227TIP3   OH218644   3.019   4.536   0.542
 6227TIP3    H118645   3.090   4.501   0.487
 6227TIP3    H218646   2.963   4.582   0.480
 6228TIP3   OH218647   3.284   4.012   2.199
 6228TIP3    H118648   3.351   4.078   2.217
 6228TIP3    H218649   3.205   4.046   2.240
 6229TIP3   OH218650   6.346   0.585   2.712
 6229TIP3    H118651   6.383   0.669   2.739
 6229TIP3    H218652   6.304   0.550   2.790
 6230TIP3   OH218653   5.540   0.973   3.693
 6230TIP3    H118654   5.634   0.958   3.706
 6230TIP3    H218655   5.528   0.968   3.598
 6231TIP3   OH218656   5.530   3.453   3.957
 6231TIP3    H118657   5.576   3.520   4.007
 6231TIP3    H218658   5.562   3.370   3.993
 6232TIP3   OH218659   2.702   3.682   1.850
 6232TIP3    H118660   2.724   3.626   1.776
 6232TIP3    H218661   2.683   3.621   1.921
 6233TIP3   OH218662   4.669   4.689   4.633
 6233TIP3    H118663   4.581   4.701   4.668
 6233TIP3    H218664   4.679   4.594   4.624
 6234TIP3   OH218665   6.320   2.320   3.768
 6234TIP3    H118666   6.307   2.285   3.680
 6234TIP3    H218667   6.233   2.317   3.808
 6235TIP3   OH218668   6.268   5.388   2.661
 6235TIP3    H118669   6.228   5.326   2.722
 6235TIP3    H218670   6.204   5.458   2.652
 6236TIP3   OH218671   1.221   2.622   5.605
 6236TIP3    H118672   1.246   2.700   5.557
 6236TIP3    H218673   1.295   2.603   5.662
 6237TIP3   OH218674   6.364   3.475   3.666
 6237TIP3    H118675   6.314   3.396   3.689
 6237TIP3    H218676   6.450   3.460   3.705
 6238TIP3   OH218677   3.052   3.426   0.964
 6238TIP3    H118678   3.011   3.402   1.046
 6238TIP3    H218679   3.027   3.518   0.950
 6239TIP3   OH218680   5.448   2.242   1.038
 6239TIP3    H118681   5.539   2.231   1.066
 6239TIP3    H218682   5.417   2.152   1.023
 6240TIP3   OH218683   5.481   0.933   1.918
 6240TIP3    H118684   5.416   0.897   1.978
 6240TIP3    H218685   5.511   0.858   1.866
 6241TIP3   OH218686   4.408   6.611   4.334
 6241TIP3    H118687   4.332   6.590   4.389
 6241TIP3    H218688   4.481   6.564   4.375
 6242TIP3   OH218689   2.082   5.424   1.270
 6242TIP3    H118690   2.134   5.499   1.300
 6242TIP3    H218691   1.996   5.437   1.311
 6243TIP3   OH218692   6.888   1.803   5.152
 6243TIP3    H118693   6.966   1.827   5.102
 6243TIP3    H218694   6.846   1.736   5.098
 6244TIP3   OH218695   1.328   6.675   4.802
 6244TIP3    H118696   1.271   6.604   4.773
 6244TIP3    H218697   1.271   6.751   4.809
 6245TIP3   OH218698   5.544   5.556   3.758
 6245TIP3    H118699   5.526   5.465   3.737
 6245TIP3    H218700   5.577   5.594   3.676
 6246TIP3   OH218701   0.840   2.349   3.478
 6246TIP3    H118702   0.822   2.295   3.555
 6246TIP3    H218703   0.930   2.381   3.492
 6247TIP3   OH218704   0.081   5.401   2.353
 6247TIP3    H118705   0.040   5.446   2.279
 6247TIP3    H218706   0.130   5.329   2.314
 6248TIP3   OH218707   6.694   1.485   4.249
 6248TIP3    H118708   6.677   1.392   4.238
 6248TIP3    H218709   6.673   1.523   4.163
 6249TIP3   OH218710   1.553   0.065   1.047
 6249TIP3    H118711   1.508   0.059   1.131
 6249TIP3    H218712   1.638   0.022   1.062
 6250TIP3   OH218713   4.974   4.142   1.884
 6250TIP3    H118714   4.995   4.203   1.954
 6250TIP3    H218715   4.947   4.198   1.811
 6251TIP3   OH218716   5.032   4.396   2.774
 6251TIP3    H118717   5.078   4.479   2.764
 6251TIP3    H218718   4.943   4.414   2.744
 6252TIP3   OH218719   5.048   0.037   5.117
 6252TIP3    H118720   5.121   0.044   5.056
 6252TIP3    H218721   5.087   0.053   5.203
 6253TIP3   OH218722   1.805   6.309   0.807
 6253TIP3    H118723   1.736   6.368   0.775
 6253TIP3    H218724   1.758   6.242   0.858
 6254TIP3   OH218725   5.820   2.945   4.726
 6254TIP3    H118726   5.884   2.882   4.693
 6254TIP3    H218727   5.798   2.913   4.814
 6255TIP3   OH218728   6.811   5.106   3.483
 6255TIP3    H118729   6.722   5.071   3.493
 6255TIP3    H218730   6.860   5.033   3.444
 6256TIP3   OH218731   2.637   2.485   3.994
 6256TIP3    H118732   2.642   2.390   3.993
 6256TIP3    H218733   2.723   2.514   3.963
 6257TIP3   OH218734   1.818   4.647   4.285
 6257TIP3    H118735   1.738   4.600   4.261
 6257TIP3    H218736   1.788   4.736   4.306
 6258TIP3   OH218737   3.318   1.060   2.834
 6258TIP3    H118738   3.307   1.002   2.759
 6258TIP3    H218739   3.401   1.104   2.818
 6259TIP3   OH218740   3.682   5.149   4.256
 6259TIP3    H118741   3.659   5.240   4.274
 6259TIP3    H218742   3.719   5.150   4.168
 6260TIP3   OH218743   3.613   6.562   0.189
 6260TIP3    H118744   3.526   6.600   0.177
 6260TIP3    H218745   3.673   6.633   0.166
 6261TIP3   OH218746   1.868   2.064   3.590
 6261TIP3    H118747   1.791   2.055   3.533
 6261TIP3    H218748   1.920   1.986   3.573
 6262TIP3   OH218749   3.668   3.039   5.451
 6262TIP3    H118750   3.735   3.012   5.514
 6262TIP3    H218751   3.591   3.057   5.504
 6263TIP3   OH218752   4.304   5.396   2.191
 6263TIP3    H118753   4.290   5.304   2.170
 6263TIP3    H218754   4.247   5.444   2.131
 6264TIP3   OH218755   3.374   5.038   1.330
 6264TIP3    H118756   3.301   4.976   1.324
 6264TIP3    H218757   3.437   4.995   1.388
 6265TIP3   OH218758   4.623   4.602   3.853
 6265TIP3    H118759   4.580   4.525   3.816
 6265TIP3    H218760   4.551   4.662   3.873
 6266TIP3   OH218761   2.227   6.492   3.871
 6266TIP3    H118762   2.180   6.473   3.952
 6266TIP3    H218763   2.209   6.417   3.815
 6267TIP3   OH218764   4.467   6.208   1.040
 6267TIP3    H118765   4.535   6.142   1.049
 6267TIP3    H218766   4.472   6.259   1.121
 6268TIP3   OH218767   0.999   6.791   3.967
 6268TIP3    H118768   1.056   6.853   4.013
 6268TIP3    H218769   1.042   6.706   3.977
 6269TIP3   OH218770   3.206   6.498   4.527
 6269TIP3    H118771   3.298   6.492   4.503
 6269TIP3    H218772   3.206   6.540   4.613
 6270TIP3   OH218773   3.774   3.284   5.378
 6270TIP3    H118774   3.747   3.192   5.375
 6270TIP3    H218775   3.845   3.290   5.314
 6271TIP3   OH218776   6.242   1.283   3.443
 6271TIP3    H118777   6.336   1.273   3.425
 6271TIP3    H218778   6.217   1.365   3.401
 6272TIP3   OH218779   1.246   4.697   5.400
 6272TIP3    H118780   1.289   4.729   5.320
 6272TIP3    H218781   1.153   4.710   5.383
 6273TIP3   OH218782   2.519   1.704   0.837
 6273TIP3    H118783   2.533   1.631   0.896
 6273TIP3    H218784   2.548   1.781   0.886
 6274TIP3   OH218785   2.375   2.834   3.630
 6274TIP3    H118786   2.411   2.923   3.627
 6274TIP3    H218787   2.307   2.834   3.563
 6275TIP3   OH218788   3.474   1.654   3.714
 6275TIP3    H118789   3.469   1.562   3.688
 6275TIP3    H218790   3.429   1.701   3.644
 6276TIP3   OH218791   2.421   0.112   3.643
 6276TIP3    H118792   2.483   0.174   3.680
 6276TIP3    H218793   2.336   0.138   3.679
 6277TIP3   OH218794   5.776   2.868   0.644
 6277TIP3    H118795   5.700   2.850   0.700
 6277TIP3    H218796   5.814   2.948   0.681
 6278TIP3   OH218797   2.411   4.664   4.299
 6278TIP3    H118798   2.413   4.661   4.395
 6278TIP3    H218799   2.499   4.693   4.274
 6279TIP3   OH218800   2.331   2.694   5.464
 6279TIP3    H118801   2.317   2.789   5.473
 6279TIP3    H218802   2.411   2.677   5.512
 6280TIP3   OH218803   3.480   1.109   3.152
 6280TIP3    H118804   3.544   1.039   3.138
 6280TIP3    H218805   3.451   1.132   3.064
 6281TIP3   OH218806   1.101   3.657   2.138
 6281TIP3    H118807   1.089   3.733   2.195
 6281TIP3    H218808   1.175   3.610   2.176
 6282TIP3   OH218809   3.691   0.970   3.868
 6282TIP3    H118810   3.661   0.949   3.780
 6282TIP3    H218811   3.778   1.008   3.855
 6283TIP3   OH218812   3.938   6.212   1.288
 6283TIP3    H118813   4.014   6.223   1.345
 6283TIP3    H218814   3.934   6.118   1.272
 6284TIP3   OH218815   5.403   1.550   1.635
 6284TIP3    H118816   5.448   1.579   1.555
 6284TIP3    H218817   5.401   1.454   1.627
 6285TIP3   OH218818   1.163   6.754   0.684
 6285TIP3    H118819   1.172   6.679   0.625
 6285TIP3    H218820   1.250   6.794   0.685
 6286TIP3   OH218821   4.850   6.654   3.264
 6286TIP3    H118822   4.776   6.709   3.240
 6286TIP3    H218823   4.842   6.577   3.209
 6287TIP3   OH218824   2.501   6.125   3.577
 6287TIP3    H118825   2.493   6.213   3.614
 6287TIP3    H218826   2.549   6.138   3.495
 6288TIP3   OH218827   4.647   6.592   2.738
 6288TIP3    H118828   4.729   6.608   2.691
 6288TIP3    H218829   4.591   6.666   2.713
 6289TIP3   OH218830   5.969   5.823   0.451
 6289TIP3    H118831   6.037   5.811   0.517
 6289TIP3    H218832   5.937   5.912   0.466
 6290TIP3   OH218833   5.470   1.841   1.672
 6290TIP3    H118834   5.401   1.889   1.627
 6290TIP3    H218835   5.466   1.752   1.636
 6291TIP3   OH218836   5.231   6.456   2.049
 6291TIP3    H118837   5.252   6.516   2.121
 6291TIP3    H218838   5.173   6.390   2.089
 6292TIP3   OH218839   4.249   2.366   0.985
 6292TIP3    H118840   4.174   2.376   0.926
 6292TIP3    H218841   4.300   2.295   0.947
 6293TIP3   OH218842   5.277   0.067   3.536
 6293TIP3    H118843   5.343   0.129   3.568
 6293TIP3    H218844   5.308   0.042   3.449
 6294TIP3   OH218845   4.074   1.660   2.571
 6294TIP3    H118846   4.006   1.609   2.614
 6294TIP3    H218847   4.156   1.631   2.612
 6295TIP3   OH218848   2.871   3.259   3.150
 6295TIP3    H118849   2.860   3.258   3.246
 6295TIP3    H218850   2.788   3.227   3.116
 6296TIP3   OH218851   1.963   6.419   2.499
 6296TIP3    H118852   1.970   6.497   2.554
 6296TIP3    H218853   2.042   6.420   2.445
 6297TIP3   OH218854   2.473   5.618   3.278
 6297TIP3    H118855   2.448   5.540   3.327
 6297TIP3    H218856   2.465   5.592   3.186
 6298TIP3   OH218857   0.611   3.125   3.554
 6298TIP3    H118858   0.608   3.075   3.472
 6298TIP3    H218859   0.703   3.144   3.568
 6299TIP3   OH218860   1.311   3.703   0.457
 6299TIP3    H118861   1.348   3.790   0.446
 6299TIP3    H218862   1.296   3.694   0.551
 6300TIP3   OH218863   5.769   2.561   3.995
 6300TIP3    H118864   5.704   2.584   4.061
 6300TIP3    H218865   5.848   2.540   4.044
 6301TIP3   OH218866   3.310   4.096   0.239
 6301TIP3    H118867   3.355   4.128   0.317
 6301TIP3    H218868   3.348   4.146   0.167
 6302TIP3   OH218869   3.034   0.363   0.287
 6302TIP3    H118870   3.115   0.330   0.326
 6302TIP3    H218871   3.062   0.410   0.208
 6303TIP3   OH218872   4.423   0.531   1.782
 6303TIP3    H118873   4.369   0.561   1.856
 6303TIP3    H218874   4.368   0.468   1.736
 6304TIP3   OH218875   3.538   6.078   5.019
 6304TIP3    H118876   3.516   6.169   4.998
 6304TIP3    H218877   3.610   6.056   4.961
 6305TIP3   OH218878   5.068   4.450   1.855
 6305TIP3    H118879   5.007   4.472   1.785
 6305TIP3    H218880   5.026   4.483   1.935
 6306TIP3   OH218881   2.935   0.295   0.669
 6306TIP3    H118882   2.929   0.361   0.600
 6306TIP3    H218883   2.916   0.343   0.750
 6307TIP3   OH218884   1.372   0.587   4.175
 6307TIP3    H118885   1.304   0.542   4.125
 6307TIP3    H218886   1.453   0.543   4.150
 6308TIP3   OH218887   2.453   2.722   0.755
 6308TIP3    H118888   2.539   2.762   0.747
 6308TIP3    H218889   2.399   2.765   0.689
 6309TIP3   OH218890   4.643   6.641   0.963
 6309TIP3    H118891   4.682   6.555   0.977
 6309TIP3    H218892   4.645   6.654   0.869
 6310TIP3   OH218893   4.644   5.988  -0.031
 6310TIP3    H118894   4.728   5.988   0.014
 6310TIP3    H218895   4.630   5.898  -0.058
 6311TIP3   OH218896   5.382   6.613   3.063
 6311TIP3    H118897   5.340   6.687   3.106
 6311TIP3    H218898   5.471   6.643   3.044
 6312TIP3   OH218899   3.455   2.727   4.566
 6312TIP3    H118900   3.522   2.791   4.587
 6312TIP3    H218901   3.456   2.666   4.641
 6313TIP3   OH218902   1.001   1.251   1.482
 6313TIP3    H118903   1.097   1.248   1.486
 6313TIP3    H218904   0.980   1.245   1.389
 6314TIP3   OH218905   5.236   0.632   3.340
 6314TIP3    H118906   5.308   0.693   3.324
 6314TIP3    H218907   5.161   0.671   3.295
 6315TIP3   OH218908   1.644   5.256   0.460
 6315TIP3    H118909   1.622   5.282   0.370
 6315TIP3    H218910   1.739   5.269   0.467
 6316TIP3   OH218911   4.397   2.561   0.039
 6316TIP3    H118912   4.472   2.540   0.095
 6316TIP3    H218913   4.346   2.624   0.089
 6317TIP3   OH218914   3.935   2.456   3.071
 6317TIP3    H118915   3.913   2.549   3.064
 6317TIP3    H218916   3.986   2.438   2.992
 6318TIP3   OH218917   3.097   3.829   2.130
 6318TIP3    H118918   3.020   3.878   2.101
 6318TIP3    H218919   3.158   3.896   2.159
 6319TIP3   OH218920   0.342   5.666   4.409
 6319TIP3    H118921   0.429   5.683   4.443
 6319TIP3    H218922   0.352   5.667   4.314
 6320TIP3   OH218923   1.094   0.676   5.571
 6320TIP3    H118924   1.132   0.697   5.486
 6320TIP3    H218925   1.036   0.750   5.591
 6321TIP3   OH218926   4.876   4.539   2.573
 6321TIP3    H118927   4.838   4.497   2.496
 6321TIP3    H218928   4.809   4.528   2.641
 6322TIP3   OH218929   3.461   1.887   3.879
 6322TIP3    H118930   3.460   1.840   3.796
 6322TIP3    H218931   3.534   1.848   3.928
 6323TIP3   OH218932   0.428   1.998   0.164
 6323TIP3    H118933   0.419   2.080   0.115
 6323TIP3    H218934   0.342   1.957   0.158
 6324TIP3   OH218935   1.860   2.619   3.851
 6324TIP3    H118936   1.951   2.639   3.872
 6324TIP3    H218937   1.862   2.599   3.757
 6325TIP3   OH218938   5.145   4.320   1.246
 6325TIP3    H118939   5.136   4.384   1.318
 6325TIP3    H218940   5.082   4.252   1.267
 6326TIP3   OH218941   1.352   4.833   1.767
 6326TIP3    H118942   1.380   4.873   1.850
 6326TIP3    H218943   1.295   4.761   1.794
 6327TIP3   OH218944   6.634   4.337   2.509
 6327TIP3    H118945   6.595   4.424   2.495
 6327TIP3    H218946   6.564   4.286   2.550
 6328TIP3   OH218947   0.052   5.106   0.588
 6328TIP3    H118948   0.134   5.057   0.596
 6328TIP3    H218949  -0.012   5.040   0.562
 6329TIP3   OH218950   5.250   5.091   0.001
 6329TIP3    H118951   5.325   5.038  -0.028
 6329TIP3    H218952   5.198   5.032   0.055
 6330TIP3   OH218953   2.806   1.652   1.929
 6330TIP3    H118954   2.771   1.729   1.883
 6330TIP3    H218955   2.853   1.688   2.004
 6331TIP3   OH218956   1.481   0.545   2.139
 6331TIP3    H118957   1.508   0.454   2.154
 6331TIP3    H218958   1.496   0.588   2.223
 6332TIP3   OH218959   0.392   4.203   4.624
 6332TIP3    H118960   0.360   4.180   4.711
 6332TIP3    H218961   0.473   4.154   4.613
 6333TIP3   OH218962   1.962   5.102   0.118
 6333TIP3    H118963   1.893   5.149   0.070
 6333TIP3    H218964   2.038   5.160   0.112
 6334TIP3   OH218965   0.153   3.092   0.056
 6334TIP3    H118966   0.214   3.129  -0.008
 6334TIP3    H218967   0.079   3.153   0.058
 6335TIP3   OH218968   5.569   0.620   1.175
 6335TIP3    H118969   5.536   0.530   1.173
 6335TIP3    H218970   5.490   0.674   1.182
 6336TIP3   OH218971   3.707   2.128   3.726
 6336TIP3    H118972   3.750   2.214   3.734
 6336TIP3    H218973   3.614   2.146   3.741
 6337TIP3   OH218974   0.456   5.208   5.873
 6337TIP3    H118975   0.394   5.198   5.801
 6337TIP3    H218976   0.401   5.225   5.950
 6338TIP3   OH218977   3.794   6.709   1.631
 6338TIP3    H118978   3.865   6.767   1.604
 6338TIP3    H218979   3.752   6.682   1.549
 6339TIP3   OH218980   0.124   3.372   1.713
 6339TIP3    H118981   0.204   3.319   1.708
 6339TIP3    H218982   0.123   3.404   1.803
 6340TIP3   OH218983   0.320   5.114   5.641
 6340TIP3    H118984   0.230   5.086   5.657
 6340TIP3    H218985   0.331   5.104   5.547
 6341TIP3   OH218986   4.952   4.391   0.883
 6341TIP3    H118987   5.020   4.450   0.853
 6341TIP3    H218988   4.920   4.430   0.964
 6342TIP3   OH218989   1.108   4.985   3.533
 6342TIP3    H118990   1.195   4.970   3.497
 6342TIP3    H218991   1.086   4.903   3.577
 6343TIP3   OH218992   0.251   0.823   0.787
 6343TIP3    H118993   0.320   0.843   0.851
 6343TIP3    H218994   0.295   0.771   0.720
 6344TIP3   OH218995   2.728   1.437   4.664
 6344TIP3    H118996   2.821   1.442   4.639
 6344TIP3    H218997   2.725   1.477   4.751
 6345TIP3   OH218998   3.068   3.576   0.362
 6345TIP3    H118999   3.008   3.635   0.317
 6345TIP3    H219000   3.148   3.627   0.373
 6346TIP3   OH219001   0.858   2.001   2.770
 6346TIP3    H119002   0.899   1.993   2.684
 6346TIP3    H219003   0.846   2.095   2.783
 6347TIP3   OH219004   2.449   5.191   5.424
 6347TIP3    H119005   2.434   5.176   5.331
 6347TIP3    H219006   2.445   5.104   5.464
 6348TIP3   OH219007   2.205   5.122   4.851
 6348TIP3    H119008   2.262   5.197   4.866
 6348TIP3    H219009   2.120   5.148   4.888
 6349TIP3   OH219010   2.859   1.425   0.952
 6349TIP3    H119011   2.777   1.387   0.922
 6349TIP3    H219012   2.901   1.356   1.004
 6350TIP3   OH219013   3.767   1.640   2.863
 6350TIP3    H119014   3.697   1.665   2.923
 6350TIP3    H219015   3.845   1.637   2.918
 6351TIP3   OH219016   3.936   2.645   1.456
 6351TIP3    H119017   3.929   2.740   1.449
 6351TIP3    H219018   3.863   2.619   1.512
 6352TIP3   OH219019   2.170   2.925   1.454
 6352TIP3    H119020   2.232   2.931   1.381
 6352TIP3    H219021   2.084   2.927   1.412
 6353TIP3   OH219022   3.018   5.871   0.385
 6353TIP3    H119023   2.929   5.904   0.400
 6353TIP3    H219024   3.048   5.917   0.307
 6354TIP3   OH219025   3.220   2.167   5.469
 6354TIP3    H119026   3.187   2.079   5.451
 6354TIP3    H219027   3.313   2.154   5.487
 6355TIP3   OH219028   2.961   4.592   1.501
 6355TIP3    H119029   2.937   4.549   1.419
 6355TIP3    H219030   2.899   4.558   1.565
 6356TIP3   OH219031   5.093   1.681   1.389
 6356TIP3    H119032   5.099   1.628   1.468
 6356TIP3    H219033   5.090   1.771   1.421
 6357TIP3   OH219034   5.478   6.094   1.777
 6357TIP3    H119035   5.454   6.004   1.800
 6357TIP3    H219036   5.418   6.149   1.828
 6358TIP3   OH219037   4.388   5.186   1.934
 6358TIP3    H119038   4.317   5.234   1.891
 6358TIP3    H219039   4.347   5.144   2.009
 6359TIP3   OH219040   4.791   3.902   1.716
 6359TIP3    H119041   4.844   3.826   1.692
 6359TIP3    H219042   4.798   3.907   1.811
 6360TIP3   OH219043   5.297   0.316   3.702
 6360TIP3    H119044   5.318   0.360   3.620
 6360TIP3    H219045   5.204   0.333   3.715
 6361TIP3   OH219046   2.173   5.773   0.547
 6361TIP3    H119047   2.107   5.712   0.579
 6361TIP3    H219048   2.165   5.850   0.604
 6362TIP3   OH219049   0.647   2.347   1.578
 6362TIP3    H119050   0.705   2.305   1.514
 6362TIP3    H219051   0.664   2.301   1.660
 6363TIP3   OH219052   4.526   0.323   0.582
 6363TIP3    H119053   4.574   0.241   0.582
 6363TIP3    H219054   4.450   0.307   0.526
 6364TIP3   OH219055   6.775   2.213   2.250
 6364TIP3    H119056   6.679   2.210   2.249
 6364TIP3    H219057   6.802   2.133   2.295
 6365TIP3   OH219058   4.848   6.230   1.169
 6365TIP3    H119059   4.779   6.183   1.122
 6365TIP3    H219060   4.819   6.321   1.171
 6366TIP3   OH219061   5.399   5.940   3.424
 6366TIP3    H119062   5.404   5.844   3.422
 6366TIP3    H219063   5.474   5.968   3.370
 6367TIP3   OH219064   6.214   4.278   1.875
 6367TIP3    H119065   6.203   4.371   1.895
 6367TIP3    H219066   6.131   4.253   1.833
 6368TIP3   OH219067   6.195   5.251   3.814
 6368TIP3    H119068   6.271   5.303   3.840
 6368TIP3    H219069   6.128   5.272   3.879
 6369TIP3   OH219070   5.002   3.165  -0.023
 6369TIP3    H119071   5.084   3.199  -0.059
 6369TIP3    H219072   4.994   3.209   0.063
 6370TIP3   OH219073   3.528   6.611   4.122
 6370TIP3    H119074   3.494   6.523   4.136
 6370TIP3    H219075   3.543   6.646   4.210
 6371TIP3   OH219076   1.921   3.871   0.057
 6371TIP3    H119077   1.878   3.805   0.004
 6371TIP3    H219078   1.981   3.916  -0.003
 6372TIP3   OH219079   0.394   4.442   4.288
 6372TIP3    H119080   0.478   4.397   4.276
 6372TIP3    H219081   0.329   4.372   4.280
 6373TIP3   OH219082   6.359   1.190   2.702
 6373TIP3    H119083   6.280   1.181   2.650
 6373TIP3    H219084   6.368   1.284   2.716
 6374TIP3   OH219085   0.894   6.627   2.908
 6374TIP3    H119086   0.900   6.547   2.960
 6374TIP3    H219087   0.957   6.614   2.837
 6375TIP3   OH219088  -0.005   4.626   2.312
 6375TIP3    H119089  -0.029   4.594   2.399
 6375TIP3    H219090   0.008   4.720   2.323
 6376TIP3   OH219091   2.411   1.626   4.659
 6376TIP3    H119092   2.429   1.702   4.714
 6376TIP3    H219093   2.497   1.585   4.645
 6377TIP3   OH219094   0.494   4.407   5.693
 6377TIP3    H119095   0.527   4.495   5.679
 6377TIP3    H219096   0.518   4.385   5.783
 6378TIP3   OH219097   4.426   1.203   4.166
 6378TIP3    H119098   4.331   1.207   4.155
 6378TIP3    H219099   4.438   1.158   4.250
 6379TIP3   OH219100   3.782   2.331   5.360
 6379TIP3    H119101   3.725   2.403   5.334
 6379TIP3    H219102   3.724   2.255   5.366
 6380TIP3   OH219103   5.558   4.071   3.601
 6380TIP3    H119104   5.649   4.096   3.618
 6380TIP3    H219105   5.554   3.978   3.623
 6381TIP3   OH219106   3.851   2.769   2.624
 6381TIP3    H119107   3.914   2.718   2.674
 6381TIP3    H219108   3.903   2.835   2.578
 6382TIP3   OH219109   3.314   6.484   3.787
 6382TIP3    H119110   3.355   6.465   3.703
 6382TIP3    H219111   3.308   6.580   3.790
 6383TIP3   OH219112   1.726   4.121   2.700
 6383TIP3    H119113   1.662   4.189   2.722
 6383TIP3    H219114   1.792   4.127   2.769
 6384TIP3   OH219115   1.275   4.152   5.077
 6384TIP3    H119116   1.210   4.082   5.078
 6384TIP3    H219117   1.290   4.171   4.985
 6385TIP3   OH219118   2.381   2.201   5.448
 6385TIP3    H119119   2.455   2.199   5.508
 6385TIP3    H219120   2.405   2.267   5.383
 6386TIP3   OH219121   1.986   5.104   1.612
 6386TIP3    H119122   2.079   5.125   1.622
 6386TIP3    H219123   1.959   5.078   1.700
 6387TIP3   OH219124   1.451   2.917   1.475
 6387TIP3    H119125   1.443   2.832   1.520
 6387TIP3    H219126   1.544   2.938   1.483
 6388TIP3   OH219127   5.705   2.248   4.885
 6388TIP3    H119128   5.745   2.330   4.916
 6388TIP3    H219129   5.612   2.269   4.876
 6389TIP3   OH219130   4.370   5.454   2.985
 6389TIP3    H119131   4.362   5.417   2.897
 6389TIP3    H219132   4.406   5.383   3.038
 6390TIP3   OH219133   4.341   0.464   5.905
 6390TIP3    H119134   4.303   0.492   5.988
 6390TIP3    H219135   4.284   0.502   5.839
 6391TIP3   OH219136   4.556   0.593   0.216
 6391TIP3    H119137   4.598   0.557   0.138
 6391TIP3    H219138   4.470   0.621   0.186
 6392TIP3   OH219139   1.571   1.346   3.473
 6392TIP3    H119140   1.534   1.361   3.560
 6392TIP3    H219141   1.642   1.283   3.488
 6393TIP3   OH219142   0.987   5.743   1.606
 6393TIP3    H119143   0.930   5.669   1.626
 6393TIP3    H219144   0.979   5.801   1.682
 6394TIP3   OH219145   5.478   0.732   5.541
 6394TIP3    H119146   5.448   0.647   5.510
 6394TIP3    H219147   5.444   0.738   5.631
 6395TIP3   OH219148   4.408   5.803   5.757
 6395TIP3    H119149   4.407   5.784   5.664
 6395TIP3    H219150   4.320   5.782   5.787
 6396TIP3   OH219151   0.807   3.049   5.739
 6396TIP3    H119152   0.729   3.092   5.773
 6396TIP3    H219153   0.806   3.068   5.645
 6397TIP3   OH219154   2.183   0.312   2.461
 6397TIP3    H119155   2.113   0.352   2.512
 6397TIP3    H219156   2.199   0.373   2.389
 6398TIP3   OH219157   5.048   4.948   0.161
 6398TIP3    H119158   5.014   4.998   0.235
 6398TIP3    H219159   5.021   4.858   0.178
 6399TIP3   OH219160   7.037   4.491   2.166
 6399TIP3    H119161   6.959   4.526   2.210
 6399TIP3    H219162   7.110   4.533   2.210
 6400TIP3   OH219163   0.730   1.717   0.825
 6400TIP3    H119164   0.796   1.660   0.864
 6400TIP3    H219165   0.780   1.773   0.766
 6401TIP3   OH219166   4.396   4.744   2.161
 6401TIP3    H119167   4.304   4.770   2.163
 6401TIP3    H219168   4.433   4.790   2.085
 6402TIP3   OH219169   2.538   0.841   0.847
 6402TIP3    H119170   2.511   0.913   0.790
 6402TIP3    H219171   2.633   0.839   0.840
 6403TIP3   OH219172   5.573   5.937   3.181
 6403TIP3    H119173   5.483   5.919   3.154
 6403TIP3    H219174   5.581   6.032   3.175
 6404TIP3   OH219175   4.055   3.509   4.765
 6404TIP3    H119176   4.092   3.423   4.782
 6404TIP3    H219177   4.099   3.567   4.827
 6405TIP3   OH219178   1.582   4.469   0.554
 6405TIP3    H119179   1.509   4.424   0.596
 6405TIP3    H219180   1.545   4.551   0.523
 6406TIP3   OH219181   0.225   6.734   2.088
 6406TIP3    H119182   0.316   6.760   2.094
 6406TIP3    H219183   0.190   6.748   2.176
 6407TIP3   OH219184   0.702   3.717   2.445
 6407TIP3    H119185   0.703   3.719   2.349
 6407TIP3    H219186   0.793   3.703   2.470
 6408TIP3   OH219187   3.386   0.623   5.057
 6408TIP3    H119188   3.326   0.549   5.072
 6408TIP3    H219189   3.426   0.639   5.142
 6409TIP3   OH219190   0.370   6.344   0.036
 6409TIP3    H119191   0.396   6.348  -0.056
 6409TIP3    H219192   0.281   6.311   0.035
 6410TIP3   OH219193   6.213   3.041   0.090
 6410TIP3    H119194   6.283   2.977   0.076
 6410TIP3    H219195   6.179   3.022   0.177
 6411TIP3   OH219196   3.713   4.554   4.117
 6411TIP3    H119197   3.673   4.641   4.124
 6411TIP3    H219198   3.683   4.520   4.033
 6412TIP3   OH219199   4.496   3.892   1.671
 6412TIP3    H119200   4.584   3.861   1.647
 6412TIP3    H219201   4.492   3.881   1.766
 6413TIP3   OH219202   5.382   0.868   3.355
 6413TIP3    H119203   5.456   0.923   3.379
 6413TIP3    H219204   5.415   0.814   3.283
 6414TIP3   OH219205   1.920   0.661   2.365
 6414TIP3    H119206   1.982   0.610   2.313
 6414TIP3    H219207   1.918   0.617   2.450
 6415TIP3   OH219208   6.892   1.655   2.932
 6415TIP3    H119209   6.972   1.673   2.882
 6415TIP3    H219210   6.845   1.590   2.879
 6416TIP3   OH219211   5.630   1.805   0.976
 6416TIP3    H119212   5.639   1.738   0.908
 6416TIP3    H219213   5.570   1.869   0.937
 6417TIP3   OH219214   4.290   5.087   3.725
 6417TIP3    H119215   4.201   5.053   3.714
 6417TIP3    H219216   4.347   5.013   3.706
 6418TIP3   OH219217   4.379   1.257   2.655
 6418TIP3    H119218   4.286   1.243   2.674
 6418TIP3    H219219   4.416   1.168   2.655
 6419TIP3   OH219220   0.621   3.290   2.682
 6419TIP3    H119221   0.585   3.219   2.736
 6419TIP3    H219222   0.700   3.252   2.642
 6420TIP3   OH219223   4.845   5.416   4.335
 6420TIP3    H119224   4.799   5.498   4.313
 6420TIP3    H219225   4.933   5.428   4.301
 6421TIP3   OH219226   6.226   5.748   0.530
 6421TIP3    H119227   6.169   5.690   0.580
 6421TIP3    H219228   6.298   5.692   0.502
 6422TIP3   OH219229   5.182   2.825   1.616
 6422TIP3    H119230   5.221   2.912   1.608
 6422TIP3    H219231   5.171   2.795   1.526
 6423TIP3   OH219232   0.711   5.605   5.838
 6423TIP3    H119233   0.750   5.684   5.801
 6423TIP3    H219234   0.617   5.620   5.836
 6424TIP3   OH219235   7.187   2.349   1.131
 6424TIP3    H119236   7.226   2.352   1.044
 6424TIP3    H219237   7.111   2.291   1.121
 6425TIP3   OH219238   5.262   6.586   2.274
 6425TIP3    H119239   5.351   6.619   2.291
 6425TIP3    H219240   5.226   6.567   2.361
 6426TIP3   OH219241   4.525   1.030   4.379
 6426TIP3    H119242   4.572   0.985   4.309
 6426TIP3    H219243   4.594   1.071   4.432
 6427TIP3   OH219244   3.466   1.204   4.447
 6427TIP3    H119245   3.543   1.178   4.497
 6427TIP3    H219246   3.393   1.197   4.509
 6428TIP3   OH219247   3.615   5.749   1.347
 6428TIP3    H119248   3.523   5.751   1.323
 6428TIP3    H219249   3.615   5.730   1.441
 6429TIP3   OH219250   6.187   6.728   2.536
 6429TIP3    H119251   6.187   6.820   2.510
 6429TIP3    H219252   6.273   6.714   2.575
 6430TIP3   OH219253   0.263   5.959   2.529
 6430TIP3    H119254   0.248   5.889   2.593
 6430TIP3    H219255   0.293   6.033   2.581
 6431TIP3   OH219256   1.597   4.132   4.188
 6431TIP3    H119257   1.652   4.203   4.221
 6431TIP3    H219258   1.626   4.119   4.098
 6432TIP3   OH219259   4.780   2.075   4.461
 6432TIP3    H119260   4.855   2.133   4.471
 6432TIP3    H219261   4.773   2.059   4.367
 6433TIP3   OH219262   5.318   5.643   5.529
 6433TIP3    H119263   5.307   5.619   5.621
 6433TIP3    H219264   5.412   5.638   5.514
 6434TIP3   OH219265   6.763   4.108   2.361
 6434TIP3    H119266   6.725   4.171   2.423
 6434TIP3    H219267   6.823   4.056   2.414
 6435TIP3   OH219268   4.010   6.610   1.204
 6435TIP3    H119269   3.970   6.523   1.210
 6435TIP3    H219270   3.936   6.670   1.196
 6436TIP3   OH219271   4.810   3.502   4.592
 6436TIP3    H119272   4.826   3.427   4.534
 6436TIP3    H219273   4.861   3.482   4.671
 6437TIP3   OH219274   4.957   4.138   2.349
 6437TIP3    H119275   4.949   4.195   2.273
 6437TIP3    H219276   5.038   4.089   2.334
 6438TIP3   OH219277   5.857   1.029   5.314
 6438TIP3    H119278   5.822   1.005   5.229
 6438TIP3    H219279   5.783   1.070   5.360
 6439TIP3   OH219280   6.932   5.844   5.357
 6439TIP3    H119281   6.964   5.931   5.330
 6439TIP3    H219282   6.999   5.811   5.416
 6440TIP3   OH219283   6.306   4.325   3.260
 6440TIP3    H119284   6.213   4.325   3.284
 6440TIP3    H219285   6.344   4.392   3.317
 6441TIP3   OH219286   0.091   3.078   4.618
 6441TIP3    H119287   0.003   3.046   4.638
 6441TIP3    H219288   0.143   3.000   4.601
 6442TIP3   OH219289   6.685   2.250   5.298
 6442TIP3    H119290   6.754   2.188   5.318
 6442TIP3    H219291   6.702   2.277   5.208
 6443TIP3   OH219292   4.406   5.845   2.601
 6443TIP3    H119293   4.459   5.860   2.523
 6443TIP3    H219294   4.461   5.790   2.657
 6444TIP3   OH219295   0.279   3.126   4.843
 6444TIP3    H119296   0.344   3.085   4.786
 6444TIP3    H219297   0.198   3.123   4.792
 6445TIP3   OH219298   1.530   6.699   2.894
 6445TIP3    H119299   1.609   6.646   2.892
 6445TIP3    H219300   1.520   6.725   2.986
 6446TIP3   OH219301   4.098   6.749   0.783
 6446TIP3    H119302   4.057   6.805   0.716
 6446TIP3    H219303   4.066   6.661   0.764
 6447TIP3   OH219304   3.436   3.112   1.863
 6447TIP3    H119305   3.449   3.026   1.904
 6447TIP3    H219306   3.385   3.094   1.785
 6448TIP3   OH219307   5.919   4.905   3.071
 6448TIP3    H119308   5.926   4.972   3.003
 6448TIP3    H219309   5.827   4.905   3.096
 6449TIP3   OH219310   0.922   0.714   4.917
 6449TIP3    H119311   0.908   0.749   5.005
 6449TIP3    H219312   1.009   0.675   4.921
 6450TIP3   OH219313   2.499   0.328   4.944
 6450TIP3    H119314   2.420   0.333   4.998
 6450TIP3    H219315   2.509   0.417   4.909
 6451TIP3   OH219316   6.846   0.566   0.616
 6451TIP3    H119317   6.843   0.612   0.700
 6451TIP3    H219318   6.938   0.540   0.607
 6452TIP3   OH219319   1.277   0.612   5.753
 6452TIP3    H119320   1.313   0.701   5.753
 6452TIP3    H219321   1.191   0.620   5.713
 6453TIP3   OH219322   6.258   5.651   3.889
 6453TIP3    H119323   6.254   5.602   3.971
 6453TIP3    H219324   6.345   5.634   3.854
 6454TIP3   OH219325   1.030   2.127   4.796
 6454TIP3    H119326   0.963   2.140   4.728
 6454TIP3    H219327   1.068   2.041   4.777
 6455TIP3   OH219328   2.259   5.801   0.260
 6455TIP3    H119329   2.255   5.792   0.356
 6455TIP3    H219330   2.190   5.743   0.228
 6456TIP3   OH219331   2.616   1.115   2.308
 6456TIP3    H119332   2.582   1.063   2.236
 6456TIP3    H219333   2.586   1.204   2.289
 6457TIP3   OH219334   0.989   6.030   3.378
 6457TIP3    H119335   0.932   5.964   3.339
 6457TIP3    H219336   0.930   6.101   3.404
 6458TIP3   OH219337   2.819   1.980   0.947
 6458TIP3    H119338   2.846   1.891   0.970
 6458TIP3    H219339   2.724   1.978   0.953
 6459TIP3   OH219340   3.339   2.478   0.329
 6459TIP3    H119341   3.361   2.496   0.420
 6459TIP3    H219342   3.352   2.561   0.284
 6460TIP3   OH219343   5.054   2.931   5.038
 6460TIP3    H119344   5.054   3.027   5.043
 6460TIP3    H219345   5.147   2.908   5.036
 6461TIP3   OH219346   5.932   2.710   2.728
 6461TIP3    H119347   5.887   2.633   2.764
 6461TIP3    H219348   5.924   2.776   2.797
 6462TIP3   OH219349   6.330   3.516   2.565
 6462TIP3    H119350   6.388   3.513   2.489
 6462TIP3    H219351   6.388   3.510   2.640
 6463TIP3   OH219352   5.455   0.338   4.415
 6463TIP3    H119353   5.417   0.422   4.443
 6463TIP3    H219354   5.379   0.283   4.395
 6464TIP3   OH219355   7.030   1.501   0.809
 6464TIP3    H119356   6.963   1.535   0.751
 6464TIP3    H219357   7.044   1.411   0.780
 6465TIP3   OH219358   2.852   2.234   1.384
 6465TIP3    H119359   2.841   2.257   1.292
 6465TIP3    H219360   2.844   2.139   1.387
 6466TIP3   OH219361   1.536   2.999   0.852
 6466TIP3    H119362   1.604   2.935   0.830
 6466TIP3    H219363   1.539   3.006   0.947
 6467TIP3   OH219364   5.236   0.282   5.043
 6467TIP3    H119365   5.195   0.261   5.127
 6467TIP3    H219366   5.262   0.198   5.007
 6468TIP3   OH219367   5.267   1.106   2.519
 6468TIP3    H119368   5.346   1.054   2.534
 6468TIP3    H219369   5.298   1.183   2.470
 6469TIP3   OH219370   2.763   5.513   1.779
 6469TIP3    H119371   2.819   5.458   1.724
 6469TIP3    H219372   2.675   5.479   1.765
 6470TIP3   OH219373   6.000   3.175   0.443
 6470TIP3    H119374   5.908   3.152   0.433
 6470TIP3    H219375   6.022   3.150   0.533
 6471TIP3   OH219376   0.893   0.623   5.302
 6471TIP3    H119377   0.914   0.685   5.232
 6471TIP3    H219378   0.826   0.667   5.353
 6472TIP3   OH219379   0.119   4.073   1.574
 6472TIP3    H119380   0.096   4.037   1.488
 6472TIP3    H219381   0.073   4.018   1.637
 6473TIP3   OH219382   6.397   3.827   0.816
 6473TIP3    H119383   6.306   3.826   0.786
 6473TIP3    H219384   6.432   3.741   0.792
 6474TIP3   OH219385   0.452   5.329   0.438
 6474TIP3    H119386   0.487   5.322   0.527
 6474TIP3    H219387   0.522   5.298   0.382
 6475TIP3   OH219388   3.231   3.395   3.777
 6475TIP3    H119389   3.294   3.446   3.828
 6475TIP3    H219390   3.258   3.409   3.686
 6476TIP3   OH219391   4.219   1.587   0.224
 6476TIP3    H119392   4.217   1.576   0.129
 6476TIP3    H219393   4.133   1.623   0.245
 6477TIP3   OH219394   5.237   0.155   5.290
 6477TIP3    H119395   5.307   0.215   5.314
 6477TIP3    H219396   5.232   0.093   5.363
 6478TIP3   OH219397   0.941   0.624   3.248
 6478TIP3    H119398   0.847   0.642   3.245
 6478TIP3    H219399   0.947   0.530   3.229
 6479TIP3   OH219400   4.739   2.282   5.146
 6479TIP3    H119401   4.690   2.285   5.228
 6479TIP3    H219402   4.709   2.358   5.098
 6480TIP3   OH219403   5.816   0.701   1.216
 6480TIP3    H119404   5.819   0.750   1.298
 6480TIP3    H219405   5.728   0.663   1.214
 6481TIP3   OH219406   1.646   3.079   3.391
 6481TIP3    H119407   1.705   3.155   3.395
 6481TIP3    H219408   1.575   3.108   3.334
 6482TIP3   OH219409   4.999   0.451   5.263
 6482TIP3    H119410   4.912   0.413   5.267
 6482TIP3    H219411   5.039   0.413   5.185
 6483TIP3   OH219412   7.091   0.714   4.040
 6483TIP3    H119413   7.109   0.736   4.131
 6483TIP3    H219414   7.086   0.618   4.039
 6484TIP3   OH219415   1.102   6.417   5.023
 6484TIP3    H119416   1.086   6.441   4.931
 6484TIP3    H219417   1.134   6.498   5.063
 6485TIP3   OH219418   7.105   3.891   0.561
 6485TIP3    H119419   7.050   3.832   0.510
 6485TIP3    H219420   7.048   3.967   0.578
 6486TIP3   OH219421   0.484   5.196   3.590
 6486TIP3    H119422   0.574   5.164   3.580
 6486TIP3    H219423   0.442   5.175   3.507
 6487TIP3   OH219424   0.868   1.673   5.668
 6487TIP3    H119425   0.857   1.597   5.724
 6487TIP3    H219426   0.914   1.640   5.590
 6488TIP3   OH219427   7.007   0.439   1.728
 6488TIP3    H119428   7.037   0.406   1.643
 6488TIP3    H219429   7.087   0.461   1.775
 6489TIP3   OH219430   1.260   6.431   0.977
 6489TIP3    H119431   1.194   6.462   0.914
 6489TIP3    H219432   1.280   6.342   0.949
 6490TIP3   OH219433   1.308   4.393   1.275
 6490TIP3    H119434   1.299   4.341   1.355
 6490TIP3    H219435   1.354   4.336   1.214
 6491TIP3   OH219436   3.521   0.667   3.400
 6491TIP3    H119437   3.463   0.634   3.331
 6491TIP3    H219438   3.582   0.595   3.416
 6492TIP3   OH219439   7.156   6.519   0.080
 6492TIP3    H119440   7.131   6.612   0.084
 6492TIP3    H219441   7.073   6.472   0.084
 6493TIP3   OH219442   0.826   3.381   2.028
 6493TIP3    H119443   0.783   3.393   1.944
 6493TIP3    H219444   0.920   3.384   2.007
 6494TIP3   OH219445   5.840   5.513   4.663
 6494TIP3    H119446   5.875   5.596   4.630
 6494TIP3    H219447   5.890   5.496   4.743
 6495TIP3   OH219448   6.558   2.712   5.167
 6495TIP3    H119449   6.519   2.783   5.116
 6495TIP3    H219450   6.649   2.738   5.179
 6496TIP3   OH219451   5.558   6.198   4.701
 6496TIP3    H119452   5.539   6.281   4.743
 6496TIP3    H219453   5.605   6.222   4.621
 6497TIP3   OH219454   5.400   4.592   0.787
 6497TIP3    H119455   5.485   4.615   0.824
 6497TIP3    H219456   5.414   4.507   0.745
 6498TIP3   OH219457   1.847   5.408   1.429
 6498TIP3    H119458   1.832   5.495   1.464
 6498TIP3    H219459   1.801   5.407   1.345
 6499TIP3   OH219460   2.907   3.813   5.235
 6499TIP3    H119461   2.882   3.743   5.295
 6499TIP3    H219462   2.994   3.790   5.204
 6500TIP3   OH219463   5.738   1.343   1.236
 6500TIP3    H119464   5.671   1.387   1.184
 6500TIP3    H219465   5.782   1.413   1.284
 6501TIP3   OH219466   4.423   5.485   4.957
 6501TIP3    H119467   4.334   5.450   4.954
 6501TIP3    H219468   4.469   5.442   4.886
 6502TIP3   OH219469   5.589   6.541   5.326
 6502TIP3    H119470   5.501   6.516   5.298
 6502TIP3    H219471   5.584   6.636   5.334
 6503TIP3   OH219472   0.988   3.808   1.661
 6503TIP3    H119473   1.062   3.786   1.717
 6503TIP3    H219474   0.942   3.878   1.707
 6504TIP3   OH219475   4.075   1.566   1.366
 6504TIP3    H119476   4.048   1.474   1.378
 6504TIP3    H219477   4.169   1.566   1.386
 6505TIP3   OH219478   0.798   6.492   3.507
 6505TIP3    H119479   0.864   6.561   3.513
 6505TIP3    H219480   0.715   6.536   3.527
 6506TIP3   OH219481   1.885   0.950   2.307
 6506TIP3    H119482   1.829   0.988   2.376
 6506TIP3    H219483   1.892   0.858   2.331
 6507TIP3   OH219484   6.439   4.915   1.242
 6507TIP3    H119485   6.523   4.869   1.248
 6507TIP3    H219486   6.455   4.998   1.287
 6508TIP3   OH219487   4.233   2.662   3.777
 6508TIP3    H119488   4.187   2.735   3.818
 6508TIP3    H219489   4.236   2.594   3.844
 6509TIP3   OH219490   4.271   2.878   3.326
 6509TIP3    H119491   4.208   2.858   3.395
 6509TIP3    H219492   4.239   2.829   3.250
 6510TIP3   OH219493   6.265   6.626   1.204
 6510TIP3    H119494   6.188   6.663   1.247
 6510TIP3    H219495   6.313   6.582   1.274
 6511TIP3   OH219496   3.868   1.664   2.030
 6511TIP3    H119497   3.841   1.752   2.002
 6511TIP3    H219498   3.786   1.615   2.038
 6512TIP3   OH219499   1.534   2.049   2.284
 6512TIP3    H119500   1.596   1.975   2.281
 6512TIP3    H219501   1.460   2.016   2.335
 6513TIP3   OH219502   2.398   3.724   4.448
 6513TIP3    H119503   2.460   3.787   4.483
 6513TIP3    H219504   2.448   3.674   4.383
 6514TIP3   OH219505   7.153   6.750   2.049
 6514TIP3    H119506   7.089   6.806   2.094
 6514TIP3    H219507   7.238   6.789   2.069
 6515TIP3   OH219508   0.205   6.636   0.616
 6515TIP3    H119509   0.273   6.700   0.594
 6515TIP3    H219510   0.145   6.684   0.673
 6516TIP3   OH219511   5.712   4.984   3.255
 6516TIP3    H119512   5.682   5.047   3.189
 6516TIP3    H219513   5.632   4.949   3.294
 6517TIP3   OH219514   6.592   5.400   2.966
 6517TIP3    H119515   6.670   5.429   2.919
 6517TIP3    H219516   6.525   5.466   2.944
 6518TIP3   OH219517   2.708   5.286   2.357
 6518TIP3    H119518   2.781   5.271   2.416
 6518TIP3    H219519   2.659   5.204   2.357
 6519TIP3   OH219520   0.242   1.275   1.646
 6519TIP3    H119521   0.205   1.327   1.718
 6519TIP3    H219522   0.237   1.333   1.570
 6520TIP3   OH219523   1.783   2.334   4.547
 6520TIP3    H119524   1.840   2.350   4.472
 6520TIP3    H219525   1.734   2.255   4.523
 6521TIP3   OH219526   4.905   6.394   5.819
 6521TIP3    H119527   4.870   6.346   5.745
 6521TIP3    H219528   4.963   6.460   5.780
 6522TIP3   OH219529   0.594   6.280   5.283
 6522TIP3    H119530   0.649   6.358   5.279
 6522TIP3    H219531   0.504   6.313   5.284
 6523TIP3   OH219532   4.061   4.054   3.005
 6523TIP3    H119533   4.053   4.074   3.098
 6523TIP3    H219534   4.039   3.961   2.998
 6524TIP3   OH219535   3.064   2.118   5.755
 6524TIP3    H119536   3.066   2.027   5.726
 6524TIP3    H219537   3.148   2.154   5.726
 6525TIP3   OH219538   6.934   4.132   2.663
 6525TIP3    H119539   6.952   4.076   2.586
 6525TIP3    H219540   6.883   4.076   2.721
 6526TIP3   OH219541   6.407   3.276   4.517
 6526TIP3    H119542   6.371   3.194   4.551
 6526TIP3    H219543   6.434   3.323   4.595
 6527TIP3   OH219544   6.287   4.953   5.463
 6527TIP3    H119545   6.242   4.933   5.382
 6527TIP3    H219546   6.240   5.029   5.499
 6528TIP3   OH219547   0.098   6.315   1.097
 6528TIP3    H119548   0.178   6.282   1.056
 6528TIP3    H219549   0.097   6.408   1.075
 6529TIP3   OH219550   0.981   2.640   5.761
 6529TIP3    H119551   0.977   2.709   5.828
 6529TIP3    H219552   1.073   2.640   5.733
 6530TIP3   OH219553   1.919   4.051   5.567
 6530TIP3    H119554   1.977   4.030   5.494
 6530TIP3    H219555   1.837   4.076   5.525
 6531TIP3   OH219556   4.641   3.185   5.230
 6531TIP3    H119557   4.660   3.105   5.280
 6531TIP3    H219558   4.700   3.181   5.155
 6532TIP3   OH219559   3.507   5.882   4.305
 6532TIP3    H119560   3.432   5.922   4.347
 6532TIP3    H219561   3.576   5.882   4.372
 6533TIP3   OH219562   3.486   0.904   4.371
 6533TIP3    H119563   3.509   0.975   4.311
 6533TIP3    H219564   3.405   0.868   4.336
 6534TIP3   OH219565   3.799   0.438   4.385
 6534TIP3    H119566   3.806   0.475   4.474
 6534TIP3    H219567   3.841   0.503   4.329
 6535TIP3   OH219568   4.158   1.395   5.202
 6535TIP3    H119569   4.078   1.391   5.254
 6535TIP3    H219570   4.131   1.362   5.116
 6536TIP3   OH219571   4.367   2.978   2.989
 6536TIP3    H119572   4.394   2.893   3.024
 6536TIP3    H219573   4.373   2.968   2.894
 6537TIP3   OH219574   2.937   1.673   4.110
 6537TIP3    H119575   2.876   1.686   4.182
 6537TIP3    H219576   2.889   1.619   4.047
 6538TIP3   OH219577   5.066   1.311   4.069
 6538TIP3    H119578   4.996   1.292   4.007
 6538TIP3    H219579   5.101   1.226   4.094
 6539TIP3   OH219580   1.867   1.574   5.745
 6539TIP3    H119581   1.887   1.660   5.709
 6539TIP3    H219582   1.772   1.572   5.752
 6540TIP3   OH219583   2.251   3.649   0.016
 6540TIP3    H119584   2.337   3.615   0.037
 6540TIP3    H219585   2.266   3.742  -0.002
 6541TIP3   OH219586   3.248   4.020   3.430
 6541TIP3    H119587   3.191   4.045   3.503
 6541TIP3    H219588   3.256   4.099   3.377
 6542TIP3   OH219589   0.303   5.458   0.632
 6542TIP3    H119590   0.371   5.419   0.577
 6542TIP3    H219591   0.324   5.429   0.721
 6543TIP3   OH219592   0.264   6.572   1.788
 6543TIP3    H119593   0.324   6.529   1.727
 6543TIP3    H219594   0.258   6.512   1.862
 6544TIP3   OH219595   3.195   3.496   4.212
 6544TIP3    H119596   3.267   3.433   4.205
 6544TIP3    H219597   3.233   3.579   4.183
 6545TIP3   OH219598   5.895   2.881   0.133
 6545TIP3    H119599   5.910   2.841   0.219
 6545TIP3    H219600   5.857   2.967   0.152
 6546TIP3   OH219601   4.021   0.458   3.436
 6546TIP3    H119602   3.975   0.432   3.516
 6546TIP3    H219603   4.023   0.553   3.439
 6547TIP3   OH219604   1.230   2.838   1.894
 6547TIP3    H119605   1.190   2.842   1.808
 6547TIP3    H219606   1.319   2.806   1.878
 6548TIP3   OH219607   5.720   3.397   2.800
 6548TIP3    H119608   5.659   3.323   2.806
 6548TIP3    H219609   5.729   3.413   2.706
 6549TIP3   OH219610   5.597   6.260   3.500
 6549TIP3    H119611   5.562   6.176   3.530
 6549TIP3    H219612   5.568   6.322   3.567
 6550TIP3   OH219613   1.595   6.279   2.720
 6550TIP3    H119614   1.598   6.184   2.724
 6550TIP3    H219615   1.654   6.302   2.648
 6551TIP3   OH219616   4.831   0.254   3.931
 6551TIP3    H119617   4.875   0.324   3.884
 6551TIP3    H219618   4.844   0.177   3.876
 6552TIP3   OH219619   1.759   5.831   0.605
 6552TIP3    H119620   1.767   5.870   0.692
 6552TIP3    H219621   1.665   5.824   0.591
 6553TIP3   OH219622   2.962   4.231   0.366
 6553TIP3    H119623   2.935   4.177   0.292
 6553TIP3    H219624   2.891   4.295   0.376
 6554TIP3   OH219625   5.524   1.282   1.625
 6554TIP3    H119626   5.619   1.293   1.622
 6554TIP3    H219627   5.504   1.223   1.552
 6555TIP3   OH219628   7.187   3.677   1.047
 6555TIP3    H119629   7.192   3.727   0.965
 6555TIP3    H219630   7.111   3.714   1.092
 6556TIP3   OH219631   0.864   3.792   4.350
 6556TIP3    H119632   0.816   3.716   4.317
 6556TIP3    H219633   0.842   3.862   4.289
 6557TIP3   OH219634   2.966   1.142   5.615
 6557TIP3    H119635   2.982   1.235   5.598
 6557TIP3    H219636   3.020   1.097   5.550
 6558TIP3   OH219637   4.774   5.827   3.216
 6558TIP3    H119638   4.798   5.849   3.126
 6558TIP3    H219639   4.684   5.794   3.209
 6559TIP3   OH219640   7.091   2.053   5.072
 6559TIP3    H119641   7.012   2.058   5.125
 6559TIP3    H219642   7.117   2.145   5.060
 6560TIP3   OH219643   7.027   2.898   0.855
 6560TIP3    H119644   7.026   2.994   0.856
 6560TIP3    H219645   7.089   2.874   0.925
 6561TIP3   OH219646   7.093   3.268   4.793
 6561TIP3    H119647   7.151   3.202   4.830
 6561TIP3    H219648   7.005   3.239   4.818
 6562TIP3   OH219649   3.798   2.908   3.962
 6562TIP3    H119650   3.774   2.970   3.894
 6562TIP3    H219651   3.856   2.957   4.020
 6563TIP3   OH219652   3.488   6.223   1.902
 6563TIP3    H119653   3.477   6.285   1.974
 6563TIP3    H219654   3.568   6.251   1.858
 6564TIP3   OH219655   3.116   1.336   0.780
 6564TIP3    H119656   3.097   1.430   0.773
 6564TIP3    H219657   3.065   1.307   0.856
 6565TIP3   OH219658   3.983   1.595   0.953
 6565TIP3    H119659   3.938   1.585   0.870
 6565TIP3    H219660   4.018   1.684   0.952
 6566TIP3   OH219661   2.901   5.067   2.691
 6566TIP3    H119662   2.980   5.028   2.727
 6566TIP3    H219663   2.913   5.065   2.596
 6567TIP3   OH219664   1.869   5.646   3.692
 6567TIP3    H119665   1.774   5.648   3.678
 6567TIP3    H219666   1.902   5.589   3.623
 6568TIP3   OH219667   2.024   3.791   3.791
 6568TIP3    H119668   2.037   3.886   3.780
 6568TIP3    H219669   1.980   3.783   3.876
 6569TIP3   OH219670   4.383   6.040   3.435
 6569TIP3    H119671   4.347   6.029   3.347
 6569TIP3    H219672   4.464   5.990   3.434
 6570TIP3   OH219673   6.252   6.073   0.195
 6570TIP3    H119674   6.160   6.083   0.170
 6570TIP3    H219675   6.266   5.978   0.198
 6571TIP3   OH219676   2.770   0.157   4.529
 6571TIP3    H119677   2.708   0.178   4.599
 6571TIP3    H219678   2.729   0.086   4.481
 6572TIP3   OH219679   2.984   4.084   5.657
 6572TIP3    H119680   3.038   4.102   5.734
 6572TIP3    H219681   2.990   3.990   5.645
 6573TIP3   OH219682   5.268   3.673   0.456
 6573TIP3    H119683   5.361   3.689   0.472
 6573TIP3    H219684   5.243   3.740   0.392
 6574TIP3   OH219685   5.331   2.260   0.665
 6574TIP3    H119686   5.416   2.300   0.684
 6574TIP3    H219687   5.329   2.252   0.569
 6575TIP3   OH219688   0.206   6.301   5.823
 6575TIP3    H119689   0.201   6.391   5.789
 6575TIP3    H219690   0.247   6.310   5.909
 6576TIP3   OH219691   0.328   5.030   0.144
 6576TIP3    H119692   0.289   5.117   0.151
 6576TIP3    H219693   0.271   4.974   0.196
 6577TIP3   OH219694   0.809   4.174   0.986
 6577TIP3    H119695   0.904   4.176   0.978
 6577TIP3    H219696   0.783   4.094   0.941
 6578TIP3   OH219697   4.230   2.192   1.437
 6578TIP3    H119698   4.244   2.164   1.527
 6578TIP3    H219699   4.167   2.263   1.442
 6579TIP3   OH219700   7.084   0.849   1.937
 6579TIP3    H119701   7.024   0.853   1.863
 6579TIP3    H219702   7.066   0.765   1.978
 6580TIP3   OH219703   2.226   0.804   2.070
 6580TIP3    H119704   2.201   0.732   2.129
 6580TIP3    H219705   2.145   0.852   2.056
 6581TIP3   OH219706   6.589   5.966   2.546
 6581TIP3    H119707   6.600   5.906   2.473
 6581TIP3    H219708   6.555   6.046   2.506
 6582TIP3   OH219709   4.951   2.401   5.275
 6582TIP3    H119710   4.888   2.336   5.243
 6582TIP3    H219711   5.035   2.354   5.278
 6583TIP3   OH219712   3.469   4.107   5.139
 6583TIP3    H119713   3.442   4.198   5.153
 6583TIP3    H219714   3.387   4.057   5.136
 6584TIP3   OH219715   4.177   4.991   4.003
 6584TIP3    H119716   4.093   4.971   3.962
 6584TIP3    H219717   4.216   5.057   3.946
 6585TIP3   OH219718   0.017   0.275   4.140
 6585TIP3    H119719   0.033   0.369   4.133
 6585TIP3    H219720   0.102   0.234   4.123
 6586TIP3   OH219721   4.607   1.575   3.572
 6586TIP3    H119722   4.606   1.508   3.504
 6586TIP3    H219723   4.560   1.536   3.646
 6587TIP3   OH219724   3.618   4.090   1.785
 6587TIP3    H119725   3.525   4.078   1.768
 6587TIP3    H219726   3.632   4.184   1.783
 6588TIP3   OH219727   4.700   4.250   1.310
 6588TIP3    H119728   4.710   4.326   1.252
 6588TIP3    H219729   4.783   4.247   1.359
 6589TIP3   OH219730   4.652   5.631   3.754
 6589TIP3    H119731   4.637   5.722   3.776
 6589TIP3    H219732   4.569   5.600   3.720
 6590TIP3   OH219733   6.051   2.126   4.146
 6590TIP3    H119734   6.014   2.210   4.175
 6590TIP3    H219735   6.119   2.106   4.211
 6591TIP3   OH219736   6.374   6.650   3.814
 6591TIP3    H119737   6.454   6.693   3.842
 6591TIP3    H219738   6.396   6.610   3.729
 6592TIP3   OH219739   3.768   1.991   3.157
 6592TIP3    H119740   3.748   1.935   3.232
 6592TIP3    H219741   3.685   2.000   3.111
 6593TIP3   OH219742   2.432   0.224   3.088
 6593TIP3    H119743   2.501   0.289   3.100
 6593TIP3    H219744   2.351   0.271   3.106
 6594TIP3   OH219745   3.602   6.071   3.440
 6594TIP3    H119746   3.628   6.011   3.509
 6594TIP3    H219747   3.600   6.157   3.482
 6595TIP3   OH219748   4.499   5.488   0.936
 6595TIP3    H119749   4.429   5.463   0.996
 6595TIP3    H219750   4.563   5.416   0.942
 6596TIP3   OH219751   3.429   6.260   5.501
 6596TIP3    H119752   3.389   6.224   5.580
 6596TIP3    H219753   3.523   6.245   5.512
 6597TIP3   OH219754   2.500   6.648   4.269
 6597TIP3    H119755   2.547   6.710   4.325
 6597TIP3    H219756   2.473   6.699   4.193
 6598TIP3   OH219757   6.534   2.103   2.900
 6598TIP3    H119758   6.484   2.153   2.836
 6598TIP3    H219759   6.608   2.067   2.850
 6599TIP3   OH219760   3.092   0.456   0.039
 6599TIP3    H119761   3.101   0.361   0.033
 6599TIP3    H219762   3.001   0.473   0.014
 6600TIP3   OH219763   3.541   2.571   5.659
 6600TIP3    H119764   3.561   2.659   5.691
 6600TIP3    H219765   3.620   2.520   5.679
 6601TIP3   OH219766   6.572   6.622   2.301
 6601TIP3    H119767   6.576   6.638   2.207
 6601TIP3    H219768   6.655   6.657   2.335
 6602TIP3   OH219769   2.396  -0.012   3.191
 6602TIP3    H119770   2.429   0.075   3.169
 6602TIP3    H219771   2.468  -0.071   3.167
 6603TIP3   OH219772   1.936   0.743   1.794
 6603TIP3    H119773   2.014   0.761   1.845
 6603TIP3    H219774   1.878   0.696   1.854
 6604TIP3   OH219775   2.609   3.546   5.690
 6604TIP3    H119776   2.596   3.451   5.696
 6604TIP3    H219777   2.702   3.559   5.712
 6605TIP3   OH219778   2.076   6.678   1.395
 6605TIP3    H119779   2.164   6.709   1.418
 6605TIP3    H219780   2.018   6.749   1.423
 6606TIP3   OH219781   3.264   2.246   4.424
 6606TIP3    H119782   3.178   2.286   4.440
 6606TIP3    H219783   3.326   2.318   4.431
 6607TIP3   OH219784   1.860   2.522   1.878
 6607TIP3    H119785   1.911   2.497   1.954
 6607TIP3    H219786   1.915   2.498   1.803
 6608TIP3   OH219787   2.791   3.497   0.804
 6608TIP3    H119788   2.825   3.528   0.720
 6608TIP3    H219789   2.833   3.553   0.869
 6609TIP3   OH219790   0.618   6.678   2.713
 6609TIP3    H119791   0.614   6.768   2.682
 6609TIP3    H219792   0.689   6.677   2.777
 6610TIP3   OH219793   6.169   5.403   4.286
 6610TIP3    H119794   6.233   5.368   4.347
 6610TIP3    H219795   6.125   5.472   4.335
 6611TIP3   OH219796   4.446   0.245   1.519
 6611TIP3    H119797   4.390   0.190   1.464
 6611TIP3    H219798   4.388   0.276   1.588
 6612TIP3   OH219799   3.774   2.231   2.601
 6612TIP3    H119800   3.866   2.205   2.610
 6612TIP3    H219801   3.764   2.303   2.663
 6613TIP3   OH219802   3.481   0.498   5.795
 6613TIP3    H119803   3.426   0.522   5.870
 6613TIP3    H219804   3.569   0.495   5.831
 6614TIP3   OH219805   5.900   5.278   2.586
 6614TIP3    H119806   5.945   5.280   2.501
 6614TIP3    H219807   5.960   5.229   2.642
 6615TIP3   OH219808   2.206   4.074   5.662
 6615TIP3    H119809   2.176   3.989   5.632
 6615TIP3    H219810   2.131   4.132   5.651
 6616TIP3   OH219811   5.425   5.889   2.456
 6616TIP3    H119812   5.402   5.956   2.520
 6616TIP3    H219813   5.518   5.903   2.439
 6617TIP3   OH219814   6.536   2.467   2.292
 6617TIP3    H119815   6.591   2.454   2.369
 6617TIP3    H219816   6.461   2.517   2.324
 6618TIP3   OH219817   4.556   2.048   5.072
 6618TIP3    H119818   4.628   2.106   5.050
 6618TIP3    H219819   4.520   2.021   4.988
 6619TIP3   OH219820   5.391   1.623   0.906
 6619TIP3    H119821   5.315   1.566   0.919
 6619TIP3    H219822   5.395   1.676   0.985
 6620TIP3   OH219823   4.460   2.105   3.171
 6620TIP3    H119824   4.460   2.015   3.205
 6620TIP3    H219825   4.370   2.135   3.183
 6621TIP3   OH219826   3.784   4.297   3.694
 6621TIP3    H119827   3.845   4.225   3.682
 6621TIP3    H219828   3.803   4.357   3.622
 6622TIP3   OH219829   6.479   0.149   3.324
 6622TIP3    H119830   6.476   0.235   3.281
 6622TIP3    H219831   6.414   0.097   3.278
 6623TIP3   OH219832   6.281   2.211   0.502
 6623TIP3    H119833   6.306   2.270   0.431
 6623TIP3    H219834   6.208   2.161   0.467
 6624TIP3   OH219835   5.031   1.422   0.337
 6624TIP3    H119836   4.996   1.477   0.267
 6624TIP3    H219837   4.961   1.417   0.401
 6625TIP3   OH219838   1.733   0.592   1.946
 6625TIP3    H119839   1.664   0.596   2.012
 6625TIP3    H219840   1.714   0.513   1.896
 6626TIP3   OH219841   0.315   0.468   1.202
 6626TIP3    H119842   0.233   0.507   1.235
 6626TIP3    H219843   0.332   0.515   1.120
 6627TIP3   OH219844   4.052   1.490   1.673
 6627TIP3    H119845   4.117   1.485   1.603
 6627TIP3    H219846   3.976   1.443   1.638
 6628TIP3   OH219847   4.573   5.792   4.773
 6628TIP3    H119848   4.617   5.827   4.851
 6628TIP3    H219849   4.610   5.704   4.763
 6629TIP3   OH219850   0.610   3.733   1.081
 6629TIP3    H119851   0.621   3.737   1.176
 6629TIP3    H219852   0.665   3.660   1.053
 6630TIP3   OH219853   6.105   3.350   5.019
 6630TIP3    H119854   6.145   3.430   5.053
 6630TIP3    H219855   6.064   3.377   4.937
 6631TIP3   OH219856   2.784   5.643   5.869
 6631TIP3    H119857   2.821   5.728   5.894
 6631TIP3    H219858   2.701   5.639   5.917
 6632TIP3   OH219859   2.332   5.066   2.696
 6632TIP3    H119860   2.270   5.004   2.659
 6632TIP3    H219861   2.323   5.056   2.791
 6633TIP3   OH219862   5.650   0.088   5.316
 6633TIP3    H119863   5.677   0.063   5.405
 6633TIP3    H219864   5.590   0.162   5.329
 6634TIP3   OH219865   1.190   5.053   0.371
 6634TIP3    H119866   1.208   4.993   0.298
 6634TIP3    H219867   1.095   5.050   0.382
 6635TIP3   OH219868   4.378   4.194   0.461
 6635TIP3    H119869   4.352   4.103   0.451
 6635TIP3    H219870   4.384   4.228   0.372
 6636TIP3   OH219871   2.276   0.795   5.449
 6636TIP3    H119872   2.279   0.702   5.425
 6636TIP3    H219873   2.295   0.842   5.368
 6637TIP3   OH219874   5.954   1.388   4.637
 6637TIP3    H119875   5.865   1.372   4.668
 6637TIP3    H219876   5.948   1.379   4.542
 6638TIP3   OH219877   2.489   4.946   0.988
 6638TIP3    H119878   2.540   4.903   1.057
 6638TIP3    H219879   2.399   4.945   1.021
 6639TIP3   OH219880   5.924   5.232   3.428
 6639TIP3    H119881   5.942   5.300   3.493
 6639TIP3    H219882   5.928   5.150   3.477
 6640TIP3   OH219883   4.377   4.120   3.325
 6640TIP3    H119884   4.322   4.076   3.260
 6640TIP3    H219885   4.428   4.050   3.365
 6641TIP3   OH219886   5.209   3.897   4.990
 6641TIP3    H119887   5.252   3.811   4.983
 6641TIP3    H219888   5.280   3.957   5.013
 6642TIP3   OH219889   0.438   1.133   4.378
 6642TIP3    H119890   0.420   1.187   4.455
 6642TIP3    H219891   0.528   1.102   4.392
 6643TIP3   OH219892   7.185   6.717   0.751
 6643TIP3    H119893   7.210   6.781   0.817
 6643TIP3    H219894   7.125   6.765   0.692
 6644TIP3   OH219895   2.830   2.684   1.488
 6644TIP3    H119896   2.874   2.611   1.531
 6644TIP3    H219897   2.837   2.756   1.551
 6645TIP3   OH219898   0.793   1.041   0.541
 6645TIP3    H119899   0.772   1.028   0.633
 6645TIP3    H219900   0.888   1.055   0.539
 6646TIP3   OH219901   6.744   6.411   5.402
 6646TIP3    H119902   6.664   6.379   5.445
 6646TIP3    H219903   6.713   6.455   5.323
 6647TIP3   OH219904   2.030   4.977   0.752
 6647TIP3    H119905   2.083   4.898   0.743
 6647TIP3    H219906   2.092   5.046   0.776
 6648TIP3   OH219907   6.162   0.679   1.940
 6648TIP3    H119908   6.190   0.757   1.892
 6648TIP3    H219909   6.131   0.713   2.024
 6649TIP3   OH219910   3.375   4.754   2.552
 6649TIP3    H119911   3.327   4.682   2.512
 6649TIP3    H219912   3.467   4.731   2.539
 6650TIP3   OH219913   5.317   3.390   1.576
 6650TIP3    H119914   5.346   3.357   1.661
 6650TIP3    H219915   5.255   3.460   1.597
 6651TIP3   OH219916   6.903   3.757   2.107
 6651TIP3    H119917   6.883   3.706   2.185
 6651TIP3    H219918   6.916   3.692   2.038
 6652TIP3   OH219919   5.428   3.257   2.325
 6652TIP3    H119920   5.348   3.295   2.362
 6652TIP3    H219921   5.499   3.307   2.366
 6653TIP3   OH219922   0.383   1.529   3.207
 6653TIP3    H119923   0.329   1.570   3.139
 6653TIP3    H219924   0.466   1.512   3.164
 6654TIP3   OH219925   2.234   1.746   3.799
 6654TIP3    H119926   2.195   1.695   3.870
 6654TIP3    H219927   2.321   1.707   3.787
 6655TIP3   OH219928   1.473   5.938   2.632
 6655TIP3    H119929   1.402   5.873   2.633
 6655TIP3    H219930   1.529   5.914   2.705
 6656TIP3   OH219931   1.766   2.050   4.197
 6656TIP3    H119932   1.681   2.015   4.224
 6656TIP3    H219933   1.749   2.089   4.111
 6657TIP3   OH219934   6.904   5.382   5.424
 6657TIP3    H119935   6.844   5.359   5.496
 6657TIP3    H219936   6.923   5.298   5.382
 6658TIP3   OH219937   3.521   6.008   0.613
 6658TIP3    H119938   3.493   6.092   0.576
 6658TIP3    H219939   3.529   5.950   0.538
 6659TIP3   OH219940   3.819   1.518   0.395
 6659TIP3    H119941   3.750   1.508   0.460
 6659TIP3    H219942   3.772   1.545   0.315
 6660TIP3   OH219943   4.821   5.750   1.947
 6660TIP3    H119944   4.765   5.741   2.024
 6660TIP3    H219945   4.874   5.828   1.966
 6661TIP3   OH219946   0.547   5.459   3.781
 6661TIP3    H119947   0.620   5.442   3.841
 6661TIP3    H219948   0.482   5.394   3.805
 6662TIP3   OH219949   1.414  -0.008   5.131
 6662TIP3    H119950   1.382   0.033   5.051
 6662TIP3    H219951   1.364  -0.090   5.137
 6663TIP3   OH219952   4.325   5.435   1.138
 6663TIP3    H119953   4.233   5.418   1.119
 6663TIP3    H219954   4.338   5.400   1.227
 6664TIP3   OH219955   6.410   1.795   1.610
 6664TIP3    H119956   6.465   1.717   1.618
 6664TIP3    H219957   6.355   1.778   1.533
 6665TIP3   OH219958   2.320   1.220   2.207
 6665TIP3    H119959   2.400   1.240   2.157
 6665TIP3    H219960   2.301   1.301   2.254
 6666TIP3   OH219961   4.317   2.969   2.727
 6666TIP3    H119962   4.327   3.049   2.677
 6666TIP3    H219963   4.342   2.899   2.666
 6667TIP3   OH219964   6.156   6.186   5.851
 6667TIP3    H119965   6.114   6.158   5.932
 6667TIP3    H219966   6.228   6.124   5.838
 6668TIP3   OH219967   6.686   4.796   2.229
 6668TIP3    H119968   6.620   4.864   2.247
 6668TIP3    H219969   6.685   4.786   2.134
 6669TIP3   OH219970   2.351   4.201   0.226
 6669TIP3    H119971   2.287   4.134   0.199
 6669TIP3    H219972   2.313   4.284   0.197
 6670TIP3   OH219973   0.360   4.477   0.492
 6670TIP3    H119974   0.433   4.514   0.542
 6670TIP3    H219975   0.309   4.428   0.556
 6671TIP3   OH219976   1.461   2.404   1.149
 6671TIP3    H119977   1.367   2.420   1.157
 6671TIP3    H219978   1.477   2.327   1.204
 6672TIP3   OH219979   0.720   1.664   3.194
 6672TIP3    H119980   0.663   1.671   3.271
 6672TIP3    H219981   0.771   1.745   3.195
 6673TIP3   OH219982   1.649   2.610   0.974
 6673TIP3    H119983   1.584   2.663   1.020
 6673TIP3    H219984   1.685   2.552   1.042
 6674TIP3   OH219985   4.289   2.294   2.141
 6674TIP3    H119986   4.310   2.346   2.218
 6674TIP3    H219987   4.242   2.354   2.083
 6675TIP3   OH219988   1.504   2.488   4.988
 6675TIP3    H119989   1.436   2.492   5.056
 6675TIP3    H219990   1.499   2.398   4.956
 6676TIP3   OH219991   5.173   3.749   4.242
 6676TIP3    H119992   5.217   3.763   4.326
 6676TIP3    H219993   5.214   3.670   4.207
 6677TIP3   OH219994   0.846   6.497   5.516
 6677TIP3    H119995   0.871   6.556   5.587
 6677TIP3    H219996   0.922   6.495   5.458
 6678TIP3   OH219997   2.368   0.092   2.572
 6678TIP3    H119998   2.303   0.038   2.616
 6678TIP3    H219999   2.321   0.172   2.548
 6679TIP3   OH220000   1.084   5.065   2.355
 6679TIP3    H120001   1.011   5.126   2.348
 6679TIP3    H220002   1.136   5.098   2.428
 6680TIP3   OH220003   4.574   1.634   4.198
 6680TIP3    H120004   4.562   1.709   4.256
 6680TIP3    H220005   4.621   1.668   4.122
 6681TIP3   OH220006   2.202   5.148   1.327
 6681TIP3    H120007   2.172   5.238   1.317
 6681TIP3    H220008   2.199   5.132   1.422
 6682TIP3   OH220009   1.472   4.533   3.427
 6682TIP3    H120010   1.442   4.623   3.408
 6682TIP3    H220011   1.504   4.501   3.343
 6683TIP3   OH220012   0.080   3.056   5.284
 6683TIP3    H120013   0.138   3.111   5.231
 6683TIP3    H220014   0.057   3.111   5.359
 6684TIP3   OH220015   0.990   2.607   2.653
 6684TIP3    H120016   0.927   2.568   2.592
 6684TIP3    H220017   0.992   2.700   2.630
 6685TIP3   OH220018   1.089   3.105   3.298
 6685TIP3    H120019   1.132   3.070   3.376
 6685TIP3    H220020   1.023   3.039   3.275
 6686TIP3   OH220021   0.094   4.583   1.254
 6686TIP3    H120022   0.062   4.578   1.343
 6686TIP3    H220023   0.137   4.668   1.248
 6687TIP3   OH220024   6.721   1.619   2.496
 6687TIP3    H120025   6.635   1.600   2.460
 6687TIP3    H220026   6.782   1.593   2.427
 6688TIP3   OH220027   0.275   3.951   2.656
 6688TIP3    H120028   0.194   3.978   2.614
 6688TIP3    H220029   0.322   4.033   2.672
 6689TIP3   OH220030   2.339   4.918   5.783
 6689TIP3    H120031   2.310   4.914   5.692
 6689TIP3    H220032   2.359   5.011   5.798
 6690TIP3   OH220033   2.735   1.003   2.019
 6690TIP3    H120034   2.682   1.028   1.944
 6690TIP3    H220035   2.757   0.911   2.002
 6691TIP3   OH220036   1.026   0.376   3.095
 6691TIP3    H120037   1.056   0.313   3.160
 6691TIP3    H220038   1.104   0.396   3.043
 6692TIP3   OH220039   0.469   4.412   1.310
 6692TIP3    H120040   0.546   4.393   1.364
 6692TIP3    H220041   0.397   4.415   1.373
 6693TIP3   OH220042   6.874   5.188   1.389
 6693TIP3    H120043   6.911   5.122   1.448
 6693TIP3    H220044   6.890   5.271   1.434
 6694TIP3   OH220045   2.012   1.808   3.621
 6694TIP3    H120046   2.091   1.791   3.673
 6694TIP3    H220047   1.984   1.721   3.591
 6695TIP3   OH220048   3.812   0.301   2.880
 6695TIP3    H120049   3.743   0.238   2.899
 6695TIP3    H220050   3.847   0.273   2.795
 6696TIP3   OH220051   0.522   6.362   2.468
 6696TIP3    H120052   0.610   6.400   2.461
 6696TIP3    H220053   0.529   6.278   2.424
 6697TIP3   OH220054   6.395   1.573   3.088
 6697TIP3    H120055   6.402   1.594   2.995
 6697TIP3    H220056   6.485   1.569   3.118
 6698TIP3   OH220057   1.652   1.247   1.925
 6698TIP3    H120058   1.604   1.179   1.971
 6698TIP3    H220059   1.638   1.326   1.979
 6699TIP3   OH220060   5.229   2.100   2.804
 6699TIP3    H120061   5.196   2.132   2.720
 6699TIP3    H220062   5.160   2.044   2.837
 6700TIP3   OH220063   3.130   4.308   0.924
 6700TIP3    H120064   3.116   4.221   0.961
 6700TIP3    H220065   3.150   4.363   1.000
 6701TIP3   OH220066   5.937   1.337   3.035
 6701TIP3    H120067   6.027   1.347   3.004
 6701TIP3    H220068   5.902   1.262   2.986
 6702TIP3   OH220069   6.999   5.866   0.949
 6702TIP3    H120070   6.994   5.942   0.892
 6702TIP3    H220071   7.090   5.836   0.942
 6703TIP3   OH220072   3.685   3.295   3.718
 6703TIP3    H120073   3.622   3.351   3.763
 6703TIP3    H220074   3.735   3.354   3.662
 6704TIP3   OH220075   2.197   4.221   4.925
 6704TIP3    H120076   2.230   4.158   4.989
 6704TIP3    H220077   2.265   4.289   4.921
 6705TIP3   OH220078   4.412   6.341   1.969
 6705TIP3    H120079   4.325   6.349   2.009
 6705TIP3    H220080   4.398   6.365   1.877
 6706TIP3   OH220081   1.482   0.807   1.154
 6706TIP3    H120082   1.401   0.857   1.170
 6706TIP3    H220083   1.457   0.740   1.091
 6707TIP3   OH220084   4.001   3.082   4.031
 6707TIP3    H120085   4.083   3.119   4.064
 6707TIP3    H220086   3.958   3.156   3.988
 6708TIP3   OH220087   6.008   3.379   0.286
 6708TIP3    H120088   5.932   3.416   0.243
 6708TIP3    H220089   5.978   3.295   0.320
 6709TIP3   OH220090   0.246   3.326   1.334
 6709TIP3    H120091   0.189   3.390   1.293
 6709TIP3    H220092   0.213   3.319   1.424
 6710TIP3   OH220093   6.454   5.936   3.658
 6710TIP3    H120094   6.459   5.865   3.594
 6710TIP3    H220095   6.470   6.015   3.607
 6711TIP3   OH220096   3.097   1.560   3.550
 6711TIP3    H120097   3.018   1.581   3.599
 6711TIP3    H220098   3.102   1.464   3.553
 6712TIP3   OH220099   3.770   4.905   5.447
 6712TIP3    H120100   3.746   4.879   5.358
 6712TIP3    H220101   3.817   4.829   5.482
 6713TIP3   OH220102   5.179   5.150   1.496
 6713TIP3    H120103   5.116   5.103   1.550
 6713TIP3    H220104   5.172   5.242   1.524
 6714TIP3   OH220105   1.041   2.797   3.824
 6714TIP3    H120106   0.989   2.867   3.862
 6714TIP3    H220107   1.129   2.810   3.859
 6715TIP3   OH220108   2.018   4.320   4.726
 6715TIP3    H120109   2.088   4.272   4.769
 6715TIP3    H220110   1.946   4.319   4.788
 6716TIP3   OH220111   4.782   2.351   1.566
 6716TIP3    H120112   4.787   2.257   1.583
 6716TIP3    H220113   4.767   2.358   1.472
 6717TIP3   OH220114   6.195   1.121   2.508
 6717TIP3    H120115   6.118   1.066   2.523
 6717TIP3    H220116   6.165   1.187   2.445
 6718TIP3   OH220117   2.488   2.753   2.722
 6718TIP3    H120118   2.394   2.741   2.709
 6718TIP3    H220119   2.529   2.680   2.676
 6719TIP3   OH220120   2.768   2.192   0.430
 6719TIP3    H120121   2.861   2.200   0.452
 6719TIP3    H220122   2.724   2.184   0.515
 6720TIP3   OH220123   2.542   0.697   4.639
 6720TIP3    H120124   2.447   0.705   4.630
 6720TIP3    H220125   2.570   0.656   4.558
 6721TIP3   OH220126   6.951   0.600   2.036
 6721TIP3    H120127   6.887   0.559   1.979
 6721TIP3    H220128   6.900   0.656   2.093
 6722TIP3   OH220129   2.788   5.163   3.856
 6722TIP3    H120130   2.825   5.110   3.927
 6722TIP3    H220131   2.854   5.160   3.787
 6723TIP3   OH220132   5.112   1.991   0.453
 6723TIP3    H120133   5.204   2.006   0.476
 6723TIP3    H220134   5.064   2.052   0.508
 6724TIP3   OH220135   0.806   6.229   3.454
 6724TIP3    H120136   0.808   6.172   3.531
 6724TIP3    H220137   0.795   6.317   3.490
 6725TIP3   OH220138   4.188   5.426   0.644
 6725TIP3    H120139   4.250   5.495   0.623
 6725TIP3    H220140   4.226   5.381   0.720
 6726TIP3   OH220141   3.048   1.164   0.563
 6726TIP3    H120142   3.086   1.234   0.617
 6726TIP3    H220143   3.077   1.083   0.605
 6727TIP3   OH220144   5.662   0.826   5.373
 6727TIP3    H120145   5.612   0.808   5.453
 6727TIP3    H220146   5.728   0.889   5.400
 6728TIP3   OH220147   0.511   5.703   5.046
 6728TIP3    H120148   0.554   5.753   5.115
 6728TIP3    H220149   0.502   5.765   4.974
 6729TIP3   OH220150   4.463   1.869   3.817
 6729TIP3    H120151   4.405   1.848   3.745
 6729TIP3    H220152   4.501   1.785   3.843
 6730TIP3   OH220153   5.058   1.140   5.041
 6730TIP3    H120154   5.107   1.206   5.092
 6730TIP3    H220155   5.124   1.076   5.016
 6731TIP3   OH220156   2.090   0.884   3.261
 6731TIP3    H120157   2.063   0.800   3.299
 6731TIP3    H220158   2.169   0.908   3.309
 6732TIP3   OH220159   1.015   3.439   2.757
 6732TIP3    H120160   1.101   3.396   2.756
 6732TIP3    H220161   0.952   3.367   2.746
 6733TIP3   OH220162   2.034   5.348   4.791
 6733TIP3    H120163   2.038   5.405   4.867
 6733TIP3    H220164   1.975   5.277   4.817
 6734TIP3   OH220165   6.738   2.259   5.826
 6734TIP3    H120166   6.648   2.248   5.794
 6734TIP3    H220167   6.792   2.258   5.747
 6735TIP3   OH220168   6.286   4.995   3.041
 6735TIP3    H120169   6.326   5.077   3.013
 6735TIP3    H220170   6.279   5.004   3.137
 6736TIP3   OH220171   5.518   5.750   4.724
 6736TIP3    H120172   5.524   5.655   4.712
 6736TIP3    H220173   5.457   5.779   4.656
 6737TIP3   OH220174   0.067   3.385   4.624
 6737TIP3    H120175   0.083   3.292   4.608
 6737TIP3    H220176   0.014   3.387   4.703
 6738TIP3   OH220177   6.914   0.073   0.160
 6738TIP3    H120178   6.996   0.120   0.170
 6738TIP3    H220179   6.865   0.123   0.094
 6739TIP3   OH220180   0.086   2.860   1.926
 6739TIP3    H120181   0.000   2.860   1.967
 6739TIP3    H220182   0.107   2.767   1.915
 6740TIP3   OH220183   5.999   5.609   2.043
 6740TIP3    H120184   5.908   5.586   2.065
 6740TIP3    H220185   6.018   5.558   1.965
 6741TIP3   OH220186   1.324   3.791   1.546
 6741TIP3    H120187   1.270   3.716   1.523
 6741TIP3    H220188   1.267   3.867   1.536
 6742TIP3   OH220189   4.490   2.122   1.121
 6742TIP3    H120190   4.459   2.108   1.032
 6742TIP3    H220191   4.454   2.049   1.171
 6743TIP3   OH220192   6.551   1.070   3.481
 6743TIP3    H120193   6.626   1.013   3.498
 6743TIP3    H220194   6.576   1.121   3.404
 6744TIP3   OH220195   0.806   2.509   1.001
 6744TIP3    H120196   0.870   2.561   0.953
 6744TIP3    H220197   0.777   2.565   1.072
 6745TIP3   OH220198   5.589   4.916   4.833
 6745TIP3    H120199   5.677   4.938   4.864
 6745TIP3    H220200   5.544   5.000   4.826
 6746TIP3   OH220201   5.684   6.689   4.288
 6746TIP3    H120202   5.658   6.720   4.201
 6746TIP3    H220203   5.682   6.594   4.281
 6747TIP3   OH220204   5.118   4.672   2.844
 6747TIP3    H120205   5.083   4.717   2.766
 6747TIP3    H220206   5.060   4.699   2.915
 6748TIP3   OH220207   4.931   3.704   3.901
 6748TIP3    H120208   4.973   3.623   3.928
 6748TIP3    H220209   4.987   3.773   3.937
 6749TIP3   OH220210   2.920   6.161   1.871
 6749TIP3    H120211   2.965   6.104   1.809
 6749TIP3    H220212   2.865   6.102   1.923
 6750TIP3   OH220213   3.029   3.269   2.087
 6750TIP3    H120214   3.093   3.336   2.109
 6750TIP3    H220215   3.068   3.220   2.015
 6751TIP3   OH220216   5.264   4.937   2.233
 6751TIP3    H120217   5.183   4.952   2.283
 6751TIP3    H220218   5.330   4.922   2.301
 6752TIP3   OH220219   0.617   5.550   0.179
 6752TIP3    H120220   0.581   5.622   0.231
 6752TIP3    H220221   0.705   5.537   0.214
 6753TIP3   OH220222   4.497   6.232   3.624
 6753TIP3    H120223   4.451   6.179   3.559
 6753TIP3    H220224   4.589   6.220   3.604
 6754TIP3   OH220225   5.962   3.143   4.390
 6754TIP3    H120226   5.995   3.207   4.454
 6754TIP3    H220227   5.869   3.133   4.411
 6755TIP3   OH220228   6.339   1.527   4.945
 6755TIP3    H120229   6.331   1.432   4.958
 6755TIP3    H220230   6.377   1.560   5.026
 6756TIP3   OH220231   7.143   2.948   4.347
 6756TIP3    H120232   7.137   2.877   4.411
 6756TIP3    H220233   7.225   2.993   4.369
 6757TIP3   OH220234   1.408   5.339   2.230
 6757TIP3    H120235   1.410   5.275   2.302
 6757TIP3    H220236   1.393   5.423   2.274
 6758TIP3   OH220237   4.222   4.865   5.551
 6758TIP3    H120238   4.262   4.910   5.476
 6758TIP3    H220239   4.269   4.898   5.627
 6759TIP3   OH220240   1.911   4.668   0.282
 6759TIP3    H120241   1.978   4.638   0.221
 6759TIP3    H220242   1.903   4.762   0.264
 6760TIP3   OH220243   0.392   2.764   5.080
 6760TIP3    H120244   0.377   2.761   4.985
 6760TIP3    H220245   0.457   2.834   5.091
 6761TIP3   OH220246   3.671   3.658   4.018
 6761TIP3    H120247   3.618   3.736   4.006
 6761TIP3    H220248   3.683   3.624   3.929
 6762TIP3   OH220249   0.267   6.387   0.731
 6762TIP3    H120250   0.246   6.469   0.687
 6762TIP3    H220251   0.336   6.410   0.793
 6763TIP3   OH220252   2.397   4.165   2.138
 6763TIP3    H120253   2.434   4.173   2.050
 6763TIP3    H220254   2.302   4.173   2.125
 6764TIP3   OH220255   4.116   1.314   4.946
 6764TIP3    H120256   4.148   1.225   4.935
 6764TIP3    H220257   4.072   1.334   4.863
 6765TIP3   OH220258   4.401   3.460   1.654
 6765TIP3    H120259   4.348   3.540   1.649
 6765TIP3    H220260   4.402   3.437   1.746
 6766TIP3   OH220261   3.235   1.409   2.580
 6766TIP3    H120262   3.185   1.345   2.530
 6766TIP3    H220263   3.326   1.390   2.559
 6767TIP3   OH220264   4.549   3.664   1.086
 6767TIP3    H120265   4.510   3.593   1.035
 6767TIP3    H220266   4.568   3.625   1.171
 6768TIP3   OH220267   6.749   4.734   0.568
 6768TIP3    H120268   6.735   4.690   0.484
 6768TIP3    H220269   6.667   4.722   0.616
 6769TIP3   OH220270   6.532   0.988   4.257
 6769TIP3    H120271   6.582   1.056   4.211
 6769TIP3    H220272   6.594   0.950   4.319
 6770TIP3   OH220273   3.347   5.338   5.782
 6770TIP3    H120274   3.265   5.292   5.801
 6770TIP3    H220275   3.358   5.398   5.855
 6771TIP3   OH220276   3.663   6.079   2.332
 6771TIP3    H120277   3.720   6.068   2.256
 6771TIP3    H220278   3.590   6.132   2.301
 6772TIP3   OH220279   6.076   4.468   0.334
 6772TIP3    H120280   6.126   4.439   0.257
 6772TIP3    H220281   6.038   4.552   0.307
 6773TIP3   OH220282   1.257   6.748   3.272
 6773TIP3    H120283   1.164   6.748   3.297
 6773TIP3    H220284   1.280   6.655   3.264
 6774TIP3   OH220285   5.675   6.022   3.685
 6774TIP3    H120286   5.730   6.099   3.700
 6774TIP3    H220287   5.712   5.981   3.607
 6775TIP3   OH220288   7.219   1.912   4.013
 6775TIP3    H120289   7.164   1.894   3.937
 6775TIP3    H220290   7.180   1.991   4.052
 6776TIP3   OH220291   1.480   3.894   0.782
 6776TIP3    H120292   1.469   3.987   0.801
 6776TIP3    H220293   1.393   3.865   0.754
 6777TIP3   OH220294   2.228  -0.030   0.080
 6777TIP3    H120295   2.254   0.032   0.148
 6777TIP3    H220296   2.142  -0.062   0.108
 6778TIP3   OH220297   6.396   0.758   2.412
 6778TIP3    H120298   6.300   0.761   2.410
 6778TIP3    H220299   6.420   0.826   2.476
 6779TIP3   OH220300   2.905   3.145   0.068
 6779TIP3    H120301   2.916   3.205   0.141
 6779TIP3    H220302   2.905   3.058   0.108
 6780TIP3   OH220303   3.811   3.964   1.068
 6780TIP3    H120304   3.871   3.929   1.002
 6780TIP3    H220305   3.863   3.967   1.148
 6781TIP3   OH220306   1.442   4.608   2.479
 6781TIP3    H120307   1.376   4.546   2.510
 6781TIP3    H220308   1.401   4.649   2.402
 6782TIP3   OH220309   5.796   2.516   4.301
 6782TIP3    H120310   5.834   2.600   4.273
 6782TIP3    H220311   5.767   2.531   4.391
 6783TIP3   OH220312   5.687   0.492   3.618
 6783TIP3    H120313   5.772   0.447   3.611
 6783TIP3    H220314   5.666   0.516   3.528
 6784TIP3   OH220315   5.186   2.381   1.615
 6784TIP3    H120316   5.180   2.380   1.519
 6784TIP3    H220317   5.180   2.289   1.640
 6785TIP3   OH220318   5.404   6.268   3.957
 6785TIP3    H120319   5.401   6.173   3.963
 6785TIP3    H220320   5.351   6.298   4.031
 6786TIP3   OH220321   5.753   6.729   2.520
 6786TIP3    H120322   5.722   6.814   2.551
 6786TIP3    H220323   5.801   6.692   2.594
 6787TIP3   OH220324   3.805   4.769   3.064
 6787TIP3    H120325   3.844   4.699   3.115
 6787TIP3    H220326   3.729   4.796   3.115
 6788TIP3   OH220327   1.124   3.025   1.434
 6788TIP3    H120328   1.164   2.977   1.507
 6788TIP3    H220329   1.082   3.100   1.475
 6789TIP3   OH220330   2.222   6.086   2.592
 6789TIP3    H120331   2.148   6.140   2.619
 6789TIP3    H220332   2.182   6.007   2.556
 6790TIP3   OH220333   3.381   0.123   5.222
 6790TIP3    H120334   3.377   0.124   5.317
 6790TIP3    H220335   3.461   0.172   5.201
 6791TIP3   OH220336   5.659   6.671   5.625
 6791TIP3    H120337   5.747   6.637   5.609
 6791TIP3    H220338   5.603   6.593   5.631
 6792TIP3   OH220339   3.233   3.570   3.268
 6792TIP3    H120340   3.140   3.593   3.261
 6792TIP3    H220341   3.270   3.638   3.323
 6793TIP3   OH220342   3.170   5.231   1.563
 6793TIP3    H120343   3.192   5.142   1.592
 6793TIP3    H220344   3.249   5.282   1.582
 6794TIP3   OH220345   4.154   6.327   5.914
 6794TIP3    H120346   4.075   6.367   5.949
 6794TIP3    H220347   4.130   6.237   5.896
 6795TIP3   OH220348   5.905   0.573   4.528
 6795TIP3    H120349   5.843   0.576   4.601
 6795TIP3    H220350   5.850   0.584   4.450
 6796TIP3   OH220351   6.482   0.142   2.132
 6796TIP3    H120352   6.533   0.218   2.160
 6796TIP3    H220353   6.438   0.170   2.052
 6797TIP3   OH220354   1.124   1.267   4.440
 6797TIP3    H120355   1.119   1.333   4.371
 6797TIP3    H220356   1.093   1.187   4.398
 6798TIP3   OH220357   1.700   0.405   4.886
 6798TIP3    H120358   1.763   0.469   4.852
 6798TIP3    H220359   1.660   0.449   4.961
 6799TIP3   OH220360   6.828   1.775   4.037
 6799TIP3    H120361   6.891   1.775   3.966
 6799TIP3    H220362   6.753   1.825   4.003
 6800TIP3   OH220363   0.211   2.221   5.115
 6800TIP3    H120364   0.237   2.155   5.051
 6800TIP3    H220365   0.279   2.289   5.108
 6801TIP3   OH220366   2.408   2.348   1.082
 6801TIP3    H120367   2.410   2.271   1.025
 6801TIP3    H220368   2.465   2.412   1.039
 6802TIP3   OH220369   0.603   0.292   0.931
 6802TIP3    H120370   0.557   0.217   0.893
 6802TIP3    H220371   0.653   0.256   1.004
 6803TIP3   OH220372   6.718   4.560   3.760
 6803TIP3    H120373   6.631   4.596   3.741
 6803TIP3    H220374   6.748   4.609   3.836
 6804TIP3   OH220375   0.209   4.809   5.519
 6804TIP3    H120376   0.135   4.769   5.565
 6804TIP3    H220377   0.263   4.734   5.491
 6805TIP3   OH220378   5.595   1.473   4.085
 6805TIP3    H120379   5.568   1.467   3.993
 6805TIP3    H220380   5.577   1.386   4.121
 6806TIP3   OH220381   7.127   1.387   3.861
 6806TIP3    H120382   7.129   1.381   3.956
 6806TIP3    H220383   7.157   1.302   3.830
 6807TIP3   OH220384   2.773   1.068   4.068
 6807TIP3    H120385   2.821   1.068   3.985
 6807TIP3    H220386   2.837   1.099   4.132
 6808TIP3   OH220387   3.108   0.868   0.590
 6808TIP3    H120388   3.170   0.818   0.643
 6808TIP3    H220389   3.094   0.814   0.512
 6809TIP3   OH220390   2.066   0.576   5.126
 6809TIP3    H120391   2.035   0.665   5.112
 6809TIP3    H220392   2.158   0.586   5.149
 6810TIP3   OH220393   2.199   6.050   5.253
 6810TIP3    H120394   2.197   6.098   5.171
 6810TIP3    H220395   2.173   6.114   5.319
 6811TIP3   OH220396   4.889   2.113   2.360
 6811TIP3    H120397   4.962   2.052   2.355
 6811TIP3    H220398   4.813   2.063   2.331
 6812TIP3   OH220399   5.378   1.057   0.055
 6812TIP3    H120400   5.445   1.121   0.080
 6812TIP3    H220401   5.295   1.098   0.077
 6813TIP3   OH220402   1.922   0.261   0.840
 6813TIP3    H120403   1.965   0.290   0.760
 6813TIP3    H220404   1.887   0.175   0.818
 6814TIP3   OH220405   1.447   1.771   1.027
 6814TIP3    H120406   1.497   1.852   1.040
 6814TIP3    H220407   1.452   1.754   0.932
 6815TIP3   OH220408   1.464   0.587   4.456
 6815TIP3    H120409   1.442   0.592   4.363
 6815TIP3    H220410   1.395   0.532   4.494
 6816TIP3   OH220411   3.776   6.412   1.221
 6816TIP3    H120412   3.852   6.353   1.218
 6816TIP3    H220413   3.724   6.388   1.144
 6817TIP3   OH220414   5.737   3.040   1.106
 6817TIP3    H120415   5.714   3.011   1.018
 6817TIP3    H220416   5.654   3.068   1.144
 6818TIP3   OH220417   1.359   4.696   0.057
 6818TIP3    H120418   1.317   4.739  -0.017
 6818TIP3    H220419   1.338   4.603   0.045
 6819TIP3   OH220420   0.353   5.576   4.670
 6819TIP3    H120421   0.301   5.583   4.590
 6819TIP3    H220422   0.357   5.665   4.704
 6820TIP3   OH220423   7.185   5.301   1.480
 6820TIP3    H120424   7.167   5.316   1.573
 6820TIP3    H220425   7.193   5.206   1.472
 6821TIP3   OH220426   2.279   6.219   4.797
 6821TIP3    H120427   2.260   6.211   4.704
 6821TIP3    H220428   2.372   6.195   4.805
 6822TIP3   OH220429   1.506   3.531   2.983
 6822TIP3    H120430   1.562   3.453   2.986
 6822TIP3    H220431   1.518   3.566   2.894
 6823TIP3   OH220432   0.422   1.403   1.395
 6823TIP3    H120433   0.328   1.391   1.409
 6823TIP3    H220434   0.443   1.481   1.446
 6824TIP3   OH220435   4.197   6.641   2.232
 6824TIP3    H120436   4.246   6.588   2.294
 6824TIP3    H220437   4.186   6.725   2.276
 6825TIP3   OH220438   5.969   5.034   0.573
 6825TIP3    H120439   5.920   4.975   0.516
 6825TIP3    H220440   6.045   4.983   0.601
 6826TIP3   OH220441   4.688   2.940   0.653
 6826TIP3    H120442   4.751   2.904   0.716
 6826TIP3    H220443   4.611   2.883   0.660
 6827TIP3   OH220444   5.296   3.082   1.571
 6827TIP3    H120445   5.290   3.095   1.476
 6827TIP3    H220446   5.261   3.163   1.608
 6828TIP3   OH220447   4.698   6.048   1.006
 6828TIP3    H120448   4.767   5.996   0.964
 6828TIP3    H220449   4.665   5.992   1.076
 6829TIP3   OH220450   4.287   5.442   2.475
 6829TIP3    H120451   4.274   5.436   2.380
 6829TIP3    H220452   4.205   5.412   2.512
 6830TIP3   OH220453   1.085   0.792   0.149
 6830TIP3    H120454   1.116   0.836   0.070
 6830TIP3    H220455   1.063   0.862   0.209
 6831TIP3   OH220456   6.535   0.057   3.964
 6831TIP3    H120457   6.514  -0.015   3.903
 6831TIP3    H220458   6.459   0.061   4.022
 6832TIP3   OH220459   4.161   6.552   4.419
 6832TIP3    H120460   4.159   6.460   4.394
 6832TIP3    H220461   4.074   6.569   4.455
 6833TIP3   OH220462   2.776   5.678   3.698
 6833TIP3    H120463   2.697   5.680   3.752
 6833TIP3    H220464   2.743   5.665   3.609
 6834TIP3   OH220465   6.173   2.189   3.560
 6834TIP3    H120466   6.142   2.147   3.480
 6834TIP3    H220467   6.094   2.227   3.599
 6835TIP3   OH220468   3.502   5.518   0.040
 6835TIP3    H120469   3.595   5.512   0.058
 6835TIP3    H220470   3.460   5.494   0.123
 6836TIP3   OH220471   1.242   0.733   5.347
 6836TIP3    H120472   1.273   0.823   5.356
 6836TIP3    H220473   1.303   0.692   5.286
 6837TIP3   OH220474   4.982   4.086   5.422
 6837TIP3    H120475   4.978   4.178   5.448
 6837TIP3    H220476   4.945   4.039   5.496
 6838TIP3   OH220477   1.568   2.927   5.304
 6838TIP3    H120478   1.530   2.840   5.295
 6838TIP3    H220479   1.662   2.914   5.292
 6839TIP3   OH220480   3.266  -0.008   0.678
 6839TIP3    H120481   3.360   0.000   0.696
 6839TIP3    H220482   3.244   0.069   0.626
 6840TIP3   OH220483   6.716   5.473   3.806
 6840TIP3    H120484   6.704   5.423   3.886
 6840TIP3    H220485   6.790   5.430   3.762
 6841TIP3   OH220486   3.306   3.769   3.475
 6841TIP3    H120487   3.398   3.744   3.486
 6841TIP3    H220488   3.306   3.864   3.477
 6842TIP3   OH220489   2.525   5.405   1.734
 6842TIP3    H120490   2.434   5.391   1.760
 6842TIP3    H220491   2.528   5.377   1.643
 6843TIP3   OH220492   2.160   5.427   1.003
 6843TIP3    H120493   2.130   5.353   0.950
 6843TIP3    H220494   2.135   5.404   1.093
 6844TIP3   OH220495   5.328   4.824   4.885
 6844TIP3    H120496   5.412   4.859   4.854
 6844TIP3    H220497   5.274   4.816   4.807
 6845TIP3   OH220498   5.918   4.417   0.866
 6845TIP3    H120499   5.888   4.329   0.841
 6845TIP3    H220500   6.000   4.429   0.819
 6846TIP3   OH220501   1.264   4.898   5.175
 6846TIP3    H120502   1.343   4.870   5.130
 6846TIP3    H220503   1.196   4.897   5.107
 6847TIP3   OH220504   5.184   4.375   1.589
 6847TIP3    H120505   5.176   4.462   1.628
 6847TIP3    H220506   5.093   4.347   1.575
 6848TIP3   OH220507   1.533   5.818   2.118
 6848TIP3    H120508   1.555   5.896   2.169
 6848TIP3    H220509   1.475   5.851   2.049
 6849TIP3   OH220510   5.984   4.087   2.279
 6849TIP3    H120511   6.075   4.105   2.255
 6849TIP3    H220512   5.960   4.157   2.340
 6850TIP3   OH220513   4.755   3.973   3.997
 6850TIP3    H120514   4.709   3.984   4.080
 6850TIP3    H220515   4.846   3.957   4.022
 6851TIP3   OH220516   7.159   2.008   2.976
 6851TIP3    H120517   7.122   2.089   2.943
 6851TIP3    H220518   7.132   1.941   2.913
 6852TIP3   OH220519   7.004   1.573   1.060
 6852TIP3    H120520   7.069   1.637   1.089
 6852TIP3    H220521   7.033   1.546   0.973
 6853TIP3   OH220522   2.897   4.062   0.739
 6853TIP3    H120523   2.968   4.110   0.696
 6853TIP3    H220524   2.833   4.130   0.762
 6854TIP3   OH220525   1.165   1.505   3.958
 6854TIP3    H120526   1.114   1.445   3.904
 6854TIP3    H220527   1.197   1.452   4.031
 6855TIP3   OH220528   4.912   5.631   2.411
 6855TIP3    H120529   5.000   5.626   2.373
 6855TIP3    H220530   4.854   5.609   2.338
 6856TIP3   OH220531   5.696   6.414   4.502
 6856TIP3    H120532   5.605   6.443   4.494
 6856TIP3    H220533   5.738   6.479   4.558
 6857TIP3   OH220534   2.825   1.216   2.176
 6857TIP3    H120535   2.776   1.201   2.095
 6857TIP3    H220536   2.799   1.143   2.233
 6858TIP3   OH220537   4.293   2.158   3.666
 6858TIP3    H120538   4.204   2.132   3.644
 6858TIP3    H220539   4.307   2.240   3.618
 6859TIP3   OH220540   0.536   6.385   4.554
 6859TIP3    H120541   0.554   6.464   4.503
 6859TIP3    H220542   0.621   6.359   4.590
 6860TIP3   OH220543   2.471   2.546   5.039
 6860TIP3    H120544   2.438   2.471   4.989
 6860TIP3    H220545   2.566   2.542   5.027
 6861TIP3   OH220546   0.884   2.071   2.267
 6861TIP3    H120547   0.809   2.087   2.324
 6861TIP3    H220548   0.851   2.090   2.179
 6862TIP3   OH220549   4.015   1.608   3.955
 6862TIP3    H120550   3.987   1.652   3.875
 6862TIP3    H220551   3.948   1.631   4.019
 6863TIP3   OH220552   1.717   1.309   0.118
 6863TIP3    H120553   1.683   1.347   0.199
 6863TIP3    H220554   1.777   1.376   0.085
 6864TIP3   OH220555   6.413   2.754   5.691
 6864TIP3    H120556   6.445   2.673   5.650
 6864TIP3    H220557   6.355   2.792   5.625
 6865TIP3   OH220558   5.854   0.093   2.387
 6865TIP3    H120559   5.885   0.155   2.321
 6865TIP3    H220560   5.798   0.146   2.445
 6866TIP3   OH220561   3.502   2.187   5.515
 6866TIP3    H120562   3.539   2.263   5.561
 6866TIP3    H220563   3.572   2.160   5.455
 6867TIP3   OH220564   2.990   5.190   0.404
 6867TIP3    H120565   2.928   5.236   0.460
 6867TIP3    H220566   3.065   5.250   0.398
 6868TIP3   OH220567   1.746   0.065   3.557
 6868TIP3    H120568   1.831   0.065   3.602
 6868TIP3    H220569   1.724  -0.028   3.549
 6869TIP3   OH220570   1.445   4.476   2.096
 6869TIP3    H120571   1.422   4.465   2.188
 6869TIP3    H220572   1.364   4.456   2.048
 6870TIP3   OH220573   3.276   1.452   1.362
 6870TIP3    H120574   3.370   1.465   1.371
 6870TIP3    H220575   3.268   1.373   1.308
 6871TIP3   OH220576   2.318   5.409   5.144
 6871TIP3    H120577   2.292   5.395   5.053
 6871TIP3    H220578   2.348   5.323   5.173
 6872TIP3   OH220579   7.113   2.404   5.735
 6872TIP3    H120580   7.139   2.478   5.790
 6872TIP3    H220581   7.194   2.357   5.719
 6873TIP3   OH220582   0.431   4.915   5.334
 6873TIP3    H120583   0.398   4.825   5.333
 6873TIP3    H220584   0.368   4.964   5.281
 6874TIP3   OH220585   4.178   4.429   4.364
 6874TIP3    H120586   4.226   4.512   4.367
 6874TIP3    H220587   4.246   4.363   4.349
 6875TIP3   OH220588   0.109   0.295   3.237
 6875TIP3    H120589   0.058   0.357   3.289
 6875TIP3    H220590   0.129   0.223   3.297
 6876TIP3   OH220591   5.329   2.870   3.132
 6876TIP3    H120592   5.424   2.870   3.125
 6876TIP3    H220593   5.310   2.937   3.198
 6877TIP3   OH220594   0.571   1.330   1.056
 6877TIP3    H120595   0.517   1.262   1.096
 6877TIP3    H220596   0.525   1.352   0.974
 6878TIP3   OH220597   1.586   0.706   2.350
 6878TIP3    H120598   1.573   0.747   2.436
 6878TIP3    H220599   1.674   0.670   2.354
 6879TIP3   OH220600   6.182   1.028   1.178
 6879TIP3    H120601   6.252   1.025   1.243
 6879TIP3    H220602   6.163   0.937   1.158
 6880TIP3   OH220603   2.324   6.231   2.039
 6880TIP3    H120604   2.410   6.201   2.069
 6880TIP3    H220605   2.334   6.241   1.944
 6881TIP3   OH220606   4.609   6.511   4.511
 6881TIP3    H120607   4.585   6.508   4.604
 6881TIP3    H220608   4.688   6.564   4.508
 6882TIP3   OH220609   2.872   4.588   2.282
 6882TIP3    H120610   2.832   4.661   2.329
 6882TIP3    H220611   2.836   4.593   2.194
 6883TIP3   OH220612   3.037   0.743   5.664
 6883TIP3    H120613   3.030   0.648   5.677
 6883TIP3    H220614   3.093   0.752   5.587
 6884TIP3   OH220615   3.498   0.422   0.129
 6884TIP3    H120616   3.463   0.487   0.189
 6884TIP3    H220617   3.568   0.468   0.083
 6885TIP3   OH220618   1.350   2.725   3.229
 6885TIP3    H120619   1.383   2.764   3.310
 6885TIP3    H220620   1.375   2.786   3.160
 6886TIP3   OH220621   3.862   0.752   5.804
 6886TIP3    H120622   3.836   0.668   5.842
 6886TIP3    H220623   3.888   0.730   5.714
 6887TIP3   OH220624   2.520   5.595   5.155
 6887TIP3    H120625   2.591   5.600   5.091
 6887TIP3    H220626   2.467   5.520   5.128
 6888TIP3   OH220627   5.906   6.124   2.340
 6888TIP3    H120628   5.958   6.044   2.335
 6888TIP3    H220629   5.881   6.143   2.249
 6889TIP3   OH220630   2.290   5.057   2.320
 6889TIP3    H120631   2.382   5.051   2.343
 6889TIP3    H220632   2.247   5.084   2.401
 6890TIP3   OH220633   2.530   2.180   2.504
 6890TIP3    H120634   2.578   2.105   2.539
 6890TIP3    H220635   2.583   2.211   2.431
 6891TIP3   OH220636   3.597   0.807   5.897
 6891TIP3    H120637   3.677   0.818   5.847
 6891TIP3    H220638   3.527   0.804   5.831
 6892TIP3   OH220639   3.042   3.347   4.733
 6892TIP3    H120640   3.047   3.379   4.643
 6892TIP3    H220641   3.003   3.260   4.725
 6893TIP3   OH220642   5.069   4.601   1.375
 6893TIP3    H120643   5.095   4.636   1.461
 6893TIP3    H220644   5.100   4.666   1.312
 6894TIP3   OH220645   1.841   3.970   0.644
 6894TIP3    H120646   1.764   4.024   0.663
 6894TIP3    H220647   1.805   3.888   0.610
 6895TIP3   OH220648   5.760   4.999   0.023
 6895TIP3    H120649   5.836   5.026   0.075
 6895TIP3    H220650   5.779   4.909   0.000
 6896TIP3   OH220651   3.946   0.809   4.821
 6896TIP3    H120652   4.001   0.734   4.797
 6896TIP3    H220653   3.876   0.809   4.757
 6897TIP3   OH220654   1.175   3.461   4.079
 6897TIP3    H120655   1.252   3.418   4.042
 6897TIP3    H220656   1.138   3.397   4.140
 6898TIP3   OH220657   2.806   5.569   1.273
 6898TIP3    H120658   2.817   5.480   1.240
 6898TIP3    H220659   2.863   5.573   1.350
 6899TIP3   OH220660   3.717   0.261   3.168
 6899TIP3    H120661   3.687   0.231   3.082
 6899TIP3    H220662   3.647   0.237   3.228
 6900TIP3   OH220663   6.240   6.252   3.264
 6900TIP3    H120664   6.180   6.285   3.197
 6900TIP3    H220665   6.215   6.299   3.344
 6901TIP3   OH220666   0.098   2.231   1.927
 6901TIP3    H120667   0.039   2.291   1.882
 6901TIP3    H220668   0.082   2.146   1.886
 6902TIP3   OH220669   5.374   3.679   4.937
 6902TIP3    H120670   5.357   3.609   5.000
 6902TIP3    H220671   5.446   3.728   4.975
 6903TIP3   OH220672   3.817   3.545   3.043
 6903TIP3    H120673   3.863   3.509   3.118
 6903TIP3    H220674   3.764   3.473   3.010
 6904TIP3   OH220675   6.965   5.200   0.518
 6904TIP3    H120676   6.915   5.279   0.538
 6904TIP3    H220677   6.917   5.129   0.561
 6905TIP3   OH220678   1.059   4.619   5.106
 6905TIP3    H120679   1.109   4.598   5.027
 6905TIP3    H220680   1.048   4.535   5.150
 6906TIP3   OH220681   1.408   0.598   0.989
 6906TIP3    H120682   1.318   0.569   0.979
 6906TIP3    H220683   1.429   0.639   0.905
 6907TIP3   OH220684   4.224   0.345   1.161
 6907TIP3    H120685   4.170   0.407   1.210
 6907TIP3    H220686   4.161   0.289   1.116
 6908TIP3   OH220687   0.218   1.157   3.566
 6908TIP3    H120688   0.289   1.130   3.624
 6908TIP3    H220689   0.140   1.154   3.621
 6909TIP3   OH220690   0.290   5.697   3.747
 6909TIP3    H120691   0.287   5.792   3.733
 6909TIP3    H220692   0.326   5.662   3.665
 6910TIP3   OH220693   0.448   6.056   3.412
 6910TIP3    H120694   0.500   6.021   3.485
 6910TIP3    H220695   0.399   6.128   3.451
 6911TIP3   OH220696   5.195   6.805   4.835
 6911TIP3    H120697   5.195   6.715   4.866
 6911TIP3    H220698   5.103   6.825   4.817
 6912TIP3   OH220699   3.674   3.377   4.387
 6912TIP3    H120700   3.589   3.407   4.353
 6912TIP3    H220701   3.664   3.382   4.482
 6913TIP3   OH220702   3.927   1.286   0.260
 6913TIP3    H120703   3.917   1.367   0.310
 6913TIP3    H220704   4.013   1.252   0.285
 6914TIP3   OH220705   6.208   3.212   0.822
 6914TIP3    H120706   6.235   3.216   0.914
 6914TIP3    H220707   6.169   3.297   0.805
 6915TIP3   OH220708   0.237   0.774   1.317
 6915TIP3    H120709   0.327   0.748   1.300
 6915TIP3    H220710   0.245   0.850   1.374
 6916TIP3   OH220711   2.010   4.164   0.464
 6916TIP3    H120712   1.956   4.127   0.394
 6916TIP3    H220713   2.040   4.247   0.429
 6917TIP3   OH220714   5.773   3.815   2.323
 6917TIP3    H120715   5.686   3.809   2.364
 6917TIP3    H220716   5.783   3.908   2.302
 6918TIP3   OH220717   5.029   5.721   1.670
 6918TIP3    H120718   4.958   5.776   1.638
 6918TIP3    H220719   4.996   5.631   1.661
 6919TIP3   OH220720   2.508   6.208   1.284
 6919TIP3    H120721   2.527   6.134   1.343
 6919TIP3    H220722   2.443   6.173   1.223
 6920TIP3   OH220723   5.529   3.612   1.682
 6920TIP3    H120724   5.551   3.524   1.713
 6920TIP3    H220725   5.434   3.611   1.671
 6921TIP3   OH220726   4.647   4.491   0.165
 6921TIP3    H120727   4.592   4.532   0.099
 6921TIP3    H220728   4.588   4.468   0.236
 6922TIP3   OH220729   5.340   4.486   0.406
 6922TIP3    H120730   5.340   4.577   0.375
 6922TIP3    H220731   5.247   4.465   0.419
 6923TIP3   OH220732   1.121   4.332   5.209
 6923TIP3    H120733   1.149   4.257   5.158
 6923TIP3    H220734   1.164   4.321   5.294
 6924TIP3   OH220735   1.007   3.867   2.337
 6924TIP3    H120736   0.998   3.792   2.396
 6924TIP3    H220737   0.921   3.909   2.340
 6925TIP3   OH220738   3.205   2.763   5.217
 6925TIP3    H120739   3.279   2.788   5.272
 6925TIP3    H220740   3.168   2.846   5.187
 6926TIP3   OH220741   6.746   4.124   0.371
 6926TIP3    H120742   6.831   4.081   0.369
 6926TIP3    H220743   6.717   4.126   0.280
 6927TIP3   OH220744   2.462   0.396   4.121
 6927TIP3    H120745   2.370   0.387   4.097
 6927TIP3    H220746   2.460   0.416   4.215
 6928TIP3   OH220747   1.554   2.343   3.029
 6928TIP3    H120748   1.646   2.365   3.047
 6928TIP3    H220749   1.550   2.248   3.037
 6929TIP3   OH220750   3.102   6.062   0.843
 6929TIP3    H120751   3.105   6.038   0.751
 6929TIP3    H220752   3.161   6.137   0.851
 6930TIP3   OH220753   0.647   6.343   3.029
 6930TIP3    H120754   0.609   6.355   2.942
 6930TIP3    H220755   0.614   6.417   3.080
 6931TIP3   OH220756   2.920   6.330   2.611
 6931TIP3    H120757   2.894   6.354   2.522
 6931TIP3    H220758   2.872   6.249   2.628
 6932TIP3   OH220759   2.821   5.720   0.724
 6932TIP3    H120760   2.862   5.766   0.798
 6932TIP3    H220761   2.855   5.631   0.730
 6933TIP3   OH220762   6.782   4.040   1.301
 6933TIP3    H120763   6.877   4.041   1.298
 6933TIP3    H220764   6.755   4.113   1.245
 6934TIP3   OH220765   2.746   3.778   2.178
 6934TIP3    H120766   2.727   3.736   2.262
 6934TIP3    H220767   2.784   3.708   2.124
 6935TIP3   OH220768   4.462   2.143   4.235
 6935TIP3    H120769   4.412   2.107   4.162
 6935TIP3    H220770   4.523   2.205   4.195
 6936TIP3   OH220771   3.905   2.943   1.490
 6936TIP3    H120772   3.919   3.018   1.432
 6936TIP3    H220773   3.813   2.918   1.476
 6937TIP3   OH220774   5.799   2.119   0.808
 6937TIP3    H120775   5.821   2.209   0.832
 6937TIP3    H220776   5.772   2.124   0.716
 6938TIP3   OH220777   6.177   3.103   3.296
 6938TIP3    H120778   6.271   3.102   3.279
 6938TIP3    H220779   6.149   3.191   3.272
 6939TIP3   OH220780   7.174   4.202   0.548
 6939TIP3    H120781   7.101   4.244   0.594
 6939TIP3    H220782   7.138   4.179   0.462
 6940TIP3   OH220783   6.905   6.645   5.139
 6940TIP3    H120784   6.927   6.693   5.060
 6940TIP3    H220785   6.814   6.617   5.126
 6941TIP3   OH220786   3.859   0.915   4.138
 6941TIP3    H120787   3.870   0.824   4.111
 6941TIP3    H220788   3.883   0.915   4.231
 6942TIP3   OH220789   1.153   3.025   5.244
 6942TIP3    H120790   1.071   2.979   5.260
 6942TIP3    H220791   1.205   3.010   5.322
 6943TIP3   OH220792   0.241   0.309   5.656
 6943TIP3    H120793   0.216   0.217   5.669
 6943TIP3    H220794   0.168   0.347   5.607
 6944TIP3   OH220795   4.137   4.243   5.216
 6944TIP3    H120796   4.113   4.162   5.260
 6944TIP3    H220797   4.202   4.217   5.151
 6945TIP3   OH220798   4.986   0.784   1.336
 6945TIP3    H120799   5.013   0.839   1.263
 6945TIP3    H220800   4.925   0.720   1.297
 6946TIP3   OH220801   2.507   3.721   0.773
 6946TIP3    H120802   2.508   3.636   0.730
 6946TIP3    H220803   2.591   3.761   0.750
 6947TIP3   OH220804   0.362   1.867   4.351
 6947TIP3    H120805   0.359   1.930   4.279
 6947TIP3    H220806   0.322   1.787   4.315
 6948TIP3   OH220807   2.108   2.434   5.012
 6948TIP3    H120808   2.122   2.481   5.094
 6948TIP3    H220809   2.089   2.502   4.947
 6949TIP3   OH220810   1.581   2.439   0.180
 6949TIP3    H120811   1.626   2.433   0.096
 6949TIP3    H220812   1.492   2.410   0.162
 6950TIP3   OH220813   5.393   0.394   1.868
 6950TIP3    H120814   5.379   0.301   1.850
 6950TIP3    H220815   5.340   0.439   1.802
 6951TIP3   OH220816   4.391   2.690   4.672
 6951TIP3    H120817   4.374   2.680   4.766
 6951TIP3    H220818   4.365   2.607   4.634
 6952TIP3   OH220819   3.658   1.509   2.169
 6952TIP3    H120820   3.563   1.504   2.179
 6952TIP3    H220821   3.685   1.420   2.150
 6953TIP3   OH220822   1.843   6.531   0.517
 6953TIP3    H120823   1.801   6.502   0.436
 6953TIP3    H220824   1.897   6.456   0.543
 6954TIP3   OH220825   3.137   6.007   5.556
 6954TIP3    H120826   3.117   5.915   5.575
 6954TIP3    H220827   3.200   6.032   5.623
 6955TIP3   OH220828   5.555   5.690   2.998
 6955TIP3    H120829   5.605   5.764   3.030
 6955TIP3    H220830   5.619   5.634   2.954
 6956TIP3   OH220831   1.480   1.070   3.634
 6956TIP3    H120832   1.519   1.032   3.713
 6956TIP3    H220833   1.531   1.031   3.562
 6957TIP3   OH220834   0.346   3.431   4.700
 6957TIP3    H120835   0.255   3.412   4.723
 6957TIP3    H220836   0.355   3.403   4.609
 6958TIP3   OH220837   1.322   0.769   3.455
 6958TIP3    H120838   1.279   0.851   3.478
 6958TIP3    H220839   1.413   0.793   3.437
 6959TIP3   OH220840   6.645  -0.011   3.483
 6959TIP3    H120841   6.734   0.001   3.452
 6959TIP3    H220842   6.591   0.035   3.419
 6960TIP3   OH220843   1.599   4.444   4.745
 6960TIP3    H120844   1.585   4.479   4.833
 6960TIP3    H220845   1.513   4.414   4.717
 6961TIP3   OH220846   6.518   5.493   3.254
 6961TIP3    H120847   6.554   5.449   3.331
 6961TIP3    H220848   6.544   5.437   3.180
 6962TIP3   OH220849   7.125   4.318   4.568
 6962TIP3    H120850   7.065   4.379   4.525
 6962TIP3    H220851   7.178   4.373   4.626
 6963TIP3   OH220852   6.207   1.092   1.490
 6963TIP3    H120853   6.237   1.131   1.572
 6963TIP3    H220854   6.238   1.002   1.493
 6964TIP3   OH220855   6.457   5.417   4.356
 6964TIP3    H120856   6.445   5.420   4.451
 6964TIP3    H220857   6.466   5.509   4.330
 6965TIP3   OH220858   0.201   6.495   3.491
 6965TIP3    H120859   0.126   6.549   3.464
 6965TIP3    H220860   0.258   6.493   3.414
 6966TIP3   OH220861   0.594   2.869   5.399
 6966TIP3    H120862   0.668   2.812   5.377
 6966TIP3    H220863   0.592   2.934   5.328
 6967TIP3   OH220864   3.289   3.633   2.768
 6967TIP3    H120865   3.336   3.695   2.713
 6967TIP3    H220866   3.316   3.656   2.857
 6968TIP3   OH220867   5.837   0.674   0.250
 6968TIP3    H120868   5.884   0.739   0.301
 6968TIP3    H220869   5.828   0.713   0.163
 6969TIP3   OH220870   2.085   3.957   3.489
 6969TIP3    H120871   2.030   3.884   3.517
 6969TIP3    H220872   2.068   4.026   3.554
 6970TIP3   OH220873   2.581   0.465   2.067
 6970TIP3    H120874   2.526   0.522   2.013
 6970TIP3    H220875   2.581   0.381   2.022
 6971TIP3   OH220876   4.807   5.856   0.649
 6971TIP3    H120877   4.834   5.851   0.740
 6971TIP3    H220878   4.712   5.849   0.651
 6972TIP3   OH220879   5.475   1.406   2.963
 6972TIP3    H120880   5.448   1.314   2.971
 6972TIP3    H220881   5.454   1.444   3.048
 6973TIP3   OH220882   0.827   4.963   1.840
 6973TIP3    H120883   0.913   4.943   1.876
 6973TIP3    H220884   0.770   4.894   1.874
 6974TIP3   OH220885   5.514   1.483   0.296
 6974TIP3    H120886   5.501   1.522   0.383
 6974TIP3    H220887   5.444   1.418   0.289
 6975TIP3   OH220888   2.670   0.142   2.876
 6975TIP3    H120889   2.592   0.145   2.932
 6975TIP3    H220890   2.639   0.098   2.796
 6976TIP3   OH220891   1.624   4.526   1.401
 6976TIP3    H120892   1.703   4.487   1.363
 6976TIP3    H220893   1.561   4.527   1.329
 6977TIP3   OH220894   0.479   2.256   0.309
 6977TIP3    H120895   0.386   2.274   0.300
 6977TIP3    H220896   0.484   2.162   0.327
 6978TIP3   OH220897   0.522   0.508   1.420
 6978TIP3    H120898   0.476   0.456   1.355
 6978TIP3    H220899   0.596   0.547   1.373
 6979TIP3   OH220900   4.668   5.744   5.797
 6979TIP3    H120901   4.577   5.772   5.787
 6979TIP3    H220902   4.670   5.656   5.759
 6980TIP3   OH220903   2.876   4.156   1.267
 6980TIP3    H120904   2.929   4.114   1.200
 6980TIP3    H220905   2.869   4.247   1.239
 6981TIP3   OH220906   1.325   4.389   3.598
 6981TIP3    H120907   1.388   4.325   3.632
 6981TIP3    H220908   1.376   4.446   3.540
 6982TIP3   OH220909   0.339   4.389   2.285
 6982TIP3    H120910   0.396   4.328   2.240
 6982TIP3    H220911   0.293   4.336   2.351
 6983TIP3   OH220912   1.650   4.070   5.470
 6983TIP3    H120913   1.591   4.117   5.411
 6983TIP3    H220914   1.632   3.978   5.454
 6984TIP3   OH220915   6.901   0.436   0.193
 6984TIP3    H120916   6.918   0.365   0.131
 6984TIP3    H220917   6.936   0.514   0.149
 6985TIP3   OH220918   5.647   4.818   2.275
 6985TIP3    H120919   5.654   4.780   2.187
 6985TIP3    H220920   5.561   4.791   2.306
 6986TIP3   OH220921   7.000   4.878   3.905
 6986TIP3    H120922   7.075   4.842   3.858
 6986TIP3    H220923   6.945   4.916   3.836
 6987TIP3   OH220924   4.891   0.930   4.435
 6987TIP3    H120925   4.948   0.880   4.375
 6987TIP3    H220926   4.823   0.966   4.379
 6988TIP3   OH220927   0.261   6.729   0.270
 6988TIP3    H120928   0.324   6.657   0.276
 6988TIP3    H220929   0.315   6.807   0.261
 6989TIP3   OH220930   5.183   1.393   5.624
 6989TIP3    H120931   5.157   1.402   5.532
 6989TIP3    H220932   5.180   1.298   5.641
 6990TIP3   OH220933   0.883   3.353   3.168
 6990TIP3    H120934   0.923   3.435   3.140
 6990TIP3    H220935   0.932   3.286   3.119
 6991TIP3   OH220936   3.439   0.569   5.340
 6991TIP3    H120937   3.412   0.499   5.399
 6991TIP3    H220938   3.528   0.592   5.368
 6992TIP3   OH220939   6.255   2.444   2.276
 6992TIP3    H120940   6.188   2.512   2.271
 6992TIP3    H220941   6.253   2.401   2.191
 6993TIP3   OH220942   3.237   3.706   4.037
 6993TIP3    H120943   3.256   3.785   4.088
 6993TIP3    H220944   3.189   3.738   3.960
 6994TIP3   OH220945   3.333   1.649   5.475
 6994TIP3    H120946   3.295   1.693   5.551
 6994TIP3    H220947   3.265   1.654   5.408
 6995TIP3   OH220948   5.114   6.288   4.975
 6995TIP3    H120949   5.191   6.242   4.942
 6995TIP3    H220950   5.040   6.241   4.937
 6996TIP3   OH220951   4.430   6.222   4.201
 6996TIP3    H120952   4.518   6.203   4.168
 6996TIP3    H220953   4.435   6.198   4.294
 6997TIP3   OH220954   0.673   2.404   4.997
 6997TIP3    H120955   0.675   2.352   5.078
 6997TIP3    H220956   0.765   2.420   4.976
 6998TIP3   OH220957   2.888   1.810   0.536
 6998TIP3    H120958   2.958   1.834   0.597
 6998TIP3    H220959   2.824   1.764   0.591
 6999TIP3   OH220960   0.936   2.870   0.130
 6999TIP3    H120961   0.861   2.811   0.136
 6999TIP3    H220962   0.925   2.930   0.204
 7000TIP3   OH220963   5.883   1.544   3.933
 7000TIP3    H120964   5.878   1.555   3.838
 7000TIP3    H220965   5.847   1.626   3.968
 7001TIP3   OH220966   6.550   6.051   2.180
 7001TIP3    H120967   6.588   5.985   2.239
 7001TIP3    H220968   6.626   6.094   2.141
 7002TIP3   OH220969   1.121   4.214   1.655
 7002TIP3    H120970   1.028   4.197   1.670
 7002TIP3    H220971   1.164   4.176   1.732
 7003TIP3   OH220972   3.296   1.842   4.113
 7003TIP3    H120973   3.238   1.918   4.105
 7003TIP3    H220974   3.349   1.844   4.034
 7004TIP3   OH220975   1.515   4.923   1.164
 7004TIP3    H120976   1.513   4.940   1.070
 7004TIP3    H220977   1.490   4.831   1.172
 7005TIP3   OH220978   1.691   6.403   3.621
 7005TIP3    H120979   1.626   6.413   3.551
 7005TIP3    H220980   1.772   6.437   3.584
 7006TIP3   OH220981   4.728   0.442   4.905
 7006TIP3    H120982   4.733   0.346   4.905
 7006TIP3    H220983   4.819   0.470   4.895
 7007TIP3   OH220984   5.409   6.063   2.673
 7007TIP3    H120985   5.328   6.113   2.686
 7007TIP3    H220986   5.472   6.127   2.640
 7008TIP3   OH220987   4.488   2.544   4.156
 7008TIP3    H120988   4.427   2.577   4.222
 7008TIP3    H220989   4.460   2.585   4.075
 7009TIP3   OH220990   1.051   0.929   2.242
 7009TIP3    H120991   1.132   0.956   2.286
 7009TIP3    H220992   1.041   0.836   2.264
 7010TIP3   OH220993   7.203   2.614   3.543
 7010TIP3    H120994   7.202   2.529   3.498
 7010TIP3    H220995   7.132   2.608   3.607
 7011TIP3   OH220996   5.611   3.720   5.635
 7011TIP3    H120997   5.590   3.814   5.642
 7011TIP3    H220998   5.689   3.709   5.690
 7012TIP3   OH220999   3.368   0.967   5.496
 7012TIP3    H121000   3.327   0.899   5.549
 7012TIP3    H221001   3.301   0.992   5.433
 7013TIP3   OH221002   2.748   5.934   0.402
 7013TIP3    H121003   2.682   5.870   0.375
 7013TIP3    H221004   2.707   6.019   0.385
 7014TIP3   OH221005   5.627   2.328   2.790
 7014TIP3    H121006   5.627   2.233   2.778
 7014TIP3    H221007   5.587   2.341   2.876
 7015TIP3   OH221008   2.958   2.281   5.032
 7015TIP3    H121009   2.986   2.194   5.059
 7015TIP3    H221010   2.893   2.307   5.098
 7016TIP3   OH221011   3.928   6.413   1.919
 7016TIP3    H121012   3.836   6.434   1.902
 7016TIP3    H221013   3.970   6.499   1.929
 7017TIP3   OH221014   4.314   0.625   0.445
 7017TIP3    H121015   4.234   0.587   0.409
 7017TIP3    H221016   4.345   0.685   0.378
 7018TIP3   OH221017   4.579   1.454   5.541
 7018TIP3    H121018   4.537   1.481   5.623
 7018TIP3    H221019   4.510   1.460   5.475
 7019TIP3   OH221020   7.149   1.594   1.663
 7019TIP3    H121021   7.143   1.548   1.580
 7019TIP3    H221022   7.214   1.544   1.713
 7020TIP3   OH221023   0.234   6.668   5.375
 7020TIP3    H121024   0.265   6.722   5.448
 7020TIP3    H221025   0.199   6.732   5.312
 7021TIP3   OH221026   3.891   1.185   2.558
 7021TIP3    H121027   3.806   1.141   2.556
 7021TIP3    H221028   3.906   1.212   2.467
 7022TIP3   OH221029   3.598   4.009   2.463
 7022TIP3    H121030   3.644   3.925   2.473
 7022TIP3    H221031   3.578   4.014   2.369
 7023TIP3   OH221032   6.834   3.131   4.687
 7023TIP3    H121033   6.755   3.088   4.654
 7023TIP3    H221034   6.825   3.128   4.782
 7024TIP3   OH221035   6.573   0.910   2.254
 7024TIP3    H121036   6.509   0.874   2.315
 7024TIP3    H221037   6.573   0.850   2.180
 7025TIP3   OH221038   4.707   1.970   2.253
 7025TIP3    H121039   4.663   2.017   2.182
 7025TIP3    H221040   4.646   1.901   2.277
 7026TIP3   OH221041   4.107   3.999   2.678
 7026TIP3    H121042   4.190   3.985   2.724
 7026TIP3    H221043   4.051   3.927   2.706
 7027TIP3   OH221044   4.963   0.258   2.680
 7027TIP3    H121045   4.997   0.242   2.592
 7027TIP3    H221046   4.964   0.172   2.722
 7028TIP3   OH221047   2.907   0.387   4.783
 7028TIP3    H121048   2.914   0.474   4.821
 7028TIP3    H221049   2.889   0.401   4.690
 7029TIP3   OH221050   1.839   3.639   0.835
 7029TIP3    H121051   1.778   3.631   0.761
 7029TIP3    H221052   1.829   3.556   0.882
 7030TIP3   OH221053   0.110   4.222   0.154
 7030TIP3    H121054   0.162   4.247   0.078
 7030TIP3    H221055   0.058   4.300   0.173
 7031TIP3   OH221056   3.191   4.996   1.715
 7031TIP3    H121057   3.227   4.927   1.660
 7031TIP3    H221058   3.244   4.993   1.795
 7032TIP3   OH221059   4.093   2.765   2.057
 7032TIP3    H121060   4.049   2.804   2.132
 7032TIP3    H221061   4.150   2.834   2.023
 7033TIP3   OH221062   1.259   3.423   1.285
 7033TIP3    H121063   1.313   3.351   1.318
 7033TIP3    H221064   1.307   3.454   1.208
 7034TIP3   OH221065   2.763   6.602   2.363
 7034TIP3    H121066   2.740   6.671   2.301
 7034TIP3    H221067   2.800   6.648   2.438
 7035TIP3   OH221068   6.934   4.768   5.539
 7035TIP3    H121069   6.964   4.732   5.456
 7035TIP3    H221070   6.839   4.779   5.528
 7036TIP3   OH221071   4.186   0.774   3.920
 7036TIP3    H121072   4.227   0.832   3.856
 7036TIP3    H221073   4.257   0.717   3.950
 7037TIP3   OH221074   1.154   2.818   4.969
 7037TIP3    H121075   1.084   2.879   4.947
 7037TIP3    H221076   1.233   2.871   4.972
 7038TIP3   OH221077   1.007   0.500   0.095
 7038TIP3    H121078   1.054   0.582   0.085
 7038TIP3    H221079   1.061   0.448   0.155
 7039TIP3   OH221080   5.055   0.941   1.117
 7039TIP3    H121081   5.086   0.967   1.030
 7039TIP3    H221082   4.965   0.975   1.121
 7040TIP3   OH221083   4.998   5.015   4.296
 7040TIP3    H121084   4.920   5.056   4.334
 7040TIP3    H221085   5.061   5.087   4.287
 7041TIP3   OH221086   4.403   6.461   1.506
 7041TIP3    H121087   4.359   6.525   1.562
 7041TIP3    H221088   4.365   6.474   1.419
 7042TIP3   OH221089   1.179   0.743   3.222
 7042TIP3    H121090   1.240   0.747   3.295
 7042TIP3    H221091   1.109   0.685   3.251
 7043TIP3   OH221092   4.851   2.022   5.074
 7043TIP3    H121093   4.947   2.024   5.068
 7043TIP3    H221094   4.827   2.110   5.101
 7044TIP3   OH221095   4.627   5.046   4.764
 7044TIP3    H121096   4.664   5.008   4.844
 7044TIP3    H221097   4.697   5.100   4.729
 7045TIP3   OH221098   4.877   2.165   2.865
 7045TIP3    H121099   4.784   2.154   2.884
 7045TIP3    H221100   4.900   2.249   2.906
 7046TIP3   OH221101   7.172   3.387   0.289
 7046TIP3    H121102   7.248   3.335   0.316
 7046TIP3    H221103   7.189   3.474   0.325
 7047TIP3   OH221104   4.679   1.631   0.128
 7047TIP3    H121105   4.622   1.602   0.057
 7047TIP3    H221106   4.623   1.626   0.206
 7048TIP3   OH221107   1.616   2.767   2.792
 7048TIP3    H121108   1.573   2.687   2.825
 7048TIP3    H221109   1.563   2.791   2.716
 7049TIP3   OH221110  -0.004   2.394   3.387
 7049TIP3    H121111   0.062   2.324   3.394
 7049TIP3    H221112  -0.029   2.394   3.295
 7050TIP3   OH221113   0.433   3.980   1.951
 7050TIP3    H121114   0.414   4.008   1.862
 7050TIP3    H221115   0.389   3.895   1.960
 7051TIP3   OH221116   3.463   6.684   4.385
 7051TIP3    H121117   3.454   6.596   4.422
 7051TIP3    H221118   3.458   6.742   4.461
 7052TIP3   OH221119   0.680   1.298   3.265
 7052TIP3    H121120   0.642   1.238   3.201
 7052TIP3    H221121   0.743   1.350   3.216
 7053TIP3   OH221122   5.520   1.001   2.544
 7053TIP3    H121123   5.511   0.977   2.451
 7053TIP3    H221124   5.583   1.073   2.544
 7054TIP3   OH221125   6.274   3.457   2.081
 7054TIP3    H121126   6.248   3.541   2.118
 7054TIP3    H221127   6.208   3.438   2.015
 7055TIP3   OH221128   0.722   5.727   2.000
 7055TIP3    H121129   0.737   5.635   1.976
 7055TIP3    H221130   0.674   5.722   2.083
 7056TIP3   OH221131   6.760   6.101   3.619
 7056TIP3    H121132   6.816   6.146   3.556
 7056TIP3    H221133   6.744   6.015   3.580
 7057TIP3   OH221134   4.777   4.382   2.356
 7057TIP3    H121135   4.685   4.380   2.383
 7057TIP3    H221136   4.796   4.293   2.327
 7058TIP3   OH221137   6.003   1.035   1.892
 7058TIP3    H121138   6.080   0.987   1.861
 7058TIP3    H221139   5.936   1.018   1.825
 7059TIP3   OH221140   0.183   0.619   2.960
 7059TIP3    H121141   0.159   0.699   2.914
 7059TIP3    H221142   0.166   0.638   3.052
 7060TIP3   OH221143   4.696   4.977   2.441
 7060TIP3    H121144   4.650   5.016   2.367
 7060TIP3    H221145   4.733   5.051   2.488
 7061TIP3   OH221146   6.700   3.705   1.087
 7061TIP3    H121147   6.746   3.775   1.041
 7061TIP3    H221148   6.617   3.744   1.113
 7062TIP3   OH221149   2.683   5.684   0.502
 7062TIP3    H121150   2.738   5.690   0.580
 7062TIP3    H221151   2.594   5.700   0.533
 7063TIP3   OH221152   6.170   2.638   2.893
 7063TIP3    H121153   6.244   2.691   2.864
 7063TIP3    H221154   6.123   2.693   2.955
 7064TIP3   OH221155   5.568   4.335   1.721
 7064TIP3    H121156   5.664   4.331   1.717
 7064TIP3    H221157   5.545   4.270   1.788
 7065TIP3   OH221158   4.313   4.692   0.053
 7065TIP3    H121159   4.385   4.664  -0.003
 7065TIP3    H221160   4.292   4.780   0.024
 7066TIP3   OH221161   2.285   1.993   1.190
 7066TIP3    H121162   2.353   2.041   1.142
 7066TIP3    H221163   2.290   1.903   1.157
 7067TIP3   OH221164   4.379   4.380   5.470
 7067TIP3    H121165   4.324   4.457   5.488
 7067TIP3    H221166   4.410   4.394   5.380
 7068TIP3   OH221167   0.082   2.570   2.524
 7068TIP3    H121168   0.036   2.623   2.589
 7068TIP3    H221169   0.149   2.628   2.488
 7069TIP3   OH221170   2.965   4.966   3.954
 7069TIP3    H121171   3.032   4.969   3.886
 7069TIP3    H221172   2.961   4.874   3.980
 7070TIP3   OH221173   4.297   2.001   2.592
 7070TIP3    H121174   4.259   1.947   2.523
 7070TIP3    H221175   4.391   1.988   2.585
 7071TIP3   OH221176   5.468   2.264   3.269
 7071TIP3    H121177   5.436   2.237   3.183
 7071TIP3    H221178   5.422   2.207   3.331
 7072TIP3   OH221179   1.497   3.208   0.407
 7072TIP3    H121180   1.443   3.287   0.412
 7072TIP3    H221181   1.519   3.188   0.498
 7073TIP3   OH221182   2.432   4.566   0.637
 7073TIP3    H121183   2.462   4.577   0.727
 7073TIP3    H221184   2.454   4.475   0.616
 7074TIP3   OH221185   4.333   5.902   4.654
 7074TIP3    H121186   4.423   5.879   4.679
 7074TIP3    H221187   4.343   5.954   4.574
 7075TIP3   OH221188   1.398   3.183   1.384
 7075TIP3    H121189   1.330   3.153   1.444
 7075TIP3    H221190   1.464   3.113   1.386
 7076TIP3   OH221191   5.118   2.081   4.487
 7076TIP3    H121192   5.123   2.000   4.537
 7076TIP3    H221193   5.193   2.078   4.427
 7077TIP3   OH221194   4.320   5.052   5.352
 7077TIP3    H121195   4.324   5.026   5.259
 7077TIP3    H221196   4.395   5.110   5.363
 7078TIP3   OH221197   2.929   4.921   1.075
 7078TIP3    H121198   2.876   4.927   1.154
 7078TIP3    H221199   2.874   4.962   1.007
 7079TIP3   OH221200   0.292   4.750   4.669
 7079TIP3    H121201   0.243   4.732   4.750
 7079TIP3    H221202   0.321   4.664   4.639
 7080TIP3   OH221203   4.353   1.037   3.074
 7080TIP3    H121204   4.269   1.056   3.117
 7080TIP3    H221205   4.337   0.955   3.026
 7081TIP3   OH221206   3.736   0.039   1.374
 7081TIP3    H121207   3.725  -0.014   1.453
 7081TIP3    H221208   3.707  -0.018   1.303
 7082TIP3   OH221209   3.340   1.818   1.925
 7082TIP3    H121210   3.246   1.820   1.942
 7082TIP3    H221211   3.357   1.894   1.869
 7083TIP3   OH221212   6.679   3.449   4.082
 7083TIP3    H121213   6.692   3.418   4.172
 7083TIP3    H221214   6.639   3.535   4.092
 7084TIP3   OH221215   2.816   0.867   3.771
 7084TIP3    H121216   2.831   0.801   3.838
 7084TIP3    H221217   2.846   0.826   3.690
 7085TIP3   OH221218   5.905   4.457   3.775
 7085TIP3    H121219   5.901   4.525   3.842
 7085TIP3    H221220   5.891   4.505   3.693
 7086TIP3   OH221221   1.013   1.632   3.752
 7086TIP3    H121222   0.933   1.680   3.773
 7086TIP3    H221223   1.044   1.599   3.836
 7087TIP3   OH221224   0.549   4.056   4.188
 7087TIP3    H121225   0.471   4.098   4.155
 7087TIP3    H221226   0.597   4.028   4.110
 7088TIP3   OH221227   3.112   1.321   3.312
 7088TIP3    H121228   3.069   1.321   3.398
 7088TIP3    H221229   3.080   1.241   3.269
 7089TIP3   OH221230   3.681   0.191   0.138
 7089TIP3    H121231   3.758   0.248   0.129
 7089TIP3    H221232   3.607   0.247   0.117
 7090TIP3   OH221233   2.016   4.837   2.017
 7090TIP3    H121234   1.941   4.825   2.076
 7090TIP3    H221235   2.092   4.835   2.075
 7091TIP3   OH221236   5.081   4.065   0.605
 7091TIP3    H121237   5.133   4.117   0.666
 7091TIP3    H221238   4.993   4.063   0.643
 7092TIP3   OH221239   7.122   6.662   1.510
 7092TIP3    H121240   7.051   6.688   1.451
 7092TIP3    H221241   7.200   6.662   1.454
 7093TIP3   OH221242   1.671   3.511   1.642
 7093TIP3    H121243   1.608   3.569   1.600
 7093TIP3    H221244   1.730   3.570   1.688
 7094TIP3   OH221245   0.199   1.876   1.253
 7094TIP3    H121246   0.203   1.971   1.242
 7094TIP3    H221247   0.135   1.863   1.323
 7095TIP3   OH221248   1.962   6.035   1.983
 7095TIP3    H121249   1.909   6.110   2.012
 7095TIP3    H221250   1.906   5.959   1.999
 7096TIP3   OH221251   6.922   3.279   1.969
 7096TIP3    H121252   6.911   3.187   1.991
 7096TIP3    H221253   6.833   3.310   1.953
 7097TIP3   OH221254   6.089   1.930   0.574
 7097TIP3    H121255   6.140   1.881   0.509
 7097TIP3    H221256   6.037   1.992   0.523
 7098TIP3   OH221257   3.605   3.504   3.250
 7098TIP3    H121258   3.623   3.488   3.158
 7098TIP3    H221259   3.562   3.424   3.280
 7099TIP3   OH221260   2.705   0.529   3.423
 7099TIP3    H121261   2.658   0.582   3.486
 7099TIP3    H221262   2.660   0.444   3.424
 7100TIP3   OH221263   2.329   6.371   0.160
 7100TIP3    H121264   2.406   6.357   0.105
 7100TIP3    H221265   2.271   6.297   0.139
 7101TIP3   OH221266   4.754   1.758   1.034
 7101TIP3    H121267   4.746   1.852   1.052
 7101TIP3    H221268   4.842   1.748   0.999
 7102TIP3   OH221269   4.001   6.288   0.795
 7102TIP3    H121270   3.962   6.310   0.880
 7102TIP3    H221271   4.011   6.193   0.797
 7103TIP3   OH221272   3.171   0.210   0.538
 7103TIP3    H121273   3.118   0.252   0.606
 7103TIP3    H221274   3.225   0.281   0.504
 7104TIP3   OH221275   5.603   5.619   2.342
 7104TIP3    H121276   5.616   5.529   2.372
 7104TIP3    H221277   5.682   5.666   2.370
 7105TIP3   OH221278   1.313   1.032   0.190
 7105TIP3    H121279   1.269   1.021   0.105
 7105TIP3    H221280   1.252   0.992   0.253
 7106TIP3   OH221281   1.565   2.264   0.918
 7106TIP3    H121282   1.537   2.334   0.858
 7106TIP3    H221283   1.526   2.288   1.002
 7107TIP3   OH221284   1.212   3.814   3.257
 7107TIP3    H121285   1.194   3.764   3.177
 7107TIP3    H221286   1.173   3.762   3.327
 7108TIP3   OH221287   6.857   0.489   3.595
 7108TIP3    H121288   6.837   0.485   3.689
 7108TIP3    H221289   6.939   0.537   3.591
 7109TIP3   OH221290   6.191   1.311   1.202
 7109TIP3    H121291   6.230   1.333   1.286
 7109TIP3    H221292   6.173   1.217   1.207
 7110TIP3   OH221293   5.744   5.257   1.707
 7110TIP3    H121294   5.657   5.230   1.679
 7110TIP3    H221295   5.779   5.180   1.753
 7111TIP3   OH221296   2.717   3.950   1.789
 7111TIP3    H121297   2.730   3.857   1.809
 7111TIP3    H221298   2.791   3.973   1.732
 7112TIP3   OH221299   5.745   5.165   2.079
 7112TIP3    H121300   5.714   5.117   2.156
 7112TIP3    H221301   5.725   5.108   2.005
 7113TIP3   OH221302   1.069   1.314   0.187
 7113TIP3    H121303   1.015   1.323   0.108
 7113TIP3    H221304   1.159   1.315   0.154
 7114TIP3   OH221305   0.850   3.055   1.741
 7114TIP3    H121306   0.786   3.009   1.687
 7114TIP3    H221307   0.909   2.987   1.774
 7115TIP3   OH221308   5.626   6.523   1.816
 7115TIP3    H121309   5.609   6.510   1.909
 7115TIP3    H221310   5.625   6.435   1.778
 7116TIP3   OH221311   4.224   4.794   0.687
 7116TIP3    H121312   4.136   4.755   0.688
 7116TIP3    H221313   4.283   4.718   0.691
 7117TIP3   OH221314   5.733   2.997   3.345
 7117TIP3    H121315   5.736   3.090   3.367
 7117TIP3    H221316   5.685   2.957   3.418
 7118TIP3   OH221317   4.740   4.172   3.465
 7118TIP3    H121318   4.662   4.118   3.454
 7118TIP3    H221319   4.796   4.149   3.391
 7119TIP3   OH221320   1.385   2.602   1.845
 7119TIP3    H121321   1.310   2.544   1.855
 7119TIP3    H221322   1.459   2.553   1.881
 7120TIP3   OH221323   6.056   3.936   1.901
 7120TIP3    H121324   6.025   3.883   1.829
 7120TIP3    H221325   5.977   3.962   1.948
 7121TIP3   OH221326   6.023   0.230   4.979
 7121TIP3    H121327   6.002   0.324   4.981
 7121TIP3    H221328   5.968   0.192   5.048
 7122TIP3   OH221329   5.189   6.188   2.797
 7122TIP3    H121330   5.242   6.258   2.837
 7122TIP3    H221331   5.129   6.161   2.866
 7123TIP3   OH221332   3.228   2.423   2.433
 7123TIP3    H121333   3.145   2.460   2.405
 7123TIP3    H221334   3.283   2.499   2.453
 7124TIP3   OH221335   3.076   0.450   3.940
 7124TIP3    H121336   3.102   0.360   3.920
 7124TIP3    H221337   3.156   0.501   3.926
 7125TIP3   OH221338   3.342   2.742   0.257
 7125TIP3    H121339   3.403   2.763   0.327
 7125TIP3    H221340   3.307   2.826   0.230
 7126TIP3   OH221341   0.877   5.877   2.303
 7126TIP3    H121342   0.916   5.833   2.228
 7126TIP3    H221343   0.880   5.970   2.281
 7127TIP3   OH221344   1.085   5.577   0.092
 7127TIP3    H121345   1.099   5.514   0.022
 7127TIP3    H221346   1.163   5.572   0.146
 7128TIP3   OH221347   3.589   4.954   3.877
 7128TIP3    H121348   3.510   4.985   3.920
 7128TIP3    H221349   3.564   4.872   3.835
 7129TIP3   OH221350   2.570   1.047   1.465
 7129TIP3    H121351   2.497   1.105   1.443
 7129TIP3    H221352   2.623   1.044   1.385
 7130TIP3   OH221353   1.690   1.676   3.518
 7130TIP3    H121354   1.641   1.758   3.515
 7130TIP3    H221355   1.675   1.643   3.607
 7131TIP3   OH221356   3.873   2.899   3.640
 7131TIP3    H121357   3.840   2.912   3.551
 7131TIP3    H221358   3.809   2.944   3.695
 7132TIP3   OH221359   1.730   4.487   2.560
 7132TIP3    H121360   1.647   4.452   2.593
 7132TIP3    H221361   1.759   4.422   2.495
 7133TIP3   OH221362   6.293   2.314   5.652
 7133TIP3    H121363   6.221   2.377   5.645
 7133TIP3    H221364   6.358   2.345   5.589
 7134TIP3   OH221365   6.689   1.409   5.336
 7134TIP3    H121366   6.702   1.503   5.321
 7134TIP3    H221367   6.613   1.404   5.394
 7135TIP3   OH221368   3.514   1.482   4.530
 7135TIP3    H121369   3.445   1.520   4.584
 7135TIP3    H221370   3.515   1.389   4.552
 7136TIP3   OH221371   5.276   6.499   4.423
 7136TIP3    H121372   5.198   6.553   4.435
 7136TIP3    H221373   5.321   6.504   4.507
 7137TIP3   OH221374   2.048   2.832   3.207
 7137TIP3    H121375   1.958   2.864   3.198
 7137TIP3    H221376   2.103   2.907   3.182
 7138TIP3   OH221377   2.896   2.025   1.818
 7138TIP3    H121378   2.893   2.101   1.759
 7138TIP3    H221379   2.804   2.006   1.836
 7139TIP3   OH221380   0.142   1.522   5.106
 7139TIP3    H121381   0.081   1.529   5.179
 7139TIP3    H221382   0.149   1.611   5.072
 7140TIP3   OH221383   2.877   0.388   1.774
 7140TIP3    H121384   2.932   0.402   1.696
 7140TIP3    H221385   2.797   0.438   1.756
 7141TIP3   OH221386   0.997   4.090   4.518
 7141TIP3    H121387   1.040   4.032   4.581
 7141TIP3    H221388   1.043   4.174   4.528
 7142TIP3   OH221389   4.396   4.980   4.618
 7142TIP3    H121390   4.470   4.985   4.678
 7142TIP3    H221391   4.365   4.890   4.625
 7143TIP3   OH221392   6.017   4.471   4.714
 7143TIP3    H121393   6.044   4.407   4.647
 7143TIP3    H221394   5.989   4.547   4.664
 7144TIP3   OH221395   0.363   0.248   3.153
 7144TIP3    H121396   0.360   0.182   3.083
 7144TIP3    H221397   0.271   0.269   3.170
 7145TIP3   OH221398   5.568   0.172   1.157
 7145TIP3    H121399   5.486   0.163   1.107
 7145TIP3    H221400   5.619   0.237   1.108
 7146TIP3   OH221401   5.176   1.666   4.210
 7146TIP3    H121402   5.190   1.760   4.207
 7146TIP3    H221403   5.087   1.654   4.176
 7147TIP3   OH221404   6.304   2.970   3.802
 7147TIP3    H121405   6.346   3.047   3.764
 7147TIP3    H221406   6.249   2.936   3.731
 7148TIP3   OH221407   6.352   4.701   2.521
 7148TIP3    H121408   6.360   4.791   2.552
 7148TIP3    H221409   6.361   4.648   2.600
 7149TIP3   OH221410   2.182   0.525   0.729
 7149TIP3    H121411   2.196   0.436   0.695
 7149TIP3    H221412   2.270   0.558   0.745
 7150TIP3   OH221413   3.911   4.089   5.362
 7150TIP3    H121414   3.942   4.121   5.447
 7150TIP3    H221415   3.824   4.055   5.379
 7151TIP3   OH221416   0.380   6.341   2.184
 7151TIP3    H121417   0.451   6.403   2.165
 7151TIP3    H221418   0.422   6.255   2.178
 7152TIP3   OH221419   1.260   3.359   0.779
 7152TIP3    H121420   1.241   3.319   0.694
 7152TIP3    H221421   1.224   3.298   0.843
 7153TIP3   OH221422   2.237   6.514   1.638
 7153TIP3    H121423   2.240   6.533   1.731
 7153TIP3    H221424   2.308   6.451   1.624
 7154TIP3   OH221425   6.391   2.349   1.503
 7154TIP3    H121426   6.338   2.313   1.431
 7154TIP3    H221427   6.476   2.305   1.494
 7155TIP3   OH221428   6.133   1.648   0.670
 7155TIP3    H121429   6.096   1.733   0.647
 7155TIP3    H221430   6.059   1.587   0.666
 7156TIP3   OH221431   0.107   1.944   5.192
 7156TIP3    H121432   0.036   1.992   5.151
 7156TIP3    H221433   0.176   2.009   5.207
 7157TIP3   OH221434   0.354   2.601   0.418
 7157TIP3    H121435   0.421   2.647   0.367
 7157TIP3    H221436   0.378   2.619   0.509
 7158TIP3   OH221437   2.409   0.671   5.726
 7158TIP3    H121438   2.373   0.666   5.637
 7158TIP3    H221439   2.437   0.762   5.735
 7159TIP3   OH221440   3.175   0.425   1.907
 7159TIP3    H121441   3.083   0.440   1.886
 7159TIP3    H221442   3.202   0.504   1.953
 7160TIP3   OH221443   7.010   3.180   2.826
 7160TIP3    H121444   7.023   3.243   2.897
 7160TIP3    H221445   6.931   3.132   2.851
 7161TIP3   OH221446   4.598   4.786   1.350
 7161TIP3    H121447   4.529   4.849   1.328
 7161TIP3    H221448   4.586   4.769   1.443
 7162TIP3   OH221449   4.357   6.251   0.639
 7162TIP3    H121450   4.441   6.216   0.668
 7162TIP3    H221451   4.345   6.331   0.690
 7163TIP3   OH221452   0.054   1.264   5.000
 7163TIP3    H121453   0.091   1.203   4.936
 7163TIP3    H221454   0.117   1.263   5.073
 7164TIP3   OH221455   4.982   0.457   4.305
 7164TIP3    H121456   4.933   0.459   4.223
 7164TIP3    H221457   5.073   0.470   4.278
 7165TIP3   OH221458   4.553   5.878   3.854
 7165TIP3    H121459   4.493   5.952   3.859
 7165TIP3    H221460   4.529   5.823   3.930
 7166TIP3   OH221461   4.627   5.619   0.747
 7166TIP3    H121462   4.568   5.581   0.812
 7166TIP3    H221463   4.713   5.618   0.788
 7167TIP3   OH221464   5.671   4.481   1.258
 7167TIP3    H121465   5.698   4.392   1.283
 7167TIP3    H221466   5.744   4.514   1.206
 7168TIP3   OH221467   2.743   5.277   0.586
 7168TIP3    H121468   2.691   5.197   0.576
 7168TIP3    H221469   2.699   5.326   0.655
 7169TIP3   OH221470   5.659   2.292   3.875
 7169TIP3    H121471   5.669   2.342   3.956
 7169TIP3    H221472   5.714   2.215   3.887
 7170TIP3   OH221473   1.150   1.775   2.247
 7170TIP3    H121474   1.153   1.780   2.342
 7170TIP3    H221475   1.239   1.748   2.222
 7171TIP3   OH221476   1.406   1.732   2.182
 7171TIP3    H121477   1.416   1.768   2.094
 7171TIP3    H221478   1.487   1.756   2.227
 7172TIP3   OH221479   7.079   3.787   2.689
 7172TIP3    H121480   7.138   3.775   2.764
 7172TIP3    H221481   7.021   3.711   2.692
 7173TIP3   OH221482   3.572   4.931   5.210
 7173TIP3    H121483   3.551   4.849   5.165
 7173TIP3    H221484   3.487   4.975   5.220
 7174TIP3   OH221485   4.613   4.129   4.488
 7174TIP3    H121486   4.699   4.097   4.461
 7174TIP3    H221487   4.630   4.214   4.527
 7175TIP3   OH221488   6.334   2.580   5.238
 7175TIP3    H121489   6.394   2.646   5.204
 7175TIP3    H221490   6.392   2.512   5.274
 7176TIP3   OH221491   0.931   4.210   4.033
 7176TIP3    H121492   0.971   4.297   4.043
 7176TIP3    H221493   0.940   4.170   4.119
 7177TIP3   OH221494   6.645   0.641   5.354
 7177TIP3    H121495   6.577   0.706   5.367
 7177TIP3    H221496   6.664   0.608   5.442
 7178TIP3   OH221497   1.827   6.262   2.080
 7178TIP3    H121498   1.762   6.305   2.136
 7178TIP3    H221499   1.911   6.297   2.110
 7179TIP3   OH221500   4.655   6.444   1.689
 7179TIP3    H121501   4.611   6.503   1.750
 7179TIP3    H221502   4.724   6.498   1.649
 7180TIP3   OH221503   2.193   3.077   1.687
 7180TIP3    H121504   2.182   3.003   1.627
 7180TIP3    H221505   2.234   3.145   1.633
 7181TIP3   OH221506   2.613   0.064   3.456
 7181TIP3    H121507   2.548   0.089   3.522
 7181TIP3    H221508   2.603  -0.031   3.447
 7182TIP3   OH221509   3.684   5.119   3.411
 7182TIP3    H121510   3.704   5.205   3.447
 7182TIP3    H221511   3.588   5.117   3.405
 7183TIP3   OH221512   0.839   2.571   2.299
 7183TIP3    H121513   0.929   2.539   2.295
 7183TIP3    H221514   0.798   2.516   2.367
 7184TIP3   OH221515   3.428   3.555   5.499
 7184TIP3    H121516   3.440   3.650   5.508
 7184TIP3    H221517   3.338   3.546   5.466
 7185TIP3   OH221518   5.072   5.702   4.060
 7185TIP3    H121519   5.110   5.614   4.066
 7185TIP3    H221520   5.006   5.695   3.992
 7186TIP3   OH221521   2.154   6.505   4.787
 7186TIP3    H121522   2.152   6.549   4.702
 7186TIP3    H221523   2.244   6.473   4.795
 7187TIP3   OH221524   3.935   4.305   4.296
 7187TIP3    H121525   3.973   4.389   4.269
 7187TIP3    H221526   3.969   4.291   4.385
 7188TIP3   OH221527   0.826   4.494   4.197
 7188TIP3    H121528   0.914   4.522   4.223
 7188TIP3    H221529   0.781   4.574   4.173
 7189TIP3   OH221530   4.735   3.562   3.027
 7189TIP3    H121531   4.714   3.507   2.951
 7189TIP3    H221532   4.692   3.645   3.010
 7190TIP3   OH221533   4.906   4.141   0.989
 7190TIP3    H121534   4.815   4.136   0.959
 7190TIP3    H221535   4.936   4.228   0.962
 7191TIP3   OH221536   3.190   2.094   4.850
 7191TIP3    H121537   3.151   2.158   4.791
 7191TIP3    H221538   3.246   2.040   4.794
 7192TIP3   OH221539   0.847   2.729   0.535
 7192TIP3    H121540   0.865   2.822   0.549
 7192TIP3    H221541   0.931   2.693   0.505
 7193TIP3   OH221542   2.208   5.439   0.613
 7193TIP3    H121543   2.129   5.455   0.664
 7193TIP3    H221544   2.184   5.464   0.523
 7194TIP3   OH221545   0.210   3.993   4.401
 7194TIP3    H121546   0.135   4.017   4.455
 7194TIP3    H221547   0.174   3.933   4.335
 7195TIP3   OH221548   2.944   4.496   3.867
 7195TIP3    H121549   3.010   4.443   3.913
 7195TIP3    H221550   2.871   4.436   3.853
 7196TIP3   OH221551   0.280   0.367   5.340
 7196TIP3    H121552   0.247   0.282   5.311
 7196TIP3    H221553   0.369   0.373   5.304
 7197TIP3   OH221554   1.619   0.333   2.236
 7197TIP3    H121555   1.660   0.344   2.323
 7197TIP3    H221556   1.663   0.257   2.198
 7198TIP3   OH221557   1.556   1.562   4.552
 7198TIP3    H121558   1.485   1.510   4.590
 7198TIP3    H221559   1.551   1.646   4.598
 7199TIP3   OH221560   4.709   2.440   4.475
 7199TIP3    H121561   4.697   2.489   4.556
 7199TIP3    H221562   4.797   2.403   4.482
 7200TIP3   OH221563   6.029   6.707   0.675
 7200TIP3    H121564   6.028   6.626   0.624
 7200TIP3    H221565   6.119   6.714   0.707
 7201TIP3   OH221566   5.272   1.812   3.411
 7201TIP3    H121567   5.301   1.830   3.322
 7201TIP3    H221568   5.223   1.730   3.405
 7202TIP3   OH221569   4.187   3.038   5.717
 7202TIP3    H121570   4.138   2.959   5.693
 7202TIP3    H221571   4.257   3.044   5.652
 7203TIP3   OH221572   4.327   2.388   0.522
 7203TIP3    H121573   4.404   2.399   0.577
 7203TIP3    H221574   4.291   2.476   0.513
 7204TIP3   OH221575   2.890   5.541   4.443
 7204TIP3    H121576   2.875   5.635   4.433
 7204TIP3    H221577   2.842   5.501   4.371
 7205TIP3   OH221578   1.409   6.178   3.274
 7205TIP3    H121579   1.367   6.093   3.285
 7205TIP3    H221580   1.380   6.208   3.188
 7206TIP3   OH221581   3.974   0.501   0.540
 7206TIP3    H121582   3.883   0.493   0.514
 7206TIP3    H221583   4.024   0.489   0.459
 7207TIP3   OH221584   4.145   4.057   0.957
 7207TIP3    H121585   4.119   4.028   1.045
 7207TIP3    H221586   4.063   4.087   0.917
 7208TIP3   OH221587   1.312   5.184   5.346
 7208TIP3    H121588   1.281   5.237   5.273
 7208TIP3    H221589   1.294   5.094   5.320
 7209TIP3   OH221590   6.505   5.622   2.363
 7209TIP3    H121591   6.469   5.566   2.294
 7209TIP3    H221592   6.554   5.562   2.419
 7210TIP3   OH221593   1.361   2.219   1.796
 7210TIP3    H121594   1.418   2.287   1.832
 7210TIP3    H221595   1.285   2.267   1.763
 7211TIP3   OH221596   2.663   4.447   4.253
 7211TIP3    H121597   2.665   4.541   4.235
 7211TIP3    H221598   2.602   4.411   4.188
 7212TIP3   OH221599   0.578   4.656   5.626
 7212TIP3    H121600   0.499   4.690   5.669
 7212TIP3    H221601   0.623   4.735   5.595
 7213TIP3   OH221602   5.411   0.891   4.109
 7213TIP3    H121603   5.493   0.846   4.129
 7213TIP3    H221604   5.434   0.954   4.041
 7214TIP3   OH221605   1.468   2.203   0.640
 7214TIP3    H121606   1.540   2.139   0.638
 7214TIP3    H221607   1.510   2.285   0.664
 7215TIP3   OH221608   5.441   5.532   4.113
 7215TIP3    H121609   5.426   5.486   4.031
 7215TIP3    H221610   5.526   5.500   4.144
 7216TIP3   OH221611   0.907   3.047   0.639
 7216TIP3    H121612   0.889   3.035   0.732
 7216TIP3    H221613   1.002   3.039   0.631
 7217TIP3   OH221614   7.176   4.722   3.788
 7217TIP3    H121615   7.184   4.650   3.726
 7217TIP3    H221616   7.242   4.704   3.855
 7218TIP3   OH221617   2.582   4.741   1.648
 7218TIP3    H121618   2.585   4.778   1.736
 7218TIP3    H221619   2.657   4.780   1.603
 7219TIP3   OH221620   5.103   6.560   5.188
 7219TIP3    H121621   5.138   6.632   5.240
 7219TIP3    H221622   5.008   6.578   5.184
 7220TIP3   OH221623   2.673   6.841   0.018
 7220TIP3    H121624   2.718   6.756   0.021
 7220TIP3    H221625   2.597   6.829   0.074
 7221TIP3   OH221626   1.535   2.538   4.272
 7221TIP3    H121627   1.561   2.451   4.243
 7221TIP3    H221628   1.610   2.594   4.250
 7222TIP3   OH221629   5.316   0.658   4.803
 7222TIP3    H121630   5.255   0.610   4.746
 7222TIP3    H221631   5.325   0.603   4.881
 7223TIP3   OH221632   6.952   5.672   5.017
 7223TIP3    H121633   6.930   5.615   5.091
 7223TIP3    H221634   6.875   5.670   4.961
 7224TIP3   OH221635   1.876   1.472   3.515
 7224TIP3    H121636   1.950   1.524   3.482
 7224TIP3    H221637   1.799   1.526   3.497
 7225TIP3   OH221638   1.334   1.536   2.406
 7225TIP3    H121639   1.357   1.607   2.347
 7225TIP3    H221640   1.262   1.571   2.459
 7226TIP3   OH221641   4.584   3.390   3.167
 7226TIP3    H121642   4.549   3.465   3.216
 7226TIP3    H221643   4.605   3.425   3.081
 7227TIP3   OH221644   6.890   4.684   2.361
 7227TIP3    H121645   6.841   4.649   2.435
 7227TIP3    H221646   6.824   4.727   2.307
 7228TIP3   OH221647   6.749   3.417   2.261
 7228TIP3    H121648   6.802   3.338   2.269
 7228TIP3    H221649   6.720   3.417   2.170
 7229TIP3   OH221650   1.907   1.249   3.326
 7229TIP3    H121651   1.868   1.172   3.367
 7229TIP3    H221652   1.908   1.316   3.394
 7230TIP3   OH221653   6.372   3.263   2.235
 7230TIP3    H121654   6.361   3.326   2.163
 7230TIP3    H221655   6.424   3.192   2.197
 7231TIP3   OH221656   4.212   2.571   5.145
 7231TIP3    H121657   4.142   2.509   5.164
 7231TIP3    H221658   4.283   2.546   5.205
 7232TIP3   OH221659   4.571   2.443   0.695
 7232TIP3    H121660   4.559   2.349   0.711
 7232TIP3    H221661   4.626   2.446   0.616
 7233TIP3   OH221662   5.565   2.815   3.536
 7233TIP3    H121663   5.530   2.733   3.501
 7233TIP3    H221664   5.514   2.832   3.615
 7234TIP3   OH221665   2.656   6.499   1.038
 7234TIP3    H121666   2.680   6.420   1.086
 7234TIP3    H221667   2.561   6.497   1.034
 7235TIP3   OH221668   6.399   3.378   3.999
 7235TIP3    H121669   6.456   3.303   3.982
 7235TIP3    H221670   6.358   3.359   4.083
 7236TIP3   OH221671   2.438   4.182   3.206
 7236TIP3    H121672   2.404   4.127   3.277
 7236TIP3    H221673   2.363   4.233   3.176
 7237TIP3   OH221674   0.741   3.657   0.585
 7237TIP3    H121675   0.664   3.613   0.549
 7237TIP3    H221676   0.813   3.629   0.529
 7238TIP3   OH221677   3.988   5.287   0.161
 7238TIP3    H121678   4.008   5.379   0.141
 7238TIP3    H221679   4.003   5.280   0.255
 7239TIP3   OH221680   6.518   4.209   3.845
 7239TIP3    H121681   6.602   4.254   3.852
 7239TIP3    H221682   6.511   4.186   3.752
 7240TIP3   OH221683   2.943   2.388   2.103
 7240TIP3    H121684   2.859   2.394   2.058
 7240TIP3    H221685   2.977   2.301   2.081
 7241TIP3   OH221686   0.851   1.569   1.559
 7241TIP3    H121687   0.863   1.661   1.579
 7241TIP3    H221688   0.892   1.558   1.473
 7242TIP3   OH221689   3.396   2.808   2.714
 7242TIP3    H121690   3.384   2.876   2.780
 7242TIP3    H221691   3.413   2.728   2.764
 7243TIP3   OH221692   6.332   2.847   1.635
 7243TIP3    H121693   6.344   2.779   1.570
 7243TIP3    H221694   6.357   2.928   1.590
 7244TIP3   OH221695   0.107   1.453   0.888
 7244TIP3    H121696   0.152   1.515   0.945
 7244TIP3    H221697   0.041   1.505   0.844
 7245TIP3   OH221698   6.471   0.523   0.556
 7245TIP3    H121699   6.422   0.557   0.481
 7245TIP3    H221700   6.406   0.482   0.612
 7246TIP3   OH221701   3.413   6.308   0.577
 7246TIP3    H121702   3.441   6.315   0.486
 7246TIP3    H221703   3.349   6.379   0.588
 7247TIP3   OH221704   1.085   4.630   1.460
 7247TIP3    H121705   1.049   4.658   1.544
 7247TIP3    H221706   1.173   4.599   1.481
 7248TIP3   OH221707   1.993   3.815   2.760
 7248TIP3    H121708   2.032   3.768   2.685
 7248TIP3    H221709   1.904   3.836   2.731
 7249TIP3   OH221710   2.809   0.661   0.163
 7249TIP3    H121711   2.811   0.621   0.076
 7249TIP3    H221712   2.718   0.655   0.190
 7250TIP3   OH221713   3.641   0.866   1.885
 7250TIP3    H121714   3.725   0.848   1.843
 7250TIP3    H221715   3.659   0.858   1.979
 7251TIP3   OH221716   0.832   0.100   3.736
 7251TIP3    H121717   0.911   0.152   3.743
 7251TIP3    H221718   0.765   0.161   3.704
 7252TIP3   OH221719   6.347   2.813   0.057
 7252TIP3    H121720   6.335   2.746   0.124
 7252TIP3    H221721   6.440   2.838   0.064
 7253TIP3   OH221722   3.935   0.148   4.949
 7253TIP3    H121723   3.910   0.056   4.961
 7253TIP3    H221724   4.006   0.145   4.885
 7254TIP3   OH221725   1.589   6.385   0.429
 7254TIP3    H121726   1.519   6.427   0.378
 7254TIP3    H221727   1.580   6.292   0.410
 7255TIP3   OH221728   0.212   0.995   4.316
 7255TIP3    H121729   0.190   0.953   4.233
 7255TIP3    H221730   0.299   1.031   4.302
 7256TIP3   OH221731   0.659   2.847   5.910
 7256TIP3    H121732   0.609   2.863   5.830
 7256TIP3    H221733   0.745   2.885   5.893
 7257TIP3   OH221734   3.395   0.043   3.351
 7257TIP3    H121735   3.388   0.136   3.372
 7257TIP3    H221736   3.379  -0.002   3.434
 7258TIP3   OH221737   5.864   3.964   5.062
 7258TIP3    H121738   5.777   4.003   5.072
 7258TIP3    H221739   5.925   4.037   5.077
 7259TIP3   OH221740   5.983   1.299   5.336
 7259TIP3    H121741   6.078   1.304   5.348
 7259TIP3    H221742   5.967   1.209   5.309
 7260TIP3   OH221743   4.255   2.995   2.015
 7260TIP3    H121744   4.320   3.011   2.084
 7260TIP3    H221745   4.306   2.994   1.934
 7261TIP3   OH221746   2.371   5.661   2.651
 7261TIP3    H121747   2.360   5.751   2.621
 7261TIP3    H221748   2.462   5.639   2.628
 7262TIP3   OH221749   1.218   5.391   1.991
 7262TIP3    H121750   1.290   5.386   2.054
 7262TIP3    H221751   1.224   5.480   1.955
 7263TIP3   OH221752   6.986   6.725   3.013
 7263TIP3    H121753   6.928   6.675   3.071
 7263TIP3    H221754   7.056   6.755   3.071
 7264TIP3   OH221755   6.154   2.977   0.362
 7264TIP3    H121756   6.108   2.911   0.413
 7264TIP3    H221757   6.100   3.056   0.370
 7265TIP3   OH221758   0.049   0.594   1.567
 7265TIP3    H121759   0.030   0.579   1.660
 7265TIP3    H221760   0.080   0.684   1.563
 7266TIP3   OH221761   7.055   4.866   2.262
 7266TIP3    H121762   7.050   4.839   2.171
 7266TIP3    H221763   6.994   4.808   2.308
 7267TIP3   OH221764   1.613   5.921   1.182
 7267TIP3    H121765   1.562   5.968   1.116
 7267TIP3    H221766   1.638   5.988   1.246
 7268TIP3   OH221767   2.292   3.311   5.239
 7268TIP3    H121768   2.238   3.274   5.170
 7268TIP3    H221769   2.306   3.402   5.213
 7269TIP3   OH221770   4.956   2.217   0.532
 7269TIP3    H121771   4.981   2.269   0.607
 7269TIP3    H221772   5.000   2.258   0.458
 7270TIP3   OH221773   4.178   4.064   1.981
 7270TIP3    H121774   4.202   4.006   2.053
 7270TIP3    H221775   4.262   4.098   1.949
 7271TIP3   OH221776   1.507   0.170   1.278
 7271TIP3    H121777   1.506   0.248   1.222
 7271TIP3    H221778   1.463   0.198   1.358
 7272TIP3   OH221779   4.467   2.522   3.002
 7272TIP3    H121780   4.467   2.462   2.927
 7272TIP3    H221781   4.506   2.472   3.073
 7273TIP3   OH221782   5.257   5.761   1.015
 7273TIP3    H121783   5.216   5.784   0.931
 7273TIP3    H221784   5.311   5.837   1.037
 7274TIP3   OH221785   3.208   5.756   4.332
 7274TIP3    H121786   3.191   5.845   4.362
 7274TIP3    H221787   3.241   5.710   4.409
 7275TIP3   OH221788   6.119   3.199   1.998
 7275TIP3    H121789   6.068   3.140   1.942
 7275TIP3    H221790   6.208   3.195   1.962
 7276TIP3   OH221791   2.947   5.425   5.707
 7276TIP3    H121792   2.989   5.343   5.734
 7276TIP3    H221793   2.951   5.481   5.785
 7277TIP3   OH221794   5.908   0.380   5.284
 7277TIP3    H121795   5.986   0.435   5.287
 7277TIP3    H221796   5.881   0.370   5.375
 7278TIP3   OH221797   6.371   0.896   0.053
 7278TIP3    H121798   6.405   0.873  -0.033
 7278TIP3    H221799   6.276   0.882   0.046
 7279TIP3   OH221800   6.391   0.496   2.028
 7279TIP3    H121801   6.360   0.486   2.118
 7279TIP3    H221802   6.358   0.418   1.983
 7280TIP3   OH221803   3.054   4.322   5.533
 7280TIP3    H121804   3.030   4.291   5.445
 7280TIP3    H221805   3.018   4.255   5.592
 7281TIP3   OH221806   1.675   1.525   3.782
 7281TIP3    H121807   1.588   1.503   3.751
 7281TIP3    H221808   1.694   1.459   3.849
 7282TIP3   OH221809   3.398   5.143   1.090
 7282TIP3    H121810   3.314   5.105   1.066
 7282TIP3    H221811   3.401   5.138   1.185
 7283TIP3   OH221812   5.509   6.521   2.065
 7283TIP3    H121813   5.418   6.495   2.048
 7283TIP3    H221814   5.508   6.617   2.060
 7284TIP3   OH221815   3.209   5.055   3.092
 7284TIP3    H121816   3.120   5.024   3.075
 7284TIP3    H221817   3.253   5.050   3.007
 7285TIP3   OH221818   6.468   3.131   1.088
 7285TIP3    H121819   6.560   3.145   1.108
 7285TIP3    H221820   6.464   3.041   1.055
 7286TIP3   OH221821   0.538   1.627   0.478
 7286TIP3    H121822   0.500   1.712   0.500
 7286TIP3    H221823   0.562   1.589   0.562
 7287TIP3   OH221824   6.378   4.089   1.200
 7287TIP3    H121825   6.362   4.140   1.279
 7287TIP3    H221826   6.292   4.062   1.170
 7288TIP3   OH221827   5.727   1.479   2.902
 7288TIP3    H121828   5.768   1.438   2.978
 7288TIP3    H221829   5.636   1.450   2.906
 7289TIP3   OH221830   2.466   1.166   0.467
 7289TIP3    H121831   2.452   1.259   0.451
 7289TIP3    H221832   2.378   1.130   0.477
 7290TIP3   OH221833   5.199   4.519   4.888
 7290TIP3    H121834   5.267   4.474   4.837
 7290TIP3    H221835   5.195   4.607   4.850
 7291TIP3   OH221836   1.975   5.341   2.227
 7291TIP3    H121837   1.991   5.269   2.288
 7291TIP3    H221838   2.002   5.308   2.142
 7292TIP3   OH221839   2.143   2.797   1.954
 7292TIP3    H121840   2.076   2.753   2.006
 7292TIP3    H221841   2.222   2.743   1.965
 7293TIP3   OH221842   1.627   6.707   2.233
 7293TIP3    H121843   1.632   6.705   2.329
 7293TIP3    H221844   1.587   6.792   2.213
 7294TIP3   OH221845   4.361   3.864   0.137
 7294TIP3    H121846   4.413   3.791   0.104
 7294TIP3    H221847   4.358   3.926   0.065
 7295TIP3   OH221848   5.681   3.586   3.014
 7295TIP3    H121849   5.753   3.649   3.006
 7295TIP3    H221850   5.604   3.641   3.030
 7296TIP3   OH221851   5.065   0.759   0.142
 7296TIP3    H121852   4.997   0.826   0.147
 7296TIP3    H221853   5.081   0.733   0.233
 7297TIP3   OH221854   7.094   2.441   2.141
 7297TIP3    H121855   7.140   2.514   2.183
 7297TIP3    H221856   7.116   2.365   2.195
 7298TIP3   OH221857   2.088   3.902   4.935
 7298TIP3    H121858   2.038   3.954   4.872
 7298TIP3    H221859   2.149   3.852   4.881
 7299TIP3   OH221860   4.960   0.126   4.769
 7299TIP3    H121861   4.905   0.126   4.848
 7299TIP3    H221862   5.011   0.207   4.776
 7300TIP3   OH221863   5.474   5.815   1.349
 7300TIP3    H121864   5.435   5.895   1.383
 7300TIP3    H221865   5.567   5.835   1.342
 7301TIP3   OH221866   5.548   1.714   0.485
 7301TIP3    H121867   5.617   1.710   0.419
 7301TIP3    H221868   5.594   1.728   0.568
 7302TIP3   OH221869   5.911   1.259   0.599
 7302TIP3    H121870   5.958   1.339   0.624
 7302TIP3    H221871   5.976   1.190   0.608
 7303TIP3   OH221872   2.798   6.508   4.586
 7303TIP3    H121873   2.719   6.466   4.619
 7303TIP3    H221874   2.821   6.456   4.508
 7304TIP3   OH221875   4.624   0.776   2.445
 7304TIP3    H121876   4.712   0.813   2.453
 7304TIP3    H221877   4.595   0.801   2.357
 7305TIP3   OH221878   4.816   5.968   3.792
 7305TIP3    H121879   4.851   5.998   3.876
 7305TIP3    H221880   4.724   5.950   3.809
 7306TIP3   OH221881   6.895   2.335   0.312
 7306TIP3    H121882   6.931   2.354   0.399
 7306TIP3    H221883   6.951   2.384   0.252
 7307TIP3   OH221884   7.137   1.225   1.675
 7307TIP3    H121885   7.122   1.185   1.761
 7307TIP3    H221886   7.050   1.239   1.639
 7308TIP3   OH221887   0.719   5.774   1.481
 7308TIP3    H121888   0.801   5.814   1.510
 7308TIP3    H221889   0.745   5.691   1.440
 7309TIP3   OH221890   5.889   4.385   2.686
 7309TIP3    H121891   5.889   4.480   2.695
 7309TIP3    H221892   5.851   4.353   2.768
 7310TIP3   OH221893   1.280   6.052   2.858
 7310TIP3    H121894   1.329   6.096   2.928
 7310TIP3    H221895   1.299   6.102   2.779
 7311TIP3   OH221896   2.535   2.778   1.379
 7311TIP3    H121897   2.587   2.707   1.342
 7311TIP3    H221898   2.569   2.789   1.468
 7312TIP3   OH221899   1.346   5.788   3.781
 7312TIP3    H121900   1.413   5.808   3.715
 7312TIP3    H221901   1.321   5.697   3.762
 7313TIP3   OH221902   0.094   0.677   5.767
 7313TIP3    H121903   0.056   0.690   5.680
 7313TIP3    H221904   0.039   0.610   5.808
 7314TIP3   OH221905   6.310   0.196   1.896
 7314TIP3    H121906   6.271   0.114   1.865
 7314TIP3    H221907   6.235   0.251   1.919
 7315TIP3   OH221908   6.289   2.180   4.911
 7315TIP3    H121909   6.222   2.189   4.979
 7315TIP3    H221910   6.245   2.135   4.840
 7316TIP3   OH221911   2.663   1.572   3.968
 7316TIP3    H121912   2.631   1.484   3.989
 7316TIP3    H221913   2.629   1.627   4.039
 7317TIP3   OH221914   6.004   3.417   1.575
 7317TIP3    H121915   6.069   3.373   1.519
 7317TIP3    H221916   5.924   3.416   1.522
 7318TIP3   OH221917   2.023   1.873   1.003
 7318TIP3    H121918   1.969   1.831   0.936
 7318TIP3    H221919   2.069   1.942   0.957
 7319TIP3   OH221920   2.766   2.847   5.706
 7319TIP3    H121921   2.680   2.874   5.739
 7319TIP3    H221922   2.771   2.753   5.724
 7320TIP3   OH221923   5.681   3.391   4.375
 7320TIP3    H121924   5.647   3.353   4.456
 7320TIP3    H221925   5.716   3.476   4.402
 7321TIP3   OH221926   2.972   4.704   4.011
 7321TIP3    H121927   2.952   4.625   3.963
 7321TIP3    H221928   2.893   4.723   4.062
 7322TIP3   OH221929   1.484   1.318   3.760
 7322TIP3    H121930   1.488   1.285   3.849
 7322TIP3    H221931   1.450   1.245   3.708
 7323TIP3   OH221932   6.690   3.764   5.464
 7323TIP3    H121933   6.670   3.692   5.404
 7323TIP3    H221934   6.611   3.816   5.466
 7324TIP3   OH221935   4.795   4.795   4.388
 7324TIP3    H121936   4.814   4.889   4.398
 7324TIP3    H221937   4.752   4.771   4.470
 7325TIP3   OH221938   1.478   4.336   3.021
 7325TIP3    H121939   1.566   4.300   3.030
 7325TIP3    H221940   1.488   4.411   2.963
 7326TIP3   OH221941   4.637   2.319   4.097
 7326TIP3    H121942   4.682   2.343   4.016
 7326TIP3    H221943   4.570   2.386   4.109
 7327TIP3   OH221944   1.910   5.006   1.845
 7327TIP3    H121945   1.941   4.953   1.919
 7327TIP3    H221946   1.815   4.997   1.846
 7328TIP3   OH221947   3.787   3.776   0.509
 7328TIP3    H121948   3.840   3.822   0.574
 7328TIP3    H221949   3.697   3.787   0.539
 7329TIP3   OH221950   1.078   6.482   1.805
 7329TIP3    H121951   1.033   6.480   1.890
 7329TIP3    H221952   1.170   6.488   1.827
 7330TIP3   OH221953   5.364   0.529   5.051
 7330TIP3    H121954   5.309   0.451   5.053
 7330TIP3    H221955   5.381   0.550   5.143
 7331TIP3   OH221956   7.163   4.519   2.570
 7331TIP3    H121957   7.092   4.479   2.620
 7331TIP3    H221958   7.209   4.446   2.529
 7332TIP3   OH221959   3.228   1.713   0.490
 7332TIP3    H121960   3.288   1.774   0.446
 7332TIP3    H221961   3.183   1.768   0.554
 7333TIP3   OH221962   3.955   5.985   5.093
 7333TIP3    H121963   3.878   6.016   5.045
 7333TIP3    H221964   3.993   5.918   5.036
 7334TIP3   OH221965   4.379   0.168   3.404
 7334TIP3    H121966   4.421   0.108   3.342
 7334TIP3    H221967   4.330   0.111   3.463
 7335TIP3   OH221968   4.994   5.599   0.589
 7335TIP3    H121969   4.914   5.624   0.543
 7335TIP3    H221970   5.060   5.587   0.520
 7336TIP3   OH221971   5.141   1.126   2.210
 7336TIP3    H121972   5.115   1.177   2.287
 7336TIP3    H221973   5.113   1.037   2.229
 7337TIP3   OH221974   5.072   5.262   2.200
 7337TIP3    H121975   5.165   5.242   2.191
 7337TIP3    H221976   5.050   5.234   2.289
 7338TIP3   OH221977   5.201   1.328   2.045
 7338TIP3    H121978   5.227   1.263   2.109
 7338TIP3    H221979   5.221   1.288   1.960
 7339TIP3   OH221980   4.581   1.043   5.249
 7339TIP3    H121981   4.601   1.102   5.322
 7339TIP3    H221982   4.643   1.068   5.180
 7340TIP3   OH221983   1.266   5.058   4.474
 7340TIP3    H121984   1.187   5.099   4.508
 7340TIP3    H221985   1.333   5.078   4.539
 7341TIP3   OH221986   3.059   2.702   3.640
 7341TIP3    H121987   3.033   2.724   3.551
 7341TIP3    H221988   3.151   2.677   3.633
 7342TIP3   OH221989   2.068   3.947   4.664
 7342TIP3    H121990   1.982   3.987   4.660
 7342TIP3    H221991   2.066   3.877   4.599
 7343TIP3   OH221992   6.172   4.147   3.575
 7343TIP3    H121993   6.141   4.124   3.487
 7343TIP3    H221994   6.184   4.242   3.572
 7344TIP3   OH221995   1.891   5.602   5.633
 7344TIP3    H121996   1.799   5.627   5.634
 7344TIP3    H221997   1.938   5.681   5.604
 7345TIP3   OH221998   2.050   4.754   5.860
 7345TIP3    H121999   1.980   4.709   5.813
 7345TIP3    H222000   2.116   4.772   5.793
 7346TIP3   OH222001   2.631   0.648   0.558
 7346TIP3    H122002   2.659   0.734   0.527
 7346TIP3    H222003   2.711   0.597   0.566
 7347TIP3   OH222004   6.671   0.249   3.062
 7347TIP3    H122005   6.767   0.240   3.061
 7347TIP3    H222006   6.655   0.343   3.071
 7348TIP3   OH222007   5.237   3.788   3.784
 7348TIP3    H122008   5.235   3.870   3.834
 7348TIP3    H222009   5.153   3.785   3.739
 7349TIP3   OH222010   3.268   1.002   2.205
 7349TIP3    H122011   3.184   1.040   2.181
 7349TIP3    H222012   3.327   1.024   2.132
 7350TIP3   OH222013   0.108   4.237   0.921
 7350TIP3    H122014   0.123   4.330   0.938
 7350TIP3    H222015   0.022   4.219   0.960
 7351TIP3   OH222016  -0.003   4.147   3.211
 7351TIP3    H122017   0.070   4.200   3.179
 7351TIP3    H222018  -0.004   4.163   3.306
 7352TIP3   OH222019   5.113   1.837   4.697
 7352TIP3    H122020   5.035   1.887   4.723
 7352TIP3    H222021   5.082   1.778   4.629
 7353TIP3   OH222022   0.548   0.072   5.899
 7353TIP3    H122023   0.588   0.158   5.895
 7353TIP3    H222024   0.569   0.031   5.815
 7354TIP3   OH222025   1.620   6.533   5.659
 7354TIP3    H122026   1.678   6.492   5.724
 7354TIP3    H222027   1.568   6.595   5.710
 7355TIP3   OH222028   3.011   6.522   5.146
 7355TIP3    H122029   2.954   6.525   5.069
 7355TIP3    H222030   3.053   6.436   5.143
 7356TIP3   OH222031   4.222   2.468   3.975
 7356TIP3    H122032   4.212   2.399   3.909
 7356TIP3    H222033   4.197   2.425   4.057
 7357TIP3   OH222034   5.465   2.874   1.256
 7357TIP3    H122035   5.469   2.868   1.351
 7357TIP3    H222036   5.443   2.966   1.239
 7358TIP3   OH222037   1.631   5.316   3.637
 7358TIP3    H122038   1.688   5.259   3.688
 7358TIP3    H222039   1.583   5.256   3.580
 7359TIP3   OH222040   2.212   5.875   5.716
 7359TIP3    H122041   2.225   5.890   5.623
 7359TIP3    H222042   2.198   5.962   5.754
 7360TIP3   OH222043   7.119   0.026   2.971
 7360TIP3    H122044   7.100   0.009   3.063
 7360TIP3    H222045   7.032   0.028   2.929
 7361TIP3   OH222046   6.963   3.406   5.728
 7361TIP3    H122047   7.004   3.325   5.697
 7361TIP3    H222048   6.973   3.467   5.656
 7362TIP3   OH222049   1.189   4.829   5.651
 7362TIP3    H122050   1.262   4.872   5.696
 7362TIP3    H222051   1.226   4.798   5.569
 7363TIP3   OH222052   1.228   1.847   0.458
 7363TIP3    H122053   1.231   1.935   0.496
 7363TIP3    H222054   1.320   1.825   0.442
 7364TIP3   OH222055   1.479   6.715   4.278
 7364TIP3    H122056   1.512   6.683   4.194
 7364TIP3    H222057   1.531   6.794   4.296
 7365TIP3   OH222058   1.903   1.640   0.423
 7365TIP3    H122059   1.931   1.576   0.489
 7365TIP3    H222060   1.979   1.696   0.410
 7366TIP3   OH222061   0.633   0.970   2.439
 7366TIP3    H122062   0.675   0.885   2.423
 7366TIP3    H222063   0.679   1.006   2.515
 7367TIP3   OH222064   5.622   2.714   3.840
 7367TIP3    H122065   5.678   2.661   3.897
 7367TIP3    H222066   5.666   2.800   3.837
 7368TIP3   OH222067   1.056   5.911   1.390
 7368TIP3    H122068   1.035   5.851   1.462
 7368TIP3    H222069   1.139   5.952   1.416
 7369TIP3   OH222070   3.090   6.218   0.562
 7369TIP3    H122071   3.127   6.236   0.476
 7369TIP3    H222072   3.106   6.125   0.576
 7370TIP3   OH222073   1.079   3.446   1.983
 7370TIP3    H122074   1.134   3.380   2.026
 7370TIP3    H222075   1.100   3.528   2.028
 7371TIP3   OH222076   1.526   4.985   1.452
 7371TIP3    H122077   1.527   4.958   1.360
 7371TIP3    H222078   1.609   5.033   1.463
 7372TIP3   OH222079   1.933   6.271   4.172
 7372TIP3    H122080   1.867   6.340   4.175
 7372TIP3    H222081   1.906   6.215   4.100
 7373TIP3   OH222082   6.299   2.139   3.255
 7373TIP3    H122083   6.361   2.100   3.194
 7373TIP3    H222084   6.352   2.169   3.329
 7374TIP3   OH222085   2.326   5.588   3.767
 7374TIP3    H122086   2.323   5.511   3.825
 7374TIP3    H222087   2.262   5.648   3.804
 7375TIP3   OH222088   6.500   3.880   1.081
 7375TIP3    H122089   6.505   3.894   0.986
 7375TIP3    H222090   6.462   3.961   1.116
 7376TIP3   OH222091   6.049   3.101   3.872
 7376TIP3    H122092   6.144   3.103   3.871
 7376TIP3    H222093   6.025   3.149   3.952
 7377TIP3   OH222094   3.863   1.547   2.359
 7377TIP3    H122095   3.829   1.616   2.416
 7377TIP3    H222096   3.801   1.545   2.286
 7378TIP3   OH222097   5.653   4.632   2.963
 7378TIP3    H122098   5.686   4.602   3.048
 7378TIP3    H222099   5.616   4.554   2.923
 7379TIP3   OH222100   1.589   4.154   0.872
 7379TIP3    H122101   1.562   4.243   0.895
 7379TIP3    H222102   1.611   4.159   0.779
 7380TIP3   OH222103   3.406   4.834   0.976
 7380TIP3    H122104   3.481   4.856   1.032
 7380TIP3    H222105   3.365   4.918   0.956
 7381TIP3   OH222106   4.486   5.071   1.032
 7381TIP3    H122107   4.528   5.156   1.031
 7381TIP3    H222108   4.447   5.062   0.944
 7382TIP3   OH222109   0.388   0.976   5.706
 7382TIP3    H122110   0.471   1.023   5.708
 7382TIP3    H222111   0.411   0.886   5.729
 7383TIP3   OH222112   0.135   0.110   4.792
 7383TIP3    H122113   0.067   0.077   4.734
 7383TIP3    H222114   0.154   0.198   4.760
 7384TIP3   OH222115   6.566   3.663   4.452
 7384TIP3    H122116   6.645   3.716   4.464
 7384TIP3    H222117   6.530   3.693   4.369
 7385TIP3   OH222118   5.722   3.119   4.525
 7385TIP3    H122119   5.736   3.055   4.595
 7385TIP3    H222120   5.740   3.204   4.567
 7386TIP3   OH222121   5.608   6.333   2.999
 7386TIP3    H122122   5.597   6.255   3.053
 7386TIP3    H222123   5.666   6.389   3.050
 7387TIP3   OH222124   3.630   0.949   4.938
 7387TIP3    H122125   3.555   0.962   4.996
 7387TIP3    H222126   3.619   0.861   4.903
 7388TIP3   OH222127   3.352   6.459   3.470
 7388TIP3    H122128   3.295   6.426   3.401
 7388TIP3    H222129   3.424   6.503   3.423
 7389TIP3   OH222130   5.176   6.398   0.914
 7389TIP3    H122131   5.156   6.318   0.867
 7389TIP3    H222132   5.105   6.458   0.893
 7390TIP3   OH222133   3.393   1.473   2.161
 7390TIP3    H122134   3.384   1.383   2.192
 7390TIP3    H222135   3.316   1.518   2.197
 7391TIP3   OH222136   3.597   5.066   0.780
 7391TIP3    H122137   3.609   4.972   0.793
 7391TIP3    H222138   3.634   5.106   0.858
 7392TIP3   OH222139   6.343   1.848   2.024
 7392TIP3    H122140   6.392   1.911   2.077
 7392TIP3    H222141   6.330   1.893   1.940
 7393TIP3   OH222142   5.396   4.959   0.514
 7393TIP3    H122143   5.463   4.912   0.464
 7393TIP3    H222144   5.446   5.012   0.577
 7394TIP3   OH222145   4.926   3.200   5.400
 7394TIP3    H122146   4.963   3.184   5.314
 7394TIP3    H222147   4.963   3.284   5.427
 7395TIP3   OH222148   5.849   0.126   4.549
 7395TIP3    H122149   5.839   0.190   4.478
 7395TIP3    H222150   5.937   0.142   4.583
 7396TIP3   OH222151   2.125   6.444   3.168
 7396TIP3    H122152   2.118   6.446   3.072
 7396TIP3    H222153   2.035   6.434   3.198
 7397TIP3   OH222154   2.900   2.919   1.647
 7397TIP3    H122155   2.894   3.001   1.598
 7397TIP3    H222156   2.838   2.929   1.719
 7398TIP3   OH222157   5.140   4.497   2.518
 7398TIP3    H122158   5.149   4.411   2.559
 7398TIP3    H222159   5.047   4.518   2.527
 7399TIP3   OH222160   1.793   1.827   0.855
 7399TIP3    H122161   1.760   1.916   0.858
 7399TIP3    H222162   1.826   1.816   0.765
 7400TIP3   OH222163   4.370   5.769   5.462
 7400TIP3    H122164   4.319   5.688   5.457
 7400TIP3    H222165   4.308   5.834   5.496
 7401TIP3   OH222166   0.204   1.499   1.802
 7401TIP3    H122167   0.223   1.502   1.895
 7401TIP3    H222168   0.218   1.589   1.772
 7402TIP3   OH222169   2.739   3.259   0.555
 7402TIP3    H122170   2.803   3.329   0.542
 7402TIP3    H222171   2.666   3.283   0.498
 7403TIP3   OH222172   6.282   6.722   4.429
 7403TIP3    H122173   6.340   6.646   4.433
 7403TIP3    H222174   6.256   6.736   4.520
 7404TIP3   OH222175   6.206   3.340   5.741
 7404TIP3    H122176   6.179   3.350   5.832
 7404TIP3    H222177   6.231   3.248   5.733
 7405TIP3   OH222178   2.485   3.570   4.200
 7405TIP3    H122179   2.545   3.499   4.180
 7405TIP3    H222180   2.456   3.602   4.114
 7406TIP3   OH222181   3.289   1.877   2.189
 7406TIP3    H122182   3.326   1.837   2.110
 7406TIP3    H222183   3.265   1.966   2.162
 7407TIP3   OH222184   2.202   1.283   5.210
 7407TIP3    H122185   2.269   1.332   5.258
 7407TIP3    H222186   2.211   1.311   5.119
 7408TIP3   OH222187   2.435   0.037   4.344
 7408TIP3    H122188   2.381   0.004   4.416
 7408TIP3    H222189   2.457   0.126   4.370
 7409TIP3   OH222190   4.257   3.692   4.836
 7409TIP3    H122191   4.347   3.699   4.805
 7409TIP3    H222192   4.259   3.727   4.925
 7410TIP3   OH222193   2.347   6.633   2.911
 7410TIP3    H122194   2.304   6.551   2.935
 7410TIP3    H222195   2.359   6.628   2.816
 7411TIP3   OH222196   5.372   1.656   2.590
 7411TIP3    H122197   5.314   1.580   2.587
 7411TIP3    H222198   5.453   1.625   2.550
 7412TIP3   OH222199   1.390   3.870   4.706
 7412TIP3    H122200   1.381   3.914   4.621
 7412TIP3    H222201   1.440   3.790   4.687
 7413TIP3   OH222202   4.124   3.903   1.764
 7413TIP3    H122203   4.030   3.913   1.746
 7413TIP3    H222204   4.141   3.967   1.833
 7414TIP3   OH222205   0.740   1.372   2.640
 7414TIP3    H122206   0.774   1.394   2.726
 7414TIP3    H222207   0.754   1.450   2.587
 7415TIP3   OH222208   5.960   3.390   2.433
 7415TIP3    H122209   6.000   3.466   2.390
 7415TIP3    H222210   6.015   3.316   2.408
 7416TIP3   OH222211   3.674   1.142   0.303
 7416TIP3    H122212   3.733   1.089   0.248
 7416TIP3    H222213   3.724   1.222   0.321
 7417TIP3   OH222214   0.495   5.593   5.440
 7417TIP3    H122215   0.499   5.530   5.512
 7417TIP3    H222216   0.511   5.678   5.481
 7418TIP3   OH222217   4.795   0.457   0.386
 7418TIP3    H122218   4.768   0.397   0.316
 7418TIP3    H222219   4.716   0.508   0.404
 7419TIP3   OH222220   1.407   5.195   4.699
 7419TIP3    H122221   1.319   5.188   4.737
 7419TIP3    H222222   1.466   5.169   4.769
 7420TIP3   OH222223   4.883   5.587   0.857
 7420TIP3    H122224   4.915   5.516   0.913
 7420TIP3    H222225   4.913   5.564   0.769
 7421TIP3   OH222226   2.566   0.834   0.224
 7421TIP3    H122227   2.581   0.913   0.173
 7421TIP3    H222228   2.489   0.793   0.185
 7422TIP3   OH222229   2.107   3.501   3.327
 7422TIP3    H122230   2.150   3.586   3.330
 7422TIP3    H222231   2.021   3.517   3.368
 7423TIP3   OH222232   1.069   5.495   5.343
 7423TIP3    H122233   1.024   5.504   5.258
 7423TIP3    H222234   1.039   5.411   5.377
 7424TIP3   OH222235   6.242   6.513   1.785
 7424TIP3    H122236   6.168   6.541   1.731
 7424TIP3    H222237   6.296   6.460   1.727
 7425TIP3   OH222238   2.815   5.897   4.982
 7425TIP3    H122239   2.808   5.942   4.898
 7425TIP3    H222240   2.780   5.810   4.966
 7426TIP3   OH222241   4.000   6.705   0.425
 7426TIP3    H122242   3.965   6.774   0.481
 7426TIP3    H222243   4.095   6.705   0.443
 7427TIP3   OH222244   2.174   4.352   4.069
 7427TIP3    H122245   2.128   4.415   4.125
 7427TIP3    H222246   2.153   4.267   4.107
 7428TIP3   OH222247   7.130   3.760   4.997
 7428TIP3    H122248   7.112   3.764   4.903
 7428TIP3    H222249   7.074   3.828   5.034
 7429TIP3   OH222250   5.872   1.088   2.919
 7429TIP3    H122251   5.925   1.032   2.976
 7429TIP3    H222252   5.833   1.027   2.856
 7430TIP3   OH222253   5.691   1.737   4.059
 7430TIP3    H122254   5.652   1.650   4.064
 7430TIP3    H222255   5.632   1.792   4.111
 7431TIP3   OH222256   0.044   2.784   4.565
 7431TIP3    H122257   0.124   2.746   4.601
 7431TIP3    H222258  -0.010   2.805   4.641
 7432TIP3   OH222259   6.952   5.770   3.392
 7432TIP3    H122260   6.878   5.720   3.358
 7432TIP3    H222261   6.928   5.861   3.378
 7433TIP3   OH222262   3.678   4.754   0.494
 7433TIP3    H122263   3.711   4.695   0.426
 7433TIP3    H222264   3.587   4.770   0.469
 7434TIP3   OH222265   4.527   2.991   1.229
 7434TIP3    H122266   4.528   2.910   1.281
 7434TIP3    H222267   4.601   2.981   1.169
 7435TIP3   OH222268   3.291   6.047   5.312
 7435TIP3    H122269   3.267   6.134   5.279
 7435TIP3    H222270   3.254   6.044   5.400
 7436TIP3   OH222271   5.682   4.064   4.277
 7436TIP3    H122272   5.751   4.029   4.333
 7436TIP3    H222273   5.728   4.110   4.207
 7437TIP3   OH222274   4.340   6.613   4.923
 7437TIP3    H122275   4.299   6.545   4.976
 7437TIP3    H222276   4.268   6.673   4.901
 7438TIP3   OH222277   2.842   2.605   1.901
 7438TIP3    H122278   2.875   2.538   1.961
 7438TIP3    H222279   2.807   2.673   1.958
 7439TIP3   OH222280   3.595   2.440   3.852
 7439TIP3    H122281   3.659   2.426   3.921
 7439TIP3    H222282   3.552   2.522   3.876
 7440TIP3   OH222283   3.856   3.687   4.238
 7440TIP3    H122284   3.850   3.597   4.269
 7440TIP3    H222285   3.807   3.688   4.155
 7441TIP3   OH222286   3.295   0.410   0.373
 7441TIP3    H122287   3.362   0.357   0.332
 7441TIP3    H222288   3.317   0.500   0.349
 7442TIP3   OH222289   6.342   1.707   4.251
 7442TIP3    H122290   6.318   1.617   4.230
 7442TIP3    H222291   6.291   1.761   4.191
 7443TIP3   OH222292   7.094   6.675   5.568
 7443TIP3    H122293   7.150   6.610   5.527
 7443TIP3    H222294   7.073   6.736   5.497
 7444TIP3   OH222295   5.534   6.569   0.855
 7444TIP3    H122296   5.618   6.592   0.814
 7444TIP3    H222297   5.546   6.478   0.882
 7445TIP3   OH222298   0.154   4.837   3.290
 7445TIP3    H122299   0.183   4.927   3.279
 7445TIP3    H222300   0.109   4.837   3.375
 7446TIP3   OH222301   5.647   0.774   0.792
 7446TIP3    H122302   5.632   0.682   0.812
 7446TIP3    H222303   5.651   0.777   0.696
 7447TIP3   OH222304   5.938   0.976   4.806
 7447TIP3    H122305   6.002   0.941   4.868
 7447TIP3    H222306   5.853   0.957   4.846
 7448TIP3   OH222307   6.519   6.149   4.847
 7448TIP3    H122308   6.483   6.227   4.806
 7448TIP3    H222309   6.611   6.169   4.861
 7449TIP3   OH222310   6.703   4.613   3.322
 7449TIP3    H122311   6.619   4.659   3.322
 7449TIP3    H222312   6.698   4.554   3.397
 7450TIP3   OH222313   7.072   5.052   4.470
 7450TIP3    H122314   7.017   4.995   4.415
 7450TIP3    H222315   7.099   5.122   4.411
 7451TIP3   OH222316   2.542   0.025   5.149
 7451TIP3    H122317   2.624   0.074   5.158
 7451TIP3    H222318   2.493   0.073   5.082
 7452TIP3   OH222319   6.787   1.707   1.327
 7452TIP3    H122320   6.871   1.734   1.290
 7452TIP3    H222321   6.788   1.743   1.416
 7453TIP3   OH222322   2.561   3.583   3.287
 7453TIP3    H122323   2.656   3.573   3.297
 7453TIP3    H222324   2.545   3.676   3.302
 7454TIP3   OH222325   4.802   2.083   1.019
 7454TIP3    H122326   4.810   2.064   1.112
 7454TIP3    H222327   4.736   2.152   1.014
 7455TIP3   OH222328   6.057   6.392   1.293
 7455TIP3    H122329   6.003   6.470   1.277
 7455TIP3    H222330   6.043   6.337   1.216
 7456TIP3   OH222331   2.717   3.241   1.725
 7456TIP3    H122332   2.683   3.326   1.696
 7456TIP3    H222333   2.695   3.238   1.818
 7457TIP3   OH222334   3.838   6.030   1.511
 7457TIP3    H122335   3.812   5.993   1.595
 7457TIP3    H222336   3.771   6.097   1.493
 7458TIP3   OH222337   1.211   4.259   2.696
 7458TIP3    H122338   1.239   4.187   2.640
 7458TIP3    H222339   1.115   4.252   2.697
 7459TIP3   OH222340   0.117   2.327   3.116
 7459TIP3    H122341   0.107   2.369   3.031
 7459TIP3    H222342   0.211   2.331   3.133
 7460TIP3   OH222343   5.180   2.836   4.536
 7460TIP3    H122344   5.085   2.828   4.534
 7460TIP3    H222345   5.212   2.750   4.509
 7461TIP3   OH222346   1.663   2.854   2.131
 7461TIP3    H122347   1.656   2.814   2.218
 7461TIP3    H222348   1.622   2.940   2.141
 7462TIP3   OH222349   4.292   4.913   4.260
 7462TIP3    H122350   4.300   4.978   4.331
 7462TIP3    H222351   4.228   4.951   4.200
 7463TIP3   OH222352   4.680   2.556   4.995
 7463TIP3    H122353   4.628   2.587   5.069
 7463TIP3    H222354   4.752   2.618   4.988
 7464TIP3   OH222355   0.294   4.125   3.579
 7464TIP3    H122356   0.320   4.163   3.495
 7464TIP3    H222357   0.372   4.136   3.635
 7465TIP3   OH222358   5.999   6.183   5.341
 7465TIP3    H122359   6.011   6.205   5.433
 7465TIP3    H222360   5.957   6.260   5.303
 7466TIP3   OH222361   5.751   2.557   2.933
 7466TIP3    H122362   5.809   2.483   2.918
 7466TIP3    H222363   5.809   2.629   2.959
 7467TIP3   OH222364   0.119   1.999   2.496
 7467TIP3    H122365   0.097   2.092   2.497
 7467TIP3    H222366   0.038   1.955   2.522
 7468TIP3   OH222367   4.019   1.039   0.586
 7468TIP3    H122368   3.926   1.022   0.600
 7468TIP3    H222369   4.062   1.007   0.665
 7469TIP3   OH222370   6.562   1.863   3.956
 7469TIP3    H122371   6.555   1.946   3.909
 7469TIP3    H222372   6.513   1.801   3.902
 7470TIP3   OH222373   0.223   3.546   1.948
 7470TIP3    H122374   0.303   3.586   1.914
 7470TIP3    H222375   0.242   3.528   2.040
 7471TIP3   OH222376   1.859   4.220   1.567
 7471TIP3    H122377   1.789   4.265   1.615
 7471TIP3    H222378   1.814   4.175   1.496
 7472TIP3   OH222379   0.038   3.711   5.250
 7472TIP3    H122380   0.068   3.620   5.243
 7472TIP3    H222381  -0.006   3.728   5.167
 7473TIP3   OH222382   2.244   3.562   3.610
 7473TIP3    H122383   2.157   3.523   3.599
 7473TIP3    H222384   2.303   3.488   3.622
 7474TIP3   OH222385   0.111   0.181   0.319
 7474TIP3    H122386   0.184   0.120   0.316
 7474TIP3    H222387   0.152   0.267   0.329
 7475TIP3   OH222388   0.917   4.998   5.705
 7475TIP3    H122389   0.824   5.007   5.685
 7475TIP3    H222390   0.937   4.906   5.691
 7476TIP3   OH222391   6.926   4.022   3.332
 7476TIP3    H122392   6.957   4.065   3.252
 7476TIP3    H222393   6.931   4.091   3.399
 7477TIP3   OH222394   1.066   4.034   3.361
 7477TIP3    H122395   1.146   3.986   3.339
 7477TIP3    H222396   0.997   3.990   3.311
 7478TIP3   OH222397   7.017   6.313   5.622
 7478TIP3    H122398   7.091   6.370   5.601
 7478TIP3    H222399   6.940   6.367   5.610
 7479TIP3   OH222400   3.639   3.247   1.594
 7479TIP3    H122401   3.626   3.256   1.689
 7479TIP3    H222402   3.718   3.194   1.586
 7480TIP3   OH222403   1.060   3.788   2.741
 7480TIP3    H122404   1.061   3.871   2.789
 7480TIP3    H222405   0.995   3.734   2.787
 7481TIP3   OH222406   5.528   3.619   3.413
 7481TIP3    H122407   5.573   3.562   3.350
 7481TIP3    H222408   5.438   3.587   3.414
 7482TIP3   OH222409   0.284   2.785   2.842
 7482TIP3    H122410   0.201   2.818   2.806
 7482TIP3    H222411   0.339   2.770   2.765
 7483TIP3   OH222412   2.400   0.100   5.698
 7483TIP3    H122413   2.358   0.014   5.695
 7483TIP3    H222414   2.394   0.125   5.791
 7484TIP3   OH222415   2.645   6.615   3.299
 7484TIP3    H122416   2.617   6.558   3.227
 7484TIP3    H222417   2.740   6.621   3.289
 7485TIP3   OH222418   0.239   3.836   3.596
 7485TIP3    H122419   0.258   3.928   3.614
 7485TIP3    H222420   0.320   3.801   3.560
 7486TIP3   OH222421   1.225   1.112   2.680
 7486TIP3    H122422   1.180   1.195   2.664
 7486TIP3    H222423   1.290   1.133   2.747
 7487TIP3   OH222424   0.450   1.610   1.572
 7487TIP3    H122425   0.367   1.646   1.603
 7487TIP3    H222426   0.494   1.579   1.651
 7488TIP3   OH222427   7.155   5.262   3.317
 7488TIP3    H122428   7.222   5.286   3.253
 7488TIP3    H222429   7.142   5.168   3.304
 7489TIP3   OH222430   1.832   6.639   2.041
 7489TIP3    H122431   1.777   6.637   1.963
 7489TIP3    H222432   1.770   6.644   2.114
 7490TIP3   OH222433   0.878   3.612   5.151
 7490TIP3    H122434   0.869   3.707   5.141
 7490TIP3    H222435   0.870   3.597   5.246
 7491TIP3   OH222436   1.174   6.755   2.099
 7491TIP3    H122437   1.189   6.754   2.005
 7491TIP3    H222438   1.081   6.738   2.109
 7492TIP3   OH222439   3.365   2.517   5.212
 7492TIP3    H122440   3.332   2.451   5.151
 7492TIP3    H222441   3.286   2.558   5.247
 7493TIP3   OH222442   3.548   3.168   2.789
 7493TIP3    H122443   3.461   3.140   2.820
 7493TIP3    H222444   3.603   3.091   2.799
 7494TIP3   OH222445   0.735   1.137   2.980
 7494TIP3    H122446   0.697   1.224   2.964
 7494TIP3    H222447   0.665   1.087   3.022
 7495TIP3   OH222448   1.665   1.807   4.488
 7495TIP3    H122449   1.760   1.797   4.496
 7495TIP3    H222450   1.639   1.846   4.572
 7496TIP3   OH222451   6.152   6.464   2.345
 7496TIP3    H122452   6.178   6.377   2.374
 7496TIP3    H222453   6.220   6.522   2.378
 7497TIP3   OH222454   4.376   3.660   1.392
 7497TIP3    H122455   4.447   3.604   1.359
 7497TIP3    H222456   4.367   3.729   1.326
 7498TIP3   OH222457   6.197   0.530   0.584
 7498TIP3    H122458   6.104   0.547   0.568
 7498TIP3    H222459   6.241   0.613   0.567
 7499TIP3   OH222460   2.589   6.324   5.602
 7499TIP3    H122461   2.574   6.416   5.624
 7499TIP3    H222462   2.680   6.321   5.574
 7500TIP3   OH222463   3.726   3.180   4.201
 7500TIP3    H122464   3.819   3.159   4.198
 7500TIP3    H222465   3.720   3.253   4.263
 7501TIP3   OH222466   3.501   3.142   4.464
 7501TIP3    H122467   3.593   3.116   4.476
 7501TIP3    H222468   3.474   3.098   4.384
 7502TIP3   OH222469   6.352   0.684   4.554
 7502TIP3    H122470   6.337   0.739   4.630
 7502TIP3    H222471   6.331   0.739   4.479
 7503TIP3   OH222472   5.598   3.866   1.614
 7503TIP3    H122473   5.558   3.780   1.627
 7503TIP3    H222474   5.654   3.878   1.690
 7504TIP3   OH222475   7.199   1.988   3.435
 7504TIP3    H122476   7.189   1.906   3.484
 7504TIP3    H222477   7.174   1.965   3.346
 7505TIP3   OH222478   4.378   3.340   5.536
 7505TIP3    H122479   4.450   3.350   5.598
 7505TIP3    H222480   4.408   3.385   5.457
 7506TIP3   OH222481   1.182   0.471   4.017
 7506TIP3    H122482   1.177   0.540   3.951
 7506TIP3    H222483   1.091   0.451   4.038
 7507TIP3   OH222484   4.577   1.493   1.338
 7507TIP3    H122485   4.668   1.497   1.365
 7507TIP3    H222486   4.537   1.571   1.378
 7508TIP3   OH222487   6.772   4.173   1.050
 7508TIP3    H122488   6.814   4.253   1.019
 7508TIP3    H222489   6.678   4.190   1.038
 7509TIP3   OH222490   2.596   0.227   0.743
 7509TIP3    H122491   2.528   0.214   0.810
 7509TIP3    H222492   2.670   0.263   0.791
 7510TIP3   OH222493   6.484   2.553   3.735
 7510TIP3    H122494   6.530   2.503   3.667
 7510TIP3    H222495   6.436   2.487   3.785
 7511TIP3   OH222496   0.865   1.396   3.456
 7511TIP3    H122497   0.778   1.386   3.494
 7511TIP3    H222498   0.852   1.385   3.362
 7512TIP3   OH222499   3.883   5.313   4.621
 7512TIP3    H122500   3.872   5.373   4.695
 7512TIP3    H222501   3.937   5.241   4.656
 7513TIP3   OH222502   5.762   4.383   3.484
 7513TIP3    H122503   5.742   4.476   3.496
 7513TIP3    H222504   5.708   4.356   3.409
 7514TIP3   OH222505   6.289   6.488   5.645
 7514TIP3    H122506   6.258   6.546   5.575
 7514TIP3    H222507   6.282   6.540   5.724
 7515TIP3   OH222508   6.432   1.277   2.348
 7515TIP3    H122509   6.399   1.195   2.385
 7515TIP3    H222510   6.503   1.251   2.290
 7516TIP3   OH222511   5.834   5.761   4.544
 7516TIP3    H122512   5.779   5.828   4.584
 7516TIP3    H222513   5.856   5.797   4.457
 7517TIP3   OH222514   2.419   3.361   2.247
 7517TIP3    H122515   2.415   3.452   2.221
 7517TIP3    H222516   2.447   3.314   2.169
 7518TIP3   OH222517   2.088   2.359   5.868
 7518TIP3    H122518   2.012   2.418   5.862
 7518TIP3    H222519   2.083   2.306   5.789
 7519TIP3   OH222520   4.671  -0.006   5.584
 7519TIP3    H122521   4.577  -0.025   5.579
 7519TIP3    H222522   4.676   0.090   5.581
 7520TIP3   OH222523   1.481   2.216   2.058
 7520TIP3    H122524   1.478   2.144   2.121
 7520TIP3    H222525   1.573   2.223   2.033
 7521TIP3   OH222526   3.063   5.790   1.332
 7521TIP3    H122527   3.027   5.747   1.410
 7521TIP3    H222528   3.037   5.881   1.341
 7522TIP3   OH222529   4.320   6.309   4.642
 7522TIP3    H122530   4.226   6.317   4.658
 7522TIP3    H222531   4.360   6.374   4.699
 7523TIP3   OH222532   1.700   0.130   4.117
 7523TIP3    H122533   1.734   0.087   4.195
 7523TIP3    H222534   1.763   0.107   4.048
 7524TIP3   OH222535   2.066   6.726   3.303
 7524TIP3    H122536   1.991   6.674   3.275
 7524TIP3    H222537   2.113   6.744   3.221
 7525TIP3   OH222538   3.335   0.739   3.610
 7525TIP3    H122539   3.396   0.728   3.536
 7525TIP3    H222540   3.371   0.812   3.660
 7526TIP3   OH222541   0.672   2.613   1.548
 7526TIP3    H122542   0.642   2.608   1.457
 7526TIP3    H222543   0.674   2.521   1.577
 7527TIP3   OH222544   4.302   2.413   3.553
 7527TIP3    H122545   4.294   2.440   3.462
 7527TIP3    H222546   4.225   2.450   3.597
 7528TIP3   OH222547   6.316   3.940   1.963
 7528TIP3    H122548   6.228   3.940   1.924
 7528TIP3    H222549   6.303   3.902   2.050
 7529TIP3   OH222550   1.095   3.943   5.089
 7529TIP3    H122551   1.009   3.944   5.047
 7529TIP3    H222552   1.078   3.916   5.179
 7530TIP3   OH222553   0.557   5.827   5.282
 7530TIP3    H122554   0.523   5.827   5.371
 7530TIP3    H222555   0.604   5.910   5.274
 7531TIP3   OH222556   4.898   6.110   4.948
 7531TIP3    H122557   4.818   6.143   4.908
 7531TIP3    H222558   4.869   6.059   5.023
 7532TIP3   OH222559   4.432   2.787   3.615
 7532TIP3    H122560   4.348   2.754   3.647
 7532TIP3    H222561   4.414   2.815   3.525
 7533TIP3   OH222562   6.261   0.492   3.218
 7533TIP3    H122563   6.214   0.530   3.293
 7533TIP3    H222564   6.239   0.550   3.145
 7534TIP3   OH222565   2.868   0.116   1.209
 7534TIP3    H122566   2.957   0.138   1.182
 7534TIP3    H222567   2.865   0.139   1.302
 7535TIP3   OH222568   1.067   2.699   4.181
 7535TIP3    H122569   1.139   2.652   4.140
 7535TIP3    H222570   1.096   2.790   4.184
 7536TIP3   OH222571   2.929   4.886   5.873
 7536TIP3    H122572   3.000   4.841   5.920
 7536TIP3    H222573   2.872   4.815   5.843
 7537TIP3   OH222574   5.583   0.100   3.039
 7537TIP3    H122575   5.571   0.054   2.956
 7537TIP3    H222576   5.608   0.189   3.013
 7538TIP3   OH222577   2.415   2.559   3.602
 7538TIP3    H122578   2.381   2.566   3.513
 7538TIP3    H222579   2.409   2.649   3.637
 7539TIP3   OH222580   3.466   6.358   4.172
 7539TIP3    H122581   3.454   6.297   4.245
 7539TIP3    H222582   3.481   6.301   4.096
 7540TIP3   OH222583   4.721   2.493   1.956
 7540TIP3    H122584   4.651   2.434   1.931
 7540TIP3    H222585   4.802   2.449   1.928
 7541TIP3   OH222586   7.134   0.737   0.515
 7541TIP3    H122587   7.200   0.801   0.488
 7541TIP3    H222588   7.136   0.670   0.446
 7542TIP3   OH222589   1.752   2.643   4.909
 7542TIP3    H122590   1.739   2.567   4.966
 7542TIP3    H222591   1.730   2.718   4.964
 7543TIP3   OH222592   1.599   4.266   2.302
 7543TIP3    H122593   1.602   4.175   2.274
 7543TIP3    H222594   1.509   4.293   2.288
 7544TIP3   OH222595   4.161   1.915   1.979
 7544TIP3    H122596   4.156   1.855   2.054
 7544TIP3    H222597   4.222   1.873   1.919
 7545TIP3   OH222598   2.965   2.243   1.655
 7545TIP3    H122599   3.050   2.203   1.677
 7545TIP3    H222600   2.959   2.233   1.560
 7546TIP3   OH222601   7.222   0.596   2.120
 7546TIP3    H122602   7.209   0.567   2.210
 7546TIP3    H222603   7.134   0.613   2.087
 7547TIP3   OH222604   2.741   0.283   1.414
 7547TIP3    H122605   2.785   0.364   1.390
 7547TIP3    H222606   2.716   0.295   1.506
 7548TIP3   OH222607   2.744   0.831   5.354
 7548TIP3    H122608   2.660   0.861   5.318
 7548TIP3    H222609   2.810   0.878   5.303
 7549TIP3   OH222610   6.253   0.912   2.194
 7549TIP3    H122611   6.271   1.006   2.193
 7549TIP3    H222612   6.335   0.872   2.163
 7550TIP3   OH222613   4.046   2.080   4.231
 7550TIP3    H122614   3.971   2.020   4.221
 7550TIP3    H222615   4.117   2.024   4.262
 7551TIP3   OH222616   5.282   6.679   0.848
 7551TIP3    H122617   5.244   6.597   0.881
 7551TIP3    H222618   5.373   6.656   0.828
 7552TIP3   OH222619   4.014   1.699   2.973
 7552TIP3    H122620   3.983   1.779   2.929
 7552TIP3    H222621   4.100   1.682   2.934
 7553TIP3   OH222622   6.864   2.474   2.322
 7553TIP3    H122623   6.836   2.383   2.323
 7553TIP3    H222624   6.920   2.481   2.245
 7554TIP3   OH222625   0.193   2.889   0.715
 7554TIP3    H122626   0.282   2.877   0.682
 7554TIP3    H222627   0.149   2.807   0.692
 7555TIP3   OH222628   2.760   5.803   1.125
 7555TIP3    H122629   2.780   5.718   1.164
 7555TIP3    H222630   2.842   5.830   1.083
 7556TIP3   OH222631   6.459   0.118   2.393
 7556TIP3    H122632   6.495   0.206   2.384
 7556TIP3    H222633   6.454   0.085   2.304
 7557TIP3   OH222634   2.035   2.023   5.873
 7557TIP3    H122635   2.087   2.071   5.807
 7557TIP3    H222636   2.093   1.955   5.904
 7558TIP3   OH222637   0.469   2.737   0.655
 7558TIP3    H122638   0.531   2.665   0.661
 7558TIP3    H222639   0.522   2.812   0.630
 7559TIP3   OH222640   3.964   4.366   0.311
 7559TIP3    H122641   4.033   4.418   0.352
 7559TIP3    H222642   3.883   4.402   0.347
 7560TIP3   OH222643   5.312   2.134   5.536
 7560TIP3    H122644   5.342   2.045   5.522
 7560TIP3    H222645   5.289   2.137   5.629
 7561TIP3   OH222646   3.115   1.152   4.820
 7561TIP3    H122647   3.057   1.099   4.765
 7561TIP3    H222648   3.098   1.121   4.909
 7562TIP3   OH222649   2.762   3.277   5.032
 7562TIP3    H122650   2.786   3.186   5.013
 7562TIP3    H222651   2.721   3.308   4.951
 7563TIP3   OH222652   1.853   2.477   5.301
 7563TIP3    H122653   1.944   2.480   5.330
 7563TIP3    H222654   1.859   2.468   5.206
 7564TIP3   OH222655   0.922   2.872   5.329
 7564TIP3    H122656   0.929   2.816   5.252
 7564TIP3    H222657   0.894   2.813   5.399
 7565TIP3   OH222658   4.303   1.856   3.589
 7565TIP3    H122659   4.221   1.905   3.598
 7565TIP3    H222660   4.360   1.914   3.539
 7566TIP3   OH222661   2.757   4.656   0.606
 7566TIP3    H122662   2.710   4.594   0.663
 7566TIP3    H222663   2.757   4.614   0.520
 7567TIP3   OH222664   0.114   5.089   3.465
 7567TIP3    H122665   0.111   5.038   3.546
 7567TIP3    H222666   0.024   5.084   3.431
 7568TIP3   OH222667   0.346   0.135   2.524
 7568TIP3    H122668   0.309   0.222   2.538
 7568TIP3    H222669   0.284   0.092   2.466
 7569TIP3   OH222670   6.887   6.606   0.713
 7569TIP3    H122671   6.962   6.554   0.742
 7569TIP3    H222672   6.926   6.679   0.665
 7570TIP3   OH222673   6.652   0.364   4.851
 7570TIP3    H122674   6.601   0.372   4.770
 7570TIP3    H222675   6.586   0.362   4.920
 7571TIP3   OH222676   1.395   0.122   0.558
 7571TIP3    H122677   1.339   0.070   0.617
 7571TIP3    H222678   1.459   0.161   0.617
 7572TIP3   OH222679   1.170   5.481   1.393
 7572TIP3    H122680   1.089   5.439   1.365
 7572TIP3    H222681   1.167   5.478   1.488
 7573TIP3   OH222682   5.203   3.144   3.725
 7573TIP3    H122683   5.188   3.157   3.819
 7573TIP3    H222684   5.292   3.177   3.711
 7574TIP3   OH222685   3.056   6.479   1.036
 7574TIP3    H122686   3.091   6.431   0.961
 7574TIP3    H222687   3.119   6.550   1.050
 7575TIP3   OH222688   1.566   6.673   4.657
 7575TIP3    H122689   1.485   6.676   4.707
 7575TIP3    H222690   1.585   6.765   4.636
 7576TIP3   OH222691   6.352   0.542   0.311
 7576TIP3    H122692   6.284   0.480   0.338
 7576TIP3    H222693   6.401   0.497   0.243
 7577TIP3   OH222694   5.825   5.734   2.497
 7577TIP3    H122695   5.802   5.660   2.553
 7577TIP3    H222696   5.899   5.702   2.445
 7578TIP3   OH222697   5.628   2.783   0.431
 7578TIP3    H122698   5.570   2.729   0.485
 7578TIP3    H222699   5.708   2.793   0.483
 7579TIP3   OH222700   0.070   4.363   4.149
 7579TIP3    H122701   0.064   4.436   4.211
 7579TIP3    H222702   0.148   4.315   4.177
 7580TIP3   OH222703   6.732   2.575   3.145
 7580TIP3    H122704   6.718   2.632   3.220
 7580TIP3    H222705   6.661   2.511   3.149
 7581TIP3   OH222706   0.255   4.969   2.008
 7581TIP3    H122707   0.266   4.959   2.103
 7581TIP3    H222708   0.294   4.890   1.971
 7582TIP3   OH222709   4.013   0.740   3.468
 7582TIP3    H122710   3.939   0.742   3.407
 7582TIP3    H222711   4.016   0.829   3.505
 7583TIP3   OH222712   6.414   3.723   2.889
 7583TIP3    H122713   6.500   3.736   2.848
 7583TIP3    H222714   6.378   3.811   2.899
 7584TIP3   OH222715   4.482   6.395   2.829
 7584TIP3    H122716   4.426   6.441   2.892
 7584TIP3    H222717   4.550   6.459   2.806
 7585TIP3   OH222718   3.925   0.025   3.135
 7585TIP3    H122719   3.860  -0.013   3.194
 7585TIP3    H222720   3.910   0.120   3.141
 7586TIP3   OH222721   6.045   2.280   1.330
 7586TIP3    H122722   6.070   2.351   1.390
 7586TIP3    H222723   6.123   2.263   1.278
 7587TIP3   OH222724   3.007   5.850   1.668
 7587TIP3    H122725   2.998   5.799   1.749
 7587TIP3    H222726   3.101   5.868   1.662
 7588TIP3   OH222727   4.070   4.296   2.649
 7588TIP3    H122728   4.005   4.306   2.718
 7588TIP3    H222729   4.084   4.201   2.643
 7589TIP3   OH222730   0.625   5.829   0.235
 7589TIP3    H122731   0.609   5.922   0.251
 7589TIP3    H222732   0.712   5.813   0.272
 7590TIP3   OH222733   1.308   6.121   4.926
 7590TIP3    H122734   1.318   6.142   4.833
 7590TIP3    H222735   1.233   6.063   4.929
 7591TIP3   OH222736   1.527   0.584   3.724
 7591TIP3    H122737   1.490   0.642   3.791
 7591TIP3    H222738   1.622   0.592   3.736
 7592TIP3   OH222739   5.880   1.754   2.914
 7592TIP3    H122740   5.854   1.667   2.885
 7592TIP3    H222741   5.974   1.759   2.894
 7593TIP3   OH222742   3.073   1.072   4.050
 7593TIP3    H122743   3.147   1.119   4.011
 7593TIP3    H222744   3.029   1.137   4.105
 7594TIP3   OH222745   0.113   5.834   2.085
 7594TIP3    H122746   0.190   5.840   2.028
 7594TIP3    H222747   0.122   5.748   2.127
 7595TIP3   OH222748   4.470   4.265   2.230
 7595TIP3    H122749   4.495   4.356   2.219
 7595TIP3    H222750   4.468   4.229   2.141
 7596TIP3   OH222751   4.185   3.224   0.692
 7596TIP3    H122752   4.152   3.293   0.635
 7596TIP3    H222753   4.227   3.162   0.633
 7597TIP3   OH222754   4.637   5.560   1.259
 7597TIP3    H122755   4.595   5.516   1.333
 7597TIP3    H222756   4.586   5.532   1.183
 7598TIP3   OH222757   6.262  -0.015   2.610
 7598TIP3    H122758   6.211  -0.033   2.532
 7598TIP3    H222759   6.345   0.020   2.577
 7599TIP3   OH222760   2.156   6.202   5.031
 7599TIP3    H122761   2.213   6.211   4.955
 7599TIP3    H222762   2.101   6.126   5.011
 7600TIP3   OH222763   2.895   5.551   4.015
 7600TIP3    H122764   2.965   5.548   4.081
 7600TIP3    H222765   2.852   5.635   4.029
 7601TIP3   OH222766   2.173   5.703   3.090
 7601TIP3    H122767   2.122   5.713   3.010
 7601TIP3    H222768   2.256   5.666   3.062
 7602TIP3   OH222769   6.635   2.573   2.535
 7602TIP3    H122770   6.581   2.557   2.613
 7602TIP3    H222771   6.694   2.642   2.562
 7603TIP3   OH222772   5.791   2.803   5.465
 7603TIP3    H122773   5.709   2.795   5.515
 7603TIP3    H222774   5.777   2.878   5.407
 7604TIP3   OH222775   0.231   0.130   3.428
 7604TIP3    H122776   0.320   0.128   3.392
 7604TIP3    H222777   0.209   0.038   3.440
 7605TIP3   OH222778   7.016   3.926   2.464
 7605TIP3    H122779   7.067   3.895   2.389
 7605TIP3    H222780   7.037   3.864   2.534
 7606TIP3   OH222781   1.163   4.391   0.918
 7606TIP3    H122782   1.123   4.304   0.915
 7606TIP3    H222783   1.095   4.448   0.953
 7607TIP3   OH222784   6.223   3.725   4.648
 7607TIP3    H122785   6.248   3.809   4.687
 7607TIP3    H222786   6.264   3.659   4.704
 7608TIP3   OH222787   3.074   2.698   0.206
 7608TIP3    H122788   3.049   2.669   0.118
 7608TIP3    H222789   3.147   2.640   0.230
 7609TIP3   OH222790   2.231   2.181   3.121
 7609TIP3    H122791   2.289   2.126   3.068
 7609TIP3    H222792   2.227   2.264   3.073
 7610TIP3   OH222793   6.777   4.512   0.793
 7610TIP3    H122794   6.697   4.549   0.756
 7610TIP3    H222795   6.788   4.556   0.877
 7611TIP3   OH222796   1.013   0.208   2.687
 7611TIP3    H122797   0.924   0.180   2.705
 7611TIP3    H222798   1.064   0.177   2.761
 7612TIP3   OH222799   3.729   6.552   3.447
 7612TIP3    H122800   3.658   6.568   3.386
 7612TIP3    H222801   3.799   6.512   3.394
 7613TIP3   OH222802   4.576  -0.016   0.383
 7613TIP3    H122803   4.481  -0.027   0.387
 7613TIP3    H222804   4.602  -0.067   0.306
 7614TIP3   OH222805   2.925   6.528   4.874
 7614TIP3    H122806   2.934   6.516   4.780
 7614TIP3    H222807   2.856   6.468   4.900
 7615TIP3   OH222808   6.105   6.671   3.798
 7615TIP3    H122809   6.080   6.655   3.889
 7615TIP3    H222810   6.200   6.685   3.801
 7616TIP3   OH222811   3.654   0.103   0.952
 7616TIP3    H122812   3.734   0.095   1.004
 7616TIP3    H222813   3.664   0.036   0.884
 7617TIP3   OH222814   5.610   2.992   3.108
 7617TIP3    H122815   5.681   2.978   3.171
 7617TIP3    H222816   5.574   3.077   3.132
 7618TIP3   OH222817   1.031   1.431   2.325
 7618TIP3    H122818   1.042   1.502   2.389
 7618TIP3    H222819   0.975   1.368   2.370
 7619TIP3   OH222820   2.974   4.591   3.420
 7619TIP3    H122821   3.011   4.622   3.502
 7619TIP3    H222822   2.879   4.591   3.436
 7620TIP3   OH222823   3.599   3.330   5.571
 7620TIP3    H122824   3.569   3.420   5.557
 7620TIP3    H222825   3.678   3.323   5.518
 7621TIP3   OH222826   6.778   3.553   3.178
 7621TIP3    H122827   6.735   3.638   3.174
 7621TIP3    H222828   6.868   3.572   3.204
 7622TIP3   OH222829   6.309   2.398   0.781
 7622TIP3    H122830   6.322   2.304   0.799
 7622TIP3    H222831   6.214   2.409   0.779
 7623TIP3   OH222832   1.521   2.998   4.276
 7623TIP3    H122833   1.519   2.975   4.369
 7623TIP3    H222834   1.442   2.956   4.240
 7624TIP3   OH222835   1.505   1.178   4.000
 7624TIP3    H122836   1.567   1.136   4.060
 7624TIP3    H222837   1.419   1.148   4.029
 7625TIP3   OH222838   2.104   0.312   1.765
 7625TIP3    H122839   2.056   0.351   1.692
 7625TIP3    H222840   2.120   0.222   1.737
 7626TIP3   OH222841   0.305   5.496   1.289
 7626TIP3    H122842   0.378   5.558   1.284
 7626TIP3    H222843   0.317   5.439   1.213
 7627TIP3   OH222844   1.414   6.756   5.698
 7627TIP3    H122845   1.339   6.763   5.757
 7627TIP3    H222846   1.419   6.842   5.655
 7628TIP3   OH222847   3.984   0.884   2.598
 7628TIP3    H122848   3.974   0.966   2.550
 7628TIP3    H222849   3.898   0.867   2.634
 7629TIP3   OH222850   3.801   6.347   3.829
 7629TIP3    H122851   3.889   6.321   3.856
 7629TIP3    H222852   3.780   6.422   3.886
 7630TIP3   OH222853   2.064   2.050   5.304
 7630TIP3    H122854   1.989   2.099   5.339
 7630TIP3    H222855   2.122   2.039   5.380
 7631TIP3   OH222856   1.408   3.258   5.042
 7631TIP3    H122857   1.395   3.331   5.103
 7631TIP3    H222858   1.485   3.283   4.991
 7632TIP3   OH222859   4.895   1.920   4.805
 7632TIP3    H122860   4.817   1.964   4.770
 7632TIP3    H222861   4.900   1.948   4.896
 7633TIP3   OH222862   5.956   5.164   1.166
 7633TIP3    H122863   5.961   5.260   1.166
 7633TIP3    H222864   5.885   5.144   1.228
 7634TIP3   OH222865   2.591   3.474   1.002
 7634TIP3    H122866   2.615   3.412   1.071
 7634TIP3    H222867   2.670   3.480   0.947
 7635TIP3   OH222868   2.557   5.646   0.268
 7635TIP3    H122869   2.489   5.578   0.272
 7635TIP3    H222870   2.598   5.644   0.355
 7636TIP3   OH222871   0.029   0.714   5.053
 7636TIP3    H122872   0.034   0.664   4.971
 7636TIP3    H222873  -0.058   0.753   5.052
 7637TIP3   OH222874   0.126   6.392   4.468
 7637TIP3    H122875   0.039   6.422   4.442
 7637TIP3    H222876   0.117   6.297   4.476
 7638TIP3   OH222877   2.746   5.941   5.755
 7638TIP3    H122878   2.654   5.912   5.756
 7638TIP3    H222879   2.761   5.969   5.665
 7639TIP3   OH222880   3.804   2.527   2.317
 7639TIP3    H122881   3.712   2.508   2.301
 7639TIP3    H222882   3.847   2.442   2.310
 7640TIP3   OH222883   0.861   6.220   4.344
 7640TIP3    H122884   0.866   6.300   4.292
 7640TIP3    H222885   0.770   6.193   4.340
 7641TIP3   OH222886   2.752   1.642   0.697
 7641TIP3    H122887   2.713   1.558   0.676
 7641TIP3    H222888   2.681   1.694   0.733
 7642TIP3   OH222889   6.053   1.441   0.210
 7642TIP3    H122890   5.978   1.407   0.161
 7642TIP3    H222891   6.018   1.517   0.256
 7643TIP3   OH222892   0.886   4.131   2.006
 7643TIP3    H122893   0.832   4.144   2.084
 7643TIP3    H222894   0.900   4.036   2.003
 7644TIP3   OH222895   0.415   5.507   1.966
 7644TIP3    H122896   0.467   5.470   2.038
 7644TIP3    H222897   0.349   5.441   1.947
 7645TIP3   OH222898   1.333   6.158   4.149
 7645TIP3    H122899   1.272   6.175   4.078
 7645TIP3    H222900   1.419   6.178   4.112
 7646TIP3   OH222901   7.193   6.212   1.548
 7646TIP3    H122902   7.153   6.135   1.588
 7646TIP3    H222903   7.171   6.206   1.455
 7647TIP3   OH222904   4.660   5.382   4.905
 7647TIP3    H122905   4.709   5.410   4.827
 7647TIP3    H222906   4.652   5.287   4.897
 7648TIP3   OH222907   4.064   4.123   1.425
 7648TIP3    H122908   4.126   4.054   1.448
 7648TIP3    H222909   4.114   4.184   1.372
 7649TIP3   OH222910   6.385   0.087   3.576
 7649TIP3    H122911   6.388  -0.007   3.557
 7649TIP3    H222912   6.405   0.129   3.492
 7650TIP3   OH222913   6.120   3.943   1.146
 7650TIP3    H122914   6.116   3.904   1.234
 7650TIP3    H222915   6.033   3.982   1.134
 7651TIP3   OH222916   5.083   5.933   2.508
 7651TIP3    H122917   5.007   5.934   2.450
 7651TIP3    H222918   5.156   5.962   2.453
 7652TIP3   OH222919   3.842   3.700   5.618
 7652TIP3    H122920   3.783   3.767   5.654
 7652TIP3    H222921   3.882   3.659   5.694
 7653TIP3   OH222922   0.157   2.172   4.538
 7653TIP3    H122923   0.209   2.203   4.464
 7653TIP3    H222924   0.219   2.125   4.594
 7654TIP3   OH222925   0.586   3.034   4.231
 7654TIP3    H122926   0.521   3.082   4.180
 7654TIP3    H222927   0.599   2.953   4.181
 7655TIP3   OH222928   7.009   1.356   1.970
 7655TIP3    H122929   7.049   1.431   2.015
 7655TIP3    H222930   7.046   1.280   2.014
 7656TIP3   OH222931   5.336   6.123   2.136
 7656TIP3    H122932   5.423   6.137   2.174
 7656TIP3    H222933   5.284   6.197   2.167
 7657TIP3   OH222934   6.069   5.297   5.335
 7657TIP3    H122935   6.087   5.227   5.273
 7657TIP3    H222936   6.012   5.358   5.287
 7658TIP3   OH222937   5.786   6.574  -0.007
 7658TIP3    H122938   5.853   6.618   0.046
 7658TIP3    H222939   5.748   6.644  -0.060
 7659TIP3   OH222940   4.068   0.568   4.410
 7659TIP3    H122941   4.051   0.575   4.504
 7659TIP3    H222942   4.097   0.655   4.384
 7660TIP3   OH222943   5.968   0.461   2.244
 7660TIP3    H122944   5.897   0.406   2.211
 7660TIP3    H222945   5.965   0.539   2.188
 7661TIP3   OH222946   4.407   5.733   2.172
 7661TIP3    H122947   4.458   5.785   2.110
 7661TIP3    H222948   4.472   5.686   2.224
 7662TIP3   OH222949   6.748   6.683   1.436
 7662TIP3    H122950   6.665   6.695   1.482
 7662TIP3    H222951   6.728   6.702   1.344
 7663TIP3   OH222952   3.042   5.589   0.353
 7663TIP3    H122953   3.064   5.673   0.392
 7663TIP3    H222954   3.080   5.524   0.412
 7664TIP3   OH222955   3.023   2.153   0.192
 7664TIP3    H122956   3.025   2.189   0.281
 7664TIP3    H222957   2.952   2.089   0.194
 7665TIP3   OH222958   5.490   0.935   1.172
 7665TIP3    H122959   5.481   0.970   1.084
 7665TIP3    H222960   5.570   0.976   1.207
 7666TIP3   OH222961   0.913   5.401   0.761
 7666TIP3    H122962   0.991   5.454   0.779
 7666TIP3    H222963   0.895   5.356   0.844
 7667TIP3   OH222964   4.038   3.265   2.725
 7667TIP3    H122965   4.019   3.346   2.676
 7667TIP3    H222966   3.990   3.275   2.807
 7668TIP3   OH222967   4.304   3.426   3.519
 7668TIP3    H122968   4.322   3.458   3.608
 7668TIP3    H222969   4.389   3.398   3.486
 7669TIP3   OH222970   4.087   1.560   5.494
 7669TIP3    H122971   4.077   1.610   5.413
 7669TIP3    H222972   4.170   1.593   5.531
 7670TIP3   OH222973   6.380   1.382   1.973
 7670TIP3    H122974   6.320   1.438   1.923
 7670TIP3    H222975   6.429   1.442   2.029
 7671TIP3   OH222976   4.430   3.877   1.208
 7671TIP3    H122977   4.499   3.943   1.203
 7671TIP3    H222978   4.457   3.809   1.146
 7672TIP3   OH222979   0.800   2.192   0.040
 7672TIP3    H122980   0.794   2.270   0.095
 7672TIP3    H222981   0.818   2.226  -0.047
 7673TIP3   OH222982   3.434   4.244   2.219
 7673TIP3    H122983   3.526   4.222   2.203
 7673TIP3    H222984   3.436   4.333   2.252
 7674TIP3   OH222985   0.627   6.663   0.318
 7674TIP3    H122986   0.638   6.669   0.413
 7674TIP3    H222987   0.584   6.579   0.303
 7675TIP3   OH222988   5.760   2.514   2.273
 7675TIP3    H122989   5.706   2.593   2.265
 7675TIP3    H222990   5.759   2.494   2.367
 7676TIP3   OH222991   6.850   1.400   2.245
 7676TIP3    H122992   6.783   1.435   2.186
 7676TIP3    H222993   6.916   1.362   2.186
 7677TIP3   OH222994   2.929   1.812   4.847
 7677TIP3    H122995   2.885   1.889   4.882
 7677TIP3    H222996   2.882   1.738   4.887
 7678TIP3   OH222997   4.965   3.841   3.182
 7678TIP3    H122998   5.025   3.820   3.111
 7678TIP3    H222999   4.913   3.762   3.194
 7679TIP3   OH223000   6.696   1.974   2.033
 7679TIP3    H123001   6.670   1.970   1.941
 7679TIP3    H223002   6.636   2.037   2.073
 7680TIP3   OH223003   6.067   5.896   2.278
 7680TIP3    H123004   6.028   5.860   2.198
 7680TIP3    H223005   6.161   5.900   2.258
 7681TIP3   OH223006   0.640   3.730   3.223
 7681TIP3    H123007   0.638   3.816   3.266
 7681TIP3    H223008   0.591   3.673   3.283
 7682TIP3   OH223009   4.612   1.047   5.700
 7682TIP3    H123010   4.593   1.004   5.783
 7682TIP3    H223011   4.560   0.999   5.636
 7683TIP3   OH223012   0.353   4.797   5.766
 7683TIP3    H123013   0.274   4.819   5.717
 7683TIP3    H223014   0.407   4.876   5.760
 7684TIP3   OH223015   2.042   2.902   5.004
 7684TIP3    H123016   2.128   2.870   5.031
 7684TIP3    H223017   2.007   2.833   4.948
 7685TIP3   OH223018   0.444   3.467   2.922
 7685TIP3    H123019   0.476   3.519   2.849
 7685TIP3    H223020   0.358   3.435   2.894
 7686TIP3   OH223021   5.714   0.533   5.714
 7686TIP3    H123022   5.739   0.605   5.655
 7686TIP3    H223023   5.774   0.462   5.692
 7687TIP3   OH223024   5.519   5.405   0.105
 7687TIP3    H123025   5.505   5.311   0.098
 7687TIP3    H223026   5.470   5.442   0.032
 7688TIP3   OH223027   5.291   5.924   3.127
 7688TIP3    H123028   5.224   5.990   3.141
 7688TIP3    H223029   5.252   5.862   3.065
 7689TIP3   OH223030   1.125   4.353   0.225
 7689TIP3    H123031   1.059   4.345   0.293
 7689TIP3    H223032   1.199   4.302   0.258
 7690TIP3   OH223033   2.074   2.915   5.685
 7690TIP3    H123034   2.078   2.821   5.668
 7690TIP3    H223035   1.980   2.935   5.686
 7691TIP3   OH223036   0.911   4.100   0.353
 7691TIP3    H123037   0.900   4.127   0.262
 7691TIP3    H223038   0.854   4.158   0.403
 7692TIP3   OH223039   0.346   1.403   2.625
 7692TIP3    H123040   0.409   1.331   2.613
 7692TIP3    H223041   0.344   1.447   2.540
 7693TIP3   OH223042   0.777   4.420   2.046
 7693TIP3    H123043   0.851   4.481   2.052
 7693TIP3    H223044   0.813   4.343   2.001
 7694TIP3   OH223045   0.848   3.146   5.470
 7694TIP3    H123046   0.881   3.056   5.466
 7694TIP3    H223047   0.796   3.156   5.391
 7695TIP3   OH223048   1.065   1.250   3.859
 7695TIP3    H123049   1.013   1.232   3.781
 7695TIP3    H223050   1.138   1.188   3.854
 7696TIP3   OH223051   1.489   6.295   5.517
 7696TIP3    H123052   1.555   6.228   5.497
 7696TIP3    H223053   1.535   6.360   5.570
 7697TIP3   OH223054   4.438   3.722   4.455
 7697TIP3    H123055   4.450   3.731   4.360
 7697TIP3    H223056   4.527   3.717   4.489
 7698TIP3   OH223057   6.975   6.612   4.800
 7698TIP3    H123058   6.925   6.568   4.732
 7698TIP3    H223059   7.049   6.554   4.818
 7699TIP3   OH223060   3.364   0.558   3.188
 7699TIP3    H123061   3.407   0.611   3.121
 7699TIP3    H223062   3.293   0.514   3.141
 7700TIP3   OH223063   0.653   6.579   4.249
 7700TIP3    H123064   0.599   6.611   4.322
 7700TIP3    H223065   0.598   6.513   4.206
 7701TIP3   OH223066   0.747   0.191   0.058
 7701TIP3    H123067   0.785   0.171   0.144
 7701TIP3    H223068   0.770   0.115   0.004
 7702TIP3   OH223069   0.730   4.920   5.186
 7702TIP3    H123070   0.725   4.987   5.118
 7702TIP3    H223071   0.648   4.929   5.235
 7703TIP3   OH223072   2.688   6.145   0.937
 7703TIP3    H123073   2.716   6.205   1.006
 7703TIP3    H223074   2.745   6.165   0.863
 7704TIP3   OH223075   6.441   2.729   2.317
 7704TIP3    H123076   6.355   2.718   2.358
 7704TIP3    H223077   6.462   2.822   2.330
 7705TIP3   OH223078   6.185   2.435   4.341
 7705TIP3    H123079   6.266   2.396   4.374
 7705TIP3    H223080   6.182   2.522   4.380
 7706TIP3   OH223081   4.615   0.488   3.375
 7706TIP3    H123082   4.538   0.496   3.431
 7706TIP3    H223083   4.585   0.436   3.301
 7707TIP3   OH223084   3.155   1.491   5.046
 7707TIP3    H123085   3.220   1.553   5.013
 7707TIP3    H223086   3.143   1.516   5.138
 7708TIP3   OH223087   1.883   1.875   4.025
 7708TIP3    H123088   1.928   1.945   3.976
 7708TIP3    H223089   1.843   1.920   4.099
 7709TIP3   OH223090   1.702   6.457   4.192
 7709TIP3    H123091   1.670   6.469   4.282
 7709TIP3    H223092   1.686   6.542   4.150
 7710TIP3   OH223093   6.545   4.614   0.715
 7710TIP3    H123094   6.496   4.691   0.745
 7710TIP3    H223095   6.485   4.541   0.727
 7711TIP3   OH223096   1.994   5.219   1.988
 7711TIP3    H123097   1.984   5.140   1.935
 7711TIP3    H223098   2.089   5.235   1.988
 7712TIP3   OH223099   5.054   3.857   1.413
 7712TIP3    H123100   5.069   3.841   1.506
 7712TIP3    H223101   4.966   3.822   1.396
 7713TIP3   OH223102   4.161   1.818   1.132
 7713TIP3    H123103   4.208   1.840   1.213
 7713TIP3    H223104   4.169   1.723   1.125
 7714TIP3   OH223105   5.525   2.319   5.472
 7714TIP3    H123106   5.533   2.235   5.428
 7714TIP3    H223107   5.453   2.307   5.534
 7715TIP3   OH223108   0.909   2.443   4.867
 7715TIP3    H123109   0.900   2.538   4.860
 7715TIP3    H223110   0.948   2.416   4.784
 7716TIP3   OH223111   3.274   2.738   1.852
 7716TIP3    H123112   3.235   2.786   1.779
 7716TIP3    H223113   3.200   2.701   1.899
 7717TIP3   OH223114   3.748   1.155   5.092
 7717TIP3    H123115   3.664   1.160   5.137
 7717TIP3    H223116   3.735   1.090   5.024
 7718TIP3   OH223117   3.011   2.993   2.737
 7718TIP3    H123118   3.067   2.933   2.786
 7718TIP3    H223119   3.019   3.077   2.782
 7719TIP3   OH223120   2.874   2.720   1.209
 7719TIP3    H123121   2.868   2.807   1.169
 7719TIP3    H223122   2.910   2.737   1.297
 7720TIP3   OH223123   4.387   3.519   3.778
 7720TIP3    H123124   4.469   3.536   3.825
 7720TIP3    H223125   4.328   3.589   3.807
 7721TIP3   OH223126   2.930   1.217   4.232
 7721TIP3    H123127   2.879   1.289   4.269
 7721TIP3    H223128   2.938   1.153   4.304
 7722TIP3   OH223129   2.490   1.638   3.735
 7722TIP3    H123130   2.523   1.577   3.800
 7722TIP3    H223131   2.496   1.591   3.652
 7723TIP3   OH223132   3.640   5.755   3.892
 7723TIP3    H123133   3.592   5.733   3.973
 7723TIP3    H223134   3.714   5.695   3.892
 7724TIP3   OH223135   1.627   4.000   3.688
 7724TIP3    H123136   1.699   4.027   3.632
 7724TIP3    H223137   1.595   3.919   3.649
 7725TIP3   OH223138   3.925   2.014   3.855
 7725TIP3    H123139   3.835   2.034   3.831
 7725TIP3    H223140   3.945   1.933   3.808
 7726TIP3   OH223141   4.247   1.807   0.705
 7726TIP3    H123142   4.185   1.758   0.651
 7726TIP3    H223143   4.317   1.745   0.726
 7727TIP3   OH223144   2.233   6.658   4.574
 7727TIP3    H123145   2.205   6.718   4.505
 7727TIP3    H223146   2.302   6.706   4.620
 7728TIP3   OH223147   7.081   1.852   5.385
 7728TIP3    H123148   7.125   1.803   5.316
 7728TIP3    H223149   7.141   1.849   5.459
 7729TIP3   OH223150   2.294   4.104   4.671
 7729TIP3    H123151   2.284   4.161   4.747
 7729TIP3    H223152   2.209   4.061   4.662
 7730TIP3   OH223153   0.901   2.129   1.039
 7730TIP3    H123154   0.965   2.092   0.978
 7730TIP3    H223155   0.849   2.188   0.986
 7731TIP3   OH223156   6.516   5.034   2.239
 7731TIP3    H123157   6.519   5.125   2.210
 7731TIP3    H223158   6.426   5.021   2.269
 7732TIP3   OH223159   6.535   0.198   0.356
 7732TIP3    H123160   6.486   0.186   0.437
 7732TIP3    H223161   6.625   0.175   0.379
 7733TIP3   OH223162   6.820   4.524   5.759
 7733TIP3    H123163   6.876   4.509   5.682
 7733TIP3    H223164   6.882   4.538   5.831
 7734TIP3   OH223165   4.740   1.487   2.489
 7734TIP3    H123166   4.810   1.552   2.501
 7734TIP3    H223167   4.681   1.502   2.562
 7735TIP3   OH223168   5.529   2.548   1.388
 7735TIP3    H123169   5.505   2.576   1.476
 7735TIP3    H223170   5.452   2.565   1.335
 7736TIP3   OH223171   7.042   4.427   3.188
 7736TIP3    H123172   7.086   4.366   3.247
 7736TIP3    H223173   7.100   4.503   3.185
 7737TIP3   OH223174   1.380   3.654   0.127
 7737TIP3    H123175   1.343   3.740   0.148
 7737TIP3    H223176   1.307   3.593   0.136
 7738TIP3   OH223177   5.578   2.846   1.538
 7738TIP3    H123178   5.626   2.867   1.618
 7738TIP3    H223179   5.521   2.773   1.563
 7739TIP3   OH223180   0.527   5.229   4.576
 7739TIP3    H123181   0.519   5.140   4.609
 7739TIP3    H223182   0.484   5.227   4.490
 7740TIP3   OH223183   0.732   4.745   2.762
 7740TIP3    H123184   0.727   4.817   2.824
 7740TIP3    H223185   0.809   4.764   2.709
 7741TIP3   OH223186   4.137   5.781   1.754
 7741TIP3    H123187   4.119   5.845   1.685
 7741TIP3    H223188   4.051   5.764   1.793
 7742TIP3   OH223189   1.378   2.972   4.985
 7742TIP3    H123190   1.393   3.067   4.994
 7742TIP3    H223191   1.466   2.935   4.983
 7743TIP3   OH223192   4.643   3.817   2.613
 7743TIP3    H123193   4.567   3.825   2.556
 7743TIP3    H223194   4.711   3.868   2.568
 7744TIP3   OH223195   0.545   3.916   2.558
 7744TIP3    H123196   0.601   3.857   2.507
 7744TIP3    H223197   0.456   3.895   2.530
 7745TIP3   OH223198   5.038   0.418   4.920
 7745TIP3    H123199   5.127   0.385   4.925
 7745TIP3    H223200   5.040   0.499   4.972
 7746TIP3   OH223201   4.331   0.183   5.412
 7746TIP3    H123202   4.375   0.104   5.444
 7746TIP3    H223203   4.272   0.208   5.484
 7747TIP3   OH223204   5.117   1.593   3.335
 7747TIP3    H123205   5.089   1.581   3.244
 7747TIP3    H223206   5.135   1.505   3.367
 7748TIP3   OH223207   1.267   4.074   1.821
 7748TIP3    H123208   1.271   4.077   1.916
 7748TIP3    H223209   1.341   4.019   1.795
 7749TIP3   OH223210   5.452   1.109   3.057
 7749TIP3    H123211   5.427   1.068   2.975
 7749TIP3    H223212   5.548   1.105   3.059
 7750TIP3   OH223213   3.813   3.925   2.237
 7750TIP3    H123214   3.869   3.936   2.314
 7750TIP3    H223215   3.814   3.831   2.220
 7751TIP3   OH223216   3.970   5.534   4.807
 7751TIP3    H123217   4.015   5.471   4.864
 7751TIP3    H223218   4.036   5.601   4.788
 7752TIP3   OH223219   3.952   4.609   4.256
 7752TIP3    H123220   3.866   4.584   4.224
 7752TIP3    H223221   3.942   4.701   4.282
 7753TIP3   OH223222   3.829   5.200   1.856
 7753TIP3    H123223   3.896   5.135   1.836
 7753TIP3    H223224   3.827   5.257   1.780
 7754TIP3   OH223225   5.481   3.825   2.650
 7754TIP3    H123226   5.563   3.811   2.697
 7754TIP3    H223227   5.498   3.794   2.561
 7755TIP3   OH223228   3.853   1.010   1.516
 7755TIP3    H123229   3.782   0.980   1.572
 7755TIP3    H223230   3.885   1.090   1.558
 7756TIP3   OH223231   2.660   4.996   2.787
 7756TIP3    H123232   2.744   5.018   2.745
 7756TIP3    H223233   2.664   4.902   2.800
 7757TIP3   OH223234   0.456   0.504   5.541
 7757TIP3    H123235   0.368   0.473   5.520
 7757TIP3    H223236   0.497   0.429   5.584
 7758TIP3   OH223237   5.598   5.963   2.858
 7758TIP3    H123238   5.550   5.950   2.940
 7758TIP3    H223239   5.530   5.987   2.794
 7759TIP3   OH223240   6.920   0.572   3.046
 7759TIP3    H123241   6.909   0.478   3.059
 7759TIP3    H223242   6.942   0.607   3.132
 7760TIP3   OH223243   6.637   2.547   2.054
 7760TIP3    H123244   6.559   2.587   2.016
 7760TIP3    H223245   6.608   2.516   2.140
 7761TIP3   OH223246   3.099   3.108   4.387
 7761TIP3    H123247   3.165   3.053   4.428
 7761TIP3    H223248   3.116   3.099   4.293
 7762TIP3   OH223249   3.962   1.056   5.528
 7762TIP3    H123250   3.987   1.114   5.456
 7762TIP3    H223251   3.933   1.114   5.597
 7763TIP3   OH223252   4.673   6.353   3.279
 7763TIP3    H123253   4.704   6.265   3.300
 7763TIP3    H223254   4.722   6.379   3.202
 7764TIP3   OH223255   5.159   0.503   2.077
 7764TIP3    H123256   5.128   0.432   2.021
 7764TIP3    H223257   5.226   0.547   2.025
 7765TIP3   OH223258   3.003   2.140   0.778
 7765TIP3    H123259   2.945   2.080   0.823
 7765TIP3    H223260   2.981   2.226   0.813
 7766TIP3   OH223261   5.537   0.249   4.719
 7766TIP3    H123262   5.602   0.255   4.649
 7766TIP3    H223263   5.588   0.255   4.800
 7767TIP3   OH223264   5.068   2.430   5.714
 7767TIP3    H123265   5.096   2.354   5.765
 7767TIP3    H223266   5.058   2.499   5.778
 7768TIP3   OH223267   3.153   3.025   5.637
 7768TIP3    H123268   3.213   3.089   5.599
 7768TIP3    H223269   3.085   3.078   5.679
 7769TIP3   OH223270   3.541   5.123   0.526
 7769TIP3    H123271   3.566   5.094   0.614
 7769TIP3    H223272   3.535   5.219   0.534
 7770TIP3   OH223273   0.893   4.632   3.105
 7770TIP3    H123274   0.886   4.719   3.144
 7770TIP3    H223275   0.804   4.610   3.079
 7771TIP3   OH223276   1.810   5.552   2.227
 7771TIP3    H123277   1.865   5.476   2.209
 7771TIP3    H223278   1.763   5.567   2.145
 7772TIP3   OH223279   4.596   4.740   5.224
 7772TIP3    H123280   4.622   4.779   5.141
 7772TIP3    H223281   4.501   4.727   5.215
 7773TIP3   OH223282   0.060   3.200   2.003
 7773TIP3    H123283   0.036   3.289   2.030
 7773TIP3    H223284   0.009   3.185   1.924
 7774TIP3   OH223285   1.203   1.295   5.522
 7774TIP3    H123286   1.266   1.325   5.457
 7774TIP3    H223287   1.137   1.247   5.471
 7775TIP3   OH223288   4.465   0.160   4.087
 7775TIP3    H123289   4.374   0.130   4.089
 7775TIP3    H223290   4.515   0.084   4.058
 7776TIP3   OH223291   2.386   0.511   2.928
 7776TIP3    H123292   2.401   0.578   2.995
 7776TIP3    H223293   2.467   0.509   2.877
 7777TIP3   OH223294   0.438   6.245   3.915
 7777TIP3    H123295   0.441   6.340   3.903
 7777TIP3    H223296   0.424   6.210   3.827
 7778TIP3   OH223297   0.731   2.412   0.197
 7778TIP3    H123298   0.672   2.376   0.263
 7778TIP3    H223299   0.674   2.456   0.135
 7779TIP3   OH223300   5.204   0.688   4.122
 7779TIP3    H123301   5.236   0.613   4.070
 7779TIP3    H223302   5.266   0.758   4.103
 7780TIP3   OH223303   1.152   1.845   1.970
 7780TIP3    H123304   1.114   1.824   2.055
 7780TIP3    H223305   1.239   1.805   1.972
 7781TIP3   OH223306   1.912   0.757   2.668
 7781TIP3    H123307   1.993   0.807   2.662
 7781TIP3    H223308   1.893   0.753   2.762
 7782TIP3   OH223309   0.405   5.243   3.848
 7782TIP3    H123310   0.392   5.207   3.760
 7782TIP3    H223311   0.438   5.169   3.899
 7783TIP3   OH223312   3.524   3.255   3.318
 7783TIP3    H123313   3.451   3.199   3.341
 7783TIP3    H223314   3.595   3.195   3.294
 7784TIP3   OH223315   6.011   6.035   3.610
 7784TIP3    H123316   5.978   5.993   3.690
 7784TIP3    H223317   5.979   6.125   3.615
 7785TIP3   OH223318   3.862   6.805   4.332
 7785TIP3    H123319   3.796   6.875   4.332
 7785TIP3    H223320   3.852   6.763   4.246
 7786TIP3   OH223321   4.204   6.745   5.598
 7786TIP3    H123322   4.216   6.655   5.571
 7786TIP3    H223323   4.237   6.748   5.688
 7787TIP3   OH223324   1.324   4.713   2.216
 7787TIP3    H123325   1.345   4.806   2.225
 7787TIP3    H223326   1.353   4.689   2.128
 7788TIP3   OH223327   7.084   6.586   3.724
 7788TIP3    H123328   6.997   6.547   3.714
 7788TIP3    H223329   7.140   6.514   3.751
 7789TIP3   OH223330   5.688   4.669   1.452
 7789TIP3    H123331   5.775   4.691   1.416
 7789TIP3    H223332   5.661   4.591   1.403
 7790TIP3   OH223333   5.335   2.208   4.147
 7790TIP3    H123334   5.419   2.246   4.122
 7790TIP3    H223335   5.318   2.243   4.235
 7791TIP3   OH223336   1.121   0.033   4.619
 7791TIP3    H123337   1.052   0.090   4.655
 7791TIP3    H223338   1.139   0.070   4.533
 7792TIP3   OH223339   6.684   4.211   0.606
 7792TIP3    H123340   6.682   4.168   0.520
 7792TIP3    H223341   6.591   4.225   0.627
 7793TIP3   OH223342   4.915   0.616   2.581
 7793TIP3    H123343   4.877   0.668   2.652
 7793TIP3    H223344   4.876   0.651   2.501
 7794TIP3   OH223345   6.367   0.568   5.832
 7794TIP3    H123346   6.448   0.613   5.810
 7794TIP3    H223347   6.344   0.601   5.919
 7795TIP3   OH223348   1.205   1.669   5.621
 7795TIP3    H123349   1.168   1.714   5.696
 7795TIP3    H223350   1.201   1.733   5.550
 7796TIP3   OH223351   0.694   0.360   2.019
 7796TIP3    H123352   0.650   0.440   1.989
 7796TIP3    H223353   0.630   0.317   2.075
 7797TIP3   OH223354   4.693   6.422   3.964
 7797TIP3    H123355   4.610   6.468   3.962
 7797TIP3    H223356   4.690   6.369   4.043
 7798TIP3   OH223357   6.730   3.183   0.151
 7798TIP3    H123358   6.649   3.199   0.199
 7798TIP3    H223359   6.796   3.236   0.196
 7799TIP3   OH223360   0.541   4.386   5.186
 7799TIP3    H123361   0.520   4.292   5.180
 7799TIP3    H223362   0.548   4.402   5.280
 7800TIP3   OH223363   0.676   0.278   2.694
 7800TIP3    H123364   0.755   0.302   2.742
 7800TIP3    H223365   0.604   0.301   2.753
 7801TIP3   OH223366   6.540   2.163   5.013
 7801TIP3    H123367   6.559   2.257   5.019
 7801TIP3    H223368   6.458   2.158   4.964
 7802TIP3   OH223369   1.744   4.488   2.896
 7802TIP3    H123370   1.753   4.572   2.942
 7802TIP3    H223371   1.717   4.512   2.807
 7803TIP3   OH223372   6.785   0.688   1.586
 7803TIP3    H123373   6.769   0.724   1.499
 7803TIP3    H223374   6.792   0.593   1.572
 7804TIP3   OH223375   5.633   4.303   0.817
 7804TIP3    H123376   5.660   4.218   0.781
 7804TIP3    H223377   5.568   4.335   0.756
 7805TIP3   OH223378   4.120   3.947   3.599
 7805TIP3    H123379   4.122   4.035   3.561
 7805TIP3    H223380   4.199   3.905   3.565
 7806TIP3   OH223381   2.406   5.931   3.214
 7806TIP3    H123382   2.465   5.954   3.143
 7806TIP3    H223383   2.398   5.836   3.209
 7807TIP3   OH223384   0.413   0.966   2.710
 7807TIP3    H123385   0.387   0.924   2.628
 7807TIP3    H223386   0.348   0.935   2.773
 7808TIP3   OH223387   6.139   5.390   0.384
 7808TIP3    H123388   6.177   5.336   0.315
 7808TIP3    H223389   6.066   5.338   0.418
 7809TIP3   OH223390   1.705   3.455   3.757
 7809TIP3    H123391   1.735   3.370   3.789
 7809TIP3    H223392   1.611   3.455   3.772
 7810TIP3   OH223393   4.818   0.909   0.090
 7810TIP3    H123394   4.789   0.875   0.175
 7810TIP3    H223395   4.801   0.839   0.028
 7811TIP3   OH223396   1.947   5.794   3.245
 7811TIP3    H123397   2.006   5.733   3.200
 7811TIP3    H223398   1.996   5.824   3.321
 7812TIP3   OH223399   5.278   2.667   5.887
 7812TIP3    H123400   5.196   2.629   5.917
 7812TIP3    H223401   5.281   2.753   5.929
 7813TIP3   OH223402   3.302   2.266   3.960
 7813TIP3    H123403   3.210   2.252   3.936
 7813TIP3    H223404   3.352   2.229   3.887
 7814TIP3   OH223405   6.014   1.833   5.334
 7814TIP3    H123406   5.949   1.763   5.346
 7814TIP3    H223407   6.049   1.818   5.247
 7815TIP3   OH223408   2.838   3.074   5.899
 7815TIP3    H123409   2.813   3.018   5.826
 7815TIP3    H223410   2.909   3.128   5.865
 7816TIP3   OH223411   6.394   4.088   5.684
 7816TIP3    H123412   6.299   4.098   5.679
 7816TIP3    H223413   6.427   4.178   5.686
 7817TIP3   OH223414   3.155   5.714   2.827
 7817TIP3    H123415   3.169   5.635   2.880
 7817TIP3    H223416   3.242   5.752   2.817
 7818TIP3   OH223417   0.343   5.068   1.288
 7818TIP3    H123418   0.293   5.123   1.348
 7818TIP3    H223419   0.408   5.024   1.343
 7819TIP3   OH223420   1.569   3.623   0.716
 7819TIP3    H123421   1.596   3.663   0.633
 7819TIP3    H223422   1.524   3.693   0.763
 7820TIP3   OH223423   4.541   4.246   4.859
 7820TIP3    H123424   4.590   4.329   4.859
 7820TIP3    H223425   4.609   4.179   4.854
 7821TIP3   OH223426   6.512   1.713   2.890
 7821TIP3    H123427   6.600   1.682   2.869
 7821TIP3    H223428   6.466   1.713   2.806
 7822TIP3   OH223429   1.015   3.575   5.531
 7822TIP3    H123430   1.038   3.554   5.621
 7822TIP3    H223431   1.066   3.514   5.478
 7823TIP3   OH223432   4.495   3.730   0.627
 7823TIP3    H123433   4.519   3.658   0.569
 7823TIP3    H223434   4.483   3.805   0.568
 7824TIP3   OH223435   5.831   5.593   5.791
 7824TIP3    H123436   5.778   5.551   5.859
 7824TIP3    H223437   5.852   5.679   5.826
 7825TIP3   OH223438   6.549   2.058   5.697
 7825TIP3    H123439   6.635   2.042   5.658
 7825TIP3    H223440   6.487   2.047   5.624
 7826TIP3   OH223441   2.013   0.579   5.480
 7826TIP3    H123442   2.099   0.541   5.467
 7826TIP3    H223443   2.030   0.665   5.518
 7827TIP3   OH223444   0.471   4.140   0.472
 7827TIP3    H123445   0.444   4.148   0.563
 7827TIP3    H223446   0.390   4.124   0.423
 7828TIP3   OH223447   0.736   4.239   2.326
 7828TIP3    H123448   0.675   4.269   2.393
 7828TIP3    H223449   0.682   4.230   2.247
 7829TIP3   OH223450   0.725   0.707   2.404
 7829TIP3    H123451   0.696   0.678   2.490
 7829TIP3    H223452   0.817   0.681   2.399
 7830TIP3   OH223453   2.116   3.703   0.775
 7830TIP3    H123454   2.142   3.616   0.746
 7830TIP3    H223455   2.034   3.690   0.823
 7831TIP3   OH223456   6.716   6.610   1.167
 7831TIP3    H123457   6.766   6.535   1.136
 7831TIP3    H223458   6.745   6.683   1.113
 7832TIP3   OH223459   6.578   6.187   4.489
 7832TIP3    H123460   6.514   6.230   4.546
 7832TIP3    H223461   6.589   6.248   4.416
 7833TIP3   OH223462   1.090   0.612   3.500
 7833TIP3    H123463   1.181   0.626   3.474
 7833TIP3    H223464   1.041   0.622   3.418
 7834TIP3   OH223465   0.864   1.447   3.138
 7834TIP3    H123466   0.942   1.492   3.104
 7834TIP3    H223467   0.809   1.518   3.170
 7835TIP3   OH223468   3.715   3.265   5.840
 7835TIP3    H123469   3.663   3.291   5.764
 7835TIP3    H223470   3.806   3.281   5.815
 7836TIP3   OH223471   4.672   3.493   0.060
 7836TIP3    H123472   4.615   3.555   0.013
 7836TIP3    H223473   4.620   3.413   0.066
 7837TIP3   OH223474   4.895   3.639   1.555
 7837TIP3    H123475   4.847   3.557   1.568
 7837TIP3    H223476   4.963   3.638   1.623
 7838TIP3   OH223477   6.602   0.359   4.269
 7838TIP3    H123478   6.540   0.364   4.196
 7838TIP3    H223479   6.619   0.265   4.279
 7839TIP3   OH223480   3.063   5.213   4.789
 7839TIP3    H123481   3.046   5.307   4.785
 7839TIP3    H223482   3.015   5.176   4.716
 7840TIP3   OH223483   6.051   2.887   1.294
 7840TIP3    H123484   5.969   2.874   1.343
 7840TIP3    H223485   6.065   2.804   1.249
 7841TIP3   OH223486   3.550   0.307   4.788
 7841TIP3    H123487   3.527   0.230   4.839
 7841TIP3    H223488   3.467   0.336   4.750
 7842TIP3   OH223489   0.074   5.140   5.791
 7842TIP3    H123490   0.068   5.232   5.766
 7842TIP3    H223491  -0.009   5.101   5.762
 7843TIP3   OH223492   0.770   5.590   5.347
 7843TIP3    H123493   0.681   5.615   5.373
 7843TIP3    H223494   0.803   5.666   5.299
 7844TIP3   OH223495   4.140   2.714   4.513
 7844TIP3    H123496   4.118   2.694   4.604
 7844TIP3    H223497   4.220   2.664   4.496
 7845TIP3   OH223498   5.132   3.795   2.561
 7845TIP3    H123499   5.058   3.734   2.553
 7845TIP3    H223500   5.100   3.862   2.621
 7846TIP3   OH223501   2.052   4.724   2.895
 7846TIP3    H123502   2.053   4.799   2.955
 7846TIP3    H223503   1.978   4.741   2.837
 7847TIP3   OH223504   3.411   2.080   5.108
 7847TIP3    H123505   3.357   2.014   5.150
 7847TIP3    H223506   3.356   2.158   5.104
 7848TIP3   OH223507   4.403   3.085   5.584
 7848TIP3    H123508   4.496   3.095   5.604
 7848TIP3    H223509   4.370   3.174   5.575
 7849TIP3   OH223510   4.402   4.990   0.734
 7849TIP3    H123511   4.473   4.995   0.670
 7849TIP3    H223512   4.344   4.922   0.700
 7850TIP3   OH223513   3.686   4.346   0.441
 7850TIP3    H123514   3.683   4.255   0.468
 7850TIP3    H223515   3.745   4.388   0.504
 7851TIP3   OH223516   5.175   5.629   0.403
 7851TIP3    H123517   5.256   5.579   0.414
 7851TIP3    H223518   5.139   5.597   0.320
 7852TIP3   OH223519   2.990   1.084   3.228
 7852TIP3    H123520   2.897   1.087   3.204
 7852TIP3    H223521   3.018   0.996   3.206
 7853TIP3   OH223522   6.495   4.210   1.963
 7853TIP3    H123523   6.404   4.209   1.933
 7853TIP3    H223524   6.544   4.168   1.892
 7854TIP3   OH223525   0.809   2.361   2.519
 7854TIP3    H123526   0.748   2.330   2.452
 7854TIP3    H223527   0.810   2.291   2.584
 7855TIP3   OH223528   5.771   6.157   3.960
 7855TIP3    H123529   5.835   6.113   3.905
 7855TIP3    H223530   5.700   6.094   3.970
 7856TIP3   OH223531   7.019   1.847   4.860
 7856TIP3    H123532   6.929   1.875   4.877
 7856TIP3    H223533   7.024   1.840   4.764
 7857TIP3   OH223534   0.594   6.149   4.391
 7857TIP3    H123535   0.505   6.157   4.425
 7857TIP3    H223536   0.598   6.061   4.354
 7858TIP3   OH223537   0.477   4.663   1.174
 7858TIP3    H123538   0.512   4.589   1.222
 7858TIP3    H223539   0.476   4.634   1.082
 7859TIP3   OH223540   4.101   3.431   5.625
 7859TIP3    H123541   4.094   3.524   5.608
 7859TIP3    H223542   4.188   3.407   5.594
 7860TIP3   OH223543   3.537   6.264   3.939
 7860TIP3    H123544   3.570   6.178   3.914
 7860TIP3    H223545   3.562   6.322   3.866
 7861TIP3   OH223546   7.093   2.488   2.846
 7861TIP3    H123547   7.143   2.563   2.813
 7861TIP3    H223548   7.007   2.524   2.867
 7862TIP3   OH223549   0.299   2.384   3.581
 7862TIP3    H123550   0.252   2.310   3.542
 7862TIP3    H223551   0.384   2.383   3.538
 7863TIP3   OH223552   1.901   5.402   2.919
 7863TIP3    H123553   1.940   5.397   3.006
 7863TIP3    H223554   1.889   5.495   2.903
 7864TIP3   OH223555   5.941   2.308   4.376
 7864TIP3    H123556   6.026   2.353   4.378
 7864TIP3    H223557   5.881   2.374   4.340
 7865TIP3   OH223558   5.996   3.737   4.999
 7865TIP3    H123559   5.968   3.805   5.060
 7865TIP3    H223560   5.976   3.772   4.912
 7866TIP3   OH223561   5.482   1.517   5.065
 7866TIP3    H123562   5.550   1.450   5.069
 7866TIP3    H223563   5.529   1.600   5.074
 7867TIP3   OH223564   3.582   1.511   3.380
 7867TIP3    H123565   3.527   1.437   3.408
 7867TIP3    H223566   3.646   1.473   3.320
 7868TIP3   OH223567   3.376   0.941   3.790
 7868TIP3    H123568   3.334   1.019   3.828
 7868TIP3    H223569   3.435   0.910   3.859
 7869TIP3   OH223570   2.022   0.290   4.299
 7869TIP3    H123571   1.952   0.349   4.329
 7869TIP3    H223572   2.061   0.335   4.224
 7870TIP3   OH223573   1.647   6.782   1.592
 7870TIP3    H123574   1.634   6.876   1.595
 7870TIP3    H223575   1.562   6.747   1.567
 7871TIP3   OH223576   1.298   0.869   4.123
 7871TIP3    H123577   1.270   0.959   4.141
 7871TIP3    H223578   1.295   0.825   4.208
 7872TIP3   OH223579   5.577   1.629   4.752
 7872TIP3    H123580   5.506   1.650   4.813
 7872TIP3    H223581   5.592   1.536   4.765
 7873TIP3   OH223582   3.295  -0.049   5.650
 7873TIP3    H123583   3.339  -0.023   5.731
 7873TIP3    H223584   3.256   0.032   5.617
 7874TIP3   OH223585   1.464   1.048   1.943
 7874TIP3    H123586   1.439   0.993   2.017
 7874TIP3    H223587   1.391   1.110   1.933
 7875TIP3   OH223588   0.287   4.075   3.954
 7875TIP3    H123589   0.362   4.095   3.899
 7875TIP3    H223590   0.225   4.030   3.896
 7876TIP3   OH223591   4.557   4.501   1.737
 7876TIP3    H123592   4.566   4.486   1.831
 7876TIP3    H223593   4.592   4.421   1.697
 7877TIP3   OH223594   6.617   5.488   0.057
 7877TIP3    H123595   6.622   5.455   0.147
 7877TIP3    H223596   6.618   5.410   0.002
 7878TIP3   OH223597   6.327   0.845   4.782
 7878TIP3    H123598   6.323   0.936   4.753
 7878TIP3    H223599   6.270   0.842   4.859
 7879TIP3   OH223600   4.499   1.516   3.845
 7879TIP3    H123601   4.526   1.426   3.829
 7879TIP3    H223602   4.407   1.510   3.869
 7880TIP3   OH223603   1.457   3.273   4.326
 7880TIP3    H123604   1.378   3.269   4.272
 7880TIP3    H223605   1.497   3.186   4.316
 7881TIP3   OH223606   5.801   6.266   3.673
 7881TIP3    H123607   5.881   6.306   3.706
 7881TIP3    H223608   5.774   6.322   3.600
 7882TIP3   OH223609   6.416   0.802   5.407
 7882TIP3    H123610   6.351   0.783   5.475
 7882TIP3    H223611   6.477   0.862   5.449
 7883TIP3   OH223612   0.998   1.133   3.031
 7883TIP3    H123613   0.907   1.133   3.001
 7883TIP3    H223614   1.042   1.197   2.975
 7884TIP3   OH223615   1.438   2.341   2.645
 7884TIP3    H123616   1.357   2.372   2.685
 7884TIP3    H223617   1.479   2.287   2.712
 7885TIP3   OH223618   4.193   6.103   1.750
 7885TIP3    H123619   4.281   6.137   1.731
 7885TIP3    H223620   4.165   6.063   1.668
 7886TIP3   OH223621   1.890   3.935   1.920
 7886TIP3    H123622   1.926   3.960   2.006
 7886TIP3    H223623   1.959   3.958   1.858
 7887TIP3   OH223624   3.015   6.219   2.924
 7887TIP3    H123625   3.074   6.149   2.953
 7887TIP3    H223626   3.054   6.299   2.959
 7888TIP3   OH223627   2.175   4.538   4.598
 7888TIP3    H123628   2.228   4.504   4.526
 7888TIP3    H223629   2.122   4.462   4.626
 7889TIP3   OH223630   6.262   3.049   5.758
 7889TIP3    H123631   6.171   3.031   5.784
 7889TIP3    H223632   6.275   2.996   5.679
 7890TIP3   OH223633   5.758   1.312   5.013
 7890TIP3    H123634   5.751   1.319   4.918
 7890TIP3    H223635   5.838   1.359   5.036
 7891TIP3   OH223636   3.801   5.857   3.319
 7891TIP3    H123637   3.742   5.878   3.391
 7891TIP3    H223638   3.750   5.799   3.261
 7892TIP3   OH223639   5.194   2.279   5.291
 7892TIP3    H123640   5.224   2.262   5.380
 7892TIP3    H223641   5.274   2.306   5.244
 7893TIP3   OH223642   2.395   4.326   2.468
 7893TIP3    H123643   2.300   4.321   2.459
 7893TIP3    H223644   2.428   4.310   2.380
 7894TIP3   OH223645   4.936   3.581   1.845
 7894TIP3    H123646   4.847   3.571   1.878
 7894TIP3    H223647   4.969   3.661   1.886
 7895TIP3   OH223648   4.102   4.139   2.272
 7895TIP3    H123649   4.043   4.150   2.198
 7895TIP3    H223650   4.133   4.228   2.291
 7896TIP3   OH223651   6.433   6.233   2.920
 7896TIP3    H123652   6.425   6.294   2.847
 7896TIP3    H223653   6.344   6.221   2.952
 7897TIP3   OH223654   0.489   3.938   4.444
 7897TIP3    H123655   0.516   3.967   4.357
 7897TIP3    H223656   0.396   3.961   4.449
 7898TIP3   OH223657   4.535   5.035   2.224
 7898TIP3    H123658   4.573   5.120   2.199
 7898TIP3    H223659   4.547   4.981   2.146
 7899TIP3   OH223660   2.254   2.097   4.218
 7899TIP3    H123661   2.239   2.102   4.312
 7899TIP3    H223662   2.173   2.129   4.179
 7900TIP3   OH223663   3.529   0.570   4.617
 7900TIP3    H123664   3.615   0.611   4.601
 7900TIP3    H223665   3.530   0.492   4.562
 7901TIP3   OH223666   6.152   2.516   1.410
 7901TIP3    H123667   6.245   2.534   1.427
 7901TIP3    H223668   6.131   2.573   1.336
 7902TIP3   OH223669   2.745   5.658   5.581
 7902TIP3    H123670   2.800   5.582   5.561
 7902TIP3    H223671   2.736   5.657   5.676
 7903TIP3   OH223672   1.483   2.919   0.579
 7903TIP3    H123673   1.463   2.942   0.670
 7903TIP3    H223674   1.579   2.921   0.575
 7904TIP3   OH223675   5.624   3.052   4.282
 7904TIP3    H123676   5.534   3.067   4.311
 7904TIP3    H223677   5.672   3.030   4.363
 7905TIP3   OH223678   4.939   5.194   3.422
 7905TIP3    H123679   5.030   5.172   3.403
 7905TIP3    H223680   4.943   5.246   3.502
 7906TIP3   OH223681   5.901   6.629   1.184
 7906TIP3    H123682   5.973   6.675   1.228
 7906TIP3    H223683   5.896   6.669   1.097
 7907TIP3   OH223684   5.947   2.855   2.490
 7907TIP3    H123685   5.916   2.941   2.518
 7907TIP3    H223686   5.947   2.803   2.570
 7908TIP3   OH223687   3.671   3.321   2.999
 7908TIP3    H123688   3.651   3.293   2.910
 7908TIP3    H223689   3.721   3.249   3.036
 7909TIP3   OH223690   3.760   5.554   2.392
 7909TIP3    H123691   3.848   5.585   2.414
 7909TIP3    H223692   3.706   5.578   2.468
 7910TIP3   OH223693   6.023   1.623   3.397
 7910TIP3    H123694   5.940   1.663   3.425
 7910TIP3    H223695   6.064   1.594   3.479
 7911TIP3   OH223696   6.381   3.165   4.807
 7911TIP3    H123697   6.392   3.075   4.776
 7911TIP3    H223698   6.432   3.169   4.888
 7912TIP3   OH223699   5.807   6.350   5.690
 7912TIP3    H123700   5.794   6.372   5.597
 7912TIP3    H223701   5.761   6.267   5.701
 7913TIP3   OH223702   1.355   5.277   0.137
 7913TIP3    H123703   1.346   5.338   0.211
 7913TIP3    H223704   1.437   5.232   0.153
 7914TIP3   OH223705   3.044   3.403   3.986
 7914TIP3    H123706   3.101   3.444   4.051
 7914TIP3    H223707   3.085   3.423   3.902
 7915TIP3   OH223708   6.495   5.623   3.598
 7915TIP3    H123709   6.474   5.684   3.526
 7915TIP3    H223710   6.547   5.554   3.557
 7916TIP3   OH223711   3.705   0.480   4.922
 7916TIP3    H123712   3.657   0.402   4.894
 7916TIP3    H223713   3.657   0.553   4.884
 7917TIP3   OH223714   1.296   4.524   1.608
 7917TIP3    H123715   1.269   4.432   1.608
 7917TIP3    H223716   1.364   4.529   1.676
 7918TIP3   OH223717   1.860   3.476   1.044
 7918TIP3    H123718   1.903   3.546   1.093
 7918TIP3    H223719   1.931   3.413   1.027
 7919TIP3   OH223720   4.242   2.421   2.627
 7919TIP3    H123721   4.336   2.419   2.648
 7919TIP3    H223722   4.238   2.457   2.538
 7920TIP3   OH223723   1.338   5.589   5.397
 7920TIP3    H123724   1.252   5.551   5.382
 7920TIP3    H223725   1.326   5.683   5.380
 7921TIP3   OH223726   3.243   2.768   5.606
 7921TIP3    H123727   3.229   2.860   5.627
 7921TIP3    H223728   3.272   2.769   5.514
 7922TIP3   OH223729   4.884   3.488   1.177
 7922TIP3    H123730   4.893   3.531   1.091
 7922TIP3    H223731   4.974   3.480   1.208
 7923TIP3   OH223732   1.241   1.009   0.799
 7923TIP3    H123733   1.324   1.003   0.753
 7923TIP3    H223734   1.179   0.961   0.744
 7924TIP3   OH223735   0.521   4.335   3.539
 7924TIP3    H123736   0.605   4.299   3.566
 7924TIP3    H223737   0.487   4.379   3.616
 7925TIP3   OH223738   2.106   0.513   2.972
 7925TIP3    H123739   2.200   0.515   2.957
 7925TIP3    H223740   2.075   0.440   2.919
 7926TIP3   OH223741   2.010   3.776   0.335
 7926TIP3    H123742   1.988   3.816   0.251
 7926TIP3    H223743   1.944   3.809   0.396
 7927TIP3   OH223744   5.794   0.650   1.982
 7927TIP3    H123745   5.838   0.581   1.933
 7927TIP3    H223746   5.865   0.710   2.006
 7928TIP3   OH223747   5.415   0.834   5.831
 7928TIP3    H123748   5.377   0.916   5.862
 7928TIP3    H223749   5.399   0.772   5.902
 7929TIP3   OH223750   6.781   1.253   0.362
 7929TIP3    H123751   6.731   1.268   0.442
 7929TIP3    H223752   6.762   1.328   0.306
 7930TIP3   OH223753   3.300   2.905   4.410
 7930TIP3    H123754   3.263   2.849   4.342
 7930TIP3    H223755   3.385   2.866   4.429
 7931TIP3   OH223756   1.182   2.508   2.816
 7931TIP3    H123757   1.135   2.513   2.900
 7931TIP3    H223758   1.115   2.527   2.750
 7932TIP3   OH223759   5.260   3.070   2.676
 7932TIP3    H123760   5.269   3.165   2.677
 7932TIP3    H223761   5.172   3.054   2.711
 7933TIP3   OH223762   6.934   2.570   1.542
 7933TIP3    H123763   6.923   2.500   1.606
 7933TIP3    H223764   6.918   2.528   1.457
 7934TIP3   OH223765   4.215   5.718   5.034
 7934TIP3    H123766   4.229   5.740   5.127
 7934TIP3    H223767   4.284   5.655   5.014
 7935TIP3   OH223768   2.056   6.188   1.290
 7935TIP3    H123769   1.974   6.234   1.311
 7935TIP3    H223770   2.118   6.259   1.272
 7936TIP3   OH223771   2.662   1.328   5.141
 7936TIP3    H123772   2.747   1.346   5.181
 7936TIP3    H223773   2.599   1.352   5.209
 7937TIP3   OH223774   0.679   3.175   1.054
 7937TIP3    H123775   0.642   3.096   1.094
 7937TIP3    H223776   0.651   3.246   1.111
 7938TIP3   OH223777   6.607   5.687   2.663
 7938TIP3    H123778   6.564   5.605   2.638
 7938TIP3    H223779   6.695   5.660   2.691
 7939TIP3   OH223780   4.022   3.944   2.422
 7939TIP3    H123781   4.021   3.967   2.515
 7939TIP3    H223782   4.039   4.027   2.378
 7940TIP3   OH223783   4.223   3.730   1.092
 7940TIP3    H123784   4.253   3.730   1.001
 7940TIP3    H223785   4.267   3.805   1.132
 7941TIP3   OH223786   3.668   3.527   1.504
 7941TIP3    H123787   3.646   3.435   1.521
 7941TIP3    H223788   3.584   3.570   1.490
 7942TIP3   OH223789   4.859   4.455   1.438
 7942TIP3    H123790   4.935   4.497   1.398
 7942TIP3    H223791   4.784   4.498   1.398
 7943TIP3   OH223792   0.497   5.875   0.968
 7943TIP3    H123793   0.432   5.882   0.898
 7943TIP3    H223794   0.449   5.839   1.042
 7944TIP3   OH223795   2.088   6.557   1.130
 7944TIP3    H123796   2.079   6.621   1.201
 7944TIP3    H223797   2.003   6.514   1.127
 7945TIP3   OH223798   5.635   0.831   4.249
 7945TIP3    H123799   5.628   0.757   4.309
 7945TIP3    H223800   5.721   0.819   4.208
 7946TIP3   OH223801   3.952   5.244   1.180
 7946TIP3    H123802   3.975   5.323   1.130
 7946TIP3    H223803   3.988   5.172   1.128
 7947TIP3   OH223804   3.522   4.883   2.327
 7947TIP3    H123805   3.539   4.839   2.244
 7947TIP3    H223806   3.567   4.967   2.319
 7948TIP3   OH223807   0.469   5.216   5.370
 7948TIP3    H123808   0.520   5.255   5.299
 7948TIP3    H223809   0.499   5.125   5.372
 7949TIP3   OH223810   2.761   0.152   3.214
 7949TIP3    H123811   2.721   0.236   3.189
 7949TIP3    H223812   2.706   0.120   3.286
 7950TIP3   OH223813   5.661   2.907   2.356
 7950TIP3    H123814   5.593   2.943   2.298
 7950TIP3    H223815   5.625   2.916   2.444
 7951TIP3   OH223816   5.509   2.596   5.406
 7951TIP3    H123817   5.478   2.507   5.388
 7951TIP3    H223818   5.496   2.607   5.500
 7952TIP3   OH223819   0.813   6.215   4.000
 7952TIP3    H123820   0.757   6.143   4.030
 7952TIP3    H223821   0.790   6.289   4.056
 7953TIP3   OH223822   6.434   5.411   4.636
 7953TIP3    H123823   6.408   5.337   4.690
 7953TIP3    H223824   6.467   5.476   4.698
 7954TIP3   OH223825   1.804   0.763   3.970
 7954TIP3    H123826   1.871   0.812   4.020
 7954TIP3    H223827   1.841   0.675   3.961
 7955TIP3   OH223828   2.400   5.665   1.689
 7955TIP3    H123829   2.376   5.758   1.684
 7955TIP3    H223830   2.431   5.653   1.779
 7956TIP3   OH223831   6.494   3.063   2.752
 7956TIP3    H123832   6.492   3.050   2.657
 7956TIP3    H223833   6.445   3.144   2.766
 7957TIP3   OH223834   4.969   5.128   4.900
 7957TIP3    H123835   4.937   5.198   4.957
 7957TIP3    H223836   4.956   5.048   4.950
 7958TIP3   OH223837   5.426   4.591   1.145
 7958TIP3    H123838   5.509   4.552   1.172
 7958TIP3    H223839   5.391   4.531   1.080
 7959TIP3   OH223840   2.171   5.846   4.501
 7959TIP3    H123841   2.220   5.775   4.459
 7959TIP3    H223842   2.097   5.802   4.543
 7960TIP3   OH223843   5.059   2.919   0.617
 7960TIP3    H123844   5.006   2.868   0.678
 7960TIP3    H223845   5.031   3.009   0.630
 7961TIP3   OH223846   0.077   4.879   2.397
 7961TIP3    H123847   0.042   4.849   2.481
 7961TIP3    H223848   0.002   4.922   2.355
 7962TIP3   OH223849   6.688   1.844   0.220
 7962TIP3    H123850   6.745   1.811   0.150
 7962TIP3    H223851   6.600   1.842   0.182
 7963TIP3   OH223852   4.570   3.294   1.221
 7963TIP3    H123853   4.568   3.198   1.229
 7963TIP3    H223854   4.500   3.325   1.277
 7964TIP3   OH223855   1.171   2.094   0.900
 7964TIP3    H123856   1.227   2.085   0.823
 7964TIP3    H223857   1.181   2.185   0.926
 7965TIP3   OH223858   7.124   0.197   1.268
 7965TIP3    H123859   7.146   0.262   1.201
 7965TIP3    H223860   7.135   0.243   1.351
 7966TIP3   OH223861   2.575   6.093   5.292
 7966TIP3    H123862   2.658   6.099   5.244
 7966TIP3    H223863   2.593   6.028   5.361
 7967TIP3   OH223864   4.142   3.302   5.139
 7967TIP3    H123865   4.050   3.307   5.114
 7967TIP3    H223866   4.140   3.270   5.230
 7968TIP3   OH223867   3.842   2.433   0.433
 7968TIP3    H123868   3.762   2.393   0.467
 7968TIP3    H223869   3.912   2.383   0.474
 7969TIP3   OH223870   4.573   0.609   0.548
 7969TIP3    H123871   4.573   0.517   0.575
 7969TIP3    H223872   4.484   0.625   0.516
 7970TIP3   OH223873   1.277   0.076   4.870
 7970TIP3    H123874   1.192   0.033   4.863
 7970TIP3    H223875   1.260   0.168   4.849
 7971TIP3   OH223876   3.319   4.653   2.898
 7971TIP3    H123877   3.367   4.630   2.977
 7971TIP3    H223878   3.361   4.602   2.829
 7972TIP3   OH223879   3.764   0.365   4.140
 7972TIP3    H123880   3.718   0.449   4.134
 7972TIP3    H223881   3.788   0.358   4.232
 7973TIP3   OH223882   4.586   0.213   4.636
 7973TIP3    H123883   4.666   0.238   4.589
 7973TIP3    H223884   4.617   0.171   4.716
 7974TIP3   OH223885   2.232   3.510   1.846
 7974TIP3    H123886   2.306   3.566   1.871
 7974TIP3    H223887   2.190   3.555   1.773
 7975TIP3   OH223888   5.889   6.643   3.457
 7975TIP3    H123889   5.911   6.551   3.438
 7975TIP3    H223890   5.818   6.663   3.396
 7976TIP3   OH223891   4.291   3.861   5.117
 7976TIP3    H123892   4.324   3.947   5.090
 7976TIP3    H223893   4.208   3.880   5.161
 7977TIP3   OH223894   0.442   3.640   1.820
 7977TIP3    H123895   0.475   3.551   1.830
 7977TIP3    H223896   0.418   3.647   1.728
 7978TIP3   OH223897   0.144   2.856   3.465
 7978TIP3    H123898   0.206   2.814   3.406
 7978TIP3    H223899   0.096   2.783   3.504
 7979TIP3   OH223900   3.449   3.377   0.559
 7979TIP3    H123901   3.543   3.391   0.549
 7979TIP3    H223902   3.418   3.452   0.609
 7980TIP3   OH223903   3.570   2.339   0.534
 7980TIP3    H123904   3.578   2.244   0.545
 7980TIP3    H223905   3.532   2.370   0.616
 7981TIP3   OH223906   6.080   4.539   5.492
 7981TIP3    H123907   6.021   4.586   5.433
 7981TIP3    H223908   6.165   4.541   5.448
 7982TIP3   OH223909   3.542   6.642   0.948
 7982TIP3    H123910   3.584   6.673   0.867
 7982TIP3    H223911   3.553   6.547   0.946
 7983TIP3   OH223912   3.463   4.533   3.102
 7983TIP3    H123913   3.544   4.483   3.101
 7983TIP3    H223914   3.401   4.478   3.151
 7984TIP3   OH223915   2.537   3.744   5.501
 7984TIP3    H123916   2.508   3.654   5.515
 7984TIP3    H223917   2.612   3.755   5.559
 7985TIP3   OH223918   4.987   4.382   4.772
 7985TIP3    H123919   5.063   4.394   4.829
 7985TIP3    H223920   4.964   4.289   4.783
 7986TIP3   OH223921   0.537   0.423   2.513
 7986TIP3    H123922   0.578   0.499   2.555
 7986TIP3    H223923   0.584   0.348   2.547
 7987TIP3   OH223924   7.141   5.198   2.924
 7987TIP3    H123925   7.225   5.180   2.966
 7987TIP3    H223926   7.143   5.292   2.906
 7988TIP3   OH223927   3.247   5.621   2.571
 7988TIP3    H123928   3.281   5.707   2.594
 7988TIP3    H223929   3.162   5.616   2.614
 7989TIP3   OH223930   4.273   6.030   5.220
 7989TIP3    H123931   4.352   5.975   5.222
 7989TIP3    H223932   4.207   5.979   5.266
 7990TIP3   OH223933   1.186   0.662   3.823
 7990TIP3    H123934   1.259   0.719   3.847
 7990TIP3    H223935   1.125   0.721   3.778
 7991TIP3   OH223936   4.898   3.611   2.507
 7991TIP3    H123937   4.809   3.580   2.494
 7991TIP3    H223938   4.948   3.533   2.532
 7992TIP3   OH223939   5.020   5.597   3.023
 7992TIP3    H123940   5.098   5.640   2.988
 7992TIP3    H223941   5.041   5.581   3.115
 7993TIP3   OH223942   0.708   1.588   2.280
 7993TIP3    H123943   0.770   1.657   2.259
 7993TIP3    H223944   0.735   1.556   2.366
 7994TIP3   OH223945   3.367   6.737   3.948
 7994TIP3    H123946   3.435   6.698   4.003
 7994TIP3    H223947   3.286   6.723   3.997
 7995TIP3   OH223948   5.407   2.178   2.999
 7995TIP3    H123949   5.345   2.135   2.939
 7995TIP3    H223950   5.382   2.270   2.997
 7996TIP3   OH223951   4.650   1.452   2.998
 7996TIP3    H123952   4.728   1.403   3.023
 7996TIP3    H223953   4.592   1.446   3.073
 7997TIP3   OH223954   2.852   3.919   2.721
 7997TIP3    H123955   2.909   3.995   2.709
 7997TIP3    H223956   2.798   3.916   2.642
 7998TIP3   OH223957   2.984   1.752   3.799
 7998TIP3    H123958   3.023   1.826   3.753
 7998TIP3    H223959   2.968   1.784   3.888
 7999TIP3   OH223960   4.910   4.522   3.432
 7999TIP3    H123961   4.826   4.568   3.438
 7999TIP3    H223962   4.914   4.468   3.511
 8000TIP3   OH223963   7.092   4.537   0.820
 8000TIP3    H123964   7.177   4.500   0.843
 8000TIP3    H223965   7.064   4.486   0.744
 8001TIP3   OH223966   0.742   6.129   3.190
 8001TIP3    H123967   0.701   6.204   3.147
 8001TIP3    H223968   0.772   6.163   3.274
 8002TIP3   OH223969   4.528   5.502   2.337
 8002TIP3    H123970   4.459   5.461   2.285
 8002TIP3    H223971   4.497   5.495   2.427
 8003TIP3   OH223972   1.855   2.906   5.271
 8003TIP3    H123973   1.877   2.937   5.359
 8003TIP3    H223974   1.917   2.953   5.214
 8004TIP3   OH223975   6.676   4.550   2.872
 8004TIP3    H123976   6.703   4.467   2.833
 8004TIP3    H223977   6.671   4.611   2.798
 8005TIP3   OH223978   0.388   4.653   5.307
 8005TIP3    H123979   0.441   4.579   5.336
 8005TIP3    H223980   0.321   4.613   5.251
 8006TIP3   OH223981   0.642   4.329   4.298
 8006TIP3    H123982   0.647   4.270   4.223
 8006TIP3    H223983   0.723   4.380   4.294
 8007TIP3   OH223984   0.243   5.301   1.988
 8007TIP3    H123985   0.283   5.239   1.927
 8007TIP3    H223986   0.152   5.273   1.996
 8008TIP3   OH223987   5.897   1.818   5.591
 8008TIP3    H123988   5.817   1.781   5.552
 8008TIP3    H223989   5.958   1.824   5.517
 8009TIP3   OH223990   3.581   0.152   2.950
 8009TIP3    H123991   3.606   0.081   2.891
 8009TIP3    H223992   3.488   0.136   2.969
 8010TIP3   OH223993   6.473   6.256   3.635
 8010TIP3    H123994   6.544   6.233   3.574
 8010TIP3    H223995   6.518   6.273   3.718
 8011TIP3   OH223996   0.316   4.608   0.263
 8011TIP3    H123997   0.315   4.547   0.336
 8011TIP3    H223998   0.290   4.692   0.300
 8012TIP3   OH223999   0.666   1.400   1.715
 8012TIP3    H124000   0.733   1.455   1.673
 8012TIP3    H224001   0.640   1.450   1.792
 8013TIP3   OH224002   6.031   5.527   2.771
 8013TIP3    H124003   6.041   5.613   2.811
 8013TIP3    H224004   5.965   5.540   2.702
 8014TIP3   OH224005   2.815   4.789   2.461
 8014TIP3    H124006   2.759   4.864   2.440
 8014TIP3    H224007   2.786   4.761   2.548
 8015TIP3   OH224008   4.975   6.427   4.765
 8015TIP3    H124009   4.924   6.456   4.689
 8015TIP3    H224010   5.030   6.356   4.731
 8016TIP3   OH224011   1.483   4.204   3.707
 8016TIP3    H124012   1.549   4.245   3.763
 8016TIP3    H224013   1.525   4.123   3.677
 8017TIP3   OH224014   4.368   4.423   4.993
 8017TIP3    H124015   4.415   4.356   4.944
 8017TIP3    H224016   4.417   4.430   5.075
 8018TIP3   OH224017   6.792   3.799   5.159
 8018TIP3    H124018   6.863   3.846   5.202
 8018TIP3    H224019   6.729   3.782   5.229
 8019TIP3   OH224020   6.635   3.578   0.056
 8019TIP3    H124021   6.662   3.670   0.062
 8019TIP3    H224022   6.540   3.582   0.044
 8020TIP3   OH224023   4.509   0.328   1.231
 8020TIP3    H124024   4.511   0.265   1.303
 8020TIP3    H224025   4.418   0.331   1.203
 8021TIP3   OH224026   6.840   6.456   3.775
 8021TIP3    H124027   6.831   6.373   3.822
 8021TIP3    H224028   6.804   6.438   3.688
 8022TIP3   OH224029   0.218   1.200   5.231
 8022TIP3    H124030   0.296   1.221   5.283
 8022TIP3    H224031   0.219   1.105   5.223
 8023TIP3   OH224032   6.457   2.228   5.869
 8023TIP3    H124033   6.399   2.262   5.801
 8023TIP3    H224034   6.482   2.141   5.838
 8024TIP3   OH224035   2.152   0.527   1.348
 8024TIP3    H124036   2.131   0.491   1.434
 8024TIP3    H224037   2.158   0.622   1.363
 8025TIP3   OH224038   6.803   5.587   1.063
 8025TIP3    H124039   6.745   5.606   1.137
 8025TIP3    H224040   6.784   5.656   0.999
 8026TIP3   OH224041   3.395   1.292   3.342
 8026TIP3    H124042   3.303   1.298   3.318
 8026TIP3    H224043   3.437   1.246   3.269
 8027TIP3   OH224044   6.195   2.686   3.838
 8027TIP3    H124045   6.288   2.703   3.827
 8027TIP3    H224046   6.162   2.671   3.749
 8028TIP3   OH224047   2.552   2.941   5.823
 8028TIP3    H124048   2.548   2.925   5.917
 8028TIP3    H224049   2.490   3.011   5.807
 8029TIP3   OH224050   4.105   1.271   0.472
 8029TIP3    H124051   4.196   1.244   0.459
 8029TIP3    H224052   4.062   1.193   0.509
 8030TIP3   OH224053   0.618   6.083   0.344
 8030TIP3    H124054   0.536   6.133   0.345
 8030TIP3    H224055   0.684   6.146   0.375
 8031TIP3   OH224056   5.239   2.626   4.333
 8031TIP3    H124057   5.157   2.631   4.283
 8031TIP3    H224058   5.308   2.620   4.267
 8032TIP3   OH224059   1.986   2.300   3.641
 8032TIP3    H124060   1.961   2.212   3.614
 8032TIP3    H224061   2.017   2.342   3.560
 8033TIP3   OH224062   0.604   2.640   1.849
 8033TIP3    H124063   0.613   2.674   1.760
 8033TIP3    H224064   0.562   2.554   1.837
 8034TIP3   OH224065   6.558   1.917   4.664
 8034TIP3    H124066   6.542   1.848   4.729
 8034TIP3    H224067   6.473   1.959   4.652
 8035TIP3   OH224068   2.184   5.999   1.081
 8035TIP3    H124069   2.091   5.979   1.065
 8035TIP3    H224070   2.200   5.968   1.170
 8036TIP3   OH224071   4.110   1.035   2.120
 8036TIP3    H124072   4.127   0.997   2.034
 8036TIP3    H224073   4.117   0.962   2.181
 8037TIP3   OH224074   3.228   5.795   3.748
 8037TIP3    H124075   3.307   5.846   3.767
 8037TIP3    H224076   3.209   5.751   3.830
 8038TIP3   OH224077   5.288   3.074   0.171
 8038TIP3    H124078   5.209   3.022   0.181
 8038TIP3    H224079   5.266   3.140   0.105
 8039TIP3   OH224080   0.233   0.710   1.910
 8039TIP3    H124081   0.293   0.647   1.871
 8039TIP3    H224082   0.188   0.750   1.835
 8040TIP3   OH224083   5.941   4.839   4.344
 8040TIP3    H124084   5.988   4.768   4.300
 8040TIP3    H224085   5.969   4.918   4.297
 8041TIP3   OH224086   3.283   6.303   5.210
 8041TIP3    H124087   3.263   6.309   5.117
 8041TIP3    H224088   3.354   6.366   5.223
 8042TIP3   OH224089   3.413   4.178   2.982
 8042TIP3    H124090   3.395   4.165   2.889
 8042TIP3    H224091   3.331   4.156   3.026
 8043TIP3   OH224092   6.655   4.403   3.117
 8043TIP3    H124093   6.676   4.458   3.193
 8043TIP3    H224094   6.683   4.455   3.042
 8044TIP3   OH224095   1.848   1.261   3.672
 8044TIP3    H124096   1.839   1.328   3.604
 8044TIP3    H224097   1.802   1.297   3.748
 8045TIP3   OH224098   2.395   5.336   4.847
 8045TIP3    H124099   2.472   5.308   4.897
 8045TIP3    H224100   2.411   5.429   4.829
 8046TIP3   OH224101   3.776   2.070   4.494
 8046TIP3    H124102   3.717   2.003   4.461
 8046TIP3    H224103   3.730   2.109   4.568
 8047TIP3   OH224104   4.807   2.827   2.315
 8047TIP3    H124105   4.788   2.735   2.300
 8047TIP3    H224106   4.846   2.857   2.233
 8048TIP3   OH224107   5.983   6.851   3.618
 8048TIP3    H124108   6.038   6.791   3.669
 8048TIP3    H224109   5.957   6.800   3.541
 8049TIP3   OH224110   5.969   1.774   2.420
 8049TIP3    H124111   5.904   1.710   2.393
 8049TIP3    H224112   5.960   1.846   2.357
 8050TIP3   OH224113   5.256   2.021   1.544
 8050TIP3    H124114   5.203   2.024   1.623
 8050TIP3    H224115   5.194   2.004   1.473
 8051TIP3   OH224116   1.912   5.695   5.051
 8051TIP3    H124117   1.975   5.624   5.040
 8051TIP3    H224118   1.836   5.654   5.092
 8052TIP3   OH224119   5.803   3.699   4.269
 8052TIP3    H124120   5.741   3.684   4.340
 8052TIP3    H224121   5.878   3.742   4.312
 8053TIP3   OH224122   1.930   1.311   2.909
 8053TIP3    H124123   2.008   1.270   2.872
 8053TIP3    H224124   1.880   1.342   2.833
 8054TIP3   OH224125   7.204   6.072   3.608
 8054TIP3    H124126   7.199   5.987   3.564
 8054TIP3    H224127   7.220   6.051   3.700
 8055TIP3   OH224128   4.853   4.518   1.092
 8055TIP3    H124129   4.913   4.581   1.131
 8055TIP3    H224130   4.769   4.536   1.135
 8056TIP3   OH224131   2.015   5.138   3.358
 8056TIP3    H124132   2.069   5.092   3.294
 8056TIP3    H224133   2.068   5.142   3.437
 8057TIP3   OH224134   0.462   1.482   4.308
 8057TIP3    H124135   0.398   1.529   4.362
 8057TIP3    H224136   0.521   1.441   4.371
 8058TIP3   OH224137   1.601   0.789   4.157
 8058TIP3    H124138   1.650   0.770   4.077
 8058TIP3    H224139   1.510   0.769   4.135
 8059TIP3   OH224140   2.070   0.648   4.207
 8059TIP3    H124141   2.041   0.598   4.130
 8059TIP3    H224142   2.004   0.629   4.274
 8060TIP3   OH224143   3.226   6.682   5.061
 8060TIP3    H124144   3.226   6.768   5.104
 8060TIP3    H224145   3.145   6.641   5.091
 8061TIP3   OH224146   3.082   2.041   5.083
 8061TIP3    H124147   3.107   2.045   4.990
 8061TIP3    H224148   3.153   1.992   5.124
 8062TIP3   OH224149   2.019   0.839   5.143
 8062TIP3    H124150   2.075   0.878   5.210
 8062TIP3    H224151   1.931   0.874   5.161
 8063TIP3   OH224152   5.587   3.658   2.131
 8063TIP3    H124153   5.671   3.684   2.094
 8063TIP3    H224154   5.522   3.693   2.070
 8064TIP3   OH224155   2.238   3.257   3.397
 8064TIP3    H124156   2.206   3.342   3.367
 8064TIP3    H224157   2.192   3.241   3.479
 8065TIP3   OH224158   3.961   5.578   0.084
 8065TIP3    H124159   3.960   5.558  -0.010
 8065TIP3    H224160   4.050   5.557   0.111
 8066TIP3   OH224161   3.522   5.301   2.924
 8066TIP3    H124162   3.446   5.314   2.981
 8066TIP3    H224163   3.558   5.217   2.951
 8067TIP3   OH224164   3.370   1.228   2.325
 8067TIP3    H124165   3.340   1.137   2.324
 8067TIP3    H224166   3.464   1.223   2.337
 8068TIP3   OH224167   3.583   0.309   0.728
 8068TIP3    H124168   3.676   0.327   0.739
 8068TIP3    H224169   3.568   0.229   0.777
 8069TIP3   OH224170   5.822   6.620   1.518
 8069TIP3    H124171   5.839   6.639   1.610
 8069TIP3    H224172   5.788   6.531   1.517
 8070TIP3   OH224173   1.323   5.257   5.631
 8070TIP3    H124174   1.231   5.260   5.657
 8070TIP3    H224175   1.321   5.241   5.536
 8071TIP3   OH224176   3.695   2.047   1.291
 8071TIP3    H124177   3.679   1.974   1.351
 8071TIP3    H224178   3.726   2.006   1.210
 8072TIP3   OH224179   1.848   4.073   0.237
 8072TIP3    H124180   1.889   4.004   0.184
 8072TIP3    H224181   1.808   4.131   0.172
 8073TIP3   OH224182   6.929   0.872   0.069
 8073TIP3    H124183   6.879   0.902  -0.007
 8073TIP3    H224184   6.880   0.904   0.144
 8074TIP3   OH224185   1.625   0.873   0.384
 8074TIP3    H124186   1.556   0.809   0.400
 8074TIP3    H224187   1.706   0.826   0.404
 8075TIP3   OH224188   4.843   1.723   2.600
 8075TIP3    H124189   4.839   1.816   2.577
 8075TIP3    H224190   4.774   1.711   2.665
 8076TIP3   OH224191   3.309   2.731   0.872
 8076TIP3    H124192   3.226   2.729   0.919
 8076TIP3    H224193   3.288   2.773   0.789
 8077TIP3   OH224194   3.567   4.455   5.026
 8077TIP3    H124195   3.526   4.463   4.940
 8077TIP3    H224196   3.624   4.379   5.018
 8078TIP3   OH224197   2.747   2.275   3.025
 8078TIP3    H124198   2.682   2.305   2.962
 8078TIP3    H224199   2.831   2.291   2.983
 8079TIP3   OH224200   3.210   3.290   3.249
 8079TIP3    H124201   3.190   3.256   3.162
 8079TIP3    H224202   3.218   3.385   3.235
 8080TIP3   OH224203   1.567   0.939   3.418
 8080TIP3    H124204   1.543   0.964   3.329
 8080TIP3    H224205   1.653   0.979   3.432
 8081TIP3   OH224206   0.238   0.169   1.221
 8081TIP3    H124207   0.235   0.136   1.131
 8081TIP3    H224208   0.284   0.254   1.213
 8082TIP3   OH224209   7.241   3.520   1.518
 8082TIP3    H124210   7.271   3.475   1.597
 8082TIP3    H224211   7.147   3.530   1.531
 8083TIP3   OH224212   6.675   2.880   2.070
 8083TIP3    H124213   6.599   2.845   2.025
 8083TIP3    H224214   6.718   2.803   2.107
 8084TIP3   OH224215   3.820   5.072   5.189
 8084TIP3    H124216   3.742   5.017   5.192
 8084TIP3    H224217   3.861   5.060   5.275
 8085TIP3   OH224218   6.624   5.282   5.148
 8085TIP3    H124219   6.710   5.257   5.183
 8085TIP3    H224220   6.634   5.375   5.126
 8086TIP3   OH224221   0.903   6.126   2.214
 8086TIP3    H124222   0.848   6.180   2.157
 8086TIP3    H224223   0.961   6.188   2.257
 8087TIP3   OH224224   2.411   5.020   4.691
 8087TIP3    H124225   2.345   5.054   4.751
 8087TIP3    H224226   2.439   5.097   4.640
 8088TIP3   OH224227   3.721   3.958   4.423
 8088TIP3    H124228   3.807   3.971   4.383
 8088TIP3    H224229   3.718   3.864   4.444
 8089TIP3   OH224230   1.198   5.851   4.158
 8089TIP3    H124231   1.109   5.855   4.194
 8089TIP3    H224232   1.253   5.827   4.233
 8090TIP3   OH224233   2.252   1.017   2.483
 8090TIP3    H124234   2.245   1.060   2.398
 8090TIP3    H224235   2.256   0.923   2.462
 8091TIP3   OH224236   5.850   2.856   5.008
 8091TIP3    H124237   5.861   2.794   5.081
 8091TIP3    H224238   5.879   2.940   5.043
 8092TIP3   OH224239   5.329   6.081   4.221
 8092TIP3    H124240   5.318   6.176   4.214
 8092TIP3    H224241   5.247   6.045   4.188
 8093TIP3   OH224242   4.389   6.298   3.262
 8093TIP3    H124243   4.301   6.289   3.225
 8093TIP3    H224244   4.426   6.210   3.260
 8094TIP3   OH224245   4.153  -0.003   5.222
 8094TIP3    H124246   4.108  -0.067   5.278
 8094TIP3    H224247   4.216   0.039   5.280
 8095TIP3   OH224248   0.388   6.221   0.419
 8095TIP3    H124249   0.302   6.184   0.397
 8095TIP3    H224250   0.419   6.167   0.491
 8096TIP3   OH224251   2.976   5.740   2.260
 8096TIP3    H124252   2.918   5.782   2.324
 8096TIP3    H224253   2.990   5.652   2.296
 8097TIP3   OH224254   6.586   6.565   3.127
 8097TIP3    H124255   6.539   6.647   3.114
 8097TIP3    H224256   6.671   6.592   3.163
 8098TIP3   OH224257   4.054   5.320   2.990
 8098TIP3    H124258   4.098   5.297   3.071
 8098TIP3    H224259   3.961   5.323   3.014
 8099TIP3   OH224260   1.129   0.338   4.846
 8099TIP3    H124261   1.134   0.426   4.884
 8099TIP3    H224262   1.122   0.352   4.752
 8100TIP3   OH224263   7.207   1.134   3.751
 8100TIP3    H124264   7.214   1.051   3.798
 8100TIP3    H224265   7.145   1.117   3.681
 8101TIP3   OH224266   4.665   2.071   1.904
 8101TIP3    H124267   4.584   2.108   1.939
 8101TIP3    H224268   4.636   2.010   1.836
 8102TIP3   OH224269   2.491   2.374   4.541
 8102TIP3    H124270   2.512   2.454   4.493
 8102TIP3    H224271   2.523   2.303   4.484
 8103TIP3   OH224272   3.160   4.884   2.729
 8103TIP3    H124273   3.229   4.923   2.675
 8103TIP3    H224274   3.152   4.794   2.697
 8104TIP3   OH224275   0.626   6.682   0.585
 8104TIP3    H124276   0.713   6.686   0.625
 8104TIP3    H224277   0.600   6.591   0.594
 8105TIP3   OH224278   7.116   6.473   5.181
 8105TIP3    H124279   7.041   6.531   5.171
 8105TIP3    H224280   7.161   6.505   5.260
 8106TIP3   OH224281   5.144   2.377   3.939
 8106TIP3    H124282   5.170   2.286   3.951
 8106TIP3    H224283   5.066   2.387   3.994
 8107TIP3   OH224284   4.986   4.577   3.180
 8107TIP3    H124285   4.959   4.560   3.271
 8107TIP3    H224286   5.053   4.644   3.187
 8108TIP3   OH224287   3.941   1.405   0.640
 8108TIP3    H124288   3.981   1.370   0.560
 8108TIP3    H224289   3.974   1.348   0.709
 8109TIP3   OH224290   4.248   3.289   3.242
 8109TIP3    H124291   4.275   3.378   3.224
 8109TIP3    H224292   4.152   3.293   3.248
 8110TIP3   OH224293   2.021   3.327   1.308
 8110TIP3    H124294   2.008   3.422   1.298
 8110TIP3    H224295   1.937   3.289   1.282
 8111TIP3   OH224296   5.092   4.372   0.346
 8111TIP3    H124297   5.085   4.276   0.339
 8111TIP3    H224298   5.010   4.399   0.386
 8112TIP3   OH224299   6.930   5.559   0.790
 8112TIP3    H124300   7.002   5.601   0.743
 8112TIP3    H224301   6.882   5.632   0.830
 8113TIP3   OH224302   6.850   2.938   4.049
 8113TIP3    H124303   6.853   2.843   4.062
 8113TIP3    H224304   6.814   2.973   4.131
 8114TIP3   OH224305   3.282   5.842   4.763
 8114TIP3    H124306   3.218   5.868   4.829
 8114TIP3    H224307   3.232   5.838   4.681
 8115TIP3   OH224308   3.893   3.800   0.888
 8115TIP3    H124309   3.930   3.713   0.899
 8115TIP3    H224310   3.800   3.789   0.907
 8116TIP3   OH224311   6.096   5.784   4.065
 8116TIP3    H124312   6.150   5.761   3.990
 8116TIP3    H224313   6.122   5.874   4.087
 8117TIP3   OH224314   1.336   4.502   2.782
 8117TIP3    H124315   1.267   4.535   2.840
 8117TIP3    H224316   1.290   4.445   2.720
 8118TIP3   OH224317   3.936   3.310   3.846
 8118TIP3    H124318   3.842   3.315   3.829
 8118TIP3    H224319   3.973   3.383   3.797
 8119TIP3   OH224320   6.637   1.389   3.004
 8119TIP3    H124321   6.608   1.299   2.990
 8119TIP3    H224322   6.654   1.422   2.916
 8120TIP3   OH224323   6.320   0.359   0.746
 8120TIP3    H124324   6.307   0.376   0.839
 8120TIP3    H224325   6.263   0.422   0.702
 8121TIP3   OH224326   6.687   2.341   1.507
 8121TIP3    H124327   6.716   2.390   1.430
 8121TIP3    H224328   6.732   2.384   1.580
 8122TIP3   OH224329   0.580   3.206   1.426
 8122TIP3    H124330   0.509   3.144   1.410
 8122TIP3    H224331   0.561   3.244   1.512
 8123TIP3   OH224332   4.828   2.810   0.081
 8123TIP3    H124333   4.883   2.856   0.017
 8123TIP3    H224334   4.889   2.760   0.134
 8124TIP3   OH224335   4.702   0.444   1.791
 8124TIP3    H124336   4.702   0.416   1.883
 8124TIP3    H224337   4.615   0.483   1.779
 8125TIP3   OH224338   3.523   5.237   5.257
 8125TIP3    H124339   3.455   5.171   5.244
 8125TIP3    H224340   3.485   5.318   5.223
 8126TIP3   OH224341   4.403   1.226   1.628
 8126TIP3    H124342   4.401   1.138   1.591
 8126TIP3    H224343   4.486   1.231   1.675
 8127TIP3   OH224344   6.811   5.133   5.371
 8127TIP3    H124345   6.718   5.109   5.369
 8127TIP3    H224346   6.851   5.082   5.301
 8128TIP3   OH224347   2.480   0.462   4.406
 8128TIP3    H124348   2.545   0.422   4.463
 8128TIP3    H224349   2.404   0.476   4.462
 8129TIP3   OH224350   3.163   4.054   3.927
 8129TIP3    H124351   3.084   4.070   3.980
 8129TIP3    H224352   3.221   4.127   3.949
 8130TIP3   OH224353   3.494   6.326   0.311
 8130TIP3    H124354   3.567   6.381   0.282
 8130TIP3    H224355   3.417   6.383   0.306
 8131TIP3   OH224356   2.744   6.108   2.620
 8131TIP3    H124357   2.725   6.016   2.643
 8131TIP3    H224358   2.658   6.147   2.606
 8132TIP3   OH224359   0.371   4.481   2.694
 8132TIP3    H124360   0.399   4.545   2.760
 8132TIP3    H224361   0.342   4.535   2.620
 8133TIP3   OH224362   4.908   1.399   1.652
 8133TIP3    H124363   4.995   1.432   1.670
 8133TIP3    H224364   4.888   1.428   1.563
 8134TIP3   OH224365   0.773   4.955   4.757
 8134TIP3    H124366   0.693   4.927   4.713
 8134TIP3    H224367   0.825   4.875   4.767
 8135TIP3   OH224368   1.788   4.866   2.174
 8135TIP3    H124369   1.754   4.952   2.149
 8135TIP3    H224370   1.765   4.858   2.267
 8136TIP3   OH224371   4.763   5.515   2.589
 8136TIP3    H124372   4.818   5.581   2.547
 8136TIP3    H224373   4.784   5.433   2.545
 8137TIP3   OH224374   1.103   5.957   3.127
 8137TIP3    H124375   1.081   5.991   3.214
 8137TIP3    H224376   1.102   6.034   3.070
 8138TIP3   OH224377   0.035   1.328   5.436
 8138TIP3    H124378   0.049   1.273   5.358
 8138TIP3    H224379   0.087   1.285   5.504
 8139TIP3   OH224380   5.824   3.510   5.471
 8139TIP3    H124381   5.906   3.467   5.493
 8139TIP3    H224382   5.780   3.522   5.555
 8140TIP3   OH224383   5.800   0.934   3.744
 8140TIP3    H124384   5.861   0.899   3.679
 8140TIP3    H224385   5.850   0.934   3.826
 8141TIP3   OH224386   2.150   2.264   3.365
 8141TIP3    H124387   2.116   2.176   3.383
 8141TIP3    H224388   2.220   2.251   3.301
 8142TIP3   OH224389   2.327   4.816   5.194
 8142TIP3    H124390   2.372   4.772   5.265
 8142TIP3    H224391   2.235   4.815   5.219
 8143TIP3   OH224392   5.688   5.345   2.404
 8143TIP3    H124393   5.736   5.290   2.467
 8143TIP3    H224394   5.645   5.282   2.346
 8144TIP3   OH224395   0.328   5.312   1.085
 8144TIP3    H124396   0.242   5.292   1.121
 8144TIP3    H224397   0.332   5.261   1.004
 8145TIP3   OH224398   2.058   6.303   3.555
 8145TIP3    H124399   2.060   6.292   3.650
 8145TIP3    H224400   2.149   6.319   3.531
 8146TIP3   OH224401   0.329   4.662   2.455
 8146TIP3    H124402   0.257   4.645   2.394
 8146TIP3    H224403   0.404   4.617   2.416
 8147TIP3   OH224404   6.593   3.505   2.748
 8147TIP3    H124405   6.674   3.457   2.733
 8147TIP3    H224406   6.615   3.569   2.816
 8148TIP3   OH224407   4.018   3.521   2.598
 8148TIP3    H124408   4.085   3.548   2.536
 8148TIP3    H224409   3.947   3.487   2.543
 8149TIP3   OH224410   4.429   6.099   5.758
 8149TIP3    H124411   4.349   6.075   5.806
 8149TIP3    H224412   4.470   6.015   5.737
 8150TIP3   OH224413   0.370   4.099   1.698
 8150TIP3    H124414   0.437   4.109   1.630
 8150TIP3    H224415   0.289   4.084   1.649
 8151TIP3   OH224416   3.588   6.343   5.026
 8151TIP3    H124417   3.608   6.431   4.995
 8151TIP3    H224418   3.581   6.351   5.121
 8152TIP3   OH224419   4.651   3.685   2.213
 8152TIP3    H124420   4.675   3.612   2.156
 8152TIP3    H224421   4.572   3.655   2.259
 8153TIP3   OH224422   2.904   5.637   1.504
 8153TIP3    H124423   2.930   5.667   1.591
 8153TIP3    H224424   2.808   5.629   1.509
 8154TIP3   OH224425   6.153   1.829   2.862
 8154TIP3    H124426   6.129   1.907   2.810
 8154TIP3    H224427   6.199   1.864   2.938
 8155TIP3   OH224428   4.614   4.777   3.261
 8155TIP3    H124429   4.623   4.701   3.318
 8155TIP3    H224430   4.678   4.763   3.191
 8156TIP3   OH224431   6.154   0.265   4.310
 8156TIP3    H124432   6.170   0.356   4.336
 8156TIP3    H224433   6.064   0.264   4.279
 8157TIP3   OH224434   3.213   1.134   0.316
 8157TIP3    H124435   3.181   1.190   0.386
 8157TIP3    H224436   3.138   1.121   0.258
 8158TIP3   OH224437   6.816   6.678   5.416
 8158TIP3    H124438   6.816   6.593   5.461
 8158TIP3    H224439   6.845   6.658   5.327
 8159TIP3   OH224440   2.768   5.901   5.469
 8159TIP3    H124441   2.820   5.884   5.390
 8159TIP3    H224442   2.768   5.817   5.516
 8160TIP3   OH224443   5.941   0.577   4.095
 8160TIP3    H124444   5.947   0.526   4.014
 8160TIP3    H224445   5.880   0.527   4.150
 8161TIP3   OH224446   5.156   4.179   2.854
 8161TIP3    H124447   5.203   4.202   2.933
 8161TIP3    H224448   5.108   4.259   2.830
 8162TIP3   OH224449   3.305   1.810   5.733
 8162TIP3    H124450   3.330   1.738   5.791
 8162TIP3    H224451   3.371   1.877   5.748
 8163TIP3   OH224452   0.355   1.973   4.593
 8163TIP3    H124453   0.342   1.893   4.644
 8163TIP3    H224454   0.386   1.943   4.508
 8164TIP3   OH224455   5.864   3.359   3.026
 8164TIP3    H124456   5.827   3.393   2.944
 8164TIP3    H224457   5.792   3.310   3.066
 8165TIP3   OH224458   1.804   1.282   1.079
 8165TIP3    H124459   1.883   1.252   1.125
 8165TIP3    H224460   1.833   1.359   1.030
 8166TIP3   OH224461   3.376   2.113   1.999
 8166TIP3    H124462   3.369   2.209   1.999
 8166TIP3    H224463   3.418   2.092   1.916
 8167TIP3   OH224464   6.356   1.661   5.507
 8167TIP3    H124465   6.277   1.608   5.522
 8167TIP3    H224466   6.421   1.624   5.566
 8168TIP3   OH224467   0.341   1.182   1.126
 8168TIP3    H124468   0.306   1.189   1.037
 8168TIP3    H224469   0.263   1.171   1.181
 8169TIP3   OH224470   2.818   4.279   3.237
 8169TIP3    H124471   2.779   4.205   3.190
 8169TIP3    H224472   2.783   4.357   3.194
 8170TIP3   OH224473   2.996   3.772   3.323
 8170TIP3    H124474   2.965   3.819   3.246
 8170TIP3    H224475   2.988   3.835   3.394
 8171TIP3   OH224476   0.442   2.645   2.640
 8171TIP3    H124477   0.395   2.662   2.558
 8171TIP3    H224478   0.453   2.550   2.643
 8172TIP3   OH224479   3.162   5.376   0.497
 8172TIP3    H124480   3.250   5.347   0.521
 8172TIP3    H224481   3.117   5.389   0.580
 8173TIP3   OH224482   0.919   4.960   0.702
 8173TIP3    H124483   0.969   5.037   0.728
 8173TIP3    H224484   0.934   4.897   0.772
 8174TIP3   OH224485   5.610   6.408   4.889
 8174TIP3    H124486   5.615   6.504   4.884
 8174TIP3    H224487   5.599   6.390   4.982
 8175TIP3   OH224488   2.957   3.347   0.258
 8175TIP3    H124489   2.974   3.379   0.169
 8175TIP3    H224490   2.991   3.417   0.314
 8176TIP3   OH224491   4.831   3.144   2.600
 8176TIP3    H124492   4.791   3.146   2.687
 8176TIP3    H224493   4.853   3.052   2.586
 8177TIP3   OH224494   5.896   6.124   4.649
 8177TIP3    H124495   5.984   6.088   4.651
 8177TIP3    H224496   5.839   6.049   4.635
 8178TIP3   OH224497   5.827   4.204   2.513
 8178TIP3    H124498   5.844   4.266   2.584
 8178TIP3    H224499   5.845   4.118   2.550
 8179TIP3   OH224500   1.328   2.072   3.613
 8179TIP3    H124501   1.235   2.055   3.603
 8179TIP3    H224502   1.336   2.167   3.601
 8180TIP3   OH224503   4.838   1.665   3.249
 8180TIP3    H124504   4.856   1.756   3.225
 8180TIP3    H224505   4.907   1.614   3.207
 8181TIP3   OH224506   1.188   0.310   0.232
 8181TIP3    H124507   1.254   0.378   0.238
 8181TIP3    H224508   1.236   0.228   0.239
 8182TIP3   OH224509   1.714   0.601   1.259
 8182TIP3    H124510   1.726   0.670   1.194
 8182TIP3    H224511   1.742   0.640   1.342
 8183TIP3   OH224512   0.819   6.256   5.061
 8183TIP3    H124513   0.811   6.262   4.966
 8183TIP3    H224514   0.748   6.198   5.088
 8184TIP3   OH224515   1.822   1.477   4.518
 8184TIP3    H124516   1.748   1.533   4.495
 8184TIP3    H224517   1.791   1.424   4.591
 8185TIP3   OH224518   1.065   6.191   5.176
 8185TIP3    H124519   1.085   6.258   5.111
 8185TIP3    H224520   0.971   6.173   5.165
 8186TIP3   OH224521   5.531   5.110   0.140
 8186TIP3    H124522   5.469   5.046   0.105
 8186TIP3    H224523   5.613   5.091   0.095
 8187TIP3   OH224524   0.951   6.574   1.506
 8187TIP3    H124525   0.932   6.537   1.592
 8187TIP3    H224526   0.884   6.642   1.494
 8188TIP3   OH224527   2.361   2.303   4.943
 8188TIP3    H124528   2.275   2.335   4.969
 8188TIP3    H224529   2.375   2.224   4.996
 8189TIP3   OH224530   3.626   2.913   0.258
 8189TIP3    H124531   3.565   2.960   0.201
 8189TIP3    H224532   3.577   2.898   0.338
 8190TIP3   OH224533   0.156   3.424   2.832
 8190TIP3    H124534   0.100   3.443   2.756
 8190TIP3    H224535   0.097   3.427   2.907
 8191TIP3   OH224536   5.799   1.991   1.108
 8191TIP3    H124537   5.802   2.050   1.032
 8191TIP3    H224538   5.734   1.925   1.084
 8192TIP3   OH224539   4.856   3.945   4.308
 8192TIP3    H124540   4.816   3.858   4.311
 8192TIP3    H224541   4.950   3.928   4.310
 8193TIP3   OH224542   4.165   0.977   4.634
 8193TIP3    H124543   4.194   1.068   4.633
 8193TIP3    H224544   4.084   0.978   4.686
 8194TIP3   OH224545   6.296   3.785   2.214
 8194TIP3    H124546   6.242   3.810   2.289
 8194TIP3    H224547   6.385   3.782   2.248
 8195TIP3   OH224548   0.882   1.545   0.561
 8195TIP3    H124549   0.960   1.571   0.513
 8195TIP3    H224550   0.847   1.627   0.597
 8196TIP3   OH224551   5.134   6.210   0.681
 8196TIP3    H124552   5.191   6.256   0.620
 8196TIP3    H224553   5.074   6.161   0.625
 8197TIP3   OH224554   2.943   2.323   3.572
 8197TIP3    H124555   2.877   2.378   3.531
 8197TIP3    H224556   2.956   2.251   3.510
 8198TIP3   OH224557   1.582   2.086   3.745
 8198TIP3    H124558   1.614   2.003   3.781
 8198TIP3    H224559   1.490   2.068   3.722
 8199TIP3   OH224560   6.646   2.581   4.277
 8199TIP3    H124561   6.718   2.627   4.320
 8199TIP3    H224562   6.646   2.615   4.188
 8200TIP3   OH224563   2.834   3.562   3.037
 8200TIP3    H124564   2.838   3.655   3.059
 8200TIP3    H224565   2.860   3.517   3.118
 8201TIP3   OH224566   1.591   3.380   4.549
 8201TIP3    H124567   1.642   3.425   4.481
 8201TIP3    H224568   1.527   3.328   4.500
 8202TIP3   OH224569   4.082   4.789   3.384
 8202TIP3    H124570   4.011   4.837   3.426
 8202TIP3    H224571   4.135   4.857   3.343
 8203TIP3   OH224572   6.550   1.819   5.843
 8203TIP3    H124573   6.519   1.900   5.803
 8203TIP3    H224574   6.522   1.750   5.784
 8204TIP3   OH224575   5.450   5.923   1.079
 8204TIP3    H124576   5.466   6.014   1.103
 8204TIP3    H224577   5.445   5.877   1.163
 8205TIP3   OH224578   5.795   3.700   5.282
 8205TIP3    H124579   5.701   3.681   5.273
 8205TIP3    H224580   5.828   3.627   5.335
 8206TIP3   OH224581   2.760   0.516   4.133
 8206TIP3    H124582   2.666   0.516   4.117
 8206TIP3    H224583   2.780   0.425   4.156
 8207TIP3   OH224584   7.124   1.099   0.154
 8207TIP3    H124585   7.060   1.028   0.156
 8207TIP3    H224586   7.091   1.161   0.089
 8208TIP3   OH224587   2.456   6.462   2.445
 8208TIP3    H124588   2.417   6.427   2.365
 8208TIP3    H224589   2.534   6.409   2.459
 8209TIP3   OH224590   0.068   5.279   4.397
 8209TIP3    H124591   0.141   5.216   4.399
 8209TIP3    H224592   0.092   5.345   4.461
 8210TIP3   OH224593   3.014   0.175   4.404
 8210TIP3    H124594   2.939   0.131   4.443
 8210TIP3    H224595   3.001   0.168   4.310
 8211TIP3   OH224596   2.515   5.690   5.426
 8211TIP3    H124597   2.520   5.629   5.353
 8211TIP3    H224598   2.578   5.656   5.490
 8212TIP3   OH224599   4.264   6.089   2.612
 8212TIP3    H124600   4.300   6.007   2.646
 8212TIP3    H224601   4.307   6.102   2.528
 8213TIP3   OH224602   4.638   2.627   0.263
 8213TIP3    H124603   4.599   2.708   0.294
 8213TIP3    H224604   4.730   2.649   0.245
 8214TIP3   OH224605   4.571   5.634   3.082
 8214TIP3    H124606   4.641   5.600   3.026
 8214TIP3    H224607   4.493   5.586   3.055
 8215TIP3   OH224608   2.442   3.438   1.458
 8215TIP3    H124609   2.449   3.476   1.371
 8215TIP3    H224610   2.348   3.423   1.471
 8216TIP3   OH224611   5.711   0.334   0.991
 8216TIP3    H124612   5.794   0.288   0.981
 8216TIP3    H224613   5.717   0.410   0.933
 8217TIP3   OH224614   3.891   1.764   1.400
 8217TIP3    H124615   3.961   1.698   1.402
 8217TIP3    H224616   3.837   1.742   1.476
 8218TIP3   OH224617   1.382   4.939   2.873
 8218TIP3    H124618   1.389   5.014   2.813
 8218TIP3    H224619   1.442   4.874   2.836
 8219TIP3   OH224620   2.476   1.887   2.353
 8219TIP3    H124621   2.427   1.809   2.379
 8219TIP3    H224622   2.546   1.894   2.418
 8220TIP3   OH224623   2.055   2.676   4.859
 8220TIP3    H124624   1.972   2.648   4.821
 8220TIP3    H224625   2.111   2.694   4.783
 8221TIP3   OH224626   1.029   1.740   5.273
 8221TIP3    H124627   1.006   1.797   5.346
 8221TIP3    H224628   1.005   1.789   5.195
 8222TIP3   OH224629   2.292   4.418   5.172
 8222TIP3    H124630   2.301   4.336   5.221
 8222TIP3    H224631   2.382   4.445   5.154
 8223TIP3   OH224632   5.815   5.117   4.243
 8223TIP3    H124633   5.898   5.136   4.199
 8223TIP3    H224634   5.783   5.203   4.271
 8224TIP3   OH224635   3.615   5.371   3.514
 8224TIP3    H124636   3.568   5.387   3.596
 8224TIP3    H224637   3.688   5.432   3.515
 8225TIP3   OH224638   2.013   5.687   0.203
 8225TIP3    H124639   1.987   5.688   0.111
 8225TIP3    H224640   1.948   5.741   0.247
 8226TIP3   OH224641   2.748   6.395   1.962
 8226TIP3    H124642   2.697   6.322   1.928
 8226TIP3    H224643   2.830   6.356   1.992
 8227TIP3   OH224644   6.094   1.495   3.647
 8227TIP3    H124645   6.164   1.438   3.616
 8227TIP3    H224646   6.133   1.545   3.718
 8228TIP3   OH224647   1.029   0.145   0.569
 8228TIP3    H124648   1.096   0.080   0.592
 8228TIP3    H224649   0.968   0.142   0.643
 8229TIP3   OH224650   4.118   4.549   0.462
 8229TIP3    H124651   4.139   4.628   0.512
 8229TIP3    H224652   4.198   4.530   0.413
 8230TIP3   OH224653   5.293   0.379   0.835
 8230TIP3    H124654   5.273   0.344   0.921
 8230TIP3    H224655   5.230   0.337   0.776
 8231TIP3   OH224656   1.378   2.379   5.856
 8231TIP3    H124657   1.472   2.397   5.853
 8231TIP3    H224658   1.361   2.322   5.781
 8232TIP3   OH224659   1.680   6.482   5.187
 8232TIP3    H124660   1.716   6.558   5.142
 8232TIP3    H224661   1.752   6.421   5.193
 8233TIP3   OH224662   4.265   3.968   1.502
 8233TIP3    H124663   4.306   3.920   1.574
 8233TIP3    H224664   4.325   3.955   1.428
 8234TIP3   OH224665   5.509   5.303   5.749
 8234TIP3    H124666   5.441   5.310   5.682
 8234TIP3    H224667   5.590   5.326   5.705
 8235TIP3   OH224668   2.241   5.535   3.528
 8235TIP3    H124669   2.202   5.604   3.475
 8235TIP3    H224670   2.289   5.581   3.597
 8236TIP3   OH224671   5.327   0.134   1.788
 8236TIP3    H124672   5.270   0.143   1.712
 8236TIP3    H224673   5.269   0.102   1.858
 8237TIP3   OH224674   3.622   2.653   0.175
 8237TIP3    H124675   3.715   2.633   0.190
 8237TIP3    H224676   3.603   2.726   0.234
 8238TIP3   OH224677   6.196   6.056   4.671
 8238TIP3    H124678   6.267   6.071   4.733
 8238TIP3    H224679   6.237   6.009   4.598
 8239TIP3   OH224680   1.435   1.456   2.861
 8239TIP3    H124681   1.470   1.421   2.779
 8239TIP3    H224682   1.510   1.499   2.902
 8240TIP3   OH224683   0.890   5.828   5.194
 8240TIP3    H124684   0.874   5.838   5.101
 8240TIP3    H224685   0.974   5.781   5.199
 8241TIP3   OH224686   2.940   3.987   1.974
 8241TIP3    H124687   2.852   3.953   1.961
 8241TIP3    H224688   2.929   4.082   1.972
 8242TIP3   OH224689   1.724   3.837   2.763
 8242TIP3    H124690   1.670   3.909   2.730
 8242TIP3    H224691   1.710   3.838   2.857
 8243TIP3   OH224692   6.306   5.837   1.968
 8243TIP3    H124693   6.279   5.919   1.926
 8243TIP3    H224694   6.282   5.847   2.060
 8244TIP3   OH224695   6.615   2.530   0.571
 8244TIP3    H124696   6.583   2.508   0.484
 8244TIP3    H224697   6.660   2.451   0.601
 8245TIP3   OH224698   5.045   0.705   0.404
 8245TIP3    H124699   5.070   0.721   0.495
 8245TIP3    H224700   4.972   0.765   0.388
 8246TIP3   OH224701   3.353   2.389   2.186
 8246TIP3    H124702   3.311   2.462   2.142
 8246TIP3    H224703   3.288   2.358   2.249
 8247TIP3   OH224704   2.612   4.900   0.649
 8247TIP3    H124705   2.640   4.815   0.614
 8247TIP3    H224706   2.596   4.954   0.572
 8248TIP3   OH224707   6.760   4.048   4.787
 8248TIP3    H124708   6.818   3.986   4.831
 8248TIP3    H224709   6.793   4.054   4.698
 8249TIP3   OH224710   0.441   0.934   3.912
 8249TIP3    H124711   0.405   0.917   3.999
 8249TIP3    H224712   0.387   1.005   3.877
 8250TIP3   OH224713   3.379   5.279   1.834
 8250TIP3    H124714   3.386   5.191   1.870
 8250TIP3    H224715   3.448   5.329   1.877
 8251TIP3   OH224716   5.175   6.575   1.263
 8251TIP3    H124717   5.137   6.656   1.296
 8251TIP3    H224718   5.225   6.602   1.186
 8252TIP3   OH224719   6.782   0.472   3.893
 8252TIP3    H124720   6.732   0.546   3.927
 8252TIP3    H224721   6.870   0.484   3.929
 8253TIP3   OH224722   1.189   5.707   5.764
 8253TIP3    H124723   1.171   5.718   5.671
 8253TIP3    H224724   1.157   5.620   5.785
 8254TIP3   OH224725   1.391   3.888   3.613
 8254TIP3    H124726   1.433   3.811   3.576
 8254TIP3    H224727   1.416   3.886   3.706
 8255TIP3   OH224728   3.901   0.401   1.033
 8255TIP3    H124729   3.807   0.421   1.026
 8255TIP3    H224730   3.939   0.480   1.072
 8256TIP3   OH224731   0.675   5.090   4.980
 8256TIP3    H124732   0.712   5.043   4.905
 8256TIP3    H224733   0.583   5.102   4.959
 8257TIP3   OH224734   2.953   0.043   2.146
 8257TIP3    H124735   3.009   0.073   2.075
 8257TIP3    H224736   2.973   0.102   2.219
 8258TIP3   OH224737   1.886   5.387   0.166
 8258TIP3    H124738   1.955   5.347   0.112
 8258TIP3    H224739   1.879   5.476   0.133
 8259TIP3   OH224740   1.250   3.689   5.371
 8259TIP3    H124741   1.240   3.753   5.442
 8259TIP3    H224742   1.162   3.654   5.358
 8260TIP3   OH224743   1.916   5.969   4.375
 8260TIP3    H124744   1.965   6.013   4.305
 8260TIP3    H224745   1.979   5.909   4.414
 8261TIP3   OH224746   5.459   3.907   4.201
 8261TIP3    H124747   5.438   3.863   4.283
 8261TIP3    H224748   5.530   3.967   4.223
 8262TIP3   OH224749   2.655   4.325   1.997
 8262TIP3    H124750   2.621   4.238   2.019
 8262TIP3    H224751   2.746   4.310   1.972
 8263TIP3   OH224752   4.558   1.820   3.014
 8263TIP3    H124753   4.470   1.812   2.977
 8263TIP3    H224754   4.550   1.786   3.103
 8264TIP3   OH224755   0.462   4.782   2.693
 8264TIP3    H124756   0.438   4.748   2.607
 8264TIP3    H224757   0.550   4.746   2.710
 8265TIP3   OH224758   7.144   6.448   1.665
 8265TIP3    H124759   7.139   6.523   1.606
 8265TIP3    H224760   7.150   6.372   1.607
 8266TIP3   OH224761   1.964   0.426   4.692
 8266TIP3    H124762   1.960   0.520   4.674
 8266TIP3    H224763   2.021   0.419   4.769
 8267TIP3   OH224764   5.539   1.786   5.729
 8267TIP3    H124765   5.605   1.750   5.669
 8267TIP3    H224766   5.589   1.812   5.806
 8268TIP3   OH224767   4.597   1.581   0.410
 8268TIP3    H124768   4.622   1.546   0.496
 8268TIP3    H224769   4.578   1.673   0.426
 8269TIP3   OH224770   2.163   0.066   2.779
 8269TIP3    H124771   2.092   0.022   2.733
 8269TIP3    H224772   2.169   0.022   2.863
 8270TIP3   OH224773   6.050   6.444   0.108
 8270TIP3    H124774   6.056   6.516   0.046
 8270TIP3    H224775   5.978   6.390   0.076
 8271TIP3   OH224776   1.233   2.389   1.464
 8271TIP3    H124777   1.274   2.475   1.476
 8271TIP3    H224778   1.214   2.385   1.370
 8272TIP3   OH224779   4.017   1.357   3.335
 8272TIP3    H124780   4.082   1.287   3.340
 8272TIP3    H224781   3.969   1.350   3.417
 8273TIP3   OH224782   4.203   4.799   1.173
 8273TIP3    H124783   4.152   4.826   1.096
 8273TIP3    H224784   4.287   4.770   1.137
 8274TIP3   OH224785   4.807   0.424   2.861
 8274TIP3    H124786   4.793   0.507   2.815
 8274TIP3    H224787   4.871   0.377   2.808
 8275TIP3   OH224788   4.007   4.751   0.940
 8275TIP3    H124789   3.923   4.711   0.965
 8275TIP3    H224790   4.054   4.680   0.896
 8276TIP3   OH224791   6.568   2.798   3.746
 8276TIP3    H124792   6.542   2.707   3.754
 8276TIP3    H224793   6.510   2.833   3.678
 8277TIP3   OH224794   6.847   6.325   2.820
 8277TIP3    H124795   6.890   6.305   2.737
 8277TIP3    H224796   6.917   6.358   2.876
 8278TIP3   OH224797   6.161   2.720   2.028
 8278TIP3    H124798   6.137   2.740   2.118
 8278TIP3    H224799   6.087   2.669   1.994
 8279TIP3   OH224800   4.032   5.115   4.375
 8279TIP3    H124801   4.119   5.144   4.399
 8279TIP3    H224802   3.983   5.195   4.359
 8280TIP3   OH224803   0.586   6.064   4.088
 8280TIP3    H124804   0.621   5.975   4.099
 8280TIP3    H224805   0.532   6.059   4.010
 8281TIP3   OH224806   1.235   2.963   0.389
 8281TIP3    H124807   1.305   2.958   0.453
 8281TIP3    H224808   1.157   2.982   0.440
 8282TIP3   OH224809   5.378   3.769   2.010
 8282TIP3    H124810   5.333   3.807   2.085
 8282TIP3    H224811   5.391   3.842   1.950
 8283TIP3   OH224812   1.706   4.303   1.926
 8283TIP3    H124813   1.763   4.313   1.850
 8283TIP3    H224814   1.660   4.387   1.933
 8284TIP3   OH224815   0.476   0.961   3.572
 8284TIP3    H124816   0.557   0.996   3.536
 8284TIP3    H224817   0.426   0.932   3.495
 8285TIP3   OH224818   6.040   5.422   3.228
 8285TIP3    H124819   6.045   5.333   3.264
 8285TIP3    H224820   6.123   5.463   3.254
 8286TIP3   OH224821   5.516   0.992   0.894
 8286TIP3    H124822   5.520   1.020   0.803
 8286TIP3    H224823   5.563   0.908   0.895
 8287TIP3   OH224824   7.133   4.988   5.260
 8287TIP3    H124825   7.170   4.915   5.210
 8287TIP3    H224826   7.040   4.965   5.270
 8288TIP3   OH224827   1.337   6.651   3.810
 8288TIP3    H124828   1.268   6.585   3.819
 8288TIP3    H224829   1.291   6.733   3.792
 8289TIP3   OH224830   2.968   5.359   1.960
 8289TIP3    H124831   2.956   5.374   1.866
 8289TIP3    H224832   3.031   5.426   1.987
 8290TIP3   OH224833   4.643   1.208   1.744
 8290TIP3    H124834   4.707   1.232   1.677
 8290TIP3    H224835   4.694   1.205   1.825
 8291TIP3   OH224836   2.722   0.228   5.110
 8291TIP3    H124837   2.665   0.259   5.039
 8291TIP3    H224838   2.809   0.261   5.088
 8292TIP3   OH224839   0.317   6.263   5.047
 8292TIP3    H124840   0.340   6.303   5.131
 8292TIP3    H224841   0.259   6.190   5.071
 8293TIP3   OH224842   6.465   3.956   3.363
 8293TIP3    H124843   6.477   4.040   3.319
 8293TIP3    H224844   6.449   3.893   3.292
 8294TIP3   OH224845   7.074   3.537   0.823
 8294TIP3    H124846   7.130   3.516   0.748
 8294TIP3    H224847   7.129   3.522   0.900
 8295TIP3   OH224848   0.224   3.350   0.360
 8295TIP3    H124849   0.298   3.304   0.399
 8295TIP3    H224850   0.242   3.443   0.378
 8296TIP3   OH224851   5.433   1.180   4.852
 8296TIP3    H124852   5.503   1.195   4.788
 8296TIP3    H224853   5.370   1.125   4.806
 8297TIP3   OH224854   2.592   3.879   4.553
 8297TIP3    H124855   2.620   3.801   4.506
 8297TIP3    H224856   2.636   3.873   4.638
 8298TIP3   OH224857   4.188   3.381   1.167
 8298TIP3    H124858   4.277   3.412   1.149
 8298TIP3    H224859   4.200   3.296   1.210
 8299TIP3   OH224860   5.262   4.350   3.058
 8299TIP3    H124861   5.207   4.331   3.134
 8299TIP3    H224862   5.281   4.444   3.066
 8300TIP3   OH224863   4.685   1.512   0.688
 8300TIP3    H124864   4.670   1.463   0.768
 8300TIP3    H224865   4.759   1.569   0.708
 8301TIP3   OH224866   4.517   0.593   1.266
 8301TIP3    H124867   4.492   0.614   1.176
 8301TIP3    H224868   4.525   0.498   1.267
 8302TIP3   OH224869   2.261   3.206   1.220
 8302TIP3    H124870   2.189   3.267   1.234
 8302TIP3    H224871   2.220   3.119   1.225
 8303TIP3   OH224872   2.771   2.510   3.454
 8303TIP3    H124873   2.841   2.572   3.434
 8303TIP3    H224874   2.728   2.495   3.370
 8304TIP3   OH224875   4.469   2.105   2.126
 8304TIP3    H124876   4.412   2.182   2.118
 8304TIP3    H224877   4.486   2.097   2.219
 8305TIP3   OH224878   6.322   3.992   4.924
 8305TIP3    H124879   6.384   4.044   4.976
 8305TIP3    H224880   6.365   3.981   4.840
 8306TIP3   OH224881   2.626   4.470   2.551
 8306TIP3    H124882   2.642   4.452   2.458
 8306TIP3    H224883   2.533   4.449   2.564
 8307TIP3   OH224884   1.164   0.649   4.586
 8307TIP3    H124885   1.202   0.564   4.566
 8307TIP3    H224886   1.072   0.631   4.604
 8308TIP3   OH224887   1.497   1.230   1.669
 8308TIP3    H124888   1.574   1.205   1.619
 8308TIP3    H224889   1.521   1.213   1.760
 8309TIP3   OH224890   2.831   3.743   0.320
 8309TIP3    H124891   2.804   3.820   0.370
 8309TIP3    H224892   2.794   3.758   0.232
 8310TIP3   OH224893   2.546   1.146   0.179
 8310TIP3    H124894   2.525   1.170   0.269
 8310TIP3    H224895   2.462   1.126   0.139
 8311TIP3   OH224896   5.474   2.019   0.143
 8311TIP3    H124897   5.501   2.102   0.106
 8311TIP3    H224898   5.386   2.004   0.108
 8312TIP3   OH224899   3.599   6.576   1.302
 8312TIP3    H124900   3.532   6.518   1.265
 8312TIP3    H224901   3.682   6.533   1.281
 8313TIP3   OH224902   7.059   3.460   5.025
 8313TIP3    H124903   6.970   3.460   5.062
 8313TIP3    H224904   7.088   3.551   5.031
 8314TIP3   OH224905   6.708   4.757   2.685
 8314TIP3    H124906   6.692   4.798   2.770
 8314TIP3    H224907   6.787   4.801   2.652
 8315TIP3   OH224908   5.009   2.677   4.188
 8315TIP3    H124909   4.974   2.759   4.154
 8315TIP3    H224910   4.937   2.615   4.181
 8316TIP3   OH224911   5.184   5.046   5.326
 8316TIP3    H124912   5.208   5.097   5.403
 8316TIP3    H224913   5.114   5.097   5.285
 8317TIP3   OH224914   4.911   0.448   4.675
 8317TIP3    H124915   4.879   0.389   4.607
 8317TIP3    H224916   4.972   0.394   4.727
 8318TIP3   OH224917   1.093   2.035   0.108
 8318TIP3    H124918   1.070   1.955   0.155
 8318TIP3    H224919   1.187   2.045   0.121
 8319TIP3   OH224920   6.835   4.494   5.331
 8319TIP3    H124921   6.776   4.503   5.406
 8319TIP3    H224922   6.817   4.571   5.277
 8320TIP3   OH224923   3.076   5.389   5.138
 8320TIP3    H124924   3.055   5.296   5.136
 8320TIP3    H224925   3.172   5.392   5.142
 8321TIP3   OH224926   2.141   4.632   2.387
 8321TIP3    H124927   2.088   4.553   2.372
 8321TIP3    H224928   2.140   4.678   2.303
 8322TIP3   OH224929   2.022   1.096   5.317
 8322TIP3    H124930   2.090   1.160   5.296
 8322TIP3    H224931   1.951   1.115   5.256
 8323TIP3   OH224932   3.627   5.017   1.582
 8323TIP3    H124933   3.583   4.972   1.655
 8323TIP3    H224934   3.695   4.956   1.554
 8324TIP3   OH224935   1.445   0.644   2.901
 8324TIP3    H124936   1.509   0.579   2.871
 8324TIP3    H224937   1.483   0.728   2.876
 8325TIP3   OH224938   5.380   5.826   1.832
 8325TIP3    H124939   5.343   5.764   1.894
 8325TIP3    H224940   5.391   5.775   1.751
 8326TIP3   OH224941   1.502   6.195   4.678
 8326TIP3    H124942   1.529   6.273   4.727
 8326TIP3    H224943   1.584   6.150   4.658
 8327TIP3   OH224944   3.763   0.700   1.583
 8327TIP3    H124945   3.744   0.619   1.630
 8327TIP3    H224946   3.830   0.744   1.637
 8328TIP3   OH224947   3.120   1.108   1.342
 8328TIP3    H124948   3.064   1.037   1.310
 8328TIP3    H224949   3.080   1.133   1.426
 8329TIP3   OH224950   6.214   0.763   3.350
 8329TIP3    H124951   6.177   0.680   3.380
 8329TIP3    H224952   6.142   0.826   3.360
 8330TIP3   OH224953   1.693   6.760   0.053
 8330TIP3    H124954   1.601   6.755   0.077
 8330TIP3    H224955   1.708   6.681   0.001
 8331TIP3   OH224956   0.996   0.326   1.136
 8331TIP3    H124957   1.029   0.408   1.099
 8331TIP3    H224958   1.068   0.294   1.190
 8332TIP3   OH224959   1.412   6.253   2.400
 8332TIP3    H124960   1.361   6.309   2.342
 8332TIP3    H224961   1.489   6.306   2.423
 8333TIP3   OH224962   0.947   4.193   1.407
 8333TIP3    H124963   1.023   4.174   1.462
 8333TIP3    H224964   0.976   4.267   1.353
 8334TIP3   OH224965   4.795   2.364   3.353
 8334TIP3    H124966   4.817   2.315   3.432
 8334TIP3    H224967   4.814   2.455   3.375
 8335TIP3   OH224968   5.693   6.611   3.694
 8335TIP3    H124969   5.757   6.606   3.623
 8335TIP3    H224970   5.665   6.702   3.694
 8336TIP3   OH224971   1.609   5.623   3.605
 8336TIP3    H124972   1.612   5.529   3.618
 8336TIP3    H224973   1.571   5.634   3.517
 8337TIP3   OH224974   1.735   5.931   3.434
 8337TIP3    H124975   1.706   5.842   3.414
 8337TIP3    H224976   1.792   5.954   3.360
 8338TIP3   OH224977   4.544   2.176   0.625
 8338TIP3    H124978   4.471   2.127   0.586
 8338TIP3    H224979   4.622   2.139   0.584
 8339TIP3   OH224980   3.516   2.959   1.268
 8339TIP3    H124981   3.571   3.032   1.240
 8339TIP3    H224982   3.537   2.888   1.207
 8340TIP3   OH224983   0.170   4.816   4.186
 8340TIP3    H124984   0.118   4.885   4.145
 8340TIP3    H224985   0.105   4.751   4.214
 8341TIP3   OH224986   2.493   3.143   3.297
 8341TIP3    H124987   2.402   3.169   3.315
 8341TIP3    H224988   2.532   3.132   3.384
 8342TIP3   OH224989   3.697   2.290   1.111
 8342TIP3    H124990   3.704   2.226   1.182
 8342TIP3    H224991   3.694   2.374   1.155
 8343TIP3   OH224992   6.878   6.423   2.094
 8343TIP3    H124993   6.875   6.506   2.046
 8343TIP3    H224994   6.970   6.396   2.092
 8344TIP3   OH224995   5.511   0.045  -0.006
 8344TIP3    H124996   5.490   0.092   0.075
 8344TIP3    H224997   5.596   0.078  -0.033
 8345TIP3   OH224998   3.933   5.665   5.651
 8345TIP3    H124999   3.990   5.592   5.626
 8345TIP3    H225000   3.848   5.643   5.613
 8346TIP3   OH225001   1.140   1.680   0.737
 8346TIP3    H125002   1.073   1.717   0.680
 8346TIP3    H225003   1.091   1.634   0.805
 8347TIP3   OH225004   2.423   1.106   5.448
 8347TIP3    H125005   2.515   1.099   5.422
 8347TIP3    H225006   2.381   1.032   5.405
 8348TIP3   OH225007   6.647   1.223   4.132
 8348TIP3    H125008   6.742   1.220   4.119
 8348TIP3    H225009   6.616   1.285   4.067
 8349TIP3   OH225010   4.800   0.785   0.337
 8349TIP3    H125011   4.753   0.709   0.304
 8349TIP3    H225012   4.762   0.803   0.422
 8350TIP3   OH225013   4.952   2.586   3.442
 8350TIP3    H125014   4.901   2.668   3.440
 8350TIP3    H225015   5.002   2.592   3.523
 8351TIP3   OH225016   7.213   1.933   1.950
 8351TIP3    H125017   7.136   1.968   1.906
 8351TIP3    H225018   7.178   1.886   2.026
 8352TIP3   OH225019   1.422   0.097   4.233
 8352TIP3    H125020   1.451   0.048   4.310
 8352TIP3    H225021   1.497   0.095   4.174
 8353TIP3   OH225022   3.777   0.131   5.469
 8353TIP3    H125023   3.690   0.119   5.432
 8353TIP3    H225024   3.836   0.130   5.394
 8354TIP3   OH225025   3.543   0.981   5.251
 8354TIP3    H125026   3.524   0.990   5.344
 8354TIP3    H225027   3.637   0.967   5.247
 8355TIP3   OH225028   5.966   3.133   2.580
 8355TIP3    H125029   6.039   3.187   2.611
 8355TIP3    H225030   5.897   3.196   2.557
 8356TIP3   OH225031   4.385   5.180   1.489
 8356TIP3    H125032   4.292   5.206   1.489
 8356TIP3    H225033   4.399   5.141   1.403
 8357TIP3   OH225034   7.144   3.766   2.260
 8357TIP3    H125035   7.080   3.775   2.189
 8357TIP3    H225036   7.207   3.837   2.245
 8358TIP3   OH225037   4.626   1.359   5.224
 8358TIP3    H125038   4.609   1.349   5.130
 8358TIP3    H225039   4.540   1.377   5.262
 8359TIP3   OH225040   0.078   0.685   4.647
 8359TIP3    H125041   0.054   0.637   4.568
 8359TIP3    H225042   0.016   0.656   4.713
 8360TIP3   OH225043   1.720   0.984   5.808
 8360TIP3    H125044   1.751   0.975   5.717
 8360TIP3    H225045   1.681   1.072   5.811
 8361TIP3   OH225046   3.386   4.775   0.626
 8361TIP3    H125047   3.380   4.855   0.573
 8361TIP3    H225048   3.456   4.793   0.689
 8362TIP3   OH225049   5.446   6.698   3.487
 8362TIP3    H125050   5.354   6.711   3.510
 8362TIP3    H225051   5.480   6.643   3.557
 8363TIP3   OH225052   0.973   4.683   2.647
 8363TIP3    H125053   1.033   4.641   2.586
 8363TIP3    H225054   0.998   4.649   2.733
 8364TIP3   OH225055   5.029   3.661   5.249
 8364TIP3    H125056   5.016   3.638   5.157
 8364TIP3    H225057   4.945   3.699   5.276
 8365TIP3   OH225058   3.675   6.562   5.867
 8365TIP3    H125059   3.676   6.640   5.811
 8365TIP3    H225060   3.598   6.513   5.839
 8366TIP3   OH225061   5.804   3.301   2.129
 8366TIP3    H125062   5.796   3.229   2.192
 8366TIP3    H225063   5.893   3.295   2.096
 8367TIP3   OH225064   6.777   5.561   5.271
 8367TIP3    H125065   6.781   5.640   5.326
 8367TIP3    H225066   6.828   5.496   5.319
 8368TIP3   OH225067   5.209   4.952   1.943
 8368TIP3    H125068   5.278   4.912   1.890
 8368TIP3    H225069   5.246   4.957   2.031
 8369TIP3   OH225070   4.612   3.347   5.684
 8369TIP3    H125071   4.663   3.271   5.655
 8369TIP3    H225072   4.623   3.348   5.779
 8370TIP3   OH225073   5.145   1.150   0.160
 8370TIP3    H125074   5.127   1.090   0.232
 8370TIP3    H225075   5.145   1.237   0.200
 8371TIP3   OH225076   3.853   4.488   4.869
 8371TIP3    H125077   3.862   4.537   4.951
 8371TIP3    H225078   3.942   4.469   4.842
 8372TIP3   OH225079   0.336   0.733   3.263
 8372TIP3    H125080   0.251   0.776   3.271
 8372TIP3    H225081   0.393   0.799   3.225
 8373TIP3   OH225082   5.749   1.068   4.592
 8373TIP3    H125083   5.699   1.144   4.621
 8373TIP3    H225084   5.808   1.048   4.665
 8374TIP3   OH225085   3.262   2.307   5.006
 8374TIP3    H125086   3.240   2.223   4.966
 8374TIP3    H225087   3.178   2.353   5.014
 8375TIP3   OH225088   0.277   5.871   0.371
 8375TIP3    H125089   0.232   5.954   0.386
 8375TIP3    H225090   0.263   5.853   0.279
 8376TIP3   OH225091   7.004   1.866   1.305
 8376TIP3    H125092   7.064   1.872   1.380
 8376TIP3    H225093   6.976   1.957   1.290
 8377TIP3   OH225094   1.207   4.309   2.043
 8377TIP3    H125095   1.259   4.229   2.041
 8377TIP3    H225096   1.160   4.306   2.126
 8378TIP3   OH225097   2.074   4.092   2.437
 8378TIP3    H125098   2.092   4.148   2.512
 8378TIP3    H225099   1.979   4.093   2.427
 8379TIP3   OH225100   3.679   1.139   3.542
 8379TIP3    H125101   3.694   1.121   3.449
 8379TIP3    H225102   3.725   1.222   3.558
 8380TIP3   OH225103   7.182   0.547   5.277
 8380TIP3    H125104   7.205   0.478   5.216
 8380TIP3    H225105   7.103   0.587   5.240
 8381TIP3   OH225106   7.064   0.117   2.322
 8381TIP3    H125107   7.065   0.202   2.365
 8381TIP3    H225108   7.079   0.137   2.229
 8382TIP3   OH225109   3.889   2.003   2.428
 8382TIP3    H125110   3.852   1.935   2.371
 8382TIP3    H225111   3.972   2.027   2.386
 8383TIP3   OH225112   3.061   4.455   4.345
 8383TIP3    H125113   3.138   4.423   4.392
 8383TIP3    H225114   3.097   4.501   4.269
 8384TIP3   OH225115   2.352   6.295   2.889
 8384TIP3    H125116   2.268   6.324   2.855
 8384TIP3    H225117   2.330   6.241   2.966
 8385TIP3   OH225118   1.270   0.055   1.102
 8385TIP3    H125119   1.274   0.118   1.174
 8385TIP3    H225120   1.351   0.070   1.053
 8386TIP3   OH225121   5.716   2.478   3.697
 8386TIP3    H125122   5.715   2.428   3.779
 8386TIP3    H225123   5.711   2.569   3.724
 8387TIP3   OH225124   2.415   0.651   1.938
 8387TIP3    H125125   2.421   0.746   1.938
 8387TIP3    H225126   2.321   0.633   1.935
 8388TIP3   OH225127   2.220   3.871   0.974
 8388TIP3    H125128   2.226   3.822   1.055
 8388TIP3    H225129   2.207   3.805   0.906
 8389TIP3   OH225130   2.320   5.923   5.471
 8389TIP3    H125131   2.285   5.949   5.385
 8389TIP3    H225132   2.375   5.847   5.453
 8390TIP3   OH225133   3.021   3.292   5.403
 8390TIP3    H125134   2.985   3.312   5.316
 8390TIP3    H225135   2.944   3.281   5.459
 8391TIP3   OH225136   1.299   1.163   4.163
 8391TIP3    H125137   1.327   1.242   4.209
 8391TIP3    H225138   1.205   1.172   4.154
 8392TIP3   OH225139   5.873   3.986   5.641
 8392TIP3    H125140   5.890   3.982   5.546
 8392TIP3    H225141   5.947   3.940   5.680
 8393TIP3   OH225142   6.359   5.384   1.475
 8393TIP3    H125143   6.347   5.461   1.419
 8393TIP3    H225144   6.371   5.311   1.414
 8394TIP3   OH225145   4.658   6.186   4.788
 8394TIP3    H125146   4.611   6.266   4.762
 8394TIP3    H225147   4.609   6.153   4.863
 8395TIP3   OH225148   6.013   5.123   5.130
 8395TIP3    H125149   6.062   5.045   5.157
 8395TIP3    H225150   6.046   5.142   5.042
 8396TIP3   OH225151   1.987   3.116   4.102
 8396TIP3    H125152   1.945   3.146   4.183
 8396TIP3    H225153   1.987   3.193   4.045
 8397TIP3   OH225154   1.211   4.119   4.002
 8397TIP3    H125155   1.204   4.114   3.907
 8397TIP3    H225156   1.127   4.153   4.031
 8398TIP3   OH225157   7.230   1.930   4.596
 8398TIP3    H125158   7.233   1.848   4.548
 8398TIP3    H225159   7.285   1.990   4.546
 8399TIP3   OH225160   3.729   2.793   0.817
 8399TIP3    H125161   3.685   2.720   0.862
 8399TIP3    H225162   3.767   2.753   0.739
 8400TIP3   OH225163   2.115   1.809   0.377
 8400TIP3    H125164   2.205   1.775   0.371
 8400TIP3    H225165   2.123   1.900   0.350
 8401TIP3   OH225166   6.882   0.394   4.210
 8401TIP3    H125167   6.878   0.439   4.294
 8401TIP3    H225168   6.799   0.347   4.203
 8402TIP3   OH225169   7.171   4.626   5.566
 8402TIP3    H125170   7.140   4.541   5.597
 8402TIP3    H225171   7.105   4.688   5.596
 8403TIP3   OH225172   0.278   3.021   5.578
 8403TIP3    H125173   0.336   3.088   5.542
 8403TIP3    H225174   0.302   2.941   5.533
 8404TIP3   OH225175   5.257   2.725   2.895
 8404TIP3    H125176   5.283   2.765   2.978
 8404TIP3    H225177   5.338   2.716   2.845
 8405TIP3   OH225178   2.019   0.305   2.837
 8405TIP3    H125179   2.059   0.222   2.811
 8405TIP3    H225180   1.925   0.288   2.832
 8406TIP3   OH225181   2.330   6.246   1.746
 8406TIP3    H125182   2.353   6.210   1.660
 8406TIP3    H225183   2.240   6.217   1.761
 8407TIP3   OH225184   6.545   3.500   4.658
 8407TIP3    H125185   6.636   3.497   4.689
 8407TIP3    H225186   6.545   3.570   4.592
 8408TIP3   OH225187   2.124   2.587   0.373
 8408TIP3    H125188   2.161   2.512   0.327
 8408TIP3    H225189   2.168   2.663   0.335
 8409TIP3   OH225190   2.715   1.121   5.453
 8409TIP3    H125191   2.759   1.082   5.378
 8409TIP3    H225192   2.782   1.124   5.521
 8410TIP3   OH225193   3.208   4.134   1.184
 8410TIP3    H125194   3.172   4.222   1.193
 8410TIP3    H225195   3.140   4.085   1.137
 8411TIP3   OH225196   1.737   0.390   2.502
 8411TIP3    H125197   1.792   0.430   2.570
 8411TIP3    H225198   1.704   0.310   2.543
 8412TIP3   OH225199   2.074   2.302   1.789
 8412TIP3    H125200   2.106   2.380   1.743
 8412TIP3    H225201   2.063   2.331   1.880
 8413TIP3   OH225202   1.226   2.844   0.137
 8413TIP3    H125203   1.242   2.881   0.224
 8413TIP3    H225204   1.130   2.847   0.127
 8414TIP3   OH225205   3.171   4.644   1.681
 8414TIP3    H125206   3.202   4.560   1.714
 8414TIP3    H225207   3.091   4.623   1.632
 8415TIP3   OH225208   4.164   2.748   2.425
 8415TIP3    H125209   4.074   2.756   2.394
 8415TIP3    H225210   4.211   2.821   2.382
 8416TIP3   OH225211   2.786   1.641   3.194
 8416TIP3    H125212   2.873   1.673   3.170
 8416TIP3    H225213   2.772   1.674   3.283
 8417TIP3   OH225214   4.534   4.921   4.997
 8417TIP3    H125215   4.501   5.008   5.019
 8417TIP3    H225216   4.468   4.885   4.937
 8418TIP3   OH225217   6.636   2.446   0.307
 8418TIP3    H125218   6.719   2.400   0.314
 8418TIP3    H225219   6.642   2.494   0.225
 8419TIP3   OH225220   5.029   0.027   2.798
 8419TIP3    H125221   5.089   0.061   2.864
 8419TIP3    H225222   5.072  -0.053   2.766
 8420TIP3   OH225223   0.227   6.711   3.087
 8420TIP3    H125224   0.297   6.751   3.138
 8420TIP3    H225225   0.269   6.682   3.006
 8421TIP3   OH225226   6.005   2.437   5.086
 8421TIP3    H125227   6.012   2.489   5.006
 8421TIP3    H225228   5.970   2.497   5.151
 8422TIP3   OH225229   1.991   3.263   0.943
 8422TIP3    H125230   2.012   3.213   1.022
 8422TIP3    H225231   1.906   3.229   0.915
 8423TIP3   OH225232   0.536   0.149   0.530
 8423TIP3    H125233   0.614   0.094   0.522
 8423TIP3    H225234   0.554   0.224   0.474
 8424TIP3   OH225235   6.531   4.309   0.998
 8424TIP3    H125236   6.585   4.382   1.029
 8424TIP3    H225237   6.452   4.315   1.052
 8425TIP3   OH225238   4.754   2.845   5.579
 8425TIP3    H125239   4.813   2.824   5.651
 8425TIP3    H225240   4.701   2.766   5.569
 8426TIP3   OH225241   3.490   2.862   1.940
 8426TIP3    H125242   3.508   2.799   2.010
 8426TIP3    H225243   3.423   2.820   1.886
 8427TIP3   OH225244   3.049   4.670   3.668
 8427TIP3    H125245   3.095   4.730   3.727
 8427TIP3    H225246   3.009   4.605   3.725
 8428TIP3   OH225247   3.260   1.588   1.065
 8428TIP3    H125248   3.308   1.510   1.039
 8428TIP3    H225249   3.306   1.620   1.143
 8429TIP3   OH225250   0.788   6.148   1.903
 8429TIP3    H125251   0.795   6.212   1.974
 8429TIP3    H225252   0.803   6.200   1.823
 8430TIP3   OH225253   3.857   4.277   1.736
 8430TIP3    H125254   3.902   4.249   1.815
 8430TIP3    H225255   3.775   4.315   1.768
 8431TIP3   OH225256   2.124   1.199   5.806
 8431TIP3    H125257   2.123   1.133   5.737
 8431TIP3    H225258   2.204   1.250   5.788
 8432TIP3   OH225259   3.956   5.340   5.479
 8432TIP3    H125260   3.984   5.254   5.446
 8432TIP3    H225261   3.923   5.322   5.567
 8433TIP3   OH225262   4.326   6.557   2.974
 8433TIP3    H125263   4.251   6.503   2.949
 8433TIP3    H225264   4.287   6.639   3.004
 8434TIP3   OH225265   5.451   0.694   3.167
 8434TIP3    H125266   5.362   0.712   3.136
 8434TIP3    H225267   5.507   0.724   3.096
 8435TIP3   OH225268   2.976   5.905   2.761
 8435TIP3    H125269   3.040   5.838   2.785
 8435TIP3    H225270   2.953   5.947   2.843
 8436TIP3   OH225271   3.874   1.174   3.860
 8436TIP3    H125272   3.820   1.241   3.817
 8436TIP3    H225273   3.852   1.184   3.953
 8437TIP3   OH225274   2.736   6.624   5.739
 8437TIP3    H125275   2.760   6.578   5.659
 8437TIP3    H225276   2.790   6.703   5.738
 8438TIP3   OH225277   3.068   4.171   1.726
 8438TIP3    H125278   3.071   4.224   1.806
 8438TIP3    H225279   3.093   4.083   1.754
 8439TIP3   OH225280   7.138   4.376   4.988
 8439TIP3    H125281   7.182   4.434   4.926
 8439TIP3    H225282   7.100   4.307   4.934
 8440TIP3   OH225283   4.967   0.187   3.547
 8440TIP3    H125284   4.978   0.274   3.584
 8440TIP3    H225285   5.056   0.156   3.531
 8441TIP3   OH225286   2.359   4.228   0.807
 8441TIP3    H125287   2.309   4.309   0.793
 8441TIP3    H225288   2.373   4.194   0.718
 8442TIP3   OH225289   2.409   4.421   4.839
 8442TIP3    H125290   2.429   4.510   4.870
 8442TIP3    H225291   2.449   4.417   4.752
 8443TIP3   OH225292   5.848   3.964   3.478
 8443TIP3    H125293   5.796   4.017   3.539
 8443TIP3    H225294   5.848   3.876   3.517
 8444TIP3   OH225295   1.809   4.008   4.550
 8444TIP3    H125296   1.750   4.080   4.574
 8444TIP3    H225297   1.882   4.051   4.505
 8445TIP3   OH225298   4.737   4.400   3.658
 8445TIP3    H125299   4.756   4.325   3.602
 8445TIP3    H225300   4.752   4.367   3.747
 8446TIP3   OH225301   5.191   2.502   0.547
 8446TIP3    H125302   5.114   2.465   0.589
 8446TIP3    H225303   5.205   2.448   0.469
 8447TIP3   OH225304   3.371   2.102   4.219
 8447TIP3    H125305   3.351   2.148   4.300
 8447TIP3    H225306   3.353   2.165   4.150
 8448TIP3   OH225307   0.237   2.941   4.122
 8448TIP3    H125308   0.314   2.886   4.111
 8448TIP3    H225309   0.262   3.025   4.084
 8449TIP3   OH225310   3.152   1.424   2.987
 8449TIP3    H125311   3.157   1.473   3.069
 8449TIP3    H225312   3.078   1.365   3.000
 8450TIP3   OH225313   0.961   0.456   5.554
 8450TIP3    H125314   1.021   0.522   5.589
 8450TIP3    H225315   0.930   0.492   5.471
 8451TIP3   OH225316   4.020   2.394   5.191
 8451TIP3    H125317   4.026   2.299   5.190
 8451TIP3    H225318   3.949   2.413   5.252
 8452TIP3   OH225319   4.042   0.759   1.407
 8452TIP3    H125320   4.099   0.735   1.481
 8452TIP3    H225321   3.963   0.792   1.449
 8453TIP3   OH225322   6.035   6.736   1.397
 8453TIP3    H125323   6.090   6.744   1.476
 8453TIP3    H225324   5.959   6.687   1.427
 8454TIP3   OH225325   3.249   3.013   2.165
 8454TIP3    H125326   3.184   3.057   2.220
 8454TIP3    H225327   3.214   3.021   2.076
 8455TIP3   OH225328   2.280   4.143   5.236
 8455TIP3    H125329   2.332   4.071   5.273
 8455TIP3    H225330   2.190   4.110   5.234
 8456TIP3   OH225331   5.471   2.557   0.488
 8456TIP3    H125332   5.495   2.469   0.460
 8456TIP3    H225333   5.381   2.549   0.519
 8457TIP3   OH225334   5.267   3.217   5.317
 8457TIP3    H125335   5.295   3.262   5.397
 8457TIP3    H225336   5.343   3.164   5.292
 8458TIP3   OH225337   3.928   3.455   1.872
 8458TIP3    H125338   3.860   3.507   1.914
 8458TIP3    H225339   3.921   3.478   1.779
 8459TIP3   OH225340   5.584   5.252   0.406
 8459TIP3    H125341   5.537   5.222   0.329
 8459TIP3    H225342   5.520   5.304   0.454
 8460TIP3   OH225343   6.119   3.382   3.109
 8460TIP3    H125344   6.024   3.374   3.101
 8460TIP3    H225345   6.144   3.442   3.039
 8461TIP3   OH225346   1.704   5.713   1.357
 8461TIP3    H125347   1.687   5.787   1.299
 8461TIP3    H225348   1.800   5.707   1.360
 8462TIP3   OH225349   3.760   3.338   4.840
 8462TIP3    H125350   3.673   3.326   4.800
 8462TIP3    H225351   3.801   3.407   4.788
 8463TIP3   OH225352   1.954   4.247   4.464
 8463TIP3    H125353   1.985   4.277   4.550
 8463TIP3    H225354   1.869   4.288   4.453
 8464TIP3   OH225355   6.606   4.273   1.668
 8464TIP3    H125356   6.646   4.265   1.581
 8464TIP3    H225357   6.635   4.195   1.715
 8465TIP3   OH225358   3.426   3.549   3.883
 8465TIP3    H125359   3.454   3.637   3.907
 8465TIP3    H225360   3.478   3.491   3.939
 8466TIP3   OH225361   0.306   1.573   0.125
 8466TIP3    H125362   0.390   1.565   0.079
 8466TIP3    H225363   0.268   1.486   0.120
 8467TIP3   OH225364   0.579   1.839   1.442
 8467TIP3    H125365   0.667   1.875   1.447
 8467TIP3    H225366   0.587   1.751   1.480
 8468TIP3   OH225367   4.920   6.354   3.754
 8468TIP3    H125368   4.932   6.410   3.678
 8468TIP3    H225369   4.862   6.284   3.724
 8469TIP3   OH225370   1.111   3.293   4.307
 8469TIP3    H125371   1.104   3.322   4.398
 8469TIP3    H225372   1.020   3.284   4.279
 8470TIP3   OH225373   1.418   5.713   2.881
 8470TIP3    H125374   1.404   5.619   2.880
 8470TIP3    H225375   1.358   5.747   2.814
 8471TIP3   OH225376   4.156   6.436   5.612
 8471TIP3    H125377   4.166   6.356   5.560
 8471TIP3    H225378   4.159   6.406   5.703
 8472TIP3   OH225379   5.576   3.683   4.093
 8472TIP3    H125380   5.636   3.692   4.168
 8472TIP3    H225381   5.520   3.760   4.099
 8473TIP3   OH225382   0.451   2.782   4.075
 8473TIP3    H125383   0.492   2.696   4.070
 8473TIP3    H225384   0.460   2.818   3.986
 8474TIP3   OH225385   4.968   4.953   0.712
 8474TIP3    H125386   5.019   5.023   0.671
 8474TIP3    H225387   5.024   4.875   0.705
 8475TIP3   OH225388   0.139   6.641   3.899
 8475TIP3    H125389   0.129   6.729   3.934
 8475TIP3    H225390   0.104   6.584   3.967
 8476TIP3   OH225391   6.063   2.311   0.303
 8476TIP3    H125392   6.023   2.389   0.265
 8476TIP3    H225393   6.151   2.308   0.265
 8477TIP3   OH225394   6.024   0.574   3.413
 8477TIP3    H125395   6.000   0.540   3.499
 8477TIP3    H225396   5.965   0.530   3.352
 8478TIP3   OH225397   5.314   0.116   0.186
 8478TIP3    H125398   5.335   0.150   0.272
 8478TIP3    H225399   5.220   0.098   0.190
 8479TIP3   OH225400   5.474   4.188   1.063
 8479TIP3    H125401   5.404   4.253   1.059
 8479TIP3    H225402   5.555   4.241   1.061
 8480TIP3   OH225403   1.976   4.910   3.680
 8480TIP3    H125404   2.065   4.932   3.654
 8480TIP3    H225405   1.946   4.847   3.615
 8481TIP3   OH225406   5.138   2.960   2.395
 8481TIP3    H125407   5.191   2.898   2.346
 8481TIP3    H225408   5.161   2.943   2.487
 8482TIP3   OH225409   4.754   2.448   0.457
 8482TIP3    H125410   4.723   2.488   0.376
 8482TIP3    H225411   4.753   2.354   0.439
 8483TIP3   OH225412  -0.012   6.341   3.864
 8483TIP3    H125413  -0.022   6.390   3.946
 8483TIP3    H225414   0.028   6.258   3.891
 8484TIP3   OH225415   1.481   6.748   0.827
 8484TIP3    H125416   1.494   6.686   0.756
 8484TIP3    H225417   1.562   6.745   0.877
 8485TIP3   OH225418   3.714   4.455   1.222
 8485TIP3    H125419   3.619   4.456   1.231
 8485TIP3    H225420   3.746   4.455   1.312
 8486TIP3   OH225421   0.818   0.440   5.076
 8486TIP3    H125422   0.799   0.467   5.166
 8486TIP3    H225423   0.905   0.400   5.080
 8487TIP3   OH225424   3.420   4.337   4.037
 8487TIP3    H125425   3.426   4.299   3.950
 8487TIP3    H225426   3.444   4.429   4.026
 8488TIP3   OH225427   6.340   0.963   0.812
 8488TIP3    H125428   6.289   0.904   0.868
 8488TIP3    H225429   6.280   1.037   0.796
 8489TIP3   OH225430   3.197   0.871   1.964
 8489TIP3    H125431   3.285   0.908   1.951
 8489TIP3    H225432   3.156   0.929   2.027
 8490TIP3   OH225433   0.923   3.372   5.042
 8490TIP3    H125434   0.940   3.462   5.068
 8490TIP3    H225435   1.007   3.327   5.052
 8491TIP3   OH225436   4.916   6.319   0.206
 8491TIP3    H125437   4.826   6.350   0.208
 8491TIP3    H225438   4.909   6.224   0.213
 8492TIP3   OH225439   0.329   0.584   4.747
 8492TIP3    H125440   0.392   0.653   4.727
 8492TIP3    H225441   0.245   0.620   4.718
 8493TIP3   OH225442   3.223   6.145   3.822
 8493TIP3    H125443   3.237   6.129   3.728
 8493TIP3    H225444   3.311   6.150   3.859
 8494TIP3   OH225445   5.795   0.765   5.149
 8494TIP3    H125446   5.881   0.755   5.190
 8494TIP3    H225447   5.734   0.773   5.221
 8495TIP3   OH225448   2.284   6.177   4.492
 8495TIP3    H125449   2.319   6.248   4.438
 8495TIP3    H225450   2.309   6.097   4.445
 8496TIP3   OH225451   3.999   2.779   5.195
 8496TIP3    H125452   4.009   2.849   5.130
 8496TIP3    H225453   4.034   2.701   5.151
 8497TIP3   OH225454   1.372   1.417   3.314
 8497TIP3    H125455   1.313   1.397   3.386
 8497TIP3    H225456   1.459   1.399   3.348
 8498TIP3   OH225457   5.812   5.427   0.461
 8498TIP3    H125458   5.740   5.365   0.461
 8498TIP3    H225459   5.869   5.400   0.533
 8499TIP3   OH225460   1.096   6.823   1.658
 8499TIP3    H125461   1.060   6.808   1.745
 8499TIP3    H225462   1.070   6.746   1.607
 8500TIP3   OH225463   6.210   1.609   0.042
 8500TIP3    H125464   6.258   1.570  -0.031
 8500TIP3    H225465   6.192   1.536   0.101
 8501TIP3   OH225466   4.234   3.914   4.408
 8501TIP3    H125467   4.278   3.998   4.396
 8501TIP3    H225468   4.294   3.863   4.463
 8502TIP3   OH225469   2.559   3.272   0.364
 8502TIP3    H125470   2.511   3.329   0.304
 8502TIP3    H225471   2.554   3.185   0.324
 8503TIP3   OH225472   5.780   6.383   0.921
 8503TIP3    H125473   5.739   6.430   0.993
 8503TIP3    H225474   5.734   6.299   0.918
 8504TIP3   OH225475   0.291   6.200   0.943
 8504TIP3    H125476   0.341   6.251   0.880
 8504TIP3    H225477   0.215   6.169   0.895
 8505TIP3   OH225478   2.992   3.059   0.745
 8505TIP3    H125479   2.927   3.120   0.779
 8505TIP3    H225480   3.074   3.109   0.745
 8506TIP3   OH225481   3.869   3.365   5.103
 8506TIP3    H125482   3.827   3.447   5.129
 8506TIP3    H225483   3.837   3.349   5.014
 8507TIP3   OH225484   4.361   3.351   4.750
 8507TIP3    H125485   4.428   3.288   4.725
 8507TIP3    H225486   4.338   3.395   4.668
 8508TIP3   OH225487   3.163   2.521   2.048
 8508TIP3    H125488   3.081   2.490   2.085
 8508TIP3    H225489   3.167   2.614   2.072
 8509TIP3   OH225490   4.966   0.490   0.068
 8509TIP3    H125491   4.955   0.583   0.086
 8509TIP3    H225492   4.968   0.484  -0.027
 8510TIP3   OH225493   3.261   2.002   1.017
 8510TIP3    H125494   3.296   2.077   0.969
 8510TIP3    H225495   3.208   1.955   0.954
 8511TIP3   OH225496   0.649   0.013   2.089
 8511TIP3    H125497   0.691  -0.006   2.173
 8511TIP3    H225498   0.568   0.058   2.111
 8512TIP3   OH225499   0.717   2.776   5.099
 8512TIP3    H125500   0.679   2.858   5.069
 8512TIP3    H225501   0.725   2.723   5.020
 8513TIP3   OH225502   5.681   4.788   5.210
 8513TIP3    H125503   5.609   4.729   5.187
 8513TIP3    H225504   5.645   4.876   5.197
 8514TIP3   OH225505   1.446   0.866   2.172
 8514TIP3    H125506   1.469   0.810   2.246
 8514TIP3    H225507   1.511   0.936   2.173
 8515TIP3   OH225508   4.242   1.564   0.513
 8515TIP3    H125509   4.225   1.541   0.421
 8515TIP3    H225510   4.162   1.605   0.543
 8516TIP3   OH225511   3.074   1.817   1.958
 8516TIP3    H125512   3.004   1.877   1.931
 8516TIP3    H225513   3.042   1.779   2.040
 8517TIP3   OH225514   1.366   0.904   4.992
 8517TIP3    H125515   1.303   0.968   4.958
 8517TIP3    H225516   1.384   0.846   4.918
 8518TIP3   OH225517   4.157   2.749   4.136
 8518TIP3    H125518   4.175   2.663   4.098
 8518TIP3    H225519   4.076   2.778   4.095
 8519TIP3   OH225520   5.541   6.283   2.616
 8519TIP3    H125521   5.494   6.365   2.600
 8519TIP3    H225522   5.611   6.283   2.551
 8520TIP3   OH225523   1.687   1.605   0.247
 8520TIP3    H125524   1.652   1.687   0.281
 8520TIP3    H225525   1.748   1.575   0.315
 8521TIP3   OH225526   4.825   5.022   1.520
 8521TIP3    H125527   4.780   4.938   1.509
 8521TIP3    H225528   4.913   4.997   1.549
 8522TIP3   OH225529   2.005   1.258   4.427
 8522TIP3    H125530   1.929   1.200   4.438
 8522TIP3    H225531   2.080   1.202   4.443
 8523TIP3   OH225532   1.842   6.182   4.630
 8523TIP3    H125533   1.902   6.206   4.560
 8523TIP3    H225534   1.780   6.122   4.588
 8524TIP3   OH225535   3.866   1.892   1.145
 8524TIP3    H125536   3.939   1.924   1.092
 8524TIP3    H225537   3.907   1.855   1.223
 8525TIP3   OH225538   2.424   1.922   4.554
 8525TIP3    H125539   2.379   2.000   4.521
 8525TIP3    H225540   2.388   1.910   4.642
 8526TIP3   OH225541   0.386   3.185   3.230
 8526TIP3    H125542   0.330   3.212   3.302
 8526TIP3    H225543   0.451   3.255   3.223
 8527TIP3   OH225544   6.241   4.539   4.097
 8527TIP3    H125545   6.253   4.579   4.184
 8527TIP3    H225546   6.251   4.445   4.112
 8528TIP3   OH225547   3.052   5.623   5.416
 8528TIP3    H125548   2.991   5.581   5.355
 8528TIP3    H225549   3.130   5.643   5.363
 8529TIP3   OH225550   0.309   6.684   1.193
 8529TIP3    H125551   0.360   6.758   1.159
 8529TIP3    H225552   0.365   6.645   1.260
 8530TIP3   OH225553   0.337   2.719   0.145
 8530TIP3    H125554   0.389   2.792   0.108
 8530TIP3    H225555   0.324   2.660   0.071
 8531TIP3   OH225556   6.836   1.927   2.973
 8531TIP3    H125557   6.848   1.979   2.893
 8531TIP3    H225558   6.864   1.839   2.949
 8532TIP3   OH225559   2.982   0.684   1.140
 8532TIP3    H125560   2.900   0.633   1.136
 8532TIP3    H225561   3.050   0.622   1.114
 8533TIP3   OH225562   4.093   3.433   0.220
 8533TIP3    H125563   4.012   3.485   0.213
 8533TIP3    H225564   4.159   3.486   0.175
 8534TIP3   OH225565   3.925   5.363   0.822
 8534TIP3    H125566   3.998   5.425   0.830
 8534TIP3    H225567   3.884   5.386   0.738
 8535TIP3   OH225568   1.077   2.009   4.187
 8535TIP3    H125569   1.123   2.003   4.103
 8535TIP3    H225570   1.137   2.057   4.243
 8536TIP3   OH225571   6.325   4.657   1.455
 8536TIP3    H125572   6.231   4.642   1.464
 8536TIP3    H225573   6.337   4.678   1.362
 8537TIP3   OH225574   7.219   4.072   2.581
 8537TIP3    H125575   7.147   4.077   2.518
 8537TIP3    H225576   7.181   4.026   2.656
 8538TIP3   OH225577   5.644   4.341   0.025
 8538TIP3    H125578   5.671   4.433   0.022
 8538TIP3    H225579   5.553   4.342  -0.007
 8539TIP3   OH225580   6.557   6.550   4.714
 8539TIP3    H125581   6.561   6.621   4.649
 8539TIP3    H225582   6.495   6.487   4.678
 8540TIP3   OH225583   4.046   1.365   1.095
 8540TIP3    H125584   4.016   1.397   1.180
 8540TIP3    H225585   4.031   1.439   1.036
 8541TIP3   OH225586   1.027   2.631   1.257
 8541TIP3    H125587   1.046   2.645   1.349
 8541TIP3    H225588   0.936   2.660   1.246
 8542TIP3   OH225589   5.627  -0.022   1.380
 8542TIP3    H125590   5.642   0.038   1.307
 8542TIP3    H225591   5.612   0.035   1.456
 8543TIP3   OH225592   3.612   3.968   0.319
 8543TIP3    H125593   3.618   3.897   0.254
 8543TIP3    H225594   3.691   4.020   0.304
 8544TIP3   OH225595   1.378   5.222   0.810
 8544TIP3    H125596   1.349   5.283   0.877
 8544TIP3    H225597   1.470   5.245   0.794
 8545TIP3   OH225598   5.061   4.703   0.600
 8545TIP3    H125599   5.133   4.723   0.540
 8545TIP3    H225600   4.985   4.687   0.543
 8546TIP3   OH225601   0.612   3.345   3.169
 8546TIP3    H125602   0.582   3.345   3.078
 8546TIP3    H225603   0.707   3.335   3.163
 8547TIP3   OH225604   1.310   6.792   2.783
 8547TIP3    H125605   1.385   6.760   2.833
 8547TIP3    H225606   1.342   6.798   2.693
 8548TIP3   OH225607   0.231   4.530   5.555
 8548TIP3    H125608   0.137   4.518   5.541
 8548TIP3    H225609   0.239   4.551   5.648
 8549TIP3   OH225610   1.423   4.231   1.105
 8549TIP3    H125611   1.482   4.168   1.145
 8549TIP3    H225612   1.478   4.280   1.043
 8550TIP3   OH225613   0.177   6.381   2.407
 8550TIP3    H125614   0.196   6.426   2.490
 8550TIP3    H225615   0.261   6.377   2.362
 8551TIP3   OH225616   5.306   3.540   5.529
 8551TIP3    H125617   5.378   3.564   5.471
 8551TIP3    H225618   5.267   3.623   5.555
 8552TIP3   OH225619   4.756   2.557   5.602
 8552TIP3    H125620   4.801   2.478   5.632
 8552TIP3    H225621   4.749   2.546   5.507
 8553TIP3   OH225622   5.267   3.809   2.310
 8553TIP3    H125623   5.218   3.864   2.249
 8553TIP3    H225624   5.211   3.803   2.388
 8554TIP3   OH225625   1.036   1.044   0.980
 8554TIP3    H125626   1.116   1.065   0.932
 8554TIP3    H225627   0.971   1.024   0.912
 8555TIP3   OH225628   0.499   4.083   3.782
 8555TIP3    H125629   0.565   4.139   3.824
 8555TIP3    H225630   0.540   4.054   3.700
 8556TIP3   OH225631   1.943   6.023   3.077
 8556TIP3    H125632   1.978   6.063   3.157
 8556TIP3    H225633   1.939   5.929   3.098
 8557TIP3   OH225634   5.898   0.193   2.139
 8557TIP3    H125635   5.844   0.191   2.060
 8557TIP3    H225636   5.977   0.145   2.115
 8558TIP3   OH225637   5.072   6.622   1.863
 8558TIP3    H125638   5.128   6.562   1.914
 8558TIP3    H225639   5.100   6.608   1.772
 8559TIP3   OH225640   7.013   0.901   4.936
 8559TIP3    H125641   7.018   0.984   4.982
 8559TIP3    H225642   6.920   0.890   4.916
 8560TIP3   OH225643   6.980   4.266   4.807
 8560TIP3    H125644   6.901   4.213   4.795
 8560TIP3    H225645   7.009   4.286   4.718
 8561TIP3   OH225646   4.449   1.342   4.463
 8561TIP3    H125647   4.424   1.400   4.391
 8561TIP3    H225648   4.540   1.319   4.444
 8562TIP3   OH225649   1.404   5.025   4.209
 8562TIP3    H125650   1.404   5.057   4.299
 8562TIP3    H225651   1.367   5.098   4.159
 8563TIP3   OH225652   1.665   6.004   4.507
 8563TIP3    H125653   1.589   5.952   4.481
 8563TIP3    H225654   1.730   5.986   4.440
 8564TIP3   OH225655   0.864   3.211   3.420
 8564TIP3    H125656   0.809   3.253   3.354
 8564TIP3    H225657   0.944   3.188   3.372
 8565TIP3   OH225658   5.361   2.560   4.760
 8565TIP3    H125659   5.319   2.488   4.713
 8565TIP3    H225660   5.292   2.597   4.813
 8566TIP3   OH225661   3.694   0.827   0.040
 8566TIP3    H125662   3.715   0.748  -0.010
 8566TIP3    H225663   3.770   0.839   0.098
 8567TIP3   OH225664   6.219   1.917   1.774
 8567TIP3    H125665   6.276   1.870   1.713
 8567TIP3    H225666   6.137   1.928   1.726
 8568TIP3   OH225667   4.972   0.181   5.721
 8568TIP3    H125668   4.929   0.166   5.637
 8568TIP3    H225669   4.901   0.176   5.785
 8569TIP3   OH225670   2.933   0.611   4.339
 8569TIP3    H125671   2.880   0.577   4.267
 8569TIP3    H225672   2.966   0.695   4.308
 8570TIP3   OH225673   1.657   0.711   2.651
 8570TIP3    H125674   1.749   0.711   2.625
 8570TIP3    H225675   1.629   0.803   2.643
 8571TIP3   OH225676   1.090   4.307   3.404
 8571TIP3    H125677   1.084   4.215   3.378
 8571TIP3    H225678   1.137   4.305   3.487
 8572TIP3   OH225679   5.789   0.502   2.786
 8572TIP3    H125680   5.863   0.557   2.761
 8572TIP3    H225681   5.715   0.538   2.736
 8573TIP3   OH225682   6.099   6.284   1.027
 8573TIP3    H125683   6.194   6.297   1.027
 8573TIP3    H225684   6.067   6.338   0.955
 8574TIP3   OH225685   3.632   1.447   1.704
 8574TIP3    H125686   3.575   1.372   1.687
 8574TIP3    H225687   3.590   1.493   1.777
 8575TIP3   OH225688   0.941   2.533   3.870
 8575TIP3    H125689   0.861   2.556   3.822
 8575TIP3    H225690   0.989   2.615   3.877
 8576TIP3   OH225691   5.816   0.036   0.163
 8576TIP3    H125692   5.825   0.131   0.166
 8576TIP3    H225693   5.853   0.011   0.078
 8577TIP3   OH225694   5.746   1.731   3.445
 8577TIP3    H125695   5.665   1.684   3.467
 8577TIP3    H225696   5.743   1.739   3.350
 8578TIP3   OH225697   1.473   3.649   3.527
 8578TIP3    H125698   1.429   3.565   3.517
 8578TIP3    H225699   1.493   3.677   3.438
 8579TIP3   OH225700   1.351   4.645   4.225
 8579TIP3    H125701   1.342   4.684   4.138
 8579TIP3    H225702   1.426   4.690   4.264
 8580TIP3   OH225703   6.162   1.277   2.285
 8580TIP3    H125704   6.249   1.314   2.300
 8580TIP3    H225705   6.170   1.229   2.202
 8581TIP3   OH225706   0.936   6.687   4.795
 8581TIP3    H125707   0.910   6.687   4.887
 8581TIP3    H225708   0.879   6.752   4.754
 8582TIP3   OH225709   1.498   0.134   3.404
 8582TIP3    H125710   1.421   0.080   3.384
 8582TIP3    H225711   1.510   0.189   3.326
 8583TIP3   OH225712   0.969   3.919   5.340
 8583TIP3    H125713   0.982   3.888   5.429
 8583TIP3    H225714   0.954   4.013   5.348
 8584TIP3   OH225715   1.636   0.733   3.192
 8584TIP3    H125716   1.560   0.790   3.188
 8584TIP3    H225717   1.710   0.789   3.167
 8585TIP3   OH225718   1.303   6.740   4.466
 8585TIP3    H125719   1.364   6.726   4.393
 8585TIP3    H225720   1.275   6.831   4.456
 8586TIP3   OH225721   7.081   1.094   5.125
 8586TIP3    H125722   7.092   1.189   5.115
 8586TIP3    H225723   7.170   1.059   5.116
 8587TIP3   OH225724   4.372   4.636   5.575
 8587TIP3    H125725   4.339   4.725   5.561
 8587TIP3    H225726   4.463   4.647   5.599
 8588TIP3   OH225727   4.411   4.191   1.938
 8588TIP3    H125728   4.505   4.177   1.949
 8588TIP3    H225729   4.401   4.208   1.844
 8589TIP3   OH225730   1.967   0.868   5.607
 8589TIP3    H125731   1.887   0.907   5.570
 8589TIP3    H225732   2.033   0.937   5.599
 8590TIP3   OH225733   4.500   2.326   2.755
 8590TIP3    H125734   4.519   2.256   2.817
 8590TIP3    H225735   4.568   2.318   2.688
 8591TIP3   OH225736   1.744   2.796   1.623
 8591TIP3    H125737   1.833   2.821   1.649
 8591TIP3    H225738   1.697   2.784   1.706
 8592TIP3   OH225739   3.994   5.376   3.789
 8592TIP3    H125740   4.033   5.434   3.723
 8592TIP3    H225741   3.974   5.296   3.740
 8593TIP3   OH225742   5.371   2.435   2.958
 8593TIP3    H125743   5.384   2.470   3.046
 8593TIP3    H225744   5.280   2.457   2.937
 8594TIP3   OH225745   3.516   0.402   3.596
 8594TIP3    H125746   3.605   0.390   3.563
 8594TIP3    H225747   3.521   0.477   3.654
 8595TIP3   OH225748   6.451   4.529   5.065
 8595TIP3    H125749   6.390   4.504   4.995
 8595TIP3    H225750   6.534   4.489   5.040
 8596TIP3   OH225751   4.664   4.136   1.989
 8596TIP3    H125752   4.746   4.156   1.944
 8596TIP3    H225753   4.687   4.069   2.053
 8597TIP3   OH225754   1.394   3.514   5.159
 8597TIP3    H125755   1.373   3.566   5.236
 8597TIP3    H225756   1.354   3.561   5.086
 8598TIP3   OH225757   5.288   6.301   0.466
 8598TIP3    H125758   5.372   6.321   0.425
 8598TIP3    H225759   5.225   6.357   0.421
 8599TIP3   OH225760   3.500   6.626   3.279
 8599TIP3    H125761   3.470   6.715   3.261
 8599TIP3    H225762   3.448   6.571   3.220
 8600TIP3   OH225763   1.848   3.704   1.776
 8600TIP3    H125764   1.826   3.796   1.785
 8600TIP3    H225765   1.903   3.685   1.853
 8601TIP3   OH225766   3.630   2.917   4.658
 8601TIP3    H125767   3.675   2.999   4.636
 8601TIP3    H225768   3.699   2.862   4.697
 8602TIP3   OH225769   6.542   1.966   1.795
 8602TIP3    H125770   6.493   1.904   1.741
 8602TIP3    H225771   6.601   2.009   1.734
 8603TIP3   OH225772   0.101   2.624   0.627
 8603TIP3    H125773   0.137   2.536   0.637
 8603TIP3    H225774   0.074   2.629   0.536
 8604TIP3   OH225775   1.734   0.532   0.062
 8604TIP3    H125776   1.742   0.609   0.118
 8604TIP3    H225777   1.822   0.520   0.025
 8605TIP3   OH225778   3.722   0.467   1.736
 8605TIP3    H125779   3.709   0.415   1.815
 8605TIP3    H225780   3.682   0.415   1.666
 8606TIP3   OH225781   3.688   6.330   2.774
 8606TIP3    H125782   3.700   6.249   2.724
 8606TIP3    H225783   3.776   6.368   2.778
 8607TIP3   OH225784   0.761   5.785   3.261
 8607TIP3    H125785   0.678   5.831   3.250
 8607TIP3    H225786   0.741   5.714   3.322
 8608TIP3   OH225787   0.169   5.441   5.653
 8608TIP3    H125788   0.129   5.460   5.568
 8608TIP3    H225789   0.156   5.522   5.704
 8609TIP3   OH225790   6.872   0.888   0.620
 8609TIP3    H125791   6.813   0.819   0.589
 8609TIP3    H225792   6.913   0.923   0.540
 8610TIP3   OH225793   3.289   0.803   0.841
 8610TIP3    H125794   3.331   0.836   0.920
 8610TIP3    H225795   3.355   0.813   0.772
 8611TIP3   OH225796   5.402   1.924   5.366
 8611TIP3    H125797   5.471   1.985   5.392
 8611TIP3    H225798   5.402   1.928   5.270
 8612TIP3   OH225799   4.496   2.338   1.915
 8612TIP3    H125800   4.459   2.367   1.832
 8612TIP3    H225801   4.447   2.386   1.982
 8613TIP3   OH225802   5.262   6.175   0.159
 8613TIP3    H125803   5.236   6.262   0.131
 8613TIP3    H225804   5.287   6.185   0.251
 8614TIP3   OH225805   6.191   3.301   1.406
 8614TIP3    H125806   6.194   3.254   1.322
 8614TIP3    H225807   6.243   3.381   1.390
 8615TIP3   OH225808   6.889   2.030   5.290
 8615TIP3    H125809   6.835   1.977   5.231
 8615TIP3    H225810   6.958   1.970   5.319
 8616TIP3   OH225811   3.753   1.309   0.046
 8616TIP3    H125812   3.818   1.304   0.116
 8616TIP3    H225813   3.670   1.325   0.092
 8617TIP3   OH225814   1.092   6.297   2.348
 8617TIP3    H125815   1.063   6.322   2.436
 8617TIP3    H225816   1.122   6.379   2.309
 8618TIP3   OH225817   5.147   5.949   1.787
 8618TIP3    H125818   5.234   5.931   1.824
 8618TIP3    H225819   5.113   5.863   1.762
 8619TIP3   OH225820   3.130   4.212   2.963
 8619TIP3    H125821   3.175   4.202   2.880
 8619TIP3    H225822   3.124   4.307   2.976
 8620TIP3   OH225823   4.993   3.108   4.795
 8620TIP3    H125824   4.929   3.087   4.728
 8620TIP3    H225825   4.942   3.140   4.869
 8621TIP3   OH225826   3.971   3.943   4.340
 8621TIP3    H125827   4.001   3.997   4.267
 8621TIP3    H225828   4.051   3.904   4.376
 8622TIP3   OH225829   5.896   2.081   2.854
 8622TIP3    H125830   5.893   2.037   2.768
 8622TIP3    H225831   5.809   2.067   2.891
 8623TIP3   OH225832   7.110   6.032   0.565
 8623TIP3    H125833   7.116   5.937   0.579
 8623TIP3    H225834   7.104   6.069   0.653
 8624TIP3   OH225835   2.738   3.798   0.042
 8624TIP3    H125836   2.664   3.766  -0.009
 8624TIP3    H225837   2.804   3.821  -0.023
 8625TIP3   OH225838   5.293   1.490   5.860
 8625TIP3    H125839   5.227   1.504   5.928
 8625TIP3    H225840   5.244   1.452   5.786
 8626TIP3   OH225841   4.316   4.493   0.268
 8626TIP3    H125842   4.328   4.405   0.232
 8626TIP3    H225843   4.297   4.547   0.191
 8627TIP3   OH225844   6.023   3.244   4.114
 8627TIP3    H125845   6.009   3.224   4.206
 8627TIP3    H225846   6.096   3.307   4.114
 8628TIP3   OH225847   0.624   1.996   5.071
 8628TIP3    H125848   0.547   2.026   5.022
 8628TIP3    H225849   0.693   2.058   5.048
 8629TIP3   OH225850   6.338   1.173   4.193
 8629TIP3    H125851   6.360   1.206   4.106
 8629TIP3    H225852   6.406   1.108   4.212
 8630TIP3   OH225853   5.586   3.789   5.068
 8630TIP3    H125854   5.526   3.841   5.122
 8630TIP3    H225855   5.673   3.806   5.106
 8631TIP3   OH225856   1.905   0.693   2.953
 8631TIP3    H125857   1.839   0.633   2.986
 8631TIP3    H225858   1.988   0.647   2.968
 8632TIP3   OH225859   1.457   0.464   5.623
 8632TIP3    H125860   1.529   0.444   5.683
 8632TIP3    H225861   1.389   0.504   5.678
 8633TIP3   OH225862   1.515   2.713   0.165
 8633TIP3    H125863   1.522   2.633   0.218
 8633TIP3    H225864   1.436   2.699   0.112
 8634TIP3   OH225865   5.717   3.689   2.785
 8634TIP3    H125866   5.711   3.623   2.854
 8634TIP3    H225867   5.691   3.642   2.705
 8635TIP3   OH225868   6.555   3.208   5.013
 8635TIP3    H125869   6.529   3.177   5.100
 8635TIP3    H225870   6.635   3.159   4.994
 8636TIP3   OH225871   0.936   1.827   0.600
 8636TIP3    H125872   0.863   1.883   0.576
 8636TIP3    H225873   1.011   1.864   0.555
 8637TIP3   OH225874   5.463   4.673   5.096
 8637TIP3    H125875   5.411   4.690   5.018
 8637TIP3    H225876   5.494   4.583   5.084
 8638TIP3   OH225877   6.158   1.824   4.432
 8638TIP3    H125878   6.211   1.755   4.393
 8638TIP3    H225879   6.067   1.795   4.421
 8639TIP3   OH225880   6.068   0.761   5.233
 8639TIP3    H125881   6.088   0.688   5.291
 8639TIP3    H225882   6.063   0.837   5.290
 8640TIP3   OH225883   2.376   2.951   2.424
 8640TIP3    H125884   2.411   2.916   2.342
 8640TIP3    H225885   2.286   2.921   2.426
 8641TIP3   OH225886   2.273   3.026   2.084
 8641TIP3    H125887   2.192   3.077   2.091
 8641TIP3    H225888   2.252   2.959   2.019
 8642TIP3   OH225889   1.569   5.725   3.351
 8642TIP3    H125890   1.514   5.775   3.292
 8642TIP3    H225891   1.580   5.640   3.308
 8643TIP3   OH225892   1.222   5.178   1.477
 8643TIP3    H125893   1.193   5.251   1.421
 8643TIP3    H225894   1.155   5.111   1.464
 8644TIP3   OH225895   4.919   6.088   0.551
 8644TIP3    H125896   4.951   5.998   0.538
 8644TIP3    H225897   4.825   6.078   0.562
 8645TIP3   OH225898   4.954   1.442   2.075
 8645TIP3    H125899   5.027   1.404   2.026
 8645TIP3    H225900   4.939   1.527   2.033
 8646TIP3   OH225901   4.354   0.129   4.521
 8646TIP3    H125902   4.399   0.096   4.443
 8646TIP3    H225903   4.424   0.160   4.577
 8647TIP3   OH225904   1.490   2.651   1.236
 8647TIP3    H125905   1.568   2.635   1.290
 8647TIP3    H225906   1.462   2.563   1.210
 8648TIP3   OH225907   0.890   3.534   0.124
 8648TIP3    H125908   0.845   3.449   0.119
 8648TIP3    H225909   0.825   3.597   0.091
 8649TIP3   OH225910   0.015   5.692   5.223
 8649TIP3    H125911  -0.058   5.745   5.190
 8649TIP3    H225912   0.084   5.704   5.158
 8650TIP3   OH225913   5.374   5.370   0.932
 8650TIP3    H125914   5.395   5.445   0.987
 8650TIP3    H225915   5.350   5.408   0.848
 8651TIP3   OH225916   5.735   6.305   5.423
 8651TIP3    H125917   5.709   6.381   5.371
 8651TIP3    H225918   5.666   6.241   5.406
 8652TIP3   OH225919   0.866   6.481   3.850
 8652TIP3    H125920   0.955   6.464   3.880
 8652TIP3    H225921   0.831   6.394   3.829
 8653TIP3   OH225922   1.055   5.962   2.514
 8653TIP3    H125923   1.126   6.003   2.464
 8653TIP3    H225924   0.995   5.928   2.448
 8654TIP3   OH225925   3.523   4.082   2.713
 8654TIP3    H125926   3.435   4.046   2.725
 8654TIP3    H225927   3.531   4.097   2.619
 8655TIP3   OH225928   0.451   1.786   3.980
 8655TIP3    H125929   0.416   1.704   3.946
 8655TIP3    H225930   0.536   1.763   4.018
 8656TIP3   OH225931   1.509   0.307   3.191
 8656TIP3    H125932   1.468   0.280   3.108
 8656TIP3    H225933   1.488   0.400   3.199
 8657TIP3   OH225934   7.143   0.232   0.110
 8657TIP3    H125935   7.190   0.272   0.036
 8657TIP3    H225936   7.213   0.207   0.171
 8658TIP3   OH225937   0.324   3.367   5.488
 8658TIP3    H125938   0.316   3.302   5.419
 8658TIP3    H225939   0.414   3.398   5.482
 8659TIP3   OH225940   1.768   1.762   1.402
 8659TIP3    H125941   1.843   1.803   1.358
 8659TIP3    H225942   1.693   1.784   1.347
 8660TIP3   OH225943   7.186   1.492   3.596
 8660TIP3    H125944   7.149   1.436   3.664
 8660TIP3    H225945   7.258   1.440   3.559
 8661TIP3   OH225946   3.149   5.461   0.977
 8661TIP3    H125947   3.240   5.433   0.983
 8661TIP3    H225948   3.145   5.540   1.029
 8662TIP3   OH225949   3.748   0.817   2.748
 8662TIP3    H125950   3.670   0.845   2.700
 8662TIP3    H225951   3.745   0.721   2.744
 8663TIP3   OH225952   0.648   2.273   4.469
 8663TIP3    H125953   0.656   2.279   4.374
 8663TIP3    H225954   0.738   2.261   4.500
 8664TIP3   OH225955   5.233   3.098   1.300
 8664TIP3    H125956   5.223   3.171   1.239
 8664TIP3    H225957   5.170   3.033   1.270
 8665TIP3   OH225958   4.837   5.193   4.663
 8665TIP3    H125959   4.917   5.199   4.715
 8665TIP3    H225960   4.820   5.283   4.633
 8666TIP3   OH225961   2.833   0.163   0.317
 8666TIP3    H125962   2.832   0.113   0.399
 8666TIP3    H225963   2.913   0.215   0.323
 8667TIP3   OH225964   6.137   5.888   5.758
 8667TIP3    H125965   6.196   5.878   5.833
 8667TIP3    H225966   6.181   5.953   5.703
 8668TIP3   OH225967   0.588   2.426   3.832
 8668TIP3    H125968   0.647   2.485   3.787
 8668TIP3    H225969   0.645   2.367   3.880
 8669TIP3   OH225970   2.858   4.924   0.345
 8669TIP3    H125971   2.889   4.893   0.260
 8669TIP3    H225972   2.913   5.000   0.364
 8670TIP3   OH225973   2.271   2.688   2.243
 8670TIP3    H125974   2.262   2.661   2.334
 8670TIP3    H225975   2.185   2.724   2.220
 8671TIP3   OH225976   3.705   4.200   2.128
 8671TIP3    H125977   3.739   4.128   2.181
 8671TIP3    H225978   3.781   4.230   2.077
 8672TIP3   OH225979   0.919   1.875   5.023
 8672TIP3    H125980   0.852   1.827   4.975
 8672TIP3    H225981   0.883   1.963   5.035
 8673TIP3   OH225982   0.296   0.499   2.104
 8673TIP3    H125983   0.325   0.483   2.014
 8673TIP3    H225984   0.227   0.565   2.096
 8674TIP3   OH225985   0.594   2.285   2.988
 8674TIP3    H125986   0.515   2.234   3.004
 8674TIP3    H225987   0.636   2.293   3.074
 8675TIP3   OH225988   3.472   2.023   5.827
 8675TIP3    H125989   3.449   2.073   5.905
 8675TIP3    H225990   3.455   2.083   5.754
 8676TIP3   OH225991   3.803   5.581   3.475
 8676TIP3    H125992   3.852   5.597   3.395
 8676TIP3    H225993   3.850   5.630   3.543
 8677TIP3   OH225994   0.354   2.830   3.816
 8677TIP3    H125995   0.295   2.902   3.793
 8677TIP3    H225996   0.315   2.753   3.776
 8678TIP3   OH225997   5.773   0.349   3.258
 8678TIP3    H125998   5.785   0.254   3.263
 8678TIP3    H225999   5.801   0.372   3.169
 8679TIP3   OH226000   2.244   4.534   3.302
 8679TIP3    H126001   2.260   4.604   3.366
 8679TIP3    H226002   2.331   4.511   3.269
 8680TIP3   OH226003   2.358   6.448   4.437
 8680TIP3    H126004   2.426   6.508   4.407
 8680TIP3    H226005   2.284   6.505   4.459
 8681TIP3   OH226006   2.603   5.893   0.938
 8681TIP3    H126007   2.622   5.986   0.933
 8681TIP3    H226008   2.678   5.856   0.986
 8682TIP3   OH226009   6.441   3.915   4.706
 8682TIP3    H126010   6.433   3.946   4.615
 8682TIP3    H226011   6.530   3.882   4.712
 8683TIP3   OH226012   7.214   1.759   5.023
 8683TIP3    H126013   7.177   1.807   4.949
 8683TIP3    H226014   7.263   1.826   5.073
 8684TIP3   OH226015   0.128   0.915   0.429
 8684TIP3    H126016   0.084   0.998   0.410
 8684TIP3    H226017   0.220   0.938   0.442
 8685TIP3   OH226018   7.077   2.647   1.109
 8685TIP3    H126019   7.043   2.736   1.104
 8685TIP3    H226020   7.023   2.597   1.048
 8686TIP3   OH226021   0.854   4.471   5.256
 8686TIP3    H126022   0.796   4.460   5.332
 8686TIP3    H226023   0.918   4.401   5.266
 8687TIP3   OH226024   5.326   4.802   5.385
 8687TIP3    H126025   5.254   4.860   5.359
 8687TIP3    H226026   5.313   4.788   5.479
 8688TIP3   OH226027   2.760   2.261   1.082
 8688TIP3    H126028   2.688   2.206   1.050
 8688TIP3    H226029   2.805   2.290   1.002
 8689TIP3   OH226030   5.262   4.593   3.863
 8689TIP3    H126031   5.335   4.655   3.865
 8689TIP3    H226032   5.204   4.628   3.794
 8690TIP3   OH226033   1.437   1.132   5.646
 8690TIP3    H126034   1.380   1.189   5.594
 8690TIP3    H226035   1.524   1.172   5.638
 8691TIP3   OH226036   3.459   2.351   1.325
 8691TIP3    H126037   3.379   2.299   1.313
 8691TIP3    H226038   3.448   2.426   1.267
 8692TIP3   OH226039   3.707   0.012   1.857
 8692TIP3    H126040   3.720   0.104   1.878
 8692TIP3    H226041   3.649   0.012   1.782
 8693TIP3   OH226042   1.530   5.605   1.084
 8693TIP3    H126043   1.587   5.641   1.152
 8693TIP3    H226044   1.524   5.675   1.018
 8694TIP3   OH226045   6.483   0.157   0.089
 8694TIP3    H126046   6.523   0.070   0.081
 8694TIP3    H226047   6.497   0.181   0.181
 8695TIP3   OH226048   1.124   6.546   0.126
 8695TIP3    H126049   1.029   6.533   0.120
 8695TIP3    H226050   1.158   6.512   0.043
 8696TIP3   OH226051   5.803   1.489   0.413
 8696TIP3    H126052   5.779   1.402   0.383
 8696TIP3    H226053   5.794   1.545   0.336
 8697TIP3   OH226054   4.467   1.094   0.610
 8697TIP3    H126055   4.439   1.171   0.561
 8697TIP3    H226056   4.562   1.103   0.618
 8698TIP3   OH226057   1.947   1.145   1.333
 8698TIP3    H126058   1.865   1.173   1.374
 8698TIP3    H226059   1.921   1.082   1.266
 8699TIP3   OH226060   5.649   5.457   1.075
 8699TIP3    H126061   5.587   5.501   1.135
 8699TIP3    H226062   5.657   5.518   1.002
 8700TIP3   OH226063   4.767   2.584   4.247
 8700TIP3    H126064   4.737   2.561   4.335
 8700TIP3    H226065   4.701   2.546   4.189
 8701TIP3   OH226066   0.906   4.430   5.781
 8701TIP3    H126067   0.870   4.481   5.709
 8701TIP3    H226068   0.849   4.450   5.856
 8702TIP3   OH226069   6.874   5.173   3.743
 8702TIP3    H126070   6.779   5.186   3.751
 8702TIP3    H226071   6.885   5.127   3.660
 8703TIP3   OH226072   5.450   6.465   3.684
 8703TIP3    H126073   5.523   6.517   3.718
 8703TIP3    H226074   5.451   6.385   3.736
 8704TIP3   OH226075   5.178   6.707   3.574
 8704TIP3    H126076   5.098   6.657   3.589
 8704TIP3    H226077   5.200   6.744   3.659
 8705TIP3   OH226078   2.392   4.975   4.306
 8705TIP3    H126079   2.387   4.930   4.222
 8705TIP3    H226080   2.416   5.065   4.283
 8706TIP3   OH226081   5.429   2.358   5.177
 8706TIP3    H126082   5.450   2.334   5.087
 8706TIP3    H226083   5.514   2.366   5.221
 8707TIP3   OH226084   5.420   4.585   5.772
 8707TIP3    H126085   5.333   4.567   5.809
 8707TIP3    H226086   5.414   4.675   5.741
 8708TIP3   OH226087   0.705   2.968   1.363
 8708TIP3    H126088   0.688   3.061   1.378
 8708TIP3    H226089   0.787   2.966   1.313
 8709TIP3   OH226090   2.514   4.118   1.883
 8709TIP3    H126091   2.566   4.054   1.834
 8709TIP3    H226092   2.474   4.173   1.816
 8710TIP3   OH226093   3.025   2.805   3.969
 8710TIP3    H126094   3.019   2.715   3.937
 8710TIP3    H226095   3.118   2.825   3.967
 8711TIP3   OH226096   2.829   3.276   2.852
 8711TIP3    H126097   2.878   3.351   2.886
 8711TIP3    H226098   2.752   3.270   2.909
 8712TIP3   OH226099   0.288   4.783   4.983
 8712TIP3    H126100   0.369   4.745   5.018
 8712TIP3    H226101   0.315   4.865   4.943
 8713TIP3   OH226102   4.944   5.663   5.825
 8713TIP3    H126103   4.908   5.713   5.752
 8713TIP3    H226104   5.001   5.726   5.871
 8714TIP3   OH226105   4.742   5.064   1.888
 8714TIP3    H126106   4.814   5.096   1.942
 8714TIP3    H226107   4.727   5.134   1.824
 8715TIP3   OH226108   6.677   5.143   4.894
 8715TIP3    H126109   6.689   5.177   4.982
 8715TIP3    H226110   6.727   5.202   4.838
 8716TIP3   OH226111   2.832   3.636   2.765
 8716TIP3    H126112   2.840   3.641   2.861
 8716TIP3    H226113   2.837   3.726   2.736
 8717TIP3   OH226114   3.124   6.198   0.295
 8717TIP3    H126115   3.097   6.201   0.203
 8717TIP3    H226116   3.186   6.125   0.299
 8718TIP3   OH226117   1.879   5.105   0.571
 8718TIP3    H126118   1.912   5.194   0.559
 8718TIP3    H226119   1.937   5.066   0.636
 8719TIP3   OH226120   5.564   1.055   3.417
 8719TIP3    H126121   5.554   1.149   3.430
 8719TIP3    H226122   5.604   1.047   3.330
 8720TIP3   OH226123   4.541   4.760   2.459
 8720TIP3    H126124   4.608   4.827   2.468
 8720TIP3    H226125   4.477   4.782   2.527
 8721TIP3   OH226126   4.399   4.265   0.204
 8721TIP3    H126127   4.354   4.217   0.134
 8721TIP3    H226128   4.492   4.254   0.184
 8722TIP3   OH226129   4.458   1.360   3.189
 8722TIP3    H126130   4.401   1.284   3.177
 8722TIP3    H226131   4.482   1.357   3.281
 8723TIP3   OH226132   6.549   6.011   1.423
 8723TIP3    H126133   6.528   6.071   1.494
 8723TIP3    H226134   6.589   6.065   1.356
 8724TIP3   OH226135   1.232   1.311   0.808
 8724TIP3    H126136   1.208   1.372   0.738
 8724TIP3    H226137   1.234   1.225   0.765
 8725TIP3   OH226138   2.520   0.588   4.878
 8725TIP3    H126139   2.579   0.589   4.803
 8725TIP3    H226140   2.471   0.670   4.872
 8726TIP3   OH226141   0.539   2.127   3.565
 8726TIP3    H126142   0.506   2.214   3.588
 8726TIP3    H226143   0.550   2.130   3.470
 8727TIP3   OH226144   0.384   5.392   3.015
 8727TIP3    H126145   0.403   5.485   3.029
 8727TIP3    H226146   0.460   5.346   3.049
 8728TIP3   OH226147   3.852   2.307   1.412
 8728TIP3    H126148   3.881   2.296   1.503
 8728TIP3    H226149   3.802   2.389   1.413
 8729TIP3   OH226150   2.123   4.521   4.995
 8729TIP3    H126151   2.197   4.563   4.952
 8729TIP3    H226152   2.160   4.477   5.071
 8730TIP3   OH226153   0.150   4.565   1.848
 8730TIP3    H126154   0.169   4.588   1.939
 8730TIP3    H226155   0.142   4.470   1.849
 8731TIP3   OH226156   4.169   4.641   4.003
 8731TIP3    H126157   4.250   4.634   4.055
 8731TIP3    H226158   4.102   4.665   4.066
 8732TIP3   OH226159   4.417   6.511   0.761
 8732TIP3    H126160   4.457   6.581   0.710
 8732TIP3    H226161   4.352   6.555   0.816
 8733TIP3   OH226162   3.074   5.465   4.624
 8733TIP3    H126163   3.008   5.476   4.555
 8733TIP3    H226164   3.138   5.404   4.586
 8734TIP3   OH226165   4.241   4.993   0.285
 8734TIP3    H126166   4.173   4.990   0.353
 8734TIP3    H226167   4.204   5.048   0.216
 8735TIP3   OH226168   2.997   6.235   5.567
 8735TIP3    H126169   3.072   6.295   5.570
 8735TIP3    H226170   3.037   6.148   5.558
 8736TIP3   OH226171   5.968   3.761   0.903
 8736TIP3    H126172   5.988   3.831   0.965
 8736TIP3    H226173   5.877   3.774   0.880
 8737TIP3   OH226174   0.021   0.321   5.123
 8737TIP3    H126175   0.078   0.355   5.055
 8737TIP3    H226176   0.078   0.264   5.175
 8738TIP3   OH226177   2.449   6.764   2.423
 8738TIP3    H126178   2.470   6.671   2.427
 8738TIP3    H226179   2.419   6.786   2.512
 8739TIP3   OH226180   6.242   5.498   2.201
 8739TIP3    H126181   6.165   5.468   2.152
 8739TIP3    H226182   6.310   5.511   2.134
 8740TIP3   OH226183   3.204   2.949   4.683
 8740TIP3    H126184   3.287   2.946   4.636
 8740TIP3    H226185   3.218   2.893   4.760
 8741TIP3   OH226186   3.599   4.609   5.245
 8741TIP3    H126187   3.573   4.557   5.169
 8741TIP3    H226188   3.516   4.639   5.283
 8742TIP3   OH226189   4.188   5.784   3.198
 8742TIP3    H126190   4.200   5.763   3.105
 8742TIP3    H226191   4.115   5.730   3.225
 8743TIP3   OH226192   1.734   5.148   4.261
 8743TIP3    H126193   1.791   5.080   4.296
 8743TIP3    H226194   1.736   5.136   4.166
 8744TIP3   OH226195   0.567   0.856   1.897
 8744TIP3    H126196   0.615   0.937   1.912
 8744TIP3    H226197   0.530   0.865   1.810
 8745TIP3   OH226198   5.422   4.051   5.034
 8745TIP3    H126199   5.454   4.100   5.109
 8745TIP3    H226200   5.465   4.092   4.959
 8746TIP3   OH226201   5.670   2.007   5.044
 8746TIP3    H126202   5.762   1.996   5.067
 8746TIP3    H226203   5.668   2.086   4.990
 8747TIP3   OH226204   0.075   6.785   1.796
 8747TIP3    H126205   0.141   6.718   1.780
 8747TIP3    H226206   0.048   6.772   1.887
 8748TIP3   OH226207   3.690   2.519   4.626
 8748TIP3    H126208   3.721   2.467   4.552
 8748TIP3    H226209   3.643   2.457   4.682
 8749TIP3   OH226210   4.228   1.286   0.126
 8749TIP3    H126211   4.206   1.379   0.124
 8749TIP3    H226212   4.308   1.281   0.179
 8750TIP3   OH226213   5.643   4.053   5.370
 8750TIP3    H126214   5.643   4.129   5.312
 8750TIP3    H226215   5.731   4.052   5.408
 8751TIP3   OH226216   2.904   5.052   4.635
 8751TIP3    H126217   2.824   5.103   4.646
 8751TIP3    H226218   2.874   4.962   4.625
 8752TIP3   OH226219   1.501   2.775   5.783
 8752TIP3    H126220   1.429   2.714   5.801
 8752TIP3    H226221   1.468   2.860   5.809
 8753TIP3   OH226222   6.382   4.173   0.549
 8753TIP3    H126223   6.326   4.095   0.550
 8753TIP3    H226224   6.364   4.217   0.632
 8754TIP3   OH226225   0.429   5.558   5.819
 8754TIP3    H126226   0.454   5.490   5.756
 8754TIP3    H226227   0.339   5.581   5.796
 8755TIP3   OH226228   0.878   4.704   4.816
 8755TIP3    H126229   0.842   4.622   4.782
 8755TIP3    H226230   0.848   4.708   4.906
 8756TIP3   OH226231   1.907   2.872   3.995
 8756TIP3    H126232   1.974   2.810   3.966
 8756TIP3    H226233   1.956   2.939   4.043
 8757TIP3   OH226234   1.244   1.991   1.730
 8757TIP3    H126235   1.194   1.944   1.796
 8757TIP3    H226236   1.262   2.076   1.769
 8758TIP3   OH226237   3.441   4.631   0.320
 8758TIP3    H126238   3.395   4.548   0.320
 8758TIP3    H226239   3.464   4.646   0.228
 8759TIP3   OH226240   6.330   1.367   0.366
 8759TIP3    H126241   6.325   1.449   0.415
 8759TIP3    H226242   6.326   1.299   0.433
 8760TIP3   OH226243   6.869   6.046   0.445
 8760TIP3    H126244   6.959   6.027   0.474
 8760TIP3    H226245   6.836   6.107   0.511
 8761TIP3   OH226246   5.152   6.235   1.164
 8761TIP3    H126247   5.076   6.177   1.158
 8761TIP3    H226248   5.119   6.319   1.132
 8762TIP3   OH226249   4.233   1.175   1.183
 8762TIP3    H126250   4.169   1.240   1.157
 8762TIP3    H226251   4.181   1.101   1.215
 8763TIP3   OH226252   5.103   6.194   1.653
 8763TIP3    H126253   5.126   6.110   1.693
 8763TIP3    H226254   5.085   6.173   1.562
 8764TIP3   OH226255   1.197   3.002   0.655
 8764TIP3    H126256   1.250   3.032   0.729
 8764TIP3    H226257   1.181   2.909   0.673
 8765TIP3   OH226258   6.571   5.049   2.686
 8765TIP3    H126259   6.635   4.981   2.707
 8765TIP3    H226260   6.624   5.121   2.651
 8766TIP3   OH226261   1.449   3.361   5.726
 8766TIP3    H126262   1.464   3.454   5.744
 8766TIP3    H226263   1.510   3.315   5.784
 8767TIP3   OH226264   0.970   0.856   5.180
 8767TIP3    H126265   0.937   0.946   5.185
 8767TIP3    H226266   1.062   0.867   5.154
 8768TIP3   OH226267   6.328   3.508   4.850
 8768TIP3    H126268   6.284   3.426   4.829
 8768TIP3    H226269   6.391   3.520   4.778
 8769TIP3   OH226270   5.446   4.962   3.731
 8769TIP3    H126271   5.365   4.958   3.781
 8769TIP3    H226272   5.418   4.985   3.642
 8770TIP3   OH226273   4.613   0.186   0.864
 8770TIP3    H126274   4.690   0.144   0.903
 8770TIP3    H226275   4.609   0.151   0.775
 8771TIP3   OH226276   6.270   2.292   2.015
 8771TIP3    H126277   6.201   2.343   1.972
 8771TIP3    H226278   6.325   2.260   1.943
 8772TIP3   OH226279   0.076   6.123   4.419
 8772TIP3    H126280   0.049   6.069   4.493
 8772TIP3    H226281   0.160   6.087   4.392
 8773TIP3   OH226282   4.477   1.955   0.090
 8773TIP3    H126283   4.398   1.949   0.144
 8773TIP3    H226284   4.467   1.885   0.026
 8774TIP3   OH226285   0.908   5.509   0.301
 8774TIP3    H126286   0.950   5.501   0.215
 8774TIP3    H226287   0.896   5.603   0.313
 8775TIP3   OH226288   6.305   2.400   3.010
 8775TIP3    H126289   6.266   2.314   2.995
 8775TIP3    H226290   6.251   2.461   2.960
 8776TIP3   OH226291   5.718   3.410   1.395
 8776TIP3    H126292   5.637   3.417   1.343
 8776TIP3    H226293   5.709   3.328   1.442
 8777TIP3   OH226294   6.454   4.452   4.658
 8777TIP3    H126295   6.373   4.457   4.708
 8777TIP3    H226296   6.491   4.367   4.682
 8778TIP3   OH226297   4.676   3.606   5.537
 8778TIP3    H126298   4.640   3.531   5.584
 8778TIP3    H226299   4.761   3.622   5.579
 8779TIP3   OH226300   0.032   0.678   1.197
 8779TIP3    H126301   0.114   0.718   1.228
 8779TIP3    H226302   0.029   0.700   1.104
 8780TIP3   OH226303   0.671   6.277   1.603
 8780TIP3    H126304   0.741   6.241   1.656
 8780TIP3    H226305   0.680   6.234   1.518
 8781TIP3   OH226306   0.429   5.662   3.078
 8781TIP3    H126307   0.416   5.743   3.128
 8781TIP3    H226308   0.491   5.686   3.010
 8782TIP3   OH226309   3.966   4.137   5.005
 8782TIP3    H126310   3.974   4.174   5.093
 8782TIP3    H226311   3.875   4.151   4.981
 8783TIP3   OH226312   2.405   4.771   0.473
 8783TIP3    H126313   2.489   4.770   0.427
 8783TIP3    H226314   2.410   4.698   0.535
 8784TIP3   OH226315   2.614   3.549   0.339
 8784TIP3    H126316   2.520   3.539   0.352
 8784TIP3    H226317   2.638   3.482   0.275
 8785TIP3   OH226318   6.945   2.767   3.529
 8785TIP3    H126319   6.950   2.736   3.619
 8785TIP3    H226320   7.029   2.743   3.490
 8786TIP3   OH226321   3.380   2.485   4.124
 8786TIP3    H126322   3.466   2.512   4.091
 8786TIP3    H226323   3.356   2.411   4.069
 8787TIP3   OH226324   0.927   4.285   2.689
 8787TIP3    H126325   0.853   4.347   2.691
 8787TIP3    H226326   0.887   4.200   2.706
 8788TIP3   OH226327   1.363   5.400   2.626
 8788TIP3    H126328   1.314   5.454   2.563
 8788TIP3    H226329   1.341   5.438   2.711
 8789TIP3   OH226330   0.682   5.613   3.447
 8789TIP3    H126331   0.733   5.550   3.498
 8789TIP3    H226332   0.591   5.596   3.471
 8790TIP3   OH226333   0.295   4.202   4.191
 8790TIP3    H126334   0.274   4.152   4.112
 8790TIP3    H226335   0.278   4.140   4.263
 8791TIP3   OH226336   4.719   0.135   5.875
 8791TIP3    H126337   4.729   0.174   5.962
 8791TIP3    H226338   4.638   0.172   5.841
 8792TIP3   OH226339   1.828   0.941   3.171
 8792TIP3    H126340   1.784   1.025   3.163
 8792TIP3    H226341   1.919   0.963   3.190
 8793TIP3   OH226342   2.657   6.342   4.030
 8793TIP3    H126343   2.694   6.255   4.014
 8793TIP3    H226344   2.732   6.394   4.061
 8794TIP3   OH226345   2.440   3.114   0.539
 8794TIP3    H126346   2.459   3.118   0.632
 8794TIP3    H226347   2.467   3.200   0.505
 8795TIP3   OH226348   3.453   3.846   0.500
 8795TIP3    H126349   3.380   3.806   0.452
 8795TIP3    H226350   3.506   3.888   0.432
 8796TIP3   OH226351   2.099   4.894   3.113
 8796TIP3    H126352   2.106   4.866   3.205
 8796TIP3    H226353   2.190   4.912   3.087
 8797TIP3   OH226354   5.596   0.081   2.196
 8797TIP3    H126355   5.600   0.160   2.141
 8797TIP3    H226356   5.681   0.079   2.240
 8798TIP3   OH226357   5.009   0.455   3.074
 8798TIP3    H126358   4.963   0.432   3.155
 8798TIP3    H226359   4.946   0.433   3.004
 8799TIP3   OH226360   1.737   5.430   1.154
 8799TIP3    H126361   1.655   5.457   1.115
 8799TIP3    H226362   1.804   5.457   1.091
 8800TIP3   OH226363   0.698   3.695   3.768
 8800TIP3    H126364   0.687   3.620   3.826
 8800TIP3    H226365   0.793   3.711   3.766
 8801TIP3   OH226366   6.738   4.382   4.152
 8801TIP3    H126367   6.648   4.350   4.150
 8801TIP3    H226368   6.786   4.316   4.201
 8802TIP3   OH226369   2.668   6.031   1.666
 8802TIP3    H126370   2.711   6.033   1.580
 8802TIP3    H226371   2.686   5.943   1.699
 8803TIP3   OH226372   0.388   5.489   5.191
 8803TIP3    H126373   0.400   5.572   5.145
 8803TIP3    H226374   0.430   5.503   5.276
 8804TIP3   OH226375   6.790   6.173   4.718
 8804TIP3    H126376   6.719   6.175   4.654
 8804TIP3    H226377   6.854   6.235   4.684
 8805TIP3   OH226378   2.158   4.889   2.572
 8805TIP3    H126379   2.072   4.887   2.614
 8805TIP3    H226380   2.145   4.841   2.490
 8806TIP3   OH226381   5.566   1.836   4.554
 8806TIP3    H126382   5.558   1.798   4.466
 8806TIP3    H226383   5.562   1.761   4.613
 8807TIP3   OH226384   0.749   3.797   1.473
 8807TIP3    H126385   0.817   3.763   1.531
 8807TIP3    H226386   0.685   3.837   1.532
 8808TIP3   OH226387   1.089   1.739   4.142
 8808TIP3    H126388   1.072   1.832   4.159
 8808TIP3    H226389   1.126   1.738   4.054
 8809TIP3   OH226390   6.051   2.054   3.329
 8809TIP3    H126391   6.016   1.989   3.269
 8809TIP3    H226392   6.141   2.068   3.299
 8810TIP3   OH226393   4.825   1.851   0.186
 8810TIP3    H126394   4.786   1.930   0.147
 8810TIP3    H226395   4.771   1.779   0.153
 8811TIP3   OH226396   6.787   5.451   5.674
 8811TIP3    H126397   6.723   5.498   5.621
 8811TIP3    H226398   6.816   5.515   5.740
 8812TIP3   OH226399   3.819   0.076   2.550
 8812TIP3    H126400   3.781   0.101   2.466
 8812TIP3    H226401   3.855   0.157   2.586
 8813TIP3   OH226402   4.959   1.461   4.748
 8813TIP3    H126403   4.878   1.505   4.721
 8813TIP3    H226404   4.935   1.368   4.755
 8814TIP3   OH226405   4.479   2.389   5.567
 8814TIP3    H126406   4.396   2.341   5.573
 8814TIP3    H226407   4.499   2.411   5.658
 8815TIP3   OH226408   5.639   6.748   3.074
 8815TIP3    H126409   5.639   6.718   3.165
 8815TIP3    H226410   5.633   6.843   3.080
 8816TIP3   OH226411   0.002   3.624   1.790
 8816TIP3    H126412   0.034   3.610   1.701
 8816TIP3    H226413   0.080   3.612   1.845
 8817TIP3   OH226414   4.707   1.143   1.381
 8817TIP3    H126415   4.625   1.172   1.340
 8817TIP3    H226416   4.684   1.064   1.429
 8818TIP3   OH226417   1.543   1.462   4.937
 8818TIP3    H126418   1.629   1.440   4.975
 8818TIP3    H226419   1.511   1.379   4.902
 8819TIP3   OH226420   3.986   1.738   0.270
 8819TIP3    H126421   3.958   1.685   0.344
 8819TIP3    H226422   3.965   1.828   0.295
 8820TIP3   OH226423   6.375   1.364   0.092
 8820TIP3    H126424   6.369   1.353   0.187
 8820TIP3    H226425   6.424   1.446   0.081
 8821TIP3   OH226426   5.749   2.300   5.254
 8821TIP3    H126427   5.820   2.252   5.297
 8821TIP3    H226428   5.790   2.340   5.178
 8822TIP3   OH226429   6.452   3.765   3.164
 8822TIP3    H126430   6.424   3.745   3.075
 8822TIP3    H226431   6.404   3.703   3.219
 8823TIP3   OH226432   6.326   1.400   4.504
 8823TIP3    H126433   6.285   1.314   4.490
 8823TIP3    H226434   6.270   1.443   4.569
 8824TIP3   OH226435   3.262   3.926   5.217
 8824TIP3    H126436   3.222   3.839   5.218
 8824TIP3    H226437   3.238   3.965   5.301
 8825TIP3   OH226438   1.008   0.320   2.413
 8825TIP3    H126439   1.003   0.292   2.505
 8825TIP3    H226440   1.095   0.359   2.405
 8826TIP3   OH226441   0.650   6.411   1.083
 8826TIP3    H126442   0.715   6.478   1.062
 8826TIP3    H226443   0.647   6.411   1.179
 8827TIP3   OH226444   4.088   3.431   1.505
 8827TIP3    H126445   4.030   3.498   1.542
 8827TIP3    H226446   4.128   3.390   1.581
 8828TIP3   OH226447   4.175   1.119   3.353
 8828TIP3    H126448   4.124   1.063   3.295
 8828TIP3    H226449   4.132   1.111   3.438
 8829TIP3   OH226450   1.200   3.241   0.541
 8829TIP3    H126451   1.121   3.254   0.489
 8829TIP3    H226452   1.193   3.151   0.573
 8830TIP3   OH226453   1.562   3.075   4.591
 8830TIP3    H126454   1.486   3.132   4.581
 8830TIP3    H226455   1.529   2.987   4.575
 8831TIP3   OH226456   5.139   4.129   5.655
 8831TIP3    H126457   5.161   4.208   5.705
 8831TIP3    H226458   5.068   4.088   5.704
 8832TIP3   OH226459   1.816   5.806   2.003
 8832TIP3    H126460   1.725   5.796   2.031
 8832TIP3    H226461   1.819   5.767   1.916
 8833TIP3   OH226462   0.133   4.530   2.864
 8833TIP3    H126463   0.225   4.507   2.847
 8833TIP3    H226464   0.083   4.478   2.802
 8834TIP3   OH226465   5.124   0.400   1.081
 8834TIP3    H126466   5.088   0.489   1.073
 8834TIP3    H226467   5.051   0.348   1.115
 8835TIP3   OH226468   5.101   1.908   0.185
 8835TIP3    H126469   5.134   1.916   0.275
 8835TIP3    H226470   5.006   1.900   0.195
 8836TIP3   OH226471   0.731   3.040   2.438
 8836TIP3    H126472   0.787   3.019   2.363
 8836TIP3    H226473   0.651   3.075   2.398
 8837TIP3   OH226474   6.725   1.370   3.613
 8837TIP3    H126475   6.780   1.419   3.673
 8837TIP3    H226476   6.673   1.437   3.568
 8838TIP3   OH226477   4.602   3.237   4.264
 8838TIP3    H126478   4.559   3.313   4.223
 8838TIP3    H226479   4.584   3.164   4.204
 8839TIP3   OH226480   4.022   3.644   5.812
 8839TIP3    H126481   4.071   3.707   5.865
 8839TIP3    H226482   4.083   3.573   5.795
 8840TIP3   OH226483   4.910   1.984   0.746
 8840TIP3    H126484   4.883   2.029   0.826
 8840TIP3    H226485   5.005   1.995   0.744
 8841TIP3   OH226486   0.039   6.082   2.853
 8841TIP3    H126487   0.004   6.098   2.941
 8841TIP3    H226488   0.127   6.047   2.869
 8842TIP3   OH226489   5.566   0.124   3.621
 8842TIP3    H126490   5.618   0.044   3.616
 8842TIP3    H226491   5.627   0.193   3.594
 8843TIP3   OH226492   4.902   2.579   1.442
 8843TIP3    H126493   4.846   2.514   1.485
 8843TIP3    H226494   4.985   2.534   1.429
 8844TIP3   OH226495   6.558   1.584   1.213
 8844TIP3    H126496   6.608   1.635   1.277
 8844TIP3    H226497   6.521   1.650   1.154
 8845TIP3   OH226498   1.622   2.289   4.825
 8845TIP3    H126499   1.546   2.232   4.836
 8845TIP3    H226500   1.638   2.290   4.731
 8846TIP3   OH226501   5.645   1.154   5.893
 8846TIP3    H126502   5.550   1.143   5.896
 8846TIP3    H226503   5.680   1.065   5.885
 8847TIP3   OH226504   4.864   4.879   3.396
 8847TIP3    H126505   4.770   4.862   3.397
 8847TIP3    H226506   4.872   4.970   3.424
 8848TIP3   OH226507   2.851   1.363   3.077
 8848TIP3    H126508   2.815   1.441   3.119
 8848TIP3    H226509   2.922   1.335   3.135
 8849TIP3   OH226510   3.556   4.812   5.600
 8849TIP3    H126511   3.621   4.859   5.549
 8849TIP3    H226512   3.474   4.858   5.582
 8850TIP3   OH226513   6.548   5.034   3.524
 8850TIP3    H126514   6.560   5.051   3.431
 8850TIP3    H226515   6.455   5.051   3.540
 8851TIP3   OH226516   4.166   3.123   0.186
 8851TIP3    H126517   4.203   3.113   0.099
 8851TIP3    H226518   4.118   3.205   0.184
 8852TIP3   OH226519   2.912   0.734   5.001
 8852TIP3    H126520   2.859   0.753   4.924
 8852TIP3    H226521   2.988   0.686   4.967
 8853TIP3   OH226522   4.051   2.529   3.554
 8853TIP3    H126523   3.994   2.525   3.631
 8853TIP3    H226524   3.999   2.488   3.485
 8854TIP3   OH226525   4.842   5.768   5.265
 8854TIP3    H126526   4.800   5.798   5.346
 8854TIP3    H226527   4.825   5.674   5.263
 8855TIP3   OH226528   5.745   4.589   5.546
 8855TIP3    H126529   5.760   4.630   5.631
 8855TIP3    H226530   5.820   4.615   5.493
 8856TIP3   OH226531   6.954   0.242   5.193
 8856TIP3    H126532   6.999   0.325   5.177
 8856TIP3    H226533   7.003   0.179   5.140
 8857TIP3   OH226534   0.660   5.157   3.092
 8857TIP3    H126535   0.706   5.158   3.176
 8857TIP3    H226536   0.708   5.219   3.037
 8858TIP3   OH226537   3.682   4.109   0.583
 8858TIP3    H126538   3.681   4.032   0.527
 8858TIP3    H226539   3.658   4.077   0.669
 8859TIP3   OH226540   6.234   4.930   5.795
 8859TIP3    H126541   6.216   4.852   5.847
 8859TIP3    H226542   6.159   4.937   5.735
 8860TIP3   OH226543   0.204   1.691   4.205
 8860TIP3    H126544   0.185   1.771   4.157
 8860TIP3    H226545   0.234   1.630   4.137
 8861TIP3   OH226546   1.630   5.155   4.909
 8861TIP3    H126547   1.670   5.209   4.977
 8861TIP3    H226548   1.680   5.073   4.911
 8862TIP3   OH226549   3.596   5.633   1.604
 8862TIP3    H126550   3.589   5.657   1.697
 8862TIP3    H226551   3.514   5.588   1.585
 8863TIP3   OH226552   4.982   3.114   1.909
 8863TIP3    H126553   4.995   3.110   1.814
 8863TIP3    H226554   5.026   3.194   1.937
 8864TIP3   OH226555   6.082   1.972   1.191
 8864TIP3    H126556   6.026   1.895   1.178
 8864TIP3    H226557   6.021   2.045   1.201
 8865TIP3   OH226558   5.203   5.463   1.845
 8865TIP3    H126559   5.126   5.505   1.884
 8865TIP3    H226560   5.246   5.420   1.919
 8866TIP3   OH226561   5.972   4.209   5.053
 8866TIP3    H126562   5.971   4.259   4.971
 8866TIP3    H226563   5.967   4.275   5.121
 8867TIP3   OH226564   3.148   6.079   1.371
 8867TIP3    H126565   3.242   6.093   1.377
 8867TIP3    H226566   3.119   6.141   1.305
 8868TIP3   OH226567   6.585   5.979   0.453
 8868TIP3    H126568   6.680   5.982   0.445
 8868TIP3    H226569   6.568   5.917   0.523
 8869TIP3   OH226570   5.359   1.379   1.205
 8869TIP3    H126571   5.297   1.312   1.233
 8869TIP3    H226572   5.398   1.345   1.125
 8870TIP3   OH226573   5.861   4.141   0.757
 8870TIP3    H126574   5.780   4.099   0.728
 8870TIP3    H226575   5.904   4.168   0.676
 8871TIP3   OH226576   1.213   1.431   0.566
 8871TIP3    H126577   1.293   1.470   0.531
 8871TIP3    H226578   1.142   1.471   0.515
 8872TIP3   OH226579   3.574   2.336   4.949
 8872TIP3    H126580   3.648   2.300   4.998
 8872TIP3    H226581   3.502   2.336   5.012
 8873TIP3   OH226582   5.267   1.608   5.238
 8873TIP3    H126583   5.334   1.572   5.180
 8873TIP3    H226584   5.317   1.651   5.308
 8874TIP3   OH226585   5.802   3.154   0.117
 8874TIP3    H126586   5.719   3.155   0.165
 8874TIP3    H226587   5.818   3.246   0.095
 8875TIP3   OH226588   1.526   2.692   3.964
 8875TIP3    H126589   1.578   2.768   3.937
 8875TIP3    H226590   1.572   2.657   4.040
 8876TIP3   OH226591   4.310   1.389   1.833
 8876TIP3    H126592   4.348   1.335   1.764
 8876TIP3    H226593   4.384   1.415   1.887
 8877TIP3   OH226594   2.507   3.439   0.673
 8877TIP3    H126595   2.459   3.381   0.733
 8877TIP3    H226596   2.595   3.445   0.711
 8878TIP3   OH226597   4.231   1.884   4.321
 8878TIP3    H126598   4.205   1.792   4.326
 8878TIP3    H226599   4.291   1.895   4.395
 8879TIP3   OH226600   0.116   5.048   4.055
 8879TIP3    H126601   0.033   5.075   4.093
 8879TIP3    H226602   0.125   5.101   3.976
 8880TIP3   OH226603   2.515   5.413   5.569
 8880TIP3    H126604   2.490   5.351   5.500
 8880TIP3    H226605   2.438   5.417   5.626
 8881TIP3   OH226606   2.916   5.168   3.008
 8881TIP3    H126607   2.884   5.085   2.974
 8881TIP3    H226608   2.922   5.154   3.102
 8882TIP3   OH226609   5.633   1.116   5.446
 8882TIP3    H126610   5.659   1.065   5.522
 8882TIP3    H226611   5.539   1.129   5.456
 8883TIP3   OH226612   6.603   5.262   1.785
 8883TIP3    H126613   6.623   5.176   1.749
 8883TIP3    H226614   6.543   5.302   1.722
 8884TIP3   OH226615   2.634   4.910   4.788
 8884TIP3    H126616   2.677   4.859   4.720
 8884TIP3    H226617   2.554   4.943   4.747
 8885TIP3   OH226618   6.303   3.960   2.917
 8885TIP3    H126619   6.214   3.957   2.950
 8885TIP3    H226620   6.294   3.979   2.824
 8886TIP3   OH226621   7.006   0.042   3.251
 8886TIP3    H126622   6.961   0.126   3.259
 8886TIP3    H226623   7.048   0.028   3.336
 8887TIP3   OH226624   1.667   3.070   4.854
 8887TIP3    H126625   1.637   3.079   4.763
 8887TIP3    H226626   1.646   3.154   4.894
 8888TIP3   OH226627   4.256   1.765   4.903
 8888TIP3    H126628   4.345   1.780   4.869
 8888TIP3    H226629   4.215   1.852   4.900
 8889TIP3   OH226630   3.772   5.362   1.621
 8889TIP3    H126631   3.766   5.297   1.552
 8889TIP3    H226632   3.722   5.437   1.589
 8890TIP3   OH226633   5.096   1.289   3.444
 8890TIP3    H126634   5.138   1.230   3.507
 8890TIP3    H226635   5.126   1.257   3.359
 8891TIP3   OH226636   0.577   6.402   5.652
 8891TIP3    H126637   0.598   6.346   5.726
 8891TIP3    H226638   0.661   6.428   5.616
 8892TIP3   OH226639   0.428   0.637   5.082
 8892TIP3    H126640   0.450   0.580   5.156
 8892TIP3    H226641   0.406   0.721   5.123
 8893TIP3   OH226642   5.033   1.914   2.908
 8893TIP3    H126643   5.052   1.884   2.997
 8893TIP3    H226644   4.962   1.977   2.919
 8894TIP3   OH226645   7.212   5.925   0.218
 8894TIP3    H126646   7.166   5.970   0.147
 8894TIP3    H226647   7.144   5.906   0.282
 8895TIP3   OH226648   2.731   5.253   4.378
 8895TIP3    H126649   2.758   5.182   4.437
 8895TIP3    H226650   2.742   5.217   4.290
 8896TIP3   OH226651   3.027   0.976   5.033
 8896TIP3    H126652   3.120   0.961   5.052
 8896TIP3    H226653   2.990   0.889   5.023
 8897TIP3   OH226654   2.846   2.353   4.356
 8897TIP3    H126655   2.923   2.392   4.397
 8897TIP3    H226656   2.805   2.302   4.426
 8898TIP3   OH226657   3.180   3.235   0.810
 8898TIP3    H126658   3.268   3.252   0.846
 8898TIP3    H226659   3.126   3.307   0.844
 8899TIP3   OH226660   3.308   6.523   0.342
 8899TIP3    H126661   3.313   6.609   0.383
 8899TIP3    H226662   3.217   6.516   0.312
 8900TIP3   OH226663   6.823   5.339   4.776
 8900TIP3    H126664   6.753   5.403   4.759
 8900TIP3    H226665   6.892   5.361   4.713
 8901TIP3   OH226666   4.939   3.667   2.811
 8901TIP3    H126667   4.956   3.716   2.730
 8901TIP3    H226668   4.848   3.689   2.833
 8902TIP3   OH226669   4.140   6.206   1.057
 8902TIP3    H126670   4.132   6.257   1.138
 8902TIP3    H226671   4.218   6.242   1.014
 8903TIP3   OH226672   5.766   0.346   0.620
 8903TIP3    H126673   5.701   0.316   0.556
 8903TIP3    H226674   5.716   0.400   0.681
 8904TIP3   OH226675   6.408   0.521   3.586
 8904TIP3    H126676   6.491   0.545   3.545
 8904TIP3    H226677   6.420   0.542   3.679
 8905TIP3   OH226678   0.384   2.282   1.948
 8905TIP3    H126679   0.296   2.253   1.926
 8905TIP3    H226680   0.416   2.326   1.868
 8906TIP3   OH226681   2.519   0.929   5.678
 8906TIP3    H126682   2.609   0.902   5.658
 8906TIP3    H226683   2.510   1.014   5.635
 8907TIP3   OH226684   7.048   0.632   0.094
 8907TIP3    H126685   7.077   0.605   0.006
 8907TIP3    H226686   6.995   0.710   0.079
 8908TIP3   OH226687   5.889   3.585   1.261
 8908TIP3    H126688   5.838   3.528   1.317
 8908TIP3    H226689   5.960   3.530   1.228
 8909TIP3   OH226690   7.113   4.643   5.292
 8909TIP3    H126691   7.165   4.612   5.367
 8909TIP3    H226692   7.179   4.668   5.227
 8910TIP3   OH226693   5.106   1.657   0.636
 8910TIP3    H126694   5.037   1.690   0.579
 8910TIP3    H226695   5.061   1.612   0.707
 8911TIP3   OH226696   3.378   5.510   0.294
 8911TIP3    H126697   3.351   5.594   0.330
 8911TIP3    H226698   3.297   5.466   0.270
 8912TIP3   OH226699   4.929   0.784   0.745
 8912TIP3    H126700   4.852   0.839   0.762
 8912TIP3    H226701   4.897   0.694   0.757
 8913TIP3   OH226702   3.111   3.953   3.020
 8913TIP3    H126703   3.085   4.037   2.981
 8913TIP3    H226704   3.037   3.895   3.002
 8914TIP3   OH226705   4.169   6.800   5.317
 8914TIP3    H126706   4.160   6.791   5.412
 8914TIP3    H226707   4.221   6.724   5.290
 8915TIP3   OH226708   1.144   6.068   4.693
 8915TIP3    H126709   1.075   6.125   4.660
 8915TIP3    H226710   1.102   5.983   4.706
 8916TIP3   OH226711   1.321   0.632   0.210
 8916TIP3    H126712   1.268   0.688   0.153
 8916TIP3    H226713   1.361   0.569   0.150
 8917TIP3   OH226714   6.331   3.880   0.501
 8917TIP3    H126715   6.263   3.848   0.559
 8917TIP3    H226716   6.395   3.809   0.496
 8918TIP3   OH226717   0.749   2.024   4.601
 8918TIP3    H126718   0.811   2.056   4.535
 8918TIP3    H226719   0.683   1.976   4.551
 8919TIP3   OH226720   3.034   5.457   0.721
 8919TIP3    H126721   3.068   5.442   0.809
 8919TIP3    H226722   2.965   5.392   0.710
 8920TIP3   OH226723   2.503   1.092   2.663
 8920TIP3    H126724   2.422   1.143   2.666
 8920TIP3    H226725   2.485   1.023   2.600
 8921TIP3   OH226726   5.590   2.495   1.819
 8921TIP3    H126727   5.521   2.559   1.836
 8921TIP3    H226728   5.545   2.411   1.821
 8922TIP3   OH226729   2.845   4.746   4.630
 8922TIP3    H126730   2.813   4.657   4.644
 8922TIP3    H226731   2.869   4.749   4.537
 8923TIP3   OH226732   5.645   4.901   4.238
 8923TIP3    H126733   5.578   4.903   4.169
 8923TIP3    H226734   5.698   4.979   4.223
 8924TIP3   OH226735   3.955   4.758   4.998
 8924TIP3    H126736   3.942   4.697   5.071
 8924TIP3    H226737   3.869   4.799   4.985
 8925TIP3   OH226738   6.190   3.564   2.921
 8925TIP3    H126739   6.268   3.616   2.900
 8925TIP3    H226740   6.130   3.581   2.849
 8926TIP3   OH226741   4.123   0.763   1.675
 8926TIP3    H126742   4.148   0.806   1.757
 8926TIP3    H226743   4.093   0.676   1.702
 8927TIP3   OH226744   6.247   5.011   3.321
 8927TIP3    H126745   6.273   5.058   3.401
 8927TIP3    H226746   6.180   5.067   3.281
 8928TIP3   OH226747   1.840   2.390   5.026
 8928TIP3    H126748   1.788   2.357   4.953
 8928TIP3    H226749   1.931   2.375   5.000
 8929TIP3   OH226750   5.322   3.363   0.671
 8929TIP3    H126751   5.385   3.293   0.656
 8929TIP3    H226752   5.350   3.405   0.752
 8930TIP3   OH226753   2.532   2.343   0.285
 8930TIP3    H126754   2.578   2.387   0.356
 8930TIP3    H226755   2.602   2.314   0.226
 8931TIP3   OH226756   5.575   1.106   4.358
 8931TIP3    H126757   5.603   1.026   4.315
 8931TIP3    H226758   5.639   1.118   4.429
 8932TIP3   OH226759   3.158   3.935   1.832
 8932TIP3    H126760   3.075   3.935   1.880
 8932TIP3    H226761   3.219   3.890   1.890
 8933TIP3   OH226762   4.909   5.671   1.317
 8933TIP3    H126763   4.816   5.649   1.307
 8933TIP3    H226764   4.955   5.593   1.285
 8934TIP3   OH226765   6.503   1.373   5.522
 8934TIP3    H126766   6.546   1.332   5.597
 8934TIP3    H226767   6.429   1.316   5.502
 8935TIP3   OH226768   5.625   2.329   4.181
 8935TIP3    H126769   5.680   2.399   4.216
 8935TIP3    H226770   5.641   2.254   4.239
 8936TIP3   OH226771   4.347   6.545   0.178
 8936TIP3    H126772   4.338   6.489   0.254
 8936TIP3    H226773   4.258   6.572   0.157
 8937TIP3   OH226774   0.474   5.039   1.030
 8937TIP3    H126775   0.421   5.034   1.110
 8937TIP3    H226776   0.556   4.997   1.053
 8938TIP3   OH226777   4.639   2.071   5.673
 8938TIP3    H126778   4.668   2.091   5.762
 8938TIP3    H226779   4.692   2.130   5.618
 8939TIP3   OH226780   1.755   1.094   2.516
 8939TIP3    H126781   1.757   1.171   2.460
 8939TIP3    H226782   1.675   1.103   2.568
 8940TIP3   OH226783   5.647   3.257   0.676
 8940TIP3    H126784   5.690   3.307   0.606
 8940TIP3    H226785   5.716   3.240   0.740
 8941TIP3   OH226786   2.270   2.514   1.322
 8941TIP3    H126787   2.353   2.493   1.278
 8941TIP3    H226788   2.240   2.430   1.358
 8942TIP3   OH226789   6.724   0.723   2.624
 8942TIP3    H126790   6.702   0.631   2.632
 8942TIP3    H226791   6.640   0.769   2.624
 8943TIP3   OH226792   0.089   5.824   3.087
 8943TIP3    H126793   0.157   5.855   3.028
 8943TIP3    H226794   0.120   5.851   3.174
 8944TIP3   OH226795   1.312   2.235   5.628
 8944TIP3    H126796   1.279   2.147   5.648
 8944TIP3    H226797   1.250   2.269   5.564
 8945TIP3   OH226798   2.566   5.588   4.101
 8945TIP3    H126799   2.612   5.507   4.076
 8945TIP3    H226800   2.568   5.642   4.022
 8946TIP3   OH226801   6.188   5.992   5.274
 8946TIP3    H126802   6.150   6.076   5.299
 8946TIP3    H226803   6.231   6.009   5.190
 8947TIP3   OH226804   1.421   2.804   2.612
 8947TIP3    H126805   1.400   2.896   2.621
 8947TIP3    H226806   1.366   2.773   2.539
 8948TIP3   OH226807   7.058   2.998   3.106
 8948TIP3    H126808   7.096   2.987   3.193
 8948TIP3    H226809   6.990   3.064   3.118
 8949TIP3   OH226810   3.819   3.584   0.095
 8949TIP3    H126811   3.807   3.679   0.096
 8949TIP3    H226812   3.732   3.549   0.112
 8950TIP3   OH226813   5.506   3.334   0.888
 8950TIP3    H126814   5.556   3.394   0.945
 8950TIP3    H226815   5.560   3.326   0.809
 8951TIP3   OH226816   4.733   5.618   2.183
 8951TIP3    H126817   4.727   5.559   2.108
 8951TIP3    H226818   4.664   5.589   2.243
 8952TIP3   OH226819   5.778   2.190   4.582
 8952TIP3    H126820   5.829   2.241   4.519
 8952TIP3    H226821   5.725   2.255   4.628
 8953TIP3   OH226822   0.940   4.522   1.019
 8953TIP3    H126823   0.967   4.463   1.090
 8953TIP3    H226824   0.857   4.487   0.989
 8954TIP3   OH226825   1.192   6.494   5.813
 8954TIP3    H126826   1.121   6.514   5.874
 8954TIP3    H226827   1.263   6.461   5.869
 8955TIP3   OH226828   4.508   4.573   0.418
 8955TIP3    H126829   4.432   4.548   0.366
 8955TIP3    H226830   4.496   4.666   0.436
 8956TIP3   OH226831   3.597   2.628   3.617
 8956TIP3    H126832   3.609   2.704   3.561
 8956TIP3    H226833   3.679   2.621   3.666
 8957TIP3   OH226834   4.643   2.915   3.733
 8957TIP3    H126835   4.585   2.922   3.809
 8957TIP3    H226836   4.585   2.889   3.661
 8958TIP3   OH226837   5.036   0.996   4.654
 8958TIP3    H126838   5.006   0.971   4.567
 8958TIP3    H226839   5.066   0.914   4.693
 8959TIP3   OH226840   2.816   3.251   3.430
 8959TIP3    H126841   2.776   3.213   3.509
 8959TIP3    H226842   2.909   3.259   3.451
 8960TIP3   OH226843   3.339   3.830   4.523
 8960TIP3    H126844   3.391   3.773   4.579
 8960TIP3    H226845   3.373   3.918   4.540
 8961TIP3   OH226846   6.341   4.703   0.922
 8961TIP3    H126847   6.356   4.787   0.879
 8961TIP3    H226848   6.267   4.664   0.875
 8962TIP3   OH226849   2.157   4.645   0.022
 8962TIP3    H126850   2.113   4.714  -0.028
 8962TIP3    H226851   2.191   4.689   0.099
 8963TIP3   OH226852   5.115   5.353   0.461
 8963TIP3    H126853   5.040   5.390   0.416
 8963TIP3    H226854   5.189   5.370   0.403
 8964TIP3   OH226855   3.956   3.279   2.994
 8964TIP3    H126856   3.943   3.187   3.019
 8964TIP3    H226857   3.968   3.325   3.077
 8965TIP3   OH226858   4.076   0.247   3.283
 8965TIP3    H126859   4.045   0.319   3.338
 8965TIP3    H226860   4.065   0.169   3.337
 8966TIP3   OH226861   4.077   5.296   0.428
 8966TIP3    H126862   4.135   5.346   0.486
 8966TIP3    H226863   3.995   5.287   0.477
 8967TIP3   OH226864   1.550   6.344   1.424
 8967TIP3    H126865   1.626   6.402   1.429
 8967TIP3    H226866   1.512   6.346   1.512
 8968TIP3   OH226867   5.870   2.605   5.245
 8968TIP3    H126868   5.872   2.519   5.286
 8968TIP3    H226869   5.817   2.659   5.305
 8969TIP3   OH226870   4.798   5.192   0.195
 8969TIP3    H126871   4.703   5.182   0.205
 8969TIP3    H226872   4.835   5.116   0.240
 8970TIP3   OH226873   2.681   4.838   1.266
 8970TIP3    H126874   2.706   4.806   1.353
 8970TIP3    H226875   2.638   4.922   1.283
 8971TIP3   OH226876   6.369   4.292   0.785
 8971TIP3    H126877   6.440   4.308   0.848
 8971TIP3    H226878   6.305   4.240   0.833
 8972TIP3   OH226879   6.558   5.544   4.857
 8972TIP3    H126880   6.603   5.625   4.882
 8972TIP3    H226881   6.500   5.524   4.931
 8973TIP3   OH226882   6.814   4.029   2.051
 8973TIP3    H126883   6.811   3.935   2.069
 8973TIP3    H226884   6.834   4.069   2.135
 8974TIP3   OH226885   0.443   2.636   1.060
 8974TIP3    H126886   0.464   2.622   0.967
 8974TIP3    H226887   0.348   2.635   1.064
 8975TIP3   OH226888   6.515   2.495   2.806
 8975TIP3    H126889   6.495   2.474   2.897
 8975TIP3    H226890   6.479   2.583   2.794
 8976TIP3   OH226891   1.315   2.908   5.479
 8976TIP3    H126892   1.392   2.857   5.504
 8976TIP3    H226893   1.339   2.998   5.501
 8977TIP3   OH226894   3.978   0.688   2.060
 8977TIP3    H126895   4.025   0.613   2.023
 8977TIP3    H226896   4.018   0.764   2.018
 8978TIP3   OH226897   6.728   6.568   1.794
 8978TIP3    H126898   6.822   6.583   1.800
 8978TIP3    H226899   6.719   6.480   1.758
 8979TIP3   OH226900   5.850   5.702   3.045
 8979TIP3    H126901   5.840   5.762   3.119
 8979TIP3    H226902   5.920   5.741   2.992
 8980TIP3   OH226903   5.557   6.278   1.588
 8980TIP3    H126904   5.558   6.218   1.663
 8980TIP3    H226905   5.474   6.260   1.544
 8981TIP3   OH226906   2.105   0.848   1.211
 8981TIP3    H126907   2.188   0.889   1.189
 8981TIP3    H226908   2.108   0.836   1.306
 8982TIP3   OH226909   2.323   2.616   3.349
 8982TIP3    H126910   2.350   2.704   3.324
 8982TIP3    H226911   2.354   2.560   3.277
 8983TIP3   OH226912   6.351   0.157   4.544
 8983TIP3    H126913   6.332   0.190   4.457
 8983TIP3    H226914   6.392   0.072   4.530
 8984TIP3   OH226915   6.166   1.013   2.819
 8984TIP3    H126916   6.237   1.063   2.779
 8984TIP3    H226917   6.164   0.931   2.770
 8985TIP3   OH226918   3.419   6.043   4.114
 8985TIP3    H126919   3.355   6.075   4.177
 8985TIP3    H226920   3.450   5.960   4.151
 8986TIP3   OH226921   6.869   1.803   5.680
 8986TIP3    H126922   6.893   1.830   5.768
 8986TIP3    H226923   6.849   1.885   5.634
 8987TIP3   OH226924   1.926   6.689   2.915
 8987TIP3    H126925   1.875   6.727   2.986
 8987TIP3    H226926   1.874   6.613   2.887
 8988TIP3   OH226927   6.545   3.738   1.972
 8988TIP3    H126928   6.558   3.745   2.067
 8988TIP3    H226929   6.470   3.794   1.954
 8989TIP3   OH226930   0.007   6.076   3.926
 8989TIP3    H126931   0.026   6.043   4.013
 8989TIP3    H226932  -0.014   5.998   3.874
 8990TIP3   OH226933   3.839   0.523   3.168
 8990TIP3    H126934   3.785   0.444   3.158
 8990TIP3    H226935   3.926   0.496   3.139
 8991TIP3   OH226936   6.678   2.179   1.135
 8991TIP3    H126937   6.647   2.229   1.060
 8991TIP3    H226938   6.645   2.091   1.120
 8992TIP3   OH226939   4.852   2.327   3.617
 8992TIP3    H126940   4.940   2.364   3.603
 8992TIP3    H226941   4.816   2.377   3.689
 8993TIP3   OH226942   3.189   3.935   2.468
 8993TIP3    H126943   3.116   3.910   2.412
 8993TIP3    H226944   3.174   4.028   2.487
 8994TIP3   OH226945   2.846   3.534   5.841
 8994TIP3    H126946   2.828   3.621   5.875
 8994TIP3    H226947   2.855   3.479   5.919
 8995TIP3   OH226948   5.356   2.124   4.711
 8995TIP3    H126949   5.379   2.046   4.762
 8995TIP3    H226950   5.375   2.101   4.621
 8996TIP3   OH226951   1.418   3.494   1.069
 8996TIP3    H126952   1.488   3.553   1.098
 8996TIP3    H226953   1.457   3.442   0.999
 8997TIP3   OH226954   6.357   0.088   2.840
 8997TIP3    H126955   6.308   0.057   2.764
 8997TIP3    H226956   6.290   0.121   2.900
 8998TIP3   OH226957   0.920   5.043   0.408
 8998TIP3    H126958   0.866   5.082   0.339
 8998TIP3    H226959   0.867   5.049   0.487
 8999TIP3   OH226960   6.149   1.529   2.664
 8999TIP3    H126961   6.091   1.454   2.649
 8999TIP3    H226962   6.099   1.604   2.632
 9000TIP3   OH226963   4.478   5.129   0.253
 9000TIP3    H126964   4.400   5.078   0.273
 9000TIP3    H226965   4.448   5.220   0.255
 9001TIP3   OH226966   1.754   2.235   2.331
 9001TIP3    H126967   1.678   2.178   2.327
 9001TIP3    H226968   1.823   2.186   2.286
 9002TIP3   OH226969   1.918   4.496   1.310
 9002TIP3    H126970   1.911   4.469   1.218
 9002TIP3    H226971   2.011   4.492   1.329
 9003TIP3   OH226972   7.044   0.967   5.859
 9003TIP3    H126973   7.033   0.985   5.766
 9003TIP3    H226974   7.031   1.053   5.901
 9004TIP3   OH226975   5.637   5.816   0.185
 9004TIP3    H126976   5.689   5.864   0.120
 9004TIP3    H226977   5.692   5.744   0.213
 9005TIP3   OH226978   5.678   4.710   4.414
 9005TIP3    H126979   5.692   4.764   4.336
 9005TIP3    H226980   5.594   4.668   4.400
 9006TIP3   OH226981   3.221   5.496   1.814
 9006TIP3    H126982   3.268   5.481   1.732
 9006TIP3    H226983   3.251   5.427   1.872
 9007TIP3   OH226984   5.379   2.633   1.605
 9007TIP3    H126985   5.313   2.702   1.603
 9007TIP3    H226986   5.329   2.551   1.598
 9008TIP3   OH226987   1.706   3.224   0.978
 9008TIP3    H126988   1.684   3.255   1.066
 9008TIP3    H226989   1.668   3.290   0.919
 9009TIP3   OH226990   6.852   4.842   3.307
 9009TIP3    H126991   6.762   4.818   3.329
 9009TIP3    H226992   6.885   4.768   3.256
 9010TIP3   OH226993   0.919   0.178   5.667
 9010TIP3    H126994   0.942   0.238   5.596
 9010TIP3    H226995   0.904   0.094   5.622
 9011TIP3   OH226996   1.540   1.193   5.912
 9011TIP3    H126997   1.602   1.257   5.876
 9011TIP3    H226998   1.478   1.178   5.841
 9012TIP3   OH226999   5.759   4.203   1.273
 9012TIP3    H127000   5.820   4.215   1.346
 9012TIP3    H227001   5.698   4.136   1.304
 9013TIP3   OH227002   6.348   1.058   4.610
 9013TIP3    H127003   6.306   1.041   4.526
 9013TIP3    H227004   6.295   1.127   4.650
 9014TIP3   OH227005   5.555   0.521   0.767
 9014TIP3    H127006   5.460   0.515   0.778
 9014TIP3    H227007   5.590   0.499   0.854
 9015TIP3   OH227008   6.764   6.617   4.031
 9015TIP3    H127009   6.730   6.597   3.944
 9015TIP3    H227010   6.800   6.705   4.023
 9016TIP3   OH227011   1.517   3.804   5.427
 9016TIP3    H127012   1.580   3.732   5.431
 9016TIP3    H227013   1.435   3.762   5.403
 9017TIP3   OH227014   2.552   3.758   1.038
 9017TIP3    H127015   2.528   3.754   0.945
 9017TIP3    H227016   2.567   3.667   1.063
 9018TIP3   OH227017   3.066   0.153   3.621
 9018TIP3    H127018   3.030   0.237   3.592
 9018TIP3    H227019   3.012   0.087   3.577
 9019TIP3   OH227020   4.299   1.203   4.658
 9019TIP3    H127021   4.369   1.194   4.721
 9019TIP3    H227022   4.343   1.228   4.576
 9020TIP3   OH227023   4.501   3.490   0.334
 9020TIP3    H127024   4.416   3.534   0.334
 9020TIP3    H227025   4.501   3.438   0.254
 9021TIP3   OH227026   5.898   5.952   3.164
 9021TIP3    H127027   5.879   5.973   3.072
 9021TIP3    H227028   5.990   5.977   3.175
 9022TIP3   OH227029   0.567   4.972   5.786
 9022TIP3    H127030   0.557   5.022   5.867
 9022TIP3    H227031   0.565   5.038   5.717
 9023TIP3   OH227032   4.432   1.081   1.016
 9023TIP3    H127033   4.360   1.095   0.955
 9023TIP3    H227034   4.402   1.120   1.098
 9024TIP3   OH227035   5.480   4.033   0.434
 9024TIP3    H127036   5.492   4.087   0.356
 9024TIP3    H227037   5.388   4.006   0.431
 9025TIP3   OH227038   1.526   2.932   1.815
 9025TIP3    H127039   1.573   3.015   1.813
 9025TIP3    H227040   1.585   2.871   1.860
 9026TIP3   OH227041   5.097   4.223   3.958
 9026TIP3    H127042   5.186   4.236   3.988
 9026TIP3    H227043   5.062   4.154   4.015
 9027TIP3   OH227044   0.844   2.141   5.027
 9027TIP3    H127045   0.878   2.197   5.097
 9027TIP3    H227046   0.892   2.169   4.949
 9028TIP3   OH227047   2.994   2.861   0.551
 9028TIP3    H127048   3.001   2.916   0.629
 9028TIP3    H227049   2.915   2.892   0.506
 9029TIP3   OH227050   2.458   6.791   0.180
 9029TIP3    H127051   2.487   6.757   0.264
 9029TIP3    H227052   2.372   6.753   0.166
 9030TIP3   OH227053   6.061   6.452   1.593
 9030TIP3    H127054   6.024   6.408   1.517
 9030TIP3    H227055   5.989   6.502   1.630
 9031TIP3   OH227056   3.027   5.549   3.273
 9031TIP3    H127057   3.085   5.579   3.342
 9031TIP3    H227058   3.008   5.458   3.295
 9032TIP3   OH227059   4.358   4.109   5.780
 9032TIP3    H127060   4.370   4.202   5.795
 9032TIP3    H227061   4.447   4.073   5.778
 9033TIP3   OH227062   3.252   0.786   4.319
 9033TIP3    H127063   3.193   0.837   4.262
 9033TIP3    H227064   3.240   0.695   4.290
 9034TIP3   OH227065   2.023   5.669   4.157
 9034TIP3    H127066   1.942   5.674   4.106
 9034TIP3    H227067   2.026   5.578   4.188
 9035TIP3   OH227068   3.113   4.636   1.086
 9035TIP3    H127069   3.030   4.683   1.078
 9035TIP3    H227070   3.135   4.611   0.996
 9036TIP3   OH227071   6.848   6.101   4.367
 9036TIP3    H127072   6.804   6.174   4.323
 9036TIP3    H227073   6.783   6.031   4.367
 9037TIP3   OH227074   5.481   6.545   0.287
 9037TIP3    H127075   5.492   6.495   0.206
 9037TIP3    H227076   5.523   6.493   0.354
 9038TIP3   OH227077   6.988   4.984   0.208
 9038TIP3    H127078   7.054   4.924   0.173
 9038TIP3    H227079   7.033   5.030   0.278
 9039TIP3   OH227080   2.648   2.083   1.575
 9039TIP3    H127081   2.688   2.138   1.508
 9039TIP3    H227082   2.705   2.007   1.581
 9040TIP3   OH227083   4.404   3.103   5.926
 9040TIP3    H127084   4.352   3.130   5.850
 9040TIP3    H227085   4.454   3.027   5.895
 9041TIP3   OH227086   3.982   3.007   4.441
 9041TIP3    H127087   4.062   3.055   4.419
 9041TIP3    H227088   4.007   2.915   4.439
 9042TIP3   OH227089   4.928   3.815   2.279
 9042TIP3    H127090   4.951   3.742   2.336
 9042TIP3    H227091   4.832   3.812   2.275
 9043TIP3   OH227092   5.233   0.223   0.449
 9043TIP3    H127093   5.185   0.297   0.410
 9043TIP3    H227094   5.196   0.214   0.537
 9044TIP3   OH227095   1.215   2.082   0.587
 9044TIP3    H127096   1.151   2.154   0.582
 9044TIP3    H227097   1.297   2.124   0.612
 9045TIP3   OH227098   0.065   0.671   3.697
 9045TIP3    H127099   0.059   0.609   3.770
 9045TIP3    H227100   0.149   0.652   3.655
 9046TIP3   OH227101   1.163   3.474   0.192
 9046TIP3    H127102   1.070   3.495   0.187
 9046TIP3    H227103   1.167   3.379   0.195
 9047TIP3   OH227104   3.669   2.446   4.172
 9047TIP3    H127105   3.632   2.360   4.189
 9047TIP3    H227106   3.764   2.434   4.176
 9048TIP3   OH227107   0.259   3.465   3.965
 9048TIP3    H127108   0.168   3.474   3.938
 9048TIP3    H227109   0.310   3.486   3.887
 9049TIP3   OH227110   3.623   0.210   4.399
 9049TIP3    H127111   3.697   0.264   4.427
 9049TIP3    H227112   3.546   0.253   4.434
 9050TIP3   OH227113   4.166   6.152   2.212
 9050TIP3    H127114   4.162   6.225   2.150
 9050TIP3    H227115   4.088   6.100   2.193
 9051TIP3   OH227116   5.938   5.460   4.924
 9051TIP3    H127117   5.915   5.550   4.947
 9051TIP3    H227118   6.026   5.466   4.886
 9052TIP3   OH227119   4.517   3.154   0.630
 9052TIP3    H127120   4.511   3.176   0.723
 9052TIP3    H227121   4.573   3.076   0.627
 9053TIP3   OH227122   3.250   4.393   1.763
 9053TIP3    H127123   3.234   4.398   1.857
 9053TIP3    H227124   3.266   4.300   1.746
 9054TIP3   OH227125   4.468   3.188   4.511
 9054TIP3    H127126   4.460   3.100   4.547
 9054TIP3    H227127   4.528   3.179   4.437
 9055TIP3   OH227128   3.731   1.033   0.578
 9055TIP3    H127129   3.694   0.954   0.539
 9055TIP3    H227130   3.709   1.103   0.516
 9056TIP3   OH227131   5.188   5.091   3.593
 9056TIP3    H127132   5.167   5.008   3.637
 9056TIP3    H227133   5.264   5.070   3.539
 9057TIP3   OH227134   3.993   0.566   1.775
 9057TIP3    H127135   3.901   0.540   1.780
 9057TIP3    H227136   4.037   0.506   1.836
 9058TIP3   OH227137   2.589   1.001   5.166
 9058TIP3    H127138   2.561   1.026   5.077
 9058TIP3    H227139   2.677   1.038   5.174
 9059TIP3   OH227140   0.918   2.477   1.756
 9059TIP3    H127141   0.921   2.547   1.821
 9059TIP3    H227142   0.861   2.410   1.796
 9060TIP3   OH227143   4.642   4.596   0.865
 9060TIP3    H127144   4.697   4.539   0.812
 9060TIP3    H227145   4.693   4.611   0.945
 9061TIP3   OH227146   6.764   6.581   4.321
 9061TIP3    H127147   6.701   6.652   4.338
 9061TIP3    H227148   6.785   6.589   4.228
 9062TIP3   OH227149   0.154   1.337   1.384
 9062TIP3    H127150   0.134   1.262   1.327
 9062TIP3    H227151   0.079   1.396   1.373
 9063TIP3   OH227152   5.086   0.449   0.332
 9063TIP3    H127153   5.004   0.452   0.283
 9063TIP3    H227154   5.083   0.526   0.389
 9064TIP3   OH227155   6.789   1.559   3.159
 9064TIP3    H127156   6.749   1.482   3.116
 9064TIP3    H227157   6.839   1.601   3.089
 9065TIP3   OH227158   5.234   1.484   3.948
 9065TIP3    H127159   5.248   1.554   4.012
 9065TIP3    H227160   5.149   1.447   3.972
 9066TIP3   OH227161   3.338   0.026   0.104
 9066TIP3    H127162   3.390   0.082   0.047
 9066TIP3    H227163   3.325  -0.054   0.053
 9067TIP3   OH227164   3.604   4.378   1.797
 9067TIP3    H127165   3.596   4.460   1.749
 9067TIP3    H227166   3.553   4.393   1.877
 9068TIP3   OH227167   5.420   0.130   3.258
 9068TIP3    H127168   5.490   0.147   3.195
 9068TIP3    H227169   5.376   0.214   3.269
 9069TIP3   OH227170   6.929   1.789   4.297
 9069TIP3    H127171   6.908   1.786   4.204
 9069TIP3    H227172   6.846   1.813   4.339
 9070TIP3   OH227173   0.984   2.677   5.151
 9070TIP3    H127174   0.908   2.709   5.103
 9070TIP3    H227175   1.058   2.723   5.111
 9071TIP3   OH227176   6.556   5.241   5.816
 9071TIP3    H127177   6.503   5.170   5.853
 9071TIP3    H227178   6.638   5.198   5.791
 9072TIP3   OH227179   0.806   5.448   3.879
 9072TIP3    H127180   0.886   5.458   3.828
 9072TIP3    H227181   0.806   5.522   3.940
 9073TIP3   OH227182   4.424   3.793   2.955
 9073TIP3    H127183   4.409   3.856   2.885
 9073TIP3    H227184   4.513   3.763   2.942
 9074TIP3   OH227185   3.462   5.516   0.729
 9074TIP3    H127186   3.468   5.489   0.820
 9074TIP3    H227187   3.456   5.611   0.732
 9075TIP3   OH227188   4.360   5.547   3.791
 9075TIP3    H127189   4.301   5.613   3.827
 9075TIP3    H227190   4.386   5.581   3.706
 9076TIP3   OH227191   3.203   4.044   5.459
 9076TIP3    H127192   3.273   4.109   5.454
 9076TIP3    H227193   3.147   4.074   5.531
 9077TIP3   OH227194   6.534   4.026   4.118
 9077TIP3    H127195   6.629   4.020   4.132
 9077TIP3    H227196   6.518   3.972   4.041
 9078TIP3   OH227197   3.263   4.035   1.455
 9078TIP3    H127198   3.203   4.054   1.384
 9078TIP3    H227199   3.348   4.065   1.424
 9079TIP3   OH227200   4.392   1.551   5.741
 9079TIP3    H127201   4.412   1.610   5.814
 9079TIP3    H227202   4.350   1.475   5.782
 9080TIP3   OH227203   2.508   2.401   1.786
 9080TIP3    H127204   2.449   2.435   1.718
 9080TIP3    H227205   2.594   2.435   1.763
 9081TIP3   OH227206   6.483   3.699   4.183
 9081TIP3    H127207   6.465   3.686   4.090
 9081TIP3    H227208   6.442   3.783   4.204
 9082TIP3   OH227209   2.036   2.217   4.103
 9082TIP3    H127210   1.952   2.173   4.090
 9082TIP3    H227211   2.044   2.276   4.029
 9083TIP3   OH227212   0.033   0.455   3.445
 9083TIP3    H127213   0.122   0.488   3.440
 9083TIP3    H227214   0.011   0.458   3.538
 9084TIP3   OH227215   3.326   5.261   4.519
 9084TIP3    H127216   3.339   5.166   4.525
 9084TIP3    H227217   3.361   5.295   4.601
 9085TIP3   OH227218   1.211   4.596   1.938
 9085TIP3    H127219   1.124   4.617   1.970
 9085TIP3    H227220   1.217   4.501   1.941
 9086TIP3   OH227221   2.517   3.100   3.933
 9086TIP3    H127222   2.608   3.071   3.930
 9086TIP3    H227223   2.494   3.119   3.842
 9087TIP3   OH227224   2.691   0.888   0.488
 9087TIP3    H127225   2.629   0.883   0.415
 9087TIP3    H227226   2.760   0.947   0.457
 9088TIP3   OH227227   1.542   1.278   1.157
 9088TIP3    H127228   1.518   1.368   1.134
 9088TIP3    H227229   1.638   1.278   1.155
 9089TIP3   OH227230   2.326   4.326   1.232
 9089TIP3    H127231   2.410   4.283   1.249
 9089TIP3    H227232   2.261   4.257   1.243
 9090TIP3   OH227233   3.706   5.951   5.905
 9090TIP3    H127234   3.752   5.928   5.824
 9090TIP3    H227235   3.617   5.918   5.892
 9091TIP3   OH227236   1.904   3.531   5.455
 9091TIP3    H127237   1.877   3.583   5.530
 9091TIP3    H227238   1.972   3.473   5.489
 9092TIP3   OH227239   2.278   2.136   3.866
 9092TIP3    H127240   2.192   2.096   3.880
 9092TIP3    H227241   2.322   2.076   3.806
 9093TIP3   OH227242   6.409   2.645   1.402
 9093TIP3    H127243   6.454   2.574   1.447
 9093TIP3    H227244   6.464   2.665   1.327
 9094TIP3   OH227245   6.879   6.382   1.360
 9094TIP3    H127246   6.838   6.464   1.388
 9094TIP3    H227247   6.970   6.405   1.342
 9095TIP3   OH227248   6.948   0.302   3.018
 9095TIP3    H127249   6.939   0.230   2.955
 9095TIP3    H227250   7.042   0.321   3.019
 9096TIP3   OH227251   0.225   5.612   2.455
 9096TIP3    H127252   0.165   5.548   2.416
 9096TIP3    H227253   0.308   5.564   2.463
 9097TIP3   OH227254   0.369   1.014   2.399
 9097TIP3    H127255   0.456   1.002   2.439
 9097TIP3    H227256   0.338   1.098   2.433
 9098TIP3   OH227257   7.059   0.201   4.350
 9098TIP3    H127258   6.982   0.236   4.306
 9098TIP3    H227259   7.133   0.237   4.302
 9099TIP3   OH227260   1.843   2.037   1.169
 9099TIP3    H127261   1.877   1.962   1.120
 9099TIP3    H227262   1.917   2.096   1.178
 9100TIP3   OH227263   0.444   0.471   0.810
 9100TIP3    H127264   0.416   0.380   0.799
 9100TIP3    H227265   0.536   0.465   0.837
 9101TIP3   OH227266   6.118   3.781   0.068
 9101TIP3    H127267   6.070   3.753   0.147
 9101TIP3    H227268   6.199   3.820   0.102
 9102TIP3   OH227269   6.336   3.900   0.207
 9102TIP3    H127270   6.427   3.910   0.179
 9102TIP3    H227271   6.337   3.920   0.301
 9103TIP3   OH227272   0.693   1.166   4.273
 9103TIP3    H127273   0.682   1.227   4.346
 9103TIP3    H227274   0.711   1.222   4.197
 9104TIP3   OH227275   6.919   0.348   2.602
 9104TIP3    H127276   6.922   0.365   2.508
 9104TIP3    H227277   7.004   0.309   2.622
 9105TIP3   OH227278   2.952   0.928   1.742
 9105TIP3    H127279   2.952   0.860   1.810
 9105TIP3    H227280   2.864   0.966   1.747
 9106TIP3   OH227281   6.270   6.454   4.047
 9106TIP3    H127282   6.218   6.506   4.107
 9106TIP3    H227283   6.268   6.504   3.965
 9107TIP3   OH227284   5.796   4.248   5.792
 9107TIP3    H127285   5.806   4.164   5.748
 9107TIP3    H227286   5.702   4.263   5.794
 9108TIP3   OH227287   1.633   6.710   2.504
 9108TIP3    H127288   1.707   6.741   2.555
 9108TIP3    H227289   1.556   6.753   2.542
 9109TIP3   OH227290   5.126   3.730   4.740
 9109TIP3    H127291   5.192   3.771   4.684
 9109TIP3    H227292   5.151   3.638   4.743
 9110TIP3   OH227293   6.846   2.553   5.488
 9110TIP3    H127294   6.890   2.637   5.504
 9110TIP3    H227295   6.913   2.499   5.445
 9111TIP3   OH227296   5.949   4.675   0.567
 9111TIP3    H127297   5.855   4.683   0.547
 9111TIP3    H227298   5.955   4.601   0.626
 9112TIP3   OH227299   5.317   5.696   5.237
 9112TIP3    H127300   5.376   5.714   5.310
 9112TIP3    H227301   5.323   5.601   5.224
 9113TIP3   OH227302   0.948   3.024   4.918
 9113TIP3    H127303   0.981   3.089   4.981
 9113TIP3    H227304   0.875   3.068   4.874
 9114TIP3   OH227305   4.798   4.293   3.893
 9114TIP3    H127306   4.779   4.326   3.980
 9114TIP3    H227307   4.857   4.219   3.908
 9115TIP3   OH227308   3.988   6.109   2.839
 9115TIP3    H127309   3.940   6.095   2.758
 9115TIP3    H227310   3.990   6.023   2.881
 9116TIP3   OH227311   3.203   6.389   4.961
 9116TIP3    H127312   3.178   6.476   4.930
 9116TIP3    H227313   3.164   6.329   4.897
 9117TIP3   OH227314   6.061   5.219   5.610
 9117TIP3    H127315   6.052   5.242   5.518
 9117TIP3    H227316   6.037   5.127   5.615
 9118TIP3   OH227317   0.597   5.025   0.287
 9118TIP3    H127318   0.509   5.054   0.264
 9118TIP3    H227319   0.651   5.104   0.279
 9119TIP3   OH227320   6.386   2.390   0.324
 9119TIP3    H127321   6.355   2.457   0.263
 9119TIP3    H227322   6.479   2.409   0.335
 9120TIP3   OH227323   6.639   0.732   4.478
 9120TIP3    H127324   6.608   0.696   4.395
 9120TIP3    H227325   6.570   0.713   4.540
 9121TIP3   OH227326   2.945   5.889   3.673
 9121TIP3    H127327   2.909   5.805   3.702
 9121TIP3    H227328   3.039   5.873   3.665
 9122TIP3   OH227329   4.222   5.083   2.108
 9122TIP3    H127330   4.208   5.015   2.041
 9122TIP3    H227331   4.255   5.034   2.184
 9123TIP3   OH227332   5.758   5.511   0.200
 9123TIP3    H127333   5.786   5.470   0.282
 9123TIP3    H227334   5.684   5.459   0.171
 9124TIP3   OH227335   3.661   5.617   3.199
 9124TIP3    H127336   3.576   5.590   3.234
 9124TIP3    H227337   3.723   5.554   3.236
 9125TIP3   OH227338   3.103   4.275   4.711
 9125TIP3    H127339   3.061   4.211   4.653
 9125TIP3    H227340   3.122   4.226   4.791
 9126TIP3   OH227341   4.424   3.372   1.905
 9126TIP3    H127342   4.408   3.388   1.998
 9126TIP3    H227343   4.417   3.277   1.895
 9127TIP3   OH227344   6.049   4.705   1.511
 9127TIP3    H127345   6.019   4.795   1.523
 9127TIP3    H227346   6.021   4.681   1.423
 9128TIP3   OH227347   4.249   0.258   0.512
 9128TIP3    H127348   4.173   0.285   0.459
 9128TIP3    H227349   4.244   0.162   0.514
 9129TIP3   OH227350   6.389   0.863   5.099
 9129TIP3    H127351   6.307   0.829   5.063
 9129TIP3    H227352   6.406   0.807   5.176
 9130TIP3   OH227353   4.743   3.142   0.081
 9130TIP3    H127354   4.805   3.160   0.011
 9130TIP3    H227355   4.794   3.094   0.147
 9131TIP3   OH227356   2.036   5.402   5.376
 9131TIP3    H127357   2.070   5.473   5.431
 9131TIP3    H227358   2.086   5.325   5.403
 9132TIP3   OH227359   6.474   4.882   0.674
 9132TIP3    H127360   6.504   4.973   0.668
 9132TIP3    H227361   6.383   4.885   0.646
 9133TIP3   OH227362   2.673   4.970   5.087
 9133TIP3    H127363   2.625   4.943   5.009
 9133TIP3    H227364   2.656   5.064   5.095
 9134TIP3   OH227365   6.804   3.923   4.168
 9134TIP3    H127366   6.894   3.919   4.201
 9134TIP3    H227367   6.812   3.903   4.075
 9135TIP3   OH227368   3.943   0.249   5.723
 9135TIP3    H127369   3.866   0.300   5.702
 9135TIP3    H227370   3.930   0.221   5.814
 9136TIP3   OH227371   0.231   4.805   1.170
 9136TIP3    H127372   0.239   4.886   1.219
 9136TIP3    H227373   0.314   4.760   1.182
 9137TIP3   OH227374   4.160   0.010   0.945
 9137TIP3    H127375   4.175   0.041   0.855
 9137TIP3    H227376   4.246   0.015   0.987
 9138TIP3   OH227377   5.130   6.561   5.742
 9138TIP3    H127378   5.092   6.648   5.751
 9138TIP3    H227379   5.196   6.556   5.811
 9139TIP3   OH227380   1.975   4.757   4.677
 9139TIP3    H127381   2.021   4.673   4.670
 9139TIP3    H227382   2.035   4.821   4.640
 9140TIP3   OH227383   4.160   3.721   5.540
 9140TIP3    H127384   4.064   3.715   5.541
 9140TIP3    H227385   4.184   3.690   5.452
 9141TIP3   OH227386   5.437   4.896   2.758
 9141TIP3    H127387   5.389   4.900   2.675
 9141TIP3    H227388   5.505   4.830   2.742
 9142TIP3   OH227389   1.906   3.588   0.495
 9142TIP3    H127390   1.879   3.501   0.465
 9142TIP3    H227391   1.982   3.610   0.441
 9143TIP3   OH227392   0.192   1.184   2.691
 9143TIP3    H127393   0.261   1.127   2.727
 9143TIP3    H227394   0.238   1.262   2.660
 9144TIP3   OH227395   5.847   6.591   2.018
 9144TIP3    H127396   5.870   6.613   2.109
 9144TIP3    H227397   5.765   6.639   2.002
 9145TIP3   OH227398   3.913   5.492   4.175
 9145TIP3    H127399   3.936   5.493   4.268
 9145TIP3    H227400   3.961   5.417   4.140
 9146TIP3   OH227401   3.537   1.940   3.555
 9146TIP3    H127402   3.554   2.010   3.492
 9146TIP3    H227403   3.581   1.968   3.635
 9147TIP3   OH227404   0.081   2.883   0.989
 9147TIP3    H127405   0.134   2.898   0.911
 9147TIP3    H227406   0.134   2.917   1.062
 9148TIP3   OH227407   1.026   6.201   1.436
 9148TIP3    H127408   0.947   6.207   1.489
 9148TIP3    H227409   1.093   6.165   1.494
 9149TIP3   OH227410   5.707   5.001   5.686
 9149TIP3    H127411   5.736   5.091   5.698
 9149TIP3    H227412   5.678   4.996   5.595
 9150TIP3   OH227413   4.598   1.795   5.649
 9150TIP3    H127414   4.601   1.772   5.557
 9150TIP3    H227415   4.620   1.888   5.651
 9151TIP3   OH227416   4.924   6.505   0.579
 9151TIP3    H127417   4.978   6.484   0.503
 9151TIP3    H227418   4.936   6.599   0.592
 9152TIP3   OH227419   2.245   6.087   3.045
 9152TIP3    H127420   2.150   6.077   3.045
 9152TIP3    H227421   2.275   6.022   3.109
 9153TIP3   OH227422   3.601   0.190   5.785
 9153TIP3    H127423   3.532   0.142   5.830
 9153TIP3    H227424   3.639   0.248   5.852
 9154TIP3   OH227425   4.098   4.411   3.866
 9154TIP3    H127426   4.163   4.369   3.810
 9154TIP3    H227427   4.149   4.467   3.925
 9155TIP3   OH227428   1.314   3.577   2.307
 9155TIP3    H127429   1.403   3.593   2.338
 9155TIP3    H227430   1.292   3.491   2.342
 9156TIP3   OH227431   3.000   4.559   5.699
 9156TIP3    H127432   2.994   4.486   5.637
 9156TIP3    H227433   3.034   4.632   5.647
 9157TIP3   OH227434   0.699   6.127   1.355
 9157TIP3    H127435   0.766   6.063   1.329
 9157TIP3    H227436   0.635   6.124   1.284
 9158TIP3   OH227437   4.280   2.770   0.869
 9158TIP3    H127438   4.285   2.719   0.950
 9158TIP3    H227439   4.258   2.859   0.898
 9159TIP3   OH227440   6.473   6.405   0.089
 9159TIP3    H127441   6.502   6.327   0.135
 9159TIP3    H227442   6.539   6.420   0.022
 9160TIP3   OH227443   3.399   0.279   1.951
 9160TIP3    H127444   3.313   0.317   1.937
 9160TIP3    H227445   3.383   0.203   2.008
 9161TIP3   OH227446   2.903   3.249   1.117
 9161TIP3    H127447   2.986   3.207   1.140
 9161TIP3    H227448   2.863   3.189   1.054
 9162TIP3   OH227449   1.418   1.763   3.773
 9162TIP3    H127450   1.387   1.734   3.859
 9162TIP3    H227451   1.512   1.746   3.775
 9163TIP3   OH227452   3.088   3.364   4.471
 9163TIP3    H127453   3.148   3.400   4.405
 9163TIP3    H227454   3.079   3.272   4.447
 9164TIP3   OH227455   0.736   0.881   0.274
 9164TIP3    H127456   0.748   0.930   0.356
 9164TIP3    H227457   0.732   0.948   0.206
 9165TIP3   OH227458   0.396   3.740   2.297
 9165TIP3    H127459   0.488   3.717   2.285
 9165TIP3    H227460   0.357   3.663   2.337
 9166TIP3   OH227461   1.372   6.499   3.266
 9166TIP3    H127462   1.340   6.461   3.348
 9166TIP3    H227463   1.319   6.456   3.198
 9167TIP3   OH227464   6.558   3.739   2.258
 9167TIP3    H127465   6.546   3.651   2.292
 9167TIP3    H227466   6.641   3.769   2.297
 9168TIP3   OH227467   1.657   4.728   1.603
 9168TIP3    H127468   1.615   4.695   1.524
 9168TIP3    H227469   1.748   4.698   1.597
 9169TIP3   OH227470   3.253   2.833   0.605
 9169TIP3    H127471   3.160   2.848   0.586
 9169TIP3    H227472   3.295   2.916   0.585
 9170TIP3   OH227473   2.371   2.245   2.746
 9170TIP3    H127474   2.393   2.217   2.657
 9170TIP3    H227475   2.433   2.197   2.802
 9171TIP3   OH227476   5.453   3.391   1.311
 9171TIP3    H127477   5.371   3.352   1.280
 9171TIP3    H227478   5.434   3.416   1.401
 9172TIP3   OH227479   0.542   4.940   0.572
 9172TIP3    H127480   0.588   5.019   0.602
 9172TIP3    H227481   0.554   4.940   0.477
 9173TIP3   OH227482   3.566   3.690   3.447
 9173TIP3    H127483   3.579   3.630   3.373
 9173TIP3    H227484   3.645   3.743   3.449
 9174TIP3   OH227485   1.568   1.450   4.107
 9174TIP3    H127486   1.523   1.377   4.066
 9174TIP3    H227487   1.567   1.429   4.200
 9175TIP3   OH227488   6.884   2.688   2.928
 9175TIP3    H127489   6.955   2.733   2.974
 9175TIP3    H227490   6.830   2.652   2.998
 9176TIP3   OH227491   3.995   4.353   4.545
 9176TIP3    H127492   4.066   4.390   4.493
 9176TIP3    H227493   4.029   4.353   4.635
 9177TIP3   OH227494   6.185   5.440   2.983
 9177TIP3    H127495   6.114   5.452   2.920
 9177TIP3    H227496   6.141   5.435   3.068
 9178TIP3   OH227497   0.858   4.048   3.025
 9178TIP3    H127498   0.906   4.122   3.060
 9178TIP3    H227499   0.920   4.003   2.967
 9179TIP3   OH227500   2.252   2.399   0.777
 9179TIP3    H127501   2.340   2.415   0.811
 9179TIP3    H227502   2.228   2.481   0.734
 9180TIP3   OH227503   5.783   2.389   2.551
 9180TIP3    H127504   5.872   2.399   2.585
 9180TIP3    H227505   5.727   2.399   2.628
 9181TIP3   OH227506   6.545   1.139   2.916
 9181TIP3    H127507   6.462   1.137   2.963
 9181TIP3    H227508   6.520   1.154   2.825
 9182TIP3   OH227509   6.969   5.770   4.339
 9182TIP3    H127510   6.895   5.713   4.363
 9182TIP3    H227511   6.993   5.813   4.421
 9183TIP3   OH227512   3.939   6.119   1.870
 9183TIP3    H127513   3.948   6.214   1.869
 9183TIP3    H227514   4.012   6.088   1.815
 9184TIP3   OH227515   5.369   1.152   5.449
 9184TIP3    H127516   5.292   1.194   5.410
 9184TIP3    H227517   5.354   1.156   5.544
 9185TIP3   OH227518   2.597   1.090   0.693
 9185TIP3    H127519   2.544   1.130   0.624
 9185TIP3    H227520   2.643   1.019   0.648
 9186TIP3   OH227521   3.190   2.249   2.644
 9186TIP3    H127522   3.105   2.210   2.625
 9186TIP3    H227523   3.203   2.313   2.574
 9187TIP3   OH227524   3.380   2.931   3.648
 9187TIP3    H127525   3.328   2.863   3.691
 9187TIP3    H227526   3.320   3.006   3.641
 9188TIP3   OH227527   3.431   5.393   4.726
 9188TIP3    H127528   3.522   5.374   4.747
 9188TIP3    H227529   3.399   5.444   4.800
 9189TIP3   OH227530   6.101   5.864   3.434
 9189TIP3    H127531   6.117   5.788   3.489
 9189TIP3    H227532   6.089   5.936   3.495
 9190TIP3   OH227533   7.202   6.592   2.836
 9190TIP3    H127534   7.121   6.548   2.863
 9190TIP3    H227535   7.182   6.686   2.845
 9191TIP3   OH227536   0.480   0.008   1.130
 9191TIP3    H127537   0.443   0.005   1.042
 9191TIP3    H227538   0.574   0.024   1.116
 9192TIP3   OH227539   5.748   4.928   3.924
 9192TIP3    H127540   5.843   4.945   3.921
 9192TIP3    H227541   5.708   5.015   3.922
 9193TIP3   OH227542   2.681   4.683   2.730
 9193TIP3    H127543   2.642   4.609   2.683
 9193TIP3    H227544   2.637   4.683   2.815
 9194TIP3   OH227545   5.928   0.920   0.334
 9194TIP3    H127546   5.989   0.916   0.408
 9194TIP3    H227547   5.930   1.012   0.307
 9195TIP3   OH227548   1.715   6.486   2.871
 9195TIP3    H127549   1.658   6.431   2.816
 9195TIP3    H227550   1.739   6.429   2.944
 9196TIP3   OH227551   5.364   6.603   4.175
 9196TIP3    H127552   5.316   6.590   4.256
 9196TIP3    H227553   5.431   6.535   4.175
 9197TIP3   OH227554   2.842   2.593   3.825
 9197TIP3    H127555   2.902   2.587   3.751
 9197TIP3    H227556   2.775   2.655   3.798
 9198TIP3   OH227557   4.232   2.702   2.853
 9198TIP3    H127558   4.169   2.768   2.823
 9198TIP3    H227559   4.305   2.710   2.791
 9199TIP3   OH227560   0.412   4.244   1.100
 9199TIP3    H127561   0.423   4.271   1.191
 9199TIP3    H227562   0.458   4.160   1.095
 9200TIP3   OH227563   6.415   3.421   5.110
 9200TIP3    H127564   6.374   3.464   5.035
 9200TIP3    H227565   6.457   3.343   5.074
 9201TIP3   OH227566   7.000   3.873   0.099
 9201TIP3    H127567   7.053   3.904   0.026
 9201TIP3    H227568   6.915   3.851   0.061
 9202TIP3   OH227569   5.297   4.534   4.556
 9202TIP3    H127570   5.347   4.476   4.613
 9202TIP3    H227571   5.288   4.615   4.606
 9203TIP3   OH227572   6.257   3.373   3.408
 9203TIP3    H127573   6.181   3.324   3.440
 9203TIP3    H227574   6.305   3.396   3.487
 9204TIP3   OH227575   6.409   2.441   4.827
 9204TIP3    H127576   6.350   2.375   4.863
 9204TIP3    H227577   6.474   2.456   4.895
 9205TIP3   OH227578   4.107   6.338   3.129
 9205TIP3    H127579   4.108   6.316   3.036
 9205TIP3    H227580   4.097   6.254   3.174
 9206TIP3   OH227581   6.694   3.921   4.409
 9206TIP3    H127582   6.616   3.976   4.416
 9206TIP3    H227583   6.720   3.926   4.317
 9207TIP3   OH227584   3.450   1.031   0.165
 9207TIP3    H127585   3.358   1.045   0.186
 9207TIP3    H227586   3.497   1.099   0.213
 9208TIP3   OH227587   0.266   1.906   3.157
 9208TIP3    H127588   0.192   1.923   3.098
 9208TIP3    H227589   0.260   1.813   3.177
 9209TIP3   OH227590   3.701   6.031   0.003
 9209TIP3    H127591   3.709   5.936   0.013
 9209TIP3    H227592   3.626   6.053   0.059
 9210TIP3   OH227593   0.680   4.379   1.082
 9210TIP3    H127594   0.727   4.309   1.037
 9210TIP3    H227595   0.589   4.366   1.058
 9211TIP3   OH227596   3.776   0.451   2.423
 9211TIP3    H127597   3.723   0.372   2.424
 9211TIP3    H227598   3.714   0.522   2.438
 9212TIP3   OH227599   5.094   5.875   5.218
 9212TIP3    H127600   5.011   5.839   5.249
 9212TIP3    H227601   5.159   5.809   5.241
 9213TIP3   OH227602  -0.016   0.794   4.292
 9213TIP3    H127603  -0.070   0.872   4.285
 9213TIP3    H227604   0.071   0.827   4.315
 9214TIP3   OH227605   3.356   2.590   1.187
 9214TIP3    H127606   3.308   2.652   1.241
 9214TIP3    H227607   3.437   2.635   1.164
 9215TIP3   OH227608   1.243   6.474   1.469
 9215TIP3    H127609   1.148   6.484   1.463
 9215TIP3    H227610   1.257   6.380   1.479
 9216TIP3   OH227611   5.638   6.508   1.141
 9216TIP3    H127612   5.663   6.593   1.176
 9216TIP3    H227613   5.571   6.476   1.202
 9217TIP3   OH227614   6.375   1.894   4.945
 9217TIP3    H127615   6.344   1.838   4.875
 9217TIP3    H227616   6.385   1.981   4.905
 9218TIP3   OH227617   4.109   4.910   2.870
 9218TIP3    H127618   4.099   4.816   2.882
 9218TIP3    H227619   4.168   4.937   2.941
 9219TIP3   OH227620   3.866   4.446   5.709
 9219TIP3    H127621   3.823   4.496   5.639
 9219TIP3    H227622   3.944   4.497   5.730
 9220TIP3   OH227623   4.608   6.505   2.119
 9220TIP3    H127624   4.537   6.456   2.077
 9220TIP3    H227625   4.630   6.573   2.057
 9221TIP3   OH227626   3.049  -0.019   1.678
 9221TIP3    H127627   2.961   0.020   1.672
 9221TIP3    H227628   3.095   0.013   1.601
 9222TIP3   OH227629   3.616   2.957   5.041
 9222TIP3    H127630   3.566   3.035   5.020
 9222TIP3    H227631   3.563   2.884   5.009
 9223TIP3   OH227632   3.846   5.684   2.965
 9223TIP3    H127633   3.910   5.702   2.896
 9223TIP3    H227634   3.898   5.682   3.045
 9224TIP3   OH227635   1.688   5.831   2.514
 9224TIP3    H127636   1.638   5.756   2.480
 9224TIP3    H227637   1.621   5.895   2.537
 9225TIP3   OH227638   0.144   1.055   4.824
 9225TIP3    H127639   0.058   1.044   4.783
 9225TIP3    H227640   0.205   1.019   4.759
 9226TIP3   OH227641   4.252   3.619   0.430
 9226TIP3    H127642   4.179   3.654   0.379
 9226TIP3    H227643   4.222   3.623   0.521
 9227TIP3   OH227644   4.745   6.234   2.899
 9227TIP3    H127645   4.788   6.159   2.858
 9227TIP3    H227646   4.662   6.243   2.851
 9228TIP3   OH227647   1.148   4.798   4.500
 9228TIP3    H127648   1.182   4.875   4.454
 9228TIP3    H227649   1.168   4.815   4.592
 9229TIP3   OH227650   1.298   2.116   1.474
 9229TIP3    H127651   1.269   2.206   1.486
 9229TIP3    H227652   1.282   2.074   1.559
 9230TIP3   OH227653   4.820   2.046   4.159
 9230TIP3    H127654   4.744   2.097   4.132
 9230TIP3    H227655   4.895   2.097   4.129
 9231TIP3   OH227656   4.987  -0.051   0.449
 9231TIP3    H127657   5.080  -0.063   0.432
 9231TIP3    H227658   4.976   0.044   0.456
 9232TIP3   OH227659   4.157   1.318   2.105
 9232TIP3    H127660   4.162   1.225   2.083
 9232TIP3    H227661   4.248   1.343   2.123
 9233TIP3   OH227662   1.997   2.062   4.387
 9233TIP3    H127663   1.953   2.009   4.453
 9233TIP3    H227664   1.934   2.069   4.315
 9234TIP3   OH227665   5.494   5.441   4.961
 9234TIP3    H127666   5.539   5.457   4.879
 9234TIP3    H227667   5.555   5.389   5.013
 9235TIP3   OH227668   0.547   6.429   0.597
 9235TIP3    H127669   0.538   6.374   0.520
 9235TIP3    H227670   0.498   6.384   0.665
 9236TIP3   OH227671   2.044   0.896   1.484
 9236TIP3    H127672   2.066   0.985   1.457
 9236TIP3    H227673   2.106   0.877   1.555
 9237TIP3   OH227674   2.359   6.520   5.405
 9237TIP3    H127675   2.341   6.426   5.399
 9237TIP3    H227676   2.447   6.530   5.370
 9238TIP3   OH227677   0.381   3.038   1.420
 9238TIP3    H127678   0.347   3.051   1.331
 9238TIP3    H227679   0.360   2.947   1.441
 9239TIP3   OH227680   0.016   5.962   2.337
 9239TIP3    H127681   0.039   5.920   2.254
 9239TIP3    H227682   0.100   5.980   2.379
 9240TIP3   OH227683   4.727   1.182   3.655
 9240TIP3    H127684   4.685   1.100   3.631
 9240TIP3    H227685   4.704   1.243   3.585
 9241TIP3   OH227686   3.923   1.194   1.730
 9241TIP3    H127687   4.013   1.162   1.737
 9241TIP3    H227688   3.922   1.274   1.782
 9242TIP3   OH227689   6.923   3.822   4.778
 9242TIP3    H127690   6.930   3.780   4.692
 9242TIP3    H227691   6.843   3.785   4.816
 9243TIP3   OH227692   1.820   2.524   2.243
 9243TIP3    H127693   1.886   2.468   2.283
 9243TIP3    H227694   1.742   2.470   2.237
 9244TIP3   OH227695   6.448   0.250   5.587
 9244TIP3    H127696   6.506   0.281   5.656
 9244TIP3    H227697   6.458   0.312   5.516
 9245TIP3   OH227698   0.972   1.846   0.259
 9245TIP3    H127699   0.885   1.849   0.219
 9245TIP3    H227700   0.993   1.752   0.263
 9246TIP3   OH227701   6.242   3.297   0.130
 9246TIP3    H127702   6.220   3.207   0.105
 9246TIP3    H227703   6.171   3.324   0.188
 9247TIP3   OH227704   7.158   1.743   4.421
 9247TIP3    H127705   7.089   1.774   4.362
 9247TIP3    H227706   7.187   1.660   4.383
 9248TIP3   OH227707   6.631   2.925   1.554
 9248TIP3    H127708   6.550   2.940   1.506
 9248TIP3    H227709   6.641   2.829   1.554
 9249TIP3   OH227710   2.264   4.685   4.075
 9249TIP3    H127711   2.199   4.615   4.081
 9249TIP3    H227712   2.321   4.672   4.150
 9250TIP3   OH227713   5.853   5.035   4.887
 9250TIP3    H127714   5.902   5.012   4.807
 9250TIP3    H227715   5.874   4.965   4.948
 9251TIP3   OH227716   2.797   0.447   4.523
 9251TIP3    H127717   2.863   0.484   4.464
 9251TIP3    H227718   2.784   0.358   4.490
 9252TIP3   OH227719   2.510   4.074   4.368
 9252TIP3    H127720   2.524   4.037   4.455
 9252TIP3    H227721   2.574   4.029   4.313
 9253TIP3   OH227722   1.655   2.890   3.831
 9253TIP3    H127723   1.732   2.886   3.887
 9253TIP3    H227724   1.691   2.893   3.742
 9254TIP3   OH227725   6.899   4.085   3.756
 9254TIP3    H127726   6.861   4.002   3.787
 9254TIP3    H227727   6.843   4.153   3.793
 9255TIP3   OH227728   1.817   6.054   2.819
 9255TIP3    H127729   1.863   6.043   2.902
 9255TIP3    H227730   1.756   5.980   2.815
 9256TIP3   OH227731   6.907   6.128   4.005
 9256TIP3    H127732   6.898   6.072   3.928
 9256TIP3    H227733   6.990   6.102   4.044
 9257TIP3   OH227734   0.038   2.664   3.186
 9257TIP3    H127735  -0.043   2.628   3.221
 9257TIP3    H227736   0.105   2.641   3.250
 9258TIP3   OH227737   5.138   4.529   2.240
 9258TIP3    H127738   5.169   4.507   2.327
 9258TIP3    H227739   5.101   4.617   2.249
 9259TIP3   OH227740   0.734   3.255   0.066
 9259TIP3    H127741   0.785   3.175   0.075
 9259TIP3    H227742   0.710   3.258  -0.027
 9260TIP3   OH227743   3.898   3.588   1.624
 9260TIP3    H127744   3.814   3.559   1.587
 9260TIP3    H227745   3.883   3.680   1.648
 9261TIP3   OH227746   4.383   4.410   3.402
 9261TIP3    H127747   4.353   4.319   3.397
 9261TIP3    H227748   4.375   4.443   3.313
 9262TIP3   OH227749   2.547   0.201   0.478
 9262TIP3    H127750   2.582   0.210   0.567
 9262TIP3    H227751   2.597   0.129   0.441
 9263TIP3   OH227752   6.750   0.957   5.783
 9263TIP3    H127753   6.836   0.930   5.752
 9263TIP3    H227754   6.761   0.968   5.878
 9264TIP3   OH227755   1.289   1.470   1.413
 9264TIP3    H127756   1.273   1.557   1.377
 9264TIP3    H227757   1.265   1.409   1.343
 9265TIP3   OH227758   3.083   5.539   4.213
 9265TIP3    H127759   3.082   5.465   4.274
 9265TIP3    H227760   3.139   5.604   4.255
 9266TIP3   OH227761   5.872   2.534   0.479
 9266TIP3    H127762   5.804   2.472   0.455
 9266TIP3    H227763   5.928   2.486   0.540
 9267TIP3   OH227764   7.152   2.419   1.391
 9267TIP3    H127765   7.102   2.500   1.379
 9267TIP3    H227766   7.182   2.397   1.303
 9268TIP3   OH227767   0.314   6.314   3.032
 9268TIP3    H127768   0.262   6.349   2.959
 9268TIP3    H227769   0.388   6.270   2.991
 9269TIP3   OH227770   7.113   1.808   2.173
 9269TIP3    H127771   7.153   1.726   2.202
 9269TIP3    H227772   7.021   1.785   2.156
 9270TIP3   OH227773   2.637   2.151   5.631
 9270TIP3    H127774   2.718   2.190   5.664
 9270TIP3    H227775   2.660   2.060   5.614
 9271TIP3   OH227776   7.013   2.810   1.781
 9271TIP3    H127777   6.993   2.754   1.856
 9271TIP3    H227778   6.993   2.756   1.704
 9272TIP3   OH227779   6.220   3.161   1.164
 9272TIP3    H127780   6.314   3.144   1.152
 9272TIP3    H227781   6.178   3.113   1.093
 9273TIP3   OH227782   1.608   3.329   4.876
 9273TIP3    H127783   1.535   3.352   4.818
 9273TIP3    H227784   1.672   3.400   4.863
 9274TIP3   OH227785   6.707   3.526   0.313
 9274TIP3    H127786   6.784   3.470   0.306
 9274TIP3    H227787   6.691   3.556   0.223
 9275TIP3   OH227788   2.398   1.971   5.859
 9275TIP3    H127789   2.480   1.932   5.828
 9275TIP3    H227790   2.367   1.912   5.927
 9276TIP3   OH227791   3.232   6.412   1.933
 9276TIP3    H127792   3.257   6.372   2.016
 9276TIP3    H227793   3.233   6.340   1.870
 9277TIP3   OH227794   6.266   0.361   4.726
 9277TIP3    H127795   6.191   0.303   4.718
 9277TIP3    H227796   6.341   0.308   4.700
 9278TIP3   OH227797   7.055   2.646   3.783
 9278TIP3    H127798   7.090   2.734   3.801
 9278TIP3    H227799   6.963   2.652   3.809
 9279TIP3   OH227800   0.339   5.426   4.082
 9279TIP3    H127801   0.366   5.515   4.064
 9279TIP3    H227802   0.358   5.378   4.002
 9280TIP3   OH227803   5.392   0.132   0.928
 9280TIP3    H127804   5.379   0.039   0.908
 9280TIP3    H227805   5.353   0.178   0.855
 9281TIP3   OH227806   2.349   4.710   4.920
 9281TIP3    H127807   2.353   4.732   5.013
 9281TIP3    H227808   2.275   4.760   4.886
 9282TIP3   OH227809   3.607   3.921   1.983
 9282TIP3    H127810   3.619   3.996   1.925
 9282TIP3    H227811   3.651   3.946   2.064
 9283TIP3   OH227812   1.809   6.267   1.107
 9283TIP3    H127813   1.881   6.264   1.044
 9283TIP3    H227814   1.797   6.361   1.125
 9284TIP3   OH227815   6.803   5.572   3.281
 9284TIP3    H127816   6.853   5.503   3.326
 9284TIP3    H227817   6.748   5.525   3.218
 9285TIP3   OH227818   7.046   6.470   3.341
 9285TIP3    H127819   7.131   6.450   3.302
 9285TIP3    H227820   7.051   6.433   3.429
 9286TIP3   OH227821   4.649   0.550   4.458
 9286TIP3    H127822   4.645   0.550   4.554
 9286TIP3    H227823   4.619   0.463   4.433
 9287TIP3   OH227824   5.366   3.562   4.697
 9287TIP3    H127825   5.399   3.608   4.774
 9287TIP3    H227826   5.380   3.623   4.625
 9288TIP3   OH227827   7.124   3.066   2.182
 9288TIP3    H127828   7.170   3.112   2.112
 9288TIP3    H227829   7.095   2.984   2.142
 9289TIP3   OH227830   2.982   3.089   4.710
 9289TIP3    H127831   2.915   3.052   4.652
 9289TIP3    H227832   3.063   3.043   4.685
 9290TIP3   OH227833   2.181   4.809   0.286
 9290TIP3    H127834   2.249   4.769   0.340
 9290TIP3    H227835   2.203   4.902   0.283
 9291TIP3   OH227836   1.779   1.338   4.760
 9291TIP3    H127837   1.792   1.387   4.842
 9291TIP3    H227838   1.702   1.283   4.777
 9292TIP3   OH227839   6.830   3.678   1.475
 9292TIP3    H127840   6.864   3.595   1.509
 9292TIP3    H227841   6.801   3.725   1.554
 9293TIP3   OH227842   5.933   3.819   0.280
 9293TIP3    H127843   5.866   3.770   0.327
 9293TIP3    H227844   6.007   3.821   0.340
 9294TIP3   OH227845   1.115   6.159   0.788
 9294TIP3    H127846   1.170   6.082   0.805
 9294TIP3    H227847   1.148   6.195   0.706
 9295TIP3   OH227848   7.151   5.406   5.144
 9295TIP3    H127849   7.236   5.371   5.169
 9295TIP3    H227850   7.161   5.501   5.150
 9296TIP3   OH227851   3.543   0.713   4.857
 9296TIP3    H127852   3.535   0.667   4.773
 9296TIP3    H227853   3.475   0.673   4.912
 9297TIP3   OH227854   1.899   3.644   2.967
 9297TIP3    H127855   1.903   3.553   2.937
 9297TIP3    H227856   1.928   3.695   2.892
 9298TIP3   OH227857   2.482   5.874   0.085
 9298TIP3    H127858   2.529   5.793   0.105
 9298TIP3    H227859   2.400   5.868   0.135
 9299TIP3   OH227860   4.229   5.954   3.685
 9299TIP3    H127861   4.287   5.944   3.609
 9299TIP3    H227862   4.191   6.041   3.675
 9300TIP3   OH227863   6.658   0.232   5.801
 9300TIP3    H127864   6.736   0.202   5.754
 9300TIP3    H227865   6.647   0.168   5.871
 9301TIP3   OH227866   5.496   6.669   2.369
 9301TIP3    H127867   5.540   6.741   2.415
 9301TIP3    H227868   5.545   6.591   2.394
 9302TIP3   OH227869   5.031   5.930   2.047
 9302TIP3    H127870   5.113   5.939   2.095
 9302TIP3    H227871   5.056   5.936   1.955
 9303TIP3   OH227872   0.712   4.242   3.883
 9303TIP3    H127873   0.655   4.315   3.907
 9303TIP3    H227874   0.796   4.263   3.922
 9304TIP3   OH227875   6.262   4.611   0.503
 9304TIP3    H127876   6.207   4.559   0.444
 9304TIP3    H227877   6.345   4.620   0.456
 9305TIP3   OH227878   1.104   6.584   4.265
 9305TIP3    H127879   1.105   6.613   4.356
 9305TIP3    H227880   1.193   6.602   4.234
 9306TIP3   OH227881   5.810   4.327   5.462
 9306TIP3    H127882   5.807   4.360   5.372
 9306TIP3    H227883   5.793   4.404   5.516
 9307TIP3   OH227884   4.540   6.683   0.364
 9307TIP3    H127885   4.514   6.744   0.295
 9307TIP3    H227886   4.582   6.611   0.318
 9308TIP3   OH227887   4.334   1.548   4.080
 9308TIP3    H127888   4.417   1.566   4.124
 9308TIP3    H227889   4.267   1.574   4.144
 9309TIP3   OH227890   2.798   6.004   2.100
 9309TIP3    H127891   2.886   6.005   2.139
 9309TIP3    H227892   2.784   5.912   2.077
 9310TIP3   OH227893   4.857   0.820   5.528
 9310TIP3    H127894   4.789   0.781   5.473
 9310TIP3    H227895   4.895   0.889   5.475
 9311TIP3   OH227896   2.707   5.913   2.389
 9311TIP3    H127897   2.642   5.927   2.457
 9311TIP3    H227898   2.674   5.963   2.314
 9312TIP3   OH227899   1.194   5.082   1.840
 9312TIP3    H127900   1.149   5.063   1.922
 9312TIP3    H227901   1.244   5.003   1.821
 9313TIP3   OH227902   3.188   6.334   2.695
 9313TIP3    H127903   3.099   6.299   2.696
 9313TIP3    H227904   3.179   6.423   2.729
 9314TIP3   OH227905   2.712   6.014   3.094
 9314TIP3    H127906   2.649   5.996   3.024
 9314TIP3    H227907   2.792   6.038   3.047
 9315TIP3   OH227908   4.481   1.391   0.212
 9315TIP3    H127909   4.499   1.410   0.121
 9315TIP3    H227910   4.507   1.470   0.260
 9316TIP3   OH227911   2.519   4.966   3.227
 9316TIP3    H127912   2.606   4.988   3.192
 9316TIP3    H227913   2.537   4.908   3.300
 9317TIP3   OH227914   1.699   3.424   1.926
 9317TIP3    H127915   1.788   3.423   1.890
 9317TIP3    H227916   1.667   3.513   1.909
 9318TIP3   OH227917   2.413   6.177   0.977
 9318TIP3    H127918   2.389   6.085   0.974
 9318TIP3    H227919   2.506   6.178   0.959
 9319TIP3   OH227920   0.624   3.078   5.234
 9319TIP3    H127921   0.616   3.059   5.141
 9319TIP3    H227922   0.638   3.172   5.239
 9320TIP3   OH227923   0.526   0.721   2.832
 9320TIP3    H127924   0.572   0.718   2.916
 9320TIP3    H227925   0.461   0.791   2.843
 9321TIP3   OH227926   0.387   5.255   1.756
 9321TIP3    H127927   0.472   5.251   1.800
 9321TIP3    H227928   0.394   5.331   1.698
 9322TIP3   OH227929   2.570   5.395   1.466
 9322TIP3    H127930   2.587   5.489   1.472
 9322TIP3    H227931   2.543   5.381   1.375
 9323TIP3   OH227932   1.130   3.396   5.798
 9323TIP3    H127933   1.094   3.340   5.730
 9323TIP3    H227934   1.210   3.433   5.760
 9324TIP3   OH227935   3.234   1.743   0.050
 9324TIP3    H127936   3.327   1.747   0.029
 9324TIP3    H227937   3.190   1.775  -0.029
 9325TIP3   OH227938   4.910   0.131   0.897
 9325TIP3    H127939   4.889   0.048   0.853
 9325TIP3    H227940   4.894   0.113   0.990
 9326TIP3   OH227941   1.719   4.179   5.085
 9326TIP3    H127942   1.771   4.205   5.009
 9326TIP3    H227943   1.680   4.260   5.117
 9327TIP3   OH227944   1.814   0.593   3.404
 9327TIP3    H127945   1.760   0.670   3.382
 9327TIP3    H227946   1.904   0.626   3.405
 9328TIP3   OH227947   2.075   5.792   3.506
 9328TIP3    H127948   2.161   5.829   3.490
 9328TIP3    H227949   2.022   5.865   3.539
 9329TIP3   OH227950   1.630   6.579   3.339
 9329TIP3    H127951   1.550   6.542   3.301
 9329TIP3    H227952   1.701   6.532   3.296
 9330TIP3   OH227953   3.590   6.489   2.011
 9330TIP3    H127954   3.599   6.498   1.916
 9330TIP3    H227955   3.609   6.577   2.045
 9331TIP3   OH227956   4.272   6.661   0.459
 9331TIP3    H127957   4.291   6.568   0.448
 9331TIP3    H227958   4.356   6.704   0.446
 9332TIP3   OH227959   0.189   3.824   2.068
 9332TIP3    H127960   0.143   3.740   2.076
 9332TIP3    H227961   0.250   3.825   2.143
 9333TIP3   OH227962   4.504   0.585   5.056
 9333TIP3    H127963   4.410   0.583   5.037
 9333TIP3    H227964   4.544   0.536   4.984
 9334TIP3   OH227965   6.985   4.010   0.318
 9334TIP3    H127966   7.076   3.985   0.332
 9334TIP3    H227967   6.956   3.957   0.244
 9335TIP3   OH227968   1.574   4.827   4.259
 9335TIP3    H127969   1.497   4.883   4.267
 9335TIP3    H227970   1.605   4.842   4.170
 9336TIP3   OH227971   6.562   1.103   4.788
 9336TIP3    H127972   6.635   1.041   4.795
 9336TIP3    H227973   6.523   1.084   4.703
 9337TIP3   OH227974   2.183   3.902   5.449
 9337TIP3    H127975   2.162   3.893   5.356
 9337TIP3    H227976   2.271   3.939   5.450
 9338TIP3   OH227977   6.504   6.443   0.397
 9338TIP3    H127978   6.598   6.459   0.396
 9338TIP3    H227979   6.483   6.417   0.307
 9339TIP3   OH227980   0.737   1.332   0.121
 9339TIP3    H127981   0.748   1.364   0.211
 9339TIP3    H227982   0.739   1.237   0.129
 9340TIP3   OH227983   1.636   4.877   0.278
 9340TIP3    H127984   1.724   4.902   0.308
 9340TIP3    H227985   1.578   4.904   0.349
 9341TIP3   OH227986   3.948   0.685   3.984
 9341TIP3    H127987   4.021   0.735   3.948
 9341TIP3    H227988   3.987   0.602   4.012
 9342TIP3   OH227989   2.855   5.903   3.352
 9342TIP3    H127990   2.816   5.935   3.270
 9342TIP3    H227991   2.844   5.808   3.348
 9343TIP3   OH227992   6.201   2.076   4.345
 9343TIP3    H127993   6.170   1.994   4.383
 9343TIP3    H227994   6.230   2.128   4.420
 9344TIP3   OH227995   0.987   0.796   4.059
 9344TIP3    H127996   1.079   0.817   4.045
 9344TIP3    H227997   0.941   0.879   4.048
 9345TIP3   OH227998   5.757   5.928   3.433
 9345TIP3    H127999   5.714   5.905   3.351
 9345TIP3    H228000   5.849   5.936   3.411
 9346TIP3   OH228001   4.254   3.071   1.223
 9346TIP3    H128002   4.238   2.993   1.275
 9346TIP3    H228003   4.338   3.056   1.180
 9347TIP3   OH228004   3.087   1.163   2.059
 9347TIP3    H128005   3.003   1.162   2.105
 9347TIP3    H228006   3.073   1.225   1.987
 9348TIP3   OH228007   0.066   3.105   0.384
 9348TIP3    H128008   0.113   3.180   0.348
 9348TIP3    H228009   0.107   3.029   0.344
 9349TIP3   OH228010   1.114   4.060   2.878
 9349TIP3    H128011   1.176   4.072   2.949
 9349TIP3    H228012   1.130   4.134   2.819
 9350TIP3   OH228013   5.500   5.458   2.798
 9350TIP3    H128014   5.430   5.423   2.853
 9350TIP3    H228015   5.471   5.546   2.773
 9351TIP3   OH228016   1.326   2.791   5.232
 9351TIP3    H128017   1.326   2.838   5.316
 9351TIP3    H228018   1.313   2.859   5.166
 9352TIP3   OH228019   6.125   6.187   2.558
 9352TIP3    H128020   6.102   6.095   2.575
 9352TIP3    H228021   6.134   6.192   2.463
 9353TIP3   OH228022   6.741   4.818   0.256
 9353TIP3    H128023   6.814   4.879   0.264
 9353TIP3    H228024   6.738   4.796   0.162
 9354TIP3   OH228025   5.120   2.106   5.048
 9354TIP3    H128026   5.156   2.017   5.056
 9354TIP3    H228027   5.146   2.150   5.129
 9355TIP3   OH228028   1.223   4.938   2.597
 9355TIP3    H128029   1.167   4.873   2.640
 9355TIP3    H228030   1.312   4.911   2.618
 9356TIP3   OH228031   4.462   6.553   3.894
 9356TIP3    H128032   4.416   6.470   3.879
 9356TIP3    H228033   4.423   6.614   3.832
 9357TIP3   OH228034   4.939   2.590   0.250
 9357TIP3    H128035   4.965   2.499   0.263
 9357TIP3    H228036   4.995   2.640   0.309
 9358TIP3   OH228037   2.335   0.575   5.194
 9358TIP3    H128038   2.386   0.645   5.152
 9358TIP3    H228039   2.393   0.499   5.191
 9359TIP3   OH228040   6.619   5.191   4.299
 9359TIP3    H128041   6.561   5.260   4.329
 9359TIP3    H228042   6.602   5.117   4.357
 9360TIP3   OH228043   1.287   0.396   4.550
 9360TIP3    H128044   1.230   0.321   4.531
 9360TIP3    H228045   1.351   0.361   4.612
 9361TIP3   OH228046   2.602   0.776   2.577
 9361TIP3    H128047   2.580   0.686   2.549
 9361TIP3    H228048   2.643   0.765   2.662
 9362TIP3   OH228049   7.032   4.362   1.291
 9362TIP3    H128050   6.999   4.359   1.201
 9362TIP3    H228051   7.119   4.324   1.286
 9363TIP3   OH228052   0.346   2.020   0.775
 9363TIP3    H128053   0.321   1.935   0.810
 9363TIP3    H228054   0.398   2.060   0.845
 9364TIP3   OH228055   5.152   3.340   4.795
 9364TIP3    H128056   5.075   3.381   4.833
 9364TIP3    H228057   5.135   3.246   4.802
 9365TIP3   OH228058   0.519   5.029   3.980
 9365TIP3    H128059   0.494   5.048   4.070
 9365TIP3    H228060   0.605   5.069   3.970
 9366TIP3   OH228061   1.231   4.790   0.837
 9366TIP3    H128062   1.140   4.795   0.864
 9366TIP3    H228063   1.230   4.812   0.744
 9367TIP3   OH228064   5.625   2.733   5.191
 9367TIP3    H128065   5.604   2.690   5.273
 9367TIP3    H228066   5.540   2.756   5.153
 9368TIP3   OH228067   0.529   6.333   4.172
 9368TIP3    H128068   0.495   6.282   4.098
 9368TIP3    H228069   0.547   6.268   4.240
 9369TIP3   OH228070   5.500   6.659   1.490
 9369TIP3    H128071   5.482   6.597   1.420
 9369TIP3    H228072   5.451   6.625   1.565
 9370TIP3   OH228073   6.974   5.851   2.123
 9370TIP3    H128074   6.961   5.913   2.195
 9370TIP3    H228075   7.055   5.880   2.081
 9371TIP3   OH228076   1.379   1.876   3.432
 9371TIP3    H128077   1.414   1.953   3.386
 9371TIP3    H228078   1.344   1.911   3.514
 9372TIP3   OH228079   4.611   6.712   0.665
 9372TIP3    H128080   4.615   6.709   0.570
 9372TIP3    H228081   4.667   6.786   0.689
 9373TIP3   OH228082   0.189   4.343   0.673
 9373TIP3    H128083   0.195   4.284   0.749
 9373TIP3    H228084   0.108   4.317   0.629
 9374TIP3   OH228085   5.850   0.072   4.825
 9374TIP3    H128086   5.842   0.082   4.730
 9374TIP3    H228087   5.920   0.132   4.850
 9375TIP3   OH228088   4.700   0.836   0.588
 9375TIP3    H128089   4.673   0.866   0.675
 9375TIP3    H228090   4.673   0.744   0.586
 9376TIP3   OH228091   6.521   3.137   5.790
 9376TIP3    H128092   6.433   3.102   5.777
 9376TIP3    H228093   6.577   3.060   5.797
 9377TIP3   OH228094   5.546   6.693   4.793
 9377TIP3    H128095   5.557   6.777   4.838
 9377TIP3    H228096   5.523   6.718   4.703
 9378TIP3   OH228097   4.965   2.767   5.280
 9378TIP3    H128098   5.034   2.829   5.257
 9378TIP3    H228099   5.009   2.699   5.330
 9379TIP3   OH228100   2.134   5.890   4.028
 9379TIP3    H128101   2.091   5.817   4.072
 9379TIP3    H228102   2.130   5.868   3.935
 9380TIP3   OH228103   2.161   6.533   5.070
 9380TIP3    H128104   2.134   6.557   4.982
 9380TIP3    H228105   2.202   6.447   5.059
 9381TIP3   OH228106   1.725   3.627   5.178
 9381TIP3    H128107   1.789   3.599   5.244
 9381TIP3    H228108   1.660   3.677   5.228
 9382TIP3   OH228109   3.515   3.048   2.212
 9382TIP3    H128110   3.427   3.029   2.180
 9382TIP3    H228111   3.509   3.040   2.307
 9383TIP3   OH228112   4.748   1.359   3.417
 9383TIP3    H128113   4.837   1.393   3.427
 9383TIP3    H228114   4.755   1.293   3.348
 9384TIP3   OH228115   3.102   4.487   2.982
 9384TIP3    H128116   3.143   4.572   2.998
 9384TIP3    H228117   3.015   4.509   2.947
 9385TIP3   OH228118   4.946   3.875   4.594
 9385TIP3    H128119   5.011   3.830   4.649
 9385TIP3    H228120   4.997   3.937   4.543
 9386TIP3   OH228121   2.065   2.369   3.890
 9386TIP3    H128122   2.031   2.358   3.802
 9386TIP3    H228123   2.150   2.412   3.879
 9387TIP3   OH228124   5.931   0.891   1.041
 9387TIP3    H128125   5.883   0.846   1.111
 9387TIP3    H228126   5.879   0.968   1.021
 9388TIP3   OH228127   3.129   0.629   4.866
 9388TIP3    H128128   3.168   0.565   4.926
 9388TIP3    H228129   3.185   0.628   4.789
 9389TIP3   OH228130   2.677   2.580   4.396
 9389TIP3    H128131   2.736   2.516   4.357
 9389TIP3    H228132   2.651   2.636   4.324
 9390TIP3   OH228133   5.770   1.116   2.487
 9390TIP3    H128134   5.808   1.031   2.465
 9390TIP3    H228135   5.762   1.161   2.402
 9391TIP3   OH228136   3.529   1.449   2.593
 9391TIP3    H128137   3.512   1.529   2.641
 9391TIP3    H228138   3.614   1.463   2.551
 9392TIP3   OH228139   5.087   4.315   4.523
 9392TIP3    H128140   5.064   4.293   4.613
 9392TIP3    H228141   5.150   4.386   4.531
 9393TIP3   OH228142   6.528   5.304   2.165
 9393TIP3    H128143   6.463   5.298   2.095
 9393TIP3    H228144   6.605   5.343   2.123
 9394TIP3   OH228145   2.334   0.874   3.416
 9394TIP3    H128146   2.421   0.913   3.407
 9394TIP3    H228147   2.349   0.792   3.464
 9395TIP3   OH228148   4.749   0.997   4.718
 9395TIP3    H128149   4.731   0.919   4.771
 9395TIP3    H228150   4.832   0.978   4.675
 9396TIP3   OH228151   0.094   4.961   3.703
 9396TIP3    H128152   0.091   5.022   3.776
 9396TIP3    H228153   0.009   4.917   3.705
 9397TIP3   OH228154   0.247   0.887   4.596
 9397TIP3    H128155   0.173   0.828   4.613
 9397TIP3    H228156   0.241   0.907   4.503
 9398TIP3   OH228157   4.364   0.330   4.994
 9398TIP3    H128158   4.437   0.279   5.029
 9398TIP3    H228159   4.324   0.370   5.072
 9399TIP3   OH228160   6.044   6.383   3.468
 9399TIP3    H128161   5.967   6.333   3.441
 9399TIP3    H228162   6.041   6.383   3.563
 9400TIP3   OH228163   3.940   3.801   3.304
 9400TIP3    H128164   3.992   3.758   3.371
 9400TIP3    H228165   3.993   3.793   3.224
 9401TIP3   OH228166   6.002   0.737   2.170
 9401TIP3    H128167   5.919   0.754   2.215
 9401TIP3    H228168   6.064   0.796   2.212
 9402TIP3   OH228169   4.003   2.252   5.785
 9402TIP3    H128170   3.926   2.198   5.766
 9402TIP3    H228171   4.067   2.190   5.821
 9403TIP3   OH228172   3.984   1.252   0.855
 9403TIP3    H128173   3.967   1.295   0.939
 9403TIP3    H228174   3.928   1.174   0.857
 9404TIP3   OH228175   0.647   5.309   4.168
 9404TIP3    H128176   0.667   5.251   4.095
 9404TIP3    H228177   0.731   5.322   4.213
 9405TIP3   OH228178   4.085   2.115   2.209
 9405TIP3    H128179   4.039   2.125   2.125
 9405TIP3    H228180   4.171   2.154   2.194
 9406TIP3   OH228181   4.210   0.475   2.702
 9406TIP3    H128182   4.212   0.413   2.775
 9406TIP3    H228183   4.300   0.479   2.671
 9407TIP3   OH228184   0.794   6.469   5.207
 9407TIP3    H128185   0.831   6.415   5.137
 9407TIP3    H228186   0.867   6.483   5.267
 9408TIP3   OH228187   4.719   5.003   0.807
 9408TIP3    H128188   4.813   4.996   0.790
 9408TIP3    H228189   4.709   4.984   0.900
 9409TIP3   OH228190   3.311   0.876   2.460
 9409TIP3    H128191   3.237   0.934   2.440
 9409TIP3    H228192   3.330   0.833   2.377
 9410TIP3   OH228193   2.312   5.101   3.359
 9410TIP3    H128194   2.369   5.155   3.414
 9410TIP3    H228195   2.371   5.059   3.298
 9411TIP3   OH228196   4.663   0.827   1.354
 9411TIP3    H128197   4.690   0.746   1.311
 9411TIP3    H228198   4.575   0.809   1.387
 9412TIP3   OH228199   4.066   6.402   0.038
 9412TIP3    H128200   4.094   6.393   0.129
 9412TIP3    H228201   3.971   6.390   0.041
 9413TIP3   OH228202   0.293   1.971   4.104
 9413TIP3    H128203   0.353   1.912   4.058
 9413TIP3    H228204   0.212   1.966   4.053
 9414TIP3   OH228205   5.590   3.983   1.360
 9414TIP3    H128206   5.507   4.026   1.339
 9414TIP3    H228207   5.584   3.966   1.454
 9415TIP3   OH228208   2.567   6.822   1.146
 9415TIP3    H128209   2.552   6.739   1.192
 9415TIP3    H228210   2.662   6.833   1.147
 9416TIP3   OH228211   0.742   6.546   1.746
 9416TIP3    H128212   0.704   6.482   1.685
 9416TIP3    H228213   0.702   6.629   1.721
 9417TIP3   OH228214   0.745   6.011   2.932
 9417TIP3    H128215   0.820   6.039   2.880
 9417TIP3    H228216   0.770   6.031   3.022
 9418TIP3   OH228217   1.598   4.665   5.564
 9418TIP3    H128218   1.656   4.600   5.525
 9418TIP3    H228219   1.573   4.626   5.649
 9419TIP3   OH228220   1.446   5.189   2.996
 9419TIP3    H128221   1.523   5.230   2.956
 9419TIP3    H228222   1.436   5.106   2.948
 9420TIP3   OH228223   2.902   0.665   3.970
 9420TIP3    H128224   2.976   0.606   3.954
 9420TIP3    H228225   2.845   0.615   4.028
 9421TIP3   OH228226   0.134   6.184   2.160
 9421TIP3    H128227   0.087   6.206   2.241
 9421TIP3    H228228   0.208   6.244   2.159
 9422TIP3   OH228229   3.287   2.019   3.047
 9422TIP3    H128230   3.338   1.964   3.107
 9422TIP3    H228231   3.296   1.975   2.962
 9423TIP3   OH228232   4.041   5.557   3.276
 9423TIP3    H128233   4.058   5.470   3.241
 9423TIP3    H228234   4.079   5.556   3.364
 9424TIP3   OH228235   3.663   5.084   1.075
 9424TIP3    H128236   3.707   5.165   1.047
 9424TIP3    H228237   3.575   5.112   1.100
 9425TIP3   OH228238   3.573   6.071   0.242
 9425TIP3    H128239   3.655   6.037   0.278
 9425TIP3    H228240   3.570   6.162   0.273
 9426TIP3   OH228241   2.081   3.019   0.346
 9426TIP3    H128242   2.096   3.021   0.252
 9426TIP3    H228243   1.997   3.061   0.358
 9427TIP3   OH228244   6.782   6.696   2.705
 9427TIP3    H128245   6.706   6.644   2.732
 9427TIP3    H228246   6.852   6.632   2.694
 9428TIP3   OH228247   0.984   3.680   4.070
 9428TIP3    H128248   1.061   3.630   4.096
 9428TIP3    H228249   0.925   3.614   4.032
 9429TIP3   OH228250   5.594   3.511   1.092
 9429TIP3    H128251   5.647   3.550   1.162
 9429TIP3    H228252   5.510   3.491   1.133
 9430TIP3   OH228253   6.295   1.109   3.050
 9430TIP3    H128254   6.297   1.057   3.130
 9430TIP3    H228255   6.244   1.056   2.988
 9431TIP3   OH228256   6.175   5.991   3.177
 9431TIP3    H128257   6.156   5.941   3.257
 9431TIP3    H228258   6.204   6.076   3.209
 9432TIP3   OH228259   5.269   3.024   2.025
 9432TIP3    H128260   5.209   3.086   2.067
 9432TIP3    H228261   5.214   2.948   2.007
 9433TIP3   OH228262   3.392   0.403   5.557
 9433TIP3    H128263   3.423   0.420   5.646
 9433TIP3    H228264   3.333   0.329   5.565
 9434TIP3   OH228265   5.808   3.946   2.672
 9434TIP3    H128266   5.883   3.970   2.726
 9434TIP3    H228267   5.785   3.857   2.699
 9435TIP3   OH228268   5.195   5.792   4.929
 9435TIP3    H128269   5.192   5.696   4.931
 9435TIP3    H228270   5.181   5.819   5.019
 9436TIP3   OH228271   2.631   0.337   5.556
 9436TIP3    H128272   2.538   0.343   5.576
 9436TIP3    H228273   2.654   0.425   5.525
 9437TIP3   OH228274   3.738   4.163   4.166
 9437TIP3    H128275   3.801   4.219   4.211
 9437TIP3    H228276   3.749   4.184   4.073
 9438TIP3   OH228277   5.161   2.494   2.272
 9438TIP3    H128278   5.152   2.531   2.185
 9438TIP3    H228279   5.175   2.570   2.329
 9439TIP3   OH228280   0.108   2.341   0.885
 9439TIP3    H128281   0.097   2.253   0.849
 9439TIP3    H228282   0.139   2.394   0.811
 9440TIP3   OH228283   3.434   1.420   4.916
 9440TIP3    H128284   3.484   1.490   4.875
 9440TIP3    H228285   3.375   1.389   4.847
 9441TIP3   OH228286   5.618   4.273   2.028
 9441TIP3    H128287   5.611   4.265   2.123
 9441TIP3    H228288   5.627   4.367   2.012
 9442TIP3   OH228289   2.821   4.771   5.191
 9442TIP3    H128290   2.755   4.829   5.154
 9442TIP3    H228291   2.899   4.785   5.137
 9443TIP3   OH228292   4.370   4.408   1.103
 9443TIP3    H128293   4.283   4.440   1.083
 9443TIP3    H228294   4.378   4.326   1.054
 9444TIP3   OH228295   4.443   3.112   3.270
 9444TIP3    H128296   4.382   3.042   3.294
 9444TIP3    H228297   4.386   3.187   3.253
 9445TIP3   OH228298   0.672   3.965   4.647
 9445TIP3    H128299   0.696   4.053   4.617
 9445TIP3    H228300   0.610   3.934   4.581
 9446TIP3   OH228301   6.240   1.161   2.051
 9446TIP3    H128302   6.187   1.110   1.989
 9446TIP3    H228303   6.294   1.218   1.995
 9447TIP3   OH228304   5.226   5.394   3.646
 9447TIP3    H128305   5.190   5.307   3.663
 9447TIP3    H228306   5.313   5.377   3.610
 9448TIP3   OH228307   6.757   2.279   2.609
 9448TIP3    H128308   6.846   2.255   2.585
 9448TIP3    H228309   6.758   2.375   2.612
 9449TIP3   OH228310   5.034   1.550   3.063
 9449TIP3    H128311   5.034   1.585   2.974
 9449TIP3    H228312   4.985   1.468   3.057
 9450TIP3   OH228313   5.088   2.000   1.021
 9450TIP3    H128314   5.115   2.056   0.948
 9450TIP3    H228315   4.992   2.005   1.020
 9451TIP3   OH228316   6.486   5.609   2.080
 9451TIP3    H128317   6.446   5.575   2.000
 9451TIP3    H228318   6.454   5.699   2.086
 9452TIP3   OH228319   4.214   3.254   4.418
 9452TIP3    H128320   4.300   3.226   4.450
 9452TIP3    H228321   4.209   3.346   4.443
 9453TIP3   OH228322   6.515   4.255   4.250
 9453TIP3    H128323   6.443   4.289   4.303
 9453TIP3    H228324   6.478   4.178   4.207
 9454TIP3   OH228325   0.178   2.278   3.818
 9454TIP3    H128326   0.237   2.323   3.758
 9454TIP3    H228327   0.216   2.191   3.829
 9455TIP3   OH228328   4.859   2.160   5.565
 9455TIP3    H128329   4.932   2.186   5.621
 9455TIP3    H228330   4.897   2.096   5.505
 9456TIP3   OH228331   6.853   0.904   4.527
 9456TIP3    H128332   6.779   0.851   4.498
 9456TIP3    H228333   6.914   0.902   4.452
 9457TIP3   OH228334   0.772   2.771   4.136
 9457TIP3    H128335   0.744   2.728   4.217
 9457TIP3    H228336   0.861   2.741   4.123
 9458TIP3   OH228337   1.087   5.210   4.632
 9458TIP3    H128338   0.996   5.231   4.656
 9458TIP3    H228339   1.120   5.160   4.707
 9459TIP3   OH228340   4.732   5.309   3.286
 9459TIP3    H128341   4.796   5.272   3.347
 9459TIP3    H228342   4.771   5.298   3.200
 9460TIP3   OH228343   4.569   2.682   3.359
 9460TIP3    H128344   4.627   2.753   3.386
 9460TIP3    H228345   4.574   2.618   3.430
 9461TIP3   OH228346   5.545   0.327   5.651
 9461TIP3    H128347   5.584   0.407   5.686
 9461TIP3    H228348   5.525   0.275   5.728
 9462TIP3   OH228349   2.804   3.274   2.290
 9462TIP3    H128350   2.789   3.269   2.384
 9462TIP3    H228351   2.865   3.348   2.279
 9463TIP3   OH228352   5.364   3.024   4.403
 9463TIP3    H128353   5.331   2.943   4.443
 9463TIP3    H228354   5.287   3.081   4.398
 9464TIP3   OH228355   2.395   1.168   3.820
 9464TIP3    H128356   2.340   1.158   3.742
 9464TIP3    H228357   2.484   1.149   3.789
 9465TIP3   OH228358   6.069   2.633   1.145
 9465TIP3    H128359   6.057   2.640   1.050
 9465TIP3    H228360   5.983   2.608   1.178
 9466TIP3   OH228361   2.788   4.279   3.797
 9466TIP3    H128362   2.796   4.190   3.832
 9466TIP3    H228363   2.835   4.277   3.713
 9467TIP3   OH228364   3.905   3.792   2.715
 9467TIP3    H128365   3.944   3.705   2.707
 9467TIP3    H228366   3.834   3.793   2.650
 9468TIP3   OH228367   2.741   1.608   4.939
 9468TIP3    H128368   2.701   1.614   5.026
 9468TIP3    H228369   2.798   1.531   4.945
 9469TIP3   OH228370   1.350   2.360   3.602
 9469TIP3    H128371   1.406   2.414   3.657
 9469TIP3    H228372   1.391   2.362   3.516
 9470TIP3   OH228373   0.469   6.611   5.803
 9470TIP3    H128374   0.519   6.555   5.743
 9470TIP3    H228375   0.521   6.691   5.810
 9471TIP3   OH228376   0.139   3.527   5.680
 9471TIP3    H128377   0.177   3.482   5.755
 9471TIP3    H228378   0.143   3.464   5.609
 9472TIP3   OH228379   5.605   5.615   1.536
 9472TIP3    H128380   5.534   5.585   1.592
 9472TIP3    H228381   5.573   5.696   1.497
 9473TIP3   OH228382   2.325   3.330   0.850
 9473TIP3    H128383   2.392   3.273   0.889
 9473TIP3    H228384   2.269   3.354   0.924
 9474TIP3   OH228385   5.912   1.565   5.343
 9474TIP3    H128386   5.820   1.540   5.341
 9474TIP3    H228387   5.960   1.483   5.334
 9475TIP3   OH228388   0.938   1.010   3.291
 9475TIP3    H128389   0.894   0.940   3.243
 9475TIP3    H228390   0.984   1.060   3.224
 9476TIP3   OH228391   5.277   5.954   1.501
 9476TIP3    H128392   5.255   5.986   1.589
 9476TIP3    H228393   5.285   5.859   1.511
 9477TIP3   OH228394   3.448   3.056   2.494
 9477TIP3    H128395   3.465   3.127   2.556
 9477TIP3    H228396   3.367   3.016   2.525
 9478TIP3   OH228397   2.775   4.427   4.752
 9478TIP3    H128398   2.762   4.333   4.766
 9478TIP3    H228399   2.728   4.446   4.670
 9479TIP3   OH228400   3.163   5.415   0.150
 9479TIP3    H128401   3.193   5.391   0.062
 9479TIP3    H228402   3.101   5.486   0.135
 9480TIP3   OH228403   2.032   4.623   0.877
 9480TIP3    H128404   2.090   4.681   0.928
 9480TIP3    H228405   1.954   4.676   0.860
 9481TIP3   OH228406   0.565   4.056   0.153
 9481TIP3    H128407   0.576   4.041   0.247
 9481TIP3    H228408   0.483   4.011   0.131
 9482TIP3   OH228409   5.282   1.562   3.644
 9482TIP3    H128410   5.220   1.553   3.717
 9482TIP3    H228411   5.332   1.641   3.664
 9483TIP3   OH228412   3.257   0.164   2.165
 9483TIP3    H128413   3.197   0.219   2.214
 9483TIP3    H228414   3.321   0.134   2.230
 9484TIP3   OH228415   5.529   3.749   0.497
 9484TIP3    H128416   5.553   3.842   0.493
 9484TIP3    H228417   5.597   3.704   0.447
 9485TIP3   OH228418   1.564   0.470   2.739
 9485TIP3    H128419   1.591   0.552   2.700
 9485TIP3    H228420   1.518   0.424   2.668
 9486TIP3   OH228421   4.494   1.007   0.237
 9486TIP3    H128422   4.555   1.061   0.186
 9486TIP3    H228423   4.421   0.991   0.177
 9487TIP3   OH228424   2.793   6.122   3.920
 9487TIP3    H128425   2.864   6.079   3.968
 9487TIP3    H228426   2.797   6.084   3.832
 9488TIP3   OH228427   3.665   1.193   2.286
 9488TIP3    H128428   3.689   1.111   2.329
 9488TIP3    H228429   3.737   1.211   2.226
 9489TIP3   OH228430   0.728   5.170   0.572
 9489TIP3    H128431   0.800   5.162   0.633
 9489TIP3    H228432   0.721   5.264   0.555
 9490TIP3   OH228433   5.949   3.513   3.295
 9490TIP3    H128434   5.861   3.483   3.274
 9490TIP3    H228435   6.000   3.492   3.216
 9491TIP3   OH228436   2.019   2.530   3.346
 9491TIP3    H128437   2.073   2.609   3.343
 9491TIP3    H228438   2.081   2.458   3.333
 9492TIP3   OH228439   6.320   0.385   2.539
 9492TIP3    H128440   6.262   0.332   2.594
 9492TIP3    H228441   6.332   0.467   2.588
 9493TIP3   OH228442   0.713   1.910   1.066
 9493TIP3    H128443   0.687   1.875   0.980
 9493TIP3    H228444   0.714   2.005   1.054
 9494TIP3   OH228445   2.679   1.818   4.484
 9494TIP3    H128446   2.688   1.904   4.443
 9494TIP3    H228447   2.602   1.826   4.540
 9495TIP3   OH228448   3.808   0.752   3.296
 9495TIP3    H128449   3.728   0.790   3.261
 9495TIP3    H228450   3.809   0.663   3.261
 9496TIP3   OH228451   6.034   2.802   0.850
 9496TIP3    H128452   6.071   2.812   0.763
 9496TIP3    H228453   6.048   2.887   0.892
 9497TIP3   OH228454   0.604   0.044   4.050
 9497TIP3    H128455   0.688   0.042   4.004
 9497TIP3    H228456   0.588  -0.047   4.075
 9498TIP3   OH228457   1.236   2.556   4.029
 9498TIP3    H128458   1.321   2.527   4.063
 9498TIP3    H228459   1.206   2.483   3.975
 9499TIP3   OH228460   2.575   0.911   3.236
 9499TIP3    H128461   2.659   0.951   3.214
 9499TIP3    H228462   2.510   0.973   3.205
 9500TIP3   OH228463   3.183   0.724   5.418
 9500TIP3    H128464   3.272   0.693   5.399
 9500TIP3    H228465   3.126   0.652   5.389
 9501TIP3   OH228466   5.661   5.462   1.847
 9501TIP3    H128467   5.704   5.389   1.803
 9501TIP3    H228468   5.571   5.460   1.814
 9502TIP3   OH228469   5.858   2.101   1.499
 9502TIP3    H128470   5.843   2.187   1.539
 9502TIP3    H228471   5.884   2.121   1.409
 9503TIP3   OH228472   1.918   1.195   4.154
 9503TIP3    H128473   1.962   1.215   4.237
 9503TIP3    H228474   1.955   1.112   4.126
 9504TIP3   OH228475   3.486   6.464   4.521
 9504TIP3    H128476   3.516   6.376   4.498
 9504TIP3    H228477   3.555   6.499   4.578
 9505TIP3   OH228478   2.116   4.249   2.161
 9505TIP3    H128479   2.100   4.292   2.077
 9505TIP3    H228480   2.080   4.308   2.227
 9506TIP3   OH228481   4.365   6.286   3.841
 9506TIP3    H128482   4.360   6.199   3.879
 9506TIP3    H228483   4.437   6.281   3.778
 9507TIP3   OH228484   3.393   6.289   0.006
 9507TIP3    H128485   3.324   6.351  -0.019
 9507TIP3    H228486   3.424   6.320   0.091
 9508TIP3   OH228487   5.835   4.060   2.056
 9508TIP3    H128488   5.876   4.086   2.139
 9508TIP3    H228489   5.790   4.139   2.027
 9509TIP3   OH228490   5.919   4.763   5.396
 9509TIP3    H128491   5.843   4.781   5.341
 9509TIP3    H228492   5.994   4.776   5.338
 9510TIP3   OH228493   5.751   5.059   5.216
 9510TIP3    H128494   5.712   5.125   5.158
 9510TIP3    H228495   5.845   5.077   5.212
 9511TIP3   OH228496   2.524   6.028   2.900
 9511TIP3    H128497   2.488   5.954   2.852
 9511TIP3    H228498   2.457   6.095   2.894
 9512TIP3   OH228499   7.158   2.467   4.796
 9512TIP3    H128500   7.116   2.383   4.776
 9512TIP3    H228501   7.246   2.459   4.761
 9513TIP3   OH228502   3.748   3.056   0.787
 9513TIP3    H128503   3.738   2.963   0.803
 9513TIP3    H228504   3.714   3.069   0.699
 9514TIP3   OH228505   0.544   3.531   3.428
 9514TIP3    H128506   0.478   3.522   3.498
 9514TIP3    H228507   0.551   3.444   3.390
 9515TIP3   OH228508   4.605   4.542   1.200
 9515TIP3    H128509   4.510   4.539   1.189
 9515TIP3    H228510   4.623   4.634   1.221
 9516TIP3   OH228511   3.300   2.075   2.428
 9516TIP3    H128512   3.391   2.094   2.448
 9516TIP3    H228513   3.250   2.127   2.490
 9517TIP3   OH228514   5.976   5.295   0.667
 9517TIP3    H128515   6.020   5.267   0.748
 9517TIP3    H228516   5.964   5.215   0.617
 9518TIP3   OH228517   6.299   6.354   2.704
 9518TIP3    H128518   6.330   6.424   2.646
 9518TIP3    H228519   6.243   6.300   2.648
 9519TIP3   OH228520   6.953   6.477   1.085
 9519TIP3    H128521   6.917   6.561   1.114
 9519TIP3    H228522   7.023   6.458   1.148
 9520TIP3   OH228523   4.891   6.691   2.570
 9520TIP3    H128524   4.966   6.636   2.549
 9520TIP3    H228525   4.901   6.768   2.513
 9521TIP3   OH228526   0.663   5.485   5.001
 9521TIP3    H128527   0.644   5.493   4.908
 9521TIP3    H228528   0.608   5.550   5.044
 9522TIP3   OH228529   1.728   2.465   4.064
 9522TIP3    H128530   1.765   2.522   3.996
 9522TIP3    H228531   1.797   2.458   4.130
 9523TIP3   OH228532   1.506   0.134   1.855
 9523TIP3    H128533   1.581   0.084   1.887
 9523TIP3    H228534   1.532   0.225   1.866
 9524TIP3   OH228535   2.494   3.190   1.068
 9524TIP3    H128536   2.551   3.154   1.136
 9524TIP3    H228537   2.421   3.229   1.116
 9525TIP3   OH228538   1.979   0.015   2.319
 9525TIP3    H128539   2.019   0.095   2.355
 9525TIP3    H228540   1.936   0.044   2.239
 9526TIP3   OH228541   3.369   3.661   3.022
 9526TIP3    H128542   3.342   3.594   3.085
 9526TIP3    H228543   3.373   3.742   3.072
 9527TIP3   OH228544   4.958   5.409   3.630
 9527TIP3    H128545   4.914   5.488   3.662
 9527TIP3    H228546   5.051   5.430   3.637
 9528TIP3   OH228547   5.201   2.346   4.648
 9528TIP3    H128548   5.268   2.278   4.652
 9528TIP3    H228549   5.135   2.319   4.712
 9529TIP3   OH228550   0.349   0.173   1.701
 9529TIP3    H128551   0.395   0.122   1.635
 9529TIP3    H228552   0.320   0.252   1.655
 9530TIP3   OH228553   4.261   4.034   4.824
 9530TIP3    H128554   4.199   3.967   4.794
 9530TIP3    H228555   4.336   4.024   4.765
 9531TIP3   OH228556   1.505   5.327   4.308
 9531TIP3    H128557   1.567   5.387   4.349
 9531TIP3    H228558   1.555   5.246   4.297
 9532TIP3   OH228559   4.058   4.625   2.843
 9532TIP3    H128560   4.019   4.570   2.776
 9532TIP3    H228561   3.993   4.628   2.913
 9533TIP3   OH228562   2.831   1.992   1.240
 9533TIP3    H128563   2.750   1.942   1.240
 9533TIP3    H228564   2.837   2.030   1.153
 9534TIP3   OH228565   5.913   4.509   1.104
 9534TIP3    H128566   5.968   4.442   1.144
 9534TIP3    H228567   5.917   4.489   1.010
 9535TIP3   OH228568   3.284   6.216   4.690
 9535TIP3    H128569   3.282   6.297   4.640
 9535TIP3    H228570   3.376   6.208   4.719
 9536TIP3   OH228571   1.870   2.585   4.659
 9536TIP3    H128572   1.814   2.605   4.734
 9536TIP3    H228573   1.821   2.520   4.609
 9537TIP3   OH228574   4.575   1.329   2.323
 9537TIP3    H128575   4.490   1.350   2.361
 9537TIP3    H228576   4.636   1.390   2.365
 9538TIP3   OH228577   3.402   5.931   2.354
 9538TIP3    H128578   3.411   5.998   2.285
 9538TIP3    H228579   3.488   5.892   2.361
 9539TIP3   OH228580   2.373   6.132  -0.019
 9539TIP3    H128581   2.300   6.112   0.040
 9539TIP3    H228582   2.447   6.145   0.040
 9540TIP3   OH228583   1.843   3.786   3.188
 9540TIP3    H128584   1.859   3.739   3.106
 9540TIP3    H228585   1.848   3.719   3.256
 9541TIP3   OH228586   5.279   5.591   4.404
 9541TIP3    H128587   5.311   5.547   4.326
 9541TIP3    H228588   5.207   5.536   4.435
 9542TIP3   OH228589   3.719   3.747   4.940
 9542TIP3    H128590   3.674   3.801   4.874
 9542TIP3    H228591   3.804   3.788   4.951
 9543TIP3   OH228592   1.803   3.849   4.929
 9543TIP3    H128593   1.766   3.937   4.939
 9543TIP3    H228594   1.886   3.852   4.977
 9544TIP3   OH228595   6.441   6.497   0.660
 9544TIP3    H128596   6.455   6.477   0.567
 9544TIP3    H228597   6.387   6.425   0.692
 9545TIP3   OH228598   2.189   3.529   4.917
 9545TIP3    H128599   2.138   3.540   4.837
 9545TIP3    H228600   2.124   3.521   4.987
 9546TIP3   OH228601   5.851   0.159   1.519
 9546TIP3    H128602   5.911   0.135   1.449
 9546TIP3    H228603   5.824   0.248   1.499
 9547TIP3   OH228604   0.654   2.190   2.373
 9547TIP3    H128605   0.619   2.213   2.287
 9547TIP3    H228606   0.577   2.167   2.425
 9548TIP3   OH228607   2.739   1.429   0.199
 9548TIP3    H128608   2.799   1.378   0.144
 9548TIP3    H228609   2.764   1.406   0.289
 9549TIP3   OH228610   2.246   5.172   1.674
 9549TIP3    H128611   2.304   5.106   1.712
 9549TIP3    H228612   2.255   5.248   1.732
 9550TIP3   OH228613   0.453   5.273   2.661
 9550TIP3    H128614   0.520   5.341   2.666
 9550TIP3    H228615   0.378   5.310   2.707
 9551TIP3   OH228616   6.098   0.678   1.345
 9551TIP3    H128617   6.018   0.730   1.331
 9551TIP3    H228618   6.093   0.609   1.279
 9552TIP3   OH228619   2.994   0.228   5.005
 9552TIP3    H128620   2.983   0.133   5.000
 9552TIP3    H228621   2.985   0.257   4.914
 9553TIP3   OH228622   0.233   1.008   3.312
 9553TIP3    H128623   0.323   1.023   3.281
 9553TIP3    H228624   0.229   1.053   3.397
 9554TIP3   OH228625   7.169   3.909   4.565
 9554TIP3    H128626   7.227   3.833   4.575
 9554TIP3    H228627   7.179   3.958   4.646
 9555TIP3   OH228628   5.030   6.622   0.118
 9555TIP3    H128629   5.097   6.563   0.084
 9555TIP3    H228630   4.968   6.631   0.045
 9556TIP3   OH228631   6.422   6.590   0.974
 9556TIP3    H128632   6.364   6.619   1.045
 9556TIP3    H228633   6.421   6.495   0.980
 9557TIP3   OH228634   6.441   5.862   4.800
 9557TIP3    H128635   6.492   5.818   4.868
 9557TIP3    H228636   6.507   5.904   4.745
 9558TIP3   OH228637   1.333   4.308   2.296
 9558TIP3    H128638   1.370   4.306   2.385
 9558TIP3    H228639   1.258   4.249   2.299
 9559TIP3   OH228640   5.908   0.268   4.209
 9559TIP3    H128641   5.897   0.249   4.116
 9559TIP3    H228642   5.819   0.269   4.244
 9560TIP3   OH228643   4.067   5.362   1.653
 9560TIP3    H128644   4.078   5.306   1.576
 9560TIP3    H228645   3.974   5.386   1.652
 9561TIP3   OH228646   1.800   5.645   1.745
 9561TIP3    H128647   1.713   5.629   1.709
 9561TIP3    H228648   1.843   5.700   1.680
 9562TIP3   OH228649   2.493   1.877   3.974
 9562TIP3    H128650   2.475   1.834   3.890
 9562TIP3    H228651   2.421   1.849   4.031
 9563TIP3   OH228652   1.337   5.708   1.301
 9563TIP3    H128653   1.284   5.633   1.329
 9563TIP3    H228654   1.363   5.688   1.211
 9564TIP3   OH228655   4.045   5.083   5.415
 9564TIP3    H128656   4.135   5.100   5.387
 9564TIP3    H228657   4.044   4.990   5.435
 9565TIP3   OH228658   4.357   2.158   5.403
 9565TIP3    H128659   4.296   2.215   5.450
 9565TIP3    H228660   4.329   2.164   5.312
 9566TIP3   OH228661   1.342   3.426   3.508
 9566TIP3    H128662   1.290   3.357   3.549
 9566TIP3    H228663   1.306   3.433   3.419
 9567TIP3   OH228664   3.908   6.574   4.499
 9567TIP3    H128665   3.874   6.605   4.582
 9567TIP3    H228666   3.868   6.631   4.433
 9568TIP3   OH228667   0.411   1.471   5.088
 9568TIP3    H128668   0.393   1.564   5.080
 9568TIP3    H228669   0.325   1.431   5.101
 9569TIP3   OH228670   2.864   6.377   3.728
 9569TIP3    H128671   2.841   6.470   3.730
 9569TIP3    H228672   2.942   6.370   3.783
 9570TIP3   OH228673   0.725   2.272   1.846
 9570TIP3    H128674   0.650   2.244   1.898
 9570TIP3    H228675   0.801   2.230   1.887
 9571TIP3   OH228676   5.573   4.716   3.913
 9571TIP3    H128677   5.579   4.718   3.818
 9571TIP3    H228678   5.633   4.786   3.941
 9572TIP3   OH228679   1.571   3.704   1.493
 9572TIP3    H128680   1.493   3.759   1.500
 9572TIP3    H228681   1.568   3.669   1.404
 9573TIP3   OH228682   1.609   0.260   0.752
 9573TIP3    H128683   1.623   0.177   0.798
 9573TIP3    H228684   1.650   0.326   0.807
 9574TIP3   OH228685   4.414   5.152   5.082
 9574TIP3    H128686   4.478   5.223   5.081
 9574TIP3    H228687   4.366   5.161   5.000
 9575TIP3   OH228688   5.984   1.867   3.155
 9575TIP3    H128689   5.953   1.867   3.064
 9575TIP3    H228690   6.012   1.777   3.170
 9576TIP3   OH228691   0.713   1.650   4.338
 9576TIP3    H128692   0.670   1.710   4.400
 9576TIP3    H228693   0.684   1.563   4.364
 9577TIP3   OH228694   2.362   5.313   2.952
 9577TIP3    H128695   2.432   5.363   2.993
 9577TIP3    H228696   2.325   5.373   2.887
 9578TIP3   OH228697   2.547   6.545   1.856
 9578TIP3    H128698   2.467   6.520   1.903
 9578TIP3    H228699   2.617   6.500   1.903
 9579TIP3   OH228700   0.898   4.500   3.846
 9579TIP3    H128701   0.938   4.459   3.770
 9579TIP3    H228702   0.968   4.501   3.912
 9580TIP3   OH228703   2.343   3.863   2.363
 9580TIP3    H128704   2.382   3.911   2.436
 9580TIP3    H228705   2.261   3.910   2.345
 9581TIP3   OH228706   0.236   2.475   4.710
 9581TIP3    H128707   0.224   2.441   4.621
 9581TIP3    H228708   0.289   2.409   4.754
 9582TIP3   OH228709   4.239   0.610   5.012
 9582TIP3    H128710   4.169   0.673   5.029
 9582TIP3    H228711   4.224   0.539   5.075
 9583TIP3   OH228712   3.499   5.960   1.981
 9583TIP3    H128713   3.590   5.965   2.012
 9583TIP3    H228714   3.482   6.047   1.943
 9584TIP3   OH228715   5.788   5.994   5.366
 9584TIP3    H128716   5.862   6.050   5.344
 9584TIP3    H228717   5.805   5.967   5.457
 9585TIP3   OH228718   3.387   0.640   2.648
 9585TIP3    H128719   3.383   0.556   2.695
 9585TIP3    H228720   3.296   0.671   2.647
 9586TIP3   OH228721   6.589   2.872   5.423
 9586TIP3    H128722   6.577   2.783   5.389
 9586TIP3    H228723   6.590   2.861   5.518
 9587TIP3   OH228724   4.241   2.334   0.220
 9587TIP3    H128725   4.180   2.280   0.270
 9587TIP3    H228726   4.322   2.283   0.216
 9588TIP3   OH228727   6.360   5.500   4.099
 9588TIP3    H128728   6.401   5.419   4.069
 9588TIP3    H228729   6.307   5.473   4.174
 9589TIP3   OH228730   2.318   1.825   3.310
 9589TIP3    H128731   2.351   1.796   3.225
 9589TIP3    H228732   2.395   1.857   3.357
 9590TIP3   OH228733   4.273   5.639   4.346
 9590TIP3    H128734   4.353   5.613   4.390
 9590TIP3    H228735   4.244   5.560   4.300
 9591TIP3   OH228736   1.359   4.677   1.248
 9591TIP3    H128737   1.323   4.591   1.226
 9591TIP3    H228738   1.326   4.695   1.336
 9592TIP3   OH228739   4.588   2.090   2.910
 9592TIP3    H128740   4.568   2.032   2.836
 9592TIP3    H228741   4.547   2.048   2.986
 9593TIP3   OH228742   4.429   0.427   2.934
 9593TIP3    H128743   4.407   0.375   3.012
 9593TIP3    H228744   4.500   0.484   2.963
 9594TIP3   OH228745   1.767   3.116   5.453
 9594TIP3    H128746   1.822   3.168   5.511
 9594TIP3    H228747   1.744   3.038   5.504
 9595TIP3   OH228748   3.713   3.765   2.519
 9595TIP3    H128749   3.749   3.706   2.453
 9595TIP3    H228750   3.633   3.722   2.549
 9596TIP3   OH228751   4.981   4.116   1.314
 9596TIP3    H128752   4.990   4.026   1.346
 9596TIP3    H228753   4.927   4.107   1.235
 9597TIP3   OH228754   4.584   6.686   4.146
 9597TIP3    H128755   4.529   6.654   4.218
 9597TIP3    H228756   4.555   6.636   4.070
 9598TIP3   OH228757   4.090   6.371   2.851
 9598TIP3    H128758   4.117   6.294   2.800
 9598TIP3    H228759   4.009   6.400   2.810
 9599TIP3   OH228760   6.648   4.154   5.357
 9599TIP3    H128761   6.577   4.213   5.332
 9599TIP3    H228762   6.640   4.081   5.295
 9600TIP3   OH228763   2.051  -0.020   1.019
 9600TIP3    H128764   1.999  -0.029   0.940
 9600TIP3    H228765   2.108   0.055   1.003
 9601TIP3   OH228766   5.812   4.645   3.202
 9601TIP3    H128767   5.878   4.634   3.134
 9601TIP3    H228768   5.861   4.670   3.280
 9602TIP3   OH228769   4.245   4.570   1.923
 9602TIP3    H128770   4.297   4.513   1.980
 9602TIP3    H228771   4.210   4.511   1.857
 9603TIP3   OH228772   0.573   6.780   5.222
 9603TIP3    H128773   0.502   6.825   5.268
 9603TIP3    H228774   0.531   6.740   5.146
 9604TIP3   OH228775   6.190   1.350   2.950
 9604TIP3    H128776   6.243   1.416   2.994
 9604TIP3    H228777   6.228   1.266   2.978
 9605TIP3   OH228778   0.952   5.101   2.745
 9605TIP3    H128779   0.891   5.061   2.807
 9605TIP3    H228780   1.037   5.063   2.767
 9606TIP3   OH228781   6.081   5.596   4.462
 9606TIP3    H128782   6.050   5.687   4.454
 9606TIP3    H228783   6.150   5.600   4.528
 9607TIP3   OH228784   3.545   5.610   2.198
 9607TIP3    H128785   3.451   5.611   2.216
 9607TIP3    H228786   3.585   5.607   2.285
 9608TIP3   OH228787   3.014   4.901   2.995
 9608TIP3    H128788   3.060   4.844   3.055
 9608TIP3    H228789   3.067   4.900   2.915
 9609TIP3   OH228790   6.748   1.096   0.078
 9609TIP3    H128791   6.764   1.181   0.117
 9609TIP3    H228792   6.663   1.069   0.114
 9610TIP3   OH228793   1.769   4.613   1.040
 9610TIP3    H128794   1.833   4.599   0.970
 9610TIP3    H228795   1.801   4.689   1.088
 9611TIP3   OH228796   6.643   6.052   5.722
 9611TIP3    H128797   6.662   6.146   5.721
 9611TIP3    H228798   6.706   6.015   5.783
 9612TIP3   OH228799   2.306   2.779   5.125
 9612TIP3    H128800   2.369   2.841   5.089
 9612TIP3    H228801   2.351   2.694   5.122
 9613TIP3   OH228802   5.407   0.673   0.339
 9613TIP3    H128803   5.361   0.634   0.264
 9613TIP3    H228804   5.403   0.767   0.323
 9614TIP3   OH228805   5.013   4.724   1.075
 9614TIP3    H128806   5.105   4.715   1.097
 9614TIP3    H228807   5.012   4.783   0.999
 9615TIP3   OH228808   0.713   4.464   2.767
 9615TIP3    H128809   0.739   4.557   2.765
 9615TIP3    H228810   0.724   4.439   2.859
 9616TIP3   OH228811   2.850   2.772   2.107
 9616TIP3    H128812   2.816   2.859   2.128
 9616TIP3    H228813   2.914   2.754   2.177
 9617TIP3   OH228814   0.379   6.574   2.550
 9617TIP3    H128815   0.452   6.636   2.555
 9617TIP3    H228816   0.416   6.497   2.507
 9618TIP3   OH228817   0.983   4.733   5.354
 9618TIP3    H128818   0.950   4.645   5.373
 9618TIP3    H228819   0.992   4.734   5.258
 9619TIP3   OH228820   2.216   4.568   3.800
 9619TIP3    H128821   2.251   4.632   3.863
 9619TIP3    H228822   2.125   4.555   3.828
 9620TIP3   OH228823   1.966   1.138   5.040
 9620TIP3    H128824   1.981   1.113   4.949
 9620TIP3    H228825   2.053   1.134   5.080
 9621TIP3   OH228826   5.214   4.020   4.702
 9621TIP3    H128827   5.229   3.964   4.778
 9621TIP3    H228828   5.291   4.007   4.647
 9622TIP3   OH228829   0.687   1.012   3.421
 9622TIP3    H128830   0.636   0.996   3.342
 9622TIP3    H228831   0.751   1.079   3.395
 9623TIP3   OH228832   5.140   3.720   2.983
 9623TIP3    H128833   5.165   3.637   3.024
 9623TIP3    H228834   5.094   3.694   2.903
 9624TIP3   OH228835   6.800   5.467   1.629
 9624TIP3    H128836   6.850   5.428   1.701
 9624TIP3    H228837   6.727   5.511   1.673
 9625TIP3   OH228838   4.966   4.711   0.300
 9625TIP3    H128839   4.925   4.678   0.380
 9625TIP3    H228840   5.031   4.645   0.277
 9626TIP3   OH228841   5.887   3.519   3.896
 9626TIP3    H128842   5.841   3.502   3.978
 9626TIP3    H228843   5.853   3.604   3.867
 9627TIP3   OH228844   6.964   5.759   3.660
 9627TIP3    H128845   6.978   5.781   3.568
 9627TIP3    H228846   6.992   5.668   3.668
 9628TIP3   OH228847   2.043   6.668   0.867
 9628TIP3    H128848   2.064   6.653   0.959
 9628TIP3    H228849   2.084   6.595   0.821
 9629TIP3   OH228850   0.975   1.216   2.125
 9629TIP3    H128851   1.013   1.287   2.177
 9629TIP3    H228852   0.923   1.260   2.057
 9630TIP3   OH228853   2.948   5.558   2.725
 9630TIP3    H128854   2.989   5.641   2.750
 9630TIP3    H228855   2.874   5.584   2.669
 9631TIP3   OH228856   6.927   2.806   5.533
 9631TIP3    H128857   7.016   2.836   5.552
 9631TIP3    H228858   6.872   2.884   5.547
 9632TIP3   OH228859   2.909   6.370   1.417
 9632TIP3    H128860   2.908   6.342   1.509
 9632TIP3    H228861   2.954   6.455   1.419
 9633TIP3   OH228862   3.855   2.646   0.625
 9633TIP3    H128863   3.910   2.716   0.591
 9633TIP3    H228864   3.898   2.565   0.596
 9634TIP3   OH228865   4.475   2.760   3.113
 9634TIP3    H128866   4.436   2.679   3.080
 9634TIP3    H228867   4.481   2.747   3.208
 9635TIP3   OH228868   4.728   1.214   4.429
 9635TIP3    H128869   4.794   1.266   4.474
 9635TIP3    H228870   4.773   1.178   4.352
 9636TIP3   OH228871   4.483   4.951   4.019
 9636TIP3    H128872   4.473   4.871   3.968
 9636TIP3    H228873   4.395   4.972   4.050
 9637TIP3   OH228874   2.441   2.725   4.755
 9637TIP3    H128875   2.361   2.742   4.706
 9637TIP3    H228876   2.416   2.738   4.847
 9638TIP3   OH228877   1.842   0.308   1.397
 9638TIP3    H128878   1.837   0.340   1.307
 9638TIP3    H228879   1.875   0.383   1.447
 9639TIP3   OH228880   0.311   5.725   2.682
 9639TIP3    H128881   0.384   5.668   2.708
 9639TIP3    H228882   0.261   5.672   2.619
 9640TIP3   OH228883   0.234   0.660   5.297
 9640TIP3    H128884   0.251   0.584   5.352
 9640TIP3    H228885   0.147   0.645   5.261
 9641TIP3   OH228886   6.370   1.308   3.927
 9641TIP3    H128887   6.282   1.338   3.950
 9641TIP3    H228888   6.423   1.388   3.926
 9642TIP3   OH228889   2.373   2.860   0.512
 9642TIP3    H128890   2.345   2.838   0.424
 9642TIP3    H228891   2.389   2.955   0.510
 9643TIP3   OH228892   0.347   6.416   5.323
 9643TIP3    H128893   0.325   6.380   5.409
 9643TIP3    H228894   0.331   6.510   5.331
 9644TIP3   OH228895   2.104   0.815   0.758
 9644TIP3    H128896   2.102   0.743   0.694
 9644TIP3    H228897   2.088   0.772   0.842
 9645TIP3   OH228898   2.702   2.832   0.747
 9645TIP3    H128899   2.758   2.781   0.689
 9645TIP3    H228900   2.723   2.923   0.728
 9646TIP3   OH228901   3.685   4.543   3.842
 9646TIP3    H128902   3.603   4.570   3.801
 9646TIP3    H228903   3.714   4.468   3.790
 9647TIP3   OH228904   2.144   3.701   4.562
 9647TIP3    H128905   2.228   3.707   4.517
 9647TIP3    H228906   2.128   3.606   4.569
 9648TIP3   OH228907   6.063   2.439   2.670
 9648TIP3    H128908   6.122   2.379   2.625
 9648TIP3    H228909   6.120   2.507   2.706
 9649TIP3   OH228910   5.305   3.939   2.919
 9649TIP3    H128911   5.269   4.014   2.873
 9649TIP3    H228912   5.231   3.879   2.930
 9650TIP3   OH228913   1.170   5.530   1.655
 9650TIP3    H128914   1.203   5.543   1.744
 9650TIP3    H228915   1.118   5.608   1.637
 9651TIP3   OH228916   4.895   6.017   0.214
 9651TIP3    H128917   4.927   6.021   0.304
 9651TIP3    H228918   4.869   5.926   0.201
 9652TIP3   OH228919   4.423   1.920   0.931
 9652TIP3    H128920   4.491   1.853   0.927
 9652TIP3    H228921   4.345   1.872   0.961
 9653TIP3   OH228922   0.326   4.549   1.530
 9653TIP3    H128923   0.379   4.528   1.607
 9653TIP3    H228924   0.264   4.476   1.524
 9654TIP3   OH228925   6.746   6.328   1.615
 9654TIP3    H128926   6.757   6.304   1.523
 9654TIP3    H228927   6.822   6.290   1.659
 9655TIP3   OH228928   3.147   1.564   4.286
 9655TIP3    H128929   3.093   1.621   4.232
 9655TIP3    H228930   3.210   1.623   4.327
 9656TIP3   OH228931   1.237   0.684   2.521
 9656TIP3    H128932   1.210   0.684   2.613
 9656TIP3    H228933   1.308   0.747   2.517
 9657TIP3   OH228934   3.399   5.063   2.501
 9657TIP3    H128935   3.414   5.144   2.452
 9657TIP3    H228936   3.408   4.993   2.437
 9658TIP3   OH228937   6.453   5.873   4.127
 9658TIP3    H128938   6.419   5.834   4.046
 9658TIP3    H228939   6.536   5.827   4.142
 9659TIP3   OH228940   1.470   6.324   3.758
 9659TIP3    H128941   1.509   6.283   3.835
 9659TIP3    H228942   1.545   6.346   3.702
 9660TIP3   OH228943   5.585   3.188   1.496
 9660TIP3    H128944   5.586   3.160   1.588
 9660TIP3    H228945   5.506   3.242   1.489
 9661TIP3   OH228946   0.056   1.125   4.073
 9661TIP3    H128947   0.051   1.216   4.102
 9661TIP3    H228948   0.099   1.130   3.987
 9662TIP3   OH228949   4.926   4.068   5.802
 9662TIP3    H128950   4.857   4.134   5.800
 9662TIP3    H228951   4.882   3.985   5.784
 9663TIP3   OH228952   0.674   0.643   0.584
 9663TIP3    H128953   0.665   0.641   0.489
 9663TIP3    H228954   0.702   0.554   0.607
 9664TIP3   OH228955   0.595   6.103   5.661
 9664TIP3    H128956   0.679   6.123   5.702
 9664TIP3    H228957   0.608   6.122   5.568
 9665TIP3   OH228958   3.382   3.636   0.723
 9665TIP3    H128959   3.431   3.690   0.662
 9665TIP3    H228960   3.449   3.599   0.782
 9666TIP3   OH228961   4.854   5.366   3.930
 9666TIP3    H128962   4.903   5.295   3.889
 9666TIP3    H228963   4.777   5.322   3.967
 9667TIP3   OH228964   5.606   6.350   2.269
 9667TIP3    H128965   5.630   6.266   2.230
 9667TIP3    H228966   5.577   6.404   2.195
 9668TIP3   OH228967   1.766   6.518   1.500
 9668TIP3    H128968   1.856   6.486   1.499
 9668TIP3    H228969   1.773   6.608   1.531
 9669TIP3   OH228970   0.811   5.211   4.661
 9669TIP3    H128971   0.787   5.118   4.665
 9669TIP3    H228972   0.752   5.248   4.596
 9670TIP3   OH228973   3.992   0.167   4.531
 9670TIP3    H128974   4.058   0.186   4.599
 9670TIP3    H228975   3.911   0.201   4.568
 9671TIP3   OH228976   1.636   0.236   4.485
 9671TIP3    H128977   1.652   0.147   4.517
 9671TIP3    H228978   1.618   0.226   4.392
 9672TIP3   OH228979   5.636   3.505   5.084
 9672TIP3    H128980   5.557   3.467   5.046
 9672TIP3    H228981   5.615   3.598   5.095
 9673TIP3   OH228982   1.917   2.131   1.661
 9673TIP3    H128983   1.957   2.175   1.736
 9673TIP3    H228984   1.991   2.105   1.607
 9674TIP3   OH228985   4.959   3.319   0.866
 9674TIP3    H128986   5.006   3.386   0.816
 9674TIP3    H228987   4.908   3.368   0.930
 9675TIP3   OH228988   4.960   0.863   3.154
 9675TIP3    H128989   4.895   0.915   3.107
 9675TIP3    H228990   4.910   0.817   3.222
 9676TIP3   OH228991   6.827   0.323   5.473
 9676TIP3    H128992   6.809   0.283   5.388
 9676TIP3    H228993   6.848   0.249   5.531
 9677TIP3   OH228994   1.119   3.438   5.323
 9677TIP3    H128995   1.213   3.438   5.339
 9677TIP3    H228996   1.110   3.403   5.234
 9678TIP3   OH228997   6.618   3.108   1.777
 9678TIP3    H128998   6.593   3.053   1.703
 9678TIP3    H228999   6.691   3.062   1.819
 9679TIP3   OH229000   2.708   1.017   1.237
 9679TIP3    H129001   2.708   1.015   1.141
 9679TIP3    H229002   2.779   0.958   1.262
 9680TIP3   OH229003   0.409   4.525   3.707
 9680TIP3    H129004   0.359   4.606   3.706
 9680TIP3    H229005   0.460   4.529   3.788
 9681TIP3   OH229006   2.325   2.281   2.100
 9681TIP3    H129007   2.386   2.346   2.136
 9681TIP3    H229008   2.338   2.203   2.154
 9682TIP3   OH229009   4.036   3.883   5.224
 9682TIP3    H129010   3.993   3.959   5.263
 9682TIP3    H229011   3.991   3.807   5.262
 9683TIP3   OH229012   5.435   2.426   3.679
 9683TIP3    H129013   5.444   2.331   3.686
 9683TIP3    H229014   5.510   2.460   3.728
 9684TIP3   OH229015   1.217   3.733   1.205
 9684TIP3    H129016   1.178   3.769   1.285
 9684TIP3    H229017   1.277   3.801   1.175
 9685TIP3   OH229018   4.231   5.536   0.150
 9685TIP3    H129019   4.283   5.461   0.120
 9685TIP3    H229020   4.286   5.612   0.130
 9686TIP3   OH229021   4.412   1.602   0.763
 9686TIP3    H129022   4.503   1.585   0.739
 9686TIP3    H229023   4.364   1.526   0.729
 9687TIP3   OH229024   0.745   2.717   4.531
 9687TIP3    H129025   0.688   2.683   4.463
 9687TIP3    H229026   0.833   2.690   4.505
 9688TIP3   OH229027   3.762   6.018   2.065
 9688TIP3    H129028   3.817   5.940   2.079
 9688TIP3    H229029   3.816   6.076   2.011
 9689TIP3   OH229030   2.784   4.239   0.947
 9689TIP3    H129031   2.846   4.286   0.892
 9689TIP3    H229032   2.701   4.285   0.935
 9690TIP3   OH229033   6.400   0.401   1.040
 9690TIP3    H129034   6.412   0.331   1.103
 9690TIP3    H229035   6.483   0.404   0.992
 9691TIP3   OH229036   6.968   0.958   5.347
 9691TIP3    H129037   6.890   1.013   5.344
 9691TIP3    H229038   7.009   0.971   5.261
 9692TIP3   OH229039   3.503   0.933   4.642
 9692TIP3    H129040   3.413   0.936   4.675
 9692TIP3    H229041   3.495   0.921   4.548
 9693TIP3   OH229042   3.520   6.541   2.685
 9693TIP3    H129043   3.519   6.536   2.589
 9693TIP3    H229044   3.569   6.463   2.712
 9694TIP3   OH229045   3.532   3.887   3.939
 9694TIP3    H129046   3.502   3.933   4.018
 9694TIP3    H229047   3.470   3.913   3.871
 9695TIP3   OH229048   3.504   1.379   5.818
 9695TIP3    H129049   3.510   1.396   5.724
 9695TIP3    H229050   3.594   1.384   5.849
 9696TIP3   OH229051   4.996   5.899   4.767
 9696TIP3    H129052   5.069   5.856   4.812
 9696TIP3    H229053   4.974   5.973   4.823
 9697TIP3   OH229054   2.002   6.315   0.617
 9697TIP3    H129055   1.935   6.312   0.686
 9697TIP3    H229056   2.071   6.370   0.655
 9698TIP3   OH229057   3.937   0.174   3.978
 9698TIP3    H129058   3.942   0.189   4.073
 9698TIP3    H229059   3.845   0.157   3.961
 9699TIP3   OH229060   1.549   3.263   2.553
 9699TIP3    H129061   1.483   3.196   2.570
 9699TIP3    H229062   1.506   3.345   2.578
 9700TIP3   OH229063   1.801   3.219   3.898
 9700TIP3    H129064   1.850   3.145   3.859
 9700TIP3    H229065   1.729   3.178   3.945
 9701TIP3   OH229066   6.714   0.216   3.813
 9701TIP3    H129067   6.736   0.307   3.835
 9701TIP3    H229068   6.626   0.203   3.849
 9702TIP3   OH229069   3.256   0.629   4.637
 9702TIP3    H129070   3.349   0.609   4.626
 9702TIP3    H229071   3.212   0.574   4.572
 9703TIP3   OH229072   1.553   1.520   5.415
 9703TIP3    H129073   1.505   1.591   5.371
 9703TIP3    H229074   1.585   1.560   5.496
 9704TIP3   OH229075   3.165   0.807   0.211
 9704TIP3    H129076   3.095   0.765   0.260
 9704TIP3    H229077   3.157   0.774   0.122
 9705TIP3   OH229078   1.769   2.252   2.014
 9705TIP3    H129079   1.844   2.284   2.065
 9705TIP3    H229080   1.764   2.311   1.939
 9706TIP3   OH229081   6.718   1.687   5.322
 9706TIP3    H129082   6.789   1.743   5.290
 9706TIP3    H229083   6.639   1.723   5.281
 9707TIP3   OH229084   3.550   2.140   3.363
 9707TIP3    H129085   3.462   2.147   3.328
 9707TIP3    H229086   3.584   2.229   3.360
 9708TIP3   OH229087   2.459   6.660   3.940
 9708TIP3    H129088   2.465   6.718   3.863
 9708TIP3    H229089   2.427   6.577   3.905
 9709TIP3   OH229090   1.171   6.435   4.736
 9709TIP3    H129091   1.097   6.401   4.686
 9709TIP3    H229092   1.233   6.363   4.739
 9710TIP3   OH229093   0.949   5.781   3.676
 9710TIP3    H129094   0.980   5.692   3.659
 9710TIP3    H229095   0.944   5.822   3.589
 9711TIP3   OH229096   3.054   5.151   5.682
 9711TIP3    H129097   3.027   5.061   5.700
 9711TIP3    H229098   3.024   5.168   5.593
 9712TIP3   OH229099   7.180   1.565   5.305
 9712TIP3    H129100   7.087   1.550   5.286
 9712TIP3    H229101   7.200   1.506   5.378
 9713TIP3   OH229102   6.802   0.679   0.851
 9713TIP3    H129103   6.755   0.760   0.870
 9713TIP3    H229104   6.751   0.611   0.895
 9714TIP3   OH229105   5.696   0.556   4.321
 9714TIP3    H129106   5.604   0.552   4.297
 9714TIP3    H229107   5.716   0.470   4.358
 9715TIP3   OH229108   6.592   2.736   1.189
 9715TIP3    H129109   6.673   2.784   1.206
 9715TIP3    H229110   6.548   2.785   1.120
 9716TIP3   OH229111   1.502   2.427   5.614
 9716TIP3    H129112   1.438   2.358   5.630
 9716TIP3    H229113   1.526   2.417   5.522
 9717TIP3   OH229114   4.481   5.259   3.145
 9717TIP3    H129115   4.457   5.184   3.199
 9717TIP3    H229116   4.559   5.294   3.186
 9718TIP3   OH229117   3.080   3.352   3.470
 9718TIP3    H129118   3.152   3.346   3.407
 9718TIP3    H229119   3.107   3.420   3.531
 9719TIP3   OH229120   0.167   1.229   5.803
 9719TIP3    H129121   0.185   1.316   5.770
 9719TIP3    H229122   0.104   1.242   5.874
 9720TIP3   OH229123   6.479   5.261   4.053
 9720TIP3    H129124   6.457   5.181   4.006
 9720TIP3    H229125   6.506   5.231   4.140
 9721TIP3   OH229126   0.762   1.232   5.415
 9721TIP3    H129127   0.709   1.155   5.395
 9721TIP3    H229128   0.712   1.306   5.379
 9722TIP3   OH229129   4.255   1.880   0.211
 9722TIP3    H129130   4.165   1.902   0.236
 9722TIP3    H229131   4.269   1.792   0.246
 9723TIP3   OH229132   0.939   3.798   3.822
 9723TIP3    H129133   1.027   3.793   3.783
 9723TIP3    H229134   0.953   3.778   3.914
 9724TIP3   OH229135   6.726   1.870   4.459
 9724TIP3    H129136   6.673   1.848   4.536
 9724TIP3    H229137   6.664   1.872   4.387
 9725TIP3   OH229138   4.860   5.747   0.209
 9725TIP3    H129139   4.920   5.688   0.164
 9725TIP3    H229140   4.779   5.695   0.219
 9726TIP3   OH229141   4.726   1.271   1.999
 9726TIP3    H129142   4.803   1.310   2.042
 9726TIP3    H229143   4.652   1.320   2.035
 9727TIP3   OH229144   2.554   3.546   2.828
 9727TIP3    H129145   2.526   3.496   2.904
 9727TIP3    H229146   2.625   3.493   2.790
 9728TIP3   OH229147   2.404   0.414   0.956
 9728TIP3    H129148   2.383   0.466   1.034
 9728TIP3    H229149   2.432   0.478   0.891
 9729TIP3   OH229150   3.028   1.055   0.139
 9729TIP3    H129151   2.980   1.093   0.065
 9729TIP3    H229152   3.062   0.972   0.105
 9730TIP3   OH229153   2.928   4.304   1.988
 9730TIP3    H129154   2.917   4.399   1.993
 9730TIP3    H229155   3.018   4.289   2.015
 9731TIP3   OH229156   1.487   1.743   3.225
 9731TIP3    H129157   1.451   1.793   3.299
 9731TIP3    H229158   1.409   1.713   3.178
 9732TIP3   OH229159   4.307   0.068   3.650
 9732TIP3    H129160   4.269   0.124   3.718
 9732TIP3    H229161   4.396   0.051   3.682
 9733TIP3   OH229162   6.992   0.408   2.318
 9733TIP3    H129163   7.059   0.469   2.350
 9733TIP3    H229164   6.925   0.463   2.279
 9734TIP3   OH229165   6.224   2.444   3.365
 9734TIP3    H129166   6.298   2.383   3.375
 9734TIP3    H229167   6.196   2.462   3.454
 9735TIP3   OH229168   6.354   5.837   2.241
 9735TIP3    H129169   6.415   5.910   2.233
 9735TIP3    H229170   6.390   5.782   2.310
 9736TIP3   OH229171   5.067   3.315   4.260
 9736TIP3    H129172   5.082   3.222   4.281
 9736TIP3    H229173   5.103   3.362   4.335
 9737TIP3   OH229174   6.578   2.606   5.527
 9737TIP3    H129175   6.544   2.526   5.487
 9737TIP3    H229176   6.673   2.595   5.525
 9738TIP3   OH229177   2.029   5.707   0.826
 9738TIP3    H129178   2.079   5.692   0.906
 9738TIP3    H229179   2.050   5.797   0.801
 9739TIP3   OH229180   6.461   3.193   0.248
 9739TIP3    H129181   6.420   3.170   0.331
 9739TIP3    H229182   6.397   3.250   0.205
 9740TIP3   OH229183   5.718   5.258   4.983
 9740TIP3    H129184   5.781   5.330   4.982
 9740TIP3    H229185   5.763   5.186   4.938
 9741TIP3   OH229186   7.165   2.899   3.835
 9741TIP3    H129187   7.152   2.973   3.893
 9741TIP3    H229188   7.228   2.930   3.770
 9742TIP3   OH229189   1.509   2.465   3.816
 9742TIP3    H129190   1.520   2.554   3.851
 9742TIP3    H229191   1.592   2.445   3.774
 9743TIP3   OH229192   3.991   1.939   2.720
 9743TIP3    H129193   3.951   1.927   2.634
 9743TIP3    H229194   4.047   1.863   2.731
 9744TIP3   OH229195   4.601   0.822   2.185
 9744TIP3    H129196   4.626   0.850   2.097
 9744TIP3    H229197   4.519   0.774   2.172
 9745TIP3   OH229198   5.584   0.554   4.900
 9745TIP3    H129199   5.589   0.460   4.880
 9745TIP3    H229200   5.507   0.564   4.956
 9746TIP3   OH229201   6.305   4.551   2.303
 9746TIP3    H129202   6.355   4.596   2.370
 9746TIP3    H229203   6.371   4.513   2.245
 9747TIP3   OH229204   0.423   4.571   3.001
 9747TIP3    H129205   0.476   4.493   3.018
 9747TIP3    H229206   0.390   4.597   3.087
 9748TIP3   OH229207   1.453   2.683   0.461
 9748TIP3    H129208   1.546   2.673   0.445
 9748TIP3    H229209   1.445   2.763   0.513
 9749TIP3   OH229210   1.348   5.918   1.485
 9749TIP3    H129211   1.401   5.975   1.429
 9749TIP3    H229212   1.317   5.849   1.427
   7.20879   6.79651   5.88594   0.00000   0.00000  -2.40293   0.00000  -2.40293  -3.39825
