Title t= 18360.00000 step= 9180000
19927
    1ASP      N    1   2.079   0.441   2.786
    1ASP    HT1    2   2.101   0.342   2.763
    1ASP    HT2    3   1.977   0.455   2.768
    1ASP    HT3    4   2.098   0.445   2.889
    1ASP     CA    5   2.150   0.548   2.714
    1ASP     HA    6   2.251   0.537   2.751
    1ASP     CB    7   2.143   0.531   2.557
    1ASP    HB1    8   2.049   0.568   2.512
    1ASP    HB2    9   2.159   0.422   2.541
    1ASP     CG   10   2.264   0.593   2.483
    1ASP    OD1   11   2.345   0.662   2.546
    1ASP    OD2   12   2.275   0.552   2.366
    1ASP      C   13   2.116   0.687   2.772
    1ASP      O   14   2.075   0.703   2.888
    2ALA      N   15   2.131   0.788   2.685
    2ALA     HN   16   2.196   0.779   2.610
    2ALA     CA   17   2.067   0.915   2.702
    2ALA     HA   18   2.091   0.947   2.802
    2ALA     CB   19   2.117   1.011   2.596
    2ALA    HB1   20   2.091   0.991   2.490
    2ALA    HB2   21   2.226   1.033   2.602
    2ALA    HB3   22   2.075   1.114   2.606
    2ALA      C   23   1.913   0.914   2.699
    2ALA      O   24   1.852   0.825   2.643
    3ASP      N   25   1.839   1.013   2.765
    3ASP     HN   26   1.874   1.082   2.828
    3ASP     CA   27   1.696   1.035   2.751
    3ASP     HA   28   1.650   0.938   2.747
    3ASP     CB   29   1.651   1.126   2.872
    3ASP    HB1   30   1.555   1.177   2.849
    3ASP    HB2   31   1.740   1.185   2.903
    3ASP     CG   32   1.613   1.043   2.995
    3ASP    OD1   33   1.571   0.925   2.982
    3ASP    OD2   34   1.626   1.102   3.106
    3ASP      C   35   1.672   1.103   2.614
    3ASP      O   36   1.747   1.188   2.570
    4GLY      N   37   1.557   1.064   2.557
    4GLY     HN   38   1.515   0.983   2.597
    4GLY     CA   39   1.490   1.118   2.444
    4GLY    HA1   40   1.408   1.047   2.441
    4GLY    HA2   41   1.561   1.122   2.364
    4GLY      C   42   1.430   1.260   2.459
    4GLY      O   43   1.467   1.339   2.543
    5PRO      N   44   1.336   1.286   2.371
    5PRO     CD   45   1.311   1.206   2.250
    5PRO    HD1   46   1.243   1.123   2.277
    5PRO    HD2   47   1.408   1.169   2.209
    5PRO     CA   48   1.260   1.416   2.367
    5PRO     HA   49   1.331   1.495   2.350
    5PRO     CB   50   1.171   1.401   2.240
    5PRO    HB1   51   1.150   1.500   2.193
    5PRO    HB2   52   1.073   1.359   2.270
    5PRO     CG   53   1.244   1.305   2.152
    5PRO    HG1   54   1.178   1.259   2.075
    5PRO    HG2   55   1.327   1.347   2.092
    5PRO      C   56   1.173   1.432   2.496
    5PRO      O   57   1.122   1.340   2.557
    6GLY      N   58   1.151   1.561   2.539
    6GLY     HN   59   1.179   1.638   2.481
    6GLY     CA   60   1.062   1.599   2.656
    6GLY    HA1   61   1.100   1.687   2.705
    6GLY    HA2   62   1.067   1.506   2.711
    6GLY      C   63   0.917   1.624   2.627
    6GLY      O   64   0.874   1.633   2.512
    7ASP      N   65   0.834   1.633   2.731
    7ASP     HN   66   0.867   1.613   2.823
    7ASP     CA   67   0.697   1.681   2.725
    7ASP     HA   68   0.652   1.593   2.681
    7ASP     CB   69   0.640   1.725   2.866
    7ASP    HB1   70   0.533   1.752   2.858
    7ASP    HB2   71   0.701   1.807   2.909
    7ASP     CG   72   0.626   1.610   2.962
    7ASP    OD1   73   0.623   1.629   3.084
    7ASP    OD2   74   0.615   1.496   2.908
    7ASP      C   75   0.665   1.788   2.629
    7ASP      O   76   0.735   1.887   2.622
    8PRO      N   77   0.557   1.781   2.546
    8PRO     CD   78   0.498   1.654   2.512
    8PRO    HD1   79   0.448   1.610   2.601
    8PRO    HD2   80   0.569   1.581   2.467
    8PRO     CA   81   0.507   1.893   2.467
    8PRO     HA   82   0.572   1.881   2.382
    8PRO     CB   83   0.372   1.841   2.420
    8PRO    HB1   84   0.348   1.894   2.326
    8PRO    HB2   85   0.304   1.881   2.498
    8PRO     CG   86   0.393   1.691   2.409
    8PRO    HG1   87   0.302   1.628   2.414
    8PRO    HG2   88   0.426   1.663   2.307
    8PRO      C   89   0.502   2.034   2.523
    8PRO      O   90   0.461   2.045   2.636
    9ASP      N   91   0.527   2.136   2.446
    9ASP     HN   92   0.551   2.123   2.350
    9ASP     CA   93   0.525   2.274   2.494
    9ASP     HA   94   0.586   2.272   2.583
    9ASP     CB   95   0.584   2.374   2.399
    9ASP    HB1   96   0.581   2.473   2.450
    9ASP    HB2   97   0.524   2.377   2.305
    9ASP     CG   98   0.727   2.347   2.371
    9ASP    OD1   99   0.798   2.284   2.454
    9ASP    OD2  100   0.776   2.399   2.272
    9ASP      C  101   0.378   2.317   2.537
    9ASP      O  102   0.279   2.266   2.486
   10ALA      N  103   0.360   2.389   2.653
   10ALA     HN  104   0.440   2.415   2.706
   10ALA     CA  105   0.232   2.412   2.712
   10ALA     HA  106   0.172   2.323   2.723
   10ALA     CB  107   0.262   2.470   2.853
   10ALA    HB1  108   0.327   2.560   2.854
   10ALA    HB2  109   0.318   2.394   2.912
   10ALA    HB3  110   0.165   2.495   2.901
   10ALA      C  111   0.153   2.516   2.638
   10ALA      O  112   0.205   2.598   2.565
   11GLY      N  113   0.024   2.497   2.652
   11GLY     HN  114  -0.018   2.426   2.708
   11GLY     CA  115  -0.078   2.569   2.584
   11GLY    HA1  116  -0.035   2.649   2.526
   11GLY    HA2  117  -0.151   2.602   2.657
   11GLY      C  118  -0.144   2.480   2.485
   11GLY    OT1  119  -0.115   2.357   2.473
   11GLY    OT2  120  -0.231   2.533   2.409
   12SOD    SOD  121   4.840   2.964   4.289
   13SOD    SOD  122   2.798   5.235   0.011
   14SOD    SOD  123   0.657   0.318   2.971
   15SOD    SOD  124   6.155   1.460   1.343
   16SOD    SOD  125   1.721   2.532   3.190
   17SOD    SOD  126   2.743   2.869   2.989
   18SOD    SOD  127   1.681   3.197   0.905
   19SOD    SOD  128   6.060   0.233   4.998
   20SOD    SOD  129   0.535   3.824   1.962
   21SOD    SOD  130   4.454   4.960   3.409
   22SOD    SOD  131   0.647   2.023   1.421
   23SOD    SOD  132   2.331   5.313   1.188
   24SOD    SOD  133   2.761   0.441   1.867
   25SOD    SOD  134   0.200   0.772   1.617
   26SOD    SOD  135   2.328   4.709   1.811
   27SOD    SOD  136   0.277   3.805   2.860
   28SOD    SOD  137   2.979   0.031   3.836
   29SOD    SOD  138   0.158   2.989   0.411
   30SOD    SOD  139   0.967   2.533   3.496
   31SOD    SOD  140   3.497   4.014   0.320
   32SOD    SOD  141   5.107   0.761   0.089
   33SOD    SOD  142   5.430   1.049   4.630
   34CLA    CLA  143   1.713   2.821   3.615
   35CLA    CLA  144   0.630   1.309   1.956
   36CLA    CLA  145   0.189   4.506   2.080
   37CLA    CLA  146   2.504   2.640   3.542
   38CLA    CLA  147   3.845   2.102   4.849
   39CLA    CLA  148   3.209   5.845   1.055
   40CLA    CLA  149   1.711   1.193   4.839
   41CLA    CLA  150   1.962   2.334   1.120
   42CLA    CLA  151   0.230   3.157   1.019
   43CLA    CLA  152   5.203   4.469   2.267
   44CLA    CLA  153   4.534   1.925   0.094
   45CLA    CLA  154   5.766   3.145   3.505
   46CLA    CLA  155   5.222   0.317   0.297
   47CLA    CLA  156   5.957   1.085   1.474
   48CLA    CLA  157   3.504   0.756   4.762
   49CLA    CLA  158   0.742   2.547   1.872
   50CLA    CLA  159   5.155   0.592   3.850
   51CLA    CLA  160   0.115   2.671   0.771
   52TIP3   OH2  161   0.193   2.783   1.531
   52TIP3    H1  162   0.287   2.792   1.541
   52TIP3    H2  163   0.156   2.848   1.591
   53TIP3   OH2  164   5.278   1.354   5.144
   53TIP3    H1  165   5.229   1.286   5.191
   53TIP3    H2  166   5.346   1.306   5.096
   54TIP3   OH2  167   1.104   0.153   2.655
   54TIP3    H1  168   1.199   0.139   2.650
   54TIP3    H2  169   1.088   0.230   2.600
   55TIP3   OH2  170   3.369   2.468   1.475
   55TIP3    H1  171   3.406   2.472   1.387
   55TIP3    H2  172   3.373   2.376   1.499
   56TIP3   OH2  173   3.375   1.543   3.746
   56TIP3    H1  174   3.460   1.580   3.770
   56TIP3    H2  175   3.317   1.568   3.818
   57TIP3   OH2  176   4.299   3.729   1.641
   57TIP3    H1  177   4.301   3.720   1.736
   57TIP3    H2  178   4.382   3.691   1.611
   58TIP3   OH2  179   0.712   0.234   0.958
   58TIP3    H1  180   0.782   0.231   0.892
   58TIP3    H2  181   0.759   0.234   1.041
   59TIP3   OH2  182   2.835   2.293   0.876
   59TIP3    H1  183   2.845   2.379   0.835
   59TIP3    H2  184   2.877   2.302   0.962
   60TIP3   OH2  185   4.614   2.554   1.794
   60TIP3    H1  186   4.659   2.503   1.727
   60TIP3    H2  187   4.634   2.645   1.773
   61TIP3   OH2  188   5.475   3.091   4.107
   61TIP3    H1  189   5.429   3.075   4.024
   61TIP3    H2  190   5.564   3.114   4.080
   62TIP3   OH2  191   2.873   0.669   3.173
   62TIP3    H1  192   2.893   0.755   3.137
   62TIP3    H2  193   2.780   0.672   3.193
   63TIP3   OH2  194   3.003   4.666   2.680
   63TIP3    H1  195   2.923   4.680   2.731
   63TIP3    H2  196   3.058   4.741   2.699
   64TIP3   OH2  197   5.689   1.006   5.063
   64TIP3    H1  198   5.760   0.956   5.023
   64TIP3    H2  199   5.719   1.023   5.153
   65TIP3   OH2  200   5.903   2.253   1.701
   65TIP3    H1  201   5.986   2.292   1.728
   65TIP3    H2  202   5.837   2.302   1.750
   66TIP3   OH2  203   3.465   3.690   4.027
   66TIP3    H1  204   3.518   3.767   4.005
   66TIP3    H2  205   3.516   3.616   3.994
   67TIP3   OH2  206   1.311   0.559   0.308
   67TIP3    H1  207   1.376   0.492   0.329
   67TIP3    H2  208   1.319   0.571   0.213
   68TIP3   OH2  209   2.427   3.729   0.543
   68TIP3    H1  210   2.507   3.737   0.491
   68TIP3    H2  211   2.450   3.667   0.612
   69TIP3   OH2  212   3.261   2.496   1.743
   69TIP3    H1  213   3.273   2.494   1.648
   69TIP3    H2  214   3.238   2.406   1.766
   70TIP3   OH2  215   2.761   5.062   3.046
   70TIP3    H1  216   2.711   5.137   3.079
   70TIP3    H2  217   2.774   5.006   3.122
   71TIP3   OH2  218   1.049   5.962   2.616
   71TIP3    H1  219   1.081   5.923   2.698
   71TIP3    H2  220   1.027   5.887   2.561
   72TIP3   OH2  221   2.791   1.622   3.015
   72TIP3    H1  222   2.878   1.610   3.053
   72TIP3    H2  223   2.747   1.681   3.075
   73TIP3   OH2  224   4.247   1.803   3.349
   73TIP3    H1  225   4.325   1.748   3.338
   73TIP3    H2  226   4.263   1.879   3.294
   74TIP3   OH2  227   1.998   0.282   1.357
   74TIP3    H1  228   2.086   0.262   1.389
   74TIP3    H2  229   2.003   0.374   1.331
   75TIP3   OH2  230   6.099   0.846   0.238
   75TIP3    H1  231   6.019   0.803   0.210
   75TIP3    H2  232   6.118   0.909   0.168
   76TIP3   OH2  233   2.266   3.269   2.587
   76TIP3    H1  234   2.343   3.327   2.592
   76TIP3    H2  235   2.223   3.280   2.672
   77TIP3   OH2  236   2.718   3.447   3.328
   77TIP3    H1  237   2.693   3.378   3.390
   77TIP3    H2  238   2.802   3.479   3.360
   78TIP3   OH2  239   2.427   1.165   2.457
   78TIP3    H1  240   2.497   1.110   2.423
   78TIP3    H2  241   2.447   1.176   2.550
   79TIP3   OH2  242   5.742   3.101   4.020
   79TIP3    H1  243   5.759   3.030   4.082
   79TIP3    H2  244   5.805   3.086   3.949
   80TIP3   OH2  245   0.217   0.661   2.784
   80TIP3    H1  246   0.247   0.679   2.873
   80TIP3    H2  247   0.187   0.745   2.751
   81TIP3   OH2  248   3.583   4.701   3.137
   81TIP3    H1  249   3.530   4.767   3.093
   81TIP3    H2  250   3.555   4.618   3.100
   82TIP3   OH2  251   4.155   1.143   3.226
   82TIP3    H1  252   4.154   1.084   3.301
   82TIP3    H2  253   4.076   1.197   3.237
   83TIP3   OH2  254   4.573   5.323   3.063
   83TIP3    H1  255   4.537   5.235   3.076
   83TIP3    H2  256   4.510   5.365   3.004
   84TIP3   OH2  257   1.262   0.788   4.039
   84TIP3    H1  258   1.282   0.812   3.949
   84TIP3    H2  259   1.211   0.708   4.032
   85TIP3   OH2  260   0.578   0.444   1.401
   85TIP3    H1  261   0.529   0.369   1.434
   85TIP3    H2  262   0.618   0.483   1.479
   86TIP3   OH2  263   4.199   0.623   4.146
   86TIP3    H1  264   4.132   0.634   4.078
   86TIP3    H2  265   4.197   0.706   4.194
   87TIP3   OH2  266   4.877   4.107   2.298
   87TIP3    H1  267   4.963   4.127   2.261
   87TIP3    H2  268   4.823   4.183   2.275
   88TIP3   OH2  269   2.174   0.970   1.919
   88TIP3    H1  270   2.243   1.015   1.870
   88TIP3    H2  271   2.143   1.035   1.982
   89TIP3   OH2  272   3.072   4.027   2.113
   89TIP3    H1  273   2.986   3.985   2.102
   89TIP3    H2  274   3.053   4.121   2.112
   90TIP3   OH2  275   4.325   2.045   1.349
   90TIP3    H1  276   4.292   1.969   1.300
   90TIP3    H2  277   4.364   2.007   1.427
   91TIP3   OH2  278   1.528   4.466   2.659
   91TIP3    H1  279   1.472   4.484   2.735
   91TIP3    H2  280   1.572   4.549   2.640
   92TIP3   OH2  281   0.910   0.235   2.083
   92TIP3    H1  282   1.001   0.256   2.060
   92TIP3    H2  283   0.869   0.212   2.000
   93TIP3   OH2  284   1.306   5.709   3.964
   93TIP3    H1  285   1.294   5.650   4.038
   93TIP3    H2  286   1.228   5.695   3.909
   94TIP3   OH2  287   4.586   2.879   5.107
   94TIP3    H1  288   4.576   2.796   5.060
   94TIP3    H2  289   4.532   2.941   5.058
   95TIP3   OH2  290   5.510   2.441   4.320
   95TIP3    H1  291   5.459   2.393   4.255
   95TIP3    H2  292   5.582   2.383   4.343
   96TIP3   OH2  293   0.007   5.813   2.531
   96TIP3    H1  294   0.081   5.832   2.473
   96TIP3    H2  295   0.002   5.718   2.532
   97TIP3   OH2  296   4.660   0.249   4.037
   97TIP3    H1  297   4.741   0.227   4.083
   97TIP3    H2  298   4.685   0.319   3.977
   98TIP3   OH2  299   2.392   0.549   5.058
   98TIP3    H1  300   2.393   0.533   5.152
   98TIP3    H2  301   2.324   0.614   5.046
   99TIP3   OH2  302   5.822   1.492   0.488
   99TIP3    H1  303   5.787   1.509   0.400
   99TIP3    H2  304   5.806   1.398   0.502
  100TIP3   OH2  305   6.348   4.053   0.283
  100TIP3    H1  306   6.363   4.076   0.375
  100TIP3    H2  307   6.262   4.012   0.282
  101TIP3   OH2  308   5.768   5.771   1.482
  101TIP3    H1  309   5.857   5.785   1.515
  101TIP3    H2  310   5.773   5.791   1.389
  102TIP3   OH2  311   6.066   2.293   4.382
  102TIP3    H1  312   6.160   2.277   4.385
  102TIP3    H2  313   6.053   2.346   4.304
  103TIP3   OH2  314   5.223   5.596   2.118
  103TIP3    H1  315   5.245   5.611   2.210
  103TIP3    H2  316   5.238   5.502   2.105
  104TIP3   OH2  317   1.462   1.099   1.885
  104TIP3    H1  318   1.503   1.114   1.970
  104TIP3    H2  319   1.479   1.180   1.836
  105TIP3   OH2  320   6.201   5.116   2.507
  105TIP3    H1  321   6.246   5.178   2.564
  105TIP3    H2  322   6.272   5.060   2.473
  106TIP3   OH2  323   3.560   4.214   2.305
  106TIP3    H1  324   3.606   4.213   2.221
  106TIP3    H2  325   3.545   4.121   2.325
  107TIP3   OH2  326   5.150   0.032   3.731
  107TIP3    H1  327   5.058   0.007   3.728
  107TIP3    H2  328   5.153   0.119   3.691
  108TIP3   OH2  329   5.874   1.675   2.438
  108TIP3    H1  330   5.842   1.720   2.517
  108TIP3    H2  331   5.807   1.610   2.419
  109TIP3   OH2  332   2.605   1.197   1.720
  109TIP3    H1  333   2.668   1.267   1.737
  109TIP3    H2  334   2.637   1.156   1.639
  110TIP3   OH2  335   5.726   2.440   3.720
  110TIP3    H1  336   5.634   2.443   3.695
  110TIP3    H2  337   5.742   2.524   3.764
  111TIP3   OH2  338   0.589   4.304   1.459
  111TIP3    H1  339   0.546   4.384   1.429
  111TIP3    H2  340   0.552   4.235   1.404
  112TIP3   OH2  341   2.891   2.468   2.719
  112TIP3    H1  342   2.820   2.417   2.680
  112TIP3    H2  343   2.914   2.532   2.652
  113TIP3   OH2  344   3.886   3.365   1.192
  113TIP3    H1  345   3.796   3.399   1.189
  113TIP3    H2  346   3.894   3.325   1.278
  114TIP3   OH2  347   1.546   2.231   0.951
  114TIP3    H1  348   1.489   2.154   0.951
  114TIP3    H2  349   1.634   2.196   0.936
  115TIP3   OH2  350   0.593   3.540   3.020
  115TIP3    H1  351   0.533   3.587   3.078
  115TIP3    H2  352   0.679   3.580   3.036
  116TIP3   OH2  353   1.235   0.218   2.906
  116TIP3    H1  354   1.247   0.126   2.881
  116TIP3    H2  355   1.210   0.263   2.825
  117TIP3   OH2  356   3.839   2.326   1.663
  117TIP3    H1  357   3.784   2.251   1.683
  117TIP3    H2  358   3.926   2.302   1.696
  118TIP3   OH2  359   0.232   5.849   2.390
  118TIP3    H1  360   0.237   5.909   2.315
  118TIP3    H2  361   0.321   5.817   2.401
  119TIP3   OH2  362   5.248   0.988   3.626
  119TIP3    H1  363   5.236   0.894   3.616
  119TIP3    H2  364   5.341   0.998   3.647
  120TIP3   OH2  365   1.631   2.308   2.175
  120TIP3    H1  366   1.590   2.270   2.097
  120TIP3    H2  367   1.725   2.296   2.161
  121TIP3   OH2  368   0.628   2.584   0.137
  121TIP3    H1  369   0.695   2.604   0.203
  121TIP3    H2  370   0.581   2.666   0.124
  122TIP3   OH2  371   2.824   4.588   1.070
  122TIP3    H1  372   2.811   4.661   1.129
  122TIP3    H2  373   2.737   4.572   1.032
  123TIP3   OH2  374   4.426   1.280   3.713
  123TIP3    H1  375   4.416   1.185   3.726
  123TIP3    H2  376   4.346   1.307   3.668
  124TIP3   OH2  377   0.422   0.397   4.202
  124TIP3    H1  378   0.410   0.482   4.245
  124TIP3    H2  379   0.509   0.369   4.228
  125TIP3   OH2  380   5.049   3.298   3.528
  125TIP3    H1  381   5.101   3.217   3.528
  125TIP3    H2  382   5.008   3.300   3.442
  126TIP3   OH2  383   3.202   3.973   3.860
  126TIP3    H1  384   3.145   3.899   3.841
  126TIP3    H2  385   3.166   4.011   3.940
  127TIP3   OH2  386   4.683   0.647   2.032
  127TIP3    H1  387   4.592   0.640   2.002
  127TIP3    H2  388   4.681   0.617   2.122
  128TIP3   OH2  389   0.143   0.918   1.440
  128TIP3    H1  390   0.048   0.910   1.435
  128TIP3    H2  391   0.159   1.012   1.435
  129TIP3   OH2  392   2.496   0.700   0.217
  129TIP3    H1  393   2.425   0.701   0.281
  129TIP3    H2  394   2.575   0.690   0.269
  130TIP3   OH2  395   2.937   3.927   1.504
  130TIP3    H1  396   2.972   3.888   1.585
  130TIP3    H2  397   2.904   3.852   1.455
  131TIP3   OH2  398   2.725   5.422   3.900
  131TIP3    H1  399   2.791   5.480   3.861
  131TIP3    H2  400   2.701   5.363   3.829
  132TIP3   OH2  401   6.315   3.583   0.483
  132TIP3    H1  402   6.362   3.587   0.400
  132TIP3    H2  403   6.301   3.489   0.498
  133TIP3   OH2  404   0.772   1.429   4.833
  133TIP3    H1  405   0.819   1.372   4.773
  133TIP3    H2  406   0.805   1.405   4.920
  134TIP3   OH2  407   2.472   2.174   4.316
  134TIP3    H1  408   2.485   2.104   4.381
  134TIP3    H2  409   2.426   2.243   4.364
  135TIP3   OH2  410   4.986   5.457   3.270
  135TIP3    H1  411   4.921   5.469   3.201
  135TIP3    H2  412   5.016   5.367   3.258
  136TIP3   OH2  413   6.184   4.935   1.686
  136TIP3    H1  414   6.176   5.027   1.658
  136TIP3    H2  415   6.273   4.929   1.721
  137TIP3   OH2  416   0.204   4.844   4.989
  137TIP3    H1  417   0.233   4.849   5.080
  137TIP3    H2  418   0.108   4.840   4.995
  138TIP3   OH2  419   0.572   3.816   4.197
  138TIP3    H1  420   0.656   3.786   4.231
  138TIP3    H2  421   0.560   3.767   4.116
  139TIP3   OH2  422   1.738   1.503   1.202
  139TIP3    H1  423   1.642   1.499   1.206
  139TIP3    H2  424   1.756   1.587   1.159
  140TIP3   OH2  425   1.352   1.340   2.960
  140TIP3    H1  426   1.265   1.375   2.978
  140TIP3    H2  427   1.398   1.349   3.043
  141TIP3   OH2  428   0.813   4.154   0.027
  141TIP3    H1  429   0.844   4.159   0.118
  141TIP3    H2  430   0.824   4.062   0.004
  142TIP3   OH2  431   1.919   0.905   4.530
  142TIP3    H1  432   1.847   0.901   4.593
  142TIP3    H2  433   1.992   0.862   4.575
  143TIP3   OH2  434   0.021   5.719   2.995
  143TIP3    H1  435   0.055   5.727   3.084
  143TIP3    H2  436   0.078   5.655   2.953
  144TIP3   OH2  437   0.138   4.762   1.611
  144TIP3    H1  438   0.156   4.730   1.699
  144TIP3    H2  439   0.107   4.852   1.624
  145TIP3   OH2  440   5.148   0.307   2.749
  145TIP3    H1  441   5.112   0.332   2.834
  145TIP3    H2  442   5.220   0.249   2.769
  146TIP3   OH2  443   2.386   1.358   5.097
  146TIP3    H1  444   2.393   1.291   5.166
  146TIP3    H2  445   2.292   1.373   5.088
  147TIP3   OH2  446   1.772   1.061   1.095
  147TIP3    H1  447   1.689   1.082   1.138
  147TIP3    H2  448   1.798   0.977   1.134
  148TIP3   OH2  449   0.688   5.780   2.807
  148TIP3    H1  450   0.682   5.875   2.794
  148TIP3    H2  451   0.778   5.767   2.837
  149TIP3   OH2  452   1.550   1.833   2.911
  149TIP3    H1  453   1.560   1.855   2.818
  149TIP3    H2  454   1.626   1.777   2.930
  150TIP3   OH2  455   3.778   1.748   0.251
  150TIP3    H1  456   3.743   1.663   0.225
  150TIP3    H2  457   3.871   1.731   0.268
  151TIP3   OH2  458   4.755   1.347   4.002
  151TIP3    H1  459   4.776   1.261   4.038
  151TIP3    H2  460   4.837   1.396   4.006
  152TIP3   OH2  461   1.060   1.052   3.255
  152TIP3    H1  462   1.155   1.058   3.262
  152TIP3    H2  463   1.029   1.067   3.345
  153TIP3   OH2  464   1.858   5.393   4.939
  153TIP3    H1  465   1.924   5.332   4.904
  153TIP3    H2  466   1.879   5.477   4.898
  154TIP3   OH2  467   5.750   4.011   4.157
  154TIP3    H1  468   5.745   3.921   4.127
  154TIP3    H2  469   5.833   4.043   4.120
  155TIP3   OH2  470   3.843   4.210   0.563
  155TIP3    H1  471   3.908   4.271   0.529
  155TIP3    H2  472   3.780   4.265   0.609
  156TIP3   OH2  473   4.249   5.297   3.706
  156TIP3    H1  474   4.179   5.251   3.752
  156TIP3    H2  475   4.312   5.321   3.774
  157TIP3   OH2  476   1.350   3.374   3.644
  157TIP3    H1  477   1.351   3.326   3.561
  157TIP3    H2  478   1.350   3.306   3.711
  158TIP3   OH2  479   4.827   4.540   4.132
  158TIP3    H1  480   4.818   4.572   4.222
  158TIP3    H2  481   4.819   4.618   4.077
  159TIP3   OH2  482   6.201   1.312   1.522
  159TIP3    H1  483   6.179   1.224   1.554
  159TIP3    H2  484   6.275   1.339   1.576
  160TIP3   OH2  485   1.578   1.204   0.875
  160TIP3    H1  486   1.664   1.231   0.908
  160TIP3    H2  487   1.592   1.190   0.781
  161TIP3   OH2  488   5.437   3.359   4.629
  161TIP3    H1  489   5.522   3.400   4.613
  161TIP3    H2  490   5.375   3.412   4.578
  162TIP3   OH2  491   6.014   0.651   3.275
  162TIP3    H1  492   6.006   0.693   3.361
  162TIP3    H2  493   5.983   0.561   3.290
  163TIP3   OH2  494   2.553   1.147   4.953
  163TIP3    H1  495   2.612   1.212   4.914
  163TIP3    H2  496   2.468   1.190   4.955
  164TIP3   OH2  497   0.109   0.023   4.350
  164TIP3    H1  498   0.025   0.004   4.391
  164TIP3    H2  499   0.146   0.094   4.402
  165TIP3   OH2  500   1.721   2.345   4.343
  165TIP3    H1  501   1.796   2.288   4.362
  165TIP3    H2  502   1.749   2.399   4.270
  166TIP3   OH2  503   3.639   0.181   4.030
  166TIP3    H1  504   3.638   0.232   4.111
  166TIP3    H2  505   3.555   0.135   4.029
  167TIP3   OH2  506   0.371   3.079   2.656
  167TIP3    H1  507   0.332   3.156   2.698
  167TIP3    H2  508   0.341   3.083   2.565
  168TIP3   OH2  509   2.814   4.501   0.686
  168TIP3    H1  510   2.779   4.569   0.743
  168TIP3    H2  511   2.829   4.426   0.744
  169TIP3   OH2  512   1.689   5.927   2.084
  169TIP3    H1  513   1.771   5.910   2.039
  169TIP3    H2  514   1.705   5.901   2.175
  170TIP3   OH2  515   0.713   0.341   3.643
  170TIP3    H1  516   0.722   0.430   3.678
  170TIP3    H2  517   0.794   0.297   3.668
  171TIP3   OH2  518   4.514   2.316   3.197
  171TIP3    H1  519   4.568   2.395   3.193
  171TIP3    H2  520   4.487   2.310   3.289
  172TIP3   OH2  521   5.448   4.238   0.077
  172TIP3    H1  522   5.522   4.250   0.137
  172TIP3    H2  523   5.383   4.191   0.129
  173TIP3   OH2  524   3.254   2.155   0.785
  173TIP3    H1  525   3.246   2.077   0.840
  173TIP3    H2  526   3.175   2.153   0.730
  174TIP3   OH2  527   2.902   3.328   4.135
  174TIP3    H1  528   2.845   3.250   4.138
  174TIP3    H2  529   2.869   3.384   4.205
  175TIP3   OH2  530   5.303   5.668   1.639
  175TIP3    H1  531   5.284   5.690   1.548
  175TIP3    H2  532   5.267   5.580   1.650
  176TIP3   OH2  533   0.225   4.432   2.689
  176TIP3    H1  534   0.169   4.454   2.764
  176TIP3    H2  535   0.192   4.488   2.618
  177TIP3   OH2  536   0.047   3.434   2.707
  177TIP3    H1  537   0.055   3.373   2.633
  177TIP3    H2  538  -0.045   3.462   2.704
  178TIP3   OH2  539   2.149   5.359   2.254
  178TIP3    H1  540   2.216   5.318   2.309
  178TIP3    H2  541   2.100   5.285   2.218
  179TIP3   OH2  542   3.943   2.622   0.976
  179TIP3    H1  543   3.871   2.681   0.954
  179TIP3    H2  544   3.996   2.672   1.039
  180TIP3   OH2  545   5.027   3.790   3.447
  180TIP3    H1  546   5.046   3.808   3.539
  180TIP3    H2  547   5.102   3.825   3.399
  181TIP3   OH2  548   5.608   4.927   1.198
  181TIP3    H1  549   5.690   4.927   1.149
  181TIP3    H2  550   5.555   4.859   1.156
  182TIP3   OH2  551   4.458   2.482   0.824
  182TIP3    H1  552   4.487   2.567   0.858
  182TIP3    H2  553   4.462   2.493   0.729
  183TIP3   OH2  554   0.366   1.237   4.179
  183TIP3    H1  555   0.399   1.235   4.089
  183TIP3    H2  556   0.272   1.217   4.171
  184TIP3   OH2  557   4.728   5.872   1.965
  184TIP3    H1  558   4.654   5.813   1.950
  184TIP3    H2  559   4.798   5.815   1.995
  185TIP3   OH2  560   3.574   5.681   0.862
  185TIP3    H1  561   3.630   5.707   0.789
  185TIP3    H2  562   3.487   5.669   0.823
  186TIP3   OH2  563   4.550   3.673   1.301
  186TIP3    H1  564   4.530   3.660   1.394
  186TIP3    H2  565   4.634   3.719   1.301
  187TIP3   OH2  566   4.810   3.961   0.511
  187TIP3    H1  567   4.874   3.982   0.579
  187TIP3    H2  568   4.828   4.024   0.441
  188TIP3   OH2  569   4.700   5.819   1.503
  188TIP3    H1  570   4.730   5.859   1.422
  188TIP3    H2  571   4.781   5.793   1.548
  189TIP3   OH2  572   1.972   5.127   1.678
  189TIP3    H1  573   1.923   5.045   1.669
  189TIP3    H2  574   2.013   5.122   1.764
  190TIP3   OH2  575   0.566   1.115   3.302
  190TIP3    H1  576   0.490   1.125   3.243
  190TIP3    H2  577   0.642   1.121   3.244
  191TIP3   OH2  578   5.830   0.286   4.941
  191TIP3    H1  579   5.745   0.315   4.973
  191TIP3    H2  580   5.840   0.329   4.856
  192TIP3   OH2  581   5.647   5.470   2.847
  192TIP3    H1  582   5.664   5.418   2.769
  192TIP3    H2  583   5.651   5.561   2.816
  193TIP3   OH2  584   6.014   2.604   3.133
  193TIP3    H1  585   5.962   2.525   3.117
  193TIP3    H2  586   5.949   2.674   3.139
  194TIP3   OH2  587   4.719   5.673   2.987
  194TIP3    H1  588   4.791   5.675   2.924
  194TIP3    H2  589   4.736   5.596   3.041
  195TIP3   OH2  590   5.000   0.215   0.479
  195TIP3    H1  591   4.949   0.135   0.470
  195TIP3    H2  592   5.069   0.208   0.413
  196TIP3   OH2  593   4.921   0.407   1.392
  196TIP3    H1  594   4.836   0.365   1.382
  196TIP3    H2  595   4.976   0.341   1.435
  197TIP3   OH2  596   3.097   1.199   1.612
  197TIP3    H1  597   3.032   1.158   1.556
  197TIP3    H2  598   3.047   1.265   1.662
  198TIP3   OH2  599   3.277   5.607   0.834
  198TIP3    H1  600   3.208   5.541   0.838
  198TIP3    H2  601   3.236   5.687   0.869
  199TIP3   OH2  602   3.102   4.889   4.759
  199TIP3    H1  603   3.041   4.943   4.709
  199TIP3    H2  604   3.046   4.833   4.814
  200TIP3   OH2  605   3.616   5.699   4.476
  200TIP3    H1  606   3.647   5.609   4.489
  200TIP3    H2  607   3.595   5.705   4.383
  201TIP3   OH2  608   1.532   3.310   2.392
  201TIP3    H1  609   1.563   3.223   2.415
  201TIP3    H2  610   1.540   3.361   2.472
  202TIP3   OH2  611   5.300   2.766   1.891
  202TIP3    H1  612   5.278   2.860   1.893
  202TIP3    H2  613   5.331   2.747   1.980
  203TIP3   OH2  614   4.711   5.494   0.336
  203TIP3    H1  615   4.675   5.407   0.350
  203TIP3    H2  616   4.659   5.551   0.392
  204TIP3   OH2  617   5.758   5.803   0.163
  204TIP3    H1  618   5.729   5.736   0.225
  204TIP3    H2  619   5.834   5.765   0.120
  205TIP3   OH2  620   4.836   1.311   2.817
  205TIP3    H1  621   4.803   1.400   2.810
  205TIP3    H2  622   4.917   1.311   2.766
  206TIP3   OH2  623   3.165   3.227   1.019
  206TIP3    H1  624   3.217   3.173   0.959
  206TIP3    H2  625   3.217   3.229   1.100
  207TIP3   OH2  626   6.242   5.626   5.175
  207TIP3    H1  627   6.327   5.660   5.204
  207TIP3    H2  628   6.240   5.645   5.081
  208TIP3   OH2  629   3.036   4.941   5.082
  208TIP3    H1  630   3.016   4.985   5.164
  208TIP3    H2  631   2.968   4.874   5.073
  209TIP3   OH2  632   3.439   5.515   2.546
  209TIP3    H1  633   3.378   5.547   2.613
  209TIP3    H2  634   3.455   5.424   2.570
  210TIP3   OH2  635   2.134   0.335   4.856
  210TIP3    H1  636   2.087   0.259   4.892
  210TIP3    H2  637   2.221   0.302   4.834
  211TIP3   OH2  638   2.092   0.415   4.064
  211TIP3    H1  639   2.016   0.435   4.120
  211TIP3    H2  640   2.054   0.392   3.980
  212TIP3   OH2  641   4.601   3.778   4.533
  212TIP3    H1  642   4.542   3.711   4.568
  212TIP3    H2  643   4.621   3.834   4.607
  213TIP3   OH2  644   6.049   4.007   2.092
  213TIP3    H1  645   6.139   4.035   2.075
  213TIP3    H2  646   6.057   3.933   2.152
  214TIP3   OH2  647   1.430   2.620   3.476
  214TIP3    H1  648   1.423   2.654   3.565
  214TIP3    H2  649   1.520   2.639   3.450
  215TIP3   OH2  650   2.538   1.886   0.671
  215TIP3    H1  651   2.507   1.875   0.761
  215TIP3    H2  652   2.491   1.820   0.621
  216TIP3   OH2  653   4.869   0.029   3.731
  216TIP3    H1  654   4.815  -0.049   3.739
  216TIP3    H2  655   4.842   0.069   3.648
  217TIP3   OH2  656   6.258   5.116   3.351
  217TIP3    H1  657   6.287   5.052   3.286
  217TIP3    H2  658   6.224   5.063   3.424
  218TIP3   OH2  659   3.591   2.159   4.149
  218TIP3    H1  660   3.656   2.112   4.098
  218TIP3    H2  661   3.529   2.193   4.085
  219TIP3   OH2  662   0.336   1.988   4.412
  219TIP3    H1  663   0.328   1.893   4.423
  219TIP3    H2  664   0.262   2.024   4.461
  220TIP3   OH2  665   3.942   5.689   3.655
  220TIP3    H1  666   3.909   5.701   3.566
  220TIP3    H2  667   3.905   5.762   3.704
  221TIP3   OH2  668   3.895   2.370   0.556
  221TIP3    H1  669   3.956   2.371   0.630
  221TIP3    H2  670   3.817   2.414   0.589
  222TIP3   OH2  671   0.978   5.812   3.698
  222TIP3    H1  672   1.051   5.863   3.664
  222TIP3    H2  673   1.012   5.723   3.707
  223TIP3   OH2  674   2.991   4.791   1.277
  223TIP3    H1  675   2.955   4.880   1.281
  223TIP3    H2  676   3.053   4.793   1.205
  224TIP3   OH2  677   4.427   0.779   2.580
  224TIP3    H1  678   4.510   0.789   2.627
  224TIP3    H2  679   4.374   0.853   2.608
  225TIP3   OH2  680   5.596   3.616   4.550
  225TIP3    H1  681   5.666   3.607   4.485
  225TIP3    H2  682   5.516   3.596   4.501
  226TIP3   OH2  683   2.476   4.201   1.121
  226TIP3    H1  684   2.416   4.148   1.069
  226TIP3    H2  685   2.469   4.164   1.209
  227TIP3   OH2  686   1.727   0.495   0.860
  227TIP3    H1  687   1.752   0.444   0.783
  227TIP3    H2  688   1.776   0.578   0.851
  228TIP3   OH2  689   2.114   5.765   4.999
  228TIP3    H1  690   2.204   5.736   4.983
  228TIP3    H2  691   2.062   5.715   4.935
  229TIP3   OH2  692   0.909   2.237   1.110
  229TIP3    H1  693   0.994   2.238   1.153
  229TIP3    H2  694   0.887   2.329   1.096
  230TIP3   OH2  695   1.177   5.295   2.818
  230TIP3    H1  696   1.230   5.257   2.748
  230TIP3    H2  697   1.239   5.347   2.869
  231TIP3   OH2  698   4.451   2.678   3.219
  231TIP3    H1  699   4.539   2.652   3.195
  231TIP3    H2  700   4.418   2.727   3.144
  232TIP3   OH2  701   1.020   4.691   3.757
  232TIP3    H1  702   0.977   4.619   3.804
  232TIP3    H2  703   1.057   4.746   3.825
  233TIP3   OH2  704   3.770   4.448   4.986
  233TIP3    H1  705   3.828   4.383   4.947
  233TIP3    H2  706   3.732   4.403   5.062
  234TIP3   OH2  707   5.746   4.097   0.842
  234TIP3    H1  708   5.816   4.122   0.903
  234TIP3    H2  709   5.676   4.065   0.898
  235TIP3   OH2  710   3.311   3.311   0.313
  235TIP3    H1  711   3.241   3.367   0.281
  235TIP3    H2  712   3.330   3.344   0.401
  236TIP3   OH2  713   0.531   5.302   3.726
  236TIP3    H1  714   0.449   5.274   3.684
  236TIP3    H2  715   0.521   5.397   3.737
  237TIP3   OH2  716   2.353   3.281   3.192
  237TIP3    H1  717   2.364   3.272   3.097
  237TIP3    H2  718   2.432   3.326   3.222
  238TIP3   OH2  719   2.550   2.485   2.771
  238TIP3    H1  720   2.581   2.414   2.827
  238TIP3    H2  721   2.530   2.443   2.687
  239TIP3   OH2  722   2.087   0.476   3.293
  239TIP3    H1  723   2.141   0.536   3.345
  239TIP3    H2  724   2.079   0.397   3.347
  240TIP3   OH2  725   3.019   3.760   3.879
  240TIP3    H1  726   2.935   3.798   3.905
  240TIP3    H2  727   3.057   3.727   3.960
  241TIP3   OH2  728   5.871   4.882   0.415
  241TIP3    H1  729   5.952   4.895   0.365
  241TIP3    H2  730   5.863   4.961   0.468
  242TIP3   OH2  731   3.847   2.638   0.063
  242TIP3    H1  732   3.860   2.655   0.156
  242TIP3    H2  733   3.928   2.666   0.021
  243TIP3   OH2  734   5.382   4.898   4.547
  243TIP3    H1  735   5.301   4.931   4.507
  243TIP3    H2  736   5.448   4.910   4.479
  244TIP3   OH2  737   2.666   4.968   4.917
  244TIP3    H1  738   2.713   4.973   5.000
  244TIP3    H2  739   2.588   4.916   4.937
  245TIP3   OH2  740   3.587   1.188   3.199
  245TIP3    H1  741   3.561   1.136   3.124
  245TIP3    H2  742   3.567   1.278   3.175
  246TIP3   OH2  743   2.668   1.991   3.047
  246TIP3    H1  744   2.580   1.995   3.085
  246TIP3    H2  745   2.727   1.991   3.122
  247TIP3   OH2  746   5.766   2.616   1.835
  247TIP3    H1  747   5.689   2.564   1.855
  247TIP3    H2  748   5.807   2.632   1.920
  248TIP3   OH2  749   6.258   3.325   0.526
  248TIP3    H1  750   6.252   3.259   0.595
  248TIP3    H2  751   6.209   3.287   0.453
  249TIP3   OH2  752   0.756   1.022   0.396
  249TIP3    H1  753   0.668   1.056   0.378
  249TIP3    H2  754   0.814   1.074   0.341
  250TIP3   OH2  755   3.672   2.561   1.660
  250TIP3    H1  756   3.693   2.582   1.569
  250TIP3    H2  757   3.717   2.479   1.678
  251TIP3   OH2  758   0.716   3.234   3.667
  251TIP3    H1  759   0.710   3.260   3.575
  251TIP3    H2  760   0.749   3.144   3.665
  252TIP3   OH2  761   0.267   5.981   2.640
  252TIP3    H1  762   0.241   5.925   2.567
  252TIP3    H2  763   0.361   5.969   2.647
  253TIP3   OH2  764   0.467   0.369   3.308
  253TIP3    H1  765   0.436   0.284   3.341
  253TIP3    H2  766   0.555   0.351   3.276
  254TIP3   OH2  767   0.645   4.015   3.974
  254TIP3    H1  768   0.720   4.016   3.914
  254TIP3    H2  769   0.674   4.066   4.049
  255TIP3   OH2  770   1.098   1.469   3.894
  255TIP3    H1  771   1.118   1.556   3.928
  255TIP3    H2  772   1.182   1.434   3.866
  256TIP3   OH2  773   3.450   5.355   4.185
  256TIP3    H1  774   3.397   5.299   4.128
  256TIP3    H2  775   3.538   5.316   4.181
  257TIP3   OH2  776   1.774   0.469   1.175
  257TIP3    H1  777   1.720   0.499   1.249
  257TIP3    H2  778   1.711   0.450   1.106
  258TIP3   OH2  779   4.123   2.184   2.788
  258TIP3    H1  780   4.197   2.228   2.830
  258TIP3    H2  781   4.060   2.254   2.773
  259TIP3   OH2  782   0.789   3.627   5.111
  259TIP3    H1  783   0.744   3.658   5.032
  259TIP3    H2  784   0.728   3.565   5.151
  260TIP3   OH2  785   3.270   4.983   1.863
  260TIP3    H1  786   3.363   4.965   1.857
  260TIP3    H2  787   3.227   4.901   1.841
  261TIP3   OH2  788   3.586   0.001   3.544
  261TIP3    H1  789   3.611   0.090   3.518
  261TIP3    H2  790   3.663  -0.032   3.590
  262TIP3   OH2  791   4.528   3.464   2.637
  262TIP3    H1  792   4.539   3.470   2.542
  262TIP3    H2  793   4.461   3.396   2.649
  263TIP3   OH2  794   3.307   0.131   3.026
  263TIP3    H1  795   3.316   0.123   2.931
  263TIP3    H2  796   3.275   0.045   3.054
  264TIP3   OH2  797   1.770   5.760   4.143
  264TIP3    H1  798   1.735   5.809   4.217
  264TIP3    H2  799   1.754   5.668   4.166
  265TIP3   OH2  800   1.122   3.122   3.293
  265TIP3    H1  801   1.184   3.050   3.305
  265TIP3    H2  802   1.164   3.179   3.228
  266TIP3   OH2  803   2.118   1.126   0.497
  266TIP3    H1  804   2.025   1.108   0.482
  266TIP3    H2  805   2.125   1.221   0.491
  267TIP3   OH2  806   1.898   3.683   4.565
  267TIP3    H1  807   1.966   3.688   4.497
  267TIP3    H2  808   1.820   3.652   4.519
  268TIP3   OH2  809   0.121   3.503   0.252
  268TIP3    H1  810   0.172   3.530   0.176
  268TIP3    H2  811   0.037   3.475   0.217
  269TIP3   OH2  812   2.379   2.876   4.568
  269TIP3    H1  813   2.407   2.794   4.526
  269TIP3    H2  814   2.422   2.875   4.653
  270TIP3   OH2  815   3.596   0.106   0.812
  270TIP3    H1  816   3.691   0.112   0.808
  270TIP3    H2  817   3.565   0.189   0.776
  271TIP3   OH2  818   1.759   5.092   2.185
  271TIP3    H1  819   1.747   5.000   2.208
  271TIP3    H2  820   1.720   5.100   2.098
  272TIP3   OH2  821   2.081   3.616   4.761
  272TIP3    H1  822   2.007   3.626   4.702
  272TIP3    H2  823   2.118   3.704   4.767
  273TIP3   OH2  824   0.552   1.035   2.535
  273TIP3    H1  825   0.634   1.052   2.489
  273TIP3    H2  826   0.531   1.117   2.579
  274TIP3   OH2  827   4.754   1.185   3.086
  274TIP3    H1  828   4.789   1.237   3.014
  274TIP3    H2  829   4.819   1.195   3.156
  275TIP3   OH2  830   4.071   3.703   4.045
  275TIP3    H1  831   4.032   3.643   3.981
  275TIP3    H2  832   4.151   3.660   4.074
  276TIP3   OH2  833   1.832   0.148   3.226
  276TIP3    H1  834   1.788   0.110   3.302
  276TIP3    H2  835   1.847   0.074   3.167
  277TIP3   OH2  836   2.976   3.271   3.338
  277TIP3    H1  837   2.946   3.310   3.420
  277TIP3    H2  838   2.978   3.177   3.356
  278TIP3   OH2  839   1.193   1.909   2.805
  278TIP3    H1  840   1.226   1.925   2.716
  278TIP3    H2  841   1.099   1.924   2.799
  279TIP3   OH2  842   2.482   2.878   4.887
  279TIP3    H1  843   2.479   2.956   4.943
  279TIP3    H2  844   2.437   2.810   4.937
  280TIP3   OH2  845   2.197   2.284   2.616
  280TIP3    H1  846   2.278   2.246   2.648
  280TIP3    H2  847   2.128   2.240   2.666
  281TIP3   OH2  848   5.985   2.757   2.816
  281TIP3    H1  849   5.978   2.834   2.759
  281TIP3    H2  850   6.079   2.748   2.832
  282TIP3   OH2  851   3.394   5.714   0.173
  282TIP3    H1  852   3.326   5.781   0.181
  282TIP3    H2  853   3.421   5.718   0.081
  283TIP3   OH2  854   5.980   4.962   3.868
  283TIP3    H1  855   6.073   4.953   3.892
  283TIP3    H2  856   5.961   5.055   3.880
  284TIP3   OH2  857   4.436   3.177   0.067
  284TIP3    H1  858   4.374   3.244   0.039
  284TIP3    H2  859   4.513   3.192   0.014
  285TIP3   OH2  860   4.102   4.936   2.568
  285TIP3    H1  861   4.059   5.008   2.522
  285TIP3    H2  862   4.029   4.885   2.605
  286TIP3   OH2  863   0.355   5.147   2.775
  286TIP3    H1  864   0.359   5.243   2.768
  286TIP3    H2  865   0.442   5.118   2.748
  287TIP3   OH2  866   5.818   4.316   3.167
  287TIP3    H1  867   5.769   4.371   3.107
  287TIP3    H2  868   5.794   4.347   3.254
  288TIP3   OH2  869   3.311   0.135   4.794
  288TIP3    H1  870   3.401   0.111   4.773
  288TIP3    H2  871   3.307   0.229   4.779
  289TIP3   OH2  872   2.250   1.366   3.909
  289TIP3    H1  873   2.323   1.342   3.851
  289TIP3    H2  874   2.258   1.462   3.917
  290TIP3   OH2  875   5.292   0.836   2.340
  290TIP3    H1  876   5.360   0.814   2.403
  290TIP3    H2  877   5.306   0.776   2.267
  291TIP3   OH2  878   0.304   5.451   1.716
  291TIP3    H1  879   0.328   5.469   1.626
  291TIP3    H2  880   0.250   5.526   1.742
  292TIP3   OH2  881   3.231   2.574   2.828
  292TIP3    H1  882   3.163   2.590   2.894
  292TIP3    H2  883   3.229   2.479   2.815
  293TIP3   OH2  884   0.594   1.066   5.098
  293TIP3    H1  885   0.509   1.051   5.056
  293TIP3    H2  886   0.592   1.158   5.124
  294TIP3   OH2  887   5.368   1.737   1.239
  294TIP3    H1  888   5.295   1.707   1.185
  294TIP3    H2  889   5.345   1.708   1.328
  295TIP3   OH2  890   5.087   2.322   2.393
  295TIP3    H1  891   5.175   2.304   2.362
  295TIP3    H2  892   5.080   2.417   2.393
  296TIP3   OH2  893   5.371   0.725   0.500
  296TIP3    H1  894   5.300   0.785   0.480
  296TIP3    H2  895   5.449   0.765   0.461
  297TIP3   OH2  896   4.393   2.377   1.153
  297TIP3    H1  897   4.480   2.352   1.186
  297TIP3    H2  898   4.389   2.338   1.066
  298TIP3   OH2  899   4.593   4.826   5.034
  298TIP3    H1  900   4.562   4.866   4.952
  298TIP3    H2  901   4.592   4.732   5.016
  299TIP3   OH2  902   5.631   5.222   4.157
  299TIP3    H1  903   5.605   5.130   4.159
  299TIP3    H2  904   5.721   5.220   4.125
  300TIP3   OH2  905   6.325   2.238   4.409
  300TIP3    H1  906   6.381   2.269   4.337
  300TIP3    H2  907   6.344   2.144   4.415
  301TIP3   OH2  908   2.163   0.908   1.436
  301TIP3    H1  909   2.224   0.959   1.489
  301TIP3    H2  910   2.205   0.905   1.349
  302TIP3   OH2  911   0.094   2.203   1.509
  302TIP3    H1  912   0.156   2.271   1.482
  302TIP3    H2  913   0.147   2.124   1.518
  303TIP3   OH2  914   3.724   5.000   3.045
  303TIP3    H1  915   3.629   4.998   3.037
  303TIP3    H2  916   3.747   4.911   3.072
  304TIP3   OH2  917   1.988   2.078   4.694
  304TIP3    H1  918   2.051   2.121   4.753
  304TIP3    H2  919   1.919   2.047   4.753
  305TIP3   OH2  920   0.232   1.852   3.710
  305TIP3    H1  921   0.165   1.900   3.661
  305TIP3    H2  922   0.185   1.777   3.747
  306TIP3   OH2  923   2.504   0.647   2.791
  306TIP3    H1  924   2.538   0.557   2.799
  306TIP3    H2  925   2.473   0.652   2.701
  307TIP3   OH2  926   2.088   2.862   1.229
  307TIP3    H1  927   2.170   2.832   1.269
  307TIP3    H2  928   2.028   2.789   1.238
  308TIP3   OH2  929   3.329   4.421   2.042
  308TIP3    H1  930   3.386   4.346   2.025
  308TIP3    H2  931   3.262   4.417   1.974
  309TIP3   OH2  932   4.771   2.834   0.034
  309TIP3    H1  933   4.730   2.895   0.096
  309TIP3    H2  934   4.799   2.890  -0.039
  310TIP3   OH2  935   0.758   4.465   1.729
  310TIP3    H1  936   0.845   4.444   1.695
  310TIP3    H2  937   0.708   4.384   1.718
  311TIP3   OH2  938   1.660   2.629   4.438
  311TIP3    H1  939   1.660   2.553   4.497
  311TIP3    H2  940   1.683   2.592   4.353
  312TIP3   OH2  941   0.831   4.409   0.702
  312TIP3    H1  942   0.901   4.356   0.665
  312TIP3    H2  943   0.792   4.455   0.627
  313TIP3   OH2  944   5.461   5.712  -0.004
  313TIP3    H1  945   5.492   5.631   0.035
  313TIP3    H2  946   5.482   5.780   0.061
  314TIP3   OH2  947   1.005   3.505   4.790
  314TIP3    H1  948   1.033   3.487   4.880
  314TIP3    H2  949   0.975   3.596   4.792
  315TIP3   OH2  950   1.943   1.956   1.670
  315TIP3    H1  951   2.025   1.952   1.718
  315TIP3    H2  952   1.908   2.043   1.689
  316TIP3   OH2  953   3.546   3.048   2.641
  316TIP3    H1  954   3.509   2.974   2.691
  316TIP3    H2  955   3.504   3.041   2.555
  317TIP3   OH2  956   1.431   3.715   1.833
  317TIP3    H1  957   1.394   3.709   1.745
  317TIP3    H2  958   1.358   3.695   1.891
  318TIP3   OH2  959   4.418   0.793   4.531
  318TIP3    H1  960   4.438   0.837   4.448
  318TIP3    H2  961   4.325   0.770   4.524
  319TIP3   OH2  962   0.550   4.949   1.253
  319TIP3    H1  963   0.467   4.951   1.206
  319TIP3    H2  964   0.526   4.953   1.346
  320TIP3   OH2  965   2.091   1.439   2.217
  320TIP3    H1  966   2.128   1.505   2.159
  320TIP3    H2  967   2.156   1.428   2.286
  321TIP3   OH2  968   0.029   1.073   3.984
  321TIP3    H1  969   0.025   0.978   3.996
  321TIP3    H2  970   0.117   1.089   3.952
  322TIP3   OH2  971   3.735   5.967   4.097
  322TIP3    H1  972   3.823   5.991   4.067
  322TIP3    H2  973   3.733   5.872   4.090
  323TIP3   OH2  974   1.264   2.921   3.553
  323TIP3    H1  975   1.307   2.979   3.615
  323TIP3    H2  976   1.304   2.941   3.469
  324TIP3   OH2  977   3.391   0.870   1.868
  324TIP3    H1  978   3.469   0.901   1.914
  324TIP3    H2  979   3.423   0.843   1.782
  325TIP3   OH2  980   2.022   1.830   3.708
  325TIP3    H1  981   2.049   1.889   3.778
  325TIP3    H2  982   1.928   1.816   3.724
  326TIP3   OH2  983   0.889   2.576   0.255
  326TIP3    H1  984   0.854   2.628   0.327
  326TIP3    H2  985   0.920   2.495   0.296
  327TIP3   OH2  986   1.337   0.604   1.837
  327TIP3    H1  987   1.241   0.607   1.835
  327TIP3    H2  988   1.360   0.608   1.929
  328TIP3   OH2  989   3.745   1.658   2.684
  328TIP3    H1  990   3.791   1.581   2.648
  328TIP3    H2  991   3.683   1.621   2.747
  329TIP3   OH2  992   5.820   3.240   4.289
  329TIP3    H1  993   5.869   3.174   4.338
  329TIP3    H2  994   5.875   3.258   4.213
  330TIP3   OH2  995   2.284   0.016   4.841
  330TIP3    H1  996   2.221   0.041   4.773
  330TIP3    H2  997   2.340   0.093   4.851
  331TIP3   OH2  998   2.786   4.465   1.785
  331TIP3    H1  999   2.795   4.441   1.693
  331TIP3    H2 1000   2.822   4.554   1.790
  332TIP3   OH2 1001   1.320   5.475   3.045
  332TIP3    H1 1002   1.343   5.568   3.042
  332TIP3    H2 1003   1.264   5.467   3.122
  333TIP3   OH2 1004   0.824   5.340   4.373
  333TIP3    H1 1005   0.901   5.300   4.332
  333TIP3    H2 1006   0.806   5.285   4.449
  334TIP3   OH2 1007   4.540   4.027   4.434
  334TIP3    H1 1008   4.588   4.084   4.493
  334TIP3    H2 1009   4.533   3.944   4.481
  335TIP3   OH2 1010   1.549   2.113   3.412
  335TIP3    H1 1011   1.473   2.058   3.391
  335TIP3    H2 1012   1.623   2.052   3.411
  336TIP3   OH2 1013   2.628   5.500   0.821
  336TIP3    H1 1014   2.608   5.457   0.738
  336TIP3    H2 1015   2.582   5.584   0.816
  337TIP3   OH2 1016   5.784   4.649   4.934
  337TIP3    H1 1017   5.847   4.675   4.867
  337TIP3    H2 1018   5.703   4.693   4.909
  338TIP3   OH2 1019   1.160   2.209   0.752
  338TIP3    H1 1020   1.182   2.164   0.670
  338TIP3    H2 1021   1.230   2.273   0.764
  339TIP3   OH2 1022   3.998   3.260   4.577
  339TIP3    H1 1023   3.912   3.302   4.579
  339TIP3    H2 1024   4.035   3.287   4.493
  340TIP3   OH2 1025   2.851   5.568   0.480
  340TIP3    H1 1026   2.761   5.596   0.495
  340TIP3    H2 1027   2.902   5.649   0.486
  341TIP3   OH2 1028   5.443   5.965   3.727
  341TIP3    H1 1029   5.415   5.998   3.812
  341TIP3    H2 1030   5.387   5.889   3.711
  342TIP3   OH2 1031   2.633   4.110   4.209
  342TIP3    H1 1032   2.592   4.098   4.124
  342TIP3    H2 1033   2.580   4.058   4.269
  343TIP3   OH2 1034   6.107   2.750   0.446
  343TIP3    H1 1035   6.131   2.818   0.383
  343TIP3    H2 1036   6.189   2.726   0.487
  344TIP3   OH2 1037   5.102   2.853   0.108
  344TIP3    H1 1038   5.087   2.935   0.061
  344TIP3    H2 1039   5.125   2.880   0.196
  345TIP3   OH2 1040   1.990   3.104   4.724
  345TIP3    H1 1041   1.986   3.016   4.685
  345TIP3    H2 1042   1.914   3.149   4.688
  346TIP3   OH2 1043   2.281   0.634   3.719
  346TIP3    H1 1044   2.306   0.726   3.713
  346TIP3    H2 1045   2.299   0.610   3.810
  347TIP3   OH2 1046   3.255   2.955   4.334
  347TIP3    H1 1047   3.254   2.975   4.428
  347TIP3    H2 1048   3.163   2.945   4.310
  348TIP3   OH2 1049   0.372   4.330   0.025
  348TIP3    H1 1050   0.305   4.270  -0.010
  348TIP3    H2 1051   0.331   4.369   0.102
  349TIP3   OH2 1052   2.171   1.108   3.450
  349TIP3    H1 1053   2.242   1.108   3.513
  349TIP3    H2 1054   2.115   1.181   3.477
  350TIP3   OH2 1055   2.498   4.764   4.993
  350TIP3    H1 1056   2.450   4.690   4.954
  350TIP3    H2 1057   2.497   4.746   5.087
  351TIP3   OH2 1058   2.327   3.565   4.295
  351TIP3    H1 1059   2.244   3.519   4.281
  351TIP3    H2 1060   2.359   3.530   4.378
  352TIP3   OH2 1061   5.271   0.703   2.738
  352TIP3    H1 1062   5.312   0.643   2.675
  352TIP3    H2 1063   5.177   0.683   2.732
  353TIP3   OH2 1064   3.983   5.366   3.530
  353TIP3    H1 1065   3.990   5.281   3.486
  353TIP3    H2 1066   3.949   5.425   3.463
  354TIP3   OH2 1067   4.692   4.237   1.511
  354TIP3    H1 1068   4.765   4.250   1.450
  354TIP3    H2 1069   4.677   4.324   1.549
  355TIP3   OH2 1070   4.357   0.267   3.540
  355TIP3    H1 1071   4.317   0.180   3.535
  355TIP3    H2 1072   4.287   0.327   3.513
  356TIP3   OH2 1073   3.762   4.148   5.038
  356TIP3    H1 1074   3.688   4.202   5.064
  356TIP3    H2 1075   3.722   4.069   5.002
  357TIP3   OH2 1076   1.635   4.254   2.507
  357TIP3    H1 1077   1.582   4.288   2.434
  357TIP3    H2 1078   1.605   4.304   2.583
  358TIP3   OH2 1079   6.113   0.635   3.698
  358TIP3    H1 1080   6.155   0.700   3.754
  358TIP3    H2 1081   6.119   0.553   3.747
  359TIP3   OH2 1082   5.180   5.243   0.436
  359TIP3    H1 1083   5.233   5.238   0.516
  359TIP3    H2 1084   5.207   5.326   0.395
  360TIP3   OH2 1085   1.426   5.511   4.720
  360TIP3    H1 1086   1.359   5.559   4.671
  360TIP3    H2 1087   1.398   5.420   4.716
  361TIP3   OH2 1088   2.274   1.156   1.150
  361TIP3    H1 1089   2.180   1.147   1.134
  361TIP3    H2 1090   2.290   1.250   1.151
  362TIP3   OH2 1091   2.107   1.112   3.174
  362TIP3    H1 1092   2.120   1.097   3.268
  362TIP3    H2 1093   2.056   1.036   3.145
  363TIP3   OH2 1094   4.761   5.418   4.670
  363TIP3    H1 1095   4.742   5.508   4.696
  363TIP3    H2 1096   4.691   5.366   4.710
  364TIP3   OH2 1097   5.111   3.158   3.983
  364TIP3    H1 1098   5.170   3.233   3.988
  364TIP3    H2 1099   5.041   3.186   3.924
  365TIP3   OH2 1100   1.668   4.420   1.117
  365TIP3    H1 1101   1.720   4.449   1.042
  365TIP3    H2 1102   1.728   4.430   1.192
  366TIP3   OH2 1103   2.823   5.928   4.440
  366TIP3    H1 1104   2.895   5.878   4.401
  366TIP3    H2 1105   2.796   5.875   4.515
  367TIP3   OH2 1106   6.113   0.865   3.135
  367TIP3    H1 1107   6.030   0.914   3.136
  367TIP3    H2 1108   6.091   0.781   3.176
  368TIP3   OH2 1109   4.948   2.338   1.844
  368TIP3    H1 1110   4.895   2.338   1.764
  368TIP3    H2 1111   5.008   2.412   1.834
  369TIP3   OH2 1112   6.316   3.720   4.457
  369TIP3    H1 1113   6.343   3.630   4.439
  369TIP3    H2 1114   6.338   3.768   4.377
  370TIP3   OH2 1115   3.915   0.448   0.601
  370TIP3    H1 1116   3.989   0.489   0.645
  370TIP3    H2 1117   3.940   0.356   0.592
  371TIP3   OH2 1118   4.737   1.545   2.031
  371TIP3    H1 1119   4.679   1.616   2.003
  371TIP3    H2 1120   4.789   1.525   1.954
  372TIP3   OH2 1121   2.527   1.956   1.652
  372TIP3    H1 1122   2.504   1.936   1.743
  372TIP3    H2 1123   2.559   2.046   1.656
  373TIP3   OH2 1124   3.296   1.002   2.330
  373TIP3    H1 1125   3.337   1.077   2.286
  373TIP3    H2 1126   3.241   1.041   2.398
  374TIP3   OH2 1127   1.929   1.302   1.691
  374TIP3    H1 1128   1.983   1.250   1.632
  374TIP3    H2 1129   1.893   1.238   1.753
  375TIP3   OH2 1130   5.326   1.560   1.465
  375TIP3    H1 1131   5.416   1.529   1.467
  375TIP3    H2 1132   5.274   1.483   1.440
  376TIP3   OH2 1133   3.499   5.915   4.620
  376TIP3    H1 1134   3.541   5.871   4.547
  376TIP3    H2 1135   3.557   5.899   4.695
  377TIP3   OH2 1136   5.905   1.942   0.750
  377TIP3    H1 1137   5.984   1.898   0.783
  377TIP3    H2 1138   5.833   1.895   0.791
  378TIP3   OH2 1139   6.246   3.037   4.209
  378TIP3    H1 1140   6.341   3.032   4.208
  378TIP3    H2 1141   6.217   2.976   4.142
  379TIP3   OH2 1142   3.293   0.101   1.968
  379TIP3    H1 1143   3.303   0.047   2.047
  379TIP3    H2 1144   3.231   0.170   1.994
  380TIP3   OH2 1145   4.387   5.846   1.172
  380TIP3    H1 1146   4.408   5.845   1.266
  380TIP3    H2 1147   4.294   5.869   1.169
  381TIP3   OH2 1148   2.623   5.281   3.683
  381TIP3    H1 1149   2.542   5.328   3.667
  381TIP3    H2 1150   2.660   5.267   3.595
  382TIP3   OH2 1151   3.188   2.682   2.331
  382TIP3    H1 1152   3.142   2.737   2.268
  382TIP3    H2 1153   3.182   2.594   2.295
  383TIP3   OH2 1154   4.272   4.074   4.058
  383TIP3    H1 1155   4.298   4.007   4.121
  383TIP3    H2 1156   4.210   4.031   4.000
  384TIP3   OH2 1157   5.625   1.794   1.424
  384TIP3    H1 1158   5.593   1.734   1.492
  384TIP3    H2 1159   5.546   1.837   1.392
  385TIP3   OH2 1160   6.187   2.615   1.715
  385TIP3    H1 1161   6.152   2.592   1.629
  385TIP3    H2 1162   6.166   2.540   1.771
  386TIP3   OH2 1163   5.726   0.799   0.625
  386TIP3    H1 1164   5.731   0.892   0.647
  386TIP3    H2 1165   5.723   0.797   0.529
  387TIP3   OH2 1166   1.575   2.177   2.417
  387TIP3    H1 1167   1.480   2.166   2.420
  387TIP3    H2 1168   1.593   2.201   2.326
  388TIP3   OH2 1169   3.010   2.652   1.043
  388TIP3    H1 1170   2.948   2.699   1.098
  388TIP3    H2 1171   3.094   2.694   1.060
  389TIP3   OH2 1172   4.843   1.652   3.939
  389TIP3    H1 1173   4.840   1.634   3.845
  389TIP3    H2 1174   4.931   1.626   3.966
  390TIP3   OH2 1175   0.658   5.031   1.556
  390TIP3    H1 1176   0.717   4.962   1.527
  390TIP3    H2 1177   0.570   4.995   1.545
  391TIP3   OH2 1178   1.082   5.567   4.387
  391TIP3    H1 1179   1.049   5.653   4.362
  391TIP3    H2 1180   1.125   5.581   4.471
  392TIP3   OH2 1181   2.156   0.666   5.152
  392TIP3    H1 1182   2.217   0.739   5.139
  392TIP3    H2 1183   2.078   0.707   5.191
  393TIP3   OH2 1184   6.057   3.099   4.958
  393TIP3    H1 1185   5.984   3.157   4.937
  393TIP3    H2 1186   6.116   3.153   5.011
  394TIP3   OH2 1187   3.973   5.556   0.468
  394TIP3    H1 1188   3.890   5.578   0.511
  394TIP3    H2 1189   4.029   5.632   0.483
  395TIP3   OH2 1190   1.474   4.899   2.746
  395TIP3    H1 1191   1.442   4.860   2.827
  395TIP3    H2 1192   1.498   4.988   2.770
  396TIP3   OH2 1193   3.112   2.992   2.191
  396TIP3    H1 1194   3.078   2.998   2.280
  396TIP3    H2 1195   3.136   3.082   2.168
  397TIP3   OH2 1196   5.862   5.398   5.122
  397TIP3    H1 1197   5.836   5.341   5.194
  397TIP3    H2 1198   5.895   5.477   5.165
  398TIP3   OH2 1199   2.992   4.424   2.913
  398TIP3    H1 1200   3.078   4.382   2.905
  398TIP3    H2 1201   2.958   4.425   2.823
  399TIP3   OH2 1202   1.599   3.625   1.499
  399TIP3    H1 1203   1.511   3.597   1.525
  399TIP3    H2 1204   1.653   3.608   1.576
  400TIP3   OH2 1205   2.258   5.567   1.986
  400TIP3    H1 1206   2.235   5.551   2.077
  400TIP3    H2 1207   2.352   5.546   1.981
  401TIP3   OH2 1208   0.059   5.307   2.598
  401TIP3    H1 1209   0.086   5.330   2.687
  401TIP3    H2 1210   0.046   5.391   2.553
  402TIP3   OH2 1211   0.565   5.702   4.688
  402TIP3    H1 1212   0.590   5.612   4.667
  402TIP3    H2 1213   0.474   5.709   4.657
  403TIP3   OH2 1214   5.379   4.713   2.077
  403TIP3    H1 1215   5.358   4.779   2.143
  403TIP3    H2 1216   5.350   4.630   2.114
  404TIP3   OH2 1217   0.072   2.164   2.362
  404TIP3    H1 1218   0.149   2.174   2.416
  404TIP3    H2 1219   0.012   2.233   2.393
  405TIP3   OH2 1220   5.361   2.288   0.704
  405TIP3    H1 1221   5.380   2.382   0.711
  405TIP3    H2 1222   5.282   2.284   0.650
  406TIP3   OH2 1223   0.436   3.968   2.821
  406TIP3    H1 1224   0.419   4.034   2.888
  406TIP3    H2 1225   0.502   4.007   2.764
  407TIP3   OH2 1226   2.197   3.622   1.696
  407TIP3    H1 1227   2.218   3.545   1.749
  407TIP3    H2 1228   2.142   3.589   1.626
  408TIP3   OH2 1229   5.661   2.260   0.950
  408TIP3    H1 1230   5.683   2.353   0.960
  408TIP3    H2 1231   5.743   2.219   0.923
  409TIP3   OH2 1232   4.953   5.059   3.557
  409TIP3    H1 1233   5.043   5.076   3.586
  409TIP3    H2 1234   4.921   5.144   3.528
  410TIP3   OH2 1235   4.643   1.620   4.152
  410TIP3    H1 1236   4.566   1.601   4.100
  410TIP3    H2 1237   4.717   1.606   4.092
  411TIP3   OH2 1238   0.800   2.665   3.399
  411TIP3    H1 1239   0.839   2.752   3.385
  411TIP3    H2 1240   0.706   2.682   3.407
  412TIP3   OH2 1241   3.469   4.740   1.187
  412TIP3    H1 1242   3.376   4.754   1.170
  412TIP3    H2 1243   3.489   4.801   1.259
  413TIP3   OH2 1244   0.014   1.872   4.909
  413TIP3    H1 1245  -0.033   1.826   4.979
  413TIP3    H2 1246  -0.039   1.856   4.830
  414TIP3   OH2 1247   2.384   5.050   1.644
  414TIP3    H1 1248   2.333   5.114   1.594
  414TIP3    H2 1249   2.320   4.984   1.672
  415TIP3   OH2 1250   5.297   3.429   2.353
  415TIP3    H1 1251   5.382   3.396   2.383
  415TIP3    H2 1252   5.234   3.399   2.418
  416TIP3   OH2 1253   5.365   4.354   2.887
  416TIP3    H1 1254   5.318   4.382   2.808
  416TIP3    H2 1255   5.380   4.261   2.875
  417TIP3   OH2 1256   3.236   0.867   0.334
  417TIP3    H1 1257   3.296   0.844   0.405
  417TIP3    H2 1258   3.264   0.954   0.306
  418TIP3   OH2 1259   4.417   1.263   3.349
  418TIP3    H1 1260   4.340   1.314   3.375
  418TIP3    H2 1261   4.486   1.328   3.336
  419TIP3   OH2 1262   2.962   3.549   3.463
  419TIP3    H1 1263   2.993   3.639   3.470
  419TIP3    H2 1264   3.000   3.504   3.538
  420TIP3   OH2 1265   2.067   1.435   4.237
  420TIP3    H1 1266   1.990   1.391   4.203
  420TIP3    H2 1267   2.056   1.526   4.210
  421TIP3   OH2 1268   1.296   0.008   2.289
  421TIP3    H1 1269   1.267  -0.073   2.331
  421TIP3    H2 1270   1.314   0.068   2.362
  422TIP3   OH2 1271   4.274   2.584   1.282
  422TIP3    H1 1272   4.328   2.622   1.352
  422TIP3    H2 1273   4.331   2.520   1.240
  423TIP3   OH2 1274   6.041   5.450   1.448
  423TIP3    H1 1275   6.034   5.395   1.370
  423TIP3    H2 1276   6.046   5.539   1.414
  424TIP3   OH2 1277   1.331   2.928   3.281
  424TIP3    H1 1278   1.415   2.969   3.263
  424TIP3    H2 1279   1.334   2.844   3.234
  425TIP3   OH2 1280   5.354   3.352   3.885
  425TIP3    H1 1281   5.398   3.291   3.826
  425TIP3    H2 1282   5.301   3.406   3.826
  426TIP3   OH2 1283   0.586   4.832   0.875
  426TIP3    H1 1284   0.574   4.774   0.950
  426TIP3    H2 1285   0.676   4.815   0.845
  427TIP3   OH2 1286   5.802   4.510   3.985
  427TIP3    H1 1287   5.751   4.450   4.039
  427TIP3    H2 1288   5.783   4.597   4.020
  428TIP3   OH2 1289   2.023   0.105   4.975
  428TIP3    H1 1290   1.993   0.081   5.062
  428TIP3    H2 1291   1.953   0.078   4.916
  429TIP3   OH2 1292   1.387   1.420   4.129
  429TIP3    H1 1293   1.467   1.470   4.118
  429TIP3    H2 1294   1.373   1.378   4.044
  430TIP3   OH2 1295   6.206   0.959   1.357
  430TIP3    H1 1296   6.163   0.876   1.335
  430TIP3    H2 1297   6.149   0.999   1.422
  431TIP3   OH2 1298   1.491   4.895   5.053
  431TIP3    H1 1299   1.549   4.939   5.116
  431TIP3    H2 1300   1.525   4.920   4.967
  432TIP3   OH2 1301   6.259   5.440   1.651
  432TIP3    H1 1302   6.252   5.531   1.679
  432TIP3    H2 1303   6.176   5.423   1.605
  433TIP3   OH2 1304   6.103   0.849   4.474
  433TIP3    H1 1305   6.158   0.775   4.501
  433TIP3    H2 1306   6.040   0.811   4.412
  434TIP3   OH2 1307   3.318   0.720   4.353
  434TIP3    H1 1308   3.319   0.719   4.449
  434TIP3    H2 1309   3.402   0.758   4.328
  435TIP3   OH2 1310   0.503   5.289   4.547
  435TIP3    H1 1311   0.497   5.303   4.452
  435TIP3    H2 1312   0.484   5.196   4.559
  436TIP3   OH2 1313   4.473   3.279   3.332
  436TIP3    H1 1314   4.501   3.249   3.245
  436TIP3    H2 1315   4.519   3.222   3.393
  437TIP3   OH2 1316   5.000   1.155   4.820
  437TIP3    H1 1317   4.929   1.093   4.832
  437TIP3    H2 1318   5.077   1.101   4.804
  438TIP3   OH2 1319   1.410   1.971   0.810
  438TIP3    H1 1320   1.381   2.005   0.725
  438TIP3    H2 1321   1.495   1.931   0.792
  439TIP3   OH2 1322   4.823   3.018   1.478
  439TIP3    H1 1323   4.896   3.026   1.417
  439TIP3    H2 1324   4.836   3.091   1.539
  440TIP3   OH2 1325   4.051   4.788   1.511
  440TIP3    H1 1326   4.079   4.874   1.480
  440TIP3    H2 1327   4.119   4.761   1.572
  441TIP3   OH2 1328   0.184   3.012   3.120
  441TIP3    H1 1329   0.125   3.086   3.137
  441TIP3    H2 1330   0.136   2.956   3.058
  442TIP3   OH2 1331   3.855   5.323   3.755
  442TIP3    H1 1332   3.882   5.349   3.667
  442TIP3    H2 1333   3.763   5.297   3.744
  443TIP3   OH2 1334   1.730   4.710   1.643
  443TIP3    H1 1335   1.750   4.617   1.653
  443TIP3    H2 1336   1.746   4.728   1.550
  444TIP3   OH2 1337   4.475   0.400   1.532
  444TIP3    H1 1338   4.515   0.421   1.447
  444TIP3    H2 1339   4.548   0.368   1.585
  445TIP3   OH2 1340   4.396   5.478   3.915
  445TIP3    H1 1341   4.407   5.537   3.841
  445TIP3    H2 1342   4.461   5.507   3.979
  446TIP3   OH2 1343   1.810   2.825   4.555
  446TIP3    H1 1344   1.899   2.834   4.521
  446TIP3    H2 1345   1.771   2.756   4.500
  447TIP3   OH2 1346   1.425   0.434   2.653
  447TIP3    H1 1347   1.395   0.425   2.562
  447TIP3    H2 1348   1.418   0.346   2.689
  448TIP3   OH2 1349   5.612   2.368   2.271
  448TIP3    H1 1350   5.655   2.347   2.354
  448TIP3    H2 1351   5.633   2.294   2.214
  449TIP3   OH2 1352   4.086   2.195   1.187
  449TIP3    H1 1353   4.025   2.232   1.250
  449TIP3    H2 1354   4.168   2.243   1.201
  450TIP3   OH2 1355   2.938   1.839   1.278
  450TIP3    H1 1356   2.936   1.748   1.308
  450TIP3    H2 1357   2.851   1.853   1.239
  451TIP3   OH2 1358   0.977   0.872   3.071
  451TIP3    H1 1359   1.060   0.886   3.027
  451TIP3    H2 1360   0.973   0.941   3.138
  452TIP3   OH2 1361   3.668   0.377   0.968
  452TIP3    H1 1362   3.631   0.440   1.030
  452TIP3    H2 1363   3.614   0.387   0.890
  453TIP3   OH2 1364   4.340   1.318   5.054
  453TIP3    H1 1365   4.378   1.288   4.972
  453TIP3    H2 1366   4.312   1.238   5.099
  454TIP3   OH2 1367   1.585   3.156   2.604
  454TIP3    H1 1368   1.617   3.074   2.641
  454TIP3    H2 1369   1.572   3.214   2.679
  455TIP3   OH2 1370   4.254   1.158   4.610
  455TIP3    H1 1371   4.321   1.156   4.679
  455TIP3    H2 1372   4.183   1.105   4.644
  456TIP3   OH2 1373   3.274   1.776   4.680
  456TIP3    H1 1374   3.334   1.735   4.618
  456TIP3    H2 1375   3.241   1.853   4.635
  457TIP3   OH2 1376   4.530   4.538   4.975
  457TIP3    H1 1377   4.472   4.509   4.904
  457TIP3    H2 1378   4.497   4.492   5.053
  458TIP3   OH2 1379   2.867   4.828   0.738
  458TIP3    H1 1380   2.875   4.862   0.649
  458TIP3    H2 1381   2.939   4.767   0.748
  459TIP3   OH2 1382   0.341   3.332   5.137
  459TIP3    H1 1383   0.317   3.243   5.111
  459TIP3    H2 1384   0.345   3.381   5.054
  460TIP3   OH2 1385   5.918   4.552   2.485
  460TIP3    H1 1386   5.960   4.571   2.401
  460TIP3    H2 1387   5.851   4.620   2.493
  461TIP3   OH2 1388   3.640   1.659   3.849
  461TIP3    H1 1389   3.629   1.730   3.786
  461TIP3    H2 1390   3.674   1.703   3.928
  462TIP3   OH2 1391   2.422   2.572   3.239
  462TIP3    H1 1392   2.450   2.579   3.330
  462TIP3    H2 1393   2.459   2.489   3.209
  463TIP3   OH2 1394   5.382   0.422   3.790
  463TIP3    H1 1395   5.359   0.359   3.721
  463TIP3    H2 1396   5.298   0.460   3.815
  464TIP3   OH2 1397   5.490   4.414   5.176
  464TIP3    H1 1398   5.412   4.430   5.230
  464TIP3    H2 1399   5.465   4.443   5.088
  465TIP3   OH2 1400   0.455   3.216   3.715
  465TIP3    H1 1401   0.468   3.193   3.623
  465TIP3    H2 1402   0.542   3.247   3.744
  466TIP3   OH2 1403   5.389   3.521   4.404
  466TIP3    H1 1404   5.320   3.520   4.339
  466TIP3    H2 1405   5.448   3.450   4.379
  467TIP3   OH2 1406   3.909   2.351   4.185
  467TIP3    H1 1407   3.989   2.329   4.233
  467TIP3    H2 1408   3.855   2.397   4.248
  468TIP3   OH2 1409   0.599   4.071   3.601
  468TIP3    H1 1410   0.602   3.979   3.578
  468TIP3    H2 1411   0.516   4.081   3.647
  469TIP3   OH2 1412   3.087   5.634   2.841
  469TIP3    H1 1413   3.064   5.600   2.755
  469TIP3    H2 1414   3.023   5.595   2.901
  470TIP3   OH2 1415   3.291   4.274   1.376
  470TIP3    H1 1416   3.259   4.191   1.410
  470TIP3    H2 1417   3.214   4.329   1.369
  471TIP3   OH2 1418   1.164   3.184   0.197
  471TIP3    H1 1419   1.139   3.103   0.241
  471TIP3    H2 1420   1.097   3.196   0.129
  472TIP3   OH2 1421   0.725   3.830   0.219
  472TIP3    H1 1422   0.705   3.896   0.285
  472TIP3    H2 1423   0.717   3.747   0.266
  473TIP3   OH2 1424   6.108   1.569   1.146
  473TIP3    H1 1425   6.091   1.543   1.056
  473TIP3    H2 1426   6.130   1.662   1.140
  474TIP3   OH2 1427   3.201   5.936   3.921
  474TIP3    H1 1428   3.175   6.001   3.986
  474TIP3    H2 1429   3.147   5.955   3.845
  475TIP3   OH2 1430   1.816   4.631   0.949
  475TIP3    H1 1431   1.879   4.645   1.020
  475TIP3    H2 1432   1.855   4.672   0.873
  476TIP3   OH2 1433   4.434   1.014   3.903
  476TIP3    H1 1434   4.442   1.026   3.998
  476TIP3    H2 1435   4.341   1.021   3.886
  477TIP3   OH2 1436   1.872   0.458   2.953
  477TIP3    H1 1437   1.856   0.532   3.012
  477TIP3    H2 1438   1.790   0.408   2.955
  478TIP3   OH2 1439   3.398   2.491   0.016
  478TIP3    H1 1440   3.463   2.481  -0.054
  478TIP3    H2 1441   3.381   2.402   0.046
  479TIP3   OH2 1442   4.391   3.280   3.679
  479TIP3    H1 1443   4.322   3.214   3.671
  479TIP3    H2 1444   4.355   3.344   3.740
  480TIP3   OH2 1445   5.129   4.170   3.438
  480TIP3    H1 1446   5.183   4.210   3.506
  480TIP3    H2 1447   5.040   4.193   3.461
  481TIP3   OH2 1448   3.948   4.387   1.016
  481TIP3    H1 1449   3.934   4.457   0.953
  481TIP3    H2 1450   4.041   4.368   1.012
  482TIP3   OH2 1451   5.321   5.772   0.341
  482TIP3    H1 1452   5.266   5.827   0.396
  482TIP3    H2 1453   5.379   5.834   0.296
  483TIP3   OH2 1454   3.572   5.465   3.591
  483TIP3    H1 1455   3.570   5.384   3.540
  483TIP3    H2 1456   3.513   5.448   3.665
  484TIP3   OH2 1457   3.170   2.400   2.332
  484TIP3    H1 1458   3.144   2.384   2.241
  484TIP3    H2 1459   3.165   2.314   2.374
  485TIP3   OH2 1460   1.152   2.677   3.447
  485TIP3    H1 1461   1.232   2.634   3.417
  485TIP3    H2 1462   1.178   2.767   3.465
  486TIP3   OH2 1463   5.152   3.378   1.123
  486TIP3    H1 1464   5.231   3.349   1.077
  486TIP3    H2 1465   5.183   3.444   1.185
  487TIP3   OH2 1466   0.319   1.302   3.097
  487TIP3    H1 1467   0.406   1.300   3.058
  487TIP3    H2 1468   0.316   1.384   3.147
  488TIP3   OH2 1469   4.404   5.392   3.423
  488TIP3    H1 1470   4.339   5.449   3.463
  488TIP3    H2 1471   4.358   5.351   3.349
  489TIP3   OH2 1472   2.279   2.726   2.568
  489TIP3    H1 1473   2.307   2.817   2.554
  489TIP3    H2 1474   2.359   2.675   2.558
  490TIP3   OH2 1475   6.258   3.687   1.617
  490TIP3    H1 1476   6.347   3.659   1.637
  490TIP3    H2 1477   6.211   3.679   1.700
  491TIP3   OH2 1478   3.117   1.333   0.360
  491TIP3    H1 1479   3.137   1.402   0.297
  491TIP3    H2 1480   3.061   1.376   0.426
  492TIP3   OH2 1481   5.361   4.052   0.266
  492TIP3    H1 1482   5.274   4.024   0.237
  492TIP3    H2 1483   5.358   4.044   0.361
  493TIP3   OH2 1484   0.954   5.186   2.019
  493TIP3    H1 1485   0.931   5.101   1.982
  493TIP3    H2 1486   0.931   5.249   1.951
  494TIP3   OH2 1487   0.026   2.287   0.041
  494TIP3    H1 1488   0.004   2.344   0.115
  494TIP3    H2 1489   0.024   2.198   0.077
  495TIP3   OH2 1490   1.176   5.724   1.697
  495TIP3    H1 1491   1.122   5.690   1.625
  495TIP3    H2 1492   1.125   5.705   1.776
  496TIP3   OH2 1493   4.861   4.081   4.973
  496TIP3    H1 1494   4.781   4.113   4.930
  496TIP3    H2 1495   4.831   4.051   5.059
  497TIP3   OH2 1496   5.020   4.772   1.971
  497TIP3    H1 1497   5.100   4.799   1.925
  497TIP3    H2 1498   4.953   4.831   1.938
  498TIP3   OH2 1499   0.189   2.716   3.464
  498TIP3    H1 1500   0.188   2.695   3.371
  498TIP3    H2 1501   0.185   2.811   3.468
  499TIP3   OH2 1502   3.293   3.362   3.639
  499TIP3    H1 1503   3.325   3.364   3.729
  499TIP3    H2 1504   3.292   3.454   3.612
  500TIP3   OH2 1505   0.214   4.751   3.061
  500TIP3    H1 1506   0.286   4.815   3.057
  500TIP3    H2 1507   0.249   4.679   3.113
  501TIP3   OH2 1508   3.355   4.311   3.996
  501TIP3    H1 1509   3.283   4.373   4.003
  501TIP3    H2 1510   3.328   4.238   4.052
  502TIP3   OH2 1511   6.120   0.915   3.415
  502TIP3    H1 1512   6.135   0.979   3.485
  502TIP3    H2 1513   6.172   0.947   3.342
  503TIP3   OH2 1514   0.377   4.938   1.490
  503TIP3    H1 1515   0.344   5.022   1.522
  503TIP3    H2 1516   0.307   4.903   1.435
  504TIP3   OH2 1517   4.131   1.251   3.659
  504TIP3    H1 1518   4.156   1.193   3.731
  504TIP3    H2 1519   4.044   1.221   3.634
  505TIP3   OH2 1520   0.936   5.173   2.869
  505TIP3    H1 1521   0.921   5.112   2.796
  505TIP3    H2 1522   1.024   5.208   2.853
  506TIP3   OH2 1523   2.359   5.348   1.666
  506TIP3    H1 1524   2.276   5.370   1.708
  506TIP3    H2 1525   2.425   5.386   1.723
  507TIP3   OH2 1526   4.672   1.155   4.868
  507TIP3    H1 1527   4.727   1.091   4.822
  507TIP3    H2 1528   4.711   1.162   4.955
  508TIP3   OH2 1529   2.790   5.937   0.137
  508TIP3    H1 1530   2.761   5.864   0.083
  508TIP3    H2 1531   2.870   5.906   0.179
  509TIP3   OH2 1532   3.933   4.787   2.267
  509TIP3    H1 1533   3.961   4.815   2.180
  509TIP3    H2 1534   3.966   4.698   2.275
  510TIP3   OH2 1535   2.995   3.795   3.185
  510TIP3    H1 1536   3.022   3.836   3.267
  510TIP3    H2 1537   2.903   3.819   3.175
  511TIP3   OH2 1538   5.794   4.280   4.875
  511TIP3    H1 1539   5.803   4.245   4.786
  511TIP3    H2 1540   5.851   4.357   4.876
  512TIP3   OH2 1541   3.791   0.737   4.678
  512TIP3    H1 1542   3.808   0.804   4.611
  512TIP3    H2 1543   3.702   0.754   4.707
  513TIP3   OH2 1544   1.336   5.396   1.330
  513TIP3    H1 1545   1.351   5.374   1.422
  513TIP3    H2 1546   1.344   5.312   1.284
  514TIP3   OH2 1547   4.541   4.808   4.205
  514TIP3    H1 1548   4.623   4.822   4.158
  514TIP3    H2 1549   4.522   4.715   4.193
  515TIP3   OH2 1550   0.282   4.094   2.419
  515TIP3    H1 1551   0.214   4.027   2.414
  515TIP3    H2 1552   0.262   4.153   2.346
  516TIP3   OH2 1553   0.409   3.956   1.075
  516TIP3    H1 1554   0.481   3.893   1.072
  516TIP3    H2 1555   0.360   3.940   0.995
  517TIP3   OH2 1556   2.207   5.071   4.622
  517TIP3    H1 1557   2.136   5.013   4.596
  517TIP3    H2 1558   2.253   5.023   4.691
  518TIP3   OH2 1559   0.897   5.065   0.244
  518TIP3    H1 1560   0.947   5.004   0.300
  518TIP3    H2 1561   0.928   5.151   0.271
  519TIP3   OH2 1562   0.446   5.373   1.951
  519TIP3    H1 1563   0.426   5.371   1.858
  519TIP3    H2 1564   0.420   5.461   1.979
  520TIP3   OH2 1565   3.558   4.261   4.565
  520TIP3    H1 1566   3.573   4.307   4.482
  520TIP3    H2 1567   3.498   4.190   4.542
  521TIP3   OH2 1568   3.580   3.913   1.962
  521TIP3    H1 1569   3.604   3.880   1.875
  521TIP3    H2 1570   3.570   4.008   1.950
  522TIP3   OH2 1571   3.915   2.795   4.991
  522TIP3    H1 1572   3.907   2.784   4.896
  522TIP3    H2 1573   3.825   2.788   5.024
  523TIP3   OH2 1574   5.354   2.393   1.212
  523TIP3    H1 1575   5.337   2.318   1.154
  523TIP3    H2 1576   5.267   2.426   1.234
  524TIP3   OH2 1577   2.067   5.851   4.376
  524TIP3    H1 1578   2.085   5.759   4.357
  524TIP3    H2 1579   1.977   5.865   4.344
  525TIP3   OH2 1580   5.323   4.808   2.336
  525TIP3    H1 1581   5.362   4.855   2.410
  525TIP3    H2 1582   5.274   4.737   2.377
  526TIP3   OH2 1583   5.126   3.134   0.955
  526TIP3    H1 1584   5.206   3.084   0.969
  526TIP3    H2 1585   5.154   3.226   0.963
  527TIP3   OH2 1586   5.960   5.148   1.662
  527TIP3    H1 1587   5.874   5.107   1.656
  527TIP3    H2 1588   5.990   5.129   1.751
  528TIP3   OH2 1589   4.808   5.389   1.090
  528TIP3    H1 1590   4.863   5.465   1.103
  528TIP3    H2 1591   4.795   5.384   0.996
  529TIP3   OH2 1592   2.144   0.156   0.092
  529TIP3    H1 1593   2.117   0.215   0.022
  529TIP3    H2 1594   2.232   0.128   0.067
  530TIP3   OH2 1595   1.820   2.134   0.889
  530TIP3    H1 1596   1.850   2.191   0.960
  530TIP3    H2 1597   1.836   2.185   0.810
  531TIP3   OH2 1598   5.658   0.428   0.330
  531TIP3    H1 1599   5.733   0.369   0.317
  531TIP3    H2 1600   5.680   0.477   0.409
  532TIP3   OH2 1601   4.882   0.285   5.108
  532TIP3    H1 1602   4.931   0.203   5.120
  532TIP3    H2 1603   4.791   0.257   5.103
  533TIP3   OH2 1604   4.880   1.144   4.532
  533TIP3    H1 1605   4.894   1.170   4.623
  533TIP3    H2 1606   4.904   1.051   4.530
  534TIP3   OH2 1607   6.048   0.517   1.735
  534TIP3    H1 1608   6.062   0.610   1.755
  534TIP3    H2 1609   5.986   0.517   1.662
  535TIP3   OH2 1610   4.232   2.641   4.908
  535TIP3    H1 1611   4.276   2.675   4.829
  535TIP3    H2 1612   4.163   2.585   4.874
  536TIP3   OH2 1613   2.499   4.807   3.527
  536TIP3    H1 1614   2.455   4.726   3.499
  536TIP3    H2 1615   2.449   4.877   3.486
  537TIP3   OH2 1616   4.281   4.870   1.333
  537TIP3    H1 1617   4.290   4.780   1.365
  537TIP3    H2 1618   4.256   4.860   1.241
  538TIP3   OH2 1619   0.525   1.315   2.548
  538TIP3    H1 1620   0.600   1.362   2.512
  538TIP3    H2 1621   0.490   1.265   2.475
  539TIP3   OH2 1622   0.666   2.203   3.231
  539TIP3    H1 1623   0.632   2.225   3.318
  539TIP3    H2 1624   0.650   2.109   3.222
  540TIP3   OH2 1625   0.493   2.009   1.242
  540TIP3    H1 1626   0.402   2.004   1.212
  540TIP3    H2 1627   0.529   2.085   1.197
  541TIP3   OH2 1628   3.559   2.724   0.795
  541TIP3    H1 1629   3.487   2.713   0.857
  541TIP3    H2 1630   3.612   2.794   0.833
  542TIP3   OH2 1631   2.279   5.409   3.192
  542TIP3    H1 1632   2.237   5.458   3.263
  542TIP3    H2 1633   2.297   5.474   3.125
  543TIP3   OH2 1634   1.091   3.449   5.071
  543TIP3    H1 1635   1.098   3.497   5.153
  543TIP3    H2 1636   1.096   3.357   5.097
  544TIP3   OH2 1637   0.490   2.733   2.386
  544TIP3    H1 1638   0.565   2.720   2.327
  544TIP3    H2 1639   0.418   2.685   2.345
  545TIP3   OH2 1640   5.133   4.490   3.477
  545TIP3    H1 1641   5.068   4.536   3.530
  545TIP3    H2 1642   5.120   4.525   3.388
  546TIP3   OH2 1643   3.333   0.152   2.748
  546TIP3    H1 1644   3.393   0.208   2.698
  546TIP3    H2 1645   3.340   0.066   2.706
  547TIP3   OH2 1646   6.166   4.874   2.094
  547TIP3    H1 1647   6.224   4.950   2.108
  547TIP3    H2 1648   6.084   4.898   2.137
  548TIP3   OH2 1649   2.504   1.211   0.181
  548TIP3    H1 1650   2.560   1.260   0.241
  548TIP3    H2 1651   2.451   1.154   0.237
  549TIP3   OH2 1652   4.150   4.346   4.337
  549TIP3    H1 1653   4.224   4.317   4.390
  549TIP3    H2 1654   4.079   4.286   4.359
  550TIP3   OH2 1655   6.199   4.299   1.946
  550TIP3    H1 1656   6.109   4.288   1.915
  550TIP3    H2 1657   6.212   4.394   1.950
  551TIP3   OH2 1658   3.437   1.106   3.415
  551TIP3    H1 1659   3.496   1.104   3.339
  551TIP3    H2 1660   3.463   1.184   3.464
  552TIP3   OH2 1661   5.202   4.968   1.118
  552TIP3    H1 1662   5.196   4.995   1.210
  552TIP3    H2 1663   5.116   4.932   1.098
  553TIP3   OH2 1664   3.932   2.987   4.377
  553TIP3    H1 1665   3.976   3.069   4.353
  553TIP3    H2 1666   3.951   2.976   4.470
  554TIP3   OH2 1667   0.090   1.783   2.660
  554TIP3    H1 1668   0.141   1.741   2.729
  554TIP3    H2 1669   0.054   1.711   2.609
  555TIP3   OH2 1670   0.589   3.639   0.416
  555TIP3    H1 1671   0.571   3.630   0.510
  555TIP3    H2 1672   0.550   3.561   0.377
  556TIP3   OH2 1673   5.853   3.522   4.401
  556TIP3    H1 1674   5.864   3.465   4.324
  556TIP3    H2 1675   5.901   3.602   4.379
  557TIP3   OH2 1676   0.578   3.476   4.053
  557TIP3    H1 1677   0.584   3.569   4.032
  557TIP3    H2 1678   0.645   3.435   3.998
  558TIP3   OH2 1679   3.235   3.610   4.720
  558TIP3    H1 1680   3.190   3.535   4.681
  558TIP3    H2 1681   3.171   3.681   4.715
  559TIP3   OH2 1682   2.309   4.456   4.179
  559TIP3    H1 1683   2.328   4.519   4.248
  559TIP3    H2 1684   2.243   4.498   4.125
  560TIP3   OH2 1685   0.620   2.179   4.988
  560TIP3    H1 1686   0.685   2.125   4.944
  560TIP3    H2 1687   0.559   2.204   4.918
  561TIP3   OH2 1688   3.487   4.660   3.383
  561TIP3    H1 1689   3.527   4.669   3.469
  561TIP3    H2 1690   3.558   4.678   3.321
  562TIP3   OH2 1691   4.934   1.028   2.367
  562TIP3    H1 1692   4.862   0.966   2.379
  562TIP3    H2 1693   4.985   1.020   2.448
  563TIP3   OH2 1694   5.851   0.419   0.008
  563TIP3    H1 1695   5.926   0.466  -0.028
  563TIP3    H2 1696   5.879   0.390   0.095
  564TIP3   OH2 1697   4.185   4.037   1.950
  564TIP3    H1 1698   4.235   3.981   2.010
  564TIP3    H2 1699   4.241   4.112   1.934
  565TIP3   OH2 1700   5.592   4.365   3.682
  565TIP3    H1 1701   5.642   4.321   3.751
  565TIP3    H2 1702   5.527   4.301   3.655
  566TIP3   OH2 1703   0.951   2.989   1.294
  566TIP3    H1 1704   0.955   2.927   1.367
  566TIP3    H2 1705   0.957   3.075   1.334
  567TIP3   OH2 1706   0.353   1.071   0.903
  567TIP3    H1 1707   0.405   1.090   0.825
  567TIP3    H2 1708   0.350   0.975   0.907
  568TIP3   OH2 1709   0.264   1.242   1.869
  568TIP3    H1 1710   0.180   1.233   1.824
  568TIP3    H2 1711   0.318   1.172   1.832
  569TIP3   OH2 1712   2.970   0.879   2.645
  569TIP3    H1 1713   2.896   0.935   2.667
  569TIP3    H2 1714   2.984   0.893   2.551
  570TIP3   OH2 1715   3.025   5.651   1.346
  570TIP3    H1 1716   3.007   5.568   1.301
  570TIP3    H2 1717   2.951   5.706   1.323
  571TIP3   OH2 1718   3.373   4.159   3.759
  571TIP3    H1 1719   3.371   4.216   3.835
  571TIP3    H2 1720   3.331   4.078   3.789
  572TIP3   OH2 1721   1.576   0.188   5.159
  572TIP3    H1 1722   1.646   0.125   5.148
  572TIP3    H2 1723   1.500   0.137   5.186
  573TIP3   OH2 1724   5.050   3.113   0.026
  573TIP3    H1 1725   5.118   3.154  -0.026
  573TIP3    H2 1726   4.987   3.079  -0.038
  574TIP3   OH2 1727   1.143   4.127   3.741
  574TIP3    H1 1728   1.202   4.161   3.674
  574TIP3    H2 1729   1.175   4.038   3.759
  575TIP3   OH2 1730   1.891   0.697   2.215
  575TIP3    H1 1731   1.870   0.712   2.123
  575TIP3    H2 1732   1.985   0.713   2.221
  576TIP3   OH2 1733   3.656   0.742   5.038
  576TIP3    H1 1734   3.597   0.751   5.113
  576TIP3    H2 1735   3.598   0.738   4.962
  577TIP3   OH2 1736   4.670   1.796   1.594
  577TIP3    H1 1737   4.753   1.815   1.636
  577TIP3    H2 1738   4.693   1.749   1.514
  578TIP3   OH2 1739   1.643   4.945   2.545
  578TIP3    H1 1740   1.572   4.906   2.596
  578TIP3    H2 1741   1.603   4.966   2.460
  579TIP3   OH2 1742   4.812   4.943   5.158
  579TIP3    H1 1743   4.775   5.026   5.189
  579TIP3    H2 1744   4.741   4.901   5.110
  580TIP3   OH2 1745   5.589   3.867   4.685
  580TIP3    H1 1746   5.513   3.842   4.738
  580TIP3    H2 1747   5.613   3.787   4.639
  581TIP3   OH2 1748   5.263   1.951   3.981
  581TIP3    H1 1749   5.294   2.017   3.919
  581TIP3    H2 1750   5.171   1.974   3.995
  582TIP3   OH2 1751   5.476   2.240   4.876
  582TIP3    H1 1752   5.528   2.250   4.797
  582TIP3    H2 1753   5.518   2.298   4.940
  583TIP3   OH2 1754   4.020   0.218   0.179
  583TIP3    H1 1755   4.055   0.301   0.211
  583TIP3    H2 1756   4.092   0.178   0.132
  584TIP3   OH2 1757   3.701   2.997   1.313
  584TIP3    H1 1758   3.670   3.086   1.301
  584TIP3    H2 1759   3.794   3.000   1.292
  585TIP3   OH2 1760   5.924   5.632   4.094
  585TIP3    H1 1761   5.888   5.638   4.005
  585TIP3    H2 1762   5.851   5.656   4.151
  586TIP3   OH2 1763   4.558   1.371   0.065
  586TIP3    H1 1764   4.477   1.366   0.013
  586TIP3    H2 1765   4.547   1.450   0.118
  587TIP3   OH2 1766   5.142   1.343   1.413
  587TIP3    H1 1767   5.086   1.367   1.487
  587TIP3    H2 1768   5.111   1.256   1.387
  588TIP3   OH2 1769   0.135   1.275   1.416
  588TIP3    H1 1770   0.060   1.219   1.436
  588TIP3    H2 1771   0.121   1.302   1.325
  589TIP3   OH2 1772   2.758   4.754   1.956
  589TIP3    H1 1773   2.723   4.818   2.018
  589TIP3    H2 1774   2.727   4.670   1.989
  590TIP3   OH2 1775   2.397   2.152   1.038
  590TIP3    H1 1776   2.472   2.202   1.007
  590TIP3    H2 1777   2.407   2.066   0.996
  591TIP3   OH2 1778   2.415   0.661   1.323
  591TIP3    H1 1779   2.355   0.721   1.279
  591TIP3    H2 1780   2.493   0.714   1.342
  592TIP3   OH2 1781   5.166   0.440   4.342
  592TIP3    H1 1782   5.106   0.377   4.380
  592TIP3    H2 1783   5.166   0.421   4.248
  593TIP3   OH2 1784   3.651   1.587   0.865
  593TIP3    H1 1785   3.681   1.674   0.892
  593TIP3    H2 1786   3.701   1.568   0.786
  594TIP3   OH2 1787   3.558   4.421   0.576
  594TIP3    H1 1788   3.639   4.470   0.593
  594TIP3    H2 1789   3.516   4.468   0.503
  595TIP3   OH2 1790   5.531   4.632   4.580
  595TIP3    H1 1791   5.446   4.659   4.544
  595TIP3    H2 1792   5.535   4.538   4.565
  596TIP3   OH2 1793   0.679   3.034   1.220
  596TIP3    H1 1794   0.628   2.979   1.279
  596TIP3    H2 1795   0.769   3.029   1.255
  597TIP3   OH2 1796   6.061   0.683   0.438
  597TIP3    H1 1797   6.084   0.761   0.387
  597TIP3    H2 1798   6.096   0.702   0.526
  598TIP3   OH2 1799   4.507   4.872   1.964
  598TIP3    H1 1800   4.470   4.941   2.019
  598TIP3    H2 1801   4.549   4.812   2.026
  599TIP3   OH2 1802   5.777   3.993   0.075
  599TIP3    H1 1803   5.732   3.908   0.079
  599TIP3    H2 1804   5.786   4.011  -0.019
  600TIP3   OH2 1805   4.563   3.297   2.135
  600TIP3    H1 1806   4.592   3.305   2.226
  600TIP3    H2 1807   4.500   3.225   2.137
  601TIP3   OH2 1808   5.243   0.187   5.137
  601TIP3    H1 1809   5.248   0.172   5.042
  601TIP3    H2 1810   5.170   0.133   5.167
  602TIP3   OH2 1811   0.040   0.078   0.920
  602TIP3    H1 1812  -0.029   0.121   0.868
  602TIP3    H2 1813  -0.008   0.027   0.985
  603TIP3   OH2 1814   2.176   1.855   3.497
  603TIP3    H1 1815   2.144   1.823   3.582
  603TIP3    H2 1816   2.100   1.896   3.457
  604TIP3   OH2 1817   4.778   3.837   4.327
  604TIP3    H1 1818   4.779   3.930   4.302
  604TIP3    H2 1819   4.702   3.829   4.385
  605TIP3   OH2 1820   1.304   4.128   3.459
  605TIP3    H1 1821   1.378   4.090   3.411
  605TIP3    H2 1822   1.327   4.221   3.467
  606TIP3   OH2 1823   0.836   3.156   5.034
  606TIP3    H1 1824   0.792   3.169   5.118
  606TIP3    H2 1825   0.925   3.186   5.049
  607TIP3   OH2 1826   5.396   1.855   0.486
  607TIP3    H1 1827   5.429   1.772   0.520
  607TIP3    H2 1828   5.382   1.840   0.393
  608TIP3   OH2 1829   3.305   1.342   1.108
  608TIP3    H1 1830   3.219   1.374   1.133
  608TIP3    H2 1831   3.349   1.418   1.070
  609TIP3   OH2 1832   4.323   2.228   2.326
  609TIP3    H1 1833   4.286   2.311   2.357
  609TIP3    H2 1834   4.351   2.246   2.237
  610TIP3   OH2 1835   5.630   4.363   1.222
  610TIP3    H1 1836   5.703   4.421   1.201
  610TIP3    H2 1837   5.555   4.420   1.234
  611TIP3   OH2 1838   6.023   2.322   1.332
  611TIP3    H1 1839   5.964   2.247   1.339
  611TIP3    H2 1840   6.051   2.321   1.240
  612TIP3   OH2 1841   3.252   1.946   0.540
  612TIP3    H1 1842   3.205   1.944   0.457
  612TIP3    H2 1843   3.343   1.929   0.516
  613TIP3   OH2 1844   4.432   1.438   2.379
  613TIP3    H1 1845   4.413   1.348   2.406
  613TIP3    H2 1846   4.497   1.469   2.441
  614TIP3   OH2 1847   3.110   5.073   2.101
  614TIP3    H1 1848   3.160   5.009   2.050
  614TIP3    H2 1849   3.081   5.138   2.037
  615TIP3   OH2 1850   2.684   5.576   3.565
  615TIP3    H1 1851   2.762   5.529   3.594
  615TIP3    H2 1852   2.614   5.511   3.568
  616TIP3   OH2 1853   6.272   0.025   1.567
  616TIP3    H1 1854   6.331  -0.026   1.622
  616TIP3    H2 1855   6.251   0.102   1.620
  617TIP3   OH2 1856   2.660   1.024   2.424
  617TIP3    H1 1857   2.708   1.028   2.507
  617TIP3    H2 1858   2.623   0.936   2.422
  618TIP3   OH2 1859   0.846   3.361   1.923
  618TIP3    H1 1860   0.866   3.268   1.933
  618TIP3    H2 1861   0.928   3.400   1.894
  619TIP3   OH2 1862   0.573   5.084   3.247
  619TIP3    H1 1863   0.633   5.156   3.263
  619TIP3    H2 1864   0.626   5.005   3.262
  620TIP3   OH2 1865   5.125   1.209   3.532
  620TIP3    H1 1866   5.158   1.269   3.598
  620TIP3    H2 1867   5.148   1.122   3.565
  621TIP3   OH2 1868   4.359   2.296   1.449
  621TIP3    H1 1869   4.302   2.306   1.373
  621TIP3    H2 1870   4.383   2.204   1.450
  622TIP3   OH2 1871   1.538   5.668   0.760
  622TIP3    H1 1872   1.508   5.717   0.684
  622TIP3    H2 1873   1.458   5.633   0.800
  623TIP3   OH2 1874   5.269   3.644   0.508
  623TIP3    H1 1875   5.344   3.610   0.555
  623TIP3    H2 1876   5.218   3.692   0.574
  624TIP3   OH2 1877   2.287   3.868   5.183
  624TIP3    H1 1878   2.268   3.894   5.093
  624TIP3    H2 1879   2.306   3.774   5.178
  625TIP3   OH2 1880   2.340   2.237   2.313
  625TIP3    H1 1881   2.412   2.291   2.282
  625TIP3    H2 1882   2.382   2.156   2.342
  626TIP3   OH2 1883   1.405   1.713   4.286
  626TIP3    H1 1884   1.312   1.706   4.267
  626TIP3    H2 1885   1.410   1.768   4.364
  627TIP3   OH2 1886   3.815   0.177   2.490
  627TIP3    H1 1887   3.745   0.201   2.430
  627TIP3    H2 1888   3.831   0.084   2.474
  628TIP3   OH2 1889   5.536   2.727   4.354
  628TIP3    H1 1890   5.594   2.723   4.430
  628TIP3    H2 1891   5.493   2.642   4.352
  629TIP3   OH2 1892   4.629   4.892   0.584
  629TIP3    H1 1893   4.695   4.917   0.519
  629TIP3    H2 1894   4.592   4.810   0.549
  630TIP3   OH2 1895   6.312   3.532   4.079
  630TIP3    H1 1896   6.352   3.496   4.158
  630TIP3    H2 1897   6.377   3.594   4.046
  631TIP3   OH2 1898   6.087   2.298   3.833
  631TIP3    H1 1899   6.112   2.231   3.769
  631TIP3    H2 1900   6.168   2.346   3.851
  632TIP3   OH2 1901   4.328   3.301   4.440
  632TIP3    H1 1902   4.287   3.215   4.434
  632TIP3    H2 1903   4.419   3.283   4.461
  633TIP3   OH2 1904   4.842   1.579   0.984
  633TIP3    H1 1905   4.903   1.584   0.910
  633TIP3    H2 1906   4.767   1.632   0.957
  634TIP3   OH2 1907   2.803   3.357   0.615
  634TIP3    H1 1908   2.758   3.275   0.635
  634TIP3    H2 1909   2.872   3.363   0.682
  635TIP3   OH2 1910   3.295   3.070   3.029
  635TIP3    H1 1911   3.251   2.993   3.065
  635TIP3    H2 1912   3.287   3.136   3.098
  636TIP3   OH2 1913   2.396   1.721   0.486
  636TIP3    H1 1914   2.354   1.646   0.443
  636TIP3    H2 1915   2.463   1.750   0.425
  637TIP3   OH2 1916   2.950   1.154   0.154
  637TIP3    H1 1917   2.978   1.197   0.074
  637TIP3    H2 1918   2.981   1.211   0.224
  638TIP3   OH2 1919   2.030   0.591   0.954
  638TIP3    H1 1920   2.025   0.507   1.000
  638TIP3    H2 1921   1.965   0.646   0.999
  639TIP3   OH2 1922   0.068   4.102   5.053
  639TIP3    H1 1923   0.037   4.015   5.028
  639TIP3    H2 1924   0.093   4.093   5.145
  640TIP3   OH2 1925   3.177   5.404   4.645
  640TIP3    H1 1926   3.262   5.398   4.687
  640TIP3    H2 1927   3.179   5.486   4.596
  641TIP3   OH2 1928   0.050   2.897   0.592
  641TIP3    H1 1929   0.086   2.824   0.642
  641TIP3    H2 1930  -0.041   2.903   0.619
  642TIP3   OH2 1931   6.182   1.369   3.727
  642TIP3    H1 1932   6.122   1.390   3.655
  642TIP3    H2 1933   6.222   1.452   3.751
  643TIP3   OH2 1934   6.223   1.274   0.052
  643TIP3    H1 1935   6.267   1.356   0.030
  643TIP3    H2 1936   6.278   1.235   0.120
  644TIP3   OH2 1937   2.589   4.842   4.621
  644TIP3    H1 1938   2.566   4.933   4.639
  644TIP3    H2 1939   2.507   4.794   4.630
  645TIP3   OH2 1940   2.839   3.691   1.032
  645TIP3    H1 1941   2.786   3.730   0.962
  645TIP3    H2 1942   2.929   3.694   0.999
  646TIP3   OH2 1943   4.356   3.881   2.704
  646TIP3    H1 1944   4.276   3.922   2.672
  646TIP3    H2 1945   4.420   3.952   2.705
  647TIP3   OH2 1946   6.334   5.979   1.897
  647TIP3    H1 1947   6.257   6.017   1.940
  647TIP3    H2 1948   6.341   5.891   1.934
  648TIP3   OH2 1949   4.497   1.645   5.053
  648TIP3    H1 1950   4.576   1.592   5.038
  648TIP3    H2 1951   4.442   1.627   4.976
  649TIP3   OH2 1952   1.866   1.907   2.975
  649TIP3    H1 1953   1.864   1.813   2.994
  649TIP3    H2 1954   1.928   1.915   2.902
  650TIP3   OH2 1955   6.286   2.398   1.002
  650TIP3    H1 1956   6.328   2.391   0.916
  650TIP3    H2 1957   6.332   2.334   1.057
  651TIP3   OH2 1958   5.991   4.729   4.536
  651TIP3    H1 1959   6.076   4.771   4.544
  651TIP3    H2 1960   5.973   4.728   4.442
  652TIP3   OH2 1961   4.452   2.732   4.164
  652TIP3    H1 1962   4.411   2.780   4.092
  652TIP3    H2 1963   4.445   2.640   4.139
  653TIP3   OH2 1964   0.089   1.587   3.113
  653TIP3    H1 1965   0.008   1.595   3.063
  653TIP3    H2 1966   0.159   1.596   3.048
  654TIP3   OH2 1967   3.686   5.825   1.105
  654TIP3    H1 1968   3.610   5.858   1.152
  654TIP3    H2 1969   3.651   5.759   1.046
  655TIP3   OH2 1970   3.859   2.925   1.651
  655TIP3    H1 1971   3.784   2.874   1.619
  655TIP3    H2 1972   3.933   2.865   1.644
  656TIP3   OH2 1973   3.122   3.333   4.645
  656TIP3    H1 1974   3.058   3.262   4.639
  656TIP3    H2 1975   3.195   3.305   4.591
  657TIP3   OH2 1976   4.582   0.819   3.441
  657TIP3    H1 1977   4.579   0.868   3.359
  657TIP3    H2 1978   4.675   0.802   3.456
  658TIP3   OH2 1979   4.739   5.079   0.147
  658TIP3    H1 1980   4.760   5.070   0.240
  658TIP3    H2 1981   4.816   5.045   0.102
  659TIP3   OH2 1982   5.053   0.693   0.931
  659TIP3    H1 1983   4.968   0.650   0.919
  659TIP3    H2 1984   5.098   0.640   0.997
  660TIP3   OH2 1985   3.639   2.467   2.233
  660TIP3    H1 1986   3.658   2.555   2.199
  660TIP3    H2 1987   3.610   2.482   2.323
  661TIP3   OH2 1988   3.649   5.121   2.225
  661TIP3    H1 1989   3.671   5.198   2.278
  661TIP3    H2 1990   3.676   5.046   2.279
  662TIP3   OH2 1991   3.611   1.290   2.502
  662TIP3    H1 1992   3.569   1.346   2.437
  662TIP3    H2 1993   3.658   1.224   2.451
  663TIP3   OH2 1994   3.404   3.895   1.474
  663TIP3    H1 1995   3.375   3.807   1.452
  663TIP3    H2 1996   3.447   3.928   1.395
  664TIP3   OH2 1997   2.961   2.986   0.492
  664TIP3    H1 1998   3.041   3.029   0.522
  664TIP3    H2 1999   2.965   2.899   0.530
  665TIP3   OH2 2000   5.657   1.554   1.187
  665TIP3    H1 2001   5.580   1.575   1.240
  665TIP3    H2 2002   5.715   1.630   1.198
  666TIP3   OH2 2003   2.329   0.920   0.075
  666TIP3    H1 2004   2.409   0.889   0.117
  666TIP3    H2 2005   2.275   0.954   0.147
  667TIP3   OH2 2006   1.421   0.337   2.021
  667TIP3    H1 2007   1.333   0.365   1.995
  667TIP3    H2 2008   1.455   0.411   2.072
  668TIP3   OH2 2009   6.038   3.718   4.409
  668TIP3    H1 2010   6.001   3.749   4.491
  668TIP3    H2 2011   6.133   3.723   4.422
  669TIP3   OH2 2012   6.162   2.026   1.465
  669TIP3    H1 2013   6.229   1.959   1.457
  669TIP3    H2 2014   6.190   2.080   1.539
  670TIP3   OH2 2015   3.650   3.750   1.067
  670TIP3    H1 2016   3.634   3.834   1.110
  670TIP3    H2 2017   3.568   3.729   1.023
  671TIP3   OH2 2018   2.788   3.601   0.449
  671TIP3    H1 2019   2.826   3.668   0.505
  671TIP3    H2 2020   2.858   3.537   0.437
  672TIP3   OH2 2021   4.806   5.957   5.094
  672TIP3    H1 2022   4.830   5.995   5.178
  672TIP3    H2 2023   4.824   6.026   5.030
  673TIP3   OH2 2024   1.337   2.958   4.095
  673TIP3    H1 2025   1.326   2.889   4.161
  673TIP3    H2 2026   1.427   2.947   4.064
  674TIP3   OH2 2027   5.984   1.801   4.914
  674TIP3    H1 2028   6.020   1.786   5.001
  674TIP3    H2 2029   5.902   1.847   4.930
  675TIP3   OH2 2030   6.111   5.814   4.251
  675TIP3    H1 2031   6.105   5.808   4.347
  675TIP3    H2 2032   6.042   5.756   4.219
  676TIP3   OH2 2033   3.842   4.649   0.892
  676TIP3    H1 2034   3.751   4.648   0.922
  676TIP3    H2 2035   3.893   4.669   0.970
  677TIP3   OH2 2036   5.071   3.023   0.345
  677TIP3    H1 2037   5.060   3.103   0.294
  677TIP3    H2 2038   5.166   3.009   0.347
  678TIP3   OH2 2039   5.530   0.427   3.102
  678TIP3    H1 2040   5.435   0.438   3.101
  678TIP3    H2 2041   5.563   0.502   3.053
  679TIP3   OH2 2042   2.567   3.532   0.161
  679TIP3    H1 2043   2.551   3.596   0.230
  679TIP3    H2 2044   2.514   3.562   0.088
  680TIP3   OH2 2045   2.768   1.315   0.557
  680TIP3    H1 2046   2.794   1.230   0.592
  680TIP3    H2 2047   2.847   1.370   0.566
  681TIP3   OH2 2048   5.658   5.732   2.729
  681TIP3    H1 2049   5.682   5.742   2.637
  681TIP3    H2 2050   5.737   5.758   2.777
  682TIP3   OH2 2051   0.922   0.872   3.515
  682TIP3    H1 2052   0.896   0.780   3.511
  682TIP3    H2 2053   1.011   0.871   3.549
  683TIP3   OH2 2054   4.043   4.072   2.946
  683TIP3    H1 2055   4.021   4.034   3.031
  683TIP3    H2 2056   4.082   4.157   2.966
  684TIP3   OH2 2057   2.586   2.856   2.399
  684TIP3    H1 2058   2.593   2.831   2.491
  684TIP3    H2 2059   2.499   2.896   2.392
  685TIP3   OH2 2060   4.351   4.284   3.855
  685TIP3    H1 2061   4.416   4.215   3.873
  685TIP3    H2 2062   4.303   4.294   3.937
  686TIP3   OH2 2063   5.977   5.033   4.204
  686TIP3    H1 2064   5.935   5.102   4.153
  686TIP3    H2 2065   5.970   5.063   4.295
  687TIP3   OH2 2066   4.595   3.637   3.672
  687TIP3    H1 2067   4.633   3.710   3.624
  687TIP3    H2 2068   4.502   3.638   3.647
  688TIP3   OH2 2069   2.434   4.934   2.782
  688TIP3    H1 2070   2.353   4.982   2.797
  688TIP3    H2 2071   2.409   4.863   2.723
  689TIP3   OH2 2072   4.021   5.255   4.845
  689TIP3    H1 2073   4.083   5.193   4.883
  689TIP3    H2 2074   3.937   5.208   4.845
  690TIP3   OH2 2075   3.470   2.975  -0.002
  690TIP3    H1 2076   3.454   2.928   0.079
  690TIP3    H2 2077   3.437   3.064   0.014
  691TIP3   OH2 2078   0.482   4.494   1.974
  691TIP3    H1 2079   0.410   4.524   2.029
  691TIP3    H2 2080   0.461   4.526   1.887
  692TIP3   OH2 2081   5.530   3.726   3.072
  692TIP3    H1 2082   5.593   3.779   3.023
  692TIP3    H2 2083   5.468   3.696   3.006
  693TIP3   OH2 2084   2.728   5.330   3.422
  693TIP3    H1 2085   2.692   5.346   3.335
  693TIP3    H2 2086   2.823   5.342   3.412
  694TIP3   OH2 2087   5.055   5.008   0.292
  694TIP3    H1 2088   5.134   5.012   0.238
  694TIP3    H2 2089   5.085   4.980   0.378
  695TIP3   OH2 2090   2.472   0.207   2.094
  695TIP3    H1 2091   2.497   0.281   2.149
  695TIP3    H2 2092   2.387   0.180   2.128
  696TIP3   OH2 2093   1.244   2.430   3.859
  696TIP3    H1 2094   1.270   2.486   3.786
  696TIP3    H2 2095   1.187   2.364   3.821
  697TIP3   OH2 2096   0.843   2.340   2.712
  697TIP3    H1 2097   0.930   2.379   2.707
  697TIP3    H2 2098   0.826   2.309   2.623
  698TIP3   OH2 2099   5.325   2.766   3.087
  698TIP3    H1 2100   5.355   2.717   3.163
  698TIP3    H2 2101   5.395   2.758   3.023
  699TIP3   OH2 2102   5.122   1.299   0.851
  699TIP3    H1 2103   5.101   1.345   0.932
  699TIP3    H2 2104   5.214   1.317   0.835
  700TIP3   OH2 2105   0.131   1.823   1.919
  700TIP3    H1 2106   0.151   1.911   1.887
  700TIP3    H2 2107   0.205   1.770   1.889
  701TIP3   OH2 2108   3.310   1.140   0.262
  701TIP3    H1 2109   3.244   1.196   0.302
  701TIP3    H2 2110   3.376   1.128   0.330
  702TIP3   OH2 2111   2.602   3.671   4.312
  702TIP3    H1 2112   2.653   3.686   4.392
  702TIP3    H2 2113   2.520   3.632   4.343
  703TIP3   OH2 2114   5.266   3.893   1.511
  703TIP3    H1 2115   5.197   3.938   1.464
  703TIP3    H2 2116   5.235   3.803   1.519
  704TIP3   OH2 2117   1.381   0.448   2.391
  704TIP3    H1 2118   1.427   0.383   2.338
  704TIP3    H2 2119   1.432   0.528   2.380
  705TIP3   OH2 2120   5.686   5.088   3.799
  705TIP3    H1 2121   5.715   5.174   3.829
  705TIP3    H2 2122   5.714   5.083   3.708
  706TIP3   OH2 2123   4.263   5.264   4.191
  706TIP3    H1 2124   4.211   5.344   4.193
  706TIP3    H2 2125   4.307   5.262   4.276
  707TIP3   OH2 2126   3.606   3.904   2.241
  707TIP3    H1 2127   3.553   3.827   2.265
  707TIP3    H2 2128   3.593   3.913   2.147
  708TIP3   OH2 2129   1.746   5.901   2.478
  708TIP3    H1 2130   1.793   5.838   2.532
  708TIP3    H2 2131   1.745   5.862   2.391
  709TIP3   OH2 2132   2.397   2.965   1.230
  709TIP3    H1 2133   2.367   3.011   1.309
  709TIP3    H2 2134   2.372   2.873   1.245
  710TIP3   OH2 2135   2.160   3.572   0.692
  710TIP3    H1 2136   2.207   3.646   0.730
  710TIP3    H2 2137   2.164   3.587   0.598
  711TIP3   OH2 2138   5.097   1.106   0.624
  711TIP3    H1 2139   5.081   1.138   0.713
  711TIP3    H2 2140   5.010   1.083   0.591
  712TIP3   OH2 2141   2.555   3.705   5.167
  712TIP3    H1 2142   2.574   3.789   5.124
  712TIP3    H2 2143   2.563   3.640   5.097
  713TIP3   OH2 2144   2.285   1.561   4.428
  713TIP3    H1 2145   2.232   1.635   4.457
  713TIP3    H2 2146   2.226   1.512   4.370
  714TIP3   OH2 2147   0.533   2.855   0.650
  714TIP3    H1 2148   0.496   2.781   0.602
  714TIP3    H2 2149   0.464   2.881   0.711
  715TIP3   OH2 2150   3.862   4.738   1.707
  715TIP3    H1 2151   3.849   4.791   1.628
  715TIP3    H2 2152   3.952   4.705   1.699
  716TIP3   OH2 2153   5.201   2.746   2.435
  716TIP3    H1 2154   5.278   2.696   2.462
  716TIP3    H2 2155   5.164   2.779   2.516
  717TIP3   OH2 2156   1.824   4.038   4.308
  717TIP3    H1 2157   1.874   4.013   4.386
  717TIP3    H2 2158   1.738   4.062   4.342
  718TIP3   OH2 2159   0.085   0.716   4.496
  718TIP3    H1 2160   0.150   0.674   4.553
  718TIP3    H2 2161   0.058   0.794   4.544
  719TIP3   OH2 2162   3.850   4.726   3.096
  719TIP3    H1 2163   3.889   4.639   3.088
  719TIP3    H2 2164   3.757   4.710   3.112
  720TIP3   OH2 2165   5.921   3.196   3.039
  720TIP3    H1 2166   5.913   3.287   3.068
  720TIP3    H2 2167   6.003   3.193   2.989
  721TIP3   OH2 2168   2.136   2.233   4.856
  721TIP3    H1 2169   2.208   2.275   4.903
  721TIP3    H2 2170   2.058   2.275   4.890
  722TIP3   OH2 2171   4.566   3.720   2.717
  722TIP3    H1 2172   4.548   3.644   2.662
  722TIP3    H2 2173   4.486   3.772   2.713
  723TIP3   OH2 2174   2.652   0.497   3.515
  723TIP3    H1 2175   2.652   0.564   3.447
  723TIP3    H2 2176   2.625   0.417   3.470
  724TIP3   OH2 2177   4.842   4.233   3.426
  724TIP3    H1 2178   4.817   4.174   3.497
  724TIP3    H2 2179   4.801   4.316   3.447
  725TIP3   OH2 2180   2.893   4.041   0.849
  725TIP3    H1 2181   2.874   4.064   0.940
  725TIP3    H2 2182   2.952   3.966   0.855
  726TIP3   OH2 2183   0.347   1.263   5.177
  726TIP3    H1 2184   0.400   1.342   5.190
  726TIP3    H2 2185   0.340   1.254   5.082
  727TIP3   OH2 2186   6.036   1.457   2.309
  727TIP3    H1 2187   5.960   1.456   2.250
  727TIP3    H2 2188   6.009   1.513   2.382
  728TIP3   OH2 2189   5.969   0.386   4.231
  728TIP3    H1 2190   5.889   0.339   4.206
  728TIP3    H2 2191   5.960   0.472   4.192
  729TIP3   OH2 2192   1.560   2.366   3.230
  729TIP3    H1 2193   1.600   2.305   3.292
  729TIP3    H2 2194   1.497   2.313   3.182
  730TIP3   OH2 2195   5.075   1.999   0.803
  730TIP3    H1 2196   5.145   1.983   0.740
  730TIP3    H2 2197   5.051   2.091   0.788
  731TIP3   OH2 2198   5.903   1.813   1.933
  731TIP3    H1 2199   5.916   1.788   2.024
  731TIP3    H2 2200   5.918   1.907   1.931
  732TIP3   OH2 2201   3.180   0.305   3.215
  732TIP3    H1 2202   3.217   0.275   3.132
  732TIP3    H2 2203   3.128   0.382   3.191
  733TIP3   OH2 2204   3.065   1.685   4.198
  733TIP3    H1 2205   3.040   1.626   4.268
  733TIP3    H2 2206   2.993   1.747   4.192
  734TIP3   OH2 2207   4.869   5.731   1.671
  734TIP3    H1 2208   4.879   5.680   1.751
  734TIP3    H2 2209   4.952   5.778   1.662
  735TIP3   OH2 2210   5.701   3.136   0.669
  735TIP3    H1 2211   5.622   3.188   0.655
  735TIP3    H2 2212   5.772   3.193   0.637
  736TIP3   OH2 2213   4.186   0.920   3.055
  736TIP3    H1 2214   4.239   0.863   3.111
  736TIP3    H2 2215   4.156   0.989   3.114
  737TIP3   OH2 2216   5.342   5.100   4.197
  737TIP3    H1 2217   5.401   5.068   4.129
  737TIP3    H2 2218   5.380   5.068   4.279
  738TIP3   OH2 2219   2.888   1.341   4.343
  738TIP3    H1 2220   2.812   1.284   4.361
  738TIP3    H2 2221   2.855   1.429   4.361
  739TIP3   OH2 2222   3.031   4.898   3.710
  739TIP3    H1 2223   2.976   4.976   3.704
  739TIP3    H2 2224   2.981   4.836   3.763
  740TIP3   OH2 2225   2.270   5.384   4.866
  740TIP3    H1 2226   2.282   5.317   4.933
  740TIP3    H2 2227   2.185   5.365   4.828
  741TIP3   OH2 2228   2.566   2.776   4.212
  741TIP3    H1 2229   2.649   2.740   4.244
  741TIP3    H2 2230   2.557   2.741   4.123
  742TIP3   OH2 2231   5.934   4.262   2.152
  742TIP3    H1 2232   5.964   4.172   2.159
  742TIP3    H2 2233   6.012   4.315   2.171
  743TIP3   OH2 2234   1.432   3.597   5.166
  743TIP3    H1 2235   1.490   3.521   5.175
  743TIP3    H2 2236   1.344   3.561   5.177
  744TIP3   OH2 2237   6.293   0.692   3.508
  744TIP3    H1 2238   6.251   0.768   3.467
  744TIP3    H2 2239   6.246   0.681   3.590
  745TIP3   OH2 2240   0.038   3.153   0.055
  745TIP3    H1 2241   0.111   3.215   0.056
  745TIP3    H2 2242   0.001   3.161  -0.033
  746TIP3   OH2 2243   1.050   0.338   0.645
  746TIP3    H1 2244   1.080   0.413   0.696
  746TIP3    H2 2245   0.998   0.375   0.574
  747TIP3   OH2 2246   5.579   0.547   2.515
  747TIP3    H1 2247   5.581   0.474   2.577
  747TIP3    H2 2248   5.509   0.524   2.454
  748TIP3   OH2 2249   3.422   1.109   0.997
  748TIP3    H1 2250   3.392   1.185   1.047
  748TIP3    H2 2251   3.487   1.144   0.936
  749TIP3   OH2 2252   1.254   2.047   4.160
  749TIP3    H1 2253   1.234   2.023   4.250
  749TIP3    H2 2254   1.297   2.132   4.166
  750TIP3   OH2 2255   4.042   4.532   2.228
  750TIP3    H1 2256   4.103   4.540   2.155
  750TIP3    H2 2257   3.971   4.477   2.194
  751TIP3   OH2 2258   3.637   5.051   4.215
  751TIP3    H1 2259   3.620   5.020   4.126
  751TIP3    H2 2260   3.574   5.003   4.270
  752TIP3   OH2 2261   2.172   1.136   4.843
  752TIP3    H1 2262   2.125   1.127   4.759
  752TIP3    H2 2263   2.181   1.046   4.874
  753TIP3   OH2 2264   0.001   1.293   2.078
  753TIP3    H1 2265   0.078   1.343   2.103
  753TIP3    H2 2266  -0.029   1.334   1.997
  754TIP3   OH2 2267   3.815   5.765   1.678
  754TIP3    H1 2268   3.891   5.796   1.629
  754TIP3    H2 2269   3.850   5.743   1.765
  755TIP3   OH2 2270   2.805   0.243   1.999
  755TIP3    H1 2271   2.779   0.220   2.089
  755TIP3    H2 2272   2.901   0.238   2.000
  756TIP3   OH2 2273   0.799   5.370   2.603
  756TIP3    H1 2274   0.728   5.356   2.541
  756TIP3    H2 2275   0.775   5.318   2.680
  757TIP3   OH2 2276   2.956   3.870   2.736
  757TIP3    H1 2277   2.976   3.789   2.689
  757TIP3    H2 2278   2.954   3.937   2.668
  758TIP3   OH2 2279   5.742   0.171   1.071
  758TIP3    H1 2280   5.695   0.216   1.142
  758TIP3    H2 2281   5.763   0.085   1.107
  759TIP3   OH2 2282   2.513   3.426   4.067
  759TIP3    H1 2283   2.559   3.376   4.134
  759TIP3    H2 2284   2.439   3.466   4.112
  760TIP3   OH2 2285   4.254   5.403   0.243
  760TIP3    H1 2286   4.242   5.497   0.258
  760TIP3    H2 2287   4.323   5.396   0.178
  761TIP3   OH2 2288   5.684   4.120   0.545
  761TIP3    H1 2289   5.690   4.138   0.638
  761TIP3    H2 2290   5.704   4.203   0.502
  762TIP3   OH2 2291   0.644   2.434   0.780
  762TIP3    H1 2292   0.549   2.441   0.776
  762TIP3    H2 2293   0.675   2.524   0.776
  763TIP3   OH2 2294   1.588   0.542   1.399
  763TIP3    H1 2295   1.627   0.581   1.478
  763TIP3    H2 2296   1.507   0.591   1.386
  764TIP3   OH2 2297   0.745   3.416   2.660
  764TIP3    H1 2298   0.654   3.410   2.686
  764TIP3    H2 2299   0.749   3.378   2.572
  765TIP3   OH2 2300   5.155   0.212   2.467
  765TIP3    H1 2301   5.183   0.151   2.534
  765TIP3    H2 2302   5.207   0.189   2.390
  766TIP3   OH2 2303   0.370   2.880   3.875
  766TIP3    H1 2304   0.390   2.844   3.789
  766TIP3    H2 2305   0.456   2.897   3.914
  767TIP3   OH2 2306   0.920   1.410   2.002
  767TIP3    H1 2307   0.933   1.382   2.093
  767TIP3    H2 2308   0.831   1.383   1.981
  768TIP3   OH2 2309   0.794   1.092   2.426
  768TIP3    H1 2310   0.860   1.081   2.494
  768TIP3    H2 2311   0.784   1.187   2.418
  769TIP3   OH2 2312   5.485   1.035   3.206
  769TIP3    H1 2313   5.517   1.116   3.167
  769TIP3    H2 2314   5.557   0.973   3.195
  770TIP3   OH2 2315   5.974   1.203   3.465
  770TIP3    H1 2316   6.044   1.262   3.436
  770TIP3    H2 2317   5.918   1.257   3.521
  771TIP3   OH2 2318   0.881   0.420   1.610
  771TIP3    H1 2319   0.854   0.332   1.636
  771TIP3    H2 2320   0.803   0.474   1.621
  772TIP3   OH2 2321   1.699   2.961   2.192
  772TIP3    H1 2322   1.608   2.991   2.186
  772TIP3    H2 2323   1.749   3.039   2.214
  773TIP3   OH2 2324   5.105   5.352   3.577
  773TIP3    H1 2325   5.010   5.354   3.561
  773TIP3    H2 2326   5.121   5.425   3.637
  774TIP3   OH2 2327   5.212   3.700   2.473
  774TIP3    H1 2328   5.196   3.684   2.565
  774TIP3    H2 2329   5.300   3.664   2.457
  775TIP3   OH2 2330   4.633   3.957   1.548
  775TIP3    H1 2331   4.554   3.972   1.495
  775TIP3    H2 2332   4.670   4.044   1.561
  776TIP3   OH2 2333   0.739   0.757   2.991
  776TIP3    H1 2334   0.827   0.793   2.989
  776TIP3    H2 2335   0.692   0.807   2.924
  777TIP3   OH2 2336   3.635   5.491   1.982
  777TIP3    H1 2337   3.638   5.575   2.028
  777TIP3    H2 2338   3.585   5.433   2.040
  778TIP3   OH2 2339   0.171   0.401   1.274
  778TIP3    H1 2340   0.232   0.331   1.252
  778TIP3    H2 2341   0.098   0.358   1.319
  779TIP3   OH2 2342   4.550   1.113   0.113
  779TIP3    H1 2343   4.510   1.069   0.187
  779TIP3    H2 2344   4.508   1.199   0.110
  780TIP3   OH2 2345   4.311   0.294   2.490
  780TIP3    H1 2346   4.355   0.209   2.499
  780TIP3    H2 2347   4.294   0.303   2.397
  781TIP3   OH2 2348   1.807   3.951   2.781
  781TIP3    H1 2349   1.868   3.969   2.852
  781TIP3    H2 2350   1.720   3.954   2.822
  782TIP3   OH2 2351   3.704   3.426   2.431
  782TIP3    H1 2352   3.668   3.338   2.446
  782TIP3    H2 2353   3.771   3.413   2.365
  783TIP3   OH2 2354   3.175   4.444   3.820
  783TIP3    H1 2355   3.191   4.393   3.741
  783TIP3    H2 2356   3.080   4.443   3.832
  784TIP3   OH2 2357   2.827   4.773   4.539
  784TIP3    H1 2358   2.735   4.794   4.557
  784TIP3    H2 2359   2.876   4.846   4.576
  785TIP3   OH2 2360   6.190   5.899   3.397
  785TIP3    H1 2361   6.278   5.938   3.400
  785TIP3    H2 2362   6.181   5.866   3.308
  786TIP3   OH2 2363   0.555   5.972   0.762
  786TIP3    H1 2364   0.478   5.959   0.707
  786TIP3    H2 2365   0.561   5.893   0.815
  787TIP3   OH2 2366   4.882   1.342   1.863
  787TIP3    H1 2367   4.900   1.296   1.781
  787TIP3    H2 2368   4.847   1.275   1.921
  788TIP3   OH2 2369   4.814   0.736   0.528
  788TIP3    H1 2370   4.893   0.686   0.549
  788TIP3    H2 2371   4.842   0.828   0.533
  789TIP3   OH2 2372   4.955   5.864   2.448
  789TIP3    H1 2373   4.873   5.914   2.451
  789TIP3    H2 2374   4.999   5.896   2.369
  790TIP3   OH2 2375   5.723   0.500   1.187
  790TIP3    H1 2376   5.663   0.441   1.232
  790TIP3    H2 2377   5.669   0.574   1.161
  791TIP3   OH2 2378   1.396   4.251   4.873
  791TIP3    H1 2379   1.402   4.217   4.963
  791TIP3    H2 2380   1.306   4.281   4.865
  792TIP3   OH2 2381   5.254   2.893   4.119
  792TIP3    H1 2382   5.304   2.869   4.041
  792TIP3    H2 2383   5.201   2.967   4.092
  793TIP3   OH2 2384   0.935   2.155   1.837
  793TIP3    H1 2385   0.914   2.069   1.873
  793TIP3    H2 2386   0.980   2.201   1.908
  794TIP3   OH2 2387   0.691   5.664   3.249
  794TIP3    H1 2388   0.764   5.661   3.310
  794TIP3    H2 2389   0.730   5.645   3.164
  795TIP3   OH2 2390   3.375   3.207   0.055
  795TIP3    H1 2391   3.393   3.284   0.001
  795TIP3    H2 2392   3.351   3.243   0.141
  796TIP3   OH2 2393   0.541   5.577   4.138
  796TIP3    H1 2394   0.613   5.579   4.201
  796TIP3    H2 2395   0.560   5.650   4.078
  797TIP3   OH2 2396   2.606   5.885   1.951
  797TIP3    H1 2397   2.646   5.817   2.004
  797TIP3    H2 2398   2.579   5.952   2.014
  798TIP3   OH2 2399   6.255   4.641   2.723
  798TIP3    H1 2400   6.224   4.725   2.757
  798TIP3    H2 2401   6.316   4.609   2.789
  799TIP3   OH2 2402   5.228   0.417   0.949
  799TIP3    H1 2403   5.323   0.408   0.958
  799TIP3    H2 2404   5.210   0.391   0.859
  800TIP3   OH2 2405   0.858   5.562   0.329
  800TIP3    H1 2406   0.947   5.541   0.300
  800TIP3    H2 2407   0.850   5.520   0.414
  801TIP3   OH2 2408   5.063   5.178   3.279
  801TIP3    H1 2409   5.152   5.187   3.315
  801TIP3    H2 2410   5.035   5.091   3.307
  802TIP3   OH2 2411   3.124   5.907   1.937
  802TIP3    H1 2412   3.166   5.992   1.946
  802TIP3    H2 2413   3.180   5.847   1.987
  803TIP3   OH2 2414   5.428   4.763   1.028
  803TIP3    H1 2415   5.334   4.775   1.025
  803TIP3    H2 2416   5.446   4.692   0.966
  804TIP3   OH2 2417   1.390   4.228   1.788
  804TIP3    H1 2418   1.301   4.207   1.759
  804TIP3    H2 2419   1.379   4.307   1.841
  805TIP3   OH2 2420   5.241   4.714   0.776
  805TIP3    H1 2421   5.240   4.633   0.828
  805TIP3    H2 2422   5.327   4.714   0.734
  806TIP3   OH2 2423   5.425   1.384   2.508
  806TIP3    H1 2424   5.388   1.299   2.531
  806TIP3    H2 2425   5.466   1.415   2.589
  807TIP3   OH2 2426   3.514   1.818   1.259
  807TIP3    H1 2427   3.595   1.788   1.217
  807TIP3    H2 2428   3.469   1.866   1.190
  808TIP3   OH2 2429   0.470   1.029   1.912
  808TIP3    H1 2430   0.531   1.102   1.908
  808TIP3    H2 2431   0.433   1.032   2.000
  809TIP3   OH2 2432   1.150   1.305   3.575
  809TIP3    H1 2433   1.147   1.250   3.653
  809TIP3    H2 2434   1.073   1.360   3.581
  810TIP3   OH2 2435   2.586   0.648   4.061
  810TIP3    H1 2436   2.497   0.618   4.079
  810TIP3    H2 2437   2.596   0.638   3.966
  811TIP3   OH2 2438   6.301   4.633   2.230
  811TIP3    H1 2439   6.368   4.603   2.169
  811TIP3    H2 2440   6.234   4.672   2.175
  812TIP3   OH2 2441   5.123   4.146   2.165
  812TIP3    H1 2442   5.181   4.072   2.180
  812TIP3    H2 2443   5.163   4.218   2.212
  813TIP3   OH2 2444   4.954   4.508   2.036
  813TIP3    H1 2445   4.976   4.597   2.010
  813TIP3    H2 2446   5.024   4.482   2.096
  814TIP3   OH2 2447   1.325   2.978   2.620
  814TIP3    H1 2448   1.368   3.055   2.582
  814TIP3    H2 2449   1.273   3.013   2.693
  815TIP3   OH2 2450   0.884   0.945   1.288
  815TIP3    H1 2451   0.832   1.004   1.343
  815TIP3    H2 2452   0.820   0.893   1.240
  816TIP3   OH2 2453   5.463   0.503   0.143
  816TIP3    H1 2454   5.537   0.502   0.204
  816TIP3    H2 2455   5.392   0.461   0.191
  817TIP3   OH2 2456   0.715   3.451   4.766
  817TIP3    H1 2457   0.723   3.528   4.709
  817TIP3    H2 2458   0.805   3.421   4.777
  818TIP3   OH2 2459   2.320   5.523   0.574
  818TIP3    H1 2460   2.257   5.452   0.584
  818TIP3    H2 2461   2.268   5.597   0.542
  819TIP3   OH2 2462   6.032   2.649   4.545
  819TIP3    H1 2463   6.106   2.589   4.553
  819TIP3    H2 2464   6.065   2.722   4.492
  820TIP3   OH2 2465   5.867   0.519   0.558
  820TIP3    H1 2466   5.932   0.550   0.495
  820TIP3    H2 2467   5.867   0.586   0.627
  821TIP3   OH2 2468   5.693   2.265   4.430
  821TIP3    H1 2469   5.766   2.306   4.475
  821TIP3    H2 2470   5.646   2.217   4.499
  822TIP3   OH2 2471   6.066   0.196   2.860
  822TIP3    H1 2472   6.089   0.280   2.900
  822TIP3    H2 2473   6.121   0.191   2.782
  823TIP3   OH2 2474   0.706   4.576   0.524
  823TIP3    H1 2475   0.787   4.624   0.506
  823TIP3    H2 2476   0.643   4.614   0.463
  824TIP3   OH2 2477   0.696   0.120   0.560
  824TIP3    H1 2478   0.746   0.118   0.642
  824TIP3    H2 2479   0.616   0.167   0.582
  825TIP3   OH2 2480   1.791   5.432   0.157
  825TIP3    H1 2481   1.831   5.494   0.096
  825TIP3    H2 2482   1.697   5.437   0.137
  826TIP3   OH2 2483   2.802   2.595   4.231
  826TIP3    H1 2484   2.893   2.624   4.222
  826TIP3    H2 2485   2.797   2.556   4.318
  827TIP3   OH2 2486   0.988   0.411   1.078
  827TIP3    H1 2487   0.974   0.331   1.129
  827TIP3    H2 2488   0.953   0.481   1.133
  828TIP3   OH2 2489   3.093   0.503   2.344
  828TIP3    H1 2490   3.186   0.487   2.330
  828TIP3    H2 2491   3.086   0.523   2.438
  829TIP3   OH2 2492   3.486   0.285   1.824
  829TIP3    H1 2493   3.398   0.256   1.802
  829TIP3    H2 2494   3.541   0.208   1.812
  830TIP3   OH2 2495   5.753   4.051   1.867
  830TIP3    H1 2496   5.693   4.074   1.797
  830TIP3    H2 2497   5.736   3.959   1.885
  831TIP3   OH2 2498   1.269   4.284   2.212
  831TIP3    H1 2499   1.363   4.272   2.196
  831TIP3    H2 2500   1.261   4.296   2.306
  832TIP3   OH2 2501   3.493   4.846   0.793
  832TIP3    H1 2502   3.449   4.929   0.773
  832TIP3    H2 2503   3.540   4.824   0.713
  833TIP3   OH2 2504   0.215   5.102   3.043
  833TIP3    H1 2505   0.205   5.190   3.006
  833TIP3    H2 2506   0.290   5.065   2.997
  834TIP3   OH2 2507   0.202   5.260   2.061
  834TIP3    H1 2508   0.243   5.201   2.126
  834TIP3    H2 2509   0.275   5.291   2.008
  835TIP3   OH2 2510   0.763   4.776   4.794
  835TIP3    H1 2511   0.805   4.800   4.877
  835TIP3    H2 2512   0.714   4.697   4.814
  836TIP3   OH2 2513   4.446   5.815   0.281
  836TIP3    H1 2514   4.417   5.862   0.359
  836TIP3    H2 2515   4.516   5.870   0.245
  837TIP3   OH2 2516   0.569   2.518   4.433
  837TIP3    H1 2517   0.507   2.528   4.504
  837TIP3    H2 2518   0.652   2.495   4.476
  838TIP3   OH2 2519   0.961   4.607   4.378
  838TIP3    H1 2520   1.003   4.692   4.391
  838TIP3    H2 2521   0.896   4.623   4.310
  839TIP3   OH2 2522   3.021   1.061   1.359
  839TIP3    H1 2523   2.994   1.111   1.283
  839TIP3    H2 2524   3.116   1.051   1.349
  840TIP3   OH2 2525   1.886   5.286   0.964
  840TIP3    H1 2526   1.837   5.204   0.970
  840TIP3    H2 2527   1.820   5.352   0.944
  841TIP3   OH2 2528   3.370   4.607   1.584
  841TIP3    H1 2529   3.329   4.611   1.498
  841TIP3    H2 2530   3.450   4.557   1.570
  842TIP3   OH2 2531   2.917   2.787   1.257
  842TIP3    H1 2532   2.850   2.854   1.267
  842TIP3    H2 2533   2.958   2.782   1.343
  843TIP3   OH2 2534   2.061   4.181   1.129
  843TIP3    H1 2535   2.119   4.219   1.194
  843TIP3    H2 2536   1.975   4.218   1.150
  844TIP3   OH2 2537   4.806   0.689   4.598
  844TIP3    H1 2538   4.804   0.604   4.554
  844TIP3    H2 2539   4.875   0.681   4.663
  845TIP3   OH2 2540   1.103   1.143   0.324
  845TIP3    H1 2541   1.178   1.120   0.269
  845TIP3    H2 2542   1.030   1.150   0.263
  846TIP3   OH2 2543   4.850   1.048   1.762
  846TIP3    H1 2544   4.841   0.961   1.801
  846TIP3    H2 2545   4.821   1.108   1.832
  847TIP3   OH2 2546   1.278   4.407   0.127
  847TIP3    H1 2547   1.295   4.315   0.148
  847TIP3    H2 2548   1.225   4.404   0.047
  848TIP3   OH2 2549   2.034   2.548   3.971
  848TIP3    H1 2550   1.973   2.475   3.963
  848TIP3    H2 2551   2.121   2.509   3.960
  849TIP3   OH2 2552   4.532   3.552   0.156
  849TIP3    H1 2553   4.568   3.622   0.210
  849TIP3    H2 2554   4.474   3.504   0.215
  850TIP3   OH2 2555   3.574   3.558   4.447
  850TIP3    H1 2556   3.621   3.525   4.370
  850TIP3    H2 2557   3.570   3.652   4.434
  851TIP3   OH2 2558   0.588   1.905   4.217
  851TIP3    H1 2559   0.494   1.901   4.232
  851TIP3    H2 2560   0.606   1.999   4.206
  852TIP3   OH2 2561   4.495   0.023   4.038
  852TIP3    H1 2562   4.549   0.102   4.047
  852TIP3    H2 2563   4.545  -0.033   3.978
  853TIP3   OH2 2564   3.470   3.471   3.014
  853TIP3    H1 2565   3.482   3.546   2.956
  853TIP3    H2 2566   3.496   3.396   2.961
  854TIP3   OH2 2567   2.635   2.386   3.427
  854TIP3    H1 2568   2.605   2.476   3.414
  854TIP3    H2 2569   2.556   2.338   3.453
  855TIP3   OH2 2570   1.963   4.867   1.736
  855TIP3    H1 2571   1.964   4.897   1.827
  855TIP3    H2 2572   1.873   4.838   1.721
  856TIP3   OH2 2573   1.426   0.850   0.093
  856TIP3    H1 2574   1.502   0.866   0.038
  856TIP3    H2 2575   1.403   0.758   0.076
  857TIP3   OH2 2576   3.024   1.969   3.071
  857TIP3    H1 2577   3.014   1.985   2.977
  857TIP3    H2 2578   3.016   1.874   3.079
  858TIP3   OH2 2579   3.008   3.246   1.367
  858TIP3    H1 2580   2.961   3.307   1.310
  858TIP3    H2 2581   3.056   3.189   1.307
  859TIP3   OH2 2582   3.265   3.546   2.779
  859TIP3    H1 2583   3.273   3.467   2.834
  859TIP3    H2 2584   3.227   3.612   2.837
  860TIP3   OH2 2585   2.517   5.402   1.316
  860TIP3    H1 2586   2.569   5.389   1.237
  860TIP3    H2 2587   2.556   5.480   1.357
  861TIP3   OH2 2588   2.586   2.734   2.663
  861TIP3    H1 2589   2.576   2.644   2.694
  861TIP3    H2 2590   2.677   2.756   2.681
  862TIP3   OH2 2591   1.685   1.815   3.402
  862TIP3    H1 2592   1.659   1.779   3.316
  862TIP3    H2 2593   1.607   1.803   3.457
  863TIP3   OH2 2594   3.484   5.495   0.541
  863TIP3    H1 2595   3.460   5.481   0.450
  863TIP3    H2 2596   3.400   5.496   0.587
  864TIP3   OH2 2597   1.680   4.747   0.008
  864TIP3    H1 2598   1.657   4.838   0.026
  864TIP3    H2 2599   1.603   4.697   0.034
  865TIP3   OH2 2600   1.570   5.587   1.452
  865TIP3    H1 2601   1.515   5.583   1.373
  865TIP3    H2 2602   1.646   5.534   1.430
  866TIP3   OH2 2603   1.213   1.748   1.120
  866TIP3    H1 2604   1.216   1.777   1.028
  866TIP3    H2 2605   1.164   1.817   1.165
  867TIP3   OH2 2606   4.374   5.771   2.505
  867TIP3    H1 2607   4.409   5.853   2.470
  867TIP3    H2 2608   4.408   5.766   2.594
  868TIP3   OH2 2609   1.674   3.580   3.492
  868TIP3    H1 2610   1.667   3.637   3.568
  868TIP3    H2 2611   1.709   3.498   3.526
  869TIP3   OH2 2612   0.740   5.591   4.340
  869TIP3    H1 2613   0.808   5.524   4.334
  869TIP3    H2 2614   0.715   5.592   4.432
  870TIP3   OH2 2615   4.982   2.497   0.888
  870TIP3    H1 2616   4.996   2.538   0.802
  870TIP3    H2 2617   4.974   2.571   0.948
  871TIP3   OH2 2618   1.176   0.185   4.376
  871TIP3    H1 2619   1.144   0.266   4.416
  871TIP3    H2 2620   1.226   0.213   4.300
  872TIP3   OH2 2621   2.177   1.306   1.623
  872TIP3    H1 2622   2.145   1.323   1.712
  872TIP3    H2 2623   2.236   1.232   1.633
  873TIP3   OH2 2624   1.488   0.753   2.296
  873TIP3    H1 2625   1.480   0.828   2.238
  873TIP3    H2 2626   1.579   0.755   2.327
  874TIP3   OH2 2627   0.473   2.700   3.403
  874TIP3    H1 2628   0.475   2.746   3.320
  874TIP3    H2 2629   0.379   2.692   3.424
  875TIP3   OH2 2630   0.247   3.067   5.136
  875TIP3    H1 2631   0.264   2.985   5.091
  875TIP3    H2 2632   0.302   3.064   5.215
  876TIP3   OH2 2633   0.117   1.817   0.983
  876TIP3    H1 2634   0.153   1.741   1.028
  876TIP3    H2 2635   0.161   1.818   0.898
  877TIP3   OH2 2636   0.989   5.236   1.126
  877TIP3    H1 2637   0.963   5.143   1.128
  877TIP3    H2 2638   0.906   5.283   1.127
  878TIP3   OH2 2639   5.199   3.628   1.341
  878TIP3    H1 2640   5.186   3.702   1.282
  878TIP3    H2 2641   5.110   3.605   1.370
  879TIP3   OH2 2642   2.406   1.703   0.082
  879TIP3    H1 2643   2.428   1.758   0.006
  879TIP3    H2 2644   2.326   1.658   0.056
  880TIP3   OH2 2645   3.452   3.375   4.992
  880TIP3    H1 2646   3.476   3.407   4.905
  880TIP3    H2 2647   3.390   3.304   4.976
  881TIP3   OH2 2648   5.824   5.663   4.587
  881TIP3    H1 2649   5.834   5.608   4.509
  881TIP3    H2 2650   5.798   5.748   4.552
  882TIP3   OH2 2651   1.306   1.696   2.990
  882TIP3    H1 2652   1.318   1.632   2.920
  882TIP3    H2 2653   1.361   1.770   2.964
  883TIP3   OH2 2654   2.456   3.193   0.383
  883TIP3    H1 2655   2.401   3.133   0.333
  883TIP3    H2 2656   2.460   3.155   0.470
  884TIP3   OH2 2657   1.758   0.426   3.545
  884TIP3    H1 2658   1.818   0.490   3.581
  884TIP3    H2 2659   1.693   0.412   3.614
  885TIP3   OH2 2660   2.524   2.848   3.776
  885TIP3    H1 2661   2.476   2.817   3.853
  885TIP3    H2 2662   2.515   2.778   3.712
  886TIP3   OH2 2663   0.876   4.050   1.728
  886TIP3    H1 2664   0.871   4.056   1.632
  886TIP3    H2 2665   0.970   4.043   1.746
  887TIP3   OH2 2666   2.732   4.739   0.073
  887TIP3    H1 2667   2.692   4.711  -0.009
  887TIP3    H2 2668   2.820   4.702   0.071
  888TIP3   OH2 2669   3.557   4.691   2.308
  888TIP3    H1 2670   3.604   4.667   2.228
  888TIP3    H2 2671   3.544   4.786   2.300
  889TIP3   OH2 2672   4.697   5.807   4.561
  889TIP3    H1 2673   4.781   5.762   4.551
  889TIP3    H2 2674   4.720   5.900   4.560
  890TIP3   OH2 2675   5.401   3.387   3.085
  890TIP3    H1 2676   5.349   3.311   3.061
  890TIP3    H2 2677   5.491   3.354   3.092
  891TIP3   OH2 2678   4.367   5.118   3.245
  891TIP3    H1 2679   4.310   5.191   3.221
  891TIP3    H2 2680   4.369   5.063   3.167
  892TIP3   OH2 2681   5.234   1.019   4.755
  892TIP3    H1 2682   5.181   0.965   4.696
  892TIP3    H2 2683   5.270   0.956   4.819
  893TIP3   OH2 2684   4.661   5.457   3.329
  893TIP3    H1 2685   4.575   5.436   3.367
  893TIP3    H2 2686   4.660   5.413   3.244
  894TIP3   OH2 2687   3.938   5.104   2.453
  894TIP3    H1 2688   3.946   5.155   2.372
  894TIP3    H2 2689   3.863   5.047   2.438
  895TIP3   OH2 2690   3.379   4.549   0.406
  895TIP3    H1 2691   3.286   4.566   0.424
  895TIP3    H2 2692   3.394   4.584   0.319
  896TIP3   OH2 2693   2.131   4.820   0.880
  896TIP3    H1 2694   2.164   4.777   0.801
  896TIP3    H2 2695   2.175   4.775   0.952
  897TIP3   OH2 2696   2.198   0.467   3.029
  897TIP3    H1 2697   2.267   0.532   3.040
  897TIP3    H2 2698   2.151   0.468   3.113
  898TIP3   OH2 2699   5.088   3.727   5.105
  898TIP3    H1 2700   5.142   3.802   5.081
  898TIP3    H2 2701   5.017   3.727   5.041
  899TIP3   OH2 2702   1.658   5.417   4.594
  899TIP3    H1 2703   1.598   5.438   4.666
  899TIP3    H2 2704   1.633   5.329   4.566
  900TIP3   OH2 2705   0.079   1.437   0.778
  900TIP3    H1 2706   0.164   1.476   0.761
  900TIP3    H2 2707   0.026   1.460   0.701
  901TIP3   OH2 2708   5.449   2.997   4.360
  901TIP3    H1 2709   5.455   3.014   4.266
  901TIP3    H2 2710   5.456   2.902   4.367
  902TIP3   OH2 2711   0.978   3.739   4.601
  902TIP3    H1 2712   1.001   3.783   4.683
  902TIP3    H2 2713   0.976   3.809   4.536
  903TIP3   OH2 2714   0.054   1.986   0.007
  903TIP3    H1 2715  -0.016   2.017   0.064
  903TIP3    H2 2716   0.061   1.892   0.024
  904TIP3   OH2 2717   1.378   5.049   1.550
  904TIP3    H1 2718   1.339   5.096   1.624
  904TIP3    H2 2719   1.463   5.020   1.583
  905TIP3   OH2 2720   1.619   2.990   4.135
  905TIP3    H1 2721   1.586   2.943   4.212
  905TIP3    H2 2722   1.710   2.962   4.127
  906TIP3   OH2 2723   4.940   4.105   4.415
  906TIP3    H1 2724   4.936   4.078   4.323
  906TIP3    H2 2725   4.917   4.198   4.413
  907TIP3   OH2 2726   5.405   5.884   4.947
  907TIP3    H1 2727   5.445   5.918   5.027
  907TIP3    H2 2728   5.470   5.899   4.879
  908TIP3   OH2 2729   4.606   4.721   4.663
  908TIP3    H1 2730   4.548   4.740   4.590
  908TIP3    H2 2731   4.675   4.666   4.626
  909TIP3   OH2 2732   4.145   1.690   2.345
  909TIP3    H1 2733   4.169   1.654   2.431
  909TIP3    H2 2734   4.056   1.723   2.357
  910TIP3   OH2 2735   2.659   5.496   4.997
  910TIP3    H1 2736   2.592   5.482   4.931
  910TIP3    H2 2737   2.633   5.442   5.071
  911TIP3   OH2 2738   6.203   5.539   0.128
  911TIP3    H1 2739   6.243   5.625   0.116
  911TIP3    H2 2740   6.251   5.500   0.201
  912TIP3   OH2 2741   0.538   1.871   0.166
  912TIP3    H1 2742   0.550   1.866   0.261
  912TIP3    H2 2743   0.548   1.781   0.135
  913TIP3   OH2 2744   2.257   5.543   5.160
  913TIP3    H1 2745   2.195   5.471   5.153
  913TIP3    H2 2746   2.298   5.531   5.246
  914TIP3   OH2 2747   4.739   5.485   2.485
  914TIP3    H1 2748   4.775   5.494   2.573
  914TIP3    H2 2749   4.719   5.392   2.476
  915TIP3   OH2 2750   1.626   4.065   3.347
  915TIP3    H1 2751   1.618   4.069   3.251
  915TIP3    H2 2752   1.619   3.972   3.368
  916TIP3   OH2 2753   1.805   1.857   1.077
  916TIP3    H1 2754   1.879   1.899   1.033
  916TIP3    H2 2755   1.742   1.839   1.007
  917TIP3   OH2 2756   3.503   2.506   1.217
  917TIP3    H1 2757   3.593   2.480   1.198
  917TIP3    H2 2758   3.450   2.440   1.172
  918TIP3   OH2 2759   3.968   3.979   3.212
  918TIP3    H1 2760   3.925   3.896   3.233
  918TIP3    H2 2761   4.004   4.010   3.295
  919TIP3   OH2 2762   3.711   2.273   3.388
  919TIP3    H1 2763   3.720   2.235   3.301
  919TIP3    H2 2764   3.650   2.345   3.377
  920TIP3   OH2 2765   3.315   5.579   1.465
  920TIP3    H1 2766   3.366   5.658   1.485
  920TIP3    H2 2767   3.235   5.612   1.423
  921TIP3   OH2 2768   2.879   2.248   3.148
  921TIP3    H1 2769   2.944   2.203   3.094
  921TIP3    H2 2770   2.824   2.178   3.183
  922TIP3   OH2 2771   1.905   5.271   3.044
  922TIP3    H1 2772   1.851   5.300   3.118
  922TIP3    H2 2773   1.986   5.240   3.083
  923TIP3   OH2 2774   4.985   4.991   4.878
  923TIP3    H1 2775   5.079   5.011   4.875
  923TIP3    H2 2776   4.946   5.065   4.925
  924TIP3   OH2 2777   5.034   3.537   2.997
  924TIP3    H1 2778   5.092   3.563   3.068
  924TIP3    H2 2779   4.978   3.470   3.035
  925TIP3   OH2 2780   2.427   4.940   2.346
  925TIP3    H1 2781   2.336   4.972   2.350
  925TIP3    H2 2782   2.422   4.849   2.376
  926TIP3   OH2 2783   3.287   3.023   4.622
  926TIP3    H1 2784   3.301   3.068   4.705
  926TIP3    H2 2785   3.248   2.939   4.647
  927TIP3   OH2 2786   0.185   0.563   1.041
  927TIP3    H1 2787   0.166   0.539   1.132
  927TIP3    H2 2788   0.220   0.483   1.002
  928TIP3   OH2 2789   2.521   5.180   2.662
  928TIP3    H1 2790   2.502   5.093   2.697
  928TIP3    H2 2791   2.489   5.177   2.572
  929TIP3   OH2 2792   4.969   1.934   1.058
  929TIP3    H1 2793   4.877   1.948   1.035
  929TIP3    H2 2794   5.017   1.952   0.978
  930TIP3   OH2 2795   3.679   1.499   2.929
  930TIP3    H1 2796   3.657   1.521   3.020
  930TIP3    H2 2797   3.758   1.445   2.937
  931TIP3   OH2 2798   6.108   4.169   4.958
  931TIP3    H1 2799   6.187   4.162   4.906
  931TIP3    H2 2800   6.135   4.215   5.038
  932TIP3   OH2 2801   3.391   3.807   2.962
  932TIP3    H1 2802   3.314   3.754   2.941
  932TIP3    H2 2803   3.466   3.751   2.942
  933TIP3   OH2 2804   2.994   0.453   1.914
  933TIP3    H1 2805   3.040   0.419   1.991
  933TIP3    H2 2806   3.061   0.457   1.846
  934TIP3   OH2 2807   0.618   4.481   0.117
  934TIP3    H1 2808   0.549   4.463   0.053
  934TIP3    H2 2809   0.621   4.403   0.171
  935TIP3   OH2 2810   4.757   0.103   0.739
  935TIP3    H1 2811   4.702   0.142   0.807
  935TIP3    H2 2812   4.806   0.178   0.702
  936TIP3   OH2 2813   3.684   1.492   3.238
  936TIP3    H1 2814   3.603   1.536   3.213
  936TIP3    H2 2815   3.715   1.540   3.314
  937TIP3   OH2 2816   5.737   2.915   4.827
  937TIP3    H1 2817   5.712   2.826   4.850
  937TIP3    H2 2818   5.784   2.906   4.744
  938TIP3   OH2 2819   5.435   1.208   0.559
  938TIP3    H1 2820   5.417   1.287   0.611
  938TIP3    H2 2821   5.419   1.136   0.620
  939TIP3   OH2 2822   4.230   1.466   1.061
  939TIP3    H1 2823   4.191   1.461   0.973
  939TIP3    H2 2824   4.158   1.495   1.117
  940TIP3   OH2 2825   4.753   4.093   1.045
  940TIP3    H1 2826   4.720   4.156   1.109
  940TIP3    H2 2827   4.675   4.053   1.008
  941TIP3   OH2 2828   1.830   2.913   3.195
  941TIP3    H1 2829   1.864   2.903   3.106
  941TIP3    H2 2830   1.844   2.828   3.236
  942TIP3   OH2 2831   4.318   1.054   2.708
  942TIP3    H1 2832   4.276   0.970   2.728
  942TIP3    H2 2833   4.398   1.054   2.760
  943TIP3   OH2 2834   4.621   4.668   2.916
  943TIP3    H1 2835   4.686   4.731   2.885
  943TIP3    H2 2836   4.643   4.653   3.008
  944TIP3   OH2 2837   3.271   5.934   3.156
  944TIP3    H1 2838   3.256   6.006   3.218
  944TIP3    H2 2839   3.185   5.893   3.146
  945TIP3   OH2 2840   5.810   2.784   3.036
  945TIP3    H1 2841   5.768   2.867   3.012
  945TIP3    H2 2842   5.863   2.761   2.960
  946TIP3   OH2 2843   2.901   3.088   1.049
  946TIP3    H1 2844   2.899   3.037   0.968
  946TIP3    H2 2845   2.983   3.138   1.043
  947TIP3   OH2 2846   4.815   2.574   3.771
  947TIP3    H1 2847   4.782   2.542   3.688
  947TIP3    H2 2848   4.748   2.552   3.835
  948TIP3   OH2 2849   3.274   0.861   3.960
  948TIP3    H1 2850   3.212   0.915   4.007
  948TIP3    H2 2851   3.281   0.901   3.873
  949TIP3   OH2 2852   1.673   4.630   0.665
  949TIP3    H1 2853   1.697   4.557   0.723
  949TIP3    H2 2854   1.747   4.690   0.672
  950TIP3   OH2 2855   3.624   4.772   0.585
  950TIP3    H1 2856   3.679   4.846   0.558
  950TIP3    H2 2857   3.670   4.695   0.551
  951TIP3   OH2 2858   0.059   4.628   4.318
  951TIP3    H1 2859  -0.016   4.579   4.351
  951TIP3    H2 2860   0.132   4.603   4.375
  952TIP3   OH2 2861   2.116   5.743   1.277
  952TIP3    H1 2862   2.097   5.804   1.206
  952TIP3    H2 2863   2.058   5.770   1.348
  953TIP3   OH2 2864   0.953   5.290   1.742
  953TIP3    H1 2865   0.933   5.201   1.712
  953TIP3    H2 2866   1.027   5.317   1.688
  954TIP3   OH2 2867   5.950   2.104   1.971
  954TIP3    H1 2868   5.956   2.105   2.067
  954TIP3    H2 2869   5.924   2.193   1.949
  955TIP3   OH2 2870   1.851   3.028   0.756
  955TIP3    H1 2871   1.854   2.953   0.698
  955TIP3    H2 2872   1.893   2.999   0.836
  956TIP3   OH2 2873   1.674   3.576   0.688
  956TIP3    H1 2874   1.603   3.573   0.623
  956TIP3    H2 2875   1.692   3.484   0.708
  957TIP3   OH2 2876   3.826   3.101   1.056
  957TIP3    H1 2877   3.899   3.085   1.115
  957TIP3    H2 2878   3.804   3.194   1.068
  958TIP3   OH2 2879   4.534   1.583   0.441
  958TIP3    H1 2880   4.600   1.650   0.459
  958TIP3    H2 2881   4.472   1.591   0.513
  959TIP3   OH2 2882   3.521   1.266   3.656
  959TIP3    H1 2883   3.445   1.324   3.642
  959TIP3    H2 2884   3.597   1.323   3.642
  960TIP3   OH2 2885   5.217   5.521   0.016
  960TIP3    H1 2886   5.174   5.503  -0.068
  960TIP3    H2 2887   5.274   5.595  -0.001
  961TIP3   OH2 2888   4.533   5.063   1.268
  961TIP3    H1 2889   4.461   5.052   1.330
  961TIP3    H2 2890   4.609   5.027   1.313
  962TIP3   OH2 2891   0.792   2.020   0.701
  962TIP3    H1 2892   0.863   1.992   0.644
  962TIP3    H2 2893   0.793   1.958   0.774
  963TIP3   OH2 2894   2.698   5.049   0.089
  963TIP3    H1 2895   2.606   5.026   0.095
  963TIP3    H2 2896   2.738   4.978   0.039
  964TIP3   OH2 2897   4.107   5.602   2.584
  964TIP3    H1 2898   4.165   5.658   2.637
  964TIP3    H2 2899   4.131   5.622   2.494
  965TIP3   OH2 2900   1.617   1.170   4.012
  965TIP3    H1 2901   1.632   1.080   4.039
  965TIP3    H2 2902   1.522   1.182   4.018
  966TIP3   OH2 2903   3.367   0.831   3.218
  966TIP3    H1 2904   3.396   0.776   3.146
  966TIP3    H2 2905   3.445   0.845   3.272
  967TIP3   OH2 2906   3.480   0.831   0.949
  967TIP3    H1 2907   3.565   0.851   0.911
  967TIP3    H2 2908   3.458   0.908   1.001
  968TIP3   OH2 2909   4.517   1.520   1.753
  968TIP3    H1 2910   4.597   1.538   1.704
  968TIP3    H2 2911   4.509   1.593   1.814
  969TIP3   OH2 2912   3.184   2.351   2.031
  969TIP3    H1 2913   3.100   2.394   2.020
  969TIP3    H2 2914   3.216   2.336   1.942
  970TIP3   OH2 2915   4.050   2.440   0.778
  970TIP3    H1 2916   4.009   2.495   0.845
  970TIP3    H2 2917   4.103   2.501   0.726
  971TIP3   OH2 2918   0.917   1.698   3.936
  971TIP3    H1 2919   0.869   1.616   3.949
  971TIP3    H2 2920   0.986   1.676   3.874
  972TIP3   OH2 2921   4.472   5.082   0.224
  972TIP3    H1 2922   4.564   5.066   0.202
  972TIP3    H2 2923   4.429   5.098   0.139
  973TIP3   OH2 2924   4.484   0.727   0.002
  973TIP3    H1 2925   4.474   0.705   0.094
  973TIP3    H2 2926   4.436   0.658  -0.045
  974TIP3   OH2 2927   2.844   5.514   2.956
  974TIP3    H1 2928   2.809   5.578   3.017
  974TIP3    H2 2929   2.786   5.518   2.880
  975TIP3   OH2 2930   2.927   4.053   4.839
  975TIP3    H1 2931   2.869   3.980   4.817
  975TIP3    H2 2932   2.868   4.125   4.861
  976TIP3   OH2 2933   5.220   5.110   4.765
  976TIP3    H1 2934   5.214   5.073   4.677
  976TIP3    H2 2935   5.236   5.203   4.750
  977TIP3   OH2 2936   0.026   0.024   3.592
  977TIP3    H1 2937   0.095  -0.029   3.552
  977TIP3    H2 2938  -0.031  -0.040   3.635
  978TIP3   OH2 2939   5.749   0.777   1.764
  978TIP3    H1 2940   5.785   0.827   1.837
  978TIP3    H2 2941   5.799   0.806   1.688
  979TIP3   OH2 2942   2.490   2.996   0.590
  979TIP3    H1 2943   2.501   2.947   0.672
  979TIP3    H2 2944   2.480   2.929   0.523
  980TIP3   OH2 2945   0.599   3.954   3.103
  980TIP3    H1 2946   0.676   3.997   3.066
  980TIP3    H2 2947   0.631   3.868   3.131
  981TIP3   OH2 2948   0.494   2.263   0.348
  981TIP3    H1 2949   0.434   2.233   0.416
  981TIP3    H2 2950   0.459   2.348   0.321
  982TIP3   OH2 2951   4.147   4.842   5.140
  982TIP3    H1 2952   4.199   4.801   5.209
  982TIP3    H2 2953   4.129   4.772   5.078
  983TIP3   OH2 2954   2.618   3.245   4.277
  983TIP3    H1 2955   2.668   3.262   4.357
  983TIP3    H2 2956   2.575   3.161   4.293
  984TIP3   OH2 2957   5.259   4.716   4.323
  984TIP3    H1 2958   5.295   4.785   4.268
  984TIP3    H2 2959   5.292   4.635   4.283
  985TIP3   OH2 2960   4.949   1.353   4.977
  985TIP3    H1 2961   4.952   1.292   4.903
  985TIP3    H2 2962   4.963   1.299   5.054
  986TIP3   OH2 2963   6.117   3.426   3.238
  986TIP3    H1 2964   6.026   3.406   3.215
  986TIP3    H2 2965   6.127   3.519   3.219
  987TIP3   OH2 2966   1.793   0.679   4.377
  987TIP3    H1 2967   1.814   0.772   4.374
  987TIP3    H2 2968   1.808   0.648   4.287
  988TIP3   OH2 2969   4.020   4.207   2.150
  988TIP3    H1 2970   4.115   4.208   2.163
  988TIP3    H2 2971   4.009   4.228   2.057
  989TIP3   OH2 2972   0.060   0.948   2.952
  989TIP3    H1 2973   0.006   1.024   2.932
  989TIP3    H2 2974   0.115   0.936   2.874
  990TIP3   OH2 2975   3.926   2.575   3.709
  990TIP3    H1 2976   3.938   2.540   3.621
  990TIP3    H2 2977   3.884   2.504   3.757
  991TIP3   OH2 2978   6.119   4.247   3.237
  991TIP3    H1 2979   6.134   4.203   3.153
  991TIP3    H2 2980   6.030   4.281   3.232
  992TIP3   OH2 2981   2.228   1.640   3.873
  992TIP3    H1 2982   2.146   1.665   3.830
  992TIP3    H2 2983   2.234   1.698   3.949
  993TIP3   OH2 2984   6.207   1.077   3.633
  993TIP3    H1 2985   6.284   1.028   3.603
  993TIP3    H2 2986   6.238   1.168   3.639
  994TIP3   OH2 2987   4.204   1.380   3.998
  994TIP3    H1 2988   4.119   1.345   4.024
  994TIP3    H2 2989   4.184   1.463   3.954
  995TIP3   OH2 2990   5.528   0.444   4.540
  995TIP3    H1 2991   5.557   0.439   4.449
  995TIP3    H2 2992   5.453   0.504   4.538
  996TIP3   OH2 2993   5.413   1.520   0.990
  996TIP3    H1 2994   5.343   1.562   1.039
  996TIP3    H2 2995   5.494   1.554   1.029
  997TIP3   OH2 2996   6.324   1.216   2.624
  997TIP3    H1 2997   6.238   1.190   2.590
  997TIP3    H2 2998   6.367   1.258   2.550
  998TIP3   OH2 2999   2.075   5.098   3.170
  998TIP3    H1 3000   2.152   5.089   3.114
  998TIP3    H2 3001   2.030   5.014   3.163
  999TIP3   OH2 3002   5.405   3.279   1.013
  999TIP3    H1 3003   5.412   3.288   1.108
  999TIP3    H2 3004   5.480   3.327   0.979
 1000TIP3   OH2 3005   4.795   2.794   3.621
 1000TIP3    H1 3006   4.886   2.822   3.615
 1000TIP3    H2 3007   4.797   2.717   3.677
 1001TIP3   OH2 3008   3.493   4.958   3.996
 1001TIP3    H1 3009   3.515   4.980   3.906
 1001TIP3    H2 3010   3.431   4.886   3.988
 1002TIP3   OH2 3011   1.602   0.595   0.620
 1002TIP3    H1 3012   1.624   0.596   0.527
 1002TIP3    H2 3013   1.595   0.502   0.642
 1003TIP3   OH2 3014   0.223   4.327   4.981
 1003TIP3    H1 3015   0.170   4.250   5.000
 1003TIP3    H2 3016   0.178   4.399   5.025
 1004TIP3   OH2 3017   3.238   1.619   1.358
 1004TIP3    H1 3018   3.172   1.558   1.326
 1004TIP3    H2 3019   3.318   1.593   1.314
 1005TIP3   OH2 3020   4.920   1.940   1.339
 1005TIP3    H1 3021   4.914   1.850   1.371
 1005TIP3    H2 3022   4.933   1.932   1.245
 1006TIP3   OH2 3023   5.410   2.972   5.134
 1006TIP3    H1 3024   5.390   2.880   5.115
 1006TIP3    H2 3025   5.324   3.016   5.133
 1007TIP3   OH2 3026   2.315   5.978   1.670
 1007TIP3    H1 3027   2.318   6.039   1.597
 1007TIP3    H2 3028   2.329   5.892   1.630
 1008TIP3   OH2 3029   6.316   1.965   4.302
 1008TIP3    H1 3030   6.222   1.946   4.295
 1008TIP3    H2 3031   6.356   1.880   4.321
 1009TIP3   OH2 3032   4.365   3.535   2.012
 1009TIP3    H1 3033   4.423   3.468   1.975
 1009TIP3    H2 3034   4.338   3.499   2.096
 1010TIP3   OH2 3035   2.808   3.119   1.522
 1010TIP3    H1 3036   2.894   3.154   1.502
 1010TIP3    H2 3037   2.788   3.059   1.449
 1011TIP3   OH2 3038   4.563   1.873   3.622
 1011TIP3    H1 3039   4.517   1.802   3.576
 1011TIP3    H2 3040   4.551   1.852   3.715
 1012TIP3   OH2 3041   6.228   1.810   4.688
 1012TIP3    H1 3042   6.251   1.736   4.632
 1012TIP3    H2 3043   6.133   1.820   4.677
 1013TIP3   OH2 3044   1.554   1.382   4.635
 1013TIP3    H1 3045   1.487   1.409   4.698
 1013TIP3    H2 3046   1.600   1.310   4.678
 1014TIP3   OH2 3047   1.201   5.529   0.047
 1014TIP3    H1 3048   1.120   5.478   0.053
 1014TIP3    H2 3049   1.186   5.604   0.105
 1015TIP3   OH2 3050   5.861   5.446   3.128
 1015TIP3    H1 3051   5.946   5.423   3.166
 1015TIP3    H2 3052   5.830   5.365   3.088
 1016TIP3   OH2 3053   2.430   5.576   2.511
 1016TIP3    H1 3054   2.397   5.666   2.518
 1016TIP3    H2 3055   2.481   5.576   2.431
 1017TIP3   OH2 3056   3.446   1.522   0.652
 1017TIP3    H1 3057   3.483   1.538   0.739
 1017TIP3    H2 3058   3.373   1.584   0.646
 1018TIP3   OH2 3059   5.244   1.361   0.178
 1018TIP3    H1 3060   5.204   1.425   0.119
 1018TIP3    H2 3061   5.190   1.283   0.168
 1019TIP3   OH2 3062   1.043   5.977   3.991
 1019TIP3    H1 3063   1.126   6.003   3.951
 1019TIP3    H2 3064   1.045   6.017   4.078
 1020TIP3   OH2 3065   6.198   2.540   1.438
 1020TIP3    H1 3066   6.159   2.464   1.393
 1020TIP3    H2 3067   6.142   2.614   1.412
 1021TIP3   OH2 3068   3.241   0.319   0.410
 1021TIP3    H1 3069   3.231   0.398   0.355
 1021TIP3    H2 3070   3.155   0.306   0.449
 1022TIP3   OH2 3071   6.294   1.395   2.335
 1022TIP3    H1 3072   6.310   1.341   2.258
 1022TIP3    H2 3073   6.208   1.433   2.321
 1023TIP3   OH2 3074   2.095   3.421   4.187
 1023TIP3    H1 3075   2.006   3.400   4.160
 1023TIP3    H2 3076   2.149   3.402   4.110
 1024TIP3   OH2 3077   1.659   4.145   1.081
 1024TIP3    H1 3078   1.710   4.190   1.014
 1024TIP3    H2 3079   1.722   4.125   1.150
 1025TIP3   OH2 3080   0.508   0.793   3.463
 1025TIP3    H1 3081   0.567   0.783   3.388
 1025TIP3    H2 3082   0.423   0.764   3.430
 1026TIP3   OH2 3083   1.450   1.617   2.647
 1026TIP3    H1 3084   1.467   1.546   2.585
 1026TIP3    H2 3085   1.494   1.590   2.727
 1027TIP3   OH2 3086   1.675   0.219   0.456
 1027TIP3    H1 3087   1.680   0.314   0.448
 1027TIP3    H2 3088   1.641   0.189   0.371
 1028TIP3   OH2 3089   0.303   3.626   0.096
 1028TIP3    H1 3090   0.247   3.703   0.104
 1028TIP3    H2 3091   0.392   3.660   0.102
 1029TIP3   OH2 3092   1.342   4.749   2.206
 1029TIP3    H1 3093   1.311   4.798   2.130
 1029TIP3    H2 3094   1.262   4.712   2.245
 1030TIP3   OH2 3095   2.913   3.208   1.802
 1030TIP3    H1 3096   2.971   3.278   1.772
 1030TIP3    H2 3097   2.858   3.188   1.727
 1031TIP3   OH2 3098   5.071   0.681   2.431
 1031TIP3    H1 3099   5.134   0.750   2.409
 1031TIP3    H2 3100   5.124   0.611   2.468
 1032TIP3   OH2 3101   0.417   4.299   0.441
 1032TIP3    H1 3102   0.484   4.263   0.499
 1032TIP3    H2 3103   0.346   4.235   0.443
 1033TIP3   OH2 3104   3.724   1.799   1.078
 1033TIP3    H1 3105   3.805   1.748   1.084
 1033TIP3    H2 3106   3.753   1.889   1.061
 1034TIP3   OH2 3107   3.557   0.613   1.064
 1034TIP3    H1 3108   3.511   0.679   1.013
 1034TIP3    H2 3109   3.601   0.662   1.133
 1035TIP3   OH2 3110   4.943   1.665   1.840
 1035TIP3    H1 3111   4.896   1.749   1.839
 1035TIP3    H2 3112   4.992   1.664   1.758
 1036TIP3   OH2 3113   0.847   3.056   1.653
 1036TIP3    H1 3114   0.829   2.979   1.598
 1036TIP3    H2 3115   0.941   3.072   1.642
 1037TIP3   OH2 3116   1.649   2.475   3.624
 1037TIP3    H1 3117   1.700   2.556   3.627
 1037TIP3    H2 3118   1.639   2.448   3.715
 1038TIP3   OH2 3119   3.183   0.641   2.850
 1038TIP3    H1 3120   3.265   0.629   2.898
 1038TIP3    H2 3121   3.191   0.582   2.775
 1039TIP3   OH2 3122   0.226   3.653   0.569
 1039TIP3    H1 3123   0.142   3.608   0.559
 1039TIP3    H2 3124   0.280   3.591   0.619
 1040TIP3   OH2 3125   2.332   4.264   2.043
 1040TIP3    H1 3126   2.304   4.205   2.113
 1040TIP3    H2 3127   2.348   4.206   1.968
 1041TIP3   OH2 3128   5.010   2.040   1.567
 1041TIP3    H1 3129   5.060   2.116   1.536
 1041TIP3    H2 3130   4.993   1.989   1.488
 1042TIP3   OH2 3131   3.948   0.686   4.017
 1042TIP3    H1 3132   3.963   0.703   3.924
 1042TIP3    H2 3133   3.936   0.591   4.022
 1043TIP3   OH2 3134   6.246   5.505   3.481
 1043TIP3    H1 3135   6.289   5.532   3.562
 1043TIP3    H2 3136   6.310   5.450   3.436
 1044TIP3   OH2 3137   2.055   3.297   0.696
 1044TIP3    H1 3138   2.097   3.213   0.680
 1044TIP3    H2 3139   2.111   3.360   0.651
 1045TIP3   OH2 3140   5.261   2.645   0.476
 1045TIP3    H1 3141   5.352   2.651   0.449
 1045TIP3    H2 3142   5.263   2.601   0.561
 1046TIP3   OH2 3143   0.827   4.422   3.303
 1046TIP3    H1 3144   0.806   4.395   3.213
 1046TIP3    H2 3145   0.761   4.379   3.357
 1047TIP3   OH2 3146   4.726   4.722   0.019
 1047TIP3    H1 3147   4.680   4.773   0.085
 1047TIP3    H2 3148   4.802   4.685   0.065
 1048TIP3   OH2 3149   0.517   2.326   0.023
 1048TIP3    H1 3150   0.557   2.366   0.100
 1048TIP3    H2 3151   0.450   2.267   0.057
 1049TIP3   OH2 3152   1.301   2.155   0.098
 1049TIP3    H1 3153   1.342   2.238   0.120
 1049TIP3    H2 3154   1.239   2.176   0.028
 1050TIP3   OH2 3155   2.447   3.874   2.911
 1050TIP3    H1 3156   2.416   3.810   2.975
 1050TIP3    H2 3157   2.456   3.955   2.962
 1051TIP3   OH2 3158   0.164   4.173   1.153
 1051TIP3    H1 3159   0.153   4.101   1.215
 1051TIP3    H2 3160   0.148   4.252   1.205
 1052TIP3   OH2 3161   0.836   5.176   4.603
 1052TIP3    H1 3162   0.896   5.101   4.614
 1052TIP3    H2 3163   0.755   5.148   4.645
 1053TIP3   OH2 3164   0.366   3.407   0.693
 1053TIP3    H1 3165   0.414   3.332   0.728
 1053TIP3    H2 3166   0.282   3.405   0.738
 1054TIP3   OH2 3167   2.039   3.940   0.932
 1054TIP3    H1 3168   2.025   3.922   0.840
 1054TIP3    H2 3169   1.984   4.017   0.950
 1055TIP3   OH2 3170   0.453   2.858   1.641
 1055TIP3    H1 3171   0.420   2.948   1.651
 1055TIP3    H2 3172   0.449   2.821   1.729
 1056TIP3   OH2 3173   3.172   0.256   5.117
 1056TIP3    H1 3174   3.234   0.317   5.078
 1056TIP3    H2 3175   3.194   0.255   5.211
 1057TIP3   OH2 3176   4.948   1.691   1.455
 1057TIP3    H1 3177   4.945   1.614   1.399
 1057TIP3    H2 3178   5.001   1.664   1.530
 1058TIP3   OH2 3179   5.603   4.038   4.369
 1058TIP3    H1 3180   5.660   4.020   4.295
 1058TIP3    H2 3181   5.658   4.024   4.446
 1059TIP3   OH2 3182   5.568   0.330   3.358
 1059TIP3    H1 3183   5.620   0.407   3.381
 1059TIP3    H2 3184   5.564   0.331   3.263
 1060TIP3   OH2 3185   3.371   3.800   0.880
 1060TIP3    H1 3186   3.442   3.776   0.820
 1060TIP3    H2 3187   3.361   3.895   0.869
 1061TIP3   OH2 3188   3.034   1.478   3.028
 1061TIP3    H1 3189   3.064   1.454   3.116
 1061TIP3    H2 3190   3.070   1.566   3.014
 1062TIP3   OH2 3191   0.284   4.337   3.633
 1062TIP3    H1 3192   0.288   4.433   3.630
 1062TIP3    H2 3193   0.337   4.313   3.709
 1063TIP3   OH2 3194   3.182   2.240   1.762
 1063TIP3    H1 3195   3.123   2.242   1.687
 1063TIP3    H2 3196   3.250   2.177   1.738
 1064TIP3   OH2 3197   5.359   1.299   3.982
 1064TIP3    H1 3198   5.362   1.307   4.077
 1064TIP3    H2 3199   5.349   1.205   3.966
 1065TIP3   OH2 3200   2.909   1.149   1.104
 1065TIP3    H1 3201   2.868   1.208   1.041
 1065TIP3    H2 3202   2.976   1.103   1.054
 1066TIP3   OH2 3203   4.929   0.662   1.349
 1066TIP3    H1 3204   4.886   0.673   1.434
 1066TIP3    H2 3205   4.941   0.567   1.341
 1067TIP3   OH2 3206   5.924   1.499   1.462
 1067TIP3    H1 3207   5.863   1.433   1.429
 1067TIP3    H2 3208   5.918   1.572   1.400
 1068TIP3   OH2 3209   0.294   3.413   2.525
 1068TIP3    H1 3210   0.212   3.383   2.485
 1068TIP3    H2 3211   0.357   3.413   2.453
 1069TIP3   OH2 3212   3.188   0.345   2.074
 1069TIP3    H1 3213   3.228   0.363   2.159
 1069TIP3    H2 3214   3.240   0.395   2.012
 1070TIP3   OH2 3215   1.324   4.838   3.307
 1070TIP3    H1 3216   1.237   4.869   3.281
 1070TIP3    H2 3217   1.334   4.867   3.398
 1071TIP3   OH2 3218   3.800   0.636   2.579
 1071TIP3    H1 3219   3.708   0.624   2.603
 1071TIP3    H2 3220   3.807   0.596   2.492
 1072TIP3   OH2 3221   3.941   0.050   3.140
 1072TIP3    H1 3222   3.854   0.022   3.111
 1072TIP3    H2 3223   3.979  -0.029   3.180
 1073TIP3   OH2 3224   3.121   1.475   0.114
 1073TIP3    H1 3225   3.105   1.563   0.080
 1073TIP3    H2 3226   3.046   1.423   0.083
 1074TIP3   OH2 3227   1.309   5.162   3.889
 1074TIP3    H1 3228   1.225   5.191   3.854
 1074TIP3    H2 3229   1.334   5.231   3.952
 1075TIP3   OH2 3230   1.287   5.051   2.402
 1075TIP3    H1 3231   1.290   5.078   2.310
 1075TIP3    H2 3232   1.355   5.103   2.445
 1076TIP3   OH2 3233   6.181   5.668   3.235
 1076TIP3    H1 3234   6.275   5.665   3.249
 1076TIP3    H2 3235   6.144   5.645   3.320
 1077TIP3   OH2 3236   3.647   4.620   2.557
 1077TIP3    H1 3237   3.653   4.702   2.606
 1077TIP3    H2 3238   3.611   4.645   2.472
 1078TIP3   OH2 3239   3.605   1.551   1.322
 1078TIP3    H1 3240   3.675   1.607   1.354
 1078TIP3    H2 3241   3.544   1.610   1.279
 1079TIP3   OH2 3242   0.300   0.029   5.102
 1079TIP3    H1 3243   0.295   0.120   5.074
 1079TIP3    H2 3244   0.394   0.014   5.116
 1080TIP3   OH2 3245   1.429   0.233   4.166
 1080TIP3    H1 3246   1.472   0.223   4.081
 1080TIP3    H2 3247   1.499   0.217   4.230
 1081TIP3   OH2 3248   3.125   0.070   3.337
 1081TIP3    H1 3249   3.148   0.152   3.293
 1081TIP3    H2 3250   3.171   0.075   3.421
 1082TIP3   OH2 3251   1.396   0.163   2.663
 1082TIP3    H1 3252   1.394   0.080   2.711
 1082TIP3    H2 3253   1.475   0.157   2.609
 1083TIP3   OH2 3254   1.540   4.436   4.674
 1083TIP3    H1 3255   1.482   4.382   4.728
 1083TIP3    H2 3256   1.536   4.396   4.587
 1084TIP3   OH2 3257   0.039   0.309   2.013
 1084TIP3    H1 3258  -0.053   0.337   2.011
 1084TIP3    H2 3259   0.061   0.293   1.921
 1085TIP3   OH2 3260   2.468  -0.001   0.186
 1085TIP3    H1 3261   2.447   0.090   0.164
 1085TIP3    H2 3262   2.479  -0.044   0.101
 1086TIP3   OH2 3263   0.172   3.589   3.269
 1086TIP3    H1 3264   0.108   3.660   3.271
 1086TIP3    H2 3265   0.223   3.605   3.190
 1087TIP3   OH2 3266   4.928   4.030   3.888
 1087TIP3    H1 3267   4.872   4.016   3.811
 1087TIP3    H2 3268   4.996   3.964   3.880
 1088TIP3   OH2 3269   2.902   5.598   5.088
 1088TIP3    H1 3270   2.868   5.569   5.003
 1088TIP3    H2 3271   2.839   5.567   5.152
 1089TIP3   OH2 3272   3.561   0.398   2.097
 1089TIP3    H1 3273   3.510   0.476   2.114
 1089TIP3    H2 3274   3.536   0.372   2.008
 1090TIP3   OH2 3275   5.165   1.570   4.947
 1090TIP3    H1 3276   5.131   1.655   4.975
 1090TIP3    H2 3277   5.100   1.507   4.977
 1091TIP3   OH2 3278   5.517   1.831   5.096
 1091TIP3    H1 3279   5.468   1.909   5.069
 1091TIP3    H2 3280   5.452   1.777   5.141
 1092TIP3   OH2 3281   3.084   3.508   1.095
 1092TIP3    H1 3282   3.104   3.416   1.081
 1092TIP3    H2 3283   2.990   3.510   1.115
 1093TIP3   OH2 3284   1.955   3.079   1.324
 1093TIP3    H1 3285   2.010   3.017   1.276
 1093TIP3    H2 3286   1.908   3.025   1.387
 1094TIP3   OH2 3287   1.403   3.310   0.383
 1094TIP3    H1 3288   1.400   3.279   0.473
 1094TIP3    H2 3289   1.414   3.230   0.331
 1095TIP3   OH2 3290   5.928   4.628   0.028
 1095TIP3    H1 3291   5.922   4.548  -0.023
 1095TIP3    H2 3292   5.934   4.698  -0.037
 1096TIP3   OH2 3293   2.475   1.400   1.088
 1096TIP3    H1 3294   2.388   1.404   1.129
 1096TIP3    H2 3295   2.512   1.487   1.101
 1097TIP3   OH2 3296   5.018   1.465   4.049
 1097TIP3    H1 3297   5.066   1.388   4.018
 1097TIP3    H2 3298   5.053   1.482   4.136
 1098TIP3   OH2 3299   4.747   0.683   3.213
 1098TIP3    H1 3300   4.702   0.602   3.235
 1098TIP3    H2 3301   4.693   0.723   3.146
 1099TIP3   OH2 3302   4.229   4.348   1.057
 1099TIP3    H1 3303   4.282   4.382   0.985
 1099TIP3    H2 3304   4.215   4.423   1.114
 1100TIP3   OH2 3305   5.901   5.870   2.832
 1100TIP3    H1 3306   5.938   5.795   2.786
 1100TIP3    H2 3307   5.952   5.945   2.800
 1101TIP3   OH2 3308   5.536   2.670   0.423
 1101TIP3    H1 3309   5.618   2.662   0.473
 1101TIP3    H2 3310   5.562   2.719   0.344
 1102TIP3   OH2 3311   3.455   2.658   3.589
 1102TIP3    H1 3312   3.489   2.641   3.677
 1102TIP3    H2 3313   3.420   2.747   3.595
 1103TIP3   OH2 3314   2.028   4.119   4.736
 1103TIP3    H1 3315   1.966   4.080   4.674
 1103TIP3    H2 3316   1.979   4.192   4.776
 1104TIP3   OH2 3317   5.022   2.749   2.040
 1104TIP3    H1 3318   4.976   2.833   2.036
 1104TIP3    H2 3319   5.028   2.721   1.949
 1105TIP3   OH2 3320   1.192   3.150   2.129
 1105TIP3    H1 3321   1.129   3.183   2.193
 1105TIP3    H2 3322   1.181   3.208   2.053
 1106TIP3   OH2 3323   2.154   4.875   0.365
 1106TIP3    H1 3324   2.170   4.823   0.444
 1106TIP3    H2 3325   2.233   4.864   0.312
 1107TIP3   OH2 3326   4.299   4.915   0.629
 1107TIP3    H1 3327   4.294   5.010   0.617
 1107TIP3    H2 3328   4.387   4.891   0.598
 1108TIP3   OH2 3329   5.517   3.764   0.410
 1108TIP3    H1 3330   5.521   3.857   0.430
 1108TIP3    H2 3331   5.424   3.742   0.418
 1109TIP3   OH2 3332   5.221   1.420   3.747
 1109TIP3    H1 3333   5.126   1.414   3.748
 1109TIP3    H2 3334   5.247   1.401   3.837
 1110TIP3   OH2 3335   1.938   4.470   0.287
 1110TIP3    H1 3336   1.880   4.437   0.357
 1110TIP3    H2 3337   1.912   4.561   0.276
 1111TIP3   OH2 3338   2.875   2.135   5.074
 1111TIP3    H1 3339   2.890   2.062   5.134
 1111TIP3    H2 3340   2.843   2.094   4.994
 1112TIP3   OH2 3341   5.837   3.679   4.977
 1112TIP3    H1 3342   5.910   3.645   5.029
 1112TIP3    H2 3343   5.810   3.604   4.924
 1113TIP3   OH2 3344   3.484   2.298   0.852
 1113TIP3    H1 3345   3.424   2.342   0.914
 1113TIP3    H2 3346   3.427   2.241   0.802
 1114TIP3   OH2 3347   2.545   4.162   4.656
 1114TIP3    H1 3348   2.544   4.248   4.614
 1114TIP3    H2 3349   2.565   4.180   4.748
 1115TIP3   OH2 3350   2.593   4.430   2.240
 1115TIP3    H1 3351   2.508   4.429   2.284
 1115TIP3    H2 3352   2.571   4.423   2.147
 1116TIP3   OH2 3353   2.167   5.413   4.394
 1116TIP3    H1 3354   2.150   5.330   4.350
 1116TIP3    H2 3355   2.152   5.479   4.327
 1117TIP3   OH2 3356   4.273   3.458   3.863
 1117TIP3    H1 3357   4.207   3.467   3.794
 1117TIP3    H2 3358   4.286   3.546   3.896
 1118TIP3   OH2 3359   3.950   3.136   3.110
 1118TIP3    H1 3360   3.890   3.210   3.103
 1118TIP3    H2 3361   3.912   3.080   3.178
 1119TIP3   OH2 3362   1.513   3.095   0.243
 1119TIP3    H1 3363   1.585   3.033   0.238
 1119TIP3    H2 3364   1.489   3.112   0.152
 1120TIP3   OH2 3365   3.749   4.276   1.161
 1120TIP3    H1 3366   3.805   4.324   1.101
 1120TIP3    H2 3367   3.778   4.304   1.248
 1121TIP3   OH2 3368   2.398   5.712   4.210
 1121TIP3    H1 3369   2.473   5.736   4.155
 1121TIP3    H2 3370   2.380   5.791   4.261
 1122TIP3   OH2 3371   1.559   1.619   3.218
 1122TIP3    H1 3372   1.540   1.526   3.232
 1122TIP3    H2 3373   1.474   1.660   3.202
 1123TIP3   OH2 3374   2.056   2.579   4.908
 1123TIP3    H1 3375   2.058   2.675   4.904
 1123TIP3    H2 3376   2.088   2.559   4.996
 1124TIP3   OH2 3377   5.394   4.415   1.979
 1124TIP3    H1 3378   5.322   4.459   1.933
 1124TIP3    H2 3379   5.365   4.410   2.070
 1125TIP3   OH2 3380   0.210   4.655   3.637
 1125TIP3    H1 3381   0.233   4.692   3.722
 1125TIP3    H2 3382   0.115   4.664   3.631
 1126TIP3   OH2 3383   4.771   5.802   0.851
 1126TIP3    H1 3384   4.763   5.774   0.760
 1126TIP3    H2 3385   4.825   5.734   0.893
 1127TIP3   OH2 3386   5.525   5.975   0.550
 1127TIP3    H1 3387   5.563   6.057   0.520
 1127TIP3    H2 3388   5.465   5.949   0.480
 1128TIP3   OH2 3389   2.305   3.009   3.170
 1128TIP3    H1 3390   2.329   2.964   3.251
 1128TIP3    H2 3391   2.313   3.102   3.190
 1129TIP3   OH2 3392   0.488   0.008   3.187
 1129TIP3    H1 3393   0.560  -0.052   3.166
 1129TIP3    H2 3394   0.411  -0.049   3.196
 1130TIP3   OH2 3395   2.342   5.661   4.838
 1130TIP3    H1 3396   2.306   5.579   4.803
 1130TIP3    H2 3397   2.382   5.636   4.921
 1131TIP3   OH2 3398   3.245   4.831   3.560
 1131TIP3    H1 3399   3.152   4.855   3.572
 1131TIP3    H2 3400   3.289   4.872   3.634
 1132TIP3   OH2 3401   0.624   2.494   2.800
 1132TIP3    H1 3402   0.692   2.440   2.758
 1132TIP3    H2 3403   0.620   2.574   2.748
 1133TIP3   OH2 3404   3.856   5.349   0.297
 1133TIP3    H1 3405   3.820   5.313   0.378
 1133TIP3    H2 3406   3.903   5.428   0.324
 1134TIP3   OH2 3407   3.492   2.508   2.723
 1134TIP3    H1 3408   3.416   2.538   2.772
 1134TIP3    H2 3409   3.457   2.447   2.659
 1135TIP3   OH2 3410   4.776   2.510   2.625
 1135TIP3    H1 3411   4.754   2.594   2.585
 1135TIP3    H2 3412   4.849   2.477   2.572
 1136TIP3   OH2 3413   2.686   1.077   1.506
 1136TIP3    H1 3414   2.745   1.003   1.491
 1136TIP3    H2 3415   2.656   1.102   1.418
 1137TIP3   OH2 3416   1.530   1.565   2.134
 1137TIP3    H1 3417   1.518   1.475   2.164
 1137TIP3    H2 3418   1.582   1.556   2.054
 1138TIP3   OH2 3419   5.806   0.303   2.861
 1138TIP3    H1 3420   5.877   0.239   2.865
 1138TIP3    H2 3421   5.850   0.388   2.861
 1139TIP3   OH2 3422   6.286   0.180   5.062
 1139TIP3    H1 3423   6.346   0.197   5.135
 1139TIP3    H2 3424   6.324   0.106   5.016
 1140TIP3   OH2 3425   0.502   4.915   3.988
 1140TIP3    H1 3426   0.487   4.876   3.901
 1140TIP3    H2 3427   0.550   4.996   3.970
 1141TIP3   OH2 3428   1.429   3.777   1.349
 1141TIP3    H1 3429   1.465   3.800   1.263
 1141TIP3    H2 3430   1.490   3.713   1.385
 1142TIP3   OH2 3431   3.356   2.255   2.724
 1142TIP3    H1 3432   3.429   2.198   2.746
 1142TIP3    H2 3433   3.305   2.205   2.659
 1143TIP3   OH2 3434   5.786   1.827   1.064
 1143TIP3    H1 3435   5.782   1.785   0.978
 1143TIP3    H2 3436   5.709   1.885   1.067
 1144TIP3   OH2 3437   1.703   5.923   1.073
 1144TIP3    H1 3438   1.731   5.831   1.073
 1144TIP3    H2 3439   1.725   5.956   0.986
 1145TIP3   OH2 3440   3.236   3.743   0.588
 1145TIP3    H1 3441   3.157   3.777   0.546
 1145TIP3    H2 3442   3.308   3.778   0.534
 1146TIP3   OH2 3443   0.609   4.823   0.019
 1146TIP3    H1 3444   0.543   4.812   0.087
 1146TIP3    H2 3445   0.679   4.762   0.043
 1147TIP3   OH2 3446   1.172   3.923   1.399
 1147TIP3    H1 3447   1.267   3.935   1.405
 1147TIP3    H2 3448   1.146   3.974   1.323
 1148TIP3   OH2 3449   5.406   0.794   1.061
 1148TIP3    H1 3450   5.365   0.872   1.099
 1148TIP3    H2 3451   5.358   0.779   0.979
 1149TIP3   OH2 3452   5.533   1.628   1.664
 1149TIP3    H1 3453   5.619   1.663   1.686
 1149TIP3    H2 3454   5.472   1.677   1.719
 1150TIP3   OH2 3455   4.893   2.019   0.394
 1150TIP3    H1 3456   4.919   2.052   0.308
 1150TIP3    H2 3457   4.798   2.027   0.395
 1151TIP3   OH2 3458   0.740   5.507   5.062
 1151TIP3    H1 3459   0.791   5.584   5.034
 1151TIP3    H2 3460   0.775   5.436   5.009
 1152TIP3   OH2 3461   4.526   4.700   0.980
 1152TIP3    H1 3462   4.518   4.794   0.994
 1152TIP3    H2 3463   4.604   4.691   0.925
 1153TIP3   OH2 3464   0.996   5.455   4.086
 1153TIP3    H1 3465   1.010   5.373   4.040
 1153TIP3    H2 3466   1.084   5.493   4.095
 1154TIP3   OH2 3467   4.375   4.647   2.807
 1154TIP3    H1 3468   4.365   4.634   2.713
 1154TIP3    H2 3469   4.470   4.648   2.821
 1155TIP3   OH2 3470   6.311   0.703   1.595
 1155TIP3    H1 3471   6.274   0.701   1.684
 1155TIP3    H2 3472   6.239   0.733   1.540
 1156TIP3   OH2 3473   1.751   2.578   4.179
 1156TIP3    H1 3474   1.664   2.587   4.139
 1156TIP3    H2 3475   1.795   2.660   4.161
 1157TIP3   OH2 3476   5.125   2.554   1.777
 1157TIP3    H1 3477   5.079   2.621   1.727
 1157TIP3    H2 3478   5.170   2.602   1.846
 1158TIP3   OH2 3479   0.899   3.407   2.953
 1158TIP3    H1 3480   0.864   3.322   2.926
 1158TIP3    H2 3481   0.883   3.465   2.879
 1159TIP3   OH2 3482   0.187   3.191   1.946
 1159TIP3    H1 3483   0.096   3.216   1.930
 1159TIP3    H2 3484   0.222   3.168   1.860
 1160TIP3   OH2 3485   5.595   4.412   3.048
 1160TIP3    H1 3486   5.567   4.454   3.130
 1160TIP3    H2 3487   5.514   4.382   3.007
 1161TIP3   OH2 3488   1.497   1.011   4.275
 1161TIP3    H1 3489   1.526   0.942   4.216
 1161TIP3    H2 3490   1.410   1.036   4.242
 1162TIP3   OH2 3491   2.419   5.879   3.577
 1162TIP3    H1 3492   2.473   5.836   3.643
 1162TIP3    H2 3493   2.409   5.814   3.508
 1163TIP3   OH2 3494   0.517   4.023   5.084
 1163TIP3    H1 3495   0.460   4.046   5.158
 1163TIP3    H2 3496   0.476   3.946   5.044
 1164TIP3   OH2 3497   2.856   5.742   2.557
 1164TIP3    H1 3498   2.861   5.814   2.621
 1164TIP3    H2 3499   2.866   5.785   2.472
 1165TIP3   OH2 3500   5.359   4.678   4.945
 1165TIP3    H1 3501   5.296   4.606   4.941
 1165TIP3    H2 3502   5.358   4.706   5.036
 1166TIP3   OH2 3503   5.057   4.394   4.157
 1166TIP3    H1 3504   4.972   4.429   4.131
 1166TIP3    H2 3505   5.121   4.449   4.112
 1167TIP3   OH2 3506   4.924   0.445   2.912
 1167TIP3    H1 3507   4.972   0.417   2.990
 1167TIP3    H2 3508   4.832   0.443   2.939
 1168TIP3   OH2 3509   0.669   0.974   2.179
 1168TIP3    H1 3510   0.628   0.919   2.112
 1168TIP3    H2 3511   0.669   0.919   2.257
 1169TIP3   OH2 3512   3.935   3.515   3.015
 1169TIP3    H1 3513   3.916   3.597   2.969
 1169TIP3    H2 3514   3.955   3.452   2.946
 1170TIP3   OH2 3515   3.488   3.143   4.134
 1170TIP3    H1 3516   3.521   3.114   4.219
 1170TIP3    H2 3517   3.394   3.156   4.148
 1171TIP3   OH2 3518   4.663   0.495   3.904
 1171TIP3    H1 3519   4.603   0.543   3.962
 1171TIP3    H2 3520   4.742   0.549   3.900
 1172TIP3   OH2 3521   6.152   0.166   1.360
 1172TIP3    H1 3522   6.233   0.122   1.388
 1172TIP3    H2 3523   6.083   0.121   1.410
 1173TIP3   OH2 3524   0.054   0.687   3.087
 1173TIP3    H1 3525   0.147   0.712   3.093
 1173TIP3    H2 3526   0.014   0.759   3.038
 1174TIP3   OH2 3527   2.113   5.975   2.100
 1174TIP3    H1 3528   2.081   5.974   2.010
 1174TIP3    H2 3529   2.204   5.945   2.094
 1175TIP3   OH2 3530   0.875   1.715   1.095
 1175TIP3    H1 3531   0.862   1.775   1.021
 1175TIP3    H2 3532   0.808   1.647   1.083
 1176TIP3   OH2 3533   0.852   3.647   0.492
 1176TIP3    H1 3534   0.820   3.705   0.560
 1176TIP3    H2 3535   0.772   3.613   0.451
 1177TIP3   OH2 3536   4.724   5.850   1.237
 1177TIP3    H1 3537   4.716   5.755   1.253
 1177TIP3    H2 3538   4.633   5.880   1.230
 1178TIP3   OH2 3539   0.099   2.605   1.764
 1178TIP3    H1 3540   0.018   2.655   1.753
 1178TIP3    H2 3541   0.116   2.568   1.677
 1179TIP3   OH2 3542   0.585   5.365   3.432
 1179TIP3    H1 3543   0.567   5.458   3.449
 1179TIP3    H2 3544   0.527   5.343   3.359
 1180TIP3   OH2 3545   0.319   2.742   1.105
 1180TIP3    H1 3546   0.243   2.699   1.065
 1180TIP3    H2 3547   0.369   2.775   1.030
 1181TIP3   OH2 3548   5.771   3.697   3.188
 1181TIP3    H1 3549   5.792   3.745   3.269
 1181TIP3    H2 3550   5.676   3.708   3.179
 1182TIP3   OH2 3551   1.015   0.586   5.117
 1182TIP3    H1 3552   1.066   0.628   5.048
 1182TIP3    H2 3553   0.949   0.535   5.070
 1183TIP3   OH2 3554   1.344   5.646   0.966
 1183TIP3    H1 3555   1.322   5.739   0.965
 1183TIP3    H2 3556   1.408   5.637   1.037
 1184TIP3   OH2 3557   4.172   3.815   1.398
 1184TIP3    H1 3558   4.145   3.727   1.373
 1184TIP3    H2 3559   4.209   3.805   1.486
 1185TIP3   OH2 3560   3.201   0.459   0.883
 1185TIP3    H1 3561   3.200   0.484   0.975
 1185TIP3    H2 3562   3.187   0.365   0.883
 1186TIP3   OH2 3563   5.530   4.693   0.545
 1186TIP3    H1 3564   5.444   4.700   0.504
 1186TIP3    H2 3565   5.565   4.610   0.514
 1187TIP3   OH2 3566   0.144   1.248   0.968
 1187TIP3    H1 3567   0.129   1.300   0.889
 1187TIP3    H2 3568   0.200   1.175   0.939
 1188TIP3   OH2 3569   4.815   0.458   0.021
 1188TIP3    H1 3570   4.880   0.397   0.056
 1188TIP3    H2 3571   4.735   0.407   0.012
 1189TIP3   OH2 3572   4.594   4.627   0.459
 1189TIP3    H1 3573   4.665   4.648   0.397
 1189TIP3    H2 3574   4.523   4.594   0.404
 1190TIP3   OH2 3575   5.536   3.340   3.638
 1190TIP3    H1 3576   5.605   3.284   3.605
 1190TIP3    H2 3577   5.469   3.340   3.569
 1191TIP3   OH2 3578   4.204   3.568   4.345
 1191TIP3    H1 3579   4.209   3.538   4.254
 1191TIP3    H2 3580   4.204   3.487   4.397
 1192TIP3   OH2 3581   3.379   1.195   1.577
 1192TIP3    H1 3582   3.408   1.258   1.642
 1192TIP3    H2 3583   3.284   1.191   1.587
 1193TIP3   OH2 3584   2.863   4.710   3.860
 1193TIP3    H1 3585   2.900   4.707   3.948
 1193TIP3    H2 3586   2.895   4.630   3.818
 1194TIP3   OH2 3587   1.428   3.487   1.214
 1194TIP3    H1 3588   1.375   3.559   1.179
 1194TIP3    H2 3589   1.374   3.449   1.283
 1195TIP3   OH2 3590   5.022   5.251   0.160
 1195TIP3    H1 3591   5.046   5.189   0.228
 1195TIP3    H2 3592   5.047   5.209   0.078
 1196TIP3   OH2 3593   2.424   1.975   2.385
 1196TIP3    H1 3594   2.480   1.941   2.455
 1196TIP3    H2 3595   2.377   1.899   2.352
 1197TIP3   OH2 3596   3.473   2.169   1.846
 1197TIP3    H1 3597   3.569   2.161   1.841
 1197TIP3    H2 3598   3.456   2.200   1.934
 1198TIP3   OH2 3599   5.610   1.214   2.814
 1198TIP3    H1 3600   5.622   1.221   2.909
 1198TIP3    H2 3601   5.665   1.283   2.778
 1199TIP3   OH2 3602   5.270   0.480   3.128
 1199TIP3    H1 3603   5.176   0.488   3.117
 1199TIP3    H2 3604   5.299   0.568   3.151
 1200TIP3   OH2 3605   5.712   2.522   3.091
 1200TIP3    H1 3606   5.680   2.607   3.123
 1200TIP3    H2 3607   5.633   2.475   3.064
 1201TIP3   OH2 3608   4.025   1.456   0.878
 1201TIP3    H1 3609   3.954   1.449   0.814
 1201TIP3    H2 3610   4.093   1.397   0.844
 1202TIP3   OH2 3611   1.232   5.184   0.965
 1202TIP3    H1 3612   1.249   5.276   0.945
 1202TIP3    H2 3613   1.154   5.186   1.022
 1203TIP3   OH2 3614   2.603   4.201   0.875
 1203TIP3    H1 3615   2.560   4.224   0.958
 1203TIP3    H2 3616   2.693   4.231   0.886
 1204TIP3   OH2 3617   4.946   2.892   4.763
 1204TIP3    H1 3618   4.977   2.871   4.851
 1204TIP3    H2 3619   5.007   2.957   4.730
 1205TIP3   OH2 3620   0.570   2.098   0.568
 1205TIP3    H1 3621   0.599   2.152   0.495
 1205TIP3    H2 3622   0.651   2.059   0.602
 1206TIP3   OH2 3623   1.915   4.317   4.891
 1206TIP3    H1 3624   1.938   4.296   4.982
 1206TIP3    H2 3625   1.835   4.369   4.899
 1207TIP3   OH2 3626   1.776   5.384   2.235
 1207TIP3    H1 3627   1.795   5.335   2.315
 1207TIP3    H2 3628   1.748   5.318   2.172
 1208TIP3   OH2 3629   4.328   2.778   3.933
 1208TIP3    H1 3630   4.260   2.755   3.870
 1208TIP3    H2 3631   4.387   2.836   3.884
 1209TIP3   OH2 3632   0.141   5.616   0.115
 1209TIP3    H1 3633   0.119   5.687   0.176
 1209TIP3    H2 3634   0.116   5.650   0.029
 1210TIP3   OH2 3635   4.157   3.963   0.028
 1210TIP3    H1 3636   4.096   3.993   0.095
 1210TIP3    H2 3637   4.159   4.033  -0.037
 1211TIP3   OH2 3638   0.486   1.952   0.953
 1211TIP3    H1 3639   0.395   1.974   0.973
 1211TIP3    H2 3640   0.527   2.035   0.932
 1212TIP3   OH2 3641   2.805   3.886   4.013
 1212TIP3    H1 3642   2.749   3.917   3.942
 1212TIP3    H2 3643   2.756   3.813   4.052
 1213TIP3   OH2 3644   1.834   3.757   3.088
 1213TIP3    H1 3645   1.908   3.770   3.029
 1213TIP3    H2 3646   1.805   3.846   3.110
 1214TIP3   OH2 3647   4.084   3.561   2.647
 1214TIP3    H1 3648   4.089   3.541   2.553
 1214TIP3    H2 3649   4.031   3.641   2.651
 1215TIP3   OH2 3650   2.772   1.350   3.050
 1215TIP3    H1 3651   2.856   1.306   3.061
 1215TIP3    H2 3652   2.794   1.442   3.038
 1216TIP3   OH2 3653   5.941   2.173   0.173
 1216TIP3    H1 3654   5.915   2.178   0.265
 1216TIP3    H2 3655   5.861   2.150   0.126
 1217TIP3   OH2 3656   1.502   5.699   1.176
 1217TIP3    H1 3657   1.512   5.753   1.254
 1217TIP3    H2 3658   1.582   5.713   1.126
 1218TIP3   OH2 3659   3.645   1.261   2.783
 1218TIP3    H1 3660   3.662   1.272   2.689
 1218TIP3    H2 3661   3.615   1.346   2.812
 1219TIP3   OH2 3662   5.993   5.212   0.894
 1219TIP3    H1 3663   5.970   5.122   0.915
 1219TIP3    H2 3664   5.916   5.247   0.850
 1220TIP3   OH2 3665   3.950   4.789   0.692
 1220TIP3    H1 3666   3.895   4.728   0.741
 1220TIP3    H2 3667   4.039   4.774   0.726
 1221TIP3   OH2 3668   4.708   5.219   2.427
 1221TIP3    H1 3669   4.717   5.162   2.350
 1221TIP3    H2 3670   4.644   5.175   2.483
 1222TIP3   OH2 3671   2.543   1.281   4.155
 1222TIP3    H1 3672   2.448   1.270   4.162
 1222TIP3    H2 3673   2.577   1.258   4.242
 1223TIP3   OH2 3674   1.670   5.668   4.729
 1223TIP3    H1 3675   1.581   5.656   4.762
 1223TIP3    H2 3676   1.679   5.603   4.660
 1224TIP3   OH2 3677   4.442   4.800   4.474
 1224TIP3    H1 3678   4.365   4.851   4.450
 1224TIP3    H2 3679   4.491   4.792   4.392
 1225TIP3   OH2 3680   5.176   2.848   3.838
 1225TIP3    H1 3681   5.163   2.753   3.832
 1225TIP3    H2 3682   5.144   2.881   3.755
 1226TIP3   OH2 3683   4.094   0.724   0.933
 1226TIP3    H1 3684   4.184   0.751   0.951
 1226TIP3    H2 3685   4.079   0.753   0.843
 1227TIP3   OH2 3686   4.122   1.245   1.309
 1227TIP3    H1 3687   4.181   1.199   1.368
 1227TIP3    H2 3688   4.170   1.249   1.226
 1228TIP3   OH2 3689   0.483   3.106   2.307
 1228TIP3    H1 3690   0.410   3.166   2.319
 1228TIP3    H2 3691   0.445   3.028   2.268
 1229TIP3   OH2 3692   4.282   0.551   1.670
 1229TIP3    H1 3693   4.230   0.576   1.594
 1229TIP3    H2 3694   4.362   0.515   1.634
 1230TIP3   OH2 3695   4.618   4.109   2.984
 1230TIP3    H1 3696   4.662   4.052   3.048
 1230TIP3    H2 3697   4.610   4.055   2.906
 1231TIP3   OH2 3698   2.711   1.069   2.686
 1231TIP3    H1 3699   2.639   1.083   2.748
 1231TIP3    H2 3700   2.786   1.113   2.727
 1232TIP3   OH2 3701   1.378   0.287   3.612
 1232TIP3    H1 3702   1.345   0.235   3.539
 1232TIP3    H2 3703   1.385   0.376   3.578
 1233TIP3   OH2 3704   6.176   3.245   0.271
 1233TIP3    H1 3705   6.247   3.250   0.206
 1233TIP3    H2 3706   6.099   3.279   0.225
 1234TIP3   OH2 3707   3.180   4.158   4.143
 1234TIP3    H1 3708   3.144   4.069   4.149
 1234TIP3    H2 3709   3.107   4.212   4.114
 1235TIP3   OH2 3710   5.627   1.596   4.968
 1235TIP3    H1 3711   5.622   1.688   4.996
 1235TIP3    H2 3712   5.652   1.548   5.046
 1236TIP3   OH2 3713   2.123   2.544   2.131
 1236TIP3    H1 3714   2.139   2.543   2.225
 1236TIP3    H2 3715   2.200   2.501   2.093
 1237TIP3   OH2 3716   4.727   2.737   0.598
 1237TIP3    H1 3717   4.761   2.761   0.511
 1237TIP3    H2 3718   4.788   2.777   0.659
 1238TIP3   OH2 3719   3.836   1.510   0.652
 1238TIP3    H1 3720   3.791   1.593   0.637
 1238TIP3    H2 3721   3.846   1.472   0.564
 1239TIP3   OH2 3722   3.463   0.811   1.621
 1239TIP3    H1 3723   3.425   0.839   1.538
 1239TIP3    H2 3724   3.487   0.719   1.607
 1240TIP3   OH2 3725   1.482   5.652   3.563
 1240TIP3    H1 3726   1.391   5.640   3.590
 1240TIP3    H2 3727   1.532   5.649   3.644
 1241TIP3   OH2 3728   4.711   2.025   2.577
 1241TIP3    H1 3729   4.734   2.063   2.492
 1241TIP3    H2 3730   4.630   1.977   2.560
 1242TIP3   OH2 3731   2.758   1.511   1.349
 1242TIP3    H1 3732   2.772   1.581   1.413
 1242TIP3    H2 3733   2.670   1.478   1.367
 1243TIP3   OH2 3734   1.824   1.509   0.107
 1243TIP3    H1 3735   1.796   1.420   0.129
 1243TIP3    H2 3736   1.885   1.532   0.177
 1244TIP3   OH2 3737   3.730   2.743   2.213
 1244TIP3    H1 3738   3.808   2.768   2.164
 1244TIP3    H2 3739   3.728   2.803   2.288
 1245TIP3   OH2 3740   2.375   1.932   0.904
 1245TIP3    H1 3741   2.307   1.911   0.840
 1245TIP3    H2 3742   2.381   1.855   0.960
 1246TIP3   OH2 3743   0.126   4.412   0.179
 1246TIP3    H1 3744   0.068   4.417   0.103
 1246TIP3    H2 3745   0.075   4.363   0.244
 1247TIP3   OH2 3746   4.120   3.227   5.061
 1247TIP3    H1 3747   4.123   3.140   5.022
 1247TIP3    H2 3748   4.149   3.286   4.992
 1248TIP3   OH2 3749   3.717   3.457   4.236
 1248TIP3    H1 3750   3.720   3.403   4.157
 1248TIP3    H2 3751   3.732   3.546   4.205
 1249TIP3   OH2 3752   5.675   3.530   1.393
 1249TIP3    H1 3753   5.680   3.568   1.481
 1249TIP3    H2 3754   5.687   3.605   1.335
 1250TIP3   OH2 3755   0.627   0.165   4.902
 1250TIP3    H1 3756   0.656   0.254   4.924
 1250TIP3    H2 3757   0.683   0.139   4.829
 1251TIP3   OH2 3758   4.687   1.185   3.636
 1251TIP3    H1 3759   4.598   1.221   3.643
 1251TIP3    H2 3760   4.677   1.092   3.658
 1252TIP3   OH2 3761   3.577   0.965   1.239
 1252TIP3    H1 3762   3.581   1.060   1.237
 1252TIP3    H2 3763   3.669   0.937   1.233
 1253TIP3   OH2 3764   1.988   1.728   0.484
 1253TIP3    H1 3765   1.906   1.776   0.469
 1253TIP3    H2 3766   2.051   1.795   0.508
 1254TIP3   OH2 3767   1.939   5.784   3.651
 1254TIP3    H1 3768   1.928   5.774   3.746
 1254TIP3    H2 3769   1.953   5.694   3.620
 1255TIP3   OH2 3770   1.085   2.191   2.305
 1255TIP3    H1 3771   1.037   2.268   2.336
 1255TIP3    H2 3772   1.021   2.120   2.309
 1256TIP3   OH2 3773   2.542   0.215   4.958
 1256TIP3    H1 3774   2.555   0.305   4.988
 1256TIP3    H2 3775   2.584   0.212   4.872
 1257TIP3   OH2 3776   2.332   3.094   1.509
 1257TIP3    H1 3777   2.270   3.128   1.445
 1257TIP3    H2 3778   2.404   3.158   1.508
 1258TIP3   OH2 3779   0.058   3.940   4.292
 1258TIP3    H1 3780   0.134   3.946   4.350
 1258TIP3    H2 3781   0.095   3.920   4.206
 1259TIP3   OH2 3782   4.486   5.355   0.091
 1259TIP3    H1 3783   4.446   5.288   0.037
 1259TIP3    H2 3784   4.579   5.330   0.096
 1260TIP3   OH2 3785   5.371   0.114   1.236
 1260TIP3    H1 3786   5.350   0.057   1.162
 1260TIP3    H2 3787   5.289   0.122   1.284
 1261TIP3   OH2 3788   2.304   4.177   3.199
 1261TIP3    H1 3789   2.302   4.272   3.214
 1261TIP3    H2 3790   2.229   4.160   3.142
 1262TIP3   OH2 3791   0.610   1.055   1.516
 1262TIP3    H1 3792   0.647   1.071   1.603
 1262TIP3    H2 3793   0.600   1.142   1.477
 1263TIP3   OH2 3794   5.188   3.361   2.600
 1263TIP3    H1 3795   5.110   3.307   2.591
 1263TIP3    H2 3796   5.159   3.437   2.650
 1264TIP3   OH2 3797   1.356   0.924   1.674
 1264TIP3    H1 3798   1.344   0.968   1.758
 1264TIP3    H2 3799   1.441   0.953   1.643
 1265TIP3   OH2 3800   1.569   4.135   4.404
 1265TIP3    H1 3801   1.487   4.138   4.355
 1265TIP3    H2 3802   1.544   4.112   4.493
 1266TIP3   OH2 3803   1.169   4.488   0.365
 1266TIP3    H1 3804   1.237   4.459   0.304
 1266TIP3    H2 3805   1.092   4.500   0.310
 1267TIP3   OH2 3806   0.381   2.960   0.281
 1267TIP3    H1 3807   0.443   3.011   0.333
 1267TIP3    H2 3808   0.433   2.924   0.209
 1268TIP3   OH2 3809   1.395   2.313   3.544
 1268TIP3    H1 3810   1.463   2.381   3.540
 1268TIP3    H2 3811   1.426   2.245   3.484
 1269TIP3   OH2 3812   5.646   3.740   0.095
 1269TIP3    H1 3813   5.563   3.700   0.121
 1269TIP3    H2 3814   5.707   3.714   0.164
 1270TIP3   OH2 3815   6.017   3.261   0.949
 1270TIP3    H1 3816   5.985   3.323   1.015
 1270TIP3    H2 3817   5.952   3.191   0.948
 1271TIP3   OH2 3818   1.785   3.377   4.536
 1271TIP3    H1 3819   1.736   3.303   4.499
 1271TIP3    H2 3820   1.721   3.449   4.536
 1272TIP3   OH2 3821   1.995   5.735   0.959
 1272TIP3    H1 3822   1.980   5.772   0.872
 1272TIP3    H2 3823   1.909   5.702   0.986
 1273TIP3   OH2 3824   3.783   5.548   2.254
 1273TIP3    H1 3825   3.863   5.536   2.202
 1273TIP3    H2 3826   3.744   5.628   2.219
 1274TIP3   OH2 3827   5.044   5.825   1.468
 1274TIP3    H1 3828   5.124   5.813   1.417
 1274TIP3    H2 3829   4.996   5.743   1.456
 1275TIP3   OH2 3830   0.951   5.718   2.931
 1275TIP3    H1 3831   0.977   5.748   3.018
 1275TIP3    H2 3832   1.028   5.733   2.876
 1276TIP3   OH2 3833   2.998   2.998   3.390
 1276TIP3    H1 3834   2.937   2.943   3.342
 1276TIP3    H2 3835   2.980   2.979   3.482
 1277TIP3   OH2 3836   1.288   0.878   4.798
 1277TIP3    H1 3837   1.316   0.886   4.707
 1277TIP3    H2 3838   1.369   0.863   4.847
 1278TIP3   OH2 3839   5.678   1.495   2.389
 1278TIP3    H1 3840   5.627   1.434   2.337
 1278TIP3    H2 3841   5.636   1.496   2.475
 1279TIP3   OH2 3842   0.652   4.434   3.678
 1279TIP3    H1 3843   0.602   4.355   3.700
 1279TIP3    H2 3844   0.588   4.490   3.633
 1280TIP3   OH2 3845   2.098   4.381   0.880
 1280TIP3    H1 3846   2.028   4.330   0.920
 1280TIP3    H2 3847   2.053   4.456   0.840
 1281TIP3   OH2 3848   5.526   1.225   3.719
 1281TIP3    H1 3849   5.502   1.271   3.638
 1281TIP3    H2 3850   5.470   1.264   3.786
 1282TIP3   OH2 3851   2.407   3.457   1.903
 1282TIP3    H1 3852   2.390   3.507   1.984
 1282TIP3    H2 3853   2.491   3.414   1.920
 1283TIP3   OH2 3854   6.182   1.859   1.142
 1283TIP3    H1 3855   6.235   1.823   1.213
 1283TIP3    H2 3856   6.196   1.953   1.146
 1284TIP3   OH2 3857   5.481   1.232   0.958
 1284TIP3    H1 3858   5.501   1.183   1.038
 1284TIP3    H2 3859   5.440   1.313   0.988
 1285TIP3   OH2 3860   0.311   0.283   0.381
 1285TIP3    H1 3861   0.250   0.306   0.452
 1285TIP3    H2 3862   0.342   0.368   0.348
 1286TIP3   OH2 3863   2.271   3.986   4.087
 1286TIP3    H1 3864   2.276   3.891   4.100
 1286TIP3    H2 3865   2.247   4.021   4.173
 1287TIP3   OH2 3866   0.930   5.884   1.024
 1287TIP3    H1 3867   0.997   5.817   1.041
 1287TIP3    H2 3868   0.857   5.837   0.985
 1288TIP3   OH2 3869   0.581   1.454   3.269
 1288TIP3    H1 3870   0.607   1.521   3.206
 1288TIP3    H2 3871   0.486   1.462   3.275
 1289TIP3   OH2 3872   5.634   4.464   2.402
 1289TIP3    H1 3873   5.652   4.481   2.310
 1289TIP3    H2 3874   5.715   4.424   2.435
 1290TIP3   OH2 3875   0.021   4.384   3.125
 1290TIP3    H1 3876   0.088   4.341   3.178
 1290TIP3    H2 3877  -0.040   4.421   3.188
 1291TIP3   OH2 3878   0.236   3.344   3.090
 1291TIP3    H1 3879   0.142   3.343   3.110
 1291TIP3    H2 3880   0.277   3.380   3.169
 1292TIP3   OH2 3881   2.439   1.392   3.441
 1292TIP3    H1 3882   2.435   1.458   3.511
 1292TIP3    H2 3883   2.386   1.429   3.370
 1293TIP3   OH2 3884   0.697   1.033   0.933
 1293TIP3    H1 3885   0.792   1.025   0.928
 1293TIP3    H2 3886   0.666   1.001   0.848
 1294TIP3   OH2 3887   3.980   2.413   5.061
 1294TIP3    H1 3888   4.070   2.416   5.030
 1294TIP3    H2 3889   3.980   2.465   5.141
 1295TIP3   OH2 3890   3.924   4.359   3.405
 1295TIP3    H1 3891   3.979   4.388   3.332
 1295TIP3    H2 3892   3.835   4.372   3.374
 1296TIP3   OH2 3893   1.504   3.476   2.143
 1296TIP3    H1 3894   1.519   3.418   2.217
 1296TIP3    H2 3895   1.456   3.550   2.180
 1297TIP3   OH2 3896   4.660   2.377   1.209
 1297TIP3    H1 3897   4.712   2.367   1.289
 1297TIP3    H2 3898   4.690   2.460   1.171
 1298TIP3   OH2 3899   6.096   3.395   2.690
 1298TIP3    H1 3900   6.043   3.454   2.744
 1298TIP3    H2 3901   6.055   3.397   2.604
 1299TIP3   OH2 3902   1.832   3.906   0.485
 1299TIP3    H1 3903   1.767   3.855   0.437
 1299TIP3    H2 3904   1.860   3.848   0.556
 1300TIP3   OH2 3905   5.427   3.040   1.601
 1300TIP3    H1 3906   5.331   3.036   1.601
 1300TIP3    H2 3907   5.455   2.949   1.606
 1301TIP3   OH2 3908   1.410   4.697   3.876
 1301TIP3    H1 3909   1.466   4.764   3.836
 1301TIP3    H2 3910   1.322   4.734   3.871
 1302TIP3   OH2 3911   4.992   3.569   4.004
 1302TIP3    H1 3912   5.025   3.591   3.917
 1302TIP3    H2 3913   4.936   3.643   4.028
 1303TIP3   OH2 3914   5.353   0.214   0.008
 1303TIP3    H1 3915   5.361   0.122   0.034
 1303TIP3    H2 3916   5.342   0.262   0.090
 1304TIP3   OH2 3917   4.858   5.131   4.636
 1304TIP3    H1 3918   4.851   5.203   4.698
 1304TIP3    H2 3919   4.894   5.059   4.688
 1305TIP3   OH2 3920   2.968   1.885   0.365
 1305TIP3    H1 3921   2.887   1.915   0.407
 1305TIP3    H2 3922   2.958   1.912   0.273
 1306TIP3   OH2 3923   0.690   2.804   1.554
 1306TIP3    H1 3924   0.609   2.855   1.554
 1306TIP3    H2 3925   0.672   2.730   1.612
 1307TIP3   OH2 3926   5.362   1.750   3.459
 1307TIP3    H1 3927   5.440   1.792   3.425
 1307TIP3    H2 3928   5.307   1.823   3.490
 1308TIP3   OH2 3929   2.573   5.151   1.179
 1308TIP3    H1 3930   2.660   5.117   1.157
 1308TIP3    H2 3931   2.569   5.144   1.275
 1309TIP3   OH2 3932   5.713   5.744   4.881
 1309TIP3    H1 3933   5.690   5.656   4.912
 1309TIP3    H2 3934   5.785   5.772   4.938
 1310TIP3   OH2 3935   2.967   0.266   0.211
 1310TIP3    H1 3936   3.026   0.340   0.220
 1310TIP3    H2 3937   2.950   0.238   0.301
 1311TIP3   OH2 3938   4.449   4.290   1.706
 1311TIP3    H1 3939   4.464   4.238   1.627
 1311TIP3    H2 3940   4.511   4.363   1.698
 1312TIP3   OH2 3941   0.796   5.232   3.523
 1312TIP3    H1 3942   0.776   5.144   3.556
 1312TIP3    H2 3943   0.710   5.272   3.509
 1313TIP3   OH2 3944   4.927   3.208   3.787
 1313TIP3    H1 3945   4.835   3.203   3.816
 1313TIP3    H2 3946   4.924   3.260   3.707
 1314TIP3   OH2 3947   2.738   2.158   3.852
 1314TIP3    H1 3948   2.778   2.243   3.870
 1314TIP3    H2 3949   2.672   2.147   3.920
 1315TIP3   OH2 3950   2.309   4.993   3.427
 1315TIP3    H1 3951   2.268   5.012   3.511
 1315TIP3    H2 3952   2.362   5.071   3.408
 1316TIP3   OH2 3953   4.209   4.464   3.267
 1316TIP3    H1 3954   4.224   4.370   3.270
 1316TIP3    H2 3955   4.249   4.493   3.185
 1317TIP3   OH2 3956   5.870   1.126   4.452
 1317TIP3    H1 3957   5.947   1.180   4.435
 1317TIP3    H2 3958   5.902   1.036   4.449
 1318TIP3   OH2 3959   5.167   3.956   4.481
 1318TIP3    H1 3960   5.092   4.015   4.479
 1318TIP3    H2 3961   5.128   3.868   4.474
 1319TIP3   OH2 3962   1.870   4.827   1.423
 1319TIP3    H1 3963   1.927   4.769   1.373
 1319TIP3    H2 3964   1.912   4.913   1.416
 1320TIP3   OH2 3965   5.607   4.684   4.219
 1320TIP3    H1 3966   5.610   4.629   4.297
 1320TIP3    H2 3967   5.699   4.709   4.204
 1321TIP3   OH2 3968   1.266   2.539   0.286
 1321TIP3    H1 3969   1.205   2.478   0.329
 1321TIP3    H2 3970   1.342   2.486   0.265
 1322TIP3   OH2 3971   5.991   1.245   3.019
 1322TIP3    H1 3972   5.987   1.327   3.068
 1322TIP3    H2 3973   5.977   1.271   2.928
 1323TIP3   OH2 3974   0.966   5.817   3.198
 1323TIP3    H1 3975   0.986   5.759   3.272
 1323TIP3    H2 3976   0.961   5.905   3.237
 1324TIP3   OH2 3977   3.224   0.715   3.447
 1324TIP3    H1 3978   3.187   0.779   3.507
 1324TIP3    H2 3979   3.259   0.766   3.374
 1325TIP3   OH2 3980   5.434   0.020   0.778
 1325TIP3    H1 3981   5.352   0.065   0.758
 1325TIP3    H2 3982   5.414  -0.033   0.855
 1326TIP3   OH2 3983   3.089   3.519   3.212
 1326TIP3    H1 3984   3.043   3.601   3.193
 1326TIP3    H2 3985   3.045   3.485   3.290
 1327TIP3   OH2 3986   5.603   1.657   2.165
 1327TIP3    H1 3987   5.630   1.580   2.216
 1327TIP3    H2 3988   5.543   1.704   2.223
 1328TIP3   OH2 3989   5.227   0.477   2.554
 1328TIP3    H1 3990   5.192   0.416   2.618
 1328TIP3    H2 3991   5.261   0.422   2.484
 1329TIP3   OH2 3992   1.205   1.022   1.022
 1329TIP3    H1 3993   1.219   1.108   0.983
 1329TIP3    H2 3994   1.165   1.040   1.107
 1330TIP3   OH2 3995   4.171   0.498   0.681
 1330TIP3    H1 3996   4.177   0.443   0.602
 1330TIP3    H2 3997   4.229   0.572   0.663
 1331TIP3   OH2 3998   4.877   1.578   0.032
 1331TIP3    H1 3999   4.851   1.657   0.081
 1331TIP3    H2 4000   4.840   1.591  -0.055
 1332TIP3   OH2 4001   3.803   4.369   1.407
 1332TIP3    H1 4002   3.844   4.454   1.397
 1332TIP3    H2 4003   3.711   4.388   1.428
 1333TIP3   OH2 4004   5.660   0.763   1.079
 1333TIP3    H1 4005   5.576   0.771   1.033
 1333TIP3    H2 4006   5.725   0.789   1.014
 1334TIP3   OH2 4007   3.210   1.805   5.171
 1334TIP3    H1 4008   3.179   1.863   5.241
 1334TIP3    H2 4009   3.298   1.780   5.198
 1335TIP3   OH2 4010   6.026   0.544   2.153
 1335TIP3    H1 4011   5.960   0.612   2.141
 1335TIP3    H2 4012   5.995   0.492   2.227
 1336TIP3   OH2 4013   4.490   5.382   1.853
 1336TIP3    H1 4014   4.486   5.471   1.888
 1336TIP3    H2 4015   4.493   5.326   1.931
 1337TIP3   OH2 4016   1.368   1.502   3.490
 1337TIP3    H1 4017   1.283   1.479   3.527
 1337TIP3    H2 4018   1.352   1.582   3.441
 1338TIP3   OH2 4019   6.203   0.230   2.391
 1338TIP3    H1 4020   6.280   0.220   2.334
 1338TIP3    H2 4021   6.238   0.227   2.480
 1339TIP3   OH2 4022   3.833   1.108   1.782
 1339TIP3    H1 4023   3.759   1.117   1.842
 1339TIP3    H2 4024   3.792   1.079   1.700
 1340TIP3   OH2 4025   4.323   0.377   2.238
 1340TIP3    H1 4026   4.387   0.358   2.170
 1340TIP3    H2 4027   4.344   0.466   2.268
 1341TIP3   OH2 4028   1.195   0.807   3.581
 1341TIP3    H1 4029   1.185   0.731   3.638
 1341TIP3    H2 4030   1.273   0.788   3.528
 1342TIP3   OH2 4031   4.678   4.407   3.163
 1342TIP3    H1 4032   4.622   4.406   3.086
 1342TIP3    H2 4033   4.747   4.343   3.143
 1343TIP3   OH2 4034   1.856   3.428   3.066
 1343TIP3    H1 4035   1.881   3.473   2.985
 1343TIP3    H2 4036   1.899   3.343   3.060
 1344TIP3   OH2 4037   3.762   2.284   0.901
 1344TIP3    H1 4038   3.669   2.273   0.878
 1344TIP3    H2 4039   3.796   2.342   0.833
 1345TIP3   OH2 4040   2.259   0.602   3.451
 1345TIP3    H1 4041   2.224   0.691   3.445
 1345TIP3    H2 4042   2.295   0.597   3.539
 1346TIP3   OH2 4043   5.376   2.310   4.115
 1346TIP3    H1 4044   5.437   2.236   4.125
 1346TIP3    H2 4045   5.342   2.301   4.026
 1347TIP3   OH2 4046   1.715   2.378   0.328
 1347TIP3    H1 4047   1.748   2.293   0.358
 1347TIP3    H2 4048   1.767   2.442   0.376
 1348TIP3   OH2 4049   5.409   4.186   1.258
 1348TIP3    H1 4050   5.379   4.235   1.334
 1348TIP3    H2 4051   5.487   4.233   1.228
 1349TIP3   OH2 4052   3.165   3.441   4.147
 1349TIP3    H1 4053   3.154   3.530   4.180
 1349TIP3    H2 4054   3.079   3.401   4.155
 1350TIP3   OH2 4055   3.607   5.138   0.861
 1350TIP3    H1 4056   3.688   5.103   0.825
 1350TIP3    H2 4057   3.544   5.130   0.789
 1351TIP3   OH2 4058   4.835   0.521   0.920
 1351TIP3    H1 4059   4.823   0.470   0.999
 1351TIP3    H2 4060   4.748   0.552   0.897
 1352TIP3   OH2 4061   4.311   5.126   0.854
 1352TIP3    H1 4062   4.232   5.173   0.827
 1352TIP3    H2 4063   4.382   5.170   0.807
 1353TIP3   OH2 4064   5.256   5.300   2.098
 1353TIP3    H1 4065   5.271   5.260   2.013
 1353TIP3    H2 4066   5.310   5.249   2.159
 1354TIP3   OH2 4067   2.167   3.441   3.687
 1354TIP3    H1 4068   2.229   3.513   3.675
 1354TIP3    H2 4069   2.189   3.378   3.619
 1355TIP3   OH2 4070   3.859   0.635   0.396
 1355TIP3    H1 4071   3.882   0.570   0.462
 1355TIP3    H2 4072   3.806   0.587   0.332
 1356TIP3   OH2 4073   1.681   4.511   2.961
 1356TIP3    H1 4074   1.591   4.525   2.931
 1356TIP3    H2 4075   1.730   4.584   2.924
 1357TIP3   OH2 4076   3.898   2.371   2.485
 1357TIP3    H1 4077   3.920   2.357   2.393
 1357TIP3    H2 4078   3.810   2.336   2.495
 1358TIP3   OH2 4079   4.960   2.102   4.280
 1358TIP3    H1 4080   5.013   2.041   4.332
 1358TIP3    H2 4081   5.002   2.187   4.292
 1359TIP3   OH2 4082   3.729   1.894   2.970
 1359TIP3    H1 4083   3.644   1.852   2.963
 1359TIP3    H2 4084   3.773   1.874   2.888
 1360TIP3   OH2 4085   3.218   4.718   4.523
 1360TIP3    H1 4086   3.145   4.668   4.487
 1360TIP3    H2 4087   3.177   4.792   4.567
 1361TIP3   OH2 4088   5.511   1.622   0.534
 1361TIP3    H1 4089   5.590   1.578   0.502
 1361TIP3    H2 4090   5.468   1.556   0.590
 1362TIP3   OH2 4091   5.455   4.083   2.882
 1362TIP3    H1 4092   5.542   4.094   2.842
 1362TIP3    H2 4093   5.420   4.004   2.841
 1363TIP3   OH2 4094   5.036   4.006   0.665
 1363TIP3    H1 4095   5.055   3.912   0.673
 1363TIP3    H2 4096   5.107   4.040   0.611
 1364TIP3   OH2 4097   4.000   5.291   2.279
 1364TIP3    H1 4098   4.040   5.353   2.340
 1364TIP3    H2 4099   4.003   5.335   2.194
 1365TIP3   OH2 4100   2.883   4.140   3.664
 1365TIP3    H1 4101   2.836   4.057   3.669
 1365TIP3    H2 4102   2.926   4.138   3.579
 1366TIP3   OH2 4103   1.164   4.678   0.096
 1366TIP3    H1 4104   1.074   4.711   0.093
 1366TIP3    H2 4105   1.162   4.609   0.162
 1367TIP3   OH2 4106   1.469   3.247   5.019
 1367TIP3    H1 4107   1.507   3.170   5.062
 1367TIP3    H2 4108   1.534   3.316   5.033
 1368TIP3   OH2 4109   6.163   5.944   4.000
 1368TIP3    H1 4110   6.105   6.018   4.019
 1368TIP3    H2 4111   6.166   5.894   4.081
 1369TIP3   OH2 4112   3.555   5.549   1.325
 1369TIP3    H1 4113   3.511   5.579   1.245
 1369TIP3    H2 4114   3.483   5.527   1.384
 1370TIP3   OH2 4115   3.987   2.999   4.664
 1370TIP3    H1 4116   3.892   3.006   4.673
 1370TIP3    H2 4117   4.016   3.089   4.645
 1371TIP3   OH2 4118   3.016   1.917   0.750
 1371TIP3    H1 4119   3.017   1.999   0.699
 1371TIP3    H2 4120   3.079   1.860   0.705
 1372TIP3   OH2 4121   2.493   3.498   1.463
 1372TIP3    H1 4122   2.526   3.452   1.540
 1372TIP3    H2 4123   2.498   3.434   1.392
 1373TIP3   OH2 4124   0.477   5.713   0.913
 1373TIP3    H1 4125   0.514   5.716   1.002
 1373TIP3    H2 4126   0.513   5.633   0.874
 1374TIP3   OH2 4127   3.987   0.542   2.778
 1374TIP3    H1 4128   4.064   0.526   2.723
 1374TIP3    H2 4129   3.917   0.564   2.716
 1375TIP3   OH2 4130   2.196   3.043   3.714
 1375TIP3    H1 4131   2.262   3.052   3.646
 1375TIP3    H2 4132   2.191   2.949   3.730
 1376TIP3   OH2 4133   3.850   0.201   2.775
 1376TIP3    H1 4134   3.943   0.199   2.795
 1376TIP3    H2 4135   3.846   0.209   2.679
 1377TIP3   OH2 4136   3.204   4.611   1.366
 1377TIP3    H1 4137   3.115   4.626   1.332
 1377TIP3    H2 4138   3.252   4.574   1.291
 1378TIP3   OH2 4139   3.222   5.190   2.695
 1378TIP3    H1 4140   3.150   5.236   2.652
 1378TIP3    H2 4141   3.298   5.209   2.639
 1379TIP3   OH2 4142   1.571   4.567   4.425
 1379TIP3    H1 4143   1.623   4.624   4.370
 1379TIP3    H2 4144   1.482   4.573   4.389
 1380TIP3   OH2 4145   3.511   2.476   3.396
 1380TIP3    H1 4146   3.506   2.541   3.326
 1380TIP3    H2 4147   3.492   2.525   3.476
 1381TIP3   OH2 4148   4.632   0.053   0.170
 1381TIP3    H1 4149   4.714   0.005   0.160
 1381TIP3    H2 4150   4.650   0.118   0.237
 1382TIP3   OH2 4151   1.565   4.295   3.841
 1382TIP3    H1 4152   1.567   4.275   3.747
 1382TIP3    H2 4153   1.565   4.210   3.884
 1383TIP3   OH2 4154   1.050   1.701   4.612
 1383TIP3    H1 4155   0.981   1.686   4.677
 1383TIP3    H2 4156   1.057   1.796   4.606
 1384TIP3   OH2 4157   3.156   0.017   0.239
 1384TIP3    H1 4158   3.173   0.086   0.175
 1384TIP3    H2 4159   3.233   0.017   0.296
 1385TIP3   OH2 4160   5.925   2.487   3.546
 1385TIP3    H1 4161   5.917   2.582   3.533
 1385TIP3    H2 4162   5.844   2.462   3.591
 1386TIP3   OH2 4163   2.155   2.265   3.633
 1386TIP3    H1 4164   2.086   2.233   3.691
 1386TIP3    H2 4165   2.133   2.357   3.618
 1387TIP3   OH2 4166   4.017   2.239   3.637
 1387TIP3    H1 4167   3.996   2.241   3.730
 1387TIP3    H2 4168   4.045   2.149   3.620
 1388TIP3   OH2 4169   1.162   0.832   1.997
 1388TIP3    H1 4170   1.146   0.745   2.036
 1388TIP3    H2 4171   1.088   0.885   2.029
 1389TIP3   OH2 4172   0.886   3.385   0.654
 1389TIP3    H1 4173   0.938   3.327   0.598
 1389TIP3    H2 4174   0.901   3.472   0.618
 1390TIP3   OH2 4175   3.920   4.765   1.972
 1390TIP3    H1 4176   3.869   4.695   2.013
 1390TIP3    H2 4177   3.877   4.780   1.888
 1391TIP3   OH2 4178   3.332   2.133   1.285
 1391TIP3    H1 4179   3.292   2.133   1.198
 1391TIP3    H2 4180   3.298   2.054   1.327
 1392TIP3   OH2 4181   0.153   0.362   4.251
 1392TIP3    H1 4182   0.148   0.324   4.338
 1392TIP3    H2 4183   0.247   0.360   4.229
 1393TIP3   OH2 4184   0.178   1.554   0.477
 1393TIP3    H1 4185   0.259   1.513   0.505
 1393TIP3    H2 4186   0.150   1.503   0.402
 1394TIP3   OH2 4187   0.096   0.858   0.314
 1394TIP3    H1 4188   0.100   0.893   0.225
 1394TIP3    H2 4189   0.076   0.765   0.302
 1395TIP3   OH2 4190   4.719   1.832   2.190
 1395TIP3    H1 4191   4.759   1.762   2.241
 1395TIP3    H2 4192   4.787   1.859   2.129
 1396TIP3   OH2 4193   2.625   5.307   0.328
 1396TIP3    H1 4194   2.620   5.327   0.234
 1396TIP3    H2 4195   2.576   5.226   0.338
 1397TIP3   OH2 4196   2.493   4.557   0.628
 1397TIP3    H1 4197   2.409   4.567   0.583
 1397TIP3    H2 4198   2.531   4.478   0.588
 1398TIP3   OH2 4199   1.522   2.401   4.046
 1398TIP3    H1 4200   1.509   2.348   4.124
 1398TIP3    H2 4201   1.521   2.339   3.973
 1399TIP3   OH2 4202   0.628   0.523   3.091
 1399TIP3    H1 4203   0.670   0.598   3.050
 1399TIP3    H2 4204   0.569   0.561   3.157
 1400TIP3   OH2 4205   6.256   2.487   0.565
 1400TIP3    H1 4206   6.203   2.478   0.645
 1400TIP3    H2 4207   6.343   2.511   0.596
 1401TIP3   OH2 4208   1.147   1.424   1.558
 1401TIP3    H1 4209   1.116   1.389   1.642
 1401TIP3    H2 4210   1.069   1.461   1.518
 1402TIP3   OH2 4211   5.998   3.872   0.799
 1402TIP3    H1 4212   6.059   3.822   0.744
 1402TIP3    H2 4213   6.037   3.958   0.807
 1403TIP3   OH2 4214   2.644   5.062   1.474
 1403TIP3    H1 4215   2.678   5.147   1.502
 1403TIP3    H2 4216   2.588   5.034   1.546
 1404TIP3   OH2 4217   2.893   4.170   3.937
 1404TIP3    H1 4218   2.919   4.141   3.850
 1404TIP3    H2 4219   2.841   4.097   3.972
 1405TIP3   OH2 4220   5.871   0.255   3.892
 1405TIP3    H1 4221   5.816   0.297   3.826
 1405TIP3    H2 4222   5.823   0.268   3.974
 1406TIP3   OH2 4223   6.292   0.705   1.015
 1406TIP3    H1 4224   6.285   0.774   1.081
 1406TIP3    H2 4225   6.378   0.666   1.029
 1407TIP3   OH2 4226   5.922   5.637   0.051
 1407TIP3    H1 4227   6.010   5.656   0.018
 1407TIP3    H2 4228   5.886   5.576  -0.013
 1408TIP3   OH2 4229   1.050   2.136   4.913
 1408TIP3    H1 4230   1.082   2.066   4.970
 1408TIP3    H2 4231   1.119   2.202   4.915
 1409TIP3   OH2 4232   1.270   5.504   2.345
 1409TIP3    H1 4233   1.187   5.477   2.307
 1409TIP3    H2 4234   1.252   5.514   2.438
 1410TIP3   OH2 4235   3.565   3.816   2.589
 1410TIP3    H1 4236   3.567   3.912   2.586
 1410TIP3    H2 4237   3.483   3.792   2.547
 1411TIP3   OH2 4238   4.224   5.726   4.292
 1411TIP3    H1 4239   4.186   5.806   4.256
 1411TIP3    H2 4240   4.312   5.751   4.318
 1412TIP3   OH2 4241   4.000   5.813   3.029
 1412TIP3    H1 4242   4.030   5.755   3.099
 1412TIP3    H2 4243   4.056   5.891   3.037
 1413TIP3   OH2 4244   1.913   3.120   0.270
 1413TIP3    H1 4245   1.907   3.136   0.364
 1413TIP3    H2 4246   1.872   3.034   0.258
 1414TIP3   OH2 4247   1.845   4.247   0.899
 1414TIP3    H1 4248   1.897   4.186   0.847
 1414TIP3    H2 4249   1.781   4.282   0.837
 1415TIP3   OH2 4250   0.719   3.766   3.240
 1415TIP3    H1 4251   0.803   3.754   3.284
 1415TIP3    H2 4252   0.672   3.829   3.294
 1416TIP3   OH2 4253   2.498   3.751   3.220
 1416TIP3    H1 4254   2.572   3.788   3.172
 1416TIP3    H2 4255   2.525   3.753   3.312
 1417TIP3   OH2 4256   4.331   3.712   0.794
 1417TIP3    H1 4257   4.392   3.678   0.860
 1417TIP3    H2 4258   4.378   3.704   0.711
 1418TIP3   OH2 4259   1.098   5.284   4.288
 1418TIP3    H1 4260   1.175   5.326   4.251
 1418TIP3    H2 4261   1.057   5.351   4.341
 1419TIP3   OH2 4262   3.736   5.030   0.310
 1419TIP3    H1 4263   3.809   4.967   0.306
 1419TIP3    H2 4264   3.776   5.110   0.343
 1420TIP3   OH2 4265   0.603   4.675   0.303
 1420TIP3    H1 4266   0.611   4.618   0.227
 1420TIP3    H2 4267   0.514   4.708   0.300
 1421TIP3   OH2 4268   0.901   0.012   0.427
 1421TIP3    H1 4269   0.807   0.030   0.429
 1421TIP3    H2 4270   0.932   0.060   0.350
 1422TIP3   OH2 4271   5.949   4.330   1.817
 1422TIP3    H1 4272   5.928   4.415   1.778
 1422TIP3    H2 4273   5.864   4.291   1.837
 1423TIP3   OH2 4274   4.614   2.489   1.513
 1423TIP3    H1 4275   4.567   2.572   1.504
 1423TIP3    H2 4276   4.549   2.422   1.490
 1424TIP3   OH2 4277   1.227   0.261   3.379
 1424TIP3    H1 4278   1.187   0.341   3.412
 1424TIP3    H2 4279   1.223   0.270   3.283
 1425TIP3   OH2 4280   1.808   2.043   2.426
 1425TIP3    H1 4281   1.740   2.109   2.442
 1425TIP3    H2 4282   1.884   2.094   2.398
 1426TIP3   OH2 4283   0.865   1.677   3.188
 1426TIP3    H1 4284   0.777   1.656   3.156
 1426TIP3    H2 4285   0.923   1.656   3.114
 1427TIP3   OH2 4286   4.667   3.093   2.534
 1427TIP3    H1 4287   4.597   3.028   2.539
 1427TIP3    H2 4288   4.732   3.053   2.476
 1428TIP3   OH2 4289   3.748   5.217   3.213
 1428TIP3    H1 4290   3.740   5.194   3.120
 1428TIP3    H2 4291   3.658   5.224   3.244
 1429TIP3   OH2 4292   0.319   3.427   4.052
 1429TIP3    H1 4293   0.311   3.337   4.021
 1429TIP3    H2 4294   0.401   3.458   4.015
 1430TIP3   OH2 4295   4.347   2.281   2.978
 1430TIP3    H1 4296   4.403   2.310   2.907
 1430TIP3    H2 4297   4.403   2.283   3.055
 1431TIP3   OH2 4298   0.243   4.315   3.318
 1431TIP3    H1 4299   0.309   4.248   3.302
 1431TIP3    H2 4300   0.204   4.291   3.402
 1432TIP3   OH2 4301   5.220   2.724   4.822
 1432TIP3    H1 4302   5.237   2.775   4.742
 1432TIP3    H2 4303   5.296   2.742   4.878
 1433TIP3   OH2 4304   2.628   0.284   2.473
 1433TIP3    H1 4305   2.619   0.319   2.384
 1433TIP3    H2 4306   2.538   0.282   2.507
 1434TIP3   OH2 4307   5.806   5.483   1.578
 1434TIP3    H1 4308   5.879   5.462   1.519
 1434TIP3    H2 4309   5.780   5.572   1.553
 1435TIP3   OH2 4310   1.770   3.735   1.036
 1435TIP3    H1 4311   1.763   3.657   1.092
 1435TIP3    H2 4312   1.843   3.715   0.977
 1436TIP3   OH2 4313   0.697   2.490   1.402
 1436TIP3    H1 4314   0.620   2.523   1.355
 1436TIP3    H2 4315   0.663   2.462   1.487
 1437TIP3   OH2 4316   2.789   5.354   1.003
 1437TIP3    H1 4317   2.756   5.403   0.927
 1437TIP3    H2 4318   2.769   5.411   1.078
 1438TIP3   OH2 4319   3.957   1.470   4.636
 1438TIP3    H1 4320   3.938   1.560   4.607
 1438TIP3    H2 4321   3.874   1.440   4.673
 1439TIP3   OH2 4322   0.108   4.932   3.512
 1439TIP3    H1 4323   0.145   4.979   3.437
 1439TIP3    H2 4324   0.101   4.842   3.484
 1440TIP3   OH2 4325   3.367   1.391   2.614
 1440TIP3    H1 4326   3.298   1.326   2.601
 1440TIP3    H2 4327   3.446   1.349   2.580
 1441TIP3   OH2 4328   4.339   4.592   1.428
 1441TIP3    H1 4329   4.411   4.619   1.485
 1441TIP3    H2 4330   4.282   4.540   1.485
 1442TIP3   OH2 4331   4.386   2.664   1.955
 1442TIP3    H1 4332   4.333   2.602   2.005
 1442TIP3    H2 4333   4.461   2.613   1.924
 1443TIP3   OH2 4334   4.788   2.443   2.297
 1443TIP3    H1 4335   4.858   2.505   2.316
 1443TIP3    H2 4336   4.743   2.482   2.221
 1444TIP3   OH2 4337   6.266   2.459   4.583
 1444TIP3    H1 4338   6.296   2.376   4.546
 1444TIP3    H2 4339   6.341   2.489   4.635
 1445TIP3   OH2 4340   4.142   5.346   0.482
 1445TIP3    H1 4341   4.172   5.345   0.391
 1445TIP3    H2 4342   4.063   5.400   0.480
 1446TIP3   OH2 4343   5.269   5.833   1.110
 1446TIP3    H1 4344   5.300   5.780   1.037
 1446TIP3    H2 4345   5.173   5.826   1.106
 1447TIP3   OH2 4346   0.437   4.865   3.738
 1447TIP3    H1 4347   0.477   4.782   3.712
 1447TIP3    H2 4348   0.456   4.925   3.666
 1448TIP3   OH2 4349   1.625   5.651   2.842
 1448TIP3    H1 4350   1.652   5.638   2.933
 1448TIP3    H2 4351   1.689   5.713   2.807
 1449TIP3   OH2 4352   3.541   5.349   5.095
 1449TIP3    H1 4353   3.451   5.380   5.080
 1449TIP3    H2 4354   3.578   5.342   5.007
 1450TIP3   OH2 4355   1.721   2.047   1.268
 1450TIP3    H1 4356   1.765   1.997   1.200
 1450TIP3    H2 4357   1.629   2.048   1.242
 1451TIP3   OH2 4358   5.802   1.731   1.674
 1451TIP3    H1 4359   5.778   1.797   1.740
 1451TIP3    H2 4360   5.833   1.782   1.599
 1452TIP3   OH2 4361   0.282   5.204   1.593
 1452TIP3    H1 4362   0.205   5.234   1.546
 1452TIP3    H2 4363   0.305   5.277   1.651
 1453TIP3   OH2 4364   5.329   1.508   4.541
 1453TIP3    H1 4365   5.355   1.512   4.633
 1453TIP3    H2 4366   5.248   1.456   4.541
 1454TIP3   OH2 4367   2.502   5.459   1.950
 1454TIP3    H1 4368   2.482   5.438   2.042
 1454TIP3    H2 4369   2.598   5.453   1.945
 1455TIP3   OH2 4370   1.924   5.683   4.818
 1455TIP3    H1 4371   1.840   5.696   4.774
 1455TIP3    H2 4372   1.977   5.634   4.755
 1456TIP3   OH2 4373   2.207   5.261   3.633
 1456TIP3    H1 4374   2.189   5.167   3.638
 1456TIP3    H2 4375   2.137   5.302   3.683
 1457TIP3   OH2 4376   6.033   4.537   0.798
 1457TIP3    H1 4377   6.007   4.629   0.801
 1457TIP3    H2 4378   6.054   4.521   0.706
 1458TIP3   OH2 4379   6.063   4.796   3.241
 1458TIP3    H1 4380   6.122   4.824   3.311
 1458TIP3    H2 4381   6.059   4.872   3.182
 1459TIP3   OH2 4382   0.911   0.620   0.111
 1459TIP3    H1 4383   0.946   0.680   0.177
 1459TIP3    H2 4384   0.987   0.568   0.084
 1460TIP3   OH2 4385   3.766   4.636   4.306
 1460TIP3    H1 4386   3.784   4.730   4.305
 1460TIP3    H2 4387   3.678   4.628   4.269
 1461TIP3   OH2 4388   4.795   1.804   0.206
 1461TIP3    H1 4389   4.703   1.822   0.184
 1461TIP3    H2 4390   4.798   1.812   0.302
 1462TIP3   OH2 4391   4.327   0.693   0.622
 1462TIP3    H1 4392   4.401   0.751   0.640
 1462TIP3    H2 4393   4.252   0.752   0.611
 1463TIP3   OH2 4394   3.277   3.016   3.895
 1463TIP3    H1 4395   3.245   2.938   3.939
 1463TIP3    H2 4396   3.306   3.074   3.966
 1464TIP3   OH2 4397   4.839   4.204   3.155
 1464TIP3    H1 4398   4.846   4.218   3.249
 1464TIP3    H2 4399   4.814   4.111   3.147
 1465TIP3   OH2 4400   4.246   4.808   0.147
 1465TIP3    H1 4401   4.192   4.841   0.076
 1465TIP3    H2 4402   4.200   4.834   0.227
 1466TIP3   OH2 4403   3.874   2.354   3.112
 1466TIP3    H1 4404   3.833   2.385   3.030
 1466TIP3    H2 4405   3.963   2.388   3.108
 1467TIP3   OH2 4406   4.101   0.643   1.480
 1467TIP3    H1 4407   4.024   0.612   1.528
 1467TIP3    H2 4408   4.114   0.732   1.511
 1468TIP3   OH2 4409   1.752   3.583   1.748
 1468TIP3    H1 4410   1.697   3.512   1.782
 1468TIP3    H2 4411   1.725   3.660   1.798
 1469TIP3   OH2 4412   3.448   1.917   4.069
 1469TIP3    H1 4413   3.497   1.927   3.987
 1469TIP3    H2 4414   3.416   2.005   4.088
 1470TIP3   OH2 4415   2.845   4.980   0.505
 1470TIP3    H1 4416   2.934   5.015   0.493
 1470TIP3    H2 4417   2.795   5.053   0.541
 1471TIP3   OH2 4418   0.062   1.319   0.299
 1471TIP3    H1 4419   0.118   1.245   0.320
 1471TIP3    H2 4420  -0.015   1.309   0.355
 1472TIP3   OH2 4421   5.765   3.303   1.518
 1472TIP3    H1 4422   5.803   3.253   1.446
 1472TIP3    H2 4423   5.698   3.358   1.476
 1473TIP3   OH2 4424   5.878   3.489   4.108
 1473TIP3    H1 4425   5.933   3.499   4.031
 1473TIP3    H2 4426   5.791   3.466   4.074
 1474TIP3   OH2 4427   2.895   1.877   4.929
 1474TIP3    H1 4428   2.971   1.928   4.901
 1474TIP3    H2 4429   2.932   1.804   4.978
 1475TIP3   OH2 4430   1.802   3.324   3.508
 1475TIP3    H1 4431   1.830   3.331   3.599
 1475TIP3    H2 4432   1.871   3.272   3.466
 1476TIP3   OH2 4433   4.011   1.207   2.403
 1476TIP3    H1 4434   4.057   1.162   2.475
 1476TIP3    H2 4435   4.078   1.265   2.366
 1477TIP3   OH2 4436   1.429   3.981   1.679
 1477TIP3    H1 4437   1.439   4.068   1.718
 1477TIP3    H2 4438   1.421   3.922   1.755
 1478TIP3   OH2 4439   2.475   4.131   2.995
 1478TIP3    H1 4440   2.422   4.158   3.070
 1478TIP3    H2 4441   2.422   4.154   2.919
 1479TIP3   OH2 4442   6.163   5.307   2.285
 1479TIP3    H1 4443   6.069   5.322   2.273
 1479TIP3    H2 4444   6.169   5.259   2.368
 1480TIP3   OH2 4445   4.584   0.939   0.950
 1480TIP3    H1 4446   4.537   0.970   1.027
 1480TIP3    H2 4447   4.662   0.895   0.985
 1481TIP3   OH2 4448   4.196   3.616   1.026
 1481TIP3    H1 4449   4.100   3.621   1.019
 1481TIP3    H2 4450   4.228   3.652   0.944
 1482TIP3   OH2 4451   1.328   3.710   1.065
 1482TIP3    H1 4452   1.385   3.786   1.073
 1482TIP3    H2 4453   1.287   3.719   0.979
 1483TIP3   OH2 4454   4.448   1.650   2.580
 1483TIP3    H1 4455   4.495   1.688   2.506
 1483TIP3    H2 4456   4.414   1.726   2.629
 1484TIP3   OH2 4457   4.191   0.028   1.148
 1484TIP3    H1 4458   4.186   0.026   1.052
 1484TIP3    H2 4459   4.217   0.118   1.168
 1485TIP3   OH2 4460   0.143   3.961   2.729
 1485TIP3    H1 4461   0.088   3.970   2.651
 1485TIP3    H2 4462   0.094   4.006   2.798
 1486TIP3   OH2 4463   4.711   3.406   1.658
 1486TIP3    H1 4464   4.744   3.359   1.735
 1486TIP3    H2 4465   4.779   3.396   1.592
 1487TIP3   OH2 4466   3.752   5.585   0.625
 1487TIP3    H1 4467   3.753   5.681   0.633
 1487TIP3    H2 4468   3.670   5.567   0.579
 1488TIP3   OH2 4469   2.632   3.984   5.114
 1488TIP3    H1 4470   2.588   4.011   5.194
 1488TIP3    H2 4471   2.610   4.051   5.050
 1489TIP3   OH2 4472   3.557   2.811   1.150
 1489TIP3    H1 4473   3.505   2.749   1.200
 1489TIP3    H2 4474   3.613   2.854   1.214
 1490TIP3   OH2 4475   3.329   1.009   3.728
 1490TIP3    H1 4476   3.402   1.064   3.701
 1490TIP3    H2 4477   3.251   1.057   3.700
 1491TIP3   OH2 4478   0.521   3.210   4.380
 1491TIP3    H1 4479   0.542   3.270   4.452
 1491TIP3    H2 4480   0.464   3.144   4.419
 1492TIP3   OH2 4481   2.108   3.205   2.057
 1492TIP3    H1 4482   2.083   3.297   2.067
 1492TIP3    H2 4483   2.087   3.165   2.142
 1493TIP3   OH2 4484   0.358   1.031   0.162
 1493TIP3    H1 4485   0.299   1.053   0.234
 1493TIP3    H2 4486   0.315   0.959   0.116
 1494TIP3   OH2 4487   4.309   0.967   0.258
 1494TIP3    H1 4488   4.376   0.984   0.324
 1494TIP3    H2 4489   4.337   0.886   0.216
 1495TIP3   OH2 4490   5.973   5.304   2.688
 1495TIP3    H1 4491   5.924   5.380   2.656
 1495TIP3    H2 4492   5.908   5.250   2.732
 1496TIP3   OH2 4493   4.857   3.737   2.656
 1496TIP3    H1 4494   4.775   3.691   2.638
 1496TIP3    H2 4495   4.862   3.804   2.588
 1497TIP3   OH2 4496   3.021   0.612   4.804
 1497TIP3    H1 4497   2.996   0.701   4.829
 1497TIP3    H2 4498   3.079   0.583   4.874
 1498TIP3   OH2 4499   1.081   5.473   2.587
 1498TIP3    H1 4500   1.108   5.439   2.673
 1498TIP3    H2 4501   0.990   5.448   2.578
 1499TIP3   OH2 4502   5.614   0.234   0.792
 1499TIP3    H1 4503   5.591   0.297   0.860
 1499TIP3    H2 4504   5.549   0.165   0.800
 1500TIP3   OH2 4505   3.207   5.895   0.063
 1500TIP3    H1 4506   3.154   5.904   0.142
 1500TIP3    H2 4507   3.150   5.848   0.002
 1501TIP3   OH2 4508   2.779   3.383   0.978
 1501TIP3    H1 4509   2.746   3.293   0.970
 1501TIP3    H2 4510   2.823   3.400   0.895
 1502TIP3   OH2 4511   0.217   5.412   4.595
 1502TIP3    H1 4512   0.193   5.369   4.677
 1502TIP3    H2 4513   0.304   5.379   4.574
 1503TIP3   OH2 4514   1.966   4.086   1.939
 1503TIP3    H1 4515   1.881   4.122   1.915
 1503TIP3    H2 4516   1.983   4.018   1.874
 1504TIP3   OH2 4517   6.325   5.465   4.481
 1504TIP3    H1 4518   6.393   5.449   4.547
 1504TIP3    H2 4519   6.327   5.388   4.425
 1505TIP3   OH2 4520   2.706   2.760   0.248
 1505TIP3    H1 4521   2.728   2.850   0.221
 1505TIP3    H2 4522   2.710   2.709   0.167
 1506TIP3   OH2 4523   2.705   5.804   2.966
 1506TIP3    H1 4524   2.708   5.856   3.046
 1506TIP3    H2 4525   2.614   5.775   2.959
 1507TIP3   OH2 4526   2.892   2.375   1.779
 1507TIP3    H1 4527   2.946   2.382   1.700
 1507TIP3    H2 4528   2.886   2.281   1.795
 1508TIP3   OH2 4529   4.112   2.967   4.930
 1508TIP3    H1 4530   4.102   2.988   4.837
 1508TIP3    H2 4531   4.033   2.918   4.953
 1509TIP3   OH2 4532   2.862   4.720   5.083
 1509TIP3    H1 4533   2.862   4.646   5.022
 1509TIP3    H2 4534   2.795   4.697   5.147
 1510TIP3   OH2 4535   3.980   3.352   4.327
 1510TIP3    H1 4536   3.889   3.378   4.309
 1510TIP3    H2 4537   4.027   3.374   4.246
 1511TIP3   OH2 4538   6.073   5.089   0.010
 1511TIP3    H1 4539   6.063   5.149  -0.064
 1511TIP3    H2 4540   6.161   5.051  -0.001
 1512TIP3   OH2 4541   5.083   3.809   3.840
 1512TIP3    H1 4542   5.156   3.787   3.782
 1512TIP3    H2 4543   5.123   3.818   3.927
 1513TIP3   OH2 4544   3.796   0.946   0.134
 1513TIP3    H1 4545   3.828   0.976   0.048
 1513TIP3    H2 4546   3.703   0.928   0.119
 1514TIP3   OH2 4547   3.028   2.278   2.840
 1514TIP3    H1 4548   2.962   2.334   2.800
 1514TIP3    H2 4549   3.082   2.337   2.892
 1515TIP3   OH2 4550   3.264   0.691   0.104
 1515TIP3    H1 4551   3.325   0.696   0.031
 1515TIP3    H2 4552   3.294   0.758   0.165
 1516TIP3   OH2 4553   3.256   1.153   1.874
 1516TIP3    H1 4554   3.261   1.096   1.797
 1516TIP3    H2 4555   3.210   1.231   1.843
 1517TIP3   OH2 4556   4.441   0.168   0.693
 1517TIP3    H1 4557   4.480   0.253   0.675
 1517TIP3    H2 4558   4.517   0.110   0.707
 1518TIP3   OH2 4559   3.528   0.652   2.668
 1518TIP3    H1 4560   3.433   0.663   2.664
 1518TIP3    H2 4561   3.541   0.573   2.721
 1519TIP3   OH2 4562   1.374   3.020   1.622
 1519TIP3    H1 4563   1.403   3.008   1.712
 1519TIP3    H2 4564   1.449   2.994   1.569
 1520TIP3   OH2 4565   3.175   0.730   1.319
 1520TIP3    H1 4566   3.270   0.736   1.325
 1520TIP3    H2 4567   3.146   0.821   1.308
 1521TIP3   OH2 4568   0.578   2.057   2.169
 1521TIP3    H1 4569   0.638   2.129   2.148
 1521TIP3    H2 4570   0.504   2.070   2.110
 1522TIP3   OH2 4571   5.793   3.125   2.441
 1522TIP3    H1 4572   5.729   3.173   2.390
 1522TIP3    H2 4573   5.779   3.033   2.418
 1523TIP3   OH2 4574   4.782   3.425   2.800
 1523TIP3    H1 4575   4.691   3.410   2.774
 1523TIP3    H2 4576   4.777   3.486   2.873
 1524TIP3   OH2 4577   1.420   4.104   1.357
 1524TIP3    H1 4578   1.392   4.143   1.273
 1524TIP3    H2 4579   1.482   4.037   1.332
 1525TIP3   OH2 4580   1.328   2.681   3.718
 1525TIP3    H1 4581   1.282   2.735   3.654
 1525TIP3    H2 4582   1.284   2.700   3.801
 1526TIP3   OH2 4583   5.973   5.817   0.997
 1526TIP3    H1 4584   6.044   5.875   0.970
 1526TIP3    H2 4585   5.893   5.859   0.966
 1527TIP3   OH2 4586   3.557   3.130   0.580
 1527TIP3    H1 4587   3.636   3.132   0.635
 1527TIP3    H2 4588   3.545   3.037   0.560
 1528TIP3   OH2 4589   2.505   3.650   2.099
 1528TIP3    H1 4590   2.597   3.631   2.084
 1528TIP3    H2 4591   2.496   3.655   2.194
 1529TIP3   OH2 4592   4.790   3.706   2.380
 1529TIP3    H1 4593   4.710   3.757   2.386
 1529TIP3    H2 4594   4.769   3.635   2.320
 1530TIP3   OH2 4595   3.110   2.782   0.719
 1530TIP3    H1 4596   3.155   2.723   0.779
 1530TIP3    H2 4597   3.169   2.787   0.643
 1531TIP3   OH2 4598   6.063   1.792   0.068
 1531TIP3    H1 4599   5.998   1.790   0.138
 1531TIP3    H2 4600   6.141   1.753   0.106
 1532TIP3   OH2 4601   0.126   4.039   3.856
 1532TIP3    H1 4602   0.038   4.020   3.889
 1532TIP3    H2 4603   0.184   4.021   3.930
 1533TIP3   OH2 4604   4.145   4.656   3.957
 1533TIP3    H1 4605   4.085   4.608   4.014
 1533TIP3    H2 4606   4.179   4.727   4.011
 1534TIP3   OH2 4607   4.169   5.532   4.116
 1534TIP3    H1 4608   4.203   5.603   4.171
 1534TIP3    H2 4609   4.231   5.527   4.044
 1535TIP3   OH2 4610   5.252   3.999   4.973
 1535TIP3    H1 4611   5.198   4.067   4.933
 1535TIP3    H2 4612   5.339   4.012   4.936
 1536TIP3   OH2 4613   3.209   5.227   1.765
 1536TIP3    H1 4614   3.226   5.136   1.791
 1536TIP3    H2 4615   3.153   5.262   1.835
 1537TIP3   OH2 4616   2.140   3.291   3.423
 1537TIP3    H1 4617   2.214   3.299   3.364
 1537TIP3    H2 4618   2.082   3.227   3.381
 1538TIP3   OH2 4619   0.970   1.495   1.364
 1538TIP3    H1 4620   0.907   1.423   1.377
 1538TIP3    H2 4621   0.992   1.491   1.271
 1539TIP3   OH2 4622   1.229   2.980   2.991
 1539TIP3    H1 4623   1.206   2.894   3.025
 1539TIP3    H2 4624   1.145   3.023   2.975
 1540TIP3   OH2 4625   5.030   1.841   2.854
 1540TIP3    H1 4626   4.963   1.871   2.792
 1540TIP3    H2 4627   5.079   1.920   2.876
 1541TIP3   OH2 4628   5.382   4.015   3.139
 1541TIP3    H1 4629   5.404   4.057   3.056
 1541TIP3    H2 4630   5.458   3.960   3.159
 1542TIP3   OH2 4631   1.996   4.298   4.269
 1542TIP3    H1 4632   1.922   4.265   4.321
 1542TIP3    H2 4633   1.958   4.315   4.183
 1543TIP3   OH2 4634   1.056   1.527   1.093
 1543TIP3    H1 4635   0.986   1.593   1.096
 1543TIP3    H2 4636   1.132   1.571   1.131
 1544TIP3   OH2 4637   2.452   1.200   2.748
 1544TIP3    H1 4638   2.429   1.286   2.784
 1544TIP3    H2 4639   2.432   1.138   2.818
 1545TIP3   OH2 4640   4.281   1.309   0.201
 1545TIP3    H1 4641   4.213   1.243   0.196
 1545TIP3    H2 4642   4.251   1.380   0.144
 1546TIP3   OH2 4643   3.264   4.683   1.832
 1546TIP3    H1 4644   3.301   4.654   1.749
 1546TIP3    H2 4645   3.320   4.642   1.898
 1547TIP3   OH2 4646   5.204   2.105   1.859
 1547TIP3    H1 4647   5.145   2.165   1.813
 1547TIP3    H2 4648   5.207   2.139   1.949
 1548TIP3   OH2 4649   0.255   4.231   1.606
 1548TIP3    H1 4650   0.210   4.255   1.688
 1548TIP3    H2 4651   0.291   4.144   1.624
 1549TIP3   OH2 4652   4.213   3.189   1.116
 1549TIP3    H1 4653   4.135   3.171   1.169
 1549TIP3    H2 4654   4.265   3.109   1.124
 1550TIP3   OH2 4655   6.000   2.428   4.154
 1550TIP3    H1 4656   5.968   2.375   4.081
 1550TIP3    H2 4657   5.938   2.501   4.158
 1551TIP3   OH2 4658   5.466   3.464   1.234
 1551TIP3    H1 4659   5.558   3.464   1.262
 1551TIP3    H2 4660   5.418   3.432   1.310
 1552TIP3   OH2 4661   0.436   0.771   4.825
 1552TIP3    H1 4662   0.526   0.753   4.852
 1552TIP3    H2 4663   0.399   0.821   4.897
 1553TIP3   OH2 4664   4.446   3.721   1.049
 1553TIP3    H1 4665   4.477   3.704   1.138
 1553TIP3    H2 4666   4.355   3.692   1.049
 1554TIP3   OH2 4667   3.116   4.147   1.119
 1554TIP3    H1 4668   3.182   4.211   1.145
 1554TIP3    H2 4669   3.071   4.188   1.045
 1555TIP3   OH2 4670   4.136   5.662   2.292
 1555TIP3    H1 4671   4.109   5.618   2.211
 1555TIP3    H2 4672   4.102   5.751   2.282
 1556TIP3   OH2 4673   4.066   4.178   0.792
 1556TIP3    H1 4674   4.151   4.149   0.757
 1556TIP3    H2 4675   4.081   4.268   0.820
 1557TIP3   OH2 4676   1.559   1.397   3.693
 1557TIP3    H1 4677   1.639   1.359   3.657
 1557TIP3    H2 4678   1.521   1.446   3.620
 1558TIP3   OH2 4679   4.522   0.875   4.935
 1558TIP3    H1 4680   4.556   0.785   4.937
 1558TIP3    H2 4681   4.429   0.864   4.913
 1559TIP3   OH2 4682   1.523   3.762   0.036
 1559TIP3    H1 4683   1.432   3.735   0.023
 1559TIP3    H2 4684   1.554   3.787  -0.051
 1560TIP3   OH2 4685   3.866   1.987   3.912
 1560TIP3    H1 4686   3.946   2.033   3.936
 1560TIP3    H2 4687   3.860   1.914   3.973
 1561TIP3   OH2 4688   4.004   5.237   4.336
 1561TIP3    H1 4689   3.950   5.180   4.392
 1561TIP3    H2 4690   4.080   5.183   4.314
 1562TIP3   OH2 4691   3.841   2.389   4.790
 1562TIP3    H1 4692   3.846   2.455   4.859
 1562TIP3    H2 4693   3.841   2.305   4.836
 1563TIP3   OH2 4694   0.097   4.876   1.352
 1563TIP3    H1 4695   0.018   4.929   1.360
 1563TIP3    H2 4696   0.084   4.805   1.416
 1564TIP3   OH2 4697   5.712   5.763   3.476
 1564TIP3    H1 4698   5.664   5.795   3.400
 1564TIP3    H2 4699   5.680   5.815   3.550
 1565TIP3   OH2 4700   1.555   3.239   0.720
 1565TIP3    H1 4701   1.557   3.183   0.643
 1565TIP3    H2 4702   1.463   3.263   0.730
 1566TIP3   OH2 4703   2.739   5.667   2.108
 1566TIP3    H1 4704   2.779   5.594   2.060
 1566TIP3    H2 4705   2.795   5.742   2.088
 1567TIP3   OH2 4706   3.708   2.893   2.456
 1567TIP3    H1 4707   3.731   2.849   2.538
 1567TIP3    H2 4708   3.755   2.976   2.458
 1568TIP3   OH2 4709   3.657   4.343   3.303
 1568TIP3    H1 4710   3.630   4.377   3.218
 1568TIP3    H2 4711   3.586   4.283   3.328
 1569TIP3   OH2 4712   2.852   4.835   3.492
 1569TIP3    H1 4713   2.759   4.850   3.507
 1569TIP3    H2 4714   2.895   4.868   3.571
 1570TIP3   OH2 4715   0.552   4.258   2.799
 1570TIP3    H1 4716   0.499   4.289   2.872
 1570TIP3    H2 4717   0.492   4.259   2.724
 1571TIP3   OH2 4718   4.756   4.512   2.240
 1571TIP3    H1 4719   4.824   4.514   2.173
 1571TIP3    H2 4720   4.726   4.421   2.242
 1572TIP3   OH2 4721   5.643   5.240   4.761
 1572TIP3    H1 4722   5.584   5.289   4.704
 1572TIP3    H2 4723   5.591   5.164   4.789
 1573TIP3   OH2 4724   0.148   0.928   1.803
 1573TIP3    H1 4725   0.088   0.906   1.874
 1573TIP3    H2 4726   0.235   0.921   1.842
 1574TIP3   OH2 4727   4.078   2.880   2.041
 1574TIP3    H1 4728   4.096   2.788   2.020
 1574TIP3    H2 4729   4.025   2.911   1.968
 1575TIP3   OH2 4730   5.296   4.387   0.410
 1575TIP3    H1 4731   5.230   4.427   0.467
 1575TIP3    H2 4732   5.260   4.397   0.322
 1576TIP3   OH2 4733   5.472   5.468   3.366
 1576TIP3    H1 4734   5.553   5.427   3.338
 1576TIP3    H2 4735   5.466   5.549   3.315
 1577TIP3   OH2 4736   3.051   1.023   0.901
 1577TIP3    H1 4737   3.101   1.061   0.829
 1577TIP3    H2 4738   3.009   0.945   0.863
 1578TIP3   OH2 4739   2.339   4.404   2.367
 1578TIP3    H1 4740   2.320   4.361   2.450
 1578TIP3    H2 4741   2.279   4.364   2.305
 1579TIP3   OH2 4742   3.177   5.106   1.173
 1579TIP3    H1 4743   3.249   5.166   1.153
 1579TIP3    H2 4744   3.166   5.113   1.268
 1580TIP3   OH2 4745   0.515   4.361   5.016
 1580TIP3    H1 4746   0.466   4.376   5.097
 1580TIP3    H2 4747   0.456   4.310   4.961
 1581TIP3   OH2 4748   2.801   0.073   3.692
 1581TIP3    H1 4749   2.710   0.101   3.688
 1581TIP3    H2 4750   2.837   0.098   3.606
 1582TIP3   OH2 4751   0.683   0.505   1.140
 1582TIP3    H1 4752   0.626   0.462   1.076
 1582TIP3    H2 4753   0.635   0.499   1.223
 1583TIP3   OH2 4754   2.277   4.351   4.572
 1583TIP3    H1 4755   2.314   4.438   4.584
 1583TIP3    H2 4756   2.261   4.344   4.478
 1584TIP3   OH2 4757   1.310   3.292   3.934
 1584TIP3    H1 4758   1.352   3.376   3.953
 1584TIP3    H2 4759   1.313   3.245   4.018
 1585TIP3   OH2 4760   5.513   0.595   3.599
 1585TIP3    H1 4761   5.466   0.517   3.628
 1585TIP3    H2 4762   5.444   0.655   3.568
 1586TIP3   OH2 4763   3.208   3.170   4.154
 1586TIP3    H1 4764   3.120   3.132   4.148
 1586TIP3    H2 4765   3.192   3.263   4.173
 1587TIP3   OH2 4766   5.893   2.139   3.661
 1587TIP3    H1 4767   5.893   2.043   3.656
 1587TIP3    H2 4768   5.833   2.160   3.732
 1588TIP3   OH2 4769   4.143   3.798   4.448
 1588TIP3    H1 4770   4.175   3.854   4.377
 1588TIP3    H2 4771   4.146   3.709   4.412
 1589TIP3   OH2 4772   3.469   1.671   4.161
 1589TIP3    H1 4773   3.456   1.763   4.139
 1589TIP3    H2 4774   3.555   1.649   4.124
 1590TIP3   OH2 4775   1.452   3.874   4.840
 1590TIP3    H1 4776   1.406   3.868   4.756
 1590TIP3    H2 4777   1.479   3.784   4.858
 1591TIP3   OH2 4778   6.063   1.429   4.178
 1591TIP3    H1 4779   6.003   1.401   4.247
 1591TIP3    H2 4780   6.033   1.382   4.100
 1592TIP3   OH2 4781   1.329   2.859   4.802
 1592TIP3    H1 4782   1.422   2.881   4.805
 1592TIP3    H2 4783   1.313   2.837   4.710
 1593TIP3   OH2 4784   5.914   5.157   2.428
 1593TIP3    H1 4785   5.832   5.150   2.477
 1593TIP3    H2 4786   5.982   5.145   2.494
 1594TIP3   OH2 4787   0.452   3.653   1.826
 1594TIP3    H1 4788   0.477   3.575   1.874
 1594TIP3    H2 4789   0.424   3.621   1.740
 1595TIP3   OH2 4790   4.105   0.757   2.300
 1595TIP3    H1 4791   4.063   0.807   2.370
 1595TIP3    H2 4792   4.033   0.710   2.258
 1596TIP3   OH2 4793   2.221   5.080   2.826
 1596TIP3    H1 4794   2.251   5.130   2.902
 1596TIP3    H2 4795   2.144   5.128   2.794
 1597TIP3   OH2 4796   3.042   5.338   1.954
 1597TIP3    H1 4797   2.961   5.382   1.930
 1597TIP3    H2 4798   3.064   5.371   2.041
 1598TIP3   OH2 4799   4.012   5.122   3.387
 1598TIP3    H1 4800   4.043   5.037   3.355
 1598TIP3    H2 4801   3.942   5.146   3.326
 1599TIP3   OH2 4802   5.560   4.277   1.591
 1599TIP3    H1 4803   5.548   4.183   1.606
 1599TIP3    H2 4804   5.648   4.285   1.554
 1600TIP3   OH2 4805   5.103   2.137   5.140
 1600TIP3    H1 4806   5.073   2.224   5.117
 1600TIP3    H2 4807   5.079   2.126   5.232
 1601TIP3   OH2 4808   1.682   4.675   3.233
 1601TIP3    H1 4809   1.658   4.609   3.298
 1601TIP3    H2 4810   1.694   4.625   3.152
 1602TIP3   OH2 4811   3.038   3.402   1.655
 1602TIP3    H1 4812   2.968   3.446   1.606
 1602TIP3    H2 4813   3.099   3.371   1.587
 1603TIP3   OH2 4814   5.724   2.153   0.006
 1603TIP3    H1 4815   5.780   2.150  -0.072
 1603TIP3    H2 4816   5.644   2.197  -0.024
 1604TIP3   OH2 4817   5.888   5.488   4.394
 1604TIP3    H1 4818   5.907   5.402   4.432
 1604TIP3    H2 4819   5.960   5.506   4.334
 1605TIP3   OH2 4820   0.087   3.483   1.338
 1605TIP3    H1 4821   0.005   3.526   1.315
 1605TIP3    H2 4822   0.064   3.391   1.352
 1606TIP3   OH2 4823   0.573   5.301   1.576
 1606TIP3    H1 4824   0.485   5.264   1.573
 1606TIP3    H2 4825   0.631   5.226   1.562
 1607TIP3   OH2 4826   4.137   0.628   5.009
 1607TIP3    H1 4827   4.174   0.541   5.025
 1607TIP3    H2 4828   4.063   0.611   4.950
 1608TIP3   OH2 4829   3.696   0.376   2.966
 1608TIP3    H1 4830   3.728   0.306   2.910
 1608TIP3    H2 4831   3.757   0.448   2.953
 1609TIP3   OH2 4832   2.475   4.031   1.598
 1609TIP3    H1 4833   2.497   4.043   1.690
 1609TIP3    H2 4834   2.484   3.937   1.583
 1610TIP3   OH2 4835   0.008   5.675   1.917
 1610TIP3    H1 4836   0.015   5.580   1.926
 1610TIP3    H2 4837   0.055   5.695   1.836
 1611TIP3   OH2 4838   0.220   0.712   2.017
 1611TIP3    H1 4839   0.154   0.777   2.038
 1611TIP3    H2 4840   0.291   0.729   2.080
 1612TIP3   OH2 4841   4.542   3.617   5.154
 1612TIP3    H1 4842   4.566   3.622   5.246
 1612TIP3    H2 4843   4.563   3.527   5.128
 1613TIP3   OH2 4844   2.261   3.104   4.765
 1613TIP3    H1 4845   2.275   3.011   4.781
 1613TIP3    H2 4846   2.167   3.118   4.778
 1614TIP3   OH2 4847   3.882   3.559   0.478
 1614TIP3    H1 4848   3.863   3.474   0.516
 1614TIP3    H2 4849   3.916   3.539   0.391
 1615TIP3   OH2 4850   3.986   4.778   4.810
 1615TIP3    H1 4851   3.924   4.750   4.877
 1615TIP3    H2 4852   3.968   4.721   4.735
 1616TIP3   OH2 4853   2.866   0.269   2.277
 1616TIP3    H1 4854   2.929   0.339   2.257
 1616TIP3    H2 4855   2.850   0.278   2.371
 1617TIP3   OH2 4856   2.143   2.760   1.533
 1617TIP3    H1 4857   2.054   2.726   1.547
 1617TIP3    H2 4858   2.195   2.720   1.602
 1618TIP3   OH2 4859   3.312   3.407   2.428
 1618TIP3    H1 4860   3.351   3.383   2.344
 1618TIP3    H2 4861   3.386   3.433   2.483
 1619TIP3   OH2 4862   5.533   5.563   0.456
 1619TIP3    H1 4863   5.621   5.558   0.418
 1619TIP3    H2 4864   5.476   5.527   0.389
 1620TIP3   OH2 4865   0.096   1.975   4.583
 1620TIP3    H1 4866   0.140   1.892   4.602
 1620TIP3    H2 4867   0.003   1.956   4.592
 1621TIP3   OH2 4868   0.586   0.794   2.418
 1621TIP3    H1 4869   0.509   0.801   2.362
 1621TIP3    H2 4870   0.590   0.878   2.464
 1622TIP3   OH2 4871   6.243   3.752   1.307
 1622TIP3    H1 4872   6.258   3.772   1.399
 1622TIP3    H2 4873   6.217   3.835   1.268
 1623TIP3   OH2 4874   2.863   5.986   4.853
 1623TIP3    H1 4875   2.834   5.903   4.814
 1623TIP3    H2 4876   2.957   5.974   4.869
 1624TIP3   OH2 4877   0.017   3.617   0.818
 1624TIP3    H1 4878  -0.071   3.580   0.815
 1624TIP3    H2 4879   0.074   3.542   0.831
 1625TIP3   OH2 4880   1.135   1.760   4.896
 1625TIP3    H1 4881   1.206   1.711   4.855
 1625TIP3    H2 4882   1.056   1.728   4.853
 1626TIP3   OH2 4883   2.033   5.238   3.419
 1626TIP3    H1 4884   2.057   5.187   3.342
 1626TIP3    H2 4885   2.108   5.230   3.478
 1627TIP3   OH2 4886   0.890   1.465   3.572
 1627TIP3    H1 4887   0.812   1.422   3.537
 1627TIP3    H2 4888   0.869   1.558   3.571
 1628TIP3   OH2 4889   1.895   2.439   2.343
 1628TIP3    H1 4890   1.945   2.367   2.381
 1628TIP3    H2 4891   1.933   2.452   2.256
 1629TIP3   OH2 4892   1.246   0.720   2.459
 1629TIP3    H1 4893   1.325   0.753   2.417
 1629TIP3    H2 4894   1.250   0.752   2.549
 1630TIP3   OH2 4895   0.438   0.767   4.016
 1630TIP3    H1 4896   0.475   0.854   4.027
 1630TIP3    H2 4897   0.487   0.730   3.942
 1631TIP3   OH2 4898   2.221   4.828   1.648
 1631TIP3    H1 4899   2.129   4.820   1.676
 1631TIP3    H2 4900   2.215   4.859   1.558
 1632TIP3   OH2 4901   2.148   3.910   1.731
 1632TIP3    H1 4902   2.178   3.819   1.728
 1632TIP3    H2 4903   2.070   3.911   1.675
 1633TIP3   OH2 4904   1.978   4.564   4.368
 1633TIP3    H1 4905   2.027   4.571   4.450
 1633TIP3    H2 4906   1.969   4.470   4.353
 1634TIP3   OH2 4907   1.273   5.081   1.807
 1634TIP3    H1 4908   1.193   5.036   1.779
 1634TIP3    H2 4909   1.251   5.120   1.891
 1635TIP3   OH2 4910   0.875   4.936   2.702
 1635TIP3    H1 4911   0.794   4.914   2.656
 1635TIP3    H2 4912   0.928   4.982   2.636
 1636TIP3   OH2 4913   1.292   4.249   3.032
 1636TIP3    H1 4914   1.373   4.269   3.078
 1636TIP3    H2 4915   1.226   4.241   3.101
 1637TIP3   OH2 4916   4.590   3.319   4.106
 1637TIP3    H1 4917   4.673   3.274   4.091
 1637TIP3    H2 4918   4.591   3.392   4.045
 1638TIP3   OH2 4919   0.013   3.871   4.674
 1638TIP3    H1 4920   0.088   3.820   4.704
 1638TIP3    H2 4921  -0.014   3.828   4.593
 1639TIP3   OH2 4922   5.128   1.432   1.110
 1639TIP3    H1 4923   5.126   1.431   1.206
 1639TIP3    H2 4924   5.115   1.524   1.087
 1640TIP3   OH2 4925   4.213   0.872   4.289
 1640TIP3    H1 4926   4.165   0.946   4.326
 1640TIP3    H2 4927   4.297   0.909   4.264
 1641TIP3   OH2 4928   1.453   2.571   0.575
 1641TIP3    H1 4929   1.362   2.590   0.553
 1641TIP3    H2 4930   1.481   2.645   0.628
 1642TIP3   OH2 4931   5.093   0.926   3.036
 1642TIP3    H1 4932   5.167   0.932   2.976
 1642TIP3    H2 4933   5.108   0.996   3.100
 1643TIP3   OH2 4934   4.954   0.431   1.987
 1643TIP3    H1 4935   4.878   0.455   2.040
 1643TIP3    H2 4936   4.918   0.412   1.900
 1644TIP3   OH2 4937   3.810   5.497   4.849
 1644TIP3    H1 4938   3.808   5.587   4.882
 1644TIP3    H2 4939   3.890   5.493   4.796
 1645TIP3   OH2 4940   0.254   5.103   2.292
 1645TIP3    H1 4941   0.279   5.020   2.252
 1645TIP3    H2 4942   0.316   5.114   2.364
 1646TIP3   OH2 4943   5.182   5.295   4.980
 1646TIP3    H1 4944   5.100   5.330   4.946
 1646TIP3    H2 4945   5.199   5.217   4.928
 1647TIP3   OH2 4946   0.862   1.967   3.998
 1647TIP3    H1 4947   0.794   1.995   3.937
 1647TIP3    H2 4948   0.872   1.873   3.982
 1648TIP3   OH2 4949   3.885   4.355   4.724
 1648TIP3    H1 4950   3.890   4.427   4.661
 1648TIP3    H2 4951   3.834   4.287   4.679
 1649TIP3   OH2 4952   3.673   4.357   2.546
 1649TIP3    H1 4953   3.740   4.339   2.480
 1649TIP3    H2 4954   3.674   4.452   2.556
 1650TIP3   OH2 4955   5.763   1.238   0.532
 1650TIP3    H1 4956   5.833   1.173   0.544
 1650TIP3    H2 4957   5.691   1.205   0.585
 1651TIP3   OH2 4958   2.938   2.671   2.145
 1651TIP3    H1 4959   3.003   2.717   2.092
 1651TIP3    H2 4960   2.858   2.723   2.136
 1652TIP3   OH2 4961   1.567   3.383   0.989
 1652TIP3    H1 4962   1.569   3.421   1.077
 1652TIP3    H2 4963   1.593   3.455   0.932
 1653TIP3   OH2 4964   4.071   1.629   2.872
 1653TIP3    H1 4965   4.160   1.616   2.903
 1653TIP3    H2 4966   4.032   1.542   2.875
 1654TIP3   OH2 4967   5.303   5.493   0.304
 1654TIP3    H1 4968   5.289   5.586   0.325
 1654TIP3    H2 4969   5.277   5.485   0.212
 1655TIP3   OH2 4970   6.242   2.617   3.604
 1655TIP3    H1 4971   6.337   2.616   3.613
 1655TIP3    H2 4972   6.225   2.580   3.518
 1656TIP3   OH2 4973   4.180   3.773   2.927
 1656TIP3    H1 4974   4.162   3.866   2.911
 1656TIP3    H2 4975   4.242   3.749   2.859
 1657TIP3   OH2 4976   3.210   4.306   4.645
 1657TIP3    H1 4977   3.156   4.227   4.647
 1657TIP3    H2 4978   3.293   4.279   4.686
 1658TIP3   OH2 4979   4.226   0.489   2.635
 1658TIP3    H1 4980   4.294   0.423   2.621
 1658TIP3    H2 4981   4.182   0.497   2.551
 1659TIP3   OH2 4982   5.231   0.693   1.699
 1659TIP3    H1 4983   5.195   0.778   1.672
 1659TIP3    H2 4984   5.230   0.640   1.619
 1660TIP3   OH2 4985   5.334   5.384   2.737
 1660TIP3    H1 4986   5.338   5.373   2.831
 1660TIP3    H2 4987   5.364   5.474   2.722
 1661TIP3   OH2 4988   3.881   0.091   0.860
 1661TIP3    H1 4989   3.961   0.067   0.813
 1661TIP3    H2 4990   3.900   0.178   0.897
 1662TIP3   OH2 4991   5.987   2.361   2.248
 1662TIP3    H1 4992   6.039   2.402   2.317
 1662TIP3    H2 4993   6.004   2.267   2.258
 1663TIP3   OH2 4994   2.895   4.423   3.713
 1663TIP3    H1 4995   2.920   4.471   3.634
 1663TIP3    H2 4996   2.878   4.334   3.682
 1664TIP3   OH2 4997   2.659   5.673   4.373
 1664TIP3    H1 4998   2.578   5.668   4.424
 1664TIP3    H2 4999   2.638   5.733   4.301
 1665TIP3   OH2 5000   3.505   1.588   0.383
 1665TIP3    H1 5001   3.525   1.522   0.317
 1665TIP3    H2 5002   3.490   1.537   0.463
 1666TIP3   OH2 5003   1.326   3.623   1.576
 1666TIP3    H1 5004   1.251   3.587   1.623
 1666TIP3    H2 5005   1.288   3.663   1.498
 1667TIP3   OH2 5006   6.312   4.281   0.419
 1667TIP3    H1 5007   6.265   4.228   0.484
 1667TIP3    H2 5008   6.263   4.267   0.338
 1668TIP3   OH2 5009   4.220   1.437   4.592
 1668TIP3    H1 5010   4.232   1.343   4.580
 1668TIP3    H2 5011   4.127   1.448   4.609
 1669TIP3   OH2 5012   5.715   1.597   3.269
 1669TIP3    H1 5013   5.760   1.669   3.225
 1669TIP3    H2 5014   5.706   1.626   3.360
 1670TIP3   OH2 5015   2.737   1.987   0.443
 1670TIP3    H1 5016   2.720   2.076   0.473
 1670TIP3    H2 5017   2.691   1.931   0.506
 1671TIP3   OH2 5018   6.208   5.769   0.701
 1671TIP3    H1 5019   6.172   5.848   0.741
 1671TIP3    H2 5020   6.277   5.801   0.644
 1672TIP3   OH2 5021   3.486   2.437   4.572
 1672TIP3    H1 5022   3.452   2.369   4.630
 1672TIP3    H2 5023   3.479   2.401   4.484
 1673TIP3   OH2 5024   2.654   4.783   1.416
 1673TIP3    H1 5025   2.666   4.870   1.454
 1673TIP3    H2 5026   2.733   4.735   1.442
 1674TIP3   OH2 5027   5.812   1.350   4.282
 1674TIP3    H1 5028   5.828   1.255   4.283
 1674TIP3    H2 5029   5.763   1.366   4.363
 1675TIP3   OH2 5030   0.221   5.406   0.477
 1675TIP3    H1 5031   0.273   5.394   0.397
 1675TIP3    H2 5032   0.199   5.317   0.504
 1676TIP3   OH2 5033   3.836   3.671   1.495
 1676TIP3    H1 5034   3.840   3.723   1.574
 1676TIP3    H2 5035   3.905   3.605   1.505
 1677TIP3   OH2 5036   2.808   5.811   1.307
 1677TIP3    H1 5037   2.855   5.886   1.270
 1677TIP3    H2 5038   2.732   5.850   1.352
 1678TIP3   OH2 5039   6.274   4.212   4.252
 1678TIP3    H1 5040   6.347   4.269   4.231
 1678TIP3    H2 5041   6.312   4.139   4.301
 1679TIP3   OH2 5042   3.455   4.245   0.227
 1679TIP3    H1 5043   3.436   4.261   0.135
 1679TIP3    H2 5044   3.389   4.296   0.274
 1680TIP3   OH2 5045   6.074   5.106   2.855
 1680TIP3    H1 5046   6.119   5.035   2.809
 1680TIP3    H2 5047   6.101   5.186   2.808
 1681TIP3   OH2 5048   5.704   2.707   4.591
 1681TIP3    H1 5049   5.800   2.709   4.599
 1681TIP3    H2 5050   5.678   2.627   4.637
 1682TIP3   OH2 5051   1.457   2.235   1.587
 1682TIP3    H1 5052   1.386   2.241   1.651
 1682TIP3    H2 5053   1.474   2.141   1.579
 1683TIP3   OH2 5054   0.642   1.314   1.411
 1683TIP3    H1 5055   0.681   1.388   1.365
 1683TIP3    H2 5056   0.556   1.346   1.440
 1684TIP3   OH2 5057   5.634   2.356   3.377
 1684TIP3    H1 5058   5.636   2.440   3.422
 1684TIP3    H2 5059   5.573   2.303   3.428
 1685TIP3   OH2 5060   3.744   3.783   5.015
 1685TIP3    H1 5061   3.739   3.694   4.980
 1685TIP3    H2 5062   3.678   3.832   4.967
 1686TIP3   OH2 5063   5.542   3.158   0.225
 1686TIP3    H1 5064   5.552   3.077   0.175
 1686TIP3    H2 5065   5.631   3.187   0.244
 1687TIP3   OH2 5066   2.634   0.527   0.709
 1687TIP3    H1 5067   2.631   0.463   0.639
 1687TIP3    H2 5068   2.596   0.607   0.672
 1688TIP3   OH2 5069   0.942   0.499   2.690
 1688TIP3    H1 5070   0.983   0.444   2.623
 1688TIP3    H2 5071   1.012   0.556   2.720
 1689TIP3   OH2 5072   6.027   5.332   1.189
 1689TIP3    H1 5073   6.024   5.239   1.169
 1689TIP3    H2 5074   6.003   5.375   1.106
 1690TIP3   OH2 5075   2.492   5.475   2.955
 1690TIP3    H1 5076   2.442   5.556   2.961
 1690TIP3    H2 5077   2.474   5.442   2.867
 1691TIP3   OH2 5078   0.324   0.383   2.048
 1691TIP3    H1 5079   0.233   0.357   2.040
 1691TIP3    H2 5080   0.334   0.407   2.141
 1692TIP3   OH2 5081   0.434   3.419   3.318
 1692TIP3    H1 5082   0.506   3.363   3.348
 1692TIP3    H2 5083   0.356   3.382   3.358
 1693TIP3   OH2 5084   3.916   3.400   3.392
 1693TIP3    H1 5085   3.900   3.487   3.429
 1693TIP3    H2 5086   3.978   3.416   3.321
 1694TIP3   OH2 5087   5.514   5.092   2.979
 1694TIP3    H1 5088   5.424   5.059   2.983
 1694TIP3    H2 5089   5.554   5.044   2.907
 1695TIP3   OH2 5090   5.762   3.800   1.976
 1695TIP3    H1 5091   5.778   3.797   2.070
 1695TIP3    H2 5092   5.842   3.764   1.937
 1696TIP3   OH2 5093   3.657   0.421   5.081
 1696TIP3    H1 5094   3.577   0.387   5.121
 1696TIP3    H2 5095   3.639   0.514   5.068
 1697TIP3   OH2 5096   0.712   4.412   2.632
 1697TIP3    H1 5097   0.681   4.373   2.713
 1697TIP3    H2 5098   0.658   4.370   2.564
 1698TIP3   OH2 5099   0.215   2.981   3.504
 1698TIP3    H1 5100   0.201   3.008   3.413
 1698TIP3    H2 5101   0.299   3.019   3.528
 1699TIP3   OH2 5102   0.594   0.627   0.899
 1699TIP3    H1 5103   0.617   0.593   0.812
 1699TIP3    H2 5104   0.674   0.617   0.951
 1700TIP3   OH2 5105   4.450   2.709   1.493
 1700TIP3    H1 5106   4.506   2.783   1.473
 1700TIP3    H2 5107   4.405   2.734   1.574
 1701TIP3   OH2 5108   1.259   1.048   3.729
 1701TIP3    H1 5109   1.325   0.999   3.777
 1701TIP3    H2 5110   1.195   0.982   3.702
 1702TIP3   OH2 5111   2.324   0.740   0.434
 1702TIP3    H1 5112   2.384   0.749   0.508
 1702TIP3    H2 5113   2.245   0.701   0.470
 1703TIP3   OH2 5114   0.362   4.835   0.201
 1703TIP3    H1 5115   0.328   4.916   0.237
 1703TIP3    H2 5116   0.286   4.778   0.192
 1704TIP3   OH2 5117   4.294   5.927   4.949
 1704TIP3    H1 5118   4.377   5.961   4.982
 1704TIP3    H2 5119   4.301   5.932   4.854
 1705TIP3   OH2 5120   5.612   0.295   2.081
 1705TIP3    H1 5121   5.686   0.240   2.107
 1705TIP3    H2 5122   5.633   0.323   1.992
 1706TIP3   OH2 5123   4.993   2.006   4.010
 1706TIP3    H1 5124   4.951   1.992   4.095
 1706TIP3    H2 5125   4.969   2.096   3.986
 1707TIP3   OH2 5126   1.513   0.821   1.880
 1707TIP3    H1 5127   1.451   0.751   1.858
 1707TIP3    H2 5128   1.544   0.852   1.795
 1708TIP3   OH2 5129   3.355   1.969   2.015
 1708TIP3    H1 5130   3.431   1.979   1.957
 1708TIP3    H2 5131   3.305   1.897   1.976
 1709TIP3   OH2 5132   1.780   2.965   1.485
 1709TIP3    H1 5133   1.782   3.015   1.567
 1709TIP3    H2 5134   1.687   2.959   1.463
 1710TIP3   OH2 5135   2.531   1.950   4.474
 1710TIP3    H1 5136   2.563   1.865   4.445
 1710TIP3    H2 5137   2.591   1.975   4.545
 1711TIP3   OH2 5138   0.154   2.967   4.156
 1711TIP3    H1 5139   0.211   3.033   4.115
 1711TIP3    H2 5140   0.164   2.889   4.102
 1712TIP3   OH2 5141   3.654   3.322   1.577
 1712TIP3    H1 5142   3.641   3.338   1.670
 1712TIP3    H2 5143   3.617   3.400   1.534
 1713TIP3   OH2 5144   5.751   4.164   2.918
 1713TIP3    H1 5145   5.697   4.203   2.988
 1713TIP3    H2 5146   5.745   4.070   2.933
 1714TIP3   OH2 5147   1.663   5.452   0.910
 1714TIP3    H1 5148   1.601   5.381   0.895
 1714TIP3    H2 5149   1.643   5.515   0.841
 1715TIP3   OH2 5150   2.849   4.185   0.314
 1715TIP3    H1 5151   2.904   4.168   0.390
 1715TIP3    H2 5152   2.806   4.269   0.334
 1716TIP3   OH2 5153   1.453   5.620   4.426
 1716TIP3    H1 5154   1.545   5.613   4.451
 1716TIP3    H2 5155   1.428   5.708   4.453
 1717TIP3   OH2 5156   6.239   1.610   4.493
 1717TIP3    H1 5157   6.151   1.580   4.517
 1717TIP3    H2 5158   6.268   1.548   4.427
 1718TIP3   OH2 5159   3.802   4.045   3.918
 1718TIP3    H1 5160   3.759   4.105   3.978
 1718TIP3    H2 5161   3.795   4.088   3.832
 1719TIP3   OH2 5162   4.019   2.727   4.637
 1719TIP3    H1 5163   4.028   2.823   4.637
 1719TIP3    H2 5164   4.109   2.695   4.632
 1720TIP3   OH2 5165   4.130   2.757   1.117
 1720TIP3    H1 5166   4.184   2.832   1.141
 1720TIP3    H2 5167   4.152   2.689   1.181
 1721TIP3   OH2 5168   0.991   1.714   3.466
 1721TIP3    H1 5169   1.077   1.739   3.499
 1721TIP3    H2 5170   1.009   1.669   3.384
 1722TIP3   OH2 5171   1.394   5.919   0.132
 1722TIP3    H1 5172   1.371   5.999   0.180
 1722TIP3    H2 5173   1.329   5.914   0.061
 1723TIP3   OH2 5174   1.043   5.671   1.924
 1723TIP3    H1 5175   0.980   5.741   1.905
 1723TIP3    H2 5176   0.994   5.608   1.977
 1724TIP3   OH2 5177   3.232   4.503   1.105
 1724TIP3    H1 5178   3.198   4.571   1.048
 1724TIP3    H2 5179   3.318   4.481   1.069
 1725TIP3   OH2 5180   4.641   1.236   1.524
 1725TIP3    H1 5181   4.627   1.236   1.619
 1725TIP3    H2 5182   4.582   1.305   1.492
 1726TIP3   OH2 5183   1.853   2.134   0.385
 1726TIP3    H1 5184   1.925   2.155   0.326
 1726TIP3    H2 5185   1.891   2.074   0.449
 1727TIP3   OH2 5186   3.289   4.648   2.368
 1727TIP3    H1 5187   3.286   4.555   2.346
 1727TIP3    H2 5188   3.383   4.669   2.372
 1728TIP3   OH2 5189   5.903   2.933   0.216
 1728TIP3    H1 5190   5.882   3.026   0.221
 1728TIP3    H2 5191   5.985   2.929   0.166
 1729TIP3   OH2 5192   2.956   1.476   1.678
 1729TIP3    H1 5193   2.873   1.503   1.639
 1729TIP3    H2 5194   2.930   1.431   1.759
 1730TIP3   OH2 5195   0.349   1.944   5.100
 1730TIP3    H1 5196   0.417   1.888   5.063
 1730TIP3    H2 5197   0.310   1.988   5.025
 1731TIP3   OH2 5198   4.076   2.546   2.211
 1731TIP3    H1 5199   4.020   2.469   2.202
 1731TIP3    H2 5200   4.100   2.569   2.122
 1732TIP3   OH2 5201   5.325   2.019   0.674
 1732TIP3    H1 5202   5.381   1.980   0.607
 1732TIP3    H2 5203   5.342   2.113   0.667
 1733TIP3   OH2 5204   1.475   0.670   4.175
 1733TIP3    H1 5205   1.416   0.719   4.118
 1733TIP3    H2 5206   1.439   0.682   4.263
 1734TIP3   OH2 5207   5.605   5.979   4.775
 1734TIP3    H1 5208   5.686   5.932   4.797
 1734TIP3    H2 5209   5.628   6.031   4.698
 1735TIP3   OH2 5210   3.199   1.745   0.030
 1735TIP3    H1 5211   3.132   1.813   0.042
 1735TIP3    H2 5212   3.249   1.745   0.112
 1736TIP3   OH2 5213   2.591   2.518   0.072
 1736TIP3    H1 5214   2.652   2.571   0.021
 1736TIP3    H2 5215   2.510   2.518   0.020
 1737TIP3   OH2 5216   5.859   4.612   1.421
 1737TIP3    H1 5217   5.901   4.687   1.463
 1737TIP3    H2 5218   5.812   4.568   1.492
 1738TIP3   OH2 5219   1.750   1.028   2.203
 1738TIP3    H1 5220   1.772   0.961   2.139
 1738TIP3    H2 5221   1.733   0.980   2.284
 1739TIP3   OH2 5222   5.803   1.841   3.550
 1739TIP3    H1 5223   5.741   1.876   3.486
 1739TIP3    H2 5224   5.767   1.755   3.573
 1740TIP3   OH2 5225   5.091   3.588   2.720
 1740TIP3    H1 5226   5.057   3.562   2.806
 1740TIP3    H2 5227   5.020   3.640   2.681
 1741TIP3   OH2 5228   3.066   1.582   3.590
 1741TIP3    H1 5229   3.037   1.582   3.682
 1741TIP3    H2 5230   3.011   1.516   3.548
 1742TIP3   OH2 5231   6.059   2.054   2.523
 1742TIP3    H1 5232   6.139   2.022   2.564
 1742TIP3    H2 5233   6.055   2.147   2.547
 1743TIP3   OH2 5234   1.473   3.554   0.487
 1743TIP3    H1 5235   1.449   3.489   0.421
 1743TIP3    H2 5236   1.393   3.568   0.537
 1744TIP3   OH2 5237   0.970   0.683   1.688
 1744TIP3    H1 5238   0.961   0.674   1.783
 1744TIP3    H2 5239   0.883   0.661   1.654
 1745TIP3   OH2 5240   4.399   4.534   3.495
 1745TIP3    H1 5241   4.343   4.511   3.421
 1745TIP3    H2 5242   4.341   4.529   3.571
 1746TIP3   OH2 5243   6.038   0.631   4.616
 1746TIP3    H1 5244   6.113   0.646   4.674
 1746TIP3    H2 5245   5.963   0.630   4.675
 1747TIP3   OH2 5246   1.289   3.799   2.194
 1747TIP3    H1 5247   1.223   3.833   2.254
 1747TIP3    H2 5248   1.359   3.768   2.250
 1748TIP3   OH2 5249   0.890   3.099   2.604
 1748TIP3    H1 5250   0.831   3.026   2.584
 1748TIP3    H2 5251   0.867   3.124   2.694
 1749TIP3   OH2 5252   3.492   2.821   2.110
 1749TIP3    H1 5253   3.490   2.878   2.187
 1749TIP3    H2 5254   3.575   2.773   2.119
 1750TIP3   OH2 5255   5.294   5.254   3.396
 1750TIP3    H1 5256   5.360   5.319   3.371
 1750TIP3    H2 5257   5.235   5.301   3.455
 1751TIP3   OH2 5258   5.571   5.445   1.037
 1751TIP3    H1 5259   5.575   5.491   1.121
 1751TIP3    H2 5260   5.564   5.352   1.061
 1752TIP3   OH2 5261   0.893   5.332   3.142
 1752TIP3    H1 5262   0.933   5.343   3.056
 1752TIP3    H2 5263   0.825   5.400   3.146
 1753TIP3   OH2 5264   6.328   1.615   3.874
 1753TIP3    H1 5265   6.342   1.661   3.790
 1753TIP3    H2 5266   6.415   1.585   3.899
 1754TIP3   OH2 5267   0.031   0.475   2.685
 1754TIP3    H1 5268   0.108   0.489   2.740
 1754TIP3    H2 5269  -0.034   0.537   2.717
 1755TIP3   OH2 5270   1.969   3.499   1.036
 1755TIP3    H1 5271   2.031   3.566   1.007
 1755TIP3    H2 5272   1.958   3.514   1.129
 1756TIP3   OH2 5273   0.441   5.038   4.239
 1756TIP3    H1 5274   0.426   5.132   4.233
 1756TIP3    H2 5275   0.441   5.007   4.148
 1757TIP3   OH2 5276   5.590   3.412   1.702
 1757TIP3    H1 5277   5.644   3.480   1.742
 1757TIP3    H2 5278   5.650   3.338   1.690
 1758TIP3   OH2 5279   3.661   4.270   4.009
 1758TIP3    H1 5280   3.567   4.284   3.999
 1758TIP3    H2 5281   3.701   4.352   3.980
 1759TIP3   OH2 5282   1.201   4.177   1.612
 1759TIP3    H1 5283   1.233   4.137   1.531
 1759TIP3    H2 5284   1.179   4.102   1.668
 1760TIP3   OH2 5285   6.302   4.153   0.030
 1760TIP3    H1 5286   6.216   4.116   0.007
 1760TIP3    H2 5287   6.315   4.129   0.122
 1761TIP3   OH2 5288   1.018   3.783   1.593
 1761TIP3    H1 5289   1.069   3.845   1.540
 1761TIP3    H2 5290   1.028   3.815   1.683
 1762TIP3   OH2 5291   5.028   0.204   0.959
 1762TIP3    H1 5292   4.951   0.232   1.008
 1762TIP3    H2 5293   5.083   0.282   0.953
 1763TIP3   OH2 5294   5.869   3.450   3.169
 1763TIP3    H1 5295   5.846   3.541   3.186
 1763TIP3    H2 5296   5.788   3.401   3.183
 1764TIP3   OH2 5297   4.224   4.322   2.962
 1764TIP3    H1 5298   4.306   4.365   2.988
 1764TIP3    H2 5299   4.212   4.348   2.871
 1765TIP3   OH2 5300   6.130   0.477   0.229
 1765TIP3    H1 5301   6.105   0.547   0.289
 1765TIP3    H2 5302   6.144   0.401   0.285
 1766TIP3   OH2 5303   4.368   5.582   0.705
 1766TIP3    H1 5304   4.410   5.613   0.786
 1766TIP3    H2 5305   4.278   5.615   0.711
 1767TIP3   OH2 5306   2.187   3.219   0.154
 1767TIP3    H1 5307   2.251   3.150   0.170
 1767TIP3    H2 5308   2.111   3.194   0.205
 1768TIP3   OH2 5309   5.098   3.588   1.807
 1768TIP3    H1 5310   5.136   3.627   1.886
 1768TIP3    H2 5311   5.163   3.526   1.776
 1769TIP3   OH2 5312   4.102   4.329   3.764
 1769TIP3    H1 5313   4.189   4.320   3.805
 1769TIP3    H2 5314   4.102   4.417   3.727
 1770TIP3   OH2 5315   0.327   5.501   1.426
 1770TIP3    H1 5316   0.283   5.582   1.401
 1770TIP3    H2 5317   0.357   5.464   1.343
 1771TIP3   OH2 5318   0.407   2.876   4.926
 1771TIP3    H1 5319   0.317   2.844   4.935
 1771TIP3    H2 5320   0.419   2.888   4.832
 1772TIP3   OH2 5321   5.947   2.089   1.222
 1772TIP3    H1 5322   6.005   2.035   1.276
 1772TIP3    H2 5323   5.863   2.045   1.225
 1773TIP3   OH2 5324   0.347   4.675   4.457
 1773TIP3    H1 5325   0.434   4.712   4.469
 1773TIP3    H2 5326   0.335   4.673   4.362
 1774TIP3   OH2 5327   3.739   5.240   0.515
 1774TIP3    H1 5328   3.774   5.197   0.592
 1774TIP3    H2 5329   3.668   5.295   0.548
 1775TIP3   OH2 5330   4.152   3.033   2.258
 1775TIP3    H1 5331   4.071   3.075   2.288
 1775TIP3    H2 5332   4.123   2.954   2.214
 1776TIP3   OH2 5333   1.381   4.624   1.565
 1776TIP3    H1 5334   1.407   4.531   1.562
 1776TIP3    H2 5335   1.403   4.658   1.478
 1777TIP3   OH2 5336   6.035   1.406   0.216
 1777TIP3    H1 5337   6.094   1.381   0.145
 1777TIP3    H2 5338   5.957   1.440   0.172
 1778TIP3   OH2 5339   1.495   2.266   0.456
 1778TIP3    H1 5340   1.537   2.284   0.540
 1778TIP3    H2 5341   1.529   2.334   0.397
 1779TIP3   OH2 5342   6.248   0.054   2.695
 1779TIP3    H1 5343   6.268  -0.006   2.767
 1779TIP3    H2 5344   6.331   0.097   2.675
 1780TIP3   OH2 5345   5.714   1.189   1.330
 1780TIP3    H1 5346   5.789   1.142   1.365
 1780TIP3    H2 5347   5.736   1.206   1.239
 1781TIP3   OH2 5348   4.215   0.067   3.234
 1781TIP3    H1 5349   4.133   0.083   3.189
 1781TIP3    H2 5350   4.193   0.069   3.327
 1782TIP3   OH2 5351   2.479   3.532   4.529
 1782TIP3    H1 5352   2.436   3.454   4.564
 1782TIP3    H2 5353   2.572   3.519   4.547
 1783TIP3   OH2 5354   4.100   1.870   4.296
 1783TIP3    H1 5355   4.171   1.821   4.337
 1783TIP3    H2 5356   4.062   1.809   4.232
 1784TIP3   OH2 5357   4.739   2.267   4.950
 1784TIP3    H1 5358   4.795   2.344   4.959
 1784TIP3    H2 5359   4.656   2.301   4.916
 1785TIP3   OH2 5360   2.286   4.052   2.224
 1785TIP3    H1 5361   2.216   3.988   2.205
 1785TIP3    H2 5362   2.338   4.012   2.293
 1786TIP3   OH2 5363   0.894   5.658   3.432
 1786TIP3    H1 5364   0.972   5.679   3.484
 1786TIP3    H2 5365   0.821   5.695   3.483
 1787TIP3   OH2 5366   5.899   0.192   2.075
 1787TIP3    H1 5367   5.942   0.226   1.997
 1787TIP3    H2 5368   5.932   0.247   2.146
 1788TIP3   OH2 5369   6.216   2.593   4.131
 1788TIP3    H1 5370   6.139   2.540   4.152
 1788TIP3    H2 5371   6.181   2.678   4.104
 1789TIP3   OH2 5372   3.637   5.316   4.818
 1789TIP3    H1 5373   3.696   5.386   4.846
 1789TIP3    H2 5374   3.685   5.236   4.840
 1790TIP3   OH2 5375   5.129   5.970   2.280
 1790TIP3    H1 5376   5.147   6.057   2.246
 1790TIP3    H2 5377   5.149   5.911   2.207
 1791TIP3   OH2 5378   6.243   3.800   0.628
 1791TIP3    H1 5379   6.273   3.751   0.705
 1791TIP3    H2 5380   6.267   3.745   0.554
 1792TIP3   OH2 5381   5.259   4.837   1.862
 1792TIP3    H1 5382   5.263   4.912   1.802
 1792TIP3    H2 5383   5.345   4.833   1.902
 1793TIP3   OH2 5384   3.405   5.085   0.665
 1793TIP3    H1 5385   3.332   5.148   0.666
 1793TIP3    H2 5386   3.430   5.078   0.573
 1794TIP3   OH2 5387   0.773   1.903   0.351
 1794TIP3    H1 5388   0.765   1.979   0.293
 1794TIP3    H2 5389   0.861   1.909   0.388
 1795TIP3   OH2 5390   3.508   4.091   0.533
 1795TIP3    H1 5391   3.562   4.160   0.571
 1795TIP3    H2 5392   3.437   4.078   0.596
 1796TIP3   OH2 5393   6.330   4.291   3.651
 1796TIP3    H1 5394   6.423   4.292   3.673
 1796TIP3    H2 5395   6.285   4.312   3.733
 1797TIP3   OH2 5396   2.633   0.475   5.013
 1797TIP3    H1 5397   2.542   0.504   5.017
 1797TIP3    H2 5398   2.657   0.460   5.105
 1798TIP3   OH2 5399   0.269   4.625   1.379
 1798TIP3    H1 5400   0.224   4.679   1.445
 1798TIP3    H2 5401   0.240   4.536   1.398
 1799TIP3   OH2 5402   5.196   4.456   0.900
 1799TIP3    H1 5403   5.180   4.543   0.937
 1799TIP3    H2 5404   5.172   4.395   0.970
 1800TIP3   OH2 5405   3.557   0.050   2.076
 1800TIP3    H1 5406   3.634   0.003   2.044
 1800TIP3    H2 5407   3.512   0.079   1.996
 1801TIP3   OH2 5408   3.042   5.893   2.984
 1801TIP3    H1 5409   3.094   5.813   2.981
 1801TIP3    H2 5410   3.009   5.905   2.895
 1802TIP3   OH2 5411   4.970   1.100   1.036
 1802TIP3    H1 5412   4.965   1.127   0.945
 1802TIP3    H2 5413   5.043   1.039   1.040
 1803TIP3   OH2 5414   4.103   2.565   3.997
 1803TIP3    H1 5415   4.081   2.659   3.999
 1803TIP3    H2 5416   4.017   2.522   3.995
 1804TIP3   OH2 5417   4.466   5.688   0.940
 1804TIP3    H1 5418   4.404   5.733   0.997
 1804TIP3    H2 5419   4.532   5.754   0.919
 1805TIP3   OH2 5420   5.614   5.438   2.071
 1805TIP3    H1 5421   5.675   5.364   2.062
 1805TIP3    H2 5422   5.543   5.417   2.010
 1806TIP3   OH2 5423   6.309   4.440   4.039
 1806TIP3    H1 5424   6.335   4.530   4.059
 1806TIP3    H2 5425   6.214   4.440   4.049
 1807TIP3   OH2 5426   1.015   3.302   2.470
 1807TIP3    H1 5427   1.102   3.266   2.453
 1807TIP3    H2 5428   0.977   3.242   2.534
 1808TIP3   OH2 5429   1.382   1.569   1.766
 1808TIP3    H1 5430   1.430   1.496   1.803
 1808TIP3    H2 5431   1.416   1.578   1.677
 1809TIP3   OH2 5432   4.738   0.186   2.121
 1809TIP3    H1 5433   4.710   0.196   2.212
 1809TIP3    H2 5434   4.676   0.241   2.072
 1810TIP3   OH2 5435   3.750   4.004   4.348
 1810TIP3    H1 5436   3.710   4.086   4.317
 1810TIP3    H2 5437   3.835   4.031   4.384
 1811TIP3   OH2 5438   3.880   5.427   3.274
 1811TIP3    H1 5439   3.818   5.354   3.266
 1811TIP3    H2 5440   3.834   5.501   3.233
 1812TIP3   OH2 5441   4.130   4.922   3.743
 1812TIP3    H1 5442   4.226   4.928   3.742
 1812TIP3    H2 5443   4.101   5.010   3.769
 1813TIP3   OH2 5444   4.395   4.152   0.104
 1813TIP3    H1 5445   4.384   4.189   0.192
 1813TIP3    H2 5446   4.361   4.063   0.112
 1814TIP3   OH2 5447   1.013   3.816   4.019
 1814TIP3    H1 5448   0.990   3.757   3.947
 1814TIP3    H2 5449   1.105   3.797   4.037
 1815TIP3   OH2 5450   0.413   4.124   3.255
 1815TIP3    H1 5451   0.356   4.056   3.291
 1815TIP3    H2 5452   0.442   4.088   3.170
 1816TIP3   OH2 5453   6.029   2.980   1.160
 1816TIP3    H1 5454   6.115   3.014   1.132
 1816TIP3    H2 5455   5.986   2.956   1.078
 1817TIP3   OH2 5456   4.316   3.731   3.641
 1817TIP3    H1 5457   4.267   3.814   3.640
 1817TIP3    H2 5458   4.258   3.669   3.598
 1818TIP3   OH2 5459   1.728   4.458   0.051
 1818TIP3    H1 5460   1.685   4.467   0.136
 1818TIP3    H2 5461   1.819   4.484   0.067
 1819TIP3   OH2 5462   5.289   3.372   0.458
 1819TIP3    H1 5463   5.286   3.467   0.453
 1819TIP3    H2 5464   5.206   3.348   0.501
 1820TIP3   OH2 5465   5.272   4.487   0.119
 1820TIP3    H1 5466   5.296   4.410   0.068
 1820TIP3    H2 5467   5.355   4.527   0.145
 1821TIP3   OH2 5468   5.191   2.918   3.245
 1821TIP3    H1 5469   5.240   2.930   3.326
 1821TIP3    H2 5470   5.248   2.862   3.192
 1822TIP3   OH2 5471   2.141   2.009   3.917
 1822TIP3    H1 5472   2.200   2.039   3.847
 1822TIP3    H2 5473   2.145   2.078   3.983
 1823TIP3   OH2 5474   1.126   4.405   4.290
 1823TIP3    H1 5475   1.113   4.384   4.197
 1823TIP3    H2 5476   1.056   4.466   4.311
 1824TIP3   OH2 5477   3.361   3.604   1.087
 1824TIP3    H1 5478   3.333   3.695   1.075
 1824TIP3    H2 5479   3.282   3.553   1.071
 1825TIP3   OH2 5480   2.437   1.236   0.864
 1825TIP3    H1 5481   2.436   1.277   0.951
 1825TIP3    H2 5482   2.347   1.208   0.850
 1826TIP3   OH2 5483   6.152   4.764   2.449
 1826TIP3    H1 5484   6.146   4.727   2.361
 1826TIP3    H2 5485   6.172   4.689   2.505
 1827TIP3   OH2 5486   0.454   3.486   4.917
 1827TIP3    H1 5487   0.541   3.498   4.878
 1827TIP3    H2 5488   0.458   3.535   4.999
 1828TIP3   OH2 5489   0.801   3.153   4.545
 1828TIP3    H1 5490   0.892   3.163   4.573
 1828TIP3    H2 5491   0.807   3.128   4.453
 1829TIP3   OH2 5492   4.808   0.649   2.512
 1829TIP3    H1 5493   4.785   0.740   2.530
 1829TIP3    H2 5494   4.902   0.650   2.495
 1830TIP3   OH2 5495   4.335   3.777   4.652
 1830TIP3    H1 5496   4.336   3.849   4.715
 1830TIP3    H2 5497   4.270   3.802   4.586
 1831TIP3   OH2 5498   4.212   2.588   3.299
 1831TIP3    H1 5499   4.179   2.677   3.311
 1831TIP3    H2 5500   4.300   2.600   3.263
 1832TIP3   OH2 5501   2.300   2.265   0.069
 1832TIP3    H1 5502   2.208   2.245   0.054
 1832TIP3    H2 5503   2.309   2.358   0.049
 1833TIP3   OH2 5504   0.535   5.346   0.398
 1833TIP3    H1 5505   0.529   5.397   0.317
 1833TIP3    H2 5506   0.550   5.256   0.368
 1834TIP3   OH2 5507   5.155   4.658   2.974
 1834TIP3    H1 5508   5.213   4.720   2.930
 1834TIP3    H2 5509   5.098   4.625   2.906
 1835TIP3   OH2 5510   4.959   2.352   5.178
 1835TIP3    H1 5511   4.949   2.432   5.127
 1835TIP3    H2 5512   4.889   2.356   5.244
 1836TIP3   OH2 5513   0.850   5.845   1.878
 1836TIP3    H1 5514   0.771   5.815   1.833
 1836TIP3    H2 5515   0.853   5.939   1.861
 1837TIP3   OH2 5516   0.781   4.746   1.749
 1837TIP3    H1 5517   0.809   4.655   1.763
 1837TIP3    H2 5518   0.709   4.759   1.811
 1838TIP3   OH2 5519   1.195   4.886   4.787
 1838TIP3    H1 5520   1.217   4.801   4.825
 1838TIP3    H2 5521   1.109   4.873   4.748
 1839TIP3   OH2 5522   2.239   3.231   1.302
 1839TIP3    H1 5523   2.177   3.301   1.321
 1839TIP3    H2 5524   2.213   3.198   1.216
 1840TIP3   OH2 5525   4.953   0.838   4.992
 1840TIP3    H1 5526   4.895   0.793   5.054
 1840TIP3    H2 5527   5.029   0.862   5.045
 1841TIP3   OH2 5528   4.158   0.424   0.272
 1841TIP3    H1 5529   4.251   0.412   0.256
 1841TIP3    H2 5530   4.147   0.518   0.282
 1842TIP3   OH2 5531   4.872   1.450   1.261
 1842TIP3    H1 5532   4.880   1.481   1.170
 1842TIP3    H2 5533   4.892   1.356   1.256
 1843TIP3   OH2 5534   5.412   4.725   1.634
 1843TIP3    H1 5535   5.431   4.790   1.567
 1843TIP3    H2 5536   5.495   4.717   1.683
 1844TIP3   OH2 5537   2.554   3.165   4.784
 1844TIP3    H1 5538   2.468   3.151   4.744
 1844TIP3    H2 5539   2.548   3.125   4.870
 1845TIP3   OH2 5540   1.224   3.766   0.133
 1845TIP3    H1 5541   1.252   3.688   0.180
 1845TIP3    H2 5542   1.205   3.830   0.202
 1846TIP3   OH2 5543   0.675   0.425   2.772
 1846TIP3    H1 5544   0.643   0.498   2.719
 1846TIP3    H2 5545   0.768   0.418   2.749
 1847TIP3   OH2 5546   4.097   0.498   1.993
 1847TIP3    H1 5547   4.190   0.478   1.979
 1847TIP3    H2 5548   4.051   0.428   1.945
 1848TIP3   OH2 5549   1.615   4.418   2.031
 1848TIP3    H1 5550   1.608   4.488   2.096
 1848TIP3    H2 5551   1.561   4.448   1.958
 1849TIP3   OH2 5552   0.847   2.379   5.061
 1849TIP3    H1 5553   0.879   2.293   5.034
 1849TIP3    H2 5554   0.922   2.419   5.106
 1850TIP3   OH2 5555   0.655   3.250   2.454
 1850TIP3    H1 5556   0.583   3.212   2.403
 1850TIP3    H2 5557   0.704   3.175   2.487
 1851TIP3   OH2 5558   1.958   2.260   4.495
 1851TIP3    H1 5559   1.957   2.349   4.531
 1851TIP3    H2 5560   1.983   2.205   4.568
 1852TIP3   OH2 5561   0.720   5.485   4.639
 1852TIP3    H1 5562   0.678   5.441   4.713
 1852TIP3    H2 5563   0.733   5.416   4.574
 1853TIP3   OH2 5564   6.277   5.616   1.008
 1853TIP3    H1 5565   6.187   5.594   0.983
 1853TIP3    H2 5566   6.316   5.533   1.034
 1854TIP3   OH2 5567   2.296   4.269   0.723
 1854TIP3    H1 5568   2.317   4.215   0.799
 1854TIP3    H2 5569   2.222   4.323   0.751
 1855TIP3   OH2 5570   5.004   0.099   3.440
 1855TIP3    H1 5571   4.918   0.140   3.436
 1855TIP3    H2 5572   5.028   0.083   3.349
 1856TIP3   OH2 5573   6.348   4.746   0.398
 1856TIP3    H1 5574   6.373   4.732   0.306
 1856TIP3    H2 5575   6.253   4.733   0.399
 1857TIP3   OH2 5576   1.569   3.485   0.137
 1857TIP3    H1 5577   1.499   3.548   0.156
 1857TIP3    H2 5578   1.526   3.413   0.091
 1858TIP3   OH2 5579   0.325   2.149   3.110
 1858TIP3    H1 5580   0.315   2.080   3.175
 1858TIP3    H2 5581   0.406   2.126   3.063
 1859TIP3   OH2 5582   0.769   0.616   3.732
 1859TIP3    H1 5583   0.752   0.598   3.824
 1859TIP3    H2 5584   0.685   0.642   3.696
 1860TIP3   OH2 5585   5.084   2.632   2.940
 1860TIP3    H1 5586   5.054   2.548   2.974
 1860TIP3    H2 5587   5.153   2.660   3.001
 1861TIP3   OH2 5588   0.769   2.184   0.332
 1861TIP3    H1 5589   0.820   2.243   0.388
 1861TIP3    H2 5590   0.685   2.228   0.320
 1862TIP3   OH2 5591   4.540   0.558   0.858
 1862TIP3    H1 5592   4.544   0.526   0.768
 1862TIP3    H2 5593   4.464   0.616   0.861
 1863TIP3   OH2 5594   2.619   0.958   0.474
 1863TIP3    H1 5595   2.674   0.942   0.398
 1863TIP3    H2 5596   2.549   1.015   0.441
 1864TIP3   OH2 5597   2.183   0.781   4.549
 1864TIP3    H1 5598   2.254   0.815   4.494
 1864TIP3    H2 5599   2.227   0.725   4.613
 1865TIP3   OH2 5600   0.042   2.355   1.913
 1865TIP3    H1 5601   0.053   2.379   2.005
 1865TIP3    H2 5602   0.048   2.438   1.865
 1866TIP3   OH2 5603   2.596   0.631   3.754
 1866TIP3    H1 5604   2.609   0.592   3.668
 1866TIP3    H2 5605   2.599   0.725   3.738
 1867TIP3   OH2 5606   0.652   1.532   1.235
 1867TIP3    H1 5607   0.610   1.472   1.173
 1867TIP3    H2 5608   0.609   1.616   1.219
 1868TIP3   OH2 5609   5.484   2.543   1.569
 1868TIP3    H1 5610   5.409   2.485   1.572
 1868TIP3    H2 5611   5.519   2.535   1.481
 1869TIP3   OH2 5612   3.094   2.852   5.020
 1869TIP3    H1 5613   3.045   2.770   5.032
 1869TIP3    H2 5614   3.157   2.832   4.951
 1870TIP3   OH2 5615   1.780   3.520   4.158
 1870TIP3    H1 5616   1.806   3.435   4.123
 1870TIP3    H2 5617   1.694   3.505   4.197
 1871TIP3   OH2 5618   4.930   0.982   3.552
 1871TIP3    H1 5619   5.003   0.933   3.515
 1871TIP3    H2 5620   4.872   0.915   3.588
 1872TIP3   OH2 5621   1.150   3.862   0.569
 1872TIP3    H1 5622   1.220   3.923   0.593
 1872TIP3    H2 5623   1.117   3.894   0.485
 1873TIP3   OH2 5624   0.691   3.438   2.191
 1873TIP3    H1 5625   0.695   3.398   2.278
 1873TIP3    H2 5626   0.771   3.408   2.148
 1874TIP3   OH2 5627   2.145   4.549   0.004
 1874TIP3    H1 5628   2.129   4.455  -0.005
 1874TIP3    H2 5629   2.226   4.555   0.055
 1875TIP3   OH2 5630   2.669   5.162   0.640
 1875TIP3    H1 5631   2.620   5.244   0.631
 1875TIP3    H2 5632   2.647   5.131   0.728
 1876TIP3   OH2 5633   4.122   3.397   4.114
 1876TIP3    H1 5634   4.176   3.321   4.092
 1876TIP3    H2 5635   4.086   3.427   4.030
 1877TIP3   OH2 5636   4.603   1.747   3.864
 1877TIP3    H1 5637   4.565   1.659   3.860
 1877TIP3    H2 5638   4.686   1.735   3.910
 1878TIP3   OH2 5639   0.945   2.482   1.507
 1878TIP3    H1 5640   0.867   2.504   1.457
 1878TIP3    H2 5641   0.913   2.432   1.582
 1879TIP3   OH2 5642   2.365   4.506   2.716
 1879TIP3    H1 5643   2.295   4.489   2.653
 1879TIP3    H2 5644   2.443   4.518   2.662
 1880TIP3   OH2 5645   5.967   1.782   2.203
 1880TIP3    H1 5646   6.036   1.721   2.179
 1880TIP3    H2 5647   5.944   1.758   2.293
 1881TIP3   OH2 5648   3.220   2.769   4.742
 1881TIP3    H1 5649   3.227   2.727   4.656
 1881TIP3    H2 5650   3.218   2.697   4.804
 1882TIP3   OH2 5651   1.220   3.186   2.786
 1882TIP3    H1 5652   1.133   3.224   2.799
 1882TIP3    H2 5653   1.222   3.110   2.843
 1883TIP3   OH2 5654   5.511   1.188   1.955
 1883TIP3    H1 5655   5.554   1.243   1.890
 1883TIP3    H2 5656   5.422   1.177   1.922
 1884TIP3   OH2 5657   0.073   3.478   4.380
 1884TIP3    H1 5658   0.168   3.462   4.374
 1884TIP3    H2 5659   0.038   3.399   4.421
 1885TIP3   OH2 5660   2.346   1.086   1.612
 1885TIP3    H1 5661   2.411   1.092   1.541
 1885TIP3    H2 5662   2.395   1.109   1.691
 1886TIP3   OH2 5663   4.123   2.459   0.294
 1886TIP3    H1 5664   4.134   2.500   0.208
 1886TIP3    H2 5665   4.081   2.375   0.274
 1887TIP3   OH2 5666   3.198   4.107   4.844
 1887TIP3    H1 5667   3.119   4.109   4.897
 1887TIP3    H2 5668   3.267   4.079   4.904
 1888TIP3   OH2 5669   1.359   0.962   3.174
 1888TIP3    H1 5670   1.367   0.961   3.270
 1888TIP3    H2 5671   1.449   0.966   3.143
 1889TIP3   OH2 5672   3.282   3.162   5.144
 1889TIP3    H1 5673   3.232   3.243   5.148
 1889TIP3    H2 5674   3.291   3.134   5.235
 1890TIP3   OH2 5675   0.166   5.677   1.646
 1890TIP3    H1 5676   0.145   5.658   1.554
 1890TIP3    H2 5677   0.236   5.742   1.642
 1891TIP3   OH2 5678   3.516   4.793   2.024
 1891TIP3    H1 5679   3.451   4.836   2.079
 1891TIP3    H2 5680   3.530   4.854   1.952
 1892TIP3   OH2 5681   4.684   5.100   4.409
 1892TIP3    H1 5682   4.684   5.139   4.496
 1892TIP3    H2 5683   4.686   5.006   4.425
 1893TIP3   OH2 5684   4.843   0.372   0.655
 1893TIP3    H1 5685   4.862   0.451   0.705
 1893TIP3    H2 5686   4.927   0.347   0.616
 1894TIP3   OH2 5687   5.701   3.015   4.474
 1894TIP3    H1 5688   5.625   3.037   4.421
 1894TIP3    H2 5689   5.665   2.978   4.554
 1895TIP3   OH2 5690   4.537   2.967   1.442
 1895TIP3    H1 5691   4.629   2.990   1.434
 1895TIP3    H2 5692   4.493   3.012   1.370
 1896TIP3   OH2 5693   5.641   3.246   2.209
 1896TIP3    H1 5694   5.731   3.244   2.175
 1896TIP3    H2 5695   5.586   3.243   2.131
 1897TIP3   OH2 5696   6.049   3.868   3.422
 1897TIP3    H1 5697   6.114   3.803   3.448
 1897TIP3    H2 5698   5.966   3.820   3.423
 1898TIP3   OH2 5699   3.568   3.645   2.831
 1898TIP3    H1 5700   3.565   3.712   2.763
 1898TIP3    H2 5701   3.642   3.589   2.806
 1899TIP3   OH2 5702   0.504   2.006   2.935
 1899TIP3    H1 5703   0.599   2.015   2.945
 1899TIP3    H2 5704   0.490   2.011   2.840
 1900TIP3   OH2 5705   3.547   2.377   0.395
 1900TIP3    H1 5706   3.505   2.294   0.370
 1900TIP3    H2 5707   3.638   2.366   0.370
 1901TIP3   OH2 5708   5.774   5.676   0.806
 1901TIP3    H1 5709   5.700   5.673   0.745
 1901TIP3    H2 5710   5.769   5.763   0.846
 1902TIP3   OH2 5711   2.115   3.786   2.725
 1902TIP3    H1 5712   2.119   3.850   2.796
 1902TIP3    H2 5713   2.036   3.808   2.677
 1903TIP3   OH2 5714   3.724   0.966   1.580
 1903TIP3    H1 5715   3.638   0.931   1.603
 1903TIP3    H2 5716   3.741   0.932   1.492
 1904TIP3   OH2 5717   2.879   1.915   1.647
 1904TIP3    H1 5718   2.930   1.855   1.702
 1904TIP3    H2 5719   2.820   1.859   1.597
 1905TIP3   OH2 5720   0.736   1.396   4.275
 1905TIP3    H1 5721   0.674   1.429   4.340
 1905TIP3    H2 5722   0.732   1.460   4.203
 1906TIP3   OH2 5723   0.199   2.527   0.500
 1906TIP3    H1 5724   0.177   2.568   0.584
 1906TIP3    H2 5725   0.191   2.597   0.436
 1907TIP3   OH2 5726   0.175   4.744   4.679
 1907TIP3    H1 5727   0.104   4.703   4.631
 1907TIP3    H2 5728   0.236   4.774   4.611
 1908TIP3   OH2 5729   3.740   5.845   0.663
 1908TIP3    H1 5730   3.714   5.905   0.733
 1908TIP3    H2 5731   3.791   5.899   0.603
 1909TIP3   OH2 5732   4.451   4.336   5.161
 1909TIP3    H1 5733   4.374   4.280   5.159
 1909TIP3    H2 5734   4.513   4.289   5.217
 1910TIP3   OH2 5735   5.774   2.646   0.003
 1910TIP3    H1 5736   5.854   2.697  -0.006
 1910TIP3    H2 5737   5.804   2.555   0.008
 1911TIP3   OH2 5738   2.840   5.110   3.650
 1911TIP3    H1 5739   2.907   5.176   3.671
 1911TIP3    H2 5740   2.765   5.134   3.705
 1912TIP3   OH2 5741   5.934   0.126   3.516
 1912TIP3    H1 5742   5.948   0.211   3.558
 1912TIP3    H2 5743   5.843   0.105   3.534
 1913TIP3   OH2 5744   3.694   0.114   0.471
 1913TIP3    H1 5745   3.619   0.172   0.481
 1913TIP3    H2 5746   3.731   0.137   0.385
 1914TIP3   OH2 5747   1.393   3.970   2.010
 1914TIP3    H1 5748   1.312   4.020   2.007
 1914TIP3    H2 5749   1.372   3.894   2.065
 1915TIP3   OH2 5750   1.528   2.864   1.435
 1915TIP3    H1 5751   1.571   2.797   1.382
 1915TIP3    H2 5752   1.470   2.815   1.493
 1916TIP3   OH2 5753   5.184   3.680   4.621
 1916TIP3    H1 5754   5.250   3.666   4.553
 1916TIP3    H2 5755   5.124   3.607   4.612
 1917TIP3   OH2 5756   0.232   3.150   3.979
 1917TIP3    H1 5757   0.283   3.145   3.898
 1917TIP3    H2 5758   0.143   3.172   3.950
 1918TIP3   OH2 5759   6.333   4.133   4.769
 1918TIP3    H1 5760   6.407   4.137   4.830
 1918TIP3    H2 5761   6.329   4.041   4.743
 1919TIP3   OH2 5762   5.586   1.786   2.880
 1919TIP3    H1 5763   5.576   1.872   2.838
 1919TIP3    H2 5764   5.501   1.769   2.919
 1920TIP3   OH2 5765   0.753   4.831   2.908
 1920TIP3    H1 5766   0.795   4.868   2.829
 1920TIP3    H2 5767   0.769   4.897   2.976
 1921TIP3   OH2 5768   5.367   1.277   1.648
 1921TIP3    H1 5769   5.367   1.311   1.737
 1921TIP3    H2 5770   5.277   1.286   1.618
 1922TIP3   OH2 5771   1.206   0.980   1.368
 1922TIP3    H1 5772   1.187   0.901   1.418
 1922TIP3    H2 5773   1.216   1.049   1.434
 1923TIP3   OH2 5774   1.342   4.810   2.963
 1923TIP3    H1 5775   1.336   4.825   3.057
 1923TIP3    H2 5776   1.251   4.796   2.935
 1924TIP3   OH2 5777   5.437   4.754   3.023
 1924TIP3    H1 5778   5.424   4.667   3.059
 1924TIP3    H2 5779   5.508   4.792   3.074
 1925TIP3   OH2 5780   5.622   1.045   4.507
 1925TIP3    H1 5781   5.654   0.962   4.471
 1925TIP3    H2 5782   5.700   1.101   4.509
 1926TIP3   OH2 5783   2.862   0.469   3.716
 1926TIP3    H1 5784   2.910   0.474   3.633
 1926TIP3    H2 5785   2.770   0.479   3.691
 1927TIP3   OH2 5786   3.919   5.690   5.139
 1927TIP3    H1 5787   3.846   5.728   5.091
 1927TIP3    H2 5788   3.890   5.602   5.162
 1928TIP3   OH2 5789   3.138   3.244   2.045
 1928TIP3    H1 5790   3.163   3.323   1.998
 1928TIP3    H2 5791   3.049   3.260   2.074
 1929TIP3   OH2 5792   0.067   1.996   0.552
 1929TIP3    H1 5793   0.024   1.910   0.547
 1929TIP3    H2 5794  -0.001   2.058   0.525
 1930TIP3   OH2 5795   0.283   2.120   0.142
 1930TIP3    H1 5796   0.342   2.079   0.206
 1930TIP3    H2 5797   0.261   2.050   0.081
 1931TIP3   OH2 5798   3.705   2.390   5.142
 1931TIP3    H1 5799   3.794   2.406   5.111
 1931TIP3    H2 5800   3.712   2.312   5.196
 1932TIP3   OH2 5801   3.903   1.012   2.097
 1932TIP3    H1 5802   3.831   0.982   2.153
 1932TIP3    H2 5803   3.951   0.933   2.075
 1933TIP3   OH2 5804   6.227   2.303   1.658
 1933TIP3    H1 5805   6.184   2.376   1.613
 1933TIP3    H2 5806   6.308   2.290   1.608
 1934TIP3   OH2 5807   4.026   0.914   1.809
 1934TIP3    H1 5808   3.993   0.861   1.882
 1934TIP3    H2 5809   3.948   0.959   1.776
 1935TIP3   OH2 5810   5.594   5.258   0.585
 1935TIP3    H1 5811   5.517   5.293   0.630
 1935TIP3    H2 5812   5.665   5.266   0.649
 1936TIP3   OH2 5813   3.982   5.519   2.069
 1936TIP3    H1 5814   3.960   5.598   2.020
 1936TIP3    H2 5815   3.992   5.451   2.002
 1937TIP3   OH2 5816   3.763   4.055   3.400
 1937TIP3    H1 5817   3.764   4.057   3.304
 1937TIP3    H2 5818   3.720   4.137   3.425
 1938TIP3   OH2 5819   2.077   1.419   3.263
 1938TIP3    H1 5820   1.994   1.382   3.233
 1938TIP3    H2 5821   2.078   1.403   3.357
 1939TIP3   OH2 5822   1.617   4.210   3.575
 1939TIP3    H1 5823   1.636   4.168   3.491
 1939TIP3    H2 5824   1.632   4.303   3.559
 1940TIP3   OH2 5825   0.482   3.075   3.440
 1940TIP3    H1 5826   0.459   3.042   3.354
 1940TIP3    H2 5827   0.566   3.034   3.460
 1941TIP3   OH2 5828   0.139   5.024   2.648
 1941TIP3    H1 5829   0.209   5.085   2.670
 1941TIP3    H2 5830   0.147   5.010   2.554
 1942TIP3   OH2 5831   5.456   2.788   1.677
 1942TIP3    H1 5832   5.391   2.772   1.745
 1942TIP3    H2 5833   5.466   2.704   1.633
 1943TIP3   OH2 5834   2.560   1.566   3.860
 1943TIP3    H1 5835   2.587   1.559   3.952
 1943TIP3    H2 5836   2.511   1.648   3.856
 1944TIP3   OH2 5837   3.471   2.112   0.333
 1944TIP3    H1 5838   3.533   2.082   0.399
 1944TIP3    H2 5839   3.459   2.037   0.274
 1945TIP3   OH2 5840   5.223   2.211   4.735
 1945TIP3    H1 5841   5.295   2.179   4.789
 1945TIP3    H2 5842   5.250   2.190   4.645
 1946TIP3   OH2 5843   6.327   5.467   0.360
 1946TIP3    H1 5844   6.412   5.477   0.402
 1946TIP3    H2 5845   6.267   5.445   0.432
 1947TIP3   OH2 5846   0.790   2.484   3.141
 1947TIP3    H1 5847   0.845   2.518   3.211
 1947TIP3    H2 5848   0.755   2.402   3.176
 1948TIP3   OH2 5849   2.226   1.842   0.685
 1948TIP3    H1 5850   2.190   1.916   0.636
 1948TIP3    H2 5851   2.286   1.799   0.624
 1949TIP3   OH2 5852   3.635   1.325   4.252
 1949TIP3    H1 5853   3.553   1.362   4.220
 1949TIP3    H2 5854   3.677   1.396   4.300
 1950TIP3   OH2 5855   0.383   4.594   4.875
 1950TIP3    H1 5856   0.321   4.646   4.824
 1950TIP3    H2 5857   0.333   4.517   4.903
 1951TIP3   OH2 5858   1.727   5.310   3.689
 1951TIP3    H1 5859   1.810   5.330   3.731
 1951TIP3    H2 5860   1.730   5.216   3.673
 1952TIP3   OH2 5861   2.314   4.606   1.368
 1952TIP3    H1 5862   2.315   4.701   1.363
 1952TIP3    H2 5863   2.388   4.578   1.314
 1953TIP3   OH2 5864   0.266   3.301   2.817
 1953TIP3    H1 5865   0.256   3.281   2.911
 1953TIP3    H2 5866   0.201   3.370   2.800
 1954TIP3   OH2 5867   0.039   5.093   4.960
 1954TIP3    H1 5868  -0.031   5.028   4.962
 1954TIP3    H2 5869   0.119   5.041   4.949
 1955TIP3   OH2 5870   4.124   1.512   1.611
 1955TIP3    H1 5871   4.082   1.460   1.679
 1955TIP3    H2 5872   4.079   1.596   1.615
 1956TIP3   OH2 5873   3.785   2.596   3.260
 1956TIP3    H1 5874   3.857   2.591   3.322
 1956TIP3    H2 5875   3.778   2.508   3.223
 1957TIP3   OH2 5876   3.992   4.800   2.804
 1957TIP3    H1 5877   3.926   4.773   2.868
 1957TIP3    H2 5878   4.004   4.722   2.748
 1958TIP3   OH2 5879   2.103   1.253   4.550
 1958TIP3    H1 5880   2.093   1.163   4.521
 1958TIP3    H2 5881   2.030   1.300   4.510
 1959TIP3   OH2 5882   0.128   4.360   1.352
 1959TIP3    H1 5883   0.114   4.305   1.429
 1959TIP3    H2 5884   0.054   4.420   1.351
 1960TIP3   OH2 5885   5.882   3.842   4.686
 1960TIP3    H1 5886   5.814   3.871   4.747
 1960TIP3    H2 5887   5.886   3.747   4.699
 1961TIP3   OH2 5888   0.076   2.619   1.070
 1961TIP3    H1 5889   0.023   2.540   1.067
 1961TIP3    H2 5890   0.091   2.641   0.978
 1962TIP3   OH2 5891   4.097   5.945   4.438
 1962TIP3    H1 5892   4.043   5.866   4.428
 1962TIP3    H2 5893   4.041   6.016   4.408
 1963TIP3   OH2 5894   2.501   0.940   0.877
 1963TIP3    H1 5895   2.458   1.023   0.858
 1963TIP3    H2 5896   2.447   0.901   0.947
 1964TIP3   OH2 5897   0.355   5.315   2.526
 1964TIP3    H1 5898   0.270   5.277   2.546
 1964TIP3    H2 5899   0.348   5.407   2.551
 1965TIP3   OH2 5900   0.228   0.339   0.899
 1965TIP3    H1 5901   0.138   0.370   0.891
 1965TIP3    H2 5902   0.219   0.247   0.925
 1966TIP3   OH2 5903   1.620   4.054   0.134
 1966TIP3    H1 5904   1.620   4.122   0.201
 1966TIP3    H2 5905   1.643   3.974   0.181
 1967TIP3   OH2 5906   3.391   2.230   4.739
 1967TIP3    H1 5907   3.317   2.235   4.799
 1967TIP3    H2 5908   3.463   2.198   4.793
 1968TIP3   OH2 5909   3.665   2.204   0.103
 1968TIP3    H1 5910   3.684   2.240   0.190
 1968TIP3    H2 5911   3.571   2.185   0.104
 1969TIP3   OH2 5912   3.691   1.341   1.461
 1969TIP3    H1 5913   3.640   1.261   1.450
 1969TIP3    H2 5914   3.640   1.409   1.416
 1970TIP3   OH2 5915   0.724   5.418   0.931
 1970TIP3    H1 5916   0.684   5.398   0.846
 1970TIP3    H2 5917   0.818   5.406   0.916
 1971TIP3   OH2 5918   3.406   4.219   3.234
 1971TIP3    H1 5919   3.370   4.298   3.195
 1971TIP3    H2 5920   3.425   4.162   3.159
 1972TIP3   OH2 5921   6.021   2.295   4.795
 1972TIP3    H1 5922   5.954   2.310   4.729
 1972TIP3    H2 5923   6.051   2.205   4.779
 1973TIP3   OH2 5924   2.066   4.907   2.551
 1973TIP3    H1 5925   2.120   4.834   2.521
 1973TIP3    H2 5926   2.094   4.981   2.498
 1974TIP3   OH2 5927   3.600   3.056   4.950
 1974TIP3    H1 5928   3.612   3.085   5.041
 1974TIP3    H2 5929   3.598   2.961   4.955
 1975TIP3   OH2 5930   4.328   5.931   4.680
 1975TIP3    H1 5931   4.278   5.858   4.643
 1975TIP3    H2 5932   4.323   5.999   4.614
 1976TIP3   OH2 5933   3.923   4.168   2.586
 1976TIP3    H1 5934   3.912   4.109   2.511
 1976TIP3    H2 5935   3.834   4.200   2.604
 1977TIP3   OH2 5936   0.665   4.795   2.289
 1977TIP3    H1 5937   0.755   4.809   2.320
 1977TIP3    H2 5938   0.644   4.705   2.314
 1978TIP3   OH2 5939   3.250   4.263   1.662
 1978TIP3    H1 5940   3.335   4.224   1.640
 1978TIP3    H2 5941   3.189   4.224   1.599
 1979TIP3   OH2 5942   4.251   3.040   0.235
 1979TIP3    H1 5943   4.320   3.080   0.181
 1979TIP3    H2 5944   4.277   2.949   0.243
 1980TIP3   OH2 5945   5.077   4.010   0.174
 1980TIP3    H1 5946   5.078   4.071   0.101
 1980TIP3    H2 5947   4.984   3.989   0.186
 1981TIP3   OH2 5948   2.373   1.088   0.415
 1981TIP3    H1 5949   2.406   1.159   0.470
 1981TIP3    H2 5950   2.285   1.072   0.446
 1982TIP3   OH2 5951   3.909   3.809   1.712
 1982TIP3    H1 5952   3.892   3.800   1.806
 1982TIP3    H2 5953   3.997   3.845   1.706
 1983TIP3   OH2 5954   3.342   0.376   2.310
 1983TIP3    H1 5955   3.337   0.301   2.369
 1983TIP3    H2 5956   3.432   0.375   2.277
 1984TIP3   OH2 5957   0.455   2.569   3.813
 1984TIP3    H1 5958   0.395   2.527   3.751
 1984TIP3    H2 5959   0.512   2.622   3.757
 1985TIP3   OH2 5960   5.872   4.136   1.117
 1985TIP3    H1 5961   5.905   4.221   1.088
 1985TIP3    H2 5962   5.777   4.146   1.118
 1986TIP3   OH2 5963   3.117   1.450   2.207
 1986TIP3    H1 5964   3.055   1.382   2.182
 1986TIP3    H2 5965   3.203   1.408   2.200
 1987TIP3   OH2 5966   0.093   1.241   3.510
 1987TIP3    H1 5967   0.151   1.193   3.452
 1987TIP3    H2 5968   0.005   1.225   3.476
 1988TIP3   OH2 5969   5.517   5.960   3.462
 1988TIP3    H1 5970   5.468   5.936   3.541
 1988TIP3    H2 5971   5.488   6.050   3.443
 1989TIP3   OH2 5972   5.142   4.492   2.577
 1989TIP3    H1 5973   5.168   4.500   2.485
 1989TIP3    H2 5974   5.200   4.424   2.612
 1990TIP3   OH2 5975   2.554   0.397   2.775
 1990TIP3    H1 5976   2.559   0.346   2.856
 1990TIP3    H2 5977   2.486   0.354   2.724
 1991TIP3   OH2 5978   2.495   3.905   0.826
 1991TIP3    H1 5979   2.444   3.871   0.899
 1991TIP3    H2 5980   2.498   3.999   0.841
 1992TIP3   OH2 5981   4.456   2.481   0.335
 1992TIP3    H1 5982   4.548   2.464   0.315
 1992TIP3    H2 5983   4.416   2.497   0.250
 1993TIP3   OH2 5984   3.483   0.655   2.118
 1993TIP3    H1 5985   3.543   0.721   2.082
 1993TIP3    H2 5986   3.472   0.680   2.210
 1994TIP3   OH2 5987   2.774   1.572   1.947
 1994TIP3    H1 5988   2.682   1.567   1.919
 1994TIP3    H2 5989   2.769   1.589   2.041
 1995TIP3   OH2 5990   3.958   5.151   2.995
 1995TIP3    H1 5991   3.890   5.099   3.037
 1995TIP3    H2 5992   4.027   5.088   2.974
 1996TIP3   OH2 5993   2.121   4.672   2.406
 1996TIP3    H1 5994   2.042   4.623   2.427
 1996TIP3    H2 5995   2.192   4.616   2.438
 1997TIP3   OH2 5996   0.388   2.301   1.167
 1997TIP3    H1 5997   0.475   2.273   1.137
 1997TIP3    H2 5998   0.330   2.280   1.094
 1998TIP3   OH2 5999   4.227   4.393   1.812
 1998TIP3    H1 6000   4.193   4.430   1.730
 1998TIP3    H2 6001   4.291   4.328   1.784
 1999TIP3   OH2 6002   3.890   4.462   2.988
 1999TIP3    H1 6003   3.907   4.475   2.894
 1999TIP3    H2 6004   3.970   4.420   3.021
 2000TIP3   OH2 6005   1.377   2.321   3.020
 2000TIP3    H1 6006   1.298   2.373   3.008
 2000TIP3    H2 6007   1.369   2.249   2.957
 2001TIP3   OH2 6008   0.612   2.048   3.887
 2001TIP3    H1 6009   0.568   1.967   3.862
 2001TIP3    H2 6010   0.543   2.103   3.924
 2002TIP3   OH2 6011   5.354   2.698   2.156
 2002TIP3    H1 6012   5.418   2.741   2.212
 2002TIP3    H2 6013   5.340   2.613   2.196
 2003TIP3   OH2 6014   3.854   5.145   5.178
 2003TIP3    H1 6015   3.795   5.072   5.198
 2003TIP3    H2 6016   3.843   5.159   5.084
 2004TIP3   OH2 6017   5.587   0.327   2.691
 2004TIP3    H1 6018   5.672   0.342   2.732
 2004TIP3    H2 6019   5.530   0.299   2.762
 2005TIP3   OH2 6020   5.089   5.915   3.675
 2005TIP3    H1 6021   5.156   5.851   3.651
 2005TIP3    H2 6022   5.023   5.864   3.723
 2006TIP3   OH2 6023   4.434   3.392   2.921
 2006TIP3    H1 6024   4.458   3.357   2.836
 2006TIP3    H2 6025   4.357   3.341   2.947
 2007TIP3   OH2 6026   1.622   1.293   2.120
 2007TIP3    H1 6027   1.639   1.199   2.107
 2007TIP3    H2 6028   1.680   1.337   2.059
 2008TIP3   OH2 6029   3.152   4.909   0.521
 2008TIP3    H1 6030   3.172   4.980   0.583
 2008TIP3    H2 6031   3.135   4.954   0.438
 2009TIP3   OH2 6032   4.783   5.061   1.048
 2009TIP3    H1 6033   4.801   5.153   1.031
 2009TIP3    H2 6034   4.696   5.046   1.011
 2010TIP3   OH2 6035   4.735   5.594   3.582
 2010TIP3    H1 6036   4.726   5.513   3.632
 2010TIP3    H2 6037   4.715   5.569   3.492
 2011TIP3   OH2 6038   1.424   5.167   2.166
 2011TIP3    H1 6039   1.504   5.182   2.115
 2011TIP3    H2 6040   1.354   5.203   2.111
 2012TIP3   OH2 6041   5.158   0.357   0.669
 2012TIP3    H1 6042   5.250   0.383   0.669
 2012TIP3    H2 6043   5.148   0.306   0.588
 2013TIP3   OH2 6044   2.983   0.794   1.670
 2013TIP3    H1 6045   3.038   0.744   1.729
 2013TIP3    H2 6046   2.963   0.874   1.717
 2014TIP3   OH2 6047   5.732   3.852   0.721
 2014TIP3    H1 6048   5.826   3.852   0.738
 2014TIP3    H2 6049   5.705   3.942   0.738
 2015TIP3   OH2 6050   4.092   0.858   5.130
 2015TIP3    H1 6051   4.104   0.770   5.094
 2015TIP3    H2 6052   4.179   0.898   5.126
 2016TIP3   OH2 6053   1.032   4.409   1.629
 2016TIP3    H1 6054   1.081   4.328   1.638
 2016TIP3    H2 6055   1.000   4.408   1.538
 2017TIP3   OH2 6056   2.131   3.911   3.822
 2017TIP3    H1 6057   2.188   3.930   3.896
 2017TIP3    H2 6058   2.180   3.943   3.746
 2018TIP3   OH2 6059   4.124   0.266   1.684
 2018TIP3    H1 6060   4.085   0.352   1.673
 2018TIP3    H2 6061   4.171   0.250   1.602
 2019TIP3   OH2 6062   2.164   4.999   3.668
 2019TIP3    H1 6063   2.228   4.936   3.699
 2019TIP3    H2 6064   2.084   4.948   3.655
 2020TIP3   OH2 6065   6.139   3.772   2.281
 2020TIP3    H1 6066   6.170   3.716   2.352
 2020TIP3    H2 6067   6.065   3.820   2.318
 2021TIP3   OH2 6068   3.620   5.252   1.515
 2021TIP3    H1 6069   3.527   5.255   1.537
 2021TIP3    H2 6070   3.624   5.290   1.427
 2022TIP3   OH2 6071   4.902   1.798   2.528
 2022TIP3    H1 6072   4.845   1.873   2.545
 2022TIP3    H2 6073   4.990   1.836   2.520
 2023TIP3   OH2 6074   2.744   0.231   0.066
 2023TIP3    H1 6075   2.822   0.226   0.121
 2023TIP3    H2 6076   2.749   0.154   0.010
 2024TIP3   OH2 6077   6.295   1.033   3.241
 2024TIP3    H1 6078   6.243   0.974   3.187
 2024TIP3    H2 6079   6.344   1.087   3.178
 2025TIP3   OH2 6080   5.084   1.195   3.969
 2025TIP3    H1 6081   5.113   1.133   4.036
 2025TIP3    H2 6082   5.021   1.147   3.917
 2026TIP3   OH2 6083   0.428   3.662   3.195
 2026TIP3    H1 6084   0.443   3.582   3.244
 2026TIP3    H2 6085   0.385   3.721   3.257
 2027TIP3   OH2 6086   2.730   3.685   3.028
 2027TIP3    H1 6087   2.791   3.755   3.050
 2027TIP3    H2 6088   2.709   3.699   2.935
 2028TIP3   OH2 6089   1.075   2.727   2.147
 2028TIP3    H1 6090   1.142   2.663   2.171
 2028TIP3    H2 6091   1.037   2.753   2.231
 2029TIP3   OH2 6092   0.595   4.276   2.344
 2029TIP3    H1 6093   0.538   4.281   2.420
 2029TIP3    H2 6094   0.621   4.184   2.340
 2030TIP3   OH2 6095   4.289   2.258   4.310
 2030TIP3    H1 6096   4.204   2.217   4.326
 2030TIP3    H2 6097   4.277   2.349   4.334
 2031TIP3   OH2 6098   1.276   4.814   2.548
 2031TIP3    H1 6099   1.287   4.903   2.515
 2031TIP3    H2 6100   1.306   4.818   2.639
 2032TIP3   OH2 6101   6.214   5.357   2.816
 2032TIP3    H1 6102   6.164   5.384   2.740
 2032TIP3    H2 6103   6.168   5.396   2.890
 2033TIP3   OH2 6104   3.207   3.129   0.543
 2033TIP3    H1 6105   3.187   3.215   0.582
 2033TIP3    H2 6106   3.302   3.124   0.544
 2034TIP3   OH2 6107   2.247   1.074   2.257
 2034TIP3    H1 6108   2.291   1.120   2.328
 2034TIP3    H2 6109   2.164   1.120   2.246
 2035TIP3   OH2 6110   2.168   1.699   3.038
 2035TIP3    H1 6111   2.126   1.719   3.122
 2035TIP3    H2 6112   2.255   1.665   3.062
 2036TIP3   OH2 6113   5.083   3.257   0.593
 2036TIP3    H1 6114   5.159   3.215   0.634
 2036TIP3    H2 6115   5.007   3.222   0.641
 2037TIP3   OH2 6116   2.472   0.459   0.940
 2037TIP3    H1 6117   2.527   0.499   0.873
 2037TIP3    H2 6118   2.479   0.365   0.925
 2038TIP3   OH2 6119   0.463   2.515   3.139
 2038TIP3    H1 6120   0.555   2.537   3.126
 2038TIP3    H2 6121   0.460   2.419   3.134
 2039TIP3   OH2 6122   3.281   5.181   4.050
 2039TIP3    H1 6123   3.309   5.147   3.965
 2039TIP3    H2 6124   3.231   5.259   4.029
 2040TIP3   OH2 6125   5.240   3.189   4.380
 2040TIP3    H1 6126   5.313   3.128   4.369
 2040TIP3    H2 6127   5.269   3.270   4.339
 2041TIP3   OH2 6128   2.697   1.152   4.381
 2041TIP3    H1 6129   2.675   1.146   4.474
 2041TIP3    H2 6130   2.702   1.061   4.351
 2042TIP3   OH2 6131   5.840   5.878   5.103
 2042TIP3    H1 6132   5.746   5.882   5.124
 2042TIP3    H2 6133   5.881   5.846   5.183
 2043TIP3   OH2 6134   6.228   2.654   2.939
 2043TIP3    H1 6135   6.244   2.561   2.923
 2043TIP3    H2 6136   6.192   2.657   3.027
 2044TIP3   OH2 6137   2.654   0.897   3.693
 2044TIP3    H1 6138   2.688   0.954   3.624
 2044TIP3    H2 6139   2.721   0.899   3.760
 2045TIP3   OH2 6140   5.105   1.374   0.466
 2045TIP3    H1 6141   5.157   1.379   0.385
 2045TIP3    H2 6142   5.119   1.285   0.498
 2046TIP3   OH2 6143   1.857   5.055   2.649
 2046TIP3    H1 6144   1.778   5.003   2.635
 2046TIP3    H2 6145   1.929   4.993   2.635
 2047TIP3   OH2 6146   4.972   2.800   1.761
 2047TIP3    H1 6147   4.901   2.862   1.777
 2047TIP3    H2 6148   5.021   2.838   1.688
 2048TIP3   OH2 6149   3.995   1.695   2.085
 2048TIP3    H1 6150   3.929   1.635   2.049
 2048TIP3    H2 6151   4.051   1.639   2.139
 2049TIP3   OH2 6152   1.384   2.540   4.944
 2049TIP3    H1 6153   1.374   2.562   4.851
 2049TIP3    H2 6154   1.394   2.625   4.988
 2050TIP3   OH2 6155   1.068   3.488   3.892
 2050TIP3    H1 6156   1.095   3.525   3.976
 2050TIP3    H2 6157   1.144   3.439   3.862
 2051TIP3   OH2 6158   2.582   3.102   3.341
 2051TIP3    H1 6159   2.553   3.144   3.423
 2051TIP3    H2 6160   2.612   3.015   3.368
 2052TIP3   OH2 6161   5.157   3.465   5.067
 2052TIP3    H1 6162   5.233   3.464   5.125
 2052TIP3    H2 6163   5.094   3.522   5.110
 2053TIP3   OH2 6164   1.533   2.061   0.195
 2053TIP3    H1 6165   1.540   2.111   0.276
 2053TIP3    H2 6166   1.448   2.085   0.159
 2054TIP3   OH2 6167   1.435   2.779   0.758
 2054TIP3    H1 6168   1.485   2.752   0.835
 2054TIP3    H2 6169   1.351   2.809   0.792
 2055TIP3   OH2 6170   2.370   4.557   4.876
 2055TIP3    H1 6171   2.319   4.478   4.888
 2055TIP3    H2 6172   2.409   4.548   4.789
 2056TIP3   OH2 6173   4.454   5.741   1.449
 2056TIP3    H1 6174   4.448   5.671   1.514
 2056TIP3    H2 6175   4.541   5.777   1.460
 2057TIP3   OH2 6176   1.560   1.285   0.402
 2057TIP3    H1 6177   1.606   1.280   0.486
 2057TIP3    H2 6178   1.508   1.365   0.407
 2058TIP3   OH2 6179   0.472   4.110   4.281
 2058TIP3    H1 6180   0.494   4.095   4.373
 2058TIP3    H2 6181   0.556   4.102   4.235
 2059TIP3   OH2 6182   1.702   3.868   3.630
 2059TIP3    H1 6183   1.711   3.874   3.534
 2059TIP3    H2 6184   1.788   3.843   3.661
 2060TIP3   OH2 6185   3.958   5.440   4.513
 2060TIP3    H1 6186   4.003   5.399   4.587
 2060TIP3    H2 6187   3.989   5.392   4.437
 2061TIP3   OH2 6188   0.725   2.964   3.572
 2061TIP3    H1 6189   0.778   2.937   3.647
 2061TIP3    H2 6190   0.778   2.942   3.495
 2062TIP3   OH2 6191   3.078   2.209   0.392
 2062TIP3    H1 6192   3.094   2.302   0.376
 2062TIP3    H2 6193   3.000   2.189   0.340
 2063TIP3   OH2 6194   5.745   4.789   2.464
 2063TIP3    H1 6195   5.655   4.805   2.492
 2063TIP3    H2 6196   5.747   4.819   2.373
 2064TIP3   OH2 6197   5.806   5.259   2.097
 2064TIP3    H1 6198   5.756   5.226   2.172
 2064TIP3    H2 6199   5.859   5.330   2.133
 2065TIP3   OH2 6200   4.981   4.564   2.800
 2065TIP3    H1 6201   4.947   4.478   2.826
 2065TIP3    H2 6202   5.043   4.545   2.730
 2066TIP3   OH2 6203   0.136   2.599   5.093
 2066TIP3    H1 6204   0.045   2.595   5.120
 2066TIP3    H2 6205   0.153   2.514   5.052
 2067TIP3   OH2 6206   1.836   1.258   3.204
 2067TIP3    H1 6207   1.902   1.219   3.146
 2067TIP3    H2 6208   1.754   1.250   3.156
 2068TIP3   OH2 6209   3.574   0.550   3.945
 2068TIP3    H1 6210   3.503   0.594   3.990
 2068TIP3    H2 6211   3.644   0.615   3.939
 2069TIP3   OH2 6212   1.903   5.762   1.966
 2069TIP3    H1 6213   1.928   5.712   2.044
 2069TIP3    H2 6214   1.965   5.733   1.898
 2070TIP3   OH2 6215   4.834   0.686   3.786
 2070TIP3    H1 6216   4.829   0.680   3.690
 2070TIP3    H2 6217   4.927   0.676   3.806
 2071TIP3   OH2 6218   5.579   0.456   4.285
 2071TIP3    H1 6219   5.523   0.509   4.228
 2071TIP3    H2 6220   5.644   0.417   4.226
 2072TIP3   OH2 6221   1.853   4.724   0.245
 2072TIP3    H1 6222   1.759   4.738   0.255
 2072TIP3    H2 6223   1.873   4.758   0.157
 2073TIP3   OH2 6224   5.669   3.561   2.067
 2073TIP3    H1 6225   5.665   3.642   2.016
 2073TIP3    H2 6226   5.578   3.545   2.094
 2074TIP3   OH2 6227   3.069   3.804   0.931
 2074TIP3    H1 6228   3.128   3.799   0.857
 2074TIP3    H2 6229   3.124   3.834   1.004
 2075TIP3   OH2 6230   2.682   2.791   1.086
 2075TIP3    H1 6231   2.590   2.781   1.063
 2075TIP3    H2 6232   2.727   2.791   1.001
 2076TIP3   OH2 6233   2.591   5.735   0.521
 2076TIP3    H1 6234   2.518   5.740   0.459
 2076TIP3    H2 6235   2.552   5.756   0.606
 2077TIP3   OH2 6236   3.288   4.535   0.724
 2077TIP3    H1 6237   3.333   4.529   0.639
 2077TIP3    H2 6238   3.270   4.444   0.748
 2078TIP3   OH2 6239   3.744   1.005   4.960
 2078TIP3    H1 6240   3.671   1.022   4.902
 2078TIP3    H2 6241   3.745   0.911   4.972
 2079TIP3   OH2 6242   4.176   5.120   1.737
 2079TIP3    H1 6243   4.239   5.108   1.667
 2079TIP3    H2 6244   4.090   5.110   1.695
 2080TIP3   OH2 6245   4.619   2.192   3.990
 2080TIP3    H1 6246   4.601   2.122   3.927
 2080TIP3    H2 6247   4.711   2.214   3.974
 2081TIP3   OH2 6248   1.451   4.069   2.649
 2081TIP3    H1 6249   1.442   3.978   2.621
 2081TIP3    H2 6250   1.496   4.112   2.576
 2082TIP3   OH2 6251   3.665   0.722   0.683
 2082TIP3    H1 6252   3.687   0.746   0.773
 2082TIP3    H2 6253   3.632   0.633   0.689
 2083TIP3   OH2 6254   4.581   3.605   2.961
 2083TIP3    H1 6255   4.503   3.550   2.951
 2083TIP3    H2 6256   4.590   3.649   2.876
 2084TIP3   OH2 6257   1.785   3.556   5.001
 2084TIP3    H1 6258   1.848   3.621   5.033
 2084TIP3    H2 6259   1.835   3.504   4.938
 2085TIP3   OH2 6260   5.027   5.677   2.826
 2085TIP3    H1 6261   5.059   5.587   2.825
 2085TIP3    H2 6262   5.105   5.730   2.841
 2086TIP3   OH2 6263   4.546   1.864   2.392
 2086TIP3    H1 6264   4.457   1.868   2.359
 2086TIP3    H2 6265   4.599   1.836   2.317
 2087TIP3   OH2 6266   4.200   5.341   3.222
 2087TIP3    H1 6267   4.180   5.373   3.133
 2087TIP3    H2 6268   4.119   5.356   3.271
 2088TIP3   OH2 6269   2.872   0.903   3.377
 2088TIP3    H1 6270   2.947   0.931   3.430
 2088TIP3    H2 6271   2.860   0.811   3.397
 2089TIP3   OH2 6272   4.436   2.776   0.825
 2089TIP3    H1 6273   4.455   2.706   0.762
 2089TIP3    H2 6274   4.512   2.835   0.819
 2090TIP3   OH2 6275   1.476   4.004   3.700
 2090TIP3    H1 6276   1.548   3.942   3.699
 2090TIP3    H2 6277   1.515   4.086   3.669
 2091TIP3   OH2 6278   4.796   1.155   2.030
 2091TIP3    H1 6279   4.732   1.207   2.079
 2091TIP3    H2 6280   4.765   1.065   2.040
 2092TIP3   OH2 6281   5.424   4.515   3.205
 2092TIP3    H1 6282   5.421   4.505   3.300
 2092TIP3    H2 6283   5.336   4.490   3.177
 2093TIP3   OH2 6284   1.456   2.375   0.179
 2093TIP3    H1 6285   1.551   2.377   0.188
 2093TIP3    H2 6286   1.440   2.393   0.086
 2094TIP3   OH2 6287   5.223   5.878   2.737
 2094TIP3    H1 6288   5.212   5.901   2.829
 2094TIP3    H2 6289   5.252   5.959   2.695
 2095TIP3   OH2 6290   4.372   4.279   4.496
 2095TIP3    H1 6291   4.341   4.253   4.583
 2095TIP3    H2 6292   4.442   4.217   4.476
 2096TIP3   OH2 6293   4.833   4.213   2.648
 2096TIP3    H1 6294   4.820   4.294   2.599
 2096TIP3    H2 6295   4.920   4.220   2.685
 2097TIP3   OH2 6296   6.317   3.944   2.505
 2097TIP3    H1 6297   6.280   3.857   2.490
 2097TIP3    H2 6298   6.267   4.002   2.447
 2098TIP3   OH2 6299   1.051   3.957   2.336
 2098TIP3    H1 6300   1.078   3.986   2.423
 2098TIP3    H2 6301   0.998   4.029   2.302
 2099TIP3   OH2 6302   3.555   2.083   4.954
 2099TIP3    H1 6303   3.543   1.990   4.932
 2099TIP3    H2 6304   3.641   2.105   4.919
 2100TIP3   OH2 6305   0.120   1.718   4.313
 2100TIP3    H1 6306   0.081   1.634   4.290
 2100TIP3    H2 6307   0.194   1.695   4.369
 2101TIP3   OH2 6308   3.477   3.491   2.616
 2101TIP3    H1 6309   3.401   3.514   2.670
 2101TIP3    H2 6310   3.538   3.450   2.677
 2102TIP3   OH2 6311   4.925   3.254   0.230
 2102TIP3    H1 6312   4.958   3.218   0.148
 2102TIP3    H2 6313   4.881   3.335   0.206
 2103TIP3   OH2 6314   3.626   1.795   3.576
 2103TIP3    H1 6315   3.714   1.826   3.597
 2103TIP3    H2 6316   3.638   1.731   3.506
 2104TIP3   OH2 6317   1.759   5.413   0.418
 2104TIP3    H1 6318   1.734   5.503   0.438
 2104TIP3    H2 6319   1.773   5.413   0.323
 2105TIP3   OH2 6320   2.859   2.136   4.241
 2105TIP3    H1 6321   2.856   2.167   4.331
 2105TIP3    H2 6322   2.777   2.167   4.202
 2106TIP3   OH2 6323   2.437   5.459   4.356
 2106TIP3    H1 6324   2.357   5.435   4.402
 2106TIP3    H2 6325   2.415   5.541   4.310
 2107TIP3   OH2 6326   3.704   1.377   4.699
 2107TIP3    H1 6327   3.713   1.288   4.666
 2107TIP3    H2 6328   3.667   1.367   4.787
 2108TIP3   OH2 6329   1.686   3.781   1.930
 2108TIP3    H1 6330   1.592   3.783   1.914
 2108TIP3    H2 6331   1.697   3.729   2.010
 2109TIP3   OH2 6332   0.750   3.057   0.042
 2109TIP3    H1 6333   0.768   3.067   0.135
 2109TIP3    H2 6334   0.794   2.975   0.018
 2110TIP3   OH2 6335   1.139   4.253   3.271
 2110TIP3    H1 6336   1.046   4.237   3.287
 2110TIP3    H2 6337   1.184   4.198   3.335
 2111TIP3   OH2 6338   0.819   5.384   0.573
 2111TIP3    H1 6339   0.775   5.449   0.627
 2111TIP3    H2 6340   0.761   5.307   0.576
 2112TIP3   OH2 6341   0.478   5.343   4.269
 2112TIP3    H1 6342   0.532   5.411   4.227
 2112TIP3    H2 6343   0.402   5.335   4.211
 2113TIP3   OH2 6344   2.321   2.054   3.697
 2113TIP3    H1 6345   2.270   2.130   3.672
 2113TIP3    H2 6346   2.303   1.989   3.628
 2114TIP3   OH2 6347   3.726   3.058   4.695
 2114TIP3    H1 6348   3.700   3.148   4.674
 2114TIP3    H2 6349   3.699   3.046   4.785
 2115TIP3   OH2 6350   4.055   5.035   4.079
 2115TIP3    H1 6351   4.117   4.966   4.054
 2115TIP3    H2 6352   4.108   5.098   4.128
 2116TIP3   OH2 6353   3.589   5.845   1.850
 2116TIP3    H1 6354   3.654   5.871   1.784
 2116TIP3    H2 6355   3.577   5.751   1.836
 2117TIP3   OH2 6356   0.889   4.503   2.280
 2117TIP3    H1 6357   0.904   4.481   2.188
 2117TIP3    H2 6358   0.810   4.558   2.279
 2118TIP3   OH2 6359   5.089   0.841   2.068
 2118TIP3    H1 6360   5.171   0.793   2.060
 2118TIP3    H2 6361   5.066   0.836   2.161
 2119TIP3   OH2 6362   5.990   3.136   1.720
 2119TIP3    H1 6363   6.011   3.096   1.636
 2119TIP3    H2 6364   5.909   3.185   1.704
 2120TIP3   OH2 6365   3.655   3.523   1.253
 2120TIP3    H1 6366   3.571   3.564   1.273
 2120TIP3    H2 6367   3.718   3.595   1.255
 2121TIP3   OH2 6368   0.915   4.747   2.040
 2121TIP3    H1 6369   0.843   4.793   1.998
 2121TIP3    H2 6370   0.890   4.655   2.038
 2122TIP3   OH2 6371   5.083   0.166   1.501
 2122TIP3    H1 6372   5.068   0.134   1.590
 2122TIP3    H2 6373   5.147   0.105   1.464
 2123TIP3   OH2 6374   4.105   3.337   4.801
 2123TIP3    H1 6375   4.135   3.427   4.811
 2123TIP3    H2 6376   4.062   3.335   4.716
 2124TIP3   OH2 6377   6.027   4.782   4.819
 2124TIP3    H1 6378   5.992   4.860   4.861
 2124TIP3    H2 6379   6.008   4.794   4.726
 2125TIP3   OH2 6380   2.671   3.292   0.218
 2125TIP3    H1 6381   2.607   3.258   0.281
 2125TIP3    H2 6382   2.634   3.375   0.189
 2126TIP3   OH2 6383   5.119   2.906   3.591
 2126TIP3    H1 6384   5.068   2.919   3.512
 2126TIP3    H2 6385   5.197   2.962   3.580
 2127TIP3   OH2 6386   1.767   1.461   1.966
 2127TIP3    H1 6387   1.783   1.520   1.892
 2127TIP3    H2 6388   1.798   1.509   2.043
 2128TIP3   OH2 6389   4.685   1.124   2.639
 2128TIP3    H1 6390   4.757   1.184   2.654
 2128TIP3    H2 6391   4.622   1.144   2.709
 2129TIP3   OH2 6392   5.476   3.857   0.849
 2129TIP3    H1 6393   5.436   3.785   0.898
 2129TIP3    H2 6394   5.563   3.826   0.827
 2130TIP3   OH2 6395   4.875   3.250   3.017
 2130TIP3    H1 6396   4.883   3.155   3.014
 2130TIP3    H2 6397   4.848   3.275   2.929
 2131TIP3   OH2 6398   2.895   5.337   0.627
 2131TIP3    H1 6399   2.808   5.299   0.634
 2131TIP3    H2 6400   2.885   5.407   0.562
 2132TIP3   OH2 6401   5.642   4.975   5.059
 2132TIP3    H1 6402   5.570   4.993   4.998
 2132TIP3    H2 6403   5.721   4.992   5.008
 2133TIP3   OH2 6404   2.127   3.770   0.259
 2133TIP3    H1 6405   2.056   3.712   0.288
 2133TIP3    H2 6406   2.088   3.820   0.187
 2134TIP3   OH2 6407   6.304   3.291   3.096
 2134TIP3    H1 6408   6.265   3.265   3.013
 2134TIP3    H2 6409   6.232   3.329   3.146
 2135TIP3   OH2 6410   1.075   1.928   5.109
 2135TIP3    H1 6411   1.089   1.843   5.067
 2135TIP3    H2 6412   1.076   1.909   5.202
 2136TIP3   OH2 6413   4.769   5.744   0.587
 2136TIP3    H1 6414   4.676   5.726   0.576
 2136TIP3    H2 6415   4.788   5.812   0.522
 2137TIP3   OH2 6416   2.743   5.359   4.189
 2137TIP3    H1 6417   2.733   5.374   4.095
 2137TIP3    H2 6418   2.741   5.446   4.228
 2138TIP3   OH2 6419   0.534   0.040   2.630
 2138TIP3    H1 6420   0.533  -0.000   2.717
 2138TIP3    H2 6421   0.446   0.027   2.596
 2139TIP3   OH2 6422   4.226   4.016   2.416
 2139TIP3    H1 6423   4.316   4.048   2.414
 2139TIP3    H2 6424   4.197   4.028   2.506
 2140TIP3   OH2 6425   1.130   2.163   0.319
 2140TIP3    H1 6426   1.176   2.162   0.235
 2140TIP3    H2 6427   1.086   2.078   0.324
 2141TIP3   OH2 6428   5.282   0.075   4.856
 2141TIP3    H1 6429   5.305  -0.016   4.839
 2141TIP3    H2 6430   5.299   0.120   4.773
 2142TIP3   OH2 6431   1.994   5.375   1.502
 2142TIP3    H1 6432   1.986   5.461   1.541
 2142TIP3    H2 6433   1.969   5.314   1.571
 2143TIP3   OH2 6434   5.227   5.456   1.072
 2143TIP3    H1 6435   5.263   5.504   0.997
 2143TIP3    H2 6436   5.158   5.513   1.105
 2144TIP3   OH2 6437   0.878   0.436   0.831
 2144TIP3    H1 6438   0.910   0.526   0.834
 2144TIP3    H2 6439   0.913   0.395   0.910
 2145TIP3   OH2 6440   3.313   4.451   3.150
 2145TIP3    H1 6441   3.285   4.527   3.100
 2145TIP3    H2 6442   3.382   4.484   3.208
 2146TIP3   OH2 6443   0.702   0.615   1.605
 2146TIP3    H1 6444   0.661   0.670   1.538
 2146TIP3    H2 6445   0.658   0.640   1.686
 2147TIP3   OH2 6446   4.804   2.049   3.354
 2147TIP3    H1 6447   4.882   2.002   3.384
 2147TIP3    H2 6448   4.784   2.010   3.269
 2148TIP3   OH2 6449   5.819   3.481   0.252
 2148TIP3    H1 6450   5.869   3.422   0.196
 2148TIP3    H2 6451   5.869   3.563   0.250
 2149TIP3   OH2 6452   0.671   0.446   0.125
 2149TIP3    H1 6453   0.620   0.434   0.205
 2149TIP3    H2 6454   0.726   0.522   0.143
 2150TIP3   OH2 6455   2.563   0.282   4.383
 2150TIP3    H1 6456   2.653   0.286   4.413
 2150TIP3    H2 6457   2.532   0.372   4.384
 2151TIP3   OH2 6458   4.652   2.384   0.167
 2151TIP3    H1 6459   4.679   2.464   0.122
 2151TIP3    H2 6460   4.626   2.325   0.096
 2152TIP3   OH2 6461   2.487   2.867   1.676
 2152TIP3    H1 6462   2.564   2.861   1.620
 2152TIP3    H2 6463   2.418   2.902   1.618
 2153TIP3   OH2 6464   2.180   2.403   1.327
 2153TIP3    H1 6465   2.120   2.379   1.256
 2153TIP3    H2 6466   2.139   2.368   1.406
 2154TIP3   OH2 6467   4.800   5.349   1.514
 2154TIP3    H1 6468   4.712   5.324   1.542
 2154TIP3    H2 6469   4.831   5.276   1.461
 2155TIP3   OH2 6470   2.704   3.284   4.539
 2155TIP3    H1 6471   2.671   3.238   4.616
 2155TIP3    H2 6472   2.725   3.372   4.570
 2156TIP3   OH2 6473   4.474   0.315   2.821
 2156TIP3    H1 6474   4.484   0.388   2.759
 2156TIP3    H2 6475   4.405   0.343   2.880
 2157TIP3   OH2 6476   5.527   1.584   3.828
 2157TIP3    H1 6477   5.575   1.525   3.887
 2157TIP3    H2 6478   5.436   1.577   3.857
 2158TIP3   OH2 6479   1.200   0.763   1.540
 2158TIP3    H1 6480   1.125   0.739   1.594
 2158TIP3    H2 6481   1.242   0.835   1.588
 2159TIP3   OH2 6482   3.857   1.256   0.134
 2159TIP3    H1 6483   3.911   1.182   0.161
 2159TIP3    H2 6484   3.795   1.218   0.072
 2160TIP3   OH2 6485   1.021   5.722   2.491
 2160TIP3    H1 6486   1.049   5.638   2.526
 2160TIP3    H2 6487   0.931   5.707   2.461
 2161TIP3   OH2 6488   6.205   1.081   1.981
 2161TIP3    H1 6489   6.174   1.147   1.919
 2161TIP3    H2 6490   6.251   1.131   2.048
 2162TIP3   OH2 6491   3.760   2.950   2.890
 2162TIP3    H1 6492   3.829   2.987   2.945
 2162TIP3    H2 6493   3.680   2.961   2.940
 2163TIP3   OH2 6494   4.022   1.645   4.124
 2163TIP3    H1 6495   4.065   1.650   4.039
 2163TIP3    H2 6496   4.016   1.551   4.142
 2164TIP3   OH2 6497   0.097   4.000   1.774
 2164TIP3    H1 6498   0.111   4.095   1.769
 2164TIP3    H2 6499   0.081   3.974   1.683
 2165TIP3   OH2 6500   2.738   1.107   3.944
 2165TIP3    H1 6501   2.715   1.044   4.012
 2165TIP3    H2 6502   2.761   1.052   3.868
 2166TIP3   OH2 6503   2.113   5.396   0.813
 2166TIP3    H1 6504   2.031   5.378   0.860
 2166TIP3    H2 6505   2.138   5.313   0.774
 2167TIP3   OH2 6506   0.484   5.566   5.137
 2167TIP3    H1 6507   0.568   5.523   5.122
 2167TIP3    H2 6508   0.507   5.658   5.154
 2168TIP3   OH2 6509   0.711   3.074   3.221
 2168TIP3    H1 6510   0.740   3.166   3.220
 2168TIP3    H2 6511   0.618   3.079   3.198
 2169TIP3   OH2 6512   3.688   5.006   1.592
 2169TIP3    H1 6513   3.637   5.082   1.563
 2169TIP3    H2 6514   3.764   5.043   1.636
 2170TIP3   OH2 6515   0.637   4.213   3.373
 2170TIP3    H1 6516   0.570   4.170   3.319
 2170TIP3    H2 6517   0.627   4.173   3.459
 2171TIP3   OH2 6518   4.389   5.144   3.547
 2171TIP3    H1 6519   4.309   5.160   3.598
 2171TIP3    H2 6520   4.383   5.207   3.475
 2172TIP3   OH2 6521   2.199   3.761   3.523
 2172TIP3    H1 6522   2.235   3.723   3.603
 2172TIP3    H2 6523   2.108   3.731   3.521
 2173TIP3   OH2 6524   3.035   0.563   2.601
 2173TIP3    H1 6525   2.958   0.519   2.565
 2173TIP3    H2 6526   3.001   0.619   2.670
 2174TIP3   OH2 6527   0.545   4.511   4.266
 2174TIP3    H1 6528   0.497   4.432   4.242
 2174TIP3    H2 6529   0.487   4.583   4.241
 2175TIP3   OH2 6530   0.639   2.779   2.126
 2175TIP3    H1 6531   0.690   2.735   2.194
 2175TIP3    H2 6532   0.685   2.760   2.044
 2176TIP3   OH2 6533   5.035   1.907   0.107
 2176TIP3    H1 6534   5.032   1.995   0.146
 2176TIP3    H2 6535   4.955   1.864   0.138
 2177TIP3   OH2 6536   2.606   4.416   1.425
 2177TIP3    H1 6537   2.530   4.360   1.438
 2177TIP3    H2 6538   2.584   4.469   1.349
 2178TIP3   OH2 6539   3.893   3.794   0.991
 2178TIP3    H1 6540   3.822   3.750   1.037
 2178TIP3    H2 6541   3.850   3.850   0.927
 2179TIP3   OH2 6542   5.799   4.173   5.132
 2179TIP3    H1 6543   5.785   4.202   5.042
 2179TIP3    H2 6544   5.712   4.173   5.171
 2180TIP3   OH2 6545   2.539   1.257   3.841
 2180TIP3    H1 6546   2.569   1.170   3.868
 2180TIP3    H2 6547   2.545   1.310   3.921
 2181TIP3   OH2 6548   2.801   3.545   1.505
 2181TIP3    H1 6549   2.726   3.522   1.560
 2181TIP3    H2 6550   2.787   3.499   1.423
 2182TIP3   OH2 6551   1.599   0.726   3.209
 2182TIP3    H1 6552   1.579   0.770   3.126
 2182TIP3    H2 6553   1.694   0.712   3.206
 2183TIP3   OH2 6554   1.986   1.556   1.777
 2183TIP3    H1 6555   1.987   1.617   1.703
 2183TIP3    H2 6556   1.952   1.475   1.740
 2184TIP3   OH2 6557   4.617   3.528   3.922
 2184TIP3    H1 6558   4.611   3.549   3.829
 2184TIP3    H2 6559   4.657   3.605   3.961
 2185TIP3   OH2 6560   3.866   1.885   3.599
 2185TIP3    H1 6561   3.893   1.918   3.684
 2185TIP3    H2 6562   3.909   1.942   3.536
 2186TIP3   OH2 6563   0.045   4.009   3.230
 2186TIP3    H1 6564   0.046   3.925   3.276
 2186TIP3    H2 6565   0.009   4.071   3.294
 2187TIP3   OH2 6566   4.539   3.062   4.305
 2187TIP3    H1 6567   4.449   3.074   4.274
 2187TIP3    H2 6568   4.552   3.132   4.369
 2188TIP3   OH2 6569   0.591   3.186   4.107
 2188TIP3    H1 6570   0.547   3.269   4.090
 2188TIP3    H2 6571   0.591   3.177   4.203
 2189TIP3   OH2 6572   4.409   4.470   0.903
 2189TIP3    H1 6573   4.452   4.479   0.817
 2189TIP3    H2 6574   4.461   4.525   0.961
 2190TIP3   OH2 6575   2.774   2.622   1.618
 2190TIP3    H1 6576   2.805   2.606   1.707
 2190TIP3    H2 6577   2.699   2.563   1.608
 2191TIP3   OH2 6578   2.903   2.424   0.578
 2191TIP3    H1 6579   2.915   2.493   0.513
 2191TIP3    H2 6580   2.882   2.471   0.659
 2192TIP3   OH2 6581   4.300   5.172   4.668
 2192TIP3    H1 6582   4.217   5.132   4.695
 2192TIP3    H2 6583   4.366   5.109   4.696
 2193TIP3   OH2 6584   4.281   0.635   3.826
 2193TIP3    H1 6585   4.352   0.655   3.888
 2193TIP3    H2 6586   4.318   0.653   3.740
 2194TIP3   OH2 6587   2.937   0.258   1.288
 2194TIP3    H1 6588   3.024   0.223   1.309
 2194TIP3    H2 6589   2.933   0.341   1.334
 2195TIP3   OH2 6590   0.004   4.064   0.622
 2195TIP3    H1 6591  -0.018   3.971   0.622
 2195TIP3    H2 6592   0.013   4.086   0.714
 2196TIP3   OH2 6593   3.639   2.270   2.502
 2196TIP3    H1 6594   3.566   2.313   2.458
 2196TIP3    H2 6595   3.608   2.254   2.591
 2197TIP3   OH2 6596   1.346   2.665   4.022
 2197TIP3    H1 6597   1.346   2.688   4.115
 2197TIP3    H2 6598   1.386   2.578   4.018
 2198TIP3   OH2 6599   1.567   4.538   2.296
 2198TIP3    H1 6600   1.501   4.482   2.335
 2198TIP3    H2 6601   1.527   4.625   2.295
 2199TIP3   OH2 6602   4.595   5.340   1.253
 2199TIP3    H1 6603   4.629   5.339   1.164
 2199TIP3    H2 6604   4.567   5.249   1.269
 2200TIP3   OH2 6605   2.573   5.166   2.364
 2200TIP3    H1 6606   2.530   5.093   2.319
 2200TIP3    H2 6607   2.637   5.124   2.421
 2201TIP3   OH2 6608   1.591   2.372   4.797
 2201TIP3    H1 6609   1.596   2.348   4.704
 2201TIP3    H2 6610   1.510   2.422   4.804
 2202TIP3   OH2 6611   2.261   3.734   3.091
 2202TIP3    H1 6612   2.184   3.702   3.138
 2202TIP3    H2 6613   2.328   3.746   3.158
 2203TIP3   OH2 6614   5.800   5.537   0.326
 2203TIP3    H1 6615   5.872   5.495   0.277
 2203TIP3    H2 6616   5.844   5.583   0.397
 2204TIP3   OH2 6617   4.069   0.801   0.088
 2204TIP3    H1 6618   4.132   0.825   0.020
 2204TIP3    H2 6619   3.985   0.831   0.056
 2205TIP3   OH2 6620   1.555   0.737   1.076
 2205TIP3    H1 6621   1.496   0.662   1.066
 2205TIP3    H2 6622   1.537   0.792   1.001
 2206TIP3   OH2 6623   4.770   0.107   4.277
 2206TIP3    H1 6624   4.826   0.051   4.331
 2206TIP3    H2 6625   4.681   0.079   4.297
 2207TIP3   OH2 6626   3.550   2.062   3.439
 2207TIP3    H1 6627   3.619   2.127   3.426
 2207TIP3    H2 6628   3.579   2.010   3.514
 2208TIP3   OH2 6629   3.418   3.061   1.000
 2208TIP3    H1 6630   3.486   2.996   1.015
 2208TIP3    H2 6631   3.398   3.096   1.087
 2209TIP3   OH2 6632   3.492   5.730   3.507
 2209TIP3    H1 6633   3.437   5.755   3.582
 2209TIP3    H2 6634   3.549   5.661   3.541
 2210TIP3   OH2 6635   4.442   1.812   4.229
 2210TIP3    H1 6636   4.452   1.718   4.243
 2210TIP3    H2 6637   4.531   1.847   4.234
 2211TIP3   OH2 6638   0.463   2.391   4.194
 2211TIP3    H1 6639   0.389   2.436   4.153
 2211TIP3    H2 6640   0.498   2.456   4.256
 2212TIP3   OH2 6641   1.824   5.357   3.307
 2212TIP3    H1 6642   1.889   5.309   3.359
 2212TIP3    H2 6643   1.752   5.374   3.369
 2213TIP3   OH2 6644   4.702   2.147   0.711
 2213TIP3    H1 6645   4.726   2.212   0.777
 2213TIP3    H2 6646   4.607   2.156   0.704
 2214TIP3   OH2 6647   6.085   1.104   2.576
 2214TIP3    H1 6648   6.026   1.106   2.651
 2214TIP3    H2 6649   6.036   1.145   2.505
 2215TIP3   OH2 6650   3.881   2.088   0.018
 2215TIP3    H1 6651   3.940   2.144   0.068
 2215TIP3    H2 6652   3.793   2.109   0.050
 2216TIP3   OH2 6653   3.048   2.973   0.205
 2216TIP3    H1 6654   3.109   2.900   0.193
 2216TIP3    H2 6655   3.040   2.984   0.299
 2217TIP3   OH2 6656   6.197   0.709   0.731
 2217TIP3    H1 6657   6.234   0.681   0.815
 2217TIP3    H2 6658   6.105   0.680   0.734
 2218TIP3   OH2 6659   2.415   5.453   3.641
 2218TIP3    H1 6660   2.331   5.446   3.595
 2218TIP3    H2 6661   2.393   5.448   3.734
 2219TIP3   OH2 6662   2.544   5.439   4.754
 2219TIP3    H1 6663   2.462   5.415   4.798
 2219TIP3    H2 6664   2.540   5.396   4.669
 2220TIP3   OH2 6665   5.615   5.412   4.377
 2220TIP3    H1 6666   5.704   5.447   4.372
 2220TIP3    H2 6667   5.613   5.344   4.309
 2221TIP3   OH2 6668   3.152   0.512   1.147
 2221TIP3    H1 6669   3.183   0.600   1.170
 2221TIP3    H2 6670   3.058   0.521   1.136
 2222TIP3   OH2 6671   1.850   0.363   0.640
 2222TIP3    H1 6672   1.822   0.321   0.559
 2222TIP3    H2 6673   1.911   0.301   0.681
 2223TIP3   OH2 6674   2.242   2.756   3.087
 2223TIP3    H1 6675   2.310   2.725   3.147
 2223TIP3    H2 6676   2.248   2.851   3.090
 2224TIP3   OH2 6677   5.973   5.545   1.805
 2224TIP3    H1 6678   5.977   5.472   1.742
 2224TIP3    H2 6679   5.893   5.591   1.781
 2225TIP3   OH2 6680   1.371   2.576   1.901
 2225TIP3    H1 6681   1.332   2.511   1.958
 2225TIP3    H2 6682   1.307   2.647   1.898
 2226TIP3   OH2 6683   6.039   3.936   5.075
 2226TIP3    H1 6684   6.066   3.884   5.000
 2226TIP3    H2 6685   6.061   4.026   5.052
 2227TIP3   OH2 6686   4.954   5.553   2.327
 2227TIP3    H1 6687   5.016   5.581   2.394
 2227TIP3    H2 6688   4.870   5.546   2.373
 2228TIP3   OH2 6689   2.362   0.262   2.554
 2228TIP3    H1 6690   2.353   0.185   2.611
 2228TIP3    H2 6691   2.273   0.284   2.527
 2229TIP3   OH2 6692   5.404   1.951   1.966
 2229TIP3    H1 6693   5.333   1.994   1.917
 2229TIP3    H2 6694   5.419   1.869   1.919
 2230TIP3   OH2 6695   3.885   1.723   4.455
 2230TIP3    H1 6696   3.970   1.746   4.417
 2230TIP3    H2 6697   3.887   1.762   4.542
 2231TIP3   OH2 6698   2.196   4.745   0.622
 2231TIP3    H1 6699   2.213   4.659   0.585
 2231TIP3    H2 6700   2.282   4.788   0.623
 2232TIP3   OH2 6701   3.487   1.221   1.318
 2232TIP3    H1 6702   3.440   1.210   1.400
 2232TIP3    H2 6703   3.420   1.248   1.255
 2233TIP3   OH2 6704   2.023   5.520   4.605
 2233TIP3    H1 6705   1.985   5.434   4.622
 2233TIP3    H2 6706   2.083   5.506   4.532
 2234TIP3   OH2 6707   1.490   5.642   2.416
 2234TIP3    H1 6708   1.471   5.727   2.375
 2234TIP3    H2 6709   1.416   5.587   2.392
 2235TIP3   OH2 6710   4.666   3.817   5.012
 2235TIP3    H1 6711   4.698   3.868   5.086
 2235TIP3    H2 6712   4.628   3.739   5.051
 2236TIP3   OH2 6713   3.716   0.776   1.829
 2236TIP3    H1 6714   3.731   0.716   1.901
 2236TIP3    H2 6715   3.699   0.861   1.871
 2237TIP3   OH2 6716   2.991   0.178   2.974
 2237TIP3    H1 6717   2.966   0.087   2.988
 2237TIP3    H2 6718   2.935   0.227   3.034
 2238TIP3   OH2 6719   4.582   2.798   4.631
 2238TIP3    H1 6720   4.647   2.732   4.654
 2238TIP3    H2 6721   4.508   2.747   4.596
 2239TIP3   OH2 6722   0.187   3.668   4.002
 2239TIP3    H1 6723   0.224   3.584   4.029
 2239TIP3    H2 6724   0.263   3.728   4.000
 2240TIP3   OH2 6725   0.162   3.064   4.678
 2240TIP3    H1 6726   0.070   3.043   4.660
 2240TIP3    H2 6727   0.170   3.059   4.773
 2241TIP3   OH2 6728   5.126   3.420   3.738
 2241TIP3    H1 6729   5.122   3.406   3.643
 2241TIP3    H2 6730   5.066   3.354   3.774
 2242TIP3   OH2 6731   6.015   2.252   3.444
 2242TIP3    H1 6732   5.967   2.189   3.498
 2242TIP3    H2 6733   6.001   2.336   3.487
 2243TIP3   OH2 6734   0.719   1.664   4.172
 2243TIP3    H1 6735   0.784   1.676   4.102
 2243TIP3    H2 6736   0.658   1.736   4.159
 2244TIP3   OH2 6737   1.740   3.541   1.249
 2244TIP3    H1 6738   1.720   3.565   1.340
 2244TIP3    H2 6739   1.751   3.446   1.253
 2245TIP3   OH2 6740   1.391   3.259   0.030
 2245TIP3    H1 6741   1.340   3.264  -0.051
 2245TIP3    H2 6742   1.325   3.258   0.099
 2246TIP3   OH2 6743   3.345   2.974   2.401
 2246TIP3    H1 6744   3.294   3.020   2.335
 2246TIP3    H2 6745   3.283   2.913   2.441
 2247TIP3   OH2 6746   2.049   0.843   3.519
 2247TIP3    H1 6747   2.077   0.934   3.523
 2247TIP3    H2 6748   1.965   0.846   3.474
 2248TIP3   OH2 6749   0.030   4.627   1.143
 2248TIP3    H1 6750   0.040   4.641   1.049
 2248TIP3    H2 6751   0.117   4.601   1.174
 2249TIP3   OH2 6752   2.195   0.269   0.803
 2249TIP3    H1 6753   2.193   0.295   0.711
 2249TIP3    H2 6754   2.124   0.319   0.843
 2250TIP3   OH2 6755   1.261   2.969   0.854
 2250TIP3    H1 6756   1.291   3.060   0.858
 2250TIP3    H2 6757   1.181   2.967   0.906
 2251TIP3   OH2 6758   2.935   2.958   3.642
 2251TIP3    H1 6759   2.915   2.905   3.719
 2251TIP3    H2 6760   2.993   3.027   3.674
 2252TIP3   OH2 6761   1.328   4.873   4.547
 2252TIP3    H1 6762   1.291   4.877   4.635
 2252TIP3    H2 6763   1.257   4.840   4.493
 2253TIP3   OH2 6764   2.620   1.639   1.117
 2253TIP3    H1 6765   2.676   1.617   1.192
 2253TIP3    H2 6766   2.607   1.734   1.123
 2254TIP3   OH2 6767   3.523   5.842   1.513
 2254TIP3    H1 6768   3.610   5.804   1.494
 2254TIP3    H2 6769   3.486   5.859   1.426
 2255TIP3   OH2 6770   4.437   2.127   4.994
 2255TIP3    H1 6771   4.488   2.047   5.001
 2255TIP3    H2 6772   4.463   2.165   4.910
 2256TIP3   OH2 6773   5.144   1.968   4.450
 2256TIP3    H1 6774   5.220   1.974   4.392
 2256TIP3    H2 6775   5.182   1.939   4.534
 2257TIP3   OH2 6776   3.728   0.869   3.473
 2257TIP3    H1 6777   3.671   0.872   3.550
 2257TIP3    H2 6778   3.720   0.956   3.435
 2258TIP3   OH2 6779   4.447   5.490   5.119
 2258TIP3    H1 6780   4.441   5.480   5.024
 2258TIP3    H2 6781   4.407   5.576   5.136
 2259TIP3   OH2 6782   1.845   4.172   3.810
 2259TIP3    H1 6783   1.929   4.142   3.776
 2259TIP3    H2 6784   1.813   4.099   3.864
 2260TIP3   OH2 6785   0.980   2.990   3.729
 2260TIP3    H1 6786   1.065   2.967   3.765
 2260TIP3    H2 6787   0.996   3.067   3.676
 2261TIP3   OH2 6788   5.532   3.222   5.112
 2261TIP3    H1 6789   5.535   3.127   5.121
 2261TIP3    H2 6790   5.484   3.238   5.031
 2262TIP3   OH2 6791   0.924   0.397   2.306
 2262TIP3    H1 6792   0.928   0.339   2.230
 2262TIP3    H2 6793   0.830   0.411   2.320
 2263TIP3   OH2 6794   4.375   2.840   2.313
 2263TIP3    H1 6795   4.410   2.760   2.274
 2263TIP3    H2 6796   4.360   2.898   2.239
 2264TIP3   OH2 6797   0.963   5.908   2.122
 2264TIP3    H1 6798   0.959   5.867   2.036
 2264TIP3    H2 6799   0.877   5.950   2.132
 2265TIP3   OH2 6800   0.910   2.271   4.326
 2265TIP3    H1 6801   0.871   2.278   4.238
 2265TIP3    H2 6802   0.931   2.178   4.336
 2266TIP3   OH2 6803   5.905   0.009   0.917
 2266TIP3    H1 6804   5.866  -0.058   0.973
 2266TIP3    H2 6805   5.847   0.084   0.925
 2267TIP3   OH2 6806   0.779   3.934   5.131
 2267TIP3    H1 6807   0.696   3.976   5.108
 2267TIP3    H2 6808   0.844   4.003   5.124
 2268TIP3   OH2 6809   5.999   1.004   1.742
 2268TIP3    H1 6810   5.987   1.046   1.657
 2268TIP3    H2 6811   5.966   1.068   1.805
 2269TIP3   OH2 6812   1.663   0.785   0.360
 2269TIP3    H1 6813   1.680   0.780   0.266
 2269TIP3    H2 6814   1.680   0.696   0.392
 2270TIP3   OH2 6815   0.918   2.719   3.691
 2270TIP3    H1 6816   0.923   2.680   3.778
 2270TIP3    H2 6817   0.961   2.804   3.700
 2271TIP3   OH2 6818   5.089   1.339   4.613
 2271TIP3    H1 6819   5.006   1.385   4.602
 2271TIP3    H2 6820   5.077   1.285   4.692
 2272TIP3   OH2 6821   5.070   1.365   2.665
 2272TIP3    H1 6822   5.015   1.383   2.588
 2272TIP3    H2 6823   5.139   1.307   2.633
 2273TIP3   OH2 6824   5.771   2.027   2.488
 2273TIP3    H1 6825   5.858   2.011   2.523
 2273TIP3    H2 6826   5.777   2.006   2.395
 2274TIP3   OH2 6827   1.300   0.304   0.556
 2274TIP3    H1 6828   1.208   0.311   0.581
 2274TIP3    H2 6829   1.348   0.337   0.632
 2275TIP3   OH2 6830   3.668   5.741   5.026
 2275TIP3    H1 6831   3.662   5.730   4.931
 2275TIP3    H2 6832   3.578   5.728   5.057
 2276TIP3   OH2 6833   3.341   2.261   3.357
 2276TIP3    H1 6834   3.398   2.338   3.366
 2276TIP3    H2 6835   3.399   2.192   3.324
 2277TIP3   OH2 6836   6.285   2.380   2.216
 2277TIP3    H1 6837   6.248   2.404   2.300
 2277TIP3    H2 6838   6.361   2.326   2.237
 2278TIP3   OH2 6839   2.344   3.523   2.927
 2278TIP3    H1 6840   2.251   3.500   2.924
 2278TIP3    H2 6841   2.347   3.605   2.977
 2279TIP3   OH2 6842   1.861   0.552   0.188
 2279TIP3    H1 6843   1.842   0.631   0.136
 2279TIP3    H2 6844   1.862   0.481   0.123
 2280TIP3   OH2 6845   5.277   1.592   3.253
 2280TIP3    H1 6846   5.190   1.629   3.269
 2280TIP3    H2 6847   5.332   1.625   3.324
 2281TIP3   OH2 6848   5.850   2.647   0.554
 2281TIP3    H1 6849   5.823   2.739   0.550
 2281TIP3    H2 6850   5.929   2.643   0.500
 2282TIP3   OH2 6851   2.512   0.756   0.632
 2282TIP3    H1 6852   2.504   0.792   0.721
 2282TIP3    H2 6853   2.561   0.822   0.584
 2283TIP3   OH2 6854   6.179   3.758   2.800
 2283TIP3    H1 6855   6.139   3.843   2.820
 2283TIP3    H2 6856   6.159   3.744   2.707
 2284TIP3   OH2 6857   0.726   3.361   3.432
 2284TIP3    H1 6858   0.791   3.319   3.376
 2284TIP3    H2 6859   0.760   3.449   3.446
 2285TIP3   OH2 6860   1.490   4.999   3.768
 2285TIP3    H1 6861   1.575   5.006   3.813
 2285TIP3    H2 6862   1.434   5.060   3.815
 2286TIP3   OH2 6863   2.875   4.872   4.173
 2286TIP3    H1 6864   2.961   4.841   4.147
 2286TIP3    H2 6865   2.892   4.936   4.242
 2287TIP3   OH2 6866   5.432   0.178   2.865
 2287TIP3    H1 6867   5.411   0.165   2.957
 2287TIP3    H2 6868   5.470   0.095   2.837
 2288TIP3   OH2 6869   6.012   1.485   4.543
 2288TIP3    H1 6870   6.008   1.404   4.493
 2288TIP3    H2 6871   5.925   1.494   4.583
 2289TIP3   OH2 6872   1.727   5.040   1.005
 2289TIP3    H1 6873   1.655   5.063   1.064
 2289TIP3    H2 6874   1.701   4.956   0.967
 2290TIP3   OH2 6875   4.412   5.186   4.407
 2290TIP3    H1 6876   4.404   5.208   4.499
 2290TIP3    H2 6877   4.505   5.167   4.394
 2291TIP3   OH2 6878   2.137   1.892   2.496
 2291TIP3    H1 6879   2.076   1.836   2.545
 2291TIP3    H2 6880   2.092   1.910   2.414
 2292TIP3   OH2 6881   2.162   0.382   0.568
 2292TIP3    H1 6882   2.115   0.462   0.544
 2292TIP3    H2 6883   2.229   0.372   0.499
 2293TIP3   OH2 6884   2.477   2.082   0.207
 2293TIP3    H1 6885   2.490   2.103   0.299
 2293TIP3    H2 6886   2.416   2.149   0.175
 2294TIP3   OH2 6887   0.793   4.288   4.407
 2294TIP3    H1 6888   0.832   4.374   4.424
 2294TIP3    H2 6889   0.727   4.278   4.476
 2295TIP3   OH2 6890   0.675   2.990   4.823
 2295TIP3    H1 6891   0.738   3.051   4.861
 2295TIP3    H2 6892   0.590   3.019   4.857
 2296TIP3   OH2 6893   6.284   1.445   4.730
 2296TIP3    H1 6894   6.301   1.515   4.667
 2296TIP3    H2 6895   6.190   1.449   4.746
 2297TIP3   OH2 6896   1.312   3.425   2.603
 2297TIP3    H1 6897   1.313   3.385   2.689
 2297TIP3    H2 6898   1.257   3.368   2.550
 2298TIP3   OH2 6899   4.207   4.751   0.814
 2298TIP3    H1 6900   4.231   4.802   0.891
 2298TIP3    H2 6901   4.241   4.801   0.740
 2299TIP3   OH2 6902   4.012   3.130   3.529
 2299TIP3    H1 6903   4.108   3.131   3.526
 2299TIP3    H2 6904   3.991   3.066   3.597
 2300TIP3   OH2 6905   4.978   5.219   2.650
 2300TIP3    H1 6906   5.046   5.209   2.583
 2300TIP3    H2 6907   4.911   5.155   2.626
 2301TIP3   OH2 6908   6.161   1.829   0.808
 2301TIP3    H1 6909   6.191   1.758   0.752
 2301TIP3    H2 6910   6.210   1.818   0.889
 2302TIP3   OH2 6911   2.941   1.355   3.481
 2302TIP3    H1 6912   2.892   1.274   3.499
 2302TIP3    H2 6913   2.876   1.425   3.490
 2303TIP3   OH2 6914   5.855   1.319   1.719
 2303TIP3    H1 6915   5.880   1.275   1.638
 2303TIP3    H2 6916   5.891   1.407   1.711
 2304TIP3   OH2 6917   3.011   4.055   5.109
 2304TIP3    H1 6918   2.972   3.990   5.050
 2304TIP3    H2 6919   3.105   4.036   5.107
 2305TIP3   OH2 6920   5.898   4.997   4.945
 2305TIP3    H1 6921   5.897   5.087   4.914
 2305TIP3    H2 6922   5.928   5.003   5.036
 2306TIP3   OH2 6923   5.577   2.468   4.669
 2306TIP3    H1 6924   5.596   2.427   4.584
 2306TIP3    H2 6925   5.481   2.470   4.673
 2307TIP3   OH2 6926   6.257   0.450   3.339
 2307TIP3    H1 6927   6.228   0.541   3.350
 2307TIP3    H2 6928   6.336   0.444   3.393
 2308TIP3   OH2 6929   3.071   4.954   2.936
 2308TIP3    H1 6930   3.002   4.898   2.971
 2308TIP3    H2 6931   3.026   5.034   2.910
 2309TIP3   OH2 6932   0.884   1.665   4.817
 2309TIP3    H1 6933   0.852   1.576   4.835
 2309TIP3    H2 6934   0.804   1.717   4.808
 2310TIP3   OH2 6935   3.189   1.022   2.725
 2310TIP3    H1 6936   3.107   0.972   2.726
 2310TIP3    H2 6937   3.205   1.043   2.817
 2311TIP3   OH2 6938   3.842   3.821   0.541
 2311TIP3    H1 6939   3.892   3.748   0.505
 2311TIP3    H2 6940   3.873   3.829   0.631
 2312TIP3   OH2 6941   3.492   5.778   3.236
 2312TIP3    H1 6942   3.491   5.776   3.331
 2312TIP3    H2 6943   3.416   5.830   3.212
 2313TIP3   OH2 6944   0.559   1.455   3.752
 2313TIP3    H1 6945   0.575   1.404   3.672
 2313TIP3    H2 6946   0.610   1.535   3.740
 2314TIP3   OH2 6947   2.259   5.560   4.031
 2314TIP3    H1 6948   2.325   5.490   4.033
 2314TIP3    H2 6949   2.285   5.619   4.102
 2315TIP3   OH2 6950   2.711   0.419   1.436
 2315TIP3    H1 6951   2.803   0.440   1.421
 2315TIP3    H2 6952   2.665   0.455   1.360
 2316TIP3   OH2 6953   5.951   1.041   0.554
 2316TIP3    H1 6954   6.023   0.979   0.543
 2316TIP3    H2 6955   5.974   1.092   0.632
 2317TIP3   OH2 6956   0.080   0.265   1.736
 2317TIP3    H1 6957   0.171   0.244   1.717
 2317TIP3    H2 6958   0.047   0.302   1.654
 2318TIP3   OH2 6959   4.578   3.892   2.375
 2318TIP3    H1 6960   4.532   3.960   2.424
 2318TIP3    H2 6961   4.647   3.938   2.328
 2319TIP3   OH2 6962   2.772   3.863   3.658
 2319TIP3    H1 6963   2.689   3.882   3.615
 2319TIP3    H2 6964   2.761   3.775   3.694
 2320TIP3   OH2 6965   6.265   3.232   3.376
 2320TIP3    H1 6966   6.207   3.304   3.353
 2320TIP3    H2 6967   6.214   3.177   3.434
 2321TIP3   OH2 6968   1.049   5.071   2.526
 2321TIP3    H1 6969   1.140   5.080   2.499
 2321TIP3    H2 6970   0.999   5.081   2.444
 2322TIP3   OH2 6971   2.362   1.798   4.099
 2322TIP3    H1 6972   2.393   1.708   4.104
 2322TIP3    H2 6973   2.284   1.800   4.153
 2323TIP3   OH2 6974   4.404   4.425   0.365
 2323TIP3    H1 6975   4.344   4.448   0.294
 2323TIP3    H2 6976   4.349   4.384   0.431
 2324TIP3   OH2 6977   5.226   2.191   1.428
 2324TIP3    H1 6978   5.253   2.274   1.466
 2324TIP3    H2 6979   5.179   2.216   1.348
 2325TIP3   OH2 6980   1.750   3.878   2.282
 2325TIP3    H1 6981   1.746   3.959   2.332
 2325TIP3    H2 6982   1.717   3.811   2.343
 2326TIP3   OH2 6983   2.321   5.794   1.467
 2326TIP3    H1 6984   2.352   5.846   1.394
 2326TIP3    H2 6985   2.234   5.763   1.440
 2327TIP3   OH2 6986   2.696   3.545   4.705
 2327TIP3    H1 6987   2.750   3.529   4.782
 2327TIP3    H2 6988   2.626   3.602   4.737
 2328TIP3   OH2 6989   0.900   0.741   4.710
 2328TIP3    H1 6990   0.845   0.712   4.638
 2328TIP3    H2 6991   0.905   0.836   4.700
 2329TIP3   OH2 6992   6.290   3.102   5.174
 2329TIP3    H1 6993   6.385   3.091   5.179
 2329TIP3    H2 6994   6.258   3.020   5.137
 2330TIP3   OH2 6995   2.117   1.225   2.004
 2330TIP3    H1 6996   2.143   1.317   2.006
 2330TIP3    H2 6997   2.095   1.204   2.095
 2331TIP3   OH2 6998   2.525   1.641   1.849
 2331TIP3    H1 6999   2.503   1.732   1.872
 2331TIP3    H2 7000   2.452   1.612   1.794
 2332TIP3   OH2 7001   0.238   1.586   1.050
 2332TIP3    H1 7002   0.150   1.557   1.025
 2332TIP3    H2 7003   0.285   1.505   1.070
 2333TIP3   OH2 7004   1.272   3.203   2.424
 2333TIP3    H1 7005   1.343   3.255   2.386
 2333TIP3    H2 7006   1.294   3.112   2.402
 2334TIP3   OH2 7007   2.745   4.932   0.964
 2334TIP3    H1 7008   2.813   4.989   1.000
 2334TIP3    H2 7009   2.786   4.894   0.886
 2335TIP3   OH2 7010   4.149   1.377   1.997
 2335TIP3    H1 7011   4.092   1.389   1.921
 2335TIP3    H2 7012   4.234   1.353   1.960
 2336TIP3   OH2 7013   1.152   4.133   2.010
 2336TIP3    H1 7014   1.084   4.127   2.077
 2336TIP3    H2 7015   1.192   4.219   2.025
 2337TIP3   OH2 7016   0.562   3.630   3.739
 2337TIP3    H1 7017   0.536   3.538   3.745
 2337TIP3    H2 7018   0.642   3.628   3.686
 2338TIP3   OH2 7019   5.626   2.005   0.901
 2338TIP3    H1 7020   5.610   2.096   0.927
 2338TIP3    H2 7021   5.569   1.992   0.825
 2339TIP3   OH2 7022   1.488   3.434   1.724
 2339TIP3    H1 7023   1.530   3.387   1.796
 2339TIP3    H2 7024   1.457   3.515   1.763
 2340TIP3   OH2 7025   3.018   2.168   0.654
 2340TIP3    H1 7026   2.957   2.222   0.704
 2340TIP3    H2 7027   3.008   2.199   0.564
 2341TIP3   OH2 7028   3.986   4.125   4.423
 2341TIP3    H1 7029   4.021   4.099   4.508
 2341TIP3    H2 7030   4.025   4.062   4.362
 2342TIP3   OH2 7031   5.796   4.785   3.998
 2342TIP3    H1 7032   5.864   4.852   3.995
 2342TIP3    H2 7033   5.759   4.785   3.910
 2343TIP3   OH2 7034   1.251   3.880   3.786
 2343TIP3    H1 7035   1.266   3.789   3.759
 2343TIP3    H2 7036   1.330   3.926   3.758
 2344TIP3   OH2 7037   5.574   5.496   4.635
 2344TIP3    H1 7038   5.642   5.562   4.647
 2344TIP3    H2 7039   5.589   5.460   4.548
 2345TIP3   OH2 7040   0.480   2.844   4.268
 2345TIP3    H1 7041   0.445   2.929   4.298
 2345TIP3    H2 7042   0.407   2.784   4.276
 2346TIP3   OH2 7043   5.392   0.217   4.345
 2346TIP3    H1 7044   5.462   0.276   4.374
 2346TIP3    H2 7045   5.426   0.179   4.264
 2347TIP3   OH2 7046   0.483   4.256   0.942
 2347TIP3    H1 7047   0.531   4.330   0.905
 2347TIP3    H2 7048   0.427   4.226   0.870
 2348TIP3   OH2 7049   6.113   5.646   1.257
 2348TIP3    H1 7050   6.147   5.726   1.216
 2348TIP3    H2 7051   6.056   5.607   1.190
 2349TIP3   OH2 7052   1.978   5.615   1.670
 2349TIP3    H1 7053   1.893   5.658   1.661
 2349TIP3    H2 7054   2.041   5.680   1.637
 2350TIP3   OH2 7055   4.715   2.330   0.450
 2350TIP3    H1 7056   4.701   2.289   0.365
 2350TIP3    H2 7057   4.717   2.258   0.512
 2351TIP3   OH2 7058   3.451   0.731   1.340
 2351TIP3    H1 7059   3.522   0.692   1.390
 2351TIP3    H2 7060   3.488   0.812   1.303
 2352TIP3   OH2 7061   0.901   3.283   3.219
 2352TIP3    H1 7062   0.924   3.335   3.142
 2352TIP3    H2 7063   0.976   3.226   3.233
 2353TIP3   OH2 7064   1.066   2.403   0.424
 2353TIP3    H1 7065   1.055   2.388   0.518
 2353TIP3    H2 7066   1.100   2.320   0.391
 2354TIP3   OH2 7067   4.187   0.301   0.506
 2354TIP3    H1 7068   4.138   0.218   0.505
 2354TIP3    H2 7069   4.186   0.330   0.415
 2355TIP3   OH2 7070   2.360   5.405   2.734
 2355TIP3    H1 7071   2.393   5.322   2.698
 2355TIP3    H2 7072   2.364   5.466   2.660
 2356TIP3   OH2 7073   1.150   5.897   4.581
 2356TIP3    H1 7074   1.171   5.937   4.665
 2356TIP3    H2 7075   1.056   5.911   4.570
 2357TIP3   OH2 7076   1.033   4.083   2.614
 2357TIP3    H1 7077   1.096   4.107   2.682
 2357TIP3    H2 7078   1.022   4.163   2.563
 2358TIP3   OH2 7079   5.772   0.909   2.315
 2358TIP3    H1 7080   5.726   0.966   2.377
 2358TIP3    H2 7081   5.712   0.899   2.242
 2359TIP3   OH2 7082   1.309   3.300   0.649
 2359TIP3    H1 7083   1.232   3.262   0.608
 2359TIP3    H2 7084   1.283   3.389   0.670
 2360TIP3   OH2 7085   3.619   1.444   0.170
 2360TIP3    H1 7086   3.682   1.371   0.167
 2360TIP3    H2 7087   3.556   1.423   0.101
 2361TIP3   OH2 7088   5.747   1.347   5.065
 2361TIP3    H1 7089   5.824   1.367   5.118
 2361TIP3    H2 7090   5.779   1.287   4.998
 2362TIP3   OH2 7091   0.425   0.074   2.229
 2362TIP3    H1 7092   0.457   0.152   2.184
 2362TIP3    H2 7093   0.450   0.002   2.172
 2363TIP3   OH2 7094   3.444   1.584   1.081
 2363TIP3    H1 7095   3.416   1.675   1.082
 2363TIP3    H2 7096   3.493   1.575   0.999
 2364TIP3   OH2 7097   4.905   2.845   2.548
 2364TIP3    H1 7098   4.980   2.835   2.606
 2364TIP3    H2 7099   4.940   2.895   2.473
 2365TIP3   OH2 7100   3.045   0.896   3.597
 2365TIP3    H1 7101   2.983   0.885   3.668
 2365TIP3    H2 7102   3.076   0.986   3.604
 2366TIP3   OH2 7103   4.049   1.183   2.744
 2366TIP3    H1 7104   4.100   1.252   2.787
 2366TIP3    H2 7105   4.114   1.115   2.725
 2367TIP3   OH2 7106   2.749   3.940   3.147
 2367TIP3    H1 7107   2.700   3.991   3.212
 2367TIP3    H2 7108   2.788   4.005   3.089
 2368TIP3   OH2 7109   3.365   3.413   1.489
 2368TIP3    H1 7110   3.349   3.320   1.506
 2368TIP3    H2 7111   3.353   3.455   1.574
 2369TIP3   OH2 7112   4.069   4.005   1.051
 2369TIP3    H1 7113   4.044   4.048   0.969
 2369TIP3    H2 7114   4.015   3.926   1.055
 2370TIP3   OH2 7115   2.136   5.966   2.871
 2370TIP3    H1 7116   2.108   5.886   2.916
 2370TIP3    H2 7117   2.065   6.029   2.889
 2371TIP3   OH2 7118   4.430   2.609   2.574
 2371TIP3    H1 7119   4.448   2.651   2.490
 2371TIP3    H2 7120   4.367   2.540   2.554
 2372TIP3   OH2 7121   6.166   3.396   4.797
 2372TIP3    H1 7122   6.242   3.355   4.756
 2372TIP3    H2 7123   6.174   3.377   4.890
 2373TIP3   OH2 7124   1.619   1.954   4.325
 2373TIP3    H1 7125   1.570   1.872   4.331
 2373TIP3    H2 7126   1.666   1.959   4.408
 2374TIP3   OH2 7127   4.979   5.798   3.924
 2374TIP3    H1 7128   4.954   5.790   4.016
 2374TIP3    H2 7129   5.033   5.876   3.920
 2375TIP3   OH2 7130   2.515   2.773   2.963
 2375TIP3    H1 7131   2.476   2.698   3.008
 2375TIP3    H2 7132   2.514   2.749   2.871
 2376TIP3   OH2 7133   4.667   1.449   2.520
 2376TIP3    H1 7134   4.689   1.509   2.591
 2376TIP3    H2 7135   4.727   1.471   2.449
 2377TIP3   OH2 7136   1.868   1.853   1.393
 2377TIP3    H1 7137   1.808   1.928   1.397
 2377TIP3    H2 7138   1.915   1.865   1.310
 2378TIP3   OH2 7139   0.234   2.517   3.646
 2378TIP3    H1 7140   0.240   2.586   3.580
 2378TIP3    H2 7141   0.262   2.437   3.600
 2379TIP3   OH2 7142   2.319   4.055   2.713
 2379TIP3    H1 7143   2.311   4.004   2.632
 2379TIP3    H2 7144   2.311   3.991   2.783
 2380TIP3   OH2 7145   5.416   4.501   3.493
 2380TIP3    H1 7146   5.337   4.448   3.502
 2380TIP3    H2 7147   5.472   4.475   3.565
 2381TIP3   OH2 7148   6.211   4.143   1.575
 2381TIP3    H1 7149   6.188   4.127   1.667
 2381TIP3    H2 7150   6.135   4.111   1.526
 2382TIP3   OH2 7151   1.165   5.843   4.272
 2382TIP3    H1 7152   1.071   5.832   4.288
 2382TIP3    H2 7153   1.197   5.888   4.351
 2383TIP3   OH2 7154   6.239   1.448   0.591
 2383TIP3    H1 7155   6.225   1.353   0.584
 2383TIP3    H2 7156   6.202   1.483   0.510
 2384TIP3   OH2 7157   0.585   2.779   3.018
 2384TIP3    H1 7158   0.535   2.815   2.946
 2384TIP3    H2 7159   0.627   2.701   2.982
 2385TIP3   OH2 7160   5.116   4.048   2.906
 2385TIP3    H1 7161   5.140   3.965   2.948
 2385TIP3    H2 7162   5.102   4.108   2.979
 2386TIP3   OH2 7163   2.880   2.777   3.849
 2386TIP3    H1 7164   2.813   2.718   3.883
 2386TIP3    H2 7165   2.940   2.721   3.799
 2387TIP3   OH2 7166   1.108   2.948   0.302
 2387TIP3    H1 7167   1.164   2.926   0.376
 2387TIP3    H2 7168   1.085   2.864   0.263
 2388TIP3   OH2 7169   1.755   4.327   4.435
 2388TIP3    H1 7170   1.703   4.402   4.465
 2388TIP3    H2 7171   1.694   4.254   4.437
 2389TIP3   OH2 7172   2.582   2.258   1.941
 2389TIP3    H1 7173   2.597   2.189   2.006
 2389TIP3    H2 7174   2.642   2.328   1.966
 2390TIP3   OH2 7175   0.311   2.415   3.399
 2390TIP3    H1 7176   0.216   2.417   3.399
 2390TIP3    H2 7177   0.336   2.470   3.325
 2391TIP3   OH2 7178   5.879   1.726   1.313
 2391TIP3    H1 7179   5.798   1.765   1.348
 2391TIP3    H2 7180   5.878   1.748   1.220
 2392TIP3   OH2 7181   3.636   2.729   3.039
 2392TIP3    H1 7182   3.662   2.719   3.130
 2392TIP3    H2 7183   3.577   2.804   3.038
 2393TIP3   OH2 7184   2.924   2.812   2.620
 2393TIP3    H1 7185   3.015   2.784   2.633
 2393TIP3    H2 7186   2.887   2.817   2.708
 2394TIP3   OH2 7187   0.327   3.343   1.255
 2394TIP3    H1 7188   0.255   3.403   1.269
 2394TIP3    H2 7189   0.302   3.293   1.178
 2395TIP3   OH2 7190   2.172   2.537   2.715
 2395TIP3    H1 7191   2.205   2.463   2.663
 2395TIP3    H2 7192   2.219   2.613   2.680
 2396TIP3   OH2 7193   4.470   2.561   4.433
 2396TIP3    H1 7194   4.466   2.522   4.345
 2396TIP3    H2 7195   4.553   2.529   4.469
 2397TIP3   OH2 7196   2.894   0.828   5.112
 2397TIP3    H1 7197   2.928   0.768   5.045
 2397TIP3    H2 7198   2.971   0.875   5.144
 2398TIP3   OH2 7199   5.314   4.713   2.743
 2398TIP3    H1 7200   5.269   4.672   2.670
 2398TIP3    H2 7201   5.389   4.656   2.761
 2399TIP3   OH2 7202   2.618   3.771   0.355
 2399TIP3    H1 7203   2.664   3.834   0.300
 2399TIP3    H2 7204   2.676   3.694   0.356
 2400TIP3   OH2 7205   6.005   3.068   4.372
 2400TIP3    H1 7206   6.040   3.107   4.452
 2400TIP3    H2 7207   6.062   3.100   4.302
 2401TIP3   OH2 7208   4.568   2.431   4.741
 2401TIP3    H1 7209   4.511   2.380   4.684
 2401TIP3    H2 7210   4.645   2.449   4.687
 2402TIP3   OH2 7211   3.761   5.275   0.069
 2402TIP3    H1 7212   3.794   5.301   0.155
 2402TIP3    H2 7213   3.669   5.301   0.071
 2403TIP3   OH2 7214   4.783   1.145   0.278
 2403TIP3    H1 7215   4.700   1.125   0.236
 2403TIP3    H2 7216   4.784   1.240   0.286
 2404TIP3   OH2 7217   5.540   0.229   4.952
 2404TIP3    H1 7218   5.483   0.152   4.945
 2404TIP3    H2 7219   5.496   0.295   4.898
 2405TIP3   OH2 7220   1.046   0.732   1.224
 2405TIP3    H1 7221   1.007   0.810   1.264
 2405TIP3    H2 7222   1.008   0.658   1.272
 2406TIP3   OH2 7223   3.201   2.727   2.610
 2406TIP3    H1 7224   3.253   2.726   2.529
 2406TIP3    H2 7225   3.244   2.662   2.666
 2407TIP3   OH2 7226   5.460   3.307   2.559
 2407TIP3    H1 7227   5.468   3.213   2.574
 2407TIP3    H2 7228   5.370   3.328   2.582
 2408TIP3   OH2 7229   0.354   0.783   0.919
 2408TIP3    H1 7230   0.441   0.750   0.894
 2408TIP3    H2 7231   0.310   0.707   0.957
 2409TIP3   OH2 7232   5.704   2.751   2.693
 2409TIP3    H1 7233   5.748   2.835   2.705
 2409TIP3    H2 7234   5.774   2.686   2.695
 2410TIP3   OH2 7235   0.077   2.179   2.949
 2410TIP3    H1 7236   0.135   2.170   3.024
 2410TIP3    H2 7237   0.116   2.125   2.881
 2411TIP3   OH2 7238   1.908   0.011   1.323
 2411TIP3    H1 7239   1.940   0.101   1.317
 2411TIP3    H2 7240   1.945  -0.034   1.247
 2412TIP3   OH2 7241   4.395   5.351   0.580
 2412TIP3    H1 7242   4.371   5.433   0.623
 2412TIP3    H2 7243   4.312   5.309   0.560
 2413TIP3   OH2 7244   5.898   5.260   4.877
 2413TIP3    H1 7245   5.890   5.329   4.944
 2413TIP3    H2 7246   5.826   5.278   4.816
 2414TIP3   OH2 7247   0.852   0.043   4.033
 2414TIP3    H1 7248   0.770   0.073   4.074
 2414TIP3    H2 7249   0.884  -0.026   4.090
 2415TIP3   OH2 7250   5.786   4.646   3.420
 2415TIP3    H1 7251   5.879   4.648   3.445
 2415TIP3    H2 7252   5.759   4.556   3.434
 2416TIP3   OH2 7253   1.575   5.120   4.054
 2416TIP3    H1 7254   1.540   5.037   4.085
 2416TIP3    H2 7255   1.509   5.185   4.077
 2417TIP3   OH2 7256   2.295   5.698   3.137
 2417TIP3    H1 7257   2.345   5.779   3.122
 2417TIP3    H2 7258   2.248   5.684   3.055
 2418TIP3   OH2 7259   2.233   0.245   4.484
 2418TIP3    H1 7260   2.244   0.323   4.429
 2418TIP3    H2 7261   2.274   0.174   4.434
 2419TIP3   OH2 7262   4.368   1.218   3.056
 2419TIP3    H1 7263   4.421   1.223   3.136
 2419TIP3    H2 7264   4.286   1.177   3.085
 2420TIP3   OH2 7265   4.290   4.313   2.083
 2420TIP3    H1 7266   4.273   4.364   2.003
 2420TIP3    H2 7267   4.350   4.244   2.054
 2421TIP3   OH2 7268   2.618   1.485   5.031
 2421TIP3    H1 7269   2.614   1.565   5.083
 2421TIP3    H2 7270   2.535   1.440   5.049
 2422TIP3   OH2 7271   6.336   5.003   0.002
 2422TIP3    H1 7272   6.382   4.924   0.029
 2422TIP3    H2 7273   6.393   5.043  -0.064
 2423TIP3   OH2 7274   5.537   0.647   0.748
 2423TIP3    H1 7275   5.464   0.708   0.739
 2423TIP3    H2 7276   5.614   0.696   0.719
 2424TIP3   OH2 7277   1.761   5.649   1.086
 2424TIP3    H1 7278   1.735   5.583   1.022
 2424TIP3    H2 7279   1.807   5.600   1.154
 2425TIP3   OH2 7280   6.070   0.708   1.408
 2425TIP3    H1 7281   6.062   0.614   1.394
 2425TIP3    H2 7282   5.982   0.735   1.437
 2426TIP3   OH2 7283   1.832   1.888   2.089
 2426TIP3    H1 7284   1.797   1.828   2.154
 2426TIP3    H2 7285   1.801   1.853   2.005
 2427TIP3   OH2 7286   2.371   0.405   3.312
 2427TIP3    H1 7287   2.343   0.476   3.369
 2427TIP3    H2 7288   2.317   0.331   3.338
 2428TIP3   OH2 7289   4.037   3.048   0.042
 2428TIP3    H1 7290   4.115   3.045   0.097
 2428TIP3    H2 7291   3.964   3.038   0.104
 2429TIP3   OH2 7292   0.603   1.944   4.540
 2429TIP3    H1 7293   0.652   1.936   4.459
 2429TIP3    H2 7294   0.511   1.935   4.514
 2430TIP3   OH2 7295   1.350   4.402   2.460
 2430TIP3    H1 7296   1.294   4.478   2.445
 2430TIP3    H2 7297   1.395   4.422   2.542
 2431TIP3   OH2 7298   1.828   1.610   2.178
 2431TIP3    H1 7299   1.764   1.640   2.242
 2431TIP3    H2 7300   1.884   1.548   2.226
 2432TIP3   OH2 7301   1.779   1.952   4.816
 2432TIP3    H1 7302   1.731   1.874   4.787
 2432TIP3    H2 7303   1.746   1.969   4.904
 2433TIP3   OH2 7304   5.091   1.982   3.342
 2433TIP3    H1 7305   5.167   2.000   3.398
 2433TIP3    H2 7306   5.067   1.892   3.362
 2434TIP3   OH2 7307   1.502   1.343   1.503
 2434TIP3    H1 7308   1.433   1.281   1.527
 2434TIP3    H2 7309   1.560   1.293   1.445
 2435TIP3   OH2 7310   2.155   5.516   3.484
 2435TIP3    H1 7311   2.112   5.431   3.491
 2435TIP3    H2 7312   2.182   5.537   3.573
 2436TIP3   OH2 7313   3.053   0.416   3.504
 2436TIP3    H1 7314   3.142   0.381   3.509
 2436TIP3    H2 7315   3.048   0.456   3.417
 2437TIP3   OH2 7316   3.181   1.238   0.609
 2437TIP3    H1 7317   3.165   1.272   0.521
 2437TIP3    H2 7318   3.276   1.247   0.621
 2438TIP3   OH2 7319   0.026   2.553   4.348
 2438TIP3    H1 7320  -0.033   2.540   4.423
 2438TIP3    H2 7321  -0.033   2.565   4.273
 2439TIP3   OH2 7322   3.287   1.145   4.829
 2439TIP3    H1 7323   3.223   1.130   4.760
 2439TIP3    H2 7324   3.253   1.219   4.879
 2440TIP3   OH2 7325   3.623   2.762   4.967
 2440TIP3    H1 7326   3.533   2.740   4.990
 2440TIP3    H2 7327   3.653   2.688   4.913
 2441TIP3   OH2 7328   6.069   0.358   4.488
 2441TIP3    H1 7329   6.037   0.447   4.504
 2441TIP3    H2 7330   6.069   0.349   4.393
 2442TIP3   OH2 7331   5.267   1.984   3.564
 2442TIP3    H1 7332   5.240   1.970   3.655
 2442TIP3    H2 7333   5.342   2.043   3.570
 2443TIP3   OH2 7334   4.968   2.586   4.424
 2443TIP3    H1 7335   5.058   2.555   4.427
 2443TIP3    H2 7336   4.964   2.644   4.347
 2444TIP3   OH2 7337   1.132   2.761   4.962
 2444TIP3    H1 7338   1.206   2.812   4.928
 2444TIP3    H2 7339   1.061   2.825   4.970
 2445TIP3   OH2 7340   2.819   0.228   0.687
 2445TIP3    H1 7341   2.784   0.139   0.682
 2445TIP3    H2 7342   2.824   0.246   0.781
 2446TIP3   OH2 7343   5.862   4.121   3.474
 2446TIP3    H1 7344   5.903   4.089   3.555
 2446TIP3    H2 7345   5.789   4.060   3.459
 2447TIP3   OH2 7346   2.067   5.089   1.948
 2447TIP3    H1 7347   1.997   5.146   1.980
 2447TIP3    H2 7348   2.147   5.139   1.966
 2448TIP3   OH2 7349   2.574   1.661   4.457
 2448TIP3    H1 7350   2.576   1.682   4.550
 2448TIP3    H2 7351   2.486   1.627   4.442
 2449TIP3   OH2 7352   0.261   3.926   0.809
 2449TIP3    H1 7353   0.277   4.011   0.768
 2449TIP3    H2 7354   0.238   3.868   0.736
 2450TIP3   OH2 7355   6.261   2.115   1.232
 2450TIP3    H1 7356   6.207   2.120   1.311
 2450TIP3    H2 7357   6.331   2.179   1.246
 2451TIP3   OH2 7358   3.769   0.423   0.249
 2451TIP3    H1 7359   3.682   0.409   0.212
 2451TIP3    H2 7360   3.803   0.335   0.265
 2452TIP3   OH2 7361   4.440   1.587   4.754
 2452TIP3    H1 7362   4.350   1.562   4.732
 2452TIP3    H2 7363   4.494   1.520   4.711
 2453TIP3   OH2 7364   2.636   3.554   1.733
 2453TIP3    H1 7365   2.546   3.545   1.763
 2453TIP3    H2 7366   2.689   3.552   1.813
 2454TIP3   OH2 7367   3.841   4.879   3.699
 2454TIP3    H1 7368   3.863   4.877   3.606
 2454TIP3    H2 7369   3.925   4.896   3.742
 2455TIP3   OH2 7370   1.490   1.326   0.015
 2455TIP3    H1 7371   1.432   1.402   0.002
 2455TIP3    H2 7372   1.511   1.329   0.109
 2456TIP3   OH2 7373   0.886   4.168   1.471
 2456TIP3    H1 7374   0.824   4.121   1.416
 2456TIP3    H2 7375   0.893   4.255   1.432
 2457TIP3   OH2 7376   3.543   3.947   4.881
 2457TIP3    H1 7377   3.510   4.032   4.912
 2457TIP3    H2 7378   3.505   3.937   4.794
 2458TIP3   OH2 7379   4.820   1.406   0.237
 2458TIP3    H1 7380   4.850   1.467   0.305
 2458TIP3    H2 7381   4.851   1.446   0.155
 2459TIP3   OH2 7382   3.653   1.381   2.239
 2459TIP3    H1 7383   3.643   1.469   2.203
 2459TIP3    H2 7384   3.736   1.350   2.205
 2460TIP3   OH2 7385   2.070   3.681   4.353
 2460TIP3    H1 7386   2.141   3.745   4.346
 2460TIP3    H2 7387   2.020   3.692   4.273
 2461TIP3   OH2 7388   4.142   2.955   1.477
 2461TIP3    H1 7389   4.161   3.021   1.545
 2461TIP3    H2 7390   4.126   2.875   1.526
 2462TIP3   OH2 7391   4.372   0.624   4.766
 2462TIP3    H1 7392   4.354   0.682   4.692
 2462TIP3    H2 7393   4.303   0.558   4.762
 2463TIP3   OH2 7394   1.083   4.929   0.448
 2463TIP3    H1 7395   1.138   4.987   0.395
 2463TIP3    H2 7396   1.085   4.968   0.535
 2464TIP3   OH2 7397   4.003   0.045   1.343
 2464TIP3    H1 7398   3.930   0.019   1.287
 2464TIP3    H2 7399   4.079   0.041   1.286
 2465TIP3   OH2 7400   3.735   4.919   2.390
 2465TIP3    H1 7401   3.768   4.840   2.347
 2465TIP3    H2 7402   3.721   4.893   2.481
 2466TIP3   OH2 7403   1.905   1.958   3.425
 2466TIP3    H1 7404   1.837   1.893   3.437
 2466TIP3    H2 7405   1.890   2.022   3.495
 2467TIP3   OH2 7406   5.972   2.053   2.274
 2467TIP3    H1 7407   5.971   2.052   2.370
 2467TIP3    H2 7408   6.029   1.979   2.250
 2468TIP3   OH2 7409   4.912   1.400   0.658
 2468TIP3    H1 7410   4.943   1.462   0.592
 2468TIP3    H2 7411   4.979   1.405   0.727
 2469TIP3   OH2 7412   1.515   1.821   1.560
 2469TIP3    H1 7413   1.438   1.765   1.557
 2469TIP3    H2 7414   1.544   1.826   1.469
 2470TIP3   OH2 7415   5.896   0.895   4.653
 2470TIP3    H1 7416   5.957   0.864   4.586
 2470TIP3    H2 7417   5.850   0.817   4.682
 2471TIP3   OH2 7418   3.115   0.127   0.853
 2471TIP3    H1 7419   3.130   0.059   0.919
 2471TIP3    H2 7420   3.029   0.163   0.875
 2472TIP3   OH2 7421   3.105   3.468   0.229
 2472TIP3    H1 7422   3.029   3.422   0.264
 2472TIP3    H2 7423   3.075   3.506   0.146
 2473TIP3   OH2 7424   5.486   4.566   0.834
 2473TIP3    H1 7425   5.563   4.557   0.779
 2473TIP3    H2 7426   5.452   4.476   0.843
 2474TIP3   OH2 7427   4.417   0.589   2.860
 2474TIP3    H1 7428   4.442   0.682   2.867
 2474TIP3    H2 7429   4.370   0.584   2.777
 2475TIP3   OH2 7430   2.963   1.455   4.916
 2475TIP3    H1 7431   3.029   1.386   4.929
 2475TIP3    H2 7432   2.989   1.497   4.833
 2476TIP3   OH2 7433   2.658   4.078   1.401
 2476TIP3    H1 7434   2.721   4.150   1.406
 2476TIP3    H2 7435   2.631   4.064   1.492
 2477TIP3   OH2 7436   2.901   0.834   1.394
 2477TIP3    H1 7437   2.938   0.788   1.470
 2477TIP3    H2 7438   2.942   0.920   1.396
 2478TIP3   OH2 7439   2.329   1.823   1.537
 2478TIP3    H1 7440   2.399   1.887   1.552
 2478TIP3    H2 7441   2.334   1.804   1.443
 2479TIP3   OH2 7442   3.265   3.977   2.308
 2479TIP3    H1 7443   3.283   3.883   2.311
 2479TIP3    H2 7444   3.208   3.988   2.232
 2480TIP3   OH2 7445   2.027   4.692   1.145
 2480TIP3    H1 7446   2.117   4.668   1.124
 2480TIP3    H2 7447   1.999   4.626   1.208
 2481TIP3   OH2 7448   5.072   4.661   0.240
 2481TIP3    H1 7449   5.107   4.594   0.182
 2481TIP3    H2 7450   4.984   4.630   0.262
 2482TIP3   OH2 7451   5.314   5.174   0.944
 2482TIP3    H1 7452   5.270   5.120   1.011
 2482TIP3    H2 7453   5.377   5.226   0.993
 2483TIP3   OH2 7454   3.823   5.464   1.789
 2483TIP3    H1 7455   3.756   5.455   1.857
 2483TIP3    H2 7456   3.786   5.526   1.726
 2484TIP3   OH2 7457   1.189   0.065   3.974
 2484TIP3    H1 7458   1.101   0.073   4.010
 2484TIP3    H2 7459   1.246   0.101   4.042
 2485TIP3   OH2 7460   1.169   5.431   1.094
 2485TIP3    H1 7461   1.113   5.357   1.115
 2485TIP3    H2 7462   1.231   5.436   1.167
 2486TIP3   OH2 7463   0.041   0.126   3.283
 2486TIP3    H1 7464  -0.026   0.102   3.219
 2486TIP3    H2 7465   0.032   0.060   3.353
 2487TIP3   OH2 7466   0.454   4.097   1.292
 2487TIP3    H1 7467   0.362   4.105   1.318
 2487TIP3    H2 7468   0.450   4.068   1.201
 2488TIP3   OH2 7469   3.609   0.687   4.298
 2488TIP3    H1 7470   3.647   0.730   4.222
 2488TIP3    H2 7471   3.681   0.636   4.335
 2489TIP3   OH2 7472   1.418   3.515   3.119
 2489TIP3    H1 7473   1.503   3.491   3.156
 2489TIP3    H2 7474   1.437   3.591   3.064
 2490TIP3   OH2 7475   3.173   5.611   0.550
 2490TIP3    H1 7476   3.136   5.699   0.543
 2490TIP3    H2 7477   3.218   5.610   0.635
 2491TIP3   OH2 7478   2.772   2.930   4.418
 2491TIP3    H1 7479   2.693   2.955   4.370
 2491TIP3    H2 7480   2.740   2.875   4.490
 2492TIP3   OH2 7481   0.339   5.976   1.160
 2492TIP3    H1 7482   0.291   5.985   1.243
 2492TIP3    H2 7483   0.409   5.913   1.180
 2493TIP3   OH2 7484   0.282   1.079   1.198
 2493TIP3    H1 7485   0.348   1.047   1.260
 2493TIP3    H2 7486   0.331   1.092   1.116
 2494TIP3   OH2 7487   1.442   1.368   4.922
 2494TIP3    H1 7488   1.371   1.305   4.910
 2494TIP3    H2 7489   1.518   1.315   4.944
 2495TIP3   OH2 7490   6.089   4.333   2.591
 2495TIP3    H1 7491   6.040   4.410   2.561
 2495TIP3    H2 7492   6.109   4.352   2.683
 2496TIP3   OH2 7493   4.028   0.175   3.755
 2496TIP3    H1 7494   4.086   0.250   3.742
 2496TIP3    H2 7495   4.037   0.154   3.848
 2497TIP3   OH2 7496   6.156   2.026   3.399
 2497TIP3    H1 7497   6.095   2.098   3.413
 2497TIP3    H2 7498   6.225   2.064   3.345
 2498TIP3   OH2 7499   4.375   2.566   0.066
 2498TIP3    H1 7500   4.359   2.477   0.034
 2498TIP3    H2 7501   4.428   2.607  -0.003
 2499TIP3   OH2 7502   0.901   0.522   1.346
 2499TIP3    H1 7503   0.830   0.494   1.288
 2499TIP3    H2 7504   0.884   0.476   1.429
 2500TIP3   OH2 7505   5.697   0.459   1.806
 2500TIP3    H1 7506   5.724   0.521   1.874
 2500TIP3    H2 7507   5.647   0.512   1.744
 2501TIP3   OH2 7508   1.437   3.727   3.319
 2501TIP3    H1 7509   1.364   3.670   3.345
 2501TIP3    H2 7510   1.515   3.674   3.333
 2502TIP3   OH2 7511   3.868   2.363   1.944
 2502TIP3    H1 7512   3.841   2.275   1.920
 2502TIP3    H2 7513   3.793   2.418   1.921
 2503TIP3   OH2 7514   4.262   0.335   3.804
 2503TIP3    H1 7515   4.337   0.353   3.747
 2503TIP3    H2 7516   4.227   0.422   3.825
 2504TIP3   OH2 7517   0.688   5.280   2.848
 2504TIP3    H1 7518   0.665   5.208   2.788
 2504TIP3    H2 7519   0.777   5.260   2.875
 2505TIP3   OH2 7520   5.171   5.118   3.713
 2505TIP3    H1 7521   5.263   5.129   3.735
 2505TIP3    H2 7522   5.144   5.202   3.678
 2506TIP3   OH2 7523   5.300   1.730   0.826
 2506TIP3    H1 7524   5.376   1.755   0.878
 2506TIP3    H2 7525   5.285   1.805   0.769
 2507TIP3   OH2 7526   0.233   0.644   5.065
 2507TIP3    H1 7527   0.234   0.593   4.984
 2507TIP3    H2 7528   0.174   0.596   5.123
 2508TIP3   OH2 7529   4.740   5.373   0.843
 2508TIP3    H1 7530   4.682   5.300   0.820
 2508TIP3    H2 7531   4.770   5.407   0.759
 2509TIP3   OH2 7532   3.583   5.633   3.872
 2509TIP3    H1 7533   3.579   5.729   3.874
 2509TIP3    H2 7534   3.673   5.614   3.845
 2510TIP3   OH2 7535   1.666   0.525   1.858
 2510TIP3    H1 7536   1.655   0.439   1.817
 2510TIP3    H2 7537   1.667   0.586   1.785
 2511TIP3   OH2 7538   3.820   3.083   1.893
 2511TIP3    H1 7539   3.841   3.033   1.814
 2511TIP3    H2 7540   3.883   3.154   1.893
 2512TIP3   OH2 7541   3.616   4.218   0.759
 2512TIP3    H1 7542   3.591   4.208   0.851
 2512TIP3    H2 7543   3.558   4.286   0.726
 2513TIP3   OH2 7544   0.873   4.018   3.791
 2513TIP3    H1 7545   0.811   4.022   3.718
 2513TIP3    H2 7546   0.956   4.048   3.754
 2514TIP3   OH2 7547   0.703   4.063   0.982
 2514TIP3    H1 7548   0.630   4.125   0.976
 2514TIP3    H2 7549   0.672   3.984   0.939
 2515TIP3   OH2 7550   0.027   5.318   5.111
 2515TIP3    H1 7551   0.026   5.248   5.045
 2515TIP3    H2 7552  -0.060   5.357   5.105
 2516TIP3   OH2 7553   1.319   5.068   4.942
 2516TIP3    H1 7554   1.378   5.020   5.001
 2516TIP3    H2 7555   1.285   5.001   4.883
 2517TIP3   OH2 7556   1.649   3.270   3.767
 2517TIP3    H1 7557   1.563   3.252   3.728
 2517TIP3    H2 7558   1.677   3.186   3.804
 2518TIP3   OH2 7559   2.922   3.549   4.325
 2518TIP3    H1 7560   2.888   3.580   4.409
 2518TIP3    H2 7561   2.887   3.611   4.260
 2519TIP3   OH2 7562   4.017   2.000   1.507
 2519TIP3    H1 7563   4.103   2.027   1.538
 2519TIP3    H2 7564   4.025   2.003   1.411
 2520TIP3   OH2 7565   2.006   1.311   3.544
 2520TIP3    H1 7566   1.992   1.403   3.521
 2520TIP3    H2 7567   1.934   1.291   3.603
 2521TIP3   OH2 7568   0.390   3.821   4.411
 2521TIP3    H1 7569   0.385   3.726   4.427
 2521TIP3    H2 7570   0.458   3.830   4.345
 2522TIP3   OH2 7571   0.336   0.316   4.993
 2522TIP3    H1 7572   0.269   0.362   4.942
 2522TIP3    H2 7573   0.415   0.369   4.980
 2523TIP3   OH2 7574   3.869   1.248   5.039
 2523TIP3    H1 7575   3.853   1.156   5.018
 2523TIP3    H2 7576   3.782   1.285   5.055
 2524TIP3   OH2 7577   4.705   3.876   3.111
 2524TIP3    H1 7578   4.738   3.836   3.030
 2524TIP3    H2 7579   4.711   3.806   3.176
 2525TIP3   OH2 7580   0.037   4.677   3.361
 2525TIP3    H1 7581   0.002   4.591   3.385
 2525TIP3    H2 7582   0.122   4.658   3.323
 2526TIP3   OH2 7583   2.762   5.349   2.012
 2526TIP3    H1 7584   2.758   5.330   2.106
 2526TIP3    H2 7585   2.730   5.269   1.971
 2527TIP3   OH2 7586   2.863   2.514   3.257
 2527TIP3    H1 7587   2.850   2.421   3.241
 2527TIP3    H2 7588   2.865   2.522   3.352
 2528TIP3   OH2 7589   5.649   2.210   4.128
 2528TIP3    H1 7590   5.724   2.255   4.088
 2528TIP3    H2 7591   5.680   2.188   4.216
 2529TIP3   OH2 7592   0.504   0.857   4.577
 2529TIP3    H1 7593   0.505   0.950   4.554
 2529TIP3    H2 7594   0.452   0.852   4.657
 2530TIP3   OH2 7595   4.649   1.281   4.474
 2530TIP3    H1 7596   4.649   1.329   4.391
 2530TIP3    H2 7597   4.729   1.230   4.472
 2531TIP3   OH2 7598   0.695   0.790   3.254
 2531TIP3    H1 7599   0.723   0.786   3.163
 2531TIP3    H2 7600   0.683   0.884   3.271
 2532TIP3   OH2 7601   1.308   1.307   4.371
 2532TIP3    H1 7602   1.325   1.337   4.281
 2532TIP3    H2 7603   1.226   1.349   4.395
 2533TIP3   OH2 7604   1.850   5.199   4.526
 2533TIP3    H1 7605   1.823   5.124   4.579
 2533TIP3    H2 7606   1.839   5.274   4.584
 2534TIP3   OH2 7607   5.816   2.928   0.521
 2534TIP3    H1 7608   5.776   3.008   0.554
 2534TIP3    H2 7609   5.814   2.937   0.426
 2535TIP3   OH2 7610   5.394   3.164   1.336
 2535TIP3    H1 7611   5.410   3.120   1.419
 2535TIP3    H2 7612   5.352   3.247   1.361
 2536TIP3   OH2 7613   0.735   0.864   0.679
 2536TIP3    H1 7614   0.818   0.816   0.683
 2536TIP3    H2 7615   0.730   0.894   0.588
 2537TIP3   OH2 7616   0.584   3.160   1.691
 2537TIP3    H1 7617   0.576   3.161   1.786
 2537TIP3    H2 7618   0.670   3.121   1.674
 2538TIP3   OH2 7619   1.099   5.013   0.734
 2538TIP3    H1 7620   1.082   5.105   0.752
 2538TIP3    H2 7621   1.120   4.975   0.819
 2539TIP3   OH2 7622   6.089   2.856   2.445
 2539TIP3    H1 7623   6.042   2.861   2.362
 2539TIP3    H2 7624   6.101   2.762   2.460
 2540TIP3   OH2 7625   0.175   5.972   4.303
 2540TIP3    H1 7626   0.185   5.878   4.313
 2540TIP3    H2 7627   0.262   6.004   4.281
 2541TIP3   OH2 7628   0.679   5.750   0.206
 2541TIP3    H1 7629   0.706   5.670   0.250
 2541TIP3    H2 7630   0.712   5.821   0.261
 2542TIP3   OH2 7631   2.376   4.708   4.341
 2542TIP3    H1 7632   2.330   4.791   4.323
 2542TIP3    H2 7633   2.466   4.725   4.313
 2543TIP3   OH2 7634   4.610   2.568   3.942
 2543TIP3    H1 7635   4.623   2.523   4.025
 2543TIP3    H2 7636   4.519   2.597   3.944
 2544TIP3   OH2 7637   4.194   3.232   2.073
 2544TIP3    H1 7638   4.189   3.289   2.149
 2544TIP3    H2 7639   4.173   3.145   2.107
 2545TIP3   OH2 7640   6.031   2.755   1.909
 2545TIP3    H1 7641   6.060   2.699   1.982
 2545TIP3    H2 7642   6.078   2.721   1.833
 2546TIP3   OH2 7643   1.640   1.026   5.148
 2546TIP3    H1 7644   1.615   1.108   5.105
 2546TIP3    H2 7645   1.699   0.983   5.087
 2547TIP3   OH2 7646   4.901   4.364   1.059
 2547TIP3    H1 7647   4.828   4.359   1.121
 2547TIP3    H2 7648   4.977   4.332   1.108
 2548TIP3   OH2 7649   3.191   4.826   1.090
 2548TIP3    H1 7650   3.152   4.839   1.003
 2548TIP3    H2 7651   3.198   4.914   1.127
 2549TIP3   OH2 7652   1.324   5.424   0.780
 2549TIP3    H1 7653   1.271   5.478   0.722
 2549TIP3    H2 7654   1.322   5.470   0.864
 2550TIP3   OH2 7655   1.633   5.192   1.980
 2550TIP3    H1 7656   1.591   5.195   1.894
 2550TIP3    H2 7657   1.715   5.239   1.969
 2551TIP3   OH2 7658   3.275   2.303   0.206
 2551TIP3    H1 7659   3.292   2.370   0.272
 2551TIP3    H2 7660   3.283   2.220   0.253
 2552TIP3   OH2 7661   0.266   5.422   0.938
 2552TIP3    H1 7662   0.306   5.366   0.871
 2552TIP3    H2 7663   0.257   5.507   0.896
 2553TIP3   OH2 7664   1.117   2.998   1.688
 2553TIP3    H1 7665   1.076   2.942   1.622
 2553TIP3    H2 7666   1.208   3.007   1.658
 2554TIP3   OH2 7667   0.178   3.749   1.652
 2554TIP3    H1 7668   0.121   3.804   1.599
 2554TIP3    H2 7669   0.258   3.741   1.600
 2555TIP3   OH2 7670   6.047   4.137   0.837
 2555TIP3    H1 7671   6.124   4.152   0.893
 2555TIP3    H2 7672   5.991   4.213   0.851
 2556TIP3   OH2 7673   0.358   0.836   2.262
 2556TIP3    H1 7674   0.274   0.813   2.302
 2556TIP3    H2 7675   0.346   0.926   2.233
 2557TIP3   OH2 7676   5.640   3.304   3.284
 2557TIP3    H1 7677   5.556   3.339   3.314
 2557TIP3    H2 7678   5.682   3.271   3.363
 2558TIP3   OH2 7679   0.032   1.502   1.687
 2558TIP3    H1 7680   0.115   1.496   1.641
 2558TIP3    H2 7681  -0.019   1.566   1.637
 2559TIP3   OH2 7682   6.012   2.876   2.152
 2559TIP3    H1 7683   6.070   2.952   2.156
 2559TIP3    H2 7684   6.021   2.844   2.062
 2560TIP3   OH2 7685   1.149   3.839   3.084
 2560TIP3    H1 7686   1.125   3.857   2.993
 2560TIP3    H2 7687   1.096   3.763   3.108
 2561TIP3   OH2 7688   4.034   2.866   4.026
 2561TIP3    H1 7689   4.117   2.882   4.073
 2561TIP3    H2 7690   4.045   2.912   3.943
 2562TIP3   OH2 7691   4.224   3.082   4.346
 2562TIP3    H1 7692   4.228   2.989   4.322
 2562TIP3    H2 7693   4.205   3.127   4.263
 2563TIP3   OH2 7694   1.498   4.003   4.009
 2563TIP3    H1 7695   1.487   4.000   3.914
 2563TIP3    H2 7696   1.574   3.947   4.026
 2564TIP3   OH2 7697   1.336   1.860   0.107
 2564TIP3    H1 7698   1.319   1.954   0.110
 2564TIP3    H2 7699   1.299   1.832   0.023
 2565TIP3   OH2 7700   0.869   1.351   0.760
 2565TIP3    H1 7701   0.953   1.326   0.797
 2565TIP3    H2 7702   0.881   1.342   0.665
 2566TIP3   OH2 7703   3.100   0.553   3.280
 2566TIP3    H1 7704   3.146   0.614   3.337
 2566TIP3    H2 7705   3.034   0.606   3.236
 2567TIP3   OH2 7706   2.912   2.072   2.483
 2567TIP3    H1 7707   2.919   1.977   2.480
 2567TIP3    H2 7708   2.849   2.093   2.414
 2568TIP3   OH2 7709   2.960   1.672   5.099
 2568TIP3    H1 7710   3.036   1.665   5.156
 2568TIP3    H2 7711   2.971   1.602   5.035
 2569TIP3   OH2 7712   4.627   5.174   5.104
 2569TIP3    H1 7713   4.589   5.086   5.100
 2569TIP3    H2 7714   4.559   5.226   5.147
 2570TIP3   OH2 7715   0.818   1.504   0.127
 2570TIP3    H1 7716   0.819   1.418   0.170
 2570TIP3    H2 7717   0.891   1.551   0.166
 2571TIP3   OH2 7718   3.107   0.139   3.674
 2571TIP3    H1 7719   3.136   0.229   3.661
 2571TIP3    H2 7720   3.184   0.086   3.652
 2572TIP3   OH2 7721   1.788   3.188   1.110
 2572TIP3    H1 7722   1.855   3.129   1.145
 2572TIP3    H2 7723   1.727   3.201   1.182
 2573TIP3   OH2 7724   0.092   0.655   0.543
 2573TIP3    H1 7725   0.168   0.630   0.596
 2573TIP3    H2 7726   0.022   0.671   0.607
 2574TIP3   OH2 7727   3.606   1.726   4.661
 2574TIP3    H1 7728   3.586   1.635   4.641
 2574TIP3    H2 7729   3.582   1.773   4.581
 2575TIP3   OH2 7730   1.404   5.274   3.376
 2575TIP3    H1 7731   1.492   5.298   3.403
 2575TIP3    H2 7732   1.415   5.217   3.300
 2576TIP3   OH2 7733   4.053   0.447   3.037
 2576TIP3    H1 7734   4.007   0.508   3.096
 2576TIP3    H2 7735   4.031   0.478   2.949
 2577TIP3   OH2 7736   6.217   0.335   0.482
 2577TIP3    H1 7737   6.296   0.289   0.511
 2577TIP3    H2 7738   6.177   0.368   0.562
 2578TIP3   OH2 7739   1.799   3.265   0.031
 2578TIP3    H1 7740   1.852   3.236   0.106
 2578TIP3    H2 7741   1.727   3.314   0.071
 2579TIP3   OH2 7742   2.261   2.375   0.449
 2579TIP3    H1 7743   2.294   2.325   0.523
 2579TIP3    H2 7744   2.338   2.421   0.415
 2580TIP3   OH2 7745   5.498   2.149   2.934
 2580TIP3    H1 7746   5.540   2.135   2.849
 2580TIP3    H2 7747   5.409   2.116   2.922
 2581TIP3   OH2 7748   1.854   5.760   2.701
 2581TIP3    H1 7749   1.934   5.714   2.726
 2581TIP3    H2 7750   1.882   5.849   2.681
 2582TIP3   OH2 7751   0.738   4.106   1.238
 2582TIP3    H1 7752   0.718   4.102   1.145
 2582TIP3    H2 7753   0.683   4.039   1.278
 2583TIP3   OH2 7754   2.149   2.202   0.889
 2583TIP3    H1 7755   2.085   2.251   0.941
 2583TIP3    H2 7756   2.221   2.185   0.949
 2584TIP3   OH2 7757   3.401   0.407   1.210
 2584TIP3    H1 7758   3.316   0.439   1.181
 2584TIP3    H2 7759   3.461   0.479   1.193
 2585TIP3   OH2 7760   0.249   1.446   0.128
 2585TIP3    H1 7761   0.332   1.445   0.177
 2585TIP3    H2 7762   0.184   1.414   0.191
 2586TIP3   OH2 7763   3.571   1.818   1.520
 2586TIP3    H1 7764   3.523   1.840   1.440
 2586TIP3    H2 7765   3.644   1.764   1.491
 2587TIP3   OH2 7766   2.804   3.547   2.269
 2587TIP3    H1 7767   2.898   3.532   2.269
 2587TIP3    H2 7768   2.794   3.642   2.264
 2588TIP3   OH2 7769   3.054   5.467   2.211
 2588TIP3    H1 7770   3.141   5.463   2.249
 2588TIP3    H2 7771   2.994   5.455   2.284
 2589TIP3   OH2 7772   2.077   3.380   4.482
 2589TIP3    H1 7773   2.063   3.424   4.398
 2589TIP3    H2 7774   1.998   3.400   4.533
 2590TIP3   OH2 7775   2.226   0.854   4.872
 2590TIP3    H1 7776   2.276   0.872   4.792
 2590TIP3    H2 7777   2.289   0.867   4.943
 2591TIP3   OH2 7778   4.443   0.341   4.561
 2591TIP3    H1 7779   4.367   0.397   4.546
 2591TIP3    H2 7780   4.478   0.325   4.473
 2592TIP3   OH2 7781   2.158   5.237   0.022
 2592TIP3    H1 7782   2.168   5.266  -0.069
 2592TIP3    H2 7783   2.124   5.148   0.015
 2593TIP3   OH2 7784   3.818   5.484   1.345
 2593TIP3    H1 7785   3.729   5.520   1.344
 2593TIP3    H2 7786   3.847   5.490   1.253
 2594TIP3   OH2 7787   5.384   4.127   4.556
 2594TIP3    H1 7788   5.464   4.078   4.574
 2594TIP3    H2 7789   5.322   4.061   4.527
 2595TIP3   OH2 7790   1.308   3.254   1.011
 2595TIP3    H1 7791   1.247   3.279   1.081
 2595TIP3    H2 7792   1.394   3.278   1.044
 2596TIP3   OH2 7793   5.822   3.645   3.633
 2596TIP3    H1 7794   5.856   3.564   3.594
 2596TIP3    H2 7795   5.844   3.638   3.726
 2597TIP3   OH2 7796   0.906   0.166   3.798
 2597TIP3    H1 7797   0.888   0.150   3.890
 2597TIP3    H2 7798   0.899   0.079   3.757
 2598TIP3   OH2 7799   1.241   5.834   1.328
 2598TIP3    H1 7800   1.219   5.923   1.299
 2598TIP3    H2 7801   1.331   5.840   1.359
 2599TIP3   OH2 7802   2.334   3.018   2.463
 2599TIP3    H1 7803   2.343   3.044   2.371
 2599TIP3    H2 7804   2.323   3.101   2.510
 2600TIP3   OH2 7805   3.583   0.286   3.461
 2600TIP3    H1 7806   3.594   0.345   3.387
 2600TIP3    H2 7807   3.660   0.302   3.516
 2601TIP3   OH2 7808   0.575   2.546   4.743
 2601TIP3    H1 7809   0.581   2.634   4.704
 2601TIP3    H2 7810   0.631   2.492   4.689
 2602TIP3   OH2 7811   0.476   5.601   3.554
 2602TIP3    H1 7812   0.540   5.664   3.521
 2602TIP3    H2 7813   0.473   5.617   3.648
 2603TIP3   OH2 7814   2.646   0.778   1.370
 2603TIP3    H1 7815   2.650   0.778   1.465
 2603TIP3    H2 7816   2.737   0.775   1.342
 2604TIP3   OH2 7817   5.411   2.144   3.203
 2604TIP3    H1 7818   5.343   2.077   3.214
 2604TIP3    H2 7819   5.446   2.126   3.115
 2605TIP3   OH2 7820   0.749   2.406   4.599
 2605TIP3    H1 7821   0.821   2.442   4.548
 2605TIP3    H2 7822   0.764   2.312   4.600
 2606TIP3   OH2 7823   3.537   3.486   4.744
 2606TIP3    H1 7824   3.508   3.424   4.677
 2606TIP3    H2 7825   3.494   3.568   4.721
 2607TIP3   OH2 7826   0.005   1.726   3.608
 2607TIP3    H1 7827   0.042   1.680   3.532
 2607TIP3    H2 7828  -0.062   1.783   3.570
 2608TIP3   OH2 7829   0.969   1.720   0.182
 2608TIP3    H1 7830   0.939   1.796   0.231
 2608TIP3    H2 7831   0.963   1.746   0.090
 2609TIP3   OH2 7832   1.437   4.583   1.288
 2609TIP3    H1 7833   1.367   4.596   1.223
 2609TIP3    H2 7834   1.494   4.516   1.249
 2610TIP3   OH2 7835   3.236   3.906   1.122
 2610TIP3    H1 7836   3.318   3.951   1.102
 2610TIP3    H2 7837   3.176   3.976   1.148
 2611TIP3   OH2 7838   0.976   0.571   3.171
 2611TIP3    H1 7839   0.907   0.558   3.236
 2611TIP3    H2 7840   0.938   0.633   3.108
 2612TIP3   OH2 7841   0.299   4.045   3.642
 2612TIP3    H1 7842   0.281   4.139   3.630
 2612TIP3    H2 7843   0.254   4.022   3.723
 2613TIP3   OH2 7844   5.254   4.695   0.446
 2613TIP3    H1 7845   5.213   4.701   0.360
 2613TIP3    H2 7846   5.186   4.658   0.503
 2614TIP3   OH2 7847   5.125   5.032   1.393
 2614TIP3    H1 7848   5.047   5.087   1.382
 2614TIP3    H2 7849   5.188   5.089   1.438
 2615TIP3   OH2 7850   6.219   4.755   0.847
 2615TIP3    H1 7851   6.179   4.751   0.760
 2615TIP3    H2 7852   6.295   4.697   0.842
 2616TIP3   OH2 7853   2.332   2.036   2.652
 2616TIP3    H1 7854   2.406   2.086   2.618
 2616TIP3    H2 7855   2.282   2.010   2.574
 2617TIP3   OH2 7856   1.889   1.306   0.517
 2617TIP3    H1 7857   1.948   1.320   0.591
 2617TIP3    H2 7858   1.829   1.381   0.519
 2618TIP3   OH2 7859   4.649   3.936   4.763
 2618TIP3    H1 7860   4.732   3.982   4.755
 2618TIP3    H2 7861   4.664   3.871   4.831
 2619TIP3   OH2 7862   3.251   3.770   0.108
 2619TIP3    H1 7863   3.279   3.728   0.027
 2619TIP3    H2 7864   3.156   3.779   0.099
 2620TIP3   OH2 7865   3.082   0.141   0.003
 2620TIP3    H1 7866   3.052   0.185  -0.077
 2620TIP3    H2 7867   3.028   0.178   0.073
 2621TIP3   OH2 7868   5.838   1.758   0.235
 2621TIP3    H1 7869   5.757   1.808   0.225
 2621TIP3    H2 7870   5.887   1.803   0.304
 2622TIP3   OH2 7871   2.037   0.570   1.736
 2622TIP3    H1 7872   2.129   0.546   1.749
 2622TIP3    H2 7873   2.018   0.544   1.646
 2623TIP3   OH2 7874   5.423   0.419   4.814
 2623TIP3    H1 7875   5.327   0.421   4.811
 2623TIP3    H2 7876   5.450   0.419   4.722
 2624TIP3   OH2 7877   1.189   4.273   0.792
 2624TIP3    H1 7878   1.127   4.258   0.865
 2624TIP3    H2 7879   1.236   4.352   0.816
 2625TIP3   OH2 7880   4.100   0.522   1.221
 2625TIP3    H1 7881   4.006   0.524   1.200
 2625TIP3    H2 7882   4.106   0.571   1.304
 2626TIP3   OH2 7883   5.532   5.716   4.425
 2626TIP3    H1 7884   5.464   5.783   4.432
 2626TIP3    H2 7885   5.486   5.637   4.398
 2627TIP3   OH2 7886   4.005   0.617   3.757
 2627TIP3    H1 7887   3.979   0.643   3.669
 2627TIP3    H2 7888   4.100   0.622   3.758
 2628TIP3   OH2 7889   3.469   2.796   2.786
 2628TIP3    H1 7890   3.416   2.805   2.865
 2628TIP3    H2 7891   3.545   2.744   2.814
 2629TIP3   OH2 7892   1.017   2.438   2.456
 2629TIP3    H1 7893   0.936   2.387   2.454
 2629TIP3    H2 7894   0.990   2.524   2.488
 2630TIP3   OH2 7895   3.082   2.215   3.423
 2630TIP3    H1 7896   3.047   2.231   3.335
 2630TIP3    H2 7897   3.175   2.235   3.416
 2631TIP3   OH2 7898   3.667   3.150   3.516
 2631TIP3    H1 7899   3.638   3.203   3.442
 2631TIP3    H2 7900   3.641   3.061   3.493
 2632TIP3   OH2 7901   3.564   1.908   0.163
 2632TIP3    H1 7902   3.559   1.925   0.069
 2632TIP3    H2 7903   3.653   1.876   0.176
 2633TIP3   OH2 7904   5.764   0.179   1.418
 2633TIP3    H1 7905   5.673   0.211   1.412
 2633TIP3    H2 7906   5.816   0.259   1.426
 2634TIP3   OH2 7907   0.983   3.733   2.177
 2634TIP3    H1 7908   1.017   3.816   2.209
 2634TIP3    H2 7909   0.987   3.675   2.253
 2635TIP3   OH2 7910   1.968   4.613   2.706
 2635TIP3    H1 7911   2.014   4.679   2.758
 2635TIP3    H2 7912   1.882   4.652   2.688
 2636TIP3   OH2 7913   3.419   1.722   1.767
 2636TIP3    H1 7914   3.432   1.739   1.673
 2636TIP3    H2 7915   3.497   1.757   1.809
 2637TIP3   OH2 7916   6.093   3.961   0.170
 2637TIP3    H1 7917   6.123   3.912   0.093
 2637TIP3    H2 7918   5.998   3.950   0.169
 2638TIP3   OH2 7919   0.692   5.779   3.603
 2638TIP3    H1 7920   0.743   5.751   3.679
 2638TIP3    H2 7921   0.686   5.874   3.612
 2639TIP3   OH2 7922   5.310   4.988   3.314
 2639TIP3    H1 7923   5.332   5.064   3.367
 2639TIP3    H2 7924   5.315   4.914   3.374
 2640TIP3   OH2 7925   5.571   3.496   0.354
 2640TIP3    H1 7926   5.563   3.591   0.346
 2640TIP3    H2 7927   5.663   3.478   0.337
 2641TIP3   OH2 7928   0.251   4.112   0.498
 2641TIP3    H1 7929   0.163   4.111   0.535
 2641TIP3    H2 7930   0.263   4.023   0.464
 2642TIP3   OH2 7931   5.189   0.308   4.715
 2642TIP3    H1 7932   5.096   0.308   4.692
 2642TIP3    H2 7933   5.231   0.262   4.643
 2643TIP3   OH2 7934   2.130   0.492   2.072
 2643TIP3    H1 7935   2.126   0.578   2.115
 2643TIP3    H2 7936   2.200   0.502   2.007
 2644TIP3   OH2 7937   5.876   4.715   2.788
 2644TIP3    H1 7938   5.903   4.762   2.709
 2644TIP3    H2 7939   5.954   4.711   2.842
 2645TIP3   OH2 7940   4.732   1.326   0.989
 2645TIP3    H1 7941   4.668   1.385   1.029
 2645TIP3    H2 7942   4.810   1.380   0.976
 2646TIP3   OH2 7943   6.251   4.061   3.504
 2646TIP3    H1 7944   6.276   4.146   3.538
 2646TIP3    H2 7945   6.156   4.060   3.509
 2647TIP3   OH2 7946   6.332   4.950   3.146
 2647TIP3    H1 7947   6.371   4.863   3.151
 2647TIP3    H2 7948   6.390   4.999   3.087
 2648TIP3   OH2 7949   3.909   4.237   0.050
 2648TIP3    H1 7950   3.973   4.238  -0.022
 2648TIP3    H2 7951   3.906   4.146   0.078
 2649TIP3   OH2 7952   5.128   0.640   0.286
 2649TIP3    H1 7953   5.109   0.546   0.278
 2649TIP3    H2 7954   5.119   0.658   0.380
 2650TIP3   OH2 7955   5.864   2.691   1.589
 2650TIP3    H1 7956   5.845   2.622   1.526
 2650TIP3    H2 7957   5.812   2.669   1.666
 2651TIP3   OH2 7958   1.254   5.794   4.860
 2651TIP3    H1 7959   1.261   5.758   4.948
 2651TIP3    H2 7960   1.227   5.719   4.806
 2652TIP3   OH2 7961   0.156   5.418   2.295
 2652TIP3    H1 7962   0.126   5.330   2.319
 2652TIP3    H2 7963   0.148   5.421   2.199
 2653TIP3   OH2 7964   5.671   5.707   1.973
 2653TIP3    H1 7965   5.637   5.623   2.003
 2653TIP3    H2 7966   5.644   5.712   1.881
 2654TIP3   OH2 7967   2.268   5.611   0.908
 2654TIP3    H1 7968   2.218   5.553   0.851
 2654TIP3    H2 7969   2.220   5.693   0.907
 2655TIP3   OH2 7970   5.704   3.195   1.855
 2655TIP3    H1 7971   5.716   3.108   1.817
 2655TIP3    H2 7972   5.618   3.191   1.896
 2656TIP3   OH2 7973   4.865   2.650   4.697
 2656TIP3    H1 7974   4.876   2.629   4.604
 2656TIP3    H2 7975   4.904   2.737   4.707
 2657TIP3   OH2 7976   1.807   1.347   0.899
 2657TIP3    H1 7977   1.759   1.415   0.851
 2657TIP3    H2 7978   1.887   1.334   0.849
 2658TIP3   OH2 7979   1.116   2.755   3.134
 2658TIP3    H1 7980   1.126   2.742   3.228
 2658TIP3    H2 7981   1.078   2.673   3.101
 2659TIP3   OH2 7982   4.606   5.338   3.609
 2659TIP3    H1 7983   4.598   5.252   3.650
 2659TIP3    H2 7984   4.528   5.347   3.555
 2660TIP3   OH2 7985   1.062   2.443   1.850
 2660TIP3    H1 7986   0.977   2.487   1.844
 2660TIP3    H2 7987   1.088   2.453   1.941
 2661TIP3   OH2 7988   0.552   1.236   2.251
 2661TIP3    H1 7989   0.616   1.165   2.248
 2661TIP3    H2 7990   0.560   1.281   2.167
 2662TIP3   OH2 7991   1.058   4.911   3.291
 2662TIP3    H1 7992   1.020   4.830   3.257
 2662TIP3    H2 7993   1.006   4.931   3.369
 2663TIP3   OH2 7994   3.602   0.409   0.687
 2663TIP3    H1 7995   3.539   0.373   0.625
 2663TIP3    H2 7996   3.688   0.383   0.653
 2664TIP3   OH2 7997   0.125   5.862   5.104
 2664TIP3    H1 7998   0.140   5.941   5.053
 2664TIP3    H2 7999   0.093   5.797   5.040
 2665TIP3   OH2 8000   5.768   1.008   4.144
 2665TIP3    H1 8001   5.682   1.019   4.187
 2665TIP3    H2 8002   5.765   1.068   4.070
 2666TIP3   OH2 8003   0.138   4.940   0.942
 2666TIP3    H1 8004   0.067   4.888   0.906
 2666TIP3    H2 8005   0.201   4.947   0.870
 2667TIP3   OH2 8006   3.755   5.669   3.207
 2667TIP3    H1 8007   3.662   5.685   3.222
 2667TIP3    H2 8008   3.774   5.712   3.124
 2668TIP3   OH2 8009   6.104   1.605   0.407
 2668TIP3    H1 8010   6.096   1.542   0.335
 2668TIP3    H2 8011   6.018   1.605   0.449
 2669TIP3   OH2 8012   5.064   5.689   4.877
 2669TIP3    H1 8013   5.155   5.665   4.858
 2669TIP3    H2 8014   5.066   5.785   4.884
 2670TIP3   OH2 8015   3.031   5.827   5.156
 2670TIP3    H1 8016   3.107   5.789   5.200
 2670TIP3    H2 8017   2.974   5.753   5.136
 2671TIP3   OH2 8018   2.047   3.405   5.165
 2671TIP3    H1 8019   2.000   3.357   5.097
 2671TIP3    H2 8020   1.983   3.415   5.236
 2672TIP3   OH2 8021   3.013   2.309   1.539
 2672TIP3    H1 8022   2.954   2.235   1.524
 2672TIP3    H2 8023   2.986   2.375   1.474
 2673TIP3   OH2 8024   2.668   1.188   1.250
 2673TIP3    H1 8025   2.756   1.167   1.219
 2673TIP3    H2 8026   2.657   1.281   1.230
 2674TIP3   OH2 8027   5.333   3.556   0.076
 2674TIP3    H1 8028   5.271   3.622   0.107
 2674TIP3    H2 8029   5.314   3.478   0.127
 2675TIP3   OH2 8030   4.387   2.362   2.706
 2675TIP3    H1 8031   4.410   2.299   2.637
 2675TIP3    H2 8032   4.431   2.443   2.680
 2676TIP3   OH2 8033   2.873   1.566   3.804
 2676TIP3    H1 8034   2.794   1.517   3.784
 2676TIP3    H2 8035   2.905   1.530   3.886
 2677TIP3   OH2 8036   1.864   0.315   5.037
 2677TIP3    H1 8037   1.793   0.265   4.996
 2677TIP3    H2 8038   1.916   0.249   5.083
 2678TIP3   OH2 8039   0.280   2.005   1.494
 2678TIP3    H1 8040   0.333   1.982   1.417
 2678TIP3    H2 8041   0.327   1.966   1.567
 2679TIP3   OH2 8042   2.726   0.201   4.044
 2679TIP3    H1 8043   2.796   0.190   3.979
 2679TIP3    H2 8044   2.752   0.278   4.095
 2680TIP3   OH2 8045   6.160   0.434   2.989
 2680TIP3    H1 8046   6.252   0.411   2.977
 2680TIP3    H2 8047   6.157   0.481   3.072
 2681TIP3   OH2 8048   1.736   3.024   3.890
 2681TIP3    H1 8049   1.729   2.977   3.807
 2681TIP3    H2 8050   1.659   2.998   3.939
 2682TIP3   OH2 8051   3.364   5.924   2.660
 2682TIP3    H1 8052   3.434   5.932   2.595
 2682TIP3    H2 8053   3.375   5.836   2.695
 2683TIP3   OH2 8054   2.632   3.407   2.413
 2683TIP3    H1 8055   2.681   3.452   2.344
 2683TIP3    H2 8056   2.663   3.317   2.411
 2684TIP3   OH2 8057   1.198   3.555   3.358
 2684TIP3    H1 8058   1.168   3.545   3.268
 2684TIP3    H2 8059   1.274   3.497   3.364
 2685TIP3   OH2 8060   4.864   5.490   0.617
 2685TIP3    H1 8061   4.954   5.510   0.592
 2685TIP3    H2 8062   4.812   5.564   0.585
 2686TIP3   OH2 8063   5.187   4.945   0.525
 2686TIP3    H1 8064   5.236   4.999   0.587
 2686TIP3    H2 8065   5.235   4.862   0.522
 2687TIP3   OH2 8066   4.374   3.277   0.643
 2687TIP3    H1 8067   4.300   3.337   0.648
 2687TIP3    H2 8068   4.335   3.190   0.652
 2688TIP3   OH2 8069   3.319   2.189   5.038
 2688TIP3    H1 8070   3.334   2.207   5.131
 2688TIP3    H2 8071   3.406   2.172   5.002
 2689TIP3   OH2 8072   2.716   0.057   0.332
 2689TIP3    H1 8073   2.694   0.147   0.310
 2689TIP3    H2 8074   2.669   0.004   0.267
 2690TIP3   OH2 8075   0.674   2.287   2.055
 2690TIP3    H1 8076   0.713   2.318   2.137
 2690TIP3    H2 8077   0.729   2.324   1.987
 2691TIP3   OH2 8078   1.676   5.693   3.134
 2691TIP3    H1 8079   1.651   5.714   3.224
 2691TIP3    H2 8080   1.771   5.680   3.138
 2692TIP3   OH2 8081   4.112   5.926   1.913
 2692TIP3    H1 8082   4.196   5.916   1.868
 2692TIP3    H2 8083   4.069   5.998   1.867
 2693TIP3   OH2 8084   0.242   5.690   4.576
 2693TIP3    H1 8085   0.258   5.599   4.599
 2693TIP3    H2 8086   0.268   5.696   4.484
 2694TIP3   OH2 8087   4.981   4.777   4.354
 2694TIP3    H1 8088   5.062   4.731   4.329
 2694TIP3    H2 8089   4.986   4.784   4.449
 2695TIP3   OH2 8090   4.848   5.418   3.045
 2695TIP3    H1 8091   4.908   5.405   2.971
 2695TIP3    H2 8092   4.768   5.372   3.019
 2696TIP3   OH2 8093   0.130   4.869   0.617
 2696TIP3    H1 8094   0.070   4.847   0.546
 2696TIP3    H2 8095   0.201   4.806   0.610
 2697TIP3   OH2 8096   4.101   3.245   0.350
 2697TIP3    H1 8097   4.124   3.159   0.314
 2697TIP3    H2 8098   4.008   3.255   0.329
 2698TIP3   OH2 8099   0.986   5.285   0.393
 2698TIP3    H1 8100   0.933   5.310   0.469
 2698TIP3    H2 8101   1.076   5.282   0.427
 2699TIP3   OH2 8102   1.294   0.529   3.526
 2699TIP3    H1 8103   1.208   0.498   3.495
 2699TIP3    H2 8104   1.320   0.595   3.462
 2700TIP3   OH2 8105   2.551   3.243   1.597
 2700TIP3    H1 8106   2.644   3.224   1.584
 2700TIP3    H2 8107   2.529   3.197   1.679
 2701TIP3   OH2 8108   0.827   5.650   3.943
 2701TIP3    H1 8109   0.752   5.591   3.952
 2701TIP3    H2 8110   0.897   5.607   3.990
 2702TIP3   OH2 8111   3.017   3.625   2.654
 2702TIP3    H1 8112   3.099   3.596   2.693
 2702TIP3    H2 8113   2.951   3.563   2.687
 2703TIP3   OH2 8114   4.772   3.580   4.796
 2703TIP3    H1 8115   4.676   3.575   4.794
 2703TIP3    H2 8116   4.791   3.655   4.852
 2704TIP3   OH2 8117   5.368   1.870   2.623
 2704TIP3    H1 8118   5.285   1.844   2.584
 2704TIP3    H2 8119   5.359   1.848   2.716
 2705TIP3   OH2 8120   3.562   4.660   3.676
 2705TIP3    H1 8121   3.524   4.611   3.749
 2705TIP3    H2 8122   3.599   4.739   3.717
 2706TIP3   OH2 8123   2.858   4.404   1.525
 2706TIP3    H1 8124   2.917   4.388   1.451
 2706TIP3    H2 8125   2.771   4.410   1.485
 2707TIP3   OH2 8126   4.646   5.115   3.787
 2707TIP3    H1 8127   4.720   5.083   3.838
 2707TIP3    H2 8128   4.569   5.077   3.830
 2708TIP3   OH2 8129   3.497   2.353   4.333
 2708TIP3    H1 8130   3.433   2.397   4.278
 2708TIP3    H2 8131   3.523   2.275   4.283
 2709TIP3   OH2 8132   2.256   1.270   4.175
 2709TIP3    H1 8133   2.181   1.321   4.204
 2709TIP3    H2 8134   2.268   1.295   4.084
 2710TIP3   OH2 8135   4.589   2.716   2.758
 2710TIP3    H1 8136   4.520   2.762   2.806
 2710TIP3    H2 8137   4.545   2.640   2.720
 2711TIP3   OH2 8138   5.855   0.777   0.086
 2711TIP3    H1 8139   5.874   0.819   0.002
 2711TIP3    H2 8140   5.787   0.712   0.065
 2712TIP3   OH2 8141   4.469   4.139   2.468
 2712TIP3    H1 8142   4.482   4.169   2.558
 2712TIP3    H2 8143   4.459   4.219   2.417
 2713TIP3   OH2 8144   4.597   4.745   2.184
 2713TIP3    H1 8145   4.651   4.666   2.181
 2713TIP3    H2 8146   4.660   4.817   2.193
 2714TIP3   OH2 8147   0.092   0.922   3.596
 2714TIP3    H1 8148   0.105   0.833   3.563
 2714TIP3    H2 8149   0.153   0.976   3.545
 2715TIP3   OH2 8150   0.453   3.509   1.541
 2715TIP3    H1 8151   0.455   3.599   1.509
 2715TIP3    H2 8152   0.443   3.456   1.462
 2716TIP3   OH2 8153   4.038   5.841   0.091
 2716TIP3    H1 8154   4.107   5.776   0.106
 2716TIP3    H2 8155   3.988   5.806   0.017
 2717TIP3   OH2 8156   0.113   4.609   0.849
 2717TIP3    H1 8157   0.107   4.518   0.822
 2717TIP3    H2 8158   0.206   4.631   0.837
 2718TIP3   OH2 8159   0.938   2.675   1.254
 2718TIP3    H1 8160   1.025   2.637   1.241
 2718TIP3    H2 8161   0.936   2.701   1.346
 2719TIP3   OH2 8162   0.772   2.717   0.465
 2719TIP3    H1 8163   0.702   2.660   0.498
 2719TIP3    H2 8164   0.766   2.796   0.520
 2720TIP3   OH2 8165   0.215   2.950   2.433
 2720TIP3    H1 8166   0.252   2.896   2.364
 2720TIP3    H2 8167   0.137   2.990   2.393
 2721TIP3   OH2 8168   0.811   2.776   1.027
 2721TIP3    H1 8169   0.742   2.829   1.066
 2721TIP3    H2 8170   0.869   2.754   1.101
 2722TIP3   OH2 8171   4.570   0.458   2.589
 2722TIP3    H1 8172   4.523   0.418   2.516
 2722TIP3    H2 8173   4.643   0.504   2.549
 2723TIP3   OH2 8174   0.740   3.990   2.672
 2723TIP3    H1 8175   0.809   4.056   2.661
 2723TIP3    H2 8176   0.737   3.944   2.588
 2724TIP3   OH2 8177   1.942   2.277   1.817
 2724TIP3    H1 8178   1.926   2.370   1.834
 2724TIP3    H2 8179   1.905   2.232   1.894
 2725TIP3   OH2 8180   5.498   0.451   0.961
 2725TIP3    H1 8181   5.493   0.509   0.885
 2725TIP3    H2 8182   5.521   0.509   1.034
 2726TIP3   OH2 8183   4.781   2.322   0.909
 2726TIP3    H1 8184   4.728   2.344   0.985
 2726TIP3    H2 8185   4.849   2.390   0.906
 2727TIP3   OH2 8186   1.404   4.548   2.913
 2727TIP3    H1 8187   1.397   4.638   2.944
 2727TIP3    H2 8188   1.337   4.501   2.962
 2728TIP3   OH2 8189   0.551   1.587   0.104
 2728TIP3    H1 8190   0.541   1.564   0.012
 2728TIP3    H2 8191   0.640   1.559   0.127
 2729TIP3   OH2 8192   3.774   3.534   4.907
 2729TIP3    H1 8193   3.855   3.530   4.856
 2729TIP3    H2 8194   3.707   3.501   4.848
 2730TIP3   OH2 8195   6.213   2.889   5.040
 2730TIP3    H1 8196   6.142   2.922   4.985
 2730TIP3    H2 8197   6.184   2.802   5.067
 2731TIP3   OH2 8198   4.121   4.041   2.680
 2731TIP3    H1 8199   4.054   4.096   2.640
 2731TIP3    H2 8200   4.094   4.034   2.772
 2732TIP3   OH2 8201   2.612   4.483   0.058
 2732TIP3    H1 8202   2.675   4.526   0.115
 2732TIP3    H2 8203   2.666   4.439  -0.008
 2733TIP3   OH2 8204   5.352   2.015   0.210
 2733TIP3    H1 8205   5.338   1.920   0.207
 2733TIP3    H2 8206   5.274   2.052   0.168
 2734TIP3   OH2 8207   0.948   0.846   3.997
 2734TIP3    H1 8208   1.017   0.810   3.941
 2734TIP3    H2 8209   0.879   0.779   3.996
 2735TIP3   OH2 8210   4.338   1.858   1.039
 2735TIP3    H1 8211   4.400   1.836   0.969
 2735TIP3    H2 8212   4.369   1.809   1.115
 2736TIP3   OH2 8213   4.555   1.095   2.888
 2736TIP3    H1 8214   4.484   1.149   2.924
 2736TIP3    H2 8215   4.634   1.134   2.925
 2737TIP3   OH2 8216   2.471   2.584   4.414
 2737TIP3    H1 8217   2.414   2.508   4.425
 2737TIP3    H2 8218   2.472   2.600   4.320
 2738TIP3   OH2 8219   2.552   2.157   5.068
 2738TIP3    H1 8220   2.591   2.162   5.156
 2738TIP3    H2 8221   2.484   2.090   5.077
 2739TIP3   OH2 8222   0.159   1.301   3.758
 2739TIP3    H1 8223   0.137   1.321   3.667
 2739TIP3    H2 8224   0.169   1.206   3.760
 2740TIP3   OH2 8225   5.978   4.474   0.366
 2740TIP3    H1 8226   5.990   4.407   0.299
 2740TIP3    H2 8227   5.913   4.534   0.328
 2741TIP3   OH2 8228   5.677   4.110   2.161
 2741TIP3    H1 8229   5.732   4.108   2.083
 2741TIP3    H2 8230   5.691   4.197   2.198
 2742TIP3   OH2 8231   1.436   1.914   3.800
 2742TIP3    H1 8232   1.410   2.005   3.815
 2742TIP3    H2 8233   1.483   1.890   3.880
 2743TIP3   OH2 8234   1.067   2.382   0.054
 2743TIP3    H1 8235   1.073   2.466   0.100
 2743TIP3    H2 8236   1.078   2.405  -0.038
 2744TIP3   OH2 8237   1.210   2.807   1.892
 2744TIP3    H1 8238   1.171   2.885   1.853
 2744TIP3    H2 8239   1.168   2.800   1.978
 2745TIP3   OH2 8240   4.362   1.888   2.714
 2745TIP3    H1 8241   4.275   1.915   2.687
 2745TIP3    H2 8242   4.417   1.965   2.700
 2746TIP3   OH2 8243   2.161   5.752   0.263
 2746TIP3    H1 8244   2.092   5.818   0.264
 2746TIP3    H2 8245   2.130   5.686   0.201
 2747TIP3   OH2 8246   3.692   4.380   1.815
 2747TIP3    H1 8247   3.773   4.328   1.818
 2747TIP3    H2 8248   3.702   4.434   1.737
 2748TIP3   OH2 8249   5.240   2.228   4.433
 2748TIP3    H1 8250   5.313   2.217   4.372
 2748TIP3    H2 8251   5.167   2.256   4.378
 2749TIP3   OH2 8252   3.734   2.516   2.843
 2749TIP3    H1 8253   3.702   2.587   2.898
 2749TIP3    H2 8254   3.655   2.478   2.805
 2750TIP3   OH2 8255   1.404   2.774   2.240
 2750TIP3    H1 8256   1.372   2.716   2.308
 2750TIP3    H2 8257   1.433   2.714   2.170
 2751TIP3   OH2 8258   4.978   1.134   1.309
 2751TIP3    H1 8259   4.966   1.137   1.214
 2751TIP3    H2 8260   5.005   1.044   1.326
 2752TIP3   OH2 8261   0.264   1.869   0.756
 2752TIP3    H1 8262   0.343   1.817   0.738
 2752TIP3    H2 8263   0.240   1.905   0.671
 2753TIP3   OH2 8264   0.337   3.986   1.947
 2753TIP3    H1 8265   0.265   3.990   1.884
 2753TIP3    H2 8266   0.371   4.075   1.950
 2754TIP3   OH2 8267   3.266   5.101   3.426
 2754TIP3    H1 8268   3.254   5.016   3.384
 2754TIP3    H2 8269   3.180   5.121   3.464
 2755TIP3   OH2 8270   4.797   5.346   3.900
 2755TIP3    H1 8271   4.720   5.311   3.854
 2755TIP3    H2 8272   4.797   5.302   3.985
 2756TIP3   OH2 8273   1.544   1.640   4.948
 2756TIP3    H1 8274   1.619   1.601   4.904
 2756TIP3    H2 8275   1.469   1.588   4.920
 2757TIP3   OH2 8276   4.685   2.883   3.296
 2757TIP3    H1 8277   4.595   2.904   3.270
 2757TIP3    H2 8278   4.707   2.949   3.362
 2758TIP3   OH2 8279   3.014   3.954   4.214
 2758TIP3    H1 8280   2.968   3.979   4.294
 2758TIP3    H2 8281   2.945   3.922   4.156
 2759TIP3   OH2 8282   2.603   2.139   4.075
 2759TIP3    H1 8283   2.553   2.164   4.152
 2759TIP3    H2 8284   2.560   2.059   4.044
 2760TIP3   OH2 8285   5.548   1.405   0.187
 2760TIP3    H1 8286   5.464   1.421   0.143
 2760TIP3    H2 8287   5.539   1.317   0.224
 2761TIP3   OH2 8288   1.629   2.179   3.691
 2761TIP3    H1 8289   1.537   2.172   3.715
 2761TIP3    H2 8290   1.628   2.205   3.599
 2762TIP3   OH2 8291   6.133   4.410   5.163
 2762TIP3    H1 8292   6.104   4.340   5.222
 2762TIP3    H2 8293   6.064   4.476   5.167
 2763TIP3   OH2 8294   4.422   4.008   1.386
 2763TIP3    H1 8295   4.409   4.083   1.328
 2763TIP3    H2 8296   4.340   3.959   1.380
 2764TIP3   OH2 8297   0.661   4.990   1.949
 2764TIP3    H1 8298   0.638   4.901   1.975
 2764TIP3    H2 8299   0.577   5.030   1.925
 2765TIP3   OH2 8300   0.411   1.700   1.877
 2765TIP3    H1 8301   0.395   1.611   1.909
 2765TIP3    H2 8302   0.482   1.734   1.932
 2766TIP3   OH2 8303   3.227   0.778   4.627
 2766TIP3    H1 8304   3.172   0.705   4.655
 2766TIP3    H2 8305   3.302   0.776   4.686
 2767TIP3   OH2 8306   3.348   0.041   1.662
 2767TIP3    H1 8307   3.301  -0.042   1.654
 2767TIP3    H2 8308   3.410   0.027   1.733
 2768TIP3   OH2 8309   1.575   3.737   2.730
 2768TIP3    H1 8310   1.527   3.758   2.810
 2768TIP3    H2 8311   1.660   3.705   2.760
 2769TIP3   OH2 8312   3.073   1.539   4.459
 2769TIP3    H1 8313   3.013   1.589   4.514
 2769TIP3    H2 8314   3.036   1.450   4.459
 2770TIP3   OH2 8315   4.868   0.864   2.871
 2770TIP3    H1 8316   4.917   0.787   2.842
 2770TIP3    H2 8317   4.930   0.913   2.925
 2771TIP3   OH2 8318   3.494   1.707   5.082
 2771TIP3    H1 8319   3.442   1.763   5.023
 2771TIP3    H2 8320   3.558   1.766   5.121
 2772TIP3   OH2 8321   1.084   2.108   1.597
 2772TIP3    H1 8322   1.020   2.130   1.665
 2772TIP3    H2 8323   1.155   2.065   1.645
 2773TIP3   OH2 8324   6.266   0.629   5.110
 2773TIP3    H1 8325   6.335   0.598   5.168
 2773TIP3    H2 8326   6.265   0.724   5.123
 2774TIP3   OH2 8327   3.362   3.599   0.305
 2774TIP3    H1 8328   3.302   3.623   0.234
 2774TIP3    H2 8329   3.319   3.525   0.348
 2775TIP3   OH2 8330   1.068   5.274   4.800
 2775TIP3    H1 8331   1.059   5.328   4.878
 2775TIP3    H2 8332   0.983   5.279   4.757
 2776TIP3   OH2 8333   3.016   4.274   4.421
 2776TIP3    H1 8334   2.923   4.253   4.431
 2776TIP3    H2 8335   3.061   4.212   4.478
 2777TIP3   OH2 8336   6.234   1.554   2.929
 2777TIP3    H1 8337   6.282   1.492   2.875
 2777TIP3    H2 8338   6.227   1.633   2.875
 2778TIP3   OH2 8339   2.607   4.553   0.910
 2778TIP3    H1 8340   2.601   4.551   0.815
 2778TIP3    H2 8341   2.543   4.488   0.939
 2779TIP3   OH2 8342   1.514   5.193   2.732
 2779TIP3    H1 8343   1.576   5.258   2.765
 2779TIP3    H2 8344   1.507   5.213   2.639
 2780TIP3   OH2 8345   4.953   1.018   3.831
 2780TIP3    H1 8346   4.988   1.023   3.742
 2780TIP3    H2 8347   4.859   1.002   3.819
 2781TIP3   OH2 8348   1.202   5.364   5.174
 2781TIP3    H1 8349   1.159   5.281   5.194
 2781TIP3    H2 8350   1.206   5.410   5.258
 2782TIP3   OH2 8351   2.137   4.451   1.509
 2782TIP3    H1 8352   2.199   4.379   1.504
 2782TIP3    H2 8353   2.181   4.524   1.465
 2783TIP3   OH2 8354   6.043   2.489   0.736
 2783TIP3    H1 8355   5.988   2.560   0.705
 2783TIP3    H2 8356   6.046   2.499   0.831
 2784TIP3   OH2 8357   1.405   4.199   5.153
 2784TIP3    H1 8358   1.451   4.163   5.228
 2784TIP3    H2 8359   1.372   4.284   5.182
 2785TIP3   OH2 8360   0.830   3.424   1.256
 2785TIP3    H1 8361   0.802   3.373   1.332
 2785TIP3    H2 8362   0.762   3.409   1.191
 2786TIP3   OH2 8363   5.773   3.041   3.214
 2786TIP3    H1 8364   5.835   3.091   3.161
 2786TIP3    H2 8365   5.768   3.090   3.297
 2787TIP3   OH2 8366   5.912   3.516   1.618
 2787TIP3    H1 8367   5.908   3.514   1.714
 2787TIP3    H2 8368   5.875   3.432   1.591
 2788TIP3   OH2 8369   0.190   2.238   0.920
 2788TIP3    H1 8370   0.264   2.242   0.859
 2788TIP3    H2 8371   0.130   2.174   0.881
 2789TIP3   OH2 8372   0.439   2.552   1.307
 2789TIP3    H1 8373   0.426   2.622   1.243
 2789TIP3    H2 8374   0.407   2.473   1.263
 2790TIP3   OH2 8375   2.806   1.861   2.110
 2790TIP3    H1 8376   2.901   1.868   2.099
 2790TIP3    H2 8377   2.790   1.766   2.115
 2791TIP3   OH2 8378   6.098   4.772   2.949
 2791TIP3    H1 8379   6.139   4.728   3.023
 2791TIP3    H2 8380   6.135   4.860   2.950
 2792TIP3   OH2 8381   3.938   1.320   4.095
 2792TIP3    H1 8382   3.900   1.267   4.165
 2792TIP3    H2 8383   3.865   1.336   4.035
 2793TIP3   OH2 8384   4.445   0.380   0.242
 2793TIP3    H1 8385   4.525   0.388   0.295
 2793TIP3    H2 8386   4.477   0.352   0.156
 2794TIP3   OH2 8387   2.448   5.401   3.928
 2794TIP3    H1 8388   2.436   5.331   3.993
 2794TIP3    H2 8389   2.542   5.413   3.923
 2795TIP3   OH2 8390   3.725   2.811   3.476
 2795TIP3    H1 8391   3.699   2.748   3.409
 2795TIP3    H2 8392   3.701   2.770   3.559
 2796TIP3   OH2 8393   4.945   0.369   3.726
 2796TIP3    H1 8394   4.960   0.441   3.786
 2796TIP3    H2 8395   4.867   0.395   3.677
 2797TIP3   OH2 8396   5.519   1.243   2.218
 2797TIP3    H1 8397   5.435   1.205   2.245
 2797TIP3    H2 8398   5.525   1.224   2.125
 2798TIP3   OH2 8399   4.932   3.821   4.911
 2798TIP3    H1 8400   4.895   3.898   4.952
 2798TIP3    H2 8401   4.955   3.849   4.822
 2799TIP3   OH2 8402   3.841   5.914   2.158
 2799TIP3    H1 8403   3.829   6.006   2.135
 2799TIP3    H2 8404   3.911   5.915   2.224
 2800TIP3   OH2 8405   1.581   1.727   1.019
 2800TIP3    H1 8406   1.584   1.765   1.107
 2800TIP3    H2 8407   1.488   1.732   0.995
 2801TIP3   OH2 8408   0.440   1.417   0.350
 2801TIP3    H1 8409   0.491   1.494   0.373
 2801TIP3    H2 8410   0.398   1.390   0.431
 2802TIP3   OH2 8411   3.484   2.708   2.513
 2802TIP3    H1 8412   3.540   2.775   2.474
 2802TIP3    H2 8413   3.495   2.720   2.607
 2803TIP3   OH2 8414   0.092   5.310   0.141
 2803TIP3    H1 8415   0.067   5.288   0.051
 2803TIP3    H2 8416   0.107   5.404   0.140
 2804TIP3   OH2 8417   5.381   2.051   5.066
 2804TIP3    H1 8418   5.414   2.117   5.005
 2804TIP3    H2 8419   5.308   2.095   5.111
 2805TIP3   OH2 8420   5.391   3.548   2.116
 2805TIP3    H1 8421   5.327   3.608   2.078
 2805TIP3    H2 8422   5.351   3.517   2.198
 2806TIP3   OH2 8423   0.153   2.824   2.687
 2806TIP3    H1 8424   0.200   2.888   2.633
 2806TIP3    H2 8425   0.164   2.741   2.641
 2807TIP3   OH2 8426   6.067   5.107   1.913
 2807TIP3    H1 8427   6.042   5.186   1.961
 2807TIP3    H2 8428   6.145   5.075   1.959
 2808TIP3   OH2 8429   0.164   4.292   4.424
 2808TIP3    H1 8430   0.177   4.205   4.461
 2808TIP3    H2 8431   0.222   4.349   4.474
 2809TIP3   OH2 8432   0.772   2.484   1.099
 2809TIP3    H1 8433   0.787   2.575   1.071
 2809TIP3    H2 8434   0.781   2.487   1.194
 2810TIP3   OH2 8435   0.283   4.997   3.311
 2810TIP3    H1 8436   0.366   5.032   3.279
 2810TIP3    H2 8437   0.226   4.998   3.235
 2811TIP3   OH2 8438   1.776   5.017   3.906
 2811TIP3    H1 8439   1.845   5.084   3.907
 2811TIP3    H2 8440   1.712   5.049   3.969
 2812TIP3   OH2 8441   0.819   2.125   3.681
 2812TIP3    H1 8442   0.746   2.122   3.743
 2812TIP3    H2 8443   0.795   2.060   3.614
 2813TIP3   OH2 8444   4.562   2.052   3.095
 2813TIP3    H1 8445   4.656   2.037   3.111
 2813TIP3    H2 8446   4.552   2.147   3.100
 2814TIP3   OH2 8447   5.598   1.950   3.391
 2814TIP3    H1 8448   5.545   2.020   3.430
 2814TIP3    H2 8449   5.620   1.983   3.303
 2815TIP3   OH2 8450   5.900   2.021   1.553
 2815TIP3    H1 8451   5.902   2.108   1.593
 2815TIP3    H2 8452   5.992   1.999   1.537
 2816TIP3   OH2 8453   4.122   5.654   0.740
 2816TIP3    H1 8454   4.138   5.645   0.834
 2816TIP3    H2 8455   4.046   5.599   0.723
 2817TIP3   OH2 8456   3.138   3.132   3.705
 2817TIP3    H1 8457   3.176   3.214   3.674
 2817TIP3    H2 8458   3.198   3.100   3.772
 2818TIP3   OH2 8459   0.594   5.599   2.239
 2818TIP3    H1 8460   0.586   5.509   2.270
 2818TIP3    H2 8461   0.673   5.598   2.185
 2819TIP3   OH2 8462   1.328   5.970   4.056
 2819TIP3    H1 8463   1.368   5.889   4.023
 2819TIP3    H2 8464   1.294   5.946   4.143
 2820TIP3   OH2 8465   6.183   1.293   3.320
 2820TIP3    H1 8466   6.135   1.359   3.268
 2820TIP3    H2 8467   6.232   1.243   3.255
 2821TIP3   OH2 8468   4.891   2.359   1.570
 2821TIP3    H1 8469   4.916   2.306   1.495
 2821TIP3    H2 8470   4.810   2.403   1.542
 2822TIP3   OH2 8471   1.859   3.523   2.787
 2822TIP3    H1 8472   1.800   3.478   2.727
 2822TIP3    H2 8473   1.913   3.578   2.729
 2823TIP3   OH2 8474   0.158   5.653   0.869
 2823TIP3    H1 8475   0.180   5.735   0.914
 2823TIP3    H2 8476   0.063   5.645   0.880
 2824TIP3   OH2 8477   4.986   5.429   4.856
 2824TIP3    H1 8478   5.002   5.521   4.880
 2824TIP3    H2 8479   4.936   5.434   4.775
 2825TIP3   OH2 8480   4.295   3.424   2.277
 2825TIP3    H1 8481   4.309   3.496   2.338
 2825TIP3    H2 8482   4.358   3.357   2.305
 2826TIP3   OH2 8483   0.091   0.580   0.271
 2826TIP3    H1 8484   0.009   0.532   0.265
 2826TIP3    H2 8485   0.099   0.602   0.364
 2827TIP3   OH2 8486   6.102   4.150   2.408
 2827TIP3    H1 8487   6.103   4.205   2.487
 2827TIP3    H2 8488   6.129   4.208   2.338
 2828TIP3   OH2 8489   5.320   4.350   1.458
 2828TIP3    H1 8490   5.237   4.330   1.503
 2828TIP3    H2 8491   5.382   4.368   1.529
 2829TIP3   OH2 8492   2.998   2.775   1.539
 2829TIP3    H1 8493   3.078   2.722   1.534
 2829TIP3    H2 8494   2.929   2.711   1.559
 2830TIP3   OH2 8495   0.237   0.609   3.475
 2830TIP3    H1 8496   0.143   0.619   3.493
 2830TIP3    H2 8497   0.264   0.536   3.531
 2831TIP3   OH2 8498   2.933   0.790   2.018
 2831TIP3    H1 8499   2.962   0.700   1.999
 2831TIP3    H2 8500   2.982   0.815   2.097
 2832TIP3   OH2 8501   4.327   2.000   1.924
 2832TIP3    H1 8502   4.300   1.930   1.864
 2832TIP3    H2 8503   4.293   1.973   2.009
 2833TIP3   OH2 8504   1.780   1.353   4.179
 2833TIP3    H1 8505   1.790   1.270   4.226
 2833TIP3    H2 8506   1.702   1.393   4.217
 2834TIP3   OH2 8507   1.108   5.700   1.123
 2834TIP3    H1 8508   1.155   5.619   1.105
 2834TIP3    H2 8509   1.164   5.747   1.184
 2835TIP3   OH2 8510   1.016   3.484   4.304
 2835TIP3    H1 8511   0.981   3.399   4.279
 2835TIP3    H2 8512   1.101   3.489   4.260
 2836TIP3   OH2 8513   4.621   4.025   2.719
 2836TIP3    H1 8514   4.680   4.101   2.727
 2836TIP3    H2 8515   4.674   3.959   2.674
 2837TIP3   OH2 8516   5.069   2.359   4.252
 2837TIP3    H1 8517   5.006   2.383   4.185
 2837TIP3    H2 8518   5.154   2.385   4.215
 2838TIP3   OH2 8519   0.315   1.187   2.719
 2838TIP3    H1 8520   0.330   1.245   2.794
 2838TIP3    H2 8521   0.303   1.246   2.645
 2839TIP3   OH2 8522   4.985   4.715   5.056
 2839TIP3    H1 8523   4.955   4.672   5.136
 2839TIP3    H2 8524   4.936   4.798   5.054
 2840TIP3   OH2 8525   1.092   0.797   4.317
 2840TIP3    H1 8526   1.141   0.799   4.235
 2840TIP3    H2 8527   1.133   0.726   4.367
 2841TIP3   OH2 8528   2.387   4.519   1.940
 2841TIP3    H1 8529   2.480   4.498   1.928
 2841TIP3    H2 8530   2.350   4.440   1.981
 2842TIP3   OH2 8531   3.135   0.515   0.248
 2842TIP3    H1 8532   3.087   0.583   0.295
 2842TIP3    H2 8533   3.188   0.562   0.185
 2843TIP3   OH2 8534   4.856   2.794   0.320
 2843TIP3    H1 8535   4.869   2.757   0.233
 2843TIP3    H2 8536   4.921   2.864   0.327
 2844TIP3   OH2 8537   6.098   1.227   3.968
 2844TIP3    H1 8538   6.156   1.171   4.020
 2844TIP3    H2 8539   6.133   1.221   3.879
 2845TIP3   OH2 8540   6.180   2.068   2.917
 2845TIP3    H1 8541   6.258   2.082   2.970
 2845TIP3    H2 8542   6.196   2.115   2.836
 2846TIP3   OH2 8543   4.562   5.637   2.336
 2846TIP3    H1 8544   4.509   5.677   2.405
 2846TIP3    H2 8545   4.631   5.590   2.383
 2847TIP3   OH2 8546   3.774   3.721   4.187
 2847TIP3    H1 8547   3.835   3.713   4.113
 2847TIP3    H2 8548   3.804   3.799   4.234
 2848TIP3   OH2 8549   5.354   5.977   0.780
 2848TIP3    H1 8550   5.278   5.918   0.780
 2848TIP3    H2 8551   5.396   5.963   0.695
 2849TIP3   OH2 8552   0.343   1.629   4.469
 2849TIP3    H1 8553   0.423   1.594   4.507
 2849TIP3    H2 8554   0.293   1.663   4.543
 2850TIP3   OH2 8555   2.248   0.548   4.689
 2850TIP3    H1 8556   2.197   0.468   4.701
 2850TIP3    H2 8557   2.329   0.531   4.737
 2851TIP3   OH2 8558   2.438   1.822   1.267
 2851TIP3    H1 8559   2.409   1.912   1.277
 2851TIP3    H2 8560   2.393   1.789   1.189
 2852TIP3   OH2 8561   6.204   1.800   2.826
 2852TIP3    H1 8562   6.281   1.807   2.769
 2852TIP3    H2 8563   6.195   1.887   2.866
 2853TIP3   OH2 8564   5.503   3.038   4.700
 2853TIP3    H1 8565   5.542   3.000   4.780
 2853TIP3    H2 8566   5.461   3.118   4.730
 2854TIP3   OH2 8567   5.953   3.404   3.548
 2854TIP3    H1 8568   6.002   3.345   3.606
 2854TIP3    H2 8569   5.889   3.347   3.505
 2855TIP3   OH2 8570   2.087   4.196   3.009
 2855TIP3    H1 8571   2.162   4.234   2.963
 2855TIP3    H2 8572   2.017   4.260   2.999
 2856TIP3   OH2 8573   5.351   3.750   4.821
 2856TIP3    H1 8574   5.300   3.705   4.755
 2856TIP3    H2 8575   5.297   3.826   4.846
 2857TIP3   OH2 8576   1.553   2.553   2.104
 2857TIP3    H1 8577   1.493   2.555   2.030
 2857TIP3    H2 8578   1.568   2.460   2.120
 2858TIP3   OH2 8579   0.398   2.889   2.837
 2858TIP3    H1 8580   0.383   2.959   2.774
 2858TIP3    H2 8581   0.331   2.901   2.904
 2859TIP3   OH2 8582   2.813   5.087   2.557
 2859TIP3    H1 8583   2.841   5.154   2.619
 2859TIP3    H2 8584   2.848   5.115   2.473
 2860TIP3   OH2 8585   2.659   1.007   5.178
 2860TIP3    H1 8586   2.639   1.058   5.099
 2860TIP3    H2 8587   2.731   0.950   5.152
 2861TIP3   OH2 8588   0.135   2.773   2.951
 2861TIP3    H1 8589   0.046   2.740   2.959
 2861TIP3    H2 8590   0.148   2.788   2.858
 2862TIP3   OH2 8591   0.575   4.541   2.276
 2862TIP3    H1 8592   0.603   4.450   2.266
 2862TIP3    H2 8593   0.495   4.536   2.328
 2863TIP3   OH2 8594   4.257   5.078   2.735
 2863TIP3    H1 8595   4.189   5.033   2.685
 2863TIP3    H2 8596   4.270   5.023   2.812
 2864TIP3   OH2 8597   3.279   3.896   5.088
 2864TIP3    H1 8598   3.344   3.965   5.092
 2864TIP3    H2 8599   3.311   3.837   5.020
 2865TIP3   OH2 8600   5.243   4.439   4.795
 2865TIP3    H1 8601   5.257   4.495   4.719
 2865TIP3    H2 8602   5.332   4.414   4.822
 2866TIP3   OH2 8603   0.236   2.054   3.411
 2866TIP3    H1 8604   0.184   2.014   3.481
 2866TIP3    H2 8605   0.266   2.137   3.447
 2867TIP3   OH2 8606   3.006   4.189   2.669
 2867TIP3    H1 8607   2.963   4.270   2.644
 2867TIP3    H2 8608   3.073   4.175   2.601
 2868TIP3   OH2 8609   5.257   5.547   5.134
 2868TIP3    H1 8610   5.341   5.509   5.160
 2868TIP3    H2 8611   5.247   5.523   5.042
 2869TIP3   OH2 8612   6.031   3.875   2.526
 2869TIP3    H1 8613   6.048   3.969   2.524
 2869TIP3    H2 8614   5.937   3.868   2.544
 2870TIP3   OH2 8615   0.752   1.960   3.469
 2870TIP3    H1 8616   0.722   1.965   3.378
 2870TIP3    H2 8617   0.823   1.897   3.468
 2871TIP3   OH2 8618   3.073   0.563   4.343
 2871TIP3    H1 8619   3.115   0.649   4.339
 2871TIP3    H2 8620   3.132   0.510   4.396
 2872TIP3   OH2 8621   5.679   2.384   2.779
 2872TIP3    H1 8622   5.621   2.379   2.855
 2872TIP3    H2 8623   5.758   2.427   2.811
 2873TIP3   OH2 8624   0.009   3.319   3.900
 2873TIP3    H1 8625   0.044   3.368   3.825
 2873TIP3    H2 8626  -0.001   3.384   3.969
 2874TIP3   OH2 8627   4.720   0.249   0.377
 2874TIP3    H1 8628   4.655   0.275   0.442
 2874TIP3    H2 8629   4.804   0.273   0.416
 2875TIP3   OH2 8630   0.908   1.032   4.745
 2875TIP3    H1 8631   0.898   1.031   4.841
 2875TIP3    H2 8632   0.957   1.112   4.728
 2876TIP3   OH2 8633   4.144   0.762   4.589
 2876TIP3    H1 8634   4.068   0.753   4.646
 2876TIP3    H2 8635   4.107   0.775   4.501
 2877TIP3   OH2 8636   4.274   2.611   4.619
 2877TIP3    H1 8637   4.331   2.603   4.542
 2877TIP3    H2 8638   4.254   2.520   4.643
 2878TIP3   OH2 8639   1.633   1.951   2.661
 2878TIP3    H1 8640   1.702   1.970   2.597
 2878TIP3    H2 8641   1.561   1.916   2.610
 2879TIP3   OH2 8642   1.600   4.812   0.357
 2879TIP3    H1 8643   1.596   4.907   0.371
 2879TIP3    H2 8644   1.518   4.779   0.392
 2880TIP3   OH2 8645   3.403   3.550   2.056
 2880TIP3    H1 8646   3.488   3.553   2.013
 2880TIP3    H2 8647   3.340   3.569   1.987
 2881TIP3   OH2 8648   6.308   1.737   0.554
 2881TIP3    H1 8649   6.372   1.667   0.571
 2881TIP3    H2 8650   6.247   1.700   0.491
 2882TIP3   OH2 8651   0.017   3.050   3.685
 2882TIP3    H1 8652   0.014   3.143   3.706
 2882TIP3    H2 8653   0.073   3.045   3.607
 2883TIP3   OH2 8654   0.807   4.484   2.012
 2883TIP3    H1 8655   0.725   4.524   1.983
 2883TIP3    H2 8656   0.789   4.390   2.013
 2884TIP3   OH2 8657   1.050   3.215   3.538
 2884TIP3    H1 8658   1.071   3.193   3.447
 2884TIP3    H2 8659   1.079   3.306   3.548
 2885TIP3   OH2 8660   1.690   2.925   2.725
 2885TIP3    H1 8661   1.668   2.841   2.684
 2885TIP3    H2 8662   1.694   2.905   2.818
 2886TIP3   OH2 8663   3.934   2.433   3.467
 2886TIP3    H1 8664   3.980   2.375   3.528
 2886TIP3    H2 8665   3.901   2.375   3.399
 2887TIP3   OH2 8666   1.610   0.432   0.008
 2887TIP3    H1 8667   1.682   0.373   0.030
 2887TIP3    H2 8668   1.641   0.481  -0.068
 2888TIP3   OH2 8669   0.864   3.798   0.720
 2888TIP3    H1 8670   0.949   3.834   0.693
 2888TIP3    H2 8671   0.884   3.745   0.797
 2889TIP3   OH2 8672   4.784   0.491   4.409
 2889TIP3    H1 8673   4.841   0.499   4.332
 2889TIP3    H2 8674   4.714   0.432   4.381
 2890TIP3   OH2 8675   0.116   3.372   0.832
 2890TIP3    H1 8676   0.043   3.320   0.798
 2890TIP3    H2 8677   0.167   3.311   0.885
 2891TIP3   OH2 8678   2.123   2.063   3.233
 2891TIP3    H1 8679   2.163   2.120   3.167
 2891TIP3    H2 8680   2.032   2.091   3.237
 2892TIP3   OH2 8681   0.698   3.301   1.475
 2892TIP3    H1 8682   0.624   3.245   1.499
 2892TIP3    H2 8683   0.684   3.381   1.525
 2893TIP3   OH2 8684   1.698   0.390   3.283
 2893TIP3    H1 8685   1.724   0.398   3.375
 2893TIP3    H2 8686   1.744   0.312   3.252
 2894TIP3   OH2 8687   3.861   3.255   1.454
 2894TIP3    H1 8688   3.780   3.248   1.504
 2894TIP3    H2 8689   3.906   3.330   1.493
 2895TIP3   OH2 8690   2.706   0.550   2.075
 2895TIP3    H1 8691   2.649   0.626   2.067
 2895TIP3    H2 8692   2.775   0.577   2.134
 2896TIP3   OH2 8693   3.150   2.602   3.852
 2896TIP3    H1 8694   3.152   2.548   3.773
 2896TIP3    H2 8695   3.121   2.542   3.921
 2897TIP3   OH2 8696   1.715   1.183   1.441
 2897TIP3    H1 8697   1.796   1.175   1.492
 2897TIP3    H2 8698   1.744   1.183   1.350
 2898TIP3   OH2 8699   3.948   1.392   2.939
 2898TIP3    H1 8700   3.941   1.346   3.023
 2898TIP3    H2 8701   3.961   1.322   2.875
 2899TIP3   OH2 8702   1.769   1.558   0.533
 2899TIP3    H1 8703   1.738   1.561   0.624
 2899TIP3    H2 8704   1.835   1.627   0.527
 2900TIP3   OH2 8705   1.340   4.571   4.247
 2900TIP3    H1 8706   1.389   4.516   4.186
 2900TIP3    H2 8707   1.269   4.515   4.278
 2901TIP3   OH2 8708   2.463   5.575   0.111
 2901TIP3    H1 8709   2.401   5.592   0.040
 2901TIP3    H2 8710   2.456   5.652   0.167
 2902TIP3   OH2 8711   5.147   4.672   1.049
 2902TIP3    H1 8712   5.082   4.739   1.027
 2902TIP3    H2 8713   5.121   4.640   1.135
 2903TIP3   OH2 8714   1.099   0.399   2.489
 2903TIP3    H1 8715   1.179   0.430   2.448
 2903TIP3    H2 8716   1.040   0.381   2.416
 2904TIP3   OH2 8717   0.627   4.697   4.486
 2904TIP3    H1 8718   0.606   4.609   4.454
 2904TIP3    H2 8719   0.678   4.683   4.565
 2905TIP3   OH2 8720   5.923   4.953   2.229
 2905TIP3    H1 8721   5.945   5.026   2.286
 2905TIP3    H2 8722   5.864   4.990   2.164
 2906TIP3   OH2 8723   3.019   3.823   3.480
 2906TIP3    H1 8724   3.050   3.913   3.469
 2906TIP3    H2 8725   2.935   3.832   3.524
 2907TIP3   OH2 8726   6.219   2.847   4.007
 2907TIP3    H1 8727   6.307   2.854   3.969
 2907TIP3    H2 8728   6.161   2.844   3.931
 2908TIP3   OH2 8729   4.489   2.283   4.533
 2908TIP3    H1 8730   4.554   2.213   4.527
 2908TIP3    H2 8731   4.425   2.262   4.465
 2909TIP3   OH2 8732   3.594   2.377   3.084
 2909TIP3    H1 8733   3.637   2.307   3.133
 2909TIP3    H2 8734   3.512   2.338   3.053
 2910TIP3   OH2 8735   1.672   4.469   3.441
 2910TIP3    H1 8736   1.749   4.444   3.391
 2910TIP3    H2 8737   1.707   4.512   3.519
 2911TIP3   OH2 8738   2.022   5.112   2.242
 2911TIP3    H1 8739   2.056   5.027   2.213
 2911TIP3    H2 8740   1.929   5.109   2.218
 2912TIP3   OH2 8741   3.130   5.170   0.588
 2912TIP3    H1 8742   3.079   5.241   0.627
 2912TIP3    H2 8743   3.098   5.163   0.498
 2913TIP3   OH2 8744   0.137   0.217   3.762
 2913TIP3    H1 8745   0.107   0.166   3.837
 2913TIP3    H2 8746   0.125   0.158   3.687
 2914TIP3   OH2 8747   4.089   3.902   5.166
 2914TIP3    H1 8748   4.078   3.986   5.121
 2914TIP3    H2 8749   4.104   3.925   5.258
 2915TIP3   OH2 8750   2.978   0.257   3.923
 2915TIP3    H1 8751   2.935   0.323   3.867
 2915TIP3    H2 8752   3.060   0.298   3.950
 2916TIP3   OH2 8753   0.944   4.241   0.940
 2916TIP3    H1 8754   0.888   4.303   0.893
 2916TIP3    H2 8755   0.886   4.167   0.958
 2917TIP3   OH2 8756   4.827   4.458   0.591
 2917TIP3    H1 8757   4.742   4.500   0.604
 2917TIP3    H2 8758   4.849   4.421   0.676
 2918TIP3   OH2 8759   0.838   3.155   0.804
 2918TIP3    H1 8760   0.813   3.178   0.893
 2918TIP3    H2 8761   0.833   3.237   0.755
 2919TIP3   OH2 8762   4.046   2.158   0.255
 2919TIP3    H1 8763   4.129   2.136   0.212
 2919TIP3    H2 8764   4.059   2.132   0.346
 2920TIP3   OH2 8765   2.954   0.771   0.203
 2920TIP3    H1 8766   2.956   0.737   0.114
 2920TIP3    H2 8767   3.046   0.793   0.222
 2921TIP3   OH2 8768   0.660   0.127   1.919
 2921TIP3    H1 8769   0.599   0.054   1.924
 2921TIP3    H2 8770   0.646   0.176   2.000
 2922TIP3   OH2 8771   5.751   3.962   2.520
 2922TIP3    H1 8772   5.779   4.044   2.562
 2922TIP3    H2 8773   5.655   3.969   2.516
 2923TIP3   OH2 8774   0.175   4.215   2.183
 2923TIP3    H1 8775   0.196   4.295   2.134
 2923TIP3    H2 8776   0.175   4.146   2.118
 2924TIP3   OH2 8777   3.755   4.847   1.212
 2924TIP3    H1 8778   3.724   4.774   1.159
 2924TIP3    H2 8779   3.685   4.863   1.275
 2925TIP3   OH2 8780   4.157   2.709   3.705
 2925TIP3    H1 8781   4.131   2.799   3.726
 2925TIP3    H2 8782   4.076   2.659   3.709
 2926TIP3   OH2 8783   3.671   4.391   0.096
 2926TIP3    H1 8784   3.651   4.351   0.180
 2926TIP3    H2 8785   3.742   4.338   0.060
 2927TIP3   OH2 8786   0.627   0.540   2.300
 2927TIP3    H1 8787   0.539   0.502   2.299
 2927TIP3    H2 8788   0.619   0.615   2.359
 2928TIP3   OH2 8789   1.746   4.005   2.514
 2928TIP3    H1 8790   1.685   4.076   2.496
 2928TIP3    H2 8791   1.775   4.021   2.603
 2929TIP3   OH2 8792   3.553   1.118   0.397
 2929TIP3    H1 8793   3.623   1.178   0.373
 2929TIP3    H2 8794   3.514   1.157   0.475
 2930TIP3   OH2 8795   5.062   2.968   2.366
 2930TIP3    H1 8796   5.132   3.020   2.405
 2930TIP3    H2 8797   5.104   2.884   2.344
 2931TIP3   OH2 8798   1.330   2.255   4.984
 2931TIP3    H1 8799   1.332   2.348   4.961
 2931TIP3    H2 8800   1.420   2.225   4.973
 2932TIP3   OH2 8801   3.812   2.054   2.308
 2932TIP3    H1 8802   3.757   2.074   2.384
 2932TIP3    H2 8803   3.845   2.139   2.279
 2933TIP3   OH2 8804   1.233   1.698   3.986
 2933TIP3    H1 8805   1.193   1.752   4.054
 2933TIP3    H2 8806   1.327   1.715   3.993
 2934TIP3   OH2 8807   1.712   0.129   3.704
 2934TIP3    H1 8808   1.682   0.039   3.715
 2934TIP3    H2 8809   1.677   0.156   3.619
 2935TIP3   OH2 8810   1.157   3.975   4.707
 2935TIP3    H1 8811   1.109   3.934   4.780
 2935TIP3    H2 8812   1.217   3.907   4.677
 2936TIP3   OH2 8813   1.676   1.170   0.624
 2936TIP3    H1 8814   1.761   1.174   0.581
 2936TIP3    H2 8815   1.649   1.079   0.616
 2937TIP3   OH2 8816   3.221   3.158   2.777
 2937TIP3    H1 8817   3.228   3.149   2.872
 2937TIP3    H2 8818   3.175   3.079   2.748
 2938TIP3   OH2 8819   0.703   0.218   3.189
 2938TIP3    H1 8820   0.783   0.185   3.230
 2938TIP3    H2 8821   0.633   0.165   3.227
 2939TIP3   OH2 8822   3.420   0.568   3.607
 2939TIP3    H1 8823   3.354   0.614   3.556
 2939TIP3    H2 8824   3.466   0.514   3.543
 2940TIP3   OH2 8825   0.820   2.018   4.871
 2940TIP3    H1 8826   0.907   2.059   4.874
 2940TIP3    H2 8827   0.836   1.927   4.895
 2941TIP3   OH2 8828   0.301   1.526   3.263
 2941TIP3    H1 8829   0.291   1.570   3.347
 2941TIP3    H2 8830   0.220   1.546   3.215
 2942TIP3   OH2 8831   4.541   0.990   3.232
 2942TIP3    H1 8832   4.614   1.023   3.179
 2942TIP3    H2 8833   4.512   1.066   3.283
 2943TIP3   OH2 8834   5.823   4.183   2.649
 2943TIP3    H1 8835   5.896   4.243   2.639
 2943TIP3    H2 8836   5.758   4.232   2.699
 2944TIP3   OH2 8837   2.304   4.005   3.619
 2944TIP3    H1 8838   2.400   3.997   3.622
 2944TIP3    H2 8839   2.274   3.924   3.578
 2945TIP3   OH2 8840   5.496   1.800   0.999
 2945TIP3    H1 8841   5.524   1.890   0.986
 2945TIP3    H2 8842   5.487   1.791   1.094
 2946TIP3   OH2 8843   4.148   2.555   0.546
 2946TIP3    H1 8844   4.141   2.521   0.457
 2946TIP3    H2 8845   4.242   2.559   0.562
 2947TIP3   OH2 8846   3.578   4.330   4.836
 2947TIP3    H1 8847   3.554   4.289   4.753
 2947TIP3    H2 8848   3.639   4.399   4.811
 2948TIP3   OH2 8849   2.465   2.600   5.020
 2948TIP3    H1 8850   2.526   2.603   4.947
 2948TIP3    H2 8851   2.515   2.563   5.092
 2949TIP3   OH2 8852   2.889   5.106   2.266
 2949TIP3    H1 8853   2.975   5.102   2.223
 2949TIP3    H2 8854   2.848   5.022   2.246
 2950TIP3   OH2 8855   5.756   3.745   4.068
 2950TIP3    H1 8856   5.812   3.677   4.105
 2950TIP3    H2 8857   5.669   3.704   4.063
 2951TIP3   OH2 8858   1.449   5.949   4.778
 2951TIP3    H1 8859   1.379   5.891   4.808
 2951TIP3    H2 8860   1.500   5.969   4.857
 2952TIP3   OH2 8861   0.085   0.938   2.076
 2952TIP3    H1 8862   0.140   1.015   2.090
 2952TIP3    H2 8863  -0.000   0.961   2.113
 2953TIP3   OH2 8864   1.932   3.052   1.868
 2953TIP3    H1 8865   1.990   3.016   1.801
 2953TIP3    H2 8866   1.991   3.075   1.940
 2954TIP3   OH2 8867   1.230   2.567   2.334
 2954TIP3    H1 8868   1.156   2.511   2.357
 2954TIP3    H2 8869   1.283   2.572   2.414
 2955TIP3   OH2 8870   5.144   5.182   2.388
 2955TIP3    H1 8871   5.084   5.219   2.324
 2955TIP3    H2 8872   5.136   5.087   2.378
 2956TIP3   OH2 8873   5.108   5.887   1.774
 2956TIP3    H1 8874   5.117   5.890   1.869
 2956TIP3    H2 8875   5.177   5.828   1.744
 2957TIP3   OH2 8876   6.319   1.303   1.190
 2957TIP3    H1 8877   6.240   1.250   1.188
 2957TIP3    H2 8878   6.352   1.301   1.100
 2958TIP3   OH2 8879   2.763   5.726   4.729
 2958TIP3    H1 8880   2.805   5.648   4.765
 2958TIP3    H2 8881   2.678   5.696   4.698
 2959TIP3   OH2 8882   6.275   4.628   4.632
 2959TIP3    H1 8883   6.264   4.704   4.576
 2959TIP3    H2 8884   6.238   4.555   4.583
 2960TIP3   OH2 8885   2.627   5.338   4.523
 2960TIP3    H1 8886   2.710   5.385   4.513
 2960TIP3    H2 8887   2.565   5.386   4.468
 2961TIP3   OH2 8888   3.318   5.862   3.674
 2961TIP3    H1 8889   3.226   5.860   3.646
 2961TIP3    H2 8890   3.314   5.879   3.768
 2962TIP3   OH2 8891   4.428   3.022   4.676
 2962TIP3    H1 8892   4.491   2.950   4.679
 2962TIP3    H2 8893   4.412   3.036   4.582
 2963TIP3   OH2 8894   6.162   1.376   1.878
 2963TIP3    H1 8895   6.073   1.408   1.887
 2963TIP3    H2 8896   6.202   1.434   1.812
 2964TIP3   OH2 8897   3.570   0.574   1.701
 2964TIP3    H1 8898   3.609   0.489   1.721
 2964TIP3    H2 8899   3.619   0.637   1.754
 2965TIP3   OH2 8900   5.181   1.680   2.029
 2965TIP3    H1 8901   5.108   1.679   1.966
 2965TIP3    H2 8902   5.154   1.619   2.098
 2966TIP3   OH2 8903   4.210   5.762   2.795
 2966TIP3    H1 8904   4.269   5.791   2.864
 2966TIP3    H2 8905   4.131   5.732   2.840
 2967TIP3   OH2 8906   2.420   0.917   2.859
 2967TIP3    H1 8907   2.413   0.850   2.792
 2967TIP3    H2 8908   2.514   0.921   2.879
 2968TIP3   OH2 8909   4.663   4.235   4.886
 2968TIP3    H1 8910   4.727   4.304   4.904
 2968TIP3    H2 8911   4.583   4.264   4.930
 2969TIP3   OH2 8912   3.064   3.931   0.484
 2969TIP3    H1 8913   2.988   3.876   0.506
 2969TIP3    H2 8914   3.039   4.019   0.513
 2970TIP3   OH2 8915   2.606   1.621   4.741
 2970TIP3    H1 8916   2.578   1.557   4.806
 2970TIP3    H2 8917   2.595   1.706   4.784
 2971TIP3   OH2 8918   3.194   3.041   0.836
 2971TIP3    H1 8919   3.263   3.011   0.895
 2971TIP3    H2 8920   3.189   2.973   0.769
 2972TIP3   OH2 8921   6.062   3.050   3.492
 2972TIP3    H1 8922   5.975   3.090   3.488
 2972TIP3    H2 8923   6.057   2.975   3.433
 2973TIP3   OH2 8924   6.222   0.550   3.966
 2973TIP3    H1 8925   6.237   0.484   3.898
 2973TIP3    H2 8926   6.297   0.541   4.024
 2974TIP3   OH2 8927   0.887   2.852   5.068
 2974TIP3    H1 8928   0.838   2.934   5.057
 2974TIP3    H2 8929   0.824   2.783   5.046
 2975TIP3   OH2 8930   1.837   3.971   4.042
 2975TIP3    H1 8931   1.923   4.011   4.032
 2975TIP3    H2 8932   1.817   3.980   4.135
 2976TIP3   OH2 8933   5.853   5.965   1.275
 2976TIP3    H1 8934   5.811   6.045   1.309
 2976TIP3    H2 8935   5.944   5.972   1.304
 2977TIP3   OH2 8936   4.707   2.830   1.700
 2977TIP3    H1 8937   4.719   2.842   1.606
 2977TIP3    H2 8938   4.685   2.918   1.733
 2978TIP3   OH2 8939   0.542   3.624   0.692
 2978TIP3    H1 8940   0.598   3.583   0.758
 2978TIP3    H2 8941   0.461   3.574   0.695
 2979TIP3   OH2 8942   5.526   0.089   1.643
 2979TIP3    H1 8943   5.473   0.011   1.659
 2979TIP3    H2 8944   5.605   0.056   1.600
 2980TIP3   OH2 8945   4.701   0.118   3.480
 2980TIP3    H1 8946   4.659   0.033   3.469
 2980TIP3    H2 8947   4.638   0.168   3.533
 2981TIP3   OH2 8948   4.655   3.108   3.473
 2981TIP3    H1 8949   4.640   3.057   3.553
 2981TIP3    H2 8950   4.682   3.194   3.504
 2982TIP3   OH2 8951   5.531   2.986   3.603
 2982TIP3    H1 8952   5.603   3.039   3.568
 2982TIP3    H2 8953   5.574   2.907   3.636
 2983TIP3   OH2 8954   4.808   1.114   4.145
 2983TIP3    H1 8955   4.874   1.053   4.178
 2983TIP3    H2 8956   4.725   1.074   4.169
 2984TIP3   OH2 8957   1.746   5.387   2.828
 2984TIP3    H1 8958   1.716   5.477   2.811
 2984TIP3    H2 8959   1.755   5.382   2.923
 2985TIP3   OH2 8960   2.291   5.908   0.903
 2985TIP3    H1 8961   2.272   5.874   0.991
 2985TIP3    H2 8962   2.221   5.971   0.886
 2986TIP3   OH2 8963   2.596   4.309   3.625
 2986TIP3    H1 8964   2.677   4.360   3.619
 2986TIP3    H2 8965   2.535   4.365   3.673
 2987TIP3   OH2 8966   0.839   3.058   1.943
 2987TIP3    H1 8967   0.891   3.090   1.870
 2987TIP3    H2 8968   0.800   2.976   1.911
 2988TIP3   OH2 8969   4.171   2.421   1.672
 2988TIP3    H1 8970   4.234   2.404   1.601
 2988TIP3    H2 8971   4.200   2.365   1.744
 2989TIP3   OH2 8972   1.611   1.540   2.858
 2989TIP3    H1 8973   1.697   1.504   2.838
 2989TIP3    H2 8974   1.559   1.463   2.883
 2990TIP3   OH2 8975   2.329   1.425   2.024
 2990TIP3    H1 8976   2.333   1.489   1.954
 2990TIP3    H2 8977   2.394   1.456   2.088
 2991TIP3   OH2 8978   2.541   0.353   1.862
 2991TIP3    H1 8979   2.529   0.297   1.939
 2991TIP3    H2 8980   2.552   0.291   1.790
 2992TIP3   OH2 8981   4.577   5.259   0.395
 2992TIP3    H1 8982   4.515   5.208   0.343
 2992TIP3    H2 8983   4.524   5.297   0.466
 2993TIP3   OH2 8984   0.207   1.472   2.232
 2993TIP3    H1 8985   0.131   1.531   2.227
 2993TIP3    H2 8986   0.254   1.485   2.150
 2994TIP3   OH2 8987   3.237   3.801   1.991
 2994TIP3    H1 8988   3.326   3.798   2.028
 2994TIP3    H2 8989   3.208   3.891   2.006
 2995TIP3   OH2 8990   5.992   0.038   0.524
 2995TIP3    H1 8991   5.945   0.117   0.549
 2995TIP3    H2 8992   6.072   0.070   0.482
 2996TIP3   OH2 8993   2.087   3.021   4.014
 2996TIP3    H1 8994   2.107   2.988   3.927
 2996TIP3    H2 8995   2.170   3.018   4.061
 2997TIP3   OH2 8996   4.431   5.510   1.607
 2997TIP3    H1 8997   4.440   5.483   1.699
 2997TIP3    H2 8998   4.411   5.429   1.561
 2998TIP3   OH2 8999   4.635   3.236   3.812
 2998TIP3    H1 9000   4.545   3.249   3.782
 2998TIP3    H2 9001   4.661   3.322   3.844
 2999TIP3   OH2 9002   1.954   0.621   3.640
 2999TIP3    H1 9003   2.044   0.589   3.647
 2999TIP3    H2 9004   1.959   0.695   3.579
 3000TIP3   OH2 9005   5.449   1.419   0.724
 3000TIP3    H1 9006   5.419   1.495   0.775
 3000TIP3    H2 9007   5.476   1.355   0.789
 3001TIP3   OH2 9008   4.697   3.098   1.783
 3001TIP3    H1 9009   4.610   3.125   1.755
 3001TIP3    H2 9010   4.738   3.179   1.814
 3002TIP3   OH2 9011   1.445   0.221   3.855
 3002TIP3    H1 9012   1.391   0.237   3.778
 3002TIP3    H2 9013   1.514   0.163   3.824
 3003TIP3   OH2 9014   0.714   5.922   3.100
 3003TIP3    H1 9015   0.645   5.860   3.079
 3003TIP3    H2 9016   0.776   5.873   3.154
 3004TIP3   OH2 9017   0.901   4.450   3.566
 3004TIP3    H1 9018   0.808   4.471   3.572
 3004TIP3    H2 9019   0.914   4.421   3.476
 3005TIP3   OH2 9020   1.239   1.753   2.333
 3005TIP3    H1 9021   1.289   1.769   2.253
 3005TIP3    H2 9022   1.152   1.788   2.314
 3006TIP3   OH2 9023   1.928   2.655   2.854
 3006TIP3    H1 9024   1.869   2.585   2.826
 3006TIP3    H2 9025   2.005   2.645   2.798
 3007TIP3   OH2 9026   4.494   4.474   0.652
 3007TIP3    H1 9027   4.524   4.529   0.580
 3007TIP3    H2 9028   4.552   4.398   0.649
 3008TIP3   OH2 9029   0.473   5.723   2.446
 3008TIP3    H1 9030   0.508   5.812   2.445
 3008TIP3    H2 9031   0.517   5.678   2.374
 3009TIP3   OH2 9032   2.230   3.673   2.491
 3009TIP3    H1 9033   2.170   3.698   2.560
 3009TIP3    H2 9034   2.196   3.715   2.412
 3010TIP3   OH2 9035   5.344   5.458   4.440
 3010TIP3    H1 9036   5.440   5.451   4.432
 3010TIP3    H2 9037   5.310   5.404   4.368
 3011TIP3   OH2 9038   0.261   0.558   0.720
 3011TIP3    H1 9039   0.344   0.592   0.688
 3011TIP3    H2 9040   0.283   0.475   0.762
 3012TIP3   OH2 9041   2.947   4.722   3.042
 3012TIP3    H1 9042   2.952   4.639   2.994
 3012TIP3    H2 9043   2.916   4.697   3.129
 3013TIP3   OH2 9044   3.000   1.087   4.934
 3013TIP3    H1 9045   3.008   1.152   4.864
 3013TIP3    H2 9046   2.961   1.011   4.892
 3014TIP3   OH2 9047   0.308   5.900   0.620
 3014TIP3    H1 9048   0.242   5.848   0.666
 3014TIP3    H2 9049   0.297   5.877   0.528
 3015TIP3   OH2 9050   5.703   1.009   2.045
 3015TIP3    H1 9051   5.630   1.064   2.016
 3015TIP3    H2 9052   5.781   1.056   2.017
 3016TIP3   OH2 9053   4.061   3.634   5.116
 3016TIP3    H1 9054   4.138   3.578   5.108
 3016TIP3    H2 9055   4.096   3.721   5.134
 3017TIP3   OH2 9056   0.190   5.552   2.802
 3017TIP3    H1 9057   0.185   5.566   2.707
 3017TIP3    H2 9058   0.283   5.538   2.818
 3018TIP3   OH2 9059   0.332   0.505   3.746
 3018TIP3    H1 9060   0.262   0.557   3.784
 3018TIP3    H2 9061   0.353   0.440   3.812
 3019TIP3   OH2 9062   4.825   0.239   2.745
 3019TIP3    H1 9063   4.820   0.270   2.655
 3019TIP3    H2 9064   4.859   0.313   2.795
 3020TIP3   OH2 9065   0.121   0.132   2.947
 3020TIP3    H1 9066   0.032   0.120   2.977
 3020TIP3    H2 9067   0.126   0.225   2.922
 3021TIP3   OH2 9068   5.613   5.934   3.113
 3021TIP3    H1 9069   5.664   5.854   3.125
 3021TIP3    H2 9070   5.678   6.004   3.113
 3022TIP3   OH2 9071   0.380   2.215   0.743
 3022TIP3    H1 9072   0.473   2.194   0.736
 3022TIP3    H2 9073   0.346   2.211   0.654
 3023TIP3   OH2 9074   3.076   1.353   4.132
 3023TIP3    H1 9075   3.001   1.361   4.074
 3023TIP3    H2 9076   3.041   1.373   4.219
 3024TIP3   OH2 9077   2.760   2.760   0.630
 3024TIP3    H1 9078   2.668   2.782   0.613
 3024TIP3    H2 9079   2.795   2.735   0.545
 3025TIP3   OH2 9080   0.398   3.776   1.472
 3025TIP3    H1 9081   0.402   3.855   1.526
 3025TIP3    H2 9082   0.470   3.785   1.410
 3026TIP3   OH2 9083   2.572   4.033   3.896
 3026TIP3    H1 9084   2.519   3.960   3.865
 3026TIP3    H2 9085   2.562   4.100   3.828
 3027TIP3   OH2 9086   5.455   4.164   1.887
 3027TIP3    H1 9087   5.495   4.113   1.958
 3027TIP3    H2 9088   5.433   4.247   1.928
 3028TIP3   OH2 9089   0.006   5.173   1.535
 3028TIP3    H1 9090  -0.022   5.127   1.456
 3028TIP3    H2 9091  -0.046   5.253   1.535
 3029TIP3   OH2 9092   3.272   1.405   3.532
 3029TIP3    H1 9093   3.309   1.464   3.597
 3029TIP3    H2 9094   3.188   1.445   3.507
 3030TIP3   OH2 9095   0.203   2.072   3.961
 3030TIP3    H1 9096   0.115   2.105   3.975
 3030TIP3    H2 9097   0.195   1.977   3.971
 3031TIP3   OH2 9098   3.073   0.628   0.718
 3031TIP3    H1 9099   3.141   0.695   0.726
 3031TIP3    H2 9100   3.109   0.551   0.763
 3032TIP3   OH2 9101   4.757   4.061   3.622
 3032TIP3    H1 9102   4.668   4.076   3.656
 3032TIP3    H2 9103   4.748   3.981   3.570
 3033TIP3   OH2 9104   6.076   0.119   3.990
 3033TIP3    H1 9105   6.157   0.169   3.993
 3033TIP3    H2 9106   6.012   0.179   3.953
 3034TIP3   OH2 9107   4.276   2.835   2.713
 3034TIP3    H1 9108   4.260   2.746   2.743
 3034TIP3    H2 9109   4.211   2.849   2.644
 3035TIP3   OH2 9110   4.885   2.500   4.921
 3035TIP3    H1 9111   4.951   2.551   4.967
 3035TIP3    H2 9112   4.883   2.537   4.833
 3036TIP3   OH2 9113   2.305   4.861   1.975
 3036TIP3    H1 9114   2.227   4.844   2.028
 3036TIP3    H2 9115   2.323   4.954   1.990
 3037TIP3   OH2 9116   1.401   3.258   3.398
 3037TIP3    H1 9117   1.477   3.298   3.357
 3037TIP3    H2 9118   1.437   3.183   3.446
 3038TIP3   OH2 9119   0.989   3.568   2.389
 3038TIP3    H1 9120   0.950   3.623   2.457
 3038TIP3    H2 9121   0.987   3.480   2.426
 3039TIP3   OH2 9122   3.865   4.698   5.073
 3039TIP3    H1 9123   3.874   4.679   5.166
 3039TIP3    H2 9124   3.825   4.619   5.036
 3040TIP3   OH2 9125   1.847   0.052   0.763
 3040TIP3    H1 9126   1.759   0.044   0.726
 3040TIP3    H2 9127   1.834   0.106   0.842
 3041TIP3   OH2 9128   1.759   4.267   1.822
 3041TIP3    H1 9129   1.767   4.357   1.854
 3041TIP3    H2 9130   1.696   4.226   1.880
 3042TIP3   OH2 9131   3.117   2.019   3.683
 3042TIP3    H1 9132   3.211   2.016   3.701
 3042TIP3    H2 9133   3.075   2.005   3.768
 3043TIP3   OH2 9134   2.746   3.030   0.166
 3043TIP3    H1 9135   2.729   3.124   0.174
 3043TIP3    H2 9136   2.838   3.021   0.188
 3044TIP3   OH2 9137   5.468   5.185   1.869
 3044TIP3    H1 9138   5.508   5.267   1.839
 3044TIP3    H2 9139   5.535   5.118   1.855
 3045TIP3   OH2 9140   2.653   1.601   2.437
 3045TIP3    H1 9141   2.621   1.663   2.502
 3045TIP3    H2 9142   2.658   1.517   2.483
 3046TIP3   OH2 9143   0.520   1.722   5.004
 3046TIP3    H1 9144   0.549   1.744   4.916
 3046TIP3    H2 9145   0.443   1.666   4.990
 3047TIP3   OH2 9146   5.389   4.487   4.215
 3047TIP3    H1 9147   5.442   4.486   4.135
 3047TIP3    H2 9148   5.367   4.395   4.230
 3048TIP3   OH2 9149   1.470   0.093   1.858
 3048TIP3    H1 9150   1.445   0.163   1.918
 3048TIP3    H2 9151   1.544   0.050   1.901
 3049TIP3   OH2 9152   2.912   3.712   1.723
 3049TIP3    H1 9153   2.849   3.745   1.787
 3049TIP3    H2 9154   2.859   3.663   1.661
 3050TIP3   OH2 9155   3.310   2.064   3.163
 3050TIP3    H1 9156   3.225   2.039   3.126
 3050TIP3    H2 9157   3.299   2.054   3.257
 3051TIP3   OH2 9158   3.994   0.980   4.028
 3051TIP3    H1 9159   3.985   0.925   4.106
 3051TIP3    H2 9160   3.917   0.959   3.975
 3052TIP3   OH2 9161   2.895   0.841   0.764
 3052TIP3    H1 9162   2.951   0.769   0.735
 3052TIP3    H2 9163   2.846   0.805   0.838
 3053TIP3   OH2 9164   4.213   5.593   1.356
 3053TIP3    H1 9165   4.278   5.640   1.410
 3053TIP3    H2 9166   4.263   5.563   1.280
 3054TIP3   OH2 9167   5.516   4.399   0.581
 3054TIP3    H1 9168   5.488   4.352   0.660
 3054TIP3    H2 9169   5.438   4.404   0.527
 3055TIP3   OH2 9170   3.060   0.160   4.236
 3055TIP3    H1 9171   3.007   0.203   4.169
 3055TIP3    H2 9172   2.996   0.125   4.299
 3056TIP3   OH2 9173   5.841   2.305   3.943
 3056TIP3    H1 9174   5.921   2.293   3.891
 3056TIP3    H2 9175   5.774   2.325   3.878
 3057TIP3   OH2 9176   0.152   3.625   4.743
 3057TIP3    H1 9177   0.087   3.560   4.717
 3057TIP3    H2 9178   0.231   3.600   4.695
 3058TIP3   OH2 9179   5.958   5.130   0.554
 3058TIP3    H1 9180   6.050   5.117   0.577
 3058TIP3    H2 9181   5.954   5.222   0.525
 3059TIP3   OH2 9182   5.393   1.479   3.542
 3059TIP3    H1 9183   5.388   1.572   3.521
 3059TIP3    H2 9184   5.337   1.468   3.618
 3060TIP3   OH2 9185   4.073   5.501   1.688
 3060TIP3    H1 9186   3.992   5.460   1.718
 3060TIP3    H2 9187   4.045   5.582   1.644
 3061TIP3   OH2 9188   5.301   0.953   2.856
 3061TIP3    H1 9189   5.381   1.001   2.831
 3061TIP3    H2 9190   5.303   0.875   2.801
 3062TIP3   OH2 9191   3.623   3.785   0.714
 3062TIP3    H1 9192   3.618   3.690   0.708
 3062TIP3    H2 9193   3.653   3.813   0.627
 3063TIP3   OH2 9194   0.271   1.050   3.862
 3063TIP3    H1 9195   0.339   1.114   3.883
 3063TIP3    H2 9196   0.307   1.000   3.788
 3064TIP3   OH2 9197   5.723   5.687   3.062
 3064TIP3    H1 9198   5.810   5.726   3.054
 3064TIP3    H2 9199   5.739   5.593   3.061
 3065TIP3   OH2 9200   0.257   2.675   4.316
 3065TIP3    H1 9201   0.287   2.638   4.232
 3065TIP3    H2 9202   0.171   2.636   4.330
 3066TIP3   OH2 9203   0.790   3.676   4.229
 3066TIP3    H1 9204   0.810   3.607   4.293
 3066TIP3    H2 9205   0.876   3.709   4.203
 3067TIP3   OH2 9206   2.032   3.617   3.208
 3067TIP3    H1 9207   1.952   3.599   3.158
 3067TIP3    H2 9208   2.007   3.601   3.299
 3068TIP3   OH2 9209   3.545   1.053   4.779
 3068TIP3    H1 9210   3.460   1.096   4.793
 3068TIP3    H2 9211   3.522   0.962   4.761
 3069TIP3   OH2 9212   0.316   3.027   0.576
 3069TIP3    H1 9213   0.337   3.024   0.669
 3069TIP3    H2 9214   0.335   3.118   0.551
 3070TIP3   OH2 9215   0.419   0.861   1.672
 3070TIP3    H1 9216   0.465   0.889   1.751
 3070TIP3    H2 9217   0.488   0.842   1.608
 3071TIP3   OH2 9218   4.819   4.563   0.314
 3071TIP3    H1 9219   4.836   4.533   0.404
 3071TIP3    H2 9220   4.777   4.489   0.271
 3072TIP3   OH2 9221   3.290   3.564   4.420
 3072TIP3    H1 9222   3.249   3.485   4.385
 3072TIP3    H2 9223   3.382   3.540   4.432
 3073TIP3   OH2 9224   3.752   3.336   3.071
 3073TIP3    H1 9225   3.697   3.309   2.997
 3073TIP3    H2 9226   3.795   3.416   3.040
 3074TIP3   OH2 9227   1.017   3.471   0.023
 3074TIP3    H1 9228   1.013   3.377   0.004
 3074TIP3    H2 9229   1.046   3.476   0.114
 3075TIP3   OH2 9230   5.125   2.804   2.713
 3075TIP3    H1 9231   5.100   2.754   2.790
 3075TIP3    H2 9232   5.189   2.868   2.745
 3076TIP3   OH2 9233   2.694   1.842   3.881
 3076TIP3    H1 9234   2.628   1.908   3.901
 3076TIP3    H2 9235   2.668   1.807   3.796
 3077TIP3   OH2 9236   6.346   2.876   1.723
 3077TIP3    H1 9237   6.270   2.823   1.700
 3077TIP3    H2 9238   6.319   2.966   1.703
 3078TIP3   OH2 9239   1.625   3.398   3.276
 3078TIP3    H1 9240   1.664   3.404   3.363
 3078TIP3    H2 9241   1.696   3.366   3.220
 3079TIP3   OH2 9242   2.723   3.716   2.756
 3079TIP3    H1 9243   2.631   3.724   2.732
 3079TIP3    H2 9244   2.766   3.789   2.710
 3080TIP3   OH2 9245   5.888   4.614   5.177
 3080TIP3    H1 9246   5.864   4.624   5.085
 3080TIP3    H2 9247   5.815   4.568   5.217
 3081TIP3   OH2 9248   5.064   1.839   0.545
 3081TIP3    H1 9249   5.152   1.865   0.518
 3081TIP3    H2 9250   5.005   1.892   0.491
 3082TIP3   OH2 9251   2.696   0.886   2.971
 3082TIP3    H1 9252   2.742   0.968   2.986
 3082TIP3    H2 9253   2.766   0.821   2.958
 3083TIP3   OH2 9254   5.357   2.445   2.270
 3083TIP3    H1 9255   5.332   2.398   2.190
 3083TIP3    H2 9256   5.453   2.442   2.271
 3084TIP3   OH2 9257   3.199   2.176   4.528
 3084TIP3    H1 9258   3.212   2.109   4.460
 3084TIP3    H2 9259   3.284   2.182   4.572
 3085TIP3   OH2 9260   3.331   0.212   4.310
 3085TIP3    H1 9261   3.240   0.183   4.305
 3085TIP3    H2 9262   3.350   0.247   4.223
 3086TIP3   OH2 9263   4.119   5.940   1.167
 3086TIP3    H1 9264   4.076   6.024   1.185
 3086TIP3    H2 9265   4.047   5.878   1.161
 3087TIP3   OH2 9266   1.357   5.713   0.298
 3087TIP3    H1 9267   1.370   5.777   0.227
 3087TIP3    H2 9268   1.315   5.763   0.368
 3088TIP3   OH2 9269   0.650   1.888   3.173
 3088TIP3    H1 9270   0.666   1.796   3.153
 3088TIP3    H2 9271   0.561   1.890   3.210
 3089TIP3   OH2 9272   5.469   3.032   2.615
 3089TIP3    H1 9273   5.487   2.955   2.562
 3089TIP3    H2 9274   5.433   2.996   2.697
 3090TIP3   OH2 9275   4.084   0.226   2.201
 3090TIP3    H1 9276   4.146   0.296   2.218
 3090TIP3    H2 9277   4.138   0.150   2.180
 3091TIP3   OH2 9278   2.025   2.941   2.996
 3091TIP3    H1 9279   2.055   2.950   2.906
 3091TIP3    H2 9280   2.053   2.853   3.022
 3092TIP3   OH2 9281   5.352   0.095   4.609
 3092TIP3    H1 9282   5.336   0.122   4.519
 3092TIP3    H2 9283   5.440   0.058   4.608
 3093TIP3   OH2 9284   5.378   5.645   2.717
 3093TIP3    H1 9285   5.314   5.708   2.749
 3093TIP3    H2 9286   5.463   5.681   2.745
 3094TIP3   OH2 9287   1.944   4.851   3.264
 3094TIP3    H1 9288   1.958   4.880   3.354
 3094TIP3    H2 9289   1.867   4.794   3.269
 3095TIP3   OH2 9290   4.032   0.773   2.041
 3095TIP3    H1 9291   4.035   0.678   2.030
 3095TIP3    H2 9292   4.090   0.790   2.116
 3096TIP3   OH2 9293   5.574   0.767   1.339
 3096TIP3    H1 9294   5.593   0.776   1.246
 3096TIP3    H2 9295   5.538   0.853   1.365
 3097TIP3   OH2 9296   4.530   4.792   0.212
 3097TIP3    H1 9297   4.518   4.873   0.261
 3097TIP3    H2 9298   4.441   4.763   0.191
 3098TIP3   OH2 9299   1.977   5.536   2.153
 3098TIP3    H1 9300   1.915   5.497   2.214
 3098TIP3    H2 9301   2.055   5.481   2.159
 3099TIP3   OH2 9302   4.955   4.764   4.628
 3099TIP3    H1 9303   4.997   4.842   4.665
 3099TIP3    H2 9304   4.967   4.697   4.695
 3100TIP3   OH2 9305   3.655   4.885   2.646
 3100TIP3    H1 9306   3.660   4.976   2.676
 3100TIP3    H2 9307   3.609   4.840   2.717
 3101TIP3   OH2 9308   1.255   0.391   1.353
 3101TIP3    H1 9309   1.310   0.464   1.323
 3101TIP3    H2 9310   1.222   0.420   1.438
 3102TIP3   OH2 9311   0.777   0.159   1.682
 3102TIP3    H1 9312   0.822   0.075   1.691
 3102TIP3    H2 9313   0.729   0.170   1.764
 3103TIP3   OH2 9314   2.459   1.731   2.995
 3103TIP3    H1 9315   2.452   1.826   2.988
 3103TIP3    H2 9316   2.506   1.717   3.077
 3104TIP3   OH2 9317   5.195   0.076   4.126
 3104TIP3    H1 9318   5.250   0.154   4.135
 3104TIP3    H2 9319   5.133   0.098   4.057
 3105TIP3   OH2 9320   4.429   1.014   2.218
 3105TIP3    H1 9321   4.349   1.042   2.174
 3105TIP3    H2 9322   4.437   1.073   2.293
 3106TIP3   OH2 9323   1.963   3.708   4.106
 3106TIP3    H1 9324   1.908   3.786   4.095
 3106TIP3    H2 9325   1.901   3.636   4.118
 3107TIP3   OH2 9326   2.201   2.513   2.981
 3107TIP3    H1 9327   2.196   2.525   2.886
 3107TIP3    H2 9328   2.215   2.601   3.016
 3108TIP3   OH2 9329   3.459   4.964   3.080
 3108TIP3    H1 9330   3.414   5.032   3.029
 3108TIP3    H2 9331   3.404   4.952   3.157
 3109TIP3   OH2 9332   4.636   2.083   2.155
 3109TIP3    H1 9333   4.644   1.992   2.183
 3109TIP3    H2 9334   4.717   2.125   2.184
 3110TIP3   OH2 9335   3.000   5.313   3.357
 3110TIP3    H1 9336   3.065   5.333   3.290
 3110TIP3    H2 9337   2.986   5.219   3.351
 3111TIP3   OH2 9338   5.155   0.897   0.459
 3111TIP3    H1 9339   5.140   0.984   0.496
 3111TIP3    H2 9340   5.069   0.870   0.427
 3112TIP3   OH2 9341   4.847   2.674   3.326
 3112TIP3    H1 9342   4.787   2.740   3.291
 3112TIP3    H2 9343   4.929   2.721   3.341
 3113TIP3   OH2 9344   1.657   2.382   0.666
 3113TIP3    H1 9345   1.674   2.476   0.657
 3113TIP3    H2 9346   1.744   2.343   0.673
 3114TIP3   OH2 9347   1.630   3.632   4.503
 3114TIP3    H1 9348   1.552   3.643   4.558
 3114TIP3    H2 9349   1.618   3.696   4.433
 3115TIP3   OH2 9350   3.678   0.374   4.784
 3115TIP3    H1 9351   3.651   0.348   4.872
 3115TIP3    H2 9352   3.736   0.449   4.799
 3116TIP3   OH2 9353   5.837   0.448   1.568
 3116TIP3    H1 9354   5.794   0.415   1.646
 3116TIP3    H2 9355   5.772   0.506   1.527
 3117TIP3   OH2 9356   5.106   2.026   2.265
 3117TIP3    H1 9357   5.142   2.088   2.201
 3117TIP3    H2 9358   5.041   1.976   2.216
 3118TIP3   OH2 9359   2.240   3.577   5.095
 3118TIP3    H1 9360   2.250   3.542   5.007
 3118TIP3    H2 9361   2.172   3.521   5.135
 3119TIP3   OH2 9362   3.459   0.213   0.551
 3119TIP3    H1 9363   3.384   0.256   0.510
 3119TIP3    H2 9364   3.420   0.139   0.598
 3120TIP3   OH2 9365   3.954   3.522   0.940
 3120TIP3    H1 9366   3.923   3.609   0.913
 3120TIP3    H2 9367   3.873   3.474   0.961
 3121TIP3   OH2 9368   5.413   4.215   4.234
 3121TIP3    H1 9369   5.351   4.153   4.196
 3121TIP3    H2 9370   5.471   4.160   4.288
 3122TIP3   OH2 9371   5.041   3.602   2.278
 3122TIP3    H1 9372   4.951   3.630   2.298
 3122TIP3    H2 9373   5.095   3.651   2.339
 3123TIP3   OH2 9374   6.277   4.416   3.416
 3123TIP3    H1 9375   6.314   4.368   3.490
 3123TIP3    H2 9376   6.193   4.372   3.400
 3124TIP3   OH2 9377   3.184   4.050   1.485
 3124TIP3    H1 9378   3.108   4.000   1.456
 3124TIP3    H2 9379   3.232   3.990   1.542
 3125TIP3   OH2 9380   3.933   1.316   3.214
 3125TIP3    H1 9381   3.971   1.401   3.236
 3125TIP3    H2 9382   3.838   1.332   3.214
 3126TIP3   OH2 9383   6.144   4.599   1.939
 3126TIP3    H1 9384   6.177   4.582   1.850
 3126TIP3    H2 9385   6.172   4.688   1.959
 3127TIP3   OH2 9386   2.423   5.227   3.358
 3127TIP3    H1 9387   2.472   5.288   3.413
 3127TIP3    H2 9388   2.373   5.282   3.298
 3128TIP3   OH2 9389   5.776   1.312   1.105
 3128TIP3    H1 9390   5.761   1.339   1.014
 3128TIP3    H2 9391   5.740   1.383   1.158
 3129TIP3   OH2 9392   2.734   5.545   2.693
 3129TIP3    H1 9393   2.642   5.566   2.707
 3129TIP3    H2 9394   2.764   5.610   2.630
 3130TIP3   OH2 9395   1.613   0.446   3.794
 3130TIP3    H1 9396   1.605   0.459   3.889
 3130TIP3    H2 9397   1.549   0.377   3.774
 3131TIP3   OH2 9398   5.372   0.712   5.069
 3131TIP3    H1 9399   5.424   0.745   5.143
 3131TIP3    H2 9400   5.318   0.642   5.107
 3132TIP3   OH2 9401   3.752   5.651   0.092
 3132TIP3    H1 9402   3.748   5.685   0.182
 3132TIP3    H2 9403   3.841   5.617   0.084
 3133TIP3   OH2 9404   6.228   0.950   0.518
 3133TIP3    H1 9405   6.242   0.886   0.587
 3133TIP3    H2 9406   6.264   0.909   0.439
 3134TIP3   OH2 9407   4.314   1.133   1.479
 3134TIP3    H1 9408   4.344   1.064   1.538
 3134TIP3    H2 9409   4.336   1.215   1.523
 3135TIP3   OH2 9410   1.996   2.886   0.117
 3135TIP3    H1 9411   1.904   2.877   0.091
 3135TIP3    H2 9412   1.995   2.955   0.183
 3136TIP3   OH2 9413   3.057   5.678   0.221
 3136TIP3    H1 9414   3.059   5.753   0.281
 3136TIP3    H2 9415   2.965   5.652   0.217
 3137TIP3   OH2 9416   4.535   4.539   1.224
 3137TIP3    H1 9417   4.532   4.608   1.158
 3137TIP3    H2 9418   4.455   4.552   1.275
 3138TIP3   OH2 9419   3.037   0.108   1.788
 3138TIP3    H1 9420   3.121   0.150   1.807
 3138TIP3    H2 9421   2.985   0.177   1.746
 3139TIP3   OH2 9422   3.351   1.440   1.719
 3139TIP3    H1 9423   3.394   1.518   1.754
 3139TIP3    H2 9424   3.274   1.473   1.673
 3140TIP3   OH2 9425   1.441   0.888   3.830
 3140TIP3    H1 9426   1.492   0.897   3.911
 3140TIP3    H2 9427   1.499   0.840   3.771
 3141TIP3   OH2 9428   0.915   1.297   4.594
 3141TIP3    H1 9429   0.974   1.288   4.519
 3141TIP3    H2 9430   0.827   1.302   4.555
 3142TIP3   OH2 9431   1.631   4.581   3.907
 3142TIP3    H1 9432   1.537   4.596   3.899
 3142TIP3    H2 9433   1.643   4.489   3.880
 3143TIP3   OH2 9434   5.278   3.127   2.400
 3143TIP3    H1 9435   5.336   3.097   2.330
 3143TIP3    H2 9436   5.334   3.134   2.476
 3144TIP3   OH2 9437   3.324   3.212   1.222
 3144TIP3    H1 9438   3.311   3.183   1.313
 3144TIP3    H2 9439   3.406   3.262   1.225
 3145TIP3   OH2 9440   4.159   4.338   2.688
 3145TIP3    H1 9441   4.094   4.269   2.675
 3145TIP3    H2 9442   4.132   4.408   2.629
 3146TIP3   OH2 9443   3.884   0.613   2.238
 3146TIP3    H1 9444   3.861   0.579   2.151
 3146TIP3    H2 9445   3.914   0.535   2.286
 3147TIP3   OH2 9446   1.132   5.014   4.168
 3147TIP3    H1 9447   1.065   5.067   4.212
 3147TIP3    H2 9448   1.215   5.045   4.206
 3148TIP3   OH2 9449   2.535   5.786   0.825
 3148TIP3    H1 9450   2.582   5.832   0.895
 3148TIP3    H2 9451   2.443   5.809   0.839
 3149TIP3   OH2 9452   3.710   1.401   1.058
 3149TIP3    H1 9453   3.693   1.475   0.999
 3149TIP3    H2 9454   3.650   1.415   1.131
 3150TIP3   OH2 9455   2.306   4.006   4.961
 3150TIP3    H1 9456   2.237   4.061   4.926
 3150TIP3    H2 9457   2.361   4.065   5.013
 3151TIP3   OH2 9458   4.810   5.151   2.006
 3151TIP3    H1 9459   4.858   5.210   2.063
 3151TIP3    H2 9460   4.795   5.201   1.926
 3152TIP3   OH2 9461   4.930   0.250   4.727
 3152TIP3    H1 9462   4.917   0.322   4.789
 3152TIP3    H2 9463   4.940   0.172   4.782
 3153TIP3   OH2 9464   5.899   0.825   4.293
 3153TIP3    H1 9465   5.893   0.755   4.228
 3153TIP3    H2 9466   5.870   0.903   4.246
 3154TIP3   OH2 9467   0.691   2.227   1.298
 3154TIP3    H1 9468   0.700   2.317   1.329
 3154TIP3    H2 9469   0.778   2.204   1.265
 3155TIP3   OH2 9470   1.993   5.229   2.793
 3155TIP3    H1 9471   1.923   5.169   2.768
 3155TIP3    H2 9472   1.960   5.272   2.872
 3156TIP3   OH2 9473   0.783   5.699   0.862
 3156TIP3    H1 9474   0.834   5.693   0.781
 3156TIP3    H2 9475   0.759   5.609   0.882
 3157TIP3   OH2 9476   6.168   1.202   0.437
 3157TIP3    H1 9477   6.076   1.220   0.421
 3157TIP3    H2 9478   6.169   1.118   0.484
 3158TIP3   OH2 9479   0.079   1.348   2.834
 3158TIP3    H1 9480   0.171   1.330   2.852
 3158TIP3    H2 9481   0.064   1.313   2.746
 3159TIP3   OH2 9482   4.812   4.501   2.546
 3159TIP3    H1 9483   4.907   4.506   2.539
 3159TIP3    H2 9484   4.780   4.521   2.457
 3160TIP3   OH2 9485   0.964   1.023   0.848
 3160TIP3    H1 9486   1.051   0.990   0.871
 3160TIP3    H2 9487   0.975   1.063   0.762
 3161TIP3   OH2 9488   1.843   0.401   4.373
 3161TIP3    H1 9489   1.803   0.461   4.436
 3161TIP3    H2 9490   1.928   0.441   4.353
 3162TIP3   OH2 9491   0.510   0.702   3.722
 3162TIP3    H1 9492   0.444   0.633   3.724
 3162TIP3    H2 9493   0.486   0.757   3.648
 3163TIP3   OH2 9494   0.879   0.148   0.764
 3163TIP3    H1 9495   0.919   0.227   0.729
 3163TIP3    H2 9496   0.937   0.077   0.736
 3164TIP3   OH2 9497   1.223   0.950   2.922
 3164TIP3    H1 9498   1.213   1.036   2.883
 3164TIP3    H2 9499   1.288   0.962   2.991
 3165TIP3   OH2 9500   0.353   4.714   0.517
 3165TIP3    H1 9501   0.339   4.658   0.441
 3165TIP3    H2 9502   0.372   4.654   0.589
 3166TIP3   OH2 9503   6.179   2.788   0.945
 3166TIP3    H1 9504   6.229   2.847   1.002
 3166TIP3    H2 9505   6.235   2.775   0.869
 3167TIP3   OH2 9506   5.656   5.134   2.289
 3167TIP3    H1 9507   5.661   5.124   2.384
 3167TIP3    H2 9508   5.563   5.150   2.271
 3168TIP3   OH2 9509   0.866   2.032   2.434
 3168TIP3    H1 9510   0.829   1.998   2.515
 3168TIP3    H2 9511   0.852   2.127   2.439
 3169TIP3   OH2 9512   4.551   5.112   2.625
 3169TIP3    H1 9513   4.478   5.163   2.661
 3169TIP3    H2 9514   4.606   5.092   2.701
 3170TIP3   OH2 9515   4.840   3.210   4.931
 3170TIP3    H1 9516   4.830   3.116   4.917
 3170TIP3    H2 9517   4.828   3.222   5.025
 3171TIP3   OH2 9518   0.302   4.850   2.754
 3171TIP3    H1 9519   0.243   4.912   2.711
 3171TIP3    H2 9520   0.355   4.905   2.812
 3172TIP3   OH2 9521   3.437   5.912   1.256
 3172TIP3    H1 9522   3.397   5.997   1.271
 3172TIP3    H2 9523   3.380   5.869   1.192
 3173TIP3   OH2 9524   0.613   0.111   4.161
 3173TIP3    H1 9525   0.528   0.103   4.118
 3173TIP3    H2 9526   0.614   0.200   4.195
 3174TIP3   OH2 9527   5.448   3.234   2.012
 3174TIP3    H1 9528   5.433   3.328   2.021
 3174TIP3    H2 9529   5.383   3.206   1.948
 3175TIP3   OH2 9530   4.906   0.346   2.499
 3175TIP3    H1 9531   4.986   0.294   2.494
 3175TIP3    H2 9532   4.935   0.429   2.537
 3176TIP3   OH2 9533   5.271   0.769   0.791
 3176TIP3    H1 9534   5.193   0.759   0.845
 3176TIP3    H2 9535   5.239   0.772   0.701
 3177TIP3   OH2 9536   3.167   0.142   1.371
 3177TIP3    H1 9537   3.133   0.078   1.433
 3177TIP3    H2 9538   3.237   0.096   1.324
 3178TIP3   OH2 9539   1.526   1.755   4.022
 3178TIP3    H1 9540   1.518   1.755   4.117
 3178TIP3    H2 9541   1.575   1.675   4.002
 3179TIP3   OH2 9542   1.883   4.801   0.744
 3179TIP3    H1 9543   1.892   4.865   0.673
 3179TIP3    H2 9544   1.899   4.852   0.824
 3180TIP3   OH2 9545   4.018   4.404   0.502
 3180TIP3    H1 9546   4.113   4.411   0.512
 3180TIP3    H2 9547   4.003   4.412   0.407
 3181TIP3   OH2 9548   5.893   1.900   0.460
 3181TIP3    H1 9549   5.954   1.950   0.514
 3181TIP3    H2 9550   5.812   1.897   0.512
 3182TIP3   OH2 9551   3.318   1.790   2.350
 3182TIP3    H1 9552   3.306   1.849   2.425
 3182TIP3    H2 9553   3.251   1.722   2.362
 3183TIP3   OH2 9554   0.732   1.097   2.790
 3183TIP3    H1 9555   0.689   1.013   2.774
 3183TIP3    H2 9556   0.809   1.095   2.733
 3184TIP3   OH2 9557   2.068   4.991   0.118
 3184TIP3    H1 9558   1.982   5.031   0.131
 3184TIP3    H2 9559   2.086   4.945   0.200
 3185TIP3   OH2 9560   3.086   5.978   2.619
 3185TIP3    H1 9561   3.023   5.944   2.682
 3185TIP3    H2 9562   3.171   5.967   2.661
 3186TIP3   OH2 9563   6.260   3.340   1.954
 3186TIP3    H1 9564   6.246   3.364   1.862
 3186TIP3    H2 9565   6.246   3.421   2.002
 3187TIP3   OH2 9566   1.123   2.009   3.921
 3187TIP3    H1 9567   1.163   2.010   4.007
 3187TIP3    H2 9568   1.031   1.989   3.937
 3188TIP3   OH2 9569   0.192   0.702   3.927
 3188TIP3    H1 9570   0.279   0.727   3.959
 3188TIP3    H2 9571   0.143   0.680   4.006
 3189TIP3   OH2 9572   3.949   0.177   4.440
 3189TIP3    H1 9573   4.015   0.141   4.499
 3189TIP3    H2 9574   3.871   0.186   4.495
 3190TIP3   OH2 9575   3.484   5.265   3.344
 3190TIP3    H1 9576   3.460   5.357   3.333
 3190TIP3    H2 9577   3.400   5.219   3.353
 3191TIP3   OH2 9578   2.428   3.054   3.586
 3191TIP3    H1 9579   2.448   3.147   3.601
 3191TIP3    H2 9580   2.501   3.007   3.625
 3192TIP3   OH2 9581   0.387   4.999   0.801
 3192TIP3    H1 9582   0.437   5.012   0.721
 3192TIP3    H2 9583   0.441   4.941   0.855
 3193TIP3   OH2 9584   3.014   2.615   3.058
 3193TIP3    H1 9585   2.964   2.567   3.125
 3193TIP3    H2 9586   3.009   2.706   3.086
 3194TIP3   OH2 9587   3.790   1.629   2.363
 3194TIP3    H1 9588   3.835   1.559   2.411
 3194TIP3    H2 9589   3.842   1.707   2.380
 3195TIP3   OH2 9590   5.598   5.408   1.779
 3195TIP3    H1 9591   5.562   5.494   1.757
 3195TIP3    H2 9592   5.686   5.409   1.741
 3196TIP3   OH2 9593   4.232   0.118   3.975
 3196TIP3    H1 9594   4.242   0.205   3.936
 3196TIP3    H2 9595   4.322   0.088   3.990
 3197TIP3   OH2 9596   4.251   4.633   2.003
 3197TIP3    H1 9597   4.311   4.628   2.077
 3197TIP3    H2 9598   4.209   4.719   2.011
 3198TIP3   OH2 9599   4.971   0.488   1.712
 3198TIP3    H1 9600   5.042   0.522   1.766
 3198TIP3    H2 9601   4.993   0.516   1.623
 3199TIP3   OH2 9602   5.167   4.159   0.492
 3199TIP3    H1 9603   5.085   4.197   0.461
 3199TIP3    H2 9604   5.233   4.227   0.478
 3200TIP3   OH2 9605   2.879   2.364   3.550
 3200TIP3    H1 9606   2.934   2.302   3.503
 3200TIP3    H2 9607   2.789   2.337   3.531
 3201TIP3   OH2 9608   5.903   5.673   0.534
 3201TIP3    H1 9609   5.959   5.746   0.504
 3201TIP3    H2 9610   5.909   5.677   0.630
 3202TIP3   OH2 9611   5.838   5.185   0.199
 3202TIP3    H1 9612   5.876   5.272   0.202
 3202TIP3    H2 9613   5.911   5.127   0.175
 3203TIP3   OH2 9614   1.962   0.305   0.978
 3203TIP3    H1 9615   1.965   0.210   0.974
 3203TIP3    H2 9616   1.880   0.324   1.024
 3204TIP3   OH2 9617   4.527   2.592   5.003
 3204TIP3    H1 9618   4.568   2.554   4.925
 3204TIP3    H2 9619   4.434   2.576   4.990
 3205TIP3   OH2 9620   1.487   5.211   4.457
 3205TIP3    H1 9621   1.486   5.143   4.390
 3205TIP3    H2 9622   1.422   5.184   4.521
 3206TIP3   OH2 9623   4.311   4.126   0.365
 3206TIP3    H1 9624   4.376   4.116   0.435
 3206TIP3    H2 9625   4.228   4.101   0.405
 3207TIP3   OH2 9626   5.355   0.725   3.211
 3207TIP3    H1 9627   5.292   0.790   3.242
 3207TIP3    H2 9628   5.437   0.773   3.200
 3208TIP3   OH2 9629   5.094   2.258   2.110
 3208TIP3    H1 9630   5.031   2.289   2.044
 3208TIP3    H2 9631   5.056   2.286   2.193
 3209TIP3   OH2 9632   3.020   0.944   4.563
 3209TIP3    H1 9633   3.084   0.873   4.570
 3209TIP3    H2 9634   3.011   0.959   4.469
 3210TIP3   OH2 9635   4.190   0.393   3.279
 3210TIP3    H1 9636   4.162   0.377   3.189
 3210TIP3    H2 9637   4.114   0.431   3.322
 3211TIP3   OH2 9638   2.209   3.492   0.090
 3211TIP3    H1 9639   2.209   3.397   0.104
 3211TIP3    H2 9640   2.277   3.524   0.148
 3212TIP3   OH2 9641   0.716   0.103   3.515
 3212TIP3    H1 9642   0.707   0.183   3.566
 3212TIP3    H2 9643   0.758   0.041   3.574
 3213TIP3   OH2 9644   4.077   1.744   0.687
 3213TIP3    H1 9645   4.085   1.670   0.626
 3213TIP3    H2 9646   4.146   1.804   0.660
 3214TIP3   OH2 9647   5.685   1.065   0.725
 3214TIP3    H1 9648   5.594   1.035   0.736
 3214TIP3    H2 9649   5.715   1.083   0.814
 3215TIP3   OH2 9650   5.945   3.279   0.554
 3215TIP3    H1 9651   5.974   3.370   0.563
 3215TIP3    H2 9652   6.016   3.227   0.592
 3216TIP3   OH2 9653   0.429   4.814   1.749
 3216TIP3    H1 9654   0.390   4.850   1.670
 3216TIP3    H2 9655   0.470   4.732   1.722
 3217TIP3   OH2 9656   3.995   5.063   1.166
 3217TIP3    H1 9657   3.920   5.015   1.203
 3217TIP3    H2 9658   3.955   5.128   1.108
 3218TIP3   OH2 9659   0.566   3.702   0.020
 3218TIP3    H1 9660   0.592   3.774   0.077
 3218TIP3    H2 9661   0.629   3.633   0.039
 3219TIP3   OH2 9662   1.728   2.125   5.068
 3219TIP3    H1 9663   1.719   2.169   5.153
 3219TIP3    H2 9664   1.665   2.054   5.070
 3220TIP3   OH2 9665   4.585   3.177   2.793
 3220TIP3    H1 9666   4.509   3.126   2.822
 3220TIP3    H2 9667   4.616   3.133   2.714
 3221TIP3   OH2 9668   2.386   3.614   3.682
 3221TIP3    H1 9669   2.442   3.627   3.605
 3221TIP3    H2 9670   2.429   3.664   3.752
 3222TIP3   OH2 9671   3.899   0.878   3.051
 3222TIP3    H1 9672   3.987   0.909   3.072
 3222TIP3    H2 9673   3.873   0.929   2.975
 3223TIP3   OH2 9674   2.350   4.437   3.237
 3223TIP3    H1 9675   2.365   4.455   3.329
 3223TIP3    H2 9676   2.426   4.474   3.192
 3224TIP3   OH2 9677   4.645   4.226   0.687
 3224TIP3    H1 9678   4.583   4.208   0.758
 3224TIP3    H2 9679   4.731   4.218   0.728
 3225TIP3   OH2 9680   2.573   1.162   4.623
 3225TIP3    H1 9681   2.631   1.206   4.686
 3225TIP3    H2 9682   2.506   1.227   4.603
 3226TIP3   OH2 9683   4.799   5.929   0.384
 3226TIP3    H1 9684   4.811   6.005   0.441
 3226TIP3    H2 9685   4.736   5.958   0.318
 3227TIP3   OH2 9686   0.789   5.950   4.578
 3227TIP3    H1 9687   0.703   5.915   4.556
 3227TIP3    H2 9688   0.777   5.994   4.662
 3228TIP3   OH2 9689   4.584   1.327   2.140
 3228TIP3    H1 9690   4.633   1.404   2.112
 3228TIP3    H2 9691   4.538   1.355   2.219
 3229TIP3   OH2 9692   4.407   5.703   3.678
 3229TIP3    H1 9693   4.458   5.752   3.614
 3229TIP3    H2 9694   4.351   5.646   3.625
 3230TIP3   OH2 9695   2.549   3.098   1.858
 3230TIP3    H1 9696   2.543   3.012   1.818
 3230TIP3    H2 9697   2.463   3.112   1.898
 3231TIP3   OH2 9698   4.942   2.286   3.450
 3231TIP3    H1 9699   4.977   2.317   3.366
 3231TIP3    H2 9700   4.886   2.212   3.426
 3232TIP3   OH2 9701   6.195   5.463   2.530
 3232TIP3    H1 9702   6.178   5.452   2.436
 3232TIP3    H2 9703   6.109   5.483   2.568
 3233TIP3   OH2 9704   5.332   3.129   0.676
 3233TIP3    H1 9705   5.297   3.043   0.651
 3233TIP3    H2 9706   5.353   3.120   0.769
 3234TIP3   OH2 9707   0.101   0.780   2.368
 3234TIP3    H1 9708   0.046   0.752   2.295
 3234TIP3    H2 9709   0.045   0.837   2.420
 3235TIP3   OH2 9710   5.309   0.653   2.135
 3235TIP3    H1 9711   5.330   0.632   2.044
 3235TIP3    H2 9712   5.372   0.602   2.186
 3236TIP3   OH2 9713   3.286   4.909   2.726
 3236TIP3    H1 9714   3.206   4.913   2.779
 3236TIP3    H2 9715   3.270   4.971   2.655
 3237TIP3   OH2 9716   5.523   0.340   1.326
 3237TIP3    H1 9717   5.488   0.418   1.285
 3237TIP3    H2 9718   5.462   0.270   1.300
 3238TIP3   OH2 9719   4.786   2.042   2.829
 3238TIP3    H1 9720   4.789   2.137   2.841
 3238TIP3    H2 9721   4.763   2.031   2.736
 3239TIP3   OH2 9722   1.361   1.691   0.827
 3239TIP3    H1 9723   1.333   1.605   0.859
 3239TIP3    H2 9724   1.329   1.695   0.737
 3240TIP3   OH2 9725   0.819   4.526   4.163
 3240TIP3    H1 9726   0.802   4.507   4.071
 3240TIP3    H2 9727   0.733   4.519   4.206
 3241TIP3   OH2 9728   5.192   5.351   1.317
 3241TIP3    H1 9729   5.220   5.381   1.231
 3241TIP3    H2 9730   5.164   5.430   1.363
 3242TIP3   OH2 9731   6.003   4.736   3.649
 3242TIP3    H1 9732   5.975   4.812   3.701
 3242TIP3    H2 9733   5.932   4.673   3.658
 3243TIP3   OH2 9734   5.328   5.914   4.429
 3243TIP3    H1 9735   5.355   6.005   4.418
 3243TIP3    H2 9736   5.285   5.911   4.514
 3244TIP3   OH2 9737   5.331   2.950   0.308
 3244TIP3    H1 9738   5.410   2.931   0.360
 3244TIP3    H2 9739   5.364   2.988   0.227
 3245TIP3   OH2 9740   5.250   1.154   2.591
 3245TIP3    H1 9741   5.198   1.082   2.627
 3245TIP3    H2 9742   5.244   1.143   2.496
 3246TIP3   OH2 9743   5.050   4.287   5.043
 3246TIP3    H1 9744   4.963   4.257   5.069
 3246TIP3    H2 9745   5.065   4.245   4.958
 3247TIP3   OH2 9746   4.731   0.709   0.126
 3247TIP3    H1 9747   4.657   0.736   0.072
 3247TIP3    H2 9748   4.762   0.628   0.086
 3248TIP3   OH2 9749   3.655   2.571   4.761
 3248TIP3    H1 9750   3.623   2.615   4.682
 3248TIP3    H2 9751   3.702   2.495   4.728
 3249TIP3   OH2 9752   1.832   1.210   1.920
 3249TIP3    H1 9753   1.845   1.301   1.948
 3249TIP3    H2 9754   1.915   1.167   1.941
 3250TIP3   OH2 9755   0.715   1.565   0.852
 3250TIP3    H1 9756   0.648   1.517   0.901
 3250TIP3    H2 9757   0.773   1.497   0.818
 3251TIP3   OH2 9758   5.709   4.369   0.390
 3251TIP3    H1 9759   5.646   4.398   0.455
 3251TIP3    H2 9760   5.790   4.416   0.412
 3252TIP3   OH2 9761   2.914   2.481   4.772
 3252TIP3    H1 9762   2.836   2.497   4.826
 3252TIP3    H2 9763   2.959   2.409   4.818
 3253TIP3   OH2 9764   2.465   1.553   2.240
 3253TIP3    H1 9765   2.436   1.595   2.321
 3253TIP3    H2 9766   2.560   1.549   2.248
 3254TIP3   OH2 9767   2.522   5.123   0.852
 3254TIP3    H1 9768   2.430   5.147   0.864
 3254TIP3    H2 9769   2.562   5.141   0.937
 3255TIP3   OH2 9770   4.291   3.349   0.912
 3255TIP3    H1 9771   4.262   3.299   0.989
 3255TIP3    H2 9772   4.279   3.440   0.937
 3256TIP3   OH2 9773   1.624   2.454   1.478
 3256TIP3    H1 9774   1.592   2.423   1.393
 3256TIP3    H2 9775   1.580   2.398   1.542
 3257TIP3   OH2 9776   4.806   4.923   2.200
 3257TIP3    H1 9777   4.852   4.973   2.132
 3257TIP3    H2 9778   4.876   4.877   2.247
 3258TIP3   OH2 9779   0.108   5.670   1.376
 3258TIP3    H1 9780   0.104   5.765   1.372
 3258TIP3    H2 9781   0.046   5.641   1.309
 3259TIP3   OH2 9782   4.289   3.044   3.577
 3259TIP3    H1 9783   4.365   2.989   3.597
 3259TIP3    H2 9784   4.278   3.038   3.482
 3260TIP3   OH2 9785   3.121   4.655   0.418
 3260TIP3    H1 9786   3.035   4.670   0.380
 3260TIP3    H2 9787   3.138   4.733   0.471
 3261TIP3   OH2 9788   0.487   2.519   2.048
 3261TIP3    H1 9789   0.481   2.433   2.090
 3261TIP3    H2 9790   0.566   2.513   1.994
 3262TIP3   OH2 9791   4.942   0.561   4.179
 3262TIP3    H1 9792   5.006   0.492   4.157
 3262TIP3    H2 9793   4.966   0.634   4.122
 3263TIP3   OH2 9794   1.535   3.624   4.904
 3263TIP3    H1 9795   1.458   3.607   4.958
 3263TIP3    H2 9796   1.607   3.580   4.949
 3264TIP3   OH2 9797   2.164   5.770   3.380
 3264TIP3    H1 9798   2.141   5.680   3.404
 3264TIP3    H2 9799   2.208   5.761   3.295
 3265TIP3   OH2 9800   1.104   5.608   1.464
 3265TIP3    H1 9801   1.160   5.678   1.431
 3265TIP3    H2 9802   1.032   5.603   1.401
 3266TIP3   OH2 9803   0.286   1.042   3.433
 3266TIP3    H1 9804   0.291   1.005   3.345
 3266TIP3    H2 9805   0.376   1.069   3.453
 3267TIP3   OH2 9806   2.343   2.869   3.406
 3267TIP3    H1 9807   2.401   2.927   3.455
 3267TIP3    H2 9808   2.374   2.781   3.427
 3268TIP3   OH2 9809   0.309   3.308   4.771
 3268TIP3    H1 9810   0.371   3.248   4.728
 3268TIP3    H2 9811   0.363   3.358   4.832
 3269TIP3   OH2 9812   6.279   4.844   4.474
 3269TIP3    H1 9813   6.304   4.918   4.529
 3269TIP3    H2 9814   6.276   4.879   4.385
 3270TIP3   OH2 9815   5.855   0.029   5.093
 3270TIP3    H1 9816   5.826  -0.052   5.052
 3270TIP3    H2 9817   5.792   0.095   5.062
 3271TIP3   OH2 9818   4.162   0.035   4.947
 3271TIP3    H1 9819   4.158  -0.056   4.979
 3271TIP3    H2 9820   4.254   0.058   4.951
 3272TIP3   OH2 9821   2.329   5.192   3.057
 3272TIP3    H1 9822   2.413   5.161   3.088
 3272TIP3    H2 9823   2.320   5.280   3.093
 3273TIP3   OH2 9824   0.193   3.922   1.255
 3273TIP3    H1 9825   0.281   3.931   1.218
 3273TIP3    H2 9826   0.149   3.859   1.197
 3274TIP3   OH2 9827   1.536   4.926   2.299
 3274TIP3    H1 9828   1.507   5.004   2.251
 3274TIP3    H2 9829   1.484   4.855   2.263
 3275TIP3   OH2 9830   1.868   2.637   1.670
 3275TIP3    H1 9831   1.773   2.642   1.680
 3275TIP3    H2 9832   1.901   2.628   1.759
 3276TIP3   OH2 9833   1.477   5.947   2.573
 3276TIP3    H1 9834   1.445   5.922   2.486
 3276TIP3    H2 9835   1.569   5.922   2.574
 3277TIP3   OH2 9836   2.829   1.865   4.125
 3277TIP3    H1 9837   2.781   1.849   4.043
 3277TIP3    H2 9838   2.843   1.959   4.127
 3278TIP3   OH2 9839   4.821   0.783   1.568
 3278TIP3    H1 9840   4.790   0.874   1.557
 3278TIP3    H2 9841   4.810   0.766   1.661
 3279TIP3   OH2 9842   2.674   5.340   3.106
 3279TIP3    H1 9843   2.754   5.379   3.070
 3279TIP3    H2 9844   2.604   5.378   3.054
 3280TIP3   OH2 9845   0.427   0.206   3.557
 3280TIP3    H1 9846   0.495   0.140   3.543
 3280TIP3    H2 9847   0.474   0.282   3.590
 3281TIP3   OH2 9848   0.807   2.399   3.566
 3281TIP3    H1 9849   0.827   2.327   3.625
 3281TIP3    H2 9850   0.721   2.376   3.529
 3282TIP3   OH2 9851   4.167   5.799   3.799
 3282TIP3    H1 9852   4.242   5.748   3.770
 3282TIP3    H2 9853   4.098   5.778   3.736
 3283TIP3   OH2 9854   3.709   1.070   4.224
 3283TIP3    H1 9855   3.700   1.165   4.217
 3283TIP3    H2 9856   3.703   1.039   4.134
 3284TIP3   OH2 9857   0.903   5.826   4.348
 3284TIP3    H1 9858   0.873   5.890   4.413
 3284TIP3    H2 9859   0.838   5.756   4.353
 3285TIP3   OH2 9860   3.313   3.172   3.448
 3285TIP3    H1 9861   3.327   3.245   3.508
 3285TIP3    H2 9862   3.269   3.212   3.372
 3286TIP3   OH2 9863   0.946   1.943   3.200
 3286TIP3    H1 9864   0.944   1.849   3.219
 3286TIP3    H2 9865   0.859   1.962   3.166
 3287TIP3   OH2 9866   4.549   1.127   1.790
 3287TIP3    H1 9867   4.582   1.065   1.855
 3287TIP3    H2 9868   4.473   1.167   1.831
 3288TIP3   OH2 9869   0.109   1.160   4.327
 3288TIP3    H1 9870   0.114   1.108   4.408
 3288TIP3    H2 9871   0.066   1.102   4.264
 3289TIP3   OH2 9872   5.722   2.306   2.522
 3289TIP3    H1 9873   5.699   2.337   2.610
 3289TIP3    H2 9874   5.740   2.212   2.534
 3290TIP3   OH2 9875   5.666   2.292   5.070
 3290TIP3    H1 9876   5.741   2.237   5.049
 3290TIP3    H2 9877   5.613   2.240   5.130
 3291TIP3   OH2 9878   5.528   3.364   0.022
 3291TIP3    H1 9879   5.466   3.432   0.048
 3291TIP3    H2 9880   5.545   3.315   0.102
 3292TIP3   OH2 9881   3.510   5.316   3.008
 3292TIP3    H1 9882   3.450   5.251   2.972
 3292TIP3    H2 9883   3.516   5.384   2.940
 3293TIP3   OH2 9884   5.931   0.119   4.553
 3293TIP3    H1 9885   5.989   0.189   4.523
 3293TIP3    H2 9886   5.864   0.112   4.484
 3294TIP3   OH2 9887   4.425   0.658   1.932
 3294TIP3    H1 9888   4.393   0.617   1.851
 3294TIP3    H2 9889   4.379   0.741   1.937
 3295TIP3   OH2 9890   3.267   0.711   2.590
 3295TIP3    H1 9891   3.244   0.804   2.600
 3295TIP3    H2 9892   3.183   0.666   2.588
 3296TIP3   OH2 9893   5.268   4.034   0.912
 3296TIP3    H1 9894   5.184   3.992   0.934
 3296TIP3    H2 9895   5.327   3.961   0.893
 3297TIP3   OH2 9896   4.106   0.050   4.660
 3297TIP3    H1 9897   4.115  -0.034   4.617
 3297TIP3    H2 9898   4.158   0.042   4.740
 3298TIP3   OH2 9899   1.263   5.498   1.848
 3298TIP3    H1 9900   1.316   5.500   1.768
 3298TIP3    H2 9901   1.192   5.560   1.831
 3299TIP3   OH2 9902   3.763   1.120   4.625
 3299TIP3    H1 9903   3.773   1.057   4.553
 3299TIP3    H2 9904   3.699   1.080   4.683
 3300TIP3   OH2 9905   3.765   0.355   1.642
 3300TIP3    H1 9906   3.742   0.276   1.691
 3300TIP3    H2 9907   3.805   0.323   1.562
 3301TIP3   OH2 9908   0.743   1.711   1.718
 3301TIP3    H1 9909   0.830   1.674   1.732
 3301TIP3    H2 9910   0.684   1.636   1.714
 3302TIP3   OH2 9911   3.466   0.886   0.529
 3302TIP3    H1 9912   3.517   0.825   0.583
 3302TIP3    H2 9913   3.531   0.927   0.471
 3303TIP3   OH2 9914   1.221   0.401   4.064
 3303TIP3    H1 9915   1.200   0.359   3.981
 3303TIP3    H2 9916   1.308   0.367   4.087
 3304TIP3   OH2 9917   2.663   1.802   1.428
 3304TIP3    H1 9918   2.614   1.807   1.346
 3304TIP3    H2 9919   2.608   1.848   1.492
 3305TIP3   OH2 9920   0.600   2.785   4.636
 3305TIP3    H1 9921   0.635   2.769   4.548
 3305TIP3    H2 9922   0.651   2.859   4.669
 3306TIP3   OH2 9923   3.687   4.002   1.138
 3306TIP3    H1 9924   3.709   4.095   1.141
 3306TIP3    H2 9925   3.764   3.958   1.174
 3307TIP3   OH2 9926   3.781   3.650   2.556
 3307TIP3    H1 9927   3.692   3.677   2.581
 3307TIP3    H2 9928   3.771   3.561   2.523
 3308TIP3   OH2 9929   0.888   3.637   2.740
 3308TIP3    H1 9930   0.849   3.557   2.704
 3308TIP3    H2 9931   0.827   3.707   2.715
 3309TIP3   OH2 9932   4.295   0.940   1.889
 3309TIP3    H1 9933   4.212   0.915   1.848
 3309TIP3    H2 9934   4.270   1.001   1.959
 3310TIP3   OH2 9935   5.451   0.707   2.945
 3310TIP3    H1 9936   5.397   0.698   3.024
 3310TIP3    H2 9937   5.388   0.708   2.873
 3311TIP3   OH2 9938   2.112   4.498   5.108
 3311TIP3    H1 9939   2.181   4.557   5.138
 3311TIP3    H2 9940   2.052   4.554   5.059
 3312TIP3   OH2 9941   1.340   5.085   0.644
 3312TIP3    H1 9942   1.251   5.086   0.680
 3312TIP3    H2 9943   1.393   5.132   0.709
 3313TIP3   OH2 9944   4.344   3.762   3.169
 3313TIP3    H1 9945   4.308   3.770   3.081
 3313TIP3    H2 9946   4.411   3.693   3.161
 3314TIP3   OH2 9947   4.694   1.902   1.024
 3314TIP3    H1 9948   4.650   1.981   1.056
 3314TIP3    H2 9949   4.636   1.866   0.957
 3315TIP3   OH2 9950   4.337   3.665   4.051
 3315TIP3    H1 9951   4.373   3.742   4.006
 3315TIP3    H2 9952   4.409   3.634   4.106
 3316TIP3   OH2 9953   2.174   3.356   3.939
 3316TIP3    H1 9954   2.125   3.274   3.925
 3316TIP3    H2 9955   2.192   3.388   3.851
 3317TIP3   OH2 9956   4.545   0.213   0.952
 3317TIP3    H1 9957   4.481   0.278   0.923
 3317TIP3    H2 9958   4.493   0.135   0.970
 3318TIP3   OH2 9959   5.992   3.507   3.864
 3318TIP3    H1 9960   5.995   3.415   3.840
 3318TIP3    H2 9961   6.078   3.541   3.842
 3319TIP3   OH2 9962   1.730   5.699   2.269
 3319TIP3    H1 9963   1.664   5.643   2.309
 3319TIP3    H2 9964   1.779   5.640   2.211
 3320TIP3   OH2 9965   5.642   4.865   3.154
 3320TIP3    H1 9966   5.658   4.953   3.188
 3320TIP3    H2 9967   5.677   4.807   3.220
 3321TIP3   OH2 9968   4.928   5.825   4.211
 3321TIP3    H1 9969   4.920   5.825   4.306
 3321TIP3    H2 9970   4.878   5.901   4.182
 3322TIP3   OH2 9971   1.301   5.552   4.206
 3322TIP3    H1 9972   1.226   5.594   4.249
 3322TIP3    H2 9973   1.370   5.552   4.272
 3323TIP3   OH2 9974   1.513   0.448   5.053
 3323TIP3    H1 9975   1.522   0.360   5.089
 3323TIP3    H2 9976   1.602   0.472   5.025
 3324TIP3   OH2 9977   5.970   3.301   0.072
 3324TIP3    H1 9978   6.008   3.223   0.031
 3324TIP3    H2 9979   5.915   3.339   0.003
 3325TIP3   OH2 9980   4.201   2.444   2.475
 3325TIP3    H1 9981   4.152   2.523   2.448
 3325TIP3    H2 9982   4.133   2.380   2.494
 3326TIP3   OH2 9983   0.080   2.425   3.157
 3326TIP3    H1 9984   0.115   2.430   3.068
 3326TIP3    H2 9985  -0.005   2.382   3.146
 3327TIP3   OH2 9986   5.136   1.879   4.721
 3327TIP3    H1 9987   5.171   1.894   4.809
 3327TIP3    H2 9988   5.043   1.866   4.735
 3328TIP3   OH2 9989   5.470   4.364   4.492
 3328TIP3    H1 9990   5.461   4.347   4.398
 3328TIP3    H2 9991   5.430   4.288   4.534
 3329TIP3   OH2 9992   4.160   5.033   4.925
 3329TIP3    H1 9993   4.151   4.966   4.992
 3329TIP3    H2 9994   4.140   4.989   4.843
 3330TIP3   OH2 9995   3.479   1.192   2.170
 3330TIP3    H1 9996   3.545   1.244   2.216
 3330TIP3    H2 9997   3.441   1.251   2.105
 3331TIP3   OH2 9998   0.185   2.743   0.335
 3331TIP3    H1 9999   0.124   2.748   0.262
 3331TIP3    H210000   0.264   2.786   0.304
 3332TIP3   OH210001   4.950   3.253   2.651
 3332TIP3    H110002   4.904   3.320   2.703
 3332TIP3    H210003   4.916   3.170   2.685
 3333TIP3   OH210004   2.868   2.857   0.852
 3333TIP3    H110005   2.821   2.827   0.774
 3333TIP3    H210006   2.958   2.872   0.822
 3334TIP3   OH210007   0.781   3.624   3.559
 3334TIP3    H110008   0.831   3.662   3.487
 3334TIP3    H210009   0.844   3.620   3.631
 3335TIP3   OH210010   5.116   2.235   2.725
 3335TIP3    H110011   5.039   2.260   2.777
 3335TIP3    H210012   5.154   2.319   2.698
 3336TIP3   OH210013   1.666   4.994   1.531
 3336TIP3    H110014   1.646   4.964   1.620
 3336TIP3    H210015   1.728   4.929   1.497
 3337TIP3   OH210016   3.028   0.601   3.910
 3337TIP3    H110017   3.112   0.556   3.898
 3337TIP3    H210018   2.971   0.563   3.842
 3338TIP3   OH210019   0.865   1.905   1.912
 3338TIP3    H110020   0.853   1.832   1.851
 3338TIP3    H210021   0.929   1.873   1.975
 3339TIP3   OH210022   0.603   0.184   0.049
 3339TIP3    H110023   0.668   0.174  -0.021
 3339TIP3    H210024   0.628   0.265   0.093
 3340TIP3   OH210025   3.112   4.052   4.585
 3340TIP3    H110026   3.107   3.959   4.564
 3340TIP3    H210027   3.124   4.055   4.680
 3341TIP3   OH210028   6.069   1.538   4.931
 3341TIP3    H110029   6.086   1.629   4.908
 3341TIP3    H210030   6.026   1.542   5.016
 3342TIP3   OH210031   4.688   3.831   0.708
 3342TIP3    H110032   4.609   3.786   0.679
 3342TIP3    H210033   4.721   3.876   0.631
 3343TIP3   OH210034   6.316   3.214   4.433
 3343TIP3    H110035   6.278   3.177   4.354
 3343TIP3    H210036   6.292   3.152   4.503
 3344TIP3   OH210037   1.339   1.179   3.420
 3344TIP3    H110038   1.289   1.241   3.473
 3344TIP3    H210039   1.360   1.107   3.480
 3345TIP3   OH210040   5.235   5.907   4.692
 3345TIP3    H110041   5.290   5.880   4.765
 3345TIP3    H210042   5.173   5.969   4.731
 3346TIP3   OH210043   0.817   2.832   2.733
 3346TIP3    H110044   0.839   2.851   2.824
 3346TIP3    H210045   0.729   2.795   2.736
 3347TIP3   OH210046   0.538   3.416   1.914
 3347TIP3    H110047   0.602   3.417   1.985
 3347TIP3    H210048   0.494   3.332   1.923
 3348TIP3   OH210049   6.067   4.122   0.507
 3348TIP3    H110050   6.051   4.129   0.601
 3348TIP3    H210051   5.985   4.088   0.471
 3349TIP3   OH210052   0.977   5.375   0.122
 3349TIP3    H110053   0.943   5.340   0.204
 3349TIP3    H210054   0.908   5.356   0.058
 3350TIP3   OH210055   0.273   3.667   1.256
 3350TIP3    H110056   0.200   3.612   1.282
 3350TIP3    H210057   0.301   3.709   1.337
 3351TIP3   OH210058   2.859   4.069   0.590
 3351TIP3    H110059   2.764   4.068   0.579
 3351TIP3    H210060   2.872   4.058   0.684
 3352TIP3   OH210061   2.170   2.224   3.030
 3352TIP3    H110062   2.206   2.312   3.037
 3352TIP3    H210063   2.126   2.223   2.945
 3353TIP3   OH210064   1.314   1.129   5.090
 3353TIP3    H110065   1.228   1.139   5.132
 3353TIP3    H210066   1.374   1.113   5.162
 3354TIP3   OH210067   0.969   0.166   5.175
 3354TIP3    H110068   1.062   0.157   5.153
 3354TIP3    H210069   0.959   0.117   5.256
 3355TIP3   OH210070   2.989   0.496   1.405
 3355TIP3    H110071   3.051   0.548   1.355
 3355TIP3    H210072   3.006   0.521   1.496
 3356TIP3   OH210073   6.004   4.820   1.503
 3356TIP3    H110074   6.030   4.891   1.443
 3356TIP3    H210075   6.082   4.804   1.556
 3357TIP3   OH210076   5.502   1.203   5.068
 3357TIP3    H110077   5.567   1.271   5.084
 3357TIP3    H210078   5.550   1.121   5.076
 3358TIP3   OH210079   2.449   0.985   2.068
 3358TIP3    H110080   2.398   1.025   2.138
 3358TIP3    H210081   2.416   1.027   1.988
 3359TIP3   OH210082   4.036   2.909   0.427
 3359TIP3    H110083   4.130   2.925   0.419
 3359TIP3    H210084   4.007   2.968   0.496
 3360TIP3   OH210085   1.698   1.029   3.651
 3360TIP3    H110086   1.609   1.062   3.639
 3360TIP3    H210087   1.718   0.985   3.568
 3361TIP3   OH210088   3.530   3.788   4.324
 3361TIP3    H110089   3.605   3.847   4.333
 3361TIP3    H210090   3.526   3.769   4.230
 3362TIP3   OH210091   1.017   4.689   4.099
 3362TIP3    H110092   0.943   4.641   4.136
 3362TIP3    H210093   0.989   4.780   4.098
 3363TIP3   OH210094   3.238   4.856   3.261
 3363TIP3    H110095   3.268   4.804   3.335
 3363TIP3    H210096   3.204   4.791   3.199
 3364TIP3   OH210097   0.745   3.465   1.686
 3364TIP3    H110098   0.664   3.473   1.735
 3364TIP3    H210099   0.800   3.407   1.740
 3365TIP3   OH210100   5.228   3.989   2.574
 3365TIP3    H110101   5.239   3.945   2.490
 3365TIP3    H210102   5.139   3.967   2.601
 3366TIP3   OH210103   0.988   2.443   2.118
 3366TIP3    H110104   0.973   2.531   2.083
 3366TIP3    H210105   0.917   2.430   2.181
 3367TIP3   OH210106   6.151   2.037   1.806
 3367TIP3    H110107   6.075   2.070   1.854
 3367TIP3    H210108   6.199   2.116   1.779
 3368TIP3   OH210109   4.996   0.256   4.454
 3368TIP3    H110110   4.984   0.255   4.549
 3368TIP3    H210111   4.953   0.176   4.424
 3369TIP3   OH210112   5.710   0.550   3.432
 3369TIP3    H110113   5.643   0.571   3.497
 3369TIP3    H210114   5.780   0.612   3.448
 3370TIP3   OH210115   4.748   1.012   1.448
 3370TIP3    H110116   4.770   1.043   1.360
 3370TIP3    H210117   4.714   1.089   1.493
 3371TIP3   OH210118   1.698   4.674   2.633
 3371TIP3    H110119   1.673   4.728   2.558
 3371TIP3    H210120   1.672   4.726   2.709
 3372TIP3   OH210121   4.090   3.012   3.794
 3372TIP3    H110122   4.166   3.034   3.740
 3372TIP3    H210123   4.055   3.096   3.821
 3373TIP3   OH210124   5.832   2.898   4.242
 3373TIP3    H110125   5.912   2.941   4.271
 3373TIP3    H210126   5.767   2.921   4.308
 3374TIP3   OH210127   1.496   0.375   0.245
 3374TIP3    H110128   1.471   0.286   0.218
 3374TIP3    H210129   1.543   0.410   0.169
 3375TIP3   OH210130   2.514   4.852   1.079
 3375TIP3    H110131   2.508   4.934   1.127
 3375TIP3    H210132   2.576   4.869   1.009
 3376TIP3   OH210133   0.902   5.419   2.339
 3376TIP3    H110134   0.862   5.476   2.274
 3376TIP3    H210135   0.848   5.430   2.417
 3377TIP3   OH210136   3.918   0.190   4.986
 3377TIP3    H110137   3.985   0.123   4.999
 3377TIP3    H210138   3.839   0.141   4.962
 3378TIP3   OH210139   6.205   3.976   1.124
 3378TIP3    H110140   6.283   3.952   1.074
 3378TIP3    H210141   6.224   4.064   1.156
 3379TIP3   OH210142   4.011   4.570   4.178
 3379TIP3    H110143   3.937   4.622   4.208
 3379TIP3    H210144   4.018   4.499   4.241
 3380TIP3   OH210145   2.113   5.405   1.787
 3380TIP3    H110146   2.057   5.476   1.755
 3380TIP3    H210147   2.169   5.446   1.853
 3381TIP3   OH210148   4.562   2.122   1.129
 3381TIP3    H110149   4.644   2.171   1.114
 3381TIP3    H210150   4.545   2.133   1.222
 3382TIP3   OH210151   0.642   0.694   1.851
 3382TIP3    H110152   0.562   0.641   1.852
 3382TIP3    H210153   0.697   0.654   1.919
 3383TIP3   OH210154   0.054   1.321   4.941
 3383TIP3    H110155  -0.006   1.318   5.016
 3383TIP3    H210156   0.011   1.380   4.878
 3384TIP3   OH210157   5.349   4.970   0.776
 3384TIP3    H110158   5.305   4.891   0.809
 3384TIP3    H210159   5.338   5.035   0.846
 3385TIP3   OH210160   4.078   5.427   2.971
 3385TIP3    H110161   4.004   5.368   2.986
 3385TIP3    H210162   4.084   5.435   2.876
 3386TIP3   OH210163   0.657   5.157   0.663
 3386TIP3    H110164   0.626   5.079   0.617
 3386TIP3    H210165   0.577   5.206   0.683
 3387TIP3   OH210166   0.381   0.067   0.226
 3387TIP3    H110167   0.432   0.111   0.159
 3387TIP3    H210168   0.336   0.138   0.273
 3388TIP3   OH210169   0.430   1.919   1.705
 3388TIP3    H110170   0.442   1.860   1.780
 3388TIP3    H210171   0.483   1.995   1.726
 3389TIP3   OH210172   0.902   5.745   5.026
 3389TIP3    H110173   0.875   5.764   5.116
 3389TIP3    H210174   0.956   5.819   5.001
 3390TIP3   OH210175   2.089   3.113   4.386
 3390TIP3    H110176   2.114   3.149   4.301
 3390TIP3    H210177   2.062   3.189   4.437
 3391TIP3   OH210178   1.851   0.615   3.246
 3391TIP3    H110179   1.791   0.540   3.242
 3391TIP3    H210180   1.938   0.575   3.253
 3392TIP3   OH210181   4.172   1.995   3.738
 3392TIP3    H110182   4.250   2.051   3.745
 3392TIP3    H210183   4.177   1.938   3.815
 3393TIP3   OH210184   1.838   5.163   0.224
 3393TIP3    H110185   1.845   5.250   0.186
 3393TIP3    H210186   1.834   5.177   0.318
 3394TIP3   OH210187   1.089   0.736   0.290
 3394TIP3    H110188   1.111   0.817   0.334
 3394TIP3    H210189   1.159   0.675   0.314
 3395TIP3   OH210190   1.753   2.002   3.874
 3395TIP3    H110191   1.754   2.009   3.970
 3395TIP3    H210192   1.684   2.062   3.847
 3396TIP3   OH210193   2.655   2.279   4.709
 3396TIP3    H110194   2.643   2.344   4.778
 3396TIP3    H210195   2.574   2.228   4.710
 3397TIP3   OH210196   4.840   3.587   1.926
 3397TIP3    H110197   4.775   3.635   1.875
 3397TIP3    H210198   4.924   3.624   1.899
 3398TIP3   OH210199   3.606   3.343   1.869
 3398TIP3    H110200   3.657   3.278   1.918
 3398TIP3    H210201   3.635   3.427   1.904
 3399TIP3   OH210202   5.004   4.873   3.183
 3399TIP3    H110203   5.063   4.812   3.139
 3399TIP3    H210204   4.936   4.818   3.221
 3400TIP3   OH210205   4.524   1.006   0.445
 3400TIP3    H110206   4.500   0.951   0.519
 3400TIP3    H210207   4.495   1.094   0.470
 3401TIP3   OH210208   2.376   2.336   4.966
 3401TIP3    H110209   2.421   2.417   4.990
 3401TIP3    H210210   2.442   2.268   4.976
 3402TIP3   OH210211   4.003   0.999   4.752
 3402TIP3    H110212   3.952   1.058   4.697
 3402TIP3    H210213   3.940   0.963   4.815
 3403TIP3   OH210214   2.715   1.114   0.902
 3403TIP3    H110215   2.753   1.120   0.814
 3403TIP3    H210216   2.632   1.068   0.889
 3404TIP3   OH210217   4.217   1.808   1.774
 3404TIP3    H110218   4.124   1.808   1.753
 3404TIP3    H210219   4.221   1.770   1.862
 3405TIP3   OH210220   1.966   0.753   4.834
 3405TIP3    H110221   1.992   0.685   4.771
 3405TIP3    H210222   2.049   0.788   4.866
 3406TIP3   OH210223   2.031   1.947   0.898
 3406TIP3    H110224   1.976   2.023   0.884
 3406TIP3    H210225   2.080   1.936   0.816
 3407TIP3   OH210226   4.351   1.862   3.916
 3407TIP3    H110227   4.347   1.925   3.988
 3407TIP3    H210228   4.445   1.849   3.901
 3408TIP3   OH210229   6.273   3.140   1.655
 3408TIP3    H110230   6.241   3.227   1.677
 3408TIP3    H210231   6.300   3.147   1.564
 3409TIP3   OH210232   2.947   0.280   2.540
 3409TIP3    H110233   2.867   0.248   2.582
 3409TIP3    H210234   3.006   0.301   2.612
 3410TIP3   OH210235   3.068   3.516   2.328
 3410TIP3    H110236   3.156   3.479   2.325
 3410TIP3    H210237   3.066   3.567   2.409
 3411TIP3   OH210238   6.011   3.593   5.164
 3411TIP3    H110239   6.095   3.638   5.176
 3411TIP3    H210240   5.977   3.580   5.252
 3412TIP3   OH210241   5.116   4.221   2.676
 3412TIP3    H110242   5.134   4.172   2.756
 3412TIP3    H210243   5.135   4.160   2.605
 3413TIP3   OH210244   6.136   3.572   2.057
 3413TIP3    H110245   6.145   3.652   2.005
 3413TIP3    H210246   6.054   3.583   2.105
 3414TIP3   OH210247   2.793   2.143   1.465
 3414TIP3    H110248   2.846   2.066   1.484
 3414TIP3    H210249   2.740   2.156   1.544
 3415TIP3   OH210250   3.229   3.571   0.799
 3415TIP3    H110251   3.280   3.594   0.876
 3415TIP3    H210252   3.245   3.643   0.738
 3416TIP3   OH210253   5.997   1.375   2.792
 3416TIP3    H110254   6.022   1.455   2.746
 3416TIP3    H210255   5.938   1.330   2.732
 3417TIP3   OH210256   0.558   5.821   1.231
 3417TIP3    H110257   0.594   5.732   1.230
 3417TIP3    H210258   0.635   5.878   1.235
 3418TIP3   OH210259   2.546   2.072   3.498
 3418TIP3    H110260   2.528   2.103   3.587
 3418TIP3    H210261   2.465   2.087   3.450
 3419TIP3   OH210262   1.850   2.092   3.183
 3419TIP3    H110263   1.829   2.029   3.252
 3419TIP3    H210264   1.862   2.038   3.105
 3420TIP3   OH210265   1.838   4.689   2.170
 3420TIP3    H110266   1.820   4.727   2.256
 3420TIP3    H210267   1.858   4.597   2.188
 3421TIP3   OH210268   1.239   1.928   1.776
 3421TIP3    H110269   1.318   1.925   1.831
 3421TIP3    H210270   1.168   1.904   1.836
 3422TIP3   OH210271   3.058   1.058   3.994
 3422TIP3    H110272   3.023   1.114   4.064
 3422TIP3    H210273   3.125   1.113   3.951
 3423TIP3   OH210274   2.789   3.391   1.274
 3423TIP3    H110275   2.697   3.378   1.298
 3423TIP3    H210276   2.787   3.403   1.179
 3424TIP3   OH210277   2.647   4.501   5.026
 3424TIP3    H110278   2.714   4.460   4.970
 3424TIP3    H210279   2.576   4.523   4.966
 3425TIP3   OH210280   3.310   0.158   2.458
 3425TIP3    H110281   3.306   0.077   2.406
 3425TIP3    H210282   3.268   0.135   2.541
 3426TIP3   OH210283   1.659   5.022   0.066
 3426TIP3    H110284   1.667   5.087  -0.003
 3426TIP3    H210285   1.709   5.058   0.139
 3427TIP3   OH210286   3.335   3.395   0.569
 3427TIP3    H110287   3.403   3.363   0.629
 3427TIP3    H210288   3.310   3.480   0.606
 3428TIP3   OH210289   3.853   1.003   2.781
 3428TIP3    H110290   3.765   1.025   2.751
 3428TIP3    H210291   3.905   1.081   2.761
 3429TIP3   OH210292   0.523   2.491   1.635
 3429TIP3    H110293   0.569   2.508   1.717
 3429TIP3    H210294   0.452   2.555   1.634
 3430TIP3   OH210295   2.998   4.107   3.409
 3430TIP3    H110296   3.085   4.144   3.420
 3430TIP3    H210297   2.962   4.152   3.332
 3431TIP3   OH210298   0.308   3.860   3.372
 3431TIP3    H110299   0.246   3.825   3.436
 3431TIP3    H210300   0.393   3.852   3.416
 3432TIP3   OH210301   5.542   5.016   4.016
 3432TIP3    H110302   5.597   5.016   3.938
 3432TIP3    H210303   5.484   4.941   4.005
 3433TIP3   OH210304   2.884   2.511   1.381
 3433TIP3    H110305   2.889   2.571   1.307
 3433TIP3    H210306   2.841   2.562   1.450
 3434TIP3   OH210307   4.138   0.333   5.010
 3434TIP3    H110308   4.054   0.298   4.981
 3434TIP3    H210309   4.187   0.347   4.930
 3435TIP3   OH210310   0.772   5.600   2.045
 3435TIP3    H110311   0.761   5.693   2.025
 3435TIP3    H210312   0.748   5.556   1.963
 3436TIP3   OH210313   6.070   5.712   2.033
 3436TIP3    H110314   6.165   5.711   2.046
 3436TIP3    H210315   6.056   5.659   1.954
 3437TIP3   OH210316   0.024   2.345   3.705
 3437TIP3    H110317   0.055   2.410   3.768
 3437TIP3    H210318   0.066   2.369   3.622
 3438TIP3   OH210319   5.510   0.052   4.142
 3438TIP3    H110320   5.557   0.004   4.074
 3438TIP3    H210321   5.483   0.133   4.101
 3439TIP3   OH210322   4.321   5.805   0.030
 3439TIP3    H110323   4.325   5.898   0.008
 3439TIP3    H210324   4.377   5.796   0.107
 3440TIP3   OH210325   2.994   1.940   3.470
 3440TIP3    H110326   3.048   1.917   3.545
 3440TIP3    H210327   3.027   2.024   3.440
 3441TIP3   OH210328   4.936   2.890   3.969
 3441TIP3    H110329   4.945   2.971   4.020
 3441TIP3    H210330   5.005   2.895   3.903
 3442TIP3   OH210331   4.980   4.893   0.048
 3442TIP3    H110332   5.008   4.834  -0.023
 3442TIP3    H210333   5.009   4.849   0.128
 3443TIP3   OH210334   4.288   2.126   0.122
 3443TIP3    H110335   4.358   2.066   0.095
 3443TIP3    H210336   4.293   2.198   0.058
 3444TIP3   OH210337   3.492   5.961   2.358
 3444TIP3    H110338   3.511   5.970   2.265
 3444TIP3    H210339   3.527   5.875   2.382
 3445TIP3   OH210340   3.525   0.165   1.500
 3445TIP3    H110341   3.469   0.116   1.560
 3445TIP3    H210342   3.480   0.249   1.489
 3446TIP3   OH210343   6.168   4.332   4.673
 3446TIP3    H110344   6.151   4.395   4.744
 3446TIP3    H210345   6.247   4.285   4.702
 3447TIP3   OH210346   6.289   5.855   1.120
 3447TIP3    H110347   6.282   5.770   1.077
 3447TIP3    H210348   6.315   5.915   1.050
 3448TIP3   OH210349   5.518   3.897   2.184
 3448TIP3    H110350   5.549   3.984   2.207
 3448TIP3    H210351   5.588   3.838   2.213
 3449TIP3   OH210352   1.907   0.130   2.061
 3449TIP3    H110353   1.856   0.098   2.136
 3449TIP3    H210354   1.896   0.225   2.064
 3450TIP3   OH210355   2.389   3.758   1.034
 3450TIP3    H110356   2.422   3.793   1.117
 3450TIP3    H210357   2.436   3.676   1.022
 3451TIP3   OH210358   5.157   3.866   1.217
 3451TIP3    H110359   5.091   3.875   1.148
 3451TIP3    H210360   5.240   3.864   1.170
 3452TIP3   OH210361   6.069   1.960   3.995
 3452TIP3    H110362   6.019   1.979   4.074
 3452TIP3    H210363   6.099   1.870   4.006
 3453TIP3   OH210364   2.759   2.967   2.769
 3453TIP3    H110365   2.681   2.998   2.723
 3453TIP3    H210366   2.829   3.023   2.737
 3454TIP3   OH210367   5.865   1.023   2.719
 3454TIP3    H110368   5.788   0.977   2.686
 3454TIP3    H210369   5.908   0.960   2.776
 3455TIP3   OH210370   2.996   2.904   4.238
 3455TIP3    H110371   3.020   2.813   4.249
 3455TIP3    H210372   2.914   2.914   4.288
 3456TIP3   OH210373   5.756   0.103   4.333
 3456TIP3    H110374   5.802   0.065   4.259
 3456TIP3    H210375   5.673   0.056   4.337
 3457TIP3   OH210376   4.346   5.835   1.762
 3457TIP3    H110377   4.333   5.741   1.773
 3457TIP3    H210378   4.441   5.847   1.763
 3458TIP3   OH210379   1.977   3.750   5.085
 3458TIP3    H110380   2.059   3.706   5.106
 3458TIP3    H210381   1.954   3.799   5.163
 3459TIP3   OH210382   4.449   4.102   2.000
 3459TIP3    H110383   4.501   4.134   1.926
 3459TIP3    H210384   4.475   4.010   2.010
 3460TIP3   OH210385   4.894   4.261   0.802
 3460TIP3    H110386   4.942   4.178   0.806
 3460TIP3    H210387   4.882   4.286   0.894
 3461TIP3   OH210388   1.565   5.046   0.490
 3461TIP3    H110389   1.488   5.073   0.540
 3461TIP3    H210390   1.638   5.092   0.531
 3462TIP3   OH210391   0.244   2.024   1.125
 3462TIP3    H110392   0.173   1.960   1.123
 3462TIP3    H210393   0.207   2.101   1.081
 3463TIP3   OH210394   5.253   5.534   4.070
 3463TIP3    H110395   5.244   5.446   4.109
 3463TIP3    H210396   5.168   5.551   4.030
 3464TIP3   OH210397   1.714   0.176   3.992
 3464TIP3    H110398   1.723   0.272   3.991
 3464TIP3    H210399   1.729   0.150   3.901
 3465TIP3   OH210400   4.463   1.184   2.471
 3465TIP3    H110401   4.414   1.143   2.543
 3465TIP3    H210402   4.545   1.214   2.512
 3466TIP3   OH210403   6.220   3.628   2.503
 3466TIP3    H110404   6.151   3.565   2.526
 3466TIP3    H210405   6.284   3.576   2.454
 3467TIP3   OH210406   0.037   0.924   4.679
 3467TIP3    H110407   0.101   0.995   4.686
 3467TIP3    H210408  -0.045   0.963   4.708
 3468TIP3   OH210409   2.736   4.363   2.726
 3468TIP3    H110410   2.731   4.269   2.708
 3468TIP3    H210411   2.723   4.371   2.820
 3469TIP3   OH210412   1.320   5.232   4.711
 3469TIP3    H110413   1.315   5.187   4.796
 3469TIP3    H210414   1.229   5.247   4.686
 3470TIP3   OH210415   0.285   1.552   4.944
 3470TIP3    H110416   0.282   1.457   4.931
 3470TIP3    H210417   0.213   1.570   5.004
 3471TIP3   OH210418   4.506   3.586   4.777
 3471TIP3    H110419   4.441   3.650   4.749
 3471TIP3    H210420   4.458   3.502   4.777
 3472TIP3   OH210421   2.340   2.941   4.078
 3472TIP3    H110422   2.359   2.852   4.047
 3472TIP3    H210423   2.397   2.952   4.154
 3473TIP3   OH210424   1.309   3.437   4.892
 3473TIP3    H110425   1.361   3.357   4.906
 3473TIP3    H210426   1.243   3.434   4.961
 3474TIP3   OH210427   1.608   5.645   1.882
 3474TIP3    H110428   1.697   5.659   1.913
 3474TIP3    H210429   1.557   5.628   1.961
 3475TIP3   OH210430   2.803   1.636   2.746
 3475TIP3    H110431   2.752   1.560   2.717
 3475TIP3    H210432   2.783   1.644   2.839
 3476TIP3   OH210433   1.147   0.122   3.156
 3476TIP3    H110434   1.219   0.059   3.158
 3476TIP3    H210435   1.167   0.178   3.081
 3477TIP3   OH210436   1.830   3.368   0.847
 3477TIP3    H110437   1.859   3.425   0.919
 3477TIP3    H210438   1.909   3.354   0.795
 3478TIP3   OH210439   6.115   2.594   2.116
 3478TIP3    H110440   6.078   2.635   2.194
 3478TIP3    H210441   6.163   2.518   2.150
 3479TIP3   OH210442   1.586   3.019   5.151
 3479TIP3    H110443   1.505   3.027   5.202
 3479TIP3    H210444   1.655   3.013   5.216
 3480TIP3   OH210445   5.115   3.063   4.600
 3480TIP3    H110446   5.056   3.138   4.603
 3480TIP3    H210447   5.190   3.094   4.550
 3481TIP3   OH210448   3.040   5.554   2.574
 3481TIP3    H110449   2.951   5.585   2.555
 3481TIP3    H210450   3.096   5.605   2.515
 3482TIP3   OH210451   2.069   3.709   1.452
 3482TIP3    H110452   2.064   3.777   1.386
 3482TIP3    H210453   2.013   3.740   1.523
 3483TIP3   OH210454   5.028   2.111   3.077
 3483TIP3    H110455   4.942   2.069   3.073
 3483TIP3    H210456   5.062   2.088   3.163
 3484TIP3   OH210457   3.594   3.523   0.632
 3484TIP3    H110458   3.618   3.457   0.697
 3484TIP3    H210459   3.627   3.488   0.549
 3485TIP3   OH210460   1.234   3.775   0.817
 3485TIP3    H110461   1.206   3.855   0.771
 3485TIP3    H210462   1.324   3.761   0.787
 3486TIP3   OH210463   3.335   0.603   4.075
 3486TIP3    H110464   3.299   0.682   4.035
 3486TIP3    H210465   3.315   0.613   4.168
 3487TIP3   OH210466   4.613   1.923   5.052
 3487TIP3    H110467   4.699   1.899   5.086
 3487TIP3    H210468   4.563   1.841   5.052
 3488TIP3   OH210469   2.971   4.868   1.841
 3488TIP3    H110470   2.893   4.838   1.888
 3488TIP3    H210471   3.023   4.789   1.827
 3489TIP3   OH210472   1.626   4.792   1.230
 3489TIP3    H110473   1.579   4.714   1.261
 3489TIP3    H210474   1.695   4.806   1.295
 3490TIP3   OH210475   5.772   3.817   1.312
 3490TIP3    H110476   5.678   3.829   1.296
 3490TIP3    H210477   5.811   3.814   1.225
 3491TIP3   OH210478   2.854   5.715   1.026
 3491TIP3    H110479   2.944   5.730   1.055
 3491TIP3    H210480   2.860   5.710   0.930
 3492TIP3   OH210481   1.539   1.734   3.639
 3492TIP3    H110482   1.469   1.673   3.617
 3492TIP3    H210483   1.498   1.797   3.698
 3493TIP3   OH210484   3.005   4.605   4.434
 3493TIP3    H110485   2.977   4.568   4.351
 3493TIP3    H210486   2.938   4.669   4.457
 3494TIP3   OH210487   2.964   5.260   4.562
 3494TIP3    H110488   3.038   5.298   4.610
 3494TIP3    H210489   2.916   5.336   4.528
 3495TIP3   OH210490   6.094   3.524   1.420
 3495TIP3    H110491   6.123   3.614   1.408
 3495TIP3    H210492   6.024   3.529   1.486
 3496TIP3   OH210493   0.946   4.858   3.541
 3496TIP3    H110494   0.960   4.770   3.506
 3496TIP3    H210495   0.986   4.857   3.627
 3497TIP3   OH210496   5.671   0.820   0.340
 3497TIP3    H110497   5.620   0.892   0.303
 3497TIP3    H210498   5.728   0.792   0.268
 3498TIP3   OH210499   4.198   5.669   0.275
 3498TIP3    H110500   4.165   5.717   0.351
 3498TIP3    H210501   4.280   5.712   0.252
 3499TIP3   OH210502   0.543   3.276   3.069
 3499TIP3    H110503   0.570   3.366   3.055
 3499TIP3    H210504   0.453   3.283   3.102
 3500TIP3   OH210505   5.405   1.966   2.241
 3500TIP3    H110506   5.417   1.925   2.155
 3500TIP3    H210507   5.318   2.006   2.236
 3501TIP3   OH210508   5.780   4.650   0.266
 3501TIP3    H110509   5.779   4.669   0.172
 3501TIP3    H210510   5.778   4.736   0.308
 3502TIP3   OH210511   5.965   4.130   3.989
 3502TIP3    H110512   6.050   4.125   3.947
 3502TIP3    H210513   5.983   4.166   4.076
 3503TIP3   OH210514   4.497   5.779   4.336
 3503TIP3    H110515   4.486   5.874   4.330
 3503TIP3    H210516   4.547   5.766   4.417
 3504TIP3   OH210517   2.502   2.997   4.332
 3504TIP3    H110518   2.450   2.981   4.411
 3504TIP3    H210519   2.520   2.909   4.297
 3505TIP3   OH210520   4.185   2.857   0.864
 3505TIP3    H110521   4.159   2.813   0.945
 3505TIP3    H210522   4.280   2.847   0.861
 3506TIP3   OH210523   2.537   3.249   0.756
 3506TIP3    H110524   2.541   3.173   0.698
 3506TIP3    H210525   2.575   3.218   0.838
 3507TIP3   OH210526   4.980   0.054   3.170
 3507TIP3    H110527   5.031  -0.002   3.110
 3507TIP3    H210528   4.890   0.025   3.159
 3508TIP3   OH210529   2.824   3.520   4.938
 3508TIP3    H110530   2.827   3.572   5.019
 3508TIP3    H210531   2.914   3.489   4.927
 3509TIP3   OH210532   0.318   1.332   4.528
 3509TIP3    H110533   0.410   1.310   4.542
 3509TIP3    H210534   0.311   1.347   4.434
 3510TIP3   OH210535   0.454   0.213   3.025
 3510TIP3    H110536   0.374   0.258   3.052
 3510TIP3    H210537   0.459   0.136   3.081
 3511TIP3   OH210538   2.527   3.281   1.266
 3511TIP3    H110539   2.433   3.270   1.254
 3511TIP3    H210540   2.565   3.198   1.236
 3512TIP3   OH210541   4.686   1.719   1.271
 3512TIP3    H110542   4.767   1.676   1.243
 3512TIP3    H210543   4.659   1.772   1.196
 3513TIP3   OH210544   0.938   3.724   1.204
 3513TIP3    H110545   0.994   3.678   1.141
 3513TIP3    H210546   0.877   3.657   1.234
 3514TIP3   OH210547   0.583   4.082   4.831
 3514TIP3    H110548   0.545   4.061   4.916
 3514TIP3    H210549   0.675   4.099   4.849
 3515TIP3   OH210550   1.961   3.433   2.013
 3515TIP3    H110551   1.913   3.515   2.023
 3515TIP3    H210552   1.956   3.414   1.919
 3516TIP3   OH210553   2.195   4.344   4.860
 3516TIP3    H110554   2.101   4.330   4.872
 3516TIP3    H210555   2.210   4.330   4.767
 3517TIP3   OH210556   5.221   4.740   4.703
 3517TIP3    H110557   5.284   4.777   4.641
 3517TIP3    H210558   5.266   4.744   4.788
 3518TIP3   OH210559   0.313   5.620   0.605
 3518TIP3    H110560   0.261   5.557   0.556
 3518TIP3    H210561   0.277   5.620   0.693
 3519TIP3   OH210562   0.436   4.293   2.560
 3519TIP3    H110563   0.401   4.206   2.539
 3519TIP3    H210564   0.367   4.353   2.534
 3520TIP3   OH210565   0.980   0.718   0.608
 3520TIP3    H110566   1.004   0.695   0.698
 3520TIP3    H210567   1.054   0.770   0.576
 3521TIP3   OH210568   0.796   5.954   1.248
 3521TIP3    H110569   0.850   5.951   1.169
 3521TIP3    H210570   0.806   6.044   1.280
 3522TIP3   OH210571   2.068   0.173   2.737
 3522TIP3    H110572   2.090   0.096   2.789
 3522TIP3    H210573   1.973   0.174   2.734
 3523TIP3   OH210574   5.789   1.336   2.126
 3523TIP3    H110575   5.697   1.356   2.145
 3523TIP3    H210576   5.816   1.403   2.063
 3524TIP3   OH210577   5.460   4.508   3.928
 3524TIP3    H110578   5.491   4.466   3.848
 3524TIP3    H210579   5.366   4.521   3.914
 3525TIP3   OH210580   4.068   3.227   2.536
 3525TIP3    H110581   4.014   3.155   2.567
 3525TIP3    H210582   4.053   3.231   2.442
 3526TIP3   OH210583   0.843   3.057   0.321
 3526TIP3    H110584   0.812   3.011   0.399
 3526TIP3    H210585   0.938   3.043   0.321
 3527TIP3   OH210586   3.958   2.461   4.557
 3527TIP3    H110587   3.898   2.419   4.618
 3527TIP3    H210588   3.963   2.552   4.587
 3528TIP3   OH210589   4.356   4.727   2.274
 3528TIP3    H110590   4.441   4.741   2.233
 3528TIP3    H210591   4.333   4.812   2.312
 3529TIP3   OH210592   1.563   4.802   0.884
 3529TIP3    H110593   1.618   4.751   0.944
 3529TIP3    H210594   1.578   4.762   0.798
 3530TIP3   OH210595   2.544   3.951   4.404
 3530TIP3    H110596   2.483   3.890   4.365
 3530TIP3    H210597   2.489   4.009   4.458
 3531TIP3   OH210598   0.901   4.717   0.421
 3531TIP3    H110599   0.858   4.726   0.335
 3531TIP3    H210600   0.957   4.794   0.428
 3532TIP3   OH210601   3.071   2.672   4.367
 3532TIP3    H110602   3.155   2.652   4.410
 3532TIP3    H210603   3.006   2.664   4.436
 3533TIP3   OH210604   2.434   0.241   0.019
 3533TIP3    H110605   2.500   0.307   0.038
 3533TIP3    H210606   2.422   0.246  -0.076
 3534TIP3   OH210607   2.888   2.304   0.197
 3534TIP3    H110608   2.947   2.244   0.152
 3534TIP3    H210609   2.904   2.389   0.156
 3535TIP3   OH210610   3.262   1.980   1.663
 3535TIP3    H110611   3.266   1.895   1.706
 3535TIP3    H210612   3.225   1.961   1.577
 3536TIP3   OH210613   1.117   3.232   1.207
 3536TIP3    H110614   1.182   3.167   1.234
 3536TIP3    H210615   1.046   3.223   1.271
 3537TIP3   OH210616   3.225   2.576   4.908
 3537TIP3    H110617   3.175   2.497   4.928
 3537TIP3    H210618   3.315   2.553   4.930
 3538TIP3   OH210619   3.503   2.455   4.944
 3538TIP3    H110620   3.559   2.387   4.980
 3538TIP3    H210621   3.558   2.500   4.880
 3539TIP3   OH210622   0.458   0.170   1.416
 3539TIP3    H110623   0.545   0.135   1.397
 3539TIP3    H210624   0.413   0.169   1.332
 3540TIP3   OH210625   0.734   4.719   1.229
 3540TIP3    H110626   0.782   4.750   1.306
 3540TIP3    H210627   0.666   4.785   1.216
 3541TIP3   OH210628   1.035   2.960   1.028
 3541TIP3    H110629   1.010   2.973   1.119
 3541TIP3    H210630   0.957   2.923   0.986
 3542TIP3   OH210631   2.752   3.562   3.669
 3542TIP3    H110632   2.819   3.512   3.622
 3542TIP3    H210633   2.715   3.499   3.731
 3543TIP3   OH210634   6.066   0.893   2.861
 3543TIP3    H110635   6.130   0.964   2.846
 3543TIP3    H210636   6.070   0.878   2.955
 3544TIP3   OH210637   3.389   3.126   2.047
 3544TIP3    H110638   3.308   3.175   2.035
 3544TIP3    H210639   3.363   3.034   2.038
 3545TIP3   OH210640   0.582   5.556   1.474
 3545TIP3    H110641   0.594   5.475   1.524
 3545TIP3    H210642   0.503   5.541   1.421
 3546TIP3   OH210643   6.247   4.049   4.042
 3546TIP3    H110644   6.256   4.109   4.117
 3546TIP3    H210645   6.192   3.978   4.075
 3547TIP3   OH210646   4.751   5.448   4.189
 3547TIP3    H110647   4.812   5.445   4.262
 3547TIP3    H210648   4.752   5.359   4.153
 3548TIP3   OH210649   3.010   3.006   2.428
 3548TIP3    H110650   3.003   2.934   2.490
 3548TIP3    H210651   2.933   3.061   2.446
 3549TIP3   OH210652   4.907   3.211   2.352
 3549TIP3    H110653   4.980   3.170   2.306
 3549TIP3    H210654   4.930   3.207   2.445
 3550TIP3   OH210655   6.256   3.520   1.103
 3550TIP3    H110656   6.284   3.552   1.017
 3550TIP3    H210657   6.226   3.599   1.148
 3551TIP3   OH210658   3.529   1.868   0.483
 3551TIP3    H110659   3.602   1.905   0.533
 3551TIP3    H210660   3.566   1.791   0.440
 3552TIP3   OH210661   0.775   1.394   2.392
 3552TIP3    H110662   0.736   1.457   2.330
 3552TIP3    H210663   0.831   1.448   2.447
 3553TIP3   OH210664   0.834   2.279   0.634
 3553TIP3    H110665   0.822   2.185   0.646
 3553TIP3    H210666   0.750   2.317   0.657
 3554TIP3   OH210667   2.251   2.598   4.229
 3554TIP3    H110668   2.180   2.606   4.165
 3554TIP3    H210669   2.209   2.615   4.314
 3555TIP3   OH210670   2.817   0.294   4.479
 3555TIP3    H110671   2.903   0.255   4.494
 3555TIP3    H210672   2.835   0.386   4.462
 3556TIP3   OH210673   6.292   0.643   2.175
 3556TIP3    H110674   6.202   0.660   2.147
 3556TIP3    H210675   6.324   0.575   2.116
 3557TIP3   OH210676   0.827   4.915   4.055
 3557TIP3    H110677   0.781   4.987   4.011
 3557TIP3    H210678   0.791   4.914   4.143
 3558TIP3   OH210679   0.664   3.209   1.026
 3558TIP3    H110680   0.631   3.281   1.079
 3558TIP3    H210681   0.666   3.134   1.085
 3559TIP3   OH210682   3.074   2.158   0.040
 3559TIP3    H110683   3.137   2.211   0.087
 3559TIP3    H210684   3.058   2.205  -0.042
 3560TIP3   OH210685   2.045   5.614   4.196
 3560TIP3    H110686   1.977   5.547   4.203
 3560TIP3    H210687   2.079   5.603   4.107
 3561TIP3   OH210688   3.595   1.423   5.068
 3561TIP3    H110689   3.598   1.379   5.153
 3561TIP3    H210690   3.559   1.509   5.086
 3562TIP3   OH210691   4.988   3.290   3.249
 3562TIP3    H110692   4.945   3.288   3.164
 3562TIP3    H210693   4.969   3.377   3.283
 3563TIP3   OH210694   1.972   1.171   2.238
 3563TIP3    H110695   1.940   1.257   2.265
 3563TIP3    H210696   1.893   1.118   2.229
 3564TIP3   OH210697   4.244   0.458   0.983
 3564TIP3    H110698   4.202   0.517   1.045
 3564TIP3    H210699   4.206   0.481   0.899
 3565TIP3   OH210700   6.009   5.049   3.133
 3565TIP3    H110701   6.087   5.094   3.164
 3565TIP3    H210702   6.004   5.070   3.040
 3566TIP3   OH210703   6.029   3.151   2.332
 3566TIP3    H110704   5.939   3.131   2.357
 3566TIP3    H210705   6.049   3.232   2.378
 3567TIP3   OH210706   1.297   4.845   1.234
 3567TIP3    H110707   1.279   4.752   1.222
 3567TIP3    H210708   1.391   4.854   1.216
 3568TIP3   OH210709   4.122   2.190   0.781
 3568TIP3    H110710   4.107   2.283   0.799
 3568TIP3    H210711   4.195   2.166   0.840
 3569TIP3   OH210712   5.235   2.627   1.053
 3569TIP3    H110713   5.216   2.569   1.126
 3569TIP3    H210714   5.322   2.600   1.022
 3570TIP3   OH210715   4.701   3.767   1.748
 3570TIP3    H110716   4.714   3.808   1.833
 3570TIP3    H210717   4.666   3.837   1.693
 3571TIP3   OH210718   0.104   2.858   3.870
 3571TIP3    H110719   0.198   2.878   3.875
 3571TIP3    H210720   0.070   2.923   3.809
 3572TIP3   OH210721   2.071   2.569   0.007
 3572TIP3    H110722   2.015   2.509   0.055
 3572TIP3    H210723   2.016   2.646  -0.009
 3573TIP3   OH210724   0.474   1.258   3.920
 3573TIP3    H110725   0.507   1.338   3.878
 3573TIP3    H210726   0.537   1.191   3.896
 3574TIP3   OH210727   3.781   0.837   0.953
 3574TIP3    H110728   3.855   0.895   0.935
 3574TIP3    H210729   3.792   0.812   1.045
 3575TIP3   OH210730   1.308   1.600   4.751
 3575TIP3    H110731   1.267   1.652   4.682
 3575TIP3    H210732   1.281   1.510   4.732
 3576TIP3   OH210733   3.583   5.166   4.609
 3576TIP3    H110734   3.591   5.239   4.548
 3576TIP3    H210735   3.571   5.206   4.695
 3577TIP3   OH210736   0.327   0.770   3.007
 3577TIP3    H110737   0.373   0.853   3.017
 3577TIP3    H210738   0.362   0.714   3.076
 3578TIP3   OH210739   0.378   1.740   3.065
 3578TIP3    H110740   0.393   1.834   3.076
 3578TIP3    H210741   0.452   1.698   3.108
 3579TIP3   OH210742   2.714   1.530   3.442
 3579TIP3    H110743   2.711   1.607   3.500
 3579TIP3    H210744   2.653   1.551   3.371
 3580TIP3   OH210745   3.377   4.579   4.692
 3580TIP3    H110746   3.366   4.492   4.654
 3580TIP3    H210747   3.314   4.633   4.645
 3581TIP3   OH210748   0.329   4.792   2.426
 3581TIP3    H110749   0.398   4.847   2.464
 3581TIP3    H210750   0.280   4.759   2.501
 3582TIP3   OH210751   5.136   4.751   1.587
 3582TIP3    H110752   5.221   4.720   1.616
 3582TIP3    H210753   5.156   4.825   1.529
 3583TIP3   OH210754   3.456   1.910   2.988
 3583TIP3    H110755   3.464   1.833   3.044
 3583TIP3    H210756   3.401   1.970   3.038
 3584TIP3   OH210757   2.600   4.526   2.589
 3584TIP3    H110758   2.656   4.466   2.638
 3584TIP3    H210759   2.654   4.604   2.576
 3585TIP3   OH210760   1.022   1.293   1.758
 3585TIP3    H110761   0.964   1.322   1.828
 3585TIP3    H210762   1.058   1.210   1.788
 3586TIP3   OH210763   4.976   1.897   2.056
 3586TIP3    H110764   4.960   1.913   1.963
 3586TIP3    H210765   5.013   1.809   2.060
 3587TIP3   OH210766   2.782   5.641   3.253
 3587TIP3    H110767   2.780   5.675   3.343
 3587TIP3    H210768   2.872   5.653   3.225
 3588TIP3   OH210769   2.131   2.787   0.551
 3588TIP3    H110770   2.153   2.757   0.463
 3588TIP3    H210771   2.156   2.714   0.608
 3589TIP3   OH210772   6.041   4.065   1.820
 3589TIP3    H110773   6.023   4.045   1.911
 3589TIP3    H210774   5.986   4.141   1.801
 3590TIP3   OH210775   6.296   1.763   0.191
 3590TIP3    H110776   6.283   1.776   0.285
 3590TIP3    H210777   6.391   1.763   0.180
 3591TIP3   OH210778   1.506   5.884   0.612
 3591TIP3    H110779   1.479   5.916   0.698
 3591TIP3    H210780   1.544   5.961   0.569
 3592TIP3   OH210781   2.868   4.568   3.469
 3592TIP3    H110782   2.891   4.661   3.460
 3592TIP3    H210783   2.932   4.522   3.415
 3593TIP3   OH210784   4.646   0.090   2.893
 3593TIP3    H110785   4.690   0.131   2.818
 3593TIP3    H210786   4.594   0.160   2.933
 3594TIP3   OH210787   2.685   4.400   3.265
 3594TIP3    H110788   2.709   4.485   3.227
 3594TIP3    H210789   2.744   4.389   3.339
 3595TIP3   OH210790   0.453   0.656   0.535
 3595TIP3    H110791   0.429   0.642   0.443
 3595TIP3    H210792   0.528   0.599   0.550
 3596TIP3   OH210793   5.398   3.361   3.415
 3596TIP3    H110794   5.384   3.455   3.406
 3596TIP3    H210795   5.375   3.326   3.328
 3597TIP3   OH210796   3.436   4.091   1.014
 3597TIP3    H110797   3.444   4.184   1.035
 3597TIP3    H210798   3.511   4.050   1.056
 3598TIP3   OH210799   3.202   1.911   1.404
 3598TIP3    H110800   3.124   1.911   1.349
 3598TIP3    H210801   3.233   1.820   1.401
 3599TIP3   OH210802   1.911   4.434   3.288
 3599TIP3    H110803   1.965   4.498   3.242
 3599TIP3    H210804   1.971   4.362   3.308
 3600TIP3   OH210805   5.902   2.125   2.839
 3600TIP3    H110806   5.970   2.124   2.907
 3600TIP3    H210807   5.916   2.208   2.793
 3601TIP3   OH210808   4.874   3.774   2.930
 3601TIP3    H110809   4.871   3.744   2.839
 3601TIP3    H210810   4.942   3.720   2.971
 3602TIP3   OH210811   5.207   2.579   4.140
 3602TIP3    H110812   5.275   2.637   4.106
 3602TIP3    H210813   5.195   2.607   4.231
 3603TIP3   OH210814   4.679   4.887   1.478
 3603TIP3    H110815   4.701   4.831   1.403
 3603TIP3    H210816   4.764   4.919   1.508
 3604TIP3   OH210817   3.693   5.937   2.663
 3604TIP3    H110818   3.636   5.878   2.614
 3604TIP3    H210819   3.781   5.913   2.635
 3605TIP3   OH210820   1.511   4.829   4.752
 3605TIP3    H110821   1.449   4.829   4.680
 3605TIP3    H210822   1.576   4.763   4.729
 3606TIP3   OH210823   2.793   0.048   4.298
 3606TIP3    H110824   2.711   0.051   4.248
 3606TIP3    H210825   2.773   0.088   4.382
 3607TIP3   OH210826   3.356   4.093   4.451
 3607TIP3    H110827   3.270   4.115   4.486
 3607TIP3    H210828   3.340   4.025   4.386
 3608TIP3   OH210829   1.559   3.835   4.352
 3608TIP3    H110830   1.465   3.848   4.364
 3608TIP3    H210831   1.599   3.916   4.385
 3609TIP3   OH210832   0.894   0.385   2.958
 3609TIP3    H110833   0.958   0.408   2.891
 3609TIP3    H210834   0.945   0.384   3.040
 3610TIP3   OH210835   2.862   1.254   2.439
 3610TIP3    H110836   2.911   1.286   2.363
 3610TIP3    H210837   2.804   1.186   2.404
 3611TIP3   OH210838   5.459   4.902   0.336
 3611TIP3    H110839   5.516   4.979   0.332
 3611TIP3    H210840   5.450   4.884   0.430
 3612TIP3   OH210841   5.657   1.602   3.595
 3612TIP3    H110842   5.705   1.534   3.643
 3612TIP3    H210843   5.600   1.642   3.660
 3613TIP3   OH210844   4.871   4.750   3.415
 3613TIP3    H110845   4.948   4.755   3.471
 3613TIP3    H210846   4.805   4.802   3.462
 3614TIP3   OH210847   3.533   3.938   0.103
 3614TIP3    H110848   3.485   3.870   0.056
 3614TIP3    H210849   3.615   3.948   0.053
 3615TIP3   OH210850   5.965   0.325   2.332
 3615TIP3    H110851   5.917   0.323   2.414
 3615TIP3    H210852   6.056   0.314   2.357
 3616TIP3   OH210853   1.648   5.107   4.946
 3616TIP3    H110854   1.656   5.184   4.891
 3616TIP3    H210855   1.737   5.073   4.954
 3617TIP3   OH210856   2.835   4.331   4.893
 3617TIP3    H110857   2.912   4.342   4.948
 3617TIP3    H210858   2.860   4.369   4.809
 3618TIP3   OH210859   0.898   4.127   3.288
 3618TIP3    H110860   0.903   4.092   3.199
 3618TIP3    H210861   0.804   4.136   3.305
 3619TIP3   OH210862   6.073   1.820   3.542
 3619TIP3    H110863   6.106   1.877   3.472
 3619TIP3    H210864   5.978   1.833   3.541
 3620TIP3   OH210865   4.983   0.248   0.119
 3620TIP3    H110866   5.048   0.290   0.175
 3620TIP3    H210867   4.960   0.168   0.165
 3621TIP3   OH210868   2.050   0.058   4.641
 3621TIP3    H110869   1.971   0.075   4.589
 3621TIP3    H210870   2.116   0.114   4.601
 3622TIP3   OH210871   3.075   3.398   4.911
 3622TIP3    H110872   3.094   3.383   4.818
 3622TIP3    H210873   3.051   3.311   4.944
 3623TIP3   OH210874   5.391   1.497   4.813
 3623TIP3    H110875   5.299   1.506   4.840
 3623TIP3    H210876   5.440   1.511   4.894
 3624TIP3   OH210877   4.441   1.949   1.607
 3624TIP3    H110878   4.367   1.921   1.660
 3624TIP3    H210879   4.507   1.880   1.619
 3625TIP3   OH210880   1.774   3.694   0.102
 3625TIP3    H110881   1.780   3.599   0.111
 3625TIP3    H210882   1.685   3.710   0.069
 3626TIP3   OH210883   6.208   2.807   4.407
 3626TIP3    H110884   6.248   2.866   4.344
 3626TIP3    H210885   6.280   2.778   4.463
 3627TIP3   OH210886   4.171   0.907   0.522
 3627TIP3    H110887   4.180   1.001   0.531
 3627TIP3    H210888   4.184   0.890   0.429
 3628TIP3   OH210889   1.736   0.733   2.933
 3628TIP3    H110890   1.666   0.794   2.957
 3628TIP3    H210891   1.762   0.761   2.845
 3629TIP3   OH210892   1.050   4.362   1.177
 3629TIP3    H110893   0.997   4.341   1.100
 3629TIP3    H210894   0.995   4.422   1.228
 3630TIP3   OH210895   3.158   4.848   0.187
 3630TIP3    H110896   3.198   4.792   0.253
 3630TIP3    H210897   3.064   4.828   0.192
 3631TIP3   OH210898   1.389   0.524   0.961
 3631TIP3    H110899   1.362   0.527   0.869
 3631TIP3    H210900   1.321   0.572   1.007
 3632TIP3   OH210901   2.070   5.494   0.132
 3632TIP3    H110902   2.139   5.428   0.133
 3632TIP3    H210903   1.998   5.454   0.180
 3633TIP3   OH210904   2.920   3.236   3.085
 3633TIP3    H110905   2.951   3.257   3.173
 3633TIP3    H210906   2.832   3.273   3.081
 3634TIP3   OH210907   4.769   5.388   0.083
 3634TIP3    H110908   4.841   5.331   0.109
 3634TIP3    H210909   4.769   5.459   0.148
 3635TIP3   OH210910   4.927   3.252   1.201
 3635TIP3    H110911   4.853   3.271   1.143
 3635TIP3    H210912   4.999   3.303   1.165
 3636TIP3   OH210913   1.202   4.588   3.540
 3636TIP3    H110914   1.115   4.601   3.577
 3636TIP3    H210915   1.240   4.676   3.537
 3637TIP3   OH210916   3.433   1.145   0.021
 3637TIP3    H110917   3.402   1.129   0.110
 3637TIP3    H210918   3.402   1.233   0.000
 3638TIP3   OH210919   2.056   0.185   0.385
 3638TIP3    H110920   2.090   0.204   0.298
 3638TIP3    H210921   2.069   0.266   0.435
 3639TIP3   OH210922   6.087   3.743   3.155
 3639TIP3    H110923   6.019   3.809   3.145
 3639TIP3    H210924   6.150   3.783   3.216
 3640TIP3   OH210925   4.255   1.078   1.074
 3640TIP3    H110926   4.343   1.105   1.100
 3640TIP3    H210927   4.260   0.983   1.069
 3641TIP3   OH210928   1.516   1.551   0.414
 3641TIP3    H110929   1.531   1.597   0.332
 3641TIP3    H210930   1.602   1.548   0.456
 3642TIP3   OH210931   2.108   4.615   1.864
 3642TIP3    H110932   2.029   4.638   1.816
 3642TIP3    H210933   2.097   4.523   1.886
 3643TIP3   OH210934   4.166   0.926   3.399
 3643TIP3    H110935   4.236   0.941   3.462
 3643TIP3    H210936   4.189   0.843   3.357
 3644TIP3   OH210937   1.336   2.330   2.715
 3644TIP3    H110938   1.428   2.346   2.694
 3644TIP3    H210939   1.311   2.256   2.661
 3645TIP3   OH210940   3.494   4.544   3.905
 3645TIP3    H110941   3.447   4.462   3.919
 3645TIP3    H210942   3.522   4.570   3.993
 3646TIP3   OH210943   5.413   0.447   0.607
 3646TIP3    H110944   5.387   0.532   0.570
 3646TIP3    H210945   5.496   0.465   0.652
 3647TIP3   OH210946   1.773   3.409   0.346
 3647TIP3    H110947   1.779   3.331   0.402
 3647TIP3    H210948   1.686   3.402   0.306
 3648TIP3   OH210949   0.368   3.749   2.130
 3648TIP3    H110950   0.361   3.742   2.225
 3648TIP3    H210951   0.292   3.802   2.104
 3649TIP3   OH210952   1.371   0.713   3.351
 3649TIP3    H110953   1.460   0.700   3.318
 3649TIP3    H210954   1.316   0.710   3.273
 3650TIP3   OH210955   5.910   1.035   3.226
 3650TIP3    H110956   5.910   1.093   3.150
 3650TIP3    H210957   5.948   1.088   3.296
 3651TIP3   OH210958   1.739   1.122   4.364
 3651TIP3    H110959   1.781   1.059   4.422
 3651TIP3    H210960   1.653   1.085   4.345
 3652TIP3   OH210961   2.085   4.352   1.953
 3652TIP3    H110962   2.063   4.265   1.920
 3652TIP3    H210963   2.164   4.338   2.006
 3653TIP3   OH210964   0.848   0.366   5.018
 3653TIP3    H110965   0.878   0.310   5.089
 3653TIP3    H210966   0.912   0.353   4.948
 3654TIP3   OH210967   1.905   2.538   4.643
 3654TIP3    H110968   1.978   2.554   4.703
 3654TIP3    H210969   1.841   2.606   4.665
 3655TIP3   OH210970   3.277   3.703   3.493
 3655TIP3    H110971   3.210   3.692   3.561
 3655TIP3    H210972   3.228   3.727   3.414
 3656TIP3   OH210973   1.418   5.597   2.072
 3656TIP3    H110974   1.358   5.621   2.143
 3656TIP3    H210975   1.362   5.552   2.008
 3657TIP3   OH210976   1.058   0.318   4.854
 3657TIP3    H110977   1.137   0.275   4.888
 3657TIP3    H210978   1.087   0.407   4.833
 3658TIP3   OH210979   0.709   2.640   4.954
 3658TIP3    H110980   0.745   2.554   4.976
 3658TIP3    H210981   0.666   2.627   4.869
 3659TIP3   OH210982   2.740   4.411   3.989
 3659TIP3    H110983   2.667   4.434   3.931
 3659TIP3    H210984   2.776   4.331   3.950
 3660TIP3   OH210985   2.684   2.826   2.139
 3660TIP3    H110986   2.739   2.901   2.117
 3660TIP3    H210987   2.663   2.837   2.231
 3661TIP3   OH210988   4.407   2.148   3.766
 3661TIP3    H110989   4.469   2.146   3.693
 3661TIP3    H210990   4.429   2.229   3.813
 3662TIP3   OH210991   1.515   2.945   2.959
 3662TIP3    H110992   1.523   3.004   3.034
 3662TIP3    H210993   1.423   2.953   2.932
 3663TIP3   OH210994   3.539   4.350   1.019
 3663TIP3    H110995   3.561   4.441   0.998
 3663TIP3    H210996   3.616   4.317   1.064
 3664TIP3   OH210997   4.103   3.537   1.288
 3664TIP3    H110998   4.045   3.475   1.243
 3664TIP3    H210999   4.166   3.563   1.221
 3665TIP3   OH211000   3.821   2.335   3.853
 3665TIP3    H111001   3.887   2.277   3.890
 3665TIP3    H211002   3.803   2.298   3.767
 3666TIP3   OH211003   0.524   1.020   0.677
 3666TIP3    H111004   0.455   0.994   0.615
 3666TIP3    H211005   0.584   0.945   0.679
 3667TIP3   OH211006   1.007   3.660   3.694
 3667TIP3    H111007   1.048   3.746   3.698
 3667TIP3    H211008   1.055   3.608   3.758
 3668TIP3   OH211009   4.206   0.339   4.186
 3668TIP3    H111010   4.149   0.303   4.118
 3668TIP3    H211011   4.199   0.434   4.176
 3669TIP3   OH211012   5.737   3.905   2.991
 3669TIP3    H111013   5.818   3.912   3.041
 3669TIP3    H211014   5.756   3.838   2.924
 3670TIP3   OH211015   4.087   5.269   0.051
 3670TIP3    H111016   4.125   5.330   0.114
 3670TIP3    H211017   4.039   5.206   0.105
 3671TIP3   OH211018   3.266   1.552   4.865
 3671TIP3    H111019   3.257   1.634   4.816
 3671TIP3    H211020   3.358   1.528   4.854
 3672TIP3   OH211021   3.066   4.654   4.089
 3672TIP3    H111022   3.052   4.561   4.104
 3672TIP3    H211023   3.148   4.674   4.135
 3673TIP3   OH211024   0.459   3.810   3.910
 3673TIP3    H111025   0.539   3.852   3.941
 3673TIP3    H211026   0.485   3.766   3.829
 3674TIP3   OH211027   4.688   1.789   0.497
 3674TIP3    H111028   4.642   1.871   0.514
 3674TIP3    H211029   4.738   1.772   0.577
 3675TIP3   OH211030   0.054   2.078   3.639
 3675TIP3    H111031   0.050   2.165   3.679
 3675TIP3    H211032  -0.032   2.040   3.658
 3676TIP3   OH211033   6.080   5.879   3.077
 3676TIP3    H111034   6.123   5.802   3.115
 3676TIP3    H211035   6.060   5.853   2.987
 3677TIP3   OH211036   4.841   1.454   4.622
 3677TIP3    H111037   4.825   1.470   4.529
 3677TIP3    H211038   4.763   1.409   4.652
 3678TIP3   OH211039   1.721   4.542   4.878
 3678TIP3    H111040   1.663   4.527   4.804
 3678TIP3    H211041   1.690   4.482   4.946
 3679TIP3   OH211042   0.614   3.734   1.301
 3679TIP3    H111043   0.649   3.738   1.212
 3679TIP3    H211044   0.686   3.767   1.356
 3680TIP3   OH211045   2.604   5.778   3.781
 3680TIP3    H111046   2.632   5.699   3.735
 3680TIP3    H211047   2.617   5.757   3.874
 3681TIP3   OH211048   5.956   4.892   2.590
 3681TIP3    H111049   5.871   4.872   2.551
 3681TIP3    H211050   6.019   4.869   2.522
 3682TIP3   OH211051   3.534   2.514   1.914
 3682TIP3    H111052   3.530   2.527   1.819
 3682TIP3    H211053   3.472   2.443   1.931
 3683TIP3   OH211054   2.920   0.897   4.285
 3683TIP3    H111055   2.909   0.838   4.211
 3683TIP3    H211056   3.014   0.915   4.288
 3684TIP3   OH211057   5.034   2.218   3.707
 3684TIP3    H111058   4.995   2.245   3.624
 3684TIP3    H211059   5.057   2.126   3.694
 3685TIP3   OH211060   5.056   2.411   0.156
 3685TIP3    H111061   5.052   2.481   0.090
 3685TIP3    H211062   5.065   2.457   0.239
 3686TIP3   OH211063   4.328   1.922   0.349
 3686TIP3    H111064   4.294   2.006   0.320
 3686TIP3    H211065   4.408   1.909   0.297
 3687TIP3   OH211066   2.520   5.646   2.267
 3687TIP3    H111067   2.486   5.735   2.278
 3687TIP3    H211068   2.591   5.655   2.204
 3688TIP3   OH211069   2.521   5.067   0.410
 3688TIP3    H111070   2.559   5.089   0.495
 3688TIP3    H211071   2.557   4.981   0.389
 3689TIP3   OH211072   2.562   2.292   0.891
 3689TIP3    H111073   2.624   2.333   0.950
 3689TIP3    H211074   2.617   2.245   0.828
 3690TIP3   OH211075   4.081   1.457   5.095
 3690TIP3    H111076   4.017   1.406   5.046
 3690TIP3    H211077   4.162   1.408   5.087
 3691TIP3   OH211078   4.479   1.300   0.775
 3691TIP3    H111079   4.541   1.271   0.708
 3691TIP3    H211080   4.534   1.320   0.851
 3692TIP3   OH211081   0.846   0.639   3.437
 3692TIP3    H111082   0.819   0.696   3.365
 3692TIP3    H211083   0.765   0.618   3.483
 3693TIP3   OH211084   4.209   5.545   3.585
 3693TIP3    H111085   4.115   5.560   3.578
 3693TIP3    H211086   4.217   5.454   3.614
 3694TIP3   OH211087   6.123   3.723   4.126
 3694TIP3    H111088   6.157   3.634   4.137
 3694TIP3    H211089   6.085   3.745   4.211
 3695TIP3   OH211090   1.794   2.863   5.009
 3695TIP3    H111091   1.730   2.932   4.990
 3695TIP3    H211092   1.744   2.782   5.003
 3696TIP3   OH211093   3.901   1.462   2.575
 3696TIP3    H111094   3.914   1.384   2.522
 3696TIP3    H211095   3.989   1.496   2.591
 3697TIP3   OH211096   1.522   3.487   4.065
 3697TIP3    H111097   1.554   3.398   4.074
 3697TIP3    H211098   1.592   3.533   4.018
 3698TIP3   OH211099   1.201   5.787   2.799
 3698TIP3    H111100   1.231   5.789   2.889
 3698TIP3    H211101   1.275   5.750   2.750
 3699TIP3   OH211102   2.145   5.111   0.768
 3699TIP3    H111103   2.079   5.115   0.699
 3699TIP3    H211104   2.119   5.037   0.822
 3700TIP3   OH211105   1.301   1.599   0.564
 3700TIP3    H111106   1.387   1.598   0.521
 3700TIP3    H211107   1.264   1.514   0.545
 3701TIP3   OH211108   2.310   3.313   4.586
 3701TIP3    H111109   2.292   3.228   4.626
 3701TIP3    H211110   2.226   3.339   4.546
 3702TIP3   OH211111   2.676   3.077   3.801
 3702TIP3    H111112   2.623   2.998   3.808
 3702TIP3    H211113   2.761   3.052   3.836
 3703TIP3   OH211114   3.505   5.121   1.113
 3703TIP3    H111115   3.557   5.049   1.149
 3703TIP3    H211116   3.532   5.126   1.021
 3704TIP3   OH211117   1.383   0.154   4.558
 3704TIP3    H111118   1.291   0.151   4.532
 3704TIP3    H211119   1.406   0.246   4.553
 3705TIP3   OH211120   1.317   3.601   2.380
 3705TIP3    H111121   1.223   3.591   2.363
 3705TIP3    H211122   1.331   3.557   2.464
 3706TIP3   OH211123   4.367   5.056   1.518
 3706TIP3    H111124   4.332   4.975   1.483
 3706TIP3    H211125   4.315   5.125   1.478
 3707TIP3   OH211126   2.025   1.728   3.260
 3707TIP3    H111127   2.029   1.823   3.269
 3707TIP3    H211128   2.031   1.694   3.349
 3708TIP3   OH211129   5.196   5.854   2.048
 3708TIP3    H111130   5.228   5.764   2.060
 3708TIP3    H211131   5.274   5.905   2.029
 3709TIP3   OH211132   5.964   5.091   1.352
 3709TIP3    H111133   5.871   5.069   1.349
 3709TIP3    H211134   5.974   5.148   1.428
 3710TIP3   OH211135   5.121   3.259   4.888
 3710TIP3    H111136   5.027   3.244   4.878
 3710TIP3    H211137   5.127   3.344   4.931
 3711TIP3   OH211138   0.022   5.692   4.242
 3711TIP3    H111139  -0.063   5.719   4.278
 3711TIP3    H211140   0.056   5.630   4.307
 3712TIP3   OH211141   5.669   2.644   4.882
 3712TIP3    H111142   5.618   2.578   4.834
 3712TIP3    H211143   5.751   2.599   4.903
 3713TIP3   OH211144   5.462   2.996   2.214
 3713TIP3    H111145   5.485   3.019   2.124
 3713TIP3    H211146   5.547   2.985   2.257
 3714TIP3   OH211147   4.890   4.236   0.415
 3714TIP3    H111148   4.866   4.234   0.322
 3714TIP3    H211149   4.854   4.319   0.447
 3715TIP3   OH211150   0.281   5.915   3.899
 3715TIP3    H111151   0.246   5.826   3.892
 3715TIP3    H211152   0.213   5.965   3.944
 3716TIP3   OH211153   5.658   0.365   3.771
 3716TIP3    H111154   5.564   0.346   3.768
 3716TIP3    H211155   5.684   0.372   3.679
 3717TIP3   OH211156   4.719   3.057   4.118
 3717TIP3    H111157   4.653   3.069   4.186
 3717TIP3    H211158   4.674   3.007   4.050
 3718TIP3   OH211159   4.894   2.277   3.933
 3718TIP3    H111160   4.916   2.360   3.975
 3718TIP3    H211161   4.933   2.282   3.846
 3719TIP3   OH211162   5.300   5.018   0.142
 3719TIP3    H111163   5.357   5.092   0.124
 3719TIP3    H211164   5.329   4.985   0.227
 3720TIP3   OH211165   6.241   0.398   3.724
 3720TIP3    H111166   6.221   0.389   3.631
 3720TIP3    H211167   6.324   0.351   3.736
 3721TIP3   OH211168   5.254   5.296   0.696
 3721TIP3    H111169   5.326   5.356   0.713
 3721TIP3    H211170   5.236   5.255   0.780
 3722TIP3   OH211171   2.690   4.882   2.224
 3722TIP3    H111172   2.615   4.904   2.279
 3722TIP3    H211173   2.711   4.791   2.246
 3723TIP3   OH211174   0.314   2.245   4.536
 3723TIP3    H111175   0.342   2.216   4.449
 3723TIP3    H211176   0.220   2.261   4.527
 3724TIP3   OH211177   4.725   5.936   2.890
 3724TIP3    H111178   4.702   5.854   2.933
 3724TIP3    H211179   4.688   6.004   2.947
 3725TIP3   OH211180   2.959   5.679   3.729
 3725TIP3    H111181   2.964   5.738   3.654
 3725TIP3    H211182   2.984   5.594   3.695
 3726TIP3   OH211183   4.107   3.421   3.662
 3726TIP3    H111184   4.178   3.411   3.599
 3726TIP3    H211185   4.032   3.378   3.620
 3727TIP3   OH211186   2.847   3.579   0.056
 3727TIP3    H111187   2.823   3.487   0.046
 3727TIP3    H211188   2.808   3.606   0.139
 3728TIP3   OH211189   5.555   4.967   4.316
 3728TIP3    H111190   5.624   4.989   4.378
 3728TIP3    H211191   5.586   4.887   4.274
 3729TIP3   OH211192   1.214   0.428   3.128
 3729TIP3    H111193   1.132   0.478   3.128
 3729TIP3    H211194   1.281   0.492   3.149
 3730TIP3   OH211195   1.391   5.332   4.081
 3730TIP3    H111196   1.361   5.413   4.040
 3730TIP3    H211197   1.396   5.353   4.174
 3731TIP3   OH211198   3.615   2.066   3.864
 3731TIP3    H111199   3.621   2.155   3.829
 3731TIP3    H211200   3.706   2.040   3.879
 3732TIP3   OH211201   0.593   2.116   1.819
 3732TIP3    H111202   0.684   2.102   1.844
 3732TIP3    H211203   0.562   2.186   1.876
 3733TIP3   OH211204   5.941   5.906   4.712
 3733TIP3    H111205   5.891   5.829   4.687
 3733TIP3    H211206   5.962   5.950   4.629
 3734TIP3   OH211207   6.261   4.984   3.902
 3734TIP3    H111208   6.281   5.077   3.889
 3734TIP3    H211209   6.336   4.937   3.866
 3735TIP3   OH211210   5.150   0.556   1.155
 3735TIP3    H111211   5.107   0.515   1.230
 3735TIP3    H211212   5.190   0.483   1.107
 3736TIP3   OH211213   4.616   0.841   2.751
 3736TIP3    H111214   4.634   0.900   2.823
 3736TIP3    H211215   4.696   0.789   2.742
 3737TIP3   OH211216   3.184   4.326   0.281
 3737TIP3    H111217   3.196   4.415   0.248
 3737TIP3    H211218   3.175   4.337   0.376
 3738TIP3   OH211219   5.051   3.717   4.345
 3738TIP3    H111220   5.051   3.624   4.368
 3738TIP3    H211221   4.958   3.742   4.348
 3739TIP3   OH211222   2.632   0.536   1.185
 3739TIP3    H111223   2.571   0.594   1.230
 3739TIP3    H211224   2.607   0.543   1.093
 3740TIP3   OH211225   1.643   3.536   3.818
 3740TIP3    H111226   1.736   3.553   3.832
 3740TIP3    H211227   1.639   3.444   3.792
 3741TIP3   OH211228   2.816   3.995   1.125
 3741TIP3    H111229   2.859   3.979   1.209
 3741TIP3    H211230   2.748   3.928   1.119
 3742TIP3   OH211231   3.988   0.417   3.943
 3742TIP3    H111232   3.956   0.327   3.932
 3742TIP3    H211233   3.988   0.453   3.854
 3743TIP3   OH211234   2.860   5.488   4.448
 3743TIP3    H111235   2.948   5.525   4.454
 3743TIP3    H211236   2.803   5.565   4.438
 3744TIP3   OH211237   2.469   5.902   2.328
 3744TIP3    H111238   2.390   5.895   2.382
 3744TIP3    H211239   2.537   5.932   2.389
 3745TIP3   OH211240   2.340   0.939   3.122
 3745TIP3    H111241   2.248   0.965   3.119
 3745TIP3    H211242   2.371   0.954   3.033
 3746TIP3   OH211243   2.522   3.521   1.026
 3746TIP3    H111244   2.449   3.464   1.004
 3746TIP3    H211245   2.600   3.471   1.000
 3747TIP3   OH211246   5.940   3.990   3.185
 3747TIP3    H111247   5.966   3.974   3.276
 3747TIP3    H211248   5.970   4.079   3.167
 3748TIP3   OH211249   1.608   4.232   0.330
 3748TIP3    H111250   1.592   4.326   0.342
 3748TIP3    H211251   1.701   4.221   0.351
 3749TIP3   OH211252   0.517   4.837   3.429
 3749TIP3    H111253   0.440   4.887   3.402
 3749TIP3    H211254   0.562   4.816   3.347
 3750TIP3   OH211255   1.500   0.277   1.086
 3750TIP3    H111256   1.477   0.359   1.041
 3750TIP3    H211257   1.417   0.233   1.102
 3751TIP3   OH211258   5.617   3.421   0.905
 3751TIP3    H111259   5.663   3.420   0.821
 3751TIP3    H211260   5.668   3.480   0.960
 3752TIP3   OH211261   5.667   2.045   2.743
 3752TIP3    H111262   5.751   2.078   2.775
 3752TIP3    H211263   5.673   2.051   2.648
 3753TIP3   OH211264   4.164   3.593   4.823
 3753TIP3    H111265   4.235   3.642   4.780
 3753TIP3    H211266   4.084   3.637   4.794
 3754TIP3   OH211267   3.122   0.353   2.804
 3754TIP3    H111268   3.108   0.290   2.874
 3754TIP3    H211269   3.217   0.357   2.792
 3755TIP3   OH211270   5.619   5.131   0.353
 3755TIP3    H111271   5.708   5.146   0.321
 3755TIP3    H211272   5.613   5.182   0.433
 3756TIP3   OH211273   1.177   5.843   0.465
 3756TIP3    H111274   1.227   5.881   0.538
 3756TIP3    H211275   1.087   5.841   0.497
 3757TIP3   OH211276   2.198   1.804   4.494
 3757TIP3    H111277   2.246   1.818   4.575
 3757TIP3    H211278   2.203   1.889   4.449
 3758TIP3   OH211279   3.485   5.247   2.601
 3758TIP3    H111280   3.526   5.231   2.686
 3758TIP3    H211281   3.553   5.228   2.537
 3759TIP3   OH211282   3.870   2.989   3.325
 3759TIP3    H111283   3.880   3.060   3.389
 3759TIP3    H211284   3.846   2.913   3.377
 3760TIP3   OH211285   3.200   2.165   2.507
 3760TIP3    H111286   3.223   2.128   2.422
 3760TIP3    H211287   3.104   2.172   2.505
 3761TIP3   OH211288   6.244   5.061   1.327
 3761TIP3    H111289   6.151   5.077   1.312
 3761TIP3    H211290   6.288   5.112   1.259
 3762TIP3   OH211291   0.629   4.540   4.790
 3762TIP3    H111292   0.556   4.557   4.850
 3762TIP3    H211293   0.610   4.454   4.752
 3763TIP3   OH211294   5.189   0.373   2.113
 3763TIP3    H111295   5.216   0.441   2.175
 3763TIP3    H211296   5.115   0.411   2.066
 3764TIP3   OH211297   0.274   1.524   3.913
 3764TIP3    H111298   0.368   1.528   3.900
 3764TIP3    H211299   0.244   1.458   3.850
 3765TIP3   OH211300   6.282   5.172   0.345
 3765TIP3    H111301   6.344   5.233   0.307
 3765TIP3    H211302   6.257   5.114   0.273
 3766TIP3   OH211303   4.389   0.235   1.826
 3766TIP3    H111304   4.309   0.252   1.776
 3766TIP3    H211305   4.413   0.146   1.803
 3767TIP3   OH211306   2.708   5.579   1.189
 3767TIP3    H111307   2.698   5.621   1.274
 3767TIP3    H211308   2.764   5.638   1.139
 3768TIP3   OH211309   1.647   3.918   1.517
 3768TIP3    H111310   1.609   3.852   1.460
 3768TIP3    H211311   1.573   3.953   1.567
 3769TIP3   OH211312   4.693   2.101   1.398
 3769TIP3    H111313   4.625   2.072   1.459
 3769TIP3    H211314   4.755   2.028   1.395
 3770TIP3   OH211315   0.893   5.386   3.729
 3770TIP3    H111316   0.865   5.338   3.651
 3770TIP3    H211317   0.817   5.384   3.787
 3771TIP3   OH211318   3.816   5.826   0.302
 3771TIP3    H111319   3.894   5.813   0.249
 3771TIP3    H211320   3.844   5.887   0.371
 3772TIP3   OH211321   1.571   1.324   1.785
 3772TIP3    H111322   1.554   1.352   1.695
 3772TIP3    H211323   1.657   1.281   1.781
 3773TIP3   OH211324   2.999   3.355   3.864
 3773TIP3    H111325   3.086   3.317   3.876
 3773TIP3    H211326   2.960   3.354   3.951
 3774TIP3   OH211327   0.233   1.705   0.042
 3774TIP3    H111328   0.253   1.612   0.052
 3774TIP3    H211329   0.244   1.741   0.130
 3775TIP3   OH211330   1.459   0.933   0.923
 3775TIP3    H111331   1.369   0.932   0.889
 3775TIP3    H211332   1.495   1.016   0.892
 3776TIP3   OH211333   5.758   5.756   4.267
 3776TIP3    H111334   5.680   5.736   4.320
 3776TIP3    H211335   5.799   5.830   4.313
 3777TIP3   OH211336   4.860   0.795   1.863
 3777TIP3    H111337   4.790   0.745   1.905
 3777TIP3    H211338   4.933   0.791   1.925
 3778TIP3   OH211339   0.903   2.919   3.330
 3778TIP3    H111340   0.832   2.963   3.283
 3778TIP3    H211341   0.970   2.986   3.341
 3779TIP3   OH211342   4.671   0.280   2.363
 3779TIP3    H111343   4.659   0.371   2.337
 3779TIP3    H211344   4.746   0.281   2.422
 3780TIP3   OH211345   3.040   5.276   2.524
 3780TIP3    H111346   3.033   5.365   2.561
 3780TIP3    H211347   2.990   5.280   2.443
 3781TIP3   OH211348   2.183   0.817   0.905
 3781TIP3    H111349   2.138   0.733   0.915
 3781TIP3    H211350   2.253   0.800   0.841
 3782TIP3   OH211351   3.903   0.595   1.052
 3782TIP3    H111352   3.848   0.586   0.974
 3782TIP3    H211353   3.974   0.653   1.025
 3783TIP3   OH211354   1.164   4.865   0.951
 3783TIP3    H111355   1.206   4.891   1.033
 3783TIP3    H211356   1.217   4.792   0.919
 3784TIP3   OH211357   5.471   5.682   3.178
 3784TIP3    H111358   5.421   5.764   3.169
 3784TIP3    H211359   5.539   5.688   3.111
 3785TIP3   OH211360   6.089   4.676   0.506
 3785TIP3    H111361   6.029   4.741   0.542
 3785TIP3    H211362   6.034   4.601   0.484
 3786TIP3   OH211363   2.846   0.370   3.131
 3786TIP3    H111364   2.878   0.455   3.159
 3786TIP3    H211365   2.761   0.360   3.175
 3787TIP3   OH211366   0.798   1.662   4.459
 3787TIP3    H111367   0.888   1.688   4.479
 3787TIP3    H211368   0.790   1.673   4.365
 3788TIP3   OH211369   0.347   0.253   1.666
 3788TIP3    H111370   0.371   0.237   1.575
 3788TIP3    H211371   0.369   0.172   1.712
 3789TIP3   OH211372   1.759   2.595   4.876
 3789TIP3    H111373   1.698   2.521   4.874
 3789TIP3    H211374   1.846   2.555   4.877
 3790TIP3   OH211375   3.963   0.779   0.671
 3790TIP3    H111376   3.877   0.761   0.634
 3790TIP3    H211377   4.011   0.823   0.600
 3791TIP3   OH211378   2.542   1.606   3.223
 3791TIP3    H111379   2.458   1.570   3.194
 3791TIP3    H211380   2.519   1.668   3.292
 3792TIP3   OH211381   1.172   4.624   2.388
 3792TIP3    H111382   1.193   4.681   2.463
 3792TIP3    H211383   1.090   4.582   2.412
 3793TIP3   OH211384   5.557   5.455   2.359
 3793TIP3    H111385   5.600   5.474   2.275
 3793TIP3    H211386   5.467   5.484   2.346
 3794TIP3   OH211387   1.757   5.806   0.115
 3794TIP3    H111388   1.731   5.869   0.048
 3794TIP3    H211389   1.788   5.730   0.066
 3795TIP3   OH211390   1.476   1.907   4.837
 3795TIP3    H111391   1.457   1.813   4.844
 3795TIP3    H211392   1.497   1.934   4.927
 3796TIP3   OH211393   6.040   0.443   1.395
 3796TIP3    H111394   5.974   0.428   1.463
 3796TIP3    H211395   6.054   0.357   1.356
 3797TIP3   OH211396   0.674   5.098   3.865
 3797TIP3    H111397   0.701   5.028   3.807
 3797TIP3    H211398   0.614   5.152   3.813
 3798TIP3   OH211399   2.878   5.885   2.051
 3798TIP3    H111400   2.859   5.979   2.060
 3798TIP3    H211401   2.971   5.882   2.027
 3799TIP3   OH211402   6.053   5.285   3.713
 3799TIP3    H111403   6.016   5.276   3.626
 3799TIP3    H211404   6.044   5.379   3.734
 3800TIP3   OH211405   5.932   0.364   1.040
 3800TIP3    H111406   5.863   0.419   1.077
 3800TIP3    H211407   5.888   0.282   1.018
 3801TIP3   OH211408   2.046   2.599   4.438
 3801TIP3    H111409   2.072   2.676   4.488
 3801TIP3    H211410   1.983   2.554   4.494
 3802TIP3   OH211411   5.888   3.849   1.052
 3802TIP3    H111412   5.880   3.943   1.073
 3802TIP3    H211413   5.910   3.847   0.959
 3803TIP3   OH211414   1.426   0.934   2.111
 3803TIP3    H111415   1.334   0.918   2.091
 3803TIP3    H211416   1.471   0.933   2.027
 3804TIP3   OH211417   0.995   4.747   4.663
 3804TIP3    H111418   0.993   4.658   4.628
 3804TIP3    H211419   0.909   4.760   4.702
 3805TIP3   OH211420   1.909   5.812   3.263
 3805TIP3    H111421   1.846   5.788   3.331
 3805TIP3    H211422   1.993   5.814   3.308
 3806TIP3   OH211423   2.550   2.474   1.550
 3806TIP3    H111424   2.460   2.472   1.581
 3806TIP3    H211425   2.544   2.461   1.455
 3807TIP3   OH211426   4.085   5.252   0.735
 3807TIP3    H111427   4.045   5.335   0.760
 3807TIP3    H211428   4.118   5.266   0.647
 3808TIP3   OH211429   4.400   5.820   2.970
 3808TIP3    H111430   4.420   5.836   3.063
 3808TIP3    H211431   4.436   5.896   2.925
 3809TIP3   OH211432   1.983   1.667   4.560
 3809TIP3    H111433   2.047   1.735   4.539
 3809TIP3    H211434   1.972   1.618   4.478
 3810TIP3   OH211435   4.084   0.928   1.502
 3810TIP3    H111436   4.051   0.929   1.592
 3810TIP3    H211437   4.137   1.007   1.495
 3811TIP3   OH211438   4.404   5.499   2.634
 3811TIP3    H111439   4.377   5.527   2.721
 3811TIP3    H211440   4.484   5.549   2.617
 3812TIP3   OH211441   4.335   5.474   2.258
 3812TIP3    H111442   4.275   5.544   2.284
 3812TIP3    H211443   4.416   5.494   2.305
 3813TIP3   OH211444   4.166   4.653   4.449
 3813TIP3    H111445   4.182   4.562   4.425
 3813TIP3    H211446   4.248   4.699   4.430
 3814TIP3   OH211447   5.500   1.774   2.407
 3814TIP3    H111448   5.511   1.854   2.355
 3814TIP3    H211449   5.474   1.806   2.493
 3815TIP3   OH211450   1.938   2.551   1.920
 3815TIP3    H111451   2.016   2.578   1.969
 3815TIP3    H211452   1.866   2.599   1.962
 3816TIP3   OH211453   0.147   2.555   4.741
 3816TIP3    H111454   0.179   2.498   4.811
 3816TIP3    H211455   0.224   2.570   4.686
 3817TIP3   OH211456   2.141   4.428   2.580
 3817TIP3    H111457   2.072   4.420   2.515
 3817TIP3    H211458   2.095   4.443   2.663
 3818TIP3   OH211459   4.783   3.875   1.980
 3818TIP3    H111460   4.766   3.960   1.940
 3818TIP3    H211461   4.867   3.886   2.025
 3819TIP3   OH211462   4.019   3.710   2.419
 3819TIP3    H111463   3.932   3.711   2.459
 3819TIP3    H211464   4.040   3.802   2.404
 3820TIP3   OH211465   1.056   2.233   3.758
 3820TIP3    H111466   1.087   2.161   3.814
 3820TIP3    H211467   0.975   2.200   3.718
 3821TIP3   OH211468   5.353   3.463   0.789
 3821TIP3    H111469   5.444   3.464   0.757
 3821TIP3    H211470   5.337   3.372   0.813
 3822TIP3   OH211471   4.650   4.090   1.832
 3822TIP3    H111472   4.673   4.178   1.862
 3822TIP3    H211473   4.700   4.079   1.751
 3823TIP3   OH211474   2.735   0.044   5.053
 3823TIP3    H111475   2.652   0.084   5.027
 3823TIP3    H211476   2.781   0.029   4.971
 3824TIP3   OH211477   2.116   4.241   2.292
 3824TIP3    H111478   2.040   4.200   2.333
 3824TIP3    H211479   2.174   4.168   2.269
 3825TIP3   OH211480   4.651   0.931   4.377
 3825TIP3    H111481   4.737   0.895   4.358
 3825TIP3    H211482   4.660   0.970   4.464
 3826TIP3   OH211483   0.136   4.299   1.834
 3826TIP3    H111484   0.186   4.349   1.898
 3826TIP3    H211485   0.044   4.313   1.858
 3827TIP3   OH211486   2.793   4.621   2.213
 3827TIP3    H111487   2.749   4.552   2.262
 3827TIP3    H211488   2.882   4.622   2.248
 3828TIP3   OH211489   5.206   3.815   4.112
 3828TIP3    H111490   5.167   3.800   4.198
 3828TIP3    H211491   5.300   3.807   4.128
 3829TIP3   OH211492   5.478   0.188   0.386
 3829TIP3    H111493   5.504   0.237   0.464
 3829TIP3    H211494   5.397   0.230   0.357
 3830TIP3   OH211495   0.628   4.487   0.870
 3830TIP3    H111496   0.673   4.471   0.788
 3830TIP3    H211497   0.698   4.504   0.934
 3831TIP3   OH211498   4.224   0.286   1.210
 3831TIP3    H111499   4.214   0.299   1.116
 3831TIP3    H211500   4.193   0.368   1.249
 3832TIP3   OH211501   5.390   3.864   4.341
 3832TIP3    H111502   5.467   3.914   4.367
 3832TIP3    H211503   5.316   3.919   4.366
 3833TIP3   OH211504   0.438   3.411   0.335
 3833TIP3    H111505   0.361   3.432   0.281
 3833TIP3    H211506   0.463   3.323   0.306
 3834TIP3   OH211507   1.200   5.449   3.293
 3834TIP3    H111508   1.267   5.393   3.334
 3834TIP3    H211509   1.117   5.413   3.324
 3835TIP3   OH211510   0.752   5.330   3.986
 3835TIP3    H111511   0.742   5.300   4.077
 3835TIP3    H211512   0.723   5.256   3.933
 3836TIP3   OH211513   5.997   5.558   4.800
 3836TIP3    H111514   6.031   5.503   4.729
 3836TIP3    H211515   5.922   5.603   4.760
 3837TIP3   OH211516   0.318   3.993   4.071
 3837TIP3    H111517   0.387   3.935   4.039
 3837TIP3    H211518   0.361   4.046   4.139
 3838TIP3   OH211519   3.339   4.380   2.330
 3838TIP3    H111520   3.421   4.332   2.338
 3838TIP3    H211521   3.330   4.398   2.236
 3839TIP3   OH211522   3.238   2.913   3.305
 3839TIP3    H111523   3.301   2.963   3.358
 3839TIP3    H211524   3.153   2.949   3.329
 3840TIP3   OH211525   4.872   5.214   4.998
 3840TIP3    H111526   4.791   5.211   5.049
 3840TIP3    H211527   4.879   5.305   4.969
 3841TIP3   OH211528   0.809   4.048   2.933
 3841TIP3    H111529   0.884   3.995   2.908
 3841TIP3    H211530   0.753   4.048   2.855
 3842TIP3   OH211531   5.782   3.605   1.042
 3842TIP3    H111532   5.861   3.659   1.043
 3842TIP3    H211533   5.790   3.550   1.120
 3843TIP3   OH211534   3.024   3.655   2.086
 3843TIP3    H111535   3.044   3.615   2.170
 3843TIP3    H211536   3.100   3.710   2.067
 3844TIP3   OH211537   1.258   2.721   2.657
 3844TIP3    H111538   1.283   2.813   2.659
 3844TIP3    H211539   1.329   2.678   2.610
 3845TIP3   OH211540   0.921   1.916   2.836
 3845TIP3    H111541   0.886   1.988   2.887
 3845TIP3    H211542   0.876   1.922   2.752
 3846TIP3   OH211543   4.859   3.525   1.096
 3846TIP3    H111544   4.913   3.481   1.030
 3846TIP3    H211545   4.826   3.603   1.052
 3847TIP3   OH211546   4.259   3.407   3.437
 3847TIP3    H111547   4.337   3.355   3.420
 3847TIP3    H211548   4.227   3.432   3.350
 3848TIP3   OH211549   4.514   4.358   2.959
 3848TIP3    H111550   4.513   4.376   2.865
 3848TIP3    H211551   4.542   4.267   2.967
 3849TIP3   OH211552   2.034   2.148   2.785
 3849TIP3    H111553   2.052   2.054   2.785
 3849TIP3    H211554   1.944   2.155   2.817
 3850TIP3   OH211555   2.735   0.652   0.318
 3850TIP3    H111556   2.804   0.695   0.268
 3850TIP3    H211557   2.778   0.621   0.397
 3851TIP3   OH211558   1.119   5.326   1.514
 3851TIP3    H111559   1.109   5.287   1.427
 3851TIP3    H211560   1.117   5.420   1.499
 3852TIP3   OH211561   3.534   0.268   2.615
 3852TIP3    H111562   3.536   0.268   2.520
 3852TIP3    H211563   3.602   0.205   2.640
 3853TIP3   OH211564   3.131   4.817   1.550
 3853TIP3    H111565   3.188   4.749   1.587
 3853TIP3    H211566   3.104   4.782   1.466
 3854TIP3   OH211567   3.416   0.390   2.963
 3854TIP3    H111568   3.496   0.368   2.915
 3854TIP3    H211569   3.385   0.306   2.997
 3855TIP3   OH211570   2.703   4.617   0.443
 3855TIP3    H111571   2.671   4.539   0.398
 3855TIP3    H211572   2.708   4.591   0.535
 3856TIP3   OH211573   4.288   4.732   4.822
 3856TIP3    H111574   4.310   4.640   4.833
 3856TIP3    H211575   4.195   4.733   4.803
 3857TIP3   OH211576   5.186   3.018   2.025
 3857TIP3    H111577   5.266   3.003   2.075
 3857TIP3    H211578   5.117   2.976   2.077
 3858TIP3   OH211579   5.784   2.515   5.119
 3858TIP3    H111580   5.737   2.592   5.151
 3858TIP3    H211581   5.715   2.454   5.093
 3859TIP3   OH211582   1.930   3.048   3.614
 3859TIP3    H111583   2.014   3.029   3.655
 3859TIP3    H211584   1.881   2.966   3.621
 3860TIP3   OH211585   1.299   4.377   3.685
 3860TIP3    H111586   1.269   4.435   3.615
 3860TIP3    H211587   1.270   4.419   3.765
 3861TIP3   OH211588   5.518   0.571   1.632
 3861TIP3    H111589   5.424   0.563   1.614
 3861TIP3    H211590   5.534   0.666   1.631
 3862TIP3   OH211591   0.280   0.098   0.755
 3862TIP3    H111592   0.355   0.086   0.813
 3862TIP3    H211593   0.204   0.080   0.810
 3863TIP3   OH211594   2.898   2.510   2.396
 3863TIP3    H111595   2.900   2.595   2.353
 3863TIP3    H211596   2.988   2.477   2.387
 3864TIP3   OH211597   2.267   5.828   2.535
 3864TIP3    H111598   2.195   5.819   2.473
 3864TIP3    H211599   2.258   5.916   2.571
 3865TIP3   OH211600   2.716   1.955   2.778
 3865TIP3    H111601   2.685   1.973   2.867
 3865TIP3    H211602   2.809   1.936   2.789
 3866TIP3   OH211603   5.761   1.109   0.184
 3866TIP3    H111604   5.700   1.140   0.251
 3866TIP3    H211605   5.840   1.085   0.234
 3867TIP3   OH211606   5.539   5.189   1.166
 3867TIP3    H111607   5.611   5.193   1.228
 3867TIP3    H211608   5.517   5.096   1.161
 3868TIP3   OH211609   4.123   2.753   2.379
 3868TIP3    H111610   4.102   2.670   2.338
 3868TIP3    H211611   4.212   2.773   2.350
 3869TIP3   OH211612   2.160   0.417   0.141
 3869TIP3    H111613   2.172   0.322   0.142
 3869TIP3    H211614   2.166   0.441   0.049
 3870TIP3   OH211615   6.151   0.446   4.942
 3870TIP3    H111616   6.149   0.512   4.873
 3870TIP3    H211617   6.193   0.490   5.017
 3871TIP3   OH211618   3.188   5.181   4.366
 3871TIP3    H111619   3.173   5.215   4.454
 3871TIP3    H211620   3.195   5.260   4.311
 3872TIP3   OH211621   5.507   3.761   1.857
 3872TIP3    H111622   5.440   3.739   1.922
 3872TIP3    H211623   5.575   3.804   1.908
 3873TIP3   OH211624   3.117   5.406   0.388
 3873TIP3    H111625   3.092   5.473   0.452
 3873TIP3    H211626   3.174   5.452   0.326
 3874TIP3   OH211627   4.551   0.349   1.994
 3874TIP3    H111628   4.604   0.381   1.922
 3874TIP3    H211629   4.469   0.321   1.953
 3875TIP3   OH211630   4.108   2.201   3.287
 3875TIP3    H111631   4.063   2.127   3.328
 3875TIP3    H211632   4.154   2.244   3.358
 3876TIP3   OH211633   5.541   1.249   4.747
 3876TIP3    H111634   5.486   1.321   4.778
 3876TIP3    H211635   5.581   1.213   4.826
 3877TIP3   OH211636   3.803   4.119   1.469
 3877TIP3    H111637   3.841   4.197   1.429
 3877TIP3    H211638   3.800   4.055   1.399
 3878TIP3   OH211639   5.975   3.972   2.806
 3878TIP3    H111640   5.917   4.032   2.759
 3878TIP3    H211641   6.001   4.021   2.884
 3879TIP3   OH211642   0.194   4.934   4.347
 3879TIP3    H111643   0.278   4.942   4.302
 3879TIP3    H211644   0.173   4.841   4.342
 3880TIP3   OH211645   4.210   1.492   3.505
 3880TIP3    H111646   4.180   1.416   3.555
 3880TIP3    H211647   4.194   1.566   3.563
 3881TIP3   OH211648   1.545   3.005   0.908
 3881TIP3    H111649   1.474   2.972   0.853
 3881TIP3    H211650   1.571   2.931   0.963
 3882TIP3   OH211651   5.783   4.373   3.434
 3882TIP3    H111652   5.825   4.288   3.443
 3882TIP3    H211653   5.728   4.381   3.512
 3883TIP3   OH211654   2.487   1.540   1.419
 3883TIP3    H111655   2.409   1.486   1.432
 3883TIP3    H211656   2.455   1.630   1.425
 3884TIP3   OH211657   6.161   3.159   0.740
 3884TIP3    H111658   6.121   3.182   0.825
 3884TIP3    H211659   6.141   3.066   0.729
 3885TIP3   OH211660   5.810   5.517   3.556
 3885TIP3    H111661   5.772   5.441   3.512
 3885TIP3    H211662   5.775   5.593   3.509
 3886TIP3   OH211663   5.589   5.684   1.700
 3886TIP3    H111664   5.626   5.726   1.622
 3886TIP3    H211665   5.498   5.713   1.702
 3887TIP3   OH211666   5.155   4.576   1.786
 3887TIP3    H111667   5.077   4.626   1.809
 3887TIP3    H211668   5.229   4.634   1.808
 3888TIP3   OH211669   5.996   4.080   1.369
 3888TIP3    H111670   5.999   4.084   1.273
 3888TIP3    H211671   5.983   3.987   1.389
 3889TIP3   OH211672   1.513   2.868   3.854
 3889TIP3    H111673   1.572   2.855   3.780
 3889TIP3    H211674   1.466   2.785   3.862
 3890TIP3   OH211675   4.730   3.569   4.368
 3890TIP3    H111676   4.649   3.547   4.321
 3890TIP3    H211677   4.715   3.657   4.401
 3891TIP3   OH211678   3.570   3.198   3.252
 3891TIP3    H111679   3.621   3.266   3.208
 3891TIP3    H211680   3.496   3.245   3.291
 3892TIP3   OH211681   4.514   2.888   3.627
 3892TIP3    H111682   4.473   2.802   3.615
 3892TIP3    H211683   4.606   2.869   3.643
 3893TIP3   OH211684   2.157   3.743   2.198
 3893TIP3    H111685   2.088   3.806   2.180
 3893TIP3    H211686   2.220   3.754   2.126
 3894TIP3   OH211687  -0.000   0.886   5.103
 3894TIP3    H111688  -0.002   0.980   5.123
 3894TIP3    H211689   0.070   0.877   5.038
 3895TIP3   OH211690   0.158   4.909   3.792
 3895TIP3    H111691   0.122   4.941   3.709
 3895TIP3    H211692   0.250   4.893   3.773
 3896TIP3   OH211693   3.874   5.463   2.668
 3896TIP3    H111694   3.900   5.376   2.639
 3896TIP3    H211695   3.947   5.520   2.641
 3897TIP3   OH211696   1.359   2.104   1.107
 3897TIP3    H111697   1.287   2.048   1.078
 3897TIP3    H211698   1.317   2.186   1.132
 3898TIP3   OH211699   4.343   3.869   4.985
 3898TIP3    H111700   4.438   3.879   4.981
 3898TIP3    H211701   4.326   3.845   5.076
 3899TIP3   OH211702   4.840   2.156   2.304
 3899TIP3    H111703   4.931   2.126   2.304
 3899TIP3    H211704   4.847   2.251   2.302
 3900TIP3   OH211705   2.063   2.729   3.389
 3900TIP3    H111706   2.075   2.726   3.295
 3900TIP3    H211707   2.104   2.812   3.416
 3901TIP3   OH211708   0.346   0.118   4.137
 3901TIP3    H111709   0.277   0.066   4.096
 3901TIP3    H211710   0.333   0.106   4.231
 3902TIP3   OH211711   0.325   4.538   0.325
 3902TIP3    H111712   0.264   4.511   0.256
 3902TIP3    H211713   0.342   4.458   0.374
 3903TIP3   OH211714   3.381   5.179   0.388
 3903TIP3    H111715   3.404   5.268   0.361
 3903TIP3    H211716   3.300   5.190   0.438
 3904TIP3   OH211717   0.064   3.973   1.514
 3904TIP3    H111718  -0.003   4.042   1.519
 3904TIP3    H211719   0.079   3.962   1.420
 3905TIP3   OH211720   0.772   2.150   2.900
 3905TIP3    H111721   0.777   2.214   2.829
 3905TIP3    H211722   0.800   2.199   2.978
 3906TIP3   OH211723   5.045   1.953   3.729
 3906TIP3    H111724   5.060   1.863   3.698
 3906TIP3    H211725   5.015   1.942   3.819
 3907TIP3   OH211726   3.561   1.682   2.219
 3907TIP3    H111727   3.640   1.683   2.273
 3907TIP3    H211728   3.492   1.713   2.277
 3908TIP3   OH211729   5.083   2.296   1.065
 3908TIP3    H111730   5.166   2.275   1.021
 3908TIP3    H211731   5.037   2.352   1.003
 3909TIP3   OH211732   6.060   5.414   4.171
 3909TIP3    H111733   6.134   5.420   4.110
 3909TIP3    H211734   6.006   5.491   4.151
 3910TIP3   OH211735   0.997   4.399   2.792
 3910TIP3    H111736   1.077   4.346   2.786
 3910TIP3    H211737   0.960   4.378   2.877
 3911TIP3   OH211738   1.216   3.139   4.927
 3911TIP3    H111739   1.306   3.119   4.953
 3911TIP3    H211740   1.166   3.134   5.008
 3912TIP3   OH211741   0.305   3.851   0.408
 3912TIP3    H111742   0.267   3.822   0.325
 3912TIP3    H211743   0.291   3.777   0.467
 3913TIP3   OH211744   4.373   2.109   0.920
 3913TIP3    H111745   4.427   2.134   0.995
 3913TIP3    H211746   4.346   2.019   0.939
 3914TIP3   OH211747   5.262   4.004   1.802
 3914TIP3    H111748   5.342   4.054   1.813
 3914TIP3    H211749   5.262   3.978   1.710
 3915TIP3   OH211750   0.346   2.400   4.840
 3915TIP3    H111751   0.357   2.329   4.777
 3915TIP3    H211752   0.414   2.463   4.818
 3916TIP3   OH211753   4.362   1.737   1.285
 3916TIP3    H111754   4.296   1.772   1.344
 3916TIP3    H211755   4.383   1.650   1.321
 3917TIP3   OH211756   5.408   5.039   2.186
 3917TIP3    H111757   5.382   5.026   2.095
 3917TIP3    H211758   5.393   4.954   2.228
 3918TIP3   OH211759   1.581   2.678   3.106
 3918TIP3    H111760   1.500   2.629   3.087
 3918TIP3    H211761   1.574   2.757   3.052
 3919TIP3   OH211762   3.436   5.455   4.688
 3919TIP3    H111763   3.502   5.485   4.625
 3919TIP3    H211764   3.485   5.406   4.753
 3920TIP3   OH211765   6.005   2.889   3.258
 3920TIP3    H111766   6.036   2.845   3.178
 3920TIP3    H211767   5.923   2.931   3.232
 3921TIP3   OH211768   4.142   5.277   1.988
 3921TIP3    H111769   4.231   5.298   2.016
 3921TIP3    H211770   4.152   5.243   1.899
 3922TIP3   OH211771   4.728   3.728   4.085
 3922TIP3    H111772   4.667   3.800   4.068
 3922TIP3    H211773   4.783   3.760   4.156
 3923TIP3   OH211774   5.374   3.835   0.085
 3923TIP3    H111775   5.392   3.907   0.145
 3923TIP3    H211776   5.416   3.861   0.003
 3924TIP3   OH211777   6.153   3.457   0.791
 3924TIP3    H111778   6.097   3.483   0.718
 3924TIP3    H211779   6.103   3.391   0.838
 3925TIP3   OH211780   5.388   1.205   1.256
 3925TIP3    H111781   5.423   1.149   1.325
 3925TIP3    H211782   5.408   1.294   1.286
 3926TIP3   OH211783   1.289   0.478   4.833
 3926TIP3    H111784   1.249   0.550   4.882
 3926TIP3    H211785   1.371   0.461   4.879
 3927TIP3   OH211786   3.296   0.282   3.468
 3927TIP3    H111787   3.392   0.274   3.470
 3927TIP3    H211788   3.276   0.299   3.376
 3928TIP3   OH211789   1.098   3.738   5.180
 3928TIP3    H111790   1.146   3.810   5.139
 3928TIP3    H211791   1.165   3.686   5.223
 3929TIP3   OH211792   1.825   5.225   4.183
 3929TIP3    H111793   1.877   5.164   4.235
 3929TIP3    H211794   1.737   5.187   4.182
 3930TIP3   OH211795   1.593   0.910   0.623
 3930TIP3    H111796   1.680   0.905   0.662
 3930TIP3    H211797   1.596   0.849   0.549
 3931TIP3   OH211798   3.651   1.234   0.829
 3931TIP3    H111799   3.667   1.279   0.912
 3931TIP3    H211800   3.737   1.228   0.788
 3932TIP3   OH211801   1.966   0.661   1.431
 3932TIP3    H111802   2.032   0.609   1.384
 3932TIP3    H211803   2.003   0.749   1.434
 3933TIP3   OH211804   4.835   1.608   2.353
 3933TIP3    H111805   4.916   1.564   2.331
 3933TIP3    H211806   4.859   1.670   2.422
 3934TIP3   OH211807   1.160   1.985   0.921
 3934TIP3    H111808   1.153   2.065   0.870
 3934TIP3    H211809   1.246   1.949   0.897
 3935TIP3   OH211810   5.219   2.056   2.891
 3935TIP3    H111811   5.190   2.110   2.818
 3935TIP3    H211812   5.153   2.071   2.959
 3936TIP3   OH211813   2.300   2.182   3.416
 3936TIP3    H111814   2.256   2.214   3.494
 3936TIP3    H211815   2.230   2.144   3.362
 3937TIP3   OH211816   2.999   1.466   0.591
 3937TIP3    H111817   3.067   1.426   0.645
 3937TIP3    H211818   3.029   1.556   0.579
 3938TIP3   OH211819   5.053   0.910   4.560
 3938TIP3    H111820   5.002   0.868   4.629
 3938TIP3    H211821   5.077   0.838   4.501
 3939TIP3   OH211822   1.301   2.112   2.563
 3939TIP3    H111823   1.236   2.136   2.497
 3939TIP3    H211824   1.316   2.019   2.549
 3940TIP3   OH211825   6.092   0.183   3.274
 3940TIP3    H111826   6.054   0.162   3.359
 3940TIP3    H211827   6.152   0.256   3.292
 3941TIP3   OH211828   1.306   5.128   1.298
 3941TIP3    H111829   1.347   5.071   1.363
 3941TIP3    H211830   1.229   5.079   1.269
 3942TIP3   OH211831   0.934   4.996   1.812
 3942TIP3    H111832   0.838   4.995   1.818
 3942TIP3    H211833   0.954   4.936   1.740
 3943TIP3   OH211834   0.128   0.279   0.602
 3943TIP3    H111835   0.194   0.227   0.647
 3943TIP3    H211836   0.114   0.355   0.659
 3944TIP3   OH211837   5.789   5.408   3.827
 3944TIP3    H111838   5.824   5.395   3.739
 3944TIP3    H211839   5.736   5.487   3.821
 3945TIP3   OH211840   3.281   5.165   2.956
 3945TIP3    H111841   3.260   5.161   2.863
 3945TIP3    H211842   3.196   5.160   3.000
 3946TIP3   OH211843   5.813   0.947   3.478
 3946TIP3    H111844   5.877   1.001   3.431
 3946TIP3    H211845   5.728   0.985   3.455
 3947TIP3   OH211846   5.617   2.192   0.516
 3947TIP3    H111847   5.541   2.230   0.472
 3947TIP3    H211848   5.628   2.245   0.595
 3948TIP3   OH211849   4.123   2.443   3.059
 3948TIP3    H111850   4.157   2.485   3.138
 3948TIP3    H211851   4.197   2.393   3.025
 3949TIP3   OH211852   1.183   5.156   3.523
 3949TIP3    H111853   1.239   5.160   3.446
 3949TIP3    H211854   1.101   5.198   3.495
 3950TIP3   OH211855   2.166   2.542   5.140
 3950TIP3    H111856   2.155   2.636   5.150
 3950TIP3    H211857   2.258   2.526   5.158
 3951TIP3   OH211858   1.346   1.587   1.446
 3951TIP3    H111859   1.405   1.518   1.415
 3951TIP3    H211860   1.275   1.541   1.489
 3952TIP3   OH211861   2.594   2.025   2.107
 3952TIP3    H111862   2.537   1.999   2.179
 3952TIP3    H211863   2.662   1.957   2.105
 3953TIP3   OH211864   3.681   0.999   3.880
 3953TIP3    H111865   3.614   1.065   3.893
 3953TIP3    H211866   3.637   0.928   3.833
 3954TIP3   OH211867   3.794   4.537   0.620
 3954TIP3    H111868   3.808   4.556   0.713
 3954TIP3    H211869   3.880   4.510   0.588
 3955TIP3   OH211870   3.740   5.127   3.538
 3955TIP3    H111871   3.712   5.123   3.447
 3955TIP3    H211872   3.835   5.117   3.535
 3956TIP3   OH211873   1.379   4.289   0.540
 3956TIP3    H111874   1.331   4.372   0.532
 3956TIP3    H211875   1.443   4.305   0.609
 3957TIP3   OH211876   1.710   1.403   3.410
 3957TIP3    H111877   1.782   1.375   3.355
 3957TIP3    H211878   1.638   1.419   3.349
 3958TIP3   OH211879   2.380   1.184   1.857
 3958TIP3    H111880   2.333   1.251   1.908
 3958TIP3    H211881   2.463   1.227   1.834
 3959TIP3   OH211882   3.597   0.969   2.032
 3959TIP3    H111883   3.659   0.945   2.101
 3959TIP3    H211884   3.541   1.036   2.072
 3960TIP3   OH211885   4.513   1.483   1.087
 3960TIP3    H111886   4.461   1.534   1.148
 3960TIP3    H211887   4.449   1.439   1.031
 3961TIP3   OH211888   1.113   1.868   2.084
 3961TIP3    H111889   1.055   1.855   2.158
 3961TIP3    H211890   1.147   1.781   2.064
 3962TIP3   OH211891   5.537   3.328   4.304
 3962TIP3    H111892   5.632   3.336   4.293
 3962TIP3    H211893   5.511   3.266   4.237
 3963TIP3   OH211894   1.938   5.081   1.398
 3963TIP3    H111895   1.987   5.126   1.467
 3963TIP3    H211896   1.901   5.152   1.345
 3964TIP3   OH211897   6.113   2.875   3.719
 3964TIP3    H111898   6.147   2.960   3.689
 3964TIP3    H211899   6.178   2.811   3.690
 3965TIP3   OH211900   4.744   2.453   4.467
 3965TIP3    H111901   4.754   2.363   4.499
 3965TIP3    H211902   4.830   2.492   4.478
 3966TIP3   OH211903   0.911   2.801   1.899
 3966TIP3    H111904   0.865   2.719   1.880
 3966TIP3    H211905   0.938   2.793   1.990
 3967TIP3   OH211906   4.228   3.870   2.174
 3967TIP3    H111907   4.322   3.854   2.188
 3967TIP3    H211908   4.207   3.943   2.232
 3968TIP3   OH211909   4.440   5.614   4.839
 3968TIP3    H111910   4.390   5.560   4.778
 3968TIP3    H211911   4.406   5.703   4.826
 3969TIP3   OH211912   2.390   3.054   2.833
 3969TIP3    H111913   2.423   3.008   2.910
 3969TIP3    H211914   2.417   3.145   2.847
 3970TIP3   OH211915   5.602   4.908   0.708
 3970TIP3    H111916   5.603   4.828   0.656
 3970TIP3    H211917   5.509   4.927   0.721
 3971TIP3   OH211918   2.368   4.841   3.764
 3971TIP3    H111919   2.412   4.894   3.831
 3971TIP3    H211920   2.434   4.828   3.696
 3972TIP3   OH211921   5.064   5.474   1.916
 3972TIP3    H111922   5.109   5.546   1.960
 3972TIP3    H211923   4.971   5.490   1.933
 3973TIP3   OH211924   5.240   3.664   0.939
 3973TIP3    H111925   5.264   3.577   0.907
 3973TIP3    H211926   5.299   3.679   1.013
 3974TIP3   OH211927   1.999   3.527   3.473
 3974TIP3    H111928   1.940   3.489   3.538
 3974TIP3    H211929   2.059   3.456   3.450
 3975TIP3   OH211930   4.260   0.874   4.873
 3975TIP3    H111931   4.197   0.875   4.801
 3975TIP3    H211932   4.234   0.798   4.926
 3976TIP3   OH211933   6.338   0.444   1.465
 3976TIP3    H111934   6.353   0.525   1.514
 3976TIP3    H211935   6.245   0.448   1.441
 3977TIP3   OH211936   5.831   4.560   1.159
 3977TIP3    H111937   5.845   4.635   1.102
 3977TIP3    H211938   5.845   4.593   1.248
 3978TIP3   OH211939   0.227   4.043   4.520
 3978TIP3    H111940   0.252   4.063   4.610
 3978TIP3    H211941   0.288   3.973   4.494
 3979TIP3   OH211942   1.803   4.961   4.332
 3979TIP3    H111943   1.749   5.020   4.385
 3979TIP3    H211944   1.744   4.888   4.310
 3980TIP3   OH211945   3.147   1.187   2.510
 3980TIP3    H111946   3.161   1.121   2.578
 3980TIP3    H211947   3.053   1.205   2.515
 3981TIP3   OH211948   2.385   2.152   4.753
 3981TIP3    H111949   2.353   2.062   4.740
 3981TIP3    H211950   2.307   2.202   4.776
 3982TIP3   OH211951   4.337   3.176   4.097
 3982TIP3    H111952   4.368   3.136   4.016
 3982TIP3    H211953   4.406   3.238   4.121
 3983TIP3   OH211954   5.517   1.866   4.720
 3983TIP3    H111955   5.533   1.807   4.646
 3983TIP3    H211956   5.454   1.819   4.774
 3984TIP3   OH211957   0.637   1.336   3.521
 3984TIP3    H111958   0.646   1.242   3.536
 3984TIP3    H211959   0.601   1.342   3.433
 3985TIP3   OH211960   1.245   1.153   4.589
 3985TIP3    H111961   1.280   1.184   4.505
 3985TIP3    H211962   1.287   1.068   4.602
 3986TIP3   OH211963   2.992   3.796   0.060
 3986TIP3    H111964   2.955   3.711   0.034
 3986TIP3    H211965   2.919   3.843   0.099
 3987TIP3   OH211966   4.152   2.140   4.840
 3987TIP3    H111967   4.192   2.053   4.840
 3987TIP3    H211968   4.059   2.123   4.822
 3988TIP3   OH211969   6.218   1.138   2.898
 3988TIP3    H111970   6.159   1.185   2.958
 3988TIP3    H211971   6.205   1.181   2.813
 3989TIP3   OH211972   6.123   3.162   2.856
 3989TIP3    H111973   6.153   3.086   2.806
 3989TIP3    H211974   6.129   3.235   2.794
 3990TIP3   OH211975   0.358   0.900   5.062
 3990TIP3    H111976   0.315   0.815   5.052
 3990TIP3    H211977   0.347   0.921   5.155
 3991TIP3   OH211978   2.087   0.535   4.414
 3991TIP3    H111979   2.089   0.626   4.443
 3991TIP3    H211980   2.169   0.523   4.366
 3992TIP3   OH211981   5.638   1.930   0.597
 3992TIP3    H111982   5.663   2.018   0.567
 3992TIP3    H211983   5.565   1.906   0.539
 3993TIP3   OH211984   6.230   5.510   0.659
 3993TIP3    H111985   6.252   5.454   0.734
 3993TIP3    H211986   6.240   5.599   0.691
 3994TIP3   OH211987   5.755   2.963   1.546
 3994TIP3    H111988   5.665   2.981   1.574
 3994TIP3    H211989   5.790   2.904   1.612
 3995TIP3   OH211990   1.677   0.250   3.012
 3995TIP3    H111991   1.720   0.245   3.097
 3995TIP3    H211992   1.587   0.220   3.029
 3996TIP3   OH211993   1.510   1.046   1.189
 3996TIP3    H111994   1.541   0.980   1.251
 3996TIP3    H211995   1.475   0.996   1.116
 3997TIP3   OH211996   0.439   4.598   2.728
 3997TIP3    H111997   0.405   4.677   2.771
 3997TIP3    H211998   0.361   4.549   2.703
 3998TIP3   OH211999   3.722   2.883   0.944
 3998TIP3    H112000   3.673   2.860   1.022
 3998TIP3    H212001   3.764   2.966   0.965
 3999TIP3   OH212002   4.760   3.370   3.573
 3999TIP3    H112003   4.819   3.392   3.501
 3999TIP3    H212004   4.729   3.454   3.605
 4000TIP3   OH212005   1.684   1.731   4.645
 4000TIP3    H112006   1.718   1.651   4.685
 4000TIP3    H212007   1.709   1.725   4.553
 4001TIP3   OH212008   2.708   2.391   4.993
 4001TIP3    H112009   2.676   2.301   4.987
 4001TIP3    H212010   2.706   2.412   5.086
 4002TIP3   OH212011   1.353   3.400   4.450
 4002TIP3    H112012   1.310   3.436   4.527
 4002TIP3    H212013   1.332   3.462   4.380
 4003TIP3   OH212014   4.217   5.057   0.335
 4003TIP3    H112015   4.302   5.039   0.296
 4003TIP3    H212016   4.218   5.150   0.355
 4004TIP3   OH212017   4.524   3.361   1.406
 4004TIP3    H112018   4.586   3.390   1.339
 4004TIP3    H212019   4.567   3.380   1.489
 4005TIP3   OH212020   4.507   3.675   0.539
 4005TIP3    H112021   4.581   3.668   0.478
 4005TIP3    H212022   4.442   3.728   0.493
 4006TIP3   OH212023   0.308   5.762   4.823
 4006TIP3    H112024   0.261   5.845   4.832
 4006TIP3    H212025   0.281   5.728   4.738
 4007TIP3   OH212026   1.658   2.628   2.352
 4007TIP3    H112027   1.720   2.554   2.352
 4007TIP3    H212028   1.632   2.637   2.261
 4008TIP3   OH212029   3.687   5.425   0.958
 4008TIP3    H112030   3.687   5.337   0.920
 4008TIP3    H212031   3.597   5.456   0.947
 4009TIP3   OH212032   2.109   2.797   3.819
 4009TIP3    H112033   2.112   2.716   3.870
 4009TIP3    H212034   2.046   2.779   3.749
 4010TIP3   OH212035   0.869   0.828   2.725
 4010TIP3    H112036   0.796   0.784   2.681
 4010TIP3    H212037   0.934   0.759   2.738
 4011TIP3   OH212038   0.614   1.797   1.479
 4011TIP3    H112039   0.655   1.726   1.429
 4011TIP3    H212040   0.653   1.790   1.566
 4012TIP3   OH212041   1.351   1.068   0.224
 4012TIP3    H112042   1.367   0.987   0.174
 4012TIP3    H212043   1.431   1.079   0.276
 4013TIP3   OH212044   0.545   2.718   2.690
 4013TIP3    H112045   0.519   2.685   2.604
 4013TIP3    H212046   0.477   2.782   2.713
 4014TIP3   OH212047   3.171   1.962   4.908
 4014TIP3    H112048   3.212   2.043   4.941
 4014TIP3    H212049   3.205   1.893   4.966
 4015TIP3   OH212050   2.262   2.819   0.027
 4015TIP3    H112051   2.189   2.840  -0.031
 4015TIP3    H212052   2.330   2.883   0.005
 4016TIP3   OH212053   0.363   3.604   1.003
 4016TIP3    H112054   0.340   3.643   1.088
 4016TIP3    H212055   0.282   3.606   0.953
 4017TIP3   OH212056   3.553   4.975   1.837
 4017TIP3    H112057   3.603   5.038   1.889
 4017TIP3    H212058   3.599   4.972   1.753
 4018TIP3   OH212059   3.479   2.769   0.172
 4018TIP3    H112060   3.478   2.694   0.112
 4018TIP3    H212061   3.514   2.734   0.254
 4019TIP3   OH212062   5.420   1.016   0.768
 4019TIP3    H112063   5.373   0.939   0.799
 4019TIP3    H212064   5.438   1.067   0.847
 4020TIP3   OH212065   1.744   0.063   4.951
 4020TIP3    H112066   1.690   0.012   5.013
 4020TIP3    H212067   1.749   0.008   4.873
 4021TIP3   OH212068   2.468   4.602   2.963
 4021TIP3    H112069   2.552   4.558   2.953
 4021TIP3    H212070   2.413   4.566   2.893
 4022TIP3   OH212071   3.165   2.429   3.638
 4022TIP3    H112072   3.139   2.486   3.566
 4022TIP3    H212073   3.116   2.348   3.623
 4023TIP3   OH212074   1.094   5.565   3.722
 4023TIP3    H112075   1.181   5.525   3.713
 4023TIP3    H212076   1.033   5.491   3.722
 4024TIP3   OH212077   2.844   2.206   4.514
 4024TIP3    H112078   2.911   2.152   4.555
 4024TIP3    H212079   2.786   2.231   4.585
 4025TIP3   OH212080   0.957   3.752   3.384
 4025TIP3    H112081   1.002   3.830   3.417
 4025TIP3    H212082   1.028   3.690   3.365
 4026TIP3   OH212083   3.646   0.298   4.304
 4026TIP3    H112084   3.653   0.288   4.399
 4026TIP3    H212085   3.552   0.305   4.287
 4027TIP3   OH212086   0.019   5.406   1.914
 4027TIP3    H112087   0.089   5.349   1.945
 4027TIP3    H212088  -0.006   5.369   1.829
 4028TIP3   OH212089   4.736   4.705   3.748
 4028TIP3    H112090   4.683   4.681   3.824
 4028TIP3    H212091   4.673   4.742   3.686
 4029TIP3   OH212092   4.619   2.055   0.382
 4029TIP3    H112093   4.547   2.117   0.387
 4029TIP3    H212094   4.615   2.021   0.293
 4030TIP3   OH212095   3.322   5.569   1.992
 4030TIP3    H112096   3.272   5.631   2.046
 4030TIP3    H212097   3.336   5.494   2.050
 4031TIP3   OH212098   5.232   5.881   3.003
 4031TIP3    H112099   5.227   5.958   3.059
 4031TIP3    H212100   5.204   5.809   3.059
 4032TIP3   OH212101   4.328   1.931   0.644
 4032TIP3    H112102   4.321   1.922   0.549
 4032TIP3    H212103   4.283   2.013   0.664
 4033TIP3   OH212104   0.751   1.138   1.721
 4033TIP3    H112105   0.733   1.210   1.782
 4033TIP3    H212106   0.793   1.071   1.775
 4034TIP3   OH212107   5.550   3.978   3.443
 4034TIP3    H112108   5.477   3.987   3.382
 4034TIP3    H212109   5.524   4.031   3.519
 4035TIP3   OH212110   0.163   3.660   1.918
 4035TIP3    H112111   0.181   3.672   1.825
 4035TIP3    H212112   0.243   3.688   1.962
 4036TIP3   OH212113   5.784   2.510   0.945
 4036TIP3    H112114   5.871   2.514   0.984
 4036TIP3    H212115   5.750   2.599   0.953
 4037TIP3   OH212116   2.906   4.799   0.305
 4037TIP3    H112117   2.868   4.855   0.372
 4037TIP3    H212118   2.832   4.750   0.270
 4038TIP3   OH212119   4.225   0.322   4.760
 4038TIP3    H112120   4.159   0.253   4.762
 4038TIP3    H212121   4.292   0.289   4.701
 4039TIP3   OH212122   5.301   2.192   3.837
 4039TIP3    H112123   5.377   2.205   3.780
 4039TIP3    H212124   5.232   2.247   3.800
 4040TIP3   OH212125   5.264   0.984   1.902
 4040TIP3    H112126   5.344   0.982   1.954
 4040TIP3    H212127   5.194   0.999   1.966
 4041TIP3   OH212128   3.772   3.462   2.763
 4041TIP3    H112129   3.835   3.523   2.724
 4041TIP3    H212130   3.815   3.376   2.756
 4042TIP3   OH212131   5.526   1.159   0.307
 4042TIP3    H112132   5.452   1.118   0.262
 4042TIP3    H212133   5.491   1.185   0.392
 4043TIP3   OH212134   5.486   3.832   1.358
 4043TIP3    H112135   5.471   3.755   1.412
 4043TIP3    H212136   5.444   3.903   1.406
 4044TIP3   OH212137   2.419   3.758   1.519
 4044TIP3    H112138   2.453   3.670   1.503
 4044TIP3    H212139   2.328   3.744   1.546
 4045TIP3   OH212140   1.553   2.359   4.534
 4045TIP3    H112141   1.528   2.267   4.548
 4045TIP3    H212142   1.610   2.356   4.457
 4046TIP3   OH212143   2.588   4.040   3.530
 4046TIP3    H112144   2.628   4.073   3.450
 4046TIP3    H212145   2.581   4.116   3.587
 4047TIP3   OH212146   5.130   5.598   0.533
 4047TIP3    H112147   5.098   5.575   0.446
 4047TIP3    H212148   5.202   5.538   0.549
 4048TIP3   OH212149   3.379   3.457   1.762
 4048TIP3    H112150   3.449   3.400   1.796
 4048TIP3    H212151   3.302   3.433   1.814
 4049TIP3   OH212152   4.975   5.304   2.163
 4049TIP3    H112153   4.960   5.375   2.225
 4049TIP3    H212154   5.063   5.320   2.128
 4050TIP3   OH212155   1.440   5.864   4.533
 4050TIP3    H112156   1.350   5.897   4.526
 4050TIP3    H212157   1.467   5.884   4.622
 4051TIP3   OH212158   1.960   2.879   0.953
 4051TIP3    H112159   1.923   2.852   1.038
 4051TIP3    H212160   2.042   2.923   0.975
 4052TIP3   OH212161   4.836   4.819   1.255
 4052TIP3    H112162   4.890   4.794   1.180
 4052TIP3    H212163   4.820   4.913   1.242
 4053TIP3   OH212164   5.923   2.178   0.925
 4053TIP3    H112165   5.967   2.199   1.008
 4053TIP3    H212166   5.940   2.084   0.913
 4054TIP3   OH212167   5.806   3.190   0.275
 4054TIP3    H112168   5.881   3.243   0.251
 4054TIP3    H212169   5.791   3.210   0.367
 4055TIP3   OH212170   0.176   0.000   0.515
 4055TIP3    H112171   0.169   0.094   0.501
 4055TIP3    H212172   0.249  -0.010   0.576
 4056TIP3   OH212173   6.149   1.004   0.028
 4056TIP3    H112174   6.171   1.096   0.012
 4056TIP3    H212175   6.069   0.989  -0.023
 4057TIP3   OH212176   0.245   2.221   0.511
 4057TIP3    H112177   0.194   2.300   0.525
 4057TIP3    H212178   0.183   2.149   0.524
 4058TIP3   OH212179   3.909   5.297   1.542
 4058TIP3    H112180   3.892   5.364   1.475
 4058TIP3    H212181   3.822   5.272   1.573
 4059TIP3   OH212182   0.083   3.812   1.017
 4059TIP3    H112183   0.045   3.752   0.952
 4059TIP3    H212184   0.166   3.840   0.979
 4060TIP3   OH212185   1.211   4.599   1.136
 4060TIP3    H112186   1.164   4.523   1.171
 4060TIP3    H212187   1.219   4.581   1.042
 4061TIP3   OH212188   5.488   2.688   2.879
 4061TIP3    H112189   5.506   2.595   2.875
 4061TIP3    H212190   5.568   2.730   2.846
 4062TIP3   OH212191   4.644   3.416   4.993
 4062TIP3    H112192   4.732   3.434   4.959
 4062TIP3    H212193   4.587   3.426   4.917
 4063TIP3   OH212194   2.229   4.949   4.273
 4063TIP3    H112195   2.167   5.022   4.284
 4063TIP3    H212196   2.175   4.878   4.239
 4064TIP3   OH212197   0.029   0.959   1.142
 4064TIP3    H112198  -0.033   0.978   1.213
 4064TIP3    H212199   0.115   0.968   1.183
 4065TIP3   OH212200   2.359   1.823   4.763
 4065TIP3    H112201   2.334   1.745   4.812
 4065TIP3    H212202   2.446   1.846   4.796
 4066TIP3   OH212203   2.222   0.163   3.737
 4066TIP3    H112204   2.138   0.208   3.746
 4066TIP3    H212205   2.247   0.140   3.826
 4067TIP3   OH212206   1.981   3.553   2.333
 4067TIP3    H112207   2.036   3.588   2.263
 4067TIP3    H212208   2.023   3.471   2.359
 4068TIP3   OH212209   4.247   4.978   4.393
 4068TIP3    H112210   4.185   4.985   4.465
 4068TIP3    H212211   4.302   5.056   4.400
 4069TIP3   OH212212   3.959   0.405   2.376
 4069TIP3    H112213   4.003   0.357   2.306
 4069TIP3    H212214   3.923   0.337   2.433
 4070TIP3   OH212215   1.887   3.829   1.591
 4070TIP3    H112216   1.818   3.895   1.580
 4070TIP3    H212217   1.841   3.753   1.626
 4071TIP3   OH212218   2.734   3.019   1.268
 4071TIP3    H112219   2.668   2.965   1.224
 4071TIP3    H212220   2.796   3.043   1.199
 4072TIP3   OH212221   2.456   1.739   3.444
 4072TIP3    H112222   2.369   1.769   3.473
 4072TIP3    H212223   2.516   1.808   3.472
 4073TIP3   OH212224   5.507   4.560   2.625
 4073TIP3    H112225   5.568   4.532   2.557
 4073TIP3    H212226   5.538   4.516   2.704
 4074TIP3   OH212227   6.143   4.955   1.054
 4074TIP3    H112228   6.227   4.982   1.091
 4074TIP3    H212229   6.166   4.887   0.990
 4075TIP3   OH212230   1.491   4.959   4.335
 4075TIP3    H112231   1.471   4.919   4.420
 4075TIP3    H212232   1.441   4.907   4.272
 4076TIP3   OH212233   0.513   5.616   2.693
 4076TIP3    H112234   0.512   5.628   2.598
 4076TIP3    H212235   0.552   5.697   2.726
 4077TIP3   OH212236   5.837   0.443   3.215
 4077TIP3    H112237   5.793   0.358   3.207
 4077TIP3    H212238   5.776   0.497   3.266
 4078TIP3   OH212239   0.109   1.132   0.662
 4078TIP3    H112240   0.058   1.086   0.596
 4078TIP3    H212241   0.108   1.073   0.738
 4079TIP3   OH212242   2.687   4.425   4.535
 4079TIP3    H112243   2.707   4.401   4.444
 4079TIP3    H212244   2.773   4.435   4.576
 4080TIP3   OH212245   2.232   3.397   0.435
 4080TIP3    H112246   2.292   3.468   0.412
 4080TIP3    H212247   2.265   3.321   0.386
 4081TIP3   OH212248   2.127   2.450   3.263
 4081TIP3    H112249   2.209   2.477   3.222
 4081TIP3    H212250   2.141   2.467   3.357
 4082TIP3   OH212251   1.785   5.439   1.338
 4082TIP3    H112252   1.744   5.356   1.316
 4082TIP3    H212253   1.876   5.416   1.359
 4083TIP3   OH212254   4.343   2.239   0.418
 4083TIP3    H112255   4.384   2.243   0.505
 4083TIP3    H212256   4.354   2.327   0.382
 4084TIP3   OH212257   0.527   2.297   3.543
 4084TIP3    H112258   0.461   2.339   3.487
 4084TIP3    H212259   0.477   2.243   3.603
 4085TIP3   OH212260   5.880   0.238   0.245
 4085TIP3    H112261   5.838   0.154   0.261
 4085TIP3    H212262   5.967   0.215   0.212
 4086TIP3   OH212263   2.964   3.107   4.667
 4086TIP3    H112264   2.983   3.015   4.649
 4086TIP3    H212265   2.885   3.125   4.616
 4087TIP3   OH212266   3.069   5.407   1.235
 4087TIP3    H112267   3.042   5.379   1.148
 4087TIP3    H212268   3.161   5.381   1.241
 4088TIP3   OH212269   3.453   3.610   5.184
 4088TIP3    H112270   3.406   3.661   5.118
 4088TIP3    H212271   3.501   3.544   5.134
 4089TIP3   OH212272   2.886   5.479   4.813
 4089TIP3    H112273   2.805   5.428   4.812
 4089TIP3    H212274   2.956   5.414   4.806
 4090TIP3   OH212275   2.348   4.034   1.874
 4090TIP3    H112276   2.280   4.022   1.809
 4090TIP3    H212277   2.339   3.958   1.932
 4091TIP3   OH212278   5.427   0.575   1.213
 4091TIP3    H112279   5.460   0.646   1.268
 4091TIP3    H212280   5.347   0.609   1.174
 4092TIP3   OH212281   1.123   1.755   4.334
 4092TIP3    H112282   1.134   1.739   4.428
 4092TIP3    H212283   1.109   1.668   4.297
 4093TIP3   OH212284   2.430   0.037   3.236
 4093TIP3    H112285   2.492   0.017   3.307
 4093TIP3    H212286   2.458  -0.019   3.164
 4094TIP3   OH212287   0.074   5.566   3.705
 4094TIP3    H112288   0.026   5.631   3.756
 4094TIP3    H212289   0.130   5.616   3.647
 4095TIP3   OH212290   2.876   2.928   1.824
 4095TIP3    H112291   2.882   2.912   1.730
 4095TIP3    H212292   2.964   2.912   1.856
 4096TIP3   OH212293   1.805   1.263   0.249
 4096TIP3    H112294   1.719   1.273   0.289
 4096TIP3    H212295   1.864   1.248   0.323
 4097TIP3   OH212296   4.239   3.132   3.312
 4097TIP3    H112297   4.312   3.184   3.279
 4097TIP3    H212298   4.161   3.178   3.280
 4098TIP3   OH212299   4.768   3.733   0.969
 4098TIP3    H112300   4.676   3.723   0.992
 4098TIP3    H212301   4.769   3.740   0.874
 4099TIP3   OH212302   6.301   5.242   4.338
 4099TIP3    H112303   6.314   5.186   4.415
 4099TIP3    H212304   6.206   5.244   4.326
 4100TIP3   OH212305   1.469   2.180   4.240
 4100TIP3    H112306   1.452   2.160   4.332
 4100TIP3    H212307   1.535   2.115   4.215
 4101TIP3   OH212308   0.415   5.375   1.174
 4101TIP3    H112309   0.438   5.292   1.132
 4101TIP3    H212310   0.346   5.411   1.119
 4102TIP3   OH212311   5.011   2.797   4.235
 4102TIP3    H112312   5.101   2.830   4.227
 4102TIP3    H212313   4.997   2.745   4.155
 4103TIP3   OH212314   4.630   0.551   2.330
 4103TIP3    H112315   4.698   0.595   2.381
 4103TIP3    H212316   4.550   0.598   2.351
 4104TIP3   OH212317   1.783   1.999   4.528
 4104TIP3    H112318   1.811   1.963   4.612
 4104TIP3    H212319   1.864   2.034   4.489
 4105TIP3   OH212320   5.484   2.685   2.528
 4105TIP3    H112321   5.469   2.591   2.525
 4105TIP3    H212322   5.563   2.695   2.582
 4106TIP3   OH212323   6.157   4.096   4.515
 4106TIP3    H112324   6.246   4.062   4.525
 4106TIP3    H212325   6.157   4.178   4.564
 4107TIP3   OH212326   5.906   0.851   3.942
 4107TIP3    H112327   5.920   0.907   3.866
 4107TIP3    H212328   5.843   0.899   3.996
 4108TIP3   OH212329   4.736   4.714   0.777
 4108TIP3    H112330   4.672   4.772   0.736
 4108TIP3    H212331   4.817   4.731   0.731
 4109TIP3   OH212332   2.836   3.459   2.800
 4109TIP3    H112333   2.783   3.535   2.776
 4109TIP3    H212334   2.861   3.475   2.891
 4110TIP3   OH212335   6.285   2.161   2.651
 4110TIP3    H112336   6.375   2.128   2.645
 4110TIP3    H212337   6.275   2.219   2.576
 4111TIP3   OH212338   0.352   2.103   2.014
 4111TIP3    H112339   0.283   2.088   1.950
 4111TIP3    H212340   0.312   2.161   2.079
 4112TIP3   OH212341   5.138   2.588   3.497
 4112TIP3    H112342   5.135   2.570   3.591
 4112TIP3    H212343   5.059   2.547   3.462
 4113TIP3   OH212344   0.498   4.561   1.672
 4113TIP3    H112345   0.590   4.536   1.686
 4113TIP3    H212346   0.492   4.579   1.579
 4114TIP3   OH212347   4.716   3.537   2.168
 4114TIP3    H112348   4.679   3.455   2.134
 4114TIP3    H212349   4.770   3.570   2.096
 4115TIP3   OH212350   2.740   4.249   2.409
 4115TIP3    H112351   2.681   4.299   2.353
 4115TIP3    H212352   2.812   4.309   2.427
 4116TIP3   OH212353   0.398   5.225   4.916
 4116TIP3    H112354   0.363   5.306   4.878
 4116TIP3    H212355   0.357   5.155   4.864
 4117TIP3   OH212356   5.811   4.233   3.791
 4117TIP3    H112357   5.858   4.153   3.769
 4117TIP3    H212358   5.811   4.237   3.886
 4118TIP3   OH212359   4.859   2.964   5.133
 4118TIP3    H112360   4.770   2.934   5.120
 4118TIP3    H212361   4.903   2.892   5.179
 4119TIP3   OH212362   5.466   0.448   2.254
 4119TIP3    H112363   5.529   0.413   2.191
 4119TIP3    H212364   5.436   0.372   2.302
 4120TIP3   OH212365   2.129   3.694   0.990
 4120TIP3    H112366   2.222   3.682   1.013
 4120TIP3    H212367   2.119   3.788   0.977
 4121TIP3   OH212368   2.324   3.793   1.972
 4121TIP3    H112369   2.402   3.742   1.995
 4121TIP3    H212370   2.308   3.772   1.880
 4122TIP3   OH212371   0.623   3.716   4.616
 4122TIP3    H112372   0.548   3.669   4.582
 4122TIP3    H212373   0.697   3.687   4.562
 4123TIP3   OH212374   0.955   0.475   4.178
 4123TIP3    H112375   0.916   0.544   4.124
 4123TIP3    H212376   1.039   0.456   4.136
 4124TIP3   OH212377   4.458   4.557   4.149
 4124TIP3    H112378   4.400   4.485   4.124
 4124TIP3    H212379   4.486   4.536   4.238
 4125TIP3   OH212380   4.165   5.341   2.711
 4125TIP3    H112381   4.239   5.374   2.661
 4125TIP3    H212382   4.179   5.247   2.718
 4126TIP3   OH212383   3.354   1.413   4.229
 4126TIP3    H112384   3.361   1.473   4.155
 4126TIP3    H212385   3.262   1.388   4.231
 4127TIP3   OH212386   5.769   4.445   2.766
 4127TIP3    H112387   5.757   4.427   2.859
 4127TIP3    H212388   5.803   4.535   2.763
 4128TIP3   OH212389   2.791   1.596   4.296
 4128TIP3    H112390   2.730   1.610   4.369
 4128TIP3    H212391   2.810   1.684   4.263
 4129TIP3   OH212392   5.772   1.133   3.897
 4129TIP3    H112393   5.831   1.104   3.828
 4129TIP3    H212394   5.688   1.146   3.853
 4130TIP3   OH212395   4.309   2.051   4.117
 4130TIP3    H112396   4.296   2.129   4.171
 4130TIP3    H212397   4.333   1.982   4.180
 4131TIP3   OH212398   3.327   2.645   4.475
 4131TIP3    H112399   3.385   2.578   4.511
 4131TIP3    H212400   3.366   2.667   4.390
 4132TIP3   OH212401   5.711   1.419   3.985
 4132TIP3    H112402   5.729   1.450   4.074
 4132TIP3    H212403   5.747   1.331   3.983
 4133TIP3   OH212404   0.542   5.791   3.938
 4133TIP3    H112405   0.608   5.859   3.949
 4133TIP3    H212406   0.459   5.838   3.926
 4134TIP3   OH212407   4.274   5.559   1.875
 4134TIP3    H112408   4.221   5.510   1.938
 4134TIP3    H212409   4.241   5.531   1.789
 4135TIP3   OH212410   2.287   0.409   4.255
 4135TIP3    H112411   2.364   0.386   4.202
 4135TIP3    H212412   2.217   0.424   4.191
 4136TIP3   OH212413   1.095   0.701   4.881
 4136TIP3    H112414   1.047   0.690   4.799
 4136TIP3    H212415   1.161   0.768   4.861
 4137TIP3   OH212416   5.813   0.636   4.766
 4137TIP3    H112417   5.794   0.547   4.735
 4137TIP3    H212418   5.730   0.666   4.805
 4138TIP3   OH212419   2.163   1.957   1.926
 4138TIP3    H112420   2.140   1.878   1.974
 4138TIP3    H212421   2.170   2.025   1.994
 4139TIP3   OH212422   5.962   3.189   4.637
 4139TIP3    H112423   5.995   3.251   4.702
 4139TIP3    H212424   5.885   3.231   4.599
 4140TIP3   OH212425   2.758   1.653   0.697
 4140TIP3    H112426   2.762   1.664   0.602
 4140TIP3    H212427   2.818   1.581   0.715
 4141TIP3   OH212428   4.750   1.737   3.264
 4141TIP3    H112429   4.710   1.782   3.338
 4141TIP3    H212430   4.703   1.654   3.258
 4142TIP3   OH212431   0.467   2.147   4.728
 4142TIP3    H112432   0.551   2.116   4.693
 4142TIP3    H212433   0.423   2.186   4.652
 4143TIP3   OH212434   2.610   4.354   1.963
 4143TIP3    H112435   2.671   4.398   1.904
 4143TIP3    H212436   2.632   4.261   1.956
 4144TIP3   OH212437   5.720   5.214   3.101
 4144TIP3    H112438   5.766   5.171   3.029
 4144TIP3    H212439   5.627   5.203   3.080
 4145TIP3   OH212440   5.484   5.232   0.122
 4145TIP3    H112441   5.521   5.208   0.207
 4145TIP3    H212442   5.502   5.326   0.114
 4146TIP3   OH212443   1.690   4.437   1.418
 4146TIP3    H112444   1.598   4.425   1.438
 4146TIP3    H212445   1.735   4.367   1.467
 4147TIP3   OH212446   1.278   0.111   0.999
 4147TIP3    H112447   1.226   0.094   1.077
 4147TIP3    H212448   1.214   0.116   0.928
 4148TIP3   OH212449   3.177   5.604   1.718
 4148TIP3    H112450   3.225   5.542   1.663
 4148TIP3    H212451   3.227   5.605   1.801
 4149TIP3   OH212452   0.010   4.085   2.965
 4149TIP3    H112453   0.021   4.047   3.053
 4149TIP3    H212454  -0.029   4.171   2.981
 4150TIP3   OH212455   0.560   5.542   0.605
 4150TIP3    H112456   0.485   5.599   0.618
 4150TIP3    H212457   0.552   5.511   0.515
 4151TIP3   OH212458   2.321   1.711   2.443
 4151TIP3    H112459   2.261   1.782   2.463
 4151TIP3    H212460   2.351   1.680   2.528
 4152TIP3   OH212461   3.021   3.802   4.813
 4152TIP3    H112462   2.954   3.738   4.835
 4152TIP3    H212463   2.976   3.887   4.817
 4153TIP3   OH212464   5.797   3.952   4.930
 4153TIP3    H112465   5.862   3.991   4.988
 4153TIP3    H212466   5.777   3.867   4.971
 4154TIP3   OH212467   5.116   2.907   1.524
 4154TIP3    H112468   5.077   2.993   1.546
 4154TIP3    H212469   5.126   2.909   1.429
 4155TIP3   OH212470   2.559   4.605   1.240
 4155TIP3    H112471   2.593   4.659   1.311
 4155TIP3    H212472   2.528   4.668   1.175
 4156TIP3   OH212473   3.727   5.789   4.779
 4156TIP3    H112474   3.712   5.802   4.686
 4156TIP3    H212475   3.821   5.803   4.790
 4157TIP3   OH212476   2.492   1.635   0.843
 4157TIP3    H112477   2.576   1.611   0.804
 4157TIP3    H212478   2.511   1.642   0.937
 4158TIP3   OH212479   3.645   5.353   2.393
 4158TIP3    H112480   3.715   5.403   2.350
 4158TIP3    H212481   3.582   5.420   2.421
 4159TIP3   OH212482   2.066   2.069   1.303
 4159TIP3    H112483   2.037   2.133   1.237
 4159TIP3    H212484   2.040   2.108   1.387
 4160TIP3   OH212485   2.305   2.368   1.962
 4160TIP3    H112486   2.299   2.391   1.870
 4160TIP3    H212487   2.389   2.323   1.971
 4161TIP3   OH212488   1.605   0.883   4.047
 4161TIP3    H112489   1.595   0.797   4.087
 4161TIP3    H212490   1.685   0.877   3.996
 4162TIP3   OH212491   2.823   3.056   2.064
 4162TIP3    H112492   2.902   3.110   2.064
 4162TIP3    H212493   2.812   3.029   1.973
 4163TIP3   OH212494   5.770   4.953   4.533
 4163TIP3    H112495   5.780   4.860   4.553
 4163TIP3    H212496   5.717   4.987   4.605
 4164TIP3   OH212497   1.788   4.763   2.891
 4164TIP3    H112498   1.741   4.819   2.952
 4164TIP3    H212499   1.880   4.791   2.899
 4165TIP3   OH212500   4.426   1.512   3.119
 4165TIP3    H112501   4.399   1.442   3.059
 4165TIP3    H212502   4.378   1.589   3.089
 4166TIP3   OH212503   0.407   0.644   4.351
 4166TIP3    H112504   0.415   0.694   4.432
 4166TIP3    H212505   0.383   0.708   4.285
 4167TIP3   OH212506   1.856   3.201   0.524
 4167TIP3    H112507   1.935   3.238   0.565
 4167TIP3    H212508   1.827   3.134   0.585
 4168TIP3   OH212509   3.142   2.163   1.084
 4168TIP3    H112510   3.111   2.075   1.063
 4168TIP3    H212511   3.064   2.211   1.110
 4169TIP3   OH212512   4.748   2.979   1.160
 4169TIP3    H112513   4.727   3.069   1.134
 4169TIP3    H212514   4.680   2.926   1.118
 4170TIP3   OH212515   3.499   4.111   1.611
 4170TIP3    H112516   3.471   4.021   1.593
 4170TIP3    H212517   3.590   4.114   1.581
 4171TIP3   OH212518   1.957   1.432   1.098
 4171TIP3    H112519   1.892   1.446   1.167
 4171TIP3    H212520   1.905   1.408   1.021
 4172TIP3   OH212521   4.487   0.722   4.003
 4172TIP3    H112522   4.477   0.676   4.086
 4172TIP3    H212523   4.438   0.803   4.014
 4173TIP3   OH212524   4.730   2.476   4.196
 4173TIP3    H112525   4.755   2.481   4.288
 4173TIP3    H212526   4.664   2.406   4.192
 4174TIP3   OH212527   3.043   5.086   0.325
 4174TIP3    H112528   2.972   5.130   0.278
 4174TIP3    H212529   3.106   5.062   0.257
 4175TIP3   OH212530   1.882   0.958   0.452
 4175TIP3    H112531   1.808   0.908   0.418
 4175TIP3    H212532   1.875   0.951   0.547
 4176TIP3   OH212533   5.707   1.999   1.745
 4176TIP3    H112534   5.772   2.000   1.674
 4176TIP3    H212535   5.744   2.059   1.811
 4177TIP3   OH212536   5.563   4.935   1.845
 4177TIP3    H112537   5.649   4.969   1.871
 4177TIP3    H212538   5.543   4.868   1.911
 4178TIP3   OH212539   6.246   3.021   4.622
 4178TIP3    H112540   6.280   2.935   4.594
 4178TIP3    H212541   6.165   3.001   4.668
 4179TIP3   OH212542   1.026   1.693   2.970
 4179TIP3    H112543   1.121   1.701   2.966
 4179TIP3    H212544   0.993   1.767   2.919
 4180TIP3   OH212545   2.394   4.293   5.048
 4180TIP3    H112546   2.396   4.336   5.133
 4180TIP3    H212547   2.307   4.313   5.013
 4181TIP3   OH212548   5.489   0.797   2.511
 4181TIP3    H112549   5.546   0.722   2.528
 4181TIP3    H212550   5.509   0.858   2.582
 4182TIP3   OH212551   3.825   2.308   0.302
 4182TIP3    H112552   3.873   2.339   0.379
 4182TIP3    H212553   3.887   2.250   0.257
 4183TIP3   OH212554   3.666   5.450   4.482
 4183TIP3    H112555   3.670   5.439   4.387
 4183TIP3    H212556   3.757   5.441   4.511
 4184TIP3   OH212557   1.596   3.232   4.772
 4184TIP3    H112558   1.538   3.251   4.845
 4184TIP3    H212559   1.538   3.225   4.696
 4185TIP3   OH212560   0.783   4.337   3.044
 4185TIP3    H112561   0.762   4.399   2.975
 4185TIP3    H212562   0.774   4.251   3.003
 4186TIP3   OH212563   0.818   3.559   4.498
 4186TIP3    H112564   0.875   3.508   4.441
 4186TIP3    H212565   0.877   3.599   4.562
 4187TIP3   OH212566   3.941   0.341   0.943
 4187TIP3    H112567   3.851   0.370   0.927
 4187TIP3    H212568   3.969   0.393   1.018
 4188TIP3   OH212569   6.216   2.076   0.171
 4188TIP3    H112570   6.204   2.123   0.254
 4188TIP3    H212571   6.130   2.078   0.130
 4189TIP3   OH212572   3.736   2.069   0.602
 4189TIP3    H112573   3.765   2.080   0.692
 4189TIP3    H212574   3.805   2.110   0.550
 4190TIP3   OH212575   5.180   3.715   2.048
 4190TIP3    H112576   5.134   3.798   2.034
 4190TIP3    H212577   5.145   3.681   2.130
 4191TIP3   OH212578   2.465   2.380   1.259
 4191TIP3    H112579   2.381   2.380   1.306
 4191TIP3    H212580   2.490   2.287   1.254
 4192TIP3   OH212581   1.653   4.051   2.029
 4192TIP3    H112582   1.561   4.024   2.019
 4192TIP3    H212583   1.701   3.969   2.035
 4193TIP3   OH212584   3.290   2.307   2.988
 4193TIP3    H112585   3.287   2.230   3.045
 4193TIP3    H212586   3.283   2.271   2.899
 4194TIP3   OH212587   4.321   2.350   3.414
 4194TIP3    H112588   4.276   2.431   3.391
 4194TIP3    H212589   4.371   2.371   3.493
 4195TIP3   OH212590   3.628   2.807   1.484
 4195TIP3    H112591   3.651   2.886   1.437
 4195TIP3    H212592   3.681   2.738   1.443
 4196TIP3   OH212593   2.275   3.856   4.356
 4196TIP3    H112594   2.320   3.786   4.404
 4196TIP3    H212595   2.243   3.915   4.423
 4197TIP3   OH212596   5.868   1.798   3.155
 4197TIP3    H112597   5.935   1.813   3.088
 4197TIP3    H212598   5.796   1.856   3.129
 4198TIP3   OH212599   5.097   4.811   3.590
 4198TIP3    H112600   5.074   4.892   3.545
 4198TIP3    H212601   5.191   4.800   3.574
 4199TIP3   OH212602   3.687   3.910   4.601
 4199TIP3    H112603   3.688   3.934   4.508
 4199TIP3    H212604   3.602   3.868   4.614
 4200TIP3   OH212605   4.490   1.778   0.833
 4200TIP3    H112606   4.463   1.814   0.749
 4200TIP3    H212607   4.456   1.688   0.833
 4201TIP3   OH212608   4.537   0.044   4.493
 4201TIP3    H112609   4.559   0.107   4.562
 4201TIP3    H212610   4.454   0.074   4.458
 4202TIP3   OH212611   2.291   1.945   5.023
 4202TIP3    H112612   2.306   1.939   4.929
 4202TIP3    H212613   2.286   1.854   5.052
 4203TIP3   OH212614   0.572   0.847   1.138
 4203TIP3    H112615   0.609   0.910   1.075
 4203TIP3    H212616   0.562   0.766   1.088
 4204TIP3   OH212617   3.388   5.737   5.082
 4204TIP3    H112618   3.342   5.765   5.162
 4204TIP3    H212619   3.319   5.728   5.017
 4205TIP3   OH212620   4.281   4.859   4.122
 4205TIP3    H112621   4.245   4.877   4.209
 4205TIP3    H212622   4.367   4.820   4.139
 4206TIP3   OH212623   1.481   0.355   0.761
 4206TIP3    H112624   1.526   0.408   0.826
 4206TIP3    H212625   1.515   0.266   0.776
 4207TIP3   OH212626   4.139   3.507   3.226
 4207TIP3    H112627   4.128   3.574   3.292
 4207TIP3    H212628   4.083   3.535   3.153
 4208TIP3   OH212629   6.215   4.226   1.211
 4208TIP3    H112630   6.246   4.313   1.183
 4208TIP3    H212631   6.124   4.241   1.239
 4209TIP3   OH212632   0.149   4.728   1.871
 4209TIP3    H112633   0.177   4.813   1.906
 4209TIP3    H212634   0.152   4.669   1.946
 4210TIP3   OH212635   3.832   3.019   0.214
 4210TIP3    H112636   3.812   3.108   0.245
 4210TIP3    H212637   3.831   2.966   0.294
 4211TIP3   OH212638   5.515   1.543   3.090
 4211TIP3    H112639   5.446   1.572   3.148
 4211TIP3    H212640   5.596   1.572   3.132
 4212TIP3   OH212641   0.824   1.412   3.904
 4212TIP3    H112642   0.797   1.432   3.815
 4212TIP3    H212643   0.918   1.397   3.898
 4213TIP3   OH212644   0.904   3.279   4.118
 4213TIP3    H112645   0.960   3.211   4.078
 4213TIP3    H212646   0.819   3.266   4.077
 4214TIP3   OH212647   4.197   0.019   3.523
 4214TIP3    H112648   4.261  -0.035   3.477
 4214TIP3    H212649   4.141  -0.043   3.569
 4215TIP3   OH212650   1.246   2.846   4.540
 4215TIP3    H112651   1.167   2.895   4.518
 4215TIP3    H212652   1.214   2.767   4.585
 4216TIP3   OH212653   5.244   5.261   3.010
 4216TIP3    H112654   5.261   5.168   3.026
 4216TIP3    H212655   5.321   5.305   3.046
 4217TIP3   OH212656   0.368   1.602   0.786
 4217TIP3    H112657   0.415   1.521   0.805
 4217TIP3    H212658   0.343   1.637   0.871
 4218TIP3   OH212659   2.444   0.193   0.647
 4218TIP3    H112660   2.428   0.102   0.626
 4218TIP3    H212661   2.383   0.213   0.718
 4219TIP3   OH212662   1.172   3.629   1.316
 4219TIP3    H112663   1.088   3.672   1.331
 4219TIP3    H212664   1.229   3.699   1.285
 4220TIP3   OH212665   3.252   1.048   3.017
 4220TIP3    H112666   3.341   1.057   3.053
 4220TIP3    H212667   3.222   0.962   3.048
 4221TIP3   OH212668   1.436   3.071   1.886
 4221TIP3    H112669   1.528   3.045   1.880
 4221TIP3    H212670   1.418   3.072   1.980
 4222TIP3   OH212671   4.455   4.795   3.248
 4222TIP3    H112672   4.548   4.789   3.227
 4222TIP3    H212673   4.414   4.727   3.194
 4223TIP3   OH212674   4.660   4.011   0.252
 4223TIP3    H112675   4.620   3.926   0.269
 4223TIP3    H212676   4.668   4.015   0.156
 4224TIP3   OH212677   0.659   3.744   4.891
 4224TIP3    H112678   0.567   3.762   4.912
 4224TIP3    H212679   0.659   3.727   4.797
 4225TIP3   OH212680   1.808   2.635   0.505
 4225TIP3    H112681   1.871   2.624   0.576
 4225TIP3    H212682   1.863   2.648   0.427
 4226TIP3   OH212683   4.435   5.041   2.991
 4226TIP3    H112684   4.502   5.045   2.923
 4226TIP3    H212685   4.366   4.985   2.954
 4227TIP3   OH212686   0.600   0.473   4.957
 4227TIP3    H112687   0.591   0.568   4.966
 4227TIP3    H212688   0.693   0.456   4.970
 4228TIP3   OH212689   3.463   0.651   2.989
 4228TIP3    H112690   3.450   0.556   2.987
 4228TIP3    H212691   3.550   0.665   2.952
 4229TIP3   OH212692   1.758   2.737   2.036
 4229TIP3    H112693   1.689   2.678   2.067
 4229TIP3    H212694   1.736   2.822   2.075
 4230TIP3   OH212695   3.979   0.098   0.535
 4230TIP3    H112696   3.892   0.129   0.512
 4230TIP3    H212697   3.965   0.009   0.568
 4231TIP3   OH212698   3.313   3.367   3.932
 4231TIP3    H112699   3.333   3.286   3.979
 4231TIP3    H212700   3.286   3.429   4.000
 4232TIP3   OH212701   1.341   3.631   3.758
 4232TIP3    H112702   1.324   3.544   3.722
 4232TIP3    H212703   1.431   3.626   3.793
 4233TIP3   OH212704   4.173   1.689   4.479
 4233TIP3    H112705   4.226   1.753   4.527
 4233TIP3    H212706   4.200   1.604   4.515
 4234TIP3   OH212707   6.154   0.676   2.713
 4234TIP3    H112708   6.124   0.723   2.791
 4234TIP3    H212709   6.081   0.683   2.652
 4235TIP3   OH212710   2.365   3.313   5.167
 4235TIP3    H112711   2.309   3.387   5.143
 4235TIP3    H212712   2.443   3.354   5.203
 4236TIP3   OH212713   3.901   3.720   4.569
 4236TIP3    H112714   3.841   3.790   4.595
 4236TIP3    H212715   3.983   3.764   4.550
 4237TIP3   OH212716   4.276   0.520   4.471
 4237TIP3    H112717   4.251   0.498   4.382
 4237TIP3    H212718   4.337   0.593   4.461
 4238TIP3   OH212719   3.526   0.465   3.259
 4238TIP3    H112720   3.495   0.436   3.173
 4238TIP3    H212721   3.536   0.560   3.250
 4239TIP3   OH212722   4.701   1.243   0.586
 4239TIP3    H112723   4.700   1.260   0.492
 4239TIP3    H212724   4.760   1.309   0.622
 4240TIP3   OH212725   2.287   4.076   0.986
 4240TIP3    H112726   2.288   4.020   0.908
 4240TIP3    H212727   2.195   4.075   1.015
 4241TIP3   OH212728   2.095   0.400   5.168
 4241TIP3    H112729   2.112   0.493   5.158
 4241TIP3    H212730   2.038   0.378   5.093
 4242TIP3   OH212731   0.666   1.576   2.220
 4242TIP3    H112732   0.629   1.509   2.162
 4242TIP3    H212733   0.644   1.659   2.178
 4243TIP3   OH212734   0.926   4.526   0.160
 4243TIP3    H112735   0.830   4.531   0.158
 4243TIP3    H212736   0.947   4.452   0.102
 4244TIP3   OH212737   2.402   0.226   4.681
 4244TIP3    H112738   2.354   0.255   4.603
 4244TIP3    H212739   2.487   0.270   4.675
 4245TIP3   OH212740   5.283   1.029   0.229
 4245TIP3    H112741   5.208   1.082   0.202
 4245TIP3    H212742   5.255   0.989   0.311
 4246TIP3   OH212743   2.212   1.493   1.454
 4246TIP3    H112744   2.155   1.564   1.484
 4246TIP3    H212745   2.188   1.418   1.509
 4247TIP3   OH212746   4.863   1.937   1.790
 4247TIP3    H112747   4.779   1.979   1.809
 4247TIP3    H212748   4.909   2.001   1.736
 4248TIP3   OH212749   1.847   0.398   2.632
 4248TIP3    H112750   1.784   0.469   2.642
 4248TIP3    H212751   1.863   0.392   2.538
 4249TIP3   OH212752   5.345   0.606   4.149
 4249TIP3    H112753   5.417   0.662   4.118
 4249TIP3    H212754   5.270   0.633   4.096
 4250TIP3   OH212755   0.352   4.981   1.966
 4250TIP3    H112756   0.366   4.917   1.897
 4250TIP3    H212757   0.361   4.932   2.047
 4251TIP3   OH212758   4.805   1.950   3.092
 4251TIP3    H112759   4.821   1.862   3.127
 4251TIP3    H212760   4.791   1.937   2.999
 4252TIP3   OH212761   5.619   2.111   4.645
 4252TIP3    H112762   5.698   2.066   4.617
 4252TIP3    H212763   5.562   2.041   4.677
 4253TIP3   OH212764   4.801   0.277   1.072
 4253TIP3    H112765   4.823   0.215   1.141
 4253TIP3    H212766   4.720   0.243   1.034
 4254TIP3   OH212767   3.946   3.659   3.462
 4254TIP3    H112768   4.008   3.725   3.432
 4254TIP3    H212769   3.888   3.706   3.522
 4255TIP3   OH212770   0.860   1.374   3.239
 4255TIP3    H112771   0.852   1.358   3.145
 4255TIP3    H212772   0.772   1.401   3.266
 4256TIP3   OH212773   3.585   5.009   3.742
 4256TIP3    H112774   3.569   5.043   3.654
 4256TIP3    H212775   3.666   4.959   3.733
 4257TIP3   OH212776   5.739   1.931   4.931
 4257TIP3    H112777   5.664   1.918   4.873
 4257TIP3    H212778   5.707   1.908   5.018
 4258TIP3   OH212779   1.794   4.668   3.669
 4258TIP3    H112780   1.833   4.581   3.675
 4258TIP3    H212781   1.738   4.674   3.747
 4259TIP3   OH212782   4.579   5.222   1.616
 4259TIP3    H112783   4.531   5.141   1.602
 4259TIP3    H212784   4.550   5.254   1.701
 4260TIP3   OH212785   0.922   2.086   0.124
 4260TIP3    H112786   0.980   2.158   0.099
 4260TIP3    H212787   0.875   2.117   0.201
 4261TIP3   OH212788   1.251   4.585   0.863
 4261TIP3    H112789   1.329   4.589   0.808
 4261TIP3    H212790   1.178   4.594   0.802
 4262TIP3   OH212791   4.406   5.184   3.970
 4262TIP3    H112792   4.429   5.277   3.965
 4262TIP3    H212793   4.346   5.178   4.044
 4263TIP3   OH212794   0.607   5.727   1.802
 4263TIP3    H112795   0.556   5.763   1.730
 4263TIP3    H212796   0.589   5.633   1.800
 4264TIP3   OH212797   1.037   4.269   0.540
 4264TIP3    H112798   1.057   4.359   0.513
 4264TIP3    H212799   1.092   4.254   0.617
 4265TIP3   OH212800   2.496   0.788   2.364
 4265TIP3    H112801   2.452   0.737   2.432
 4265TIP3    H212802   2.487   0.735   2.285
 4266TIP3   OH212803   0.311   4.081   4.772
 4266TIP3    H112804   0.398   4.121   4.781
 4266TIP3    H212805   0.306   4.019   4.845
 4267TIP3   OH212806   0.238   1.741   4.704
 4267TIP3    H112807   0.237   1.680   4.778
 4267TIP3    H212808   0.226   1.827   4.744
 4268TIP3   OH212809   0.616   1.753   4.764
 4268TIP3    H112810   0.603   1.835   4.716
 4268TIP3    H212811   0.571   1.687   4.713
 4269TIP3   OH212812   0.466   4.219   2.001
 4269TIP3    H112813   0.560   4.230   1.990
 4269TIP3    H212814   0.437   4.301   2.039
 4270TIP3   OH212815   5.738   3.320   4.568
 4270TIP3    H112816   5.699   3.238   4.538
 4270TIP3    H212817   5.765   3.365   4.488
 4271TIP3   OH212818   3.752   2.712   1.922
 4271TIP3    H112819   3.670   2.673   1.952
 4271TIP3    H212820   3.745   2.715   1.827
 4272TIP3   OH212821   5.078   2.644   5.068
 4272TIP3    H112822   5.143   2.681   5.009
 4272TIP3    H212823   5.106   2.672   5.156
 4273TIP3   OH212824   2.292   3.054   1.961
 4273TIP3    H112825   2.216   3.111   1.975
 4273TIP3    H212826   2.261   2.987   1.899
 4274TIP3   OH212827   4.016   3.269   1.857
 4274TIP3    H112828   4.089   3.273   1.919
 4274TIP3    H212829   4.054   3.235   1.777
 4275TIP3   OH212830   4.276   2.938   1.241
 4275TIP3    H112831   4.247   2.936   1.332
 4275TIP3    H212832   4.336   3.012   1.236
 4276TIP3   OH212833   2.499   0.941   4.770
 4276TIP3    H112834   2.533   0.974   4.853
 4276TIP3    H212835   2.519   1.011   4.707
 4277TIP3   OH212836   6.334   1.544   2.580
 4277TIP3    H112837   6.332   1.517   2.489
 4277TIP3    H212838   6.242   1.542   2.608
 4278TIP3   OH212839   6.049   4.450   4.101
 4278TIP3    H112840   6.017   4.385   4.165
 4278TIP3    H212841   5.973   4.468   4.046
 4279TIP3   OH212842   3.296   4.383   4.325
 4279TIP3    H112843   3.265   4.374   4.416
 4279TIP3    H212844   3.234   4.331   4.274
 4280TIP3   OH212845   0.384   4.699   4.170
 4280TIP3    H112846   0.417   4.789   4.164
 4280TIP3    H212847   0.360   4.676   4.080
 4281TIP3   OH212848   2.869   2.628   1.860
 4281TIP3    H112849   2.880   2.533   1.860
 4281TIP3    H212850   2.950   2.662   1.898
 4282TIP3   OH212851   1.899   5.820   3.910
 4282TIP3    H112852   1.863   5.773   3.985
 4282TIP3    H212853   1.897   5.912   3.936
 4283TIP3   OH212854   4.563   4.427   2.661
 4283TIP3    H112855   4.647   4.462   2.631
 4283TIP3    H212856   4.498   4.491   2.634
 4284TIP3   OH212857   1.438   0.185   0.016
 4284TIP3    H112858   1.458   0.272  -0.019
 4284TIP3    H212859   1.350   0.166  -0.015
 4285TIP3   OH212860   1.153   5.883   2.327
 4285TIP3    H112861   1.088   5.882   2.257
 4285TIP3    H212862   1.119   5.821   2.392
 4286TIP3   OH212863   6.236   3.404   1.683
 4286TIP3    H112864   6.177   3.460   1.632
 4286TIP3    H212865   6.318   3.453   1.687
 4287TIP3   OH212866   2.502   2.621   4.683
 4287TIP3    H112867   2.483   2.619   4.589
 4287TIP3    H212868   2.582   2.674   4.690
 4288TIP3   OH212869   0.341   5.911   2.031
 4288TIP3    H112870   0.266   5.924   2.088
 4288TIP3    H212871   0.388   5.994   2.034
 4289TIP3   OH212872   1.813   1.669   3.098
 4289TIP3    H112873   1.877   1.676   3.168
 4289TIP3    H212874   1.744   1.613   3.134
 4290TIP3   OH212875   1.112   2.500   2.737
 4290TIP3    H112876   1.184   2.437   2.738
 4290TIP3    H212877   1.153   2.584   2.716
 4291TIP3   OH212878   5.441   3.976   0.569
 4291TIP3    H112879   5.503   4.048   0.557
 4291TIP3    H212880   5.398   3.995   0.653
 4292TIP3   OH212881   1.963   1.083   4.022
 4292TIP3    H112882   1.877   1.062   3.985
 4292TIP3    H212883   2.023   1.075   3.948
 4293TIP3   OH212884   3.863   2.249   1.381
 4293TIP3    H112885   3.859   2.314   1.451
 4293TIP3    H212886   3.772   2.223   1.367
 4294TIP3   OH212887   1.275   1.669   3.259
 4294TIP3    H112888   1.245   1.675   3.168
 4294TIP3    H212889   1.216   1.605   3.299
 4295TIP3   OH212890   0.576   1.386   1.003
 4295TIP3    H112891   0.498   1.368   1.054
 4295TIP3    H212892   0.613   1.300   0.983
 4296TIP3   OH212893   5.519   4.040   4.921
 4296TIP3    H112894   5.561   4.089   4.991
 4296TIP3    H212895   5.586   3.979   4.890
 4297TIP3   OH212896   0.871   4.829   5.033
 4297TIP3    H112897   0.836   4.862   5.115
 4297TIP3    H212898   0.966   4.831   5.044
 4298TIP3   OH212899   3.274   2.795   3.054
 4298TIP3    H112900   3.239   2.829   3.137
 4298TIP3    H212901   3.315   2.712   3.077
 4299TIP3   OH212902   6.311   2.972   1.086
 4299TIP3    H112903   6.341   2.921   1.162
 4299TIP3    H212904   6.384   3.030   1.066
 4300TIP3   OH212905   0.984   5.478   0.875
 4300TIP3    H112906   1.031   5.497   0.794
 4300TIP3    H212907   1.052   5.448   0.936
 4301TIP3   OH212908   2.314   1.403   2.423
 4301TIP3    H112909   2.363   1.321   2.431
 4301TIP3    H212910   2.353   1.448   2.348
 4302TIP3   OH212911   2.571   5.410   0.568
 4302TIP3    H112912   2.594   5.389   0.478
 4302TIP3    H212913   2.483   5.446   0.564
 4303TIP3   OH212914   4.155   5.479   4.907
 4303TIP3    H112915   4.087   5.412   4.903
 4303TIP3    H212916   4.158   5.504   5.000
 4304TIP3   OH212917   5.168   3.702   0.239
 4304TIP3    H112918   5.227   3.771   0.209
 4304TIP3    H212919   5.195   3.685   0.329
 4305TIP3   OH212920   1.218   0.037   2.044
 4305TIP3    H112921   1.290   0.009   1.986
 4305TIP3    H212922   1.248   0.014   2.132
 4306TIP3   OH212923   2.370   2.665   2.263
 4306TIP3    H112924   2.283   2.704   2.267
 4306TIP3    H212925   2.430   2.738   2.276
 4307TIP3   OH212926   5.953   0.407   3.597
 4307TIP3    H112927   5.908   0.489   3.616
 4307TIP3    H212928   6.004   0.425   3.517
 4308TIP3   OH212929   1.911   3.019   2.549
 4308TIP3    H112930   1.841   3.012   2.614
 4308TIP3    H212931   1.893   2.948   2.487
 4309TIP3   OH212932   2.799   2.659   2.913
 4309TIP3    H112933   2.886   2.638   2.948
 4309TIP3    H212934   2.773   2.581   2.864
 4310TIP3   OH212935   5.896   3.735   0.251
 4310TIP3    H112936   5.977   3.786   0.248
 4310TIP3    H212937   5.852   3.764   0.331
 4311TIP3   OH212938   5.050   0.017   1.159
 4311TIP3    H112939   5.133  -0.027   1.143
 4311TIP3    H212940   5.047   0.085   1.092
 4312TIP3   OH212941   0.163   4.304   3.894
 4312TIP3    H112942   0.129   4.215   3.889
 4312TIP3    H212943   0.105   4.348   3.957
 4313TIP3   OH212944   5.733   5.939   0.944
 4313TIP3    H112945   5.646   5.968   0.973
 4313TIP3    H212946   5.781   6.021   0.927
 4314TIP3   OH212947   2.489   3.890   1.265
 4314TIP3    H112948   2.562   3.947   1.290
 4314TIP3    H212949   2.475   3.834   1.342
 4315TIP3   OH212950   4.754   2.989   4.517
 4315TIP3    H112951   4.701   2.928   4.569
 4315TIP3    H212952   4.817   3.025   4.580
 4316TIP3   OH212953   0.622   4.722   2.020
 4316TIP3    H112954   0.613   4.740   2.113
 4316TIP3    H212955   0.570   4.643   2.005
 4317TIP3   OH212956   0.048   2.376   3.415
 4317TIP3    H112957   0.058   2.363   3.321
 4317TIP3    H212958  -0.034   2.425   3.424
 4318TIP3   OH212959   2.627   5.838   4.125
 4318TIP3    H112960   2.641   5.927   4.155
 4318TIP3    H212961   2.708   5.815   4.079
 4319TIP3   OH212962   5.123   4.496   3.192
 4319TIP3    H112963   5.128   4.406   3.161
 4319TIP3    H212964   5.130   4.549   3.113
 4320TIP3   OH212965   2.937   5.965   1.719
 4320TIP3    H112966   2.945   5.891   1.658
 4320TIP3    H212967   2.994   5.942   1.792
 4321TIP3   OH212968   4.385   0.071   2.647
 4321TIP3    H112969   4.327   0.046   2.719
 4321TIP3    H212970   4.429   0.150   2.679
 4322TIP3   OH212971   2.945   2.552   0.122
 4322TIP3    H112972   2.893   2.624   0.085
 4322TIP3    H212973   3.022   2.546   0.066
 4323TIP3   OH212974   2.078   2.035   0.555
 4323TIP3    H112975   2.132   2.084   0.492
 4323TIP3    H212976   2.031   2.103   0.603
 4324TIP3   OH212977   4.032   2.902   2.587
 4324TIP3    H112978   3.973   2.839   2.629
 4324TIP3    H212979   4.057   2.859   2.505
 4325TIP3   OH212980   4.656   3.280   1.078
 4325TIP3    H112981   4.624   3.282   0.988
 4325TIP3    H212982   4.684   3.370   1.096
 4326TIP3   OH212983   1.659   5.295   1.673
 4326TIP3    H112984   1.627   5.250   1.595
 4326TIP3    H212985   1.748   5.263   1.685
 4327TIP3   OH212986   4.661   4.286   1.223
 4327TIP3    H112987   4.589   4.349   1.217
 4327TIP3    H212988   4.653   4.249   1.311
 4328TIP3   OH212989   4.068   5.937   2.301
 4328TIP3    H112990   4.023   6.003   2.354
 4328TIP3    H212991   4.156   5.971   2.289
 4329TIP3   OH212992   2.460   5.370   2.198
 4329TIP3    H112993   2.456   5.463   2.220
 4329TIP3    H212994   2.480   5.327   2.281
 4330TIP3   OH212995   3.887   2.681   0.358
 4330TIP3    H112996   3.945   2.746   0.398
 4330TIP3    H212997   3.911   2.598   0.400
 4331TIP3   OH212998   1.168   5.575   4.678
 4331TIP3    H112999   1.082   5.617   4.678
 4331TIP3    H213000   1.161   5.506   4.743
 4332TIP3   OH213001   6.000   5.831   3.580
 4332TIP3    H113002   5.924   5.811   3.526
 4332TIP3    H213003   6.074   5.834   3.518
 4333TIP3   OH213004   0.773   1.060   3.157
 4333TIP3    H113005   0.863   1.060   3.191
 4333TIP3    H213006   0.784   1.072   3.063
 4334TIP3   OH213007   4.752   3.805   3.458
 4334TIP3    H113008   4.713   3.763   3.381
 4334TIP3    H213009   4.842   3.825   3.431
 4335TIP3   OH213010   5.225   4.305   3.667
 4335TIP3    H113011   5.191   4.383   3.622
 4335TIP3    H213012   5.160   4.286   3.734
 4336TIP3   OH213013   0.551   3.431   1.104
 4336TIP3    H113014   0.499   3.485   1.045
 4336TIP3    H213015   0.494   3.418   1.180
 4337TIP3   OH213016   4.592   2.357   2.497
 4337TIP3    H113017   4.640   2.366   2.415
 4337TIP3    H213018   4.650   2.393   2.564
 4338TIP3   OH213019   5.660   2.833   0.156
 4338TIP3    H113020   5.744   2.874   0.177
 4338TIP3    H213021   5.683   2.755   0.105
 4339TIP3   OH213022   3.382   2.558   3.128
 4339TIP3    H113023   3.337   2.485   3.086
 4339TIP3    H213024   3.472   2.553   3.094
 4340TIP3   OH213025   3.877   4.454   3.914
 4340TIP3    H113026   3.868   4.527   3.853
 4340TIP3    H213027   3.957   4.409   3.885
 4341TIP3   OH213028   5.456   0.237   3.584
 4341TIP3    H113029   5.364   0.214   3.570
 4341TIP3    H213030   5.483   0.280   3.503
 4342TIP3   OH213031   2.221   2.163   5.173
 4342TIP3    H113032   2.240   2.082   5.126
 4342TIP3    H213033   2.132   2.186   5.147
 4343TIP3   OH213034   1.651   5.961   4.313
 4343TIP3    H113035   1.702   6.036   4.345
 4343TIP3    H213036   1.605   5.929   4.391
 4344TIP3   OH213037   2.583   3.361   3.810
 4344TIP3    H113038   2.566   3.381   3.902
 4344TIP3    H213039   2.625   3.275   3.812
 4345TIP3   OH213040   5.990   2.227   0.652
 4345TIP3    H113041   5.991   2.316   0.689
 4345TIP3    H213042   5.961   2.172   0.725
 4346TIP3   OH213043   3.523   4.726   2.812
 4346TIP3    H113044   3.449   4.777   2.846
 4346TIP3    H213045   3.486   4.641   2.790
 4347TIP3   OH213046   5.300   3.089   3.504
 4347TIP3    H113047   5.311   3.160   3.441
 4347TIP3    H213048   5.387   3.049   3.511
 4348TIP3   OH213049   5.246   2.637   4.423
 4348TIP3    H113050   5.286   2.561   4.465
 4348TIP3    H213051   5.279   2.712   4.472
 4349TIP3   OH213052   0.231   3.899   3.054
 4349TIP3    H113053   0.307   3.950   3.079
 4349TIP3    H213054   0.162   3.926   3.115
 4350TIP3   OH213055   5.151   5.435   1.640
 4350TIP3    H113056   5.142   5.343   1.615
 4350TIP3    H213057   5.118   5.439   1.730
 4351TIP3   OH213058   4.929   4.907   1.646
 4351TIP3    H113059   4.996   4.839   1.631
 4351TIP3    H213060   4.887   4.881   1.727
 4352TIP3   OH213061   3.818   4.213   3.704
 4352TIP3    H113062   3.903   4.249   3.730
 4352TIP3    H213063   3.771   4.288   3.667
 4353TIP3   OH213064   1.654   5.196   1.319
 4353TIP3    H113065   1.657   5.140   1.396
 4353TIP3    H213066   1.609   5.144   1.252
 4354TIP3   OH213067   1.908   4.927   0.464
 4354TIP3    H113068   1.832   4.902   0.412
 4354TIP3    H213069   1.981   4.882   0.423
 4355TIP3   OH213070   0.872   4.616   2.692
 4355TIP3    H113071   0.949   4.574   2.729
 4355TIP3    H213072   0.825   4.545   2.647
 4356TIP3   OH213073   1.976   1.191   5.014
 4356TIP3    H113074   2.050   1.190   4.953
 4356TIP3    H213075   1.899   1.178   4.959
 4357TIP3   OH213076   4.963   1.213   1.583
 4357TIP3    H113077   4.900   1.158   1.630
 4357TIP3    H213078   4.941   1.199   1.490
 4358TIP3   OH213079   5.874   1.556   3.807
 4358TIP3    H113080   5.831   1.508   3.878
 4358TIP3    H213081   5.958   1.512   3.795
 4359TIP3   OH213082   1.312   4.270   4.504
 4359TIP3    H113083   1.247   4.201   4.517
 4359TIP3    H213084   1.281   4.320   4.429
 4360TIP3   OH213085   5.324   5.046   1.695
 4360TIP3    H113086   5.397   5.031   1.636
 4360TIP3    H213087   5.362   5.091   1.770
 4361TIP3   OH213088   2.145   1.057   3.806
 4361TIP3    H113089   2.185   0.976   3.774
 4361TIP3    H213090   2.202   1.126   3.772
 4362TIP3   OH213091   2.465   1.966   3.920
 4362TIP3    H113092   2.416   1.900   3.969
 4362TIP3    H213093   2.404   1.997   3.854
 4363TIP3   OH213094   1.253   5.669   5.118
 4363TIP3    H113095   1.347   5.647   5.119
 4363TIP3    H213096   1.217   5.620   5.192
 4364TIP3   OH213097   5.760   0.623   3.030
 4364TIP3    H113098   5.792   0.592   2.945
 4364TIP3    H213099   5.799   0.563   3.093
 4365TIP3   OH213100   3.004   0.258   4.807
 4365TIP3    H113101   3.063   0.183   4.802
 4365TIP3    H213102   3.061   0.334   4.795
 4366TIP3   OH213103   2.597   4.062   0.617
 4366TIP3    H113104   2.580   4.129   0.682
 4366TIP3    H213105   2.563   3.981   0.656
 4367TIP3   OH213106   5.654   5.448   4.970
 4367TIP3    H113107   5.741   5.445   5.010
 4367TIP3    H213108   5.647   5.365   4.922
 4368TIP3   OH213109   3.642   2.280   3.651
 4368TIP3    H113110   3.649   2.322   3.565
 4368TIP3    H213111   3.576   2.331   3.697
 4369TIP3   OH213112   1.419   1.830   4.536
 4369TIP3    H113113   1.348   1.870   4.586
 4369TIP3    H213114   1.488   1.816   4.601
 4370TIP3   OH213115   6.066   4.917   0.250
 4370TIP3    H113116   6.108   4.833   0.235
 4370TIP3    H213117   6.121   4.980   0.204
 4371TIP3   OH213118   3.802   0.379   3.585
 4371TIP3    H113119   3.839   0.297   3.617
 4371TIP3    H213120   3.765   0.421   3.664
 4372TIP3   OH213121   0.178   3.345   3.384
 4372TIP3    H113122   0.167   3.439   3.373
 4372TIP3    H213123   0.092   3.308   3.362
 4373TIP3   OH213124   0.393   0.623   3.273
 4373TIP3    H113125   0.321   0.628   3.336
 4373TIP3    H213126   0.419   0.531   3.273
 4374TIP3   OH213127   4.230   4.874   2.916
 4374TIP3    H113128   4.283   4.794   2.911
 4374TIP3    H213129   4.144   4.848   2.883
 4375TIP3   OH213130   1.251   3.297   3.120
 4375TIP3    H113131   1.308   3.374   3.125
 4375TIP3    H213132   1.284   3.248   3.045
 4376TIP3   OH213133   0.602   5.264   2.147
 4376TIP3    H113134   0.549   5.299   2.074
 4376TIP3    H213135   0.676   5.222   2.104
 4377TIP3   OH213136   5.313   1.725   2.842
 4377TIP3    H113137   5.327   1.640   2.800
 4377TIP3    H213138   5.217   1.732   2.847
 4378TIP3   OH213139   4.080   4.673   3.402
 4378TIP3    H113140   4.121   4.595   3.366
 4378TIP3    H213141   3.987   4.651   3.406
 4379TIP3   OH213142   2.101   2.898   4.954
 4379TIP3    H113143   2.017   2.926   4.989
 4379TIP3    H213144   2.147   2.860   5.029
 4380TIP3   OH213145   1.139   4.344   5.027
 4380TIP3    H113146   1.107   4.325   4.939
 4380TIP3    H213147   1.074   4.405   5.063
 4381TIP3   OH213148   0.569   1.343   5.023
 4381TIP3    H113149   0.505   1.308   4.961
 4381TIP3    H213150   0.637   1.382   4.969
 4382TIP3   OH213151   1.681   2.965   1.778
 4382TIP3    H113152   1.767   2.979   1.817
 4382TIP3    H213153   1.674   2.869   1.769
 4383TIP3   OH213154   0.700   0.341   4.283
 4383TIP3    H113155   0.788   0.368   4.257
 4383TIP3    H213156   0.694   0.364   4.375
 4384TIP3   OH213157   6.058   2.605   5.117
 4384TIP3    H113158   5.975   2.583   5.076
 4384TIP3    H213159   6.125   2.573   5.056
 4385TIP3   OH213160   1.755   1.513   4.827
 4385TIP3    H113161   1.734   1.419   4.829
 4385TIP3    H213162   1.850   1.515   4.815
 4386TIP3   OH213163   2.547   5.664   1.434
 4386TIP3    H113164   2.601   5.655   1.513
 4386TIP3    H213165   2.470   5.713   1.463
 4387TIP3   OH213166   4.447   2.434   4.180
 4387TIP3    H113167   4.434   2.444   4.086
 4387TIP3    H213168   4.397   2.356   4.203
 4388TIP3   OH213169   3.668   2.469   0.669
 4388TIP3    H113170   3.594   2.409   0.678
 4388TIP3    H213171   3.644   2.544   0.723
 4389TIP3   OH213172   3.067   2.345   4.976
 4389TIP3    H113173   2.991   2.287   4.980
 4389TIP3    H213174   3.142   2.287   4.986
 4390TIP3   OH213175   4.954   2.235   0.710
 4390TIP3    H113176   4.939   2.285   0.789
 4390TIP3    H213177   4.870   2.193   0.691
 4391TIP3   OH213178   0.360   5.454   3.290
 4391TIP3    H113179   0.288   5.397   3.316
 4391TIP3    H213180   0.360   5.524   3.355
 4392TIP3   OH213181   3.349   3.263   4.509
 4392TIP3    H113182   3.439   3.285   4.486
 4392TIP3    H213183   3.355   3.175   4.547
 4393TIP3   OH213184   4.523   1.491   3.921
 4393TIP3    H113185   4.602   1.442   3.943
 4393TIP3    H213186   4.455   1.424   3.912
 4394TIP3   OH213187   5.411   4.271   2.412
 4394TIP3    H113188   5.482   4.329   2.441
 4394TIP3    H213189   5.358   4.326   2.353
 4395TIP3   OH213190   0.177   3.428   1.705
 4395TIP3    H113191   0.246   3.451   1.644
 4395TIP3    H213192   0.210   3.349   1.750
 4396TIP3   OH213193   5.962   4.694   2.255
 4396TIP3    H113194   5.943   4.787   2.267
 4396TIP3    H213195   5.928   4.673   2.169
 4397TIP3   OH213196   1.390   0.672   5.174
 4397TIP3    H113197   1.419   0.589   5.138
 4397TIP3    H213198   1.398   0.662   5.269
 4398TIP3   OH213199   4.397   2.799   0.194
 4398TIP3    H113200   4.402   2.850   0.113
 4398TIP3    H213201   4.382   2.709   0.165
 4399TIP3   OH213202   1.815   4.287   2.988
 4399TIP3    H113203   1.747   4.354   2.990
 4399TIP3    H213204   1.840   4.281   2.895
 4400TIP3   OH213205   2.513   3.716   4.824
 4400TIP3    H113206   2.426   3.751   4.808
 4400TIP3    H213207   2.499   3.647   4.890
 4401TIP3   OH213208   5.070   1.895   4.996
 4401TIP3    H113209   4.979   1.892   4.967
 4401TIP3    H213210   5.078   1.976   5.045
 4402TIP3   OH213211   3.819   2.769   2.685
 4402TIP3    H113212   3.804   2.833   2.755
 4402TIP3    H213213   3.800   2.685   2.725
 4403TIP3   OH213214   5.931   0.680   0.767
 4403TIP3    H113215   5.862   0.737   0.732
 4403TIP3    H213216   5.924   0.690   0.862
 4404TIP3   OH213217   0.184   3.427   2.086
 4404TIP3    H113218   0.154   3.489   2.019
 4404TIP3    H213219   0.175   3.341   2.046
 4405TIP3   OH213220   4.586   4.462   4.377
 4405TIP3    H113221   4.651   4.500   4.436
 4405TIP3    H213222   4.525   4.416   4.435
 4406TIP3   OH213223   4.180   4.222   4.691
 4406TIP3    H113224   4.236   4.155   4.729
 4406TIP3    H213225   4.091   4.196   4.716
 4407TIP3   OH213226   3.127   2.602   3.435
 4407TIP3    H113227   3.178   2.674   3.471
 4407TIP3    H213228   3.149   2.602   3.341
 4408TIP3   OH213229   4.717   4.296   4.181
 4408TIP3    H113230   4.777   4.365   4.152
 4408TIP3    H213231   4.686   4.325   4.267
 4409TIP3   OH213232   0.527   2.843   0.073
 4409TIP3    H113233   0.579   2.917   0.040
 4409TIP3    H213234   0.470   2.819  -0.001
 4410TIP3   OH213235   3.593   2.109   2.747
 4410TIP3    H113236   3.686   2.097   2.768
 4410TIP3    H213237   3.565   2.025   2.712
 4411TIP3   OH213238   5.805   2.651   3.909
 4411TIP3    H113239   5.889   2.606   3.902
 4411TIP3    H213240   5.789   2.657   4.003
 4412TIP3   OH213241   5.394   3.022   3.858
 4412TIP3    H113242   5.442   3.008   3.776
 4412TIP3    H213243   5.308   2.985   3.842
 4413TIP3   OH213244   5.136   0.933   1.654
 4413TIP3    H113245   5.162   0.948   1.745
 4413TIP3    H213246   5.042   0.951   1.653
 4414TIP3   OH213247   3.298   4.749   3.925
 4414TIP3    H113248   3.214   4.716   3.955
 4414TIP3    H213249   3.351   4.671   3.910
 4415TIP3   OH213250   2.589   3.642   3.467
 4415TIP3    H113251   2.674   3.643   3.513
 4415TIP3    H213252   2.594   3.565   3.410
 4416TIP3   OH213253   4.930   4.946   2.571
 4416TIP3    H113254   4.927   4.870   2.512
 4416TIP3    H213255   4.950   4.908   2.657
 4417TIP3   OH213256   1.310   3.496   0.849
 4417TIP3    H113257   1.336   3.407   0.874
 4417TIP3    H213258   1.310   3.545   0.932
 4418TIP3   OH213259   4.606   5.960   1.728
 4418TIP3    H113260   4.657   5.944   1.807
 4418TIP3    H213261   4.640   5.898   1.664
 4419TIP3   OH213262   5.500   0.951   4.848
 4419TIP3    H113263   5.535   0.864   4.830
 4419TIP3    H213264   5.501   0.958   4.944
 4420TIP3   OH213265   0.622   1.802   2.062
 4420TIP3    H113266   0.610   1.877   2.120
 4420TIP3    H213267   0.702   1.822   2.013
 4421TIP3   OH213268   1.107   4.211   4.797
 4421TIP3    H113269   1.171   4.142   4.812
 4421TIP3    H213270   1.073   4.193   4.709
 4422TIP3   OH213271   0.269   2.596   2.321
 4422TIP3    H113272   0.236   2.605   2.410
 4422TIP3    H213273   0.213   2.653   2.269
 4423TIP3   OH213274   4.556   3.529   0.777
 4423TIP3    H113275   4.529   3.439   0.757
 4423TIP3    H213276   4.554   3.574   0.693
 4424TIP3   OH213277   1.820   5.763   5.072
 4424TIP3    H113278   1.851   5.757   4.982
 4424TIP3    H213279   1.855   5.685   5.116
 4425TIP3   OH213280   5.014   3.162   1.626
 4425TIP3    H113281   5.045   3.183   1.713
 4425TIP3    H213282   4.994   3.247   1.586
 4426TIP3   OH213283   6.104   0.155   1.772
 4426TIP3    H113284   6.131   0.233   1.820
 4426TIP3    H213285   6.011   0.169   1.754
 4427TIP3   OH213286   3.420   2.224   1.564
 4427TIP3    H113287   3.381   2.150   1.517
 4427TIP3    H213288   3.428   2.194   1.654
 4428TIP3   OH213289   2.106   1.714   4.180
 4428TIP3    H113290   2.077   1.691   4.091
 4428TIP3    H213291   2.049   1.785   4.206
 4429TIP3   OH213292   0.591   4.963   4.698
 4429TIP3    H113293   0.624   5.028   4.759
 4429TIP3    H213294   0.640   4.884   4.718
 4430TIP3   OH213295   0.539   3.799   3.500
 4430TIP3    H113296   0.623   3.754   3.490
 4430TIP3    H213297   0.504   3.768   3.583
 4431TIP3   OH213298   0.174   5.704   4.031
 4431TIP3    H113299   0.117   5.706   4.108
 4431TIP3    H213300   0.178   5.611   4.007
 4432TIP3   OH213301   4.036   1.558   3.210
 4432TIP3    H113302   4.108   1.594   3.262
 4432TIP3    H213303   4.016   1.627   3.146
 4433TIP3   OH213304   0.174   3.873   0.163
 4433TIP3    H113305   0.235   3.939   0.131
 4433TIP3    H213306   0.106   3.923   0.209
 4434TIP3   OH213307   6.062   5.881   0.459
 4434TIP3    H113308   6.155   5.862   0.474
 4434TIP3    H213309   6.062   5.963   0.410
 4435TIP3   OH213310   1.800   3.790   3.379
 4435TIP3    H113311   1.836   3.748   3.301
 4435TIP3    H213312   1.743   3.723   3.418
 4436TIP3   OH213313   3.993   4.194   5.169
 4436TIP3    H113314   3.905   4.193   5.130
 4436TIP3    H213315   3.977   4.200   5.263
 4437TIP3   OH213316   3.282   3.143   1.482
 4437TIP3    H113317   3.188   3.130   1.491
 4437TIP3    H213318   3.321   3.076   1.537
 4438TIP3   OH213319   0.750   3.719   1.580
 4438TIP3    H113320   0.740   3.630   1.613
 4438TIP3    H213321   0.844   3.730   1.570
 4439TIP3   OH213322   3.003   5.041   1.530
 4439TIP3    H113323   2.926   5.025   1.585
 4439TIP3    H213324   3.061   4.968   1.547
 4440TIP3   OH213325   6.059   2.888   1.547
 4440TIP3    H113326   5.994   2.831   1.586
 4440TIP3    H213327   6.061   2.864   1.455
 4441TIP3   OH213328   1.410   2.655   1.549
 4441TIP3    H113329   1.409   2.566   1.514
 4441TIP3    H213330   1.328   2.662   1.598
 4442TIP3   OH213331   2.950   0.797   2.913
 4442TIP3    H113332   3.034   0.752   2.916
 4442TIP3    H213333   2.927   0.800   2.820
 4443TIP3   OH213334   1.804   1.294   3.719
 4443TIP3    H113335   1.837   1.325   3.803
 4443TIP3    H213336   1.779   1.203   3.735
 4444TIP3   OH213337   1.980   3.193   4.982
 4444TIP3    H113338   1.982   3.133   4.908
 4444TIP3    H213339   1.964   3.279   4.942
 4445TIP3   OH213340   5.025   1.682   3.328
 4445TIP3    H113341   4.967   1.685   3.252
 4445TIP3    H213342   4.969   1.700   3.403
 4446TIP3   OH213343   0.050   5.453   4.823
 4446TIP3    H113344  -0.010   5.522   4.850
 4446TIP3    H213345   0.115   5.449   4.893
 4447TIP3   OH213346   3.423   5.431   3.824
 4447TIP3    H113347   3.340   5.474   3.840
 4447TIP3    H213348   3.489   5.499   3.836
 4448TIP3   OH213349   4.590   0.373   1.281
 4448TIP3    H113350   4.560   0.415   1.200
 4448TIP3    H213351   4.591   0.279   1.260
 4449TIP3   OH213352   3.528   1.263   1.903
 4449TIP3    H113353   3.460   1.195   1.908
 4449TIP3    H213354   3.479   1.345   1.908
 4450TIP3   OH213355   4.502   0.625   4.320
 4450TIP3    H113356   4.543   0.540   4.334
 4450TIP3    H213357   4.570   0.688   4.343
 4451TIP3   OH213358   2.503   3.088   5.065
 4451TIP3    H113359   2.573   3.128   5.117
 4451TIP3    H213360   2.429   3.147   5.074
 4452TIP3   OH213361   1.777   0.174   2.764
 4452TIP3    H113362   1.800   0.255   2.718
 4452TIP3    H213363   1.745   0.203   2.849
 4453TIP3   OH213364   1.513   1.969   5.091
 4453TIP3    H113365   1.536   1.890   5.140
 4453TIP3    H213366   1.448   2.013   5.145
 4454TIP3   OH213367   0.767   2.147   4.642
 4454TIP3    H113368   0.715   2.085   4.591
 4454TIP3    H213369   0.772   2.108   4.729
 4455TIP3   OH213370   1.659   1.569   0.797
 4455TIP3    H113371   1.675   1.646   0.852
 4455TIP3    H213372   1.567   1.576   0.773
 4456TIP3   OH213373   5.876   0.810   4.980
 4456TIP3    H113374   5.895   0.738   4.919
 4456TIP3    H213375   5.931   0.882   4.950
 4457TIP3   OH213376   4.171   1.145   4.334
 4457TIP3    H113377   4.193   1.175   4.423
 4457TIP3    H213378   4.179   1.224   4.281
 4458TIP3   OH213379   4.599   5.174   0.702
 4458TIP3    H113380   4.586   5.236   0.630
 4458TIP3    H213381   4.643   5.099   0.661
 4459TIP3   OH213382   1.819   0.638   3.872
 4459TIP3    H113383   1.863   0.634   3.787
 4459TIP3    H213384   1.737   0.591   3.859
 4460TIP3   OH213385   1.441   2.773   4.318
 4460TIP3    H113386   1.510   2.723   4.362
 4460TIP3    H213387   1.370   2.777   4.381
 4461TIP3   OH213388   6.265   3.454   0.073
 4461TIP3    H113389   6.244   3.391   0.003
 4461TIP3    H213390   6.220   3.534   0.046
 4462TIP3   OH213391   6.049   1.622   2.677
 4462TIP3    H113392   6.101   1.680   2.734
 4462TIP3    H213393   5.966   1.668   2.666
 4463TIP3   OH213394   5.192   1.435   4.281
 4463TIP3    H113395   5.287   1.427   4.289
 4463TIP3    H213396   5.174   1.528   4.293
 4464TIP3   OH213397   2.600   4.829   0.306
 4464TIP3    H113398   2.622   4.771   0.379
 4464TIP3    H213399   2.650   4.796   0.232
 4465TIP3   OH213400   6.096   2.408   1.875
 4465TIP3    H113401   6.171   2.357   1.845
 4465TIP3    H213402   6.083   2.382   1.966
 4466TIP3   OH213403   6.241   2.953   2.705
 4466TIP3    H113404   6.332   2.924   2.695
 4466TIP3    H213405   6.206   2.954   2.616
 4467TIP3   OH213406   3.137   1.694   0.479
 4467TIP3    H113407   3.225   1.729   0.492
 4467TIP3    H213408   3.101   1.747   0.408
 4468TIP3   OH213409   3.484   0.929   4.453
 4468TIP3    H113410   3.579   0.919   4.450
 4468TIP3    H213411   3.457   0.873   4.527
 4469TIP3   OH213412   5.783   5.067   1.907
 4469TIP3    H113413   5.780   5.136   1.973
 4469TIP3    H213414   5.875   5.044   1.899
 4470TIP3   OH213415   3.090   5.939   1.404
 4470TIP3    H113416   3.170   5.928   1.456
 4470TIP3    H213417   3.059   5.850   1.389
 4471TIP3   OH213418   5.007   4.573   4.821
 4471TIP3    H113419   5.004   4.614   4.908
 4471TIP3    H213420   5.081   4.512   4.826
 4472TIP3   OH213421   3.015   2.027   4.664
 4472TIP3    H113422   3.053   2.004   4.749
 4472TIP3    H213423   3.091   2.053   4.611
 4473TIP3   OH213424   0.288   4.929   1.174
 4473TIP3    H113425   0.232   4.891   1.241
 4473TIP3    H213426   0.237   4.923   1.093
 4474TIP3   OH213427   1.073   4.748   2.936
 4474TIP3    H113428   1.028   4.822   2.896
 4474TIP3    H213429   1.004   4.698   2.979
 4475TIP3   OH213430   2.854   5.030   4.662
 4475TIP3    H113431   2.879   5.118   4.634
 4475TIP3    H213432   2.773   5.044   4.712
 4476TIP3   OH213433   1.830   4.353   0.541
 4476TIP3    H113434   1.743   4.342   0.578
 4476TIP3    H213435   1.883   4.285   0.584
 4477TIP3   OH213436   3.989   1.823   3.115
 4477TIP3    H113437   4.037   1.906   3.106
 4477TIP3    H213438   3.903   1.841   3.077
 4478TIP3   OH213439   4.914   4.297   1.386
 4478TIP3    H113440   4.891   4.383   1.352
 4478TIP3    H213441   4.955   4.314   1.470
 4479TIP3   OH213442   2.254   2.176   4.107
 4479TIP3    H113443   2.314   2.168   4.182
 4479TIP3    H213444   2.181   2.228   4.140
 4480TIP3   OH213445   0.356   2.649   1.816
 4480TIP3    H113446   0.264   2.622   1.813
 4480TIP3    H213447   0.394   2.597   1.887
 4481TIP3   OH213448   1.941   4.506   1.323
 4481TIP3    H113449   1.851   4.513   1.356
 4481TIP3    H213450   1.991   4.472   1.398
 4482TIP3   OH213451   5.889   5.232   4.015
 4482TIP3    H113452   5.965   5.279   4.047
 4482TIP3    H213453   5.838   5.297   3.967
 4483TIP3   OH213454   5.089   2.599   3.810
 4483TIP3    H113455   4.996   2.583   3.794
 4483TIP3    H213456   5.102   2.576   3.902
 4484TIP3   OH213457   3.619   0.250   2.318
 4484TIP3    H113458   3.607   0.166   2.274
 4484TIP3    H213459   3.623   0.314   2.246
 4485TIP3   OH213460   0.099   5.366   3.025
 4485TIP3    H113461   0.155   5.408   2.960
 4485TIP3    H213462   0.017   5.347   2.978
 4486TIP3   OH213463   3.297   5.450   2.305
 4486TIP3    H113464   3.341   5.372   2.273
 4486TIP3    H213465   3.343   5.472   2.386
 4487TIP3   OH213466   0.934   2.980   4.042
 4487TIP3    H113467   0.988   2.987   3.964
 4487TIP3    H213468   0.861   2.923   4.017
 4488TIP3   OH213469   6.321   1.882   2.166
 4488TIP3    H113470   6.370   1.889   2.084
 4488TIP3    H213471   6.345   1.961   2.216
 4489TIP3   OH213472   6.236   2.563   4.927
 4489TIP3    H113473   6.293   2.490   4.903
 4489TIP3    H213474   6.199   2.593   4.844
 4490TIP3   OH213475   3.930   1.836   2.411
 4490TIP3    H113476   3.995   1.879   2.468
 4490TIP3    H213477   3.887   1.909   2.366
 4491TIP3   OH213478   0.052   5.415   1.125
 4491TIP3    H113479   0.125   5.397   1.067
 4491TIP3    H213480   0.033   5.332   1.168
 4492TIP3   OH213481   4.119   0.704   0.325
 4492TIP3    H113482   4.101   0.752   0.244
 4492TIP3    H213483   4.035   0.700   0.370
 4493TIP3   OH213484   1.135   2.980   0.608
 4493TIP3    H113485   1.149   2.972   0.702
 4493TIP3    H213486   1.166   2.896   0.573
 4494TIP3   OH213487   3.734   0.816   4.099
 4494TIP3    H113488   3.736   0.885   4.032
 4494TIP3    H213489   3.801   0.754   4.072
 4495TIP3   OH213490   2.931   4.561   0.098
 4495TIP3    H113491   3.019   4.598   0.095
 4495TIP3    H213492   2.945   4.467   0.110
 4496TIP3   OH213493   4.763   5.187   4.129
 4496TIP3    H113494   4.841   5.131   4.131
 4496TIP3    H213495   4.709   5.156   4.202
 4497TIP3   OH213496   1.571   4.018   0.637
 4497TIP3    H113497   1.560   3.936   0.685
 4497TIP3    H213498   1.588   3.990   0.547
 4498TIP3   OH213499   1.550   4.004   2.986
 4498TIP3    H113500   1.459   3.999   3.015
 4498TIP3    H213501   1.577   4.094   3.007
 4499TIP3   OH213502   5.830   0.246   0.607
 4499TIP3    H113503   5.755   0.248   0.666
 4499TIP3    H213504   5.836   0.335   0.573
 4500TIP3   OH213505   4.214   1.277   0.845
 4500TIP3    H113506   4.228   1.206   0.907
 4500TIP3    H213507   4.302   1.312   0.827
 4501TIP3   OH213508   4.215   5.833   3.316
 4501TIP3    H113509   4.173   5.758   3.275
 4501TIP3    H213510   4.151   5.864   3.380
 4502TIP3   OH213511   0.592   1.285   0.730
 4502TIP3    H113512   0.674   1.318   0.768
 4502TIP3    H213513   0.612   1.195   0.704
 4503TIP3   OH213514   2.760   0.530   2.563
 4503TIP3    H113515   2.713   0.573   2.635
 4503TIP3    H213516   2.729   0.440   2.564
 4504TIP3   OH213517   3.219   5.447   4.282
 4504TIP3    H113518   3.299   5.397   4.271
 4504TIP3    H213519   3.177   5.444   4.196
 4505TIP3   OH213520   2.070   1.718   1.546
 4505TIP3    H113521   2.150   1.770   1.551
 4505TIP3    H213522   2.005   1.777   1.508
 4506TIP3   OH213523   6.242   2.947   0.298
 4506TIP3    H113524   6.300   2.919   0.228
 4506TIP3    H213525   6.223   3.039   0.278
 4507TIP3   OH213526   2.343   2.675   1.273
 4507TIP3    H113527   2.282   2.616   1.318
 4507TIP3    H213528   2.404   2.617   1.228
 4508TIP3   OH213529   2.017   3.196   3.095
 4508TIP3    H113530   1.991   3.200   3.187
 4508TIP3    H213531   2.006   3.103   3.072
 4509TIP3   OH213532   5.076   5.157   1.677
 4509TIP3    H113533   4.999   5.099   1.674
 4509TIP3    H213534   5.150   5.097   1.678
 4510TIP3   OH213535   0.573   2.802   5.110
 4510TIP3    H113536   0.625   2.736   5.064
 4510TIP3    H213537   0.517   2.840   5.042
 4511TIP3   OH213538   2.231   0.250   1.503
 4511TIP3    H113539   2.268   0.339   1.503
 4511TIP3    H213540   2.211   0.232   1.595
 4512TIP3   OH213541   5.373   5.164   1.410
 4512TIP3    H113542   5.308   5.222   1.370
 4512TIP3    H213543   5.455   5.213   1.405
 4513TIP3   OH213544   5.612   2.119   2.054
 4513TIP3    H113545   5.555   2.056   2.012
 4513TIP3    H213546   5.670   2.067   2.110
 4514TIP3   OH213547   3.058   3.037   1.634
 4514TIP3    H113548   3.013   3.060   1.715
 4514TIP3    H213549   3.010   2.961   1.601
 4515TIP3   OH213550   2.674   3.416   3.056
 4515TIP3    H113551   2.670   3.499   3.010
 4515TIP3    H213552   2.695   3.440   3.147
 4516TIP3   OH213553   4.892   3.429   0.476
 4516TIP3    H113554   4.972   3.393   0.513
 4516TIP3    H213555   4.885   3.387   0.390
 4517TIP3   OH213556   1.512   3.090   0.512
 4517TIP3    H113557   1.492   3.000   0.537
 4517TIP3    H213558   1.534   3.085   0.419
 4518TIP3   OH213559   2.104   5.784   2.308
 4518TIP3    H113560   2.076   5.707   2.259
 4518TIP3    H213561   2.115   5.852   2.242
 4519TIP3   OH213562   5.361   3.638   3.442
 4519TIP3    H113563   5.399   3.711   3.490
 4519TIP3    H213564   5.268   3.641   3.462
 4520TIP3   OH213565   4.129   2.117   0.518
 4520TIP3    H113566   4.212   2.158   0.494
 4520TIP3    H213567   4.112   2.148   0.607
 4521TIP3   OH213568   5.301   5.124   2.607
 4521TIP3    H113569   5.311   5.208   2.652
 4521TIP3    H213570   5.269   5.147   2.520
 4522TIP3   OH213571   0.639   2.983   2.529
 4522TIP3    H113572   0.624   2.915   2.464
 4522TIP3    H213573   0.551   3.003   2.563
 4523TIP3   OH213574   1.367   1.305   3.862
 4523TIP3    H113575   1.426   1.333   3.791
 4523TIP3    H213576   1.337   1.218   3.835
 4524TIP3   OH213577   2.812   3.833   2.236
 4524TIP3    H113578   2.796   3.847   2.329
 4524TIP3    H213579   2.750   3.890   2.192
 4525TIP3   OH213580   0.087   0.654   4.196
 4525TIP3    H113581   0.060   0.696   4.277
 4525TIP3    H213582   0.110   0.565   4.220
 4526TIP3   OH213583   2.124   4.583   3.150
 4526TIP3    H113584   2.198   4.524   3.164
 4526TIP3    H213585   2.159   4.670   3.167
 4527TIP3   OH213586   2.084   4.803   2.877
 4527TIP3    H113587   2.154   4.868   2.870
 4527TIP3    H213588   2.107   4.751   2.953
 4528TIP3   OH213589   4.908   0.859   4.262
 4528TIP3    H113590   4.944   0.862   4.174
 4528TIP3    H213591   4.981   0.833   4.317
 4529TIP3   OH213592   1.035   3.467   0.334
 4529TIP3    H113593   1.057   3.397   0.395
 4529TIP3    H213594   0.976   3.525   0.383
 4530TIP3   OH213595   0.072   4.540   2.921
 4530TIP3    H113596   0.126   4.607   2.964
 4530TIP3    H213597   0.038   4.487   2.993
 4531TIP3   OH213598   2.890   5.283   1.474
 4531TIP3    H113599   2.934   5.198   1.473
 4531TIP3    H213600   2.953   5.343   1.434
 4532TIP3   OH213601   3.148   5.400   3.144
 4532TIP3    H113602   3.241   5.395   3.166
 4532TIP3    H213603   3.147   5.412   3.049
 4533TIP3   OH213604   4.253   4.404   4.076
 4533TIP3    H113605   4.183   4.466   4.057
 4533TIP3    H213606   4.220   4.353   4.150
 4534TIP3   OH213607   2.918   4.084   2.910
 4534TIP3    H113608   2.939   3.992   2.892
 4534TIP3    H213609   2.952   4.132   2.834
 4535TIP3   OH213610   4.313   2.021   3.195
 4535TIP3    H113611   4.402   2.035   3.164
 4535TIP3    H213612   4.273   2.108   3.193
 4536TIP3   OH213613   3.106   3.318   2.604
 4536TIP3    H113614   3.184   3.336   2.552
 4536TIP3    H213615   3.140   3.288   2.688
 4537TIP3   OH213616   4.438   0.004   5.053
 4537TIP3    H113617   4.501   0.075   5.050
 4537TIP3    H213618   4.485  -0.073   5.020
 4538TIP3   OH213619   1.951   0.488   4.677
 4538TIP3    H113620   2.006   0.527   4.609
 4538TIP3    H213621   2.011   0.436   4.730
 4539TIP3   OH213622   5.014   0.157   2.142
 4539TIP3    H113623   4.930   0.200   2.125
 4539TIP3    H213624   5.079   0.224   2.119
 4540TIP3   OH213625   4.757   5.561   1.902
 4540TIP3    H113626   4.686   5.570   1.965
 4540TIP3    H213627   4.752   5.469   1.874
 4541TIP3   OH213628   1.551   4.089   4.686
 4541TIP3    H113629   1.510   4.018   4.735
 4541TIP3    H213630   1.504   4.168   4.714
 4542TIP3   OH213631   1.764   5.013   4.694
 4542TIP3    H113632   1.697   5.026   4.761
 4542TIP3    H213633   1.764   4.919   4.677
 4543TIP3   OH213634   3.990   5.557   0.042
 4543TIP3    H113635   4.078   5.537   0.075
 4543TIP3    H213636   3.978   5.495  -0.030
 4544TIP3   OH213637   1.621   4.498   0.333
 4544TIP3    H113638   1.639   4.514   0.425
 4544TIP3    H213639   1.582   4.580   0.302
 4545TIP3   OH213640   1.955   1.923   4.277
 4545TIP3    H113641   2.029   1.950   4.332
 4545TIP3    H213642   1.913   1.853   4.327
 4546TIP3   OH213643   5.624   5.329   1.401
 4546TIP3    H113644   5.692   5.377   1.449
 4546TIP3    H213645   5.567   5.397   1.366
 4547TIP3   OH213646   2.347   4.431   0.997
 4547TIP3    H113647   2.367   4.356   1.053
 4547TIP3    H213648   2.258   4.413   0.964
 4548TIP3   OH213649   3.234   1.288   3.907
 4548TIP3    H113650   3.220   1.344   3.983
 4548TIP3    H213651   3.178   1.325   3.839
 4549TIP3   OH213652   4.131   2.848   3.333
 4549TIP3    H113653   4.187   2.922   3.308
 4549TIP3    H213654   4.042   2.884   3.333
 4550TIP3   OH213655   0.462   4.694   1.067
 4550TIP3    H113656   0.384   4.723   1.113
 4550TIP3    H213657   0.466   4.600   1.082
 4551TIP3   OH213658   3.597   2.222   1.358
 4551TIP3    H113659   3.515   2.243   1.313
 4551TIP3    H213660   3.572   2.211   1.450
 4552TIP3   OH213661   4.869   5.213   0.511
 4552TIP3    H113662   4.845   5.304   0.531
 4552TIP3    H213663   4.959   5.220   0.477
 4553TIP3   OH213664   3.230   4.584   0.104
 4553TIP3    H113665   3.262   4.525   0.036
 4553TIP3    H213666   3.297   4.652   0.112
 4554TIP3   OH213667   0.832   4.812   1.484
 4554TIP3    H113668   0.925   4.833   1.488
 4554TIP3    H213669   0.810   4.780   1.571
 4555TIP3   OH213670   1.006   0.594   1.974
 4555TIP3    H113671   0.912   0.605   1.984
 4555TIP3    H213672   1.026   0.511   2.018
 4556TIP3   OH213673   5.724   4.271   0.126
 4556TIP3    H113674   5.710   4.300   0.216
 4556TIP3    H213675   5.729   4.176   0.132
 4557TIP3   OH213676   1.859   3.262   4.041
 4557TIP3    H113677   1.884   3.172   4.019
 4557TIP3    H213678   1.784   3.252   4.099
 4558TIP3   OH213679   1.106   1.462   3.328
 4558TIP3    H113680   1.115   1.401   3.400
 4558TIP3    H213681   1.026   1.435   3.283
 4559TIP3   OH213682   3.523   4.389   2.781
 4559TIP3    H113683   3.460   4.319   2.795
 4559TIP3    H213684   3.588   4.352   2.721
 4560TIP3   OH213685   1.779   4.724   4.629
 4560TIP3    H113686   1.808   4.647   4.678
 4560TIP3    H213687   1.752   4.689   4.544
 4561TIP3   OH213688   1.944   5.525   3.139
 4561TIP3    H113689   1.918   5.486   3.222
 4561TIP3    H213690   1.950   5.452   3.078
 4562TIP3   OH213691   3.920   4.612   1.337
 4562TIP3    H113692   3.964   4.625   1.252
 4562TIP3    H213693   3.942   4.691   1.387
 4563TIP3   OH213694   4.545   0.855   0.670
 4563TIP3    H113695   4.630   0.836   0.631
 4563TIP3    H213696   4.564   0.921   0.737
 4564TIP3   OH213697   5.204   0.951   4.171
 4564TIP3    H113698   5.130   0.896   4.146
 4564TIP3    H213699   5.165   1.032   4.203
 4565TIP3   OH213700   5.768   2.311   1.937
 4565TIP3    H113701   5.713   2.377   1.895
 4565TIP3    H213702   5.707   2.251   1.980
 4566TIP3   OH213703   3.303   0.323   4.040
 4566TIP3    H113704   3.332   0.413   4.056
 4566TIP3    H213705   3.322   0.309   3.947
 4567TIP3   OH213706   4.998   5.538   1.442
 4567TIP3    H113707   5.054   5.512   1.515
 4567TIP3    H213708   4.915   5.492   1.457
 4568TIP3   OH213709   5.280   0.521   1.483
 4568TIP3    H113710   5.280   0.439   1.533
 4568TIP3    H213711   5.322   0.498   1.400
 4569TIP3   OH213712   2.114   5.716   0.524
 4569TIP3    H113713   2.108   5.719   0.429
 4569TIP3    H213714   2.130   5.807   0.550
 4570TIP3   OH213715   2.932   4.265   2.028
 4570TIP3    H113716   2.853   4.224   1.993
 4570TIP3    H213717   2.973   4.307   1.953
 4571TIP3   OH213718   4.209   3.166   1.642
 4571TIP3    H113719   4.303   3.161   1.659
 4571TIP3    H213720   4.199   3.235   1.576
 4572TIP3   OH213721   3.110   0.045   4.972
 4572TIP3    H113722   3.181   0.053   4.908
 4572TIP3    H213723   3.120   0.123   5.027
 4573TIP3   OH213724   0.866   0.983   1.925
 4573TIP3    H113725   0.822   0.902   1.900
 4573TIP3    H213726   0.836   1.001   2.014
 4574TIP3   OH213727   2.797   1.057   0.648
 4574TIP3    H113728   2.844   0.984   0.688
 4574TIP3    H213729   2.747   1.017   0.577
 4575TIP3   OH213730   2.264   0.611   0.701
 4575TIP3    H113731   2.340   0.561   0.670
 4575TIP3    H213732   2.219   0.552   0.761
 4576TIP3   OH213733   0.787   5.734   1.494
 4576TIP3    H113734   0.836   5.698   1.421
 4576TIP3    H213735   0.708   5.680   1.500
 4577TIP3   OH213736   4.447   2.231   0.693
 4577TIP3    H113737   4.442   2.319   0.731
 4577TIP3    H213738   4.428   2.172   0.766
 4578TIP3   OH213739   2.263   4.036   1.300
 4578TIP3    H113740   2.199   4.006   1.237
 4578TIP3    H213741   2.331   3.969   1.301
 4579TIP3   OH213742   5.778   4.870   0.090
 4579TIP3    H113743   5.868   4.862   0.061
 4579TIP3    H213744   5.763   4.964   0.098
 4580TIP3   OH213745   2.441   2.633   0.979
 4580TIP3    H113746   2.498   2.556   0.984
 4580TIP3    H213747   2.353   2.599   0.995
 4581TIP3   OH213748   5.064   1.150   2.148
 4581TIP3    H113749   5.034   1.141   2.238
 4581TIP3    H213750   5.019   1.079   2.100
 4582TIP3   OH213751   5.784   2.881   2.329
 4582TIP3    H113752   5.743   2.794   2.324
 4582TIP3    H213753   5.844   2.883   2.255
 4583TIP3   OH213754   4.983   0.660   2.746
 4583TIP3    H113755   4.971   0.587   2.807
 4583TIP3    H213756   4.926   0.638   2.672
 4584TIP3   OH213757   4.997   4.294   3.815
 4584TIP3    H113758   4.951   4.213   3.837
 4584TIP3    H213759   4.930   4.349   3.775
 4585TIP3   OH213760   1.241   4.182   2.776
 4585TIP3    H113761   1.323   4.143   2.748
 4585TIP3    H213762   1.249   4.189   2.871
 4586TIP3   OH213763   5.822   3.020   2.865
 4586TIP3    H113764   5.870   3.037   2.783
 4586TIP3    H213765   5.858   3.084   2.927
 4587TIP3   OH213766   6.093   4.451   2.839
 4587TIP3    H113767   6.072   4.471   2.930
 4587TIP3    H213768   6.129   4.532   2.804
 4588TIP3   OH213769   1.621   3.779   0.369
 4588TIP3    H113770   1.571   3.710   0.412
 4588TIP3    H213771   1.643   3.743   0.283
 4589TIP3   OH213772   4.036   3.362   2.827
 4589TIP3    H113773   4.025   3.288   2.766
 4589TIP3    H213774   4.051   3.438   2.770
 4590TIP3   OH213775   0.305   4.496   2.370
 4590TIP3    H113776   0.259   4.499   2.287
 4590TIP3    H213777   0.241   4.527   2.434
 4591TIP3   OH213778   3.899   3.781   2.982
 4591TIP3    H113779   3.987   3.761   2.952
 4591TIP3    H213780   3.855   3.818   2.906
 4592TIP3   OH213781   2.578   2.168   2.661
 4592TIP3    H113782   2.648   2.209   2.609
 4592TIP3    H213783   2.621   2.095   2.706
 4593TIP3   OH213784   2.036   5.906   1.545
 4593TIP3    H113785   1.968   5.954   1.498
 4593TIP3    H213786   2.096   5.973   1.576
 4594TIP3   OH213787   1.292   3.506   0.229
 4594TIP3    H113788   1.202   3.497   0.259
 4594TIP3    H213789   1.338   3.432   0.268
 4595TIP3   OH213790   2.340   3.625   0.299
 4595TIP3    H113791   2.381   3.673   0.371
 4595TIP3    H213792   2.269   3.681   0.270
 4596TIP3   OH213793   1.641   0.300   2.204
 4596TIP3    H113794   1.566   0.294   2.144
 4596TIP3    H213795   1.714   0.327   2.148
 4597TIP3   OH213796   4.734   1.648   2.713
 4597TIP3    H113797   4.761   1.719   2.655
 4597TIP3    H213798   4.724   1.690   2.798
 4598TIP3   OH213799   0.125   0.910   0.810
 4598TIP3    H113800   0.087   0.911   0.898
 4598TIP3    H213801   0.193   0.843   0.814
 4599TIP3   OH213802   4.923   4.017   4.678
 4599TIP3    H113803   4.929   4.055   4.591
 4599TIP3    H213804   4.973   4.076   4.734
 4600TIP3   OH213805   4.480   3.870   3.966
 4600TIP3    H113806   4.454   3.920   3.888
 4600TIP3    H213807   4.504   3.937   4.030
 4601TIP3   OH213808   5.672   2.488   0.685
 4601TIP3    H113809   5.723   2.480   0.766
 4601TIP3    H213810   5.735   2.520   0.620
 4602TIP3   OH213811   5.500   1.024   4.173
 4602TIP3    H113812   5.508   1.115   4.202
 4602TIP3    H213813   5.407   1.014   4.154
 4603TIP3   OH213814   2.634   4.380   0.325
 4603TIP3    H113815   2.616   4.388   0.232
 4603TIP3    H213816   2.608   4.291   0.347
 4604TIP3   OH213817   4.074   0.187   2.943
 4604TIP3    H113818   4.019   0.148   3.011
 4604TIP3    H213819   4.100   0.272   2.979
 4605TIP3   OH213820   3.995   1.056   0.992
 4605TIP3    H113821   4.071   1.009   1.025
 4605TIP3    H213822   3.951   1.090   1.071
 4606TIP3   OH213823   5.944   3.432   2.474
 4606TIP3    H113824   5.967   3.470   2.389
 4606TIP3    H213825   5.849   3.439   2.480
 4607TIP3   OH213826   5.267   1.670   3.970
 4607TIP3    H113827   5.244   1.762   3.957
 4607TIP3    H213828   5.233   1.648   4.057
 4608TIP3   OH213829   1.756   2.078   4.120
 4608TIP3    H113830   1.850   2.076   4.137
 4608TIP3    H213831   1.717   2.035   4.196
 4609TIP3   OH213832   5.609   1.936   0.167
 4609TIP3    H113833   5.643   1.997   0.101
 4609TIP3    H213834   5.519   1.966   0.181
 4610TIP3   OH213835   0.065   4.479   5.152
 4610TIP3    H113836   0.072   4.559   5.205
 4610TIP3    H213837  -0.028   4.471   5.134
 4611TIP3   OH213838   1.945   1.338   3.934
 4611TIP3    H113839   1.936   1.258   3.986
 4611TIP3    H213840   2.038   1.343   3.914
 4612TIP3   OH213841   0.452   3.691   2.441
 4612TIP3    H113842   0.441   3.609   2.392
 4612TIP3    H213843   0.423   3.670   2.529
 4613TIP3   OH213844   0.375   0.295   3.905
 4613TIP3    H113845   0.382   0.251   3.990
 4613TIP3    H213846   0.283   0.285   3.880
 4614TIP3   OH213847   2.347   1.482   0.259
 4614TIP3    H113848   2.364   1.563   0.212
 4614TIP3    H213849   2.405   1.417   0.219
 4615TIP3   OH213850   2.654   0.863   4.364
 4615TIP3    H113851   2.744   0.830   4.364
 4615TIP3    H213852   2.639   0.894   4.275
 4616TIP3   OH213853   3.111   4.292   0.809
 4616TIP3    H113854   3.046   4.345   0.855
 4616TIP3    H213855   3.070   4.270   0.725
 4617TIP3   OH213856   2.497   1.437   2.941
 4617TIP3    H113857   2.510   1.531   2.949
 4617TIP3    H213858   2.576   1.398   2.979
 4618TIP3   OH213859   0.296   5.500   4.937
 4618TIP3    H113860   0.308   5.591   4.909
 4618TIP3    H213861   0.357   5.489   5.009
 4619TIP3   OH213862   2.192   2.061   4.398
 4619TIP3    H113863   2.177   2.120   4.471
 4619TIP3    H213864   2.287   2.053   4.392
 4620TIP3   OH213865   3.728   2.544   4.324
 4620TIP3    H113866   3.644   2.537   4.278
 4620TIP3    H213867   3.707   2.526   4.416
 4621TIP3   OH213868   1.196   0.614   2.222
 4621TIP3    H113869   1.239   0.661   2.294
 4621TIP3    H213870   1.231   0.526   2.226
 4622TIP3   OH213871   0.953   0.728   2.295
 4622TIP3    H113872   0.961   0.707   2.388
 4622TIP3    H213873   1.039   0.706   2.259
 4623TIP3   OH213874   4.552   5.928   3.555
 4623TIP3    H113875   4.627   5.893   3.603
 4623TIP3    H213876   4.547   6.020   3.580
 4624TIP3   OH213877   5.305   1.381   1.914
 4624TIP3    H113878   5.358   1.453   1.949
 4624TIP3    H213879   5.222   1.389   1.960
 4625TIP3   OH213880   2.876   2.528   4.512
 4625TIP3    H113881   2.888   2.510   4.605
 4625TIP3    H213882   2.922   2.457   4.468
 4626TIP3   OH213883   3.474   1.851   4.853
 4626TIP3    H113884   3.391   1.847   4.805
 4626TIP3    H213885   3.538   1.813   4.794
 4627TIP3   OH213886   0.126   3.532   5.010
 4627TIP3    H113887   0.059   3.464   5.015
 4627TIP3    H213888   0.154   3.530   4.918
 4628TIP3   OH213889   1.918   2.165   3.711
 4628TIP3    H113890   1.839   2.220   3.708
 4628TIP3    H213891   1.899   2.098   3.776
 4629TIP3   OH213892   1.985   1.697   2.656
 4629TIP3    H113893   1.914   1.633   2.654
 4629TIP3    H213894   2.063   1.647   2.679
 4630TIP3   OH213895   3.264   3.968   0.291
 4630TIP3    H113896   3.251   3.906   0.219
 4630TIP3    H213897   3.193   3.949   0.352
 4631TIP3   OH213898   1.105   2.683   4.689
 4631TIP3    H113899   1.114   2.708   4.781
 4631TIP3    H213900   1.012   2.668   4.677
 4632TIP3   OH213901   1.790   2.666   3.366
 4632TIP3    H113902   1.759   2.739   3.420
 4632TIP3    H213903   1.883   2.660   3.385
 4633TIP3   OH213904   3.604   1.791   1.963
 4633TIP3    H113905   3.696   1.782   1.989
 4633TIP3    H213906   3.554   1.769   2.042
 4634TIP3   OH213907   0.614   5.045   0.263
 4634TIP3    H113908   0.710   5.040   0.272
 4634TIP3    H213909   0.599   5.063   0.171
 4635TIP3   OH213910   5.429   0.819   4.563
 4635TIP3    H113911   5.511   0.781   4.533
 4635TIP3    H213912   5.361   0.760   4.529
 4636TIP3   OH213913   2.184   2.156   2.097
 4636TIP3    H113914   2.242   2.170   2.171
 4636TIP3    H213915   2.189   2.238   2.047
 4637TIP3   OH213916   5.271   3.916   2.285
 4637TIP3    H113917   5.255   3.844   2.347
 4637TIP3    H213918   5.361   3.902   2.255
 4638TIP3   OH213919   0.542   2.906   0.986
 4638TIP3    H113920   0.462   2.918   0.935
 4638TIP3    H213921   0.546   2.983   1.042
 4639TIP3   OH213922   5.947   4.370   1.000
 4639TIP3    H113923   5.995   4.430   0.943
 4639TIP3    H213924   5.894   4.427   1.055
 4640TIP3   OH213925   5.566   0.669   4.884
 4640TIP3    H113926   5.511   0.707   4.952
 4640TIP3    H213927   5.538   0.578   4.877
 4641TIP3   OH213928   2.178   2.515   3.526
 4641TIP3    H113929   2.124   2.591   3.503
 4641TIP3    H213930   2.255   2.552   3.568
 4642TIP3   OH213931   2.135   0.231   1.758
 4642TIP3    H113932   2.134   0.159   1.822
 4642TIP3    H213933   2.048   0.229   1.718
 4643TIP3   OH213934   5.551   2.443   1.816
 4643TIP3    H113935   5.562   2.371   1.755
 4643TIP3    H213936   5.527   2.518   1.761
 4644TIP3   OH213937   1.065   3.586   3.077
 4644TIP3    H113938   0.984   3.538   3.059
 4644TIP3    H213939   1.128   3.551   3.014
 4645TIP3   OH213940   5.481   5.710   0.689
 4645TIP3    H113941   5.481   5.661   0.607
 4645TIP3    H213942   5.469   5.801   0.663
 4646TIP3   OH213943   4.952   3.159   4.301
 4646TIP3    H113944   4.922   3.243   4.268
 4646TIP3    H213945   5.043   3.176   4.329
 4647TIP3   OH213946   1.238   3.952   4.382
 4647TIP3    H113947   1.144   3.938   4.367
 4647TIP3    H213948   1.262   4.019   4.319
 4648TIP3   OH213949   0.631   4.256   0.273
 4648TIP3    H113950   0.624   4.161   0.278
 4648TIP3    H213951   0.590   4.287   0.354
 4649TIP3   OH213952   5.902   2.415   4.545
 4649TIP3    H113953   5.973   2.358   4.514
 4649TIP3    H213954   5.930   2.503   4.521
 4650TIP3   OH213955   0.570   0.288   2.123
 4650TIP3    H113956   0.634   0.359   2.134
 4650TIP3    H213957   0.494   0.331   2.085
 4651TIP3   OH213958   2.399   2.442   2.507
 4651TIP3    H113959   2.320   2.387   2.506
 4651TIP3    H213960   2.446   2.419   2.427
 4652TIP3   OH213961   1.068   3.979   3.481
 4652TIP3    H113962   1.160   4.007   3.474
 4652TIP3    H213963   1.021   4.041   3.425
 4653TIP3   OH213964   0.221   1.766   4.055
 4653TIP3    H113965   0.204   1.778   4.149
 4653TIP3    H213966   0.239   1.672   4.046
 4654TIP3   OH213967   1.769   1.744   3.783
 4654TIP3    H113968   1.764   1.834   3.816
 4654TIP3    H213969   1.688   1.732   3.734
 4655TIP3   OH213970   3.372   1.877   1.005
 4655TIP3    H113971   3.282   1.874   0.975
 4655TIP3    H213972   3.424   1.887   0.925
 4656TIP3   OH213973   1.390   1.412   0.911
 4656TIP3    H113974   1.457   1.344   0.910
 4656TIP3    H213975   1.322   1.377   0.970
 4657TIP3   OH213976   4.188   1.740   3.605
 4657TIP3    H113977   4.178   1.833   3.627
 4657TIP3    H213978   4.205   1.740   3.511
 4658TIP3   OH213979   3.268   5.609   3.405
 4658TIP3    H113980   3.298   5.559   3.329
 4658TIP3    H213981   3.347   5.647   3.442
 4659TIP3   OH213982   6.289   2.137   4.081
 4659TIP3    H113983   6.217   2.090   4.038
 4659TIP3    H213984   6.296   2.096   4.167
 4660TIP3   OH213985   4.081   4.526   2.491
 4660TIP3    H113986   4.158   4.581   2.476
 4660TIP3    H213987   4.060   4.491   2.404
 4661TIP3   OH213988   6.006   3.577   2.905
 4661TIP3    H113989   5.998   3.584   3.000
 4661TIP3    H213990   6.074   3.640   2.882
 4662TIP3   OH213991   2.966   5.825   3.517
 4662TIP3    H113992   2.968   5.810   3.422
 4662TIP3    H213993   2.945   5.918   3.526
 4663TIP3   OH213994   6.023   5.626   2.713
 4663TIP3    H113995   6.100   5.678   2.692
 4663TIP3    H213996   6.042   5.588   2.799
 4664TIP3   OH213997   2.959   4.458   4.653
 4664TIP3    H113998   3.044   4.419   4.670
 4664TIP3    H213999   2.976   4.525   4.586
 4665TIP3   OH214000   2.912   1.792   2.543
 4665TIP3    H114001   2.957   1.721   2.497
 4665TIP3    H214002   2.853   1.748   2.604
 4666TIP3   OH214003   0.299   3.166   1.711
 4666TIP3    H114004   0.287   3.137   1.621
 4666TIP3    H214005   0.393   3.161   1.726
 4667TIP3   OH214006   2.081   5.165   4.380
 4667TIP3    H114007   1.992   5.170   4.414
 4667TIP3    H214008   2.132   5.128   4.452
 4668TIP3   OH214009   1.337   4.448   1.940
 4668TIP3    H114010   1.279   4.511   1.896
 4668TIP3    H214011   1.301   4.441   2.029
 4669TIP3   OH214012   6.038   5.741   1.505
 4669TIP3    H114013   6.070   5.831   1.505
 4669TIP3    H214014   6.070   5.704   1.422
 4670TIP3   OH214015   3.546   4.896   1.389
 4670TIP3    H114016   3.472   4.953   1.409
 4670TIP3    H214017   3.606   4.906   1.463
 4671TIP3   OH214018   0.347   3.817   4.923
 4671TIP3    H114019   0.309   3.740   4.879
 4671TIP3    H214020   0.312   3.813   5.012
 4672TIP3   OH214021   2.174   3.113   5.165
 4672TIP3    H114022   2.093   3.145   5.126
 4672TIP3    H214023   2.226   3.191   5.180
 4673TIP3   OH214024   1.862   4.405   2.142
 4673TIP3    H114025   1.787   4.407   2.083
 4673TIP3    H214026   1.936   4.383   2.085
 4674TIP3   OH214027   1.399   0.412   1.612
 4674TIP3    H114028   1.487   0.391   1.643
 4674TIP3    H214029   1.387   0.504   1.635
 4675TIP3   OH214030   2.160   0.742   2.218
 4675TIP3    H114031   2.210   0.823   2.227
 4675TIP3    H214032   2.192   0.685   2.288
 4676TIP3   OH214033   5.524   2.788   0.775
 4676TIP3    H114034   5.512   2.845   0.698
 4676TIP3    H214035   5.618   2.769   0.776
 4677TIP3   OH214036   2.974   5.214   2.946
 4677TIP3    H114037   2.922   5.257   2.878
 4677TIP3    H214038   2.909   5.170   3.002
 4678TIP3   OH214039   6.306   3.492   2.261
 4678TIP3    H114040   6.395   3.498   2.225
 4678TIP3    H214041   6.252   3.542   2.200
 4679TIP3   OH214042   1.210   3.565   0.583
 4679TIP3    H114043   1.228   3.581   0.676
 4679TIP3    H214044   1.147   3.632   0.558
 4680TIP3   OH214045   2.334   1.671   2.752
 4680TIP3    H114046   2.362   1.647   2.840
 4680TIP3    H214047   2.248   1.632   2.742
 4681TIP3   OH214048   1.329   1.931   3.328
 4681TIP3    H114049   1.311   1.837   3.319
 4681TIP3    H214050   1.306   1.968   3.243
 4682TIP3   OH214051   4.381   4.070   0.708
 4682TIP3    H114052   4.430   4.042   0.631
 4682TIP3    H214053   4.387   3.996   0.768
 4683TIP3   OH214054   6.300   1.446   4.297
 4683TIP3    H114055   6.210   1.441   4.265
 4683TIP3    H214056   6.353   1.417   4.223
 4684TIP3   OH214057   1.768   4.081   1.325
 4684TIP3    H114058   1.719   4.010   1.366
 4684TIP3    H214059   1.773   4.149   1.393
 4685TIP3   OH214060   5.821   0.037   3.263
 4685TIP3    H114061   5.753   0.095   3.229
 4685TIP3    H214062   5.900   0.062   3.216
 4686TIP3   OH214063   4.144   5.897   4.071
 4686TIP3    H114064   4.148   5.844   3.991
 4686TIP3    H214065   4.089   5.972   4.048
 4687TIP3   OH214066   3.862   2.168   4.536
 4687TIP3    H114067   3.862   2.262   4.518
 4687TIP3    H214068   3.857   2.162   4.631
 4688TIP3   OH214069   5.490   4.628   0.188
 4688TIP3    H114070   5.583   4.619   0.171
 4688TIP3    H214071   5.484   4.695   0.256
 4689TIP3   OH214072   2.775   0.834   1.041
 4689TIP3    H114073   2.813   0.908   1.088
 4689TIP3    H214074   2.689   0.865   1.012
 4690TIP3   OH214075   0.893   5.606   1.278
 4690TIP3    H114076   0.955   5.634   1.210
 4690TIP3    H214077   0.811   5.590   1.231
 4691TIP3   OH214078   5.307   2.402   3.205
 4691TIP3    H114079   5.366   2.328   3.219
 4691TIP3    H214080   5.359   2.479   3.228
 4692TIP3   OH214081   5.549   3.047   3.026
 4692TIP3    H114082   5.562   3.134   2.987
 4692TIP3    H214083   5.608   3.046   3.101
 4693TIP3   OH214084   3.659   3.615   1.896
 4693TIP3    H114085   3.616   3.658   1.822
 4693TIP3    H214086   3.724   3.679   1.926
 4694TIP3   OH214087   5.030   0.634   3.114
 4694TIP3    H114088   4.936   0.642   3.135
 4694TIP3    H214089   5.059   0.725   3.104
 4695TIP3   OH214090   5.551   3.331   0.554
 4695TIP3    H114091   5.462   3.312   0.523
 4695TIP3    H214092   5.586   3.393   0.489
 4696TIP3   OH214093   4.046   2.138   4.316
 4696TIP3    H114094   4.072   2.047   4.299
 4696TIP3    H214095   3.976   2.131   4.381
 4697TIP3   OH214096   2.440   3.933   2.449
 4697TIP3    H114097   2.531   3.952   2.470
 4697TIP3    H214098   2.443   3.845   2.410
 4698TIP3   OH214099   3.476   3.267   2.809
 4698TIP3    H114100   3.385   3.237   2.811
 4698TIP3    H214101   3.524   3.195   2.770
 4699TIP3   OH214102   0.094   0.233   2.576
 4699TIP3    H114103   0.112   0.310   2.630
 4699TIP3    H214104   0.089   0.266   2.486
 4700TIP3   OH214105   4.452   2.604   0.562
 4700TIP3    H114106   4.507   2.680   0.546
 4700TIP3    H214107   4.451   2.557   0.478
 4701TIP3   OH214108   0.983   1.910   0.515
 4701TIP3    H114109   0.978   1.841   0.580
 4701TIP3    H214110   1.075   1.911   0.488
 4702TIP3   OH214111   1.739   2.445   2.947
 4702TIP3    H114112   1.797   2.370   2.936
 4702TIP3    H214113   1.658   2.420   2.901
 4703TIP3   OH214114   4.012   4.120   3.519
 4703TIP3    H114115   3.918   4.112   3.532
 4703TIP3    H214116   4.029   4.214   3.520
 4704TIP3   OH214117   3.201   5.817   4.708
 4704TIP3    H114118   3.223   5.900   4.667
 4704TIP3    H214119   3.169   5.762   4.636
 4705TIP3   OH214120   3.216   0.295   1.691
 4705TIP3    H114121   3.259   0.345   1.622
 4705TIP3    H214122   3.257   0.209   1.687
 4706TIP3   OH214123   1.733   0.010   1.874
 4706TIP3    H114124   1.725  -0.036   1.958
 4706TIP3    H214125   1.807   0.070   1.886
 4707TIP3   OH214126   4.553   1.485   1.383
 4707TIP3    H114127   4.605   1.565   1.376
 4707TIP3    H214128   4.602   1.421   1.332
 4708TIP3   OH214129   3.504   1.817   2.716
 4708TIP3    H114130   3.570   1.751   2.738
 4708TIP3    H214131   3.438   1.809   2.784
 4709TIP3   OH214132   3.673   5.121   2.794
 4709TIP3    H114133   3.640   5.078   2.872
 4709TIP3    H214134   3.734   5.187   2.827
 4710TIP3   OH214135   3.887   0.603   1.640
 4710TIP3    H114136   3.820   0.653   1.688
 4710TIP3    H214137   3.862   0.511   1.653
 4711TIP3   OH214138   0.747   1.188   4.083
 4711TIP3    H114139   0.780   1.248   4.016
 4711TIP3    H214140   0.706   1.245   4.148
 4712TIP3   OH214141   1.357   3.103   3.742
 4712TIP3    H114142   1.305   3.151   3.806
 4712TIP3    H214143   1.388   3.026   3.790
 4713TIP3   OH214144   0.721   0.707   4.495
 4713TIP3    H114145   0.637   0.747   4.518
 4713TIP3    H214146   0.771   0.778   4.454
 4714TIP3   OH214147   2.156   1.597   0.081
 4714TIP3    H114148   2.145   1.534   0.010
 4714TIP3    H214149   2.123   1.553   0.159
 4715TIP3   OH214150   6.079   4.435   1.405
 4715TIP3    H114151   6.004   4.495   1.409
 4715TIP3    H214152   6.057   4.366   1.467
 4716TIP3   OH214153   6.313   0.804   3.809
 4716TIP3    H114154   6.389   0.770   3.855
 4716TIP3    H214155   6.346   0.877   3.756
 4717TIP3   OH214156   1.397   0.924   4.527
 4717TIP3    H114157   1.394   0.971   4.444
 4717TIP3    H214158   1.488   0.896   4.535
 4718TIP3   OH214159   6.331   2.438   0.272
 4718TIP3    H114160   6.340   2.481   0.357
 4718TIP3    H214161   6.238   2.420   0.264
 4719TIP3   OH214162   1.810   1.423   2.716
 4719TIP3    H114163   1.789   1.359   2.648
 4719TIP3    H214164   1.884   1.385   2.763
 4720TIP3   OH214165   3.262   1.565   4.009
 4720TIP3    H114166   3.175   1.602   4.025
 4720TIP3    H214167   3.322   1.620   4.060
 4721TIP3   OH214168   1.806   1.863   0.131
 4721TIP3    H114169   1.883   1.873   0.186
 4721TIP3    H214170   1.839   1.832   0.047
 4722TIP3   OH214171   2.555   2.386   2.265
 4722TIP3    H114172   2.633   2.331   2.260
 4722TIP3    H214173   2.575   2.461   2.208
 4723TIP3   OH214174   3.019   2.413   4.014
 4723TIP3    H114175   3.011   2.330   3.968
 4723TIP3    H214176   3.011   2.391   4.107
 4724TIP3   OH214177   5.885   4.283   4.618
 4724TIP3    H114178   5.882   4.194   4.584
 4724TIP3    H214179   5.974   4.292   4.653
 4725TIP3   OH214180   0.028   3.137   1.395
 4725TIP3    H114181  -0.023   3.144   1.314
 4725TIP3    H214182   0.088   3.064   1.380
 4726TIP3   OH214183   1.222   1.845   0.378
 4726TIP3    H114184   1.203   1.757   0.413
 4726TIP3    H214185   1.266   1.828   0.295
 4727TIP3   OH214186   0.443   5.571   3.806
 4727TIP3    H114187   0.377   5.521   3.855
 4727TIP3    H214188   0.468   5.641   3.865
 4728TIP3   OH214189   5.956   1.798   4.588
 4728TIP3    H114190   5.984   1.776   4.499
 4728TIP3    H214191   5.903   1.724   4.616
 4729TIP3   OH214192   2.076   3.067   2.300
 4729TIP3    H114193   2.032   3.057   2.384
 4729TIP3    H214194   2.109   2.979   2.280
 4730TIP3   OH214195   6.236   0.693   4.820
 4730TIP3    H114196   6.302   0.743   4.772
 4730TIP3    H214197   6.270   0.691   4.910
 4731TIP3   OH214198   5.583   1.106   3.477
 4731TIP3    H114199   5.518   1.096   3.407
 4731TIP3    H214200   5.530   1.118   3.556
 4732TIP3   OH214201   1.142   0.310   1.993
 4732TIP3    H114202   1.174   0.227   2.030
 4732TIP3    H214203   1.157   0.302   1.899
 4733TIP3   OH214204   5.349   2.940   0.905
 4733TIP3    H114205   5.286   2.888   0.955
 4733TIP3    H214206   5.410   2.876   0.869
 4734TIP3   OH214207   1.432   3.029   2.170
 4734TIP3    H114208   1.346   3.071   2.170
 4734TIP3    H214209   1.415   2.939   2.197
 4735TIP3   OH214210   4.738   0.803   1.143
 4735TIP3    H114211   4.683   0.827   1.218
 4735TIP3    H214212   4.807   0.750   1.181
 4736TIP3   OH214213   5.261   1.114   2.328
 4736TIP3    H114214   5.269   1.021   2.308
 4736TIP3    H214215   5.217   1.151   2.252
 4737TIP3   OH214216   3.465   2.261   2.121
 4737TIP3    H114217   3.534   2.321   2.150
 4737TIP3    H214218   3.383   2.306   2.142
 4738TIP3   OH214219   0.090   2.355   4.951
 4738TIP3    H114220   0.051   2.279   4.907
 4738TIP3    H214221   0.183   2.348   4.933
 4739TIP3   OH214222   0.339   1.103   2.144
 4739TIP3    H114223   0.299   1.188   2.124
 4739TIP3    H214224   0.400   1.122   2.215
 4740TIP3   OH214225   4.019   4.410   0.227
 4740TIP3    H114226   3.966   4.353   0.171
 4740TIP3    H214227   4.105   4.411   0.185
 4741TIP3   OH214228   3.665   3.877   3.207
 4741TIP3    H114229   3.631   3.827   3.282
 4741TIP3    H214230   3.710   3.812   3.153
 4742TIP3   OH214231   2.409   5.709   1.158
 4742TIP3    H114232   2.438   5.651   1.229
 4742TIP3    H214233   2.389   5.650   1.086
 4743TIP3   OH214234   1.828   0.269   0.077
 4743TIP3    H114235   1.886   0.263   0.002
 4743TIP3    H214236   1.815   0.179   0.106
 4744TIP3   OH214237   2.550   3.497   5.000
 4744TIP3    H114238   2.625   3.438   4.993
 4744TIP3    H214239   2.479   3.452   4.954
 4745TIP3   OH214240   2.808   4.121   1.636
 4745TIP3    H114241   2.849   4.205   1.614
 4745TIP3    H214242   2.847   4.058   1.576
 4746TIP3   OH214243   3.326   4.978   4.243
 4746TIP3    H114244   3.332   5.038   4.169
 4746TIP3    H214245   3.267   5.021   4.305
 4747TIP3   OH214246   5.394   3.229   4.869
 4747TIP3    H114247   5.406   3.288   4.794
 4747TIP3    H214248   5.300   3.218   4.877
 4748TIP3   OH214249   2.227   1.423   1.196
 4748TIP3    H114250   2.143   1.458   1.165
 4748TIP3    H214251   2.234   1.454   1.286
 4749TIP3   OH214252   5.683   0.652   3.814
 4749TIP3    H114253   5.638   0.594   3.753
 4749TIP3    H214254   5.772   0.660   3.778
 4750TIP3   OH214255   6.346   3.828   4.994
 4750TIP3    H114256   6.268   3.815   4.939
 4750TIP3    H214257   6.393   3.745   4.987
 4751TIP3   OH214258   2.088   1.834   1.151
 4751TIP3    H114259   2.094   1.918   1.196
 4751TIP3    H214260   2.041   1.853   1.070
 4752TIP3   OH214261   5.319   3.398   1.757
 4752TIP3    H114262   5.406   3.359   1.762
 4752TIP3    H214263   5.264   3.342   1.812
 4753TIP3   OH214264   3.624   5.753   2.141
 4753TIP3    H114265   3.699   5.813   2.136
 4753TIP3    H214266   3.548   5.807   2.121
 4754TIP3   OH214267   0.948   3.297   2.205
 4754TIP3    H114268   0.903   3.212   2.209
 4754TIP3    H214269   0.957   3.323   2.297
 4755TIP3   OH214270   2.224   1.539   0.774
 4755TIP3    H114271   2.291   1.604   0.796
 4755TIP3    H214272   2.212   1.548   0.679
 4756TIP3   OH214273   1.130   3.962   0.317
 4756TIP3    H114274   1.052   4.001   0.276
 4756TIP3    H214275   1.192   4.034   0.323
 4757TIP3   OH214276   5.113   5.016   4.494
 4757TIP3    H114277   5.092   5.101   4.456
 4757TIP3    H214278   5.073   4.953   4.434
 4758TIP3   OH214279   0.378   0.575   0.238
 4758TIP3    H114280   0.413   0.599   0.152
 4758TIP3    H214281   0.283   0.577   0.227
 4759TIP3   OH214282   4.901   2.725   1.343
 4759TIP3    H114283   4.952   2.791   1.391
 4759TIP3    H214284   4.817   2.767   1.326
 4760TIP3   OH214285   2.647   3.133   0.968
 4760TIP3    H114286   2.576   3.070   0.980
 4760TIP3    H214287   2.719   3.098   1.020
 4761TIP3   OH214288   3.789   1.936   1.631
 4761TIP3    H114289   3.870   1.969   1.591
 4761TIP3    H214290   3.726   1.932   1.559
 4762TIP3   OH214291   4.735   4.667   3.183
 4762TIP3    H114292   4.742   4.572   3.171
 4762TIP3    H214293   4.775   4.684   3.268
 4763TIP3   OH214294   1.149   0.917   0.526
 4763TIP3    H114295   1.082   0.985   0.517
 4763TIP3    H214296   1.227   0.964   0.556
 4764TIP3   OH214297   3.256   2.491   0.422
 4764TIP3    H114298   3.334   2.461   0.469
 4764TIP3    H214299   3.247   2.582   0.447
 4765TIP3   OH214300   1.041   3.432   1.750
 4765TIP3    H114301   1.113   3.372   1.770
 4765TIP3    H214302   1.023   3.418   1.657
 4766TIP3   OH214303   2.578   3.506   0.658
 4766TIP3    H114304   2.562   3.418   0.693
 4766TIP3    H214305   2.658   3.496   0.606
 4767TIP3   OH214306   5.095   2.498   1.288
 4767TIP3    H114307   5.039   2.428   1.256
 4767TIP3    H214308   5.037   2.556   1.337
 4768TIP3   OH214309   1.473   5.095   1.088
 4768TIP3    H114310   1.410   5.098   1.016
 4768TIP3    H214311   1.422   5.115   1.166
 4769TIP3   OH214312   0.959   3.046   2.976
 4769TIP3    H114313   0.866   3.069   2.973
 4769TIP3    H214314   0.964   2.980   3.045
 4770TIP3   OH214315   3.156   3.706   4.148
 4770TIP3    H114316   3.152   3.774   4.215
 4770TIP3    H214317   3.242   3.717   4.108
 4771TIP3   OH214318   0.360   2.523   0.811
 4771TIP3    H114319   0.307   2.444   0.821
 4771TIP3    H214320   0.296   2.594   0.804
 4772TIP3   OH214321   2.055   1.695   2.052
 4772TIP3    H114322   1.970   1.674   2.093
 4772TIP3    H214323   2.051   1.654   1.966
 4773TIP3   OH214324   1.333   5.912   0.973
 4773TIP3    H114325   1.338   5.931   1.067
 4773TIP3    H214326   1.399   5.969   0.934
 4774TIP3   OH214327   4.567   3.187   3.101
 4774TIP3    H114328   4.654   3.159   3.074
 4774TIP3    H214329   4.524   3.217   3.021
 4775TIP3   OH214330   5.042   3.370   2.122
 4775TIP3    H114331   4.977   3.338   2.183
 4775TIP3    H214332   5.066   3.457   2.154
 4776TIP3   OH214333   2.134   2.170   0.314
 4776TIP3    H114334   2.177   2.250   0.346
 4776TIP3    H214335   2.158   2.166   0.221
 4777TIP3   OH214336   4.413   1.656   2.222
 4777TIP3    H114337   4.336   1.695   2.263
 4777TIP3    H214338   4.418   1.568   2.259
 4778TIP3   OH214339   3.663   3.429   3.896
 4778TIP3    H114340   3.726   3.456   3.830
 4778TIP3    H214341   3.610   3.361   3.854
 4779TIP3   OH214342   4.486   4.924   4.813
 4779TIP3    H114343   4.525   4.861   4.751
 4779TIP3    H214344   4.403   4.884   4.838
 4780TIP3   OH214345   1.798   1.622   1.565
 4780TIP3    H114346   1.799   1.715   1.545
 4780TIP3    H214347   1.833   1.580   1.486
 4781TIP3   OH214348   2.759   5.270   2.747
 4781TIP3    H114349   2.772   5.361   2.722
 4781TIP3    H214350   2.672   5.247   2.712
 4782TIP3   OH214351   4.072   2.078   3.052
 4782TIP3    H114352   4.085   2.120   2.967
 4782TIP3    H214353   4.080   2.149   3.116
 4783TIP3   OH214354   2.259   2.966   0.262
 4783TIP3    H114355   2.231   2.912   0.188
 4783TIP3    H214356   2.242   2.912   0.339
 4784TIP3   OH214357   0.558   1.180   0.264
 4784TIP3    H114358   0.524   1.269   0.276
 4784TIP3    H214359   0.480   1.127   0.247
 4785TIP3   OH214360   5.596   5.497   0.126
 4785TIP3    H114361   5.655   5.525   0.196
 4785TIP3    H214362   5.653   5.462   0.058
 4786TIP3   OH214363   4.096   3.806   0.686
 4786TIP3    H114364   4.061   3.827   0.773
 4786TIP3    H214365   4.180   3.764   0.704
 4787TIP3   OH214366   0.460   4.930   3.012
 4787TIP3    H114367   0.538   4.878   2.990
 4787TIP3    H214368   0.490   4.989   3.082
 4788TIP3   OH214369   5.629   2.049   1.176
 4788TIP3    H114370   5.647   2.077   1.266
 4788TIP3    H214371   5.659   2.123   1.122
 4789TIP3   OH214372   6.044   2.026   4.312
 4789TIP3    H114373   5.955   1.995   4.294
 4789TIP3    H214374   6.034   2.121   4.326
 4790TIP3   OH214375   3.989   1.811   0.034
 4790TIP3    H114376   3.947   1.894   0.056
 4790TIP3    H214377   3.917   1.750   0.023
 4791TIP3   OH214378   5.853   2.513   1.399
 4791TIP3    H114379   5.778   2.471   1.356
 4791TIP3    H214380   5.928   2.459   1.373
 4792TIP3   OH214381   0.568   3.166   0.382
 4792TIP3    H114382   0.578   3.151   0.476
 4792TIP3    H214383   0.653   3.199   0.354
 4793TIP3   OH214384   4.964   2.985   3.372
 4793TIP3    H114385   4.909   3.058   3.344
 4793TIP3    H214386   5.025   2.971   3.299
 4794TIP3   OH214387   0.028   3.301   2.454
 4794TIP3    H114388  -0.007   3.212   2.449
 4794TIP3    H214389  -0.024   3.351   2.392
 4795TIP3   OH214390   3.916   3.509   2.227
 4795TIP3    H114391   3.963   3.527   2.145
 4795TIP3    H214392   3.957   3.568   2.291
 4796TIP3   OH214393   4.660   2.709   2.455
 4796TIP3    H114394   4.735   2.766   2.442
 4796TIP3    H214395   4.620   2.738   2.537
 4797TIP3   OH214396   0.864   4.064   4.834
 4797TIP3    H114397   0.920   4.136   4.804
 4797TIP3    H214398   0.868   4.070   4.930
 4798TIP3   OH214399   0.614   3.907   0.698
 4798TIP3    H114400   0.554   3.833   0.692
 4798TIP3    H214401   0.701   3.868   0.696
 4799TIP3   OH214402   6.309   3.262   1.179
 4799TIP3    H114403   6.393   3.235   1.141
 4799TIP3    H214404   6.298   3.353   1.150
 4800TIP3   OH214405   0.728   3.517   0.849
 4800TIP3    H114406   0.802   3.501   0.791
 4800TIP3    H214407   0.715   3.434   0.895
 4801TIP3   OH214408   5.335   1.562   2.300
 4801TIP3    H114409   5.382   1.486   2.331
 4801TIP3    H214410   5.349   1.629   2.367
 4802TIP3   OH214411   0.355   5.713   4.314
 4802TIP3    H114412   0.400   5.795   4.292
 4802TIP3    H214413   0.391   5.648   4.254
 4803TIP3   OH214414   5.817   4.975   0.841
 4803TIP3    H114415   5.846   5.035   0.772
 4803TIP3    H214416   5.728   4.952   0.818
 4804TIP3   OH214417   2.485   0.536   4.484
 4804TIP3    H114418   2.543   0.532   4.560
 4804TIP3    H214419   2.421   0.603   4.507
 4805TIP3   OH214420   2.303   2.348   4.425
 4805TIP3    H114421   2.238   2.372   4.359
 4805TIP3    H214422   2.263   2.371   4.509
 4806TIP3   OH214423   1.656   1.826   2.345
 4806TIP3    H114424   1.670   1.759   2.411
 4806TIP3    H214425   1.705   1.902   2.377
 4807TIP3   OH214426   4.956   2.158   0.156
 4807TIP3    H114427   4.975   2.249   0.178
 4807TIP3    H214428   4.883   2.163   0.095
 4808TIP3   OH214429   1.079   3.231   0.501
 4808TIP3    H114430   1.130   3.208   0.423
 4808TIP3    H214431   1.066   3.148   0.546
 4809TIP3   OH214432   1.031   0.448   3.436
 4809TIP3    H114433   0.979   0.388   3.382
 4809TIP3    H214434   0.981   0.530   3.434
 4810TIP3   OH214435   2.703   1.395   2.624
 4810TIP3    H114436   2.656   1.323   2.666
 4810TIP3    H214437   2.774   1.352   2.575
 4811TIP3   OH214438   5.874   3.446   1.870
 4811TIP3    H114439   5.884   3.474   1.961
 4811TIP3    H214440   5.848   3.354   1.877
 4812TIP3   OH214441   3.571   4.643   4.894
 4812TIP3    H114442   3.532   4.593   4.822
 4812TIP3    H214443   3.624   4.580   4.942
 4813TIP3   OH214444   6.316   0.426   0.860
 4813TIP3    H114445   6.236   0.417   0.808
 4813TIP3    H214446   6.286   0.417   0.951
 4814TIP3   OH214447   0.110   2.327   1.229
 4814TIP3    H114448   0.101   2.414   1.266
 4814TIP3    H214449   0.204   2.313   1.223
 4815TIP3   OH214450   1.481   5.250   2.450
 4815TIP3    H114451   1.574   5.271   2.454
 4815TIP3    H214452   1.458   5.260   2.357
 4816TIP3   OH214453   3.228   1.716   1.974
 4816TIP3    H114454   3.300   1.722   1.911
 4816TIP3    H214455   3.153   1.688   1.921
 4817TIP3   OH214456   3.912   4.601   3.655
 4817TIP3    H114457   3.848   4.541   3.618
 4817TIP3    H214458   3.865   4.685   3.661
 4818TIP3   OH214459   4.567   0.776   1.425
 4818TIP3    H114460   4.505   0.817   1.486
 4818TIP3    H214461   4.651   0.781   1.470
 4819TIP3   OH214462   2.224   4.877   1.310
 4819TIP3    H114463   2.167   4.950   1.287
 4819TIP3    H214464   2.252   4.842   1.225
 4820TIP3   OH214465   5.352   1.038   3.904
 4820TIP3    H114466   5.420   0.977   3.876
 4820TIP3    H214467   5.272   0.986   3.906
 4821TIP3   OH214468   6.120   0.741   1.803
 4821TIP3    H114469   6.089   0.736   1.894
 4821TIP3    H214470   6.082   0.822   1.769
 4822TIP3   OH214471   5.681   2.743   3.290
 4822TIP3    H114472   5.663   2.829   3.328
 4822TIP3    H214473   5.738   2.761   3.215
 4823TIP3   OH214474   6.176   4.667   0.163
 4823TIP3    H114475   6.106   4.670   0.097
 4823TIP3    H214476   6.158   4.588   0.213
 4824TIP3   OH214477   0.495   1.071   4.372
 4824TIP3    H114478   0.498   0.989   4.323
 4824TIP3    H214479   0.432   1.125   4.324
 4825TIP3   OH214480   2.279   3.425   0.910
 4825TIP3    H114481   2.314   3.387   0.829
 4825TIP3    H214482   2.216   3.491   0.881
 4826TIP3   OH214483   5.897   2.160   5.010
 4826TIP3    H114484   5.974   2.204   4.975
 4826TIP3    H214485   5.886   2.083   4.954
 4827TIP3   OH214486   3.514   0.772   3.767
 4827TIP3    H114487   3.488   0.695   3.716
 4827TIP3    H214488   3.437   0.829   3.766
 4828TIP3   OH214489   0.771   0.419   4.539
 4828TIP3    H114490   0.859   0.444   4.512
 4828TIP3    H214491   0.721   0.500   4.535
 4829TIP3   OH214492   3.261   4.295   2.919
 4829TIP3    H114493   3.300   4.337   2.996
 4829TIP3    H214494   3.295   4.206   2.919
 4830TIP3   OH214495   5.077   4.952   2.806
 4830TIP3    H114496   5.127   4.981   2.883
 4830TIP3    H214497   5.123   4.991   2.732
 4831TIP3   OH214498   6.007   5.402   0.502
 4831TIP3    H114499   5.998   5.497   0.495
 4831TIP3    H214500   6.079   5.389   0.564
 4832TIP3   OH214501   2.737   2.195   2.255
 4832TIP3    H114502   2.832   2.199   2.244
 4832TIP3    H214503   2.708   2.140   2.182
 4833TIP3   OH214504   1.302   4.666   4.931
 4833TIP3    H114505   1.381   4.719   4.940
 4833TIP3    H214506   1.322   4.605   4.860
 4834TIP3   OH214507   3.816   3.917   2.760
 4834TIP3    H114508   3.824   3.887   2.670
 4834TIP3    H214509   3.852   4.005   2.759
 4835TIP3   OH214510   6.165   3.621   3.520
 4835TIP3    H114511   6.105   3.546   3.515
 4835TIP3    H214512   6.172   3.640   3.614
 4836TIP3   OH214513   4.869   2.986   1.978
 4836TIP3    H114514   4.786   2.938   1.966
 4836TIP3    H214515   4.847   3.077   1.956
 4837TIP3   OH214516   3.116   3.707   2.950
 4837TIP3    H114517   3.072   3.774   2.897
 4837TIP3    H214518   3.098   3.733   3.040
 4838TIP3   OH214519   3.144   5.175   4.971
 4838TIP3    H114520   3.110   5.086   4.961
 4838TIP3    H214521   3.076   5.220   5.021
 4839TIP3   OH214522   2.465   5.762   4.591
 4839TIP3    H114523   2.411   5.760   4.670
 4839TIP3    H214524   2.465   5.854   4.563
 4840TIP3   OH214525   3.525   1.086   2.963
 4840TIP3    H114526   3.492   1.020   2.903
 4840TIP3    H214527   3.587   1.138   2.910
 4841TIP3   OH214528   4.206   5.706   4.603
 4841TIP3    H114529   4.199   5.710   4.508
 4841TIP3    H214530   4.216   5.613   4.624
 4842TIP3   OH214531   0.757   0.663   2.105
 4842TIP3    H114532   0.700   0.604   2.155
 4842TIP3    H214533   0.811   0.707   2.171
 4843TIP3   OH214534   1.883   2.152   2.084
 4843TIP3    H114535   1.978   2.147   2.094
 4843TIP3    H214536   1.854   2.061   2.088
 4844TIP3   OH214537   1.714   5.415   5.174
 4844TIP3    H114538   1.709   5.326   5.209
 4844TIP3    H214539   1.754   5.404   5.087
 4845TIP3   OH214540   0.843   0.178   1.202
 4845TIP3    H114541   0.931   0.142   1.212
 4845TIP3    H214542   0.792   0.135   1.271
 4846TIP3   OH214543   3.500   4.185   3.535
 4846TIP3    H114544   3.534   4.096   3.539
 4846TIP3    H214545   3.439   4.191   3.608
 4847TIP3   OH214546   0.683   0.510   0.531
 4847TIP3    H114547   0.729   0.535   0.451
 4847TIP3    H214548   0.741   0.448   0.574
 4848TIP3   OH214549   3.115   4.730   0.757
 4848TIP3    H114550   3.174   4.654   0.756
 4848TIP3    H214551   3.157   4.793   0.699
 4849TIP3   OH214552   2.887   3.199   2.719
 4849TIP3    H114553   2.957   3.225   2.659
 4849TIP3    H214554   2.853   3.281   2.754
 4850TIP3   OH214555   2.637   2.522   2.032
 4850TIP3    H114556   2.717   2.572   2.013
 4850TIP3    H214557   2.566   2.578   2.001
 4851TIP3   OH214558   1.795   5.306   2.527
 4851TIP3    H114559   1.802   5.358   2.607
 4851TIP3    H214560   1.797   5.215   2.558
 4852TIP3   OH214561   6.296   5.258   3.901
 4852TIP3    H114562   6.217   5.275   3.849
 4852TIP3    H214563   6.298   5.328   3.966
 4853TIP3   OH214564   3.936   2.705   4.275
 4853TIP3    H114565   3.903   2.794   4.260
 4853TIP3    H214566   3.857   2.652   4.287
 4854TIP3   OH214567   2.571   1.800   0.278
 4854TIP3    H114568   2.538   1.888   0.258
 4854TIP3    H214569   2.533   1.744   0.211
 4855TIP3   OH214570   3.976   1.626   1.097
 4855TIP3    H114571   3.960   1.563   1.166
 4855TIP3    H214572   4.002   1.574   1.021
 4856TIP3   OH214573   2.680   1.543   1.623
 4856TIP3    H114574   2.655   1.595   1.699
 4856TIP3    H214575   2.609   1.557   1.560
 4857TIP3   OH214576   3.968   0.492   3.383
 4857TIP3    H114577   3.966   0.581   3.418
 4857TIP3    H214578   3.903   0.444   3.434
 4858TIP3   OH214579   2.386   1.162   3.613
 4858TIP3    H114580   2.403   1.219   3.538
 4858TIP3    H214581   2.440   1.199   3.683
 4859TIP3   OH214582   0.973   4.934   1.170
 4859TIP3    H114583   1.035   4.864   1.188
 4859TIP3    H214584   0.906   4.893   1.115
 4860TIP3   OH214585   3.299   3.345   3.216
 4860TIP3    H114586   3.360   3.389   3.156
 4860TIP3    H214587   3.224   3.404   3.221
 4861TIP3   OH214588   1.894   5.321   1.950
 4861TIP3    H114589   1.873   5.387   2.016
 4861TIP3    H214590   1.969   5.357   1.903
 4862TIP3   OH214591   4.296   1.736   2.986
 4862TIP3    H114592   4.281   1.770   2.898
 4862TIP3    H214593   4.271   1.808   3.044
 4863TIP3   OH214594   4.378   3.168   2.322
 4863TIP3    H114595   4.389   3.172   2.417
 4863TIP3    H214596   4.314   3.098   2.308
 4864TIP3   OH214597   0.710   0.086   1.424
 4864TIP3    H114598   0.744   0.136   1.498
 4864TIP3    H214599   0.745  -0.002   1.437
 4865TIP3   OH214600   2.622   0.913   1.810
 4865TIP3    H114601   2.610   1.005   1.786
 4865TIP3    H214602   2.556   0.866   1.760
 4866TIP3   OH214603   2.156   5.535   2.931
 4866TIP3    H114604   2.204   5.458   2.901
 4866TIP3    H214605   2.113   5.569   2.852
 4867TIP3   OH214606   1.309   2.073   0.559
 4867TIP3    H114607   1.375   2.134   0.526
 4867TIP3    H214608   1.284   2.022   0.483
 4868TIP3   OH214609   3.340   3.135   4.874
 4868TIP3    H114610   3.291   3.115   4.954
 4868TIP3    H214611   3.432   3.132   4.901
 4869TIP3   OH214612   5.018   2.684   0.684
 4869TIP3    H114613   5.022   2.686   0.589
 4869TIP3    H214614   5.066   2.762   0.711
 4870TIP3   OH214615   5.169   0.856   3.352
 4870TIP3    H114616   5.195   0.886   3.439
 4870TIP3    H214617   5.171   0.935   3.298
 4871TIP3   OH214618   2.135   2.977   1.712
 4871TIP3    H114619   2.186   2.985   1.631
 4871TIP3    H214620   2.121   2.883   1.723
 4872TIP3   OH214621   3.522   1.977   0.789
 4872TIP3    H114622   3.534   2.065   0.826
 4872TIP3    H214623   3.575   1.977   0.710
 4873TIP3   OH214624   2.819   4.248   1.195
 4873TIP3    H114625   2.728   4.278   1.191
 4873TIP3    H214626   2.816   4.158   1.164
 4874TIP3   OH214627   4.967   2.488   0.407
 4874TIP3    H114628   4.931   2.575   0.389
 4874TIP3    H214629   4.890   2.432   0.418
 4875TIP3   OH214630   1.010   3.661   0.927
 4875TIP3    H114631   0.971   3.574   0.934
 4875TIP3    H214632   1.097   3.646   0.891
 4876TIP3   OH214633   2.666   3.305   1.998
 4876TIP3    H114634   2.627   3.238   1.942
 4876TIP3    H214635   2.720   3.255   2.060
 4877TIP3   OH214636   3.359   0.354   3.776
 4877TIP3    H114637   3.432   0.308   3.736
 4877TIP3    H214638   3.367   0.445   3.745
 4878TIP3   OH214639   3.927   5.743   1.939
 4878TIP3    H114640   4.001   5.803   1.932
 4878TIP3    H214641   3.879   5.773   2.016
 4879TIP3   OH214642   4.954   2.721   1.019
 4879TIP3    H114643   4.941   2.799   0.965
 4879TIP3    H214644   5.046   2.725   1.045
 4880TIP3   OH214645   4.725   5.684   4.862
 4880TIP3    H114646   4.740   5.765   4.813
 4880TIP3    H214647   4.633   5.688   4.886
 4881TIP3   OH214648   1.833   1.323   4.547
 4881TIP3    H114649   1.802   1.259   4.483
 4881TIP3    H214650   1.755   1.374   4.571
 4882TIP3   OH214651   1.662   3.302   2.850
 4882TIP3    H114652   1.741   3.252   2.831
 4882TIP3    H214653   1.693   3.393   2.857
 4883TIP3   OH214654   0.040   1.286   3.099
 4883TIP3    H114655   0.134   1.300   3.106
 4883TIP3    H214656   0.012   1.341   3.026
 4884TIP3   OH214657   3.862   0.268   1.398
 4884TIP3    H114658   3.929   0.203   1.380
 4884TIP3    H214659   3.803   0.265   1.322
 4885TIP3   OH214660   6.263   4.961   4.218
 4885TIP3    H114661   6.301   5.046   4.194
 4885TIP3    H214662   6.171   4.969   4.192
 4886TIP3   OH214663   0.368   3.446   4.309
 4886TIP3    H114664   0.423   3.370   4.330
 4886TIP3    H214665   0.358   3.444   4.214
 4887TIP3   OH214666   3.024   4.381   4.137
 4887TIP3    H114667   3.017   4.365   4.231
 4887TIP3    H214668   2.949   4.335   4.100
 4888TIP3   OH214669   3.144   3.499   1.905
 4888TIP3    H114670   3.092   3.491   1.825
 4888TIP3    H214671   3.096   3.563   1.958
 4889TIP3   OH214672   5.492   5.034   4.840
 4889TIP3    H114673   5.397   5.043   4.829
 4889TIP3    H214674   5.510   4.943   4.817
 4890TIP3   OH214675   5.743   1.789   3.887
 4890TIP3    H114676   5.802   1.715   3.872
 4890TIP3    H214677   5.655   1.752   3.875
 4891TIP3   OH214678   5.188   4.121   4.105
 4891TIP3    H114679   5.118   4.181   4.077
 4891TIP3    H214680   5.143   4.037   4.118
 4892TIP3   OH214681   1.463   1.788   1.282
 4892TIP3    H114682   1.436   1.699   1.308
 4892TIP3    H214683   1.387   1.824   1.238
 4893TIP3   OH214684   0.102   5.025   1.749
 4893TIP3    H114685   0.163   5.042   1.820
 4893TIP3    H214686   0.107   5.103   1.693
 4894TIP3   OH214687   3.234   1.934   4.415
 4894TIP3    H114688   3.177   1.890   4.352
 4894TIP3    H214689   3.321   1.898   4.398
 4895TIP3   OH214690   5.254   1.867   1.710
 4895TIP3    H114691   5.314   1.916   1.653
 4895TIP3    H214692   5.213   1.935   1.764
 4896TIP3   OH214693   0.769   2.799   4.390
 4896TIP3    H114694   0.798   2.708   4.376
 4896TIP3    H214695   0.690   2.807   4.336
 4897TIP3   OH214696   5.257   0.576   4.578
 4897TIP3    H114697   5.236   0.517   4.507
 4897TIP3    H214698   5.186   0.566   4.641
 4898TIP3   OH214699   5.229   1.098   3.239
 4898TIP3    H114700   5.317   1.073   3.212
 4898TIP3    H214701   5.236   1.190   3.264
 4899TIP3   OH214702   0.066   3.367   4.688
 4899TIP3    H114703   0.147   3.333   4.728
 4899TIP3    H214704   0.052   3.311   4.612
 4900TIP3   OH214705   0.247   2.688   3.205
 4900TIP3    H114706   0.194   2.705   3.127
 4900TIP3    H214707   0.324   2.642   3.172
 4901TIP3   OH214708   2.169   4.637   3.726
 4901TIP3    H114709   2.227   4.566   3.698
 4901TIP3    H214710   2.229   4.706   3.757
 4902TIP3   OH214711   4.184   4.589   3.678
 4902TIP3    H114712   4.095   4.601   3.644
 4902TIP3    H214713   4.185   4.636   3.761
 4903TIP3   OH214714   2.346   4.889   4.780
 4903TIP3    H114715   2.301   4.805   4.780
 4903TIP3    H214716   2.412   4.881   4.850
 4904TIP3   OH214717   1.903   0.625   4.143
 4904TIP3    H114718   1.947   0.710   4.141
 4904TIP3    H214719   1.879   0.609   4.052
 4905TIP3   OH214720   6.259   2.369   2.876
 4905TIP3    H114721   6.320   2.296   2.883
 4905TIP3    H214722   6.198   2.357   2.948
 4906TIP3   OH214723   4.941   3.983   2.529
 4906TIP3    H114724   4.915   4.017   2.444
 4906TIP3    H214725   4.880   4.024   2.591
 4907TIP3   OH214726   1.143   1.524   4.222
 4907TIP3    H114727   1.218   1.503   4.167
 4907TIP3    H214728   1.110   1.438   4.250
 4908TIP3   OH214729   4.503   3.588   3.336
 4908TIP3    H114730   4.425   3.614   3.387
 4908TIP3    H214731   4.498   3.492   3.333
 4909TIP3   OH214732   3.646   5.487   2.802
 4909TIP3    H114733   3.733   5.495   2.762
 4909TIP3    H214734   3.597   5.562   2.768
 4910TIP3   OH214735   1.782   3.440   2.525
 4910TIP3    H114736   1.811   3.351   2.543
 4910TIP3    H214737   1.836   3.469   2.451
 4911TIP3   OH214738   4.763   4.814   4.037
 4911TIP3    H114739   4.760   4.861   3.954
 4911TIP3    H214740   4.803   4.876   4.098
 4912TIP3   OH214741   2.646   3.059   3.082
 4912TIP3    H114742   2.627   3.138   3.031
 4912TIP3    H214743   2.609   3.077   3.169
 4913TIP3   OH214744   1.253   3.555   4.657
 4913TIP3    H114745   1.157   3.557   4.650
 4913TIP3    H214746   1.271   3.502   4.734
 4914TIP3   OH214747   3.976   0.772   3.529
 4914TIP3    H114748   4.037   0.845   3.516
 4914TIP3    H214749   3.892   0.804   3.498
 4915TIP3   OH214750   2.799   5.623   0.196
 4915TIP3    H114751   2.783   5.565   0.271
 4915TIP3    H214752   2.723   5.681   0.195
 4916TIP3   OH214753   2.878   0.185   3.452
 4916TIP3    H114754   2.883   0.279   3.473
 4916TIP3    H214755   2.965   0.165   3.415
 4917TIP3   OH214756   1.674   5.026   3.049
 4917TIP3    H114757   1.746   5.082   3.079
 4917TIP3    H214758   1.612   5.026   3.122
 4918TIP3   OH214759   1.751   4.661   4.249
 4918TIP3    H114760   1.833   4.637   4.291
 4918TIP3    H214761   1.766   4.647   4.156
 4919TIP3   OH214762   3.404   5.507   3.199
 4919TIP3    H114763   3.432   5.596   3.176
 4919TIP3    H214764   3.439   5.452   3.129
 4920TIP3   OH214765   5.121   5.852   0.664
 4920TIP3    H114766   5.110   5.761   0.635
 4920TIP3    H214767   5.117   5.904   0.584
 4921TIP3   OH214768   6.288   1.093   1.642
 4921TIP3    H114769   6.216   1.039   1.676
 4921TIP3    H214770   6.364   1.066   1.694
 4922TIP3   OH214771   2.471   2.163   0.485
 4922TIP3    H114772   2.536   2.232   0.499
 4922TIP3    H214773   2.511   2.085   0.523
 4923TIP3   OH214774   0.044   2.563   3.917
 4923TIP3    H114775   0.061   2.655   3.902
 4923TIP3    H214776  -0.030   2.561   3.977
 4924TIP3   OH214777   5.908   2.767   3.503
 4924TIP3    H114778   5.996   2.790   3.533
 4924TIP3    H214779   5.903   2.802   3.413
 4925TIP3   OH214780   4.453   1.636   3.349
 4925TIP3    H114781   4.467   1.570   3.280
 4925TIP3    H214782   4.497   1.600   3.426
 4926TIP3   OH214783   2.915   1.221   2.791
 4926TIP3    H114784   2.931   1.198   2.882
 4926TIP3    H214785   2.973   1.295   2.773
 4927TIP3   OH214786   6.159   2.540   3.350
 4927TIP3    H114787   6.097   2.499   3.411
 4927TIP3    H214788   6.114   2.539   3.266
 4928TIP3   OH214789   4.112   4.489   0.789
 4928TIP3    H114790   4.145   4.572   0.823
 4928TIP3    H214791   4.167   4.470   0.713
 4929TIP3   OH214792   4.729   0.362   1.746
 4929TIP3    H114793   4.812   0.403   1.724
 4929TIP3    H214794   4.746   0.268   1.741
 4930TIP3   OH214795   4.459   0.625   3.601
 4930TIP3    H114796   4.521   0.555   3.618
 4930TIP3    H214797   4.502   0.681   3.536
 4931TIP3   OH214798   0.634   1.120   4.720
 4931TIP3    H114799   0.626   1.090   4.810
 4931TIP3    H214800   0.718   1.084   4.690
 4932TIP3   OH214801   6.218   1.624   1.509
 4932TIP3    H114802   6.235   1.718   1.502
 4932TIP3    H214803   6.157   1.616   1.582
 4933TIP3   OH214804   2.142   2.556   1.019
 4933TIP3    H114805   2.111   2.469   1.045
 4933TIP3    H214806   2.121   2.612   1.094
 4934TIP3   OH214807   4.194   4.908   1.029
 4934TIP3    H114808   4.234   4.964   0.963
 4934TIP3    H214809   4.147   4.968   1.087
 4935TIP3   OH214810   4.063   2.722   1.646
 4935TIP3    H114811   4.080   2.658   1.715
 4935TIP3    H214812   4.020   2.672   1.577
 4936TIP3   OH214813   6.037   1.533   3.550
 4936TIP3    H114814   6.081   1.617   3.536
 4936TIP3    H214815   5.962   1.553   3.606
 4937TIP3   OH214816   2.709   5.009   3.953
 4937TIP3    H114817   2.641   4.979   3.893
 4937TIP3    H214818   2.745   4.929   3.991
 4938TIP3   OH214819   1.449   4.632   0.113
 4938TIP3    H114820   1.369   4.680   0.091
 4938TIP3    H214821   1.423   4.540   0.110
 4939TIP3   OH214822   1.879   0.731   5.174
 4939TIP3    H114823   1.908   0.821   5.191
 4939TIP3    H214824   1.810   0.741   5.109
 4940TIP3   OH214825   4.048   2.618   1.954
 4940TIP3    H114826   3.953   2.630   1.945
 4940TIP3    H214827   4.062   2.525   1.935
 4941TIP3   OH214828   3.700   0.342   3.830
 4941TIP3    H114829   3.675   0.275   3.894
 4941TIP3    H214830   3.643   0.416   3.849
 4942TIP3   OH214831   1.735   1.599   2.476
 4942TIP3    H114832   1.752   1.516   2.431
 4942TIP3    H214833   1.717   1.573   2.567
 4943TIP3   OH214834   1.680   0.476   4.696
 4943TIP3    H114835   1.774   0.473   4.682
 4943TIP3    H214836   1.669   0.510   4.784
 4944TIP3   OH214837   0.690   0.727   4.930
 4944TIP3    H114838   0.742   0.759   5.004
 4944TIP3    H214839   0.752   0.722   4.857
 4945TIP3   OH214840   2.241   4.194   4.273
 4945TIP3    H114841   2.151   4.228   4.277
 4945TIP3    H214842   2.289   4.262   4.227
 4946TIP3   OH214843   5.486   2.673   4.051
 4946TIP3    H114844   5.490   2.582   4.082
 4946TIP3    H214845   5.481   2.725   4.131
 4947TIP3   OH214846   0.733   5.458   1.778
 4947TIP3    H114847   0.680   5.393   1.732
 4947TIP3    H214848   0.822   5.443   1.747
 4948TIP3   OH214849   2.940   3.262   2.252
 4948TIP3    H114850   2.870   3.237   2.312
 4948TIP3    H214851   2.986   3.333   2.297
 4949TIP3   OH214852   2.671   2.502   1.089
 4949TIP3    H114853   2.677   2.583   1.139
 4949TIP3    H214854   2.610   2.448   1.139
 4950TIP3   OH214855   3.334   1.777   0.741
 4950TIP3    H114856   3.399   1.845   0.758
 4950TIP3    H214857   3.279   1.813   0.671
 4951TIP3   OH214858   2.027   2.210   2.415
 4951TIP3    H114859   2.082   2.218   2.493
 4951TIP3    H214860   2.079   2.159   2.353
 4952TIP3   OH214861   0.993   5.290   3.369
 4952TIP3    H114862   0.948   5.289   3.284
 4952TIP3    H214863   0.924   5.269   3.432
 4953TIP3   OH214864   5.740   0.447   4.041
 4953TIP3    H114865   5.730   0.442   3.946
 4953TIP3    H214866   5.800   0.520   4.055
 4954TIP3   OH214867   0.219   0.357   3.176
 4954TIP3    H114868   0.156   0.301   3.221
 4954TIP3    H214869   0.281   0.382   3.245
 4955TIP3   OH214870   3.913   2.938   0.717
 4955TIP3    H114871   3.999   2.952   0.757
 4955TIP3    H214872   3.866   2.884   0.780
 4956TIP3   OH214873   1.111   0.696   2.811
 4956TIP3    H114874   1.135   0.788   2.817
 4956TIP3    H214875   1.188   0.648   2.841
 4957TIP3   OH214876   3.249   2.696   1.168
 4957TIP3    H114877   3.258   2.726   1.258
 4957TIP3    H214878   3.266   2.602   1.172
 4958TIP3   OH214879   4.233   2.592   2.820
 4958TIP3    H114880   4.161   2.554   2.768
 4958TIP3    H214881   4.237   2.538   2.898
 4959TIP3   OH214882   3.404   1.129   4.264
 4959TIP3    H114883   3.442   1.216   4.279
 4959TIP3    H214884   3.447   1.073   4.327
 4960TIP3   OH214885   2.175   0.067   4.045
 4960TIP3    H114886   2.198   0.055   4.137
 4960TIP3    H214887   2.092   0.020   4.035
 4961TIP3   OH214888   1.034   0.440   4.444
 4961TIP3    H114889   1.104   0.496   4.476
 4961TIP3    H214890   1.032   0.457   4.349
 4962TIP3   OH214891   1.586   3.249   1.297
 4962TIP3    H114892   1.528   3.201   1.357
 4962TIP3    H214893   1.553   3.338   1.298
 4963TIP3   OH214894   2.892   0.592   1.085
 4963TIP3    H114895   2.811   0.571   1.130
 4963TIP3    H214896   2.889   0.687   1.071
 4964TIP3   OH214897   5.059   5.410   2.846
 4964TIP3    H114898   5.038   5.331   2.796
 4964TIP3    H214899   5.126   5.381   2.908
 4965TIP3   OH214900   0.765   4.191   1.955
 4965TIP3    H114901   0.769   4.158   1.865
 4965TIP3    H214902   0.710   4.127   2.001
 4966TIP3   OH214903   0.972   1.094   2.628
 4966TIP3    H114904   0.983   1.017   2.683
 4966TIP3    H214905   1.052   1.144   2.641
 4967TIP3   OH214906   5.646   3.491   4.809
 4967TIP3    H114907   5.705   3.498   4.734
 4967TIP3    H214908   5.578   3.430   4.780
 4968TIP3   OH214909   2.629   0.029   4.564
 4968TIP3    H114910   2.611  -0.033   4.634
 4968TIP3    H214911   2.572   0.104   4.582
 4969TIP3   OH214912   1.913   0.643   0.687
 4969TIP3    H114913   1.886   0.560   0.648
 4969TIP3    H214914   1.988   0.620   0.742
 4970TIP3   OH214915   1.851   3.832   4.792
 4970TIP3    H114916   1.861   3.758   4.732
 4970TIP3    H214917   1.918   3.818   4.860
 4971TIP3   OH214918   4.214   4.208   3.331
 4971TIP3    H114919   4.258   4.144   3.275
 4971TIP3    H214920   4.147   4.158   3.377
 4972TIP3   OH214921   4.668   5.016   3.362
 4972TIP3    H114922   4.671   5.027   3.267
 4972TIP3    H214923   4.758   4.999   3.388
 4973TIP3   OH214924   2.701   0.024   3.320
 4973TIP3    H114925   2.736  -0.015   3.240
 4973TIP3    H214926   2.770   0.084   3.349
 4974TIP3   OH214927   3.253   2.716   1.448
 4974TIP3    H114928   3.289   2.631   1.471
 4974TIP3    H214929   3.307   2.779   1.496
 4975TIP3   OH214930   0.007   2.136   4.829
 4975TIP3    H114931  -0.004   2.058   4.883
 4975TIP3    H214932  -0.063   2.131   4.765
 4976TIP3   OH214933   5.362   1.327   3.304
 4976TIP3    H114934   5.326   1.411   3.278
 4976TIP3    H214935   5.410   1.345   3.384
 4977TIP3   OH214936   1.447   5.222   3.053
 4977TIP3    H114937   1.488   5.184   2.975
 4977TIP3    H214938   1.420   5.310   3.026
 4978TIP3   OH214939   1.652   1.850   0.705
 4978TIP3    H114940   1.702   1.930   0.720
 4978TIP3    H214941   1.637   1.849   0.610
 4979TIP3   OH214942   0.063   2.822   1.269
 4979TIP3    H114943   0.082   2.755   1.203
 4979TIP3    H214944   0.141   2.824   1.324
 4980TIP3   OH214945   2.013   3.968   3.382
 4980TIP3    H114946   2.079   3.899   3.389
 4980TIP3    H214947   1.930   3.922   3.381
 4981TIP3   OH214948   1.038   5.230   3.915
 4981TIP3    H114949   0.980   5.153   3.920
 4981TIP3    H214950   1.001   5.283   3.844
 4982TIP3   OH214951   2.777   3.019   4.957
 4982TIP3    H114952   2.716   3.050   4.890
 4982TIP3    H214953   2.736   2.941   4.993
 4983TIP3   OH214954   0.059   1.570   1.959
 4983TIP3    H114955   0.057   1.542   1.867
 4983TIP3    H214956   0.066   1.665   1.955
 4984TIP3   OH214957   4.629   2.879   3.910
 4984TIP3    H114958   4.644   2.789   3.940
 4984TIP3    H214959   4.716   2.911   3.886
 4985TIP3   OH214960   2.221   5.151   1.062
 4985TIP3    H114961   2.169   5.203   1.000
 4985TIP3    H214962   2.158   5.088   1.098
 4986TIP3   OH214963   4.076   5.095   1.451
 4986TIP3    H114964   4.091   5.135   1.365
 4986TIP3    H214965   3.998   5.139   1.485
 4987TIP3   OH214966   1.863   4.851   2.385
 4987TIP3    H114967   1.808   4.911   2.436
 4987TIP3    H214968   1.946   4.848   2.432
 4988TIP3   OH214969   5.445   3.625   1.544
 4988TIP3    H114970   5.463   3.561   1.612
 4988TIP3    H214971   5.406   3.699   1.590
 4989TIP3   OH214972   2.949  -0.004   2.404
 4989TIP3    H114973   3.021   0.001   2.341
 4989TIP3    H214974   2.941   0.084   2.439
 4990TIP3   OH214975   3.933   5.853   2.596
 4990TIP3    H114976   4.003   5.907   2.634
 4990TIP3    H214977   3.972   5.766   2.586
 4991TIP3   OH214978   2.289   2.460   1.625
 4991TIP3    H114979   2.209   2.410   1.606
 4991TIP3    H214980   2.258   2.539   1.669
 4992TIP3   OH214981   2.334   4.235   1.448
 4992TIP3    H114982   2.374   4.197   1.526
 4992TIP3    H214983   2.303   4.160   1.397
 4993TIP3   OH214984   3.409   5.472   0.299
 4993TIP3    H114985   3.383   5.562   0.280
 4993TIP3    H214986   3.453   5.442   0.220
 4994TIP3   OH214987   3.991   3.468   1.582
 4994TIP3    H114988   3.990   3.438   1.672
 4994TIP3    H214989   4.083   3.476   1.560
 4995TIP3   OH214990   3.344   5.751   4.368
 4995TIP3    H114991   3.406   5.722   4.301
 4995TIP3    H214992   3.385   5.724   4.451
 4996TIP3   OH214993   3.156   5.740   2.165
 4996TIP3    H114994   3.163   5.760   2.259
 4996TIP3    H214995   3.124   5.650   2.162
 4997TIP3   OH214996   0.521   4.947   0.529
 4997TIP3    H114997   0.554   4.960   0.440
 4997TIP3    H214998   0.457   4.875   0.521
 4998TIP3   OH214999   4.998   3.772   1.636
 4998TIP3    H115000   4.927   3.720   1.599
 4998TIP3    H215001   5.039   3.715   1.701
 4999TIP3   OH215002   2.194   5.862   3.782
 4999TIP3    H115003   2.138   5.902   3.849
 4999TIP3    H215004   2.190   5.922   3.708
 5000TIP3   OH215005   1.606   3.105   3.493
 5000TIP3    H115006   1.639   3.020   3.523
 5000TIP3    H215007   1.645   3.168   3.554
 5001TIP3   OH215008   4.236   2.310   5.034
 5001TIP3    H115009   4.177   2.271   4.970
 5001TIP3    H215010   4.317   2.259   5.027
 5002TIP3   OH215011   0.911   4.493   5.142
 5002TIP3    H115012   0.831   4.517   5.189
 5002TIP3    H215013   0.925   4.565   5.080
 5003TIP3   OH215014   5.713   5.328   3.339
 5003TIP3    H115015   5.809   5.334   3.333
 5003TIP3    H215016   5.687   5.280   3.261
 5004TIP3   OH215017   5.741   3.697   0.505
 5004TIP3    H115018   5.743   3.740   0.590
 5004TIP3    H215019   5.652   3.713   0.472
 5005TIP3   OH215020   3.609   4.891   4.750
 5005TIP3    H115021   3.521   4.913   4.779
 5005TIP3    H215022   3.619   4.798   4.771
 5006TIP3   OH215023   0.736   2.682   0.759
 5006TIP3    H115024   0.776   2.707   0.842
 5006TIP3    H215025   0.682   2.757   0.734
 5007TIP3   OH215026   0.502   3.125   1.955
 5007TIP3    H115027   0.548   3.060   2.007
 5007TIP3    H215028   0.411   3.120   1.984
 5008TIP3   OH215029   4.648   4.480   1.670
 5008TIP3    H115030   4.732   4.503   1.708
 5008TIP3    H215031   4.606   4.564   1.651
 5009TIP3   OH215032   1.425   0.224   3.095
 5009TIP3    H115033   1.399   0.308   3.133
 5009TIP3    H215034   1.363   0.210   3.023
 5010TIP3   OH215035   0.102   4.737   0.084
 5010TIP3    H115036   0.024   4.681   0.084
 5010TIP3    H215037   0.164   4.690   0.029
 5011TIP3   OH215038   0.479   2.597   0.574
 5011TIP3    H115039   0.489   2.567   0.665
 5011TIP3    H215040   0.387   2.583   0.554
 5012TIP3   OH215041   4.165   2.406   4.720
 5012TIP3    H115042   4.168   2.311   4.730
 5012TIP3    H215043   4.104   2.421   4.648
 5013TIP3   OH215044   0.194   5.697   3.494
 5013TIP3    H115045   0.157   5.784   3.504
 5013TIP3    H215046   0.286   5.708   3.518
 5014TIP3   OH215047   1.122   3.959   1.800
 5014TIP3    H115048   1.128   4.021   1.872
 5014TIP3    H215049   1.133   3.873   1.841
 5015TIP3   OH215050   1.813   4.754   4.008
 5015TIP3    H115051   1.803   4.842   3.971
 5015TIP3    H215052   1.747   4.702   3.964
 5016TIP3   OH215053   1.864   4.408   3.653
 5016TIP3    H115054   1.817   4.330   3.681
 5016TIP3    H215055   1.950   4.375   3.624
 5017TIP3   OH215056   4.537   5.630   0.505
 5017TIP3    H115057   4.488   5.582   0.572
 5017TIP3    H215058   4.470   5.679   0.457
 5018TIP3   OH215059   0.684   5.203   4.841
 5018TIP3    H115060   0.744   5.210   4.916
 5018TIP3    H215061   0.597   5.211   4.880
 5019TIP3   OH215062   5.308   5.358   4.724
 5019TIP3    H115063   5.350   5.397   4.801
 5019TIP3    H215064   5.321   5.423   4.655
 5020TIP3   OH215065   1.250   0.754   1.049
 5020TIP3    H115066   1.265   0.848   1.041
 5020TIP3    H215067   1.173   0.747   1.106
 5021TIP3   OH215068   0.105   1.176   4.660
 5021TIP3    H115069   0.046   1.233   4.710
 5021TIP3    H215070   0.156   1.237   4.606
 5022TIP3   OH215071   4.547   0.518   3.339
 5022TIP3    H115072   4.498   0.470   3.272
 5022TIP3    H215073   4.494   0.510   3.419
 5023TIP3   OH215074   2.604   2.210   1.648
 5023TIP3    H115075   2.570   2.285   1.598
 5023TIP3    H215076   2.608   2.241   1.739
 5024TIP3   OH215077   4.369   4.995   2.160
 5024TIP3    H115078   4.299   4.936   2.134
 5024TIP3    H215079   4.357   5.005   2.255
 5025TIP3   OH215080   4.386   5.505   1.161
 5025TIP3    H115081   4.436   5.522   1.081
 5025TIP3    H215082   4.450   5.469   1.222
 5026TIP3   OH215083   5.809   5.967   4.459
 5026TIP3    H115084   5.862   6.032   4.413
 5026TIP3    H215085   5.729   6.013   4.484
 5027TIP3   OH215086   1.543   4.933   1.760
 5027TIP3    H115087   1.460   4.969   1.790
 5027TIP3    H215088   1.566   4.867   1.825
 5028TIP3   OH215089   5.330   3.794   3.704
 5028TIP3    H115090   5.400   3.732   3.723
 5028TIP3    H215091   5.346   3.868   3.763
 5029TIP3   OH215092   3.010   1.982   2.772
 5029TIP3    H115093   3.010   1.941   2.685
 5029TIP3    H215094   3.040   2.072   2.756
 5030TIP3   OH215095   0.826   4.531   3.871
 5030TIP3    H115096   0.880   4.456   3.845
 5030TIP3    H215097   0.746   4.521   3.820
 5031TIP3   OH215098   5.399   2.300   1.994
 5031TIP3    H115099   5.435   2.351   1.922
 5031TIP3    H215100   5.472   2.245   2.024
 5032TIP3   OH215101   1.851   0.394   2.062
 5032TIP3    H115102   1.811   0.450   1.996
 5032TIP3    H215103   1.941   0.425   2.070
 5033TIP3   OH215104   1.181   4.792   1.955
 5033TIP3    H115105   1.104   4.780   2.010
 5033TIP3    H215106   1.162   4.741   1.876
 5034TIP3   OH215107   3.853   1.845   5.028
 5034TIP3    H115108   3.842   1.812   4.939
 5034TIP3    H215109   3.859   1.940   5.017
 5035TIP3   OH215110   2.625   1.030   0.029
 5035TIP3    H115111   2.658   0.981   0.104
 5035TIP3    H215112   2.588   1.110   0.066
 5036TIP3   OH215113   1.012   1.966   4.596
 5036TIP3    H115114   0.964   1.989   4.517
 5036TIP3    H215115   1.002   2.043   4.653
 5037TIP3   OH215116   0.534   1.751   1.129
 5037TIP3    H115117   0.520   1.791   1.043
 5037TIP3    H215118   0.545   1.826   1.188
 5038TIP3   OH215119   2.339   0.403   0.348
 5038TIP3    H115120   2.306   0.402   0.258
 5038TIP3    H215121   2.433   0.383   0.340
 5039TIP3   OH215122   5.954   1.514   1.983
 5039TIP3    H115123   6.040   1.544   2.011
 5039TIP3    H215124   5.915   1.590   1.939
 5040TIP3   OH215125   6.088   2.645   0.139
 5040TIP3    H115126   6.083   2.672   0.231
 5040TIP3    H215127   6.063   2.553   0.140
 5041TIP3   OH215128   3.641   3.322   0.417
 5041TIP3    H115129   3.582   3.252   0.444
 5041TIP3    H215130   3.715   3.277   0.377
 5042TIP3   OH215131   4.108   4.446   5.075
 5042TIP3    H115132   4.090   4.352   5.076
 5042TIP3    H215133   4.033   4.485   5.121
 5043TIP3   OH215134   2.068   0.584   0.385
 5043TIP3    H115135   1.991   0.590   0.328
 5043TIP3    H215136   2.130   0.532   0.335
 5044TIP3   OH215137   2.238   2.686   0.284
 5044TIP3    H115138   2.310   2.630   0.312
 5044TIP3    H215139   2.260   2.709   0.193
 5045TIP3   OH215140   0.298   5.132   0.250
 5045TIP3    H115141   0.383   5.144   0.206
 5045TIP3    H215142   0.235   5.173   0.191
 5046TIP3   OH215143   1.544   2.101   4.667
 5046TIP3    H115144   1.516   2.040   4.735
 5046TIP3    H215145   1.596   2.047   4.607
 5047TIP3   OH215146   0.653   3.988   2.100
 5047TIP3    H115147   0.717   3.930   2.141
 5047TIP3    H215148   0.593   4.011   2.171
 5048TIP3   OH215149   1.607   0.075   3.382
 5048TIP3    H115150   1.578   0.001   3.436
 5048TIP3    H215151   1.526   0.123   3.362
 5049TIP3   OH215152   5.411   1.993   1.481
 5049TIP3    H115153   5.348   2.062   1.461
 5049TIP3    H215154   5.493   2.023   1.441
 5050TIP3   OH215155   5.991   0.865   2.018
 5050TIP3    H115156   5.916   0.908   2.060
 5050TIP3    H215157   6.057   0.934   2.011
 5051TIP3   OH215158   3.573   4.898   4.469
 5051TIP3    H115159   3.589   4.933   4.557
 5051TIP3    H215160   3.478   4.885   4.466
 5052TIP3   OH215161   1.164   4.789   4.349
 5052TIP3    H115162   1.211   4.725   4.296
 5052TIP3    H215163   1.106   4.834   4.287
 5053TIP3   OH215164   5.956   3.553   0.620
 5053TIP3    H115165   6.017   3.612   0.576
 5053TIP3    H215166   5.873   3.565   0.574
 5054TIP3   OH215167   2.898   3.361   0.353
 5054TIP3    H115168   2.891   3.329   0.443
 5054TIP3    H215169   2.814   3.338   0.313
 5055TIP3   OH215170   3.030   5.786   0.803
 5055TIP3    H115171   3.013   5.854   0.738
 5055TIP3    H215172   3.078   5.830   0.873
 5056TIP3   OH215173   0.989   1.169   0.596
 5056TIP3    H115174   1.057   1.220   0.552
 5056TIP3    H215175   0.932   1.139   0.525
 5057TIP3   OH215176   2.878   1.606   0.963
 5057TIP3    H115177   2.814   1.676   0.950
 5057TIP3    H215178   2.828   1.526   0.946
 5058TIP3   OH215179   1.602   5.970   5.033
 5058TIP3    H115180   1.535   5.975   5.101
 5058TIP3    H215181   1.675   5.925   5.075
 5059TIP3   OH215182   2.024   1.231   2.862
 5059TIP3    H115183   2.081   1.181   2.920
 5059TIP3    H215184   2.021   1.319   2.902
 5060TIP3   OH215185   1.529   0.726   4.880
 5060TIP3    H115186   1.623   0.740   4.891
 5060TIP3    H215187   1.500   0.694   4.966
 5061TIP3   OH215188   6.273   4.630   1.393
 5061TIP3    H115189   6.182   4.602   1.408
 5061TIP3    H215190   6.277   4.646   1.299
 5062TIP3   OH215191   4.961   4.420   4.409
 5062TIP3    H115192   5.042   4.417   4.460
 5062TIP3    H215193   4.991   4.427   4.318
 5063TIP3   OH215194   4.051   3.928   4.210
 5063TIP3    H115195   4.054   3.997   4.144
 5063TIP3    H215196   4.068   3.848   4.161
 5064TIP3   OH215197   5.509   2.156   3.602
 5064TIP3    H115198   5.511   2.242   3.644
 5064TIP3    H215199   5.572   2.104   3.652
 5065TIP3   OH215200   3.197   4.185   0.059
 5065TIP3    H115201   3.183   4.247   0.131
 5065TIP3    H215202   3.212   4.101   0.102
 5066TIP3   OH215203   0.672   1.051   3.547
 5066TIP3    H115204   0.624   1.068   3.466
 5066TIP3    H215205   0.754   1.011   3.519
 5067TIP3   OH215206   4.273   0.002   0.556
 5067TIP3    H115207   4.323   0.056   0.617
 5067TIP3    H215208   4.236   0.063   0.493
 5068TIP3   OH215209   2.796   4.964   2.795
 5068TIP3    H115210   2.790   5.004   2.882
 5068TIP3    H215211   2.803   5.038   2.735
 5069TIP3   OH215212   5.993   5.967   2.270
 5069TIP3    H115213   6.026   5.957   2.359
 5069TIP3    H215214   5.925   5.900   2.262
 5070TIP3   OH215215   2.747   1.095   3.524
 5070TIP3    H115216   2.702   1.156   3.466
 5070TIP3    H215217   2.790   1.033   3.465
 5071TIP3   OH215218   2.595   5.029   4.346
 5071TIP3    H115219   2.552   5.051   4.428
 5071TIP3    H215220   2.684   5.064   4.355
 5072TIP3   OH215221   2.945   0.898   2.347
 5072TIP3    H115222   2.955   0.941   2.262
 5072TIP3    H215223   2.878   0.832   2.332
 5073TIP3   OH215224   1.578   4.938   3.357
 5073TIP3    H115225   1.617   4.860   3.317
 5073TIP3    H215226   1.484   4.929   3.340
 5074TIP3   OH215227   5.962   0.911   1.086
 5074TIP3    H115228   5.999   0.933   1.171
 5074TIP3    H215229   5.974   0.816   1.079
 5075TIP3   OH215230   2.397   1.981   3.196
 5075TIP3    H115231   2.402   1.977   3.100
 5075TIP3    H215232   2.308   2.012   3.214
 5076TIP3   OH215233   3.768   1.117   3.387
 5076TIP3    H115234   3.707   1.168   3.334
 5076TIP3    H215235   3.843   1.175   3.402
 5077TIP3   OH215236   6.086   4.500   4.880
 5077TIP3    H115237   6.064   4.583   4.839
 5077TIP3    H215238   6.114   4.524   4.969
 5078TIP3   OH215239   6.211   0.377   1.114
 5078TIP3    H115240   6.121   0.362   1.087
 5078TIP3    H215241   6.220   0.328   1.196
 5079TIP3   OH215242   2.322   0.541   3.977
 5079TIP3    H115243   2.265   0.465   3.990
 5079TIP3    H215244   2.277   0.612   4.021
 5080TIP3   OH215245   4.116   4.466   1.567
 5080TIP3    H115246   4.061   4.517   1.508
 5080TIP3    H215247   4.102   4.375   1.540
 5081TIP3   OH215248   0.359   1.456   1.989
 5081TIP3    H115249   0.452   1.435   1.982
 5081TIP3    H215250   0.315   1.391   1.933
 5082TIP3   OH215251   2.062   1.897   2.249
 5082TIP3    H115252   2.097   1.814   2.218
 5082TIP3    H215253   1.989   1.916   2.190
 5083TIP3   OH215254   2.205   5.233   0.306
 5083TIP3    H115255   2.180   5.263   0.219
 5083TIP3    H215256   2.255   5.153   0.290
 5084TIP3   OH215257   0.787   2.676   2.327
 5084TIP3    H115258   0.818   2.697   2.415
 5084TIP3    H215259   0.804   2.583   2.316
 5085TIP3   OH215260   2.416   1.875   1.909
 5085TIP3    H115261   2.452   1.924   1.983
 5085TIP3    H215262   2.340   1.926   1.882
 5086TIP3   OH215263   3.204   5.822   2.428
 5086TIP3    H115264   3.291   5.860   2.428
 5086TIP3    H215265   3.147   5.892   2.460
 5087TIP3   OH215266   0.183   5.977   1.416
 5087TIP3    H115267   0.231   5.949   1.494
 5087TIP3    H215268   0.165   6.070   1.432
 5088TIP3   OH215269   2.181   0.225   3.422
 5088TIP3    H115270   2.135   0.148   3.389
 5088TIP3    H215271   2.230   0.193   3.497
 5089TIP3   OH215272   3.716   4.250   2.091
 5089TIP3    H115273   3.680   4.320   2.035
 5089TIP3    H215274   3.810   4.254   2.075
 5090TIP3   OH215275   0.470   1.815   3.840
 5090TIP3    H115276   0.399   1.846   3.783
 5090TIP3    H215277   0.425   1.786   3.919
 5091TIP3   OH215278   5.515   4.949   1.477
 5091TIP3    H115279   5.543   4.929   1.387
 5091TIP3    H215280   5.473   5.034   1.470
 5092TIP3   OH215281   5.262   4.982   3.034
 5092TIP3    H115282   5.252   5.006   3.126
 5092TIP3    H215283   5.307   4.898   3.036
 5093TIP3   OH215284   0.790   1.939   1.272
 5093TIP3    H115285   0.802   1.953   1.178
 5093TIP3    H215286   0.850   1.868   1.293
 5094TIP3   OH215287   2.853   5.931   2.778
 5094TIP3    H115288   2.824   6.020   2.760
 5094TIP3    H215289   2.781   5.892   2.828
 5095TIP3   OH215290   0.124   2.521   1.474
 5095TIP3    H115291   0.031   2.540   1.464
 5095TIP3    H215292   0.165   2.608   1.484
 5096TIP3   OH215293   4.478   3.991   0.991
 5096TIP3    H115294   4.413   4.032   1.047
 5096TIP3    H215295   4.470   3.897   1.009
 5097TIP3   OH215296   0.139   3.886   2.234
 5097TIP3    H115297   0.097   3.863   2.317
 5097TIP3    H215298   0.082   3.953   2.195
 5098TIP3   OH215299   4.141   3.959   1.696
 5098TIP3    H115300   4.210   3.897   1.674
 5098TIP3    H215301   4.150   3.972   1.790
 5099TIP3   OH215302   5.681   0.056   0.220
 5099TIP3    H115303   5.633   0.133   0.252
 5099TIP3    H215304   5.619  -0.016   0.232
 5100TIP3   OH215305   3.696   1.360   3.941
 5100TIP3    H115306   3.669   1.445   3.907
 5100TIP3    H215307   3.621   1.303   3.926
 5101TIP3   OH215308   3.759   2.823   3.994
 5101TIP3    H115309   3.750   2.729   4.009
 5101TIP3    H215310   3.854   2.839   3.993
 5102TIP3   OH215311   5.672   0.140   3.065
 5102TIP3    H115312   5.685   0.227   3.028
 5102TIP3    H215313   5.717   0.081   3.005
 5103TIP3   OH215314   2.602   5.184   1.832
 5103TIP3    H115315   2.537   5.142   1.775
 5103TIP3    H215316   2.647   5.246   1.776
 5104TIP3   OH215317   1.733   0.774   0.081
 5104TIP3    H115318   1.694   0.746  -0.002
 5104TIP3    H215319   1.812   0.822   0.056
 5105TIP3   OH215320   3.512   4.548   4.201
 5105TIP3    H115321   3.454   4.623   4.190
 5105TIP3    H215322   3.464   4.487   4.258
 5106TIP3   OH215323   5.134   1.631   1.655
 5106TIP3    H115324   5.176   1.704   1.701
 5106TIP3    H215325   5.206   1.585   1.612
 5107TIP3   OH215326   0.691   4.930   4.326
 5107TIP3    H115327   0.675   4.908   4.418
 5107TIP3    H215328   0.610   4.971   4.296
 5108TIP3   OH215329   3.721   2.012   4.342
 5108TIP3    H115330   3.674   2.079   4.291
 5108TIP3    H215331   3.762   2.060   4.413
 5109TIP3   OH215332   5.549   3.478   2.780
 5109TIP3    H115333   5.503   3.447   2.702
 5109TIP3    H215334   5.486   3.536   2.823
 5110TIP3   OH215335   2.549   0.165   1.656
 5110TIP3    H115336   2.483   0.100   1.681
 5110TIP3    H215337   2.567   0.146   1.564
 5111TIP3   OH215338   1.901   1.592   3.534
 5111TIP3    H115339   1.823   1.545   3.506
 5111TIP3    H215340   1.869   1.665   3.587
 5112TIP3   OH215341   2.492   1.255   0.595
 5112TIP3    H115342   2.479   1.261   0.690
 5112TIP3    H215343   2.584   1.280   0.583
 5113TIP3   OH215344   2.304   1.704   1.064
 5113TIP3    H115345   2.227   1.761   1.078
 5113TIP3    H215346   2.267   1.620   1.037
 5114TIP3   OH215347   4.395   3.034   4.951
 5114TIP3    H115348   4.421   3.030   4.859
 5114TIP3    H215349   4.310   2.991   4.954
 5115TIP3   OH215350   1.126   5.550   0.613
 5115TIP3    H115351   1.135   5.541   0.518
 5115TIP3    H215352   1.062   5.620   0.625
 5116TIP3   OH215353   4.090   4.972   4.653
 5116TIP3    H115354   4.059   4.892   4.695
 5116TIP3    H215355   4.014   5.005   4.605
 5117TIP3   OH215356   2.398   0.910   4.462
 5117TIP3    H115357   2.435   0.960   4.534
 5117TIP3    H215358   2.474   0.868   4.421
 5118TIP3   OH215359   0.237   5.336   3.603
 5118TIP3    H115360   0.217   5.290   3.522
 5118TIP3    H215361   0.185   5.416   3.599
 5119TIP3   OH215362   0.242   1.128   0.405
 5119TIP3    H115363   0.294   1.049   0.414
 5119TIP3    H215364   0.214   1.149   0.494
 5120TIP3   OH215365   0.913   1.358   5.058
 5120TIP3    H115366   1.000   1.397   5.054
 5120TIP3    H215367   0.928   1.270   5.092
 5121TIP3   OH215368   3.208   1.323   5.031
 5121TIP3    H115369   3.262   1.398   5.005
 5121TIP3    H215370   3.254   1.286   5.106
 5122TIP3   OH215371   2.235   0.770   4.090
 5122TIP3    H115372   2.157   0.814   4.125
 5122TIP3    H215373   2.306   0.833   4.102
 5123TIP3   OH215374   5.724   5.925   3.739
 5123TIP3    H115375   5.743   5.838   3.775
 5123TIP3    H215376   5.634   5.942   3.766
 5124TIP3   OH215377   3.488   1.170   3.992
 5124TIP3    H115378   3.457   1.136   4.076
 5124TIP3    H215379   3.408   1.198   3.947
 5125TIP3   OH215380   2.082   0.938   0.257
 5125TIP3    H115381   2.147   0.875   0.289
 5125TIP3    H215382   2.026   0.954   0.333
 5126TIP3   OH215383   4.439   1.016   4.226
 5126TIP3    H115384   4.530   0.996   4.247
 5126TIP3    H215385   4.417   1.089   4.284
 5127TIP3   OH215386   1.979   4.112   0.657
 5127TIP3    H115387   2.072   4.094   0.641
 5127TIP3    H215388   1.933   4.036   0.623
 5128TIP3   OH215389   2.004   4.902   4.531
 5128TIP3    H115390   1.966   4.816   4.548
 5128TIP3    H215391   1.974   4.925   4.443
 5129TIP3   OH215392   1.108   0.635   0.840
 5129TIP3    H115393   1.130   0.650   0.932
 5129TIP3    H215394   1.175   0.682   0.791
 5130TIP3   OH215395   6.310   3.058   2.368
 5130TIP3    H115396   6.228   3.012   2.384
 5130TIP3    H215397   6.330   3.040   2.276
 5131TIP3   OH215398   0.233   5.951   1.759
 5131TIP3    H115399   0.284   5.939   1.838
 5131TIP3    H215400   0.142   5.946   1.788
 5132TIP3   OH215401   3.562   4.247   4.279
 5132TIP3    H115402   3.472   4.275   4.260
 5132TIP3    H215403   3.616   4.296   4.217
 5133TIP3   OH215404   1.023   4.166   4.523
 5133TIP3    H115405   0.978   4.140   4.443
 5133TIP3    H215406   1.067   4.086   4.553
 5134TIP3   OH215407   0.595   5.055   2.678
 5134TIP3    H115408   0.600   5.068   2.583
 5134TIP3    H215409   0.603   4.960   2.689
 5135TIP3   OH215410   4.259   4.532   0.125
 5135TIP3    H115411   4.261   4.520   0.030
 5135TIP3    H215412   4.235   4.623   0.137
 5136TIP3   OH215413   2.861   5.784   3.965
 5136TIP3    H115414   2.902   5.752   3.884
 5136TIP3    H215415   2.933   5.790   4.027
 5137TIP3   OH215416   3.395   5.575   1.100
 5137TIP3    H115417   3.408   5.560   1.007
 5137TIP3    H215418   3.332   5.646   1.105
 5138TIP3   OH215419   3.694   4.910   5.041
 5138TIP3    H115420   3.735   4.830   5.074
 5138TIP3    H215421   3.614   4.880   4.998
 5139TIP3   OH215422   0.911   1.981   4.331
 5139TIP3    H115423   0.871   1.971   4.245
 5139TIP3    H215424   0.989   1.925   4.328
 5140TIP3   OH215425   1.748   2.446   0.064
 5140TIP3    H115426   1.742   2.352   0.045
 5140TIP3    H215427   1.735   2.453   0.158
 5141TIP3   OH215428   5.420   0.311   4.061
 5141TIP3    H115429   5.372   0.377   4.110
 5141TIP3    H215430   5.446   0.354   3.980
 5142TIP3   OH215431   3.946   1.720   1.711
 5142TIP3    H115432   3.899   1.799   1.686
 5142TIP3    H215433   3.896   1.684   1.784
 5143TIP3   OH215434   2.194   5.596   3.757
 5143TIP3    H115435   2.217   5.567   3.845
 5143TIP3    H215436   2.201   5.691   3.760
 5144TIP3   OH215437   1.113   1.050   1.818
 5144TIP3    H115438   1.025   1.026   1.788
 5144TIP3    H215439   1.134   0.985   1.886
 5145TIP3   OH215440   6.118   1.489   0.870
 5145TIP3    H115441   6.127   1.400   0.838
 5145TIP3    H215442   6.182   1.540   0.819
 5146TIP3   OH215443   3.880   1.289   2.105
 5146TIP3    H115444   3.973   1.308   2.120
 5146TIP3    H215445   3.874   1.194   2.108
 5147TIP3   OH215446   3.259   0.397   4.496
 5147TIP3    H115447   3.343   0.426   4.531
 5147TIP3    H215448   3.282   0.325   4.437
 5148TIP3   OH215449   5.950   1.034   3.722
 5148TIP3    H115450   5.901   1.015   3.642
 5148TIP3    H215451   6.031   1.075   3.691
 5149TIP3   OH215452   0.304   4.207   2.976
 5149TIP3    H115453   0.228   4.186   2.922
 5149TIP3    H215454   0.274   4.276   3.034
 5150TIP3   OH215455   2.655   5.675   1.673
 5150TIP3    H115456   2.747   5.654   1.654
 5150TIP3    H215457   2.658   5.712   1.762
 5151TIP3   OH215458   4.351   4.035   3.182
 5151TIP3    H115459   4.371   3.942   3.184
 5151TIP3    H215460   4.389   4.066   3.100
 5152TIP3   OH215461   1.023   2.555   2.976
 5152TIP3    H115462   0.950   2.501   3.007
 5152TIP3    H215463   1.035   2.529   2.885
 5153TIP3   OH215464   2.496   2.460   3.773
 5153TIP3    H115465   2.587   2.453   3.800
 5153TIP3    H215466   2.498   2.518   3.696
 5154TIP3   OH215467   5.138   4.181   4.777
 5154TIP3    H115468   5.179   4.267   4.789
 5154TIP3    H215469   5.180   4.147   4.698
 5155TIP3   OH215470   4.126   1.424   2.259
 5155TIP3    H115471   4.146   1.425   2.165
 5155TIP3    H215472   4.179   1.495   2.295
 5156TIP3   OH215473   0.879   1.039   5.024
 5156TIP3    H115474   0.785   1.041   5.043
 5156TIP3    H215475   0.915   0.977   5.088
 5157TIP3   OH215476   5.699   4.305   4.117
 5157TIP3    H115477   5.737   4.241   4.178
 5157TIP3    H215478   5.611   4.271   4.101
 5158TIP3   OH215479   4.797   4.511   4.612
 5158TIP3    H115480   4.874   4.480   4.563
 5158TIP3    H215481   4.834   4.552   4.691
 5159TIP3   OH215482   1.060   2.941   2.364
 5159TIP3    H115483   0.996   3.002   2.328
 5159TIP3    H215484   1.124   2.997   2.407
 5160TIP3   OH215485   5.630   1.871   4.319
 5160TIP3    H115486   5.628   1.815   4.396
 5160TIP3    H215487   5.538   1.897   4.307
 5161TIP3   OH215488   0.423   5.151   1.031
 5161TIP3    H115489   0.369   5.090   1.081
 5161TIP3    H215490   0.411   5.124   0.940
 5162TIP3   OH215491   6.133   0.112   0.796
 5162TIP3    H115492   6.144   0.048   0.726
 5162TIP3    H215493   6.060   0.079   0.848
 5163TIP3   OH215494   5.395   2.257   0.381
 5163TIP3    H115495   5.394   2.189   0.314
 5163TIP3    H215496   5.303   2.275   0.399
 5164TIP3   OH215497   5.136   5.500   2.556
 5164TIP3    H115498   5.208   5.444   2.587
 5164TIP3    H215499   5.063   5.479   2.615
 5165TIP3   OH215500   4.129   4.200   1.469
 5165TIP3    H115501   4.134   4.166   1.379
 5165TIP3    H215502   4.141   4.124   1.525
 5166TIP3   OH215503   5.080   1.162   4.339
 5166TIP3    H115504   5.017   1.160   4.411
 5166TIP3    H215505   5.051   1.234   4.283
 5167TIP3   OH215506   3.352   5.178   3.791
 5167TIP3    H115507   3.430   5.123   3.802
 5167TIP3    H215508   3.384   5.268   3.797
 5168TIP3   OH215509   5.810   1.275   2.615
 5168TIP3    H115510   5.827   1.182   2.629
 5168TIP3    H215511   5.780   1.281   2.524
 5169TIP3   OH215512   5.824   3.207   1.276
 5169TIP3    H115513   5.886   3.279   1.263
 5169TIP3    H215514   5.876   3.128   1.267
 5170TIP3   OH215515   6.170   1.038   4.262
 5170TIP3    H115516   6.188   0.976   4.191
 5170TIP3    H215517   6.159   0.984   4.340
 5171TIP3   OH215518   3.393   1.370   2.983
 5171TIP3    H115519   3.373   1.278   2.966
 5171TIP3    H215520   3.349   1.418   2.913
 5172TIP3   OH215521   4.832   5.708   2.649
 5172TIP3    H115522   4.906   5.686   2.705
 5172TIP3    H215523   4.869   5.763   2.580
 5173TIP3   OH215524   2.267   3.828   4.777
 5173TIP3    H115525   2.292   3.887   4.849
 5173TIP3    H215526   2.263   3.885   4.700
 5174TIP3   OH215527   4.102   1.736   4.997
 5174TIP3    H115528   4.071   1.648   5.020
 5174TIP3    H215529   4.031   1.794   5.025
 5175TIP3   OH215530   2.749   2.746   4.624
 5175TIP3    H115531   2.785   2.659   4.605
 5175TIP3    H215532   2.825   2.800   4.646
 5176TIP3   OH215533   0.062   4.185   0.883
 5176TIP3    H115534   0.100   4.138   0.957
 5176TIP3    H215535   0.136   4.221   0.836
 5177TIP3   OH215536   3.886   0.636   4.358
 5177TIP3    H115537   3.915   0.574   4.425
 5177TIP3    H215538   3.879   0.584   4.278
 5178TIP3   OH215539   4.922   2.946   0.861
 5178TIP3    H115540   4.992   3.000   0.895
 5178TIP3    H215541   4.912   2.974   0.770
 5179TIP3   OH215542   5.860   4.965   3.347
 5179TIP3    H115543   5.899   4.879   3.359
 5179TIP3    H215544   5.892   4.995   3.262
 5180TIP3   OH215545   1.746   5.972   3.621
 5180TIP3    H115546   1.786   6.046   3.667
 5180TIP3    H215547   1.812   5.903   3.623
 5181TIP3   OH215548   2.093   5.070   3.942
 5181TIP3    H115549   2.111   5.062   3.849
 5181TIP3    H215550   2.176   5.049   3.985
 5182TIP3   OH215551   3.251   4.697   3.030
 5182TIP3    H115552   3.288   4.784   3.014
 5182TIP3    H215553   3.183   4.688   2.963
 5183TIP3   OH215554   5.816   5.140   2.850
 5183TIP3    H115555   5.768   5.058   2.838
 5183TIP3    H215556   5.908   5.115   2.851
 5184TIP3   OH215557   3.400   3.648   1.347
 5184TIP3    H115558   3.372   3.569   1.392
 5184TIP3    H215559   3.372   3.636   1.257
 5185TIP3   OH215560   1.805   0.913   3.867
 5185TIP3    H115561   1.797   0.819   3.850
 5185TIP3    H215562   1.779   0.954   3.784
 5186TIP3   OH215563   0.577   0.985   3.817
 5186TIP3    H115564   0.604   0.894   3.804
 5186TIP3    H215565   0.591   1.026   3.732
 5187TIP3   OH215566   4.780   4.893   1.883
 5187TIP3    H115567   4.788   4.981   1.920
 5187TIP3    H215568   4.686   4.877   1.878
 5188TIP3   OH215569   1.735   2.148   2.850
 5188TIP3    H115570   1.709   2.135   2.941
 5188TIP3    H215571   1.673   2.095   2.799
 5189TIP3   OH215572   4.872   4.071   4.148
 5189TIP3    H115573   4.894   4.061   4.055
 5189TIP3    H215574   4.797   4.132   4.148
 5190TIP3   OH215575   5.337   4.776   3.491
 5190TIP3    H115576   5.429   4.800   3.482
 5190TIP3    H215577   5.338   4.681   3.496
 5191TIP3   OH215578   2.616   4.358   3.008
 5191TIP3    H115579   2.625   4.365   3.103
 5191TIP3    H215580   2.583   4.269   2.993
 5192TIP3   OH215581   3.617   0.129   3.134
 5192TIP3    H115582   3.671   0.188   3.186
 5192TIP3    H215583   3.570   0.185   3.073
 5193TIP3   OH215584   5.500   3.632   2.508
 5193TIP3    H115585   5.535   3.721   2.516
 5193TIP3    H215586   5.576   3.579   2.484
 5194TIP3   OH215587   6.210   0.834   4.087
 5194TIP3    H115588   6.213   0.824   3.992
 5194TIP3    H215589   6.194   0.746   4.121
 5195TIP3   OH215590   1.548   4.589   1.807
 5195TIP3    H115591   1.581   4.622   1.723
 5195TIP3    H215592   1.453   4.593   1.798
 5196TIP3   OH215593   0.939   4.167   2.177
 5196TIP3    H115594   0.880   4.211   2.116
 5196TIP3    H215595   0.974   4.236   2.233
 5197TIP3   OH215596   0.764   5.644   2.479
 5197TIP3    H115597   0.750   5.720   2.536
 5197TIP3    H215598   0.676   5.614   2.457
 5198TIP3   OH215599   1.756   2.690   1.415
 5198TIP3    H115600   1.799   2.713   1.498
 5198TIP3    H215601   1.706   2.611   1.436
 5199TIP3   OH215602   0.830   1.221   0.192
 5199TIP3    H115603   0.736   1.205   0.204
 5199TIP3    H215604   0.844   1.214   0.098
 5200TIP3   OH215605   1.196   3.220   1.851
 5200TIP3    H115606   1.156   3.134   1.837
 5200TIP3    H215607   1.287   3.201   1.874
 5201TIP3   OH215608   3.294   1.638   2.676
 5201TIP3    H115609   3.310   1.547   2.651
 5201TIP3    H215610   3.377   1.682   2.660
 5202TIP3   OH215611   2.096   5.605   2.668
 5202TIP3    H115612   2.153   5.679   2.645
 5202TIP3    H215613   2.123   5.535   2.609
 5203TIP3   OH215614   5.913   1.186   2.351
 5203TIP3    H115615   5.862   1.187   2.270
 5203TIP3    H215616   5.979   1.254   2.339
 5204TIP3   OH215617   1.525   5.888   1.423
 5204TIP3    H115618   1.566   5.973   1.442
 5204TIP3    H215619   1.529   5.841   1.507
 5205TIP3   OH215620   4.283   5.445   4.666
 5205TIP3    H115621   4.248   5.447   4.755
 5205TIP3    H215622   4.314   5.355   4.655
 5206TIP3   OH215623   5.713   2.776   1.024
 5206TIP3    H115624   5.627   2.802   0.992
 5206TIP3    H215625   5.712   2.797   1.117
 5207TIP3   OH215626   1.169   0.310   1.735
 5207TIP3    H115627   1.246   0.324   1.680
 5207TIP3    H215628   1.101   0.363   1.695
 5208TIP3   OH215629   1.156   1.360   4.766
 5208TIP3    H115630   1.084   1.371   4.705
 5208TIP3    H215631   1.209   1.289   4.730
 5209TIP3   OH215632   0.512   5.135   0.027
 5209TIP3    H115633   0.519   5.177  -0.058
 5209TIP3    H215634   0.459   5.057   0.011
 5210TIP3   OH215635   4.833   0.940   4.775
 5210TIP3    H115636   4.865   0.893   4.852
 5210TIP3    H215637   4.757   0.890   4.745
 5211TIP3   OH215638   2.254   5.273   1.420
 5211TIP3    H115639   2.319   5.290   1.488
 5211TIP3    H215640   2.180   5.329   1.443
 5212TIP3   OH215641   2.053   5.144   0.518
 5212TIP3    H115642   2.004   5.063   0.506
 5212TIP3    H215643   2.129   5.136   0.461
 5213TIP3   OH215644   1.679   5.773   3.430
 5213TIP3    H115645   1.697   5.844   3.493
 5213TIP3    H215646   1.590   5.746   3.450
 5214TIP3   OH215647   5.166   5.649   3.155
 5214TIP3    H115648   5.237   5.613   3.103
 5214TIP3    H215649   5.115   5.573   3.184
 5215TIP3   OH215650   0.347   4.436   4.592
 5215TIP3    H115651   0.366   4.530   4.586
 5215TIP3    H215652   0.299   4.426   4.674
 5216TIP3   OH215653   5.847   4.846   1.080
 5216TIP3    H115654   5.834   4.883   0.993
 5216TIP3    H215655   5.934   4.877   1.106
 5217TIP3   OH215656   1.229   0.689   3.119
 5217TIP3    H115657   1.136   0.674   3.135
 5217TIP3    H215658   1.232   0.738   3.037
 5218TIP3   OH215659   3.344   0.509   1.909
 5218TIP3    H115660   3.391   0.460   1.842
 5218TIP3    H215661   3.410   0.569   1.945
 5219TIP3   OH215662   1.265   5.981   5.147
 5219TIP3    H115663   1.276   5.886   5.147
 5219TIP3    H215664   1.185   5.996   5.097
 5220TIP3   OH215665   3.598   2.661   0.381
 5220TIP3    H115666   3.693   2.659   0.389
 5220TIP3    H215667   3.568   2.582   0.427
 5221TIP3   OH215668   4.397   1.004   3.570
 5221TIP3    H115669   4.458   0.931   3.560
 5221TIP3    H215670   4.410   1.057   3.492
 5222TIP3   OH215671   0.380   4.618   0.789
 5222TIP3    H115672   0.447   4.568   0.836
 5222TIP3    H215673   0.413   4.708   0.789
 5223TIP3   OH215674   0.877   4.821   0.829
 5223TIP3    H115675   0.963   4.799   0.863
 5223TIP3    H215676   0.871   4.916   0.837
 5224TIP3   OH215677   5.551   3.712   5.024
 5224TIP3    H115678   5.500   3.710   4.943
 5224TIP3    H215679   5.631   3.663   5.003
 5225TIP3   OH215680   2.041   2.331   4.254
 5225TIP3    H115681   2.015   2.282   4.333
 5225TIP3    H215682   2.017   2.421   4.273
 5226TIP3   OH215683   5.520   1.362   1.437
 5226TIP3    H115684   5.490   1.318   1.517
 5226TIP3    H215685   5.598   1.313   1.410
 5227TIP3   OH215686   4.018   3.557   0.214
 5227TIP3    H115687   4.089   3.583   0.273
 5227TIP3    H215688   4.019   3.623   0.145
 5228TIP3   OH215689   1.712   0.822   2.416
 5228TIP3    H115690   1.771   0.760   2.371
 5228TIP3    H215691   1.748   0.831   2.504
 5229TIP3   OH215692   5.506   5.443   0.766
 5229TIP3    H115693   5.522   5.448   0.860
 5229TIP3    H215694   5.509   5.534   0.736
 5230TIP3   OH215695   0.353   2.651   4.586
 5230TIP3    H115696   0.302   2.686   4.513
 5230TIP3    H215697   0.429   2.708   4.593
 5231TIP3   OH215698   5.591   2.482   1.319
 5231TIP3    H115699   5.524   2.440   1.266
 5231TIP3    H215700   5.583   2.575   1.298
 5232TIP3   OH215701   2.885   0.892   4.791
 5232TIP3    H115702   2.799   0.913   4.757
 5232TIP3    H215703   2.941   0.887   4.714
 5233TIP3   OH215704   3.244   4.173   2.523
 5233TIP3    H115705   3.239   4.111   2.450
 5233TIP3    H215706   3.247   4.259   2.481
 5234TIP3   OH215707   5.136   5.277   4.281
 5234TIP3    H115708   5.188   5.218   4.226
 5234TIP3    H215709   5.046   5.259   4.257
 5235TIP3   OH215710   1.289   4.044   0.702
 5235TIP3    H115711   1.245   4.123   0.731
 5235TIP3    H215712   1.376   4.073   0.676
 5236TIP3   OH215713   1.186   5.708   3.376
 5236TIP3    H115714   1.207   5.762   3.300
 5236TIP3    H215715   1.199   5.618   3.346
 5237TIP3   OH215716   6.043   1.192   5.092
 5237TIP3    H115717   5.999   1.173   5.175
 5237TIP3    H215718   6.118   1.246   5.116
 5238TIP3   OH215719   5.116   4.474   0.596
 5238TIP3    H115720   5.123   4.462   0.691
 5238TIP3    H215721   5.023   4.465   0.577
 5239TIP3   OH215722   4.052   2.134   2.077
 5239TIP3    H115723   4.103   2.099   2.150
 5239TIP3    H215724   3.990   2.064   2.056
 5240TIP3   OH215725   5.802   2.630   4.181
 5240TIP3    H115726   5.830   2.715   4.214
 5240TIP3    H215727   5.723   2.610   4.232
 5241TIP3   OH215728   4.482   5.826   3.240
 5241TIP3    H115729   4.535   5.801   3.315
 5241TIP3    H215730   4.393   5.831   3.274
 5242TIP3   OH215731   3.439   4.539   5.175
 5242TIP3    H115732   3.463   4.624   5.211
 5242TIP3    H215733   3.365   4.557   5.117
 5243TIP3   OH215734   2.759   4.766   1.690
 5243TIP3    H115735   2.741   4.787   1.781
 5243TIP3    H215736   2.842   4.810   1.671
 5244TIP3   OH215737   1.484   4.394   4.082
 5244TIP3    H115738   1.572   4.426   4.096
 5244TIP3    H215739   1.479   4.375   3.988
 5245TIP3   OH215740   4.426   0.937   1.649
 5245TIP3    H115741   4.361   0.913   1.714
 5245TIP3    H215742   4.484   0.999   1.695
 5246TIP3   OH215743   3.552   5.920   3.909
 5246TIP3    H115744   3.561   5.953   3.820
 5246TIP3    H215745   3.632   5.947   3.953
 5247TIP3   OH215746   5.299   5.733   3.674
 5247TIP3    H115747   5.304   5.663   3.609
 5247TIP3    H215748   5.301   5.687   3.758
 5248TIP3   OH215749   2.439   1.060   1.353
 5248TIP3    H115750   2.397   1.109   1.283
 5248TIP3    H215751   2.528   1.044   1.322
 5249TIP3   OH215752   0.703   5.035   2.407
 5249TIP3    H115753   0.792   5.057   2.379
 5249TIP3    H215754   0.672   4.972   2.342
 5250TIP3   OH215755   3.315   0.384   1.470
 5250TIP3    H115756   3.256   0.311   1.452
 5250TIP3    H215757   3.357   0.403   1.386
 5251TIP3   OH215758   4.725   3.615   3.200
 5251TIP3    H115759   4.652   3.603   3.260
 5251TIP3    H215760   4.685   3.608   3.113
 5252TIP3   OH215761   5.201   3.650   3.173
 5252TIP3    H115762   5.207   3.741   3.200
 5252TIP3    H215763   5.280   3.609   3.208
 5253TIP3   OH215764   2.707   1.407   0.893
 5253TIP3    H115765   2.707   1.311   0.900
 5253TIP3    H215766   2.614   1.431   0.898
 5254TIP3   OH215767   4.389   1.115   4.875
 5254TIP3    H115768   4.353   1.034   4.910
 5254TIP3    H215769   4.483   1.101   4.874
 5255TIP3   OH215770   2.581   4.697   3.913
 5255TIP3    H115771   2.674   4.680   3.896
 5255TIP3    H215772   2.577   4.713   4.008
 5256TIP3   OH215773   2.457   4.578   4.600
 5256TIP3    H115774   2.441   4.633   4.523
 5256TIP3    H215775   2.528   4.519   4.574
 5257TIP3   OH215776   2.755   1.920   4.628
 5257TIP3    H115777   2.793   1.954   4.546
 5257TIP3    H215778   2.801   1.968   4.697
 5258TIP3   OH215779   2.707   2.358   2.526
 5258TIP3    H115780   2.622   2.381   2.487
 5258TIP3    H215781   2.771   2.387   2.461
 5259TIP3   OH215782   3.512   2.855   0.564
 5259TIP3    H115783   3.518   2.796   0.640
 5259TIP3    H215784   3.558   2.808   0.494
 5260TIP3   OH215785   0.090   3.673   2.905
 5260TIP3    H115786  -0.001   3.682   2.878
 5260TIP3    H215787   0.116   3.586   2.874
 5261TIP3   OH215788   1.018   5.733   0.148
 5261TIP3    H115789   1.002   5.687   0.230
 5261TIP3    H215790   1.049   5.820   0.174
 5262TIP3   OH215791   0.552   4.585   1.393
 5262TIP3    H115792   0.463   4.615   1.378
 5262TIP3    H215793   0.604   4.628   1.326
 5263TIP3   OH215794   3.846   5.074   0.737
 5263TIP3    H115795   3.914   5.138   0.754
 5263TIP3    H215796   3.891   4.989   0.743
 5264TIP3   OH215797   3.898   3.201   2.279
 5264TIP3    H115798   3.817   3.161   2.247
 5264TIP3    H215799   3.892   3.292   2.251
 5265TIP3   OH215800   2.688   3.935   4.716
 5265TIP3    H115801   2.619   3.892   4.767
 5265TIP3    H215802   2.642   4.004   4.667
 5266TIP3   OH215803   1.994   2.406   0.419
 5266TIP3    H115804   1.982   2.487   0.369
 5266TIP3    H215805   2.085   2.408   0.446
 5267TIP3   OH215806   4.492   2.819   1.134
 5267TIP3    H115807   4.464   2.783   1.050
 5267TIP3    H215808   4.434   2.778   1.198
 5268TIP3   OH215809   6.145   3.106   1.962
 5268TIP3    H115810   6.185   3.193   1.959
 5268TIP3    H215811   6.107   3.094   1.875
 5269TIP3   OH215812   0.787   2.474   3.856
 5269TIP3    H115813   0.781   2.526   3.776
 5269TIP3    H215814   0.696   2.453   3.878
 5270TIP3   OH215815   5.354   2.234   0.981
 5270TIP3    H115816   5.335   2.233   0.887
 5270TIP3    H215817   5.445   2.263   0.987
 5271TIP3   OH215818   0.908   4.809   2.406
 5271TIP3    H115819   0.979   4.780   2.348
 5271TIP3    H215820   0.951   4.867   2.469
 5272TIP3   OH215821   2.874   2.680   4.977
 5272TIP3    H115822   2.812   2.721   5.037
 5272TIP3    H215823   2.829   2.681   4.892
 5273TIP3   OH215824   3.470   3.745   1.726
 5273TIP3    H115825   3.461   3.776   1.636
 5273TIP3    H215826   3.424   3.661   1.727
 5274TIP3   OH215827   1.314   2.291   1.362
 5274TIP3    H115828   1.373   2.259   1.430
 5274TIP3    H215829   1.228   2.255   1.385
 5275TIP3   OH215830   2.240   3.725   4.088
 5275TIP3    H115831   2.278   3.706   4.173
 5275TIP3    H215832   2.149   3.696   4.095
 5276TIP3   OH215833   1.712   0.015   1.602
 5276TIP3    H115834   1.728  -0.001   1.695
 5276TIP3    H215835   1.619  -0.005   1.590
 5277TIP3   OH215836   5.591   3.965   1.656
 5277TIP3    H115837   5.565   3.920   1.736
 5277TIP3    H215838   5.662   3.912   1.621
 5278TIP3   OH215839   2.417   2.678   3.988
 5278TIP3    H115840   2.405   2.605   3.928
 5278TIP3    H215841   2.376   2.648   4.070
 5279TIP3   OH215842   6.168   1.649   2.093
 5279TIP3    H115843   6.242   1.600   2.059
 5279TIP3    H215844   6.206   1.725   2.136
 5280TIP3   OH215845   1.596   1.532   4.375
 5280TIP3    H115846   1.573   1.489   4.458
 5280TIP3    H215847   1.515   1.574   4.346
 5281TIP3   OH215848   2.589   5.913   3.210
 5281TIP3    H115849   2.560   5.857   3.282
 5281TIP3    H215850   2.510   5.962   3.184
 5282TIP3   OH215851   2.668   5.418   0.036
 5282TIP3    H115852   2.705   5.506   0.033
 5282TIP3    H215853   2.574   5.431   0.049
 5283TIP3   OH215854   4.178   2.773   5.150
 5283TIP3    H115855   4.190   2.719   5.072
 5283TIP3    H215856   4.170   2.862   5.117
 5284TIP3   OH215857   0.328   0.888   0.512
 5284TIP3    H115858   0.236   0.874   0.489
 5284TIP3    H215859   0.360   0.800   0.535
 5285TIP3   OH215860   3.242   1.025   1.237
 5285TIP3    H115861   3.333   1.004   1.256
 5285TIP3    H215862   3.244   1.060   1.148
 5286TIP3   OH215863   0.719   5.864   4.858
 5286TIP3    H115864   0.675   5.789   4.818
 5286TIP3    H215865   0.788   5.825   4.912
 5287TIP3   OH215866   2.333   2.343   0.746
 5287TIP3    H115867   2.410   2.292   0.773
 5287TIP3    H215868   2.261   2.305   0.797
 5288TIP3   OH215869   4.349   2.829   1.721
 5288TIP3    H115870   4.259   2.805   1.699
 5288TIP3    H215871   4.365   2.787   1.806
 5289TIP3   OH215872   0.763   5.560   3.004
 5289TIP3    H115873   0.700   5.529   2.939
 5289TIP3    H215874   0.830   5.606   2.953
 5290TIP3   OH215875   4.303   4.095   1.168
 5290TIP3    H115876   4.297   4.183   1.129
 5290TIP3    H215877   4.221   4.053   1.145
 5291TIP3   OH215878   1.247   1.793   3.581
 5291TIP3    H115879   1.256   1.813   3.674
 5291TIP3    H215880   1.291   1.866   3.536
 5292TIP3   OH215881   6.332   5.771   4.703
 5292TIP3    H115882   6.321   5.865   4.694
 5292TIP3    H215883   6.413   5.751   4.656
 5293TIP3   OH215884   4.726   2.607   1.091
 5293TIP3    H115885   4.665   2.681   1.097
 5293TIP3    H215886   4.812   2.647   1.080
 5294TIP3   OH215887   6.117   1.654   4.028
 5294TIP3    H115888   6.117   1.576   4.085
 5294TIP3    H215889   6.186   1.637   3.964
 5295TIP3   OH215890   1.086   4.578   0.624
 5295TIP3    H115891   1.138   4.576   0.543
 5295TIP3    H215892   1.014   4.638   0.605
 5296TIP3   OH215893   1.593   1.497   3.954
 5296TIP3    H115894   1.573   1.458   3.869
 5296TIP3    H215895   1.653   1.436   3.995
 5297TIP3   OH215896   2.968   5.045   3.330
 5297TIP3    H115897   3.003   4.979   3.270
 5297TIP3    H215898   2.942   4.996   3.408
 5298TIP3   OH215899   2.899   2.622   0.404
 5298TIP3    H115900   2.964   2.591   0.341
 5298TIP3    H215901   2.826   2.652   0.350
 5299TIP3   OH215902   3.468   1.621   3.107
 5299TIP3    H115903   3.416   1.629   3.187
 5299TIP3    H215904   3.420   1.559   3.053
 5300TIP3   OH215905   2.360   5.171   2.026
 5300TIP3    H115906   2.398   5.220   2.100
 5300TIP3    H215907   2.423   5.182   1.955
 5301TIP3   OH215908   2.428   5.802   0.310
 5301TIP3    H115909   2.430   5.883   0.259
 5301TIP3    H215910   2.335   5.785   0.324
 5302TIP3   OH215911   4.320   3.505   5.072
 5302TIP3    H115912   4.318   3.523   4.978
 5302TIP3    H215913   4.392   3.559   5.106
 5303TIP3   OH215914   1.541   2.056   3.064
 5303TIP3    H115915   1.551   1.976   3.012
 5303TIP3    H215916   1.452   2.052   3.098
 5304TIP3   OH215917   5.990   3.585   4.686
 5304TIP3    H115918   6.044   3.534   4.746
 5304TIP3    H215919   6.017   3.557   4.598
 5305TIP3   OH215920   2.197   1.092   0.845
 5305TIP3    H115921   2.214   0.999   0.830
 5305TIP3    H215922   2.122   1.093   0.905
 5306TIP3   OH215923   0.923   5.672   4.638
 5306TIP3    H115924   0.855   5.605   4.640
 5306TIP3    H215925   0.876   5.753   4.619
 5307TIP3   OH215926   1.093   5.080   5.120
 5307TIP3    H115927   1.155   5.091   5.048
 5307TIP3    H215928   1.111   4.992   5.154
 5308TIP3   OH215929   3.107   1.352   3.262
 5308TIP3    H115930   3.045   1.305   3.318
 5308TIP3    H215931   3.192   1.334   3.300
 5309TIP3   OH215932   3.918   3.736   1.993
 5309TIP3    H115933   3.919   3.780   2.078
 5309TIP3    H215934   4.009   3.734   1.966
 5310TIP3   OH215935   5.033   5.636   3.520
 5310TIP3    H115936   4.941   5.642   3.548
 5310TIP3    H215937   5.031   5.574   3.448
 5311TIP3   OH215938   6.044   2.437   0.331
 5311TIP3    H115939   5.983   2.363   0.326
 5311TIP3    H215940   6.055   2.452   0.425
 5312TIP3   OH215941   2.166   0.019   3.226
 5312TIP3    H115942   2.144   0.041   3.136
 5312TIP3    H215943   2.258   0.041   3.234
 5313TIP3   OH215944   1.918   3.932   0.092
 5313TIP3    H115945   1.860   3.856   0.096
 5313TIP3    H215946   1.954   3.930   0.004
 5314TIP3   OH215947   0.938   5.141   2.298
 5314TIP3    H115948   0.918   5.231   2.322
 5314TIP3    H215949   0.954   5.144   2.204
 5315TIP3   OH215950   3.984   4.815   0.393
 5315TIP3    H115951   4.039   4.892   0.406
 5315TIP3    H215952   3.959   4.788   0.482
 5316TIP3   OH215953   3.986   0.865   2.556
 5316TIP3    H115954   3.907   0.812   2.567
 5316TIP3    H215955   4.002   0.903   2.642
 5317TIP3   OH215956   4.196   2.807   4.315
 5317TIP3    H115957   4.266   2.746   4.291
 5317TIP3    H215958   4.116   2.756   4.310
 5318TIP3   OH215959   1.901   5.596   0.631
 5318TIP3    H115960   1.972   5.619   0.571
 5318TIP3    H215961   1.938   5.527   0.686
 5319TIP3   OH215962   3.455   0.766   2.360
 5319TIP3    H115963   3.455   0.724   2.446
 5319TIP3    H215964   3.379   0.823   2.361
 5320TIP3   OH215965   1.155   2.136   2.030
 5320TIP3    H115966   1.122   2.156   2.118
 5320TIP3    H215967   1.174   2.042   2.032
 5321TIP3   OH215968   3.779   0.541   2.003
 5321TIP3    H115969   3.716   0.483   2.044
 5321TIP3    H215970   3.844   0.483   1.963
 5322TIP3   OH215971   4.066   4.026   0.473
 5322TIP3    H115972   3.992   4.073   0.511
 5322TIP3    H215973   4.076   3.948   0.527
 5323TIP3   OH215974   2.884   4.354   0.942
 5323TIP3    H115975   2.880   4.314   1.029
 5323TIP3    H215976   2.898   4.447   0.960
 5324TIP3   OH215977   5.790   4.257   1.444
 5324TIP3    H115978   5.848   4.194   1.400
 5324TIP3    H215979   5.735   4.291   1.373
 5325TIP3   OH215980   5.388   4.272   0.808
 5325TIP3    H115981   5.317   4.330   0.836
 5325TIP3    H215982   5.351   4.184   0.814
 5326TIP3   OH215983   0.229   5.799   0.362
 5326TIP3    H115984   0.299   5.737   0.343
 5326TIP3    H215985   0.247   5.874   0.305
 5327TIP3   OH215986   2.947   1.938   0.096
 5327TIP3    H115987   2.990   2.012   0.054
 5327TIP3    H215988   2.856   1.943   0.066
 5328TIP3   OH215989   4.825   2.332   2.835
 5328TIP3    H115990   4.800   2.373   2.753
 5328TIP3    H215991   4.803   2.397   2.902
 5329TIP3   OH215992   3.477   3.652   2.294
 5329TIP3    H115993   3.439   3.612   2.216
 5329TIP3    H215994   3.553   3.598   2.315
 5330TIP3   OH215995   3.738   5.940   2.970
 5330TIP3    H115996   3.736   5.949   2.874
 5330TIP3    H215997   3.829   5.917   2.989
 5331TIP3   OH215998   0.858   3.044   2.218
 5331TIP3    H115999   0.822   2.955   2.223
 5331TIP3    H216000   0.860   3.064   2.124
 5332TIP3   OH216001   3.299   4.704   4.240
 5332TIP3    H116002   3.322   4.793   4.211
 5332TIP3    H216003   3.272   4.714   4.331
 5333TIP3   OH216004   5.447   1.672   1.920
 5333TIP3    H116005   5.356   1.677   1.951
 5333TIP3    H216006   5.500   1.685   1.998
 5334TIP3   OH216007   2.766   3.820   1.926
 5334TIP3    H116008   2.846   3.820   1.979
 5334TIP3    H216009   2.733   3.731   1.932
 5335TIP3   OH216010   5.650   5.349   2.595
 5335TIP3    H116011   5.602   5.400   2.529
 5335TIP3    H216012   5.634   5.258   2.570
 5336TIP3   OH216013   6.193   4.491   4.394
 5336TIP3    H116014   6.143   4.434   4.453
 5336TIP3    H216015   6.210   4.437   4.317
 5337TIP3   OH216016   5.735   2.038   3.120
 5337TIP3    H116017   5.791   2.108   3.155
 5337TIP3    H216018   5.683   2.081   3.052
 5338TIP3   OH216019   0.343   2.160   3.700
 5338TIP3    H116020   0.276   2.092   3.709
 5338TIP3    H216021   0.367   2.182   3.790
 5339TIP3   OH216022   4.077   1.085   0.209
 5339TIP3    H116023   4.024   1.010   0.238
 5339TIP3    H216024   4.166   1.052   0.207
 5340TIP3   OH216025   1.635   3.654   2.426
 5340TIP3    H116026   1.618   3.714   2.499
 5340TIP3    H216027   1.668   3.575   2.467
 5341TIP3   OH216028   6.161   4.891   3.473
 5341TIP3    H116029   6.243   4.852   3.503
 5341TIP3    H216030   6.094   4.852   3.530
 5342TIP3   OH216031   4.517   2.346   2.165
 5342TIP3    H116032   4.569   2.377   2.092
 5342TIP3    H216033   4.551   2.258   2.183
 5343TIP3   OH216034   4.918   5.205   1.315
 5343TIP3    H116035   4.875   5.217   1.230
 5343TIP3    H216036   5.006   5.240   1.302
 5344TIP3   OH216037   2.920   0.401   4.164
 5344TIP3    H116038   2.968   0.451   4.230
 5344TIP3    H216039   2.928   0.454   4.084
 5345TIP3   OH216040   1.688   3.923   5.039
 5345TIP3    H116041   1.701   3.863   4.965
 5345TIP3    H216042   1.613   3.976   5.013
 5346TIP3   OH216043   3.318   2.495   4.176
 5346TIP3    H116044   3.289   2.576   4.135
 5346TIP3    H216045   3.237   2.454   4.209
 5347TIP3   OH216046   4.003   4.896   3.243
 5347TIP3    H116047   4.054   4.823   3.279
 5347TIP3    H216048   3.954   4.857   3.171
 5348TIP3   OH216049   4.493   0.471   5.065
 5348TIP3    H116050   4.505   0.526   5.142
 5348TIP3    H216051   4.489   0.532   4.992
 5349TIP3   OH216052   1.036   2.230   1.372
 5349TIP3    H116053   0.983   2.309   1.383
 5349TIP3    H216054   1.041   2.191   1.459
 5350TIP3   OH216055   1.592   0.082   0.688
 5350TIP3    H116056   1.511   0.032   0.677
 5350TIP3    H216057   1.597   0.138   0.611
 5351TIP3   OH216058   4.637   2.955   0.883
 5351TIP3    H116059   4.731   2.957   0.900
 5351TIP3    H216060   4.618   3.042   0.848
 5352TIP3   OH216061   1.983   1.486   2.952
 5352TIP3    H116062   1.908   1.540   2.979
 5352TIP3    H216063   2.058   1.529   2.993
 5353TIP3   OH216064   0.546   3.992   2.337
 5353TIP3    H116065   0.457   4.019   2.359
 5353TIP3    H216066   0.547   3.897   2.351
 5354TIP3   OH216067   1.273   0.599   4.426
 5354TIP3    H116068   1.317   0.518   4.450
 5354TIP3    H216069   1.330   0.668   4.459
 5355TIP3   OH216070   3.263   3.643   4.985
 5355TIP3    H116071   3.271   3.632   4.890
 5355TIP3    H216072   3.185   3.698   4.996
 5356TIP3   OH216073   4.838   0.469   4.887
 5356TIP3    H116074   4.830   0.417   4.967
 5356TIP3    H216075   4.777   0.542   4.899
 5357TIP3   OH216076   0.261   2.312   2.196
 5357TIP3    H116077   0.273   2.401   2.231
 5357TIP3    H216078   0.250   2.257   2.274
 5358TIP3   OH216079   3.151   1.171   3.612
 5358TIP3    H116080   3.207   1.245   3.590
 5358TIP3    H216081   3.074   1.211   3.654
 5359TIP3   OH216082   1.390   5.062   0.099
 5359TIP3    H116083   1.345   5.021   0.025
 5359TIP3    H216084   1.477   5.021   0.099
 5360TIP3   OH216085   5.706   2.797   3.694
 5360TIP3    H116086   5.746   2.781   3.780
 5360TIP3    H216087   5.780   2.802   3.633
 5361TIP3   OH216088   2.494   0.195   0.946
 5361TIP3    H116089   2.568   0.161   0.896
 5361TIP3    H216090   2.482   0.133   1.017
 5362TIP3   OH216091   5.421   3.718   1.119
 5362TIP3    H116092   5.440   3.782   1.188
 5362TIP3    H216093   5.450   3.635   1.155
 5363TIP3   OH216094   1.220   5.264   2.001
 5363TIP3    H116095   1.219   5.334   1.936
 5363TIP3    H216096   1.139   5.277   2.050
 5364TIP3   OH216097   0.960   3.813   4.879
 5364TIP3    H116098   0.954   3.769   4.964
 5364TIP3    H216099   0.878   3.861   4.871
 5365TIP3   OH216100   2.974   5.420   3.640
 5365TIP3    H116101   3.031   5.348   3.667
 5365TIP3    H216102   3.009   5.446   3.555
 5366TIP3   OH216103   1.838   3.318   1.421
 5366TIP3    H116104   1.871   3.236   1.383
 5366TIP3    H216105   1.743   3.306   1.424
 5367TIP3   OH216106   5.921   4.706   4.277
 5367TIP3    H116107   5.935   4.792   4.237
 5367TIP3    H216108   5.972   4.646   4.222
 5368TIP3   OH216109   3.321   1.823   0.277
 5368TIP3    H116110   3.383   1.858   0.213
 5368TIP3    H216111   3.374   1.770   0.335
 5369TIP3   OH216112   2.445   0.744   1.690
 5369TIP3    H116113   2.430   0.653   1.714
 5369TIP3    H216114   2.367   0.769   1.641
 5370TIP3   OH216115   0.566   4.522   3.146
 5370TIP3    H116116   0.579   4.556   3.058
 5370TIP3    H216117   0.625   4.446   3.152
 5371TIP3   OH216118   3.748   2.543   4.035
 5371TIP3    H116119   3.807   2.516   4.105
 5371TIP3    H216120   3.732   2.464   3.985
 5372TIP3   OH216121   4.980   4.794   0.707
 5372TIP3    H116122   5.072   4.788   0.734
 5372TIP3    H216123   4.981   4.858   0.635
 5373TIP3   OH216124   3.855   1.982   0.900
 5373TIP3    H116125   3.944   1.960   0.930
 5373TIP3    H216126   3.857   2.077   0.887
 5374TIP3   OH216127   3.778   1.069   2.459
 5374TIP3    H116128   3.820   1.001   2.512
 5374TIP3    H216129   3.850   1.111   2.413
 5375TIP3   OH216130   0.084   3.865   3.558
 5375TIP3    H116131   0.157   3.902   3.608
 5375TIP3    H216132   0.022   3.936   3.550
 5376TIP3   OH216133   2.304   4.704   1.061
 5376TIP3    H116134   2.318   4.622   1.013
 5376TIP3    H216135   2.379   4.759   1.038
 5377TIP3   OH216136   2.742   1.028   2.138
 5377TIP3    H116137   2.685   0.991   2.070
 5377TIP3    H216138   2.696   1.008   2.220
 5378TIP3   OH216139   0.250   5.239   4.129
 5378TIP3    H116140   0.180   5.199   4.179
 5378TIP3    H216141   0.249   5.194   4.045
 5379TIP3   OH216142   2.413   2.299   3.173
 5379TIP3    H116143   2.361   2.238   3.119
 5379TIP3    H216144   2.387   2.278   3.263
 5380TIP3   OH216145   4.913   3.499   4.570
 5380TIP3    H116146   4.864   3.531   4.645
 5380TIP3    H216147   4.879   3.549   4.496
 5381TIP3   OH216148   6.020   3.993   3.665
 5381TIP3    H116149   6.029   3.939   3.586
 5381TIP3    H216150   6.013   3.930   3.736
 5382TIP3   OH216151   2.998   1.717   1.808
 5382TIP3    H116152   2.924   1.711   1.868
 5382TIP3    H216153   3.000   1.633   1.763
 5383TIP3   OH216154   0.491   4.280   3.850
 5383TIP3    H116155   0.421   4.328   3.896
 5383TIP3    H216156   0.505   4.202   3.904
 5384TIP3   OH216157   5.536   5.591   1.339
 5384TIP3    H116158   5.607   5.649   1.312
 5384TIP3    H216159   5.456   5.641   1.321
 5385TIP3   OH216160   5.026   2.589   2.268
 5385TIP3    H116161   5.037   2.625   2.180
 5385TIP3    H216162   5.077   2.649   2.324
 5386TIP3   OH216163   1.001   4.007   1.175
 5386TIP3    H116164   0.930   4.071   1.184
 5386TIP3    H216165   0.956   3.923   1.173
 5387TIP3   OH216166   2.762   1.891   0.880
 5387TIP3    H116167   2.849   1.914   0.847
 5387TIP3    H216168   2.736   1.816   0.827
 5388TIP3   OH216169   4.265   3.409   1.476
 5388TIP3    H116170   4.352   3.382   1.448
 5388TIP3    H216171   4.228   3.456   1.401
 5389TIP3   OH216172   3.500   4.968   3.464
 5389TIP3    H116173   3.444   4.894   3.487
 5389TIP3    H216174   3.439   5.037   3.437
 5390TIP3   OH216175   3.788   5.091   4.860
 5390TIP3    H116176   3.756   5.074   4.771
 5390TIP3    H216177   3.755   5.018   4.912
 5391TIP3   OH216178   4.671   0.924   3.733
 5391TIP3    H116179   4.591   0.952   3.778
 5391TIP3    H216180   4.689   0.837   3.769
 5392TIP3   OH216181   1.539   1.937   1.815
 5392TIP3    H116182   1.627   1.898   1.818
 5392TIP3    H216183   1.505   1.911   1.729
 5393TIP3   OH216184   0.169   0.208   4.535
 5393TIP3    H116185   0.100   0.230   4.598
 5393TIP3    H216186   0.249   0.205   4.588
 5394TIP3   OH216187   0.894   1.998   1.008
 5394TIP3    H116188   0.907   2.080   1.056
 5394TIP3    H216189   0.982   1.970   0.984
 5395TIP3   OH216190   4.943   2.193   4.715
 5395TIP3    H116191   4.907   2.218   4.800
 5395TIP3    H216192   5.032   2.227   4.715
 5396TIP3   OH216193   5.177   2.501   2.665
 5396TIP3    H116194   5.272   2.492   2.663
 5396TIP3    H216195   5.161   2.595   2.676
 5397TIP3   OH216196   3.031   4.414   0.563
 5397TIP3    H116197   3.079   4.493   0.537
 5397TIP3    H216198   2.951   4.446   0.605
 5398TIP3   OH216199   0.980   2.704   2.534
 5398TIP3    H116200   0.921   2.744   2.598
 5398TIP3    H216201   1.055   2.763   2.531
 5399TIP3   OH216202   3.303   2.708   0.912
 5399TIP3    H116203   3.318   2.616   0.935
 5399TIP3    H216204   3.285   2.751   0.996
 5400TIP3   OH216205   4.621   0.247   5.013
 5400TIP3    H116206   4.575   0.331   5.018
 5400TIP3    H216207   4.623   0.227   4.919
 5401TIP3   OH216208   0.250   1.677   2.847
 5401TIP3    H116209   0.296   1.710   2.924
 5401TIP3    H216210   0.295   1.596   2.825
 5402TIP3   OH216211   4.638   0.581   0.390
 5402TIP3    H116212   4.696   0.580   0.313
 5402TIP3    H216213   4.682   0.638   0.452
 5403TIP3   OH216214   3.319   0.029   0.690
 5403TIP3    H116215   3.369   0.020   0.771
 5403TIP3    H216216   3.237   0.071   0.716
 5404TIP3   OH216217   4.863   1.491   4.343
 5404TIP3    H116218   4.851   1.571   4.293
 5404TIP3    H216219   4.950   1.459   4.318
 5405TIP3   OH216220   2.632   0.217   2.979
 5405TIP3    H116221   2.593   0.245   3.062
 5405TIP3    H216222   2.727   0.221   2.995
 5406TIP3   OH216223   3.654   3.567   3.247
 5406TIP3    H116224   3.742   3.531   3.236
 5406TIP3    H216225   3.603   3.529   3.176
 5407TIP3   OH216226   3.688   1.521   4.441
 5407TIP3    H116227   3.701   1.482   4.527
 5407TIP3    H216228   3.768   1.573   4.426
 5408TIP3   OH216229   0.049   1.351   4.062
 5408TIP3    H116230   0.104   1.357   3.984
 5408TIP3    H216231  -0.026   1.299   4.033
 5409TIP3   OH216232   6.172   1.063   0.958
 5409TIP3    H116233   6.097   1.008   0.980
 5409TIP3    H216234   6.248   1.015   0.990
 5410TIP3   OH216235   0.477   4.745   5.076
 5410TIP3    H116236   0.400   4.738   5.019
 5410TIP3    H216237   0.453   4.811   5.141
 5411TIP3   OH216238   1.801   4.032   4.607
 5411TIP3    H116239   1.820   3.954   4.660
 5411TIP3    H216240   1.711   4.055   4.631
 5412TIP3   OH216241   5.945   2.922   4.639
 5412TIP3    H116242   5.904   2.923   4.553
 5412TIP3    H216243   5.952   3.015   4.663
 5413TIP3   OH216244   5.940   2.973   2.624
 5413TIP3    H116245   5.992   2.950   2.547
 5413TIP3    H216246   5.885   3.046   2.596
 5414TIP3   OH216247   1.848   0.836   2.001
 5414TIP3    H116248   1.771   0.815   1.949
 5414TIP3    H216249   1.906   0.882   1.941
 5415TIP3   OH216250   0.978   2.389   0.837
 5415TIP3    H116251   1.053   2.339   0.806
 5415TIP3    H216252   0.906   2.360   0.781
 5416TIP3   OH216253   0.661   0.940   4.187
 5416TIP3    H116254   0.695   1.009   4.130
 5416TIP3    H216255   0.707   0.953   4.270
 5417TIP3   OH216256   0.713   3.717   2.152
 5417TIP3    H116257   0.808   3.729   2.159
 5417TIP3    H216258   0.698   3.627   2.180
 5418TIP3   OH216259   3.671   3.003   4.351
 5418TIP3    H116260   3.641   2.914   4.368
 5418TIP3    H216261   3.765   2.995   4.339
 5419TIP3   OH216262   5.161   3.920   3.268
 5419TIP3    H116263   5.228   3.957   3.210
 5419TIP3    H216264   5.109   3.995   3.296
 5420TIP3   OH216265   1.171   1.431   5.034
 5420TIP3    H116266   1.176   1.433   4.938
 5420TIP3    H216267   1.255   1.392   5.061
 5421TIP3   OH216268   1.920   5.841   0.329
 5421TIP3    H116269   1.854   5.886   0.382
 5421TIP3    H216270   1.870   5.802   0.256
 5422TIP3   OH216271   0.931   3.023   4.319
 5422TIP3    H116272   0.937   3.019   4.223
 5422TIP3    H216273   0.877   2.947   4.342
 5423TIP3   OH216274   3.057   4.402   5.045
 5423TIP3    H116275   3.112   4.457   4.988
 5423TIP3    H216276   3.042   4.456   5.123
 5424TIP3   OH216277   1.934   4.886   3.562
 5424TIP3    H116278   1.884   4.810   3.592
 5424TIP3    H216279   1.870   4.957   3.557
 5425TIP3   OH216280   0.940   3.400   1.000
 5425TIP3    H116281   0.949   3.310   0.969
 5425TIP3    H216282   0.948   3.394   1.095
 5426TIP3   OH216283   2.905   3.026   3.940
 5426TIP3    H116284   2.897   2.932   3.927
 5426TIP3    H216285   2.934   3.036   4.031
 5427TIP3   OH216286   4.315   0.151   4.362
 5427TIP3    H116287   4.288   0.214   4.295
 5427TIP3    H216288   4.276   0.068   4.334
 5428TIP3   OH216289   0.434   1.853   0.464
 5428TIP3    H116290   0.482   1.810   0.535
 5428TIP3    H216291   0.459   1.945   0.472
 5429TIP3   OH216292   3.543   4.350   1.476
 5429TIP3    H116293   3.493   4.282   1.521
 5429TIP3    H216294   3.487   4.377   1.403
 5430TIP3   OH216295   4.196   1.128   3.899
 5430TIP3    H116296   4.121   1.083   3.938
 5430TIP3    H216297   4.206   1.207   3.952
 5431TIP3   OH216298   3.819   3.338   3.629
 5431TIP3    H116299   3.765   3.259   3.621
 5431TIP3    H216300   3.848   3.355   3.539
 5432TIP3   OH216301   4.166   5.783   0.505
 5432TIP3    H116302   4.187   5.770   0.597
 5432TIP3    H216303   4.211   5.865   0.482
 5433TIP3   OH216304   6.113   5.967   2.499
 5433TIP3    H116305   6.094   5.980   2.592
 5433TIP3    H216306   6.207   5.956   2.494
 5434TIP3   OH216307   5.675   1.681   0.809
 5434TIP3    H116308   5.658   1.694   0.716
 5434TIP3    H216309   5.598   1.716   0.853
 5435TIP3   OH216310   2.057   3.457   1.337
 5435TIP3    H116311   1.987   3.417   1.388
 5435TIP3    H216312   2.070   3.543   1.378
 5436TIP3   OH216313   4.447   0.033   3.114
 5436TIP3    H116314   4.417   0.020   3.024
 5436TIP3    H216315   4.367   0.045   3.164
 5437TIP3   OH216316   5.182   4.242   3.166
 5437TIP3    H116317   5.151   4.206   3.249
 5437TIP3    H216318   5.273   4.212   3.159
 5438TIP3   OH216319   3.856   4.136   1.728
 5438TIP3    H116320   3.839   4.114   1.637
 5438TIP3    H216321   3.949   4.120   1.740
 5439TIP3   OH216322   5.822   1.929   4.121
 5439TIP3    H116323   5.762   1.918   4.194
 5439TIP3    H216324   5.785   1.873   4.052
 5440TIP3   OH216325   3.710   1.473   3.646
 5440TIP3    H116326   3.702   1.544   3.711
 5440TIP3    H216327   3.758   1.511   3.574
 5441TIP3   OH216328   5.640   3.285   2.951
 5441TIP3    H116329   5.629   3.359   2.890
 5441TIP3    H216330   5.732   3.289   2.976
 5442TIP3   OH216331   1.224   4.181   1.091
 5442TIP3    H116332   1.172   4.101   1.087
 5442TIP3    H216333   1.161   4.250   1.112
 5443TIP3   OH216334   4.318   3.089   2.795
 5443TIP3    H116335   4.255   3.071   2.865
 5443TIP3    H216336   4.317   3.011   2.741
 5444TIP3   OH216337   5.024   5.493   3.916
 5444TIP3    H116338   4.988   5.581   3.923
 5444TIP3    H216339   4.947   5.437   3.898
 5445TIP3   OH216340   0.061   4.901   2.371
 5445TIP3    H116341  -0.018   4.847   2.377
 5445TIP3    H216342   0.080   4.904   2.277
 5446TIP3   OH216343   4.862   5.120   3.069
 5446TIP3    H116344   4.891   5.190   3.127
 5446TIP3    H216345   4.919   5.046   3.091
 5447TIP3   OH216346   0.831   1.337   2.960
 5447TIP3    H116347   0.820   1.298   2.873
 5447TIP3    H216348   0.767   1.408   2.964
 5448TIP3   OH216349   1.679   1.019   3.353
 5448TIP3    H116350   1.673   1.018   3.258
 5448TIP3    H216351   1.711   1.107   3.374
 5449TIP3   OH216352   4.534   4.037   0.496
 5449TIP3    H116353   4.580   4.020   0.414
 5449TIP3    H216354   4.589   4.099   0.543
 5450TIP3   OH216355   0.659   4.788   2.595
 5450TIP3    H116356   0.738   4.734   2.603
 5450TIP3    H216357   0.591   4.727   2.567
 5451TIP3   OH216358   6.020   4.193   2.987
 5451TIP3    H116359   5.927   4.187   2.965
 5451TIP3    H216360   6.044   4.283   2.968
 5452TIP3   OH216361   4.933   0.869   0.207
 5452TIP3    H116362   4.930   0.935   0.138
 5452TIP3    H216363   4.852   0.819   0.196
 5453TIP3   OH216364   2.782   3.930   0.173
 5453TIP3    H116365   2.800   3.993   0.243
 5453TIP3    H216366   2.719   3.974   0.117
 5454TIP3   OH216367   3.497   1.843   4.404
 5454TIP3    H116368   3.553   1.908   4.363
 5454TIP3    H216369   3.490   1.773   4.339
 5455TIP3   OH216370   0.497   5.873   1.563
 5455TIP3    H116371   0.547   5.955   1.560
 5455TIP3    H216372   0.487   5.848   1.472
 5456TIP3   OH216373   1.290   0.204   4.918
 5456TIP3    H116374   1.318   0.128   4.867
 5456TIP3    H216375   1.371   0.246   4.945
 5457TIP3   OH216376   5.990   5.544   1.003
 5457TIP3    H116377   5.976   5.639   0.995
 5457TIP3    H216378   5.942   5.507   0.930
 5458TIP3   OH216379   5.964   0.604   4.077
 5458TIP3    H116380   6.021   0.551   4.022
 5458TIP3    H216381   5.970   0.692   4.040
 5459TIP3   OH216382   1.638   5.675   0.358
 5459TIP3    H116383   1.654   5.723   0.277
 5459TIP3    H216384   1.544   5.684   0.373
 5460TIP3   OH216385   4.665   0.418   3.007
 5460TIP3    H116386   4.600   0.388   3.070
 5460TIP3    H216387   4.618   0.420   2.924
 5461TIP3   OH216388   3.039   5.490   0.844
 5461TIP3    H116389   3.018   5.569   0.795
 5461TIP3    H216390   2.986   5.422   0.802
 5462TIP3   OH216391   1.971   5.327   3.968
 5462TIP3    H116392   1.906   5.309   4.035
 5462TIP3    H216393   2.025   5.248   3.965
 5463TIP3   OH216394   3.489   2.828   4.262
 5463TIP3    H116395   3.409   2.878   4.280
 5463TIP3    H216396   3.531   2.874   4.190
 5464TIP3   OH216397   5.989   3.322   5.115
 5464TIP3    H116398   5.953   3.277   5.191
 5464TIP3    H216399   5.958   3.413   5.124
 5465TIP3   OH216400   3.756   0.921   4.438
 5465TIP3    H116401   3.819   0.861   4.398
 5465TIP3    H216402   3.730   0.980   4.368
 5466TIP3   OH216403   5.305   2.922   1.232
 5466TIP3    H116404   5.358   3.001   1.220
 5466TIP3    H216405   5.215   2.952   1.224
 5467TIP3   OH216406   3.085   1.858   2.142
 5467TIP3    H116407   3.129   1.808   2.072
 5467TIP3    H216408   3.131   1.832   2.222
 5468TIP3   OH216409   4.804   3.478   0.116
 5468TIP3    H116410   4.854   3.558   0.132
 5468TIP3    H216411   4.713   3.505   0.122
 5469TIP3   OH216412   3.166   0.712   1.846
 5469TIP3    H116413   3.198   0.630   1.883
 5469TIP3    H216414   3.245   0.767   1.839
 5470TIP3   OH216415   2.577   5.966   4.798
 5470TIP3    H116416   2.667   5.953   4.769
 5470TIP3    H216417   2.553   6.052   4.763
 5471TIP3   OH216418   0.725   3.726   2.470
 5471TIP3    H116419   0.728   3.760   2.380
 5471TIP3    H216420   0.645   3.675   2.474
 5472TIP3   OH216421   5.558   4.782   4.797
 5472TIP3    H116422   5.559   4.718   4.726
 5472TIP3    H216423   5.498   4.745   4.862
 5473TIP3   OH216424   0.206   0.558   2.491
 5473TIP3    H116425   0.166   0.633   2.446
 5473TIP3    H216426   0.144   0.536   2.560
 5474TIP3   OH216427   5.187   4.500   3.892
 5474TIP3    H116428   5.120   4.567   3.903
 5474TIP3    H216429   5.139   4.421   3.866
 5475TIP3   OH216430   4.623   0.108   1.262
 5475TIP3    H116431   4.686   0.097   1.334
 5475TIP3    H216432   4.644   0.036   1.202
 5476TIP3   OH216433   3.661   0.194   4.572
 5476TIP3    H116434   3.590   0.139   4.605
 5476TIP3    H216435   3.684   0.251   4.646
 5477TIP3   OH216436   0.761   3.403   3.863
 5477TIP3    H116437   0.755   3.346   3.786
 5477TIP3    H216438   0.854   3.423   3.871
 5478TIP3   OH216439   2.890   5.305   0.228
 5478TIP3    H116440   2.817   5.333   0.283
 5478TIP3    H216441   2.967   5.345   0.269
 5479TIP3   OH216442   4.323   0.165   1.466
 5479TIP3    H116443   4.348   0.133   1.379
 5479TIP3    H216444   4.371   0.247   1.477
 5480TIP3   OH216445   2.471   3.634   2.378
 5480TIP3    H116446   2.533   3.565   2.403
 5480TIP3    H216447   2.391   3.612   2.425
 5481TIP3   OH216448   3.502   4.086   2.574
 5481TIP3    H116449   3.408   4.093   2.586
 5481TIP3    H216450   3.527   4.167   2.529
 5482TIP3   OH216451   5.502   2.174   1.712
 5482TIP3    H116452   5.420   2.142   1.675
 5482TIP3    H216453   5.547   2.095   1.742
 5483TIP3   OH216454   5.448   2.504   0.213
 5483TIP3    H116455   5.503   2.539   0.283
 5483TIP3    H216456   5.395   2.436   0.255
 5484TIP3   OH216457   4.871   1.890   4.483
 5484TIP3    H116458   4.965   1.899   4.500
 5484TIP3    H216459   4.841   1.830   4.551
 5485TIP3   OH216460   4.181   3.456   0.545
 5485TIP3    H116461   4.090   3.449   0.573
 5485TIP3    H216462   4.186   3.403   0.465
 5486TIP3   OH216463   1.276  -0.003   0.223
 5486TIP3    H116464   1.359  -0.044   0.200
 5486TIP3    H216465   1.294   0.091   0.225
 5487TIP3   OH216466   2.080   3.938   2.961
 5487TIP3    H116467   2.148   3.890   3.007
 5487TIP3    H216468   2.088   4.028   2.992
 5488TIP3   OH216469   5.308   2.850   4.598
 5488TIP3    H116470   5.239   2.916   4.607
 5488TIP3    H216471   5.390   2.900   4.606
 5489TIP3   OH216472   5.600   4.837   3.481
 5489TIP3    H116473   5.644   4.754   3.461
 5489TIP3    H216474   5.666   4.904   3.461
 5490TIP3   OH216475   2.158   1.471   2.654
 5490TIP3    H116476   2.190   1.464   2.564
 5490TIP3    H216477   2.136   1.382   2.679
 5491TIP3   OH216478   0.591   3.764   0.988
 5491TIP3    H116479   0.674   3.716   0.981
 5491TIP3    H216480   0.524   3.696   0.978
 5492TIP3   OH216481   3.338   1.554   4.489
 5492TIP3    H116482   3.375   1.522   4.407
 5492TIP3    H216483   3.244   1.564   4.471
 5493TIP3   OH216484   2.119   0.288   2.305
 5493TIP3    H116485   2.030   0.307   2.335
 5493TIP3    H216486   2.144   0.365   2.254
 5494TIP3   OH216487   4.703   3.730   0.330
 5494TIP3    H116488   4.725   3.794   0.398
 5494TIP3    H216489   4.781   3.728   0.273
 5495TIP3   OH216490   2.036   1.309   0.743
 5495TIP3    H116491   2.098   1.236   0.748
 5495TIP3    H216492   2.089   1.387   0.766
 5496TIP3   OH216493   5.726   1.916   2.183
 5496TIP3    H116494   5.697   1.825   2.177
 5496TIP3    H216495   5.821   1.911   2.189
 5497TIP3   OH216496   2.216   0.034   0.949
 5497TIP3    H116497   2.225   0.119   0.906
 5497TIP3    H216498   2.301   0.018   0.989
 5498TIP3   OH216499   1.837   3.348   4.810
 5498TIP3    H116500   1.840   3.384   4.722
 5498TIP3    H216501   1.749   3.311   4.818
 5499TIP3   OH216502   4.690   1.386   3.286
 5499TIP3    H116503   4.770   1.341   3.314
 5499TIP3    H216504   4.710   1.418   3.199
 5500TIP3   OH216505   0.493   5.155   5.168
 5500TIP3    H116506   0.444   5.076   5.190
 5500TIP3    H216507   0.471   5.171   5.076
 5501TIP3   OH216508   4.797   4.554   1.338
 5501TIP3    H116509   4.710   4.547   1.300
 5501TIP3    H216510   4.825   4.644   1.318
 5502TIP3   OH216511   6.052   2.031   4.801
 5502TIP3    H116512   6.068   1.949   4.848
 5502TIP3    H216513   5.983   2.010   4.739
 5503TIP3   OH216514   2.455   4.883   0.632
 5503TIP3    H116515   2.454   4.955   0.694
 5503TIP3    H216516   2.500   4.812   0.679
 5504TIP3   OH216517   2.207   3.329   2.317
 5504TIP3    H116518   2.245   3.304   2.401
 5504TIP3    H216519   2.140   3.263   2.300
 5505TIP3   OH216520   5.790   5.161   3.528
 5505TIP3    H116521   5.734   5.206   3.465
 5505TIP3    H216522   5.822   5.084   3.480
 5506TIP3   OH216523   4.902   3.740   0.158
 5506TIP3    H116524   4.981   3.724   0.210
 5506TIP3    H216525   4.935   3.767   0.072
 5507TIP3   OH216526   4.965   5.855   3.146
 5507TIP3    H116527   5.007   5.883   3.227
 5507TIP3    H216528   5.008   5.772   3.125
 5508TIP3   OH216529   2.466   3.299   2.933
 5508TIP3    H116530   2.399   3.366   2.924
 5508TIP3    H216531   2.541   3.345   2.971
 5509TIP3   OH216532   5.483   1.299   4.259
 5509TIP3    H116533   5.560   1.353   4.243
 5509TIP3    H216534   5.479   1.292   4.355
 5510TIP3   OH216535   0.446   2.948   3.190
 5510TIP3    H116536   0.497   2.913   3.117
 5510TIP3    H216537   0.357   2.957   3.155
 5511TIP3   OH216538   2.022   1.157   1.022
 5511TIP3    H116539   1.937   1.115   1.033
 5511TIP3    H216540   2.011   1.242   1.065
 5512TIP3   OH216541   4.016   3.111   1.282
 5512TIP3    H116542   3.972   3.166   1.348
 5512TIP3    H216543   4.070   3.050   1.334
 5513TIP3   OH216544   3.796   0.905   0.403
 5513TIP3    H116545   3.800   0.810   0.406
 5513TIP3    H216546   3.767   0.925   0.314
 5514TIP3   OH216547   0.007   2.125   3.233
 5514TIP3    H116548   0.079   2.147   3.292
 5514TIP3    H216549   0.048   2.074   3.163
 5515TIP3   OH216550   5.768   0.337   4.678
 5515TIP3    H116551   5.682   0.368   4.650
 5515TIP3    H216552   5.776   0.249   4.640
 5516TIP3   OH216553   5.854   4.535   3.717
 5516TIP3    H116554   5.806   4.535   3.801
 5516TIP3    H216555   5.840   4.448   3.682
 5517TIP3   OH216556   6.145   5.583   2.957
 5517TIP3    H116557   6.136   5.595   3.052
 5517TIP3    H216558   6.231   5.620   2.936
 5518TIP3   OH216559   5.234   2.419   1.567
 5518TIP3    H116560   5.189   2.439   1.649
 5518TIP3    H216561   5.188   2.471   1.501
 5519TIP3   OH216562   6.207   5.855   2.747
 5519TIP3    H116563   6.276   5.840   2.683
 5519TIP3    H216564   6.253   5.883   2.827
 5520TIP3   OH216565   2.783   1.754   3.594
 5520TIP3    H116566   2.847   1.706   3.646
 5520TIP3    H216567   2.833   1.824   3.552
 5521TIP3   OH216568   6.319   4.069   2.048
 5521TIP3    H116569   6.282   4.157   2.040
 5521TIP3    H216570   6.333   4.041   1.958
 5522TIP3   OH216571   2.318   1.491   3.168
 5522TIP3    H116572   2.229   1.466   3.194
 5522TIP3    H216573   2.334   1.441   3.088
 5523TIP3   OH216574   3.404   5.279   2.102
 5523TIP3    H116575   3.476   5.225   2.134
 5523TIP3    H216576   3.360   5.225   2.036
 5524TIP3   OH216577   0.006   3.001   2.094
 5524TIP3    H116578  -0.078   3.010   2.049
 5524TIP3    H216579   0.058   3.074   2.062
 5525TIP3   OH216580   0.589   0.473   3.951
 5525TIP3    H116581   0.528   0.446   4.020
 5525TIP3    H216582   0.611   0.392   3.906
 5526TIP3   OH216583   0.330   4.336   4.203
 5526TIP3    H116584   0.246   4.345   4.247
 5526TIP3    H216585   0.369   4.258   4.243
 5527TIP3   OH216586   5.844   3.036   0.925
 5527TIP3    H116587   5.807   3.077   0.847
 5527TIP3    H216588   5.768   3.019   0.981
 5528TIP3   OH216589   5.262   3.473   4.155
 5528TIP3    H116590   5.294   3.417   4.084
 5528TIP3    H216591   5.181   3.512   4.121
 5529TIP3   OH216592   2.954   1.229   5.158
 5529TIP3    H116593   2.955   1.167   5.086
 5529TIP3    H216594   2.982   1.312   5.119
 5530TIP3   OH216595   3.922   0.295   1.921
 5530TIP3    H116596   3.907   0.242   2.000
 5530TIP3    H216597   3.928   0.231   1.850
 5531TIP3   OH216598   3.831   3.970   2.400
 5531TIP3    H116599   3.858   3.993   2.311
 5531TIP3    H216600   3.737   3.954   2.393
 5532TIP3   OH216601   5.826   5.345   0.726
 5532TIP3    H116602   5.879   5.343   0.646
 5532TIP3    H216603   5.790   5.434   0.728
 5533TIP3   OH216604   1.459   2.597   2.530
 5533TIP3    H116605   1.508   2.530   2.578
 5533TIP3    H216606   1.521   2.632   2.466
 5534TIP3   OH216607   6.071   5.383   2.013
 5534TIP3    H116608   6.016   5.431   1.950
 5534TIP3    H216609   6.158   5.422   2.003
 5535TIP3   OH216610   5.962   5.645   3.780
 5535TIP3    H116611   5.896   5.588   3.740
 5535TIP3    H216612   5.965   5.722   3.723
 5536TIP3   OH216613   4.940   1.346   3.669
 5536TIP3    H116614   4.851   1.312   3.661
 5536TIP3    H216615   4.990   1.300   3.602
 5537TIP3   OH216616   0.904   2.527   4.397
 5537TIP3    H116617   0.904   2.436   4.366
 5537TIP3    H216618   0.960   2.573   4.334
 5538TIP3   OH216619   1.364   5.755   3.045
 5538TIP3    H116620   1.457   5.750   3.022
 5538TIP3    H216621   1.360   5.816   3.118
 5539TIP3   OH216622   3.984   2.417   2.772
 5539TIP3    H116623   3.964   2.400   2.680
 5539TIP3    H216624   3.901   2.445   2.810
 5540TIP3   OH216625   2.518   0.079   4.197
 5540TIP3    H116626   2.548   0.106   4.110
 5540TIP3    H216627   2.517   0.160   4.248
 5541TIP3   OH216628   2.319   0.876   1.157
 5541TIP3    H116629   2.325   0.971   1.165
 5541TIP3    H216630   2.249   0.861   1.094
 5542TIP3   OH216631   1.926   2.260   0.667
 5542TIP3    H116632   1.939   2.289   0.576
 5542TIP3    H216633   1.973   2.324   0.720
 5543TIP3   OH216634   0.640   1.633   0.392
 5543TIP3    H116635   0.694   1.703   0.357
 5543TIP3    H216636   0.594   1.672   0.466
 5544TIP3   OH216637   0.621   4.024   4.543
 5544TIP3    H116638   0.639   4.027   4.637
 5544TIP3    H216639   0.587   3.936   4.527
 5545TIP3   OH216640   0.356   3.542   4.573
 5545TIP3    H116641   0.350   3.514   4.482
 5545TIP3    H216642   0.368   3.460   4.622
 5546TIP3   OH216643   2.353   4.538   0.183
 5546TIP3    H116644   2.367   4.633   0.186
 5546TIP3    H216645   2.437   4.502   0.154
 5547TIP3   OH216646   2.715   2.334   0.401
 5547TIP3    H116647   2.787   2.346   0.463
 5547TIP3    H216648   2.758   2.315   0.318
 5548TIP3   OH216649   0.920   5.968   1.531
 5548TIP3    H116650   0.868   5.888   1.540
 5548TIP3    H216651   0.922   6.005   1.620
 5549TIP3   OH216652   4.938   5.723   2.104
 5549TIP3    H116653   4.943   5.649   2.164
 5549TIP3    H216654   5.026   5.760   2.102
 5550TIP3   OH216655   1.097   1.429   3.014
 5550TIP3    H116656   1.023   1.371   2.998
 5550TIP3    H216657   1.064   1.517   2.993
 5551TIP3   OH216658   1.418   2.584   1.182
 5551TIP3    H116659   1.467   2.507   1.213
 5551TIP3    H216660   1.359   2.605   1.254
 5552TIP3   OH216661   2.287   0.378   1.102
 5552TIP3    H116662   2.361   0.404   1.047
 5552TIP3    H216663   2.243   0.310   1.051
 5553TIP3   OH216664   3.041   4.744   2.408
 5553TIP3    H116665   3.135   4.731   2.391
 5553TIP3    H216666   3.026   4.700   2.492
 5554TIP3   OH216667   5.869   2.209   0.422
 5554TIP3    H116668   5.922   2.202   0.502
 5554TIP3    H216669   5.779   2.210   0.453
 5555TIP3   OH216670   5.163   0.000   0.277
 5555TIP3    H116671   5.221  -0.039   0.343
 5555TIP3    H216672   5.186   0.093   0.277
 5556TIP3   OH216673   1.565   1.754   0.204
 5556TIP3    H116674   1.493   1.789   0.152
 5556TIP3    H216675   1.642   1.804   0.177
 5557TIP3   OH216676   2.845   3.746   1.286
 5557TIP3    H116677   2.861   3.662   1.329
 5557TIP3    H216678   2.841   3.725   1.193
 5558TIP3   OH216679   5.143   3.243   1.875
 5558TIP3    H116680   5.093   3.305   1.928
 5558TIP3    H216681   5.154   3.167   1.932
 5559TIP3   OH216682   0.316   2.894   0.848
 5559TIP3    H116683   0.248   2.955   0.876
 5559TIP3    H216684   0.268   2.817   0.819
 5560TIP3   OH216685   5.037   0.607   0.664
 5560TIP3    H116686   5.097   0.533   0.663
 5560TIP3    H216687   5.042   0.642   0.753
 5561TIP3   OH216688   0.365   0.409   2.337
 5561TIP3    H116689   0.310   0.459   2.396
 5561TIP3    H216690   0.422   0.358   2.394
 5562TIP3   OH216691   4.251   1.969   2.260
 5562TIP3    H116692   4.268   2.046   2.314
 5562TIP3    H216693   4.213   1.905   2.321
 5563TIP3   OH216694   6.003   3.398   1.204
 5563TIP3    H116695   6.093   3.387   1.174
 5563TIP3    H216696   6.011   3.454   1.282
 5564TIP3   OH216697   0.642   5.567   1.145
 5564TIP3    H116698   0.692   5.533   1.071
 5564TIP3    H216699   0.609   5.488   1.190
 5565TIP3   OH216700   1.359   4.795   0.507
 5565TIP3    H116701   1.369   4.873   0.562
 5565TIP3    H216702   1.268   4.798   0.478
 5566TIP3   OH216703   0.039   5.144   1.096
 5566TIP3    H116704  -0.000   5.189   1.021
 5566TIP3    H216705   0.085   5.069   1.059
 5567TIP3   OH216706   5.625   1.550   2.682
 5567TIP3    H116707   5.697   1.613   2.674
 5567TIP3    H216708   5.570   1.585   2.752
 5568TIP3   OH216709   0.114   2.316   4.176
 5568TIP3    H116710   0.173   2.369   4.123
 5568TIP3    H216711   0.074   2.256   4.114
 5569TIP3   OH216712   4.394   3.858   0.233
 5569TIP3    H116713   4.361   3.777   0.272
 5569TIP3    H216714   4.340   3.927   0.272
 5570TIP3   OH216715   3.552   3.700   3.485
 5570TIP3    H116716   3.569   3.624   3.429
 5570TIP3    H216717   3.457   3.712   3.481
 5571TIP3   OH216718   5.865   4.634   2.004
 5571TIP3    H116719   5.953   4.617   1.971
 5571TIP3    H216720   5.815   4.663   1.928
 5572TIP3   OH216721   6.303   0.308   4.694
 5572TIP3    H116722   6.241   0.332   4.625
 5572TIP3    H216723   6.249   0.267   4.761
 5573TIP3   OH216724   5.558   2.922   1.951
 5573TIP3    H116725   5.651   2.924   1.932
 5573TIP3    H216726   5.519   2.874   1.877
 5574TIP3   OH216727   2.553   1.580   4.121
 5574TIP3    H116728   2.614   1.613   4.187
 5574TIP3    H216729   2.533   1.491   4.148
 5575TIP3   OH216730   2.847   0.610   2.304
 5575TIP3    H116731   2.805   0.590   2.387
 5575TIP3    H216732   2.935   0.574   2.312
 5576TIP3   OH216733   4.106   5.615   1.012
 5576TIP3    H116734   4.035   5.654   1.063
 5576TIP3    H216735   4.176   5.600   1.075
 5577TIP3   OH216736   4.642   0.656   4.818
 5577TIP3    H116737   4.668   0.698   4.736
 5577TIP3    H216738   4.557   0.617   4.799
 5578TIP3   OH216739   4.506   2.442   3.701
 5578TIP3    H116740   4.477   2.520   3.655
 5578TIP3    H216741   4.587   2.416   3.657
 5579TIP3   OH216742   4.339   0.745   1.285
 5579TIP3    H116743   4.271   0.682   1.309
 5579TIP3    H216744   4.409   0.730   1.348
 5580TIP3   OH216745   3.541   0.875   0.037
 5580TIP3    H116746   3.488   0.954   0.026
 5580TIP3    H216747   3.501   0.811  -0.023
 5581TIP3   OH216748   1.921   3.482   3.790
 5581TIP3    H116749   1.896   3.402   3.835
 5581TIP3    H216750   2.016   3.473   3.776
 5582TIP3   OH216751   3.386   1.923   3.735
 5582TIP3    H116752   3.416   1.987   3.800
 5582TIP3    H216753   3.464   1.872   3.714
 5583TIP3   OH216754   2.282   1.572   1.753
 5583TIP3    H116755   2.192   1.543   1.741
 5583TIP3    H216756   2.285   1.659   1.712
 5584TIP3   OH216757   6.121   5.099   4.755
 5584TIP3    H116758   6.206   5.141   4.764
 5584TIP3    H216759   6.066   5.141   4.822
 5585TIP3   OH216760   5.476   5.417   3.054
 5585TIP3    H116761   5.483   5.489   3.116
 5585TIP3    H216762   5.545   5.435   2.989
 5586TIP3   OH216763   2.768   2.196   1.190
 5586TIP3    H116764   2.765   2.186   1.285
 5586TIP3    H216765   2.843   2.254   1.175
 5587TIP3   OH216766   4.731   2.407   2.003
 5587TIP3    H116767   4.822   2.398   1.975
 5587TIP3    H216768   4.689   2.455   1.931
 5588TIP3   OH216769   3.639   3.255   4.476
 5588TIP3    H116770   3.666   3.166   4.452
 5588TIP3    H216771   3.720   3.306   4.475
 5589TIP3   OH216772   3.354   2.769   1.867
 5589TIP3    H116773   3.431   2.767   1.925
 5589TIP3    H216774   3.353   2.683   1.826
 5590TIP3   OH216775   5.794   0.612   2.278
 5590TIP3    H116776   5.706   0.621   2.315
 5590TIP3    H216777   5.830   0.700   2.280
 5591TIP3   OH216778   4.643   0.240   4.717
 5591TIP3    H116779   4.572   0.284   4.670
 5591TIP3    H216780   4.723   0.274   4.678
 5592TIP3   OH216781   1.592   2.696   0.350
 5592TIP3    H116782   1.501   2.684   0.376
 5592TIP3    H216783   1.642   2.649   0.416
 5593TIP3   OH216784   3.367   4.996   4.839
 5593TIP3    H116785   3.339   5.088   4.836
 5593TIP3    H216786   3.296   4.948   4.797
 5594TIP3   OH216787   2.115   2.756   2.330
 5594TIP3    H116788   2.146   2.760   2.421
 5594TIP3    H216789   2.020   2.767   2.337
 5595TIP3   OH216790   2.018   1.707   4.909
 5595TIP3    H116791   1.939   1.735   4.863
 5595TIP3    H216792   2.037   1.620   4.873
 5596TIP3   OH216793   4.686   5.044   2.872
 5596TIP3    H116794   4.748   5.079   2.937
 5596TIP3    H216795   4.722   4.959   2.848
 5597TIP3   OH216796   6.003   3.779   1.826
 5597TIP3    H116797   5.959   3.862   1.812
 5597TIP3    H216798   6.093   3.802   1.850
 5598TIP3   OH216799   5.799   5.688   1.187
 5598TIP3    H116800   5.786   5.642   1.104
 5598TIP3    H216801   5.822   5.778   1.161
 5599TIP3   OH216802   4.365   4.973   2.436
 5599TIP3    H116803   4.426   4.992   2.508
 5599TIP3    H216804   4.280   4.963   2.479
 5600TIP3   OH216805   0.664   3.883   1.770
 5600TIP3    H116806   0.687   3.823   1.699
 5600TIP3    H216807   0.741   3.940   1.779
 5601TIP3   OH216808   6.022   0.642   1.012
 5601TIP3    H116809   6.014   0.549   1.031
 5601TIP3    H216810   6.115   0.662   1.023
 5602TIP3   OH216811   3.501   3.805   0.415
 5602TIP3    H116812   3.423   3.754   0.394
 5602TIP3    H216813   3.574   3.747   0.396
 5603TIP3   OH216814   2.425   5.394   0.996
 5603TIP3    H116815   2.375   5.472   0.971
 5603TIP3    H216816   2.501   5.395   0.938
 5604TIP3   OH216817   1.561   5.195   0.795
 5604TIP3    H116818   1.605   5.137   0.858
 5604TIP3    H216819   1.633   5.235   0.746
 5605TIP3   OH216820   5.191   2.918   0.591
 5605TIP3    H116821   5.216   2.853   0.526
 5605TIP3    H216822   5.133   2.978   0.545
 5606TIP3   OH216823   1.597   2.823   4.810
 5606TIP3    H116824   1.628   2.735   4.833
 5606TIP3    H216825   1.669   2.861   4.759
 5607TIP3   OH216826   0.952   3.226   1.431
 5607TIP3    H116827   1.014   3.297   1.446
 5607TIP3    H216828   0.870   3.256   1.470
 5608TIP3   OH216829   1.710   0.664   1.626
 5608TIP3    H116830   1.714   0.747   1.672
 5608TIP3    H216831   1.800   0.647   1.598
 5609TIP3   OH216832   2.308   5.880   1.943
 5609TIP3    H116833   2.378   5.909   1.885
 5609TIP3    H216834   2.282   5.794   1.908
 5610TIP3   OH216835   4.836   5.287   1.788
 5610TIP3    H116836   4.925   5.260   1.768
 5610TIP3    H216837   4.814   5.349   1.718
 5611TIP3   OH216838   3.757   4.834   3.434
 5611TIP3    H116839   3.794   4.910   3.389
 5611TIP3    H216840   3.672   4.864   3.467
 5612TIP3   OH216841   3.982   4.741   1.109
 5612TIP3    H116842   4.053   4.795   1.075
 5612TIP3    H216843   3.914   4.802   1.134
 5613TIP3   OH216844   2.763   2.042   3.317
 5613TIP3    H116845   2.817   1.981   3.367
 5613TIP3    H216846   2.676   2.035   3.356
 5614TIP3   OH216847   3.972   3.373   0.703
 5614TIP3    H116848   3.984   3.438   0.772
 5614TIP3    H216849   4.023   3.297   0.732
 5615TIP3   OH216850   1.285   0.008   1.423
 5615TIP3    H116851   1.380   0.001   1.423
 5615TIP3    H216852   1.262   0.025   1.515
 5616TIP3   OH216853   3.659   0.080   1.809
 5616TIP3    H116854   3.634   0.010   1.749
 5616TIP3    H216855   3.754   0.077   1.811
 5617TIP3   OH216856   3.355   5.318   1.211
 5617TIP3    H116857   3.420   5.257   1.177
 5617TIP3    H216858   3.369   5.399   1.161
 5618TIP3   OH216859   2.534   0.935   3.326
 5618TIP3    H116860   2.454   0.949   3.275
 5618TIP3    H216861   2.592   1.006   3.300
 5619TIP3   OH216862   2.270   4.246   3.970
 5619TIP3    H116863   2.289   4.305   4.042
 5619TIP3    H216864   2.244   4.164   4.012
 5620TIP3   OH216865   4.347   0.801   3.236
 5620TIP3    H116866   4.384   0.714   3.218
 5620TIP3    H216867   4.421   0.861   3.231
 5621TIP3   OH216868   1.041   2.176   3.309
 5621TIP3    H116869   0.989   2.102   3.276
 5621TIP3    H216870   1.120   2.135   3.345
 5622TIP3   OH216871   4.157   1.585   2.614
 5622TIP3    H116872   4.252   1.581   2.612
 5622TIP3    H216873   4.136   1.608   2.705
 5623TIP3   OH216874   1.465   0.587   2.087
 5623TIP3    H116875   1.544   0.614   2.039
 5623TIP3    H216876   1.448   0.659   2.148
 5624TIP3   OH216877   5.418   3.836   2.763
 5624TIP3    H116878   5.369   3.777   2.820
 5624TIP3    H216879   5.380   3.823   2.676
 5625TIP3   OH216880   2.638   2.315   2.994
 5625TIP3    H116881   2.718   2.312   3.047
 5625TIP3    H216882   2.569   2.288   3.054
 5626TIP3   OH216883   4.913   4.994   3.833
 5626TIP3    H116884   4.989   4.983   3.890
 5626TIP3    H216885   4.949   5.028   3.751
 5627TIP3   OH216886   2.926   0.066   2.728
 5627TIP3    H116887   3.000   0.033   2.677
 5627TIP3    H216888   2.966   0.118   2.798
 5628TIP3   OH216889   1.863   2.199   1.441
 5628TIP3    H116890   1.802   2.273   1.446
 5628TIP3    H216891   1.830   2.146   1.369
 5629TIP3   OH216892   4.174   1.173   0.574
 5629TIP3    H116893   4.083   1.165   0.546
 5629TIP3    H216894   4.169   1.209   0.662
 5630TIP3   OH216895   3.715   0.821   2.218
 5630TIP3    H116896   3.772   0.751   2.249
 5630TIP3    H216897   3.635   0.812   2.271
 5631TIP3   OH216898   5.451   5.207   3.773
 5631TIP3    H116899   5.470   5.277   3.834
 5631TIP3    H216900   5.532   5.154   3.771
 5632TIP3   OH216901   2.138   3.011   0.686
 5632TIP3    H116902   2.134   2.929   0.637
 5632TIP3    H216903   2.164   2.985   0.774
 5633TIP3   OH216904   2.466   2.883   0.825
 5633TIP3    H116905   2.446   2.792   0.849
 5633TIP3    H216906   2.385   2.930   0.844
 5634TIP3   OH216907   5.124   0.382   4.079
 5634TIP3    H116908   5.151   0.419   3.995
 5634TIP3    H216909   5.077   0.302   4.055
 5635TIP3   OH216910   1.396   2.178   3.903
 5635TIP3    H116911   1.362   2.267   3.890
 5635TIP3    H216912   1.347   2.145   3.978
 5636TIP3   OH216913   5.750   5.760   2.459
 5636TIP3    H116914   5.752   5.730   2.368
 5636TIP3    H216915   5.802   5.841   2.459
 5637TIP3   OH216916   0.025   4.748   4.055
 5637TIP3    H116917   0.037   4.694   4.133
 5637TIP3    H216918  -0.025   4.824   4.086
 5638TIP3   OH216919   2.970   2.381   1.137
 5638TIP3    H116920   2.954   2.455   1.079
 5638TIP3    H216921   2.970   2.419   1.225
 5639TIP3   OH216922   0.845   5.951   0.436
 5639TIP3    H116923   0.764   6.000   0.453
 5639TIP3    H216924   0.874   5.983   0.351
 5640TIP3   OH216925   6.108   3.778   4.860
 5640TIP3    H116926   6.125   3.822   4.777
 5640TIP3    H216927   6.042   3.712   4.840
 5641TIP3   OH216928   4.352   0.798   0.975
 5641TIP3    H116929   4.436   0.842   0.959
 5641TIP3    H216930   4.361   0.760   1.062
 5642TIP3   OH216931   1.173   2.885   3.885
 5642TIP3    H116932   1.225   2.919   3.959
 5642TIP3    H216933   1.125   2.811   3.922
 5643TIP3   OH216934   3.620   2.791   4.590
 5643TIP3    H116935   3.541   2.834   4.623
 5643TIP3    H216936   3.680   2.863   4.572
 5644TIP3   OH216937   4.593   0.921   2.014
 5644TIP3    H116938   4.574   0.829   1.998
 5644TIP3    H216939   4.542   0.943   2.093
 5645TIP3   OH216940   2.514   4.872   3.035
 5645TIP3    H116941   2.507   4.903   2.945
 5645TIP3    H216942   2.489   4.779   3.030
 5646TIP3   OH216943   2.370   0.878   3.678
 5646TIP3    H116944   2.363   0.963   3.633
 5646TIP3    H216945   2.464   0.865   3.688
 5647TIP3   OH216946   0.886   4.827   0.071
 5647TIP3    H116947   0.867   4.917   0.098
 5647TIP3    H216948   0.866   4.826  -0.023
 5648TIP3   OH216949   0.264   1.997   4.821
 5648TIP3    H116950   0.338   2.050   4.790
 5648TIP3    H216951   0.187   2.050   4.802
 5649TIP3   OH216952   3.870   1.930   2.034
 5649TIP3    H116953   3.844   1.977   2.113
 5649TIP3    H216954   3.908   1.848   2.066
 5650TIP3   OH216955   6.008   5.086   4.503
 5650TIP3    H116956   6.052   5.073   4.587
 5650TIP3    H216957   5.923   5.043   4.514
 5651TIP3   OH216958   6.217   4.338   2.252
 5651TIP3    H116959   6.312   4.326   2.253
 5651TIP3    H216960   6.204   4.431   2.271
 5652TIP3   OH216961   4.321   3.291   2.624
 5652TIP3    H116962   4.231   3.280   2.592
 5652TIP3    H216963   4.328   3.229   2.696
 5653TIP3   OH216964   0.386   0.182   4.692
 5653TIP3    H116965   0.416   0.182   4.783
 5653TIP3    H216966   0.466   0.169   4.641
 5654TIP3   OH216967   1.057   3.235   4.655
 5654TIP3    H116968   1.039   3.327   4.673
 5654TIP3    H216969   1.119   3.209   4.724
 5655TIP3   OH216970   5.308   5.865   2.471
 5655TIP3    H116971   5.267   5.851   2.556
 5655TIP3    H216972   5.238   5.900   2.416
 5656TIP3   OH216973   3.701   4.580   2.039
 5656TIP3    H116974   3.635   4.649   2.045
 5656TIP3    H216975   3.670   4.524   1.969
 5657TIP3   OH216976   0.069   0.410   2.970
 5657TIP3    H116977   0.066   0.506   2.964
 5657TIP3    H216978   0.110   0.393   3.055
 5658TIP3   OH216979   1.576   2.327   1.232
 5658TIP3    H116980   1.493   2.284   1.209
 5658TIP3    H216981   1.628   2.323   1.153
 5659TIP3   OH216982   3.135   3.781   4.504
 5659TIP3    H116983   3.189   3.706   4.478
 5659TIP3    H216984   3.055   3.742   4.540
 5660TIP3   OH216985   2.096   2.878   4.525
 5660TIP3    H116986   2.086   2.952   4.466
 5660TIP3    H216987   2.189   2.879   4.549
 5661TIP3   OH216988   5.562   5.963   2.832
 5661TIP3    H116989   5.589   5.943   2.922
 5661TIP3    H216990   5.582   5.883   2.783
 5662TIP3   OH216991   3.169   2.452   0.779
 5662TIP3    H116992   3.087   2.500   0.783
 5662TIP3    H216993   3.158   2.391   0.706
 5663TIP3   OH216994   1.827   5.742   1.394
 5663TIP3    H116995   1.772   5.665   1.381
 5663TIP3    H216996   1.786   5.789   1.467
 5664TIP3   OH216997   4.179   4.721   1.736
 5664TIP3    H116998   4.183   4.788   1.804
 5664TIP3    H216999   4.206   4.641   1.779
 5665TIP3   OH217000   0.340   3.624   2.709
 5665TIP3    H117001   0.417   3.574   2.733
 5665TIP3    H217002   0.284   3.561   2.663
 5666TIP3   OH217003   5.908   4.029   4.473
 5666TIP3    H117004   5.996   4.065   4.484
 5666TIP3    H217005   5.892   3.980   4.554
 5667TIP3   OH217006   4.483   4.731   1.614
 5667TIP3    H117007   4.469   4.773   1.699
 5667TIP3    H217008   4.540   4.792   1.566
 5668TIP3   OH217009   3.512   5.029   0.161
 5668TIP3    H117010   3.432   5.056   0.206
 5668TIP3    H217011   3.583   5.051   0.221
 5669TIP3   OH217012   3.277   5.659   3.929
 5669TIP3    H117013   3.371   5.679   3.925
 5669TIP3    H217014   3.236   5.743   3.950
 5670TIP3   OH217015   6.244   5.073   0.608
 5670TIP3    H117016   6.273   5.115   0.527
 5670TIP3    H217017   6.322   5.030   0.642
 5671TIP3   OH217018   2.660   3.659   4.031
 5671TIP3    H117019   2.655   3.664   4.127
 5671TIP3    H217020   2.621   3.574   4.009
 5672TIP3   OH217021   0.195   0.936   2.706
 5672TIP3    H117022   0.244   1.018   2.713
 5672TIP3    H217023   0.144   0.944   2.625
 5673TIP3   OH217024   0.845   0.951   4.398
 5673TIP3    H117025   0.870   1.029   4.448
 5673TIP3    H217026   0.928   0.908   4.377
 5674TIP3   OH217027   4.694   2.522   3.156
 5674TIP3    H117028   4.769   2.566   3.196
 5674TIP3    H217029   4.700   2.543   3.063
 5675TIP3   OH217030   5.514   3.672   4.130
 5675TIP3    H117031   5.476   3.583   4.128
 5675TIP3    H217032   5.476   3.711   4.209
 5676TIP3   OH217033   1.692   4.771   1.963
 5676TIP3    H117034   1.735   4.731   2.039
 5676TIP3    H217035   1.659   4.696   1.913
 5677TIP3   OH217036   0.293   0.613   4.656
 5677TIP3    H117037   0.361   0.565   4.610
 5677TIP3    H217038   0.341   0.670   4.716
 5678TIP3   OH217039   5.167   5.956   0.097
 5678TIP3    H117040   5.208   5.913   0.022
 5678TIP3    H217041   5.076   5.926   0.095
 5679TIP3   OH217042   0.834   4.553   1.044
 5679TIP3    H117043   0.839   4.609   0.966
 5679TIP3    H217044   0.811   4.614   1.115
 5680TIP3   OH217045   2.884   5.132   4.287
 5680TIP3    H117046   2.922   5.154   4.372
 5680TIP3    H217047   2.834   5.209   4.262
 5681TIP3   OH217048   2.624   4.173   4.916
 5681TIP3    H117049   2.703   4.228   4.917
 5681TIP3    H217050   2.560   4.223   4.966
 5682TIP3   OH217051   3.038   1.500   1.197
 5682TIP3    H117052   2.970   1.480   1.261
 5682TIP3    H217053   2.995   1.558   1.134
 5683TIP3   OH217054   1.882   0.431   2.350
 5683TIP3    H117055   1.876   0.519   2.313
 5683TIP3    H217056   1.834   0.376   2.289
 5684TIP3   OH217057   1.892   3.735   0.713
 5684TIP3    H117058   1.809   3.688   0.726
 5684TIP3    H217059   1.958   3.666   0.708
 5685TIP3   OH217060   2.532   0.103   3.702
 5685TIP3    H117061   2.512   0.029   3.760
 5685TIP3    H217062   2.451   0.155   3.701
 5686TIP3   OH217063   5.298   1.200   4.510
 5686TIP3    H117064   5.280   1.143   4.435
 5686TIP3    H217065   5.212   1.229   4.540
 5687TIP3   OH217066   1.415   3.146   4.548
 5687TIP3    H117067   1.387   3.236   4.530
 5687TIP3    H217068   1.335   3.094   4.542
 5688TIP3   OH217069   3.582   3.473   0.190
 5688TIP3    H117070   3.653   3.454   0.252
 5688TIP3    H217071   3.502   3.467   0.243
 5689TIP3   OH217072   5.053   2.385   3.222
 5689TIP3    H117073   5.141   2.421   3.213
 5689TIP3    H217074   5.045   2.324   3.149
 5690TIP3   OH217075   3.224   1.295   4.533
 5690TIP3    H117076   3.303   1.247   4.509
 5690TIP3    H217077   3.253   1.385   4.547
 5691TIP3   OH217078   4.048   5.166   3.832
 5691TIP3    H117079   3.972   5.218   3.805
 5691TIP3    H217080   4.038   5.158   3.927
 5692TIP3   OH217081   4.255   2.828   0.567
 5692TIP3    H117082   4.271   2.831   0.661
 5692TIP3    H217083   4.209   2.745   0.553
 5693TIP3   OH217084   1.245   4.494   3.196
 5693TIP3    H117085   1.281   4.523   3.280
 5693TIP3    H217086   1.217   4.404   3.211
 5694TIP3   OH217087   5.372   3.989   3.890
 5694TIP3    H117088   5.452   3.965   3.937
 5694TIP3    H217089   5.313   4.021   3.958
 5695TIP3   OH217090   5.424   2.135   2.514
 5695TIP3    H117091   5.460   2.072   2.451
 5695TIP3    H217092   5.386   2.080   2.583
 5696TIP3   OH217093   5.499   5.370   3.966
 5696TIP3    H117094   5.533   5.312   4.035
 5696TIP3    H217095   5.481   5.453   4.011
 5697TIP3   OH217096   2.286   0.487   1.857
 5697TIP3    H117097   2.237   0.417   1.814
 5697TIP3    H217098   2.378   0.461   1.847
 5698TIP3   OH217099   2.574   3.161   2.630
 5698TIP3    H117100   2.575   3.253   2.655
 5698TIP3    H217101   2.497   3.125   2.675
 5699TIP3   OH217102   3.533   3.287   0.858
 5699TIP3    H117103   3.484   3.211   0.890
 5699TIP3    H217104   3.614   3.250   0.822
 5700TIP3   OH217105   4.891   0.701   3.496
 5700TIP3    H117106   4.975   0.661   3.474
 5700TIP3    H217107   4.843   0.704   3.413
 5701TIP3   OH217108   4.490   1.311   0.389
 5701TIP3    H117109   4.412   1.316   0.332
 5701TIP3    H217110   4.515   1.402   0.402
 5702TIP3   OH217111   1.586   2.325   2.631
 5702TIP3    H117112   1.669   2.323   2.678
 5702TIP3    H217113   1.598   2.263   2.559
 5703TIP3   OH217114   2.895   0.988   1.837
 5703TIP3    H117115   2.943   0.940   1.904
 5703TIP3    H217116   2.806   0.954   1.842
 5704TIP3   OH217117   1.200   2.723   0.472
 5704TIP3    H117118   1.208   2.648   0.413
 5704TIP3    H217119   1.136   2.695   0.537
 5705TIP3   OH217120   1.413   4.557   0.623
 5705TIP3    H117121   1.375   4.622   0.564
 5705TIP3    H217122   1.497   4.594   0.648
 5706TIP3   OH217123   0.288   1.018   3.172
 5706TIP3    H117124   0.290   1.110   3.145
 5706TIP3    H217125   0.227   0.977   3.111
 5707TIP3   OH217126   0.514   3.399   2.776
 5707TIP3    H117127   0.542   3.445   2.855
 5707TIP3    H217128   0.431   3.357   2.801
 5708TIP3   OH217129   2.048   4.768   4.181
 5708TIP3    H117130   2.041   4.689   4.235
 5708TIP3    H217131   1.960   4.780   4.145
 5709TIP3   OH217132   2.780   3.091   0.661
 5709TIP3    H117133   2.829   3.040   0.596
 5709TIP3    H217134   2.757   3.028   0.729
 5710TIP3   OH217135   2.259   2.452   4.686
 5710TIP3    H117136   2.350   2.475   4.705
 5710TIP3    H217137   2.215   2.454   4.771
 5711TIP3   OH217138   4.586   2.122   3.531
 5711TIP3    H117139   4.647   2.113   3.457
 5711TIP3    H217140   4.563   2.032   3.553
 5712TIP3   OH217141   5.412   2.409   2.552
 5712TIP3    H117142   5.386   2.434   2.463
 5712TIP3    H217143   5.408   2.313   2.552
 5713TIP3   OH217144   3.516   2.629   3.878
 5713TIP3    H117145   3.583   2.624   3.946
 5713TIP3    H217146   3.461   2.703   3.904
 5714TIP3   OH217147   1.931   5.021   5.027
 5714TIP3    H117148   2.014   5.047   5.068
 5714TIP3    H217149   1.925   4.927   5.044
 5715TIP3   OH217150   1.189   4.813   5.148
 5715TIP3    H117151   1.255   4.811   5.218
 5715TIP3    H217152   1.213   4.741   5.090
 5716TIP3   OH217153   5.768   4.957   1.609
 5716TIP3    H117154   5.837   4.902   1.572
 5716TIP3    H217155   5.689   4.930   1.562
 5717TIP3   OH217156   0.724   0.698   4.032
 5717TIP3    H117157   0.667   0.623   4.015
 5717TIP3    H217158   0.674   0.752   4.093
 5718TIP3   OH217159   2.818   2.476   3.803
 5718TIP3    H117160   2.900   2.483   3.852
 5718TIP3    H217161   2.845   2.449   3.715
 5719TIP3   OH217162   6.071   0.129   0.055
 5719TIP3    H117163   6.109   0.044   0.079
 5719TIP3    H217164   6.098   0.141  -0.036
 5720TIP3   OH217165   2.375   1.339   4.544
 5720TIP3    H117166   2.371   1.422   4.497
 5720TIP3    H217167   2.284   1.312   4.554
 5721TIP3   OH217168   3.747   3.847   3.577
 5721TIP3    H117169   3.747   3.928   3.527
 5721TIP3    H217170   3.671   3.798   3.543
 5722TIP3   OH217171   2.965   1.279   3.791
 5722TIP3    H117172   2.889   1.289   3.733
 5722TIP3    H217173   2.927   1.251   3.874
 5723TIP3   OH217174   0.235   5.141   0.535
 5723TIP3    H117175   0.284   5.106   0.460
 5723TIP3    H217176   0.233   5.068   0.597
 5724TIP3   OH217177   1.351   3.801   4.564
 5724TIP3    H117178   1.290   3.819   4.492
 5724TIP3    H217179   1.333   3.710   4.587
 5725TIP3   OH217180   1.423   4.320   0.970
 5725TIP3    H117181   1.497   4.303   1.029
 5725TIP3    H217182   1.350   4.271   1.008
 5726TIP3   OH217183   5.883   4.752   0.648
 5726TIP3    H117184   5.825   4.796   0.709
 5726TIP3    H217185   5.846   4.771   0.561
 5727TIP3   OH217186   4.618   2.010   1.890
 5727TIP3    H117187   4.622   2.038   1.982
 5727TIP3    H217188   4.541   2.055   1.855
 5728TIP3   OH217189   3.905   0.130   4.017
 5728TIP3    H117190   3.810   0.130   4.010
 5728TIP3    H217191   3.923   0.088   4.101
 5729TIP3   OH217192   1.074   5.498   4.975
 5729TIP3    H117193   1.113   5.582   5.001
 5729TIP3    H217194   1.108   5.435   5.038
 5730TIP3   OH217195   2.237   4.420   3.569
 5730TIP3    H117196   2.228   4.364   3.646
 5730TIP3    H217197   2.163   4.397   3.513
 5731TIP3   OH217198   2.266   2.382   3.915
 5731TIP3    H117199   2.324   2.380   3.839
 5731TIP3    H217200   2.291   2.305   3.966
 5732TIP3   OH217201   5.641   3.071   1.114
 5732TIP3    H117202   5.686   3.113   1.188
 5732TIP3    H217203   5.557   3.118   1.108
 5733TIP3   OH217204   1.241   1.179   2.739
 5733TIP3    H117205   1.220   1.255   2.685
 5733TIP3    H217206   1.306   1.211   2.802
 5734TIP3   OH217207   1.165   3.117   4.401
 5734TIP3    H117208   1.094   3.092   4.342
 5734TIP3    H217209   1.120   3.149   4.479
 5735TIP3   OH217210   4.906   3.363   1.472
 5735TIP3    H117211   4.921   3.310   1.394
 5735TIP3    H217212   4.942   3.449   1.450
 5736TIP3   OH217213   1.528   0.232   1.387
 5736TIP3    H117214   1.570   0.317   1.398
 5736TIP3    H217215   1.443   0.242   1.430
 5737TIP3   OH217216   1.642   3.382   1.926
 5737TIP3    H117217   1.680   3.303   1.965
 5737TIP3    H217218   1.613   3.435   2.001
 5738TIP3   OH217219   4.864   4.818   2.887
 5738TIP3    H117220   4.940   4.875   2.877
 5738TIP3    H217221   4.901   4.729   2.886
 5739TIP3   OH217222   2.635   4.075   2.759
 5739TIP3    H117223   2.547   4.059   2.725
 5739TIP3    H217224   2.634   4.038   2.848
 5740TIP3   OH217225   6.135   2.758   1.277
 5740TIP3    H117226   6.091   2.834   1.237
 5740TIP3    H217227   6.226   2.766   1.249
 5741TIP3   OH217228   4.377   3.312   4.796
 5741TIP3    H117229   4.409   3.225   4.770
 5741TIP3    H217230   4.283   3.309   4.779
 5742TIP3   OH217231   4.915   1.225   3.346
 5742TIP3    H117232   5.006   1.248   3.366
 5742TIP3    H217233   4.891   1.165   3.416
 5743TIP3   OH217234   0.098   4.610   2.515
 5743TIP3    H117235   0.055   4.642   2.594
 5743TIP3    H217236   0.026   4.594   2.454
 5744TIP3   OH217237   1.325   4.887   3.567
 5744TIP3    H117238   1.258   4.954   3.577
 5744TIP3    H217239   1.394   4.912   3.628
 5745TIP3   OH217240   0.187   2.044   2.701
 5745TIP3    H117241   0.167   1.953   2.681
 5745TIP3    H217242   0.281   2.053   2.682
 5746TIP3   OH217243   4.515   4.781   3.556
 5746TIP3    H117244   4.461   4.809   3.630
 5746TIP3    H217245   4.480   4.694   3.533
 5747TIP3   OH217246   1.157   4.618   1.744
 5747TIP3    H117247   1.101   4.545   1.719
 5747TIP3    H217248   1.223   4.623   1.674
 5748TIP3   OH217249   1.804   3.194   2.061
 5748TIP3    H117250   1.878   3.244   2.095
 5748TIP3    H217251   1.833   3.163   1.975
 5749TIP3   OH217252   1.943   1.031   1.557
 5749TIP3    H117253   1.912   0.959   1.613
 5749TIP3    H217254   2.022   0.997   1.516
 5750TIP3   OH217255   2.517   5.693   3.359
 5750TIP3    H117256   2.495   5.635   3.286
 5750TIP3    H217257   2.581   5.644   3.410
 5751TIP3   OH217258   4.346   1.356   1.630
 5751TIP3    H117259   4.272   1.412   1.606
 5751TIP3    H217260   4.411   1.416   1.666
 5752TIP3   OH217261   2.052   1.487   4.754
 5752TIP3    H117262   2.068   1.555   4.689
 5752TIP3    H217263   2.083   1.406   4.713
 5753TIP3   OH217264   0.059   2.784   4.623
 5753TIP3    H117265   0.073   2.701   4.668
 5753TIP3    H217266   0.135   2.837   4.647
 5754TIP3   OH217267   1.776   5.266   0.630
 5754TIP3    H117268   1.734   5.315   0.559
 5754TIP3    H217269   1.869   5.268   0.609
 5755TIP3   OH217270   5.028   0.811   4.014
 5755TIP3    H117271   5.079   0.742   3.972
 5755TIP3    H217272   5.000   0.868   3.941
 5756TIP3   OH217273   4.011   1.900   1.213
 5756TIP3    H117274   4.038   1.981   1.170
 5756TIP3    H217275   4.013   1.834   1.143
 5757TIP3   OH217276   1.937   3.387   1.735
 5757TIP3    H117277   1.919   3.337   1.656
 5757TIP3    H217278   1.876   3.461   1.733
 5758TIP3   OH217279   1.237   0.250   0.261
 5758TIP3    H117280   1.143   0.256   0.247
 5758TIP3    H217281   1.257   0.322   0.321
 5759TIP3   OH217282   4.552   0.406   0.602
 5759TIP3    H117283   4.639   0.418   0.640
 5759TIP3    H217284   4.551   0.465   0.526
 5760TIP3   OH217285   5.418   4.778   4.047
 5760TIP3    H117286   5.493   4.758   4.104
 5760TIP3    H217287   5.394   4.693   4.009
 5761TIP3   OH217288   5.576   1.263   3.091
 5761TIP3    H117289   5.535   1.349   3.094
 5761TIP3    H217290   5.661   1.276   3.134
 5762TIP3   OH217291   2.497   2.491   0.342
 5762TIP3    H117292   2.515   2.491   0.248
 5762TIP3    H217293   2.573   2.447   0.380
 5763TIP3   OH217294   2.781   3.720   4.528
 5763TIP3    H117295   2.766   3.814   4.540
 5763TIP3    H217296   2.744   3.679   4.607
 5764TIP3   OH217297   4.649   4.236   2.153
 5764TIP3    H117298   4.563   4.209   2.120
 5764TIP3    H217299   4.707   4.226   2.078
 5765TIP3   OH217300   2.661   1.239   3.309
 5765TIP3    H117301   2.692   1.300   3.243
 5765TIP3    H217302   2.585   1.282   3.349
 5766TIP3   OH217303   6.034   4.515   3.103
 5766TIP3    H117304   5.963   4.466   3.145
 5766TIP3    H217305   6.035   4.600   3.148
 5767TIP3   OH217306   1.364   3.979   3.215
 5767TIP3    H117307   1.393   3.888   3.223
 5767TIP3    H217308   1.281   3.973   3.167
 5768TIP3   OH217309   1.480   1.328   3.238
 5768TIP3    H117310   1.510   1.246   3.198
 5768TIP3    H217311   1.420   1.301   3.307
 5769TIP3   OH217312   0.393   1.369   1.493
 5769TIP3    H117313   0.369   1.455   1.528
 5769TIP3    H217314   0.309   1.323   1.483
 5770TIP3   OH217315   3.373   2.903   1.609
 5770TIP3    H117316   3.462   2.876   1.588
 5770TIP3    H217317   3.368   2.898   1.705
 5771TIP3   OH217318   2.184   5.486   1.166
 5771TIP3    H117319   2.171   5.519   1.077
 5771TIP3    H217320   2.135   5.546   1.222
 5772TIP3   OH217321   5.768   3.803   3.432
 5772TIP3    H117322   5.696   3.865   3.439
 5772TIP3    H217323   5.758   3.745   3.508
 5773TIP3   OH217324   1.809   1.361   2.351
 5773TIP3    H117325   1.748   1.334   2.283
 5773TIP3    H217326   1.800   1.294   2.419
 5774TIP3   OH217327   6.053   5.301   3.338
 5774TIP3    H117328   6.089   5.374   3.389
 5774TIP3    H217329   6.119   5.233   3.344
 5775TIP3   OH217330   3.855   3.997   0.787
 5775TIP3    H117331   3.913   4.064   0.752
 5775TIP3    H217332   3.768   4.037   0.784
 5776TIP3   OH217333   6.234   5.670   4.915
 5776TIP3    H117334   6.266   5.705   4.832
 5776TIP3    H217335   6.144   5.642   4.896
 5777TIP3   OH217336   2.162   3.248   2.861
 5777TIP3    H117337   2.116   3.248   2.945
 5777TIP3    H217338   2.199   3.160   2.854
 5778TIP3   OH217339   5.055   3.953   1.980
 5778TIP3    H117340   5.087   4.032   2.023
 5778TIP3    H217341   5.112   3.942   1.904
 5779TIP3   OH217342   2.029   5.774   3.022
 5779TIP3    H117343   2.048   5.681   3.017
 5779TIP3    H217344   1.996   5.788   3.111
 5780TIP3   OH217345   6.112   5.749   4.514
 5780TIP3    H117346   6.070   5.668   4.540
 5780TIP3    H217347   6.180   5.764   4.580
 5781TIP3   OH217348   0.535   0.322   2.534
 5781TIP3    H117349   0.552   0.352   2.623
 5781TIP3    H217350   0.533   0.226   2.541
 5782TIP3   OH217351   5.897   3.250   2.104
 5782TIP3    H117352   5.971   3.305   2.130
 5782TIP3    H217353   5.937   3.169   2.073
 5783TIP3   OH217354   2.886   0.303   0.965
 5783TIP3    H117355   2.882   0.396   0.945
 5783TIP3    H217356   2.891   0.299   1.061
 5784TIP3   OH217357   4.733   3.335   1.915
 5784TIP3    H117358   4.784   3.407   1.951
 5784TIP3    H217359   4.673   3.310   1.985
 5785TIP3   OH217360   0.791   0.698   0.363
 5785TIP3    H117361   0.856   0.699   0.433
 5785TIP3    H217362   0.788   0.789   0.331
 5786TIP3   OH217363   4.597   3.271   4.473
 5786TIP3    H117364   4.608   3.366   4.470
 5786TIP3    H217365   4.687   3.237   4.481
 5787TIP3   OH217366   1.566   2.724   0.976
 5787TIP3    H117367   1.644   2.671   0.960
 5787TIP3    H217368   1.517   2.675   1.042
 5788TIP3   OH217369   3.392   0.113   1.238
 5788TIP3    H117370   3.475   0.107   1.286
 5788TIP3    H217371   3.394   0.199   1.197
 5789TIP3   OH217372   0.463   4.626   3.592
 5789TIP3    H117373   0.491   4.690   3.526
 5789TIP3    H217374   0.370   4.643   3.603
 5790TIP3   OH217375   4.584   1.361   4.721
 5790TIP3    H117376   4.602   1.283   4.773
 5790TIP3    H217377   4.581   1.329   4.631
 5791TIP3   OH217378   0.258   4.654   3.938
 5791TIP3    H117379   0.195   4.721   3.966
 5791TIP3    H217380   0.207   4.573   3.932
 5792TIP3   OH217381   3.170   5.617   4.897
 5792TIP3    H117382   3.086   5.631   4.941
 5792TIP3    H217383   3.176   5.689   4.833
 5793TIP3   OH217384   0.949   0.427   0.379
 5793TIP3    H117385   0.943   0.354   0.317
 5793TIP3    H217386   0.961   0.505   0.324
 5794TIP3   OH217387   0.123   5.985   2.890
 5794TIP3    H117388   0.182   5.943   2.827
 5794TIP3    H217389   0.153   5.955   2.975
 5795TIP3   OH217390   3.261   5.253   0.026
 5795TIP3    H117391   3.344   5.229  -0.015
 5795TIP3    H217392   3.258   5.349   0.021
 5796TIP3   OH217393   1.682   5.068   3.556
 5796TIP3    H117394   1.633   5.005   3.609
 5796TIP3    H217395   1.644   5.060   3.469
 5797TIP3   OH217396   2.695   4.101   1.867
 5797TIP3    H117397   2.714   4.010   1.889
 5797TIP3    H217398   2.728   4.111   1.778
 5798TIP3   OH217399   1.652   0.455   4.106
 5798TIP3    H117400   1.711   0.458   4.181
 5798TIP3    H217401   1.578   0.511   4.131
 5799TIP3   OH217402   0.907   4.194   0.301
 5799TIP3    H117403   0.971   4.221   0.367
 5799TIP3    H217404   0.824   4.228   0.334
 5800TIP3   OH217405   2.137   4.208   3.732
 5800TIP3    H117406   2.202   4.222   3.801
 5800TIP3    H217407   2.150   4.117   3.704
 5801TIP3   OH217408   5.689   4.898   2.860
 5801TIP3    H117409   5.677   4.876   2.952
 5801TIP3    H217410   5.711   4.814   2.819
 5802TIP3   OH217411   5.932   2.614   4.798
 5802TIP3    H117412   5.966   2.646   4.714
 5802TIP3    H217413   5.948   2.519   4.796
 5803TIP3   OH217414   5.274   5.659   0.879
 5803TIP3    H117415   5.332   5.655   0.803
 5803TIP3    H217416   5.188   5.683   0.843
 5804TIP3   OH217417   4.477   2.868   0.453
 5804TIP3    H117418   4.393   2.854   0.496
 5804TIP3    H217419   4.469   2.826   0.368
 5805TIP3   OH217420   3.935   5.737   1.189
 5805TIP3    H117421   3.912   5.705   1.276
 5805TIP3    H217422   3.852   5.764   1.151
 5806TIP3   OH217423   3.808   3.450   4.625
 5806TIP3    H117424   3.720   3.471   4.594
 5806TIP3    H217425   3.858   3.530   4.613
 5807TIP3   OH217426   4.905   4.027   1.628
 5807TIP3    H117427   4.907   4.025   1.532
 5807TIP3    H217428   4.906   3.935   1.654
 5808TIP3   OH217429   2.871   2.083   1.877
 5808TIP3    H117430   2.860   2.045   1.790
 5808TIP3    H217431   2.855   2.010   1.938
 5809TIP3   OH217432   5.806   2.930   1.822
 5809TIP3    H117433   5.845   2.844   1.837
 5809TIP3    H217434   5.880   2.986   1.797
 5810TIP3   OH217435   4.100   1.889   0.914
 5810TIP3    H117436   4.081   1.823   0.848
 5810TIP3    H217437   4.182   1.860   0.954
 5811TIP3   OH217438   0.286   4.788   2.166
 5811TIP3    H117439   0.244   4.704   2.145
 5811TIP3    H217440   0.305   4.782   2.260
 5812TIP3   OH217441   0.948   1.766   1.407
 5812TIP3    H117442   0.929   1.676   1.381
 5812TIP3    H217443   1.023   1.759   1.466
 5813TIP3   OH217444   3.585   3.262   1.290
 5813TIP3    H117445   3.617   3.350   1.273
 5813TIP3    H217446   3.592   3.252   1.385
 5814TIP3   OH217447   2.446   3.928   0.155
 5814TIP3    H117448   2.437   3.849   0.209
 5814TIP3    H217449   2.476   3.995   0.216
 5815TIP3   OH217450   4.632   1.804   2.918
 5815TIP3    H117451   4.537   1.812   2.928
 5815TIP3    H217452   4.662   1.894   2.900
 5816TIP3   OH217453   1.983   0.875   3.087
 5816TIP3    H117454   1.896   0.836   3.095
 5816TIP3    H217455   2.038   0.804   3.055
 5817TIP3   OH217456   4.698   5.605   1.320
 5817TIP3    H117457   4.678   5.523   1.274
 5817TIP3    H217458   4.664   5.592   1.408
 5818TIP3   OH217459   1.355   2.388   0.821
 5818TIP3    H117460   1.393   2.441   0.751
 5818TIP3    H217461   1.430   2.363   0.875
 5819TIP3   OH217462   4.812   1.887   0.724
 5819TIP3    H117463   4.905   1.904   0.705
 5819TIP3    H217464   4.772   1.974   0.725
 5820TIP3   OH217465   3.779   1.793   0.719
 5820TIP3    H117466   3.874   1.801   0.711
 5820TIP3    H217467   3.756   1.853   0.789
 5821TIP3   OH217468   0.457   3.191   0.813
 5821TIP3    H117469   0.386   3.177   0.875
 5821TIP3    H217470   0.533   3.211   0.868
 5822TIP3   OH217471   2.395   5.017   4.014
 5822TIP3    H117472   2.457   5.084   4.041
 5822TIP3    H217473   2.361   4.982   4.096
 5823TIP3   OH217474   0.173   0.336   3.496
 5823TIP3    H117475   0.235   0.298   3.558
 5823TIP3    H217476   0.136   0.262   3.449
 5824TIP3   OH217477   5.593   0.934   2.744
 5824TIP3    H117478   5.577   0.921   2.838
 5824TIP3    H217479   5.599   1.029   2.733
 5825TIP3   OH217480   0.967   2.798   1.518
 5825TIP3    H117481   0.881   2.768   1.546
 5825TIP3    H217482   1.028   2.749   1.573
 5826TIP3   OH217483   0.739   3.003   0.575
 5826TIP3    H117484   0.779   3.047   0.650
 5826TIP3    H217485   0.664   2.957   0.612
 5827TIP3   OH217486   6.066   1.489   3.141
 5827TIP3    H117487   6.004   1.560   3.156
 5827TIP3    H217488   6.122   1.520   3.070
 5828TIP3   OH217489   1.029   3.867   2.824
 5828TIP3    H117490   1.065   3.911   2.747
 5828TIP3    H217491   1.012   3.777   2.794
 5829TIP3   OH217492   1.613   0.108   0.231
 5829TIP3    H117493   1.613   0.013   0.221
 5829TIP3    H217494   1.549   0.139   0.166
 5830TIP3   OH217495   2.008   3.559   0.422
 5830TIP3    H117496   2.076   3.492   0.420
 5830TIP3    H217497   1.927   3.512   0.404
 5831TIP3   OH217498   5.625   2.602   3.504
 5831TIP3    H117499   5.641   2.645   3.420
 5831TIP3    H217500   5.642   2.670   3.569
 5832TIP3   OH217501   2.446   4.478   3.786
 5832TIP3    H117502   2.394   4.431   3.852
 5832TIP3    H217503   2.445   4.569   3.816
 5833TIP3   OH217504   0.420   2.221   3.987
 5833TIP3    H117505   0.340   2.169   3.999
 5833TIP3    H217506   0.424   2.277   4.065
 5834TIP3   OH217507   3.588   0.928   2.720
 5834TIP3    H117508   3.562   0.837   2.703
 5834TIP3    H217509   3.525   0.981   2.670
 5835TIP3   OH217510   5.338   3.591   2.904
 5835TIP3    H117511   5.249   3.598   2.870
 5835TIP3    H217512   5.329   3.536   2.982
 5836TIP3   OH217513   5.187   0.285   3.614
 5836TIP3    H117514   5.143   0.252   3.535
 5836TIP3    H217515   5.116   0.323   3.666
 5837TIP3   OH217516   1.194   2.538   1.357
 5837TIP3    H117517   1.208   2.451   1.322
 5837TIP3    H217518   1.124   2.528   1.421
 5838TIP3   OH217519   4.580   0.371   3.659
 5838TIP3    H117520   4.587   0.385   3.753
 5838TIP3    H217521   4.499   0.321   3.648
 5839TIP3   OH217522   3.083   5.195   3.748
 5839TIP3    H117523   3.172   5.162   3.758
 5839TIP3    H217524   3.051   5.205   3.838
 5840TIP3   OH217525   4.984   5.603   1.161
 5840TIP3    H117526   4.964   5.694   1.138
 5840TIP3    H217527   4.963   5.596   1.254
 5841TIP3   OH217528   1.773   0.789   3.455
 5841TIP3    H117529   1.789   0.714   3.398
 5841TIP3    H217530   1.733   0.855   3.397
 5842TIP3   OH217531   4.924   3.411   4.218
 5842TIP3    H117532   4.937   3.468   4.143
 5842TIP3    H217533   4.853   3.451   4.268
 5843TIP3   OH217534   2.704   2.898   3.469
 5843TIP3    H117535   2.755   2.908   3.549
 5843TIP3    H217536   2.653   2.818   3.483
 5844TIP3   OH217537   0.711   5.165   1.125
 5844TIP3    H117538   0.635   5.161   1.067
 5844TIP3    H217539   0.684   5.115   1.202
 5845TIP3   OH217540   2.500   2.738   1.923
 5845TIP3    H117541   2.506   2.781   1.839
 5845TIP3    H217542   2.569   2.778   1.976
 5846TIP3   OH217543   2.421   0.453   1.532
 5846TIP3    H117544   2.502   0.407   1.512
 5846TIP3    H217545   2.410   0.515   1.460
 5847TIP3   OH217546   4.150   4.890   2.014
 5847TIP3    H117547   4.190   4.971   1.983
 5847TIP3    H217548   4.060   4.894   1.982
 5848TIP3   OH217549   5.338   1.912   4.242
 5848TIP3    H117550   5.344   1.926   4.147
 5848TIP3    H217551   5.300   1.824   4.251
 5849TIP3   OH217552   3.870   5.129   1.780
 5849TIP3    H117553   3.895   5.215   1.746
 5849TIP3    H217554   3.888   5.135   1.874
 5850TIP3   OH217555   5.484   4.378   4.892
 5850TIP3    H117556   5.569   4.418   4.875
 5850TIP3    H217557   5.504   4.286   4.912
 5851TIP3   OH217558   2.895   5.313   5.031
 5851TIP3    H117559   2.811   5.289   5.070
 5851TIP3    H217560   2.906   5.406   5.053
 5852TIP3   OH217561   4.431   2.118   2.594
 5852TIP3    H117562   4.373   2.122   2.518
 5852TIP3    H217563   4.508   2.169   2.567
 5853TIP3   OH217564   0.303   0.131   1.160
 5853TIP3    H117565   0.378   0.113   1.103
 5853TIP3    H217566   0.256   0.048   1.165
 5854TIP3   OH217567   2.256   5.106   4.933
 5854TIP3    H117568   2.270   5.027   4.882
 5854TIP3    H217569   2.248   5.076   5.023
 5855TIP3   OH217570   5.335   2.927   2.848
 5855TIP3    H117571   5.385   2.845   2.844
 5855TIP3    H217572   5.385   2.983   2.907
 5856TIP3   OH217573   6.012   4.218   4.247
 5856TIP3    H117574   5.971   4.157   4.307
 5856TIP3    H217575   6.106   4.206   4.260
 5857TIP3   OH217576   1.923   3.799   2.518
 5857TIP3    H117577   1.854   3.865   2.520
 5857TIP3    H217578   1.934   3.779   2.424
 5858TIP3   OH217579   2.581   0.914   4.113
 5858TIP3    H117580   2.504   0.950   4.158
 5858TIP3    H217581   2.560   0.821   4.101
 5859TIP3   OH217582   3.874   5.926   3.790
 5859TIP3    H117583   3.915   5.998   3.838
 5859TIP3    H217584   3.859   5.962   3.702
 5860TIP3   OH217585   5.729   4.519   1.682
 5860TIP3    H117586   5.672   4.450   1.650
 5860TIP3    H217587   5.673   4.572   1.739
 5861TIP3   OH217588   4.224   1.377   2.846
 5861TIP3    H117589   4.226   1.328   2.929
 5861TIP3    H217590   4.315   1.378   2.817
 5862TIP3   OH217591   4.850   3.228   4.646
 5862TIP3    H117592   4.881   3.311   4.611
 5862TIP3    H217593   4.826   3.247   4.736
 5863TIP3   OH217594   3.730   0.180   1.173
 5863TIP3    H117595   3.705   0.232   1.097
 5863TIP3    H217596   3.746   0.092   1.138
 5864TIP3   OH217597   3.706   3.089   3.959
 5864TIP3    H117598   3.724   2.996   3.974
 5864TIP3    H217599   3.653   3.115   4.035
 5865TIP3   OH217600   0.652   4.549   2.883
 5865TIP3    H117601   0.596   4.543   2.806
 5865TIP3    H217602   0.698   4.633   2.873
 5866TIP3   OH217603   1.000   2.657   3.959
 5866TIP3    H117604   1.040   2.627   4.040
 5866TIP3    H217605   0.923   2.601   3.948
 5867TIP3   OH217606   3.245   4.263   3.451
 5867TIP3    H117607   3.308   4.248   3.522
 5867TIP3    H217608   3.295   4.245   3.371
 5868TIP3   OH217609   3.186   0.951   4.278
 5868TIP3    H117610   3.238   1.032   4.276
 5868TIP3    H217611   3.250   0.882   4.297
 5869TIP3   OH217612   6.263   4.850   4.981
 5869TIP3    H117613   6.215   4.848   5.064
 5869TIP3    H217614   6.196   4.837   4.914
 5870TIP3   OH217615   0.273   2.428   0.216
 5870TIP3    H117616   0.264   2.338   0.183
 5870TIP3    H217617   0.208   2.433   0.286
 5871TIP3   OH217618   2.695   4.672   3.188
 5871TIP3    H117619   2.648   4.728   3.126
 5871TIP3    H217620   2.645   4.678   3.269
 5872TIP3   OH217621   6.214   0.079   0.368
 5872TIP3    H117622   6.220   0.173   0.388
 5872TIP3    H217623   6.278   0.066   0.298
 5873TIP3   OH217624   5.980   3.822   3.882
 5873TIP3    H117625   5.900   3.785   3.920
 5873TIP3    H217626   6.048   3.802   3.945
 5874TIP3   OH217627   4.143   3.137   0.768
 5874TIP3    H117628   4.181   3.208   0.821
 5874TIP3    H217629   4.151   3.059   0.824
 5875TIP3   OH217630   1.041   2.440   3.286
 5875TIP3    H117631   1.121   2.486   3.262
 5875TIP3    H217632   1.059   2.348   3.268
 5876TIP3   OH217633   3.438   2.441   2.450
 5876TIP3    H117634   3.464   2.534   2.452
 5876TIP3    H217635   3.347   2.442   2.421
 5877TIP3   OH217636   5.775   2.818   1.293
 5877TIP3    H117637   5.775   2.861   1.379
 5877TIP3    H217638   5.832   2.742   1.305
 5878TIP3   OH217639   1.114   0.349   3.825
 5878TIP3    H117640   1.153   0.359   3.738
 5878TIP3    H217641   1.038   0.293   3.811
 5879TIP3   OH217642   3.053   4.429   2.227
 5879TIP3    H117643   3.110   4.480   2.169
 5879TIP3    H217644   2.999   4.376   2.167
 5880TIP3   OH217645   5.125   0.863   1.319
 5880TIP3    H117646   5.138   0.880   1.413
 5880TIP3    H217647   5.066   0.788   1.316
 5881TIP3   OH217648   3.723   1.392   1.760
 5881TIP3    H117649   3.655   1.328   1.782
 5881TIP3    H217650   3.713   1.406   1.666
 5882TIP3   OH217651   3.368   1.503   2.071
 5882TIP3    H117652   3.445   1.547   2.106
 5882TIP3    H217653   3.313   1.573   2.036
 5883TIP3   OH217654   3.460   4.712   0.152
 5883TIP3    H117655   3.488   4.803   0.154
 5883TIP3    H217656   3.540   4.663   0.132
 5884TIP3   OH217657   3.663   3.089   2.111
 5884TIP3    H117658   3.573   3.089   2.079
 5884TIP3    H217659   3.714   3.056   2.037
 5885TIP3   OH217660   0.624   2.933   4.052
 5885TIP3    H117661   0.597   3.025   4.057
 5885TIP3    H217662   0.574   2.889   4.120
 5886TIP3   OH217663   5.406   1.028   1.515
 5886TIP3    H117664   5.389   1.120   1.535
 5886TIP3    H217665   5.343   0.980   1.568
 5887TIP3   OH217666   3.184   4.999   2.423
 5887TIP3    H117667   3.101   4.954   2.412
 5887TIP3    H217668   3.163   5.091   2.410
 5888TIP3   OH217669   0.279   1.751   1.266
 5888TIP3    H117670   0.251   1.679   1.211
 5888TIP3    H217671   0.375   1.749   1.261
 5889TIP3   OH217672   5.003   4.729   2.292
 5889TIP3    H117673   5.065   4.765   2.230
 5889TIP3    H217674   5.029   4.637   2.302
 5890TIP3   OH217675   3.907   4.666   4.571
 5890TIP3    H117676   3.991   4.661   4.527
 5890TIP3    H217677   3.842   4.658   4.502
 5891TIP3   OH217678   6.041   2.572   3.816
 5891TIP3    H117679   6.025   2.478   3.828
 5891TIP3    H217680   6.100   2.576   3.740
 5892TIP3   OH217681   1.863   4.441   2.452
 5892TIP3    H117682   1.791   4.482   2.500
 5892TIP3    H217683   1.825   4.418   2.367
 5893TIP3   OH217684   3.863   3.886   1.338
 5893TIP3    H117685   3.846   3.830   1.414
 5893TIP3    H217686   3.958   3.889   1.330
 5894TIP3   OH217687   1.378   0.611   2.857
 5894TIP3    H117688   1.403   0.556   2.932
 5894TIP3    H217689   1.364   0.548   2.785
 5895TIP3   OH217690   1.366   1.092   0.627
 5895TIP3    H117691   1.360   1.110   0.721
 5895TIP3    H217692   1.438   1.029   0.619
 5896TIP3   OH217693   1.272   1.179   1.564
 5896TIP3    H117694   1.231   1.265   1.565
 5896TIP3    H217695   1.247   1.139   1.647
 5897TIP3   OH217696   4.459   2.921   2.554
 5897TIP3    H117697   4.419   2.859   2.615
 5897TIP3    H217698   4.412   2.907   2.472
 5898TIP3   OH217699   2.169   2.572   0.731
 5898TIP3    H117700   2.143   2.575   0.823
 5898TIP3    H217701   2.248   2.518   0.730
 5899TIP3   OH217702   1.991   0.836   1.764
 5899TIP3    H117703   2.059   0.870   1.823
 5899TIP3    H217704   2.010   0.743   1.757
 5900TIP3   OH217705   2.261   4.099   0.068
 5900TIP3    H117706   2.329   4.164   0.050
 5900TIP3    H217707   2.306   4.030   0.117
 5901TIP3   OH217708   5.817   1.335   3.226
 5901TIP3    H117709   5.890   1.314   3.284
 5901TIP3    H217710   5.794   1.425   3.248
 5902TIP3   OH217711   2.936   1.261   1.847
 5902TIP3    H117712   2.951   1.167   1.860
 5902TIP3    H217713   2.941   1.298   1.935
 5903TIP3   OH217714   1.369   3.806   2.547
 5903TIP3    H117715   1.352   3.737   2.484
 5903TIP3    H217716   1.422   3.764   2.615
 5904TIP3   OH217717   2.637   1.415   0.326
 5904TIP3    H117718   2.681   1.388   0.406
 5904TIP3    H217719   2.627   1.510   0.336
 5905TIP3   OH217720   4.906   3.519   3.365
 5905TIP3    H117721   4.948   3.599   3.395
 5905TIP3    H217722   4.845   3.548   3.297
 5906TIP3   OH217723   4.744   2.475   3.523
 5906TIP3    H117724   4.745   2.526   3.442
 5906TIP3    H217725   4.784   2.392   3.499
 5907TIP3   OH217726   2.564   5.767   4.980
 5907TIP3    H117727   2.571   5.825   4.904
 5907TIP3    H217728   2.628   5.698   4.963
 5908TIP3   OH217729   6.090   0.107   4.791
 5908TIP3    H117730   6.019   0.118   4.728
 5908TIP3    H217731   6.100   0.012   4.800
 5909TIP3   OH217732   3.560   5.447   0.046
 5909TIP3    H117733   3.559   5.461  -0.048
 5909TIP3    H217734   3.627   5.508   0.078
 5910TIP3   OH217735   3.081   5.846   4.291
 5910TIP3    H117736   3.175   5.830   4.301
 5910TIP3    H217737   3.076   5.923   4.235
 5911TIP3   OH217738   4.755   2.162   4.510
 5911TIP3    H117739   4.784   2.083   4.466
 5911TIP3    H217740   4.810   2.168   4.588
 5912TIP3   OH217741   4.008   0.433   4.538
 5912TIP3    H117742   4.097   0.458   4.514
 5912TIP3    H217743   3.990   0.354   4.488
 5913TIP3   OH217744   5.660   3.406   3.994
 5913TIP3    H117745   5.589   3.432   3.935
 5913TIP3    H217746   5.668   3.312   3.982
 5914TIP3   OH217747   3.862   1.385   0.395
 5914TIP3    H117748   3.914   1.314   0.433
 5914TIP3    H217749   3.875   1.376   0.301
 5915TIP3   OH217750   3.907   4.523   2.703
 5915TIP3    H117751   3.956   4.523   2.620
 5915TIP3    H217752   3.816   4.517   2.677
 5916TIP3   OH217753   3.106   4.441   1.872
 5916TIP3    H117754   3.127   4.394   1.792
 5916TIP3    H217755   3.120   4.533   1.850
 5917TIP3   OH217756   0.508   0.616   2.682
 5917TIP3    H117757   0.517   0.620   2.586
 5917TIP3    H217758   0.413   0.615   2.696
 5918TIP3   OH217759   2.002   3.973   2.184
 5918TIP3    H117760   1.915   3.933   2.189
 5918TIP3    H217761   1.993   4.040   2.115
 5919TIP3   OH217762   3.567   3.229   3.756
 5919TIP3    H117763   3.592   3.148   3.802
 5919TIP3    H217764   3.578   3.207   3.664
 5920TIP3   OH217765   6.340   2.080   0.809
 5920TIP3    H117766   6.367   2.029   0.733
 5920TIP3    H217767   6.267   2.030   0.846
 5921TIP3   OH217768   0.860   4.982   3.097
 5921TIP3    H117769   0.880   5.041   3.024
 5921TIP3    H217770   0.933   4.993   3.158
 5922TIP3   OH217771   1.533   0.688   4.477
 5922TIP3    H117772   1.620   0.670   4.440
 5922TIP3    H217773   1.544   0.680   4.571
 5923TIP3   OH217774   3.633   0.714   3.238
 5923TIP3    H117775   3.698   0.721   3.168
 5923TIP3    H217776   3.658   0.783   3.300
 5924TIP3   OH217777   1.973   0.897   4.240
 5924TIP3    H117778   1.958   0.974   4.186
 5924TIP3    H217779   1.970   0.929   4.330
 5925TIP3   OH217780   1.849   0.729   1.105
 5925TIP3    H117781   1.845   0.644   1.149
 5925TIP3    H217782   1.765   0.736   1.059
 5926TIP3   OH217783   5.148   2.337   0.546
 5926TIP3    H117784   5.124   2.417   0.500
 5926TIP3    H217785   5.067   2.309   0.589
 5927TIP3   OH217786   2.809   5.337   2.336
 5927TIP3    H117787   2.826   5.249   2.302
 5927TIP3    H217788   2.717   5.334   2.365
 5928TIP3   OH217789   4.984   0.152   3.956
 5928TIP3    H117790   4.979   0.211   3.880
 5928TIP3    H217791   4.949   0.069   3.923
 5929TIP3   OH217792   1.893   1.615   4.023
 5929TIP3    H117793   1.890   1.520   4.008
 5929TIP3    H217794   1.837   1.652   3.954
 5930TIP3   OH217795   2.960   2.939   3.029
 5930TIP3    H117796   2.947   3.030   3.057
 5930TIP3    H217797   3.012   2.946   2.949
 5931TIP3   OH217798   5.147   1.710   1.084
 5931TIP3    H117799   5.092   1.782   1.114
 5931TIP3    H217800   5.132   1.706   0.990
 5932TIP3   OH217801   0.675   1.704   3.675
 5932TIP3    H117802   0.676   1.742   3.587
 5932TIP3    H217803   0.624   1.766   3.727
 5933TIP3   OH217804   3.291   0.902   4.987
 5933TIP3    H117805   3.290   0.998   4.981
 5933TIP3    H217806   3.350   0.875   4.917
 5934TIP3   OH217807   3.974   5.697   4.370
 5934TIP3    H117808   3.962   5.620   4.426
 5934TIP3    H217809   4.062   5.686   4.334
 5935TIP3   OH217810   2.529   2.758   0.450
 5935TIP3    H117811   2.577   2.769   0.368
 5935TIP3    H217812   2.502   2.667   0.450
 5936TIP3   OH217813   6.248   5.265   0.819
 5936TIP3    H117814   6.231   5.219   0.736
 5936TIP3    H217815   6.163   5.265   0.864
 5937TIP3   OH217816   3.296   5.394   4.979
 5937TIP3    H117817   3.258   5.472   4.938
 5937TIP3    H217818   3.263   5.321   4.927
 5938TIP3   OH217819   3.906   5.445   0.783
 5938TIP3    H117820   3.849   5.490   0.721
 5938TIP3    H217821   3.861   5.452   0.867
 5939TIP3   OH217822  -0.000   5.916   0.479
 5939TIP3    H117823   0.068   5.868   0.431
 5939TIP3    H217824   0.001   6.004   0.441
 5940TIP3   OH217825   4.189   3.842   3.380
 5940TIP3    H117826   4.225   3.805   3.299
 5940TIP3    H217827   4.243   3.920   3.397
 5941TIP3   OH217828   3.840   0.459   4.171
 5941TIP3    H117829   3.901   0.411   4.115
 5941TIP3    H217830   3.776   0.393   4.199
 5942TIP3   OH217831   0.616   4.187   0.623
 5942TIP3    H117832   0.699   4.233   0.634
 5942TIP3    H217833   0.625   4.107   0.674
 5943TIP3   OH217834   0.402   1.445   2.773
 5943TIP3    H117835   0.478   1.459   2.830
 5943TIP3    H217836   0.434   1.389   2.702
 5944TIP3   OH217837   3.097   1.728   2.877
 5944TIP3    H117838   3.058   1.806   2.838
 5944TIP3    H217839   3.163   1.699   2.814
 5945TIP3   OH217840   3.026   1.464   2.755
 5945TIP3    H117841   3.020   1.449   2.850
 5945TIP3    H217842   3.011   1.558   2.745
 5946TIP3   OH217843   2.245   0.060   2.151
 5946TIP3    H117844   2.206   0.121   2.214
 5946TIP3    H217845   2.184   0.060   2.078
 5947TIP3   OH217846   1.765   0.562   4.957
 5947TIP3    H117847   1.807   0.483   4.993
 5947TIP3    H217848   1.836   0.626   4.951
 5948TIP3   OH217849   0.440   5.324   0.733
 5948TIP3    H117850   0.372   5.298   0.672
 5948TIP3    H217851   0.469   5.410   0.702
 5949TIP3   OH217852   4.119   2.515   4.347
 5949TIP3    H117853   4.077   2.489   4.429
 5949TIP3    H217854   4.066   2.587   4.314
 5950TIP3   OH217855   4.644   4.410   3.450
 5950TIP3    H117856   4.651   4.388   3.357
 5950TIP3    H217857   4.550   4.423   3.464
 5951TIP3   OH217858   5.005   0.676   4.781
 5951TIP3    H117859   5.007   0.588   4.818
 5951TIP3    H217860   4.966   0.729   4.850
 5952TIP3   OH217861   0.857   2.270   4.059
 5952TIP3    H117862   0.884   2.187   4.021
 5952TIP3    H217863   0.818   2.319   3.987
 5953TIP3   OH217864   1.142   3.403   1.488
 5953TIP3    H117865   1.155   3.469   1.420
 5953TIP3    H217866   1.220   3.347   1.481
 5954TIP3   OH217867   5.923   2.770   0.837
 5954TIP3    H117868   6.000   2.775   0.894
 5954TIP3    H217869   5.851   2.802   0.890
 5955TIP3   OH217870   3.925   1.139   0.477
 5955TIP3    H117871   3.887   1.061   0.438
 5955TIP3    H217872   3.888   1.142   0.565
 5956TIP3   OH217873   1.851   0.918   0.733
 5956TIP3    H117874   1.882   0.828   0.730
 5956TIP3    H217875   1.857   0.942   0.826
 5957TIP3   OH217876   4.847   3.562   0.738
 5957TIP3    H117877   4.845   3.539   0.645
 5957TIP3    H217878   4.776   3.511   0.777
 5958TIP3   OH217879   5.685   0.857   3.180
 5958TIP3    H117880   5.764   0.900   3.214
 5958TIP3    H217881   5.718   0.789   3.121
 5959TIP3   OH217882   0.284   2.546   4.028
 5959TIP3    H117883   0.196   2.533   3.992
 5959TIP3    H217884   0.342   2.541   3.952
 5960TIP3   OH217885   1.151   5.524   0.341
 5960TIP3    H117886   1.143   5.473   0.260
 5960TIP3    H217887   1.224   5.583   0.326
 5961TIP3   OH217888   5.135   0.730   4.355
 5961TIP3    H117889   5.217   0.756   4.314
 5961TIP3    H217890   5.137   0.635   4.355
 5962TIP3   OH217891   2.616   0.304   3.280
 5962TIP3    H117892   2.602   0.216   3.315
 5962TIP3    H217893   2.529   0.344   3.281
 5963TIP3   OH217894   3.878   1.069   0.748
 5963TIP3    H117895   3.902   0.978   0.735
 5963TIP3    H217896   3.901   1.088   0.839
 5964TIP3   OH217897   5.881   0.709   3.566
 5964TIP3    H117898   5.866   0.800   3.538
 5964TIP3    H217899   5.961   0.713   3.618
 5965TIP3   OH217900   2.226   5.126   2.411
 5965TIP3    H117901   2.162   5.117   2.340
 5965TIP3    H217902   2.190   5.194   2.467
 5966TIP3   OH217903   2.989   1.215   4.679
 5966TIP3    H117904   3.060   1.256   4.629
 5966TIP3    H217905   2.976   1.130   4.637
 5967TIP3   OH217906   3.931   1.473   1.341
 5967TIP3    H117907   3.848   1.429   1.359
 5967TIP3    H217908   3.998   1.412   1.375
 5968TIP3   OH217909   0.359   5.555   0.238
 5968TIP3    H117910   0.431   5.552   0.175
 5968TIP3    H217911   0.280   5.557   0.185
 5969TIP3   OH217912   4.868   5.414   4.420
 5969TIP3    H117913   4.819   5.386   4.498
 5969TIP3    H217914   4.960   5.410   4.448
 5970TIP3   OH217915   5.434   5.705   3.964
 5970TIP3    H117916   5.422   5.782   4.019
 5970TIP3    H217917   5.376   5.639   4.002
 5971TIP3   OH217918   5.755   1.318   3.554
 5971TIP3    H117919   5.733   1.233   3.517
 5971TIP3    H217920   5.674   1.350   3.594
 5972TIP3   OH217921   6.277   5.101   2.131
 5972TIP3    H117922   6.246   5.186   2.162
 5972TIP3    H217923   6.372   5.110   2.125
 5973TIP3   OH217924   1.239   4.457   4.713
 5973TIP3    H117925   1.270   4.389   4.653
 5973TIP3    H217926   1.143   4.456   4.703
 5974TIP3   OH217927   1.023   2.632   0.647
 5974TIP3    H117928   0.939   2.648   0.603
 5974TIP3    H217929   1.000   2.582   0.725
 5975TIP3   OH217930   1.936   2.640   1.214
 5975TIP3    H117931   1.926   2.547   1.193
 5975TIP3    H217932   1.890   2.650   1.297
 5976TIP3   OH217933   3.329   5.028   1.436
 5976TIP3    H117934   3.337   5.108   1.487
 5976TIP3    H217935   3.248   4.987   1.468
 5977TIP3   OH217936   2.871   0.607   0.561
 5977TIP3    H117937   2.942   0.629   0.621
 5977TIP3    H217938   2.801   0.576   0.619
 5978TIP3   OH217939   2.763   2.787   3.212
 5978TIP3    H117940   2.725   2.715   3.262
 5978TIP3    H217941   2.758   2.863   3.270
 5979TIP3   OH217942   1.750   1.870   0.436
 5979TIP3    H117943   1.696   1.827   0.369
 5979TIP3    H217944   1.766   1.958   0.400
 5980TIP3   OH217945   5.257   0.713   3.588
 5980TIP3    H117946   5.209   0.686   3.509
 5980TIP3    H217947   5.216   0.662   3.659
 5981TIP3   OH217948   0.711   3.132   2.905
 5981TIP3    H117949   0.631   3.151   2.955
 5981TIP3    H217950   0.680   3.116   2.816
 5982TIP3   OH217951   1.626   4.289   0.744
 5982TIP3    H117952   1.591   4.202   0.726
 5982TIP3    H217953   1.573   4.321   0.817
 5983TIP3   OH217954   1.789   2.678   3.900
 5983TIP3    H117955   1.870   2.630   3.880
 5983TIP3    H217956   1.774   2.732   3.822
 5984TIP3   OH217957   4.808   0.069   1.476
 5984TIP3    H117958   4.903   0.067   1.470
 5984TIP3    H217959   4.789   0.061   1.570
 5985TIP3   OH217960   0.226   5.163   3.865
 5985TIP3    H117961   0.179   5.082   3.843
 5985TIP3    H217962   0.219   5.217   3.787
 5986TIP3   OH217963   1.983   1.908   5.130
 5986TIP3    H117964   1.979   1.854   5.051
 5986TIP3    H217965   1.952   1.995   5.102
 5987TIP3   OH217966   2.153   2.943   2.750
 5987TIP3    H117967   2.162   2.949   2.655
 5987TIP3    H217968   2.240   2.961   2.784
 5988TIP3   OH217969   5.803   3.880   2.228
 5988TIP3    H117970   5.823   3.889   2.322
 5988TIP3    H217971   5.774   3.968   2.202
 5989TIP3   OH217972   2.694   2.813   5.140
 5989TIP3    H117973   2.732   2.779   5.221
 5989TIP3    H217974   2.619   2.866   5.169
 5990TIP3   OH217975   2.620   5.888   1.099
 5990TIP3    H117976   2.565   5.813   1.121
 5990TIP3    H217977   2.707   5.850   1.086
 5991TIP3   OH217978   2.644   0.328   0.512
 5991TIP3    H117979   2.573   0.274   0.548
 5991TIP3    H217980   2.721   0.302   0.563
 5992TIP3   OH217981   1.598   2.684   1.723
 5992TIP3    H117982   1.536   2.667   1.652
 5992TIP3    H217983   1.551   2.659   1.803
 5993TIP3   OH217984   3.878   1.839   4.719
 5993TIP3    H117985   3.882   1.927   4.754
 5993TIP3    H217986   3.785   1.819   4.713
 5994TIP3   OH217987   0.363   1.694   3.526
 5994TIP3    H117988   0.338   1.766   3.584
 5994TIP3    H217989   0.436   1.651   3.571
 5995TIP3   OH217990   2.775   0.964   0.249
 5995TIP3    H117991   2.841   0.898   0.226
 5995TIP3    H217992   2.818   1.047   0.231
 5996TIP3   OH217993   1.440   4.337   1.539
 5996TIP3    H117994   1.419   4.271   1.473
 5996TIP3    H217995   1.373   4.325   1.606
 5997TIP3   OH217996   6.178   1.978   3.751
 5997TIP3    H117997   6.143   1.897   3.714
 5997TIP3    H217998   6.131   1.990   3.833
 5998TIP3   OH217999   1.554   3.879   1.124
 5998TIP3    H118000   1.578   3.971   1.109
 5998TIP3    H218001   1.634   3.830   1.105
 5999TIP3   OH218002   2.739   4.787   2.555
 5999TIP3    H118003   2.741   4.846   2.630
 5999TIP3    H218004   2.822   4.803   2.510
 6000TIP3   OH218005   1.386   0.840   2.705
 6000TIP3    H118006   1.378   0.895   2.784
 6000TIP3    H218007   1.408   0.753   2.739
 6001TIP3   OH218008   0.439   5.391   2.807
 6001TIP3    H118009   0.506   5.341   2.854
 6001TIP3    H218010   0.488   5.462   2.766
 6002TIP3   OH218011   3.299   1.956   3.427
 6002TIP3    H118012   3.275   1.958   3.520
 6002TIP3    H218013   3.375   2.014   3.421
 6003TIP3   OH218014   2.886   3.305   3.622
 6003TIP3    H118015   2.945   3.336   3.691
 6003TIP3    H218016   2.873   3.212   3.642
 6004TIP3   OH218017   2.245   2.681   1.777
 6004TIP3    H118018   2.335   2.670   1.807
 6004TIP3    H218019   2.193   2.688   1.857
 6005TIP3   OH218020   2.729   1.362   3.674
 6005TIP3    H118021   2.675   1.416   3.616
 6005TIP3    H218022   2.666   1.311   3.725
 6006TIP3   OH218023   1.917   0.192   1.593
 6006TIP3    H118024   1.853   0.122   1.577
 6006TIP3    H218025   1.944   0.219   1.506
 6007TIP3   OH218026   6.220   0.087   3.047
 6007TIP3    H118027   6.157   0.076   2.976
 6007TIP3    H218028   6.181   0.151   3.106
 6008TIP3   OH218029   2.856   2.663   3.536
 6008TIP3    H118030   2.946   2.631   3.530
 6008TIP3    H218031   2.813   2.602   3.596
 6009TIP3   OH218032   2.749   0.662   1.750
 6009TIP3    H118033   2.825   0.713   1.719
 6009TIP3    H218034   2.686   0.729   1.776
 6010TIP3   OH218035   0.303   1.605   1.593
 6010TIP3    H118036   0.308   1.697   1.570
 6010TIP3    H218037   0.345   1.599   1.679
 6011TIP3   OH218038   3.374   2.397   3.811
 6011TIP3    H118039   3.402   2.482   3.845
 6011TIP3    H218040   3.340   2.416   3.723
 6012TIP3   OH218041   0.593   0.783   1.439
 6012TIP3    H118042   0.606   0.874   1.465
 6012TIP3    H218043   0.565   0.788   1.348
 6013TIP3   OH218044   2.431   5.822   2.915
 6013TIP3    H118045   2.450   5.915   2.927
 6013TIP3    H218046   2.427   5.810   2.820
 6014TIP3   OH218047   3.747   4.011   0.377
 6014TIP3    H118048   3.750   3.937   0.437
 6014TIP3    H218049   3.764   4.087   0.433
 6015TIP3   OH218050   3.944   4.053   4.709
 6015TIP3    H118051   3.859   4.042   4.667
 6015TIP3    H218052   3.958   3.971   4.756
 6016TIP3   OH218053   0.179   3.309   3.682
 6016TIP3    H118054   0.269   3.277   3.693
 6016TIP3    H218055   0.165   3.309   3.588
 6017TIP3   OH218056   4.365   4.598   3.079
 6017TIP3    H118057   4.424   4.524   3.062
 6017TIP3    H218058   4.338   4.628   2.992
 6018TIP3   OH218059   0.102   5.650   3.251
 6018TIP3    H118060   0.145   5.674   3.333
 6018TIP3    H218061   0.160   5.585   3.212
 6019TIP3   OH218062   2.064   2.771   2.001
 6019TIP3    H118063   1.972   2.783   2.025
 6019TIP3    H218064   2.101   2.718   2.072
 6020TIP3   OH218065   5.289   5.791   1.372
 6020TIP3    H118066   5.300   5.803   1.278
 6020TIP3    H218067   5.352   5.851   1.412
 6021TIP3   OH218068   1.264   2.250   1.781
 6021TIP3    H118069   1.229   2.202   1.855
 6021TIP3    H218070   1.209   2.328   1.774
 6022TIP3   OH218071   6.085   5.379   4.575
 6022TIP3    H118072   6.108   5.291   4.603
 6022TIP3    H218073   6.166   5.415   4.539
 6023TIP3   OH218074   5.816   3.972   0.347
 6023TIP3    H118075   5.770   4.044   0.391
 6023TIP3    H218076   5.770   3.962   0.264
 6024TIP3   OH218077   0.951   0.237   0.173
 6024TIP3    H118078   0.956   0.296   0.098
 6024TIP3    H218079   0.943   0.150   0.134
 6025TIP3   OH218080   4.447   2.598   2.248
 6025TIP3    H118081   4.519   2.614   2.309
 6025TIP3    H218082   4.441   2.503   2.242
 6026TIP3   OH218083   4.471   4.583   3.819
 6026TIP3    H118084   4.394   4.527   3.811
 6026TIP3    H218085   4.500   4.571   3.910
 6027TIP3   OH218086   0.503   2.218   1.553
 6027TIP3    H118087   0.558   2.286   1.593
 6027TIP3    H218088   0.422   2.221   1.604
 6028TIP3   OH218089   2.608   1.821   4.934
 6028TIP3    H118090   2.612   1.790   5.024
 6028TIP3    H218091   2.689   1.872   4.923
 6029TIP3   OH218092   0.354   5.549   3.051
 6029TIP3    H118093   0.369   5.523   3.141
 6029TIP3    H218094   0.419   5.500   3.001
 6030TIP3   OH218095   2.473   5.232   4.174
 6030TIP3    H118096   2.515   5.303   4.222
 6030TIP3    H218097   2.520   5.153   4.202
 6031TIP3   OH218098   2.886   0.884   3.848
 6031TIP3    H118099   2.906   0.791   3.847
 6031TIP3    H218100   2.932   0.918   3.925
 6032TIP3   OH218101   0.902   3.872   0.008
 6032TIP3    H118102   0.988   3.830   0.017
 6032TIP3    H218103   0.858   3.852   0.091
 6033TIP3   OH218104   2.048   4.566   4.633
 6033TIP3    H118105   2.085   4.480   4.653
 6033TIP3    H218106   2.054   4.615   4.715
 6034TIP3   OH218107   0.022   0.223   4.065
 6034TIP3    H118108   0.055   0.269   4.142
 6034TIP3    H218109   0.025   0.130   4.088
 6035TIP3   OH218110   5.671   3.426   2.422
 6035TIP3    H118111   5.600   3.377   2.464
 6035TIP3    H218112   5.674   3.393   2.333
 6036TIP3   OH218113   3.834   1.199   3.700
 6036TIP3    H118114   3.770   1.128   3.691
 6036TIP3    H218115   3.785   1.269   3.744
 6037TIP3   OH218116   2.482   0.415   2.265
 6037TIP3    H118117   2.511   0.481   2.202
 6037TIP3    H218118   2.402   0.453   2.304
 6038TIP3   OH218119   3.899   1.849   2.742
 6038TIP3    H118120   3.839   1.783   2.708
 6038TIP3    H218121   3.964   1.799   2.791
 6039TIP3   OH218122   2.130   1.185   0.116
 6039TIP3    H118123   2.110   1.114   0.177
 6039TIP3    H218124   2.047   1.205   0.073
 6040TIP3   OH218125   4.316   3.429   0.263
 6040TIP3    H118126   4.304   3.338   0.289
 6040TIP3    H218127   4.275   3.436   0.177
 6041TIP3   OH218128   4.361   1.566   0.672
 6041TIP3    H118129   4.365   1.470   0.679
 6041TIP3    H218130   4.301   1.582   0.600
 6042TIP3   OH218131   2.433   4.563   3.464
 6042TIP3    H118132   2.507   4.560   3.524
 6042TIP3    H218133   2.365   4.510   3.506
 6043TIP3   OH218134   1.145   2.414   3.582
 6043TIP3    H118135   1.235   2.398   3.553
 6043TIP3    H218136   1.124   2.338   3.637
 6044TIP3   OH218137   6.230   3.660   3.811
 6044TIP3    H118138   6.268   3.672   3.898
 6044TIP3    H218139   6.280   3.719   3.755
 6045TIP3   OH218140   0.455   0.473   1.835
 6045TIP3    H118141   0.414   0.428   1.909
 6045TIP3    H218142   0.424   0.425   1.758
 6046TIP3   OH218143   3.990   4.418   1.958
 6046TIP3    H118144   3.970   4.511   1.945
 6046TIP3    H218145   4.079   4.408   1.926
 6047TIP3   OH218146   6.309   1.607   3.357
 6047TIP3    H118147   6.256   1.534   3.389
 6047TIP3    H218148   6.324   1.586   3.265
 6048TIP3   OH218149   1.286   4.125   4.156
 6048TIP3    H118150   1.350   4.074   4.105
 6048TIP3    H218151   1.309   4.216   4.138
 6049TIP3   OH218152   0.068   2.880   0.111
 6049TIP3    H118153   0.089   2.967   0.078
 6049TIP3    H218154   0.072   2.824   0.034
 6050TIP3   OH218155   3.011   3.373   0.834
 6050TIP3    H118156   3.069   3.449   0.833
 6050TIP3    H218157   3.066   3.301   0.864
 6051TIP3   OH218158   3.999   5.805   4.804
 6051TIP3    H118159   4.054   5.804   4.881
 6051TIP3    H218160   4.060   5.804   4.730
 6052TIP3   OH218161   5.433   4.135   3.636
 6052TIP3    H118162   5.448   4.079   3.713
 6052TIP3    H218163   5.362   4.194   3.663
 6053TIP3   OH218164   6.038   1.264   1.231
 6053TIP3    H118165   5.955   1.277   1.185
 6053TIP3    H218166   6.015   1.209   1.306
 6054TIP3   OH218167   5.244   3.186   3.235
 6054TIP3    H118168   5.158   3.227   3.241
 6054TIP3    H218169   5.225   3.092   3.225
 6055TIP3   OH218170   5.059   1.415   2.081
 6055TIP3    H118171   4.994   1.425   2.013
 6055TIP3    H218172   5.067   1.320   2.093
 6056TIP3   OH218173   2.732   3.114   2.404
 6056TIP3    H118174   2.703   3.039   2.352
 6056TIP3    H218175   2.690   3.103   2.489
 6057TIP3   OH218176   6.111   3.001   0.025
 6057TIP3    H118177   6.097   2.910  -0.003
 6057TIP3    H218178   6.204   3.016   0.012
 6058TIP3   OH218179   5.676   5.061   2.581
 6058TIP3    H118180   5.715   5.050   2.668
 6058TIP3    H218181   5.603   4.999   2.579
 6059TIP3   OH218182   4.269   4.312   0.628
 6059TIP3    H118183   4.344   4.367   0.648
 6059TIP3    H218184   4.293   4.225   0.659
 6060TIP3   OH218185   1.729   2.874   1.156
 6060TIP3    H118186   1.743   2.829   1.239
 6060TIP3    H218187   1.661   2.821   1.112
 6061TIP3   OH218188   4.785   5.841   3.715
 6061TIP3    H118189   4.741   5.758   3.693
 6061TIP3    H218190   4.809   5.831   3.807
 6062TIP3   OH218191   3.080   1.611   2.421
 6062TIP3    H118192   3.100   1.558   2.344
 6062TIP3    H218193   3.053   1.548   2.487
 6063TIP3   OH218194   4.211   3.269   3.006
 6063TIP3    H118195   4.150   3.305   2.942
 6063TIP3    H218196   4.162   3.198   3.048
 6064TIP3   OH218197   6.312   3.768   3.339
 6064TIP3    H118198   6.330   3.786   3.431
 6064TIP3    H218199   6.245   3.700   3.340
 6065TIP3   OH218200   5.458   4.896   2.563
 6065TIP3    H118201   5.431   4.811   2.597
 6065TIP3    H218202   5.406   4.959   2.612
 6066TIP3   OH218203   0.272   3.286   0.105
 6066TIP3    H118204   0.286   3.334   0.023
 6066TIP3    H218205   0.355   3.240   0.119
 6067TIP3   OH218206   0.118   1.922   3.079
 6067TIP3    H118207   0.040   1.874   3.105
 6067TIP3    H218208   0.180   1.854   3.052
 6068TIP3   OH218209   2.645   0.112   1.381
 6068TIP3    H118210   2.686   0.194   1.353
 6068TIP3    H218211   2.665   0.050   1.310
 6069TIP3   OH218212   4.573   0.957   4.673
 6069TIP3    H118213   4.550   0.944   4.765
 6069TIP3    H218214   4.515   0.898   4.626
 6070TIP3   OH218215   2.403   0.653   3.044
 6070TIP3    H118216   2.451   0.669   2.963
 6070TIP3    H218217   2.361   0.736   3.063
 6071TIP3   OH218218   5.121   1.990   2.531
 6071TIP3    H118219   5.127   2.008   2.438
 6071TIP3    H218220   5.121   2.076   2.573
 6072TIP3   OH218221   3.522   5.639   4.202
 6072TIP3    H118222   3.591   5.643   4.136
 6072TIP3    H218223   3.494   5.547   4.201
 6073TIP3   OH218224   5.644   5.647   3.812
 6073TIP3    H118225   5.591   5.622   3.736
 6073TIP3    H218226   5.582   5.650   3.885
 6074TIP3   OH218227   6.223   2.196   0.469
 6074TIP3    H118228   6.148   2.193   0.529
 6074TIP3    H218229   6.262   2.282   0.485
 6075TIP3   OH218230   4.145   1.554   0.490
 6075TIP3    H118231   4.133   1.613   0.416
 6075TIP3    H218232   4.139   1.466   0.452
 6076TIP3   OH218233   1.889   3.228   2.721
 6076TIP3    H118234   1.931   3.155   2.676
 6076TIP3    H218235   1.961   3.274   2.764
 6077TIP3   OH218236   3.466   5.833   2.938
 6077TIP3    H118237   3.410   5.884   2.997
 6077TIP3    H218238   3.553   5.870   2.948
 6078TIP3   OH218239   1.708   2.880   0.184
 6078TIP3    H118240   1.667   2.812   0.238
 6078TIP3    H218241   1.694   2.851   0.094
 6079TIP3   OH218242   0.614   0.126   4.542
 6079TIP3    H118243   0.679   0.116   4.611
 6079TIP3    H218244   0.661   0.168   4.470
 6080TIP3   OH218245   5.077   4.612   1.307
 6080TIP3    H118246   5.095   4.662   1.387
 6080TIP3    H218247   5.003   4.556   1.330
 6081TIP3   OH218248   4.809   4.440   5.007
 6081TIP3    H118249   4.754   4.505   4.965
 6081TIP3    H218250   4.899   4.470   4.991
 6082TIP3   OH218251   4.944   4.031   1.302
 6082TIP3    H118252   4.928   4.125   1.310
 6082TIP3    H218253   5.012   4.023   1.236
 6083TIP3   OH218254   5.785   3.753   1.569
 6083TIP3    H118255   5.802   3.772   1.477
 6083TIP3    H218256   5.843   3.680   1.590
 6084TIP3   OH218257   5.108   5.955   4.984
 6084TIP3    H118258   5.039   6.011   5.019
 6084TIP3    H218259   5.188   5.983   5.029
 6085TIP3   OH218260   0.403   3.988   1.664
 6085TIP3    H118261   0.499   3.994   1.661
 6085TIP3    H218262   0.385   3.901   1.700
 6086TIP3   OH218263   5.468   2.674   3.787
 6086TIP3    H118264   5.478   2.668   3.882
 6086TIP3    H218265   5.470   2.768   3.768
 6087TIP3   OH218266   3.833   0.892   1.264
 6087TIP3    H118267   3.856   0.985   1.262
 6087TIP3    H218268   3.915   0.848   1.284
 6088TIP3   OH218269   1.567   3.720   3.001
 6088TIP3    H118270   1.654   3.694   3.030
 6088TIP3    H218271   1.573   3.816   2.992
 6089TIP3   OH218272   2.895   5.920   2.341
 6089TIP3    H118273   2.908   5.868   2.261
 6089TIP3    H218274   2.905   6.011   2.312
 6090TIP3   OH218275   1.002   4.453   4.588
 6090TIP3    H118276   0.977   4.362   4.570
 6090TIP3    H218277   1.026   4.489   4.503
 6091TIP3   OH218278   6.134   1.056   4.737
 6091TIP3    H118279   6.114   1.149   4.734
 6091TIP3    H218280   6.052   1.013   4.710
 6092TIP3   OH218281   5.441   0.886   2.080
 6092TIP3    H118282   5.409   0.796   2.083
 6092TIP3    H218283   5.533   0.878   2.056
 6093TIP3   OH218284   0.074   2.750   2.184
 6093TIP3    H118285   0.089   2.841   2.157
 6093TIP3    H218286   0.004   2.720   2.127
 6094TIP3   OH218287   3.106   2.312   4.265
 6094TIP3    H118288   3.111   2.240   4.202
 6094TIP3    H218289   3.129   2.273   4.349
 6095TIP3   OH218290   0.550   3.990   0.351
 6095TIP3    H118291   0.555   4.003   0.446
 6095TIP3    H218292   0.472   3.936   0.338
 6096TIP3   OH218293   0.685   4.810   3.209
 6096TIP3    H118294   0.733   4.880   3.165
 6096TIP3    H218295   0.749   4.740   3.221
 6097TIP3   OH218296   1.904   4.340   4.022
 6097TIP3    H118297   1.882   4.321   3.930
 6097TIP3    H218298   1.937   4.430   4.020
 6098TIP3   OH218299   5.474   2.421   2.987
 6098TIP3    H118300   5.402   2.437   3.048
 6098TIP3    H218301   5.463   2.330   2.961
 6099TIP3   OH218302   4.551   5.730   2.715
 6099TIP3    H118303   4.643   5.739   2.694
 6099TIP3    H218304   4.550   5.702   2.806
 6100TIP3   OH218305   3.077   3.565   3.696
 6100TIP3    H118306   3.033   3.630   3.751
 6100TIP3    H218307   3.081   3.486   3.750
 6101TIP3   OH218308   1.533   2.190   1.946
 6101TIP3    H118309   1.439   2.180   1.958
 6101TIP3    H218310   1.556   2.124   1.880
 6102TIP3   OH218311   4.407   5.277   2.109
 6102TIP3    H118312   4.433   5.205   2.166
 6102TIP3    H218313   4.384   5.348   2.169
 6103TIP3   OH218314   1.712   5.719   1.643
 6103TIP3    H118315   1.666   5.705   1.726
 6103TIP3    H218316   1.664   5.667   1.579
 6104TIP3   OH218317   1.767   3.631   2.154
 6104TIP3    H118318   1.845   3.631   2.210
 6104TIP3    H218319   1.694   3.632   2.216
 6105TIP3   OH218320   3.082   1.914   1.024
 6105TIP3    H118321   3.051   1.863   1.099
 6105TIP3    H218322   3.020   1.893   0.954
 6106TIP3   OH218323   1.335   1.243   1.159
 6106TIP3    H118324   1.408   1.184   1.136
 6106TIP3    H218325   1.305   1.212   1.244
 6107TIP3   OH218326   4.171   0.829   2.789
 6107TIP3    H118327   4.164   0.873   2.874
 6107TIP3    H218328   4.119   0.749   2.799
 6108TIP3   OH218329   5.000   0.312   3.143
 6108TIP3    H118330   4.906   0.328   3.144
 6108TIP3    H218331   5.008   0.217   3.145
 6109TIP3   OH218332   0.771   4.224   5.055
 6109TIP3    H118333   0.807   4.304   5.017
 6109TIP3    H218334   0.676   4.236   5.051
 6110TIP3   OH218335   5.632   1.353   4.509
 6110TIP3    H118336   5.713   1.340   4.559
 6110TIP3    H218337   5.564   1.315   4.564
 6111TIP3   OH218338   5.896   3.039   3.805
 6111TIP3    H118339   5.851   3.065   3.725
 6111TIP3    H218340   5.947   2.963   3.781
 6112TIP3   OH218341   5.795   3.181   4.903
 6112TIP3    H118342   5.724   3.240   4.879
 6112TIP3    H218343   5.767   3.095   4.874
 6113TIP3   OH218344   1.414   0.415   4.591
 6113TIP3    H118345   1.508   0.418   4.611
 6113TIP3    H218346   1.372   0.433   4.675
 6114TIP3   OH218347   1.269   3.545   4.189
 6114TIP3    H118348   1.336   3.492   4.147
 6114TIP3    H218349   1.281   3.632   4.153
 6115TIP3   OH218350   4.797   1.159   5.123
 6115TIP3    H118351   4.869   1.158   5.186
 6115TIP3    H218352   4.741   1.231   5.152
 6116TIP3   OH218353   3.739   2.403   1.154
 6116TIP3    H118354   3.778   2.330   1.204
 6116TIP3    H218355   3.744   2.375   1.063
 6117TIP3   OH218356   2.737   4.373   4.273
 6117TIP3    H118357   2.724   4.408   4.185
 6117TIP3    H218358   2.728   4.278   4.263
 6118TIP3   OH218359   3.339   2.175   3.983
 6118TIP3    H118360   3.357   2.250   3.926
 6118TIP3    H218361   3.243   2.174   3.991
 6119TIP3   OH218362   3.304   2.086   2.267
 6119TIP3    H118363   3.375   2.144   2.243
 6119TIP3    H218364   3.296   2.025   2.194
 6120TIP3   OH218365   5.764   3.671   2.858
 6120TIP3    H118366   5.833   3.610   2.885
 6120TIP3    H218367   5.707   3.618   2.802
 6121TIP3   OH218368   2.688  -0.002   2.431
 6121TIP3    H118369   2.646   0.083   2.423
 6121TIP3    H218370   2.781   0.016   2.419
 6122TIP3   OH218371   3.099   2.803   1.970
 6122TIP3    H118372   3.189   2.792   1.941
 6122TIP3    H218373   3.104   2.867   2.040
 6123TIP3   OH218374   2.865   3.799   5.082
 6123TIP3    H118375   2.921   3.763   5.150
 6123TIP3    H218376   2.815   3.868   5.125
 6124TIP3   OH218377   3.146   3.834   1.681
 6124TIP3    H118378   3.074   3.772   1.691
 6124TIP3    H218379   3.200   3.820   1.759
 6125TIP3   OH218380   4.992   4.680   3.816
 6125TIP3    H118381   5.018   4.745   3.752
 6125TIP3    H218382   4.897   4.675   3.809
 6126TIP3   OH218383   2.601   0.447   0.171
 6126TIP3    H118384   2.690   0.414   0.180
 6126TIP3    H218385   2.602   0.532   0.213
 6127TIP3   OH218386   5.315   5.619   2.361
 6127TIP3    H118387   5.346   5.699   2.402
 6127TIP3    H218388   5.258   5.579   2.426
 6128TIP3   OH218389   4.500   3.812   2.050
 6128TIP3    H118390   4.594   3.823   2.066
 6128TIP3    H218391   4.491   3.720   2.026
 6129TIP3   OH218392   5.009   5.490   0.305
 6129TIP3    H118393   4.916   5.473   0.318
 6129TIP3    H218394   5.037   5.423   0.243
 6130TIP3   OH218395   2.543   4.096   0.343
 6130TIP3    H118396   2.588   4.052   0.415
 6130TIP3    H218397   2.465   4.136   0.383
 6131TIP3   OH218398   2.993   1.179   3.059
 6131TIP3    H118399   3.052   1.104   3.057
 6131TIP3    H218400   3.035   1.242   3.117
 6132TIP3   OH218401   3.798   1.537   1.989
 6132TIP3    H118402   3.807   1.446   2.019
 6132TIP3    H218403   3.759   1.529   1.902
 6133TIP3   OH218404   3.588   5.744   2.484
 6133TIP3    H118405   3.669   5.705   2.452
 6133TIP3    H218406   3.545   5.674   2.533
 6134TIP3   OH218407   3.945   3.238   3.862
 6134TIP3    H118408   3.898   3.299   3.805
 6134TIP3    H218409   3.876   3.189   3.907
 6135TIP3   OH218410   1.441   5.474   1.658
 6135TIP3    H118411   1.483   5.526   1.589
 6135TIP3    H218412   1.510   5.418   1.692
 6136TIP3   OH218413   0.079   0.167   2.247
 6136TIP3    H118414   0.158   0.114   2.241
 6136TIP3    H218415   0.065   0.200   2.158
 6137TIP3   OH218416   2.959   2.848   4.754
 6137TIP3    H118417   3.052   2.833   4.741
 6137TIP3    H218418   2.953   2.905   4.830
 6138TIP3   OH218419   5.945   0.598   2.553
 6138TIP3    H118420   5.900   0.590   2.469
 6138TIP3    H218421   5.897   0.540   2.611
 6139TIP3   OH218422   3.436   5.931   2.074
 6139TIP3    H118423   3.360   5.985   2.052
 6139TIP3    H218424   3.472   5.906   1.989
 6140TIP3   OH218425   3.135   5.463   4.017
 6140TIP3    H118426   3.061   5.462   3.956
 6140TIP3    H218427   3.181   5.544   3.998
 6141TIP3   OH218428   5.390   0.606   1.896
 6141TIP3    H118429   5.335   0.644   1.828
 6141TIP3    H218430   5.454   0.552   1.849
 6142TIP3   OH218431   4.393   1.325   1.908
 6142TIP3    H118432   4.436   1.400   1.866
 6142TIP3    H218433   4.440   1.314   1.991
 6143TIP3   OH218434   2.929   5.660   1.637
 6143TIP3    H118435   3.010   5.628   1.677
 6143TIP3    H218436   2.942   5.650   1.543
 6144TIP3   OH218437   3.306   4.098   0.749
 6144TIP3    H118438   3.238   4.164   0.762
 6144TIP3    H218439   3.363   4.108   0.826
 6145TIP3   OH218440   4.803   1.570   3.692
 6145TIP3    H118441   4.733   1.506   3.694
 6145TIP3    H218442   4.883   1.519   3.681
 6146TIP3   OH218443   3.335   4.867   2.209
 6146TIP3    H118444   3.306   4.946   2.253
 6146TIP3    H218445   3.308   4.796   2.267
 6147TIP3   OH218446   1.664   5.629   3.761
 6147TIP3    H118447   1.735   5.565   3.762
 6147TIP3    H218448   1.687   5.692   3.828
 6148TIP3   OH218449   5.793   1.517   0.134
 6148TIP3    H118450   5.702   1.495   0.154
 6148TIP3    H218451   5.803   1.607   0.166
 6149TIP3   OH218452   1.276   1.657   2.004
 6149TIP3    H118453   1.347   1.703   2.049
 6149TIP3    H218454   1.311   1.637   1.918
 6150TIP3   OH218455   5.854   2.270   3.204
 6150TIP3    H118456   5.864   2.288   3.298
 6150TIP3    H218457   5.790   2.335   3.174
 6151TIP3   OH218458   3.769   1.792   4.077
 6151TIP3    H118459   3.777   1.842   4.158
 6151TIP3    H218460   3.831   1.719   4.087
 6152TIP3   OH218461   3.174   3.406   5.158
 6152TIP3    H118462   3.136   3.424   5.072
 6152TIP3    H218463   3.262   3.441   5.154
 6153TIP3   OH218464   4.096   2.959   2.989
 6153TIP3    H118465   4.043   2.879   2.990
 6153TIP3    H218466   4.055   3.015   3.055
 6154TIP3   OH218467   4.804   0.085   1.729
 6154TIP3    H118468   4.895   0.065   1.749
 6154TIP3    H218469   4.754   0.024   1.784
 6155TIP3   OH218470   0.040   1.849   1.355
 6155TIP3    H118471   0.076   1.936   1.337
 6155TIP3    H218472   0.117   1.793   1.365
 6156TIP3   OH218473   2.481   5.090   4.592
 6156TIP3    H118474   2.387   5.077   4.594
 6156TIP3    H218475   2.498   5.153   4.663
 6157TIP3   OH218476   3.837   5.810   3.421
 6157TIP3    H118477   3.805   5.771   3.340
 6157TIP3    H218478   3.824   5.904   3.408
 6158TIP3   OH218479   3.009   4.411   3.321
 6158TIP3    H118480   2.994   4.364   3.239
 6158TIP3    H218481   3.096   4.384   3.349
 6159TIP3   OH218482   0.344   2.899   2.163
 6159TIP3    H118483   0.301   2.886   2.079
 6159TIP3    H218484   0.415   2.835   2.164
 6160TIP3   OH218485   0.881   3.950   4.408
 6160TIP3    H118486   0.854   3.976   4.320
 6160TIP3    H218487   0.813   3.988   4.465
 6161TIP3   OH218488   4.923   5.753   0.190
 6161TIP3    H118489   4.970   5.683   0.235
 6161TIP3    H218490   4.911   5.821   0.257
 6162TIP3   OH218491   1.611   3.261   4.186
 6162TIP3    H118492   1.615   3.166   4.197
 6162TIP3    H218493   1.541   3.288   4.245
 6163TIP3   OH218494   3.933   3.541   3.835
 6163TIP3    H118495   4.000   3.520   3.770
 6163TIP3    H218496   3.875   3.603   3.790
 6164TIP3   OH218497   2.473   3.328   3.565
 6164TIP3    H118498   2.510   3.320   3.653
 6164TIP3    H218499   2.419   3.407   3.568
 6165TIP3   OH218500   5.334   1.425   2.771
 6165TIP3    H118501   5.388   1.386   2.839
 6165TIP3    H218502   5.263   1.362   2.757
 6166TIP3   OH218503   5.852   0.149   1.682
 6166TIP3    H118504   5.850   0.159   1.587
 6166TIP3    H218505   5.761   0.138   1.708
 6167TIP3   OH218506   5.016   2.986   1.251
 6167TIP3    H118507   5.004   3.063   1.195
 6167TIP3    H218508   4.952   2.923   1.219
 6168TIP3   OH218509   3.210   0.611   4.992
 6168TIP3    H118510   3.249   0.699   4.990
 6168TIP3    H218511   3.205   0.590   5.086
 6169TIP3   OH218512   2.332   4.261   0.464
 6169TIP3    H118513   2.255   4.220   0.425
 6169TIP3    H218514   2.314   4.262   0.558
 6170TIP3   OH218515   3.819   5.696   4.122
 6170TIP3    H118516   3.877   5.696   4.198
 6170TIP3    H218517   3.860   5.636   4.061
 6171TIP3   OH218518   2.677   2.124   0.695
 6171TIP3    H118519   2.661   2.030   0.703
 6171TIP3    H218520   2.768   2.135   0.722
 6172TIP3   OH218521   1.259   2.034   3.088
 6172TIP3    H118522   1.248   1.992   3.003
 6172TIP3    H218523   1.197   2.107   3.088
 6173TIP3   OH218524   5.205   5.832   4.185
 6173TIP3    H118525   5.113   5.809   4.198
 6173TIP3    H218526   5.236   5.859   4.271
 6174TIP3   OH218527   2.741   3.553   1.990
 6174TIP3    H118528   2.726   3.461   2.010
 6174TIP3    H218529   2.820   3.576   2.039
 6175TIP3   OH218530   4.154   5.196   5.169
 6175TIP3    H118531   4.071   5.171   5.210
 6175TIP3    H218532   4.169   5.129   5.103
 6176TIP3   OH218533   2.289   4.290   2.854
 6176TIP3    H118534   2.303   4.219   2.791
 6176TIP3    H218535   2.325   4.368   2.812
 6177TIP3   OH218536   5.491   4.034   2.506
 6177TIP3    H118537   5.406   4.037   2.551
 6177TIP3    H218538   5.488   4.108   2.445
 6178TIP3   OH218539   1.932   2.638   3.119
 6178TIP3    H118540   1.996   2.569   3.136
 6178TIP3    H218541   1.921   2.637   3.024
 6179TIP3   OH218542   4.372   2.638   3.546
 6179TIP3    H118543   4.288   2.671   3.578
 6179TIP3    H218544   4.379   2.673   3.457
 6180TIP3   OH218545   4.738   1.543   4.914
 6180TIP3    H118546   4.696   1.498   4.841
 6180TIP3    H218547   4.804   1.480   4.945
 6181TIP3   OH218548   2.972   1.229   2.164
 6181TIP3    H118549   3.031   1.154   2.155
 6181TIP3    H218550   2.884   1.191   2.160
 6182TIP3   OH218551   2.431   3.707   2.699
 6182TIP3    H118552   2.381   3.752   2.766
 6182TIP3    H218553   2.374   3.709   2.621
 6183TIP3   OH218554   6.108   1.254   4.412
 6183TIP3    H118555   6.196   1.292   4.410
 6183TIP3    H218556   6.115   1.174   4.361
 6184TIP3   OH218557   0.967   0.996   2.225
 6184TIP3    H118558   0.959   0.915   2.275
 6184TIP3    H218559   0.919   1.061   2.276
 6185TIP3   OH218560   1.873   2.363   3.256
 6185TIP3    H118561   1.869   2.272   3.225
 6185TIP3    H218562   1.963   2.373   3.288
 6186TIP3   OH218563   0.825   5.081   0.860
 6186TIP3    H118564   0.789   5.102   0.946
 6186TIP3    H218565   0.752   5.095   0.800
 6187TIP3   OH218566   5.991   1.723   4.302
 6187TIP3    H118567   6.078   1.684   4.315
 6187TIP3    H218568   5.972   1.709   4.209
 6188TIP3   OH218569   4.795   4.992   0.402
 6188TIP3    H118570   4.813   5.083   0.428
 6188TIP3    H218571   4.877   4.962   0.363
 6189TIP3   OH218572   4.451   3.081   1.683
 6189TIP3    H118573   4.416   2.996   1.711
 6189TIP3    H218574   4.482   3.066   1.594
 6190TIP3   OH218575   3.036   4.374   1.305
 6190TIP3    H118576   3.076   4.437   1.245
 6190TIP3    H218577   2.991   4.313   1.247
 6191TIP3   OH218578   6.206   1.837   3.206
 6191TIP3    H118579   6.155   1.908   3.246
 6191TIP3    H218580   6.246   1.792   3.281
 6192TIP3   OH218581   1.441   1.829   2.157
 6192TIP3    H118582   1.506   1.891   2.189
 6192TIP3    H218583   1.475   1.743   2.181
 6193TIP3   OH218584   0.465   5.798   3.129
 6193TIP3    H118585   0.531   5.753   3.183
 6193TIP3    H218586   0.416   5.727   3.088
 6194TIP3   OH218587   1.293   5.393   3.704
 6194TIP3    H118588   1.382   5.366   3.728
 6194TIP3    H218589   1.268   5.333   3.633
 6195TIP3   OH218590   2.453   3.774   3.900
 6195TIP3    H118591   2.381   3.751   3.958
 6195TIP3    H218592   2.532   3.758   3.951
 6196TIP3   OH218593   5.118   4.879   3.984
 6196TIP3    H118594   5.071   4.839   3.911
 6196TIP3    H218595   5.207   4.845   3.976
 6197TIP3   OH218596   2.760   5.378   1.698
 6197TIP3    H118597   2.787   5.339   1.615
 6197TIP3    H218598   2.832   5.437   1.721
 6198TIP3   OH218599   3.043   5.652   3.259
 6198TIP3    H118600   3.109   5.636   3.327
 6198TIP3    H218601   3.053   5.580   3.197
 6199TIP3   OH218602   2.942   1.717   3.276
 6199TIP3    H118603   2.949   1.640   3.333
 6199TIP3    H218604   2.965   1.790   3.333
 6200TIP3   OH218605   4.356   2.479   3.930
 6200TIP3    H118606   4.263   2.501   3.922
 6200TIP3    H218607   4.378   2.438   3.846
 6201TIP3   OH218608   0.202   0.591   1.772
 6201TIP3    H118609   0.199   0.643   1.853
 6201TIP3    H218610   0.264   0.521   1.791
 6202TIP3   OH218611   3.849   1.612   3.457
 6202TIP3    H118612   3.884   1.697   3.482
 6202TIP3    H218613   3.917   1.573   3.403
 6203TIP3   OH218614   3.269   2.761   0.461
 6203TIP3    H118615   3.348   2.814   0.476
 6203TIP3    H218616   3.250   2.774   0.368
 6204TIP3   OH218617   5.852   5.471   2.423
 6204TIP3    H118618   5.774   5.435   2.465
 6204TIP3    H218619   5.848   5.565   2.441
 6205TIP3   OH218620   5.024   4.401   1.612
 6205TIP3    H118621   5.032   4.325   1.670
 6205TIP3    H218622   5.074   4.470   1.656
 6206TIP3   OH218623   1.154   2.647   1.677
 6206TIP3    H118624   1.122   2.562   1.708
 6206TIP3    H218625   1.147   2.705   1.752
 6207TIP3   OH218626   0.338   1.369   0.613
 6207TIP3    H118627   0.294   1.285   0.628
 6207TIP3    H218628   0.424   1.359   0.653
 6208TIP3   OH218629   5.060   1.631   0.781
 6208TIP3    H118630   5.025   1.697   0.721
 6208TIP3    H218631   5.154   1.650   0.784
 6209TIP3   OH218632   4.895   2.922   3.030
 6209TIP3    H118633   4.954   2.857   2.993
 6209TIP3    H218634   4.877   2.891   3.119
 6210TIP3   OH218635   2.710   3.982   2.538
 6210TIP3    H118636   2.746   4.055   2.489
 6210TIP3    H218637   2.695   4.016   2.626
 6211TIP3   OH218638   5.251   0.993   1.130
 6211TIP3    H118639   5.280   1.070   1.178
 6211TIP3    H218640   5.201   0.942   1.194
 6212TIP3   OH218641   3.455   4.203   1.907
 6212TIP3    H118642   3.404   4.181   1.829
 6212TIP3    H218643   3.519   4.267   1.876
 6213TIP3   OH218644   5.776   1.586   4.738
 6213TIP3    H118645   5.696   1.563   4.786
 6213TIP3    H218646   5.838   1.610   4.807
 6214TIP3   OH218647   0.990   4.631   3.221
 6214TIP3    H118648   0.930   4.563   3.254
 6214TIP3    H218649   1.073   4.585   3.208
 6215TIP3   OH218650   4.577   1.449   3.566
 6215TIP3    H118651   4.607   1.380   3.508
 6215TIP3    H218652   4.525   1.404   3.633
 6216TIP3   OH218653   3.288   0.403   4.835
 6216TIP3    H118654   3.285   0.476   4.897
 6216TIP3    H218655   3.358   0.427   4.774
 6217TIP3   OH218656   3.126   1.007   2.120
 6217TIP3    H118657   3.167   1.017   2.034
 6217TIP3    H218658   3.199   0.986   2.179
 6218TIP3   OH218659   0.596   4.229   1.709
 6218TIP3    H118660   0.571   4.254   1.620
 6218TIP3    H218661   0.512   4.219   1.754
 6219TIP3   OH218662   5.137   0.080   0.745
 6219TIP3    H118663   5.123   0.171   0.720
 6219TIP3    H218664   5.074   0.064   0.815
 6220TIP3   OH218665   2.217   3.876   0.638
 6220TIP3    H118666   2.201   3.929   0.560
 6220TIP3    H218667   2.297   3.828   0.618
 6221TIP3   OH218668   4.596   0.325   4.306
 6221TIP3    H118669   4.542   0.315   4.227
 6221TIP3    H218670   4.673   0.272   4.289
 6222TIP3   OH218671   0.942   0.180   3.317
 6222TIP3    H118672   0.926   0.094   3.357
 6222TIP3    H218673   1.023   0.170   3.268
 6223TIP3   OH218674   1.196   5.931   3.587
 6223TIP3    H118675   1.202   5.852   3.533
 6223TIP3    H218676   1.286   5.959   3.598
 6224TIP3   OH218677   0.098   2.807   4.889
 6224TIP3    H118678   0.063   2.718   4.879
 6224TIP3    H218679   0.027   2.855   4.932
 6225TIP3   OH218680   1.925   3.123   3.351
 6225TIP3    H118681   1.926   3.091   3.441
 6225TIP3    H218682   1.895   3.048   3.299
 6226TIP3   OH218683   2.167   0.526   1.295
 6226TIP3    H118684   2.239   0.584   1.320
 6226TIP3    H218685   2.201   0.478   1.219
 6227TIP3   OH218686   4.697   2.794   4.281
 6227TIP3    H118687   4.606   2.820   4.297
 6227TIP3    H218688   4.691   2.706   4.243
 6228TIP3   OH218689   2.824   1.486   0.077
 6228TIP3    H118690   2.763   1.438   0.022
 6228TIP3    H218691   2.808   1.455   0.165
 6229TIP3   OH218692   1.444   4.799   4.114
 6229TIP3    H118693   1.431   4.718   4.165
 6229TIP3    H218694   1.428   4.773   4.024
 6230TIP3   OH218695   3.565   4.626   0.968
 6230TIP3    H118696   3.549   4.692   1.035
 6230TIP3    H218697   3.533   4.665   0.887
 6231TIP3   OH218698   1.423   5.884   2.309
 6231TIP3    H118699   1.451   5.919   2.225
 6231TIP3    H218700   1.329   5.904   2.313
 6232TIP3   OH218701   1.104   0.645   3.847
 6232TIP3    H118702   1.156   0.566   3.855
 6232TIP3    H218703   1.031   0.621   3.790
 6233TIP3   OH218704   1.583   4.232   2.234
 6233TIP3    H118705   1.607   4.301   2.172
 6233TIP3    H218706   1.609   4.151   2.191
 6234TIP3   OH218707   3.359   5.305   1.545
 6234TIP3    H118708   3.295   5.285   1.613
 6234TIP3    H218709   3.336   5.394   1.517
 6235TIP3   OH218710   0.941   1.198   1.498
 6235TIP3    H118711   0.848   1.182   1.511
 6235TIP3    H218712   0.974   1.220   1.585
 6236TIP3   OH218713   2.970   0.343   0.485
 6236TIP3    H118714   2.955   0.281   0.556
 6236TIP3    H218715   2.913   0.418   0.506
 6237TIP3   OH218716   5.186   4.272   1.099
 6237TIP3    H118717   5.204   4.189   1.056
 6237TIP3    H218718   5.260   4.285   1.158
 6238TIP3   OH218719   6.252   0.883   2.539
 6238TIP3    H118720   6.208   0.964   2.566
 6238TIP3    H218721   6.227   0.819   2.605
 6239TIP3   OH218722   5.326   0.277   1.665
 6239TIP3    H118723   5.402   0.233   1.628
 6239TIP3    H218724   5.339   0.271   1.760
 6240TIP3   OH218725   1.671   3.077   4.454
 6240TIP3    H118726   1.716   3.005   4.498
 6240TIP3    H218727   1.584   3.077   4.493
 6241TIP3   OH218728   1.446   1.521   1.180
 6241TIP3    H118729   1.411   1.442   1.138
 6241TIP3    H218730   1.431   1.591   1.116
 6242TIP3   OH218731   2.873   1.660   4.643
 6242TIP3    H118732   2.855   1.751   4.668
 6242TIP3    H218733   2.792   1.613   4.664
 6243TIP3   OH218734   0.848   0.201   4.714
 6243TIP3    H118735   0.934   0.230   4.745
 6243TIP3    H218736   0.820   0.270   4.655
 6244TIP3   OH218737   5.385   2.643   3.320
 6244TIP3    H118738   5.469   2.625   3.362
 6244TIP3    H218739   5.323   2.648   3.392
 6245TIP3   OH218740   2.304   3.474   4.845
 6245TIP3    H118741   2.319   3.398   4.788
 6245TIP3    H218742   2.229   3.518   4.807
 6246TIP3   OH218743   1.685   0.509   0.370
 6246TIP3    H118744   1.618   0.465   0.316
 6246TIP3    H218745   1.757   0.526   0.309
 6247TIP3   OH218746   2.009   3.900   1.270
 6247TIP3    H118747   1.946   3.963   1.306
 6247TIP3    H218748   1.998   3.907   1.175
 6248TIP3   OH218749   2.625   0.060   2.764
 6248TIP3    H118750   2.716   0.077   2.738
 6248TIP3    H218751   2.617   0.104   2.849
 6249TIP3   OH218752   2.997   2.152   2.182
 6249TIP3    H118753   3.026   2.196   2.102
 6249TIP3    H218754   3.051   2.074   2.188
 6250TIP3   OH218755   4.167   1.670   3.861
 6250TIP3    H118756   4.171   1.693   3.768
 6250TIP3    H218757   4.247   1.705   3.898
 6251TIP3   OH218758   4.928   2.551   4.050
 6251TIP3    H118759   4.858   2.535   4.114
 6251TIP3    H218760   4.904   2.634   4.009
 6252TIP3   OH218761   5.687   2.064   3.845
 6252TIP3    H118762   5.756   2.005   3.876
 6252TIP3    H218763   5.663   2.115   3.922
 6253TIP3   OH218764   3.438   3.800   4.613
 6253TIP3    H118765   3.344   3.821   4.618
 6253TIP3    H218766   3.452   3.774   4.522
 6254TIP3   OH218767   5.873   2.056   4.586
 6254TIP3    H118768   5.908   2.101   4.509
 6254TIP3    H218769   5.894   1.964   4.571
 6255TIP3   OH218770   2.952   5.181   4.002
 6255TIP3    H118771   2.956   5.174   4.097
 6255TIP3    H218772   2.863   5.151   3.980
 6256TIP3   OH218773   4.663   4.353   0.251
 6256TIP3    H118774   4.583   4.403   0.269
 6256TIP3    H218775   4.632   4.265   0.230
 6257TIP3   OH218776   0.581   3.256   4.661
 6257TIP3    H118777   0.621   3.330   4.707
 6257TIP3    H218778   0.655   3.199   4.639
 6258TIP3   OH218779   0.964   1.822   2.302
 6258TIP3    H118780   0.915   1.897   2.337
 6258TIP3    H218781   0.919   1.746   2.337
 6259TIP3   OH218782   1.768   1.790   1.814
 6259TIP3    H118783   1.845   1.826   1.770
 6259TIP3    H218784   1.741   1.717   1.759
 6260TIP3   OH218785   2.722   1.306   4.828
 6260TIP3    H118786   2.811   1.291   4.798
 6260TIP3    H218787   2.725   1.390   4.872
 6261TIP3   OH218788   3.839   1.737   1.378
 6261TIP3    H118789   3.895   1.803   1.337
 6261TIP3    H218790   3.883   1.654   1.360
 6262TIP3   OH218791   2.005   4.977   1.129
 6262TIP3    H118792   1.915   5.010   1.132
 6262TIP3    H218793   1.996   4.882   1.137
 6263TIP3   OH218794   3.547   2.991   3.078
 6263TIP3    H118795   3.460   3.014   3.047
 6263TIP3    H218796   3.562   3.049   3.153
 6264TIP3   OH218797   0.418   4.404   1.144
 6264TIP3    H118798   0.457   4.335   1.090
 6264TIP3    H218799   0.370   4.356   1.212
 6265TIP3   OH218800   6.072   0.418   0.727
 6265TIP3    H118801   6.047   0.331   0.759
 6265TIP3    H218802   5.993   0.452   0.686
 6266TIP3   OH218803   0.526   5.532   0.027
 6266TIP3    H118804   0.487   5.535  -0.060
 6266TIP3    H218805   0.536   5.624   0.051
 6267TIP3   OH218806   2.114   4.807   2.172
 6267TIP3    H118807   2.153   4.780   2.255
 6267TIP3    H218808   2.029   4.763   2.170
 6268TIP3   OH218809   3.841   4.328   2.331
 6268TIP3    H118810   3.921   4.293   2.294
 6268TIP3    H218811   3.771   4.295   2.274
 6269TIP3   OH218812   4.108   1.982   2.579
 6269TIP3    H118813   4.127   2.066   2.621
 6269TIP3    H218814   4.030   1.949   2.625
 6270TIP3   OH218815   2.775   4.656   4.811
 6270TIP3    H118816   2.815   4.620   4.732
 6270TIP3    H218817   2.720   4.727   4.779
 6271TIP3   OH218818   5.874   2.954   5.098
 6271TIP3    H118819   5.783   2.977   5.080
 6271TIP3    H218820   5.925   3.013   5.043
 6272TIP3   OH218821   3.400   2.956   3.598
 6272TIP3    H118822   3.385   2.984   3.688
 6272TIP3    H218823   3.357   3.022   3.544
 6273TIP3   OH218824   5.832   5.730   2.194
 6273TIP3    H118825   5.774   5.737   2.119
 6273TIP3    H218826   5.920   5.719   2.157
 6274TIP3   OH218827   4.763   3.840   1.326
 6274TIP3    H118828   4.803   3.918   1.287
 6274TIP3    H218829   4.727   3.871   1.409
 6275TIP3   OH218830   4.410   3.037   3.864
 6275TIP3    H118831   4.484   2.978   3.883
 6275TIP3    H218832   4.443   3.094   3.795
 6276TIP3   OH218833   5.781   2.586   2.227
 6276TIP3    H118834   5.711   2.522   2.242
 6276TIP3    H218835   5.861   2.533   2.226
 6277TIP3   OH218836   3.988   1.348   1.780
 6277TIP3    H118837   3.892   1.348   1.776
 6277TIP3    H218838   4.012   1.255   1.779
 6278TIP3   OH218839   2.088   5.317   2.554
 6278TIP3    H118840   2.094   5.290   2.646
 6278TIP3    H218841   1.994   5.327   2.539
 6279TIP3   OH218842   4.884   3.048   0.607
 6279TIP3    H118843   4.789   3.052   0.607
 6279TIP3    H218844   4.907   3.036   0.514
 6280TIP3   OH218845   3.865   4.905   4.288
 6280TIP3    H118846   3.913   4.948   4.217
 6280TIP3    H218847   3.773   4.912   4.263
 6281TIP3   OH218848   1.625   0.963   1.590
 6281TIP3    H118849   1.648   1.048   1.552
 6281TIP3    H218850   1.613   0.905   1.514
 6282TIP3   OH218851   3.208   2.771   0.168
 6282TIP3    H118852   3.303   2.766   0.160
 6282TIP3    H218853   3.175   2.730   0.088
 6283TIP3   OH218854   5.700   0.042   3.606
 6283TIP3    H118855   5.665  -0.021   3.542
 6283TIP3    H218856   5.627   0.101   3.623
 6284TIP3   OH218857   4.523   5.003   0.998
 6284TIP3    H118858   4.513   5.036   1.088
 6284TIP3    H218859   4.454   5.047   0.949
 6285TIP3   OH218860   1.677   0.309   1.687
 6285TIP3    H118861   1.647   0.219   1.677
 6285TIP3    H218862   1.762   0.312   1.643
 6286TIP3   OH218863   4.269   4.460   4.855
 6286TIP3    H118864   4.202   4.454   4.923
 6286TIP3    H218865   4.241   4.397   4.788
 6287TIP3   OH218866   0.473   2.869   1.354
 6287TIP3    H118867   0.412   2.843   1.284
 6287TIP3    H218868   0.460   2.802   1.422
 6288TIP3   OH218869   5.430   2.700   5.014
 6288TIP3    H118870   5.518   2.692   4.977
 6288TIP3    H218871   5.425   2.631   5.080
 6289TIP3   OH218872   0.222   2.862   1.912
 6289TIP3    H118873   0.247   2.770   1.898
 6289TIP3    H218874   0.159   2.880   1.841
 6290TIP3   OH218875   2.033   5.224   4.792
 6290TIP3    H118876   2.026   5.147   4.849
 6290TIP3    H218877   2.103   5.202   4.730
 6291TIP3   OH218878   3.938   5.085   2.064
 6291TIP3    H118879   4.002   5.136   2.113
 6291TIP3    H218880   3.860   5.085   2.119
 6292TIP3   OH218881   4.715   1.506   3.024
 6292TIP3    H118882   4.661   1.582   3.004
 6292TIP3    H218883   4.795   1.542   3.064
 6293TIP3   OH218884   4.848   1.797   3.521
 6293TIP3    H118885   4.819   1.873   3.573
 6293TIP3    H218886   4.811   1.722   3.566
 6294TIP3   OH218887   4.511   5.696   2.059
 6294TIP3    H118888   4.536   5.683   2.150
 6294TIP3    H218889   4.415   5.689   2.059
 6295TIP3   OH218890   2.349   1.641   4.963
 6295TIP3    H118891   2.417   1.633   5.030
 6295TIP3    H218892   2.294   1.564   4.976
 6296TIP3   OH218893   1.003   1.301   4.322
 6296TIP3    H118894   0.912   1.330   4.315
 6296TIP3    H218895   1.009   1.225   4.265
 6297TIP3   OH218896   1.978   4.530   0.689
 6297TIP3    H118897   1.948   4.496   0.604
 6297TIP3    H218898   2.005   4.620   0.671
 6298TIP3   OH218899   4.248   4.876   3.476
 6298TIP3    H118900   4.198   4.797   3.457
 6298TIP3    H218901   4.211   4.909   3.558
 6299TIP3   OH218902   3.734   2.130   3.156
 6299TIP3    H118903   3.721   2.055   3.097
 6299TIP3    H218904   3.819   2.165   3.132
 6300TIP3   OH218905   3.323   3.734   2.502
 6300TIP3    H118906   3.385   3.718   2.431
 6300TIP3    H218907   3.307   3.647   2.540
 6301TIP3   OH218908   5.578   0.752   4.088
 6301TIP3    H118909   5.541   0.840   4.094
 6301TIP3    H218910   5.606   0.744   3.997
 6302TIP3   OH218911   0.566   1.743   0.660
 6302TIP3    H118912   0.509   1.675   0.697
 6302TIP3    H218913   0.602   1.788   0.737
 6303TIP3   OH218914   0.274   5.021   4.778
 6303TIP3    H118915   0.246   4.947   4.832
 6303TIP3    H218916   0.336   4.983   4.715
 6304TIP3   OH218917   3.426   0.150   0.255
 6304TIP3    H118918   3.485   0.213   0.212
 6304TIP3    H218919   3.358   0.204   0.295
 6305TIP3   OH218920   0.764   5.911   4.038
 6305TIP3    H118921   0.794   5.821   4.028
 6305TIP3    H218922   0.764   5.926   4.133
 6306TIP3   OH218923   1.842   4.040   3.130
 6306TIP3    H118924   1.864   4.064   3.220
 6306TIP3    H218925   1.839   4.123   3.083
 6307TIP3   OH218926   1.662   4.374   5.079
 6307TIP3    H118927   1.657   4.404   5.169
 6307TIP3    H218928   1.598   4.303   5.073
 6308TIP3   OH218929   0.606   4.306   4.622
 6308TIP3    H118930   0.606   4.220   4.665
 6308TIP3    H218931   0.515   4.318   4.593
 6309TIP3   OH218932   4.411   5.907   4.021
 6309TIP3    H118933   4.321   5.882   4.040
 6309TIP3    H218934   4.445   5.836   3.966
 6310TIP3   OH218935   5.087   1.479   2.368
 6310TIP3    H118936   5.181   1.493   2.379
 6310TIP3    H218937   5.080   1.430   2.286
 6311TIP3   OH218938   4.224   0.128   0.844
 6311TIP3    H118939   4.286   0.133   0.771
 6311TIP3    H218940   4.185   0.215   0.847
 6312TIP3   OH218941   4.966   3.918   1.018
 6312TIP3    H118942   4.897   3.983   1.028
 6312TIP3    H218943   4.921   3.839   0.988
 6313TIP3   OH218944   4.734   1.128   1.181
 6313TIP3    H118945   4.719   1.210   1.134
 6313TIP3    H218946   4.793   1.078   1.124
 6314TIP3   OH218947   2.637   4.002   2.141
 6314TIP3    H118948   2.673   4.083   2.104
 6314TIP3    H218949   2.545   4.022   2.157
 6315TIP3   OH218950   3.941   0.070   1.745
 6315TIP3    H118951   4.001   0.135   1.707
 6315TIP3    H218952   3.995  -0.008   1.757
 6316TIP3   OH218953   6.168   5.537   3.925
 6316TIP3    H118954   6.085   5.580   3.902
 6316TIP3    H218955   6.227   5.609   3.948
 6317TIP3   OH218956   1.603   5.428   3.457
 6317TIP3    H118957   1.630   5.393   3.542
 6317TIP3    H218958   1.556   5.508   3.478
 6318TIP3   OH218959   3.429   4.145   5.024
 6318TIP3    H118960   3.451   4.164   5.115
 6318TIP3    H218961   3.446   4.228   4.978
 6319TIP3   OH218962   3.299   4.855   5.071
 6319TIP3    H118963   3.330   4.912   5.001
 6319TIP3    H218964   3.207   4.875   5.081
 6320TIP3   OH218965   1.492   0.481   3.103
 6320TIP3    H118966   1.507   0.564   3.149
 6320TIP3    H218967   1.562   0.423   3.134
 6321TIP3   OH218968   6.276   3.799   1.871
 6321TIP3    H118969   6.347   3.755   1.918
 6321TIP3    H218970   6.321   3.859   1.812
 6322TIP3   OH218971   4.779   2.594   2.909
 6322TIP3    H118972   4.858   2.604   2.856
 6322TIP3    H218973   4.711   2.638   2.858
 6323TIP3   OH218974   5.552   4.065   1.047
 6323TIP3    H118975   5.479   4.044   0.989
 6323TIP3    H218976   5.513   4.071   1.134
 6324TIP3   OH218977   0.161   3.225   0.367
 6324TIP3    H118978   0.105   3.275   0.426
 6324TIP3    H218979   0.176   3.284   0.293
 6325TIP3   OH218980   2.829   1.593   2.202
 6325TIP3    H118981   2.793   1.615   2.288
 6325TIP3    H218982   2.918   1.564   2.220
 6326TIP3   OH218983   2.956   4.249   3.120
 6326TIP3    H118984   2.947   4.166   3.072
 6326TIP3    H218985   2.949   4.317   3.053
 6327TIP3   OH218986   4.826   4.270   1.957
 6327TIP3    H118987   4.893   4.212   1.921
 6327TIP3    H218988   4.876   4.341   1.997
 6328TIP3   OH218989   5.303   2.512   4.670
 6328TIP3    H118990   5.245   2.577   4.711
 6328TIP3    H218991   5.245   2.438   4.651
 6329TIP3   OH218992   4.250   5.339   1.463
 6329TIP3    H118993   4.180   5.340   1.529
 6329TIP3    H218994   4.228   5.410   1.404
 6330TIP3   OH218995   1.911   4.492   1.671
 6330TIP3    H118996   1.995   4.509   1.628
 6330TIP3    H218997   1.904   4.396   1.672
 6331TIP3   OH218998   4.015   1.947   3.365
 6331TIP3    H118999   3.994   1.960   3.273
 6331TIP3    H219000   4.076   1.874   3.366
 6332TIP3   OH219001   3.864   3.295   0.209
 6332TIP3    H119002   3.827   3.284   0.122
 6332TIP3    H219003   3.917   3.375   0.203
 6333TIP3   OH219004   0.772   2.279   1.615
 6333TIP3    H119005   0.795   2.191   1.647
 6333TIP3    H219006   0.764   2.332   1.695
 6334TIP3   OH219007   5.472   0.208   2.415
 6334TIP3    H119008   5.526   0.141   2.373
 6334TIP3    H219009   5.524   0.237   2.490
 6335TIP3   OH219010   4.502   1.424   2.839
 6335TIP3    H119011   4.520   1.476   2.761
 6335TIP3    H219012   4.571   1.448   2.900
 6336TIP3   OH219013   0.757   4.140   4.191
 6336TIP3    H119014   0.766   4.203   4.263
 6336TIP3    H219015   0.846   4.122   4.164
 6337TIP3   OH219016   1.809   4.241   1.550
 6337TIP3    H119017   1.783   4.243   1.642
 6337TIP3    H219018   1.882   4.179   1.546
 6338TIP3   OH219019   2.091   4.771   4.804
 6338TIP3    H119020   2.025   4.762   4.873
 6338TIP3    H219021   2.059   4.843   4.749
 6339TIP3   OH219022   4.386   5.521   2.924
 6339TIP3    H119023   4.300   5.506   2.965
 6339TIP3    H219024   4.405   5.613   2.944
 6340TIP3   OH219025   2.726   3.719   0.778
 6340TIP3    H119026   2.682   3.635   0.770
 6340TIP3    H219027   2.659   3.778   0.814
 6341TIP3   OH219028   6.012   2.346   2.733
 6341TIP3    H119029   6.108   2.344   2.733
 6341TIP3    H219030   5.989   2.407   2.664
 6342TIP3   OH219031   1.341   5.916   3.245
 6342TIP3    H119032   1.401   5.969   3.192
 6342TIP3    H219033   1.346   5.955   3.332
 6343TIP3   OH219034   2.708   0.254   4.757
 6343TIP3    H119035   2.714   0.328   4.697
 6343TIP3    H219036   2.799   0.240   4.786
 6344TIP3   OH219037   5.631   0.778   4.403
 6344TIP3    H119038   5.588   0.745   4.325
 6344TIP3    H219039   5.724   0.780   4.380
 6345TIP3   OH219040   3.839   5.042   4.542
 6345TIP3    H119041   3.843   4.973   4.476
 6345TIP3    H219042   3.749   5.038   4.575
 6346TIP3   OH219043   0.074   5.084   4.548
 6346TIP3    H119044   0.148   5.060   4.604
 6346TIP3    H219045   0.101   5.060   4.460
 6347TIP3   OH219046   2.965   5.841   0.523
 6347TIP3    H119047   3.028   5.912   0.533
 6347TIP3    H219048   2.880   5.884   0.526
 6348TIP3   OH219049   1.392   1.850   2.536
 6348TIP3    H119050   1.356   1.811   2.456
 6348TIP3    H219051   1.409   1.776   2.594
 6349TIP3   OH219052   5.147   1.722   4.290
 6349TIP3    H119053   5.053   1.720   4.271
 6349TIP3    H219054   5.153   1.759   4.378
 6350TIP3   OH219055   1.097   2.715   0.132
 6350TIP3    H119056   1.024   2.675   0.181
 6350TIP3    H219057   1.175   2.690   0.181
 6351TIP3   OH219058   0.516   0.878   2.829
 6351TIP3    H119059   0.470   0.927   2.761
 6351TIP3    H219060   0.480   0.790   2.823
 6352TIP3   OH219061   2.935   4.420   2.488
 6352TIP3    H119062   2.982   4.486   2.540
 6352TIP3    H219063   2.993   4.403   2.414
 6353TIP3   OH219064   3.096   5.634   4.460
 6353TIP3    H119065   3.082   5.708   4.401
 6353TIP3    H219066   3.155   5.576   4.411
 6354TIP3   OH219067   4.354   4.599   2.528
 6354TIP3    H119068   4.386   4.660   2.461
 6354TIP3    H219069   4.359   4.513   2.486
 6355TIP3   OH219070   4.199   3.971   3.671
 6355TIP3    H119071   4.135   4.014   3.614
 6355TIP3    H219072   4.150   3.952   3.751
 6356TIP3   OH219073   0.737   3.502   0.074
 6356TIP3    H119074   0.829   3.517   0.054
 6356TIP3    H219075   0.724   3.408   0.064
 6357TIP3   OH219076   5.790   1.384   0.849
 6357TIP3    H119077   5.764   1.344   0.766
 6357TIP3    H219078   5.768   1.477   0.839
 6358TIP3   OH219079   2.620   0.507   4.719
 6358TIP3    H119080   2.611   0.526   4.812
 6358TIP3    H219081   2.708   0.535   4.696
 6359TIP3   OH219082   0.402   5.037   4.510
 6359TIP3    H119083   0.464   4.990   4.565
 6359TIP3    H219084   0.426   5.012   4.421
 6360TIP3   OH219085   2.225   4.005   4.588
 6360TIP3    H119086   2.147   4.010   4.643
 6360TIP3    H219087   2.267   4.091   4.598
 6361TIP3   OH219088   1.678   0.938   4.669
 6361TIP3    H119089   1.689   1.032   4.679
 6361TIP3    H219090   1.615   0.914   4.737
 6362TIP3   OH219091   1.772   0.906   4.951
 6362TIP3    H119092   1.833   0.857   4.897
 6362TIP3    H219093   1.764   0.991   4.907
 6363TIP3   OH219094   0.712   4.977   3.590
 6363TIP3    H119095   0.790   4.920   3.595
 6363TIP3    H219096   0.639   4.916   3.586
 6364TIP3   OH219097   5.598   1.681   4.514
 6364TIP3    H119098   5.525   1.620   4.502
 6364TIP3    H219099   5.657   1.636   4.574
 6365TIP3   OH219100   2.760   1.691   0.427
 6365TIP3    H119101   2.847   1.731   0.424
 6365TIP3    H219102   2.705   1.747   0.374
 6366TIP3   OH219103   5.087   5.459   4.576
 6366TIP3    H119104   5.124   5.444   4.663
 6366TIP3    H219105   5.161   5.449   4.516
 6367TIP3   OH219106   0.591   5.376   2.386
 6367TIP3    H119107   0.514   5.352   2.439
 6367TIP3    H219108   0.591   5.312   2.315
 6368TIP3   OH219109   0.562   1.257   3.012
 6368TIP3    H119110   0.574   1.339   2.965
 6368TIP3    H219111   0.627   1.198   2.973
 6369TIP3   OH219112   4.489   1.068   1.200
 6369TIP3    H119113   4.580   1.095   1.207
 6369TIP3    H219114   4.462   1.050   1.290
 6370TIP3   OH219115   5.610   1.403   1.832
 6370TIP3    H119116   5.695   1.381   1.795
 6370TIP3    H219117   5.570   1.461   1.767
 6371TIP3   OH219118   5.310   3.309   0.207
 6371TIP3    H119119   5.388   3.253   0.204
 6371TIP3    H219120   5.281   3.305   0.299
 6372TIP3   OH219121   2.691   1.938   1.130
 6372TIP3    H119122   2.702   2.032   1.142
 6372TIP3    H219123   2.708   1.924   1.037
 6373TIP3   OH219124   1.850   4.102   0.279
 6373TIP3    H119125   1.836   4.037   0.349
 6373TIP3    H219126   1.868   4.049   0.202
 6374TIP3   OH219127   6.281   1.801   1.708
 6374TIP3    H119128   6.233   1.874   1.747
 6374TIP3    H219129   6.352   1.782   1.770
 6375TIP3   OH219130   3.705   4.433   3.608
 6375TIP3    H119131   3.669   4.393   3.529
 6375TIP3    H219132   3.647   4.507   3.626
 6376TIP3   OH219133   0.106   4.468   0.549
 6376TIP3    H119134   0.076   4.552   0.514
 6376TIP3    H219135   0.056   4.403   0.499
 6377TIP3   OH219136   2.489   4.663   1.657
 6377TIP3    H119137   2.578   4.691   1.638
 6377TIP3    H219138   2.445   4.662   1.572
 6378TIP3   OH219139   5.060   4.188   1.795
 6378TIP3    H119140   5.021   4.130   1.730
 6378TIP3    H219141   5.128   4.136   1.837
 6379TIP3   OH219142   1.263   5.129   0.361
 6379TIP3    H119143   1.338   5.135   0.421
 6379TIP3    H219144   1.303   5.115   0.275
 6380TIP3   OH219145   1.770   5.853   0.703
 6380TIP3    H119146   1.685   5.810   0.696
 6380TIP3    H219147   1.832   5.787   0.673
 6381TIP3   OH219148   1.434   5.813   1.716
 6381TIP3    H119149   1.345   5.784   1.696
 6381TIP3    H219150   1.470   5.745   1.772
 6382TIP3   OH219151   5.353   0.166   2.033
 6382TIP3    H119152   5.290   0.238   2.044
 6382TIP3    H219153   5.430   0.194   2.083
 6383TIP3   OH219154   0.581   1.554   4.570
 6383TIP3    H119155   0.607   1.462   4.563
 6383TIP3    H219156   0.659   1.604   4.548
 6384TIP3   OH219157   6.094   3.273   3.763
 6384TIP3    H119158   6.184   3.267   3.797
 6384TIP3    H219159   6.051   3.195   3.799
 6385TIP3   OH219160   5.809   0.806   1.465
 6385TIP3    H119161   5.734   0.782   1.410
 6385TIP3    H219162   5.810   0.902   1.463
 6386TIP3   OH219163   2.057   4.296   0.031
 6386TIP3    H119164   2.114   4.222   0.050
 6386TIP3    H219165   2.011   4.313   0.113
 6387TIP3   OH219166   4.959   5.722   4.626
 6387TIP3    H119167   4.997   5.720   4.714
 6387TIP3    H219168   4.992   5.642   4.584
 6388TIP3   OH219169   2.798   0.308   1.664
 6388TIP3    H119170   2.736   0.235   1.673
 6388TIP3    H219171   2.781   0.343   1.577
 6389TIP3   OH219172   4.138   1.717   0.268
 6389TIP3    H119173   4.103   1.738   0.182
 6389TIP3    H219174   4.218   1.768   0.275
 6390TIP3   OH219175   4.445   0.338   3.160
 6390TIP3    H119176   4.352   0.332   3.184
 6390TIP3    H219177   4.481   0.252   3.181
 6391TIP3   OH219178   0.264   0.628   1.461
 6391TIP3    H119179   0.352   0.620   1.424
 6391TIP3    H219180   0.212   0.567   1.408
 6392TIP3   OH219181   4.381   4.052   4.782
 6392TIP3    H119182   4.476   4.045   4.772
 6392TIP3    H219183   4.362   4.004   4.863
 6393TIP3   OH219184   5.535   3.601   3.761
 6393TIP3    H119185   5.509   3.534   3.697
 6393TIP3    H219186   5.629   3.615   3.745
 6394TIP3   OH219187   4.016   5.723   1.510
 6394TIP3    H119188   4.068   5.654   1.470
 6394TIP3    H219189   4.067   5.803   1.498
 6395TIP3   OH219190   1.403   3.278   1.524
 6395TIP3    H119191   1.399   3.192   1.565
 6395TIP3    H219192   1.431   3.337   1.594
 6396TIP3   OH219193   5.340   5.623   4.852
 6396TIP3    H119194   5.348   5.704   4.902
 6396TIP3    H219195   5.423   5.615   4.806
 6397TIP3   OH219196   3.281   2.395   1.063
 6397TIP3    H119197   3.224   2.410   0.987
 6397TIP3    H219198   3.238   2.324   1.111
 6398TIP3   OH219199   3.464   5.541   1.764
 6398TIP3    H119200   3.427   5.567   1.849
 6398TIP3    H219201   3.534   5.479   1.787
 6399TIP3   OH219202   3.614   4.458   3.016
 6399TIP3    H119203   3.708   4.444   3.025
 6399TIP3    H219204   3.594   4.430   2.927
 6400TIP3   OH219205   4.913   3.598   1.369
 6400TIP3    H119206   4.869   3.683   1.363
 6400TIP3    H219207   4.887   3.552   1.289
 6401TIP3   OH219208   4.874   1.739   4.221
 6401TIP3    H119209   4.783   1.718   4.201
 6401TIP3    H219210   4.876   1.834   4.228
 6402TIP3   OH219211   5.952   0.522   2.848
 6402TIP3    H119212   6.020   0.485   2.905
 6402TIP3    H219213   6.000   0.578   2.787
 6403TIP3   OH219214   4.052   2.526   1.436
 6403TIP3    H119215   4.091   2.476   1.507
 6403TIP3    H219216   4.125   2.546   1.377
 6404TIP3   OH219217   0.308   3.017   4.406
 6404TIP3    H119218   0.242   3.020   4.337
 6404TIP3    H219219   0.267   3.058   4.481
 6405TIP3   OH219220   3.259   5.844   1.599
 6405TIP3    H119221   3.220   5.772   1.649
 6405TIP3    H219222   3.352   5.822   1.594
 6406TIP3   OH219223   6.083   4.307   0.174
 6406TIP3    H119224   6.103   4.354   0.093
 6406TIP3    H219225   6.026   4.235   0.147
 6407TIP3   OH219226   0.871   4.445   1.398
 6407TIP3    H119227   0.842   4.533   1.376
 6407TIP3    H219228   0.790   4.394   1.405
 6408TIP3   OH219229   4.661   4.250   4.597
 6408TIP3    H119230   4.669   4.338   4.634
 6408TIP3    H219231   4.660   4.192   4.673
 6409TIP3   OH219232   0.126   2.099   1.831
 6409TIP3    H119233   0.081   2.168   1.879
 6409TIP3    H219234   0.103   2.114   1.740
 6410TIP3   OH219235   0.396   5.626   2.027
 6410TIP3    H119236   0.463   5.651   2.090
 6410TIP3    H219237   0.352   5.707   2.005
 6411TIP3   OH219238   1.793   2.563   0.908
 6411TIP3    H119239   1.840   2.494   0.954
 6411TIP3    H219240   1.859   2.631   0.892
 6412TIP3   OH219241   4.082   3.955   3.919
 6412TIP3    H119242   4.074   3.863   3.941
 6412TIP3    H219243   3.992   3.986   3.913
 6413TIP3   OH219244   4.940   4.989   4.175
 6413TIP3    H119245   4.950   4.926   4.246
 6413TIP3    H219246   5.022   4.985   4.126
 6414TIP3   OH219247   2.351   2.086   1.294
 6414TIP3    H119248   2.346   2.132   1.211
 6414TIP3    H219249   2.262   2.090   1.329
 6415TIP3   OH219250   6.256   4.663   3.686
 6415TIP3    H119251   6.165   4.680   3.659
 6415TIP3    H219252   6.254   4.675   3.781
 6416TIP3   OH219253   3.865   1.154   1.222
 6416TIP3    H119254   3.946   1.182   1.265
 6416TIP3    H219255   3.837   1.230   1.170
 6417TIP3   OH219256   3.809   3.162   2.702
 6417TIP3    H119257   3.724   3.130   2.671
 6417TIP3    H219258   3.847   3.088   2.749
 6418TIP3   OH219259   6.244   4.511   1.708
 6418TIP3    H119260   6.257   4.560   1.627
 6418TIP3    H219261   6.331   4.479   1.731
 6419TIP3   OH219262   5.907   3.573   2.193
 6419TIP3    H119263   5.823   3.533   2.169
 6419TIP3    H219264   5.887   3.666   2.203
 6420TIP3   OH219265   5.281   3.389   1.472
 6420TIP3    H119266   5.272   3.382   1.568
 6420TIP3    H219267   5.281   3.483   1.455
 6421TIP3   OH219268   1.194   4.880   3.898
 6421TIP3    H119269   1.191   4.926   3.982
 6421TIP3    H219270   1.222   4.946   3.835
 6422TIP3   OH219271   3.234   5.935   0.458
 6422TIP3    H119272   3.303   6.001   0.451
 6422TIP3    H219273   3.278   5.858   0.493
 6423TIP3   OH219274   1.302   2.518   3.250
 6423TIP3    H119275   1.370   2.556   3.306
 6423TIP3    H219276   1.350   2.471   3.181
 6424TIP3   OH219277   0.209   1.366   2.511
 6424TIP3    H119278   0.161   1.439   2.553
 6424TIP3    H219279   0.213   1.391   2.419
 6425TIP3   OH219280   1.647   0.143   2.503
 6425TIP3    H119281   1.692   0.154   2.419
 6425TIP3    H219282   1.714   0.105   2.560
 6426TIP3   OH219283   3.353   5.636   2.775
 6426TIP3    H119284   3.407   5.691   2.833
 6426TIP3    H219285   3.267   5.634   2.817
 6427TIP3   OH219286   3.474   0.488   4.639
 6427TIP3    H119287   3.561   0.457   4.665
 6427TIP3    H219288   3.470   0.578   4.671
 6428TIP3   OH219289   4.361   0.655   2.346
 6428TIP3    H119290   4.280   0.684   2.303
 6428TIP3    H219291   4.370   0.712   2.422
 6429TIP3   OH219292   0.372   3.972   0.010
 6429TIP3    H119293   0.452   4.024   0.013
 6429TIP3    H219294   0.359   3.953  -0.083
 6430TIP3   OH219295   0.299   1.242   4.892
 6430TIP3    H119296   0.300   1.217   4.800
 6430TIP3    H219297   0.207   1.259   4.912
 6431TIP3   OH219298   3.694   4.671   0.023
 6431TIP3    H119299   3.721   4.586   0.058
 6431TIP3    H219300   3.698   4.660  -0.072
 6432TIP3   OH219301   1.882   2.413   2.693
 6432TIP3    H119302   1.880   2.424   2.598
 6432TIP3    H219303   1.975   2.410   2.715
 6433TIP3   OH219304   1.407   5.645   2.690
 6433TIP3    H119305   1.446   5.640   2.603
 6433TIP3    H219306   1.480   5.637   2.750
 6434TIP3   OH219307   1.156   4.874   1.512
 6434TIP3    H119308   1.198   4.796   1.549
 6434TIP3    H219309   1.224   4.942   1.516
 6435TIP3   OH219310   4.539   3.623   1.579
 6435TIP3    H119311   4.583   3.677   1.644
 6435TIP3    H219312   4.570   3.534   1.595
 6436TIP3   OH219313   6.029   1.578   1.697
 6436TIP3    H119314   5.980   1.564   1.616
 6436TIP3    H219315   5.981   1.647   1.743
 6437TIP3   OH219316   0.340   1.351   1.154
 6437TIP3    H119317   0.261   1.305   1.129
 6437TIP3    H219318   0.353   1.329   1.247
 6438TIP3   OH219319   2.729   5.959   0.506
 6438TIP3    H119320   2.679   5.879   0.492
 6438TIP3    H219321   2.689   5.999   0.583
 6439TIP3   OH219322   1.019   4.358   3.800
 6439TIP3    H119323   1.018   4.396   3.712
 6439TIP3    H219324   1.047   4.268   3.786
 6440TIP3   OH219325   4.725   0.905   2.480
 6440TIP3    H119326   4.704   0.954   2.560
 6440TIP3    H219327   4.666   0.940   2.414
 6441TIP3   OH219328   2.426   4.693   2.426
 6441TIP3    H119329   2.483   4.669   2.498
 6441TIP3    H219330   2.431   4.619   2.366
 6442TIP3   OH219331   0.404   3.463   2.278
 6442TIP3    H119332   0.483   3.469   2.226
 6442TIP3    H219333   0.334   3.442   2.216
 6443TIP3   OH219334   4.340   2.827   2.994
 6443TIP3    H119335   4.320   2.766   2.923
 6443TIP3    H219336   4.260   2.878   3.005
 6444TIP3   OH219337   1.274   2.385   2.071
 6444TIP3    H119338   1.249   2.414   2.159
 6444TIP3    H219339   1.222   2.306   2.055
 6445TIP3   OH219340   4.494   3.506   4.288
 6445TIP3    H119341   4.400   3.498   4.309
 6445TIP3    H219342   4.513   3.430   4.233
 6446TIP3   OH219343   2.904   5.105   1.101
 6446TIP3    H119344   2.894   5.195   1.069
 6446TIP3    H219345   2.999   5.094   1.111
 6447TIP3   OH219346   5.146   5.854   3.351
 6447TIP3    H119347   5.109   5.827   3.435
 6447TIP3    H219348   5.200   5.779   3.324
 6448TIP3   OH219349   4.240   3.662   0.370
 6448TIP3    H119350   4.281   3.577   0.352
 6448TIP3    H219351   4.173   3.642   0.436
 6449TIP3   OH219352   3.425   5.792   0.639
 6449TIP3    H119353   3.496   5.828   0.585
 6449TIP3    H219354   3.408   5.861   0.704
 6450TIP3   OH219355   3.492   0.404   0.128
 6450TIP3    H119356   3.476   0.359   0.045
 6450TIP3    H219357   3.433   0.479   0.126
 6451TIP3   OH219358   0.123   5.304   3.294
 6451TIP3    H119359   0.087   5.223   3.331
 6451TIP3    H219360   0.107   5.296   3.200
 6452TIP3   OH219361   5.658   2.130   1.429
 6452TIP3    H119362   5.609   2.213   1.434
 6452TIP3    H219363   5.663   2.100   1.520
 6453TIP3   OH219364   2.861   0.716   4.092
 6453TIP3    H119365   2.918   0.674   4.028
 6453TIP3    H219366   2.776   0.673   4.081
 6454TIP3   OH219367   0.951   4.336   2.508
 6454TIP3    H119368   0.940   4.403   2.442
 6454TIP3    H219369   0.900   4.366   2.583
 6455TIP3   OH219370   1.958   2.652   0.291
 6455TIP3    H119371   2.048   2.683   0.304
 6455TIP3    H219372   1.936   2.675   0.201
 6456TIP3   OH219373   6.250   4.923   2.719
 6456TIP3    H119374   6.334   4.959   2.691
 6456TIP3    H219375   6.195   4.926   2.640
 6457TIP3   OH219376   1.921   5.514   3.781
 6457TIP3    H119377   1.929   5.444   3.847
 6457TIP3    H219378   2.010   5.543   3.766
 6458TIP3   OH219379   4.577   5.652   4.080
 6458TIP3    H119380   4.638   5.582   4.103
 6458TIP3    H219381   4.548   5.687   4.164
 6459TIP3   OH219382   1.033   1.139   1.209
 6459TIP3    H119383   1.058   1.178   1.293
 6459TIP3    H219384   0.980   1.063   1.233
 6460TIP3   OH219385   5.039   1.148   0.173
 6460TIP3    H119386   5.010   1.160   0.083
 6460TIP3    H219387   4.958   1.150   0.225
 6461TIP3   OH219388   3.141   2.871   2.823
 6461TIP3    H119389   3.170   2.823   2.746
 6461TIP3    H219390   3.182   2.825   2.896
 6462TIP3   OH219391   0.771   0.093   2.878
 6462TIP3    H119392   0.822   0.091   2.797
 6462TIP3    H219393   0.707   0.023   2.869
 6463TIP3   OH219394   6.049   2.534   0.992
 6463TIP3    H119395   6.054   2.619   1.037
 6463TIP3    H219396   6.127   2.487   1.022
 6464TIP3   OH219397   1.862   2.857   4.114
 6464TIP3    H119398   1.949   2.887   4.087
 6464TIP3    H219399   1.826   2.814   4.037
 6465TIP3   OH219400   2.469   0.689   2.108
 6465TIP3    H119401   2.390   0.653   2.068
 6465TIP3    H219402   2.463   0.783   2.094
 6466TIP3   OH219403   3.980   0.585   4.797
 6466TIP3    H119404   3.975   0.520   4.727
 6466TIP3    H219405   3.910   0.647   4.777
 6467TIP3   OH219406   2.386   2.009   2.932
 6467TIP3    H119407   2.443   2.034   2.859
 6467TIP3    H219408   2.298   2.016   2.897
 6468TIP3   OH219409   1.253   2.121   4.445
 6468TIP3    H119410   1.187   2.096   4.511
 6468TIP3    H219411   1.294   2.199   4.481
 6469TIP3   OH219412   1.592   0.734   3.674
 6469TIP3    H119413   1.662   0.758   3.612
 6469TIP3    H219414   1.582   0.640   3.663
 6470TIP3   OH219415   0.316   3.084   1.435
 6470TIP3    H119416   0.405   3.048   1.436
 6470TIP3    H219417   0.321   3.157   1.373
 6471TIP3   OH219418   4.966   5.882   1.127
 6471TIP3    H119419   4.876   5.891   1.158
 6471TIP3    H219420   4.997   5.972   1.116
 6472TIP3   OH219421   0.279   4.308   0.725
 6472TIP3    H119422   0.314   4.282   0.639
 6472TIP3    H219423   0.270   4.403   0.719
 6473TIP3   OH219424   1.288   3.036   1.320
 6473TIP3    H119425   1.382   3.018   1.321
 6473TIP3    H219426   1.247   2.949   1.329
 6474TIP3   OH219427   4.196   1.106   2.093
 6474TIP3    H119428   4.185   1.198   2.070
 6474TIP3    H219429   4.111   1.079   2.128
 6475TIP3   OH219430   1.438   2.775   5.089
 6475TIP3    H119431   1.437   2.870   5.076
 6475TIP3    H219432   1.522   2.758   5.131
 6476TIP3   OH219433   2.134   1.422   5.020
 6476TIP3    H119434   2.079   1.354   5.059
 6476TIP3    H219435   2.093   1.442   4.936
 6477TIP3   OH219436   6.262   3.352   5.058
 6477TIP3    H119437   6.286   3.275   5.111
 6477TIP3    H219438   6.174   3.374   5.087
 6478TIP3   OH219439   0.592   2.728   3.644
 6478TIP3    H119440   0.661   2.790   3.623
 6478TIP3    H219441   0.546   2.713   3.562
 6479TIP3   OH219442   0.079   5.943   3.587
 6479TIP3    H119443   0.109   6.011   3.647
 6479TIP3    H219444   0.005   5.901   3.633
 6480TIP3   OH219445   0.998   1.084   4.135
 6480TIP3    H119446   0.982   0.996   4.101
 6480TIP3    H219447   0.912   1.127   4.130
 6481TIP3   OH219448   4.698   1.990   4.225
 6481TIP3    H119449   4.647   2.016   4.148
 6481TIP3    H219450   4.759   2.062   4.238
 6482TIP3   OH219451   5.392   4.512   1.221
 6482TIP3    H119452   5.357   4.511   1.310
 6482TIP3    H219453   5.347   4.584   1.177
 6483TIP3   OH219454   0.220   5.452   3.935
 6483TIP3    H119455   0.162   5.437   3.860
 6483TIP3    H219456   0.216   5.370   3.985
 6484TIP3   OH219457   5.808   0.208   2.538
 6484TIP3    H119458   5.840   0.124   2.572
 6484TIP3    H219459   5.719   0.215   2.571
 6485TIP3   OH219460   4.564   4.073   4.148
 6485TIP3    H119461   4.542   4.049   4.238
 6485TIP3    H219462   4.585   4.167   4.153
 6486TIP3   OH219463   3.775   3.180   0.736
 6486TIP3    H119464   3.848   3.243   0.735
 6486TIP3    H219465   3.817   3.095   0.720
 6487TIP3   OH219466   4.001   3.857   4.901
 6487TIP3    H119467   3.918   3.830   4.941
 6487TIP3    H219468   4.060   3.869   4.975
 6488TIP3   OH219469   4.529   1.702   1.967
 6488TIP3    H119470   4.496   1.690   2.056
 6488TIP3    H219471   4.547   1.796   1.960
 6489TIP3   OH219472   5.885   2.542   2.534
 6489TIP3    H119473   5.968   2.563   2.491
 6489TIP3    H219474   5.833   2.500   2.466
 6490TIP3   OH219475   3.953   2.737   3.007
 6490TIP3    H119476   3.858   2.722   3.002
 6490TIP3    H219477   3.991   2.650   3.018
 6491TIP3   OH219478   1.115   0.161   1.245
 6491TIP3    H119479   1.188   0.111   1.281
 6491TIP3    H219480   1.133   0.252   1.271
 6492TIP3   OH219481   4.825   4.463   3.661
 6492TIP3    H119482   4.776   4.455   3.579
 6492TIP3    H219483   4.803   4.550   3.694
 6493TIP3   OH219484   3.581   3.184   2.386
 6493TIP3    H119485   3.508   3.127   2.410
 6493TIP3    H219486   3.604   3.158   2.297
 6494TIP3   OH219487   1.874   4.328   2.721
 6494TIP3    H119488   1.874   4.422   2.737
 6494TIP3    H219489   1.857   4.320   2.627
 6495TIP3   OH219490   4.457   3.144   1.243
 6495TIP3    H119491   4.496   3.179   1.162
 6495TIP3    H219492   4.456   3.219   1.303
 6496TIP3   OH219493   4.966   1.614   3.047
 6496TIP3    H119494   5.052   1.573   3.056
 6496TIP3    H219495   4.977   1.678   2.977
 6497TIP3   OH219496   1.015   4.070   5.098
 6497TIP3    H119497   1.041   4.162   5.097
 6497TIP3    H219498   1.096   4.023   5.076
 6498TIP3   OH219499   2.136   4.014   0.411
 6498TIP3    H119500   2.121   3.931   0.366
 6498TIP3    H219501   2.075   4.075   0.370
 6499TIP3   OH219502   2.599   0.653   3.259
 6499TIP3    H119503   2.519   0.621   3.217
 6499TIP3    H219504   2.578   0.743   3.284
 6500TIP3   OH219505   2.437   2.995   2.199
 6500TIP3    H119506   2.444   2.913   2.149
 6500TIP3    H219507   2.391   3.055   2.140
 6501TIP3   OH219508   1.861   2.822   2.348
 6501TIP3    H119509   1.828   2.858   2.265
 6501TIP3    H219510   1.794   2.759   2.374
 6502TIP3   OH219511   4.627   3.072   0.569
 6502TIP3    H119512   4.588   2.989   0.544
 6502TIP3    H219513   4.592   3.135   0.506
 6503TIP3   OH219514   3.163   1.071   3.356
 6503TIP3    H119515   3.150   1.108   3.443
 6503TIP3    H219516   3.254   1.040   3.357
 6504TIP3   OH219517   3.013   5.109   0.030
 6504TIP3    H119518   3.088   5.144   0.078
 6504TIP3    H219519   3.050   5.043  -0.028
 6505TIP3   OH219520   2.357   4.840   0.179
 6505TIP3    H119521   2.445   4.873   0.197
 6505TIP3    H219522   2.332   4.884   0.098
 6506TIP3   OH219523   5.397   2.450   3.675
 6506TIP3    H119524   5.343   2.480   3.602
 6506TIP3    H219525   5.419   2.529   3.724
 6507TIP3   OH219526   4.536   3.239   0.836
 6507TIP3    H119527   4.460   3.288   0.869
 6507TIP3    H219528   4.523   3.237   0.741
 6508TIP3   OH219529   3.717   0.733   2.902
 6508TIP3    H119530   3.774   0.783   2.959
 6508TIP3    H219531   3.714   0.784   2.821
 6509TIP3   OH219532   1.325   0.736   0.698
 6509TIP3    H119533   1.401   0.676   0.697
 6509TIP3    H219534   1.325   0.776   0.611
 6510TIP3   OH219535   3.686   0.603   1.435
 6510TIP3    H119536   3.649   0.529   1.484
 6510TIP3    H219537   3.750   0.641   1.494
 6511TIP3   OH219538   4.951   4.851   1.007
 6511TIP3    H119539   4.893   4.923   1.032
 6511TIP3    H219540   4.935   4.838   0.914
 6512TIP3   OH219541   2.966   1.986   3.885
 6512TIP3    H119542   2.893   2.033   3.845
 6512TIP3    H219543   2.929   1.900   3.907
 6513TIP3   OH219544   6.062   2.922   0.674
 6513TIP3    H119545   6.001   2.876   0.731
 6513TIP3    H219546   6.017   2.926   0.589
 6514TIP3   OH219547   4.852   5.310   3.503
 6514TIP3    H119548   4.834   5.342   3.414
 6514TIP3    H219549   4.767   5.307   3.546
 6515TIP3   OH219550   0.887   4.452   4.852
 6515TIP3    H119551   0.797   4.474   4.828
 6515TIP3    H219552   0.929   4.431   4.769
 6516TIP3   OH219553   3.973   4.021   0.208
 6516TIP3    H119554   3.880   4.007   0.224
 6516TIP3    H219555   4.016   3.995   0.289
 6517TIP3   OH219556   5.807   1.780   2.694
 6517TIP3    H119557   5.741   1.784   2.763
 6517TIP3    H219558   5.870   1.849   2.717
 6518TIP3   OH219559   3.777   0.129   0.201
 6518TIP3    H119560   3.758   0.043   0.165
 6518TIP3    H219561   3.870   0.144   0.180
 6519TIP3   OH219562   6.116   0.380   1.962
 6519TIP3    H119563   6.094   0.440   2.033
 6519TIP3    H219564   6.073   0.417   1.885
 6520TIP3   OH219565   2.269   4.848   3.176
 6520TIP3    H119566   2.277   4.906   3.252
 6520TIP3    H219567   2.357   4.841   3.141
 6521TIP3   OH219568   2.952   3.755   0.654
 6521TIP3    H119569   3.025   3.734   0.713
 6521TIP3    H219570   2.879   3.776   0.713
 6522TIP3   OH219571   3.903   2.331   2.220
 6522TIP3    H119572   3.814   2.366   2.210
 6522TIP3    H219573   3.928   2.304   2.132
 6523TIP3   OH219574   3.750   3.774   3.836
 6523TIP3    H119575   3.778   3.863   3.855
 6523TIP3    H219576   3.717   3.777   3.746
 6524TIP3   OH219577   1.667   0.834   1.334
 6524TIP3    H119578   1.754   0.795   1.339
 6524TIP3    H219579   1.617   0.773   1.280
 6525TIP3   OH219580   0.479   0.062   0.955
 6525TIP3    H119581   0.509  -0.028   0.942
 6525TIP3    H219582   0.559   0.115   0.947
 6526TIP3   OH219583   1.341   3.215   4.208
 6526TIP3    H119584   1.305   3.184   4.291
 6526TIP3    H219585   1.370   3.136   4.163
 6527TIP3   OH219586   2.197   4.513   0.462
 6527TIP3    H119587   2.123   4.487   0.406
 6527TIP3    H219588   2.269   4.457   0.433
 6528TIP3   OH219589   4.427   1.634   0.205
 6528TIP3    H119590   4.457   1.725   0.198
 6528TIP3    H219591   4.472   1.600   0.282
 6529TIP3   OH219592   3.218   4.597   4.932
 6529TIP3    H119593   3.227   4.689   4.955
 6529TIP3    H219594   3.259   4.590   4.846
 6530TIP3   OH219595   5.410   2.556   0.749
 6530TIP3    H119596   5.432   2.649   0.750
 6530TIP3    H219597   5.494   2.511   0.742
 6531TIP3   OH219598   1.846   2.299   4.878
 6531TIP3    H119599   1.848   2.258   4.965
 6531TIP3    H219600   1.754   2.302   4.855
 6532TIP3   OH219601   0.858   5.243   5.064
 6532TIP3    H119602   0.834   5.248   5.156
 6532TIP3    H219603   0.942   5.196   5.064
 6533TIP3   OH219604   1.169   1.744   1.585
 6533TIP3    H119605   1.214   1.810   1.637
 6533TIP3    H219606   1.223   1.665   1.595
 6534TIP3   OH219607   1.105   1.286   0.965
 6534TIP3    H119608   1.084   1.234   1.043
 6534TIP3    H219609   1.104   1.377   0.995
 6535TIP3   OH219610   5.310   0.214   3.255
 6535TIP3    H119611   5.243   0.275   3.224
 6535TIP3    H219612   5.391   0.264   3.253
 6536TIP3   OH219613   3.930   5.526   3.949
 6536TIP3    H119614   3.928   5.474   3.868
 6536TIP3    H219615   4.022   5.528   3.974
 6537TIP3   OH219616   1.738   5.503   4.299
 6537TIP3    H119617   1.761   5.414   4.273
 6537TIP3    H219618   1.711   5.495   4.391
 6538TIP3   OH219619   2.065   2.316   1.575
 6538TIP3    H119620   2.048   2.298   1.668
 6538TIP3    H219621   1.985   2.288   1.530
 6539TIP3   OH219622   1.368   2.505   4.666
 6539TIP3    H119623   1.299   2.546   4.613
 6539TIP3    H219624   1.428   2.468   4.601
 6540TIP3   OH219625   1.252   3.931   5.053
 6540TIP3    H119626   1.297   3.969   5.128
 6540TIP3    H219627   1.321   3.916   4.988
 6541TIP3   OH219628   1.257   0.058   1.700
 6541TIP3    H119629   1.214   0.138   1.730
 6541TIP3    H219630   1.348   0.069   1.726
 6542TIP3   OH219631   1.926   3.755   3.726
 6542TIP3    H119632   1.936   3.661   3.743
 6542TIP3    H219633   2.007   3.794   3.759
 6543TIP3   OH219634   3.423   4.081   2.950
 6543TIP3    H119635   3.399   3.991   2.973
 6543TIP3    H219636   3.492   4.071   2.884
 6544TIP3   OH219637   0.623   2.224   0.990
 6544TIP3    H119638   0.711   2.231   1.025
 6544TIP3    H219639   0.609   2.305   0.941
 6545TIP3   OH219640   2.046   4.228   3.425
 6545TIP3    H119641   2.038   4.148   3.373
 6545TIP3    H219642   2.087   4.199   3.507
 6546TIP3   OH219643   1.131   1.981   1.296
 6546TIP3    H119644   1.094   2.062   1.334
 6546TIP3    H219645   1.101   1.912   1.356
 6547TIP3   OH219646   5.452   0.815   3.819
 6547TIP3    H119647   5.526   0.774   3.773
 6547TIP3    H219648   5.386   0.746   3.825
 6548TIP3   OH219649   0.888   1.734   0.702
 6548TIP3    H119650   0.953   1.683   0.751
 6548TIP3    H219651   0.805   1.690   0.721
 6549TIP3   OH219652   0.166   0.451   4.842
 6549TIP3    H119653   0.084   0.414   4.808
 6549TIP3    H219654   0.208   0.489   4.765
 6550TIP3   OH219655   2.069   4.105   1.536
 6550TIP3    H119656   2.123   4.137   1.609
 6550TIP3    H219657   2.133   4.075   1.471
 6551TIP3   OH219658   1.338   0.662   1.325
 6551TIP3    H119659   1.306   0.711   1.248
 6551TIP3    H219660   1.306   0.713   1.400
 6552TIP3   OH219661   0.215   5.551   2.511
 6552TIP3    H119662   0.284   5.615   2.498
 6552TIP3    H219663   0.208   5.504   2.428
 6553TIP3   OH219664   3.781   2.613   1.390
 6553TIP3    H119665   3.867   2.574   1.374
 6553TIP3    H219666   3.720   2.555   1.345
 6554TIP3   OH219667   3.088   2.101   4.095
 6554TIP3    H119668   3.003   2.116   4.136
 6554TIP3    H219669   3.069   2.043   4.021
 6555TIP3   OH219670   1.254   1.058   4.137
 6555TIP3    H119671   1.247   0.968   4.106
 6555TIP3    H219672   1.165   1.093   4.131
 6556TIP3   OH219673   1.828   1.679   4.313
 6556TIP3    H119674   1.752   1.633   4.350
 6556TIP3    H219675   1.836   1.644   4.224
 6557TIP3   OH219676   5.103   0.562   3.368
 6557TIP3    H119677   5.095   0.603   3.282
 6557TIP3    H219678   5.180   0.505   3.361
 6558TIP3   OH219679   1.165   4.432   4.030
 6558TIP3    H119680   1.128   4.407   3.945
 6558TIP3    H219681   1.130   4.519   4.047
 6559TIP3   OH219682   2.619   4.773   4.215
 6559TIP3    H119683   2.595   4.851   4.267
 6559TIP3    H219684   2.712   4.786   4.195
 6560TIP3   OH219685   1.354   2.611   2.953
 6560TIP3    H119686   1.350   2.579   2.863
 6560TIP3    H219687   1.263   2.624   2.979
 6561TIP3   OH219688   4.405   0.694   0.279
 6561TIP3    H119689   4.323   0.668   0.320
 6561TIP3    H219690   4.473   0.650   0.329
 6562TIP3   OH219691   5.557   4.613   1.883
 6562TIP3    H119692   5.574   4.534   1.933
 6562TIP3    H219693   5.475   4.647   1.918
 6563TIP3   OH219694   3.338   1.683   3.338
 6563TIP3    H119695   3.334   1.614   3.404
 6563TIP3    H219696   3.297   1.759   3.380
 6564TIP3   OH219697   0.310   4.567   3.232
 6564TIP3    H119698   0.395   4.568   3.189
 6564TIP3    H219699   0.301   4.477   3.264
 6565TIP3   OH219700   0.215   1.794   0.311
 6565TIP3    H119701   0.184   1.721   0.365
 6565TIP3    H219702   0.286   1.833   0.362
 6566TIP3   OH219703   4.952   1.592   0.446
 6566TIP3    H119704   4.972   1.675   0.491
 6566TIP3    H219705   5.032   1.540   0.457
 6567TIP3   OH219706   3.725   5.306   4.236
 6567TIP3    H119707   3.706   5.212   4.238
 6567TIP3    H219708   3.819   5.312   4.224
 6568TIP3   OH219709   1.013   4.076   4.191
 6568TIP3    H119710   1.001   4.001   4.133
 6568TIP3    H219711   1.098   4.112   4.166
 6569TIP3   OH219712   5.753   1.023   0.972
 6569TIP3    H119713   5.839   0.985   0.991
 6569TIP3    H219714   5.748   1.101   1.027
 6570TIP3   OH219715   5.480   2.740   1.321
 6570TIP3    H119716   5.548   2.806   1.309
 6570TIP3    H219717   5.402   2.779   1.280
 6571TIP3   OH219718   0.845   1.969   1.563
 6571TIP3    H119719   0.939   1.988   1.564
 6571TIP3    H219720   0.840   1.873   1.558
 6572TIP3   OH219721   4.211   2.252   1.869
 6572TIP3    H119722   4.250   2.164   1.872
 6572TIP3    H219723   4.136   2.247   1.928
 6573TIP3   OH219724   5.995   5.391   0.219
 6573TIP3    H119725   6.028   5.337   0.291
 6573TIP3    H219726   6.073   5.438   0.187
 6574TIP3   OH219727   2.446   3.446   2.645
 6574TIP3    H119728   2.511   3.449   2.576
 6574TIP3    H219729   2.439   3.537   2.675
 6575TIP3   OH219730   6.167   2.286   3.134
 6575TIP3    H119731   6.235   2.227   3.165
 6575TIP3    H219732   6.088   2.258   3.181
 6576TIP3   OH219733   2.146   1.897   2.845
 6576TIP3    H119734   2.121   1.823   2.900
 6576TIP3    H219735   2.215   1.862   2.788
 6577TIP3   OH219736   1.165   2.361   1.035
 6577TIP3    H119737   1.084   2.385   0.989
 6577TIP3    H219738   1.227   2.429   1.011
 6578TIP3   OH219739   0.611   1.472   1.683
 6578TIP3    H119740   0.590   1.400   1.743
 6578TIP3    H219741   0.628   1.428   1.599
 6579TIP3   OH219742   4.059   5.623   3.194
 6579TIP3    H119743   3.981   5.589   3.239
 6579TIP3    H219744   4.052   5.587   3.106
 6580TIP3   OH219745   2.829   4.037   4.395
 6580TIP3    H119746   2.772   4.079   4.331
 6580TIP3    H219747   2.770   3.998   4.459
 6581TIP3   OH219748   6.268   5.824   3.777
 6581TIP3    H119749   6.239   5.873   3.853
 6581TIP3    H219750   6.191   5.773   3.751
 6582TIP3   OH219751   5.477   5.493   3.659
 6582TIP3    H119752   5.446   5.479   3.569
 6582TIP3    H219753   5.455   5.412   3.705
 6583TIP3   OH219754   5.724   4.453   2.143
 6583TIP3    H119755   5.748   4.532   2.095
 6583TIP3    H219756   5.805   4.401   2.145
 6584TIP3   OH219757   2.910   2.571   0.804
 6584TIP3    H119758   2.892   2.645   0.746
 6584TIP3    H219759   2.946   2.611   0.883
 6585TIP3   OH219760   2.374   0.883   5.114
 6585TIP3    H119761   2.386   0.857   5.206
 6585TIP3    H219762   2.435   0.956   5.102
 6586TIP3   OH219763   1.577   3.046   3.218
 6586TIP3    H119764   1.633   2.968   3.211
 6586TIP3    H219765   1.614   3.095   3.291
 6587TIP3   OH219766   6.054   1.221   0.771
 6587TIP3    H119767   6.109   1.182   0.838
 6587TIP3    H219768   5.983   1.264   0.820
 6588TIP3   OH219769   0.939   5.767   0.615
 6588TIP3    H119770   0.891   5.804   0.541
 6588TIP3    H219771   0.927   5.831   0.686
 6589TIP3   OH219772   4.409   4.383   2.328
 6589TIP3    H119773   4.499   4.382   2.297
 6589TIP3    H219774   4.356   4.382   2.248
 6590TIP3   OH219775   2.573   4.116   3.266
 6590TIP3    H119776   2.478   4.127   3.259
 6590TIP3    H219777   2.608   4.204   3.261
 6591TIP3   OH219778   2.228   1.407   0.487
 6591TIP3    H119779   2.291   1.351   0.532
 6591TIP3    H219780   2.267   1.420   0.400
 6592TIP3   OH219781   0.620   1.282   4.524
 6592TIP3    H119782   0.600   1.208   4.468
 6592TIP3    H219783   0.618   1.246   4.613
 6593TIP3   OH219784   4.838   1.812   4.818
 6593TIP3    H119785   4.754   1.845   4.849
 6593TIP3    H219786   4.836   1.718   4.838
 6594TIP3   OH219787   1.126   3.692   1.890
 6594TIP3    H119788   1.066   3.634   1.843
 6594TIP3    H219789   1.080   3.713   1.971
 6595TIP3   OH219790   4.598   5.178   4.811
 6595TIP3    H119791   4.619   5.192   4.903
 6595TIP3    H219792   4.583   5.083   4.804
 6596TIP3   OH219793   5.883   1.166   1.936
 6596TIP3    H119794   5.866   1.214   1.855
 6596TIP3    H219795   5.867   1.229   2.006
 6597TIP3   OH219796   5.981   1.273   4.846
 6597TIP3    H119797   5.989   1.219   4.925
 6597TIP3    H219798   6.002   1.362   4.875
 6598TIP3   OH219799   2.084   4.580   3.981
 6598TIP3    H119800   2.068   4.660   4.031
 6598TIP3    H219801   2.099   4.611   3.891
 6599TIP3   OH219802   1.538   4.334   3.171
 6599TIP3    H119803   1.598   4.333   3.246
 6599TIP3    H219804   1.560   4.414   3.123
 6600TIP3   OH219805   2.026   1.504   0.304
 6600TIP3    H119806   2.019   1.568   0.375
 6600TIP3    H219807   2.085   1.437   0.339
 6601TIP3   OH219808   1.308   4.171   0.286
 6601TIP3    H119809   1.308   4.206   0.375
 6601TIP3    H219810   1.399   4.144   0.271
 6602TIP3   OH219811   1.886   4.746   4.994
 6602TIP3    H119812   1.826   4.691   4.943
 6602TIP3    H219813   1.835   4.771   5.071
 6603TIP3   OH219814   1.736   0.150   1.035
 6603TIP3    H119815   1.751   0.094   1.111
 6603TIP3    H219816   1.653   0.193   1.054
 6604TIP3   OH219817   3.262   0.845   0.762
 6604TIP3    H119818   3.320   0.860   0.836
 6604TIP3    H219819   3.312   0.872   0.685
 6605TIP3   OH219820   4.174   3.719   1.935
 6605TIP3    H119821   4.210   3.633   1.957
 6605TIP3    H219822   4.173   3.767   2.018
 6606TIP3   OH219823   0.418   1.893   3.297
 6606TIP3    H119824   0.361   1.963   3.331
 6606TIP3    H219825   0.392   1.815   3.347
 6607TIP3   OH219826   3.024   3.151   4.988
 6607TIP3    H119827   2.934   3.129   4.964
 6607TIP3    H219828   3.064   3.068   5.012
 6608TIP3   OH219829   3.463   1.261   0.642
 6608TIP3    H119830   3.524   1.228   0.708
 6608TIP3    H219831   3.464   1.356   0.654
 6609TIP3   OH219832   4.951   2.219   1.306
 6609TIP3    H119833   4.912   2.139   1.342
 6609TIP3    H219834   4.974   2.196   1.216
 6610TIP3   OH219835   6.218   1.768   5.129
 6610TIP3    H119836   6.262   1.836   5.181
 6610TIP3    H219837   6.262   1.687   5.154
 6611TIP3   OH219838   4.393   4.931   3.878
 6611TIP3    H119839   4.349   4.877   3.944
 6611TIP3    H219840   4.413   5.013   3.924
 6612TIP3   OH219841   2.861   0.568   4.559
 6612TIP3    H119842   2.929   0.532   4.615
 6612TIP3    H219843   2.905   0.587   4.476
 6613TIP3   OH219844   2.555   1.791   2.607
 6613TIP3    H119845   2.619   1.843   2.656
 6613TIP3    H219846   2.495   1.757   2.674
 6614TIP3   OH219847   5.047   0.984   2.667
 6614TIP3    H119848   4.968   1.008   2.715
 6614TIP3    H219849   5.059   0.891   2.684
 6615TIP3   OH219850   1.308   3.795   4.112
 6615TIP3    H119851   1.287   3.888   4.103
 6615TIP3    H219852   1.379   3.781   4.049
 6616TIP3   OH219853   4.844   1.013   0.518
 6616TIP3    H119854   4.776   1.068   0.558
 6616TIP3    H219855   4.814   1.001   0.428
 6617TIP3   OH219856   1.682   0.199   4.309
 6617TIP3    H119857   1.737   0.270   4.344
 6617TIP3    H219858   1.718   0.182   4.222
 6618TIP3   OH219859   0.548   0.272   0.743
 6618TIP3    H119860   0.464   0.267   0.787
 6618TIP3    H219861   0.613   0.270   0.814
 6619TIP3   OH219862   2.093   3.231   1.029
 6619TIP3    H119863   2.161   3.296   1.010
 6619TIP3    H219864   2.017   3.282   1.056
 6620TIP3   OH219865   3.178   5.541   0.002
 6620TIP3    H119866   3.212   5.608  -0.056
 6620TIP3    H219867   3.152   5.588   0.081
 6621TIP3   OH219868   4.152   1.823   4.740
 6621TIP3    H119869   4.144   1.783   4.827
 6621TIP3    H219870   4.062   1.832   4.710
 6622TIP3   OH219871   5.283   1.737   0.243
 6622TIP3    H119872   5.223   1.750   0.170
 6622TIP3    H219873   5.288   1.641   0.252
 6623TIP3   OH219874   4.048   2.171   3.978
 6623TIP3    H119875   4.142   2.152   3.984
 6623TIP3    H219876   4.025   2.207   4.064
 6624TIP3   OH219877   2.344   0.997   4.188
 6624TIP3    H119878   2.292   1.076   4.177
 6624TIP3    H219879   2.337   0.976   4.282
 6625TIP3   OH219880   0.291   0.015   2.463
 6625TIP3    H119881   0.259   0.103   2.481
 6625TIP3    H219882   0.330   0.021   2.375
 6626TIP3   OH219883   2.793   1.352   4.018
 6626TIP3    H119884   2.755   1.271   3.985
 6626TIP3    H219885   2.767   1.355   4.110
 6627TIP3   OH219886   1.509   3.769   0.767
 6627TIP3    H119887   1.539   3.796   0.854
 6627TIP3    H219888   1.578   3.713   0.733
 6628TIP3   OH219889   1.825   2.356   3.991
 6628TIP3    H119890   1.755   2.413   4.023
 6628TIP3    H219891   1.805   2.270   4.029
 6629TIP3   OH219892   2.232   2.987   0.997
 6629TIP3    H119893   2.254   2.966   1.088
 6629TIP3    H219894   2.172   3.061   1.003
 6630TIP3   OH219895   1.952   0.292   3.756
 6630TIP3    H119896   1.887   0.222   3.747
 6630TIP3    H219897   1.923   0.359   3.693
 6631TIP3   OH219898   0.974   1.640   1.837
 6631TIP3    H119899   1.058   1.647   1.792
 6631TIP3    H219900   0.981   1.559   1.888
 6632TIP3   OH219901   4.660   3.332   2.395
 6632TIP3    H119902   4.656   3.255   2.452
 6632TIP3    H219903   4.752   3.338   2.370
 6633TIP3   OH219904   5.082   3.741   0.724
 6633TIP3    H119905   5.008   3.681   0.734
 6633TIP3    H219906   5.133   3.729   0.804
 6634TIP3   OH219907   3.677   3.497   0.947
 6634TIP3    H119908   3.609   3.429   0.950
 6634TIP3    H219909   3.640   3.569   0.999
 6635TIP3   OH219910   0.623   2.177   4.233
 6635TIP3    H119911   0.700   2.209   4.185
 6635TIP3    H219912   0.564   2.252   4.235
 6636TIP3   OH219913   1.245   1.316   0.501
 6636TIP3    H119914   1.229   1.292   0.409
 6636TIP3    H219915   1.289   1.240   0.538
 6637TIP3   OH219916   1.119   2.481   4.186
 6637TIP3    H119917   1.095   2.392   4.212
 6637TIP3    H219918   1.176   2.470   4.110
 6638TIP3   OH219919   4.881   5.710   5.152
 6638TIP3    H119920   4.938   5.685   5.079
 6638TIP3    H219921   4.833   5.786   5.120
 6639TIP3   OH219922   4.474   4.063   3.706
 6639TIP3    H119923   4.433   4.149   3.699
 6639TIP3    H219924   4.404   4.001   3.688
 6640TIP3   OH219925   3.765   2.099   1.843
 6640TIP3    H119926   3.760   2.032   1.775
 6640TIP3    H219927   3.780   2.050   1.924
   6.34431   5.98147   5.18011   0.00000   0.00000  -2.11477   0.00000  -2.11477  -2.99074
