Title t= 478.00000 step= 239000
29212
    1ASP      N    1   3.421   2.136   2.531
    1ASP    HT1    2   3.423   2.226   2.583
    1ASP    HT2    3   3.365   2.162   2.447
    1ASP    HT3    4   3.519   2.116   2.503
    1ASP     CA    5   3.373   2.030   2.626
    1ASP     HA    6   3.375   1.937   2.570
    1ASP     CB    7   3.477   2.016   2.737
    1ASP    HB1    8   3.440   1.951   2.819
    1ASP    HB2    9   3.480   2.119   2.778
    1ASP     CG   10   3.609   1.973   2.681
    1ASP    OD1   11   3.626   1.974   2.557
    1ASP    OD2   12   3.693   1.929   2.760
    1ASP      C   13   3.237   2.057   2.689
    1ASP      O   14   3.195   2.171   2.693
    2GLY      N   15   3.174   1.948   2.744
    2GLY     HN   16   3.205   1.856   2.721
    2GLY     CA   17   3.035   1.941   2.793
    2GLY    HA1   18   3.015   2.027   2.854
    2GLY    HA2   19   3.030   1.858   2.861
    2GLY      C   20   2.934   1.936   2.680
    2GLY      O   21   2.961   1.959   2.561
    3ASP      N   22   2.811   1.891   2.715
    3ASP     HN   23   2.779   1.882   2.809
    3ASP     CA   24   2.706   1.873   2.616
    3ASP     HA   25   2.755   1.831   2.530
    3ASP     CB   26   2.622   1.756   2.655
    3ASP    HB1   27   2.554   1.736   2.569
    3ASP    HB2   28   2.571   1.782   2.749
    3ASP     CG   29   2.705   1.631   2.683
    3ASP    OD1   30   2.670   1.555   2.779
    3ASP    OD2   31   2.790   1.592   2.602
    3ASP      C   32   2.622   1.997   2.577
    3ASP      O   33   2.612   2.099   2.651
    4GLY      N   34   2.547   1.988   2.465
    4GLY     HN   35   2.537   1.902   2.415
    4GLY     CA   36   2.449   2.086   2.416
    4GLY    HA1   37   2.407   2.052   2.323
    4GLY    HA2   38   2.498   2.182   2.405
    4GLY      C   39   2.326   2.106   2.508
    4GLY      O   40   2.295   2.018   2.590
    5PRO      N   41   2.241   2.206   2.483
    5PRO     CD   42   2.248   2.289   2.363
    5PRO    HD1   43   2.205   2.225   2.283
    5PRO    HD2   44   2.348   2.324   2.330
    5PRO     CA   45   2.134   2.244   2.581
    5PRO     HA   46   2.190   2.281   2.665
    5PRO     CB   47   2.052   2.343   2.495
    5PRO    HB1   48   2.003   2.409   2.570
    5PRO    HB2   49   1.980   2.280   2.439
    5PRO     CG   50   2.148   2.402   2.394
    5PRO    HG1   51   2.112   2.452   2.301
    5PRO    HG2   52   2.206   2.474   2.456
    5PRO      C   53   2.043   2.132   2.633
    5PRO      O   54   1.997   2.055   2.545
    6GLY      N   55   2.023   2.125   2.761
    6GLY     HN   56   2.080   2.179   2.822
    6GLY     CA   57   1.914   2.042   2.820
    6GLY    HA1   58   1.910   2.056   2.927
    6GLY    HA2   59   1.933   1.938   2.798
    6GLY      C   60   1.778   2.075   2.760
    6GLY      O   61   1.754   2.181   2.704
    7ASP      N   62   1.681   1.984   2.787
    7ASP     HN   63   1.706   1.902   2.838
    7ASP     CA   64   1.543   1.999   2.763
    7ASP     HA   65   1.543   2.026   2.659
    7ASP     CB   66   1.479   1.858   2.791
    7ASP    HB1   67   1.368   1.862   2.784
    7ASP    HB2   68   1.518   1.820   2.888
    7ASP     CG   69   1.520   1.758   2.686
    7ASP    OD1   70   1.528   1.639   2.718
    7ASP    OD2   71   1.531   1.789   2.566
    7ASP      C   72   1.478   2.103   2.851
    7ASP      O   73   1.510   2.121   2.970
    8PRO      N   74   1.378   2.168   2.797
    8PRO     CD   75   1.348   2.179   2.652
    8PRO    HD1   76   1.315   2.085   2.604
    8PRO    HD2   77   1.434   2.213   2.591
    8PRO     CA   78   1.306   2.272   2.872
    8PRO     HA   79   1.376   2.340   2.919
    8PRO     CB   80   1.231   2.364   2.769
    8PRO    HB1   81   1.300   2.450   2.754
    8PRO    HB2   82   1.128   2.398   2.796
    8PRO     CG   83   1.229   2.281   2.644
    8PRO    HG1   84   1.131   2.230   2.626
    8PRO    HG2   85   1.258   2.342   2.556
    8PRO      C   86   1.211   2.229   2.978
    8PRO      O   87   1.146   2.316   3.029
    9GLY      N   88   1.212   2.097   3.022
    9GLY     HN   89   1.286   2.040   2.986
    9GLY     CA   90   1.122   2.039   3.118
    9GLY    HA1   91   1.143   1.933   3.118
    9GLY    HA2   92   1.017   2.056   3.097
    9GLY      C   93   1.142   2.096   3.256
    9GLY      O   94   1.224   2.185   3.279
   10ASP      N   95   1.049   2.053   3.352
   10ASP     HN   96   0.971   1.995   3.328
   10ASP     CA   97   1.041   2.115   3.477
   10ASP     HA   98   1.070   2.219   3.470
   10ASP     CB   99   0.894   2.115   3.535
   10ASP    HB1  100   0.919   2.140   3.640
   10ASP    HB2  101   0.859   2.011   3.546
   10ASP     CG  102   0.784   2.185   3.458
   10ASP    OD1  103   0.797   2.248   3.354
   10ASP    OD2  104   0.669   2.182   3.515
   10ASP      C  105   1.139   2.048   3.582
   10ASP      O  106   1.161   1.926   3.591
   11GLY      N  107   1.186   2.126   3.672
   11GLY     HN  108   1.162   2.223   3.663
   11GLY     CA  109   1.255   2.079   3.794
   11GLY    HA1  110   1.270   1.973   3.783
   11GLY    HA2  111   1.207   2.109   3.885
   11GLY      C  112   1.392   2.138   3.798
   11GLY    OT1  113   1.446   2.125   3.911
   11GLY    OT2  114   1.459   2.183   3.698
   12LIT    LIT  115   0.825   1.415   1.656
   13LIT    LIT  116   6.119   0.714   0.801
   14LIT    LIT  117   0.753   5.172   0.081
   15LIT    LIT  118   6.227   4.034   2.068
   16LIT    LIT  119   1.595   2.234   3.840
   17LIT    LIT  120   3.199   5.364   3.957
   18LIT    LIT  121   2.900   3.864   2.938
   19LIT    LIT  122   6.582   0.089   5.298
   20LIT    LIT  123   0.363   0.291   4.692
   21LIT    LIT  124   1.231   4.999   4.694
   22LIT    LIT  125   5.408   1.500   3.718
   23LIT    LIT  126   4.858   1.379   1.239
   24LIT    LIT  127   2.230   5.979   0.967
   25LIT    LIT  128   0.380   3.327   1.561
   26LIT    LIT  129   0.626   2.332   3.411
   27LIT    LIT  130   6.005   5.934   4.709
   28LIT    LIT  131   4.493   0.186   4.999
   29LIT    LIT  132   6.282   2.155   2.920
   30LIT    LIT  133   1.377   0.550   1.576
   31LIT    LIT  134   5.895   3.099   0.755
   32LIT    LIT  135   6.453   5.359   5.689
   33LIT    LIT  136   2.618   4.782   2.838
   34LIT    LIT  137   6.243   2.462   4.824
   35LIT    LIT  138   0.678   1.566   2.446
   36LIT    LIT  139   6.895   6.160   2.067
   37LIT    LIT  140   2.619   4.298   4.314
   38LIT    LIT  141   0.663   0.760   0.489
   39LIT    LIT  142   3.808   1.898   2.562
   40LIT    LIT  143   3.926   6.344   2.634
   41LIT    LIT  144   3.547   2.166   3.502
   42LIT    LIT  145   2.800   1.416   2.701
   43CLA    CLA  146   3.798   6.237   2.447
   44CLA    CLA  147   0.162   4.698   4.564
   45CLA    CLA  148   2.718   3.232   3.163
   46CLA    CLA  149   4.010   0.783   5.315
   47CLA    CLA  150   0.504   0.745   2.841
   48CLA    CLA  151   5.558   6.556   2.391
   49CLA    CLA  152   0.823   3.206   3.785
   50CLA    CLA  153   6.739   3.349   1.713
   51CLA    CLA  154   6.090  -0.001   1.481
   52CLA    CLA  155   1.273   5.480   4.841
   53CLA    CLA  156   3.085   1.263   3.399
   54CLA    CLA  157   2.278   1.145   0.493
   55CLA    CLA  158   0.460   3.038   5.447
   56CLA    CLA  159   1.723   0.662   3.035
   57CLA    CLA  160   1.109   0.522   4.327
   58CLA    CLA  161   2.549   4.797   2.611
   59CLA    CLA  162   5.261   1.524   1.730
   60CLA    CLA  163   1.757   6.392   1.336
   61CLA    CLA  164   0.526   1.406   2.364
   62CLA    CLA  165   1.799   1.678   2.279
   63CLA    CLA  166   2.081   5.979   4.751
   64CLA    CLA  167   6.972   1.232   5.235
   65CLA    CLA  168   1.675   6.174   0.366
   66CLA    CLA  169   6.634   4.089   1.052
   67CLA    CLA  170   0.180   4.311   4.886
   68CLA    CLA  171   4.533   1.919   3.641
   69CLA    CLA  172   2.902   5.740   4.889
   70TIP3   OH2  173   2.358   3.377   2.337
   70TIP3    H1  174   2.370   3.324   2.258
   70TIP3    H2  175   2.354   3.314   2.408
   71TIP3   OH2  176   1.899   0.831   1.117
   71TIP3    H1  177   1.862   0.759   1.168
   71TIP3    H2  178   1.888   0.804   1.026
   72TIP3   OH2  179   6.788   5.789   5.331
   72TIP3    H1  180   6.826   5.716   5.282
   72TIP3    H2  181   6.861   5.822   5.384
   73TIP3   OH2  182   2.494   6.510   4.558
   73TIP3    H1  183   2.467   6.428   4.598
   73TIP3    H2  184   2.568   6.487   4.502
   74TIP3   OH2  185   2.223   3.319   4.546
   74TIP3    H1  186   2.190   3.378   4.614
   74TIP3    H2  187   2.310   3.294   4.577
   75TIP3   OH2  188   5.282   2.744   1.894
   75TIP3    H1  189   5.306   2.819   1.839
   75TIP3    H2  190   5.205   2.707   1.850
   76TIP3   OH2  191   1.941   1.184  -0.018
   76TIP3    H1  192   2.006   1.186   0.053
   76TIP3    H2  193   1.857   1.200   0.025
   77TIP3   OH2  194   5.305   4.994   3.303
   77TIP3    H1  195   5.306   4.995   3.207
   77TIP3    H2  196   5.212   5.002   3.325
   78TIP3   OH2  197   4.639   1.982   4.425
   78TIP3    H1  198   4.623   2.017   4.337
   78TIP3    H2  199   4.620   2.054   4.484
   79TIP3   OH2  200   2.870   5.857   2.469
   79TIP3    H1  201   2.918   5.858   2.551
   79TIP3    H2  202   2.779   5.839   2.495
   80TIP3   OH2  203   1.799   0.754   2.725
   80TIP3    H1  204   1.786   0.734   2.818
   80TIP3    H2  205   1.893   0.765   2.716
   81TIP3   OH2  206   6.180   1.651   0.998
   81TIP3    H1  207   6.146   1.710   1.065
   81TIP3    H2  208   6.267   1.685   0.977
   82TIP3   OH2  209   6.095   6.813   0.060
   82TIP3    H1  210   6.122   6.728   0.093
   82TIP3    H2  211   6.134   6.819  -0.027
   83TIP3   OH2  212   6.758   2.288   0.328
   83TIP3    H1  213   6.672   2.249   0.346
   83TIP3    H2  214   6.785   2.250   0.245
   84TIP3   OH2  215   0.340   5.490   5.329
   84TIP3    H1  216   0.418   5.530   5.367
   84TIP3    H2  217   0.279   5.563   5.316
   85TIP3   OH2  218   0.393   0.909   2.588
   85TIP3    H1  219   0.418   0.845   2.654
   85TIP3    H2  220   0.298   0.916   2.595
   86TIP3   OH2  221   0.322   6.523   0.165
   86TIP3    H1  222   0.333   6.613   0.137
   86TIP3    H2  223   0.267   6.529   0.244
   87TIP3   OH2  224   6.386   2.911   1.761
   87TIP3    H1  225   6.457   2.878   1.705
   87TIP3    H2  226   6.322   2.946   1.699
   88TIP3   OH2  227   1.269   4.846   5.097
   88TIP3    H1  228   1.220   4.778   5.144
   88TIP3    H2  229   1.229   4.928   5.125
   89TIP3   OH2  230   0.803   5.249   0.812
   89TIP3    H1  231   0.753   5.268   0.891
   89TIP3    H2  232   0.847   5.166   0.830
   90TIP3   OH2  233   2.753   3.492   2.038
   90TIP3    H1  234   2.822   3.426   2.024
   90TIP3    H2  235   2.726   3.516   1.949
   91TIP3   OH2  236   5.863   1.695   5.820
   91TIP3    H1  237   5.822   1.626   5.768
   91TIP3    H2  238   5.861   1.773   5.765
   92TIP3   OH2  239   3.062   0.556   0.115
   92TIP3    H1  240   3.042   0.505   0.037
   92TIP3    H2  241   2.980   0.603   0.134
   93TIP3   OH2  242   4.844   4.528   0.326
   93TIP3    H1  243   4.869   4.620   0.320
   93TIP3    H2  244   4.928   4.480   0.324
   94TIP3   OH2  245   2.685   4.588   0.346
   94TIP3    H1  246   2.741   4.651   0.392
   94TIP3    H2  247   2.719   4.587   0.257
   95TIP3   OH2  248   1.624   1.016   0.932
   95TIP3    H1  249   1.652   0.925   0.918
   95TIP3    H2  250   1.531   1.016   0.909
   96TIP3   OH2  251   4.836   3.891   4.056
   96TIP3    H1  252   4.921   3.874   4.097
   96TIP3    H2  253   4.855   3.902   3.963
   97TIP3   OH2  254   0.280   4.300   2.845
   97TIP3    H1  255   0.362   4.347   2.857
   97TIP3    H2  256   0.228   4.356   2.787
   98TIP3   OH2  257   1.166   4.845   1.436
   98TIP3    H1  258   1.242   4.898   1.461
   98TIP3    H2  259   1.201   4.757   1.422
   99TIP3   OH2  260   1.025   3.036   3.130
   99TIP3    H1  261   1.077   3.055   3.208
   99TIP3    H2  262   1.044   2.945   3.110
  100TIP3   OH2  263   0.940   3.046   4.108
  100TIP3    H1  264   0.907   3.088   4.188
  100TIP3    H2  265   1.025   3.009   4.134
  101TIP3   OH2  266   6.401   5.558   5.578
  101TIP3    H1  267   6.484   5.591   5.545
  101TIP3    H2  268   6.338   5.579   5.508
  102TIP3   OH2  269   2.680   1.408   4.192
  102TIP3    H1  270   2.716   1.342   4.252
  102TIP3    H2  271   2.630   1.466   4.249
  103TIP3   OH2  272   1.032   0.504   2.468
  103TIP3    H1  273   0.973   0.455   2.526
  103TIP3    H2  274   1.034   0.453   2.387
  104TIP3   OH2  275   0.619   2.687   1.642
  104TIP3    H1  276   0.569   2.667   1.721
  104TIP3    H2  277   0.612   2.782   1.633
  105TIP3   OH2  278   2.651   0.389   3.312
  105TIP3    H1  279   2.685   0.478   3.320
  105TIP3    H2  280   2.561   0.401   3.280
  106TIP3   OH2  281   2.697   3.500   1.488
  106TIP3    H1  282   2.656   3.583   1.465
  106TIP3    H2  283   2.666   3.481   1.577
  107TIP3   OH2  284   5.322   3.158   4.653
  107TIP3    H1  285   5.339   3.131   4.744
  107TIP3    H2  286   5.409   3.157   4.612
  108TIP3   OH2  287   2.222   5.265   0.670
  108TIP3    H1  288   2.200   5.203   0.600
  108TIP3    H2  289   2.236   5.209   0.747
  109TIP3   OH2  290   2.308   4.025   0.958
  109TIP3    H1  291   2.370   4.025   1.032
  109TIP3    H2  292   2.347   3.965   0.895
  110TIP3   OH2  293   5.213   4.593   2.997
  110TIP3    H1  294   5.262   4.659   2.947
  110TIP3    H2  295   5.203   4.633   3.083
  111TIP3   OH2  296   2.891   5.888   3.485
  111TIP3    H1  297   2.865   5.976   3.511
  111TIP3    H2  298   2.956   5.901   3.416
  112TIP3   OH2  299   4.922   4.408   3.633
  112TIP3    H1  300   4.914   4.313   3.627
  112TIP3    H2  301   4.981   4.423   3.707
  113TIP3   OH2  302   3.192   1.443   1.700
  113TIP3    H1  303   3.157   1.530   1.716
  113TIP3    H2  304   3.267   1.458   1.642
  114TIP3   OH2  305   3.223   4.632   1.920
  114TIP3    H1  306   3.313   4.600   1.913
  114TIP3    H2  307   3.230   4.711   1.972
  115TIP3   OH2  308   4.449   5.825   2.969
  115TIP3    H1  309   4.476   5.790   3.054
  115TIP3    H2  310   4.497   5.771   2.905
  116TIP3   OH2  311   6.150   5.817   4.737
  116TIP3    H1  312   6.223   5.804   4.798
  116TIP3    H2  313   6.141   5.732   4.693
  117TIP3   OH2  314   6.696   4.242   4.167
  117TIP3    H1  315   6.776   4.257   4.115
  117TIP3    H2  316   6.696   4.313   4.231
  118TIP3   OH2  317   5.676   6.667   0.790
  118TIP3    H1  318   5.748   6.686   0.849
  118TIP3    H2  319   5.687   6.574   0.768
  119TIP3   OH2  320   3.448   3.880   4.239
  119TIP3    H1  321   3.398   3.800   4.251
  119TIP3    H2  322   3.539   3.852   4.240
  120TIP3   OH2  323   6.752   0.567   1.818
  120TIP3    H1  324   6.694   0.499   1.852
  120TIP3    H2  325   6.703   0.608   1.747
  121TIP3   OH2  326   0.260   2.044   3.711
  121TIP3    H1  327   0.347   2.030   3.674
  121TIP3    H2  328   0.275   2.087   3.795
  122TIP3   OH2  329   4.261   5.424   3.158
  122TIP3    H1  330   4.194   5.396   3.220
  122TIP3    H2  331   4.268   5.351   3.096
  123TIP3   OH2  332   0.324   5.517   1.317
  123TIP3    H1  333   0.393   5.583   1.323
  123TIP3    H2  334   0.251   5.553   1.367
  124TIP3   OH2  335   5.929   0.752   3.481
  124TIP3    H1  336   6.007   0.741   3.427
  124TIP3    H2  337   5.943   0.836   3.526
  125TIP3   OH2  338   4.009   5.144   0.477
  125TIP3    H1  339   3.925   5.156   0.520
  125TIP3    H2  340   4.017   5.049   0.466
  126TIP3   OH2  341   3.484   5.573   3.526
  126TIP3    H1  342   3.428   5.638   3.569
  126TIP3    H2  343   3.555   5.624   3.488
  127TIP3   OH2  344   6.247   2.356   2.931
  127TIP3    H1  345   6.156   2.374   2.952
  127TIP3    H2  346   6.288   2.442   2.922
  128TIP3   OH2  347   0.858   2.225   5.153
  128TIP3    H1  348   0.890   2.179   5.076
  128TIP3    H2  349   0.864   2.161   5.224
  129TIP3   OH2  350   0.538   6.387   0.958
  129TIP3    H1  351   0.610   6.416   1.015
  129TIP3    H2  352   0.525   6.459   0.896
  130TIP3   OH2  353   1.071   1.971   0.899
  130TIP3    H1  354   1.037   1.898   0.848
  130TIP3    H2  355   0.992   2.015   0.933
  131TIP3   OH2  356   3.963   0.992   4.304
  131TIP3    H1  357   3.899   0.959   4.241
  131TIP3    H2  358   3.916   0.995   4.387
  132TIP3   OH2  359   5.176   1.919   2.805
  132TIP3    H1  360   5.103   1.942   2.862
  132TIP3    H2  361   5.136   1.908   2.719
  133TIP3   OH2  362   1.798   2.216   1.808
  133TIP3    H1  363   1.849   2.135   1.809
  133TIP3    H2  364   1.814   2.256   1.894
  134TIP3   OH2  365   3.728   2.515   4.046
  134TIP3    H1  366   3.735   2.531   3.952
  134TIP3    H2  367   3.814   2.483   4.071
  135TIP3   OH2  368   2.360   6.036   3.919
  135TIP3    H1  369   2.269   6.056   3.896
  135TIP3    H2  370   2.359   6.028   4.014
  136TIP3   OH2  371   2.014   4.318   2.258
  136TIP3    H1  372   2.090   4.375   2.245
  136TIP3    H2  373   2.051   4.234   2.282
  137TIP3   OH2  374   4.819   5.376   3.889
  137TIP3    H1  375   4.781   5.308   3.834
  137TIP3    H2  376   4.746   5.410   3.941
  138TIP3   OH2  377   0.024   5.420   5.411
  138TIP3    H1  378   0.001   5.512   5.402
  138TIP3    H2  379   0.093   5.406   5.345
  139TIP3   OH2  380   3.344   5.211   1.246
  139TIP3    H1  381   3.410   5.275   1.218
  139TIP3    H2  382   3.266   5.234   1.196
  140TIP3   OH2  383   2.398   4.732   2.333
  140TIP3    H1  384   2.480   4.713   2.286
  140TIP3    H2  385   2.426   4.760   2.420
  141TIP3   OH2  386   7.127   4.231   5.365
  141TIP3    H1  387   7.156   4.311   5.408
  141TIP3    H2  388   7.207   4.190   5.333
  142TIP3   OH2  389   0.677   5.392   1.357
  142TIP3    H1  390   0.741   5.322   1.347
  142TIP3    H2  391   0.592   5.349   1.344
  143TIP3   OH2  392   0.422   6.208   1.570
  143TIP3    H1  393   0.507   6.223   1.528
  143TIP3    H2  394   0.378   6.144   1.515
  144TIP3   OH2  395   6.360   4.387   5.464
  144TIP3    H1  396   6.456   4.381   5.469
  144TIP3    H2  397   6.331   4.375   5.555
  145TIP3   OH2  398   0.735   5.918   4.287
  145TIP3    H1  399   0.810   5.907   4.346
  145TIP3    H2  400   0.735   6.011   4.266
  146TIP3   OH2  401   7.055   4.978   0.381
  146TIP3    H1  402   7.125   5.044   0.384
  146TIP3    H2  403   6.979   5.026   0.349
  147TIP3   OH2  404   0.351  -0.036   5.140
  147TIP3    H1  405   0.339   0.045   5.189
  147TIP3    H2  406   0.268  -0.047   5.093
  148TIP3   OH2  407   3.361   2.063   5.900
  148TIP3    H1  408   3.427   2.103   5.957
  148TIP3    H2  409   3.351   1.974   5.933
  149TIP3   OH2  410   1.159   6.167   3.703
  149TIP3    H1  411   1.081   6.222   3.702
  149TIP3    H2  412   1.209   6.197   3.779
  150TIP3   OH2  413   5.194   0.170   2.694
  150TIP3    H1  414   5.134   0.153   2.767
  150TIP3    H2  415   5.248   0.091   2.688
  151TIP3   OH2  416   2.755   0.960   4.556
  151TIP3    H1  417   2.716   0.879   4.587
  151TIP3    H2  418   2.838   0.933   4.517
  152TIP3   OH2  419   4.459   6.062   0.079
  152TIP3    H1  420   4.373   6.058   0.121
  152TIP3    H2  421   4.495   6.147   0.106
  153TIP3   OH2  422   6.304   2.656   2.827
  153TIP3    H1  423   6.392   2.686   2.806
  153TIP3    H2  424   6.260   2.732   2.863
  154TIP3   OH2  425   5.981   1.396   3.129
  154TIP3    H1  426   5.962   1.432   3.042
  154TIP3    H2  427   6.076   1.391   3.133
  155TIP3   OH2  428   4.954   0.211   4.940
  155TIP3    H1  429   5.016   0.281   4.959
  155TIP3    H2  430   5.002   0.131   4.957
  156TIP3   OH2  431   0.456   3.437   4.023
  156TIP3    H1  432   0.494   3.379   4.089
  156TIP3    H2  433   0.519   3.436   3.951
  157TIP3   OH2  434   1.805   4.585   1.403
  157TIP3    H1  435   1.872   4.554   1.343
  157TIP3    H2  436   1.852   4.602   1.485
  158TIP3   OH2  437   2.337   0.290   5.024
  158TIP3    H1  438   2.275   0.348   4.978
  158TIP3    H2  439   2.411   0.345   5.045
  159TIP3   OH2  440   6.477   0.758   3.036
  159TIP3    H1  441   6.531   0.764   2.957
  159TIP3    H2  442   6.424   0.679   3.023
  160TIP3   OH2  443   2.708   4.350   0.503
  160TIP3    H1  444   2.692   4.422   0.442
  160TIP3    H2  445   2.789   4.310   0.473
  161TIP3   OH2  446   6.429   3.638   0.995
  161TIP3    H1  447   6.485   3.570   1.031
  161TIP3    H2  448   6.489   3.701   0.955
  162TIP3   OH2  449   3.516   6.599   5.519
  162TIP3    H1  450   3.610   6.600   5.499
  162TIP3    H2  451   3.481   6.675   5.473
  163TIP3   OH2  452   0.480   6.416   3.174
  163TIP3    H1  453   0.423   6.489   3.152
  163TIP3    H2  454   0.470   6.406   3.269
  164TIP3   OH2  455   3.677   6.150   1.892
  164TIP3    H1  456   3.687   6.138   1.986
  164TIP3    H2  457   3.746   6.097   1.853
  165TIP3   OH2  458   4.204   1.193   0.365
  165TIP3    H1  459   4.214   1.180   0.460
  165TIP3    H2  460   4.117   1.157   0.346
  166TIP3   OH2  461   0.130   0.717   4.888
  166TIP3    H1  462   0.169   0.679   4.967
  166TIP3    H2  463   0.205   0.741   4.834
  167TIP3   OH2  464   5.003   3.539   1.127
  167TIP3    H1  465   5.000   3.444   1.116
  167TIP3    H2  466   5.078   3.554   1.185
  168TIP3   OH2  467   4.426   5.717   4.701
  168TIP3    H1  468   4.349   5.698   4.647
  168TIP3    H2  469   4.476   5.635   4.699
  169TIP3   OH2  470   7.055   6.135   1.471
  169TIP3    H1  471   7.110   6.076   1.419
  169TIP3    H2  472   7.111   6.211   1.486
  170TIP3   OH2  473   1.826   6.360   2.672
  170TIP3    H1  474   1.913   6.320   2.676
  170TIP3    H2  475   1.842   6.453   2.688
  171TIP3   OH2  476   4.735   5.928   0.564
  171TIP3    H1  477   4.648   5.896   0.541
  171TIP3    H2  478   4.779   5.852   0.602
  172TIP3   OH2  479   6.690   4.656   1.926
  172TIP3    H1  480   6.780   4.681   1.907
  172TIP3    H2  481   6.662   4.605   1.850
  173TIP3   OH2  482   2.045   1.072   0.696
  173TIP3    H1  483   2.131   1.089   0.657
  173TIP3    H2  484   2.054   0.984   0.733
  174TIP3   OH2  485   4.884   5.140   1.619
  174TIP3    H1  486   4.849   5.162   1.533
  174TIP3    H2  487   4.913   5.049   1.611
  175TIP3   OH2  488   6.695   1.321   1.384
  175TIP3    H1  489   6.696   1.417   1.378
  175TIP3    H2  490   6.771   1.300   1.438
  176TIP3   OH2  491   6.141   6.083   3.268
  176TIP3    H1  492   6.219   6.029   3.253
  176TIP3    H2  493   6.077   6.051   3.204
  177TIP3   OH2  494   2.758   5.632   2.976
  177TIP3    H1  495   2.729   5.542   2.991
  177TIP3    H2  496   2.774   5.637   2.882
  178TIP3   OH2  497   3.483   4.399   2.234
  178TIP3    H1  498   3.447   4.387   2.147
  178TIP3    H2  499   3.462   4.490   2.256
  179TIP3   OH2  500   0.124   4.104   2.984
  179TIP3    H1  501   0.172   4.177   2.946
  179TIP3    H2  502   0.176   4.078   3.060
  180TIP3   OH2  503   4.304   3.063   1.146
  180TIP3    H1  504   4.273   3.067   1.237
  180TIP3    H2  505   4.390   3.106   1.149
  181TIP3   OH2  506   1.320   1.667   0.583
  181TIP3    H1  507   1.379   1.596   0.555
  181TIP3    H2  508   1.363   1.704   0.660
  182TIP3   OH2  509   5.146   5.393   1.371
  182TIP3    H1  510   5.215   5.339   1.411
  182TIP3    H2  511   5.116   5.450   1.442
  183TIP3   OH2  512   5.980   5.438   1.633
  183TIP3    H1  513   6.043   5.409   1.567
  183TIP3    H2  514   5.907   5.473   1.583
  184TIP3   OH2  515   4.450   6.275   3.812
  184TIP3    H1  516   4.388   6.298   3.743
  184TIP3    H2  517   4.476   6.185   3.792
  185TIP3   OH2  518   6.557   5.040   5.134
  185TIP3    H1  519   6.600   4.963   5.171
  185TIP3    H2  520   6.466   5.032   5.162
  186TIP3   OH2  521   5.079   2.084   0.699
  186TIP3    H1  522   5.003   2.055   0.749
  186TIP3    H2  523   5.073   2.180   0.700
  187TIP3   OH2  524   4.717   2.900   4.978
  187TIP3    H1  525   4.641   2.959   4.982
  187TIP3    H2  526   4.692   2.834   4.914
  188TIP3   OH2  527   5.205   5.303   3.446
  188TIP3    H1  528   5.149   5.225   3.446
  188TIP3    H2  529   5.264   5.290   3.520
  189TIP3   OH2  530   7.045   2.689   3.937
  189TIP3    H1  531   7.072   2.773   3.974
  189TIP3    H2  532   7.106   2.674   3.865
  190TIP3   OH2  533   1.453   2.504   1.031
  190TIP3    H1  534   1.406   2.507   1.114
  190TIP3    H2  535   1.441   2.591   0.993
  191TIP3   OH2  536   2.515   5.417   5.234
  191TIP3    H1  537   2.566   5.336   5.229
  191TIP3    H2  538   2.437   5.399   5.182
  192TIP3   OH2  539   0.594   6.671   4.894
  192TIP3    H1  540   0.562   6.755   4.863
  192TIP3    H2  541   0.680   6.661   4.852
  193TIP3   OH2  542   0.731   3.296   5.870
  193TIP3    H1  543   0.659   3.340   5.824
  193TIP3    H2  544   0.753   3.356   5.942
  194TIP3   OH2  545   4.357   2.974   2.720
  194TIP3    H1  546   4.423   2.921   2.675
  194TIP3    H2  547   4.380   3.064   2.698
  195TIP3   OH2  548   4.649   1.634   0.882
  195TIP3    H1  549   4.598   1.601   0.808
  195TIP3    H2  550   4.690   1.557   0.920
  196TIP3   OH2  551   4.075   3.077   2.000
  196TIP3    H1  552   4.008   3.136   2.034
  196TIP3    H2  553   4.046   2.990   2.027
  197TIP3   OH2  554   1.547   5.842   1.272
  197TIP3    H1  555   1.615   5.800   1.220
  197TIP3    H2  556   1.566   5.936   1.266
  198TIP3   OH2  557   1.581   5.840   3.146
  198TIP3    H1  558   1.654   5.778   3.148
  198TIP3    H2  559   1.617   5.920   3.183
  199TIP3   OH2  560   1.944   3.400   4.459
  199TIP3    H1  561   1.913   3.417   4.370
  199TIP3    H2  562   1.987   3.314   4.454
  200TIP3   OH2  563   3.575   1.231   5.531
  200TIP3    H1  564   3.667   1.256   5.519
  200TIP3    H2  565   3.532   1.313   5.556
  201TIP3   OH2  566   4.210   2.045   4.222
  201TIP3    H1  567   4.242   2.135   4.212
  201TIP3    H2  568   4.196   2.015   4.132
  202TIP3   OH2  569   7.088   6.642   0.791
  202TIP3    H1  570   7.048   6.727   0.808
  202TIP3    H2  571   7.124   6.615   0.876
  203TIP3   OH2  572   6.631   5.969   1.149
  203TIP3    H1  573   6.723   5.992   1.150
  203TIP3    H2  574   6.599   6.000   1.064
  204TIP3   OH2  575   0.736   0.976   0.346
  204TIP3    H1  576   0.819   0.931   0.329
  204TIP3    H2  577   0.758   1.069   0.350
  205TIP3   OH2  578   4.157   0.861   0.674
  205TIP3    H1  579   4.086   0.924   0.667
  205TIP3    H2  580   4.129   0.787   0.620
  206TIP3   OH2  581   5.683   3.821   1.098
  206TIP3    H1  582   5.663   3.824   1.192
  206TIP3    H2  583   5.746   3.749   1.089
  207TIP3   OH2  584   4.339   4.744   0.504
  207TIP3    H1  585   4.389   4.707   0.431
  207TIP3    H2  586   4.282   4.673   0.532
  208TIP3   OH2  587   7.121   5.108   4.729
  208TIP3    H1  588   7.080   5.104   4.815
  208TIP3    H2  589   7.122   5.202   4.707
  209TIP3   OH2  590   0.334   6.299   2.502
  209TIP3    H1  591   0.376   6.378   2.535
  209TIP3    H2  592   0.263   6.331   2.446
  210TIP3   OH2  593   7.122   5.125   1.535
  210TIP3    H1  594   7.061   5.148   1.605
  210TIP3    H2  595   7.205   5.108   1.581
  211TIP3   OH2  596   4.298   5.061   3.363
  211TIP3    H1  597   4.351   5.137   3.387
  211TIP3    H2  598   4.311   4.999   3.434
  212TIP3   OH2  599   4.229   1.735   2.073
  212TIP3    H1  600   4.281   1.737   1.993
  212TIP3    H2  601   4.146   1.696   2.046
  213TIP3   OH2  602   7.075   5.461   2.559
  213TIP3    H1  603   7.069   5.527   2.629
  213TIP3    H2  604   7.118   5.387   2.600
  214TIP3   OH2  605   0.522   0.965   1.634
  214TIP3    H1  606   0.431   0.935   1.638
  214TIP3    H2  607   0.516   1.059   1.651
  215TIP3   OH2  608   3.324   2.454   4.143
  215TIP3    H1  609   3.285   2.523   4.089
  215TIP3    H2  610   3.391   2.498   4.195
  216TIP3   OH2  611   0.098   0.027   4.520
  216TIP3    H1  612   0.082   0.007   4.428
  216TIP3    H2  613   0.086   0.122   4.527
  217TIP3   OH2  614   4.491   5.413   2.698
  217TIP3    H1  615   4.467   5.338   2.752
  217TIP3    H2  616   4.564   5.383   2.645
  218TIP3   OH2  617   1.928   2.992   1.929
  218TIP3    H1  618   1.863   3.059   1.905
  218TIP3    H2  619   1.875   2.921   1.966
  219TIP3   OH2  620   2.223   5.628   2.455
  219TIP3    H1  621   2.156   5.562   2.438
  219TIP3    H2  622   2.176   5.702   2.492
  220TIP3   OH2  623   0.480   6.485   5.859
  220TIP3    H1  624   0.461   6.392   5.849
  220TIP3    H2  625   0.566   6.496   5.819
  221TIP3   OH2  626   3.599   0.813   0.208
  221TIP3    H1  627   3.639   0.806   0.295
  221TIP3    H2  628   3.517   0.859   0.223
  222TIP3   OH2  629   0.969   2.513   1.123
  222TIP3    H1  630   0.928   2.552   1.046
  222TIP3    H2  631   0.968   2.583   1.188
  223TIP3   OH2  632   3.945   5.946   0.102
  223TIP3    H1  633   3.980   5.869   0.058
  223TIP3    H2  634   3.869   5.914   0.150
  224TIP3   OH2  635   1.110   2.288   5.746
  224TIP3    H1  636   1.128   2.382   5.745
  224TIP3    H2  637   1.114   2.261   5.654
  225TIP3   OH2  638   4.514   1.873   1.486
  225TIP3    H1  639   4.500   1.778   1.481
  225TIP3    H2  640   4.604   1.883   1.518
  226TIP3   OH2  641   2.298   3.119   0.282
  226TIP3    H1  642   2.255   3.087   0.203
  226TIP3    H2  643   2.312   3.040   0.335
  227TIP3   OH2  644   3.305   0.363   0.490
  227TIP3    H1  645   3.256   0.292   0.531
  227TIP3    H2  646   3.307   0.340   0.397
  228TIP3   OH2  647   6.632   5.591   4.079
  228TIP3    H1  648   6.590   5.577   3.994
  228TIP3    H2  649   6.585   5.532   4.139
  229TIP3   OH2  650   2.609   3.584   1.125
  229TIP3    H1  651   2.653   3.502   1.147
  229TIP3    H2  652   2.588   3.576   1.032
  230TIP3   OH2  653   5.427   3.007   2.389
  230TIP3    H1  654   5.508   3.059   2.391
  230TIP3    H2  655   5.442   2.943   2.320
  231TIP3   OH2  656   1.062   5.296   1.582
  231TIP3    H1  657   1.019   5.286   1.497
  231TIP3    H2  658   1.076   5.391   1.591
  232TIP3   OH2  659   6.034   2.323   2.550
  232TIP3    H1  660   6.003   2.363   2.469
  232TIP3    H2  661   5.954   2.300   2.598
  233TIP3   OH2  662   4.622   1.642   3.716
  233TIP3    H1  663   4.561   1.597   3.657
  233TIP3    H2  664   4.613   1.734   3.692
  234TIP3   OH2  665   1.257   3.461   2.391
  234TIP3    H1  666   1.204   3.534   2.422
  234TIP3    H2  667   1.213   3.383   2.425
  235TIP3   OH2  668   2.207   3.588   4.065
  235TIP3    H1  669   2.211   3.566   4.158
  235TIP3    H2  670   2.229   3.681   4.061
  236TIP3   OH2  671   0.017   2.602   0.658
  236TIP3    H1  672  -0.028   2.655   0.724
  236TIP3    H2  673   0.097   2.573   0.700
  237TIP3   OH2  674   4.311   3.096   3.426
  237TIP3    H1  675   4.363   3.176   3.436
  237TIP3    H2  676   4.280   3.099   3.335
  238TIP3   OH2  677   2.621   5.126   1.904
  238TIP3    H1  678   2.692   5.148   1.965
  238TIP3    H2  679   2.568   5.062   1.952
  239TIP3   OH2  680   3.788   4.537   4.852
  239TIP3    H1  681   3.817   4.577   4.934
  239TIP3    H2  682   3.810   4.601   4.784
  240TIP3   OH2  683   2.612   2.449   4.926
  240TIP3    H1  684   2.636   2.525   4.874
  240TIP3    H2  685   2.662   2.377   4.888
  241TIP3   OH2  686   0.644   0.035   4.134
  241TIP3    H1  687   0.591   0.103   4.176
  241TIP3    H2  688   0.580  -0.018   4.087
  242TIP3   OH2  689   6.404   2.055   0.011
  242TIP3    H1  690   6.475   2.095  -0.038
  242TIP3    H2  691   6.424   1.961   0.010
  243TIP3   OH2  692   5.154   1.316   1.002
  243TIP3    H1  693   5.159   1.262   1.081
  243TIP3    H2  694   5.148   1.406   1.035
  244TIP3   OH2  695   1.468   0.778   2.394
  244TIP3    H1  696   1.469   0.687   2.422
  244TIP3    H2  697   1.501   0.827   2.469
  245TIP3   OH2  698   7.009   2.311   2.975
  245TIP3    H1  699   7.070   2.246   3.009
  245TIP3    H2  700   7.032   2.322   2.883
  246TIP3   OH2  701   0.128   6.213   0.638
  246TIP3    H1  702   0.149   6.121   0.656
  246TIP3    H2  703   0.033   6.219   0.653
  247TIP3   OH2  704   5.134   3.539   3.522
  247TIP3    H1  705   5.185   3.548   3.441
  247TIP3    H2  706   5.195   3.566   3.591
  248TIP3   OH2  707   6.103   5.693   1.147
  248TIP3    H1  708   6.061   5.734   1.222
  248TIP3    H2  709   6.098   5.599   1.165
  249TIP3   OH2  710   2.491   4.604   1.933
  249TIP3    H1  711   2.497   4.607   1.837
  249TIP3    H2  712   2.566   4.655   1.963
  250TIP3   OH2  713   4.214   1.493   4.600
  250TIP3    H1  714   4.257   1.545   4.531
  250TIP3    H2  715   4.136   1.543   4.623
  251TIP3   OH2  716   6.694   1.940   1.853
  251TIP3    H1  717   6.760   1.879   1.886
  251TIP3    H2  718   6.694   1.926   1.758
  252TIP3   OH2  719   0.429   2.018   0.713
  252TIP3    H1  720   0.364   2.085   0.732
  252TIP3    H2  721   0.428   1.960   0.789
  253TIP3   OH2  722   1.846   4.721   2.368
  253TIP3    H1  723   1.805   4.679   2.443
  253TIP3    H2  724   1.935   4.684   2.365
  254TIP3   OH2  725   2.952   4.396   4.057
  254TIP3    H1  726   2.958   4.487   4.027
  254TIP3    H2  727   2.953   4.402   4.152
  255TIP3   OH2  728   0.521   4.501   0.019
  255TIP3    H1  729   0.449   4.444   0.045
  255TIP3    H2  730   0.581   4.499   0.094
  256TIP3   OH2  731   7.072   1.262   2.230
  256TIP3    H1  732   7.163   1.235   2.220
  256TIP3    H2  733   7.040   1.271   2.140
  257TIP3   OH2  734   0.885   0.966   5.760
  257TIP3    H1  735   0.836   0.890   5.791
  257TIP3    H2  736   0.920   1.006   5.840
  258TIP3   OH2  737   2.090   0.633   3.027
  258TIP3    H1  738   2.111   0.544   3.056
  258TIP3    H2  739   1.995   0.640   3.037
  259TIP3   OH2  740   2.963   0.351   4.717
  259TIP3    H1  741   2.971   0.439   4.680
  259TIP3    H2  742   3.030   0.300   4.670
  260TIP3   OH2  743   4.214   1.878   5.169
  260TIP3    H1  744   4.182   1.809   5.110
  260TIP3    H2  745   4.304   1.854   5.188
  261TIP3   OH2  746   4.597   2.582   4.339
  261TIP3    H1  747   4.542   2.601   4.263
  261TIP3    H2  748   4.536   2.582   4.413
  262TIP3   OH2  749   3.434   2.203   0.672
  262TIP3    H1  750   3.418   2.280   0.618
  262TIP3    H2  751   3.479   2.237   0.749
  263TIP3   OH2  752   5.009   5.699   5.231
  263TIP3    H1  753   5.034   5.663   5.317
  263TIP3    H2  754   4.991   5.622   5.178
  264TIP3   OH2  755   4.878   2.325   3.379
  264TIP3    H1  756   4.848   2.245   3.335
  264TIP3    H2  757   4.967   2.304   3.409
  265TIP3   OH2  758   2.921   1.149   1.033
  265TIP3    H1  759   2.838   1.190   1.059
  265TIP3    H2  760   2.896   1.080   0.972
  266TIP3   OH2  761   3.071   2.399   1.563
  266TIP3    H1  762   2.988   2.383   1.608
  266TIP3    H2  763   3.134   2.343   1.609
  267TIP3   OH2  764   6.757   6.168   0.176
  267TIP3    H1  765   6.717   6.244   0.135
  267TIP3    H2  766   6.737   6.178   0.270
  268TIP3   OH2  767   3.201   2.448   2.679
  268TIP3    H1  768   3.160   2.367   2.647
  268TIP3    H2  769   3.147   2.518   2.643
  269TIP3   OH2  770   0.474   4.833   1.321
  269TIP3    H1  771   0.430   4.781   1.253
  269TIP3    H2  772   0.541   4.774   1.356
  270TIP3   OH2  773   5.214   3.908   0.278
  270TIP3    H1  774   5.288   3.894   0.219
  270TIP3    H2  775   5.138   3.912   0.220
  271TIP3   OH2  776   0.705   5.784   2.498
  271TIP3    H1  777   0.734   5.796   2.589
  271TIP3    H2  778   0.751   5.852   2.449
  272TIP3   OH2  779   0.255   5.924   3.993
  272TIP3    H1  780   0.312   5.856   4.029
  272TIP3    H2  781   0.167   5.887   4.000
  273TIP3   OH2  782   0.530   0.224   2.631
  273TIP3    H1  783   0.505   0.132   2.637
  273TIP3    H2  784   0.454   0.267   2.592
  274TIP3   OH2  785   4.799   6.347   2.161
  274TIP3    H1  786   4.862   6.280   2.133
  274TIP3    H2  787   4.844   6.430   2.145
  275TIP3   OH2  788   0.163   3.510   2.370
  275TIP3    H1  789   0.166   3.421   2.337
  275TIP3    H2  790   0.196   3.504   2.459
  276TIP3   OH2  791   6.731   4.739   4.091
  276TIP3    H1  792   6.794   4.667   4.087
  276TIP3    H2  793   6.654   4.702   4.134
  277TIP3   OH2  794   0.785   1.994   1.537
  277TIP3    H1  795   0.700   1.987   1.495
  277TIP3    H2  796   0.802   2.088   1.542
  278TIP3   OH2  797   7.137   3.720   1.032
  278TIP3    H1  798   7.066   3.657   1.020
  278TIP3    H2  799   7.180   3.726   0.947
  279TIP3   OH2  800   2.235   1.781   4.949
  279TIP3    H1  801   2.224   1.688   4.968
  279TIP3    H2  802   2.321   1.803   4.986
  280TIP3   OH2  803   4.163   4.335   4.344
  280TIP3    H1  804   4.150   4.375   4.430
  280TIP3    H2  805   4.253   4.302   4.347
  281TIP3   OH2  806   5.553   6.582   5.188
  281TIP3    H1  807   5.483   6.553   5.246
  281TIP3    H2  808   5.547   6.677   5.188
  282TIP3   OH2  809   6.979   1.729   4.842
  282TIP3    H1  810   6.945   1.731   4.931
  282TIP3    H2  811   7.058   1.784   4.845
  283TIP3   OH2  812   3.544   1.358   1.646
  283TIP3    H1  813   3.475   1.375   1.581
  283TIP3    H2  814   3.603   1.296   1.602
  284TIP3   OH2  815   5.406   5.041   0.850
  284TIP3    H1  816   5.430   5.133   0.860
  284TIP3    H2  817   5.431   5.019   0.761
  285TIP3   OH2  818   6.157   0.887   3.259
  285TIP3    H1  819   6.157   0.963   3.318
  285TIP3    H2  820   6.158   0.924   3.171
  286TIP3   OH2  821   0.490   2.005   4.322
  286TIP3    H1  822   0.417   2.029   4.265
  286TIP3    H2  823   0.562   2.060   4.293
  287TIP3   OH2  824   4.338   6.563   1.694
  287TIP3    H1  825   4.272   6.630   1.711
  287TIP3    H2  826   4.404   6.607   1.640
  288TIP3   OH2  827   5.324   3.613   3.343
  288TIP3    H1  828   5.334   3.526   3.305
  288TIP3    H2  829   5.411   3.634   3.378
  289TIP3   OH2  830   5.677   2.849   2.841
  289TIP3    H1  831   5.632   2.852   2.757
  289TIP3    H2  832   5.653   2.764   2.879
  290TIP3   OH2  833   0.344   0.210   1.919
  290TIP3    H1  834   0.373   0.175   2.003
  290TIP3    H2  835   0.402   0.284   1.902
  291TIP3   OH2  836   7.084   1.191   4.053
  291TIP3    H1  837   7.098   1.228   3.965
  291TIP3    H2  838   7.056   1.265   4.106
  292TIP3   OH2  839   6.088   2.637   1.013
  292TIP3    H1  840   6.143   2.611   1.087
  292TIP3    H2  841   6.021   2.568   1.007
  293TIP3   OH2  842   4.596   1.595   4.258
  293TIP3    H1  843   4.516   1.574   4.307
  293TIP3    H2  844   4.565   1.643   4.182
  294TIP3   OH2  845   5.914   6.266   2.180
  294TIP3    H1  846   5.850   6.294   2.115
  294TIP3    H2  847   5.947   6.183   2.148
  295TIP3   OH2  848   3.624   5.073   1.346
  295TIP3    H1  849   3.687   5.144   1.335
  295TIP3    H2  850   3.545   5.116   1.378
  296TIP3   OH2  851   5.716   4.313   0.787
  296TIP3    H1  852   5.666   4.339   0.709
  296TIP3    H2  853   5.649   4.295   0.853
  297TIP3   OH2  854   0.872   1.051   4.258
  297TIP3    H1  855   0.960   1.082   4.281
  297TIP3    H2  856   0.848   1.103   4.180
  298TIP3   OH2  857   1.258   3.878   0.714
  298TIP3    H1  858   1.183   3.937   0.701
  298TIP3    H2  859   1.329   3.920   0.666
  299TIP3   OH2  860   5.756   4.935   3.346
  299TIP3    H1  861   5.680   4.910   3.293
  299TIP3    H2  862   5.829   4.885   3.308
  300TIP3   OH2  863   2.756   1.863   4.844
  300TIP3    H1  864   2.826   1.827   4.789
  300TIP3    H2  865   2.706   1.919   4.785
  301TIP3   OH2  866   3.979   3.306   3.417
  301TIP3    H1  867   3.977   3.383   3.359
  301TIP3    H2  868   4.058   3.318   3.470
  302TIP3   OH2  869   3.705   4.152   4.040
  302TIP3    H1  870   3.626   4.099   4.045
  302TIP3    H2  871   3.732   4.163   4.131
  303TIP3   OH2  872   1.183   2.806   5.133
  303TIP3    H1  873   1.148   2.889   5.097
  303TIP3    H2  874   1.273   2.826   5.156
  304TIP3   OH2  875   5.423   3.254   4.082
  304TIP3    H1  876   5.393   3.230   4.170
  304TIP3    H2  877   5.349   3.232   4.025
  305TIP3   OH2  878   6.776   4.812   0.667
  305TIP3    H1  879   6.724   4.849   0.596
  305TIP3    H2  880   6.866   4.816   0.635
  306TIP3   OH2  881   5.587   1.574   4.710
  306TIP3    H1  882   5.557   1.501   4.657
  306TIP3    H2  883   5.535   1.569   4.790
  307TIP3   OH2  884   4.496   3.123   4.954
  307TIP3    H1  885   4.446   3.087   4.881
  307TIP3    H2  886   4.520   3.211   4.925
  308TIP3   OH2  887   0.389   5.333   0.189
  308TIP3    H1  888   0.326   5.402   0.209
  308TIP3    H2  889   0.401   5.338   0.094
  309TIP3   OH2  890   6.940   5.861   5.549
  309TIP3    H1  891   6.980   5.944   5.575
  309TIP3    H2  892   6.873   5.845   5.615
  310TIP3   OH2  893   1.535   4.926   0.405
  310TIP3    H1  894   1.604   4.902   0.343
  310TIP3    H2  895   1.479   4.986   0.355
  311TIP3   OH2  896   1.594   6.457   3.619
  311TIP3    H1  897   1.658   6.431   3.553
  311TIP3    H2  898   1.517   6.404   3.601
  312TIP3   OH2  899   7.246   0.160   0.941
  312TIP3    H1  900   7.333   0.161   0.981
  312TIP3    H2  901   7.261   0.178   0.849
  313TIP3   OH2  902   6.996   3.043   4.428
  313TIP3    H1  903   7.088   3.068   4.416
  313TIP3    H2  904   6.997   2.979   4.499
  314TIP3   OH2  905   6.160   1.448   4.232
  314TIP3    H1  906   6.207   1.377   4.275
  314TIP3    H2  907   6.072   1.446   4.271
  315TIP3   OH2  908   1.517   3.873   3.692
  315TIP3    H1  909   1.442   3.822   3.723
  315TIP3    H2  910   1.555   3.911   3.770
  316TIP3   OH2  911   3.826   4.247   1.204
  316TIP3    H1  912   3.883   4.232   1.280
  316TIP3    H2  913   3.867   4.198   1.133
  317TIP3   OH2  914   1.122   1.559   5.646
  317TIP3    H1  915   1.176   1.597   5.577
  317TIP3    H2  916   1.052   1.624   5.660
  318TIP3   OH2  917   4.882   2.507   0.842
  318TIP3    H1  918   4.949   2.502   0.910
  318TIP3    H2  919   4.895   2.594   0.802
  319TIP3   OH2  920   4.003   6.324   1.007
  319TIP3    H1  921   4.004   6.337   0.912
  319TIP3    H2  922   4.054   6.397   1.041
  320TIP3   OH2  923   3.984   6.617   1.150
  320TIP3    H1  924   3.981   6.553   1.222
  320TIP3    H2  925   3.898   6.660   1.152
  321TIP3   OH2  926   5.143   3.297   1.002
  321TIP3    H1  927   5.233   3.277   1.026
  321TIP3    H2  928   5.115   3.224   0.947
  322TIP3   OH2  929   5.569   4.391   4.821
  322TIP3    H1  930   5.532   4.464   4.772
  322TIP3    H2  931   5.633   4.353   4.762
  323TIP3   OH2  932   6.810   4.001   4.770
  323TIP3    H1  933   6.718   3.977   4.773
  323TIP3    H2  934   6.814   4.089   4.808
  324TIP3   OH2  935   4.351   5.560   3.621
  324TIP3    H1  936   4.403   5.557   3.540
  324TIP3    H2  937   4.269   5.603   3.595
  325TIP3   OH2  938   3.115   0.627   5.422
  325TIP3    H1  939   3.156   0.608   5.338
  325TIP3    H2  940   3.187   0.656   5.478
  326TIP3   OH2  941   2.040   6.151   3.988
  326TIP3    H1  942   2.034   6.202   4.069
  326TIP3    H2  943   2.059   6.062   4.017
  327TIP3   OH2  944   2.106   4.131   0.815
  327TIP3    H1  945   2.176   4.103   0.875
  327TIP3    H2  946   2.149   4.191   0.754
  328TIP3   OH2  947   4.337   3.953   0.284
  328TIP3    H1  948   4.388   4.013   0.337
  328TIP3    H2  949   4.399   3.882   0.262
  329TIP3   OH2  950   3.147   3.273   1.852
  329TIP3    H1  951   3.213   3.285   1.784
  329TIP3    H2  952   3.067   3.310   1.814
  330TIP3   OH2  953   3.553   0.608   2.978
  330TIP3    H1  954   3.473   0.579   2.935
  330TIP3    H2  955   3.608   0.530   2.983
  331TIP3   OH2  956   1.523   0.391   4.547
  331TIP3    H1  957   1.556   0.321   4.603
  331TIP3    H2  958   1.527   0.355   4.458
  332TIP3   OH2  959   2.668   2.845   2.146
  332TIP3    H1  960   2.629   2.829   2.061
  332TIP3    H2  961   2.621   2.921   2.180
  333TIP3   OH2  962   1.438   0.459   0.088
  333TIP3    H1  963   1.426   0.515   0.011
  333TIP3    H2  964   1.520   0.413   0.071
  334TIP3   OH2  965   5.230   5.645   3.973
  334TIP3    H1  966   5.261   5.616   3.887
  334TIP3    H2  967   5.150   5.596   3.988
  335TIP3   OH2  968   2.512   3.276   2.568
  335TIP3    H1  969   2.585   3.215   2.581
  335TIP3    H2  970   2.554   3.361   2.559
  336TIP3   OH2  971   4.441   3.256   5.902
  336TIP3    H1  972   4.464   3.338   5.858
  336TIP3    H2  973   4.441   3.278   5.995
  337TIP3   OH2  974   1.635   1.241   1.352
  337TIP3    H1  975   1.659   1.170   1.292
  337TIP3    H2  976   1.718   1.278   1.381
  338TIP3   OH2  977   6.783   6.164   3.795
  338TIP3    H1  978   6.867   6.130   3.826
  338TIP3    H2  979   6.720   6.138   3.862
  339TIP3   OH2  980   2.271   6.305   2.838
  339TIP3    H1  981   2.242   6.280   2.750
  339TIP3    H2  982   2.331   6.234   2.864
  340TIP3   OH2  983   1.365   2.482   1.717
  340TIP3    H1  984   1.418   2.412   1.753
  340TIP3    H2  985   1.425   2.533   1.663
  341TIP3   OH2  986   6.762   3.775   2.762
  341TIP3    H1  987   6.798   3.694   2.725
  341TIP3    H2  988   6.668   3.770   2.743
  342TIP3   OH2  989   4.312   3.055   4.740
  342TIP3    H1  990   4.222   3.070   4.769
  342TIP3    H2  991   4.311   2.967   4.703
  343TIP3   OH2  992   7.134   0.424   2.442
  343TIP3    H1  993   7.209   0.453   2.391
  343TIP3    H2  994   7.168   0.357   2.501
  344TIP3   OH2  995   1.752   0.872   3.591
  344TIP3    H1  996   1.807   0.794   3.599
  344TIP3    H2  997   1.725   0.873   3.499
  345TIP3   OH2  998   6.645   0.409   4.362
  345TIP3    H1  999   6.563   0.398   4.409
  345TIP3    H2 1000   6.619   0.435   4.273
  346TIP3   OH2 1001   5.810   3.714   2.283
  346TIP3    H1 1002   5.886   3.737   2.337
  346TIP3    H2 1003   5.769   3.798   2.262
  347TIP3   OH2 1004   4.644   3.989   3.638
  347TIP3    H1 1005   4.580   3.922   3.662
  347TIP3    H2 1006   4.665   3.971   3.547
  348TIP3   OH2 1007   0.320   6.551   3.691
  348TIP3    H1 1008   0.235   6.591   3.676
  348TIP3    H2 1009   0.304   6.457   3.684
  349TIP3   OH2 1010   3.696   4.834   1.890
  349TIP3    H1 1011   3.726   4.924   1.876
  349TIP3    H2 1012   3.770   4.780   1.862
  350TIP3   OH2 1013   4.015   1.681   4.654
  350TIP3    H1 1014   3.946   1.676   4.719
  350TIP3    H2 1015   3.970   1.707   4.573
  351TIP3   OH2 1016   2.510   3.838   0.398
  351TIP3    H1 1017   2.536   3.895   0.326
  351TIP3    H2 1018   2.581   3.774   0.405
  352TIP3   OH2 1019   2.828   4.324   1.247
  352TIP3    H1 1020   2.899   4.262   1.234
  352TIP3    H2 1021   2.749   4.270   1.251
  353TIP3   OH2 1022   1.330   5.614   5.743
  353TIP3    H1 1023   1.288   5.528   5.740
  353TIP3    H2 1024   1.277   5.669   5.685
  354TIP3   OH2 1025   3.031   6.415   5.342
  354TIP3    H1 1026   2.944   6.453   5.352
  354TIP3    H2 1027   3.091   6.489   5.348
  355TIP3   OH2 1028   5.422   6.267   2.310
  355TIP3    H1 1029   5.476   6.324   2.364
  355TIP3    H2 1030   5.431   6.180   2.349
  356TIP3   OH2 1031   2.614   2.989   2.775
  356TIP3    H1 1032   2.670   3.067   2.777
  356TIP3    H2 1033   2.556   3.000   2.850
  357TIP3   OH2 1034   5.940   5.015   5.676
  357TIP3    H1 1035   5.976   4.974   5.755
  357TIP3    H2 1036   5.902   4.943   5.627
  358TIP3   OH2 1037   1.459   6.360   0.964
  358TIP3    H1 1038   1.507   6.315   0.895
  358TIP3    H2 1039   1.369   6.365   0.932
  359TIP3   OH2 1040   1.004   5.717   1.268
  359TIP3    H1 1041   0.942   5.674   1.328
  359TIP3    H2 1042   1.031   5.648   1.208
  360TIP3   OH2 1043   3.157   1.469   2.400
  360TIP3    H1 1044   3.156   1.386   2.447
  360TIP3    H2 1045   3.234   1.464   2.344
  361TIP3   OH2 1046   1.158   1.351   4.118
  361TIP3    H1 1047   1.080   1.405   4.105
  361TIP3    H2 1048   1.228   1.401   4.076
  362TIP3   OH2 1049   3.073   1.423   1.295
  362TIP3    H1 1050   2.989   1.442   1.251
  362TIP3    H2 1051   3.076   1.327   1.299
  363TIP3   OH2 1052   6.108   0.832   0.968
  363TIP3    H1 1053   6.096   0.925   0.985
  363TIP3    H2 1054   6.153   0.799   1.045
  364TIP3   OH2 1055   0.045   2.909   5.214
  364TIP3    H1 1056   0.064   2.976   5.149
  364TIP3    H2 1057   0.102   2.835   5.189
  365TIP3   OH2 1058   6.732   5.024   2.516
  365TIP3    H1 1059   6.783   5.064   2.446
  365TIP3    H2 1060   6.701   5.097   2.569
  366TIP3   OH2 1061   3.955   1.712   3.847
  366TIP3    H1 1062   3.917   1.721   3.760
  366TIP3    H2 1063   3.911   1.778   3.900
  367TIP3   OH2 1064   3.095   3.570   3.169
  367TIP3    H1 1065   3.040   3.532   3.100
  367TIP3    H2 1066   3.042   3.561   3.249
  368TIP3   OH2 1067   4.786   5.483   5.713
  368TIP3    H1 1068   4.873   5.449   5.689
  368TIP3    H2 1069   4.741   5.491   5.629
  369TIP3   OH2 1070   0.752   2.905   4.294
  369TIP3    H1 1071   0.811   2.836   4.266
  369TIP3    H2 1072   0.798   2.948   4.367
  370TIP3   OH2 1073   3.211   1.780   5.141
  370TIP3    H1 1074   3.151   1.772   5.215
  370TIP3    H2 1075   3.227   1.874   5.133
  371TIP3   OH2 1076   1.985   1.847   1.515
  371TIP3    H1 1077   1.893   1.863   1.496
  371TIP3    H2 1078   1.984   1.778   1.582
  372TIP3   OH2 1079   5.406   0.380   5.462
  372TIP3    H1 1080   5.502   0.373   5.454
  372TIP3    H2 1081   5.378   0.416   5.377
  373TIP3   OH2 1082   7.016   2.852   4.615
  373TIP3    H1 1083   7.017   2.758   4.635
  373TIP3    H2 1084   7.085   2.889   4.671
  374TIP3   OH2 1085   1.104   4.219   3.909
  374TIP3    H1 1086   1.098   4.265   3.992
  374TIP3    H2 1087   1.173   4.154   3.923
  375TIP3   OH2 1088   5.709   1.965   0.385
  375TIP3    H1 1089   5.722   1.940   0.293
  375TIP3    H2 1090   5.667   1.889   0.424
  376TIP3   OH2 1091   6.802   5.509   5.248
  376TIP3    H1 1092   6.804   5.443   5.318
  376TIP3    H2 1093   6.884   5.496   5.201
  377TIP3   OH2 1094   6.965   1.974   5.361
  377TIP3    H1 1095   6.986   2.022   5.441
  377TIP3    H2 1096   6.886   2.016   5.328
  378TIP3   OH2 1097   5.510   2.120   3.456
  378TIP3    H1 1098   5.584   2.179   3.472
  378TIP3    H2 1099   5.451   2.136   3.530
  379TIP3   OH2 1100   7.012   3.741   4.191
  379TIP3    H1 1101   6.926   3.749   4.233
  379TIP3    H2 1102   7.002   3.668   4.129
  380TIP3   OH2 1103   2.232   2.359   3.196
  380TIP3    H1 1104   2.252   2.313   3.277
  380TIP3    H2 1105   2.258   2.450   3.212
  381TIP3   OH2 1106   3.554   2.585   4.263
  381TIP3    H1 1107   3.586   2.584   4.354
  381TIP3    H2 1108   3.629   2.558   4.211
  382TIP3   OH2 1109   0.629   6.714   3.059
  382TIP3    H1 1110   0.699   6.667   3.104
  382TIP3    H2 1111   0.578   6.646   3.016
  383TIP3   OH2 1112   1.473   2.936   4.748
  383TIP3    H1 1113   1.413   2.987   4.802
  383TIP3    H2 1114   1.560   2.960   4.778
  384TIP3   OH2 1115   4.833   4.838   0.373
  384TIP3    H1 1116   4.758   4.840   0.432
  384TIP3    H2 1117   4.834   4.924   0.333
  385TIP3   OH2 1118   0.939   1.642   5.383
  385TIP3    H1 1119   0.923   1.703   5.311
  385TIP3    H2 1120   1.034   1.632   5.386
  386TIP3   OH2 1121   1.906   2.765   4.590
  386TIP3    H1 1122   1.879   2.683   4.631
  386TIP3    H2 1123   1.973   2.800   4.648
  387TIP3   OH2 1124   6.247   2.458   5.017
  387TIP3    H1 1125   6.262   2.526   5.082
  387TIP3    H2 1126   6.263   2.376   5.063
  388TIP3   OH2 1127   6.330   3.981   1.897
  388TIP3    H1 1128   6.313   3.889   1.877
  388TIP3    H2 1129   6.385   4.011   1.824
  389TIP3   OH2 1130   6.308   5.975   1.488
  389TIP3    H1 1131   6.333   6.023   1.567
  389TIP3    H2 1132   6.386   5.925   1.464
  390TIP3   OH2 1133   0.686   2.456   3.266
  390TIP3    H1 1134   0.754   2.414   3.214
  390TIP3    H2 1135   0.657   2.530   3.213
  391TIP3   OH2 1136   1.056   1.099   0.237
  391TIP3    H1 1137   0.992   1.147   0.290
  391TIP3    H2 1138   1.120   1.165   0.211
  392TIP3   OH2 1139   7.210   2.511   5.721
  392TIP3    H1 1140   7.147   2.472   5.659
  392TIP3    H2 1141   7.216   2.602   5.694
  393TIP3   OH2 1142   2.337   2.810   1.659
  393TIP3    H1 1143   2.319   2.759   1.580
  393TIP3    H2 1144   2.251   2.833   1.693
  394TIP3   OH2 1145   5.733   4.582   5.734
  394TIP3    H1 1146   5.680   4.634   5.673
  394TIP3    H2 1147   5.808   4.638   5.755
  395TIP3   OH2 1148   1.006   6.337   4.126
  395TIP3    H1 1149   0.929   6.298   4.169
  395TIP3    H2 1150   0.990   6.431   4.129
  396TIP3   OH2 1151   3.492   6.348   3.124
  396TIP3    H1 1152   3.506   6.316   3.035
  396TIP3    H2 1153   3.444   6.430   3.113
  397TIP3   OH2 1154   2.635   5.020   3.844
  397TIP3    H1 1155   2.562   5.076   3.872
  397TIP3    H2 1156   2.709   5.049   3.897
  398TIP3   OH2 1157   7.059   0.332   3.174
  398TIP3    H1 1158   7.037   0.419   3.208
  398TIP3    H2 1159   7.068   0.345   3.080
  399TIP3   OH2 1160   2.106   4.073   5.141
  399TIP3    H1 1161   2.095   4.134   5.215
  399TIP3    H2 1162   2.034   4.011   5.151
  400TIP3   OH2 1163   4.797   4.699   2.873
  400TIP3    H1 1164   4.820   4.789   2.853
  400TIP3    H2 1165   4.753   4.703   2.958
  401TIP3   OH2 1166   1.177   0.556   1.156
  401TIP3    H1 1167   1.137   0.634   1.195
  401TIP3    H2 1168   1.115   0.528   1.089
  402TIP3   OH2 1169   2.354   1.382   2.785
  402TIP3    H1 1170   2.279   1.325   2.806
  402TIP3    H2 1171   2.318   1.448   2.726
  403TIP3   OH2 1172   1.215   1.316   0.115
  403TIP3    H1 1173   1.282   1.297   0.049
  403TIP3    H2 1174   1.259   1.372   0.179
  404TIP3   OH2 1175   6.613   4.450   2.795
  404TIP3    H1 1176   6.667   4.417   2.866
  404TIP3    H2 1177   6.584   4.537   2.824
  405TIP3   OH2 1178   6.095   6.104   2.638
  405TIP3    H1 1179   6.039   6.148   2.574
  405TIP3    H2 1180   6.125   6.175   2.696
  406TIP3   OH2 1181   2.882   6.746   2.390
  406TIP3    H1 1182   2.886   6.838   2.414
  406TIP3    H2 1183   2.961   6.708   2.428
  407TIP3   OH2 1184   0.533   6.538   1.488
  407TIP3    H1 1185   0.493   6.515   1.572
  407TIP3    H2 1186   0.470   6.508   1.423
  408TIP3   OH2 1187   6.273   2.119   3.658
  408TIP3    H1 1188   6.207   2.186   3.640
  408TIP3    H2 1189   6.354   2.168   3.669
  409TIP3   OH2 1190   0.961   2.340   3.762
  409TIP3    H1 1191   0.917   2.385   3.691
  409TIP3    H2 1192   0.891   2.314   3.822
  410TIP3   OH2 1193   1.582   2.616   1.542
  410TIP3    H1 1194   1.620   2.700   1.566
  410TIP3    H2 1195   1.644   2.551   1.574
  411TIP3   OH2 1196   4.491   2.080   3.376
  411TIP3    H1 1197   4.438   2.155   3.404
  411TIP3    H2 1198   4.545   2.060   3.451
  412TIP3   OH2 1199   1.906   4.924   3.649
  412TIP3    H1 1200   1.815   4.949   3.632
  412TIP3    H2 1201   1.913   4.835   3.613
  413TIP3   OH2 1202   3.635   4.839   1.511
  413TIP3    H1 1203   3.619   4.889   1.591
  413TIP3    H2 1204   3.593   4.890   1.442
  414TIP3   OH2 1205   5.362   4.798   5.832
  414TIP3    H1 1206   5.341   4.815   5.740
  414TIP3    H2 1207   5.397   4.880   5.865
  415TIP3   OH2 1208   4.293   0.481   3.618
  415TIP3    H1 1209   4.366   0.425   3.641
  415TIP3    H2 1210   4.231   0.424   3.572
  416TIP3   OH2 1211   4.651   3.019   3.593
  416TIP3    H1 1212   4.644   2.947   3.531
  416TIP3    H2 1213   4.572   3.013   3.647
  417TIP3   OH2 1214   2.367   6.512   1.801
  417TIP3    H1 1215   2.448   6.562   1.814
  417TIP3    H2 1216   2.397   6.428   1.766
  418TIP3   OH2 1217   5.621   2.895   5.223
  418TIP3    H1 1218   5.670   2.976   5.236
  418TIP3    H2 1219   5.674   2.828   5.266
  419TIP3   OH2 1220   3.437   0.919   2.262
  419TIP3    H1 1221   3.463   0.846   2.207
  419TIP3    H2 1222   3.411   0.878   2.345
  420TIP3   OH2 1223   0.972   0.169   5.268
  420TIP3    H1 1224   1.009   0.094   5.220
  420TIP3    H2 1225   1.033   0.241   5.251
  421TIP3   OH2 1226   4.687   4.764   3.147
  421TIP3    H1 1227   4.608   4.719   3.178
  421TIP3    H2 1228   4.658   4.853   3.128
  422TIP3   OH2 1229   6.912   1.043   4.517
  422TIP3    H1 1230   6.939   1.134   4.533
  422TIP3    H2 1231   6.902   1.038   4.421
  423TIP3   OH2 1232   4.160   0.094   1.219
  423TIP3    H1 1233   4.157   0.026   1.151
  423TIP3    H2 1234   4.253   0.102   1.239
  424TIP3   OH2 1235   5.529   5.576   0.852
  424TIP3    H1 1236   5.589   5.539   0.787
  424TIP3    H2 1237   5.557   5.667   0.861
  425TIP3   OH2 1238   3.448   2.932   2.270
  425TIP3    H1 1239   3.448   2.836   2.266
  425TIP3    H2 1240   3.356   2.955   2.281
  426TIP3   OH2 1241   1.069   4.477   4.905
  426TIP3    H1 1242   1.086   4.524   4.823
  426TIP3    H2 1243   1.147   4.423   4.917
  427TIP3   OH2 1244   4.191   6.561   3.263
  427TIP3    H1 1245   4.197   6.523   3.175
  427TIP3    H2 1246   4.101   6.594   3.268
  428TIP3   OH2 1247   6.385   6.424   0.664
  428TIP3    H1 1248   6.327   6.493   0.633
  428TIP3    H2 1249   6.472   6.451   0.634
  429TIP3   OH2 1250   0.107   5.442   0.050
  429TIP3    H1 1251   0.033   5.497   0.021
  429TIP3    H2 1252   0.147   5.492   0.121
  430TIP3   OH2 1253   3.007   6.106   0.743
  430TIP3    H1 1254   3.065   6.160   0.690
  430TIP3    H2 1255   3.031   6.127   0.834
  431TIP3   OH2 1256   2.826   3.150   5.045
  431TIP3    H1 1257   2.754   3.111   5.095
  431TIP3    H2 1258   2.868   3.075   5.003
  432TIP3   OH2 1259   2.983   6.703   3.477
  432TIP3    H1 1260   2.962   6.695   3.384
  432TIP3    H2 1261   3.078   6.696   3.481
  433TIP3   OH2 1262   0.023   6.565  -0.004
  433TIP3    H1 1263  -0.054   6.597   0.044
  433TIP3    H2 1264   0.097   6.610   0.037
  434TIP3   OH2 1265   5.075   2.368   4.107
  434TIP3    H1 1266   5.048   2.298   4.048
  434TIP3    H2 1267   5.009   2.436   4.097
  435TIP3   OH2 1268   1.810   1.244   5.329
  435TIP3    H1 1269   1.858   1.162   5.344
  435TIP3    H2 1270   1.868   1.312   5.362
  436TIP3   OH2 1271   2.148   5.887   5.051
  436TIP3    H1 1272   2.060   5.855   5.073
  436TIP3    H2 1273   2.140   5.922   4.962
  437TIP3   OH2 1274   1.424   5.861   2.879
  437TIP3    H1 1275   1.490   5.821   2.936
  437TIP3    H2 1276   1.457   5.846   2.790
  438TIP3   OH2 1277   6.073   0.845   1.282
  438TIP3    H1 1278   6.132   0.914   1.313
  438TIP3    H2 1279   5.989   0.890   1.268
  439TIP3   OH2 1280   3.528   3.930   0.452
  439TIP3    H1 1281   3.518   3.838   0.430
  439TIP3    H2 1282   3.488   3.977   0.379
  440TIP3   OH2 1283   2.033   0.943   2.894
  440TIP3    H1 1284   2.077   0.871   2.938
  440TIP3    H2 1285   1.964   0.970   2.955
  441TIP3   OH2 1286   1.668   2.354   2.523
  441TIP3    H1 1287   1.700   2.307   2.447
  441TIP3    H2 1288   1.693   2.299   2.598
  442TIP3   OH2 1289   0.863   3.342   2.124
  442TIP3    H1 1290   0.899   3.257   2.098
  442TIP3    H2 1291   0.925   3.406   2.088
  443TIP3   OH2 1292   6.154   4.882   1.958
  443TIP3    H1 1293   6.192   4.814   2.014
  443TIP3    H2 1294   6.060   4.864   1.960
  444TIP3   OH2 1295   6.944   3.151   4.716
  444TIP3    H1 1296   7.004   3.083   4.685
  444TIP3    H2 1297   6.962   3.158   4.810
  445TIP3   OH2 1298   3.652   5.691   4.406
  445TIP3    H1 1299   3.639   5.748   4.330
  445TIP3    H2 1300   3.721   5.630   4.378
  446TIP3   OH2 1301   4.610   4.582   2.427
  446TIP3    H1 1302   4.668   4.583   2.351
  446TIP3    H2 1303   4.526   4.614   2.392
  447TIP3   OH2 1304   3.784   3.803   3.916
  447TIP3    H1 1305   3.831   3.831   3.837
  447TIP3    H2 1306   3.829   3.724   3.944
  448TIP3   OH2 1307   7.145   6.102   1.782
  448TIP3    H1 1308   7.171   6.140   1.699
  448TIP3    H2 1309   7.226   6.091   1.831
  449TIP3   OH2 1310   0.073   1.376   1.529
  449TIP3    H1 1311   0.126   1.453   1.508
  449TIP3    H2 1312   0.003   1.410   1.586
  450TIP3   OH2 1313   0.778   1.401   1.841
  450TIP3    H1 1314   0.822   1.438   1.917
  450TIP3    H2 1315   0.702   1.354   1.878
  451TIP3   OH2 1316   3.753   5.568   0.078
  451TIP3    H1 1317   3.747   5.597  -0.013
  451TIP3    H2 1318   3.746   5.648   0.130
  452TIP3   OH2 1319   4.680   1.114   3.145
  452TIP3    H1 1320   4.707   1.022   3.145
  452TIP3    H2 1321   4.610   1.118   3.080
  453TIP3   OH2 1322   0.732   1.266   2.178
  453TIP3    H1 1323   0.782   1.339   2.140
  453TIP3    H2 1324   0.666   1.309   2.232
  454TIP3   OH2 1325   6.260   2.146   1.625
  454TIP3    H1 1326   6.336   2.205   1.622
  454TIP3    H2 1327   6.284   2.081   1.691
  455TIP3   OH2 1328   3.722   5.365   5.010
  455TIP3    H1 1329   3.787   5.372   5.080
  455TIP3    H2 1330   3.693   5.274   5.013
  456TIP3   OH2 1331   4.376   5.305   4.162
  456TIP3    H1 1332   4.308   5.358   4.203
  456TIP3    H2 1333   4.357   5.309   4.069
  457TIP3   OH2 1334   2.168   2.165   3.405
  457TIP3    H1 1335   2.085   2.204   3.432
  457TIP3    H2 1336   2.144   2.110   3.330
  458TIP3   OH2 1337   7.122   4.886   0.694
  458TIP3    H1 1338   7.159   4.803   0.666
  458TIP3    H2 1339   7.121   4.881   0.790
  459TIP3   OH2 1340   3.154   0.096   2.919
  459TIP3    H1 1341   3.138   0.009   2.957
  459TIP3    H2 1342   3.166   0.153   2.995
  460TIP3   OH2 1343   0.750   0.747   3.524
  460TIP3    H1 1344   0.767   0.655   3.503
  460TIP3    H2 1345   0.802   0.763   3.603
  461TIP3   OH2 1346   2.461   1.004   2.153
  461TIP3    H1 1347   2.509   1.077   2.191
  461TIP3    H2 1348   2.514   0.927   2.176
  462TIP3   OH2 1349   0.911   6.655   4.314
  462TIP3    H1 1350   0.906   6.623   4.404
  462TIP3    H2 1351   1.005   6.654   4.294
  463TIP3   OH2 1352   2.745   6.711   1.599
  463TIP3    H1 1353   2.717   6.791   1.642
  463TIP3    H2 1354   2.839   6.723   1.584
  464TIP3   OH2 1355   0.662   5.615   3.920
  464TIP3    H1 1356   0.748   5.657   3.911
  464TIP3    H2 1357   0.647   5.609   4.014
  465TIP3   OH2 1358   2.580   0.500   0.420
  465TIP3    H1 1359   2.672   0.492   0.446
  465TIP3    H2 1360   2.567   0.594   0.408
  466TIP3   OH2 1361   7.108   3.350   1.424
  466TIP3    H1 1362   7.064   3.265   1.419
  466TIP3    H2 1363   7.038   3.414   1.408
  467TIP3   OH2 1364   4.398   6.676   3.588
  467TIP3    H1 1365   4.405   6.765   3.554
  467TIP3    H2 1366   4.456   6.624   3.533
  468TIP3   OH2 1367   3.592   4.345   1.664
  468TIP3    H1 1368   3.603   4.431   1.623
  468TIP3    H2 1369   3.571   4.286   1.591
  469TIP3   OH2 1370   5.343   4.989   5.201
  469TIP3    H1 1371   5.378   5.024   5.283
  469TIP3    H2 1372   5.368   5.053   5.135
  470TIP3   OH2 1373   0.639   2.328   2.086
  470TIP3    H1 1374   0.683   2.345   2.169
  470TIP3    H2 1375   0.565   2.390   2.085
  471TIP3   OH2 1376   6.092   0.541   4.661
  471TIP3    H1 1377   6.159   0.473   4.654
  471TIP3    H2 1378   6.136   0.621   4.632
  472TIP3   OH2 1379   6.483   3.831   4.248
  472TIP3    H1 1380   6.577   3.841   4.264
  472TIP3    H2 1381   6.453   3.777   4.321
  473TIP3   OH2 1382   4.409   5.561   1.846
  473TIP3    H1 1383   4.432   5.528   1.933
  473TIP3    H2 1384   4.377   5.484   1.799
  474TIP3   OH2 1385   3.670   5.330   2.623
  474TIP3    H1 1386   3.643   5.417   2.596
  474TIP3    H2 1387   3.719   5.296   2.548
  475TIP3   OH2 1388   2.793   1.995   3.078
  475TIP3    H1 1389   2.773   1.903   3.062
  475TIP3    H2 1390   2.707   2.037   3.082
  476TIP3   OH2 1391   1.856   5.130   0.273
  476TIP3    H1 1392   1.823   5.185   0.202
  476TIP3    H2 1393   1.811   5.047   0.262
  477TIP3   OH2 1394   4.643   4.739   4.360
  477TIP3    H1 1395   4.608   4.653   4.337
  477TIP3    H2 1396   4.566   4.792   4.381
  478TIP3   OH2 1397   3.033   4.967   0.738
  478TIP3    H1 1398   2.941   4.994   0.737
  478TIP3    H2 1399   3.061   4.975   0.647
  479TIP3   OH2 1400   3.760   6.671   2.046
  479TIP3    H1 1401   3.737   6.688   1.955
  479TIP3    H2 1402   3.855   6.657   2.045
  480TIP3   OH2 1403   6.326   0.172   4.907
  480TIP3    H1 1404   6.313   0.136   4.819
  480TIP3    H2 1405   6.258   0.131   4.960
  481TIP3   OH2 1406   0.925   2.111   4.898
  481TIP3    H1 1407   0.929   2.089   4.805
  481TIP3    H2 1408   1.017   2.116   4.926
  482TIP3   OH2 1409   0.588   2.765   0.009
  482TIP3    H1 1410   0.553   2.851  -0.014
  482TIP3    H2 1411   0.682   2.771  -0.011
  483TIP3   OH2 1412   1.565   2.393   4.420
  483TIP3    H1 1413   1.545   2.369   4.329
  483TIP3    H2 1414   1.555   2.489   4.421
  484TIP3   OH2 1415   4.460   4.605   0.311
  484TIP3    H1 1416   4.504   4.645   0.236
  484TIP3    H2 1417   4.396   4.544   0.273
  485TIP3   OH2 1418   2.449   4.971   4.228
  485TIP3    H1 1419   2.370   5.016   4.258
  485TIP3    H2 1420   2.427   4.878   4.232
  486TIP3   OH2 1421   4.574   6.267   3.426
  486TIP3    H1 1422   4.624   6.202   3.377
  486TIP3    H2 1423   4.483   6.249   3.405
  487TIP3   OH2 1424   2.770   0.043   3.616
  487TIP3    H1 1425   2.749  -0.042   3.577
  487TIP3    H2 1426   2.851   0.069   3.574
  488TIP3   OH2 1427   6.952   3.008   4.986
  488TIP3    H1 1428   6.944   3.038   5.077
  488TIP3    H2 1429   7.043   3.027   4.963
  489TIP3   OH2 1430   2.084   3.463   4.739
  489TIP3    H1 1431   2.029   3.388   4.718
  489TIP3    H2 1432   2.138   3.434   4.813
  490TIP3   OH2 1433   4.835   0.972   5.566
  490TIP3    H1 1434   4.800   0.888   5.597
  490TIP3    H2 1435   4.833   0.966   5.471
  491TIP3   OH2 1436   4.689   3.985   4.744
  491TIP3    H1 1437   4.748   4.045   4.700
  491TIP3    H2 1438   4.723   3.898   4.723
  492TIP3   OH2 1439   1.935   5.260   0.738
  492TIP3    H1 1440   1.977   5.220   0.814
  492TIP3    H2 1441   1.950   5.198   0.667
  493TIP3   OH2 1442   4.774   2.800   4.187
  493TIP3    H1 1443   4.709   2.768   4.249
  493TIP3    H2 1444   4.820   2.869   4.234
  494TIP3   OH2 1445   3.021   0.380   3.789
  494TIP3    H1 1446   2.950   0.441   3.808
  494TIP3    H2 1447   3.081   0.389   3.863
  495TIP3   OH2 1448   0.017   4.268   5.823
  495TIP3    H1 1449   0.101   4.253   5.868
  495TIP3    H2 1450   0.015   4.201   5.755
  496TIP3   OH2 1451   2.758   3.796   3.059
  496TIP3    H1 1452   2.762   3.785   3.154
  496TIP3    H2 1453   2.681   3.747   3.032
  497TIP3   OH2 1454   0.241   0.320   5.525
  497TIP3    H1 1455   0.180   0.370   5.471
  497TIP3    H2 1456   0.200   0.234   5.535
  498TIP3   OH2 1457   1.150   4.419   4.092
  498TIP3    H1 1458   1.223   4.481   4.085
  498TIP3    H2 1459   1.122   4.425   4.183
  499TIP3   OH2 1460   5.437   1.329   3.825
  499TIP3    H1 1461   5.502   1.263   3.847
  499TIP3    H2 1462   5.366   1.314   3.888
  500TIP3   OH2 1463   3.251   3.003   0.132
  500TIP3    H1 1464   3.264   2.908   0.130
  500TIP3    H2 1465   3.187   3.017   0.202
  501TIP3   OH2 1466   0.923   1.988   5.283
  501TIP3    H1 1467   0.887   1.974   5.371
  501TIP3    H2 1468   0.966   1.905   5.262
  502TIP3   OH2 1469   3.142   0.353   1.787
  502TIP3    H1 1470   3.095   0.272   1.806
  502TIP3    H2 1471   3.081   0.403   1.733
  503TIP3   OH2 1472   2.803   4.255   4.298
  503TIP3    H1 1473   2.842   4.168   4.311
  503TIP3    H2 1474   2.873   4.316   4.322
  504TIP3   OH2 1475   4.187   3.424   1.664
  504TIP3    H1 1476   4.258   3.446   1.604
  504TIP3    H2 1477   4.228   3.368   1.730
  505TIP3   OH2 1478   0.651   1.206   2.577
  505TIP3    H1 1479   0.623   1.276   2.517
  505TIP3    H2 1480   0.611   1.229   2.661
  506TIP3   OH2 1481   6.868   1.449   5.436
  506TIP3    H1 1482   6.912   1.387   5.378
  506TIP3    H2 1483   6.867   1.531   5.388
  507TIP3   OH2 1484   6.085   4.555   2.154
  507TIP3    H1 1485   6.143   4.507   2.213
  507TIP3    H2 1486   6.144   4.603   2.096
  508TIP3   OH2 1487   0.686   2.317   1.819
  508TIP3    H1 1488   0.603   2.295   1.779
  508TIP3    H2 1489   0.670   2.311   1.914
  509TIP3   OH2 1490   4.712   4.748   1.001
  509TIP3    H1 1491   4.622   4.725   0.979
  509TIP3    H2 1492   4.765   4.705   0.933
  510TIP3   OH2 1493   3.569   1.171   0.819
  510TIP3    H1 1494   3.543   1.226   0.893
  510TIP3    H2 1495   3.562   1.082   0.851
  511TIP3   OH2 1496   4.356   6.592   0.557
  511TIP3    H1 1497   4.450   6.610   0.549
  511TIP3    H2 1498   4.317   6.676   0.576
  512TIP3   OH2 1499   3.342   0.078   5.507
  512TIP3    H1 1500   3.275   0.135   5.471
  512TIP3    H2 1501   3.333   0.086   5.601
  513TIP3   OH2 1502   0.397   5.641   0.415
  513TIP3    H1 1503   0.487   5.638   0.448
  513TIP3    H2 1504   0.361   5.722   0.450
  514TIP3   OH2 1505   5.264   2.866   3.818
  514TIP3    H1 1506   5.288   2.805   3.749
  514TIP3    H2 1507   5.302   2.829   3.897
  515TIP3   OH2 1508   0.202   3.710   0.731
  515TIP3    H1 1509   0.245   3.728   0.814
  515TIP3    H2 1510   0.146   3.634   0.748
  516TIP3   OH2 1511   3.551   0.238   1.679
  516TIP3    H1 1512   3.474   0.189   1.650
  516TIP3    H2 1513   3.620   0.172   1.687
  517TIP3   OH2 1514   2.413   3.844   0.784
  517TIP3    H1 1515   2.487   3.854   0.724
  517TIP3    H2 1516   2.438   3.772   0.842
  518TIP3   OH2 1517   6.136   4.756   2.669
  518TIP3    H1 1518   6.174   4.843   2.672
  518TIP3    H2 1519   6.084   4.755   2.589
  519TIP3   OH2 1520   1.984   5.490   0.085
  519TIP3    H1 1521   1.970   5.462   0.176
  519TIP3    H2 1522   2.077   5.508   0.080
  520TIP3   OH2 1523   0.936   5.410   3.690
  520TIP3    H1 1524   1.001   5.477   3.707
  520TIP3    H2 1525   0.943   5.349   3.763
  521TIP3   OH2 1526   4.522   1.314   0.767
  521TIP3    H1 1527   4.595   1.292   0.709
  521TIP3    H2 1528   4.445   1.309   0.710
  522TIP3   OH2 1529   0.465   3.114   3.940
  522TIP3    H1 1530   0.486   3.036   3.888
  522TIP3    H2 1531   0.402   3.162   3.887
  523TIP3   OH2 1532   1.187   6.604   4.316
  523TIP3    H1 1533   1.245   6.547   4.265
  523TIP3    H2 1534   1.247   6.653   4.373
  524TIP3   OH2 1535   3.364   6.664   0.999
  524TIP3    H1 1536   3.431   6.732   1.009
  524TIP3    H2 1537   3.343   6.638   1.088
  525TIP3   OH2 1538   1.204   6.012   3.399
  525TIP3    H1 1539   1.155   5.944   3.352
  525TIP3    H2 1540   1.137   6.070   3.435
  526TIP3   OH2 1541   0.801   6.304   2.515
  526TIP3    H1 1542   0.791   6.271   2.426
  526TIP3    H2 1543   0.891   6.282   2.539
  527TIP3   OH2 1544   4.030   5.017   1.300
  527TIP3    H1 1545   3.980   4.940   1.276
  527TIP3    H2 1546   4.050   5.060   1.217
  528TIP3   OH2 1547   2.974   3.707   4.857
  528TIP3    H1 1548   2.883   3.703   4.827
  528TIP3    H2 1549   3.020   3.642   4.804
  529TIP3   OH2 1550   3.016   3.255   2.779
  529TIP3    H1 1551   3.051   3.204   2.851
  529TIP3    H2 1552   3.088   3.309   2.750
  530TIP3   OH2 1553   5.105   3.812   2.800
  530TIP3    H1 1554   5.069   3.897   2.777
  530TIP3    H2 1555   5.166   3.831   2.871
  531TIP3   OH2 1556   6.047   2.812   5.538
  531TIP3    H1 1557   6.019   2.793   5.449
  531TIP3    H2 1558   5.970   2.793   5.592
  532TIP3   OH2 1559   1.742   4.330   5.695
  532TIP3    H1 1560   1.721   4.347   5.787
  532TIP3    H2 1561   1.682   4.387   5.646
  533TIP3   OH2 1562   2.740   5.676   1.356
  533TIP3    H1 1563   2.696   5.711   1.433
  533TIP3    H2 1564   2.746   5.750   1.296
  534TIP3   OH2 1565   3.541   0.836   4.971
  534TIP3    H1 1566   3.558   0.792   4.887
  534TIP3    H2 1567   3.605   0.798   5.031
  535TIP3   OH2 1568   5.496   3.925   5.263
  535TIP3    H1 1569   5.427   3.873   5.222
  535TIP3    H2 1570   5.560   3.939   5.193
  536TIP3   OH2 1571   4.359   5.310   1.744
  536TIP3    H1 1572   4.296   5.256   1.791
  536TIP3    H2 1573   4.403   5.250   1.683
  537TIP3   OH2 1574   3.643   2.409   1.568
  537TIP3    H1 1575   3.713   2.391   1.630
  537TIP3    H2 1576   3.633   2.327   1.519
  538TIP3   OH2 1577   2.751   1.587   0.541
  538TIP3    H1 1578   2.659   1.613   0.546
  538TIP3    H2 1579   2.799   1.661   0.577
  539TIP3   OH2 1580   5.625   5.689   4.315
  539TIP3    H1 1581   5.596   5.649   4.397
  539TIP3    H2 1582   5.610   5.782   4.326
  540TIP3   OH2 1583   2.252   3.796   0.131
  540TIP3    H1 1584   2.173   3.766   0.086
  540TIP3    H2 1585   2.250   3.750   0.215
  541TIP3   OH2 1586   6.845   0.376   3.625
  541TIP3    H1 1587   6.783   0.448   3.610
  541TIP3    H2 1588   6.931   0.418   3.622
  542TIP3   OH2 1589   4.109   4.029   0.612
  542TIP3    H1 1590   4.130   4.122   0.622
  542TIP3    H2 1591   4.094   4.018   0.518
  543TIP3   OH2 1592   0.589   1.774   5.466
  543TIP3    H1 1593   0.551   1.843   5.521
  543TIP3    H2 1594   0.600   1.699   5.525
  544TIP3   OH2 1595   3.931   2.306   1.239
  544TIP3    H1 1596   3.909   2.213   1.241
  544TIP3    H2 1597   4.023   2.309   1.267
  545TIP3   OH2 1598   1.592   0.011   5.876
  545TIP3    H1 1599   1.682  -0.018   5.861
  545TIP3    H2 1600   1.587   0.026   5.970
  546TIP3   OH2 1601   3.265   0.319   4.963
  546TIP3    H1 1602   3.284   0.325   5.056
  546TIP3    H2 1603   3.170   0.333   4.957
  547TIP3   OH2 1604   4.407   1.736   5.631
  547TIP3    H1 1605   4.353   1.778   5.563
  547TIP3    H2 1606   4.430   1.807   5.690
  548TIP3   OH2 1607   6.535   4.046   2.656
  548TIP3    H1 1608   6.598   4.029   2.726
  548TIP3    H2 1609   6.534   3.965   2.605
  549TIP3   OH2 1610   0.627   1.937   1.859
  549TIP3    H1 1611   0.579   1.997   1.801
  549TIP3    H2 1612   0.644   1.861   1.804
  550TIP3   OH2 1613   0.852   0.875   2.648
  550TIP3    H1 1614   0.789   0.940   2.682
  550TIP3    H2 1615   0.927   0.881   2.708
  551TIP3   OH2 1616   1.450   4.806   0.694
  551TIP3    H1 1617   1.497   4.785   0.613
  551TIP3    H2 1618   1.511   4.862   0.743
  552TIP3   OH2 1619   4.363   1.014   4.404
  552TIP3    H1 1620   4.348   1.106   4.429
  552TIP3    H2 1621   4.302   0.999   4.331
  553TIP3   OH2 1622   0.438   4.254   0.979
  553TIP3    H1 1623   0.397   4.197   0.914
  553TIP3    H2 1624   0.510   4.203   1.015
  554TIP3   OH2 1625   2.457   3.750   4.928
  554TIP3    H1 1626   2.398   3.823   4.943
  554TIP3    H2 1627   2.544   3.786   4.943
  555TIP3   OH2 1628   6.509   5.546   3.837
  555TIP3    H1 1629   6.462   5.463   3.838
  555TIP3    H2 1630   6.470   5.595   3.764
  556TIP3   OH2 1631   2.077   2.376   0.156
  556TIP3    H1 1632   2.050   2.310   0.093
  556TIP3    H2 1633   2.027   2.355   0.235
  557TIP3   OH2 1634   1.276   5.561   2.424
  557TIP3    H1 1635   1.222   5.492   2.460
  557TIP3    H2 1636   1.292   5.534   2.333
  558TIP3   OH2 1637   5.198   1.381   3.230
  558TIP3    H1 1638   5.294   1.380   3.236
  558TIP3    H2 1639   5.176   1.303   3.179
  559TIP3   OH2 1640   1.835   5.674   4.182
  559TIP3    H1 1641   1.770   5.729   4.138
  559TIP3    H2 1642   1.917   5.723   4.174
  560TIP3   OH2 1643   3.742   4.535   3.020
  560TIP3    H1 1644   3.696   4.469   2.967
  560TIP3    H2 1645   3.748   4.495   3.107
  561TIP3   OH2 1646   6.715   5.851   5.726
  561TIP3    H1 1647   6.682   5.941   5.724
  561TIP3    H2 1648   6.769   5.848   5.806
  562TIP3   OH2 1649   5.012   5.330   2.935
  562TIP3    H1 1650   5.002   5.238   2.958
  562TIP3    H2 1651   4.929   5.354   2.895
  563TIP3   OH2 1652   4.855   1.424   0.877
  563TIP3    H1 1653   4.787   1.376   0.830
  563TIP3    H2 1654   4.903   1.471   0.809
  564TIP3   OH2 1655   6.942   0.830   4.872
  564TIP3    H1 1656   6.950   0.865   4.961
  564TIP3    H2 1657   6.857   0.787   4.871
  565TIP3   OH2 1658   0.550   6.667   0.371
  565TIP3    H1 1659   0.589   6.743   0.414
  565TIP3    H2 1660   0.502   6.703   0.297
  566TIP3   OH2 1661   2.348   2.195   0.993
  566TIP3    H1 1662   2.305   2.110   0.984
  566TIP3    H2 1663   2.278   2.255   1.018
  567TIP3   OH2 1664   4.094   0.622   0.528
  567TIP3    H1 1665   4.034   0.548   0.540
  567TIP3    H2 1666   4.176   0.593   0.568
  568TIP3   OH2 1667   3.340   0.055   0.622
  568TIP3    H1 1668   3.321   0.018   0.708
  568TIP3    H2 1669   3.322  -0.017   0.561
  569TIP3   OH2 1670   1.448   3.569   3.505
  569TIP3    H1 1671   1.372   3.522   3.472
  569TIP3    H2 1672   1.509   3.572   3.431
  570TIP3   OH2 1673   6.917   3.004   1.561
  570TIP3    H1 1674   6.824   3.025   1.567
  570TIP3    H2 1675   6.958   3.060   1.627
  571TIP3   OH2 1676   0.951   2.563   5.655
  571TIP3    H1 1677   0.920   2.509   5.582
  571TIP3    H2 1678   1.043   2.539   5.665
  572TIP3   OH2 1679   6.207   1.945   0.967
  572TIP3    H1 1680   6.267   2.008   0.926
  572TIP3    H2 1681   6.120   1.974   0.938
  573TIP3   OH2 1682   6.534   1.045   0.107
  573TIP3    H1 1683   6.556   1.121   0.161
  573TIP3    H2 1684   6.440   1.054   0.092
  574TIP3   OH2 1685   0.150   1.786   0.938
  574TIP3    H1 1686   0.102   1.746   1.011
  574TIP3    H2 1687   0.225   1.829   0.980
  575TIP3   OH2 1688   0.433   0.826   2.148
  575TIP3    H1 1689   0.459   0.896   2.209
  575TIP3    H2 1690   0.340   0.811   2.167
  576TIP3   OH2 1691   2.726   0.243   1.328
  576TIP3    H1 1692   2.672   0.192   1.268
  576TIP3    H2 1693   2.715   0.334   1.300
  577TIP3   OH2 1694   4.116   5.465   5.177
  577TIP3    H1 1695   4.133   5.539   5.118
  577TIP3    H2 1696   4.022   5.468   5.194
  578TIP3   OH2 1697   6.958   2.484   5.593
  578TIP3    H1 1698   6.883   2.462   5.538
  578TIP3    H2 1699   6.953   2.579   5.603
  579TIP3   OH2 1700   4.088   2.023  -0.016
  579TIP3    H1 1701   4.144   2.098   0.003
  579TIP3    H2 1702   4.083   1.975   0.067
  580TIP3   OH2 1703   2.824   3.062   0.473
  580TIP3    H1 1704   2.896   3.117   0.445
  580TIP3    H2 1705   2.745   3.114   0.457
  581TIP3   OH2 1706   5.359   5.368   0.389
  581TIP3    H1 1707   5.379   5.290   0.339
  581TIP3    H2 1708   5.288   5.341   0.448
  582TIP3   OH2 1709   4.135   1.574   1.666
  582TIP3    H1 1710   4.180   1.505   1.616
  582TIP3    H2 1711   4.206   1.629   1.699
  583TIP3   OH2 1712   2.204   0.736   4.220
  583TIP3    H1 1713   2.151   0.657   4.226
  583TIP3    H2 1714   2.143   0.808   4.237
  584TIP3   OH2 1715   0.908   2.893   4.900
  584TIP3    H1 1716   0.875   2.967   4.951
  584TIP3    H2 1717   0.852   2.820   4.924
  585TIP3   OH2 1718   6.206   6.617   5.591
  585TIP3    H1 1719   6.122   6.663   5.603
  585TIP3    H2 1720   6.257   6.675   5.536
  586TIP3   OH2 1721   4.873   1.084   3.355
  586TIP3    H1 1722   4.888   1.161   3.409
  586TIP3    H2 1723   4.779   1.066   3.365
  587TIP3   OH2 1724   2.478   3.297   3.362
  587TIP3    H1 1725   2.431   3.213   3.366
  587TIP3    H2 1726   2.560   3.276   3.318
  588TIP3   OH2 1727   1.469   3.417   3.097
  588TIP3    H1 1728   1.533   3.368   3.045
  588TIP3    H2 1729   1.419   3.467   3.033
  589TIP3   OH2 1730   2.831   0.484   0.507
  589TIP3    H1 1731   2.834   0.390   0.523
  589TIP3    H2 1732   2.922   0.511   0.503
  590TIP3   OH2 1733   4.992   3.886   2.389
  590TIP3    H1 1734   4.934   3.906   2.316
  590TIP3    H2 1735   5.068   3.844   2.348
  591TIP3   OH2 1736   2.012   6.613   1.212
  591TIP3    H1 1737   2.031   6.520   1.225
  591TIP3    H2 1738   1.931   6.614   1.160
  592TIP3   OH2 1739   5.614   3.753   1.640
  592TIP3    H1 1740   5.693   3.724   1.594
  592TIP3    H2 1741   5.582   3.827   1.588
  593TIP3   OH2 1742   7.231   1.089   0.635
  593TIP3    H1 1743   7.155   1.144   0.617
  593TIP3    H2 1744   7.195   1.007   0.669
  594TIP3   OH2 1745   6.709   2.001   1.587
  594TIP3    H1 1746   6.728   2.003   1.493
  594TIP3    H2 1747   6.693   2.092   1.610
  595TIP3   OH2 1748   6.171   1.214   4.387
  595TIP3    H1 1749   6.259   1.182   4.407
  595TIP3    H2 1750   6.115   1.175   4.454
  596TIP3   OH2 1751   3.507   1.011   3.552
  596TIP3    H1 1752   3.512   1.037   3.644
  596TIP3    H2 1753   3.524   0.917   3.552
  597TIP3   OH2 1754   6.357   2.588   3.641
  597TIP3    H1 1755   6.295   2.518   3.661
  597TIP3    H2 1756   6.326   2.663   3.691
  598TIP3   OH2 1757   2.761   6.437   0.154
  598TIP3    H1 1758   2.819   6.410   0.225
  598TIP3    H2 1759   2.673   6.415   0.186
  599TIP3   OH2 1760   6.667   3.291   2.175
  599TIP3    H1 1761   6.696   3.324   2.090
  599TIP3    H2 1762   6.748   3.273   2.222
  600TIP3   OH2 1763   7.023   4.217   1.886
  600TIP3    H1 1764   7.057   4.272   1.816
  600TIP3    H2 1765   7.048   4.262   1.967
  601TIP3   OH2 1766   4.965   3.031   4.259
  601TIP3    H1 1767   5.051   3.003   4.292
  601TIP3    H2 1768   4.986   3.101   4.196
  602TIP3   OH2 1769   3.700   0.839   2.891
  602TIP3    H1 1770   3.668   0.758   2.930
  602TIP3    H2 1771   3.764   0.812   2.826
  603TIP3   OH2 1772   4.194   2.004   2.801
  603TIP3    H1 1773   4.286   1.976   2.804
  603TIP3    H2 1774   4.144   1.923   2.793
  604TIP3   OH2 1775   6.810   3.363   0.898
  604TIP3    H1 1776   6.858   3.304   0.956
  604TIP3    H2 1777   6.734   3.312   0.869
  605TIP3   OH2 1778   4.610   4.811   5.557
  605TIP3    H1 1779   4.568   4.800   5.642
  605TIP3    H2 1780   4.672   4.738   5.551
  606TIP3   OH2 1781   0.830   5.481   0.691
  606TIP3    H1 1782   0.793   5.553   0.741
  606TIP3    H2 1783   0.803   5.402   0.739
  607TIP3   OH2 1784   6.638   2.414   2.361
  607TIP3    H1 1785   6.714   2.459   2.399
  607TIP3    H2 1786   6.666   2.323   2.352
  608TIP3   OH2 1787   6.361   0.152   1.849
  608TIP3    H1 1788   6.300   0.152   1.923
  608TIP3    H2 1789   6.378   0.060   1.831
  609TIP3   OH2 1790   7.206   2.172   3.132
  609TIP3    H1 1791   7.225   2.086   3.169
  609TIP3    H2 1792   7.212   2.232   3.206
  610TIP3   OH2 1793   4.059   1.657   2.493
  610TIP3    H1 1794   4.050   1.570   2.531
  610TIP3    H2 1795   3.995   1.659   2.422
  611TIP3   OH2 1796   5.882   4.846   4.174
  611TIP3    H1 1797   5.975   4.828   4.163
  611TIP3    H2 1798   5.865   4.921   4.117
  612TIP3   OH2 1799   6.212   4.582   4.787
  612TIP3    H1 1800   6.217   4.510   4.724
  612TIP3    H2 1801   6.285   4.640   4.764
  613TIP3   OH2 1802   5.407   1.063   3.912
  613TIP3    H1 1803   5.320   1.037   3.943
  613TIP3    H2 1804   5.397   1.073   3.817
  614TIP3   OH2 1805   0.099   4.909   5.437
  614TIP3    H1 1806   0.156   4.876   5.507
  614TIP3    H2 1807   0.153   4.973   5.390
  615TIP3   OH2 1808   0.663   5.218   3.528
  615TIP3    H1 1809   0.683   5.235   3.620
  615TIP3    H2 1810   0.747   5.223   3.483
  616TIP3   OH2 1811   0.127   5.249   1.113
  616TIP3    H1 1812   0.116   5.154   1.102
  616TIP3    H2 1813   0.110   5.265   1.206
  617TIP3   OH2 1814   4.785   2.363   0.285
  617TIP3    H1 1815   4.721   2.399   0.345
  617TIP3    H2 1816   4.869   2.398   0.315
  618TIP3   OH2 1817   0.445   4.993   1.945
  618TIP3    H1 1818   0.356   5.019   1.967
  618TIP3    H2 1819   0.435   4.928   1.876
  619TIP3   OH2 1820   4.551   0.540   5.454
  619TIP3    H1 1821   4.532   0.446   5.463
  619TIP3    H2 1822   4.467   0.579   5.432
  620TIP3   OH2 1823   0.351   2.337   4.965
  620TIP3    H1 1824   0.436   2.309   4.931
  620TIP3    H2 1825   0.341   2.427   4.935
  621TIP3   OH2 1826   4.716   6.128   1.109
  621TIP3    H1 1827   4.661   6.206   1.111
  621TIP3    H2 1828   4.665   6.063   1.060
  622TIP3   OH2 1829   6.005   1.566   3.461
  622TIP3    H1 1830   6.070   1.532   3.400
  622TIP3    H2 1831   5.958   1.633   3.410
  623TIP3   OH2 1832   1.455   6.502   2.665
  623TIP3    H1 1833   1.389   6.524   2.730
  623TIP3    H2 1834   1.442   6.409   2.646
  624TIP3   OH2 1835   4.525   2.503   3.821
  624TIP3    H1 1836   4.520   2.472   3.731
  624TIP3    H2 1837   4.590   2.573   3.819
  625TIP3   OH2 1838   5.084   2.789   1.281
  625TIP3    H1 1839   5.142   2.837   1.221
  625TIP3    H2 1840   5.092   2.837   1.364
  626TIP3   OH2 1841   3.479   6.609   4.115
  626TIP3    H1 1842   3.387   6.635   4.119
  626TIP3    H2 1843   3.502   6.588   4.205
  627TIP3   OH2 1844   3.357   5.531   1.858
  627TIP3    H1 1845   3.355   5.459   1.921
  627TIP3    H2 1846   3.433   5.583   1.884
  628TIP3   OH2 1847   4.383   5.861   3.554
  628TIP3    H1 1848   4.428   5.930   3.505
  628TIP3    H2 1849   4.332   5.813   3.489
  629TIP3   OH2 1850   1.822   3.460   4.217
  629TIP3    H1 1851   1.749   3.482   4.275
  629TIP3    H2 1852   1.853   3.544   4.183
  630TIP3   OH2 1853   0.562   1.814   2.078
  630TIP3    H1 1854   0.556   1.863   1.996
  630TIP3    H2 1855   0.645   1.767   2.073
  631TIP3   OH2 1856   1.706   3.841   5.810
  631TIP3    H1 1857   1.787   3.891   5.803
  631TIP3    H2 1858   1.722   3.780   5.882
  632TIP3   OH2 1859   6.431   3.444   1.721
  632TIP3    H1 1860   6.356   3.389   1.746
  632TIP3    H2 1861   6.507   3.387   1.731
  633TIP3   OH2 1862   1.851   6.000   1.133
  633TIP3    H1 1863   1.812   5.999   1.046
  633TIP3    H2 1864   1.788   6.050   1.186
  634TIP3   OH2 1865   2.844   0.555   5.359
  634TIP3    H1 1866   2.933   0.581   5.380
  634TIP3    H2 1867   2.849   0.523   5.269
  635TIP3   OH2 1868   6.442   0.805   0.644
  635TIP3    H1 1869   6.459   0.874   0.581
  635TIP3    H2 1870   6.489   0.729   0.610
  636TIP3   OH2 1871   4.735   1.976   5.679
  636TIP3    H1 1872   4.720   1.887   5.712
  636TIP3    H2 1873   4.688   2.033   5.740
  637TIP3   OH2 1874   4.840   3.279   2.069
  637TIP3    H1 1875   4.835   3.299   2.163
  637TIP3    H2 1876   4.914   3.220   2.060
  638TIP3   OH2 1877   1.904   5.369   1.467
  638TIP3    H1 1878   1.840   5.411   1.410
  638TIP3    H2 1879   1.909   5.278   1.435
  639TIP3   OH2 1880   5.103   0.264   3.670
  639TIP3    H1 1881   5.196   0.285   3.667
  639TIP3    H2 1882   5.065   0.328   3.731
  640TIP3   OH2 1883   6.951   4.620   5.230
  640TIP3    H1 1884   7.033   4.604   5.184
  640TIP3    H2 1885   6.910   4.534   5.237
  641TIP3   OH2 1886   2.079   4.860   5.381
  641TIP3    H1 1887   2.104   4.866   5.474
  641TIP3    H2 1888   2.162   4.866   5.334
  642TIP3   OH2 1889   5.751   5.483   0.720
  642TIP3    H1 1890   5.730   5.427   0.645
  642TIP3    H2 1891   5.805   5.553   0.684
  643TIP3   OH2 1892   0.653   6.710   1.160
  643TIP3    H1 1893   0.564   6.714   1.122
  643TIP3    H2 1894   0.663   6.793   1.205
  644TIP3   OH2 1895   4.290   3.804   4.538
  644TIP3    H1 1896   4.280   3.812   4.633
  644TIP3    H2 1897   4.255   3.886   4.503
  645TIP3   OH2 1898   6.967   4.136   5.617
  645TIP3    H1 1899   7.015   4.099   5.543
  645TIP3    H2 1900   6.889   4.082   5.624
  646TIP3   OH2 1901   1.245   1.142   0.835
  646TIP3    H1 1902   1.281   1.128   0.923
  646TIP3    H2 1903   1.315   1.116   0.776
  647TIP3   OH2 1904   5.216   0.626   3.929
  647TIP3    H1 1905   5.218   0.721   3.941
  647TIP3    H2 1906   5.226   0.613   3.835
  648TIP3   OH2 1907   7.211   5.566   4.317
  648TIP3    H1 1908   7.214   5.550   4.223
  648TIP3    H2 1909   7.303   5.578   4.342
  649TIP3   OH2 1910   0.040   4.398   4.271
  649TIP3    H1 1911   0.060   4.480   4.225
  649TIP3    H2 1912   0.108   4.337   4.241
  650TIP3   OH2 1913   2.077   2.274   0.435
  650TIP3    H1 1914   2.129   2.306   0.508
  650TIP3    H2 1915   2.140   2.253   0.367
  651TIP3   OH2 1916   1.763   6.609   0.266
  651TIP3    H1 1917   1.818   6.532   0.249
  651TIP3    H2 1918   1.795   6.643   0.349
  652TIP3   OH2 1919   4.957   2.537   1.246
  652TIP3    H1 1920   5.006   2.614   1.273
  652TIP3    H2 1921   4.891   2.525   1.315
  653TIP3   OH2 1922   5.416   0.091   4.149
  653TIP3    H1 1923   5.354   0.071   4.079
  653TIP3    H2 1924   5.480   0.020   4.145
  654TIP3   OH2 1925   6.957   0.704   1.285
  654TIP3    H1 1926   6.949   0.792   1.248
  654TIP3    H2 1927   6.928   0.713   1.376
  655TIP3   OH2 1928   1.074   5.794   2.243
  655TIP3    H1 1929   1.016   5.718   2.237
  655TIP3    H2 1930   1.061   5.840   2.160
  656TIP3   OH2 1931   0.699   0.709   4.045
  656TIP3    H1 1932   0.688   0.787   3.990
  656TIP3    H2 1933   0.768   0.733   4.107
  657TIP3   OH2 1934   5.331   4.276   5.792
  657TIP3    H1 1935   5.417   4.303   5.758
  657TIP3    H2 1936   5.344   4.269   5.886
  658TIP3   OH2 1937   2.995   5.789   3.090
  658TIP3    H1 1938   2.948   5.867   3.060
  658TIP3    H2 1939   2.955   5.717   3.042
  659TIP3   OH2 1940   4.131   3.228   3.798
  659TIP3    H1 1941   4.060   3.244   3.735
  659TIP3    H2 1942   4.184   3.308   3.795
  660TIP3   OH2 1943   5.222   6.455   5.601
  660TIP3    H1 1944   5.184   6.508   5.672
  660TIP3    H2 1945   5.291   6.405   5.644
  661TIP3   OH2 1946   5.527   2.628   1.947
  661TIP3    H1 1947   5.439   2.653   1.920
  661TIP3    H2 1948   5.583   2.700   1.917
  662TIP3   OH2 1949   0.142   6.301   5.106
  662TIP3    H1 1950   0.122   6.217   5.147
  662TIP3    H2 1951   0.232   6.319   5.132
  663TIP3   OH2 1952   1.695   0.833   3.310
  663TIP3    H1 1953   1.668   0.783   3.233
  663TIP3    H2 1954   1.790   0.827   3.311
  664TIP3   OH2 1955   5.836   2.195   4.951
  664TIP3    H1 1956   5.873   2.125   5.005
  664TIP3    H2 1957   5.743   2.195   4.973
  665TIP3   OH2 1958   0.055   4.040   0.574
  665TIP3    H1 1959   0.124   3.974   0.575
  665TIP3    H2 1960  -0.017   4.001   0.623
  666TIP3   OH2 1961   1.183   5.415   4.043
  666TIP3    H1 1962   1.237   5.469   4.101
  666TIP3    H2 1963   1.217   5.432   3.956
  667TIP3   OH2 1964   0.387   5.726   5.067
  667TIP3    H1 1965   0.463   5.669   5.080
  667TIP3    H2 1966   0.314   5.665   5.058
  668TIP3   OH2 1967   0.789   1.316   5.737
  668TIP3    H1 1968   0.730   1.257   5.690
  668TIP3    H2 1969   0.802   1.390   5.677
  669TIP3   OH2 1970   2.362   5.333   1.367
  669TIP3    H1 1971   2.439   5.367   1.412
  669TIP3    H2 1972   2.306   5.298   1.436
  670TIP3   OH2 1973   1.274   5.493   2.138
  670TIP3    H1 1974   1.221   5.414   2.126
  670TIP3    H2 1975   1.350   5.480   2.080
  671TIP3   OH2 1976   2.568   2.371   0.994
  671TIP3    H1 1977   2.599   2.401   1.079
  671TIP3    H2 1978   2.478   2.342   1.010
  672TIP3   OH2 1979   0.450   0.124   0.962
  672TIP3    H1 1980   0.478   0.081   0.880
  672TIP3    H2 1981   0.460   0.056   1.028
  673TIP3   OH2 1982   2.292   5.877   5.434
  673TIP3    H1 1983   2.368   5.822   5.454
  673TIP3    H2 1984   2.229   5.856   5.503
  674TIP3   OH2 1985   4.640   0.281   0.420
  674TIP3    H1 1986   4.671   0.207   0.367
  674TIP3    H2 1987   4.577   0.242   0.480
  675TIP3   OH2 1988   7.066   4.137   1.539
  675TIP3    H1 1989   7.159   4.115   1.541
  675TIP3    H2 1990   7.043   4.139   1.447
  676TIP3   OH2 1991   3.793   5.402   4.513
  676TIP3    H1 1992   3.753   5.371   4.594
  676TIP3    H2 1993   3.822   5.323   4.468
  677TIP3   OH2 1994   0.370   5.839   2.267
  677TIP3    H1 1995   0.307   5.797   2.208
  677TIP3    H2 1996   0.450   5.848   2.214
  678TIP3   OH2 1997   4.125   2.755   3.235
  678TIP3    H1 1998   4.199   2.774   3.293
  678TIP3    H2 1999   4.054   2.811   3.267
  679TIP3   OH2 2000   5.578   1.712   0.303
  679TIP3    H1 2001   5.496   1.730   0.349
  679TIP3    H2 2002   5.562   1.743   0.214
  680TIP3   OH2 2003   2.620   6.001   0.978
  680TIP3    H1 2004   2.676   5.971   1.050
  680TIP3    H2 2005   2.610   5.924   0.922
  681TIP3   OH2 2006   0.630   5.775   1.826
  681TIP3    H1 2007   0.645   5.747   1.736
  681TIP3    H2 2008   0.708   5.824   1.850
  682TIP3   OH2 2009   3.855   3.082   3.873
  682TIP3    H1 2010   3.851   3.035   3.790
  682TIP3    H2 2011   3.859   3.174   3.849
  683TIP3   OH2 2012   0.720   2.791   4.599
  683TIP3    H1 2013   0.676   2.870   4.568
  683TIP3    H2 2014   0.650   2.726   4.610
  684TIP3   OH2 2015   2.315   1.167   3.741
  684TIP3    H1 2016   2.359   1.175   3.656
  684TIP3    H2 2017   2.347   1.242   3.792
  685TIP3   OH2 2018   0.846   1.067   2.869
  685TIP3    H1 2019   0.919   1.111   2.824
  685TIP3    H2 2020   0.794   1.138   2.906
  686TIP3   OH2 2021   6.253   1.413   1.253
  686TIP3    H1 2022   6.168   1.456   1.241
  686TIP3    H2 2023   6.313   1.484   1.275
  687TIP3   OH2 2024   3.303   5.778   3.614
  687TIP3    H1 2025   3.220   5.739   3.587
  687TIP3    H2 2026   3.288   5.803   3.705
  688TIP3   OH2 2027   6.651   3.275   4.438
  688TIP3    H1 2028   6.636   3.183   4.417
  688TIP3    H2 2029   6.742   3.291   4.415
  689TIP3   OH2 2030   1.597   2.044   0.260
  689TIP3    H1 2031   1.574   2.137   0.264
  689TIP3    H2 2032   1.539   2.003   0.324
  690TIP3   OH2 2033   5.120   0.550   2.566
  690TIP3    H1 2034   5.173   0.586   2.495
  690TIP3    H2 2035   5.164   0.579   2.646
  691TIP3   OH2 2036   3.478   4.389   1.951
  691TIP3    H1 2037   3.476   4.484   1.938
  691TIP3    H2 2038   3.507   4.354   1.867
  692TIP3   OH2 2039   5.813   0.569   3.696
  692TIP3    H1 2040   5.795   0.551   3.603
  692TIP3    H2 2041   5.727   0.562   3.738
  693TIP3   OH2 2042   1.954   3.180   0.050
  693TIP3    H1 2043   1.951   3.273   0.027
  693TIP3    H2 2044   1.867   3.160   0.084
  694TIP3   OH2 2045   3.391   5.727   0.978
  694TIP3    H1 2046   3.427   5.802   0.929
  694TIP3    H2 2047   3.444   5.652   0.948
  695TIP3   OH2 2048   5.951   5.004   2.416
  695TIP3    H1 2049   5.901   4.927   2.443
  695TIP3    H2 2050   6.022   4.969   2.363
  696TIP3   OH2 2051   3.658   2.544   5.773
  696TIP3    H1 2052   3.646   2.568   5.865
  696TIP3    H2 2053   3.614   2.613   5.724
  697TIP3   OH2 2054   6.665   3.073   3.912
  697TIP3    H1 2055   6.682   3.165   3.892
  697TIP3    H2 2056   6.596   3.075   3.978
  698TIP3   OH2 2057   5.262   1.134   3.506
  698TIP3    H1 2058   5.201   1.206   3.525
  698TIP3    H2 2059   5.257   1.124   3.411
  699TIP3   OH2 2060   3.189   4.897   2.107
  699TIP3    H1 2061   3.283   4.910   2.093
  699TIP3    H2 2062   3.148   4.970   2.061
  700TIP3   OH2 2063   1.722   0.410   2.372
  700TIP3    H1 2064   1.765   0.357   2.439
  700TIP3    H2 2065   1.749   0.500   2.392
  701TIP3   OH2 2066   0.243   1.219   1.848
  701TIP3    H1 2067   0.210   1.308   1.838
  701TIP3    H2 2068   0.186   1.181   1.916
  702TIP3   OH2 2069   6.294   5.281   0.725
  702TIP3    H1 2070   6.357   5.235   0.669
  702TIP3    H2 2071   6.255   5.213   0.779
  703TIP3   OH2 2072   5.175   1.858   0.564
  703TIP3    H1 2073   5.206   1.806   0.638
  703TIP3    H2 2074   5.135   1.935   0.604
  704TIP3   OH2 2075   2.936   6.041   4.808
  704TIP3    H1 2076   2.923   5.953   4.842
  704TIP3    H2 2077   2.952   6.095   4.885
  705TIP3   OH2 2078   2.619   5.824   2.549
  705TIP3    H1 2079   2.583   5.824   2.638
  705TIP3    H2 2080   2.550   5.865   2.496
  706TIP3   OH2 2081   0.879   4.309   2.359
  706TIP3    H1 2082   0.843   4.365   2.290
  706TIP3    H2 2083   0.916   4.371   2.422
  707TIP3   OH2 2084   7.113   0.553   0.581
  707TIP3    H1 2085   7.112   0.561   0.676
  707TIP3    H2 2086   7.076   0.636   0.550
  708TIP3   OH2 2087   0.061   1.626   5.580
  708TIP3    H1 2088  -0.010   1.689   5.574
  708TIP3    H2 2089   0.019   1.545   5.610
  709TIP3   OH2 2090   3.373   1.951   4.271
  709TIP3    H1 2091   3.361   1.886   4.341
  709TIP3    H2 2092   3.340   2.033   4.308
  710TIP3   OH2 2093  -0.005   5.541   4.882
  710TIP3    H1 2094   0.019   5.634   4.882
  710TIP3    H2 2095   0.077   5.495   4.866
  711TIP3   OH2 2096   4.140   5.722   1.752
  711TIP3    H1 2097   4.217   5.687   1.796
  711TIP3    H2 2098   4.143   5.816   1.769
  712TIP3   OH2 2099   0.911   3.807   5.614
  712TIP3    H1 2100   0.926   3.783   5.523
  712TIP3    H2 2101   0.819   3.787   5.630
  713TIP3   OH2 2102   0.900   5.449   2.422
  713TIP3    H1 2103   0.979   5.442   2.476
  713TIP3    H2 2104   0.830   5.467   2.484
  714TIP3   OH2 2105   6.793   5.750   0.973
  714TIP3    H1 2106   6.700   5.730   0.962
  714TIP3    H2 2107   6.837   5.699   0.905
  715TIP3   OH2 2108   4.851   1.511   2.998
  715TIP3    H1 2109   4.881   1.535   2.910
  715TIP3    H2 2110   4.871   1.417   3.005
  716TIP3   OH2 2111   6.770   0.172   5.265
  716TIP3    H1 2112   6.784   0.235   5.194
  716TIP3    H2 2113   6.851   0.122   5.269
  717TIP3   OH2 2114   3.971   1.331   0.572
  717TIP3    H1 2115   3.898   1.354   0.629
  717TIP3    H2 2116   3.949   1.368   0.487
  718TIP3   OH2 2117   0.604   4.616   4.912
  718TIP3    H1 2118   0.570   4.631   4.824
  718TIP3    H2 2119   0.610   4.521   4.920
  719TIP3   OH2 2120   5.493   6.400   0.565
  719TIP3    H1 2121   5.530   6.390   0.653
  719TIP3    H2 2122   5.570   6.413   0.509
  720TIP3   OH2 2123   2.499   0.494   1.714
  720TIP3    H1 2124   2.476   0.402   1.702
  720TIP3    H2 2125   2.588   0.502   1.678
  721TIP3   OH2 2126   1.421   3.853   3.287
  721TIP3    H1 2127   1.354   3.921   3.289
  721TIP3    H2 2128   1.412   3.814   3.200
  722TIP3   OH2 2129   0.750   3.893   2.891
  722TIP3    H1 2130   0.725   3.810   2.850
  722TIP3    H2 2131   0.840   3.879   2.921
  723TIP3   OH2 2132   3.749   5.606   5.413
  723TIP3    H1 2133   3.658   5.611   5.444
  723TIP3    H2 2134   3.802   5.611   5.493
  724TIP3   OH2 2135   6.165   3.468   5.375
  724TIP3    H1 2136   6.106   3.505   5.310
  724TIP3    H2 2137   6.225   3.540   5.397
  725TIP3   OH2 2138   1.736   2.576   1.014
  725TIP3    H1 2139   1.757   2.666   0.992
  725TIP3    H2 2140   1.640   2.575   1.022
  726TIP3   OH2 2141   5.939   4.945   5.288
  726TIP3    H1 2142   6.027   4.934   5.251
  726TIP3    H2 2143   5.881   4.924   5.216
  727TIP3   OH2 2144   3.929   0.455   4.699
  727TIP3    H1 2145   3.912   0.373   4.747
  727TIP3    H2 2146   3.873   0.519   4.742
  728TIP3   OH2 2147   3.348   2.332   5.117
  728TIP3    H1 2148   3.361   2.307   5.025
  728TIP3    H2 2149   3.271   2.390   5.115
  729TIP3   OH2 2150   6.382   3.198   5.817
  729TIP3    H1 2151   6.321   3.153   5.875
  729TIP3    H2 2152   6.421   3.129   5.764
  730TIP3   OH2 2153   1.288   0.577   0.269
  730TIP3    H1 2154   1.228   0.503   0.266
  730TIP3    H2 2155   1.325   0.582   0.180
  731TIP3   OH2 2156   4.752   2.531   1.450
  731TIP3    H1 2157   4.715   2.617   1.435
  731TIP3    H2 2158   4.676   2.474   1.463
  732TIP3   OH2 2159   4.433   1.428   1.755
  732TIP3    H1 2160   4.357   1.391   1.710
  732TIP3    H2 2161   4.504   1.422   1.692
  733TIP3   OH2 2162   6.420   6.081   2.990
  733TIP3    H1 2163   6.491   6.031   2.950
  733TIP3    H2 2164   6.370   6.016   3.039
  734TIP3   OH2 2165   3.007   0.491   5.661
  734TIP3    H1 2166   3.099   0.468   5.647
  734TIP3    H2 2167   2.985   0.545   5.585
  735TIP3   OH2 2168   1.531   1.460   3.233
  735TIP3    H1 2169   1.576   1.499   3.308
  735TIP3    H2 2170   1.598   1.454   3.165
  736TIP3   OH2 2171   3.343   2.529   1.362
  736TIP3    H1 2172   3.337   2.438   1.393
  736TIP3    H2 2173   3.274   2.536   1.296
  737TIP3   OH2 2174   4.313   5.024   3.894
  737TIP3    H1 2175   4.239   4.975   3.857
  737TIP3    H2 2176   4.336   4.975   3.973
  738TIP3   OH2 2177   0.842   5.157   1.433
  738TIP3    H1 2178   0.755   5.139   1.467
  738TIP3    H2 2179   0.894   5.080   1.457
  739TIP3   OH2 2180   2.384   2.021   1.942
  739TIP3    H1 2181   2.448   2.078   1.900
  739TIP3    H2 2182   2.300   2.062   1.924
  740TIP3   OH2 2183   2.007   4.680   5.785
  740TIP3    H1 2184   2.040   4.751   5.730
  740TIP3    H2 2185   1.917   4.667   5.756
  741TIP3   OH2 2186   6.339   3.715   4.033
  741TIP3    H1 2187   6.381   3.770   4.099
  741TIP3    H2 2188   6.248   3.706   4.064
  742TIP3   OH2 2189   2.141   6.405   0.792
  742TIP3    H1 2190   2.203   6.358   0.737
  742TIP3    H2 2191   2.057   6.395   0.746
  743TIP3   OH2 2192   1.329   6.111   2.262
  743TIP3    H1 2193   1.292   6.194   2.293
  743TIP3    H2 2194   1.293   6.101   2.174
  744TIP3   OH2 2195   6.295   2.372   2.536
  744TIP3    H1 2196   6.354   2.351   2.608
  744TIP3    H2 2197   6.210   2.340   2.566
  745TIP3   OH2 2198   6.896   3.591   1.026
  745TIP3    H1 2199   6.856   3.520   0.975
  745TIP3    H2 2200   6.829   3.660   1.026
  746TIP3   OH2 2201   3.503   4.633   1.872
  746TIP3    H1 2202   3.462   4.702   1.818
  746TIP3    H2 2203   3.597   4.653   1.868
  747TIP3   OH2 2204   2.140   3.009   5.364
  747TIP3    H1 2205   2.231   2.980   5.367
  747TIP3    H2 2206   2.100   2.956   5.295
  748TIP3   OH2 2207   2.101   2.082   2.058
  748TIP3    H1 2208   2.047   2.038   1.993
  748TIP3    H2 2209   2.066   2.051   2.142
  749TIP3   OH2 2210   1.054   3.574   1.610
  749TIP3    H1 2211   1.022   3.649   1.561
  749TIP3    H2 2212   1.147   3.569   1.588
  750TIP3   OH2 2213   4.168   5.454   4.253
  750TIP3    H1 2214   4.147   5.453   4.347
  750TIP3    H2 2215   4.133   5.538   4.222
  751TIP3   OH2 2216   5.195   5.307   1.748
  751TIP3    H1 2217   5.101   5.317   1.730
  751TIP3    H2 2218   5.200   5.295   1.843
  752TIP3   OH2 2219   5.010   0.107   4.691
  752TIP3    H1 2220   4.932   0.051   4.697
  752TIP3    H2 2221   5.003   0.167   4.765
  753TIP3   OH2 2222   3.122   0.522   4.422
  753TIP3    H1 2223   3.149   0.433   4.443
  753TIP3    H2 2224   3.031   0.528   4.453
  754TIP3   OH2 2225   5.414   5.903   0.701
  754TIP3    H1 2226   5.503   5.871   0.711
  754TIP3    H2 2227   5.362   5.825   0.680
  755TIP3   OH2 2228   1.934   6.606   4.872
  755TIP3    H1 2229   2.018   6.565   4.893
  755TIP3    H2 2230   1.929   6.603   4.777
  756TIP3   OH2 2231   0.505   5.153   2.681
  756TIP3    H1 2232   0.521   5.083   2.744
  756TIP3    H2 2233   0.416   5.183   2.701
  757TIP3   OH2 2234   5.339   5.246   5.108
  757TIP3    H1 2235   5.278   5.273   5.177
  757TIP3    H2 2236   5.415   5.303   5.119
  758TIP3   OH2 2237   5.266   1.769   0.822
  758TIP3    H1 2238   5.223   1.700   0.872
  758TIP3    H2 2239   5.240   1.850   0.865
  759TIP3   OH2 2240   2.888   3.394   0.202
  759TIP3    H1 2241   2.896   3.388   0.297
  759TIP3    H2 2242   2.794   3.391   0.185
  760TIP3   OH2 2243   5.015   3.994   0.123
  760TIP3    H1 2244   4.972   4.050   0.058
  760TIP3    H2 2245   4.997   4.038   0.207
  761TIP3   OH2 2246   3.702   3.271   3.448
  761TIP3    H1 2247   3.675   3.188   3.409
  761TIP3    H2 2248   3.798   3.272   3.438
  762TIP3   OH2 2249   0.986   6.054   4.502
  762TIP3    H1 2250   1.022   6.104   4.575
  762TIP3    H2 2251   0.902   6.096   4.483
  763TIP3   OH2 2252   5.169   3.827   2.178
  763TIP3    H1 2253   5.137   3.815   2.089
  763TIP3    H2 2254   5.217   3.911   2.175
  764TIP3   OH2 2255   0.541   6.032   1.132
  764TIP3    H1 2256   0.557   6.051   1.040
  764TIP3    H2 2257   0.614   6.074   1.178
  765TIP3   OH2 2258   5.198   0.581   2.214
  765TIP3    H1 2259   5.240   0.628   2.286
  765TIP3    H2 2260   5.114   0.554   2.249
  766TIP3   OH2 2261   1.087   4.491   3.779
  766TIP3    H1 2262   1.178   4.474   3.755
  766TIP3    H2 2263   1.053   4.406   3.807
  767TIP3   OH2 2264   5.520   2.470   2.194
  767TIP3    H1 2265   5.558   2.383   2.184
  767TIP3    H2 2266   5.541   2.515   2.112
  768TIP3   OH2 2267   0.939   1.821   0.705
  768TIP3    H1 2268   0.861   1.874   0.690
  768TIP3    H2 2269   0.931   1.749   0.643
  769TIP3   OH2 2270   4.181   3.288   0.761
  769TIP3    H1 2271   4.115   3.309   0.828
  769TIP3    H2 2272   4.224   3.372   0.744
  770TIP3   OH2 2273   7.187   1.497   0.801
  770TIP3    H1 2274   7.179   1.506   0.706
  770TIP3    H2 2275   7.275   1.464   0.816
  771TIP3   OH2 2276   3.497   2.780   5.656
  771TIP3    H1 2277   3.411   2.820   5.663
  771TIP3    H2 2278   3.556   2.852   5.633
  772TIP3   OH2 2279   2.032   6.434   4.136
  772TIP3    H1 2280   2.110   6.484   4.113
  772TIP3    H2 2281   1.973   6.445   4.061
  773TIP3   OH2 2282   1.169   6.359   0.898
  773TIP3    H1 2283   1.138   6.433   0.846
  773TIP3    H2 2284   1.092   6.330   0.947
  774TIP3   OH2 2285   3.560   2.483   4.656
  774TIP3    H1 2286   3.593   2.483   4.746
  774TIP3    H2 2287   3.594   2.564   4.618
  775TIP3   OH2 2288   1.299   5.123   1.533
  775TIP3    H1 2289   1.241   5.197   1.515
  775TIP3    H2 2290   1.380   5.144   1.487
  776TIP3   OH2 2291   4.932   3.293   3.387
  776TIP3    H1 2292   4.957   3.370   3.439
  776TIP3    H2 2293   4.970   3.310   3.300
  777TIP3   OH2 2294   5.868   5.799   4.602
  777TIP3    H1 2295   5.796   5.793   4.664
  777TIP3    H2 2296   5.832   5.847   4.528
  778TIP3   OH2 2297   2.134   4.315   3.222
  778TIP3    H1 2298   2.128   4.333   3.316
  778TIP3    H2 2299   2.121   4.400   3.180
  779TIP3   OH2 2300   1.989   6.211   5.153
  779TIP3    H1 2301   1.947   6.212   5.067
  779TIP3    H2 2302   2.028   6.123   5.158
  780TIP3   OH2 2303   2.501   4.736   1.640
  780TIP3    H1 2304   2.520   4.828   1.655
  780TIP3    H2 2305   2.505   4.725   1.545
  781TIP3   OH2 2306   3.058   0.840   1.787
  781TIP3    H1 2307   3.053   0.769   1.851
  781TIP3    H2 2308   3.107   0.802   1.713
  782TIP3   OH2 2309   6.146   4.261   2.629
  782TIP3    H1 2310   6.232   4.283   2.595
  782TIP3    H2 2311   6.135   4.319   2.705
  783TIP3   OH2 2312   2.012   2.036   1.146
  783TIP3    H1 2313   2.079   2.042   1.078
  783TIP3    H2 2314   2.027   1.952   1.188
  784TIP3   OH2 2315   2.831   4.680   3.067
  784TIP3    H1 2316   2.871   4.768   3.069
  784TIP3    H2 2317   2.755   4.688   3.125
  785TIP3   OH2 2318   5.779   5.528   1.474
  785TIP3    H1 2319   5.688   5.547   1.495
  785TIP3    H2 2320   5.776   5.495   1.384
  786TIP3   OH2 2321   2.720   3.793   4.958
  786TIP3    H1 2322   2.735   3.855   4.887
  786TIP3    H2 2323   2.749   3.840   5.037
  787TIP3   OH2 2324   3.953   3.177   5.561
  787TIP3    H1 2325   3.964   3.207   5.471
  787TIP3    H2 2326   4.041   3.169   5.596
  788TIP3   OH2 2327   6.012   3.170   0.385
  788TIP3    H1 2328   5.988   3.077   0.387
  788TIP3    H2 2329   6.000   3.199   0.475
  789TIP3   OH2 2330   0.252   3.643   3.521
  789TIP3    H1 2331   0.347   3.631   3.516
  789TIP3    H2 2332   0.237   3.733   3.493
  790TIP3   OH2 2333   0.600   0.740   4.995
  790TIP3    H1 2334   0.539   0.794   4.946
  790TIP3    H2 2335   0.571   0.650   4.979
  791TIP3   OH2 2336   7.075   0.663   1.759
  791TIP3    H1 2337   7.137   0.593   1.738
  791TIP3    H2 2338   7.061   0.655   1.853
  792TIP3   OH2 2339   5.059   2.287   2.759
  792TIP3    H1 2340   5.031   2.375   2.733
  792TIP3    H2 2341   4.997   2.229   2.714
  793TIP3   OH2 2342   4.932   2.904   1.882
  793TIP3    H1 2343   4.858   2.960   1.858
  793TIP3    H2 2344   4.992   2.963   1.929
  794TIP3   OH2 2345   3.394   4.470   4.652
  794TIP3    H1 2346   3.412   4.422   4.571
  794TIP3    H2 2347   3.409   4.561   4.629
  795TIP3   OH2 2348   5.808   3.074   1.446
  795TIP3    H1 2349   5.751   3.116   1.511
  795TIP3    H2 2350   5.748   3.024   1.391
  796TIP3   OH2 2351   1.250   6.092   1.785
  796TIP3    H1 2352   1.321   6.146   1.751
  796TIP3    H2 2353   1.259   6.009   1.739
  797TIP3   OH2 2354   0.655   5.620   0.506
  797TIP3    H1 2355   0.726   5.558   0.525
  797TIP3    H2 2356   0.684   5.702   0.546
  798TIP3   OH2 2357   2.592   5.795   0.803
  798TIP3    H1 2358   2.673   5.829   0.765
  798TIP3    H2 2359   2.618   5.713   0.845
  799TIP3   OH2 2360   3.283   3.951   1.374
  799TIP3    H1 2361   3.253   3.954   1.465
  799TIP3    H2 2362   3.211   3.909   1.327
  800TIP3   OH2 2363   4.164   6.511   2.997
  800TIP3    H1 2364   4.191   6.452   2.926
  800TIP3    H2 2365   4.118   6.582   2.952
  801TIP3   OH2 2366   2.838   2.493   4.361
  801TIP3    H1 2367   2.757   2.454   4.395
  801TIP3    H2 2368   2.907   2.436   4.394
  802TIP3   OH2 2369   4.985   0.630   3.719
  802TIP3    H1 2370   4.890   0.636   3.723
  802TIP3    H2 2371   5.008   0.569   3.789
  803TIP3   OH2 2372   6.889   1.290   3.684
  803TIP3    H1 2373   6.866   1.275   3.592
  803TIP3    H2 2374   6.838   1.224   3.732
  804TIP3   OH2 2375   4.747   0.516   4.403
  804TIP3    H1 2376   4.785   0.603   4.392
  804TIP3    H2 2377   4.672   0.529   4.461
  805TIP3   OH2 2378   4.373   5.473   4.547
  805TIP3    H1 2379   4.278   5.475   4.559
  805TIP3    H2 2380   4.387   5.517   4.463
  806TIP3   OH2 2381   0.091   0.015   2.173
  806TIP3    H1 2382   0.067   0.034   2.082
  806TIP3    H2 2383   0.142   0.090   2.201
  807TIP3   OH2 2384   5.164   1.669   2.940
  807TIP3    H1 2385   5.168   1.752   2.894
  807TIP3    H2 2386   5.084   1.674   2.992
  808TIP3   OH2 2387   4.896   0.260   2.652
  808TIP3    H1 2388   4.862   0.252   2.563
  808TIP3    H2 2389   4.981   0.303   2.642
  809TIP3   OH2 2390   6.595   6.592   0.339
  809TIP3    H1 2391   6.529   6.651   0.376
  809TIP3    H2 2392   6.668   6.649   0.316
  810TIP3   OH2 2393   3.226   4.165   0.420
  810TIP3    H1 2394   3.193   4.178   0.331
  810TIP3    H2 2395   3.321   4.162   0.409
  811TIP3   OH2 2396   2.540   1.052   0.355
  811TIP3    H1 2397   2.454   1.056   0.399
  811TIP3    H2 2398   2.589   1.126   0.390
  812TIP3   OH2 2399   6.158   3.490   0.292
  812TIP3    H1 2400   6.136   3.541   0.370
  812TIP3    H2 2401   6.080   3.436   0.276
  813TIP3   OH2 2402   5.380   0.407   4.839
  813TIP3    H1 2403   5.306   0.439   4.788
  813TIP3    H2 2404   5.397   0.476   4.904
  814TIP3   OH2 2405   3.844   4.601   2.765
  814TIP3    H1 2406   3.809   4.586   2.852
  814TIP3    H2 2407   3.890   4.521   2.742
  815TIP3   OH2 2408   4.797   2.901   5.859
  815TIP3    H1 2409   4.768   2.863   5.776
  815TIP3    H2 2410   4.805   2.994   5.841
  816TIP3   OH2 2411   0.023   3.742   2.037
  816TIP3    H1 2412   0.042   3.781   1.952
  816TIP3    H2 2413   0.108   3.739   2.081
  817TIP3   OH2 2414   6.081   1.686   5.040
  817TIP3    H1 2415   5.997   1.644   5.057
  817TIP3    H2 2416   6.142   1.643   5.099
  818TIP3   OH2 2417   2.392   2.317   3.492
  818TIP3    H1 2418   2.467   2.320   3.433
  818TIP3    H2 2419   2.331   2.256   3.450
  819TIP3   OH2 2420   6.615   3.507   5.424
  819TIP3    H1 2421   6.549   3.471   5.364
  819TIP3    H2 2422   6.569   3.577   5.471
  820TIP3   OH2 2423   1.254   5.129   3.012
  820TIP3    H1 2424   1.333   5.182   3.023
  820TIP3    H2 2425   1.285   5.039   3.017
  821TIP3   OH2 2426   6.149   6.782   2.904
  821TIP3    H1 2427   6.124   6.690   2.904
  821TIP3    H2 2428   6.069   6.829   2.882
  822TIP3   OH2 2429   3.524   4.653   4.987
  822TIP3    H1 2430   3.556   4.741   4.967
  822TIP3    H2 2431   3.538   4.605   4.905
  823TIP3   OH2 2432   1.473   1.774   4.874
  823TIP3    H1 2433   1.535   1.846   4.865
  823TIP3    H2 2434   1.472   1.733   4.788
  824TIP3   OH2 2435   3.195   0.200   1.001
  824TIP3    H1 2436   3.234   0.135   0.942
  824TIP3    H2 2437   3.106   0.212   0.968
  825TIP3   OH2 2438   2.740   4.301   3.852
  825TIP3    H1 2439   2.693   4.222   3.879
  825TIP3    H2 2440   2.815   4.307   3.912
  826TIP3   OH2 2441   3.170   1.109   3.653
  826TIP3    H1 2442   3.221   1.181   3.616
  826TIP3    H2 2443   3.092   1.103   3.598
  827TIP3   OH2 2444   3.429   4.391   3.123
  827TIP3    H1 2445   3.421   4.313   3.069
  827TIP3    H2 2446   3.340   4.410   3.152
  828TIP3   OH2 2447   0.192   3.072   1.337
  828TIP3    H1 2448   0.242   3.034   1.265
  828TIP3    H2 2449   0.185   3.165   1.315
  829TIP3   OH2 2450   4.716   6.362   5.239
  829TIP3    H1 2451   4.734   6.357   5.333
  829TIP3    H2 2452   4.661   6.286   5.221
  830TIP3   OH2 2453   2.928   5.085   5.301
  830TIP3    H1 2454   3.001   5.040   5.343
  830TIP3    H2 2455   2.852   5.063   5.355
  831TIP3   OH2 2456   0.690   3.744   0.209
  831TIP3    H1 2457   0.729   3.696   0.282
  831TIP3    H2 2458   0.765   3.780   0.161
  832TIP3   OH2 2459   3.384   5.650   0.097
  832TIP3    H1 2460   3.450   5.676   0.033
  832TIP3    H2 2461   3.302   5.652   0.050
  833TIP3   OH2 2462   4.883   6.633   4.699
  833TIP3    H1 2463   4.901   6.719   4.661
  833TIP3    H2 2464   4.858   6.578   4.625
  834TIP3   OH2 2465   2.341   1.957   2.844
  834TIP3    H1 2466   2.344   1.964   2.749
  834TIP3    H2 2467   2.433   1.945   2.870
  835TIP3   OH2 2468   0.501   4.363   4.859
  835TIP3    H1 2469   0.406   4.371   4.846
  835TIP3    H2 2470   0.512   4.277   4.900
  836TIP3   OH2 2471   0.070   6.620   3.779
  836TIP3    H1 2472   0.081   6.541   3.726
  836TIP3    H2 2473  -0.019   6.614   3.813
  837TIP3   OH2 2474   6.808   6.317   2.120
  837TIP3    H1 2475   6.832   6.405   2.091
  837TIP3    H2 2476   6.728   6.329   2.171
  838TIP3   OH2 2477   1.958   3.499   1.333
  838TIP3    H1 2478   1.863   3.508   1.325
  838TIP3    H2 2479   1.993   3.571   1.280
  839TIP3   OH2 2480   3.376   6.539   2.788
  839TIP3    H1 2481   3.349   6.549   2.697
  839TIP3    H2 2482   3.376   6.444   2.802
  840TIP3   OH2 2483   5.570   4.719   5.551
  840TIP3    H1 2484   5.616   4.713   5.467
  840TIP3    H2 2485   5.543   4.810   5.557
  841TIP3   OH2 2486   1.557   2.037   4.312
  841TIP3    H1 2487   1.570   1.973   4.382
  841TIP3    H2 2488   1.636   2.092   4.315
  842TIP3   OH2 2489   0.947   5.471   3.147
  842TIP3    H1 2490   1.025   5.459   3.201
  842TIP3    H2 2491   0.882   5.509   3.206
  843TIP3   OH2 2492   5.409   0.889   3.399
  843TIP3    H1 2493   5.435   0.969   3.353
  843TIP3    H2 2494   5.321   0.870   3.367
  844TIP3   OH2 2495   5.506   2.444   1.726
  844TIP3    H1 2496   5.506   2.519   1.785
  844TIP3    H2 2497   5.598   2.422   1.716
  845TIP3   OH2 2498   2.877   1.155   1.385
  845TIP3    H1 2499   2.957   1.106   1.402
  845TIP3    H2 2500   2.896   1.244   1.415
  846TIP3   OH2 2501   6.577   6.247   1.845
  846TIP3    H1 2502   6.565   6.237   1.940
  846TIP3    H2 2503   6.580   6.157   1.812
  847TIP3   OH2 2504   0.713   2.591   0.452
  847TIP3    H1 2505   0.682   2.502   0.434
  847TIP3    H2 2506   0.635   2.646   0.443
  848TIP3   OH2 2507   3.729   4.085   5.868
  848TIP3    H1 2508   3.694   4.052   5.785
  848TIP3    H2 2509   3.735   4.180   5.856
  849TIP3   OH2 2510   0.160   6.152   4.340
  849TIP3    H1 2511   0.166   6.061   4.368
  849TIP3    H2 2512   0.067   6.168   4.329
  850TIP3   OH2 2513   5.970   2.194   1.627
  850TIP3    H1 2514   6.002   2.282   1.609
  850TIP3    H2 2515   6.045   2.137   1.610
  851TIP3   OH2 2516   5.056   4.170   0.666
  851TIP3    H1 2517   5.057   4.076   0.647
  851TIP3    H2 2518   5.138   4.202   0.630
  852TIP3   OH2 2519   6.011   4.248   4.253
  852TIP3    H1 2520   6.054   4.325   4.216
  852TIP3    H2 2521   5.966   4.281   4.331
  853TIP3   OH2 2522   5.826   5.124   0.080
  853TIP3    H1 2523   5.839   5.045   0.131
  853TIP3    H2 2524   5.899   5.126   0.019
  854TIP3   OH2 2525   3.014   4.433   1.535
  854TIP3    H1 2526   2.943   4.395   1.587
  854TIP3    H2 2527   2.971   4.465   1.455
  855TIP3   OH2 2528   0.716   0.817   2.084
  855TIP3    H1 2529   0.627   0.817   2.118
  855TIP3    H2 2530   0.714   0.879   2.011
  856TIP3   OH2 2531   6.905   0.431   4.647
  856TIP3    H1 2532   6.957   0.459   4.722
  856TIP3    H2 2533   6.954   0.460   4.570
  857TIP3   OH2 2534   0.412  -0.014   3.513
  857TIP3    H1 2535   0.440   0.008   3.601
  857TIP3    H2 2536   0.328   0.031   3.502
  858TIP3   OH2 2537   5.312   2.103   3.039
  858TIP3    H1 2538   5.278   2.037   2.978
  858TIP3    H2 2539   5.295   2.066   3.126
  859TIP3   OH2 2540   0.708   5.488   2.635
  859TIP3    H1 2541   0.626   5.528   2.608
  859TIP3    H2 2542   0.746   5.550   2.698
  860TIP3   OH2 2543   4.844   4.386   5.747
  860TIP3    H1 2544   4.843   4.317   5.680
  860TIP3    H2 2545   4.923   4.370   5.798
  861TIP3   OH2 2546   1.896   1.954   0.723
  861TIP3    H1 2547   1.915   1.988   0.636
  861TIP3    H2 2548   1.919   2.025   0.783
  862TIP3   OH2 2549   0.428   4.910   0.416
  862TIP3    H1 2550   0.398   4.996   0.446
  862TIP3    H2 2551   0.356   4.851   0.439
  863TIP3   OH2 2552   0.741   4.957   0.842
  863TIP3    H1 2553   0.742   4.874   0.794
  863TIP3    H2 2554   0.676   5.011   0.796
  864TIP3   OH2 2555   5.535   5.671   0.536
  864TIP3    H1 2556   5.536   5.767   0.532
  864TIP3    H2 2557   5.586   5.643   0.460
  865TIP3   OH2 2558   0.151   5.973   1.614
  865TIP3    H1 2559   0.131   5.879   1.613
  865TIP3    H2 2560   0.202   5.986   1.694
  866TIP3   OH2 2561   3.159   5.375   3.168
  866TIP3    H1 2562   3.236   5.391   3.222
  866TIP3    H2 2563   3.193   5.331   3.090
  867TIP3   OH2 2564   1.243   4.034   0.146
  867TIP3    H1 2565   1.334   4.060   0.156
  867TIP3    H2 2566   1.212   4.084   0.070
  868TIP3   OH2 2567   3.259   4.322   4.173
  868TIP3    H1 2568   3.242   4.376   4.096
  868TIP3    H2 2569   3.252   4.232   4.142
  869TIP3   OH2 2570   1.755   4.770   5.715
  869TIP3    H1 2571   1.690   4.800   5.778
  869TIP3    H2 2572   1.708   4.765   5.632
  870TIP3   OH2 2573   6.417   6.039   4.300
  870TIP3    H1 2574   6.369   5.982   4.239
  870TIP3    H2 2575   6.408   6.127   4.263
  871TIP3   OH2 2576   1.010   4.693   5.047
  871TIP3    H1 2577   1.048   4.626   4.990
  871TIP3    H2 2578   0.980   4.645   5.124
  872TIP3   OH2 2579   3.974   6.741   1.457
  872TIP3    H1 2580   3.881   6.765   1.457
  872TIP3    H2 2581   4.015   6.801   1.396
  873TIP3   OH2 2582   6.399   2.272   5.830
  873TIP3    H1 2583   6.316   2.285   5.785
  873TIP3    H2 2584   6.387   2.312   5.916
  874TIP3   OH2 2585   5.763   3.056   3.319
  874TIP3    H1 2586   5.727   3.101   3.242
  874TIP3    H2 2587   5.725   2.968   3.315
  875TIP3   OH2 2588   3.572   2.686   5.121
  875TIP3    H1 2589   3.566   2.653   5.211
  875TIP3    H2 2590   3.513   2.762   5.120
  876TIP3   OH2 2591   7.155   3.878   0.770
  876TIP3    H1 2592   7.159   3.796   0.722
  876TIP3    H2 2593   7.070   3.877   0.814
  877TIP3   OH2 2594   2.376   0.438   0.585
  877TIP3    H1 2595   2.416   0.508   0.637
  877TIP3    H2 2596   2.438   0.421   0.514
  878TIP3   OH2 2597   2.924   1.449   4.714
  878TIP3    H1 2598   2.832   1.424   4.712
  878TIP3    H2 2599   2.957   1.428   4.626
  879TIP3   OH2 2600   2.792   5.700   2.239
  879TIP3    H1 2601   2.829   5.742   2.317
  879TIP3    H2 2602   2.699   5.719   2.244
  880TIP3   OH2 2603   3.606   1.085   4.831
  880TIP3    H1 2604   3.526   1.136   4.816
  880TIP3    H2 2605   3.578   1.014   4.890
  881TIP3   OH2 2606   5.383   0.868   4.137
  881TIP3    H1 2607   5.295   0.855   4.174
  881TIP3    H2 2608   5.416   0.780   4.121
  882TIP3   OH2 2609   6.409   5.416   0.927
  882TIP3    H1 2610   6.347   5.376   0.866
  882TIP3    H2 2611   6.484   5.356   0.927
  883TIP3   OH2 2612   1.941   0.073   0.527
  883TIP3    H1 2613   2.010   0.133   0.555
  883TIP3    H2 2614   1.979  -0.014   0.541
  884TIP3   OH2 2615   1.285   5.943   5.436
  884TIP3    H1 2616   1.287   6.011   5.504
  884TIP3    H2 2617   1.194   5.942   5.406
  885TIP3   OH2 2618   5.661   1.213   3.941
  885TIP3    H1 2619   5.728   1.202   3.873
  885TIP3    H2 2620   5.671   1.304   3.970
  886TIP3   OH2 2621   1.412   5.163   2.054
  886TIP3    H1 2622   1.319   5.175   2.032
  886TIP3    H2 2623   1.413   5.159   2.150
  887TIP3   OH2 2624   5.007   2.387   1.507
  887TIP3    H1 2625   4.986   2.420   1.594
  887TIP3    H2 2626   4.942   2.428   1.449
  888TIP3   OH2 2627   2.830   3.933   3.584
  888TIP3    H1 2628   2.882   4.001   3.542
  888TIP3    H2 2629   2.863   3.851   3.547
  889TIP3   OH2 2630   2.043   1.279   0.267
  889TIP3    H1 2631   2.069   1.205   0.322
  889TIP3    H2 2632   2.084   1.355   0.308
  890TIP3   OH2 2633   5.473   3.134   5.463
  890TIP3    H1 2634   5.404   3.099   5.407
  890TIP3    H2 2635   5.555   3.102   5.424
  891TIP3   OH2 2636   2.839   5.801   5.221
  891TIP3    H1 2637   2.828   5.711   5.252
  891TIP3    H2 2638   2.877   5.792   5.134
  892TIP3   OH2 2639   0.793   5.200   2.752
  892TIP3    H1 2640   0.818   5.220   2.842
  892TIP3    H2 2641   0.720   5.259   2.733
  893TIP3   OH2 2642   4.095   1.379   5.691
  893TIP3    H1 2643   4.090   1.445   5.623
  893TIP3    H2 2644   4.189   1.367   5.707
  894TIP3   OH2 2645   7.184   3.120   3.827
  894TIP3    H1 2646   7.177   3.078   3.913
  894TIP3    H2 2647   7.151   3.055   3.766
  895TIP3   OH2 2648   0.098   3.988   1.537
  895TIP3    H1 2649   0.121   4.064   1.484
  895TIP3    H2 2650   0.132   3.913   1.487
  896TIP3   OH2 2651   2.138   5.891   0.596
  896TIP3    H1 2652   2.082   5.939   0.534
  896TIP3    H2 2653   2.086   5.814   0.620
  897TIP3   OH2 2654   2.325   2.957   4.461
  897TIP3    H1 2655   2.415   2.928   4.479
  897TIP3    H2 2656   2.320   2.962   4.366
  898TIP3   OH2 2657   4.294   6.326   3.601
  898TIP3    H1 2658   4.333   6.340   3.515
  898TIP3    H2 2659   4.209   6.369   3.598
  899TIP3   OH2 2660   2.857   3.814   0.171
  899TIP3    H1 2661   2.855   3.775   0.083
  899TIP3    H2 2662   2.817   3.748   0.227
  900TIP3   OH2 2663   1.676   4.188   4.316
  900TIP3    H1 2664   1.714   4.183   4.228
  900TIP3    H2 2665   1.715   4.114   4.363
  901TIP3   OH2 2666   6.020   6.020   2.130
  901TIP3    H1 2667   6.075   5.994   2.056
  901TIP3    H2 2668   6.043   5.959   2.200
  902TIP3   OH2 2669   4.810   2.771   1.080
  902TIP3    H1 2670   4.857   2.701   1.124
  902TIP3    H2 2671   4.735   2.728   1.039
  903TIP3   OH2 2672   2.431   2.828   0.251
  903TIP3    H1 2673   2.514   2.856   0.289
  903TIP3    H2 2674   2.417   2.888   0.178
  904TIP3   OH2 2675   3.615   1.817   0.304
  904TIP3    H1 2676   3.600   1.911   0.301
  904TIP3    H2 2677   3.691   1.803   0.247
  905TIP3   OH2 2678   3.105   6.050   2.101
  905TIP3    H1 2679   3.060   5.996   2.036
  905TIP3    H2 2680   3.049   6.047   2.178
  906TIP3   OH2 2681   1.347   2.946   5.692
  906TIP3    H1 2682   1.263   2.955   5.647
  906TIP3    H2 2683   1.363   2.852   5.695
  907TIP3   OH2 2684   4.296   2.762   1.633
  907TIP3    H1 2685   4.310   2.768   1.728
  907TIP3    H2 2686   4.382   2.779   1.595
  908TIP3   OH2 2687   6.477   4.050   0.270
  908TIP3    H1 2688   6.525   4.067   0.351
  908TIP3    H2 2689   6.543   4.054   0.201
  909TIP3   OH2 2690   4.935   2.608   4.063
  909TIP3    H1 2691   4.987   2.656   4.128
  909TIP3    H2 2692   4.846   2.642   4.073
  910TIP3   OH2 2693   0.266   5.456   4.818
  910TIP3    H1 2694   0.308   5.380   4.778
  910TIP3    H2 2695   0.315   5.531   4.783
  911TIP3   OH2 2696   4.526   1.741   4.976
  911TIP3    H1 2697   4.570   1.826   4.980
  911TIP3    H2 2698   4.575   1.692   4.909
  912TIP3   OH2 2699   4.004   3.816   0.738
  912TIP3    H1 2700   3.913   3.843   0.742
  912TIP3    H2 2701   4.049   3.888   0.692
  913TIP3   OH2 2702   4.074   3.149   5.160
  913TIP3    H1 2703   4.051   3.225   5.108
  913TIP3    H2 2704   4.170   3.145   5.157
  914TIP3   OH2 2705   0.562   5.170   5.553
  914TIP3    H1 2706   0.511   5.214   5.486
  914TIP3    H2 2707   0.586   5.239   5.615
  915TIP3   OH2 2708   1.149   1.635   2.629
  915TIP3    H1 2709   1.224   1.590   2.588
  915TIP3    H2 2710   1.116   1.693   2.561
  916TIP3   OH2 2711   3.825   2.822   4.348
  916TIP3    H1 2712   3.844   2.803   4.256
  916TIP3    H2 2713   3.873   2.902   4.366
  917TIP3   OH2 2714   0.598   4.043   3.355
  917TIP3    H1 2715   0.551   4.123   3.333
  917TIP3    H2 2716   0.633   4.012   3.272
  918TIP3   OH2 2717   0.365   1.491   5.698
  918TIP3    H1 2718   0.343   1.531   5.782
  918TIP3    H2 2719   0.361   1.397   5.713
  919TIP3   OH2 2720   4.203   5.190   5.804
  919TIP3    H1 2721   4.155   5.272   5.815
  919TIP3    H2 2722   4.211   5.154   5.892
  920TIP3   OH2 2723   1.052   4.449   3.255
  920TIP3    H1 2724   1.145   4.423   3.258
  920TIP3    H2 2725   1.035   4.462   3.161
  921TIP3   OH2 2726   1.048   4.355   2.602
  921TIP3    H1 2727   1.029   4.441   2.637
  921TIP3    H2 2728   0.964   4.309   2.603
  922TIP3   OH2 2729   7.052   3.827   2.208
  922TIP3    H1 2730   7.060   3.757   2.273
  922TIP3    H2 2731   7.133   3.821   2.157
  923TIP3   OH2 2732   2.552   3.524   3.131
  923TIP3    H1 2733   2.465   3.504   3.097
  923TIP3    H2 2734   2.598   3.440   3.129
  924TIP3   OH2 2735   3.433   6.752   1.669
  924TIP3    H1 2736   3.491   6.733   1.596
  924TIP3    H2 2737   3.463   6.693   1.739
  925TIP3   OH2 2738   1.402   4.622   3.804
  925TIP3    H1 2739   1.361   4.634   3.889
  925TIP3    H2 2740   1.410   4.528   3.793
  926TIP3   OH2 2741   3.965   6.508   4.383
  926TIP3    H1 2742   3.901   6.558   4.332
  926TIP3    H2 2743   4.038   6.494   4.323
  927TIP3   OH2 2744   4.960   1.011   0.957
  927TIP3    H1 2745   5.009   1.031   0.877
  927TIP3    H2 2746   4.981   0.920   0.975
  928TIP3   OH2 2747   0.392   6.572   2.536
  928TIP3    H1 2748   0.414   6.661   2.563
  928TIP3    H2 2749   0.431   6.563   2.449
  929TIP3   OH2 2750   6.347   3.472   4.198
  929TIP3    H1 2751   6.435   3.501   4.224
  929TIP3    H2 2752   6.301   3.457   4.280
  930TIP3   OH2 2753   5.103   3.832   5.892
  930TIP3    H1 2754   5.171   3.863   5.832
  930TIP3    H2 2755   5.025   3.882   5.869
  931TIP3   OH2 2756   1.003   5.926   3.601
  931TIP3    H1 2757   0.991   5.981   3.523
  931TIP3    H2 2758   1.042   5.984   3.666
  932TIP3   OH2 2759   0.569   0.474   2.411
  932TIP3    H1 2760   0.606   0.513   2.490
  932TIP3    H2 2761   0.642   0.472   2.349
  933TIP3   OH2 2762   1.973   2.656   1.758
  933TIP3    H1 2763   1.997   2.705   1.679
  933TIP3    H2 2764   2.009   2.708   1.830
  934TIP3   OH2 2765   1.708   3.419   1.435
  934TIP3    H1 2766   1.655   3.488   1.474
  934TIP3    H2 2767   1.725   3.357   1.506
  935TIP3   OH2 2768   5.794   4.116   4.081
  935TIP3    H1 2769   5.843   4.135   4.160
  935TIP3    H2 2770   5.757   4.200   4.054
  936TIP3   OH2 2771   2.637   4.480   4.373
  936TIP3    H1 2772   2.555   4.505   4.417
  936TIP3    H2 2773   2.698   4.550   4.396
  937TIP3   OH2 2774   5.922   3.799   2.001
  937TIP3    H1 2775   5.843   3.745   2.003
  937TIP3    H2 2776   5.993   3.739   2.021
  938TIP3   OH2 2777   1.910   2.646   5.674
  938TIP3    H1 2778   1.888   2.685   5.759
  938TIP3    H2 2779   1.952   2.563   5.696
  939TIP3   OH2 2780   2.045   0.210   1.213
  939TIP3    H1 2781   2.029   0.118   1.196
  939TIP3    H2 2782   2.074   0.213   1.304
  940TIP3   OH2 2783   6.071   1.479   0.404
  940TIP3    H1 2784   6.115   1.403   0.442
  940TIP3    H2 2785   6.142   1.533   0.369
  941TIP3   OH2 2786   2.397   5.708   4.258
  941TIP3    H1 2787   2.390   5.723   4.164
  941TIP3    H2 2788   2.457   5.634   4.267
  942TIP3   OH2 2789   6.882   2.563   3.695
  942TIP3    H1 2790   6.910   2.487   3.643
  942TIP3    H2 2791   6.950   2.573   3.761
  943TIP3   OH2 2792   0.149   3.623   3.051
  943TIP3    H1 2793   0.069   3.575   3.030
  943TIP3    H2 2794   0.194   3.568   3.115
  944TIP3   OH2 2795   0.043   6.015   2.185
  944TIP3    H1 2796   0.115   5.957   2.160
  944TIP3    H2 2797  -0.011   5.963   2.244
  945TIP3   OH2 2798   6.676   1.146   2.753
  945TIP3    H1 2799   6.758   1.100   2.770
  945TIP3    H2 2800   6.652   1.184   2.837
  946TIP3   OH2 2801   2.080   6.328   1.823
  946TIP3    H1 2802   2.050   6.347   1.734
  946TIP3    H2 2803   2.003   6.342   1.878
  947TIP3   OH2 2804   0.714   4.211   1.040
  947TIP3    H1 2805   0.800   4.168   1.041
  947TIP3    H2 2806   0.732   4.300   1.069
  948TIP3   OH2 2807   4.583   1.592   2.871
  948TIP3    H1 2808   4.649   1.535   2.833
  948TIP3    H2 2809   4.514   1.533   2.901
  949TIP3   OH2 2810   2.619   1.329   2.649
  949TIP3    H1 2811   2.536   1.372   2.670
  949TIP3    H2 2812   2.593   1.244   2.612
  950TIP3   OH2 2813   2.106   3.302   1.480
  950TIP3    H1 2814   2.191   3.327   1.516
  950TIP3    H2 2815   2.085   3.372   1.418
  951TIP3   OH2 2816   0.993   3.703   3.181
  951TIP3    H1 2817   1.052   3.699   3.257
  951TIP3    H2 2818   0.994   3.614   3.146
  952TIP3   OH2 2819   1.841   6.445   4.355
  952TIP3    H1 2820   1.912   6.425   4.294
  952TIP3    H2 2821   1.831   6.366   4.407
  953TIP3   OH2 2822   2.807   2.175   4.189
  953TIP3    H1 2823   2.879   2.237   4.182
  953TIP3    H2 2824   2.766   2.175   4.102
  954TIP3   OH2 2825   0.285   4.110   3.912
  954TIP3    H1 2826   0.229   4.158   3.850
  954TIP3    H2 2827   0.371   4.109   3.871
  955TIP3   OH2 2828   6.844   3.393   0.416
  955TIP3    H1 2829   6.845   3.436   0.502
  955TIP3    H2 2830   6.927   3.418   0.376
  956TIP3   OH2 2831   7.010   5.920   4.097
  956TIP3    H1 2832   6.993   6.012   4.078
  956TIP3    H2 2833   6.948   5.872   4.042
  957TIP3   OH2 2834   1.515   0.285   0.507
  957TIP3    H1 2835   1.565   0.360   0.473
  957TIP3    H2 2836   1.432   0.288   0.461
  958TIP3   OH2 2837   0.791   3.954   2.384
  958TIP3    H1 2838   0.761   4.028   2.438
  958TIP3    H2 2839   0.856   3.992   2.325
  959TIP3   OH2 2840   3.447   0.279   4.323
  959TIP3    H1 2841   3.409   0.235   4.398
  959TIP3    H2 2842   3.374   0.327   4.283
  960TIP3   OH2 2843   3.584   0.750   3.664
  960TIP3    H1 2844   3.650   0.705   3.716
  960TIP3    H2 2845   3.524   0.681   3.637
  961TIP3   OH2 2846   1.191   2.951   1.884
  961TIP3    H1 2847   1.252   3.022   1.905
  961TIP3    H2 2848   1.216   2.880   1.943
  962TIP3   OH2 2849   5.389   0.507   0.210
  962TIP3    H1 2850   5.345   0.592   0.213
  962TIP3    H2 2851   5.320   0.445   0.189
  963TIP3   OH2 2852   6.561   3.685   0.134
  963TIP3    H1 2853   6.466   3.679   0.136
  963TIP3    H2 2854   6.591   3.595   0.150
  964TIP3   OH2 2855   2.104   0.511   1.239
  964TIP3    H1 2856   2.107   0.588   1.296
  964TIP3    H2 2857   2.110   0.436   1.299
  965TIP3   OH2 2858   2.886   1.631   4.223
  965TIP3    H1 2859   2.878   1.703   4.160
  965TIP3    H2 2860   2.840   1.558   4.182
  966TIP3   OH2 2861   2.538   5.851   0.081
  966TIP3    H1 2862   2.494   5.888   0.004
  966TIP3    H2 2863   2.529   5.756   0.070
  967TIP3   OH2 2864   0.268   3.497   3.251
  967TIP3    H1 2865   0.198   3.505   3.316
  967TIP3    H2 2866   0.338   3.552   3.285
  968TIP3   OH2 2867   2.153   1.497   2.646
  968TIP3    H1 2868   2.158   1.423   2.586
  968TIP3    H2 2869   2.146   1.574   2.590
  969TIP3   OH2 2870   5.882   5.391   3.435
  969TIP3    H1 2871   5.835   5.312   3.408
  969TIP3    H2 2872   5.878   5.449   3.359
  970TIP3   OH2 2873   6.669   4.799   3.828
  970TIP3    H1 2874   6.625   4.714   3.834
  970TIP3    H2 2875   6.722   4.804   3.907
  971TIP3   OH2 2876   2.899   1.399   0.380
  971TIP3    H1 2877   2.837   1.448   0.435
  971TIP3    H2 2878   2.985   1.434   0.404
  972TIP3   OH2 2879   6.334   6.337   5.376
  972TIP3    H1 2880   6.346   6.421   5.420
  972TIP3    H2 2881   6.342   6.272   5.446
  973TIP3   OH2 2882   4.797   0.599   2.122
  973TIP3    H1 2883   4.748   0.520   2.143
  973TIP3    H2 2884   4.805   0.598   2.026
  974TIP3   OH2 2885   4.753   1.349   4.757
  974TIP3    H1 2886   4.659   1.337   4.744
  974TIP3    H2 2887   4.790   1.341   4.669
  975TIP3   OH2 2888   5.406   3.311   1.109
  975TIP3    H1 2889   5.432   3.220   1.123
  975TIP3    H2 2890   5.488   3.360   1.110
  976TIP3   OH2 2891   1.905   2.186   0.850
  976TIP3    H1 2892   1.953   2.266   0.867
  976TIP3    H2 2893   1.840   2.211   0.784
  977TIP3   OH2 2894   0.384   2.933   5.741
  977TIP3    H1 2895   0.405   2.978   5.659
  977TIP3    H2 2896   0.423   2.988   5.809
  978TIP3   OH2 2897   4.102   2.626   5.103
  978TIP3    H1 2898   4.140   2.578   5.177
  978TIP3    H2 2899   4.143   2.713   5.107
  979TIP3   OH2 2900   3.091   3.765   3.738
  979TIP3    H1 2901   3.112   3.851   3.703
  979TIP3    H2 2902   3.170   3.713   3.723
  980TIP3   OH2 2903   1.508   5.176   3.826
  980TIP3    H1 2904   1.575   5.243   3.819
  980TIP3    H2 2905   1.435   5.219   3.870
  981TIP3   OH2 2906   4.167   1.847   5.464
  981TIP3    H1 2907   4.183   1.863   5.370
  981TIP3    H2 2908   4.159   1.935   5.502
  982TIP3   OH2 2909   2.100   0.787   0.700
  982TIP3    H1 2910   2.186   0.778   0.659
  982TIP3    H2 2911   2.093   0.712   0.759
  983TIP3   OH2 2912   0.048   5.263   1.917
  983TIP3    H1 2913   0.072   5.335   1.858
  983TIP3    H2 2914   0.026   5.305   2.000
  984TIP3   OH2 2915   2.633   3.825   2.349
  984TIP3    H1 2916   2.705   3.812   2.412
  984TIP3    H2 2917   2.592   3.739   2.342
  985TIP3   OH2 2918   5.695   4.965   5.483
  985TIP3    H1 2919   5.760   4.926   5.425
  985TIP3    H2 2920   5.637   5.013   5.424
  986TIP3   OH2 2921   3.806   1.403   5.694
  986TIP3    H1 2922   3.809   1.471   5.760
  986TIP3    H2 2923   3.897   1.376   5.682
  987TIP3   OH2 2924   5.265   0.382   1.383
  987TIP3    H1 2925   5.190   0.324   1.368
  987TIP3    H2 2926   5.281   0.377   1.477
  988TIP3   OH2 2927   5.042   1.371   4.925
  988TIP3    H1 2928   4.974   1.323   4.877
  988TIP3    H2 2929   5.118   1.368   4.866
  989TIP3   OH2 2930   4.435   4.751   2.805
  989TIP3    H1 2931   4.475   4.681   2.856
  989TIP3    H2 2932   4.484   4.751   2.722
  990TIP3   OH2 2933   3.168   5.840   5.064
  990TIP3    H1 2934   3.224   5.762   5.073
  990TIP3    H2 2935   3.096   5.811   5.008
  991TIP3   OH2 2936   6.939   0.793   2.539
  991TIP3    H1 2937   6.855   0.837   2.550
  991TIP3    H2 2938   6.973   0.784   2.628
  992TIP3   OH2 2939   4.534   2.144   0.566
  992TIP3    H1 2940   4.593   2.217   0.547
  992TIP3    H2 2941   4.590   2.066   0.558
  993TIP3   OH2 2942   3.070   3.856   3.054
  993TIP3    H1 2943   3.155   3.895   3.077
  993TIP3    H2 2944   3.070   3.771   3.098
  994TIP3   OH2 2945   1.819   5.858   5.738
  994TIP3    H1 2946   1.835   5.941   5.783
  994TIP3    H2 2947   1.831   5.879   5.645
  995TIP3   OH2 2948   1.355   1.647   4.666
  995TIP3    H1 2949   1.286   1.713   4.671
  995TIP3    H2 2950   1.312   1.565   4.688
  996TIP3   OH2 2951   3.437   4.053   2.033
  996TIP3    H1 2952   3.523   4.055   2.076
  996TIP3    H2 2953   3.437   4.130   1.976
  997TIP3   OH2 2954   6.358   5.141   4.296
  997TIP3    H1 2955   6.320   5.112   4.213
  997TIP3    H2 2956   6.313   5.223   4.315
  998TIP3   OH2 2957   1.291   1.381   1.546
  998TIP3    H1 2958   1.377   1.343   1.565
  998TIP3    H2 2959   1.257   1.329   1.473
  999TIP3   OH2 2960   1.985   5.414   3.342
  999TIP3    H1 2961   2.052   5.435   3.408
  999TIP3    H2 2962   1.947   5.498   3.319
 1000TIP3   OH2 2963   2.802   4.548   3.746
 1000TIP3    H1 2964   2.861   4.516   3.678
 1000TIP3    H2 2965   2.820   4.492   3.821
 1001TIP3   OH2 2966   7.156   3.366   4.106
 1001TIP3    H1 2967   7.103   3.349   4.184
 1001TIP3    H2 2968   7.094   3.401   4.042
 1002TIP3   OH2 2969   3.102   3.243   0.019
 1002TIP3    H1 2970   3.178   3.185   0.030
 1002TIP3    H2 2971   3.063   3.249   0.106
 1003TIP3   OH2 2972   5.176   1.981   0.309
 1003TIP3    H1 2973   5.177   1.953   0.401
 1003TIP3    H2 2974   5.110   2.050   0.306
 1004TIP3   OH2 2975   5.179   1.385   5.546
 1004TIP3    H1 2976   5.121   1.329   5.596
 1004TIP3    H2 2977   5.133   1.469   5.540
 1005TIP3   OH2 2978   4.924   3.655   0.134
 1005TIP3    H1 2979   4.913   3.749   0.120
 1005TIP3    H2 2980   5.015   3.637   0.111
 1006TIP3   OH2 2981   5.925   4.664   4.355
 1006TIP3    H1 2982   5.898   4.701   4.272
 1006TIP3    H2 2983   5.954   4.739   4.407
 1007TIP3   OH2 2984   5.021   1.780   4.005
 1007TIP3    H1 2985   4.938   1.821   4.030
 1007TIP3    H2 2986   5.022   1.782   3.910
 1008TIP3   OH2 2987   5.555   1.230   5.437
 1008TIP3    H1 2988   5.612   1.175   5.490
 1008TIP3    H2 2989   5.471   1.229   5.482
 1009TIP3   OH2 2990   7.018   2.813   4.241
 1009TIP3    H1 2991   6.938   2.828   4.191
 1009TIP3    H2 2992   7.025   2.889   4.299
 1010TIP3   OH2 2993   6.741   6.727   2.567
 1010TIP3    H1 2994   6.648   6.718   2.548
 1010TIP3    H2 2995   6.784   6.716   2.482
 1011TIP3   OH2 2996   2.213   6.506   4.847
 1011TIP3    H1 2997   2.198   6.414   4.868
 1011TIP3    H2 2998   2.268   6.539   4.918
 1012TIP3   OH2 2999   4.053   5.364   1.188
 1012TIP3    H1 3000   4.102   5.445   1.202
 1012TIP3    H2 3001   4.118   5.302   1.153
 1013TIP3   OH2 3002   4.391   5.459   4.999
 1013TIP3    H1 3003   4.438   5.470   5.082
 1013TIP3    H2 3004   4.446   5.399   4.949
 1014TIP3   OH2 3005   0.686   4.522   0.251
 1014TIP3    H1 3006   0.745   4.454   0.282
 1014TIP3    H2 3007   0.645   4.556   0.330
 1015TIP3   OH2 3008   1.911   0.375   1.072
 1015TIP3    H1 3009   1.977   0.320   1.114
 1015TIP3    H2 3010   1.906   0.452   1.128
 1016TIP3   OH2 3011   0.206   2.530   5.478
 1016TIP3    H1 3012   0.272   2.503   5.542
 1016TIP3    H2 3013   0.150   2.590   5.527
 1017TIP3   OH2 3014   4.909   0.617   1.819
 1017TIP3    H1 3015   4.993   0.606   1.864
 1017TIP3    H2 3016   4.933   0.628   1.727
 1018TIP3   OH2 3017   5.564   4.313   0.339
 1018TIP3    H1 3018   5.598   4.224   0.346
 1018TIP3    H2 3019   5.517   4.314   0.255
 1019TIP3   OH2 3020   3.371   5.359   2.124
 1019TIP3    H1 3021   3.277   5.345   2.114
 1019TIP3    H2 3022   3.392   5.320   2.209
 1020TIP3   OH2 3023   6.910   4.789   2.564
 1020TIP3    H1 3024   6.851   4.864   2.563
 1020TIP3    H2 3025   6.861   4.719   2.520
 1021TIP3   OH2 3026   0.342   1.560   2.147
 1021TIP3    H1 3027   0.398   1.501   2.197
 1021TIP3    H2 3028   0.332   1.637   2.203
 1022TIP3   OH2 3029   4.848   0.264   3.865
 1022TIP3    H1 3030   4.859   0.182   3.912
 1022TIP3    H2 3031   4.912   0.323   3.906
 1023TIP3   OH2 3032   3.686   6.675   0.855
 1023TIP3    H1 3033   3.661   6.605   0.795
 1023TIP3    H2 3034   3.621   6.743   0.840
 1024TIP3   OH2 3035   6.884   3.371   2.481
 1024TIP3    H1 3036   6.901   3.300   2.543
 1024TIP3    H2 3037   6.926   3.343   2.400
 1025TIP3   OH2 3038   5.542   0.885   0.591
 1025TIP3    H1 3039   5.594   0.855   0.666
 1025TIP3    H2 3040   5.545   0.813   0.529
 1026TIP3   OH2 3041   3.535   3.985   1.185
 1026TIP3    H1 3042   3.440   3.990   1.178
 1026TIP3    H2 3043   3.567   3.994   1.095
 1027TIP3   OH2 3044   6.390   5.423   1.922
 1027TIP3    H1 3045   6.358   5.406   2.010
 1027TIP3    H2 3046   6.357   5.351   1.870
 1028TIP3   OH2 3047   7.148   0.527  -0.070
 1028TIP3    H1 3048   7.244   0.527  -0.076
 1028TIP3    H2 3049   7.129   0.580   0.007
 1029TIP3   OH2 3050   4.709   4.837   4.062
 1029TIP3    H1 3051   4.723   4.743   4.071
 1029TIP3    H2 3052   4.638   4.857   4.124
 1030TIP3   OH2 3053   2.810   2.370   3.221
 1030TIP3    H1 3054   2.873   2.370   3.148
 1030TIP3    H2 3055   2.836   2.445   3.274
 1031TIP3   OH2 3056   4.162   2.063   4.861
 1031TIP3    H1 3057   4.191   1.972   4.861
 1031TIP3    H2 3058   4.122   2.075   4.948
 1032TIP3   OH2 3059   5.003   1.611   0.724
 1032TIP3    H1 3060   5.094   1.582   0.713
 1032TIP3    H2 3061   4.975   1.635   0.636
 1033TIP3   OH2 3062   1.069   2.922   5.701
 1033TIP3    H1 3063   1.019   3.003   5.704
 1033TIP3    H2 3064   1.039   2.878   5.622
 1034TIP3   OH2 3065   6.199   5.524   0.649
 1034TIP3    H1 3066   6.251   5.457   0.694
 1034TIP3    H2 3067   6.148   5.566   0.718
 1035TIP3   OH2 3068   0.571   5.316   1.758
 1035TIP3    H1 3069   0.656   5.336   1.799
 1035TIP3    H2 3070   0.520   5.275   1.827
 1036TIP3   OH2 3071   1.643   2.390   4.684
 1036TIP3    H1 3072   1.632   2.483   4.703
 1036TIP3    H2 3073   1.592   2.377   4.604
 1037TIP3   OH2 3074   0.984   3.885   0.557
 1037TIP3    H1 3075   0.983   3.937   0.477
 1037TIP3    H2 3076   1.066   3.836   0.553
 1038TIP3   OH2 3077   5.005   3.929   4.466
 1038TIP3    H1 3078   4.979   3.983   4.540
 1038TIP3    H2 3079   5.059   3.986   4.412
 1039TIP3   OH2 3080   0.954   6.558   5.489
 1039TIP3    H1 3081   0.922   6.549   5.579
 1039TIP3    H2 3082   1.048   6.572   5.498
 1040TIP3   OH2 3083   0.700   5.384   5.699
 1040TIP3    H1 3084   0.676   5.356   5.787
 1040TIP3    H2 3085   0.765   5.453   5.713
 1041TIP3   OH2 3086   2.571   3.741   4.361
 1041TIP3    H1 3087   2.602   3.738   4.271
 1041TIP3    H2 3088   2.575   3.650   4.390
 1042TIP3   OH2 3089   4.587   6.128   5.167
 1042TIP3    H1 3090   4.644   6.053   5.153
 1042TIP3    H2 3091   4.521   6.098   5.230
 1043TIP3   OH2 3092   0.737   6.297   2.256
 1043TIP3    H1 3093   0.657   6.259   2.219
 1043TIP3    H2 3094   0.732   6.390   2.235
 1044TIP3   OH2 3095   6.092   0.742   5.565
 1044TIP3    H1 3096   6.144   0.695   5.500
 1044TIP3    H2 3097   6.035   0.799   5.514
 1045TIP3   OH2 3098   4.659   6.131   4.508
 1045TIP3    H1 3099   4.654   6.086   4.592
 1045TIP3    H2 3100   4.752   6.140   4.491
 1046TIP3   OH2 3101   4.282   0.185   4.648
 1046TIP3    H1 3102   4.281   0.265   4.596
 1046TIP3    H2 3103   4.208   0.195   4.708
 1047TIP3   OH2 3104   7.037   1.824   2.566
 1047TIP3    H1 3105   7.130   1.805   2.554
 1047TIP3    H2 3106   7.007   1.760   2.631
 1048TIP3   OH2 3107   3.857   4.716   4.662
 1048TIP3    H1 3108   3.848   4.753   4.575
 1048TIP3    H2 3109   3.882   4.791   4.717
 1049TIP3   OH2 3110   4.648   5.766   3.397
 1049TIP3    H1 3111   4.590   5.841   3.386
 1049TIP3    H2 3112   4.658   5.757   3.491
 1050TIP3   OH2 3113   3.505   2.984   1.014
 1050TIP3    H1 3114   3.468   2.982   0.926
 1050TIP3    H2 3115   3.475   2.903   1.055
 1051TIP3   OH2 3116   2.941   3.625   1.481
 1051TIP3    H1 3117   2.914   3.701   1.534
 1051TIP3    H2 3118   2.867   3.564   1.489
 1052TIP3   OH2 3119   4.613   2.191   2.854
 1052TIP3    H1 3120   4.595   2.284   2.869
 1052TIP3    H2 3121   4.594   2.148   2.937
 1053TIP3   OH2 3122   3.117   5.762   4.661
 1053TIP3    H1 3123   3.045   5.751   4.723
 1053TIP3    H2 3124   3.081   5.730   4.578
 1054TIP3   OH2 3125   5.421   6.796   0.761
 1054TIP3    H1 3126   5.512   6.767   0.768
 1054TIP3    H2 3127   5.409   6.819   0.669
 1055TIP3   OH2 3128   4.988   5.403   0.220
 1055TIP3    H1 3129   4.963   5.489   0.186
 1055TIP3    H2 3130   4.983   5.413   0.315
 1056TIP3   OH2 3131   2.723   1.504   3.932
 1056TIP3    H1 3132   2.706   1.469   4.019
 1056TIP3    H2 3133   2.813   1.476   3.912
 1057TIP3   OH2 3134   3.671   3.831   5.397
 1057TIP3    H1 3135   3.607   3.870   5.338
 1057TIP3    H2 3136   3.654   3.736   5.390
 1058TIP3   OH2 3137   5.800   1.068   0.131
 1058TIP3    H1 3138   5.878   1.111   0.167
 1058TIP3    H2 3139   5.773   1.007   0.200
 1059TIP3   OH2 3140   4.794   2.176   5.055
 1059TIP3    H1 3141   4.725   2.241   5.062
 1059TIP3    H2 3142   4.806   2.162   4.961
 1060TIP3   OH2 3143   1.854   5.265   2.634
 1060TIP3    H1 3144   1.822   5.200   2.571
 1060TIP3    H2 3145   1.914   5.319   2.584
 1061TIP3   OH2 3146   2.899   0.737   4.442
 1061TIP3    H1 3147   2.937   0.699   4.521
 1061TIP3    H2 3148   2.844   0.667   4.406
 1062TIP3   OH2 3149   5.216   4.659   1.195
 1062TIP3    H1 3150   5.298   4.616   1.171
 1062TIP3    H2 3151   5.151   4.624   1.134
 1063TIP3   OH2 3152   0.436   3.939   4.095
 1063TIP3    H1 3153   0.408   3.979   4.012
 1063TIP3    H2 3154   0.380   3.980   4.161
 1064TIP3   OH2 3155   1.864   2.600   0.362
 1064TIP3    H1 3156   1.957   2.607   0.339
 1064TIP3    H2 3157   1.834   2.690   0.370
 1065TIP3   OH2 3158   1.656   2.339   3.098
 1065TIP3    H1 3159   1.595   2.276   3.061
 1065TIP3    H2 3160   1.723   2.286   3.141
 1066TIP3   OH2 3161   1.580   4.934   2.002
 1066TIP3    H1 3162   1.535   5.015   2.024
 1066TIP3    H2 3163   1.552   4.914   1.913
 1067TIP3   OH2 3164   7.093   6.076   5.673
 1067TIP3    H1 3165   7.186   6.055   5.678
 1067TIP3    H2 3166   7.087   6.142   5.604
 1068TIP3   OH2 3167   0.438   4.804   1.720
 1068TIP3    H1 3168   0.522   4.849   1.713
 1068TIP3    H2 3169   0.460   4.711   1.722
 1069TIP3   OH2 3170   5.298   4.800   4.838
 1069TIP3    H1 3171   5.263   4.889   4.835
 1069TIP3    H2 3172   5.366   4.803   4.905
 1070TIP3   OH2 3173   5.808   1.538   0.562
 1070TIP3    H1 3174   5.881   1.494   0.518
 1070TIP3    H2 3175   5.790   1.615   0.509
 1071TIP3   OH2 3176   1.345   1.034   0.406
 1071TIP3    H1 3177   1.279   0.968   0.387
 1071TIP3    H2 3178   1.427   0.996   0.372
 1072TIP3   OH2 3179   2.498   1.305   5.244
 1072TIP3    H1 3180   2.422   1.362   5.243
 1072TIP3    H2 3181   2.480   1.240   5.176
 1073TIP3   OH2 3182   5.993   1.153   0.705
 1073TIP3    H1 3183   5.952   1.105   0.777
 1073TIP3    H2 3184   5.919   1.179   0.649
 1074TIP3   OH2 3185   5.894   2.319   5.811
 1074TIP3    H1 3186   5.806   2.286   5.797
 1074TIP3    H2 3187   5.919   2.359   5.728
 1075TIP3   OH2 3188   6.155   1.656   4.015
 1075TIP3    H1 3189   6.227   1.606   3.977
 1075TIP3    H2 3190   6.142   1.616   4.101
 1076TIP3   OH2 3191   6.304   2.303   0.897
 1076TIP3    H1 3192   6.384   2.337   0.857
 1076TIP3    H2 3193   6.234   2.355   0.857
 1077TIP3   OH2 3194   4.637   3.515   3.288
 1077TIP3    H1 3195   4.581   3.557   3.223
 1077TIP3    H2 3196   4.655   3.583   3.353
 1078TIP3   OH2 3197   4.376   2.201   0.772
 1078TIP3    H1 3198   4.436   2.196   0.697
 1078TIP3    H2 3199   4.427   2.166   0.845
 1079TIP3   OH2 3200   3.427   3.401   5.867
 1079TIP3    H1 3201   3.415   3.312   5.835
 1079TIP3    H2 3202   3.522   3.412   5.871
 1080TIP3   OH2 3203   5.248   3.987   1.033
 1080TIP3    H1 3204   5.279   3.924   0.968
 1080TIP3    H2 3205   5.157   4.004   1.009
 1081TIP3   OH2 3206   0.102   6.421   3.576
 1081TIP3    H1 3207   0.154   6.346   3.548
 1081TIP3    H2 3208   0.036   6.431   3.507
 1082TIP3   OH2 3209   3.508   5.890   2.603
 1082TIP3    H1 3210   3.468   5.972   2.634
 1082TIP3    H2 3211   3.523   5.905   2.509
 1083TIP3   OH2 3212   3.947   2.019   2.598
 1083TIP3    H1 3213   4.006   2.028   2.522
 1083TIP3    H2 3214   3.982   2.081   2.662
 1084TIP3   OH2 3215   4.488   4.818   1.326
 1084TIP3    H1 3216   4.421   4.869   1.372
 1084TIP3    H2 3217   4.527   4.879   1.264
 1085TIP3   OH2 3218   4.559   2.790   4.764
 1085TIP3    H1 3219   4.505   2.781   4.842
 1085TIP3    H2 3220   4.496   2.809   4.694
 1086TIP3   OH2 3221   6.585   0.047   3.311
 1086TIP3    H1 3222   6.649   0.098   3.359
 1086TIP3    H2 3223   6.624  -0.041   3.304
 1087TIP3   OH2 3224   7.105   3.120   0.125
 1087TIP3    H1 3225   7.061   3.204   0.121
 1087TIP3    H2 3226   7.049   3.061   0.074
 1088TIP3   OH2 3227   3.438   6.466   0.204
 1088TIP3    H1 3228   3.471   6.530   0.140
 1088TIP3    H2 3229   3.345   6.488   0.213
 1089TIP3   OH2 3230   2.070   0.624   1.907
 1089TIP3    H1 3231   2.081   0.542   1.860
 1089TIP3    H2 3232   2.007   0.605   1.976
 1090TIP3   OH2 3233   0.802   6.608   1.461
 1090TIP3    H1 3234   0.713   6.613   1.497
 1090TIP3    H2 3235   0.789   6.598   1.366
 1091TIP3   OH2 3236   1.137   2.077   2.020
 1091TIP3    H1 3237   1.147   2.159   2.068
 1091TIP3    H2 3238   1.060   2.092   1.965
 1092TIP3   OH2 3239   1.855   0.933   5.807
 1092TIP3    H1 3240   1.876   0.855   5.755
 1092TIP3    H2 3241   1.917   0.999   5.777
 1093TIP3   OH2 3242   5.349   5.433   2.387
 1093TIP3    H1 3243   5.287   5.485   2.335
 1093TIP3    H2 3244   5.311   5.345   2.388
 1094TIP3   OH2 3245   5.057   4.397   5.335
 1094TIP3    H1 3246   5.101   4.381   5.418
 1094TIP3    H2 3247   4.968   4.362   5.348
 1095TIP3   OH2 3248   5.530   0.811   2.375
 1095TIP3    H1 3249   5.539   0.906   2.376
 1095TIP3    H2 3250   5.604   0.780   2.323
 1096TIP3   OH2 3251   1.420   4.316   0.434
 1096TIP3    H1 3252   1.324   4.325   0.428
 1096TIP3    H2 3253   1.452   4.406   0.433
 1097TIP3   OH2 3254   5.483   5.729   0.100
 1097TIP3    H1 3255   5.402   5.678   0.106
 1097TIP3    H2 3256   5.542   5.688   0.163
 1098TIP3   OH2 3257   7.034   2.257   0.417
 1098TIP3    H1 3258   7.085   2.335   0.439
 1098TIP3    H2 3259   6.943   2.287   0.414
 1099TIP3   OH2 3260   4.529   1.679   0.648
 1099TIP3    H1 3261   4.466   1.728   0.701
 1099TIP3    H2 3262   4.597   1.742   0.626
 1100TIP3   OH2 3263   5.129   4.065   4.910
 1100TIP3    H1 3264   5.107   4.151   4.876
 1100TIP3    H2 3265   5.207   4.079   4.964
 1101TIP3   OH2 3266   5.491   2.327   2.608
 1101TIP3    H1 3267   5.410   2.342   2.559
 1101TIP3    H2 3268   5.527   2.247   2.569
 1102TIP3   OH2 3269   0.480   5.244   3.298
 1102TIP3    H1 3270   0.509   5.253   3.388
 1102TIP3    H2 3271   0.437   5.327   3.278
 1103TIP3   OH2 3272   4.130   3.853   3.411
 1103TIP3    H1 3273   4.139   3.947   3.428
 1103TIP3    H2 3274   4.160   3.842   3.321
 1104TIP3   OH2 3275   1.376   5.565   3.258
 1104TIP3    H1 3276   1.289   5.579   3.297
 1104TIP3    H2 3277   1.358   5.534   3.170
 1105TIP3   OH2 3278   2.224   4.621   1.674
 1105TIP3    H1 3279   2.195   4.587   1.759
 1105TIP3    H2 3280   2.308   4.663   1.692
 1106TIP3   OH2 3281   1.312   4.791   0.058
 1106TIP3    H1 3282   1.303   4.716   0.000
 1106TIP3    H2 3283   1.397   4.779   0.101
 1107TIP3   OH2 3284   0.029   6.082   3.104
 1107TIP3    H1 3285   0.059   6.137   3.177
 1107TIP3    H2 3286   0.079   6.113   3.029
 1108TIP3   OH2 3287   2.532   3.946   1.143
 1108TIP3    H1 3288   2.553   3.860   1.105
 1108TIP3    H2 3289   2.606   3.966   1.200
 1109TIP3   OH2 3290   2.629   5.187   0.356
 1109TIP3    H1 3291   2.717   5.172   0.320
 1109TIP3    H2 3292   2.593   5.258   0.304
 1110TIP3   OH2 3293   0.655   4.407   5.637
 1110TIP3    H1 3294   0.601   4.487   5.635
 1110TIP3    H2 3295   0.742   4.438   5.663
 1111TIP3   OH2 3296   2.100   6.616   1.676
 1111TIP3    H1 3297   2.138   6.631   1.589
 1111TIP3    H2 3298   2.172   6.578   1.726
 1112TIP3   OH2 3299   1.396   6.661   3.711
 1112TIP3    H1 3300   1.455   6.590   3.686
 1112TIP3    H2 3301   1.425   6.688   3.798
 1113TIP3   OH2 3302   4.436   5.601   5.823
 1113TIP3    H1 3303   4.404   5.584   5.734
 1113TIP3    H2 3304   4.375   5.553   5.879
 1114TIP3   OH2 3305   0.104   1.012   1.453
 1114TIP3    H1 3306   0.145   1.096   1.435
 1114TIP3    H2 3307   0.014   1.034   1.478
 1115TIP3   OH2 3308   5.713   5.845   1.447
 1115TIP3    H1 3309   5.655   5.769   1.445
 1115TIP3    H2 3310   5.654   5.920   1.436
 1116TIP3   OH2 3311   4.228   1.453   5.279
 1116TIP3    H1 3312   4.234   1.475   5.372
 1116TIP3    H2 3313   4.307   1.402   5.261
 1117TIP3   OH2 3314   1.976   4.408   2.851
 1117TIP3    H1 3315   1.995   4.501   2.835
 1117TIP3    H2 3316   1.890   4.394   2.812
 1118TIP3   OH2 3317   2.691   1.764   4.556
 1118TIP3    H1 3318   2.654   1.716   4.482
 1118TIP3    H2 3319   2.716   1.849   4.520
 1119TIP3   OH2 3320   5.120   4.833   0.475
 1119TIP3    H1 3321   5.039   4.878   0.451
 1119TIP3    H2 3322   5.176   4.841   0.397
 1120TIP3   OH2 3323   1.158   2.099   0.673
 1120TIP3    H1 3324   1.124   2.043   0.743
 1120TIP3    H2 3325   1.124   2.062   0.592
 1121TIP3   OH2 3326   2.318   5.011   3.116
 1121TIP3    H1 3327   2.332   4.985   3.207
 1121TIP3    H2 3328   2.323   5.107   3.116
 1122TIP3   OH2 3329   4.465   2.216   4.454
 1122TIP3    H1 3330   4.423   2.244   4.373
 1122TIP3    H2 3331   4.400   2.232   4.522
 1123TIP3   OH2 3332   1.663   3.544   2.737
 1123TIP3    H1 3333   1.707   3.551   2.822
 1123TIP3    H2 3334   1.576   3.580   2.752
 1124TIP3   OH2 3335   6.408   4.805   5.465
 1124TIP3    H1 3336   6.484   4.846   5.506
 1124TIP3    H2 3337   6.444   4.729   5.419
 1125TIP3   OH2 3338   3.725   5.834   0.206
 1125TIP3    H1 3339   3.667   5.887   0.151
 1125TIP3    H2 3340   3.666   5.792   0.269
 1126TIP3   OH2 3341   1.281   6.231   5.410
 1126TIP3    H1 3342   1.223   6.155   5.400
 1126TIP3    H2 3343   1.359   6.208   5.359
 1127TIP3   OH2 3344   0.346   2.194   1.920
 1127TIP3    H1 3345   0.327   2.114   1.969
 1127TIP3    H2 3346   0.356   2.261   1.988
 1128TIP3   OH2 3347   3.757   4.599   2.187
 1128TIP3    H1 3348   3.734   4.557   2.104
 1128TIP3    H2 3349   3.672   4.619   2.228
 1129TIP3   OH2 3350   3.907   1.812   4.949
 1129TIP3    H1 3351   3.899   1.878   4.880
 1129TIP3    H2 3352   3.817   1.790   4.973
 1130TIP3   OH2 3353   6.778   2.822   2.578
 1130TIP3    H1 3354   6.783   2.862   2.665
 1130TIP3    H2 3355   6.836   2.874   2.524
 1131TIP3   OH2 3356   4.661   6.238   2.360
 1131TIP3    H1 3357   4.712   6.157   2.360
 1131TIP3    H2 3358   4.704   6.293   2.294
 1132TIP3   OH2 3359   5.518   2.240   1.196
 1132TIP3    H1 3360   5.488   2.200   1.278
 1132TIP3    H2 3361   5.554   2.324   1.223
 1133TIP3   OH2 3362   2.262   3.706   4.332
 1133TIP3    H1 3363   2.328   3.775   4.337
 1133TIP3    H2 3364   2.195   3.732   4.396
 1134TIP3   OH2 3365   4.902   6.772   2.503
 1134TIP3    H1 3366   4.888   6.791   2.410
 1134TIP3    H2 3367   4.997   6.766   2.511
 1135TIP3   OH2 3368   0.952   2.025   0.098
 1135TIP3    H1 3369   0.977   1.935   0.116
 1135TIP3    H2 3370   1.033   2.066   0.066
 1136TIP3   OH2 3371   1.409   4.568   4.517
 1136TIP3    H1 3372   1.455   4.649   4.541
 1136TIP3    H2 3373   1.469   4.525   4.456
 1137TIP3   OH2 3374   6.503   3.781   2.561
 1137TIP3    H1 3375   6.518   3.689   2.583
 1137TIP3    H2 3376   6.522   3.788   2.468
 1138TIP3   OH2 3377   0.917   2.246   2.796
 1138TIP3    H1 3378   0.954   2.158   2.804
 1138TIP3    H2 3379   0.870   2.259   2.879
 1139TIP3   OH2 3380   6.370   3.030   1.142
 1139TIP3    H1 3381   6.295   2.985   1.103
 1139TIP3    H2 3382   6.420   2.961   1.185
 1140TIP3   OH2 3383   2.825   6.316   4.919
 1140TIP3    H1 3384   2.812   6.241   4.978
 1140TIP3    H2 3385   2.894   6.367   4.960
 1141TIP3   OH2 3386   3.270   0.541   5.852
 1141TIP3    H1 3387   3.326   0.596   5.906
 1141TIP3    H2 3388   3.331   0.499   5.790
 1142TIP3   OH2 3389   0.700   0.147   1.236
 1142TIP3    H1 3390   0.771   0.113   1.181
 1142TIP3    H2 3391   0.713   0.242   1.235
 1143TIP3   OH2 3392   3.934   0.153   0.375
 1143TIP3    H1 3393   3.932   0.086   0.442
 1143TIP3    H2 3394   4.014   0.202   0.393
 1144TIP3   OH2 3395   1.155   6.585   2.481
 1144TIP3    H1 3396   1.118   6.625   2.559
 1144TIP3    H2 3397   1.120   6.636   2.408
 1145TIP3   OH2 3398   3.110   5.144   1.570
 1145TIP3    H1 3399   3.058   5.200   1.512
 1145TIP3    H2 3400   3.201   5.163   1.547
 1146TIP3   OH2 3401   2.230   4.303   1.070
 1146TIP3    H1 3402   2.262   4.240   1.006
 1146TIP3    H2 3403   2.269   4.275   1.153
 1147TIP3   OH2 3404   5.723   0.252   3.573
 1147TIP3    H1 3405   5.655   0.304   3.530
 1147TIP3    H2 3406   5.706   0.263   3.666
 1148TIP3   OH2 3407   2.965   3.567   5.786
 1148TIP3    H1 3408   3.050   3.602   5.813
 1148TIP3    H2 3409   2.987   3.489   5.735
 1149TIP3   OH2 3410   6.406   6.608   3.353
 1149TIP3    H1 3411   6.439   6.552   3.283
 1149TIP3    H2 3412   6.319   6.634   3.323
 1150TIP3   OH2 3413   1.283   0.979   4.735
 1150TIP3    H1 3414   1.294   1.073   4.746
 1150TIP3    H2 3415   1.207   0.970   4.678
 1151TIP3   OH2 3416   3.811   1.884   3.274
 1151TIP3    H1 3417   3.866   1.930   3.210
 1151TIP3    H2 3418   3.830   1.791   3.260
 1152TIP3   OH2 3419   2.122   6.771   1.423
 1152TIP3    H1 3420   2.061   6.726   1.365
 1152TIP3    H2 3421   2.209   6.745   1.392
 1153TIP3   OH2 3422   3.716   5.958   4.532
 1153TIP3    H1 3423   3.682   6.027   4.475
 1153TIP3    H2 3424   3.668   5.879   4.506
 1154TIP3   OH2 3425   6.397   0.305   4.369
 1154TIP3    H1 3426   6.372   0.212   4.365
 1154TIP3    H2 3427   6.402   0.332   4.277
 1155TIP3   OH2 3428   7.168   3.958   5.248
 1155TIP3    H1 3429   7.100   3.950   5.315
 1155TIP3    H2 3430   7.149   4.042   5.205
 1156TIP3   OH2 3431   3.844   1.596   3.287
 1156TIP3    H1 3432   3.764   1.579   3.337
 1156TIP3    H2 3433   3.909   1.536   3.325
 1157TIP3   OH2 3434   6.989   0.150   0.572
 1157TIP3    H1 3435   6.976   0.230   0.623
 1157TIP3    H2 3436   6.931   0.160   0.496
 1158TIP3   OH2 3437   1.302   6.619   3.089
 1158TIP3    H1 3438   1.397   6.615   3.089
 1158TIP3    H2 3439   1.274   6.528   3.103
 1159TIP3   OH2 3440   6.243   2.489   4.154
 1159TIP3    H1 3441   6.199   2.573   4.172
 1159TIP3    H2 3442   6.326   2.514   4.113
 1160TIP3   OH2 3443   6.694   1.607   5.768
 1160TIP3    H1 3444   6.695   1.516   5.798
 1160TIP3    H2 3445   6.688   1.601   5.673
 1161TIP3   OH2 3446   5.261   4.593   0.094
 1161TIP3    H1 3447   5.254   4.506   0.131
 1161TIP3    H2 3448   5.336   4.589   0.035
 1162TIP3   OH2 3449   3.636   3.121   4.104
 1162TIP3    H1 3450   3.654   3.161   4.019
 1162TIP3    H2 3451   3.542   3.134   4.117
 1163TIP3   OH2 3452   2.308   6.527   5.688
 1163TIP3    H1 3453   2.257   6.604   5.713
 1163TIP3    H2 3454   2.303   6.469   5.764
 1164TIP3   OH2 3455   3.732   0.397   5.707
 1164TIP3    H1 3456   3.820   0.369   5.735
 1164TIP3    H2 3457   3.731   0.380   5.613
 1165TIP3   OH2 3458   6.438   0.814   0.910
 1165TIP3    H1 3459   6.445   0.902   0.947
 1165TIP3    H2 3460   6.437   0.828   0.815
 1166TIP3   OH2 3461   5.875   3.487   0.216
 1166TIP3    H1 3462   5.808   3.472   0.283
 1166TIP3    H2 3463   5.886   3.582   0.214
 1167TIP3   OH2 3464   0.088   6.553   2.525
 1167TIP3    H1 3465   0.162   6.585   2.577
 1167TIP3    H2 3466   0.011   6.578   2.575
 1168TIP3   OH2 3467   1.772   0.489   5.496
 1168TIP3    H1 3468   1.844   0.548   5.473
 1168TIP3    H2 3469   1.696   0.527   5.452
 1169TIP3   OH2 3470   6.904   4.217   2.246
 1169TIP3    H1 3471   6.993   4.185   2.257
 1169TIP3    H2 3472   6.906   4.307   2.278
 1170TIP3   OH2 3473   1.051   6.562   0.768
 1170TIP3    H1 3474   1.077   6.619   0.840
 1170TIP3    H2 3475   0.956   6.556   0.774
 1171TIP3   OH2 3476   1.407   1.447   2.207
 1171TIP3    H1 3477   1.429   1.478   2.295
 1171TIP3    H2 3478   1.379   1.356   2.220
 1172TIP3   OH2 3479   5.003   6.205   1.041
 1172TIP3    H1 3480   4.914   6.171   1.044
 1172TIP3    H2 3481   5.017   6.227   0.949
 1173TIP3   OH2 3482   6.269   3.736   5.403
 1173TIP3    H1 3483   6.299   3.758   5.491
 1173TIP3    H2 3484   6.174   3.751   5.405
 1174TIP3   OH2 3485   0.058   4.641   1.202
 1174TIP3    H1 3486   0.075   4.734   1.187
 1174TIP3    H2 3487   0.145   4.600   1.196
 1175TIP3   OH2 3488   2.381   5.686   5.625
 1175TIP3    H1 3489   2.411   5.602   5.590
 1175TIP3    H2 3490   2.289   5.691   5.600
 1176TIP3   OH2 3491   0.866   6.073   5.209
 1176TIP3    H1 3492   0.904   6.066   5.121
 1176TIP3    H2 3493   0.885   6.162   5.236
 1177TIP3   OH2 3494   7.154   3.944   0.334
 1177TIP3    H1 3495   7.076   3.992   0.307
 1177TIP3    H2 3496   7.188   3.993   0.408
 1178TIP3   OH2 3497   0.741   3.320   0.473
 1178TIP3    H1 3498   0.734   3.277   0.558
 1178TIP3    H2 3499   0.709   3.409   0.488
 1179TIP3   OH2 3500   3.371   4.072   3.728
 1179TIP3    H1 3501   3.391   4.082   3.821
 1179TIP3    H2 3502   3.453   4.044   3.688
 1180TIP3   OH2 3503   1.087   3.348   3.924
 1180TIP3    H1 3504   1.003   3.322   3.886
 1180TIP3    H2 3505   1.101   3.437   3.890
 1181TIP3   OH2 3506   4.718   0.832   3.630
 1181TIP3    H1 3507   4.775   0.828   3.553
 1181TIP3    H2 3508   4.699   0.925   3.641
 1182TIP3   OH2 3509   2.067   6.338   5.385
 1182TIP3    H1 3510   2.074   6.288   5.466
 1182TIP3    H2 3511   2.029   6.277   5.322
 1183TIP3   OH2 3512   5.727   3.536   1.467
 1183TIP3    H1 3513   5.816   3.570   1.461
 1183TIP3    H2 3514   5.722   3.497   1.554
 1184TIP3   OH2 3515   6.068   4.138   5.389
 1184TIP3    H1 3516   6.077   4.140   5.294
 1184TIP3    H2 3517   6.104   4.053   5.415
 1185TIP3   OH2 3518   0.962   5.108   2.214
 1185TIP3    H1 3519   0.952   5.092   2.308
 1185TIP3    H2 3520   0.888   5.062   2.174
 1186TIP3   OH2 3521   2.541   5.334   4.907
 1186TIP3    H1 3522   2.533   5.259   4.849
 1186TIP3    H2 3523   2.628   5.370   4.888
 1187TIP3   OH2 3524   1.846   4.362   4.499
 1187TIP3    H1 3525   1.792   4.421   4.447
 1187TIP3    H2 3526   1.922   4.414   4.524
 1188TIP3   OH2 3527   1.084   5.584   1.994
 1188TIP3    H1 3528   1.008   5.577   2.051
 1188TIP3    H2 3529   1.159   5.582   2.053
 1189TIP3   OH2 3530   0.913   1.017   3.495
 1189TIP3    H1 3531   0.989   1.072   3.474
 1189TIP3    H2 3532   0.945   0.927   3.483
 1190TIP3   OH2 3533   4.265   1.323   1.568
 1190TIP3    H1 3534   4.218   1.239   1.561
 1190TIP3    H2 3535   4.290   1.344   1.479
 1191TIP3   OH2 3536   3.575   4.381   3.637
 1191TIP3    H1 3537   3.606   4.297   3.605
 1191TIP3    H2 3538   3.486   4.389   3.601
 1192TIP3   OH2 3539   4.001   3.402   0.938
 1192TIP3    H1 3540   4.016   3.468   1.006
 1192TIP3    H2 3541   3.999   3.452   0.856
 1193TIP3   OH2 3542   0.262   5.108   0.823
 1193TIP3    H1 3543   0.268   5.060   0.906
 1193TIP3    H2 3544   0.234   5.043   0.759
 1194TIP3   OH2 3545   0.558   4.712   2.535
 1194TIP3    H1 3546   0.508   4.771   2.479
 1194TIP3    H2 3547   0.640   4.758   2.551
 1195TIP3   OH2 3548   1.155   3.764   4.633
 1195TIP3    H1 3549   1.194   3.727   4.712
 1195TIP3    H2 3550   1.225   3.758   4.567
 1196TIP3   OH2 3551   6.429   0.636   2.652
 1196TIP3    H1 3552   6.523   0.644   2.667
 1196TIP3    H2 3553   6.411   0.542   2.661
 1197TIP3   OH2 3554   5.610   5.459   4.485
 1197TIP3    H1 3555   5.705   5.462   4.471
 1197TIP3    H2 3556   5.580   5.390   4.425
 1198TIP3   OH2 3557   1.560   1.578   1.386
 1198TIP3    H1 3558   1.602   1.553   1.468
 1198TIP3    H2 3559   1.630   1.575   1.320
 1199TIP3   OH2 3560   4.513   4.957   5.329
 1199TIP3    H1 3561   4.553   4.900   5.395
 1199TIP3    H2 3562   4.463   5.021   5.380
 1200TIP3   OH2 3563   4.306   2.623   5.627
 1200TIP3    H1 3564   4.373   2.630   5.694
 1200TIP3    H2 3565   4.266   2.710   5.624
 1201TIP3   OH2 3566   1.460   4.967   3.540
 1201TIP3    H1 3567   1.529   4.970   3.607
 1201TIP3    H2 3568   1.418   4.882   3.555
 1202TIP3   OH2 3569   3.397   5.027   5.797
 1202TIP3    H1 3570   3.417   5.086   5.869
 1202TIP3    H2 3571   3.363   4.947   5.839
 1203TIP3   OH2 3572   3.854   1.118   2.041
 1203TIP3    H1 3573   3.892   1.202   2.068
 1203TIP3    H2 3574   3.760   1.129   2.052
 1204TIP3   OH2 3575   1.834   1.880   4.007
 1204TIP3    H1 3576   1.926   1.855   4.005
 1204TIP3    H2 3577   1.787   1.801   3.981
 1205TIP3   OH2 3578   5.454   3.686   0.548
 1205TIP3    H1 3579   5.530   3.674   0.492
 1205TIP3    H2 3580   5.473   3.633   0.626
 1206TIP3   OH2 3581   2.565   2.246   2.182
 1206TIP3    H1 3582   2.540   2.339   2.184
 1206TIP3    H2 3583   2.560   2.222   2.090
 1207TIP3   OH2 3584   3.178   1.135   3.060
 1207TIP3    H1 3585   3.137   1.181   2.987
 1207TIP3    H2 3586   3.220   1.204   3.111
 1208TIP3   OH2 3587   0.480   5.946   3.049
 1208TIP3    H1 3588   0.552   6.009   3.041
 1208TIP3    H2 3589   0.465   5.915   2.960
 1209TIP3   OH2 3590   3.059   5.077   4.155
 1209TIP3    H1 3591   3.051   5.136   4.230
 1209TIP3    H2 3592   3.084   4.993   4.194
 1210TIP3   OH2 3593   3.755   4.644   5.802
 1210TIP3    H1 3594   3.844   4.611   5.815
 1210TIP3    H2 3595   3.742   4.639   5.707
 1211TIP3   OH2 3596   5.059   6.530   0.141
 1211TIP3    H1 3597   5.090   6.487   0.061
 1211TIP3    H2 3598   5.032   6.459   0.198
 1212TIP3   OH2 3599   2.871   1.607   2.309
 1212TIP3    H1 3600   2.842   1.633   2.397
 1212TIP3    H2 3601   2.853   1.513   2.306
 1213TIP3   OH2 3602   3.003   6.755   1.459
 1213TIP3    H1 3603   3.018   6.730   1.368
 1213TIP3    H2 3604   3.075   6.814   1.481
 1214TIP3   OH2 3605   6.243   1.819   4.607
 1214TIP3    H1 3606   6.205   1.898   4.567
 1214TIP3    H2 3607   6.266   1.764   4.532
 1215TIP3   OH2 3608   5.985   4.621   4.026
 1215TIP3    H1 3609   6.022   4.578   3.949
 1215TIP3    H2 3610   5.958   4.707   3.995
 1216TIP3   OH2 3611   3.166   4.021   1.046
 1216TIP3    H1 3612   3.238   4.017   0.982
 1216TIP3    H2 3613   3.136   3.930   1.054
 1217TIP3   OH2 3614   4.449   3.475   5.692
 1217TIP3    H1 3615   4.539   3.495   5.668
 1217TIP3    H2 3616   4.426   3.399   5.638
 1218TIP3   OH2 3617   4.070   1.607   0.124
 1218TIP3    H1 3618   4.093   1.652   0.205
 1218TIP3    H2 3619   3.974   1.608   0.121
 1219TIP3   OH2 3620   6.169   5.571   5.753
 1219TIP3    H1 3621   6.150   5.647   5.699
 1219TIP3    H2 3622   6.253   5.539   5.721
 1220TIP3   OH2 3623   4.678   0.510   5.764
 1220TIP3    H1 3624   4.729   0.509   5.683
 1220TIP3    H2 3625   4.708   0.433   5.813
 1221TIP3   OH2 3626   4.962   3.185   2.974
 1221TIP3    H1 3627   5.025   3.249   2.940
 1221TIP3    H2 3628   4.894   3.180   2.908
 1222TIP3   OH2 3629   1.842   6.660   1.742
 1222TIP3    H1 3630   1.819   6.689   1.653
 1222TIP3    H2 3631   1.937   6.646   1.738
 1223TIP3   OH2 3632   4.493   1.380   4.435
 1223TIP3    H1 3633   4.433   1.449   4.408
 1223TIP3    H2 3634   4.484   1.375   4.530
 1224TIP3   OH2 3635  -0.002   6.233   2.508
 1224TIP3    H1 3636   0.053   6.310   2.522
 1224TIP3    H2 3637  -0.070   6.263   2.448
 1225TIP3   OH2 3638   4.046   1.407   4.871
 1225TIP3    H1 3639   3.984   1.467   4.830
 1225TIP3    H2 3640   4.017   1.402   4.962
 1226TIP3   OH2 3641   0.927   1.077   2.084
 1226TIP3    H1 3642   0.919   1.080   1.989
 1226TIP3    H2 3643   0.849   1.122   2.116
 1227TIP3   OH2 3644   2.579   1.198   5.828
 1227TIP3    H1 3645   2.649   1.181   5.765
 1227TIP3    H2 3646   2.623   1.213   5.911
 1228TIP3   OH2 3647   0.882   6.343   4.369
 1228TIP3    H1 3648   0.831   6.271   4.406
 1228TIP3    H2 3649   0.958   6.351   4.426
 1229TIP3   OH2 3650   1.446   5.192   2.316
 1229TIP3    H1 3651   1.524   5.239   2.343
 1229TIP3    H2 3652   1.380   5.214   2.382
 1230TIP3   OH2 3653   4.164   1.135   4.185
 1230TIP3    H1 3654   4.099   1.080   4.228
 1230TIP3    H2 3655   4.137   1.138   4.094
 1231TIP3   OH2 3656   5.986   0.788   2.747
 1231TIP3    H1 3657   5.953   0.713   2.797
 1231TIP3    H2 3658   6.076   0.800   2.779
 1232TIP3   OH2 3659   5.174   6.016   4.813
 1232TIP3    H1 3660   5.206   6.074   4.882
 1232TIP3    H2 3661   5.212   6.052   4.733
 1233TIP3   OH2 3662   3.354   3.442   2.958
 1233TIP3    H1 3663   3.327   3.371   2.899
 1233TIP3    H2 3664   3.379   3.514   2.899
 1234TIP3   OH2 3665   6.586   5.488   0.633
 1234TIP3    H1 3666   6.571   5.424   0.703
 1234TIP3    H2 3667   6.603   5.434   0.555
 1235TIP3   OH2 3668   2.972   6.606   2.107
 1235TIP3    H1 3669   2.890   6.558   2.107
 1235TIP3    H2 3670   2.955   6.682   2.163
 1236TIP3   OH2 3671   2.105   4.059   2.311
 1236TIP3    H1 3672   2.091   4.027   2.222
 1236TIP3    H2 3673   2.199   4.078   2.315
 1237TIP3   OH2 3674   6.203   2.645   2.224
 1237TIP3    H1 3675   6.284   2.614   2.264
 1237TIP3    H2 3676   6.206   2.740   2.233
 1238TIP3   OH2 3677   3.882   6.286   3.812
 1238TIP3    H1 3678   3.967   6.327   3.795
 1238TIP3    H2 3679   3.873   6.289   3.907
 1239TIP3   OH2 3680   0.691   3.433   1.923
 1239TIP3    H1 3681   0.680   3.359   1.983
 1239TIP3    H2 3682   0.735   3.500   1.976
 1240TIP3   OH2 3683   4.453   5.955   3.312
 1240TIP3    H1 3684   4.372   5.975   3.265
 1240TIP3    H2 3685   4.522   5.994   3.258
 1241TIP3   OH2 3686   0.969   0.510   0.936
 1241TIP3    H1 3687   0.920   0.429   0.919
 1241TIP3    H2 3688   1.030   0.517   0.863
 1242TIP3   OH2 3689   5.057   0.474   5.060
 1242TIP3    H1 3690   5.018   0.411   5.121
 1242TIP3    H2 3691   5.114   0.528   5.114
 1243TIP3   OH2 3692   1.109   3.073   5.042
 1243TIP3    H1 3693   1.037   3.095   4.983
 1243TIP3    H2 3694   1.076   3.092   5.130
 1244TIP3   OH2 3695   0.841   3.212   2.614
 1244TIP3    H1 3696   0.836   3.128   2.658
 1244TIP3    H2 3697   0.762   3.259   2.643
 1245TIP3   OH2 3698   4.902   6.150   2.925
 1245TIP3    H1 3699   4.909   6.179   3.016
 1245TIP3    H2 3700   4.857   6.066   2.931
 1246TIP3   OH2 3701   5.154   5.760   5.715
 1246TIP3    H1 3702   5.221   5.789   5.777
 1246TIP3    H2 3703   5.072   5.775   5.761
 1247TIP3   OH2 3704   3.874   6.333   4.107
 1247TIP3    H1 3705   3.963   6.362   4.128
 1247TIP3    H2 3706   3.819   6.408   4.128
 1248TIP3   OH2 3707   4.470   1.241   3.299
 1248TIP3    H1 3708   4.472   1.336   3.310
 1248TIP3    H2 3709   4.537   1.223   3.234
 1249TIP3   OH2 3710   5.021   1.678   0.393
 1249TIP3    H1 3711   5.082   1.607   0.373
 1249TIP3    H2 3712   5.070   1.736   0.451
 1250TIP3   OH2 3713   5.928   0.133   2.895
 1250TIP3    H1 3714   5.909   0.128   2.801
 1250TIP3    H2 3715   5.874   0.206   2.926
 1251TIP3   OH2 3716   5.642   6.728   0.529
 1251TIP3    H1 3717   5.553   6.760   0.513
 1251TIP3    H2 3718   5.640   6.696   0.619
 1252TIP3   OH2 3719   3.882   3.661   1.360
 1252TIP3    H1 3720   3.905   3.585   1.414
 1252TIP3    H2 3721   3.786   3.662   1.359
 1253TIP3   OH2 3722   7.006   2.532   0.358
 1253TIP3    H1 3723   7.069   2.501   0.293
 1253TIP3    H2 3724   6.924   2.541   0.309
 1254TIP3   OH2 3725   0.510   4.583   0.720
 1254TIP3    H1 3726   0.438   4.645   0.733
 1254TIP3    H2 3727   0.514   4.569   0.626
 1255TIP3   OH2 3728   4.542   5.820   5.452
 1255TIP3    H1 3729   4.491   5.890   5.411
 1255TIP3    H2 3730   4.514   5.820   5.543
 1256TIP3   OH2 3731   1.147   0.269   3.961
 1256TIP3    H1 3732   1.081   0.301   4.023
 1256TIP3    H2 3733   1.115   0.298   3.875
 1257TIP3   OH2 3734   5.544   1.455   0.931
 1257TIP3    H1 3735   5.632   1.491   0.937
 1257TIP3    H2 3736   5.545   1.399   0.854
 1258TIP3   OH2 3737   1.395   1.442   2.588
 1258TIP3    H1 3738   1.419   1.499   2.662
 1258TIP3    H2 3739   1.442   1.479   2.513
 1259TIP3   OH2 3740   5.148   2.750   5.392
 1259TIP3    H1 3741   5.121   2.693   5.320
 1259TIP3    H2 3742   5.082   2.736   5.459
 1260TIP3   OH2 3743   7.192   2.905   4.008
 1260TIP3    H1 3744   7.165   2.914   4.099
 1260TIP3    H2 3745   7.287   2.893   4.013
 1261TIP3   OH2 3746   3.321   2.937   2.845
 1261TIP3    H1 3747   3.294   2.850   2.876
 1261TIP3    H2 3748   3.263   2.998   2.891
 1262TIP3   OH2 3749   3.347   2.805   1.405
 1262TIP3    H1 3750   3.338   2.711   1.388
 1262TIP3    H2 3751   3.440   2.823   1.389
 1263TIP3   OH2 3752   0.826   4.682   1.005
 1263TIP3    H1 3753   0.894   4.733   0.961
 1263TIP3    H2 3754   0.747   4.699   0.955
 1264TIP3   OH2 3755   1.673  -0.028   5.446
 1264TIP3    H1 3756   1.660   0.053   5.496
 1264TIP3    H2 3757   1.732  -0.003   5.375
 1265TIP3   OH2 3758   5.232   3.975   4.257
 1265TIP3    H1 3759   5.207   3.901   4.202
 1265TIP3    H2 3760   5.251   4.046   4.196
 1266TIP3   OH2 3761   3.704   0.344   0.287
 1266TIP3    H1 3762   3.637   0.336   0.354
 1266TIP3    H2 3763   3.759   0.266   0.298
 1267TIP3   OH2 3764   1.768   5.214   3.105
 1267TIP3    H1 3765   1.860   5.187   3.100
 1267TIP3    H2 3766   1.735   5.200   3.016
 1268TIP3   OH2 3767   2.180   5.825   0.032
 1268TIP3    H1 3768   2.115   5.814  -0.037
 1268TIP3    H2 3769   2.244   5.887  -0.005
 1269TIP3   OH2 3770   2.388   4.114   2.903
 1269TIP3    H1 3771   2.401   4.043   2.965
 1269TIP3    H2 3772   2.296   4.140   2.915
 1270TIP3   OH2 3773   6.430   2.030   0.794
 1270TIP3    H1 3774   6.503   2.000   0.848
 1270TIP3    H2 3775   6.456   2.118   0.766
 1271TIP3   OH2 3776   0.049   3.591   5.657
 1271TIP3    H1 3777  -0.009   3.666   5.667
 1271TIP3    H2 3778   0.035   3.561   5.567
 1272TIP3   OH2 3779   4.404   4.303   5.472
 1272TIP3    H1 3780   4.339   4.279   5.406
 1272TIP3    H2 3781   4.396   4.398   5.480
 1273TIP3   OH2 3782   2.181   5.318   2.454
 1273TIP3    H1 3783   2.258   5.345   2.504
 1273TIP3    H2 3784   2.191   5.223   2.445
 1274TIP3   OH2 3785   0.088   2.258   3.650
 1274TIP3    H1 3786   0.155   2.192   3.669
 1274TIP3    H2 3787   0.009   2.226   3.693
 1275TIP3   OH2 3788   3.420   5.601   2.595
 1275TIP3    H1 3789   3.360   5.589   2.668
 1275TIP3    H2 3790   3.459   5.687   2.610
 1276TIP3   OH2 3791   4.118   2.911   5.032
 1276TIP3    H1 3792   4.094   2.937   5.121
 1276TIP3    H2 3793   4.074   2.975   4.976
 1277TIP3   OH2 3794   1.560   4.972   1.711
 1277TIP3    H1 3795   1.634   4.970   1.650
 1277TIP3    H2 3796   1.531   5.063   1.712
 1278TIP3   OH2 3797   4.918   4.225   1.884
 1278TIP3    H1 3798   4.891   4.149   1.833
 1278TIP3    H2 3799   4.981   4.271   1.829
 1279TIP3   OH2 3800   0.478   4.659   4.646
 1279TIP3    H1 3801   0.417   4.733   4.637
 1279TIP3    H2 3802   0.460   4.604   4.570
 1280TIP3   OH2 3803   2.534   4.755   3.901
 1280TIP3    H1 3804   2.589   4.761   3.823
 1280TIP3    H2 3805   2.475   4.830   3.895
 1281TIP3   OH2 3806   4.490   2.613   1.885
 1281TIP3    H1 3807   4.531   2.527   1.897
 1281TIP3    H2 3808   4.397   2.593   1.872
 1282TIP3   OH2 3809   3.349   4.991   1.783
 1282TIP3    H1 3810   3.361   5.058   1.717
 1282TIP3    H2 3811   3.362   5.037   1.866
 1283TIP3   OH2 3812   6.403   1.468   0.801
 1283TIP3    H1 3813   6.452   1.504   0.874
 1283TIP3    H2 3814   6.433   1.517   0.724
 1284TIP3   OH2 3815   3.571   3.164   2.787
 1284TIP3    H1 3816   3.487   3.137   2.750
 1284TIP3    H2 3817   3.632   3.158   2.714
 1285TIP3   OH2 3818   6.997   4.554   5.703
 1285TIP3    H1 3819   7.016   4.607   5.625
 1285TIP3    H2 3820   7.083   4.529   5.736
 1286TIP3   OH2 3821   5.141   4.939   2.831
 1286TIP3    H1 3822   5.193   4.901   2.760
 1286TIP3    H2 3823   5.053   4.948   2.795
 1287TIP3   OH2 3824   0.872   4.962   3.384
 1287TIP3    H1 3825   0.860   5.031   3.449
 1287TIP3    H2 3826   0.937   4.997   3.323
 1288TIP3   OH2 3827   5.090   2.982   3.505
 1288TIP3    H1 3828   5.140   3.052   3.549
 1288TIP3    H2 3829   5.157   2.930   3.461
 1289TIP3   OH2 3830   3.077   2.953   1.937
 1289TIP3    H1 3831   3.025   2.962   2.017
 1289TIP3    H2 3832   3.019   2.982   1.867
 1290TIP3   OH2 3833   4.558   6.237   4.275
 1290TIP3    H1 3834   4.583   6.196   4.359
 1290TIP3    H2 3835   4.500   6.309   4.300
 1291TIP3   OH2 3836   1.056   5.695   4.950
 1291TIP3    H1 3837   1.003   5.702   5.030
 1291TIP3    H2 3838   1.088   5.605   4.952
 1292TIP3   OH2 3839   7.032   5.599   3.275
 1292TIP3    H1 3840   7.117   5.599   3.232
 1292TIP3    H2 3841   7.015   5.690   3.298
 1293TIP3   OH2 3842   0.877   6.746   2.370
 1293TIP3    H1 3843   0.960   6.775   2.407
 1293TIP3    H2 3844   0.845   6.821   2.321
 1294TIP3   OH2 3845   6.283   4.942   5.243
 1294TIP3    H1 3846   6.273   4.871   5.180
 1294TIP3    H2 3847   6.317   4.900   5.322
 1295TIP3   OH2 3848   2.643   2.646   4.751
 1295TIP3    H1 3849   2.652   2.736   4.719
 1295TIP3    H2 3850   2.587   2.603   4.686
 1296TIP3   OH2 3851   0.942   6.115   0.198
 1296TIP3    H1 3852   0.933   6.173   0.122
 1296TIP3    H2 3853   1.006   6.158   0.254
 1297TIP3   OH2 3854   5.644   3.166   0.344
 1297TIP3    H1 3855   5.552   3.145   0.362
 1297TIP3    H2 3856   5.651   3.260   0.360
 1298TIP3   OH2 3857   5.640   0.096   3.156
 1298TIP3    H1 3858   5.566   0.102   3.215
 1298TIP3    H2 3859   5.602   0.095   3.068
 1299TIP3   OH2 3860   1.889   2.676   5.072
 1299TIP3    H1 3861   1.953   2.746   5.085
 1299TIP3    H2 3862   1.816   2.699   5.129
 1300TIP3   OH2 3863   5.534   3.744   4.817
 1300TIP3    H1 3864   5.471   3.674   4.835
 1300TIP3    H2 3865   5.534   3.753   4.722
 1301TIP3   OH2 3866   0.679   2.787   2.959
 1301TIP3    H1 3867   0.596   2.813   2.999
 1301TIP3    H2 3868   0.746   2.818   3.021
 1302TIP3   OH2 3869   3.853   5.962   4.783
 1302TIP3    H1 3870   3.805   5.996   4.708
 1302TIP3    H2 3871   3.938   5.937   4.748
 1303TIP3   OH2 3872   5.582   1.825   4.814
 1303TIP3    H1 3873   5.606   1.751   4.758
 1303TIP3    H2 3874   5.642   1.820   4.888
 1304TIP3   OH2 3875   0.434   5.264   1.233
 1304TIP3    H1 3876   0.387   5.346   1.252
 1304TIP3    H2 3877   0.410   5.206   1.305
 1305TIP3   OH2 3878   2.209   0.905   3.683
 1305TIP3    H1 3879   2.251   0.988   3.706
 1305TIP3    H2 3880   2.139   0.894   3.747
 1306TIP3   OH2 3881   1.242   5.679   5.356
 1306TIP3    H1 3882   1.154   5.714   5.350
 1306TIP3    H2 3883   1.294   5.751   5.391
 1307TIP3   OH2 3884   1.662   0.719   4.431
 1307TIP3    H1 3885   1.605   0.761   4.495
 1307TIP3    H2 3886   1.699   0.644   4.477
 1308TIP3   OH2 3887   6.550   4.615   5.339
 1308TIP3    H1 3888   6.567   4.549   5.407
 1308TIP3    H2 3889   6.585   4.576   5.259
 1309TIP3   OH2 3890   6.009   4.165   1.014
 1309TIP3    H1 3891   5.967   4.161   1.099
 1309TIP3    H2 3892   6.073   4.094   1.015
 1310TIP3   OH2 3893   4.779   6.212   5.730
 1310TIP3    H1 3894   4.685   6.222   5.716
 1310TIP3    H2 3895   4.812   6.173   5.649
 1311TIP3   OH2 3896   2.802   4.717   5.060
 1311TIP3    H1 3897   2.850   4.799   5.049
 1311TIP3    H2 3898   2.820   4.669   4.979
 1312TIP3   OH2 3899   2.250   6.756   3.830
 1312TIP3    H1 3900   2.264   6.730   3.739
 1312TIP3    H2 3901   2.155   6.757   3.841
 1313TIP3   OH2 3902   2.492   3.073   3.015
 1313TIP3    H1 3903   2.464   3.026   3.093
 1313TIP3    H2 3904   2.530   3.154   3.048
 1314TIP3   OH2 3905   1.866   3.369   2.136
 1314TIP3    H1 3906   1.959   3.388   2.124
 1314TIP3    H2 3907   1.836   3.341   2.049
 1315TIP3   OH2 3908   2.732   5.326   1.742
 1315TIP3    H1 3909   2.816   5.295   1.709
 1315TIP3    H2 3910   2.689   5.248   1.777
 1316TIP3   OH2 3911   2.395   0.902   1.657
 1316TIP3    H1 3912   2.339   0.824   1.656
 1316TIP3    H2 3913   2.358   0.958   1.726
 1317TIP3   OH2 3914   0.423   5.950   2.758
 1317TIP3    H1 3915   0.387   5.943   2.670
 1317TIP3    H2 3916   0.474   6.030   2.757
 1318TIP3   OH2 3917   3.790   1.253   3.918
 1318TIP3    H1 3918   3.866   1.195   3.920
 1318TIP3    H2 3919   3.824   1.336   3.886
 1319TIP3   OH2 3920   0.606   2.334   2.674
 1319TIP3    H1 3921   0.608   2.329   2.769
 1319TIP3    H2 3922   0.678   2.393   2.651
 1320TIP3   OH2 3923   2.981   1.697   1.547
 1320TIP3    H1 3924   2.998   1.734   1.634
 1320TIP3    H2 3925   3.063   1.653   1.524
 1321TIP3   OH2 3926   2.190   4.165   2.571
 1321TIP3    H1 3927   2.109   4.139   2.614
 1321TIP3    H2 3928   2.169   4.164   2.478
 1322TIP3   OH2 3929   5.114   0.917   5.737
 1322TIP3    H1 3930   5.104   0.967   5.655
 1322TIP3    H2 3931   5.077   0.831   5.717
 1323TIP3   OH2 3932   1.693   2.236   3.483
 1323TIP3    H1 3933   1.616   2.276   3.443
 1323TIP3    H2 3934   1.704   2.283   3.566
 1324TIP3   OH2 3935   1.824   5.867   1.417
 1324TIP3    H1 3936   1.807   5.784   1.462
 1324TIP3    H2 3937   1.756   5.872   1.349
 1325TIP3   OH2 3938   6.495   6.116   2.524
 1325TIP3    H1 3939   6.490   6.043   2.586
 1325TIP3    H2 3940   6.443   6.087   2.449
 1326TIP3   OH2 3941   4.932   6.266   1.495
 1326TIP3    H1 3942   4.982   6.342   1.466
 1326TIP3    H2 3943   4.860   6.302   1.546
 1327TIP3   OH2 3944   1.683   0.753   0.958
 1327TIP3    H1 3945   1.603   0.737   1.009
 1327TIP3    H2 3946   1.709   0.667   0.926
 1328TIP3   OH2 3947   0.996   1.446   2.774
 1328TIP3    H1 3948   1.048   1.367   2.787
 1328TIP3    H2 3949   1.053   1.506   2.726
 1329TIP3   OH2 3950   2.541   2.350   0.522
 1329TIP3    H1 3951   2.592   2.271   0.540
 1329TIP3    H2 3952   2.606   2.419   0.512
 1330TIP3   OH2 3953   4.021   5.193   2.409
 1330TIP3    H1 3954   3.991   5.264   2.466
 1330TIP3    H2 3955   4.081   5.142   2.463
 1331TIP3   OH2 3956   5.098   0.569   0.004
 1331TIP3    H1 3957   5.070   0.588   0.094
 1331TIP3    H2 3958   5.039   0.499  -0.024
 1332TIP3   OH2 3959   0.327   0.072   2.448
 1332TIP3    H1 3960   0.320   0.129   2.371
 1332TIP3    H2 3961   0.404   0.018   2.431
 1333TIP3   OH2 3962   2.772   1.723   3.002
 1333TIP3    H1 3963   2.866   1.720   3.019
 1333TIP3    H2 3964   2.755   1.645   2.948
 1334TIP3   OH2 3965   1.627   5.309   5.528
 1334TIP3    H1 3966   1.608   5.320   5.435
 1334TIP3    H2 3967   1.610   5.395   5.567
 1335TIP3   OH2 3968   5.956   3.577   5.192
 1335TIP3    H1 3969   5.907   3.647   5.235
 1335TIP3    H2 3970   6.015   3.623   5.132
 1336TIP3   OH2 3971   0.040   2.850   0.238
 1336TIP3    H1 3972  -0.054   2.844   0.223
 1336TIP3    H2 3973   0.056   2.795   0.314
 1337TIP3   OH2 3974   3.603   4.414   5.289
 1337TIP3    H1 3975   3.551   4.405   5.369
 1337TIP3    H2 3976   3.596   4.329   5.246
 1338TIP3   OH2 3977   1.069   3.466   1.982
 1338TIP3    H1 3978   1.143   3.468   2.043
 1338TIP3    H2 3979   1.080   3.544   1.928
 1339TIP3   OH2 3980   2.046   6.395   3.218
 1339TIP3    H1 3981   2.112   6.378   3.284
 1339TIP3    H2 3982   2.065   6.332   3.148
 1340TIP3   OH2 3983   5.063   2.540   5.241
 1340TIP3    H1 3984   4.980   2.519   5.283
 1340TIP3    H2 3985   5.065   2.485   5.163
 1341TIP3   OH2 3986   1.709   1.877   1.463
 1341TIP3    H1 3987   1.652   1.811   1.425
 1341TIP3    H2 3988   1.648   1.942   1.500
 1342TIP3   OH2 3989   0.529   2.084   4.999
 1342TIP3    H1 3990   0.574   2.141   4.936
 1342TIP3    H2 3991   0.576   2.001   4.994
 1343TIP3   OH2 3992   5.158   0.760   4.510
 1343TIP3    H1 3993   5.147   0.736   4.603
 1343TIP3    H2 3994   5.160   0.676   4.465
 1344TIP3   OH2 3995   1.692   6.346   0.779
 1344TIP3    H1 3996   1.728   6.434   0.794
 1344TIP3    H2 3997   1.713   6.327   0.687
 1345TIP3   OH2 3998   0.247   4.028   4.277
 1345TIP3    H1 3999   0.239   4.092   4.347
 1345TIP3    H2 4000   0.167   3.976   4.282
 1346TIP3   OH2 4001   2.590   4.104   0.323
 1346TIP3    H1 4002   2.629   4.118   0.236
 1346TIP3    H2 4003   2.650   4.043   0.366
 1347TIP3   OH2 4004   4.121   0.034   0.088
 1347TIP3    H1 4005   4.063  -0.021   0.035
 1347TIP3    H2 4006   4.133  -0.015   0.170
 1348TIP3   OH2 4007   7.013   6.584   1.127
 1348TIP3    H1 4008   7.008   6.500   1.080
 1348TIP3    H2 4009   7.093   6.625   1.093
 1349TIP3   OH2 4010   4.299   5.494   2.529
 1349TIP3    H1 4011   4.210   5.460   2.541
 1349TIP3    H2 4012   4.338   5.489   2.616
 1350TIP3   OH2 4013   4.585   0.256   2.994
 1350TIP3    H1 4014   4.659   0.196   2.988
 1350TIP3    H2 4015   4.547   0.240   3.080
 1351TIP3   OH2 4016   5.887   5.643   5.001
 1351TIP3    H1 4017   5.927   5.680   5.079
 1351TIP3    H2 4018   5.896   5.548   5.012
 1352TIP3   OH2 4019   1.172   6.108   4.199
 1352TIP3    H1 4020   1.130   6.188   4.169
 1352TIP3    H2 4021   1.134   6.091   4.285
 1353TIP3   OH2 4022   0.806   5.507   4.795
 1353TIP3    H1 4023   0.771   5.593   4.770
 1353TIP3    H2 4024   0.810   5.511   4.891
 1354TIP3   OH2 4025   2.282   2.635   3.425
 1354TIP3    H1 4026   2.194   2.598   3.429
 1354TIP3    H2 4027   2.293   2.659   3.333
 1355TIP3   OH2 4028   5.417   4.976   1.139
 1355TIP3    H1 4029   5.378   4.975   1.051
 1355TIP3    H2 4030   5.364   5.039   1.188
 1356TIP3   OH2 4031   3.858   2.976   5.714
 1356TIP3    H1 4032   3.764   2.988   5.727
 1356TIP3    H2 4033   3.886   3.053   5.666
 1357TIP3   OH2 4034   2.323   6.102   0.386
 1357TIP3    H1 4035   2.235   6.093   0.423
 1357TIP3    H2 4036   2.380   6.058   0.448
 1358TIP3   OH2 4037   2.260   3.542   2.538
 1358TIP3    H1 4038   2.292   3.490   2.465
 1358TIP3    H2 4039   2.246   3.630   2.502
 1359TIP3   OH2 4040   0.755   3.368   1.306
 1359TIP3    H1 4041   0.780   3.451   1.347
 1359TIP3    H2 4042   0.831   3.311   1.316
 1360TIP3   OH2 4043   4.016   2.948   1.167
 1360TIP3    H1 4044   4.102   2.990   1.162
 1360TIP3    H2 4045   3.980   2.956   1.079
 1361TIP3   OH2 4046   6.419   0.485   1.577
 1361TIP3    H1 4047   6.399   0.546   1.648
 1361TIP3    H2 4048   6.338   0.435   1.566
 1362TIP3   OH2 4049   2.836   2.808   5.265
 1362TIP3    H1 4050   2.899   2.853   5.208
 1362TIP3    H2 4051   2.885   2.787   5.344
 1363TIP3   OH2 4052   7.053   1.383   4.601
 1363TIP3    H1 4053   7.056   1.336   4.684
 1363TIP3    H2 4054   6.969   1.428   4.601
 1364TIP3   OH2 4055   6.988   5.464   4.730
 1364TIP3    H1 4056   6.996   5.491   4.638
 1364TIP3    H2 4057   7.073   5.485   4.768
 1365TIP3   OH2 4058   0.917   2.217   2.238
 1365TIP3    H1 4059   0.913   2.265   2.156
 1365TIP3    H2 4060   0.852   2.259   2.294
 1366TIP3   OH2 4061   2.090   5.986   5.317
 1366TIP3    H1 4062   2.166   5.964   5.370
 1366TIP3    H2 4063   2.104   5.940   5.234
 1367TIP3   OH2 4064   1.609   5.773   1.811
 1367TIP3    H1 4065   1.590   5.840   1.877
 1367TIP3    H2 4066   1.700   5.788   1.787
 1368TIP3   OH2 4067   0.805   6.447   0.759
 1368TIP3    H1 4068   0.733   6.508   0.746
 1368TIP3    H2 4069   0.811   6.400   0.675
 1369TIP3   OH2 4070   4.597   3.582   5.154
 1369TIP3    H1 4071   4.614   3.601   5.246
 1369TIP3    H2 4072   4.649   3.647   5.107
 1370TIP3   OH2 4073   6.138   3.539   4.380
 1370TIP3    H1 4074   6.094   3.613   4.340
 1370TIP3    H2 4075   6.190   3.577   4.451
 1371TIP3   OH2 4076   2.179   3.715   0.670
 1371TIP3    H1 4077   2.248   3.765   0.714
 1371TIP3    H2 4078   2.099   3.740   0.716
 1372TIP3   OH2 4079   1.153   0.882   5.092
 1372TIP3    H1 4080   1.103   0.920   5.019
 1372TIP3    H2 4081   1.244   0.905   5.073
 1373TIP3   OH2 4082   3.374   4.765   4.631
 1373TIP3    H1 4083   3.328   4.824   4.691
 1373TIP3    H2 4084   3.437   4.822   4.586
 1374TIP3   OH2 4085   0.114   4.121   3.550
 1374TIP3    H1 4086   0.194   4.172   3.567
 1374TIP3    H2 4087   0.044   4.174   3.587
 1375TIP3   OH2 4088   2.574   6.498   3.888
 1375TIP3    H1 4089   2.486   6.470   3.864
 1375TIP3    H2 4090   2.625   6.417   3.893
 1376TIP3   OH2 4091   0.645   4.399   3.284
 1376TIP3    H1 4092   0.675   4.379   3.373
 1376TIP3    H2 4093   0.705   4.351   3.227
 1377TIP3   OH2 4094   4.407   1.140   2.212
 1377TIP3    H1 4095   4.427   1.191   2.290
 1377TIP3    H2 4096   4.333   1.187   2.171
 1378TIP3   OH2 4097   0.472   1.763   1.477
 1378TIP3    H1 4098   0.514   1.848   1.464
 1378TIP3    H2 4099   0.507   1.732   1.561
 1379TIP3   OH2 4100   4.135   4.145   0.245
 1379TIP3    H1 4101   4.225   4.113   0.250
 1379TIP3    H2 4102   4.114   4.142   0.152
 1380TIP3   OH2 4103   2.233   0.247   1.442
 1380TIP3    H1 4104   2.169   0.249   1.513
 1380TIP3    H2 4105   2.314   0.216   1.483
 1381TIP3   OH2 4106   5.675   4.636   1.334
 1381TIP3    H1 4107   5.635   4.641   1.247
 1381TIP3    H2 4108   5.647   4.716   1.378
 1382TIP3   OH2 4109   4.913   2.778   0.805
 1382TIP3    H1 4110   4.914   2.803   0.897
 1382TIP3    H2 4111   4.845   2.833   0.766
 1383TIP3   OH2 4112   1.073   6.217   1.181
 1383TIP3    H1 4113   1.146   6.192   1.126
 1383TIP3    H2 4114   1.044   6.134   1.221
 1384TIP3   OH2 4115   1.735   1.722   0.732
 1384TIP3    H1 4116   1.710   1.704   0.822
 1384TIP3    H2 4117   1.780   1.806   0.736
 1385TIP3   OH2 4118   1.592   5.450   4.894
 1385TIP3    H1 4119   1.635   5.535   4.901
 1385TIP3    H2 4120   1.499   5.469   4.905
 1386TIP3   OH2 4121   0.392   6.686   5.152
 1386TIP3    H1 4122   0.434   6.721   5.230
 1386TIP3    H2 4123   0.435   6.602   5.137
 1387TIP3   OH2 4124   3.540   5.336   3.690
 1387TIP3    H1 4125   3.537   5.271   3.620
 1387TIP3    H2 4126   3.531   5.420   3.646
 1388TIP3   OH2 4127   5.556   6.550   3.776
 1388TIP3    H1 4128   5.507   6.471   3.756
 1388TIP3    H2 4129   5.534   6.610   3.704
 1389TIP3   OH2 4130   2.376   2.355   1.355
 1389TIP3    H1 4131   2.313   2.324   1.290
 1389TIP3    H2 4132   2.355   2.305   1.434
 1390TIP3   OH2 4133   4.352   4.622   4.379
 1390TIP3    H1 4134   4.370   4.693   4.440
 1390TIP3    H2 4135   4.292   4.564   4.425
 1391TIP3   OH2 4136   2.804   5.780   1.781
 1391TIP3    H1 4137   2.885   5.811   1.741
 1391TIP3    H2 4138   2.832   5.729   1.857
 1392TIP3   OH2 4139   1.502   4.218   0.193
 1392TIP3    H1 4140   1.478   4.244   0.282
 1392TIP3    H2 4141   1.444   4.270   0.137
 1393TIP3   OH2 4142   4.495   5.071   2.424
 1393TIP3    H1 4143   4.470   5.046   2.335
 1393TIP3    H2 4144   4.520   4.989   2.466
 1394TIP3   OH2 4145   6.191   2.370   0.508
 1394TIP3    H1 4146   6.264   2.373   0.569
 1394TIP3    H2 4147   6.210   2.295   0.451
 1395TIP3   OH2 4148   6.425   1.670   2.020
 1395TIP3    H1 4149   6.476   1.639   1.945
 1395TIP3    H2 4150   6.334   1.647   1.999
 1396TIP3   OH2 4151   3.498   6.630   1.913
 1396TIP3    H1 4152   3.522   6.559   1.972
 1396TIP3    H2 4153   3.453   6.694   1.970
 1397TIP3   OH2 4154   5.906   2.643   1.470
 1397TIP3    H1 4155   5.969   2.711   1.444
 1397TIP3    H2 4156   5.875   2.672   1.556
 1398TIP3   OH2 4157   4.052   3.590   3.819
 1398TIP3    H1 4158   4.049   3.536   3.898
 1398TIP3    H2 4159   4.115   3.545   3.762
 1399TIP3   OH2 4160   0.275   3.880   0.544
 1399TIP3    H1 4161   0.368   3.900   0.558
 1399TIP3    H2 4162   0.261   3.799   0.593
 1400TIP3   OH2 4163   2.976   4.995   5.695
 1400TIP3    H1 4164   2.950   4.988   5.787
 1400TIP3    H2 4165   3.017   5.081   5.688
 1401TIP3   OH2 4166   2.549   6.016   3.452
 1401TIP3    H1 4167   2.470   6.065   3.472
 1401TIP3    H2 4168   2.519   5.937   3.406
 1402TIP3   OH2 4169   5.464   5.257   4.368
 1402TIP3    H1 4170   5.400   5.228   4.433
 1402TIP3    H2 4171   5.486   5.178   4.319
 1403TIP3   OH2 4172   6.285   0.259   1.495
 1403TIP3    H1 4173   6.375   0.243   1.467
 1403TIP3    H2 4174   6.242   0.173   1.486
 1404TIP3   OH2 4175   5.223   1.874   4.179
 1404TIP3    H1 4176   5.169   1.844   4.252
 1404TIP3    H2 4177   5.161   1.891   4.109
 1405TIP3   OH2 4178   1.575   0.268   0.795
 1405TIP3    H1 4179   1.632   0.344   0.805
 1405TIP3    H2 4180   1.541   0.274   0.706
 1406TIP3   OH2 4181   5.302   5.150   4.548
 1406TIP3    H1 4182   5.369   5.105   4.600
 1406TIP3    H2 4183   5.221   5.103   4.567
 1407TIP3   OH2 4184   6.512   2.854   4.252
 1407TIP3    H1 4185   6.540   2.889   4.337
 1407TIP3    H2 4186   6.425   2.891   4.239
 1408TIP3   OH2 4187   4.319   2.267   4.713
 1408TIP3    H1 4188   4.248   2.237   4.769
 1408TIP3    H2 4189   4.336   2.357   4.740
 1409TIP3   OH2 4190   2.787   6.502   3.570
 1409TIP3    H1 4191   2.853   6.566   3.544
 1409TIP3    H2 4192   2.833   6.418   3.568
 1410TIP3   OH2 4193   4.466   4.222   1.522
 1410TIP3    H1 4194   4.473   4.317   1.525
 1410TIP3    H2 4195   4.421   4.198   1.603
 1411TIP3   OH2 4196   0.569   0.886   0.113
 1411TIP3    H1 4197   0.562   0.818   0.046
 1411TIP3    H2 4198   0.590   0.838   0.193
 1412TIP3   OH2 4199   3.097   0.588   4.995
 1412TIP3    H1 4200   3.056   0.674   5.005
 1412TIP3    H2 4201   3.142   0.574   5.078
 1413TIP3   OH2 4202   4.927   2.172   5.602
 1413TIP3    H1 4203   4.879   2.096   5.636
 1413TIP3    H2 4204   4.873   2.204   5.530
 1414TIP3   OH2 4205   3.520   2.927   1.951
 1414TIP3    H1 4206   3.476   2.844   1.967
 1414TIP3    H2 4207   3.499   2.949   1.861
 1415TIP3   OH2 4208   1.898   1.735   3.308
 1415TIP3    H1 4209   1.815   1.778   3.328
 1415TIP3    H2 4210   1.918   1.761   3.218
 1416TIP3   OH2 4211   1.230   0.624   2.201
 1416TIP3    H1 4212   1.231   0.669   2.285
 1416TIP3    H2 4213   1.137   0.615   2.180
 1417TIP3   OH2 4214   7.182   5.998   4.865
 1417TIP3    H1 4215   7.210   5.908   4.850
 1417TIP3    H2 4216   7.246   6.052   4.818
 1418TIP3   OH2 4217   4.404   4.173   2.902
 1418TIP3    H1 4218   4.481   4.123   2.876
 1418TIP3    H2 4219   4.386   4.231   2.828
 1419TIP3   OH2 4220   1.722   2.881   5.777
 1419TIP3    H1 4221   1.725   2.969   5.814
 1419TIP3    H2 4222   1.671   2.890   5.697
 1420TIP3   OH2 4223   3.750   4.123   3.759
 1420TIP3    H1 4224   3.787   4.035   3.751
 1420TIP3    H2 4225   3.703   4.121   3.842
 1421TIP3   OH2 4226   3.715   4.286   4.293
 1421TIP3    H1 4227   3.626   4.248   4.295
 1421TIP3    H2 4228   3.701   4.381   4.296
 1422TIP3   OH2 4229   4.739   6.089   5.475
 1422TIP3    H1 4230   4.729   5.998   5.447
 1422TIP3    H2 4231   4.650   6.118   5.494
 1423TIP3   OH2 4232   2.327   2.231   3.933
 1423TIP3    H1 4233   2.261   2.227   3.864
 1423TIP3    H2 4234   2.355   2.141   3.946
 1424TIP3   OH2 4235   6.056   3.731   0.379
 1424TIP3    H1 4236   6.008   3.738   0.296
 1424TIP3    H2 4237   6.049   3.817   0.418
 1425TIP3   OH2 4238   1.114   4.057   1.572
 1425TIP3    H1 4239   1.082   4.019   1.490
 1425TIP3    H2 4240   1.042   4.113   1.601
 1426TIP3   OH2 4241   6.922   2.660   0.587
 1426TIP3    H1 4242   6.910   2.624   0.499
 1426TIP3    H2 4243   6.950   2.585   0.640
 1427TIP3   OH2 4244   6.178   2.603   0.339
 1427TIP3    H1 4245   6.213   2.528   0.387
 1427TIP3    H2 4246   6.239   2.615   0.266
 1428TIP3   OH2 4247   6.864   1.965   3.441
 1428TIP3    H1 4248   6.943   1.916   3.416
 1428TIP3    H2 4249   6.843   1.932   3.529
 1429TIP3   OH2 4250   6.577   4.416   3.542
 1429TIP3    H1 4251   6.491   4.375   3.548
 1429TIP3    H2 4252   6.561   4.508   3.566
 1430TIP3   OH2 4253   7.152   2.172   1.010
 1430TIP3    H1 4254   7.229   2.175   1.067
 1430TIP3    H2 4255   7.136   2.263   0.986
 1431TIP3   OH2 4256   3.067   5.254   5.707
 1431TIP3    H1 4257   3.091   5.248   5.799
 1431TIP3    H2 4258   3.112   5.332   5.675
 1432TIP3   OH2 4259   0.805   1.921   4.435
 1432TIP3    H1 4260   0.834   1.922   4.526
 1432TIP3    H2 4261   0.729   1.862   4.434
 1433TIP3   OH2 4262   4.796   1.544   1.758
 1433TIP3    H1 4263   4.841   1.460   1.747
 1433TIP3    H2 4264   4.710   1.520   1.792
 1434TIP3   OH2 4265   4.849   3.300   2.761
 1434TIP3    H1 4266   4.891   3.268   2.682
 1434TIP3    H2 4267   4.843   3.395   2.749
 1435TIP3   OH2 4268   4.247   5.216   2.918
 1435TIP3    H1 4269   4.320   5.170   2.957
 1435TIP3    H2 4270   4.191   5.147   2.881
 1436TIP3   OH2 4271   2.595   4.606   2.889
 1436TIP3    H1 4272   2.521   4.579   2.943
 1436TIP3    H2 4273   2.621   4.526   2.842
 1437TIP3   OH2 4274   5.101   2.574   2.779
 1437TIP3    H1 4275   5.037   2.601   2.845
 1437TIP3    H2 4276   5.181   2.622   2.802
 1438TIP3   OH2 4277   1.055   5.772   4.200
 1438TIP3    H1 4278   1.136   5.821   4.215
 1438TIP3    H2 4279   1.056   5.752   4.106
 1439TIP3   OH2 4280   3.625   2.019   4.550
 1439TIP3    H1 4281   3.665   1.973   4.624
 1439TIP3    H2 4282   3.533   1.994   4.554
 1440TIP3   OH2 4283   1.233   3.909   1.226
 1440TIP3    H1 4284   1.273   3.967   1.162
 1440TIP3    H2 4285   1.185   3.845   1.174
 1441TIP3   OH2 4286   1.101   6.428   4.528
 1441TIP3    H1 4287   1.104   6.492   4.456
 1441TIP3    H2 4288   1.186   6.438   4.571
 1442TIP3   OH2 4289   3.776   3.935   0.235
 1442TIP3    H1 4290   3.697   3.882   0.249
 1442TIP3    H2 4291   3.788   3.935   0.141
 1443TIP3   OH2 4292   3.734   0.400   2.961
 1443TIP3    H1 4293   3.797   0.437   2.900
 1443TIP3    H2 4294   3.737   0.305   2.943
 1444TIP3   OH2 4295   0.150   1.313   4.559
 1444TIP3    H1 4296   0.135   1.272   4.644
 1444TIP3    H2 4297   0.063   1.334   4.526
 1445TIP3   OH2 4298   4.755   2.830   5.602
 1445TIP3    H1 4299   4.720   2.917   5.584
 1445TIP3    H2 4300   4.738   2.780   5.522
 1446TIP3   OH2 4301   3.842   0.210   4.781
 1446TIP3    H1 4302   3.801   0.145   4.838
 1446TIP3    H2 4303   3.838   0.172   4.694
 1447TIP3   OH2 4304   3.307   0.657   5.195
 1447TIP3    H1 4305   3.311   0.736   5.141
 1447TIP3    H2 4306   3.356   0.679   5.274
 1448TIP3   OH2 4307   2.970   6.801   0.628
 1448TIP3    H1 4308   3.048   6.747   0.643
 1448TIP3    H2 4309   2.952   6.841   0.713
 1449TIP3   OH2 4310   2.709   3.121   5.278
 1449TIP3    H1 4311   2.781   3.119   5.340
 1449TIP3    H2 4312   2.668   3.207   5.291
 1450TIP3   OH2 4313   3.776   3.538   1.745
 1450TIP3    H1 4314   3.782   3.633   1.745
 1450TIP3    H2 4315   3.810   3.511   1.829
 1451TIP3   OH2 4316   6.187   6.330   5.630
 1451TIP3    H1 4317   6.117   6.289   5.681
 1451TIP3    H2 4318   6.153   6.418   5.609
 1452TIP3   OH2 4319   2.355   6.527   0.006
 1452TIP3    H1 4320   2.418   6.501  -0.061
 1452TIP3    H2 4321   2.362   6.623   0.010
 1453TIP3   OH2 4322   2.716   1.177   3.916
 1453TIP3    H1 4323   2.784   1.197   3.980
 1453TIP3    H2 4324   2.764   1.149   3.838
 1454TIP3   OH2 4325   0.181   3.036   3.346
 1454TIP3    H1 4326   0.263   3.079   3.370
 1454TIP3    H2 4327   0.204   2.943   3.339
 1455TIP3   OH2 4328   1.915   5.243   4.528
 1455TIP3    H1 4329   1.921   5.333   4.559
 1455TIP3    H2 4330   1.944   5.248   4.436
 1456TIP3   OH2 4331   5.316   1.171   5.574
 1456TIP3    H1 4332   5.281   1.259   5.556
 1456TIP3    H2 4333   5.328   1.169   5.669
 1457TIP3   OH2 4334   2.402   2.495   1.748
 1457TIP3    H1 4335   2.347   2.555   1.698
 1457TIP3    H2 4336   2.400   2.413   1.698
 1458TIP3   OH2 4337   7.100   0.491   4.462
 1458TIP3    H1 4338   7.140   0.525   4.382
 1458TIP3    H2 4339   7.127   0.552   4.530
 1459TIP3   OH2 4340   4.282   1.463   3.987
 1459TIP3    H1 4341   4.358   1.503   3.944
 1459TIP3    H2 4342   4.320   1.405   4.053
 1460TIP3   OH2 4343   4.858   2.726   2.359
 1460TIP3    H1 4344   4.848   2.708   2.453
 1460TIP3    H2 4345   4.816   2.651   2.316
 1461TIP3   OH2 4346   0.907   2.423   1.691
 1461TIP3    H1 4347   0.861   2.490   1.641
 1461TIP3    H2 4348   0.838   2.375   1.738
 1462TIP3   OH2 4349   0.822   4.747   5.422
 1462TIP3    H1 4350   0.774   4.703   5.352
 1462TIP3    H2 4351   0.913   4.719   5.410
 1463TIP3   OH2 4352   2.090   1.247   4.694
 1463TIP3    H1 4353   2.157   1.198   4.741
 1463TIP3    H2 4354   2.137   1.321   4.656
 1464TIP3   OH2 4355   1.675   5.487   0.940
 1464TIP3    H1 4356   1.760   5.481   0.897
 1464TIP3    H2 4357   1.673   5.412   1.000
 1465TIP3   OH2 4358   2.648   1.215   0.927
 1465TIP3    H1 4359   2.683   1.304   0.920
 1465TIP3    H2 4360   2.576   1.223   0.990
 1466TIP3   OH2 4361   4.764   0.344   1.056
 1466TIP3    H1 4362   4.777   0.398   1.134
 1466TIP3    H2 4363   4.777   0.254   1.088
 1467TIP3   OH2 4364   1.390   0.159   1.941
 1467TIP3    H1 4365   1.300   0.134   1.963
 1467TIP3    H2 4366   1.403   0.244   1.983
 1468TIP3   OH2 4367   5.005   2.407   2.101
 1468TIP3    H1 4368   4.973   2.482   2.052
 1468TIP3    H2 4369   4.926   2.362   2.132
 1469TIP3   OH2 4370   5.484   1.701   3.534
 1469TIP3    H1 4371   5.420   1.680   3.465
 1469TIP3    H2 4372   5.565   1.718   3.486
 1470TIP3   OH2 4373   5.484   1.077   2.620
 1470TIP3    H1 4374   5.509   1.074   2.713
 1470TIP3    H2 4375   5.548   1.021   2.576
 1471TIP3   OH2 4376   6.839   3.420   2.821
 1471TIP3    H1 4377   6.837   3.345   2.880
 1471TIP3    H2 4378   6.842   3.496   2.879
 1472TIP3   OH2 4379   3.817   5.627   2.546
 1472TIP3    H1 4380   3.799   5.627   2.452
 1472TIP3    H2 4381   3.783   5.711   2.577
 1473TIP3   OH2 4382   3.580   6.266   0.078
 1473TIP3    H1 4383   3.498   6.303   0.114
 1473TIP3    H2 4384   3.583   6.298  -0.012
 1474TIP3   OH2 4385   2.309   1.629   5.896
 1474TIP3    H1 4386   2.221   1.646   5.931
 1474TIP3    H2 4387   2.329   1.539   5.923
 1475TIP3   OH2 4388   3.126   2.455   0.801
 1475TIP3    H1 4389   3.039   2.435   0.835
 1475TIP3    H2 4390   3.110   2.517   0.730
 1476TIP3   OH2 4391   1.386   1.154   2.691
 1476TIP3    H1 4392   1.377   1.175   2.598
 1476TIP3    H2 4393   1.311   1.195   2.733
 1477TIP3   OH2 4394   7.055   4.790   3.658
 1477TIP3    H1 4395   7.093   4.760   3.575
 1477TIP3    H2 4396   7.056   4.886   3.651
 1478TIP3   OH2 4397   3.841   0.704   3.146
 1478TIP3    H1 4398   3.858   0.677   3.237
 1478TIP3    H2 4399   3.746   0.712   3.141
 1479TIP3   OH2 4400   5.813   0.511   5.516
 1479TIP3    H1 4401   5.820   0.607   5.520
 1479TIP3    H2 4402   5.815   0.483   5.607
 1480TIP3   OH2 4403   3.250   4.088   5.168
 1480TIP3    H1 4404   3.265   4.063   5.077
 1480TIP3    H2 4405   3.251   4.184   5.167
 1481TIP3   OH2 4406   6.410   4.819   2.395
 1481TIP3    H1 4407   6.479   4.851   2.452
 1481TIP3    H2 4408   6.390   4.731   2.427
 1482TIP3   OH2 4409   3.562   2.499   4.938
 1482TIP3    H1 4410   3.634   2.447   4.974
 1482TIP3    H2 4411   3.553   2.571   5.000
 1483TIP3   OH2 4412   3.136   2.299   5.478
 1483TIP3    H1 4413   3.103   2.388   5.466
 1483TIP3    H2 4414   3.198   2.306   5.551
 1484TIP3   OH2 4415   4.636   0.578   3.517
 1484TIP3    H1 4416   4.599   0.587   3.605
 1484TIP3    H2 4417   4.661   0.666   3.492
 1485TIP3   OH2 4418   5.358   2.910   5.101
 1485TIP3    H1 4419   5.309   2.957   5.169
 1485TIP3    H2 4420   5.439   2.883   5.143
 1486TIP3   OH2 4421   6.600   2.648   1.872
 1486TIP3    H1 4422   6.535   2.644   1.943
 1486TIP3    H2 4423   6.658   2.573   1.888
 1487TIP3   OH2 4424   5.202   2.917   2.561
 1487TIP3    H1 4425   5.288   2.953   2.538
 1487TIP3    H2 4426   5.220   2.852   2.629
 1488TIP3   OH2 4427   6.912   1.169   1.976
 1488TIP3    H1 4428   6.923   1.082   1.937
 1488TIP3    H2 4429   6.840   1.208   1.927
 1489TIP3   OH2 4430   2.990   6.290   0.372
 1489TIP3    H1 4431   2.900   6.261   0.387
 1489TIP3    H2 4432   2.991   6.380   0.402
 1490TIP3   OH2 4433   6.412   1.401   3.682
 1490TIP3    H1 4434   6.464   1.332   3.723
 1490TIP3    H2 4435   6.361   1.439   3.753
 1491TIP3   OH2 4436   6.294   0.985   5.376
 1491TIP3    H1 4437   6.349   1.010   5.302
 1491TIP3    H2 4438   6.332   0.904   5.409
 1492TIP3   OH2 4439   4.163   4.702   1.074
 1492TIP3    H1 4440   4.144   4.756   1.151
 1492TIP3    H2 4441   4.134   4.755   1.000
 1493TIP3   OH2 4442   1.915   0.617   5.792
 1493TIP3    H1 4443   2.000   0.656   5.812
 1493TIP3    H2 4444   1.897   0.643   5.701
 1494TIP3   OH2 4445   0.460   3.729   3.800
 1494TIP3    H1 4446   0.552   3.727   3.827
 1494TIP3    H2 4447   0.458   3.793   3.728
 1495TIP3   OH2 4448   1.551   5.831   5.455
 1495TIP3    H1 4449   1.600   5.901   5.498
 1495TIP3    H2 4450   1.462   5.867   5.445
 1496TIP3   OH2 4451   2.617   0.314   2.292
 1496TIP3    H1 4452   2.608   0.402   2.257
 1496TIP3    H2 4453   2.573   0.317   2.377
 1497TIP3   OH2 4454   0.518   6.134   0.410
 1497TIP3    H1 4455   0.575   6.144   0.487
 1497TIP3    H2 4456   0.469   6.216   0.406
 1498TIP3   OH2 4457   3.700   6.516   1.103
 1498TIP3    H1 4458   3.651   6.598   1.092
 1498TIP3    H2 4459   3.677   6.464   1.026
 1499TIP3   OH2 4460   5.986   1.240   5.311
 1499TIP3    H1 4461   6.005   1.212   5.221
 1499TIP3    H2 4462   5.959   1.161   5.356
 1500TIP3   OH2 4463   0.721   2.966   3.973
 1500TIP3    H1 4464   0.704   3.042   3.916
 1500TIP3    H2 4465   0.787   2.998   4.035
 1501TIP3   OH2 4466   1.137   6.590   3.627
 1501TIP3    H1 4467   1.167   6.618   3.540
 1501TIP3    H2 4468   1.208   6.612   3.686
 1502TIP3   OH2 4469   5.283   2.166   1.933
 1502TIP3    H1 4470   5.255   2.250   1.897
 1502TIP3    H2 4471   5.283   2.180   2.028
 1503TIP3   OH2 4472   4.329   4.825   3.155
 1503TIP3    H1 4473   4.260   4.760   3.168
 1503TIP3    H2 4474   4.365   4.840   3.242
 1504TIP3   OH2 4475   1.011   3.852   2.957
 1504TIP3    H1 4476   1.103   3.876   2.964
 1504TIP3    H2 4477   1.000   3.780   3.018
 1505TIP3   OH2 4478   5.496   6.155   5.311
 1505TIP3    H1 4479   5.441   6.077   5.302
 1505TIP3    H2 4480   5.472   6.192   5.396
 1506TIP3   OH2 4481   0.683   5.094   2.469
 1506TIP3    H1 4482   0.758   5.101   2.527
 1506TIP3    H2 4483   0.607   5.106   2.526
 1507TIP3   OH2 4484   1.269   5.231   2.528
 1507TIP3    H1 4485   1.186   5.192   2.500
 1507TIP3    H2 4486   1.243   5.298   2.591
 1508TIP3   OH2 4487   3.995   6.644   3.809
 1508TIP3    H1 4488   3.922   6.705   3.811
 1508TIP3    H2 4489   4.020   6.633   3.901
 1509TIP3   OH2 4490   5.867   6.225   3.452
 1509TIP3    H1 4491   5.954   6.264   3.462
 1509TIP3    H2 4492   5.885   6.131   3.441
 1510TIP3   OH2 4493   4.182   3.092   3.158
 1510TIP3    H1 4494   4.212   3.009   3.121
 1510TIP3    H2 4495   4.103   3.113   3.108
 1511TIP3   OH2 4496   0.880   2.951   1.592
 1511TIP3    H1 4497   0.884   2.902   1.675
 1511TIP3    H2 4498   0.807   2.913   1.545
 1512TIP3   OH2 4499   0.945   4.492   5.221
 1512TIP3    H1 4500   1.035   4.517   5.242
 1512TIP3    H2 4501   0.932   4.409   5.267
 1513TIP3   OH2 4502   0.870   3.556   4.697
 1513TIP3    H1 4503   0.780   3.552   4.664
 1513TIP3    H2 4504   0.904   3.467   4.685
 1514TIP3   OH2 4505   3.319   0.417   5.516
 1514TIP3    H1 4506   3.364   0.387   5.596
 1514TIP3    H2 4507   3.252   0.351   5.500
 1515TIP3   OH2 4508   3.377   4.768   1.639
 1515TIP3    H1 4509   3.374   4.846   1.695
 1515TIP3    H2 4510   3.400   4.802   1.552
 1516TIP3   OH2 4511   0.753   2.538   0.022
 1516TIP3    H1 4512   0.751   2.454   0.068
 1516TIP3    H2 4513   0.698   2.595   0.075
 1517TIP3   OH2 4514   5.677   0.839   3.304
 1517TIP3    H1 4515   5.735   0.909   3.333
 1517TIP3    H2 4516   5.594   0.857   3.348
 1518TIP3   OH2 4517   4.078   0.876   2.742
 1518TIP3    H1 4518   3.994   0.830   2.739
 1518TIP3    H2 4519   4.110   0.862   2.831
 1519TIP3   OH2 4520   3.146   3.506   5.134
 1519TIP3    H1 4521   3.195   3.579   5.096
 1519TIP3    H2 4522   3.058   3.541   5.149
 1520TIP3   OH2 4523   5.899   0.469   0.470
 1520TIP3    H1 4524   5.841   0.406   0.514
 1520TIP3    H2 4525   5.986   0.446   0.501
 1521TIP3   OH2 4526   1.833   3.601   0.998
 1521TIP3    H1 4527   1.803   3.530   1.055
 1521TIP3    H2 4528   1.771   3.672   1.014
 1522TIP3   OH2 4529   5.484   3.295   3.519
 1522TIP3    H1 4530   5.511   3.203   3.514
 1522TIP3    H2 4531   5.552   3.342   3.471
 1523TIP3   OH2 4532   1.744   2.096   3.892
 1523TIP3    H1 4533   1.743   2.015   3.944
 1523TIP3    H2 4534   1.824   2.090   3.840
 1524TIP3   OH2 4535   5.940   6.679   0.856
 1524TIP3    H1 4536   6.030   6.710   0.847
 1524TIP3    H2 4537   5.924   6.628   0.777
 1525TIP3   OH2 4538   4.089   6.079   3.393
 1525TIP3    H1 4539   4.067   6.048   3.481
 1525TIP3    H2 4540   4.109   6.172   3.405
 1526TIP3   OH2 4541   0.860   2.647   1.521
 1526TIP3    H1 4542   0.921   2.688   1.582
 1526TIP3    H2 4543   0.773   2.668   1.555
 1527TIP3   OH2 4544   5.693   6.321   4.842
 1527TIP3    H1 4545   5.669   6.413   4.828
 1527TIP3    H2 4546   5.672   6.304   4.934
 1528TIP3   OH2 4547   7.100   5.832   4.364
 1528TIP3    H1 4548   7.172   5.789   4.319
 1528TIP3    H2 4549   7.042   5.862   4.294
 1529TIP3   OH2 4550   6.604   2.890   0.170
 1529TIP3    H1 4551   6.629   2.832   0.243
 1529TIP3    H2 4552   6.528   2.937   0.203
 1530TIP3   OH2 4553   1.835   4.389   1.762
 1530TIP3    H1 4554   1.858   4.339   1.840
 1530TIP3    H2 4555   1.827   4.479   1.792
 1531TIP3   OH2 4556   5.959   5.026   1.473
 1531TIP3    H1 4557   5.930   5.078   1.398
 1531TIP3    H2 4558   6.051   5.007   1.455
 1532TIP3   OH2 4559   1.399   3.529   5.405
 1532TIP3    H1 4560   1.427   3.447   5.444
 1532TIP3    H2 4561   1.313   3.545   5.442
 1533TIP3   OH2 4562   1.223   1.546   3.522
 1533TIP3    H1 4563   1.309   1.509   3.498
 1533TIP3    H2 4564   1.185   1.482   3.582
 1534TIP3   OH2 4565   6.932   3.350   0.113
 1534TIP3    H1 4566   6.866   3.360   0.044
 1534TIP3    H2 4567   6.915   3.423   0.173
 1535TIP3   OH2 4568   1.002   5.926   5.411
 1535TIP3    H1 4569   0.954   5.986   5.353
 1535TIP3    H2 4570   0.935   5.865   5.443
 1536TIP3   OH2 4571   6.517   5.652   2.494
 1536TIP3    H1 4572   6.524   5.708   2.417
 1536TIP3    H2 4573   6.605   5.615   2.504
 1537TIP3   OH2 4574   2.288   2.377   0.624
 1537TIP3    H1 4575   2.289   2.462   0.667
 1537TIP3    H2 4576   2.379   2.358   0.604
 1538TIP3   OH2 4577   4.086   1.287   2.437
 1538TIP3    H1 4578   4.115   1.203   2.473
 1538TIP3    H2 4579   4.064   1.340   2.513
 1539TIP3   OH2 4580   4.755   2.500   2.239
 1539TIP3    H1 4581   4.765   2.422   2.184
 1539TIP3    H2 4582   4.664   2.527   2.227
 1540TIP3   OH2 4583   0.958   6.135   3.432
 1540TIP3    H1 4584   0.964   6.229   3.449
 1540TIP3    H2 4585   0.918   6.128   3.345
 1541TIP3   OH2 4586   2.619   3.722   3.808
 1541TIP3    H1 4587   2.694   3.665   3.821
 1541TIP3    H2 4588   2.549   3.684   3.862
 1542TIP3   OH2 4589   5.735   0.197   1.882
 1542TIP3    H1 4590   5.778   0.120   1.844
 1542TIP3    H2 4591   5.679   0.162   1.951
 1543TIP3   OH2 4592   0.156   4.944   0.565
 1543TIP3    H1 4593   0.068   4.953   0.602
 1543TIP3    H2 4594   0.147   4.879   0.496
 1544TIP3   OH2 4595   2.041   4.485   0.659
 1544TIP3    H1 4596   2.087   4.484   0.743
 1544TIP3    H2 4597   2.096   4.432   0.601
 1545TIP3   OH2 4598   0.985   3.840   5.089
 1545TIP3    H1 4599   0.915   3.837   5.024
 1545TIP3    H2 4600   1.022   3.928   5.080
 1546TIP3   OH2 4601   5.922   4.052   3.366
 1546TIP3    H1 4602   5.958   4.037   3.279
 1546TIP3    H2 4603   5.969   3.991   3.423
 1547TIP3   OH2 4604   5.855   0.876   4.848
 1547TIP3    H1 4605   5.785   0.824   4.807
 1547TIP3    H2 4606   5.850   0.853   4.940
 1548TIP3   OH2 4607   5.755   0.595   0.260
 1548TIP3    H1 4608   5.826   0.537   0.287
 1548TIP3    H2 4609   5.704   0.610   0.340
 1549TIP3   OH2 4610   1.887   6.208   2.980
 1549TIP3    H1 4611   1.967   6.185   3.027
 1549TIP3    H2 4612   1.882   6.144   2.909
 1550TIP3   OH2 4613   6.285   2.865   2.631
 1550TIP3    H1 4614   6.376   2.869   2.602
 1550TIP3    H2 4615   6.285   2.906   2.717
 1551TIP3   OH2 4616   2.627   5.903   4.946
 1551TIP3    H1 4617   2.552   5.846   4.961
 1551TIP3    H2 4618   2.702   5.843   4.941
 1552TIP3   OH2 4619   5.083   3.438   4.233
 1552TIP3    H1 4620   5.034   3.519   4.224
 1552TIP3    H2 4621   5.051   3.399   4.315
 1553TIP3   OH2 4622   5.917   5.863   4.870
 1553TIP3    H1 4623   5.870   5.933   4.916
 1553TIP3    H2 4624   5.895   5.783   4.918
 1554TIP3   OH2 4625   3.804   6.367   2.788
 1554TIP3    H1 4626   3.758   6.289   2.821
 1554TIP3    H2 4627   3.757   6.441   2.828
 1555TIP3   OH2 4628   0.390   3.848   1.248
 1555TIP3    H1 4629   0.339   3.925   1.273
 1555TIP3    H2 4630   0.371   3.784   1.317
 1556TIP3   OH2 4631   3.863   6.079   0.376
 1556TIP3    H1 4632   3.910   6.018   0.434
 1556TIP3    H2 4633   3.774   6.044   0.371
 1557TIP3   OH2 4634   0.441   5.228   5.309
 1557TIP3    H1 4635   0.414   5.318   5.292
 1557TIP3    H2 4636   0.359   5.179   5.313
 1558TIP3   OH2 4637   3.351   3.114   2.589
 1558TIP3    H1 4638   3.314   3.116   2.501
 1558TIP3    H2 4639   3.326   3.029   2.624
 1559TIP3   OH2 4640   6.088   0.713   2.451
 1559TIP3    H1 4641   6.106   0.804   2.430
 1559TIP3    H2 4642   6.084   0.711   2.547
 1560TIP3   OH2 4643   2.509   0.140   5.188
 1560TIP3    H1 4644   2.446   0.068   5.195
 1560TIP3    H2 4645   2.498   0.172   5.098
 1561TIP3   OH2 4646   3.315   2.018   3.048
 1561TIP3    H1 4647   3.243   2.063   3.093
 1561TIP3    H2 4648   3.379   2.087   3.030
 1562TIP3   OH2 4649   0.456   3.398   1.400
 1562TIP3    H1 4650   0.519   3.470   1.397
 1562TIP3    H2 4651   0.407   3.407   1.318
 1563TIP3   OH2 4652   5.058   6.083   0.778
 1563TIP3    H1 4653   5.044   6.046   0.691
 1563TIP3    H2 4654   4.979   6.061   0.827
 1564TIP3   OH2 4655   2.915   6.130   5.611
 1564TIP3    H1 4656   2.885   6.039   5.604
 1564TIP3    H2 4657   3.011   6.123   5.610
 1565TIP3   OH2 4658   4.230   6.261   1.239
 1565TIP3    H1 4659   4.231   6.187   1.179
 1565TIP3    H2 4660   4.153   6.247   1.294
 1566TIP3   OH2 4661   5.025   5.394   5.092
 1566TIP3    H1 4662   5.031   5.304   5.123
 1566TIP3    H2 4663   5.091   5.400   5.023
 1567TIP3   OH2 4664   4.369   3.908   1.902
 1567TIP3    H1 4665   4.381   3.846   1.975
 1567TIP3    H2 4666   4.368   3.853   1.824
 1568TIP3   OH2 4667   4.804   5.519   3.615
 1568TIP3    H1 4668   4.782   5.612   3.616
 1568TIP3    H2 4669   4.734   5.477   3.665
 1569TIP3   OH2 4670   0.105   5.752   5.744
 1569TIP3    H1 4671   0.130   5.843   5.759
 1569TIP3    H2 4672   0.188   5.707   5.729
 1570TIP3   OH2 4673   5.793   6.118   4.667
 1570TIP3    H1 4674   5.748   6.121   4.583
 1570TIP3    H2 4675   5.740   6.173   4.725
 1571TIP3   OH2 4676   1.609   5.409   1.548
 1571TIP3    H1 4677   1.546   5.423   1.619
 1571TIP3    H2 4678   1.662   5.489   1.548
 1572TIP3   OH2 4679   1.723   1.197   0.427
 1572TIP3    H1 4680   1.806   1.244   0.418
 1572TIP3    H2 4681   1.729   1.155   0.513
 1573TIP3   OH2 4682   1.190   4.950   5.450
 1573TIP3    H1 4683   1.254   4.900   5.400
 1573TIP3    H2 4684   1.157   4.888   5.516
 1574TIP3   OH2 4685   1.066   5.018   1.203
 1574TIP3    H1 4686   0.994   4.957   1.221
 1574TIP3    H2 4687   1.123   5.012   1.279
 1575TIP3   OH2 4688   5.074   5.053   5.425
 1575TIP3    H1 4689   5.054   5.087   5.338
 1575TIP3    H2 4690   5.002   4.992   5.444
 1576TIP3   OH2 4691   4.010   0.370   3.635
 1576TIP3    H1 4692   4.045   0.397   3.719
 1576TIP3    H2 4693   3.939   0.431   3.617
 1577TIP3   OH2 4694   7.110   5.877   3.714
 1577TIP3    H1 4695   7.018   5.852   3.716
 1577TIP3    H2 4696   7.157   5.795   3.700
 1578TIP3   OH2 4697   1.474   4.594   0.212
 1578TIP3    H1 4698   1.560   4.563   0.183
 1578TIP3    H2 4699   1.413   4.525   0.186
 1579TIP3   OH2 4700   1.009   3.756   1.322
 1579TIP3    H1 4701   1.010   3.722   1.232
 1579TIP3    H2 4702   1.081   3.820   1.324
 1580TIP3   OH2 4703   5.642  -0.028   3.453
 1580TIP3    H1 4704   5.669  -0.011   3.363
 1580TIP3    H2 4705   5.668   0.050   3.501
 1581TIP3   OH2 4706   0.263   3.012   4.273
 1581TIP3    H1 4707   0.354   3.000   4.248
 1581TIP3    H2 4708   0.226   3.068   4.204
 1582TIP3   OH2 4709   3.139   1.636   0.588
 1582TIP3    H1 4710   3.204   1.693   0.628
 1582TIP3    H2 4711   3.055   1.676   0.609
 1583TIP3   OH2 4712   0.672   2.424   5.063
 1583TIP3    H1 4713   0.724   2.350   5.094
 1583TIP3    H2 4714   0.630   2.391   4.983
 1584TIP3   OH2 4715   2.875   5.581   3.340
 1584TIP3    H1 4716   2.922   5.661   3.316
 1584TIP3    H2 4717   2.819   5.607   3.413
 1585TIP3   OH2 4718   2.790   3.925   0.455
 1585TIP3    H1 4719   2.831   3.879   0.382
 1585TIP3    H2 4720   2.863   3.963   0.503
 1586TIP3   OH2 4721   5.717   6.375   1.074
 1586TIP3    H1 4722   5.682   6.380   0.985
 1586TIP3    H2 4723   5.648   6.332   1.125
 1587TIP3   OH2 4724   2.152   2.062   3.078
 1587TIP3    H1 4725   2.119   1.976   3.105
 1587TIP3    H2 4726   2.202   2.044   2.998
 1588TIP3   OH2 4727   6.391   4.608   4.136
 1588TIP3    H1 4728   6.327   4.672   4.166
 1588TIP3    H2 4729   6.426   4.569   4.217
 1589TIP3   OH2 4730   1.392   0.547   0.532
 1589TIP3    H1 4731   1.480   0.579   0.514
 1589TIP3    H2 4732   1.353   0.536   0.445
 1590TIP3   OH2 4733   1.211   0.344   3.284
 1590TIP3    H1 4734   1.260   0.352   3.202
 1590TIP3    H2 4735   1.172   0.431   3.296
 1591TIP3   OH2 4736   4.040   2.053   3.361
 1591TIP3    H1 4737   3.997   2.139   3.363
 1591TIP3    H2 4738   4.034   2.025   3.269
 1592TIP3   OH2 4739   1.314   5.847   3.176
 1592TIP3    H1 4740   1.315   5.895   3.259
 1592TIP3    H2 4741   1.406   5.831   3.156
 1593TIP3   OH2 4742   3.403   2.855   3.591
 1593TIP3    H1 4743   3.467   2.908   3.638
 1593TIP3    H2 4744   3.359   2.805   3.659
 1594TIP3   OH2 4745   2.804   6.095   4.543
 1594TIP3    H1 4746   2.774   6.177   4.582
 1594TIP3    H2 4747   2.864   6.059   4.607
 1595TIP3   OH2 4748   1.648   3.192   3.955
 1595TIP3    H1 4749   1.619   3.220   3.868
 1595TIP3    H2 4750   1.582   3.228   4.015
 1596TIP3   OH2 4751   6.484   4.687   2.789
 1596TIP3    H1 4752   6.454   4.660   2.702
 1596TIP3    H2 4753   6.423   4.756   2.814
 1597TIP3   OH2 4754   3.096   1.489   4.917
 1597TIP3    H1 4755   3.020   1.536   4.952
 1597TIP3    H2 4756   3.061   1.443   4.840
 1598TIP3   OH2 4757   2.184   0.459   0.376
 1598TIP3    H1 4758   2.128   0.471   0.453
 1598TIP3    H2 4759   2.274   0.467   0.410
 1599TIP3   OH2 4760   1.037   4.455   1.290
 1599TIP3    H1 4761   0.945   4.464   1.266
 1599TIP3    H2 4762   1.045   4.365   1.322
 1600TIP3   OH2 4763   4.809   3.888   0.392
 1600TIP3    H1 4764   4.863   3.957   0.354
 1600TIP3    H2 4765   4.733   3.933   0.428
 1601TIP3   OH2 4766   4.218   2.601   2.141
 1601TIP3    H1 4767   4.300   2.572   2.182
 1601TIP3    H2 4768   4.227   2.577   2.049
 1602TIP3   OH2 4769   7.058   3.253   0.641
 1602TIP3    H1 4770   7.072   3.344   0.667
 1602TIP3    H2 4771   7.050   3.257   0.546
 1603TIP3   OH2 4772   5.733   6.052   1.150
 1603TIP3    H1 4773   5.743   6.100   1.232
 1603TIP3    H2 4774   5.642   6.022   1.150
 1604TIP3   OH2 4775   0.180   3.216   4.111
 1604TIP3    H1 4776   0.232   3.204   4.032
 1604TIP3    H2 4777   0.121   3.288   4.090
 1605TIP3   OH2 4778   5.333   3.671   4.572
 1605TIP3    H1 4779   5.306   3.589   4.614
 1605TIP3    H2 4780   5.309   3.739   4.635
 1606TIP3   OH2 4781   7.221   2.420   0.206
 1606TIP3    H1 4782   7.309   2.382   0.203
 1606TIP3    H2 4783   7.176   2.381   0.131
 1607TIP3   OH2 4784   5.627   1.586   4.378
 1607TIP3    H1 4785   5.623   1.535   4.297
 1607TIP3    H2 4786   5.570   1.539   4.439
 1608TIP3   OH2 4787   5.390   6.764   5.577
 1608TIP3    H1 4788   5.380   6.859   5.572
 1608TIP3    H2 4789   5.385   6.744   5.671
 1609TIP3   OH2 4790   4.010   5.180   1.778
 1609TIP3    H1 4791   3.995   5.120   1.705
 1609TIP3    H2 4792   4.081   5.141   1.828
 1610TIP3   OH2 4793   1.144   4.528   2.995
 1610TIP3    H1 4794   1.230   4.567   3.011
 1610TIP3    H2 4795   1.132   4.536   2.900
 1611TIP3   OH2 4796   5.788   0.865   4.115
 1611TIP3    H1 4797   5.711   0.918   4.134
 1611TIP3    H2 4798   5.850   0.887   4.185
 1612TIP3   OH2 4799   5.146   0.870   0.778
 1612TIP3    H1 4800   5.223   0.926   0.783
 1612TIP3    H2 4801   5.181   0.784   0.755
 1613TIP3   OH2 4802   0.941   3.050   0.511
 1613TIP3    H1 4803   0.940   2.958   0.487
 1613TIP3    H2 4804   0.973   3.095   0.432
 1614TIP3   OH2 4805   2.603   5.031   1.657
 1614TIP3    H1 4806   2.609   5.041   1.752
 1614TIP3    H2 4807   2.693   5.014   1.630
 1615TIP3   OH2 4808   3.438   1.869   1.027
 1615TIP3    H1 4809   3.420   1.952   1.071
 1615TIP3    H2 4810   3.485   1.817   1.092
 1616TIP3   OH2 4811   3.535   0.095   5.847
 1616TIP3    H1 4812   3.533   0.110   5.941
 1616TIP3    H2 4813   3.452   0.051   5.828
 1617TIP3   OH2 4814   0.426   1.172   4.259
 1617TIP3    H1 4815   0.459   1.261   4.245
 1617TIP3    H2 4816   0.416   1.166   4.354
 1618TIP3   OH2 4817   6.753   4.096   2.827
 1618TIP3    H1 4818   6.766   4.163   2.760
 1618TIP3    H2 4819   6.807   4.125   2.901
 1619TIP3   OH2 4820   5.869   0.330   4.053
 1619TIP3    H1 4821   5.820   0.407   4.082
 1619TIP3    H2 4822   5.930   0.364   3.987
 1620TIP3   OH2 4823   2.430   2.627   0.045
 1620TIP3    H1 4824   2.395   2.695  -0.013
 1620TIP3    H2 4825   2.515   2.661   0.072
 1621TIP3   OH2 4826   6.907   3.174   2.937
 1621TIP3    H1 4827   6.912   3.201   3.029
 1621TIP3    H2 4828   6.987   3.124   2.922
 1622TIP3   OH2 4829   6.677   4.324   1.361
 1622TIP3    H1 4830   6.599   4.345   1.310
 1622TIP3    H2 4831   6.687   4.229   1.353
 1623TIP3   OH2 4832   6.881   4.799   1.125
 1623TIP3    H1 4833   6.927   4.802   1.209
 1623TIP3    H2 4834   6.808   4.738   1.140
 1624TIP3   OH2 4835   5.541   1.148   3.318
 1624TIP3    H1 4836   5.525   1.242   3.321
 1624TIP3    H2 4837   5.623   1.136   3.365
 1625TIP3   OH2 4838   0.433   4.750   4.360
 1625TIP3    H1 4839   0.341   4.768   4.377
 1625TIP3    H2 4840   0.433   4.666   4.315
 1626TIP3   OH2 4841   3.234   2.205   2.320
 1626TIP3    H1 4842   3.150   2.224   2.362
 1626TIP3    H2 4843   3.233   2.259   2.240
 1627TIP3   OH2 4844   3.181   1.833   4.731
 1627TIP3    H1 4845   3.181   1.787   4.815
 1627TIP3    H2 4846   3.102   1.801   4.687
 1628TIP3   OH2 4847   6.983   4.609   2.987
 1628TIP3    H1 4848   6.946   4.652   3.064
 1628TIP3    H2 4849   6.908   4.586   2.933
 1629TIP3   OH2 4850   0.646   6.118   3.311
 1629TIP3    H1 4851   0.724   6.088   3.265
 1629TIP3    H2 4852   0.606   6.182   3.251
 1630TIP3   OH2 4853   1.301   6.267   0.635
 1630TIP3    H1 4854   1.217   6.310   0.622
 1630TIP3    H2 4855   1.304   6.247   0.728
 1631TIP3   OH2 4856   5.828   5.979   0.627
 1631TIP3    H1 4857   5.775   6.037   0.680
 1631TIP3    H2 4858   5.899   6.034   0.594
 1632TIP3   OH2 4859   3.045   4.050   5.402
 1632TIP3    H1 4860   3.046   4.141   5.434
 1632TIP3    H2 4861   3.100   4.052   5.324
 1633TIP3   OH2 4862   2.151   4.991   4.838
 1633TIP3    H1 4863   2.119   5.057   4.900
 1633TIP3    H2 4864   2.226   4.951   4.881
 1634TIP3   OH2 4865   0.699   5.347   5.182
 1634TIP3    H1 4866   0.621   5.302   5.151
 1634TIP3    H2 4867   0.760   5.344   5.108
 1635TIP3   OH2 4868   2.269   6.170   0.674
 1635TIP3    H1 4869   2.273   6.078   0.647
 1635TIP3    H2 4870   2.359   6.193   0.695
 1636TIP3   OH2 4871   1.194   0.508   2.732
 1636TIP3    H1 4872   1.129   0.523   2.664
 1636TIP3    H2 4873   1.148   0.528   2.814
 1637TIP3   OH2 4874   1.661   3.245   2.673
 1637TIP3    H1 4875   1.610   3.325   2.688
 1637TIP3    H2 4876   1.640   3.219   2.584
 1638TIP3   OH2 4877   0.598   0.649   0.652
 1638TIP3    H1 4878   0.626   0.573   0.703
 1638TIP3    H2 4879   0.541   0.699   0.711
 1639TIP3   OH2 4880   4.683   4.858   3.746
 1639TIP3    H1 4881   4.721   4.786   3.695
 1639TIP3    H2 4882   4.707   4.840   3.836
 1640TIP3   OH2 4883   4.816   6.779   1.499
 1640TIP3    H1 4884   4.776   6.696   1.474
 1640TIP3    H2 4885   4.871   6.758   1.574
 1641TIP3   OH2 4886   5.374   2.330   5.721
 1641TIP3    H1 4887   5.361   2.386   5.797
 1641TIP3    H2 4888   5.287   2.321   5.682
 1642TIP3   OH2 4889   1.335   3.547   4.728
 1642TIP3    H1 4890   1.407   3.599   4.763
 1642TIP3    H2 4891   1.265   3.554   4.793
 1643TIP3   OH2 4892   3.089   3.493   4.744
 1643TIP3    H1 4893   3.115   3.437   4.672
 1643TIP3    H2 4894   3.084   3.434   4.820
 1644TIP3   OH2 4895   5.890   6.577   4.705
 1644TIP3    H1 4896   5.939   6.594   4.624
 1644TIP3    H2 4897   5.799   6.592   4.681
 1645TIP3   OH2 4898   2.087   6.851   5.445
 1645TIP3    H1 4899   2.039   6.777   5.407
 1645TIP3    H2 4900   2.178   6.838   5.415
 1646TIP3   OH2 4901   2.716   2.688   5.826
 1646TIP3    H1 4902   2.794   2.682   5.772
 1646TIP3    H2 4903   2.739   2.750   5.895
 1647TIP3   OH2 4904   2.337   6.609   1.468
 1647TIP3    H1 4905   2.433   6.614   1.472
 1647TIP3    H2 4906   2.319   6.528   1.421
 1648TIP3   OH2 4907   6.897   5.757   1.729
 1648TIP3    H1 4908   6.840   5.697   1.681
 1648TIP3    H2 4909   6.924   5.708   1.806
 1649TIP3   OH2 4910   6.331   6.168   1.673
 1649TIP3    H1 4911   6.361   6.257   1.656
 1649TIP3    H2 4912   6.244   6.179   1.710
 1650TIP3   OH2 4913   5.522   4.409   2.087
 1650TIP3    H1 4914   5.505   4.411   1.993
 1650TIP3    H2 4915   5.614   4.435   2.095
 1651TIP3   OH2 4916   3.534   2.462   2.068
 1651TIP3    H1 4917   3.484   2.440   1.989
 1651TIP3    H2 4918   3.549   2.556   2.062
 1652TIP3   OH2 4919   6.739   2.187   5.344
 1652TIP3    H1 4920   6.721   2.182   5.438
 1652TIP3    H2 4921   6.712   2.276   5.319
 1653TIP3   OH2 4922   5.582   3.870   0.826
 1653TIP3    H1 4923   5.501   3.827   0.799
 1653TIP3    H2 4924   5.594   3.843   0.917
 1654TIP3   OH2 4925   6.504   2.431   2.093
 1654TIP3    H1 4926   6.600   2.434   2.092
 1654TIP3    H2 4927   6.481   2.447   2.184
 1655TIP3   OH2 4928   0.747   6.322   4.851
 1655TIP3    H1 4929   0.711   6.339   4.938
 1655TIP3    H2 4930   0.728   6.229   4.835
 1656TIP3   OH2 4931   2.925   1.729   4.675
 1656TIP3    H1 4932   2.930   1.638   4.702
 1656TIP3    H2 4933   2.841   1.736   4.629
 1657TIP3   OH2 4934   0.692   0.149   4.506
 1657TIP3    H1 4935   0.656   0.216   4.448
 1657TIP3    H2 4936   0.708   0.195   4.588
 1658TIP3   OH2 4937   3.997   3.637   4.114
 1658TIP3    H1 4938   3.969   3.689   4.189
 1658TIP3    H2 4939   4.043   3.699   4.058
 1659TIP3   OH2 4940   0.226   5.418   4.363
 1659TIP3    H1 4941   0.254   5.372   4.284
 1659TIP3    H2 4942   0.303   5.418   4.420
 1660TIP3   OH2 4943   3.034   1.624   2.689
 1660TIP3    H1 4944   2.947   1.634   2.649
 1660TIP3    H2 4945   3.017   1.603   2.780
 1661TIP3   OH2 4946   0.664   4.513   3.839
 1661TIP3    H1 4947   0.719   4.451   3.889
 1661TIP3    H2 4948   0.598   4.542   3.901
 1662TIP3   OH2 4949   4.841   5.477   4.501
 1662TIP3    H1 4950   4.868   5.393   4.537
 1662TIP3    H2 4951   4.746   5.469   4.490
 1663TIP3   OH2 4952   6.897   5.767   4.695
 1663TIP3    H1 4953   6.928   5.849   4.657
 1663TIP3    H2 4954   6.929   5.699   4.635
 1664TIP3   OH2 4955   2.412   1.398   0.615
 1664TIP3    H1 4956   2.362   1.322   0.583
 1664TIP3    H2 4957   2.451   1.436   0.536
 1665TIP3   OH2 4958   6.923   1.092   2.889
 1665TIP3    H1 4959   6.965   1.178   2.889
 1665TIP3    H2 4960   6.935   1.060   2.979
 1666TIP3   OH2 4961   1.538   5.038   0.994
 1666TIP3    H1 4962   1.521   4.955   1.038
 1666TIP3    H2 4963   1.562   5.013   0.905
 1667TIP3   OH2 4964   5.498   2.930   0.249
 1667TIP3    H1 4965   5.442   2.998   0.287
 1667TIP3    H2 4966   5.504   2.954   0.157
 1668TIP3   OH2 4967   4.716   0.401   1.876
 1668TIP3    H1 4968   4.757   0.468   1.822
 1668TIP3    H2 4969   4.782   0.332   1.883
 1669TIP3   OH2 4970   1.484   0.383   1.622
 1669TIP3    H1 4971   1.449   0.302   1.584
 1669TIP3    H2 4972   1.569   0.358   1.656
 1670TIP3   OH2 4973   4.552   2.333   1.890
 1670TIP3    H1 4974   4.586   2.304   1.806
 1670TIP3    H2 4975   4.547   2.254   1.943
 1671TIP3   OH2 4976   0.922   2.453   4.080
 1671TIP3    H1 4977   1.000   2.400   4.065
 1671TIP3    H2 4978   0.851   2.405   4.037
 1672TIP3   OH2 4979   5.809   5.053   3.019
 1672TIP3    H1 4980   5.863   5.064   3.097
 1672TIP3    H2 4981   5.845   4.975   2.976
 1673TIP3   OH2 4982   2.673   1.530   1.618
 1673TIP3    H1 4983   2.622   1.455   1.649
 1673TIP3    H2 4984   2.749   1.532   1.676
 1674TIP3   OH2 4985   7.035   2.098   1.392
 1674TIP3    H1 4986   7.057   2.005   1.398
 1674TIP3    H2 4987   6.940   2.101   1.395
 1675TIP3   OH2 4988   2.201   1.015   4.787
 1675TIP3    H1 4989   2.189   0.921   4.791
 1675TIP3    H2 4990   2.286   1.028   4.745
 1676TIP3   OH2 4991   2.008   2.346   5.756
 1676TIP3    H1 4992   2.038   2.350   5.847
 1676TIP3    H2 4993   2.080   2.308   5.707
 1677TIP3   OH2 4994   4.855   1.925   1.790
 1677TIP3    H1 4995   4.936   1.874   1.792
 1677TIP3    H2 4996   4.880   2.009   1.751
 1678TIP3   OH2 4997   2.204   1.968   0.921
 1678TIP3    H1 4998   2.218   2.029   0.848
 1678TIP3    H2 4999   2.170   1.889   0.879
 1679TIP3   OH2 5000   1.937   3.369   0.274
 1679TIP3    H1 5001   2.029   3.368   0.300
 1679TIP3    H2 5002   1.898   3.439   0.326
 1680TIP3   OH2 5003   2.897   2.375   0.935
 1680TIP3    H1 5004   2.872   2.287   0.908
 1680TIP3    H2 5005   2.906   2.369   1.031
 1681TIP3   OH2 5006   5.362   1.173   5.183
 1681TIP3    H1 5007   5.408   1.165   5.267
 1681TIP3    H2 5008   5.320   1.259   5.187
 1682TIP3   OH2 5009   4.672   6.702   2.613
 1682TIP3    H1 5010   4.748   6.736   2.566
 1682TIP3    H2 5011   4.677   6.607   2.601
 1683TIP3   OH2 5012   2.608   2.050   5.500
 1683TIP3    H1 5013   2.587   1.967   5.543
 1683TIP3    H2 5014   2.536   2.064   5.438
 1684TIP3   OH2 5015   5.522   2.652   0.649
 1684TIP3    H1 5016   5.429   2.656   0.669
 1684TIP3    H2 5017   5.543   2.558   0.649
 1685TIP3   OH2 5018   4.706   4.330   0.467
 1685TIP3    H1 5019   4.756   4.374   0.537
 1685TIP3    H2 5020   4.712   4.390   0.393
 1686TIP3   OH2 5021   4.280   6.297   4.598
 1686TIP3    H1 5022   4.314   6.304   4.509
 1686TIP3    H2 5023   4.274   6.387   4.629
 1687TIP3   OH2 5024   0.060   3.504   3.678
 1687TIP3    H1 5025   0.108   3.531   3.756
 1687TIP3    H2 5026   0.099   3.555   3.607
 1688TIP3   OH2 5027   3.714   4.790   3.368
 1688TIP3    H1 5028   3.787   4.848   3.391
 1688TIP3    H2 5029   3.755   4.714   3.326
 1689TIP3   OH2 5030   2.102   1.348   0.795
 1689TIP3    H1 5031   2.048   1.393   0.730
 1689TIP3    H2 5032   2.097   1.256   0.770
 1690TIP3   OH2 5033   1.462   4.122   2.195
 1690TIP3    H1 5034   1.413   4.052   2.237
 1690TIP3    H2 5035   1.529   4.147   2.259
 1691TIP3   OH2 5036   0.429   3.816   2.563
 1691TIP3    H1 5037   0.381   3.755   2.619
 1691TIP3    H2 5038   0.400   3.903   2.593
 1692TIP3   OH2 5039   6.003   2.927   3.270
 1692TIP3    H1 5040   6.053   2.995   3.225
 1692TIP3    H2 5041   5.915   2.962   3.278
 1693TIP3   OH2 5042   4.179   1.778   1.022
 1693TIP3    H1 5043   4.123   1.850   0.993
 1693TIP3    H2 5044   4.184   1.720   0.946
 1694TIP3   OH2 5045   1.891   6.006   2.795
 1694TIP3    H1 5046   1.856   5.916   2.799
 1694TIP3    H2 5047   1.873   6.034   2.705
 1695TIP3   OH2 5048   7.116   3.406   2.194
 1695TIP3    H1 5049   7.170   3.404   2.115
 1695TIP3    H2 5050   7.161   3.469   2.251
 1696TIP3   OH2 5051   2.255   4.062   5.602
 1696TIP3    H1 5052   2.211   3.999   5.545
 1696TIP3    H2 5053   2.311   4.008   5.658
 1697TIP3   OH2 5054   5.862   6.550   2.304
 1697TIP3    H1 5055   5.769   6.570   2.307
 1697TIP3    H2 5056   5.867   6.468   2.255
 1698TIP3   OH2 5057   6.775   0.158   4.390
 1698TIP3    H1 5058   6.865   0.184   4.375
 1698TIP3    H2 5059   6.727   0.241   4.397
 1699TIP3   OH2 5060   0.475   6.806   3.887
 1699TIP3    H1 5061   0.436   6.732   3.934
 1699TIP3    H2 5062   0.409   6.831   3.823
 1700TIP3   OH2 5063   4.441   1.828   1.116
 1700TIP3    H1 5064   4.360   1.810   1.068
 1700TIP3    H2 5065   4.413   1.858   1.202
 1701TIP3   OH2 5066   6.702   5.480  -0.010
 1701TIP3    H1 5067   6.637   5.493   0.059
 1701TIP3    H2 5068   6.727   5.569  -0.036
 1702TIP3   OH2 5069   4.722   0.118   2.148
 1702TIP3    H1 5070   4.708   0.069   2.229
 1702TIP3    H2 5071   4.673   0.069   2.082
 1703TIP3   OH2 5072   0.268   0.618   1.368
 1703TIP3    H1 5073   0.235   0.673   1.298
 1703TIP3    H2 5074   0.217   0.642   1.445
 1704TIP3   OH2 5075   4.876   3.207   3.633
 1704TIP3    H1 5076   4.810   3.137   3.638
 1704TIP3    H2 5077   4.900   3.210   3.540
 1705TIP3   OH2 5078   2.048   0.901   1.888
 1705TIP3    H1 5079   2.079   0.811   1.903
 1705TIP3    H2 5080   1.997   0.895   1.808
 1706TIP3   OH2 5081   6.955   0.053   0.834
 1706TIP3    H1 5082   6.949   0.061   0.739
 1706TIP3    H2 5083   7.011   0.126   0.861
 1707TIP3   OH2 5084   0.902   0.483   4.552
 1707TIP3    H1 5085   0.969   0.509   4.489
 1707TIP3    H2 5086   0.914   0.389   4.564
 1708TIP3   OH2 5087   6.361   4.066   0.679
 1708TIP3    H1 5088   6.373   4.005   0.606
 1708TIP3    H2 5089   6.283   4.035   0.723
 1709TIP3   OH2 5090   3.023   4.871   3.876
 1709TIP3    H1 5091   2.990   4.816   3.805
 1709TIP3    H2 5092   2.947   4.920   3.907
 1710TIP3   OH2 5093   4.864   1.265   1.079
 1710TIP3    H1 5094   4.891   1.300   0.994
 1710TIP3    H2 5095   4.889   1.173   1.076
 1711TIP3   OH2 5096   6.959   3.720   3.389
 1711TIP3    H1 5097   6.909   3.761   3.460
 1711TIP3    H2 5098   7.040   3.771   3.385
 1712TIP3   OH2 5099   2.941   5.579  -0.005
 1712TIP3    H1 5100   3.013   5.580   0.058
 1712TIP3    H2 5101   2.979   5.616  -0.085
 1713TIP3   OH2 5102   4.318   5.228   0.743
 1713TIP3    H1 5103   4.348   5.289   0.675
 1713TIP3    H2 5104   4.228   5.256   0.761
 1714TIP3   OH2 5105   2.561   3.703   1.374
 1714TIP3    H1 5106   2.576   3.657   1.291
 1714TIP3    H2 5107   2.564   3.796   1.352
 1715TIP3   OH2 5108   6.785   1.796   3.678
 1715TIP3    H1 5109   6.839   1.717   3.671
 1715TIP3    H2 5110   6.845   1.863   3.710
 1716TIP3   OH2 5111   0.179   0.835   2.311
 1716TIP3    H1 5112   0.223   0.858   2.393
 1716TIP3    H2 5113   0.098   0.887   2.311
 1717TIP3   OH2 5114   2.081   5.535   1.108
 1717TIP3    H1 5115   2.176   5.548   1.114
 1717TIP3    H2 5116   2.045   5.597   1.172
 1718TIP3   OH2 5117   0.875   6.821   5.793
 1718TIP3    H1 5118   0.858   6.729   5.771
 1718TIP3    H2 5119   0.796   6.849   5.839
 1719TIP3   OH2 5120   5.283   2.589   0.754
 1719TIP3    H1 5121   5.235   2.543   0.685
 1719TIP3    H2 5122   5.215   2.627   0.809
 1720TIP3   OH2 5123   5.992   5.363   4.226
 1720TIP3    H1 5124   6.016   5.373   4.134
 1720TIP3    H2 5125   5.948   5.445   4.248
 1721TIP3   OH2 5126   3.139   3.298   4.936
 1721TIP3    H1 5127   3.220   3.248   4.945
 1721TIP3    H2 5128   3.143   3.363   5.007
 1722TIP3   OH2 5129   3.165   0.365   2.683
 1722TIP3    H1 5130   3.111   0.438   2.713
 1722TIP3    H2 5131   3.155   0.364   2.588
 1723TIP3   OH2 5132   2.599   3.351   0.088
 1723TIP3    H1 5133   2.520   3.307   0.055
 1723TIP3    H2 5134   2.566   3.410   0.157
 1724TIP3   OH2 5135   1.409   6.691   0.483
 1724TIP3    H1 5136   1.496   6.696   0.521
 1724TIP3    H2 5137   1.390   6.597   0.478
 1725TIP3   OH2 5138   5.538   4.285   0.997
 1725TIP3    H1 5139   5.463   4.228   0.982
 1725TIP3    H2 5140   5.588   4.242   1.067
 1726TIP3   OH2 5141   3.166   0.796   2.872
 1726TIP3    H1 5142   3.237   0.829   2.927
 1726TIP3    H2 5143   3.099   0.768   2.935
 1727TIP3   OH2 5144   1.740   5.480   1.290
 1727TIP3    H1 5145   1.645   5.465   1.292
 1727TIP3    H2 5146   1.751   5.561   1.240
 1728TIP3   OH2 5147   3.746   3.884   0.606
 1728TIP3    H1 5148   3.799   3.822   0.556
 1728TIP3    H2 5149   3.673   3.905   0.549
 1729TIP3   OH2 5150   0.354   1.470   3.348
 1729TIP3    H1 5151   0.351   1.376   3.362
 1729TIP3    H2 5152   0.423   1.483   3.283
 1730TIP3   OH2 5153   5.600   5.758   2.286
 1730TIP3    H1 5154   5.633   5.672   2.263
 1730TIP3    H2 5155   5.523   5.741   2.341
 1731TIP3   OH2 5156   2.138   1.625   1.889
 1731TIP3    H1 5157   2.217   1.575   1.869
 1731TIP3    H2 5158   2.161   1.676   1.967
 1732TIP3   OH2 5159   3.778   6.705   5.089
 1732TIP3    H1 5160   3.765   6.781   5.145
 1732TIP3    H2 5161   3.753   6.630   5.143
 1733TIP3   OH2 5162   6.726   0.683   4.449
 1733TIP3    H1 5163   6.737   0.588   4.443
 1733TIP3    H2 5164   6.696   0.699   4.538
 1734TIP3   OH2 5165   5.055   3.834   5.238
 1734TIP3    H1 5166   5.118   3.894   5.276
 1734TIP3    H2 5167   5.095   3.747   5.247
 1735TIP3   OH2 5168   4.713   1.002   0.539
 1735TIP3    H1 5169   4.641   0.940   0.528
 1735TIP3    H2 5170   4.792   0.949   0.532
 1736TIP3   OH2 5171   0.240   1.551   1.386
 1736TIP3    H1 5172   0.317   1.504   1.353
 1736TIP3    H2 5173   0.264   1.643   1.379
 1737TIP3   OH2 5174   2.470   0.611   5.628
 1737TIP3    H1 5175   2.455   0.641   5.539
 1737TIP3    H2 5176   2.561   0.636   5.647
 1738TIP3   OH2 5177   1.779   3.213   3.344
 1738TIP3    H1 5178   1.859   3.224   3.292
 1738TIP3    H2 5179   1.713   3.184   3.280
 1739TIP3   OH2 5180   2.191   0.702   5.377
 1739TIP3    H1 5181   2.238   0.752   5.311
 1739TIP3    H2 5182   2.184   0.614   5.340
 1740TIP3   OH2 5183   6.582   2.245   0.757
 1740TIP3    H1 5184   6.616   2.270   0.843
 1740TIP3    H2 5185   6.644   2.283   0.695
 1741TIP3   OH2 5186   5.095   5.883   3.542
 1741TIP3    H1 5187   5.118   5.919   3.628
 1741TIP3    H2 5188   5.059   5.796   3.561
 1742TIP3   OH2 5189   1.378   1.325   3.639
 1742TIP3    H1 5190   1.445   1.258   3.651
 1742TIP3    H2 5191   1.424   1.399   3.599
 1743TIP3   OH2 5192   1.466   2.580   0.570
 1743TIP3    H1 5193   1.456   2.591   0.475
 1743TIP3    H2 5194   1.384   2.538   0.597
 1744TIP3   OH2 5195   5.585   1.936   3.703
 1744TIP3    H1 5196   5.591   1.893   3.618
 1744TIP3    H2 5197   5.497   1.915   3.735
 1745TIP3   OH2 5198   6.625   2.873   3.740
 1745TIP3    H1 5199   6.580   2.909   3.664
 1745TIP3    H2 5200   6.652   2.949   3.791
 1746TIP3   OH2 5201   1.772   1.708   0.193
 1746TIP3    H1 5202   1.765   1.699   0.288
 1746TIP3    H2 5203   1.789   1.618   0.163
 1747TIP3   OH2 5204   1.151   1.063   1.459
 1747TIP3    H1 5205   1.090   1.068   1.386
 1747TIP3    H2 5206   1.103   1.099   1.534
 1748TIP3   OH2 5207   4.975   1.730   5.643
 1748TIP3    H1 5208   5.061   1.721   5.684
 1748TIP3    H2 5209   4.916   1.747   5.716
 1749TIP3   OH2 5210   3.447   3.199   0.550
 1749TIP3    H1 5211   3.463   3.190   0.644
 1749TIP3    H2 5212   3.518   3.257   0.520
 1750TIP3   OH2 5213   3.138   6.264   3.793
 1750TIP3    H1 5214   3.233   6.251   3.787
 1750TIP3    H2 5215   3.101   6.179   3.771
 1751TIP3   OH2 5216   1.375   0.475   5.864
 1751TIP3    H1 5217   1.378   0.549   5.804
 1751TIP3    H2 5218   1.362   0.399   5.807
 1752TIP3   OH2 5219   2.301   4.919   3.772
 1752TIP3    H1 5220   2.306   4.987   3.705
 1752TIP3    H2 5221   2.249   4.849   3.732
 1753TIP3   OH2 5222   1.368   0.912   1.225
 1753TIP3    H1 5223   1.287   0.897   1.274
 1753TIP3    H2 5224   1.358   0.860   1.146
 1754TIP3   OH2 5225   2.250   1.079   0.891
 1754TIP3    H1 5226   2.257   1.145   0.822
 1754TIP3    H2 5227   2.164   1.095   0.931
 1755TIP3   OH2 5228   0.302   6.702   2.851
 1755TIP3    H1 5229   0.332   6.673   2.937
 1755TIP3    H2 5230   0.372   6.675   2.791
 1756TIP3   OH2 5231   4.893   3.527   1.731
 1756TIP3    H1 5232   4.883   3.619   1.704
 1756TIP3    H2 5233   4.829   3.517   1.802
 1757TIP3   OH2 5234   2.046   0.512   3.447
 1757TIP3    H1 5235   2.109   0.536   3.380
 1757TIP3    H2 5236   2.038   0.417   3.439
 1758TIP3   OH2 5237   1.907   6.637   0.494
 1758TIP3    H1 5238   1.985   6.628   0.549
 1758TIP3    H2 5239   1.870   6.549   0.490
 1759TIP3   OH2 5240   1.703   2.676   2.382
 1759TIP3    H1 5241   1.745   2.658   2.466
 1759TIP3    H2 5242   1.741   2.612   2.321
 1760TIP3   OH2 5243   1.194   1.999   4.566
 1760TIP3    H1 5244   1.108   2.040   4.553
 1760TIP3    H2 5245   1.238   2.008   4.481
 1761TIP3   OH2 5246   1.739   5.604   2.137
 1761TIP3    H1 5247   1.655   5.586   2.093
 1761TIP3    H2 5248   1.794   5.530   2.114
 1762TIP3   OH2 5249   3.140   5.318   0.748
 1762TIP3    H1 5250   3.133   5.253   0.819
 1762TIP3    H2 5251   3.145   5.402   0.794
 1763TIP3   OH2 5252   6.316   5.567   4.230
 1763TIP3    H1 5253   6.277   5.488   4.270
 1763TIP3    H2 5254   6.379   5.597   4.295
 1764TIP3   OH2 5255   6.991   3.741   1.447
 1764TIP3    H1 5256   6.987   3.700   1.534
 1764TIP3    H2 5257   6.954   3.828   1.459
 1765TIP3   OH2 5258   5.696   4.365   5.227
 1765TIP3    H1 5259   5.789   4.363   5.249
 1765TIP3    H2 5260   5.653   4.331   5.306
 1766TIP3   OH2 5261   6.982   5.194   4.387
 1766TIP3    H1 5262   7.035   5.140   4.327
 1766TIP3    H2 5263   7.045   5.256   4.424
 1767TIP3   OH2 5264   2.387   1.958   3.753
 1767TIP3    H1 5265   2.414   1.881   3.803
 1767TIP3    H2 5266   2.320   1.925   3.694
 1768TIP3   OH2 5267   5.171   5.787   0.039
 1768TIP3    H1 5268   5.201   5.735  -0.036
 1768TIP3    H2 5269   5.115   5.855   0.000
 1769TIP3   OH2 5270   5.131   3.620   3.041
 1769TIP3    H1 5271   5.116   3.542   3.093
 1769TIP3    H2 5272   5.095   3.599   2.954
 1770TIP3   OH2 5273   3.077   1.222   5.767
 1770TIP3    H1 5274   3.095   1.136   5.727
 1770TIP3    H2 5275   3.142   1.280   5.728
 1771TIP3   OH2 5276   4.529   0.606   4.555
 1771TIP3    H1 5277   4.475   0.679   4.584
 1771TIP3    H2 5278   4.504   0.592   4.463
 1772TIP3   OH2 5279   3.733   5.853   1.024
 1772TIP3    H1 5280   3.659   5.898   0.984
 1772TIP3    H2 5281   3.789   5.922   1.058
 1773TIP3   OH2 5282   4.518   2.045   3.080
 1773TIP3    H1 5283   4.526   1.950   3.065
 1773TIP3    H2 5284   4.536   2.056   3.173
 1774TIP3   OH2 5285   5.888   3.691   1.717
 1774TIP3    H1 5286   5.959   3.653   1.665
 1774TIP3    H2 5287   5.914   3.781   1.731
 1775TIP3   OH2 5288   2.079   3.323   2.638
 1775TIP3    H1 5289   2.032   3.373   2.571
 1775TIP3    H2 5290   2.087   3.384   2.712
 1776TIP3   OH2 5291   2.206   4.480   5.804
 1776TIP3    H1 5292   2.121   4.501   5.767
 1776TIP3    H2 5293   2.247   4.566   5.820
 1777TIP3   OH2 5294   7.086   1.364   3.391
 1777TIP3    H1 5295   7.095   1.338   3.299
 1777TIP3    H2 5296   6.992   1.374   3.404
 1778TIP3   OH2 5297   0.975   0.136   0.639
 1778TIP3    H1 5298   0.912   0.081   0.592
 1778TIP3    H2 5299   1.018   0.187   0.570
 1779TIP3   OH2 5300   0.975   2.151   4.623
 1779TIP3    H1 5301   0.909   2.187   4.564
 1779TIP3    H2 5302   1.020   2.228   4.657
 1780TIP3   OH2 5303   6.847   5.300   5.463
 1780TIP3    H1 5304   6.942   5.305   5.477
 1780TIP3    H2 5305   6.838   5.247   5.384
 1781TIP3   OH2 5306   3.230   0.790   1.588
 1781TIP3    H1 5307   3.187   0.783   1.503
 1781TIP3    H2 5308   3.316   0.826   1.568
 1782TIP3   OH2 5309   0.965   0.942   0.759
 1782TIP3    H1 5310   1.059   0.941   0.742
 1782TIP3    H2 5311   0.943   1.035   0.767
 1783TIP3   OH2 5312   0.409   4.984   0.052
 1783TIP3    H1 5313   0.428   5.002  -0.040
 1783TIP3    H2 5314   0.410   4.888   0.059
 1784TIP3   OH2 5315   0.307   6.530   1.650
 1784TIP3    H1 5316   0.317   6.523   1.745
 1784TIP3    H2 5317   0.212   6.528   1.636
 1785TIP3   OH2 5318   4.682   4.709   1.972
 1785TIP3    H1 5319   4.728   4.688   2.054
 1785TIP3    H2 5320   4.716   4.795   1.948
 1786TIP3   OH2 5321   1.511   3.922   2.783
 1786TIP3    H1 5322   1.471   3.926   2.696
 1786TIP3    H2 5323   1.601   3.893   2.767
 1787TIP3   OH2 5324   5.021   2.973   0.242
 1787TIP3    H1 5325   4.973   2.892   0.229
 1787TIP3    H2 5326   4.985   3.034   0.178
 1788TIP3   OH2 5327   5.366   0.440   2.668
 1788TIP3    H1 5328   5.316   0.518   2.693
 1788TIP3    H2 5329   5.316   0.367   2.705
 1789TIP3   OH2 5330   5.934   4.841   2.874
 1789TIP3    H1 5331   6.011   4.809   2.920
 1789TIP3    H2 5332   5.957   4.834   2.781
 1790TIP3   OH2 5333   4.844   5.844   3.224
 1790TIP3    H1 5334   4.912   5.785   3.189
 1790TIP3    H2 5335   4.788   5.787   3.277
 1791TIP3   OH2 5336   4.536   6.322   0.977
 1791TIP3    H1 5337   4.502   6.244   0.933
 1791TIP3    H2 5338   4.525   6.392   0.912
 1792TIP3   OH2 5339   4.136   5.905   2.312
 1792TIP3    H1 5340   4.131   6.000   2.296
 1792TIP3    H2 5341   4.108   5.895   2.403
 1793TIP3   OH2 5342   1.390   0.528   0.881
 1793TIP3    H1 5343   1.324   0.461   0.896
 1793TIP3    H2 5344   1.420   0.514   0.791
 1794TIP3   OH2 5345   4.002   4.074   1.930
 1794TIP3    H1 5346   4.082   4.077   1.877
 1794TIP3    H2 5347   3.966   3.987   1.912
 1795TIP3   OH2 5348   4.088   1.420   4.227
 1795TIP3    H1 5349   4.023   1.408   4.296
 1795TIP3    H2 5350   4.134   1.336   4.223
 1796TIP3   OH2 5351   5.737   1.151   5.628
 1796TIP3    H1 5352   5.781   1.201   5.697
 1796TIP3    H2 5353   5.738   1.061   5.660
 1797TIP3   OH2 5354   0.144   5.065   3.940
 1797TIP3    H1 5355   0.172   5.116   3.864
 1797TIP3    H2 5356   0.054   5.093   3.956
 1798TIP3   OH2 5357   2.005   3.677   3.452
 1798TIP3    H1 5358   1.998   3.582   3.459
 1798TIP3    H2 5359   1.933   3.711   3.505
 1799TIP3   OH2 5360   3.081   4.516   5.338
 1799TIP3    H1 5361   3.134   4.542   5.263
 1799TIP3    H2 5362   2.997   4.560   5.326
 1800TIP3   OH2 5363   1.414   6.755   2.580
 1800TIP3    H1 5364   1.364   6.775   2.659
 1800TIP3    H2 5365   1.449   6.667   2.596
 1801TIP3   OH2 5366   6.368   0.949   3.766
 1801TIP3    H1 5367   6.436   0.885   3.788
 1801TIP3    H2 5368   6.350   0.934   3.674
 1802TIP3   OH2 5369   4.744   1.506   0.349
 1802TIP3    H1 5370   4.762   1.491   0.442
 1802TIP3    H2 5371   4.748   1.419   0.309
 1803TIP3   OH2 5372   2.023   6.296   3.711
 1803TIP3    H1 5373   2.024   6.247   3.793
 1803TIP3    H2 5374   2.018   6.229   3.642
 1804TIP3   OH2 5375   5.081   2.599   5.723
 1804TIP3    H1 5376   5.062   2.680   5.770
 1804TIP3    H2 5377   5.126   2.544   5.788
 1805TIP3   OH2 5378   5.150   4.643   2.644
 1805TIP3    H1 5379   5.099   4.598   2.712
 1805TIP3    H2 5380   5.186   4.572   2.590
 1806TIP3   OH2 5381   2.407   1.958   3.377
 1806TIP3    H1 5382   2.347   1.955   3.451
 1806TIP3    H2 5383   2.486   1.914   3.409
 1807TIP3   OH2 5384   4.334   0.950   4.832
 1807TIP3    H1 5385   4.275   0.906   4.894
 1807TIP3    H2 5386   4.308   1.042   4.836
 1808TIP3   OH2 5387   3.180   6.052   5.627
 1808TIP3    H1 5388   3.186   5.961   5.656
 1808TIP3    H2 5389   3.246   6.060   5.558
 1809TIP3   OH2 5390   0.395   5.746   5.666
 1809TIP3    H1 5391   0.409   5.671   5.724
 1809TIP3    H2 5392   0.467   5.806   5.686
 1810TIP3   OH2 5393   2.052   5.431   2.795
 1810TIP3    H1 5394   2.127   5.375   2.816
 1810TIP3    H2 5395   1.976   5.375   2.806
 1811TIP3   OH2 5396   1.265   2.294   1.521
 1811TIP3    H1 5397   1.351   2.253   1.514
 1811TIP3    H2 5398   1.282   2.380   1.557
 1812TIP3   OH2 5399   6.749   4.480   4.305
 1812TIP3    H1 5400   6.833   4.452   4.267
 1812TIP3    H2 5401   6.759   4.575   4.317
 1813TIP3   OH2 5402   0.475   3.656   4.184
 1813TIP3    H1 5403   0.473   3.746   4.151
 1813TIP3    H2 5404   0.428   3.606   4.117
 1814TIP3   OH2 5405   5.324   5.799   2.362
 1814TIP3    H1 5406   5.293   5.887   2.342
 1814TIP3    H2 5407   5.318   5.752   2.279
 1815TIP3   OH2 5408   1.629   3.279   4.686
 1815TIP3    H1 5409   1.577   3.325   4.753
 1815TIP3    H2 5410   1.564   3.226   4.639
 1816TIP3   OH2 5411   1.955   2.548   3.164
 1816TIP3    H1 5412   2.046   2.566   3.144
 1816TIP3    H2 5413   1.945   2.454   3.148
 1817TIP3   OH2 5414   1.170   1.449   1.141
 1817TIP3    H1 5415   1.261   1.420   1.129
 1817TIP3    H2 5416   1.156   1.512   1.070
 1818TIP3   OH2 5417   4.977   3.973   0.941
 1818TIP3    H1 5418   4.942   4.050   0.896
 1818TIP3    H2 5419   4.904   3.939   0.992
 1819TIP3   OH2 5420   1.542   6.250   4.633
 1819TIP3    H1 5421   1.570   6.297   4.712
 1819TIP3    H2 5422   1.598   6.172   4.630
 1820TIP3   OH2 5423   4.223   1.266   1.008
 1820TIP3    H1 5424   4.187   1.325   0.941
 1820TIP3    H2 5425   4.147   1.240   1.060
 1821TIP3   OH2 5426   1.201   5.740   0.375
 1821TIP3    H1 5427   1.133   5.793   0.334
 1821TIP3    H2 5428   1.154   5.680   0.433
 1822TIP3   OH2 5429   2.672   0.427   4.724
 1822TIP3    H1 5430   2.689   0.473   4.642
 1822TIP3    H2 5431   2.758   0.400   4.755
 1823TIP3   OH2 5432   4.679   3.676   2.827
 1823TIP3    H1 5433   4.737   3.679   2.751
 1823TIP3    H2 5434   4.733   3.704   2.900
 1824TIP3   OH2 5435   3.318   3.497   3.970
 1824TIP3    H1 5436   3.344   3.567   3.910
 1824TIP3    H2 5437   3.286   3.428   3.912
 1825TIP3   OH2 5438   6.315   0.603   4.076
 1825TIP3    H1 5439   6.260   0.674   4.042
 1825TIP3    H2 5440   6.254   0.532   4.095
 1826TIP3   OH2 5441   4.163   6.201   4.992
 1826TIP3    H1 5442   4.247   6.199   4.946
 1826TIP3    H2 5443   4.176   6.140   5.066
 1827TIP3   OH2 5444   4.450   3.355   3.427
 1827TIP3    H1 5445   4.492   3.340   3.512
 1827TIP3    H2 5446   4.523   3.371   3.367
 1828TIP3   OH2 5447   7.122   4.774   1.687
 1828TIP3    H1 5448   7.077   4.815   1.613
 1828TIP3    H2 5449   7.207   4.819   1.690
 1829TIP3   OH2 5450   6.738   2.324   5.824
 1829TIP3    H1 5451   6.736   2.255   5.890
 1829TIP3    H2 5452   6.753   2.277   5.741
 1830TIP3   OH2 5453   2.264   6.417   4.432
 1830TIP3    H1 5454   2.341   6.461   4.467
 1830TIP3    H2 5455   2.191   6.450   4.484
 1831TIP3   OH2 5456   5.420   6.291   0.966
 1831TIP3    H1 5457   5.367   6.267   1.041
 1831TIP3    H2 5458   5.395   6.228   0.898
 1832TIP3   OH2 5459   3.349   6.431   1.579
 1832TIP3    H1 5460   3.349   6.392   1.667
 1832TIP3    H2 5461   3.266   6.477   1.573
 1833TIP3   OH2 5462   2.184   0.544   5.628
 1833TIP3    H1 5463   2.160   0.606   5.697
 1833TIP3    H2 5464   2.271   0.572   5.600
 1834TIP3   OH2 5465   5.065   4.142   2.145
 1834TIP3    H1 5466   5.079   4.192   2.065
 1834TIP3    H2 5467   5.034   4.056   2.114
 1835TIP3   OH2 5468   2.035   2.520   2.891
 1835TIP3    H1 5469   2.087   2.589   2.850
 1835TIP3    H2 5470   2.097   2.448   2.904
 1836TIP3   OH2 5471   4.507   1.206   1.010
 1836TIP3    H1 5472   4.411   1.204   1.009
 1836TIP3    H2 5473   4.530   1.263   0.936
 1837TIP3   OH2 5474   2.450   1.293   4.554
 1837TIP3    H1 5475   2.440   1.383   4.523
 1837TIP3    H2 5476   2.368   1.273   4.598
 1838TIP3   OH2 5477   5.942   1.339   4.958
 1838TIP3    H1 5478   6.018   1.323   5.014
 1838TIP3    H2 5479   5.932   1.258   4.907
 1839TIP3   OH2 5480   2.794   4.793   2.402
 1839TIP3    H1 5481   2.723   4.807   2.465
 1839TIP3    H2 5482   2.843   4.719   2.438
 1840TIP3   OH2 5483   2.894   1.786   0.656
 1840TIP3    H1 5484   2.922   1.875   0.632
 1840TIP3    H2 5485   2.850   1.797   0.740
 1841TIP3   OH2 5486   6.708   2.260   1.722
 1841TIP3    H1 5487   6.700   2.229   1.812
 1841TIP3    H2 5488   6.802   2.268   1.707
 1842TIP3   OH2 5489   3.182   4.143   3.989
 1842TIP3    H1 5490   3.153   4.229   3.959
 1842TIP3    H2 5491   3.112   4.083   3.960
 1843TIP3   OH2 5492   0.709   0.421   1.512
 1843TIP3    H1 5493   0.628   0.378   1.541
 1843TIP3    H2 5494   0.690   0.449   1.423
 1844TIP3   OH2 5495   4.105   2.030   4.583
 1844TIP3    H1 5496   4.143   2.058   4.666
 1844TIP3    H2 5497   4.169   1.970   4.545
 1845TIP3   OH2 5498   0.029   3.881   3.156
 1845TIP3    H1 5499   0.085   3.803   3.151
 1845TIP3    H2 5500   0.058   3.936   3.083
 1846TIP3   OH2 5501   1.239   1.983   4.268
 1846TIP3    H1 5502   1.181   2.057   4.251
 1846TIP3    H2 5503   1.312   1.995   4.208
 1847TIP3   OH2 5504   1.731   1.061   1.162
 1847TIP3    H1 5505   1.674   1.052   1.086
 1847TIP3    H2 5506   1.783   0.981   1.162
 1848TIP3   OH2 5507   1.444   0.967   1.914
 1848TIP3    H1 5508   1.534   0.967   1.883
 1848TIP3    H2 5509   1.391   0.969   1.834
 1849TIP3   OH2 5510   3.921   4.955   3.436
 1849TIP3    H1 5511   4.006   4.925   3.468
 1849TIP3    H2 5512   3.942   5.011   3.361
 1850TIP3   OH2 5513   2.864   4.962   1.619
 1850TIP3    H1 5514   2.893   4.871   1.622
 1850TIP3    H2 5515   2.944   5.013   1.609
 1851TIP3   OH2 5516   0.314   6.632   3.117
 1851TIP3    H1 5517   0.218   6.628   3.120
 1851TIP3    H2 5518   0.341   6.641   3.208
 1852TIP3   OH2 5519   0.463   6.739   0.038
 1852TIP3    H1 5520   0.499   6.683  -0.030
 1852TIP3    H2 5521   0.538   6.786   0.073
 1853TIP3   OH2 5522   2.499   1.775   1.363
 1853TIP3    H1 5523   2.579   1.825   1.347
 1853TIP3    H2 5524   2.480   1.790   1.456
 1854TIP3   OH2 5525   0.598   1.193   1.965
 1854TIP3    H1 5526   0.640   1.188   2.051
 1854TIP3    H2 5527   0.524   1.252   1.978
 1855TIP3   OH2 5528   3.398   1.614   4.448
 1855TIP3    H1 5529   3.461   1.579   4.385
 1855TIP3    H2 5530   3.317   1.625   4.397
 1856TIP3   OH2 5531   6.955   0.901   1.820
 1856TIP3    H1 5532   6.994   0.827   1.773
 1856TIP3    H2 5533   6.898   0.861   1.885
 1857TIP3   OH2 5534   0.993   0.996   4.914
 1857TIP3    H1 5535   0.930   1.009   4.985
 1857TIP3    H2 5536   0.982   1.073   4.858
 1858TIP3   OH2 5537   1.182   6.724   5.152
 1858TIP3    H1 5538   1.107   6.718   5.212
 1858TIP3    H2 5539   1.242   6.786   5.195
 1859TIP3   OH2 5540   5.878   6.057   4.088
 1859TIP3    H1 5541   5.824   6.106   4.149
 1859TIP3    H2 5542   5.965   6.097   4.095
 1860TIP3   OH2 5543   4.221   2.603   3.545
 1860TIP3    H1 5544   4.249   2.615   3.636
 1860TIP3    H2 5545   4.214   2.692   3.510
 1861TIP3   OH2 5546   4.528   2.091   2.088
 1861TIP3    H1 5547   4.537   1.998   2.066
 1861TIP3    H2 5548   4.450   2.095   2.142
 1862TIP3   OH2 5549   6.627   5.694   5.529
 1862TIP3    H1 5550   6.679   5.733   5.459
 1862TIP3    H2 5551   6.666   5.728   5.610
 1863TIP3   OH2 5552   4.487   6.009   4.160
 1863TIP3    H1 5553   4.514   5.956   4.234
 1863TIP3    H2 5554   4.505   6.099   4.187
 1864TIP3   OH2 5555   3.936   3.495   2.321
 1864TIP3    H1 5556   3.941   3.480   2.416
 1864TIP3    H2 5557   4.017   3.458   2.286
 1865TIP3   OH2 5558   6.043   5.672   1.779
 1865TIP3    H1 5559   6.137   5.653   1.789
 1865TIP3    H2 5560   6.009   5.598   1.728
 1866TIP3   OH2 5561   1.032   2.981   3.805
 1866TIP3    H1 5562   0.973   3.034   3.751
 1866TIP3    H2 5563   0.994   2.984   3.893
 1867TIP3   OH2 5564   2.707   3.440   3.560
 1867TIP3    H1 5565   2.758   3.432   3.640
 1867TIP3    H2 5566   2.627   3.485   3.588
 1868TIP3   OH2 5567   3.692   5.351   0.272
 1868TIP3    H1 5568   3.721   5.420   0.212
 1868TIP3    H2 5569   3.735   5.272   0.240
 1869TIP3   OH2 5570   6.368   3.699   4.460
 1869TIP3    H1 5571   6.362   3.776   4.517
 1869TIP3    H2 5572   6.414   3.634   4.514
 1870TIP3   OH2 5573   0.327   4.744   5.198
 1870TIP3    H1 5574   0.298   4.686   5.127
 1870TIP3    H2 5575   0.405   4.787   5.163
 1871TIP3   OH2 5576   4.352   3.716   3.938
 1871TIP3    H1 5577   4.267   3.750   3.965
 1871TIP3    H2 5578   4.415   3.766   3.992
 1872TIP3   OH2 5579   6.858   4.710   2.188
 1872TIP3    H1 5580   6.851   4.658   2.108
 1872TIP3    H2 5581   6.947   4.745   2.187
 1873TIP3   OH2 5582   4.998   5.893   2.153
 1873TIP3    H1 5583   4.907   5.918   2.138
 1873TIP3    H2 5584   4.991   5.817   2.212
 1874TIP3   OH2 5585   1.775   2.162   2.294
 1874TIP3    H1 5586   1.784   2.105   2.370
 1874TIP3    H2 5587   1.690   2.137   2.256
 1875TIP3   OH2 5588   4.570   0.600   1.713
 1875TIP3    H1 5589   4.553   0.517   1.757
 1875TIP3    H2 5590   4.503   0.659   1.747
 1876TIP3   OH2 5591   2.129   2.699   0.326
 1876TIP3    H1 5592   2.179   2.628   0.285
 1876TIP3    H2 5593   2.192   2.771   0.334
 1877TIP3   OH2 5594   1.444   1.187   4.956
 1877TIP3    H1 5595   1.418   1.235   5.035
 1877TIP3    H2 5596   1.417   1.243   4.884
 1878TIP3   OH2 5597   6.798   2.468   2.010
 1878TIP3    H1 5598   6.822   2.555   2.039
 1878TIP3    H2 5599   6.868   2.411   2.041
 1879TIP3   OH2 5600   1.764   5.300   4.053
 1879TIP3    H1 5601   1.762   5.293   3.957
 1879TIP3    H2 5602   1.672   5.309   4.079
 1880TIP3   OH2 5603   5.768   3.468   0.471
 1880TIP3    H1 5604   5.743   3.556   0.441
 1880TIP3    H2 5605   5.844   3.483   0.527
 1881TIP3   OH2 5606   6.034   4.049   2.058
 1881TIP3    H1 5607   5.983   4.104   2.117
 1881TIP3    H2 5608   5.972   3.981   2.029
 1882TIP3   OH2 5609   6.111   6.583   3.555
 1882TIP3    H1 5610   6.088   6.507   3.502
 1882TIP3    H2 5611   6.194   6.559   3.595
 1883TIP3   OH2 5612   4.886   5.476   0.497
 1883TIP3    H1 5613   4.855   5.544   0.436
 1883TIP3    H2 5614   4.806   5.434   0.528
 1884TIP3   OH2 5615   0.694   0.390   5.415
 1884TIP3    H1 5616   0.607   0.430   5.422
 1884TIP3    H2 5617   0.738   0.438   5.345
 1885TIP3   OH2 5618   4.009   2.034   1.232
 1885TIP3    H1 5619   3.998   2.026   1.137
 1885TIP3    H2 5620   4.097   2.071   1.243
 1886TIP3   OH2 5621   3.855   1.058   3.364
 1886TIP3    H1 5622   3.843   1.038   3.271
 1886TIP3    H2 5623   3.949   1.065   3.376
 1887TIP3   OH2 5624   0.485   0.304   1.610
 1887TIP3    H1 5625   0.459   0.372   1.672
 1887TIP3    H2 5626   0.402   0.263   1.583
 1888TIP3   OH2 5627   1.918   5.799   3.166
 1888TIP3    H1 5628   1.879   5.721   3.126
 1888TIP3    H2 5629   1.967   5.839   3.094
 1889TIP3   OH2 5630   4.621   2.097   4.172
 1889TIP3    H1 5631   4.626   2.192   4.158
 1889TIP3    H2 5632   4.592   2.062   4.088
 1890TIP3   OH2 5633   5.492   4.300   0.072
 1890TIP3    H1 5634   5.550   4.345   0.010
 1890TIP3    H2 5635   5.428   4.254   0.017
 1891TIP3   OH2 5636   4.734   2.345   5.457
 1891TIP3    H1 5637   4.707   2.401   5.384
 1891TIP3    H2 5638   4.652   2.321   5.500
 1892TIP3   OH2 5639   4.145   0.819   5.910
 1892TIP3    H1 5640   4.130   0.880   5.838
 1892TIP3    H2 5641   4.100   0.858   5.985
 1893TIP3   OH2 5642   3.432   3.332   3.381
 1893TIP3    H1 5643   3.457   3.392   3.312
 1893TIP3    H2 5644   3.504   3.334   3.444
 1894TIP3   OH2 5645   6.236   3.363   3.122
 1894TIP3    H1 5646   6.326   3.389   3.144
 1894TIP3    H2 5647   6.229   3.377   3.028
 1895TIP3   OH2 5648   5.779   2.961   0.870
 1895TIP3    H1 5649   5.766   2.940   0.963
 1895TIP3    H2 5650   5.767   2.878   0.824
 1896TIP3   OH2 5651   5.346   4.751   1.937
 1896TIP3    H1 5652   5.381   4.816   1.877
 1896TIP3    H2 5653   5.405   4.676   1.929
 1897TIP3   OH2 5654   0.933   3.771   5.347
 1897TIP3    H1 5655   0.948   3.799   5.257
 1897TIP3    H2 5656   0.881   3.691   5.338
 1898TIP3   OH2 5657   4.794   3.435   0.013
 1898TIP3    H1 5658   4.702   3.459   0.020
 1898TIP3    H2 5659   4.841   3.506   0.058
 1899TIP3   OH2 5660   1.829   2.115   4.248
 1899TIP3    H1 5661   1.841   2.186   4.186
 1899TIP3    H2 5662   1.859   2.037   4.201
 1900TIP3   OH2 5663   3.577   1.225   3.148
 1900TIP3    H1 5664   3.551   1.219   3.240
 1900TIP3    H2 5665   3.563   1.137   3.113
 1901TIP3   OH2 5666   0.546   5.595   3.016
 1901TIP3    H1 5667   0.626   5.615   2.967
 1901TIP3    H2 5668   0.564   5.624   3.105
 1902TIP3   OH2 5669   1.832   6.379   0.513
 1902TIP3    H1 5670   1.769   6.317   0.476
 1902TIP3    H2 5671   1.915   6.331   0.515
 1903TIP3   OH2 5672   1.158   0.887   2.013
 1903TIP3    H1 5673   1.086   0.942   2.042
 1903TIP3    H2 5674   1.218   0.883   2.088
 1904TIP3   OH2 5675   7.198   5.504   4.046
 1904TIP3    H1 5676   7.119   5.450   4.054
 1904TIP3    H2 5677   7.222   5.497   3.954
 1905TIP3   OH2 5678   0.975   0.322   1.407
 1905TIP3    H1 5679   0.883   0.318   1.433
 1905TIP3    H2 5680   1.003   0.410   1.432
 1906TIP3   OH2 5681   2.313   2.473   0.241
 1906TIP3    H1 5682   2.241   2.435   0.191
 1906TIP3    H2 5683   2.370   2.511   0.175
 1907TIP3   OH2 5684   3.462   6.731   4.646
 1907TIP3    H1 5685   3.535   6.741   4.707
 1907TIP3    H2 5686   3.421   6.817   4.642
 1908TIP3   OH2 5687   2.542   6.100   0.225
 1908TIP3    H1 5688   2.555   6.013   0.186
 1908TIP3    H2 5689   2.458   6.094   0.271
 1909TIP3   OH2 5690   5.370   1.063   0.755
 1909TIP3    H1 5691   5.404   1.015   0.680
 1909TIP3    H2 5692   5.438   1.127   0.777
 1910TIP3   OH2 5693   6.383   4.633   1.516
 1910TIP3    H1 5694   6.359   4.543   1.493
 1910TIP3    H2 5695   6.421   4.669   1.435
 1911TIP3   OH2 5696   4.983   6.503   0.607
 1911TIP3    H1 5697   5.049   6.450   0.561
 1911TIP3    H2 5698   4.999   6.486   0.700
 1912TIP3   OH2 5699   4.070   5.616   3.622
 1912TIP3    H1 5700   4.012   5.682   3.660
 1912TIP3    H2 5701   4.029   5.533   3.646
 1913TIP3   OH2 5702   6.109   0.169   5.548
 1913TIP3    H1 5703   6.112   0.245   5.606
 1913TIP3    H2 5704   6.041   0.190   5.484
 1914TIP3   OH2 5705   6.762   4.478   3.338
 1914TIP3    H1 5706   6.776   4.387   3.312
 1914TIP3    H2 5707   6.715   4.472   3.421
 1915TIP3   OH2 5708   1.301   4.584   1.434
 1915TIP3    H1 5709   1.388   4.611   1.463
 1915TIP3    H2 5710   1.315   4.541   1.350
 1916TIP3   OH2 5711   3.485   4.934   4.428
 1916TIP3    H1 5712   3.543   4.954   4.354
 1916TIP3    H2 5713   3.528   4.974   4.503
 1917TIP3   OH2 5714   3.396   4.018   0.224
 1917TIP3    H1 5715   3.436   4.051   0.143
 1917TIP3    H2 5716   3.342   3.945   0.196
 1918TIP3   OH2 5717   5.341   4.959   3.563
 1918TIP3    H1 5718   5.310   4.976   3.474
 1918TIP3    H2 5719   5.367   5.044   3.597
 1919TIP3   OH2 5720   6.185   4.489   5.260
 1919TIP3    H1 5721   6.156   4.449   5.178
 1919TIP3    H2 5722   6.275   4.457   5.271
 1920TIP3   OH2 5723   2.086   3.735   4.538
 1920TIP3    H1 5724   2.129   3.804   4.589
 1920TIP3    H2 5725   2.107   3.655   4.586
 1921TIP3   OH2 5726   3.070   5.516   2.930
 1921TIP3    H1 5727   3.145   5.512   2.870
 1921TIP3    H2 5728   3.107   5.495   3.016
 1922TIP3   OH2 5729   0.529   6.172   0.137
 1922TIP3    H1 5730   0.562   6.261   0.145
 1922TIP3    H2 5731   0.518   6.142   0.227
 1923TIP3   OH2 5732   2.409   4.092   0.535
 1923TIP3    H1 5733   2.357   4.013   0.522
 1923TIP3    H2 5734   2.458   4.102   0.453
 1924TIP3   OH2 5735   1.634   5.563   3.632
 1924TIP3    H1 5736   1.670   5.642   3.672
 1924TIP3    H2 5737   1.592   5.594   3.552
 1925TIP3   OH2 5738   2.783   0.882   5.420
 1925TIP3    H1 5739   2.747   0.926   5.344
 1925TIP3    H2 5740   2.877   0.873   5.402
 1926TIP3   OH2 5741   1.909   3.322   3.994
 1926TIP3    H1 5742   1.848   3.259   3.955
 1926TIP3    H2 5743   1.867   3.347   4.076
 1927TIP3   OH2 5744   5.044   6.296   3.699
 1927TIP3    H1 5745   5.021   6.302   3.607
 1927TIP3    H2 5746   4.964   6.267   3.743
 1928TIP3   OH2 5747   0.294   2.190   2.703
 1928TIP3    H1 5748   0.334   2.273   2.728
 1928TIP3    H2 5749   0.205   2.195   2.738
 1929TIP3   OH2 5750   3.814   1.109   2.753
 1929TIP3    H1 5751   3.764   1.069   2.824
 1929TIP3    H2 5752   3.796   1.053   2.677
 1930TIP3   OH2 5753   5.550   3.335   5.001
 1930TIP3    H1 5754   5.627   3.322   5.055
 1930TIP3    H2 5755   5.584   3.369   4.918
 1931TIP3   OH2 5756   1.007   6.017   1.601
 1931TIP3    H1 5757   1.064   6.027   1.524
 1931TIP3    H2 5758   1.031   5.932   1.637
 1932TIP3   OH2 5759   4.417   2.435   0.641
 1932TIP3    H1 5760   4.381   2.359   0.688
 1932TIP3    H2 5761   4.342   2.490   0.623
 1933TIP3   OH2 5762   5.706   3.716   0.401
 1933TIP3    H1 5763   5.733   3.728   0.309
 1933TIP3    H2 5764   5.737   3.795   0.445
 1934TIP3   OH2 5765   0.216   2.198   0.805
 1934TIP3    H1 5766   0.140   2.140   0.799
 1934TIP3    H2 5767   0.198   2.268   0.742
 1935TIP3   OH2 5768   0.603   3.721   2.404
 1935TIP3    H1 5769   0.661   3.791   2.374
 1935TIP3    H2 5770   0.547   3.763   2.470
 1936TIP3   OH2 5771   3.746   5.822   2.124
 1936TIP3    H1 5772   3.801   5.744   2.136
 1936TIP3    H2 5773   3.683   5.796   2.056
 1937TIP3   OH2 5774   4.363   3.246   4.392
 1937TIP3    H1 5775   4.359   3.207   4.305
 1937TIP3    H2 5776   4.442   3.209   4.432
 1938TIP3   OH2 5777   3.786   0.979   0.412
 1938TIP3    H1 5778   3.739   0.896   0.416
 1938TIP3    H2 5779   3.836   0.982   0.494
 1939TIP3   OH2 5780   5.431   1.362   0.343
 1939TIP3    H1 5781   5.364   1.304   0.379
 1939TIP3    H2 5782   5.479   1.306   0.281
 1940TIP3   OH2 5783   5.928   5.195   5.456
 1940TIP3    H1 5784   5.859   5.134   5.431
 1940TIP3    H2 5785   5.980   5.147   5.520
 1941TIP3   OH2 5786   6.985   1.078   3.179
 1941TIP3    H1 5787   6.969   1.052   3.269
 1941TIP3    H2 5788   6.972   1.173   3.179
 1942TIP3   OH2 5789   1.373   1.347   5.177
 1942TIP3    H1 5790   1.292   1.355   5.228
 1942TIP3    H2 5791   1.443   1.355   5.242
 1943TIP3   OH2 5792   3.163   3.892   0.178
 1943TIP3    H1 5793   3.092   3.954   0.165
 1943TIP3    H2 5794   3.156   3.831   0.104
 1944TIP3   OH2 5795   7.145   1.276   4.969
 1944TIP3    H1 5796   7.094   1.269   5.050
 1944TIP3    H2 5797   7.202   1.199   4.970
 1945TIP3   OH2 5798   6.836   6.418   3.230
 1945TIP3    H1 5799   6.773   6.467   3.177
 1945TIP3    H2 5800   6.863   6.345   3.173
 1946TIP3   OH2 5801   0.360   1.291   2.627
 1946TIP3    H1 5802   0.419   1.300   2.553
 1946TIP3    H2 5803   0.417   1.283   2.703
 1947TIP3   OH2 5804   0.236   2.044   2.118
 1947TIP3    H1 5805   0.323   2.067   2.149
 1947TIP3    H2 5806   0.176   2.086   2.180
 1948TIP3   OH2 5807   3.279   5.203   0.291
 1948TIP3    H1 5808   3.347   5.179   0.227
 1948TIP3    H2 5809   3.215   5.254   0.240
 1949TIP3   OH2 5810   3.332   5.315   4.828
 1949TIP3    H1 5811   3.256   5.373   4.837
 1949TIP3    H2 5812   3.408   5.374   4.829
 1950TIP3   OH2 5813   5.135   1.863   2.346
 1950TIP3    H1 5814   5.206   1.927   2.341
 1950TIP3    H2 5815   5.112   1.846   2.255
 1951TIP3   OH2 5816   4.901   1.743   2.444
 1951TIP3    H1 5817   4.991   1.777   2.445
 1951TIP3    H2 5818   4.911   1.653   2.412
 1952TIP3   OH2 5819   0.564   2.830   3.481
 1952TIP3    H1 5820   0.535   2.809   3.570
 1952TIP3    H2 5821   0.484   2.837   3.431
 1953TIP3   OH2 5822   1.758   0.309   4.086
 1953TIP3    H1 5823   1.707   0.383   4.053
 1953TIP3    H2 5824   1.804   0.344   4.163
 1954TIP3   OH2 5825   7.090   3.902   3.975
 1954TIP3    H1 5826   7.089   3.867   4.064
 1954TIP3    H2 5827   7.181   3.891   3.946
 1955TIP3   OH2 5828   7.205   0.728   3.534
 1955TIP3    H1 5829   7.289   0.682   3.530
 1955TIP3    H2 5830   7.140   0.658   3.539
 1956TIP3   OH2 5831   5.346   3.915   1.284
 1956TIP3    H1 5832   5.351   3.820   1.283
 1956TIP3    H2 5833   5.317   3.939   1.196
 1957TIP3   OH2 5834   6.967   4.309   1.329
 1957TIP3    H1 5835   6.877   4.339   1.342
 1957TIP3    H2 5836   6.971   4.283   1.237
 1958TIP3   OH2 5837   2.507   0.226   4.625
 1958TIP3    H1 5838   2.516   0.249   4.533
 1958TIP3    H2 5839   2.548   0.298   4.673
 1959TIP3   OH2 5840   5.375   0.275   3.682
 1959TIP3    H1 5841   5.452   0.320   3.716
 1959TIP3    H2 5842   5.400   0.182   3.682
 1960TIP3   OH2 5843   4.873   3.811   1.728
 1960TIP3    H1 5844   4.820   3.891   1.736
 1960TIP3    H2 5845   4.950   3.838   1.678
 1961TIP3   OH2 5846   5.174   4.751   3.218
 1961TIP3    H1 5847   5.189   4.696   3.295
 1961TIP3    H2 5848   5.103   4.809   3.243
 1962TIP3   OH2 5849   6.362   2.366   3.210
 1962TIP3    H1 5850   6.288   2.350   3.269
 1962TIP3    H2 5851   6.363   2.461   3.198
 1963TIP3   OH2 5852   5.126   5.933   5.106
 1963TIP3    H1 5853   5.105   5.870   5.175
 1963TIP3    H2 5854   5.067   5.911   5.035
 1964TIP3   OH2 5855   2.047   1.564   1.221
 1964TIP3    H1 5856   2.084   1.648   1.246
 1964TIP3    H2 5857   2.069   1.555   1.128
 1965TIP3   OH2 5858   6.593   3.677   0.658
 1965TIP3    H1 5859   6.618   3.721   0.577
 1965TIP3    H2 5860   6.574   3.748   0.720
 1966TIP3   OH2 5861   0.519   6.214   5.755
 1966TIP3    H1 5862   0.526   6.133   5.705
 1966TIP3    H2 5863   0.440   6.257   5.721
 1967TIP3   OH2 5864   0.157   2.822   1.431
 1967TIP3    H1 5865   0.125   2.912   1.428
 1967TIP3    H2 5866   0.248   2.829   1.400
 1968TIP3   OH2 5867   5.238   4.414   1.547
 1968TIP3    H1 5868   5.315   4.467   1.566
 1968TIP3    H2 5869   5.195   4.458   1.474
 1969TIP3   OH2 5870   1.379   5.694   4.655
 1969TIP3    H1 5871   1.328   5.644   4.719
 1969TIP3    H2 5872   1.402   5.630   4.588
 1970TIP3   OH2 5873   1.163   0.456   1.916
 1970TIP3    H1 5874   1.243   0.473   1.966
 1970TIP3    H2 5875   1.141   0.365   1.937
 1971TIP3   OH2 5876   5.972   2.463   0.652
 1971TIP3    H1 5877   6.025   2.541   0.671
 1971TIP3    H2 5878   6.034   2.402   0.613
 1972TIP3   OH2 5879   2.755   6.689   0.907
 1972TIP3    H1 5880   2.668   6.703   0.869
 1972TIP3    H2 5881   2.738   6.664   0.998
 1973TIP3   OH2 5882   3.641   2.038   0.601
 1973TIP3    H1 5883   3.561   2.088   0.619
 1973TIP3    H2 5884   3.663   2.059   0.511
 1974TIP3   OH2 5885   0.759   2.345   0.226
 1974TIP3    H1 5886   0.818   2.415   0.254
 1974TIP3    H2 5887   0.793   2.266   0.268
 1975TIP3   OH2 5888   2.201   1.855   3.560
 1975TIP3    H1 5889   2.105   1.851   3.563
 1975TIP3    H2 5890   2.228   1.763   3.552
 1976TIP3   OH2 5891   0.501   1.718   3.241
 1976TIP3    H1 5892   0.480   1.671   3.322
 1976TIP3    H2 5893   0.478   1.657   3.171
 1977TIP3   OH2 5894   3.296   0.534   4.814
 1977TIP3    H1 5895   3.216   0.579   4.842
 1977TIP3    H2 5896   3.282   0.443   4.837
 1978TIP3   OH2 5897   4.622   5.548   4.828
 1978TIP3    H1 5898   4.606   5.559   4.922
 1978TIP3    H2 5899   4.702   5.598   4.812
 1979TIP3   OH2 5900   0.292   2.528   2.571
 1979TIP3    H1 5901   0.211   2.569   2.600
 1979TIP3    H2 5902   0.360   2.592   2.590
 1980TIP3   OH2 5903   3.825   4.819   4.395
 1980TIP3    H1 5904   3.915   4.848   4.383
 1980TIP3    H2 5905   3.772   4.896   4.373
 1981TIP3   OH2 5906   1.597   6.743   4.257
 1981TIP3    H1 5907   1.523   6.745   4.318
 1981TIP3    H2 5908   1.671   6.713   4.310
 1982TIP3   OH2 5909   4.994   0.750   1.080
 1982TIP3    H1 5910   4.900   0.766   1.089
 1982TIP3    H2 5911   5.032   0.786   1.160
 1983TIP3   OH2 5912   2.941   1.573   5.588
 1983TIP3    H1 5913   3.013   1.511   5.603
 1983TIP3    H2 5914   2.880   1.558   5.661
 1984TIP3   OH2 5915   1.046   3.272   3.567
 1984TIP3    H1 5916   0.992   3.247   3.641
 1984TIP3    H2 5917   1.080   3.188   3.533
 1985TIP3   OH2 5918   0.613   3.437   0.758
 1985TIP3    H1 5919   0.573   3.491   0.690
 1985TIP3    H2 5920   0.546   3.371   0.779
 1986TIP3   OH2 5921   2.917   2.004   1.686
 1986TIP3    H1 5922   2.898   1.911   1.698
 1986TIP3    H2 5923   2.976   2.007   1.610
 1987TIP3   OH2 5924   3.701   2.138   1.159
 1987TIP3    H1 5925   3.610   2.157   1.136
 1987TIP3    H2 5926   3.748   2.138   1.076
 1988TIP3   OH2 5927   0.988   6.269   4.726
 1988TIP3    H1 5928   1.021   6.335   4.664
 1988TIP3    H2 5929   0.909   6.308   4.763
 1989TIP3   OH2 5930   5.854   0.630   4.373
 1989TIP3    H1 5931   5.898   0.715   4.368
 1989TIP3    H2 5932   5.798   0.628   4.295
 1990TIP3   OH2 5933   4.561   3.135   4.162
 1990TIP3    H1 5934   4.638   3.191   4.151
 1990TIP3    H2 5935   4.555   3.120   4.257
 1991TIP3   OH2 5936   3.399   4.475   0.582
 1991TIP3    H1 5937   3.474   4.434   0.625
 1991TIP3    H2 5938   3.383   4.555   0.632
 1992TIP3   OH2 5939   4.356   5.334   2.317
 1992TIP3    H1 5940   4.403   5.257   2.348
 1992TIP3    H2 5941   4.372   5.401   2.383
 1993TIP3   OH2 5942   1.388   6.122   0.254
 1993TIP3    H1 5943   1.473   6.160   0.277
 1993TIP3    H2 5944   1.409   6.037   0.216
 1994TIP3   OH2 5945   3.633   4.246   5.077
 1994TIP3    H1 5946   3.714   4.294   5.061
 1994TIP3    H2 5947   3.569   4.288   5.019
 1995TIP3   OH2 5948   3.918   5.038   1.563
 1995TIP3    H1 5949   3.984   5.035   1.493
 1995TIP3    H2 5950   3.836   5.059   1.519
 1996TIP3   OH2 5951   4.991   0.276   5.240
 1996TIP3    H1 5952   4.896   0.282   5.252
 1996TIP3    H2 5953   5.016   0.200   5.293
 1997TIP3   OH2 5954   6.337   6.763   2.151
 1997TIP3    H1 5955   6.368   6.837   2.203
 1997TIP3    H2 5956   6.248   6.787   2.126
 1998TIP3   OH2 5957   0.678   0.044   5.224
 1998TIP3    H1 5958   0.750   0.100   5.253
 1998TIP3    H2 5959   0.598   0.092   5.249
 1999TIP3   OH2 5960   3.321   3.505   2.111
 1999TIP3    H1 5961   3.251   3.558   2.148
 1999TIP3    H2 5962   3.317   3.520   2.017
 2000TIP3   OH2 5963   4.867   5.118   0.318
 2000TIP3    H1 5964   4.821   5.184   0.267
 2000TIP3    H2 5965   4.954   5.112   0.278
 2001TIP3   OH2 5966   2.130   0.117   5.405
 2001TIP3    H1 5967   2.081   0.089   5.482
 2001TIP3    H2 5968   2.139   0.038   5.351
 2002TIP3   OH2 5969   3.150   0.069   4.343
 2002TIP3    H1 5970   3.225   0.013   4.323
 2002TIP3    H2 5971   3.141   0.126   4.266
 2003TIP3   OH2 5972   3.432   0.536   0.243
 2003TIP3    H1 5973   3.372   0.610   0.229
 2003TIP3    H2 5974   3.429   0.488   0.160
 2004TIP3   OH2 5975   5.289   4.820  -0.059
 2004TIP3    H1 5976   5.341   4.743  -0.084
 2004TIP3    H2 5977   5.266   4.805   0.032
 2005TIP3   OH2 5978   2.702   0.321   0.241
 2005TIP3    H1 5979   2.698   0.360   0.153
 2005TIP3    H2 5980   2.648   0.378   0.295
 2006TIP3   OH2 5981   7.086   5.100   3.923
 2006TIP3    H1 5982   7.083   5.031   3.988
 2006TIP3    H2 5983   7.028   5.070   3.853
 2007TIP3   OH2 5984   0.261   3.486   4.843
 2007TIP3    H1 5985   0.278   3.568   4.796
 2007TIP3    H2 5986   0.330   3.481   4.908
 2008TIP3   OH2 5987   0.776   0.190   3.931
 2008TIP3    H1 5988   0.815   0.270   3.965
 2008TIP3    H2 5989   0.758   0.137   4.009
 2009TIP3   OH2 5990   4.399   4.661   2.297
 2009TIP3    H1 5991   4.357   4.596   2.241
 2009TIP3    H2 5992   4.342   4.738   2.289
 2010TIP3   OH2 5993   6.133   3.265   4.491
 2010TIP3    H1 5994   6.118   3.319   4.413
 2010TIP3    H2 5995   6.221   3.290   4.520
 2011TIP3   OH2 5996   0.471   0.493   1.015
 2011TIP3    H1 5997   0.524   0.437   0.958
 2011TIP3    H2 5998   0.390   0.506   0.967
 2012TIP3   OH2 5999   1.259   1.264   0.528
 2012TIP3    H1 6000   1.280   1.192   0.469
 2012TIP3    H2 6001   1.336   1.273   0.584
 2013TIP3   OH2 6002   4.986   6.557   2.160
 2013TIP3    H1 6003   5.040   6.520   2.229
 2013TIP3    H2 6004   4.951   6.638   2.197
 2014TIP3   OH2 6005   3.836   6.742   2.689
 2014TIP3    H1 6006   3.761   6.689   2.716
 2014TIP3    H2 6007   3.798   6.810   2.633
 2015TIP3   OH2 6008   2.035   6.802   5.017
 2015TIP3    H1 6009   2.066   6.733   5.076
 2015TIP3    H2 6010   1.973   6.757   4.959
 2016TIP3   OH2 6011   5.666   3.418   1.118
 2016TIP3    H1 6012   5.662   3.347   1.055
 2016TIP3    H2 6013   5.744   3.400   1.171
 2017TIP3   OH2 6014   4.631   2.379   4.070
 2017TIP3    H1 6015   4.605   2.391   3.978
 2017TIP3    H2 6016   4.604   2.460   4.113
 2018TIP3   OH2 6017   7.165   6.346   3.250
 2018TIP3    H1 6018   7.243   6.386   3.211
 2018TIP3    H2 6019   7.129   6.415   3.306
 2019TIP3   OH2 6020   3.958   3.074   2.966
 2019TIP3    H1 6021   4.009   3.023   2.903
 2019TIP3    H2 6022   3.912   3.008   3.018
 2020TIP3   OH2 6023   2.352   4.056   1.644
 2020TIP3    H1 6024   2.354   4.142   1.604
 2020TIP3    H2 6025   2.297   4.003   1.586
 2021TIP3   OH2 6026   5.273   3.439   4.711
 2021TIP3    H1 6027   5.182   3.418   4.734
 2021TIP3    H2 6028   5.309   3.358   4.676
 2022TIP3   OH2 6029   5.067   3.191   1.253
 2022TIP3    H1 6030   5.003   3.126   1.222
 2022TIP3    H2 6031   5.085   3.246   1.177
 2023TIP3   OH2 6032   3.579   4.932   5.608
 2023TIP3    H1 6033   3.496   4.952   5.651
 2023TIP3    H2 6034   3.637   5.005   5.632
 2024TIP3   OH2 6035   1.186   4.079   3.280
 2024TIP3    H1 6036   1.271   4.086   3.237
 2024TIP3    H2 6037   1.206   4.057   3.370
 2025TIP3   OH2 6038   3.133   5.870   4.137
 2025TIP3    H1 6039   3.051   5.902   4.174
 2025TIP3    H2 6040   3.197   5.938   4.157
 2026TIP3   OH2 6041   0.924   5.230   3.454
 2026TIP3    H1 6042   0.960   5.303   3.505
 2026TIP3    H2 6043   0.987   5.216   3.384
 2027TIP3   OH2 6044   4.358   3.707   5.336
 2027TIP3    H1 6045   4.385   3.797   5.358
 2027TIP3    H2 6046   4.440   3.662   5.317
 2028TIP3   OH2 6047   0.691   4.091   0.523
 2028TIP3    H1 6048   0.711   4.042   0.443
 2028TIP3    H2 6049   0.642   4.167   0.493
 2029TIP3   OH2 6050   6.014   5.275   1.948
 2029TIP3    H1 6051   6.058   5.298   1.867
 2029TIP3    H2 6052   5.999   5.358   1.992
 2030TIP3   OH2 6053   0.571   3.982   1.809
 2030TIP3    H1 6054   0.568   3.949   1.899
 2030TIP3    H2 6055   0.571   4.077   1.818
 2031TIP3   OH2 6056   5.596   1.191   4.952
 2031TIP3    H1 6057   5.654   1.203   5.027
 2031TIP3    H2 6058   5.547   1.112   4.973
 2032TIP3   OH2 6059   5.130   1.156   1.499
 2032TIP3    H1 6060   5.127   1.068   1.537
 2032TIP3    H2 6061   5.213   1.193   1.529
 2033TIP3   OH2 6062   2.400   4.274   1.287
 2033TIP3    H1 6063   2.402   4.356   1.336
 2033TIP3    H2 6064   2.407   4.205   1.354
 2034TIP3   OH2 6065   4.619   5.966   4.724
 2034TIP3    H1 6066   4.691   5.947   4.785
 2034TIP3    H2 6067   4.574   5.882   4.713
 2035TIP3   OH2 6068   6.670   0.780   2.810
 2035TIP3    H1 6069   6.690   0.836   2.735
 2035TIP3    H2 6070   6.749   0.727   2.822
 2036TIP3   OH2 6071   0.954   6.787   0.302
 2036TIP3    H1 6072   1.009   6.840   0.361
 2036TIP3    H2 6073   1.001   6.704   0.293
 2037TIP3   OH2 6074   1.801   3.145   0.848
 2037TIP3    H1 6075   1.791   3.145   0.752
 2037TIP3    H2 6076   1.728   3.093   0.880
 2038TIP3   OH2 6077   2.739   3.417   5.065
 2038TIP3    H1 6078   2.778   3.331   5.050
 2038TIP3    H2 6079   2.813   3.471   5.094
 2039TIP3   OH2 6080   2.924   2.038   0.134
 2039TIP3    H1 6081   2.905   2.128   0.162
 2039TIP3    H2 6082   2.858   2.018   0.068
 2040TIP3   OH2 6083   6.283   0.307   5.365
 2040TIP3    H1 6084   6.362   0.361   5.365
 2040TIP3    H2 6085   6.298   0.243   5.435
 2041TIP3   OH2 6086   5.915   6.192   5.482
 2041TIP3    H1 6087   5.909   6.207   5.577
 2041TIP3    H2 6088   5.890   6.275   5.443
 2042TIP3   OH2 6089   3.898   2.034   5.745
 2042TIP3    H1 6090   3.928   2.047   5.656
 2042TIP3    H2 6091   3.975   2.001   5.792
 2043TIP3   OH2 6092   0.630   4.256   1.797
 2043TIP3    H1 6093   0.600   4.325   1.855
 2043TIP3    H2 6094   0.644   4.299   1.713
 2044TIP3   OH2 6095   4.684   2.899   0.100
 2044TIP3    H1 6096   4.671   2.964   0.169
 2044TIP3    H2 6097   4.684   2.949   0.019
 2045TIP3   OH2 6098   6.194   5.330   4.400
 2045TIP3    H1 6099   6.161   5.290   4.481
 2045TIP3    H2 6100   6.117   5.332   4.342
 2046TIP3   OH2 6101   5.844   6.636   1.109
 2046TIP3    H1 6102   5.906   6.669   1.043
 2046TIP3    H2 6103   5.836   6.543   1.088
 2047TIP3   OH2 6104   1.317   3.116   4.869
 2047TIP3    H1 6105   1.239   3.094   4.921
 2047TIP3    H2 6106   1.292   3.196   4.822
 2048TIP3   OH2 6107   0.637   1.253   4.911
 2048TIP3    H1 6108   0.629   1.175   4.856
 2048TIP3    H2 6109   0.546   1.275   4.933
 2049TIP3   OH2 6110   1.221   3.621   0.795
 2049TIP3    H1 6111   1.223   3.713   0.769
 2049TIP3    H2 6112   1.165   3.579   0.730
 2050TIP3   OH2 6113   6.419   4.310   2.657
 2050TIP3    H1 6114   6.500   4.349   2.690
 2050TIP3    H2 6115   6.448   4.238   2.600
 2051TIP3   OH2 6116   2.778   1.087   2.836
 2051TIP3    H1 6117   2.734   1.011   2.874
 2051TIP3    H2 6118   2.715   1.158   2.847
 2052TIP3   OH2 6119   1.711   3.578   3.102
 2052TIP3    H1 6120   1.619   3.560   3.119
 2052TIP3    H2 6121   1.755   3.555   3.184
 2053TIP3   OH2 6122   0.434   0.908   3.123
 2053TIP3    H1 6123   0.456   0.870   3.038
 2053TIP3    H2 6124   0.476   0.852   3.187
 2054TIP3   OH2 6125   0.650   1.076   5.668
 2054TIP3    H1 6126   0.632   1.026   5.589
 2054TIP3    H2 6127   0.737   1.047   5.695
 2055TIP3   OH2 6128   0.814   1.636   2.315
 2055TIP3    H1 6129   0.893   1.607   2.271
 2055TIP3    H2 6130   0.801   1.726   2.286
 2056TIP3   OH2 6131   3.578   5.124   5.117
 2056TIP3    H1 6132   3.643   5.062   5.151
 2056TIP3    H2 6133   3.522   5.143   5.192
 2057TIP3   OH2 6134   3.820   1.514   4.786
 2057TIP3    H1 6135   3.801   1.451   4.716
 2057TIP3    H2 6136   3.747   1.503   4.848
 2058TIP3   OH2 6137   3.632   5.094   1.036
 2058TIP3    H1 6138   3.622   5.154   1.109
 2058TIP3    H2 6139   3.611   5.146   0.958
 2059TIP3   OH2 6140   2.358   1.853   4.114
 2059TIP3    H1 6141   2.417   1.913   4.159
 2059TIP3    H2 6142   2.410   1.773   4.101
 2060TIP3   OH2 6143   5.767   3.812   5.656
 2060TIP3    H1 6144   5.673   3.812   5.643
 2060TIP3    H2 6145   5.786   3.898   5.694
 2061TIP3   OH2 6146   4.492   5.043   4.223
 2061TIP3    H1 6147   4.447   5.126   4.205
 2061TIP3    H2 6148   4.568   5.069   4.276
 2062TIP3   OH2 6149   0.921   2.685   0.907
 2062TIP3    H1 6150   0.918   2.693   0.812
 2062TIP3    H2 6151   0.953   2.770   0.937
 2063TIP3   OH2 6152   4.249   4.828   4.968
 2063TIP3    H1 6153   4.314   4.874   5.022
 2063TIP3    H2 6154   4.283   4.739   4.961
 2064TIP3   OH2 6155   4.257   3.756   0.618
 2064TIP3    H1 6156   4.320   3.828   0.629
 2064TIP3    H2 6157   4.178   3.787   0.662
 2065TIP3   OH2 6158   0.307   3.531   1.160
 2065TIP3    H1 6159   0.301   3.603   1.097
 2065TIP3    H2 6160   0.295   3.572   1.245
 2066TIP3   OH2 6161   6.059   2.959   4.100
 2066TIP3    H1 6162   6.043   2.946   4.006
 2066TIP3    H2 6163   6.015   3.042   4.119
 2067TIP3   OH2 6164   3.628   0.053   1.219
 2067TIP3    H1 6165   3.584   0.136   1.202
 2067TIP3    H2 6166   3.565   0.003   1.271
 2068TIP3   OH2 6167   2.503   0.782   3.754
 2068TIP3    H1 6168   2.539   0.865   3.785
 2068TIP3    H2 6169   2.423   0.770   3.805
 2069TIP3   OH2 6170   1.841   1.445   0.167
 2069TIP3    H1 6171   1.910   1.388   0.200
 2069TIP3    H2 6172   1.852   1.443   0.072
 2070TIP3   OH2 6173   5.814   3.813   5.267
 2070TIP3    H1 6174   5.824   3.907   5.279
 2070TIP3    H2 6175   5.754   3.804   5.194
 2071TIP3   OH2 6176   6.691   2.121   2.321
 2071TIP3    H1 6177   6.708   2.078   2.237
 2071TIP3    H2 6178   6.687   2.049   2.384
 2072TIP3   OH2 6179   5.089   1.624   0.989
 2072TIP3    H1 6180   5.028   1.608   0.917
 2072TIP3    H2 6181   5.082   1.718   1.006
 2073TIP3   OH2 6182   0.618   2.330   5.582
 2073TIP3    H1 6183   0.651   2.249   5.543
 2073TIP3    H2 6184   0.620   2.393   5.510
 2074TIP3   OH2 6185   6.348   1.234   3.256
 2074TIP3    H1 6186   6.363   1.151   3.210
 2074TIP3    H2 6187   6.410   1.232   3.329
 2075TIP3   OH2 6188   4.019   0.260   4.357
 2075TIP3    H1 6189   4.017   0.167   4.378
 2075TIP3    H2 6190   4.112   0.284   4.358
 2076TIP3   OH2 6191   7.130   4.170   4.408
 2076TIP3    H1 6192   7.184   4.235   4.363
 2076TIP3    H2 6193   7.101   4.214   4.488
 2077TIP3   OH2 6194   0.138   3.864   3.887
 2077TIP3    H1 6195   0.208   3.805   3.915
 2077TIP3    H2 6196   0.166   3.951   3.916
 2078TIP3   OH2 6197   2.903   4.350   4.691
 2078TIP3    H1 6198   2.967   4.296   4.644
 2078TIP3    H2 6199   2.880   4.298   4.768
 2079TIP3   OH2 6200   0.132   5.369   5.684
 2079TIP3    H1 6201   0.087   5.427   5.745
 2079TIP3    H2 6202   0.100   5.396   5.598
 2080TIP3   OH2 6203   4.787   5.545   3.144
 2080TIP3    H1 6204   4.775   5.530   3.050
 2080TIP3    H2 6205   4.874   5.583   3.152
 2081TIP3   OH2 6206   3.777   2.374   5.087
 2081TIP3    H1 6207   3.755   2.314   5.158
 2081TIP3    H2 6208   3.846   2.431   5.123
 2082TIP3   OH2 6209   6.377   1.335   1.946
 2082TIP3    H1 6210   6.317   1.409   1.959
 2082TIP3    H2 6211   6.411   1.316   2.033
 2083TIP3   OH2 6212   6.207   2.570   5.274
 2083TIP3    H1 6213   6.247   2.510   5.337
 2083TIP3    H2 6214   6.243   2.656   5.297
 2084TIP3   OH2 6215   0.597   0.315   0.812
 2084TIP3    H1 6216   0.689   0.291   0.822
 2084TIP3    H2 6217   0.549   0.237   0.841
 2085TIP3   OH2 6218   5.086   1.270   2.775
 2085TIP3    H1 6219   5.111   1.229   2.692
 2085TIP3    H2 6220   5.147   1.343   2.785
 2086TIP3   OH2 6221   1.788   4.400   2.438
 2086TIP3    H1 6222   1.852   4.374   2.371
 2086TIP3    H2 6223   1.831   4.472   2.485
 2087TIP3   OH2 6224   6.741   2.430   0.576
 2087TIP3    H1 6225   6.821   2.441   0.626
 2087TIP3    H2 6226   6.758   2.356   0.518
 2088TIP3   OH2 6227   0.701   0.612   2.614
 2088TIP3    H1 6228   0.770   0.675   2.594
 2088TIP3    H2 6229   0.648   0.653   2.682
 2089TIP3   OH2 6230   6.716   1.112   4.898
 2089TIP3    H1 6231   6.798   1.100   4.849
 2089TIP3    H2 6232   6.648   1.076   4.841
 2090TIP3   OH2 6233   3.845   6.153   1.613
 2090TIP3    H1 6234   3.913   6.190   1.558
 2090TIP3    H2 6235   3.771   6.213   1.604
 2091TIP3   OH2 6236   6.786   1.446   4.777
 2091TIP3    H1 6237   6.799   1.384   4.849
 2091TIP3    H2 6238   6.828   1.527   4.808
 2092TIP3   OH2 6239   1.766   4.985   3.306
 2092TIP3    H1 6240   1.735   5.075   3.290
 2092TIP3    H2 6241   1.686   4.932   3.300
 2093TIP3   OH2 6242   6.954   4.141   3.412
 2093TIP3    H1 6243   6.979   4.210   3.350
 2093TIP3    H2 6244   7.010   4.067   3.391
 2094TIP3   OH2 6245   2.713   1.036   5.174
 2094TIP3    H1 6246   2.786   1.095   5.158
 2094TIP3    H2 6247   2.641   1.072   5.121
 2095TIP3   OH2 6248   0.783   0.396   3.162
 2095TIP3    H1 6249   0.759   0.432   3.077
 2095TIP3    H2 6250   0.735   0.449   3.225
 2096TIP3   OH2 6251   4.590   6.299   0.135
 2096TIP3    H1 6252   4.548   6.285   0.219
 2096TIP3    H2 6253   4.581   6.393   0.118
 2097TIP3   OH2 6254   1.088   1.412   3.741
 2097TIP3    H1 6255   1.027   1.431   3.669
 2097TIP3    H2 6256   1.107   1.497   3.780
 2098TIP3   OH2 6257   4.137   2.608   1.250
 2098TIP3    H1 6258   4.083   2.683   1.276
 2098TIP3    H2 6259   4.156   2.563   1.332
 2099TIP3   OH2 6260   1.502   3.549   0.880
 2099TIP3    H1 6261   1.550   3.536   0.962
 2099TIP3    H2 6262   1.416   3.581   0.908
 2100TIP3   OH2 6263   2.501   1.381   3.796
 2100TIP3    H1 6264   2.551   1.391   3.715
 2100TIP3    H2 6265   2.562   1.406   3.865
 2101TIP3   OH2 6266   0.552   0.723   5.652
 2101TIP3    H1 6267   0.640   0.695   5.677
 2101TIP3    H2 6268   0.531   0.793   5.713
 2102TIP3   OH2 6269   0.671   6.604   1.863
 2102TIP3    H1 6270   0.615   6.593   1.940
 2102TIP3    H2 6271   0.638   6.539   1.800
 2103TIP3   OH2 6272   1.814   3.707   3.972
 2103TIP3    H1 6273   1.881   3.644   3.945
 2103TIP3    H2 6274   1.732   3.659   3.967
 2104TIP3   OH2 6275   5.520   1.117   0.197
 2104TIP3    H1 6276   5.522   1.027   0.165
 2104TIP3    H2 6277   5.604   1.154   0.169
 2105TIP3   OH2 6278   1.295   0.338   3.042
 2105TIP3    H1 6279   1.223   0.294   2.996
 2105TIP3    H2 6280   1.335   0.394   2.975
 2106TIP3   OH2 6281   5.424   0.414   2.966
 2106TIP3    H1 6282   5.502   0.470   2.964
 2106TIP3    H2 6283   5.455   0.329   2.995
 2107TIP3   OH2 6284   3.626   4.814   0.699
 2107TIP3    H1 6285   3.545   4.765   0.712
 2107TIP3    H2 6286   3.604   4.879   0.633
 2108TIP3   OH2 6287   3.423   5.258   5.568
 2108TIP3    H1 6288   3.482   5.327   5.598
 2108TIP3    H2 6289   3.409   5.203   5.645
 2109TIP3   OH2 6290   5.576   2.718   4.330
 2109TIP3    H1 6291   5.532   2.681   4.406
 2109TIP3    H2 6292   5.566   2.813   4.340
 2110TIP3   OH2 6293   1.484   3.356   4.910
 2110TIP3    H1 6294   1.405   3.376   4.959
 2110TIP3    H2 6295   1.543   3.315   4.973
 2111TIP3   OH2 6296   0.633   2.464   3.574
 2111TIP3    H1 6297   0.582   2.516   3.635
 2111TIP3    H2 6298   0.708   2.519   3.552
 2112TIP3   OH2 6299   4.016   4.582   3.403
 2112TIP3    H1 6300   3.967   4.610   3.327
 2112TIP3    H2 6301   4.060   4.501   3.376
 2113TIP3   OH2 6302   6.921   0.311   1.758
 2113TIP3    H1 6303   6.867   0.385   1.731
 2113TIP3    H2 6304   6.876   0.276   1.835
 2114TIP3   OH2 6305   4.221   5.274   0.322
 2114TIP3    H1 6306   4.193   5.247   0.234
 2114TIP3    H2 6307   4.167   5.222   0.381
 2115TIP3   OH2 6308   3.109   0.669   4.185
 2115TIP3    H1 6309   3.110   0.649   4.279
 2115TIP3    H2 6310   3.154   0.753   4.179
 2116TIP3   OH2 6311   6.491   4.983   0.272
 2116TIP3    H1 6312   6.506   4.987   0.178
 2116TIP3    H2 6313   6.416   5.040   0.286
 2117TIP3   OH2 6314   0.912   2.349   5.503
 2117TIP3    H1 6315   0.877   2.358   5.414
 2117TIP3    H2 6316   0.997   2.308   5.490
 2118TIP3   OH2 6317   4.233   1.229   4.510
 2118TIP3    H1 6318   4.219   1.288   4.584
 2118TIP3    H2 6319   4.162   1.250   4.449
 2119TIP3   OH2 6320   5.693   4.381   2.754
 2119TIP3    H1 6321   5.598   4.370   2.745
 2119TIP3    H2 6322   5.705   4.407   2.845
 2120TIP3   OH2 6323   5.476   2.758   0.934
 2120TIP3    H1 6324   5.449   2.668   0.916
 2120TIP3    H2 6325   5.559   2.750   0.981
 2121TIP3   OH2 6326   3.859   0.842   4.073
 2121TIP3    H1 6327   3.934   0.791   4.103
 2121TIP3    H2 6328   3.788   0.818   4.133
 2122TIP3   OH2 6329   4.537   3.402   3.671
 2122TIP3    H1 6330   4.556   3.327   3.727
 2122TIP3    H2 6331   4.595   3.471   3.703
 2123TIP3   OH2 6332   0.870   4.746   3.183
 2123TIP3    H1 6333   0.837   4.689   3.252
 2123TIP3    H2 6334   0.902   4.824   3.230
 2124TIP3   OH2 6335   3.369   0.036   4.933
 2124TIP3    H1 6336   3.304   0.107   4.941
 2124TIP3    H2 6337   3.421   0.042   5.013
 2125TIP3   OH2 6338   3.535   1.561   2.480
 2125TIP3    H1 6339   3.463   1.510   2.517
 2125TIP3    H2 6340   3.496   1.644   2.456
 2126TIP3   OH2 6341   1.896   6.077   1.634
 2126TIP3    H1 6342   1.856   6.004   1.588
 2126TIP3    H2 6343   1.866   6.069   1.724
 2127TIP3   OH2 6344   1.562   6.007   1.956
 2127TIP3    H1 6345   1.649   6.008   1.995
 2127TIP3    H2 6346   1.545   6.098   1.932
 2128TIP3   OH2 6347   2.237   6.220   4.902
 2128TIP3    H1 6348   2.265   6.180   4.985
 2128TIP3    H2 6349   2.187   6.151   4.859
 2129TIP3   OH2 6350   0.799   6.518   0.037
 2129TIP3    H1 6351   0.728   6.488   0.094
 2129TIP3    H2 6352   0.851   6.440   0.021
 2130TIP3   OH2 6353   4.894   1.246   1.387
 2130TIP3    H1 6354   4.833   1.190   1.435
 2130TIP3    H2 6355   4.977   1.199   1.390
 2131TIP3   OH2 6356   2.719   6.192   2.850
 2131TIP3    H1 6357   2.805   6.234   2.848
 2131TIP3    H2 6358   2.682   6.209   2.763
 2132TIP3   OH2 6359   1.981   2.380   3.846
 2132TIP3    H1 6360   2.043   2.325   3.797
 2132TIP3    H2 6361   2.002   2.470   3.819
 2133TIP3   OH2 6362   1.285   6.041   5.691
 2133TIP3    H1 6363   1.379   6.035   5.671
 2133TIP3    H2 6364   1.279   6.113   5.754
 2134TIP3   OH2 6365   3.683   2.476   0.603
 2134TIP3    H1 6366   3.598   2.432   0.595
 2134TIP3    H2 6367   3.717   2.446   0.688
 2135TIP3   OH2 6368   7.231   4.467   5.487
 2135TIP3    H1 6369   7.224   4.519   5.406
 2135TIP3    H2 6370   7.326   4.456   5.499
 2136TIP3   OH2 6371   5.399   5.577   3.750
 2136TIP3    H1 6372   5.486   5.583   3.789
 2136TIP3    H2 6373   5.415   5.561   3.657
 2137TIP3   OH2 6374   2.487   2.833   3.194
 2137TIP3    H1 6375   2.426   2.759   3.190
 2137TIP3    H2 6376   2.573   2.794   3.186
 2138TIP3   OH2 6377   3.100   6.572   5.649
 2138TIP3    H1 6378   3.072   6.578   5.557
 2138TIP3    H2 6379   3.020   6.585   5.699
 2139TIP3   OH2 6380   0.213   0.653   2.669
 2139TIP3    H1 6381   0.282   0.712   2.700
 2139TIP3    H2 6382   0.260   0.576   2.636
 2140TIP3   OH2 6383   6.502   0.086   5.753
 2140TIP3    H1 6384   6.566   0.049   5.815
 2140TIP3    H2 6385   6.473   0.167   5.794
 2141TIP3   OH2 6386   1.528   1.967   3.546
 2141TIP3    H1 6387   1.517   2.035   3.611
 2141TIP3    H2 6388   1.505   2.008   3.463
 2142TIP3   OH2 6389   3.223   6.702   4.106
 2142TIP3    H1 6390   3.186   6.614   4.100
 2142TIP3    H2 6391   3.198   6.744   4.024
 2143TIP3   OH2 6392   4.210   5.939   3.201
 2143TIP3    H1 6393   4.146   5.897   3.143
 2143TIP3    H2 6394   4.158   5.970   3.275
 2144TIP3   OH2 6395   6.483   4.326   1.973
 2144TIP3    H1 6396   6.493   4.406   2.025
 2144TIP3    H2 6397   6.564   4.277   1.988
 2145TIP3   OH2 6398   2.395   6.435   0.615
 2145TIP3    H1 6399   2.370   6.498   0.548
 2145TIP3    H2 6400   2.426   6.358   0.566
 2146TIP3   OH2 6401   4.389   1.832   3.372
 2146TIP3    H1 6402   4.448   1.843   3.447
 2146TIP3    H2 6403   4.371   1.922   3.343
 2147TIP3   OH2 6404   6.614   6.157   4.428
 2147TIP3    H1 6405   6.534   6.110   4.403
 2147TIP3    H2 6406   6.653   6.183   4.345
 2148TIP3   OH2 6407   7.076   6.547   1.729
 2148TIP3    H1 6408   7.079   6.499   1.646
 2148TIP3    H2 6409   6.988   6.582   1.734
 2149TIP3   OH2 6410   0.126   3.122   5.684
 2149TIP3    H1 6411   0.154   3.053   5.623
 2149TIP3    H2 6412   0.068   3.177   5.633
 2150TIP3   OH2 6413   2.280   0.065   2.969
 2150TIP3    H1 6414   2.196   0.098   2.936
 2150TIP3    H2 6415   2.259   0.026   3.053
 2151TIP3   OH2 6416   0.170   1.633   3.462
 2151TIP3    H1 6417   0.222   1.562   3.425
 2151TIP3    H2 6418   0.218   1.713   3.439
 2152TIP3   OH2 6419   4.803   1.698   0.177
 2152TIP3    H1 6420   4.767   1.627   0.230
 2152TIP3    H2 6421   4.895   1.702   0.202
 2153TIP3   OH2 6422   6.288   5.887   3.159
 2153TIP3    H1 6423   6.260   5.835   3.234
 2153TIP3    H2 6424   6.343   5.828   3.108
 2154TIP3   OH2 6425   7.032   4.353   3.249
 2154TIP3    H1 6426   7.124   4.328   3.255
 2154TIP3    H2 6427   7.032   4.448   3.244
 2155TIP3   OH2 6428   6.779   3.565   5.097
 2155TIP3    H1 6429   6.817   3.627   5.035
 2155TIP3    H2 6430   6.722   3.509   5.044
 2156TIP3   OH2 6431   6.631   6.459   4.554
 2156TIP3    H1 6432   6.558   6.398   4.550
 2156TIP3    H2 6433   6.703   6.408   4.591
 2157TIP3   OH2 6434   3.801   0.196   0.676
 2157TIP3    H1 6435   3.897   0.204   0.678
 2157TIP3    H2 6436   3.782   0.122   0.733
 2158TIP3   OH2 6437   1.065   6.191   2.547
 2158TIP3    H1 6438   1.098   6.180   2.458
 2158TIP3    H2 6439   1.143   6.191   2.602
 2159TIP3   OH2 6440   5.468   0.601   4.156
 2159TIP3    H1 6441   5.421   0.563   4.082
 2159TIP3    H2 6442   5.490   0.526   4.212
 2160TIP3   OH2 6443   4.539   1.817   0.234
 2160TIP3    H1 6444   4.525   1.747   0.170
 2160TIP3    H2 6445   4.615   1.789   0.284
 2161TIP3   OH2 6446   4.218   5.109   4.752
 2161TIP3    H1 6447   4.230   5.061   4.834
 2161TIP3    H2 6448   4.134   5.076   4.718
 2162TIP3   OH2 6449   6.343   0.739   0.304
 2162TIP3    H1 6450   6.318   0.729   0.396
 2162TIP3    H2 6451   6.334   0.652   0.266
 2163TIP3   OH2 6452   1.965   2.262   3.122
 2163TIP3    H1 6453   2.044   2.215   3.096
 2163TIP3    H2 6454   1.965   2.257   3.218
 2164TIP3   OH2 6455   2.467   4.805   5.632
 2164TIP3    H1 6456   2.401   4.827   5.566
 2164TIP3    H2 6457   2.520   4.737   5.591
 2165TIP3   OH2 6458   2.102   4.843   0.093
 2165TIP3    H1 6459   2.013   4.822   0.065
 2165TIP3    H2 6460   2.110   4.937   0.082
 2166TIP3   OH2 6461   3.013   1.735   3.148
 2166TIP3    H1 6462   3.095   1.694   3.175
 2166TIP3    H2 6463   2.988   1.791   3.222
 2167TIP3   OH2 6464   1.663   4.965   3.765
 2167TIP3    H1 6465   1.598   5.027   3.798
 2167TIP3    H2 6466   1.744   4.989   3.810
 2168TIP3   OH2 6467   3.510   0.289   1.046
 2168TIP3    H1 6468   3.578   0.280   0.979
 2168TIP3    H2 6469   3.428   0.290   0.996
 2169TIP3   OH2 6470   5.956   0.750   5.825
 2169TIP3    H1 6471   6.019   0.742   5.754
 2169TIP3    H2 6472   5.877   0.785   5.783
 2170TIP3   OH2 6473   2.130   5.198   0.266
 2170TIP3    H1 6474   2.136   5.181   0.172
 2170TIP3    H2 6475   2.044   5.164   0.292
 2171TIP3   OH2 6476   2.446   5.848   3.243
 2171TIP3    H1 6477   2.534   5.811   3.236
 2171TIP3    H2 6478   2.447   5.923   3.184
 2172TIP3   OH2 6479   6.405   2.029   4.128
 2172TIP3    H1 6480   6.410   2.061   4.038
 2172TIP3    H2 6481   6.314   2.041   4.153
 2173TIP3   OH2 6482   2.688   5.579   0.947
 2173TIP3    H1 6483   2.703   5.494   0.905
 2173TIP3    H2 6484   2.620   5.561   1.012
 2174TIP3   OH2 6485   6.131   2.163   2.770
 2174TIP3    H1 6486   6.127   2.085   2.715
 2174TIP3    H2 6487   6.096   2.233   2.715
 2175TIP3   OH2 6488   4.211   4.841   5.773
 2175TIP3    H1 6489   4.222   4.779   5.701
 2175TIP3    H2 6490   4.145   4.903   5.741
 2176TIP3   OH2 6491   0.774   1.220   0.878
 2176TIP3    H1 6492   0.751   1.164   0.952
 2176TIP3    H2 6493   0.869   1.227   0.881
 2177TIP3   OH2 6494   1.208   3.993   2.300
 2177TIP3    H1 6495   1.120   4.015   2.269
 2177TIP3    H2 6496   1.222   4.050   2.375
 2178TIP3   OH2 6497   2.564   1.352   2.972
 2178TIP3    H1 6498   2.475   1.316   2.974
 2178TIP3    H2 6499   2.568   1.402   2.891
 2179TIP3   OH2 6500   6.612   3.520   4.293
 2179TIP3    H1 6501   6.603   3.446   4.353
 2179TIP3    H2 6502   6.686   3.570   4.327
 2180TIP3   OH2 6503   2.690   0.396   5.544
 2180TIP3    H1 6504   2.732   0.458   5.485
 2180TIP3    H2 6505   2.606   0.376   5.504
 2181TIP3   OH2 6506   6.165   2.646   0.743
 2181TIP3    H1 6507   6.251   2.603   0.743
 2181TIP3    H2 6508   6.138   2.645   0.835
 2182TIP3   OH2 6509   6.031   6.340   3.868
 2182TIP3    H1 6510   6.113   6.389   3.872
 2182TIP3    H2 6511   5.985   6.377   3.792
 2183TIP3   OH2 6512   4.579   3.866   5.116
 2183TIP3    H1 6513   4.582   3.950   5.072
 2183TIP3    H2 6514   4.638   3.876   5.191
 2184TIP3   OH2 6515   5.321   3.268   1.423
 2184TIP3    H1 6516   5.311   3.276   1.518
 2184TIP3    H2 6517   5.231   3.266   1.390
 2185TIP3   OH2 6518   4.233   1.819   4.793
 2185TIP3    H1 6519   4.159   1.767   4.762
 2185TIP3    H2 6520   4.307   1.758   4.796
 2186TIP3   OH2 6521   1.107   1.860   5.083
 2186TIP3    H1 6522   1.188   1.815   5.106
 2186TIP3    H2 6523   1.128   1.909   5.003
 2187TIP3   OH2 6524   3.428   6.048   5.053
 2187TIP3    H1 6525   3.470   5.975   5.008
 2187TIP3    H2 6526   3.493   6.118   5.052
 2188TIP3   OH2 6527   4.077   3.106   0.389
 2188TIP3    H1 6528   4.011   3.055   0.436
 2188TIP3    H2 6529   4.057   3.197   0.413
 2189TIP3   OH2 6530   6.782   6.737   1.208
 2189TIP3    H1 6531   6.865   6.689   1.210
 2189TIP3    H2 6532   6.717   6.673   1.180
 2190TIP3   OH2 6533   1.726   5.698   1.124
 2190TIP3    H1 6534   1.728   5.772   1.064
 2190TIP3    H2 6535   1.716   5.622   1.067
 2191TIP3   OH2 6536   1.428   1.241   4.019
 2191TIP3    H1 6537   1.381   1.223   4.100
 2191TIP3    H2 6538   1.390   1.181   3.955
 2192TIP3   OH2 6539   6.932   5.479   2.325
 2192TIP3    H1 6540   6.984   5.417   2.273
 2192TIP3    H2 6541   6.976   5.481   2.410
 2193TIP3   OH2 6542   5.787   6.323   0.336
 2193TIP3    H1 6543   5.785   6.416   0.311
 2193TIP3    H2 6544   5.727   6.280   0.275
 2194TIP3   OH2 6545   4.335   6.144   0.556
 2194TIP3    H1 6546   4.336   6.048   0.552
 2194TIP3    H2 6547   4.314   6.164   0.648
 2195TIP3   OH2 6548   5.783   6.703   3.174
 2195TIP3    H1 6549   5.740   6.788   3.182
 2195TIP3    H2 6550   5.796   6.692   3.080
 2196TIP3   OH2 6551   0.317   0.829   0.741
 2196TIP3    H1 6552   0.303   0.882   0.662
 2196TIP3    H2 6553   0.307   0.891   0.814
 2197TIP3   OH2 6554   5.627   4.125   1.776
 2197TIP3    H1 6555   5.659   4.123   1.686
 2197TIP3    H2 6556   5.662   4.207   1.812
 2198TIP3   OH2 6557   4.914   5.131   0.947
 2198TIP3    H1 6558   4.918   5.210   1.000
 2198TIP3    H2 6559   5.005   5.106   0.934
 2199TIP3   OH2 6560   2.839   2.506   3.570
 2199TIP3    H1 6561   2.747   2.485   3.588
 2199TIP3    H2 6562   2.882   2.503   3.655
 2200TIP3   OH2 6563   0.542   6.438   4.211
 2200TIP3    H1 6564   0.534   6.533   4.206
 2200TIP3    H2 6565   0.452   6.406   4.207
 2201TIP3   OH2 6566   3.458   3.338   2.286
 2201TIP3    H1 6567   3.487   3.257   2.244
 2201TIP3    H2 6568   3.403   3.381   2.220
 2202TIP3   OH2 6569   0.274   6.288   2.782
 2202TIP3    H1 6570   0.350   6.341   2.804
 2202TIP3    H2 6571   0.278   6.280   2.686
 2203TIP3   OH2 6572   1.893   3.915   4.441
 2203TIP3    H1 6573   1.893   3.988   4.503
 2203TIP3    H2 6574   1.967   3.860   4.468
 2204TIP3   OH2 6575   1.099   0.452   3.723
 2204TIP3    H1 6576   1.008   0.464   3.693
 2204TIP3    H2 6577   1.150   0.453   3.642
 2205TIP3   OH2 6578   2.473   4.472   3.949
 2205TIP3    H1 6579   2.544   4.447   3.890
 2205TIP3    H2 6580   2.474   4.568   3.947
 2206TIP3   OH2 6581   5.832   6.476   1.591
 2206TIP3    H1 6582   5.873   6.409   1.536
 2206TIP3    H2 6583   5.787   6.534   1.529
 2207TIP3   OH2 6584   2.337   4.434   2.377
 2207TIP3    H1 6585   2.381   4.349   2.381
 2207TIP3    H2 6586   2.335   4.464   2.467
 2208TIP3   OH2 6587   1.371   4.186   5.776
 2208TIP3    H1 6588   1.365   4.094   5.749
 2208TIP3    H2 6589   1.457   4.192   5.818
 2209TIP3   OH2 6590   1.418   4.318   4.312
 2209TIP3    H1 6591   1.430   4.390   4.251
 2209TIP3    H2 6592   1.499   4.266   4.305
 2210TIP3   OH2 6593   1.755   4.470   0.671
 2210TIP3    H1 6594   1.723   4.385   0.642
 2210TIP3    H2 6595   1.850   4.465   0.657
 2211TIP3   OH2 6596   5.997   0.693   1.540
 2211TIP3    H1 6597   6.048   0.617   1.570
 2211TIP3    H2 6598   6.044   0.725   1.464
 2212TIP3   OH2 6599   1.408   5.657   5.103
 2212TIP3    H1 6600   1.351   5.606   5.160
 2212TIP3    H2 6601   1.405   5.611   5.019
 2213TIP3   OH2 6602   1.507   5.067   5.143
 2213TIP3    H1 6603   1.538   4.997   5.201
 2213TIP3    H2 6604   1.513   5.029   5.055
 2214TIP3   OH2 6605   6.602   2.905   0.932
 2214TIP3    H1 6606   6.548   2.951   0.867
 2214TIP3    H2 6607   6.614   2.969   1.002
 2215TIP3   OH2 6608   5.969   2.252   3.162
 2215TIP3    H1 6609   5.928   2.280   3.243
 2215TIP3    H2 6610   6.004   2.332   3.124
 2216TIP3   OH2 6611   6.911   1.770   1.929
 2216TIP3    H1 6612   6.919   1.748   2.022
 2216TIP3    H2 6613   6.994   1.810   1.906
 2217TIP3   OH2 6614   3.542   1.236   0.075
 2217TIP3    H1 6615   3.523   1.143   0.066
 2217TIP3    H2 6616   3.579   1.244   0.162
 2218TIP3   OH2 6617   4.638   3.171   1.026
 2218TIP3    H1 6618   4.617   3.233   1.095
 2218TIP3    H2 6619   4.570   3.185   0.960
 2219TIP3   OH2 6620   1.795   2.848   0.430
 2219TIP3    H1 6621   1.859   2.919   0.438
 2219TIP3    H2 6622   1.710   2.892   0.427
 2220TIP3   OH2 6623   2.507   2.952   0.893
 2220TIP3    H1 6624   2.421   2.924   0.925
 2220TIP3    H2 6625   2.561   2.960   0.971
 2221TIP3   OH2 6626   7.031   5.694   1.421
 2221TIP3    H1 6627   7.047   5.720   1.330
 2221TIP3    H2 6628   6.938   5.708   1.434
 2222TIP3   OH2 6629   0.516   5.253   4.997
 2222TIP3    H1 6630   0.459   5.210   5.062
 2222TIP3    H2 6631   0.537   5.184   4.934
 2223TIP3   OH2 6632   4.865   5.951   0.923
 2223TIP3    H1 6633   4.917   5.872   0.934
 2223TIP3    H2 6634   4.777   5.928   0.954
 2224TIP3   OH2 6635   6.275   5.563   0.184
 2224TIP3    H1 6636   6.221   5.576   0.263
 2224TIP3    H2 6637   6.232   5.615   0.117
 2225TIP3   OH2 6638   4.555   4.101   0.407
 2225TIP3    H1 6639   4.585   4.181   0.451
 2225TIP3    H2 6640   4.581   4.113   0.316
 2226TIP3   OH2 6641   2.109   5.248   1.006
 2226TIP3    H1 6642   2.079   5.322   1.057
 2226TIP3    H2 6643   2.062   5.173   1.041
 2227TIP3   OH2 6644   3.877   2.674   1.614
 2227TIP3    H1 6645   3.910   2.584   1.616
 2227TIP3    H2 6646   3.936   2.720   1.554
 2228TIP3   OH2 6647   7.115   5.077   2.453
 2228TIP3    H1 6648   7.196   5.055   2.406
 2228TIP3    H2 6649   7.058   5.115   2.387
 2229TIP3   OH2 6650   1.209   1.018   5.323
 2229TIP3    H1 6651   1.187   0.981   5.237
 2229TIP3    H2 6652   1.217   1.112   5.308
 2230TIP3   OH2 6653   5.289   6.481   5.098
 2230TIP3    H1 6654   5.307   6.479   5.192
 2230TIP3    H2 6655   5.237   6.561   5.085
 2231TIP3   OH2 6656   1.798   5.741   4.654
 2231TIP3    H1 6657   1.883   5.704   4.631
 2231TIP3    H2 6658   1.754   5.672   4.702
 2232TIP3   OH2 6659   0.444   3.025   2.694
 2232TIP3    H1 6660   0.399   3.029   2.778
 2232TIP3    H2 6661   0.506   3.098   2.697
 2233TIP3   OH2 6662   1.965  -0.016   0.255
 2233TIP3    H1 6663   1.960   0.063   0.200
 2233TIP3    H2 6664   2.034   0.004   0.318
 2234TIP3   OH2 6665   5.115   0.715   5.545
 2234TIP3    H1 6666   5.063   0.785   5.506
 2234TIP3    H2 6667   5.202   0.753   5.558
 2235TIP3   OH2 6668   2.603   5.030   5.762
 2235TIP3    H1 6669   2.511   5.054   5.753
 2235TIP3    H2 6670   2.607   4.940   5.728
 2236TIP3   OH2 6671   3.684   3.225   1.138
 2236TIP3    H1 6672   3.623   3.210   1.209
 2236TIP3    H2 6673   3.722   3.139   1.120
 2237TIP3   OH2 6674   5.478   0.095   5.364
 2237TIP3    H1 6675   5.393   0.123   5.328
 2237TIP3    H2 6676   5.535   0.171   5.352
 2238TIP3   OH2 6677   2.099   5.363   3.822
 2238TIP3    H1 6678   2.165   5.322   3.879
 2238TIP3    H2 6679   2.061   5.290   3.773
 2239TIP3   OH2 6680   5.463   0.775   4.502
 2239TIP3    H1 6681   5.368   0.770   4.505
 2239TIP3    H2 6682   5.490   0.701   4.448
 2240TIP3   OH2 6683   6.557   6.521   4.965
 2240TIP3    H1 6684   6.462   6.517   4.965
 2240TIP3    H2 6685   6.583   6.490   5.052
 2241TIP3   OH2 6686   3.261   1.784   1.419
 2241TIP3    H1 6687   3.336   1.765   1.475
 2241TIP3    H2 6688   3.277   1.734   1.339
 2242TIP3   OH2 6689   4.639   1.810   3.040
 2242TIP3    H1 6690   4.587   1.755   2.982
 2242TIP3    H2 6691   4.668   1.750   3.109
 2243TIP3   OH2 6692   3.923   5.296   4.204
 2243TIP3    H1 6693   4.010   5.328   4.227
 2243TIP3    H2 6694   3.939   5.214   4.157
 2244TIP3   OH2 6695   5.856   2.675   0.027
 2244TIP3    H1 6696   5.865   2.620   0.105
 2244TIP3    H2 6697   5.939   2.722   0.021
 2245TIP3   OH2 6698   4.143   6.656   5.611
 2245TIP3    H1 6699   4.084   6.583   5.633
 2245TIP3    H2 6700   4.109   6.730   5.662
 2246TIP3   OH2 6701   3.209   6.293   5.753
 2246TIP3    H1 6702   3.187   6.216   5.700
 2246TIP3    H2 6703   3.278   6.338   5.703
 2247TIP3   OH2 6704   1.444   2.676   5.679
 2247TIP3    H1 6705   1.514   2.629   5.633
 2247TIP3    H2 6706   1.457   2.655   5.771
 2248TIP3   OH2 6707   3.373   2.279   5.682
 2248TIP3    H1 6708   3.459   2.252   5.650
 2248TIP3    H2 6709   3.350   2.214   5.748
 2249TIP3   OH2 6710   6.976   3.962   3.147
 2249TIP3    H1 6711   7.049   3.904   3.167
 2249TIP3    H2 6712   6.997   3.997   3.060
 2250TIP3   OH2 6713   3.951   4.349   0.319
 2250TIP3    H1 6714   3.874   4.314   0.364
 2250TIP3    H2 6715   4.011   4.275   0.314
 2251TIP3   OH2 6716   5.131   3.372   0.415
 2251TIP3    H1 6717   5.169   3.460   0.426
 2251TIP3    H2 6718   5.159   3.345   0.328
 2252TIP3   OH2 6719   5.311   0.668   4.970
 2252TIP3    H1 6720   5.401   0.700   4.970
 2252TIP3    H2 6721   5.259   0.740   5.005
 2253TIP3   OH2 6722   6.338   3.172   3.551
 2253TIP3    H1 6723   6.339   3.151   3.645
 2253TIP3    H2 6724   6.272   3.241   3.543
 2254TIP3   OH2 6725   6.648   1.013   0.716
 2254TIP3    H1 6726   6.634   0.939   0.775
 2254TIP3    H2 6727   6.653   1.090   0.774
 2255TIP3   OH2 6728   4.223   5.844   0.247
 2255TIP3    H1 6729   4.140   5.802   0.270
 2255TIP3    H2 6730   4.199   5.907   0.179
 2256TIP3   OH2 6731   1.037   1.271   3.280
 2256TIP3    H1 6732   1.080   1.255   3.364
 2256TIP3    H2 6733   1.017   1.184   3.246
 2257TIP3   OH2 6734   3.501   0.537   3.854
 2257TIP3    H1 6735   3.538   0.471   3.795
 2257TIP3    H2 6736   3.575   0.592   3.878
 2258TIP3   OH2 6737   3.713   0.203   0.000
 2258TIP3    H1 6738   3.772   0.161   0.063
 2258TIP3    H2 6739   3.637   0.145  -0.004
 2259TIP3   OH2 6740   6.210   2.773   3.767
 2259TIP3    H1 6741   6.275   2.822   3.817
 2259TIP3    H2 6742   6.178   2.834   3.701
 2260TIP3   OH2 6743   2.140   0.012   1.970
 2260TIP3    H1 6744   2.119  -0.037   1.890
 2260TIP3    H2 6745   2.082   0.088   1.967
 2261TIP3   OH2 6746   2.549   3.972   2.726
 2261TIP3    H1 6747   2.479   4.007   2.780
 2261TIP3    H2 6748   2.574   3.890   2.769
 2262TIP3   OH2 6749   0.416   6.218   3.653
 2262TIP3    H1 6750   0.384   6.200   3.742
 2262TIP3    H2 6751   0.339   6.211   3.598
 2263TIP3   OH2 6752   0.286   3.879   1.977
 2263TIP3    H1 6753   0.349   3.889   1.905
 2263TIP3    H2 6754   0.341   3.874   2.056
 2264TIP3   OH2 6755   5.716   5.537   4.797
 2264TIP3    H1 6756   5.786   5.578   4.846
 2264TIP3    H2 6757   5.667   5.611   4.759
 2265TIP3   OH2 6758   3.740   2.734   0.961
 2265TIP3    H1 6759   3.801   2.667   0.992
 2265TIP3    H2 6760   3.677   2.687   0.907
 2266TIP3   OH2 6761   3.784   3.641   3.251
 2266TIP3    H1 6762   3.869   3.598   3.237
 2266TIP3    H2 6763   3.772   3.696   3.174
 2267TIP3   OH2 6764   3.985   0.464   2.807
 2267TIP3    H1 6765   4.005   0.475   2.900
 2267TIP3    H2 6766   4.060   0.501   2.761
 2268TIP3   OH2 6767   3.305   0.259   3.503
 2268TIP3    H1 6768   3.261   0.333   3.460
 2268TIP3    H2 6769   3.233   0.203   3.532
 2269TIP3   OH2 6770   0.188   2.443   3.295
 2269TIP3    H1 6771   0.139   2.512   3.251
 2269TIP3    H2 6772   0.202   2.377   3.228
 2270TIP3   OH2 6773   4.998   3.667   4.405
 2270TIP3    H1 6774   4.947   3.655   4.486
 2270TIP3    H2 6775   5.009   3.762   4.398
 2271TIP3   OH2 6776   0.710   5.724   0.792
 2271TIP3    H1 6777   0.618   5.712   0.816
 2271TIP3    H2 6778   0.735   5.806   0.835
 2272TIP3   OH2 6779   6.310   3.690   1.895
 2272TIP3    H1 6780   6.388   3.646   1.860
 2272TIP3    H2 6781   6.260   3.621   1.938
 2273TIP3   OH2 6782   2.114   4.198   2.955
 2273TIP3    H1 6783   2.125   4.235   3.043
 2273TIP3    H2 6784   2.073   4.269   2.905
 2274TIP3   OH2 6785   6.015   3.388   3.305
 2274TIP3    H1 6786   6.068   3.359   3.231
 2274TIP3    H2 6787   6.074   3.385   3.380
 2275TIP3   OH2 6788   3.130   1.149   4.772
 2275TIP3    H1 6789   3.161   1.119   4.857
 2275TIP3    H2 6790   3.036   1.129   4.772
 2276TIP3   OH2 6791   3.329   4.770   5.327
 2276TIP3    H1 6792   3.280   4.750   5.407
 2276TIP3    H2 6793   3.282   4.844   5.288
 2277TIP3   OH2 6794   0.333   3.028   2.994
 2277TIP3    H1 6795   0.311   3.112   3.035
 2277TIP3    H2 6796   0.421   3.008   3.026
 2278TIP3   OH2 6797   5.073   2.423   3.643
 2278TIP3    H1 6798   5.159   2.446   3.610
 2278TIP3    H2 6799   5.050   2.495   3.703
 2279TIP3   OH2 6800   3.879   0.997   3.090
 2279TIP3    H1 6801   3.972   0.980   3.108
 2279TIP3    H2 6802   3.850   0.923   3.038
 2280TIP3   OH2 6803   0.796   2.981   0.161
 2280TIP3    H1 6804   0.752   3.066   0.156
 2280TIP3    H2 6805   0.791   2.946   0.073
 2281TIP3   OH2 6806   6.505   4.063   1.696
 2281TIP3    H1 6807   6.594   4.093   1.677
 2281TIP3    H2 6808   6.457   4.143   1.716
 2282TIP3   OH2 6809   5.705   6.210   3.759
 2282TIP3    H1 6810   5.728   6.292   3.803
 2282TIP3    H2 6811   5.630   6.176   3.809
 2283TIP3   OH2 6812   2.386   5.314   3.742
 2283TIP3    H1 6813   2.416   5.392   3.696
 2283TIP3    H2 6814   2.412   5.329   3.833
 2284TIP3   OH2 6815   3.556   2.205   2.164
 2284TIP3    H1 6816   3.546   2.284   2.111
 2284TIP3    H2 6817   3.531   2.232   2.252
 2285TIP3   OH2 6818   7.126   0.830   5.477
 2285TIP3    H1 6819   7.061   0.886   5.519
 2285TIP3    H2 6820   7.108   0.742   5.510
 2286TIP3   OH2 6821   0.917   0.387   4.101
 2286TIP3    H1 6822   0.978   0.430   4.161
 2286TIP3    H2 6823   0.847   0.452   4.088
 2287TIP3   OH2 6824   5.484   3.803   3.890
 2287TIP3    H1 6825   5.523   3.890   3.876
 2287TIP3    H2 6826   5.439   3.811   3.974
 2288TIP3   OH2 6827   6.648   2.650   0.811
 2288TIP3    H1 6828   6.697   2.700   0.745
 2288TIP3    H2 6829   6.617   2.716   0.873
 2289TIP3   OH2 6830   6.938   3.189   2.234
 2289TIP3    H1 6831   6.922   3.147   2.150
 2289TIP3    H2 6832   6.992   3.266   2.213
 2290TIP3   OH2 6833   0.079   3.582   4.358
 2290TIP3    H1 6834   0.081   3.667   4.403
 2290TIP3    H2 6835  -0.008   3.578   4.318
 2291TIP3   OH2 6836   6.431   0.745   5.436
 2291TIP3    H1 6837   6.375   0.700   5.372
 2291TIP3    H2 6838   6.421   0.693   5.516
 2292TIP3   OH2 6839   5.628   4.915   1.321
 2292TIP3    H1 6840   5.564   4.947   1.257
 2292TIP3    H2 6841   5.640   4.989   1.381
 2293TIP3   OH2 6842   6.845   2.744   1.773
 2293TIP3    H1 6843   6.751   2.759   1.781
 2293TIP3    H2 6844   6.852   2.656   1.736
 2294TIP3   OH2 6845   1.772   4.599   0.361
 2294TIP3    H1 6846   1.751   4.507   0.346
 2294TIP3    H2 6847   1.867   4.603   0.359
 2295TIP3   OH2 6848   1.123   1.707   3.763
 2295TIP3    H1 6849   1.066   1.740   3.833
 2295TIP3    H2 6850   1.147   1.785   3.713
 2296TIP3   OH2 6851   5.860   4.767   1.592
 2296TIP3    H1 6852   5.874   4.847   1.542
 2296TIP3    H2 6853   5.925   4.705   1.558
 2297TIP3   OH2 6854   1.847   2.127   0.512
 2297TIP3    H1 6855   1.789   2.180   0.568
 2297TIP3    H2 6856   1.897   2.192   0.462
 2298TIP3   OH2 6857   0.172   0.967   3.092
 2298TIP3    H1 6858   0.265   0.951   3.073
 2298TIP3    H2 6859   0.126   0.941   3.012
 2299TIP3   OH2 6860   0.478   2.130   2.208
 2299TIP3    H1 6861   0.525   2.198   2.160
 2299TIP3    H2 6862   0.443   2.174   2.286
 2300TIP3   OH2 6863   2.439   2.585   2.638
 2300TIP3    H1 6864   2.491   2.657   2.601
 2300TIP3    H2 6865   2.484   2.506   2.609
 2301TIP3   OH2 6866   6.765   6.634   4.379
 2301TIP3    H1 6867   6.706   6.692   4.332
 2301TIP3    H2 6868   6.707   6.577   4.431
 2302TIP3   OH2 6869   1.931   5.508   0.864
 2302TIP3    H1 6870   2.004   5.518   0.926
 2302TIP3    H2 6871   1.951   5.428   0.817
 2303TIP3   OH2 6872   3.719   4.557   4.324
 2303TIP3    H1 6873   3.793   4.605   4.287
 2303TIP3    H2 6874   3.645   4.617   4.316
 2304TIP3   OH2 6875   4.087   0.074   5.150
 2304TIP3    H1 6876   4.030  -0.002   5.162
 2304TIP3    H2 6877   4.033   0.149   5.175
 2305TIP3   OH2 6878   5.933   0.506   2.317
 2305TIP3    H1 6879   5.938   0.590   2.361
 2305TIP3    H2 6880   5.971   0.521   2.230
 2306TIP3   OH2 6881  -0.007   0.343   2.939
 2306TIP3    H1 6882  -0.036   0.428   2.903
 2306TIP3    H2 6883   0.064   0.315   2.881
 2307TIP3   OH2 6884   2.807   3.818   2.034
 2307TIP3    H1 6885   2.862   3.744   2.009
 2307TIP3    H2 6886   2.728   3.809   1.981
 2308TIP3   OH2 6887   2.329   6.393   3.809
 2308TIP3    H1 6888   2.260   6.425   3.868
 2308TIP3    H2 6889   2.284   6.379   3.726
 2309TIP3   OH2 6890   1.655   6.264   2.175
 2309TIP3    H1 6891   1.590   6.284   2.108
 2309TIP3    H2 6892   1.616   6.294   2.257
 2310TIP3   OH2 6893   3.936   3.910   2.866
 2310TIP3    H1 6894   3.964   3.841   2.805
 2310TIP3    H2 6895   3.891   3.863   2.936
 2311TIP3   OH2 6896   5.371   3.953   2.487
 2311TIP3    H1 6897   5.291   4.006   2.483
 2311TIP3    H2 6898   5.342   3.869   2.524
 2312TIP3   OH2 6899   2.461   5.570   2.366
 2312TIP3    H1 6900   2.524   5.576   2.438
 2312TIP3    H2 6901   2.381   5.610   2.400
 2313TIP3   OH2 6902   1.943   3.639   5.892
 2313TIP3    H1 6903   2.027   3.673   5.922
 2313TIP3    H2 6904   1.967   3.573   5.826
 2314TIP3   OH2 6905   4.001   2.206   2.792
 2314TIP3    H1 6906   4.002   2.270   2.863
 2314TIP3    H2 6907   4.069   2.143   2.816
 2315TIP3   OH2 6908   3.063   2.525   5.298
 2315TIP3    H1 6909   3.088   2.607   5.340
 2315TIP3    H2 6910   2.972   2.511   5.324
 2316TIP3   OH2 6911   5.663   5.815   0.837
 2316TIP3    H1 6912   5.658   5.854   0.925
 2316TIP3    H2 6913   5.756   5.793   0.826
 2317TIP3   OH2 6914   0.092   2.234   1.527
 2317TIP3    H1 6915   0.054   2.173   1.591
 2317TIP3    H2 6916   0.110   2.313   1.576
 2318TIP3   OH2 6917   4.173   5.628   4.980
 2318TIP3    H1 6918   4.241   5.562   4.995
 2318TIP3    H2 6919   4.219   5.712   4.987
 2319TIP3   OH2 6920   1.582   5.800   5.883
 2319TIP3    H1 6921   1.651   5.821   5.820
 2319TIP3    H2 6922   1.528   5.734   5.840
 2320TIP3   OH2 6923   6.045   6.186   1.766
 2320TIP3    H1 6924   5.978   6.212   1.829
 2320TIP3    H2 6925   5.997   6.138   1.699
 2321TIP3   OH2 6926   3.734   0.924   2.518
 2321TIP3    H1 6927   3.808   0.930   2.458
 2321TIP3    H2 6928   3.708   0.832   2.516
 2322TIP3   OH2 6929   0.297   2.774   3.332
 2322TIP3    H1 6930   0.357   2.710   3.293
 2322TIP3    H2 6931   0.231   2.720   3.376
 2323TIP3   OH2 6932   4.216   1.179   3.804
 2323TIP3    H1 6933   4.227   1.245   3.736
 2323TIP3    H2 6934   4.129   1.198   3.842
 2324TIP3   OH2 6935   1.762   2.272   4.921
 2324TIP3    H1 6936   1.706   2.337   4.878
 2324TIP3    H2 6937   1.814   2.323   4.983
 2325TIP3   OH2 6938   5.202   5.219   0.607
 2325TIP3    H1 6939   5.123   5.166   0.622
 2325TIP3    H2 6940   5.273   5.167   0.645
 2326TIP3   OH2 6941   5.854   6.698   2.023
 2326TIP3    H1 6942   5.765   6.665   2.009
 2326TIP3    H2 6943   5.904   6.663   1.949
 2327TIP3   OH2 6944   7.063   1.930   3.703
 2327TIP3    H1 6945   7.074   2.024   3.718
 2327TIP3    H2 6946   7.116   1.888   3.770
 2328TIP3   OH2 6947   3.407   5.080   0.055
 2328TIP3    H1 6948   3.410   5.084  -0.040
 2328TIP3    H2 6949   3.468   5.011   0.079
 2329TIP3   OH2 6950   6.338   5.008   4.917
 2329TIP3    H1 6951   6.377   4.949   4.982
 2329TIP3    H2 6952   6.389   5.089   4.925
 2330TIP3   OH2 6953   7.002   6.493   4.439
 2330TIP3    H1 6954   6.921   6.542   4.425
 2330TIP3    H2 6955   7.011   6.489   4.535
 2331TIP3   OH2 6956   7.195   3.781   4.562
 2331TIP3    H1 6957   7.234   3.832   4.633
 2331TIP3    H2 6958   7.116   3.830   4.538
 2332TIP3   OH2 6959   3.100   1.182   0.103
 2332TIP3    H1 6960   3.148   1.209   0.182
 2332TIP3    H2 6961   3.058   1.262   0.073
 2333TIP3   OH2 6962   1.285   5.138   4.884
 2333TIP3    H1 6963   1.281   5.116   4.976
 2333TIP3    H2 6964   1.321   5.227   4.882
 2334TIP3   OH2 6965   3.254   6.490   2.526
 2334TIP3    H1 6966   3.187   6.422   2.536
 2334TIP3    H2 6967   3.273   6.491   2.432
 2335TIP3   OH2 6968   1.044   3.334   1.749
 2335TIP3    H1 6969   1.060   3.351   1.842
 2335TIP3    H2 6970   1.037   3.421   1.710
 2336TIP3   OH2 6971   5.068   5.122   5.152
 2336TIP3    H1 6972   5.014   5.060   5.103
 2336TIP3    H2 6973   5.155   5.082   5.154
 2337TIP3   OH2 6974   4.134   3.510   2.582
 2337TIP3    H1 6975   4.179   3.442   2.632
 2337TIP3    H2 6976   4.196   3.535   2.513
 2338TIP3   OH2 6977   1.501   1.229   0.662
 2338TIP3    H1 6978   1.467   1.142   0.682
 2338TIP3    H2 6979   1.592   1.226   0.692
 2339TIP3   OH2 6980   0.918   3.059   4.465
 2339TIP3    H1 6981   0.887   3.134   4.415
 2339TIP3    H2 6982   1.004   3.084   4.498
 2340TIP3   OH2 6983   2.408   3.248   5.433
 2340TIP3    H1 6984   2.477   3.272   5.371
 2340TIP3    H2 6985   2.390   3.156   5.414
 2341TIP3   OH2 6986   6.045   3.112   2.709
 2341TIP3    H1 6987   6.118   3.085   2.765
 2341TIP3    H2 6988   5.986   3.037   2.708
 2342TIP3   OH2 6989   1.382   5.837   2.303
 2342TIP3    H1 6990   1.358   5.929   2.293
 2342TIP3    H2 6991   1.300   5.789   2.291
 2343TIP3   OH2 6992   1.381   3.226   3.255
 2343TIP3    H1 6993   1.445   3.158   3.233
 2343TIP3    H2 6994   1.407   3.301   3.201
 2344TIP3   OH2 6995   6.177   6.428   4.755
 2344TIP3    H1 6996   6.178   6.519   4.725
 2344TIP3    H2 6997   6.215   6.432   4.843
 2345TIP3   OH2 6998   6.603   0.041   0.619
 2345TIP3    H1 6999   6.620   0.061   0.711
 2345TIP3    H2 7000   6.508   0.033   0.613
 2346TIP3   OH2 7001   2.996   0.191   5.211
 2346TIP3    H1 7002   2.908   0.186   5.247
 2346TIP3    H2 7003   2.983   0.218   5.120
 2347TIP3   OH2 7004   1.583   3.884   4.240
 2347TIP3    H1 7005   1.558   3.947   4.308
 2347TIP3    H2 7006   1.605   3.804   4.287
 2348TIP3   OH2 7007   0.276   0.774   5.680
 2348TIP3    H1 7008   0.333   0.698   5.685
 2348TIP3    H2 7009   0.202   0.751   5.737
 2349TIP3   OH2 7010   6.270   5.311   5.630
 2349TIP3    H1 7011   6.221   5.356   5.562
 2349TIP3    H2 7012   6.271   5.219   5.602
 2350TIP3   OH2 7013   2.813   0.363   5.790
 2350TIP3    H1 7014   2.765   0.352   5.708
 2350TIP3    H2 7015   2.895   0.404   5.763
 2351TIP3   OH2 7016   6.102   6.569   5.849
 2351TIP3    H1 7017   6.196   6.586   5.842
 2351TIP3    H2 7018   6.062   6.626   5.783
 2352TIP3   OH2 7019   6.637   1.629   0.367
 2352TIP3    H1 7020   6.567   1.695   0.363
 2352TIP3    H2 7021   6.657   1.610   0.276
 2353TIP3   OH2 7022   6.378   6.287   0.899
 2353TIP3    H1 7023   6.396   6.359   0.959
 2353TIP3    H2 7024   6.365   6.330   0.814
 2354TIP3   OH2 7025   4.833   1.764   1.270
 2354TIP3    H1 7026   4.796   1.843   1.229
 2354TIP3    H2 7027   4.927   1.770   1.254
 2355TIP3   OH2 7028   6.748   3.042   1.222
 2355TIP3    H1 7029   6.746   3.106   1.292
 2355TIP3    H2 7030   6.832   2.997   1.233
 2356TIP3   OH2 7031   1.592   3.711   5.522
 2356TIP3    H1 7032   1.556   3.768   5.591
 2356TIP3    H2 7033   1.528   3.640   5.515
 2357TIP3   OH2 7034   0.787   2.615   1.936
 2357TIP3    H1 7035   0.747   2.553   1.875
 2357TIP3    H2 7036   0.778   2.700   1.893
 2358TIP3   OH2 7037   0.294   2.602   2.911
 2358TIP3    H1 7038   0.329   2.649   2.835
 2358TIP3    H2 7039   0.200   2.601   2.897
 2359TIP3   OH2 7040   5.325   0.525   0.849
 2359TIP3    H1 7041   5.299   0.594   0.910
 2359TIP3    H2 7042   5.399   0.482   0.893
 2360TIP3   OH2 7043   3.312   3.202   5.160
 2360TIP3    H1 7044   3.342   3.208   5.070
 2360TIP3    H2 7045   3.245   3.134   5.159
 2361TIP3   OH2 7046   1.751   6.113   3.496
 2361TIP3    H1 7047   1.762   6.194   3.447
 2361TIP3    H2 7048   1.671   6.074   3.460
 2362TIP3   OH2 7049   2.287   0.638   3.322
 2362TIP3    H1 7050   2.273   0.627   3.416
 2362TIP3    H2 7051   2.301   0.732   3.311
 2363TIP3   OH2 7052   1.121   5.598   3.754
 2363TIP3    H1 7053   1.162   5.656   3.691
 2363TIP3    H2 7054   1.194   5.554   3.798
 2364TIP3   OH2 7055   1.663   0.941   1.639
 2364TIP3    H1 7056   1.756   0.936   1.616
 2364TIP3    H2 7057   1.618   0.899   1.566
 2365TIP3   OH2 7058   4.888   3.197   1.631
 2365TIP3    H1 7059   4.827   3.184   1.559
 2365TIP3    H2 7060   4.837   3.177   1.710
 2366TIP3   OH2 7061   3.675   1.684   1.308
 2366TIP3    H1 7062   3.718   1.743   1.247
 2366TIP3    H2 7063   3.623   1.626   1.252
 2367TIP3   OH2 7064   4.711   0.787   1.121
 2367TIP3    H1 7065   4.651   0.790   1.047
 2367TIP3    H2 7066   4.677   0.852   1.182
 2368TIP3   OH2 7067   4.483   6.062   0.839
 2368TIP3    H1 7068   4.544   6.064   0.765
 2368TIP3    H2 7069   4.503   5.981   0.886
 2369TIP3   OH2 7070   5.070   0.372   3.972
 2369TIP3    H1 7071   5.149   0.424   3.985
 2369TIP3    H2 7072   5.099   0.281   3.981
 2370TIP3   OH2 7073   6.998   5.459   5.058
 2370TIP3    H1 7074   7.046   5.482   4.978
 2370TIP3    H2 7075   6.908   5.444   5.029
 2371TIP3   OH2 7076   1.022   5.146   2.619
 2371TIP3    H1 7077   0.933   5.159   2.651
 2371TIP3    H2 7078   1.078   5.180   2.689
 2372TIP3   OH2 7079   4.440   0.043   3.471
 2372TIP3    H1 7080   4.434   0.108   3.541
 2372TIP3    H2 7081   4.362  -0.012   3.482
 2373TIP3   OH2 7082   5.315   6.753   2.656
 2373TIP3    H1 7083   5.402   6.723   2.681
 2373TIP3    H2 7084   5.269   6.673   2.629
 2374TIP3   OH2 7085   7.092   2.593   5.283
 2374TIP3    H1 7086   7.051   2.673   5.316
 2374TIP3    H2 7087   7.161   2.623   5.225
 2375TIP3   OH2 7088   4.174   4.477   4.576
 2375TIP3    H1 7089   4.220   4.549   4.619
 2375TIP3    H2 7090   4.092   4.468   4.624
 2376TIP3   OH2 7091   5.119   4.092   3.974
 2376TIP3    H1 7092   5.147   4.003   3.993
 2376TIP3    H2 7093   5.164   4.114   3.892
 2377TIP3   OH2 7094   2.928   4.672   4.024
 2377TIP3    H1 7095   2.839   4.698   4.048
 2377TIP3    H2 7096   2.975   4.755   4.012
 2378TIP3   OH2 7097   2.554   5.800   2.808
 2378TIP3    H1 7098   2.605   5.829   2.884
 2378TIP3    H2 7099   2.521   5.714   2.834
 2379TIP3   OH2 7100   3.092   4.930   5.453
 2379TIP3    H1 7101   3.174   4.895   5.488
 2379TIP3    H2 7102   3.038   4.947   5.530
 2380TIP3   OH2 7103   2.931   3.163   1.192
 2380TIP3    H1 7104   2.906   3.250   1.225
 2380TIP3    H2 7105   2.932   3.108   1.270
 2381TIP3   OH2 7106   6.264   2.839   4.637
 2381TIP3    H1 7107   6.350   2.797   4.632
 2381TIP3    H2 7108   6.282   2.932   4.628
 2382TIP3   OH2 7109   5.150   4.144   2.402
 2382TIP3    H1 7110   5.091   4.075   2.432
 2382TIP3    H2 7111   5.130   4.153   2.309
 2383TIP3   OH2 7112   6.140   2.160   5.475
 2383TIP3    H1 7113   6.055   2.178   5.436
 2383TIP3    H2 7114   6.125   2.165   5.569
 2384TIP3   OH2 7115   6.240   3.664   1.565
 2384TIP3    H1 7116   6.302   3.619   1.622
 2384TIP3    H2 7117   6.290   3.681   1.485
 2385TIP3   OH2 7118   5.274   1.568   0.601
 2385TIP3    H1 7119   5.283   1.595   0.509
 2385TIP3    H2 7120   5.356   1.523   0.620
 2386TIP3   OH2 7121   4.743   2.982   2.679
 2386TIP3    H1 7122   4.695   3.060   2.706
 2386TIP3    H2 7123   4.830   3.015   2.655
 2387TIP3   OH2 7124   3.604   1.203   2.109
 2387TIP3    H1 7125   3.619   1.255   2.188
 2387TIP3    H2 7126   3.543   1.135   2.136
 2388TIP3   OH2 7127   4.154   2.843   2.864
 2388TIP3    H1 7128   4.188   2.824   2.951
 2388TIP3    H2 7129   4.223   2.892   2.821
 2389TIP3   OH2 7130   7.086   4.826   2.353
 2389TIP3    H1 7131   7.022   4.820   2.425
 2389TIP3    H2 7132   7.134   4.907   2.370
 2390TIP3   OH2 7133   5.367   2.099   1.418
 2390TIP3    H1 7134   5.409   2.015   1.404
 2390TIP3    H2 7135   5.383   2.119   1.511
 2391TIP3   OH2 7136   6.105   0.904   2.057
 2391TIP3    H1 7137   6.096   0.886   1.964
 2391TIP3    H2 7138   6.016   0.898   2.092
 2392TIP3   OH2 7139   5.504   6.551   4.900
 2392TIP3    H1 7140   5.546   6.531   4.984
 2392TIP3    H2 7141   5.413   6.524   4.911
 2393TIP3   OH2 7142   0.073   0.184   0.679
 2393TIP3    H1 7143   0.081   0.103   0.629
 2393TIP3    H2 7144   0.036   0.247   0.617
 2394TIP3   OH2 7145   2.966   1.428   3.691
 2394TIP3    H1 7146   2.912   1.361   3.648
 2394TIP3    H2 7147   2.978   1.495   3.625
 2395TIP3   OH2 7148   4.843   4.836   5.392
 2395TIP3    H1 7149   4.796   4.847   5.475
 2395TIP3    H2 7150   4.912   4.773   5.412
 2396TIP3   OH2 7151   1.914   2.324   4.100
 2396TIP3    H1 7152   1.911   2.419   4.110
 2396TIP3    H2 7153   1.940   2.310   4.009
 2397TIP3   OH2 7154   6.010   0.848   4.393
 2397TIP3    H1 7155   6.092   0.873   4.350
 2397TIP3    H2 7156   6.001   0.912   4.464
 2398TIP3   OH2 7157   4.409   4.727   3.424
 2398TIP3    H1 7158   4.480   4.666   3.442
 2398TIP3    H2 7159   4.425   4.800   3.483
 2399TIP3   OH2 7160   2.236   0.947   0.082
 2399TIP3    H1 7161   2.306   1.011   0.068
 2399TIP3    H2 7162   2.262   0.898   0.160
 2400TIP3   OH2 7163   3.757   4.498   1.903
 2400TIP3    H1 7164   3.826   4.491   1.836
 2400TIP3    H2 7165   3.689   4.437   1.874
 2401TIP3   OH2 7166   2.191   0.080   0.856
 2401TIP3    H1 7167   2.228   0.160   0.892
 2401TIP3    H2 7168   2.101   0.078   0.889
 2402TIP3   OH2 7169   2.912   5.857   0.321
 2402TIP3    H1 7170   2.874   5.890   0.239
 2402TIP3    H2 7171   2.840   5.811   0.364
 2403TIP3   OH2 7172   1.910   4.270   2.018
 2403TIP3    H1 7173   1.936   4.302   2.105
 2403TIP3    H2 7174   1.862   4.189   2.036
 2404TIP3   OH2 7175   1.022   5.828   4.720
 2404TIP3    H1 7176   1.045   5.753   4.775
 2404TIP3    H2 7177   1.099   5.884   4.722
 2405TIP3   OH2 7178   5.152   0.945   3.988
 2405TIP3    H1 7179   5.116   1.024   4.028
 2405TIP3    H2 7180   5.151   0.880   4.058
 2406TIP3   OH2 7181   1.016   1.249   0.991
 2406TIP3    H1 7182   1.048   1.210   0.910
 2406TIP3    H2 7183   1.093   1.293   1.028
 2407TIP3   OH2 7184   3.247   4.916   0.930
 2407TIP3    H1 7185   3.247   4.997   0.981
 2407TIP3    H2 7186   3.200   4.939   0.850
 2408TIP3   OH2 7187   1.548   1.444   3.853
 2408TIP3    H1 7188   1.578   1.451   3.762
 2408TIP3    H2 7189   1.512   1.356   3.860
 2409TIP3   OH2 7190   2.621   6.050   5.586
 2409TIP3    H1 7191   2.663   5.966   5.602
 2409TIP3    H2 7192   2.620   6.093   5.672
 2410TIP3   OH2 7193   4.639   1.141   1.549
 2410TIP3    H1 7194   4.625   1.233   1.573
 2410TIP3    H2 7195   4.551   1.103   1.552
 2411TIP3   OH2 7196   5.302   5.093   4.844
 2411TIP3    H1 7197   5.280   5.155   4.913
 2411TIP3    H2 7198   5.397   5.103   4.831
 2412TIP3   OH2 7199   5.834   5.188   2.246
 2412TIP3    H1 7200   5.880   5.125   2.301
 2412TIP3    H2 7201   5.742   5.161   2.251
 2413TIP3   OH2 7202   6.628   2.749   5.410
 2413TIP3    H1 7203   6.534   2.763   5.399
 2413TIP3    H2 7204   6.658   2.824   5.461
 2414TIP3   OH2 7205   2.197   5.611   5.256
 2414TIP3    H1 7206   2.228   5.690   5.300
 2414TIP3    H2 7207   2.128   5.641   5.197
 2415TIP3   OH2 7208   4.715   3.975   4.317
 2415TIP3    H1 7209   4.784   3.987   4.382
 2415TIP3    H2 7210   4.757   3.996   4.233
 2416TIP3   OH2 7211   5.096   4.537   2.029
 2416TIP3    H1 7212   5.102   4.514   1.936
 2416TIP3    H2 7213   5.002   4.540   2.046
 2417TIP3   OH2 7214   5.371   5.211   3.651
 2417TIP3    H1 7215   5.369   5.184   3.742
 2417TIP3    H2 7216   5.382   5.306   3.654
 2418TIP3   OH2 7217   4.512   1.723   2.367
 2418TIP3    H1 7218   4.484   1.635   2.395
 2418TIP3    H2 7219   4.571   1.707   2.294
 2419TIP3   OH2 7220   2.408   5.645   1.799
 2419TIP3    H1 7221   2.363   5.729   1.810
 2419TIP3    H2 7222   2.348   5.581   1.837
 2420TIP3   OH2 7223   4.514   5.729   2.191
 2420TIP3    H1 7224   4.511   5.710   2.285
 2420TIP3    H2 7225   4.422   5.729   2.164
 2421TIP3   OH2 7226   1.608   4.164   4.598
 2421TIP3    H1 7227   1.531   4.211   4.631
 2421TIP3    H2 7228   1.613   4.188   4.505
 2422TIP3   OH2 7229   3.714   4.012   4.621
 2422TIP3    H1 7230   3.651   4.015   4.694
 2422TIP3    H2 7231   3.771   3.938   4.642
 2423TIP3   OH2 7232   0.883   0.858   4.662
 2423TIP3    H1 7233   0.863   0.765   4.651
 2423TIP3    H2 7234   0.924   0.864   4.748
 2424TIP3   OH2 7235   4.724   5.679   2.908
 2424TIP3    H1 7236   4.814   5.647   2.895
 2424TIP3    H2 7237   4.681   5.664   2.824
 2425TIP3   OH2 7238   3.943   2.889   0.795
 2425TIP3    H1 7239   3.862   2.873   0.745
 2425TIP3    H2 7240   3.931   2.976   0.833
 2426TIP3   OH2 7241   1.761   2.807   2.924
 2426TIP3    H1 7242   1.737   2.714   2.926
 2426TIP3    H2 7243   1.773   2.830   3.016
 2427TIP3   OH2 7244   1.914   5.627   5.413
 2427TIP3    H1 7245   1.996   5.586   5.383
 2427TIP3    H2 7246   1.848   5.596   5.351
 2428TIP3   OH2 7247   6.496   2.854   1.310
 2428TIP3    H1 7248   6.502   2.911   1.386
 2428TIP3    H2 7249   6.580   2.809   1.307
 2429TIP3   OH2 7250   0.849   6.597   3.142
 2429TIP3    H1 7251   0.904   6.621   3.216
 2429TIP3    H2 7252   0.877   6.507   3.120
 2430TIP3   OH2 7253   4.033   1.594   5.518
 2430TIP3    H1 7254   3.944   1.629   5.516
 2430TIP3    H2 7255   4.081   1.649   5.456
 2431TIP3   OH2 7256   4.790   1.377   5.445
 2431TIP3    H1 7257   4.813   1.340   5.359
 2431TIP3    H2 7258   4.845   1.455   5.453
 2432TIP3   OH2 7259   3.834   5.415   5.247
 2432TIP3    H1 7260   3.780   5.354   5.297
 2432TIP3    H2 7261   3.815   5.501   5.284
 2433TIP3   OH2 7262   4.430   0.650   2.829
 2433TIP3    H1 7263   4.421   0.625   2.920
 2433TIP3    H2 7264   4.488   0.583   2.791
 2434TIP3   OH2 7265   5.704   6.005   2.414
 2434TIP3    H1 7266   5.700   5.911   2.395
 2434TIP3    H2 7267   5.612   6.031   2.421
 2435TIP3   OH2 7268   1.251   6.359   3.157
 2435TIP3    H1 7269   1.286   6.283   3.110
 2435TIP3    H2 7270   1.242   6.329   3.247
 2436TIP3   OH2 7271   2.162   5.464   0.337
 2436TIP3    H1 7272   2.172   5.372   0.315
 2436TIP3    H2 7273   2.251   5.497   0.346
 2437TIP3   OH2 7274   4.323   0.752   2.148
 2437TIP3    H1 7275   4.228   0.758   2.147
 2437TIP3    H2 7276   4.341   0.660   2.170
 2438TIP3   OH2 7277   3.680   4.670   5.221
 2438TIP3    H1 7278   3.654   4.587   5.263
 2438TIP3    H2 7279   3.607   4.690   5.162
 2439TIP3   OH2 7280   1.247   5.130   3.742
 2439TIP3    H1 7281   1.336   5.126   3.709
 2439TIP3    H2 7282   1.240   5.057   3.803
 2440TIP3   OH2 7283   4.304   1.516   4.900
 2440TIP3    H1 7284   4.242   1.505   4.829
 2440TIP3    H2 7285   4.255   1.566   4.966
 2441TIP3   OH2 7286   1.676   3.301   5.108
 2441TIP3    H1 7287   1.763   3.260   5.114
 2441TIP3    H2 7288   1.692   3.394   5.125
 2442TIP3   OH2 7289   6.551   2.076   4.934
 2442TIP3    H1 7290   6.644   2.098   4.945
 2442TIP3    H2 7291   6.545   1.985   4.962
 2443TIP3   OH2 7292   1.240   4.422   5.737
 2443TIP3    H1 7293   1.290   4.342   5.718
 2443TIP3    H2 7294   1.150   4.392   5.746
 2444TIP3   OH2 7295   1.521   4.209   1.257
 2444TIP3    H1 7296   1.523   4.289   1.206
 2444TIP3    H2 7297   1.439   4.214   1.306
 2445TIP3   OH2 7298   2.237   2.523   0.857
 2445TIP3    H1 7299   2.295   2.585   0.812
 2445TIP3    H2 7300   2.150   2.547   0.826
 2446TIP3   OH2 7301   5.662   3.161   4.316
 2446TIP3    H1 7302   5.660   3.155   4.412
 2446TIP3    H2 7303   5.582   3.210   4.295
 2447TIP3   OH2 7304   6.460   0.132   1.113
 2447TIP3    H1 7305   6.433   0.069   1.046
 2447TIP3    H2 7306   6.415   0.213   1.090
 2448TIP3   OH2 7307   4.899   6.208   4.428
 2448TIP3    H1 7308   4.897   6.304   4.430
 2448TIP3    H2 7309   4.925   6.187   4.339
 2449TIP3   OH2 7310   3.638   0.117   3.104
 2449TIP3    H1 7311   3.652   0.024   3.123
 2449TIP3    H2 7312   3.559   0.140   3.154
 2450TIP3   OH2 7313   2.349   6.029   2.781
 2450TIP3    H1 7314   2.326   5.982   2.700
 2450TIP3    H2 7315   2.389   5.962   2.837
 2451TIP3   OH2 7316   1.618   1.090   3.358
 2451TIP3    H1 7317   1.684   1.140   3.310
 2451TIP3    H2 7318   1.641   0.998   3.342
 2452TIP3   OH2 7319   5.714   2.184   0.586
 2452TIP3    H1 7320   5.701   2.134   0.505
 2452TIP3    H2 7321   5.724   2.117   0.654
 2453TIP3   OH2 7322   7.054   2.790   1.404
 2453TIP3    H1 7323   7.017   2.847   1.472
 2453TIP3    H2 7324   7.082   2.851   1.336
 2454TIP3   OH2 7325   5.699   0.984   5.231
 2454TIP3    H1 7326   5.629   0.964   5.293
 2454TIP3    H2 7327   5.713   1.078   5.241
 2455TIP3   OH2 7328   4.193   0.308   0.197
 2455TIP3    H1 7329   4.113   0.357   0.217
 2455TIP3    H2 7330   4.164   0.219   0.181
 2456TIP3   OH2 7331   0.339   1.019   4.036
 2456TIP3    H1 7332   0.364   1.085   4.099
 2456TIP3    H2 7333   0.273   0.966   4.081
 2457TIP3   OH2 7334   3.721   0.506   4.210
 2457TIP3    H1 7335   3.771   0.553   4.276
 2457TIP3    H2 7336   3.643   0.559   4.196
 2458TIP3   OH2 7337   4.204   1.693   4.149
 2458TIP3    H1 7338   4.229   1.713   4.059
 2458TIP3    H2 7339   4.160   1.608   4.143
 2459TIP3   OH2 7340   5.540   0.427   3.496
 2459TIP3    H1 7341   5.590   0.484   3.438
 2459TIP3    H2 7342   5.449   0.455   3.484
 2460TIP3   OH2 7343   5.080   3.395   1.466
 2460TIP3    H1 7344   5.029   3.372   1.544
 2460TIP3    H2 7345   5.041   3.344   1.395
 2461TIP3   OH2 7346   6.483   6.399   2.608
 2461TIP3    H1 7347   6.471   6.306   2.586
 2461TIP3    H2 7348   6.440   6.446   2.536
 2462TIP3   OH2 7349   5.205   6.268   0.122
 2462TIP3    H1 7350   5.295   6.283   0.152
 2462TIP3    H2 7351   5.157   6.243   0.200
 2463TIP3   OH2 7352   5.842   4.051   5.764
 2463TIP3    H1 7353   5.839   4.138   5.725
 2463TIP3    H2 7354   5.812   4.064   5.855
 2464TIP3   OH2 7355   0.773   5.660   2.858
 2464TIP3    H1 7356   0.860   5.628   2.880
 2464TIP3    H2 7357   0.786   5.753   2.837
 2465TIP3   OH2 7358   0.670   5.501   3.682
 2465TIP3    H1 7359   0.679   5.519   3.776
 2465TIP3    H2 7360   0.740   5.439   3.663
 2466TIP3   OH2 7361   5.819   4.556   3.675
 2466TIP3    H1 7362   5.824   4.566   3.580
 2466TIP3    H2 7363   5.907   4.578   3.706
 2467TIP3   OH2 7364   1.470   3.381   1.742
 2467TIP3    H1 7365   1.424   3.309   1.697
 2467TIP3    H2 7366   1.563   3.360   1.731
 2468TIP3   OH2 7367   4.832   4.605   1.268
 2468TIP3    H1 7368   4.892   4.530   1.257
 2468TIP3    H2 7369   4.804   4.626   1.179
 2469TIP3   OH2 7370   4.025   3.492   3.215
 2469TIP3    H1 7371   4.039   3.429   3.145
 2469TIP3    H2 7372   4.113   3.519   3.241
 2470TIP3   OH2 7373   1.346   6.135   4.461
 2470TIP3    H1 7374   1.361   6.162   4.371
 2470TIP3    H2 7375   1.404   6.190   4.513
 2471TIP3   OH2 7376   6.042   2.630   2.719
 2471TIP3    H1 7377   6.035   2.649   2.625
 2471TIP3    H2 7378   6.136   2.623   2.734
 2472TIP3   OH2 7379   1.281   5.866   1.184
 2472TIP3    H1 7380   1.368   5.828   1.196
 2472TIP3    H2 7381   1.244   5.818   1.110
 2473TIP3   OH2 7382   5.564   1.349   3.034
 2473TIP3    H1 7383   5.486   1.297   3.018
 2473TIP3    H2 7384   5.631   1.310   2.978
 2474TIP3   OH2 7385   5.526   0.814   1.801
 2474TIP3    H1 7386   5.464   0.818   1.728
 2474TIP3    H2 7387   5.504   0.889   1.856
 2475TIP3   OH2 7388   5.189   2.937   2.234
 2475TIP3    H1 7389   5.168   2.960   2.325
 2475TIP3    H2 7390   5.270   2.886   2.241
 2476TIP3   OH2 7391   4.808   0.664   0.712
 2476TIP3    H1 7392   4.714   0.685   0.709
 2476TIP3    H2 7393   4.847   0.716   0.643
 2477TIP3   OH2 7394   7.026   0.245   4.295
 2477TIP3    H1 7395   7.043   0.328   4.339
 2477TIP3    H2 7396   6.999   0.270   4.207
 2478TIP3   OH2 7397   2.743   0.746   1.066
 2478TIP3    H1 7398   2.725   0.833   1.030
 2478TIP3    H2 7399   2.743   0.759   1.161
 2479TIP3   OH2 7400   1.068   4.318   0.698
 2479TIP3    H1 7401   1.061   4.392   0.759
 2479TIP3    H2 7402   0.989   4.266   0.714
 2480TIP3   OH2 7403   2.642   1.339   0.222
 2480TIP3    H1 7404   2.725   1.384   0.241
 2480TIP3    H2 7405   2.667   1.261   0.173
 2481TIP3   OH2 7406   2.272   5.123   4.628
 2481TIP3    H1 7407   2.360   5.105   4.660
 2481TIP3    H2 7408   2.214   5.088   4.696
 2482TIP3   OH2 7409   6.603   1.011   4.653
 2482TIP3    H1 7410   6.634   0.920   4.649
 2482TIP3    H2 7411   6.636   1.050   4.572
 2483TIP3   OH2 7412   7.005   6.724   5.249
 2483TIP3    H1 7413   6.995   6.736   5.154
 2483TIP3    H2 7414   7.059   6.646   5.258
 2484TIP3   OH2 7415   2.761   3.192   2.825
 2484TIP3    H1 7416   2.856   3.201   2.825
 2484TIP3    H2 7417   2.733   3.230   2.908
 2485TIP3   OH2 7418   6.326   1.344   0.138
 2485TIP3    H1 7419   6.343   1.425   0.090
 2485TIP3    H2 7420   6.327   1.370   0.230
 2486TIP3   OH2 7421   2.671   4.727   1.282
 2486TIP3    H1 7422   2.615   4.659   1.244
 2486TIP3    H2 7423   2.759   4.703   1.255
 2487TIP3   OH2 7424   6.015   2.498   3.017
 2487TIP3    H1 7425   5.927   2.499   2.979
 2487TIP3    H2 7426   6.029   2.587   3.049
 2488TIP3   OH2 7427   2.383   5.966   1.649
 2488TIP3    H1 7428   2.477   5.980   1.645
 2488TIP3    H2 7429   2.363   5.918   1.569
 2489TIP3   OH2 7430   0.347   4.063   3.148
 2489TIP3    H1 7431   0.435   4.041   3.118
 2489TIP3    H2 7432   0.358   4.145   3.197
 2490TIP3   OH2 7433   5.134   5.907   4.003
 2490TIP3    H1 7434   5.145   5.952   3.919
 2490TIP3    H2 7435   5.163   5.817   3.986
 2491TIP3   OH2 7436   2.813   4.581   5.296
 2491TIP3    H1 7437   2.782   4.495   5.269
 2491TIP3    H2 7438   2.823   4.630   5.215
 2492TIP3   OH2 7439   3.871   3.312   3.722
 2492TIP3    H1 7440   3.830   3.288   3.639
 2492TIP3    H2 7441   3.855   3.406   3.731
 2493TIP3   OH2 7442   4.613   5.941   1.649
 2493TIP3    H1 7443   4.548   5.871   1.644
 2493TIP3    H2 7444   4.697   5.896   1.634
 2494TIP3   OH2 7445   4.715   3.069   1.818
 2494TIP3    H1 7446   4.673   3.142   1.863
 2494TIP3    H2 7447   4.646   3.003   1.808
 2495TIP3   OH2 7448   1.627   3.032   2.122
 2495TIP3    H1 7449   1.693   3.040   2.191
 2495TIP3    H2 7450   1.653   3.096   2.056
 2496TIP3   OH2 7451   5.219   6.124   1.380
 2496TIP3    H1 7452   5.179   6.098   1.463
 2496TIP3    H2 7453   5.171   6.074   1.314
 2497TIP3   OH2 7454   6.406   3.873   2.949
 2497TIP3    H1 7455   6.323   3.867   2.995
 2497TIP3    H2 7456   6.434   3.782   2.937
 2498TIP3   OH2 7457   5.430   3.473   2.263
 2498TIP3    H1 7458   5.498   3.445   2.201
 2498TIP3    H2 7459   5.473   3.538   2.318
 2499TIP3   OH2 7460   5.765   6.806   4.878
 2499TIP3    H1 7461   5.797   6.719   4.856
 2499TIP3    H2 7462   5.813   6.829   4.958
 2500TIP3   OH2 7463   1.839   5.665   3.371
 2500TIP3    H1 7464   1.751   5.695   3.395
 2500TIP3    H2 7465   1.877   5.737   3.321
 2501TIP3   OH2 7466   0.001   4.457   4.672
 2501TIP3    H1 7467   0.043   4.414   4.747
 2501TIP3    H2 7468   0.056   4.533   4.654
 2502TIP3   OH2 7469   4.292   3.445   3.835
 2502TIP3    H1 7470   4.325   3.521   3.882
 2502TIP3    H2 7471   4.357   3.429   3.766
 2503TIP3   OH2 7472   6.799   2.165   4.593
 2503TIP3    H1 7473   6.810   2.093   4.655
 2503TIP3    H2 7474   6.861   2.145   4.522
 2504TIP3   OH2 7475   5.524   5.990   5.708
 2504TIP3    H1 7476   5.573   5.925   5.658
 2504TIP3    H2 7477   5.461   5.938   5.758
 2505TIP3   OH2 7478   6.926   3.933   5.395
 2505TIP3    H1 7479   6.884   3.922   5.480
 2505TIP3    H2 7480   6.867   3.892   5.333
 2506TIP3   OH2 7481   3.425   1.506   3.211
 2506TIP3    H1 7482   3.409   1.440   3.143
 2506TIP3    H2 7483   3.407   1.590   3.167
 2507TIP3   OH2 7484   2.768   5.243   5.862
 2507TIP3    H1 7485   2.730   5.164   5.823
 2507TIP3    H2 7486   2.779   5.303   5.788
 2508TIP3   OH2 7487   1.229   5.506   1.536
 2508TIP3    H1 7488   1.217   5.455   1.456
 2508TIP3    H2 7489   1.296   5.570   1.514
 2509TIP3   OH2 7490   3.425   4.702   3.789
 2509TIP3    H1 7491   3.487   4.647   3.837
 2509TIP3    H2 7492   3.479   4.747   3.723
 2510TIP3   OH2 7493   6.528   0.164   5.478
 2510TIP3    H1 7494   6.523   0.129   5.566
 2510TIP3    H2 7495   6.560   0.254   5.489
 2511TIP3   OH2 7496   1.900   5.810   1.761
 2511TIP3    H1 7497   1.971   5.870   1.782
 2511TIP3    H2 7498   1.940   5.723   1.762
 2512TIP3   OH2 7499   0.852   3.489   5.513
 2512TIP3    H1 7500   0.787   3.554   5.540
 2512TIP3    H2 7501   0.805   3.406   5.511
 2513TIP3   OH2 7502   4.281   6.716   4.307
 2513TIP3    H1 7503   4.338   6.784   4.343
 2513TIP3    H2 7504   4.222   6.764   4.248
 2514TIP3   OH2 7505   5.819   0.761   0.031
 2514TIP3    H1 7506   5.795   0.724   0.116
 2514TIP3    H2 7507   5.878   0.695  -0.007
 2515TIP3   OH2 7508   6.483   0.328   3.473
 2515TIP3    H1 7509   6.559   0.315   3.416
 2515TIP3    H2 7510   6.502   0.407   3.523
 2516TIP3   OH2 7511   4.633   3.566   4.511
 2516TIP3    H1 7512   4.652   3.473   4.498
 2516TIP3    H2 7513   4.547   3.578   4.472
 2517TIP3   OH2 7514   2.913   1.416   3.133
 2517TIP3    H1 7515   2.941   1.376   3.215
 2517TIP3    H2 7516   2.859   1.491   3.160
 2518TIP3   OH2 7517   3.802   4.893   2.164
 2518TIP3    H1 7518   3.744   4.924   2.233
 2518TIP3    H2 7519   3.760   4.813   2.131
 2519TIP3   OH2 7520   3.631   2.507   3.110
 2519TIP3    H1 7521   3.566   2.567   3.146
 2519TIP3    H2 7522   3.714   2.554   3.119
 2520TIP3   OH2 7523   6.197   1.812   3.436
 2520TIP3    H1 7524   6.137   1.738   3.436
 2520TIP3    H2 7525   6.231   1.816   3.346
 2521TIP3   OH2 7526   4.071   4.999   2.880
 2521TIP3    H1 7527   4.038   4.976   2.793
 2521TIP3    H2 7528   4.004   4.966   2.940
 2522TIP3   OH2 7529   4.461   5.245   5.374
 2522TIP3    H1 7530   4.377   5.218   5.336
 2522TIP3    H2 7531   4.449   5.233   5.468
 2523TIP3   OH2 7532   5.158   5.494   5.778
 2523TIP3    H1 7533   5.128   5.448   5.700
 2523TIP3    H2 7534   5.178   5.583   5.747
 2524TIP3   OH2 7535   6.777   3.918   2.266
 2524TIP3    H1 7536   6.854   3.885   2.219
 2524TIP3    H2 7537   6.804   4.005   2.297
 2525TIP3   OH2 7538   1.796   5.515   5.716
 2525TIP3    H1 7539   1.875   5.487   5.670
 2525TIP3    H2 7540   1.735   5.540   5.646
 2526TIP3   OH2 7541   0.025   3.141   3.084
 2526TIP3    H1 7542  -0.024   3.177   3.157
 2526TIP3    H2 7543   0.117   3.160   3.104
 2527TIP3   OH2 7544   4.620   3.697   0.229
 2527TIP3    H1 7545   4.714   3.710   0.225
 2527TIP3    H2 7546   4.584   3.783   0.252
 2528TIP3   OH2 7547   6.375   6.440   2.930
 2528TIP3    H1 7548   6.315   6.366   2.928
 2528TIP3    H2 7549   6.388   6.463   2.838
 2529TIP3   OH2 7550   4.417  -0.036   2.882
 2529TIP3    H1 7551   4.411  -0.050   2.977
 2529TIP3    H2 7552   4.387   0.054   2.870
 2530TIP3   OH2 7553   7.221   3.887   5.539
 2530TIP3    H1 7554   7.226   3.822   5.469
 2530TIP3    H2 7555   7.128   3.894   5.559
 2531TIP3   OH2 7556   4.222   2.260   0.144
 2531TIP3    H1 7557   4.300   2.304   0.109
 2531TIP3    H2 7558   4.258   2.186   0.194
 2532TIP3   OH2 7559   4.131   4.364   3.298
 2532TIP3    H1 7560   4.088   4.344   3.215
 2532TIP3    H2 7561   4.206   4.305   3.301
 2533TIP3   OH2 7562   2.137   1.545   5.055
 2533TIP3    H1 7563   2.078   1.488   5.005
 2533TIP3    H2 7564   2.082   1.616   5.086
 2534TIP3   OH2 7565   6.867   4.695   3.225
 2534TIP3    H1 7566   6.799   4.763   3.221
 2534TIP3    H2 7567   6.820   4.616   3.253
 2535TIP3   OH2 7568   2.323   0.669   3.600
 2535TIP3    H1 7569   2.265   0.736   3.637
 2535TIP3    H2 7570   2.409   0.691   3.635
 2536TIP3   OH2 7571   1.219   4.758   4.307
 2536TIP3    H1 7572   1.134   4.774   4.266
 2536TIP3    H2 7573   1.207   4.676   4.356
 2537TIP3   OH2 7574   2.308   2.848   2.164
 2537TIP3    H1 7575   2.328   2.892   2.081
 2537TIP3    H2 7576   2.355   2.899   2.230
 2538TIP3   OH2 7577   6.318   2.131   0.371
 2538TIP3    H1 7578   6.257   2.123   0.298
 2538TIP3    H2 7579   6.295   2.058   0.429
 2539TIP3   OH2 7580   6.921   3.515   4.046
 2539TIP3    H1 7581   6.930   3.544   3.955
 2539TIP3    H2 7582   6.831   3.484   4.052
 2540TIP3   OH2 7583   1.871   4.113   4.658
 2540TIP3    H1 7584   1.776   4.120   4.651
 2540TIP3    H2 7585   1.905   4.178   4.597
 2541TIP3   OH2 7586   3.309   0.913   3.116
 2541TIP3    H1 7587   3.254   0.987   3.088
 2541TIP3    H2 7588   3.298   0.911   3.211
 2542TIP3   OH2 7589   2.987   2.199   0.676
 2542TIP3    H1 7590   3.011   2.291   0.677
 2542TIP3    H2 7591   2.900   2.197   0.635
 2543TIP3   OH2 7592   3.971   3.531   0.699
 2543TIP3    H1 7593   3.880   3.533   0.668
 2543TIP3    H2 7594   4.001   3.621   0.689
 2544TIP3   OH2 7595   1.078   5.793   1.764
 2544TIP3    H1 7596   1.091   5.711   1.811
 2544TIP3    H2 7597   1.158   5.805   1.714
 2545TIP3   OH2 7598   2.383   3.380   1.536
 2545TIP3    H1 7599   2.417   3.291   1.529
 2545TIP3    H2 7600   2.418   3.413   1.618
 2546TIP3   OH2 7601   4.198   4.495   5.097
 2546TIP3    H1 7602   4.117   4.533   5.133
 2546TIP3    H2 7603   4.222   4.426   5.158
 2547TIP3   OH2 7604   3.924   5.891   1.425
 2547TIP3    H1 7605   3.869   5.922   1.352
 2547TIP3    H2 7606   3.978   5.966   1.448
 2548TIP3   OH2 7607   6.998   3.049   0.816
 2548TIP3    H1 7608   6.933   3.008   0.759
 2548TIP3    H2 7609   7.033   3.121   0.763
 2549TIP3   OH2 7610   6.411   1.647   4.754
 2549TIP3    H1 7611   6.416   1.720   4.815
 2549TIP3    H2 7612   6.334   1.665   4.700
 2550TIP3   OH2 7613   5.531   3.897   4.542
 2550TIP3    H1 7614   5.547   3.868   4.452
 2550TIP3    H2 7615   5.438   3.921   4.543
 2551TIP3   OH2 7616   6.125   0.181   1.032
 2551TIP3    H1 7617   6.179   0.236   1.089
 2551TIP3    H2 7618   6.109   0.235   0.955
 2552TIP3   OH2 7619   3.433   2.139   3.353
 2552TIP3    H1 7620   3.461   2.103   3.269
 2552TIP3    H2 7621   3.345   2.174   3.336
 2553TIP3   OH2 7622   3.403   4.206   2.700
 2553TIP3    H1 7623   3.395   4.126   2.648
 2553TIP3    H2 7624   3.340   4.267   2.660
 2554TIP3   OH2 7625   1.672   0.140   2.255
 2554TIP3    H1 7626   1.655   0.234   2.242
 2554TIP3    H2 7627   1.766   0.130   2.236
 2555TIP3   OH2 7628   4.765   0.912   3.911
 2555TIP3    H1 7629   4.781   1.004   3.932
 2555TIP3    H2 7630   4.840   0.886   3.858
 2556TIP3   OH2 7631   1.307   4.392   0.123
 2556TIP3    H1 7632   1.308   4.415   0.030
 2556TIP3    H2 7633   1.215   4.396   0.148
 2557TIP3   OH2 7634   2.528   1.268   1.198
 2557TIP3    H1 7635   2.578   1.343   1.229
 2557TIP3    H2 7636   2.472   1.243   1.272
 2558TIP3   OH2 7637   4.464   4.316   0.666
 2558TIP3    H1 7638   4.512   4.267   0.733
 2558TIP3    H2 7639   4.525   4.324   0.593
 2559TIP3   OH2 7640   5.613   4.180   2.433
 2559TIP3    H1 7641   5.705   4.195   2.453
 2559TIP3    H2 7642   5.566   4.228   2.502
 2560TIP3   OH2 7643   3.902   1.302   3.663
 2560TIP3    H1 7644   3.924   1.345   3.580
 2560TIP3    H2 7645   3.964   1.337   3.726
 2561TIP3   OH2 7646   6.361   6.078   0.191
 2561TIP3    H1 7647   6.413   6.041   0.262
 2561TIP3    H2 7648   6.414   6.063   0.112
 2562TIP3   OH2 7649   0.468   1.963   3.951
 2562TIP3    H1 7650   0.405   1.898   3.921
 2562TIP3    H2 7651   0.419   2.044   3.955
 2563TIP3   OH2 7652   5.353   1.832   4.626
 2563TIP3    H1 7653   5.310   1.763   4.678
 2563TIP3    H2 7654   5.443   1.833   4.658
 2564TIP3   OH2 7655   0.067   5.166   0.022
 2564TIP3    H1 7656   0.075   5.113   0.102
 2564TIP3    H2 7657   0.099   5.252   0.047
 2565TIP3   OH2 7658   1.994   4.704   1.052
 2565TIP3    H1 7659   1.933   4.700   0.979
 2565TIP3    H2 7660   1.976   4.625   1.103
 2566TIP3   OH2 7661   5.880   1.269   1.094
 2566TIP3    H1 7662   5.920   1.318   1.021
 2566TIP3    H2 7663   5.852   1.337   1.155
 2567TIP3   OH2 7664   1.337   0.755   4.913
 2567TIP3    H1 7665   1.286   0.826   4.874
 2567TIP3    H2 7666   1.409   0.799   4.959
 2568TIP3   OH2 7667   5.248   3.613   0.407
 2568TIP3    H1 7668   5.303   3.640   0.481
 2568TIP3    H2 7669   5.218   3.696   0.369
 2569TIP3   OH2 7670   6.362   3.444   2.490
 2569TIP3    H1 7671   6.365   3.349   2.481
 2569TIP3    H2 7672   6.453   3.472   2.485
 2570TIP3   OH2 7673   5.996   3.957   0.547
 2570TIP3    H1 7674   6.044   3.955   0.630
 2570TIP3    H2 7675   5.904   3.965   0.574
 2571TIP3   OH2 7676   6.510   0.161   1.365
 2571TIP3    H1 7677   6.594   0.124   1.392
 2571TIP3    H2 7678   6.516   0.168   1.269
 2572TIP3   OH2 7679   0.910   2.531   3.563
 2572TIP3    H1 7680   0.964   2.609   3.575
 2572TIP3    H2 7681   0.898   2.524   3.469
 2573TIP3   OH2 7682   3.527   2.319   3.847
 2573TIP3    H1 7683   3.610   2.270   3.847
 2573TIP3    H2 7684   3.551   2.406   3.880
 2574TIP3   OH2 7685   3.717   4.547   1.201
 2574TIP3    H1 7686   3.744   4.455   1.204
 2574TIP3    H2 7687   3.751   4.579   1.117
 2575TIP3   OH2 7688   0.417   3.992   2.322
 2575TIP3    H1 7689   0.454   3.978   2.409
 2575TIP3    H2 7690   0.405   4.087   2.316
 2576TIP3   OH2 7691   0.391   6.760   1.039
 2576TIP3    H1 7692   0.335   6.689   1.071
 2576TIP3    H2 7693   0.348   6.840   1.069
 2577TIP3   OH2 7694   0.164   4.972   3.422
 2577TIP3    H1 7695   0.167   4.918   3.501
 2577TIP3    H2 7696   0.159   4.910   3.350
 2578TIP3   OH2 7697   0.738   3.478   3.050
 2578TIP3    H1 7698   0.828   3.469   3.019
 2578TIP3    H2 7699   0.743   3.462   3.144
 2579TIP3   OH2 7700   3.305   2.960   4.379
 2579TIP3    H1 7701   3.211   2.978   4.387
 2579TIP3    H2 7702   3.318   2.880   4.430
 2580TIP3   OH2 7703   0.798   4.769   0.124
 2580TIP3    H1 7704   0.788   4.829   0.199
 2580TIP3    H2 7705   0.769   4.684   0.158
 2581TIP3   OH2 7706   3.025   3.038   3.284
 2581TIP3    H1 7707   2.974   3.030   3.365
 2581TIP3    H2 7708   3.041   3.132   3.276
 2582TIP3   OH2 7709   5.513   5.123   5.360
 2582TIP3    H1 7710   5.477   5.171   5.434
 2582TIP3    H2 7711   5.556   5.190   5.306
 2583TIP3   OH2 7712   3.460   2.844   4.726
 2583TIP3    H1 7713   3.505   2.865   4.808
 2583TIP3    H2 7714   3.367   2.844   4.748
 2584TIP3   OH2 7715   5.162   0.249   0.803
 2584TIP3    H1 7716   5.172   0.344   0.794
 2584TIP3    H2 7717   5.094   0.226   0.739
 2585TIP3   OH2 7718   1.109   5.551   3.368
 2585TIP3    H1 7719   1.158   5.486   3.419
 2585TIP3    H2 7720   1.055   5.596   3.433
 2586TIP3   OH2 7721   2.591   3.587   5.517
 2586TIP3    H1 7722   2.568   3.576   5.610
 2586TIP3    H2 7723   2.553   3.672   5.493
 2587TIP3   OH2 7724   2.989   0.597   2.775
 2587TIP3    H1 7725   2.956   0.683   2.747
 2587TIP3    H2 7726   3.005   0.608   2.869
 2588TIP3   OH2 7727   4.737   0.544   1.258
 2588TIP3    H1 7728   4.736   0.587   1.343
 2588TIP3    H2 7729   4.741   0.615   1.194
 2589TIP3   OH2 7730   4.198   3.142   5.707
 2589TIP3    H1 7731   4.239   3.159   5.792
 2589TIP3    H2 7732   4.226   3.215   5.652
 2590TIP3   OH2 7733   3.155   0.684   1.317
 2590TIP3    H1 7734   3.132   0.688   1.224
 2590TIP3    H2 7735   3.128   0.596   1.344
 2591TIP3   OH2 7736   0.640   3.040   1.014
 2591TIP3    H1 7737   0.643   3.133   1.038
 2591TIP3    H2 7738   0.690   3.034   0.933
 2592TIP3   OH2 7739   4.963   4.762   3.941
 2592TIP3    H1 7740   5.042   4.782   3.990
 2592TIP3    H2 7741   4.897   4.821   3.977
 2593TIP3   OH2 7742   1.318   1.145   1.102
 2593TIP3    H1 7743   1.354   1.078   1.161
 2593TIP3    H2 7744   1.364   1.226   1.127
 2594TIP3   OH2 7745   4.999   1.024   5.239
 2594TIP3    H1 7746   4.909   0.996   5.256
 2594TIP3    H2 7747   4.994   1.119   5.231
 2595TIP3   OH2 7748   5.840   4.857   0.183
 2595TIP3    H1 7749   5.862   4.878   0.274
 2595TIP3    H2 7750   5.802   4.770   0.187
 2596TIP3   OH2 7751   4.027   3.128   4.870
 2596TIP3    H1 7752   4.043   3.222   4.868
 2596TIP3    H2 7753   3.970   3.112   4.794
 2597TIP3   OH2 7754   3.277   2.560   4.681
 2597TIP3    H1 7755   3.269   2.635   4.739
 2597TIP3    H2 7756   3.368   2.532   4.689
 2598TIP3   OH2 7757   5.124   5.224   0.051
 2598TIP3    H1 7758   5.196   5.266   0.002
 2598TIP3    H2 7759   5.092   5.293   0.108
 2599TIP3   OH2 7760   4.873   3.697   0.601
 2599TIP3    H1 7761   4.896   3.622   0.545
 2599TIP3    H2 7762   4.860   3.769   0.539
 2600TIP3   OH2 7763   3.505   3.994   1.717
 2600TIP3    H1 7764   3.543   3.957   1.637
 2600TIP3    H2 7765   3.520   3.926   1.783
 2601TIP3   OH2 7766   4.013   4.706   1.353
 2601TIP3    H1 7767   3.926   4.734   1.325
 2601TIP3    H2 7768   4.018   4.614   1.329
 2602TIP3   OH2 7769   3.605   0.051   4.095
 2602TIP3    H1 7770   3.544   0.097   4.039
 2602TIP3    H2 7771   3.601   0.097   4.179
 2603TIP3   OH2 7772   4.706   1.013   4.369
 2603TIP3    H1 7773   4.635   0.952   4.349
 2603TIP3    H2 7774   4.786   0.962   4.355
 2604TIP3   OH2 7775   2.798   0.700   1.332
 2604TIP3    H1 7776   2.853   0.702   1.410
 2604TIP3    H2 7777   2.720   0.751   1.355
 2605TIP3   OH2 7778   0.360   5.870   3.421
 2605TIP3    H1 7779   0.337   5.872   3.514
 2605TIP3    H2 7780   0.295   5.925   3.379
 2606TIP3   OH2 7781   6.069   6.075   0.144
 2606TIP3    H1 7782   6.160   6.055   0.164
 2606TIP3    H2 7783   6.045   6.142   0.208
 2607TIP3   OH2 7784   6.212   5.059   0.844
 2607TIP3    H1 7785   6.163   4.998   0.789
 2607TIP3    H2 7786   6.302   5.025   0.842
 2608TIP3   OH2 7787   0.686   4.889   1.643
 2608TIP3    H1 7788   0.675   4.966   1.588
 2608TIP3    H2 7789   0.779   4.890   1.667
 2609TIP3   OH2 7790   0.566   6.169   2.654
 2609TIP3    H1 7791   0.654   6.195   2.681
 2609TIP3    H2 7792   0.559   6.199   2.564
 2610TIP3   OH2 7793   3.391   1.766   3.112
 2610TIP3    H1 7794   3.477   1.771   3.069
 2610TIP3    H2 7795   3.349   1.850   3.092
 2611TIP3   OH2 7796   5.780   5.409   5.913
 2611TIP3    H1 7797   5.866   5.387   5.877
 2611TIP3    H2 7798   5.762   5.497   5.880
 2612TIP3   OH2 7799   5.063   2.110   1.525
 2612TIP3    H1 7800   5.023   2.195   1.507
 2612TIP3    H2 7801   5.094   2.117   1.615
 2613TIP3   OH2 7802   5.026   5.062   3.883
 2613TIP3    H1 7803   5.118   5.061   3.909
 2613TIP3    H2 7804   4.978   5.057   3.966
 2614TIP3   OH2 7805   2.930   0.894   3.570
 2614TIP3    H1 7806   2.941   0.882   3.664
 2614TIP3    H2 7807   2.845   0.936   3.561
 2615TIP3   OH2 7808   4.886   3.757   3.004
 2615TIP3    H1 7809   4.934   3.809   2.940
 2615TIP3    H2 7810   4.951   3.696   3.039
 2616TIP3   OH2 7811   7.179   0.555   5.112
 2616TIP3    H1 7812   7.260   0.588   5.150
 2616TIP3    H2 7813   7.194   0.558   5.018
 2617TIP3   OH2 7814   7.153   1.265   1.886
 2617TIP3    H1 7815   7.072   1.241   1.931
 2617TIP3    H2 7816   7.191   1.181   1.859
 2618TIP3   OH2 7817   6.334   4.240   4.323
 2618TIP3    H1 7818   6.362   4.175   4.258
 2618TIP3    H2 7819   6.282   4.303   4.273
 2619TIP3   OH2 7820   1.832   0.368   3.748
 2619TIP3    H1 7821   1.927   0.380   3.751
 2619TIP3    H2 7822   1.818   0.279   3.779
 2620TIP3   OH2 7823   6.372   1.439   0.416
 2620TIP3    H1 7824   6.410   1.526   0.423
 2620TIP3    H2 7825   6.446   1.379   0.428
 2621TIP3   OH2 7826   3.556   5.595   0.676
 2621TIP3    H1 7827   3.546   5.518   0.620
 2621TIP3    H2 7828   3.570   5.558   0.763
 2622TIP3   OH2 7829   5.884   3.675   4.308
 2622TIP3    H1 7830   5.807   3.619   4.312
 2622TIP3    H2 7831   5.856   3.750   4.255
 2623TIP3   OH2 7832   1.697   3.096   0.074
 2623TIP3    H1 7833   1.636   3.159   0.037
 2623TIP3    H2 7834   1.647   3.015   0.084
 2624TIP3   OH2 7835   3.669   5.164   3.508
 2624TIP3    H1 7836   3.687   5.211   3.427
 2624TIP3    H2 7837   3.694   5.073   3.489
 2625TIP3   OH2 7838   5.535   3.956   2.720
 2625TIP3    H1 7839   5.500   3.940   2.633
 2625TIP3    H2 7840   5.463   3.996   2.769
 2626TIP3   OH2 7841   6.057   3.011   0.742
 2626TIP3    H1 7842   6.106   2.947   0.690
 2626TIP3    H2 7843   6.123   3.056   0.794
 2627TIP3   OH2 7844   1.730   5.330   3.772
 2627TIP3    H1 7845   1.670   5.384   3.720
 2627TIP3    H2 7846   1.790   5.294   3.707
 2628TIP3   OH2 7847   1.157   6.245   0.343
 2628TIP3    H1 7848   1.189   6.320   0.394
 2628TIP3    H2 7849   1.235   6.212   0.299
 2629TIP3   OH2 7850   0.514   5.111   0.688
 2629TIP3    H1 7851   0.434   5.150   0.722
 2629TIP3    H2 7852   0.511   5.126   0.593
 2630TIP3   OH2 7853   3.848   3.401   4.801
 2630TIP3    H1 7854   3.843   3.398   4.897
 2630TIP3    H2 7855   3.770   3.354   4.771
 2631TIP3   OH2 7856   1.388   5.932   5.149
 2631TIP3    H1 7857   1.427   5.845   5.150
 2631TIP3    H2 7858   1.306   5.921   5.099
 2632TIP3   OH2 7859   3.992   0.710   3.688
 2632TIP3    H1 7860   3.928   0.773   3.721
 2632TIP3    H2 7861   3.942   0.654   3.628
 2633TIP3   OH2 7862   3.256   6.577   3.057
 2633TIP3    H1 7863   3.237   6.633   2.982
 2633TIP3    H2 7864   3.244   6.488   3.024
 2634TIP3   OH2 7865   4.556   3.573   4.180
 2634TIP3    H1 7866   4.564   3.649   4.236
 2634TIP3    H2 7867   4.461   3.564   4.165
 2635TIP3   OH2 7868   3.107   6.562   1.610
 2635TIP3    H1 7869   3.066   6.569   1.696
 2635TIP3    H2 7870   3.057   6.621   1.554
 2636TIP3   OH2 7871   0.927   1.844   2.579
 2636TIP3    H1 7872   0.962   1.839   2.490
 2636TIP3    H2 7873   0.859   1.777   2.581
 2637TIP3   OH2 7874   7.021   4.662   3.892
 2637TIP3    H1 7875   6.939   4.613   3.897
 2637TIP3    H2 7876   7.021   4.701   3.805
 2638TIP3   OH2 7877   5.338   5.643   3.478
 2638TIP3    H1 7878   5.327   5.611   3.388
 2638TIP3    H2 7879   5.249   5.644   3.514
 2639TIP3   OH2 7880   6.630   0.665   2.393
 2639TIP3    H1 7881   6.582   0.733   2.442
 2639TIP3    H2 7882   6.621   0.586   2.447
 2640TIP3   OH2 7883   6.880   3.205   3.575
 2640TIP3    H1 7884   6.844   3.230   3.660
 2640TIP3    H2 7885   6.923   3.284   3.543
 2641TIP3   OH2 7886   6.080   4.902   0.676
 2641TIP3    H1 7887   6.103   4.857   0.595
 2641TIP3    H2 7888   6.019   4.971   0.649
 2642TIP3   OH2 7889   0.371   0.336   0.119
 2642TIP3    H1 7890   0.331   0.295   0.043
 2642TIP3    H2 7891   0.316   0.309   0.193
 2643TIP3   OH2 7892   4.838   5.047   2.176
 2643TIP3    H1 7893   4.749   5.045   2.140
 2643TIP3    H2 7894   4.895   5.037   2.099
 2644TIP3   OH2 7895   4.209   1.644   3.722
 2644TIP3    H1 7896   4.147   1.687   3.781
 2644TIP3    H2 7897   4.293   1.687   3.740
 2645TIP3   OH2 7898   0.499   1.632   1.025
 2645TIP3    H1 7899   0.433   1.564   1.040
 2645TIP3    H2 7900   0.564   1.617   1.094
 2646TIP3   OH2 7901   3.923   3.272   1.340
 2646TIP3    H1 7902   3.894   3.318   1.261
 2646TIP3    H2 7903   3.886   3.324   1.412
 2647TIP3   OH2 7904   2.557   5.898   1.961
 2647TIP3    H1 7905   2.560   5.859   2.049
 2647TIP3    H2 7906   2.630   5.857   1.914
 2648TIP3   OH2 7907   6.669   6.397   1.435
 2648TIP3    H1 7908   6.739   6.436   1.382
 2648TIP3    H2 7909   6.654   6.311   1.395
 2649TIP3   OH2 7910   6.589   6.522   3.095
 2649TIP3    H1 7911   6.580   6.615   3.117
 2649TIP3    H2 7912   6.503   6.496   3.063
 2650TIP3   OH2 7913   6.890   1.329   0.180
 2650TIP3    H1 7914   6.951   1.269   0.223
 2650TIP3    H2 7915   6.907   1.317   0.086
 2651TIP3   OH2 7916   2.904   5.286   3.246
 2651TIP3    H1 7917   2.872   5.355   3.304
 2651TIP3    H2 7918   2.993   5.312   3.224
 2652TIP3   OH2 7919   3.832   1.986   5.441
 2652TIP3    H1 7920   3.887   1.971   5.364
 2652TIP3    H2 7921   3.770   2.053   5.412
 2653TIP3   OH2 7922   4.023   0.303   1.329
 2653TIP3    H1 7923   4.063   0.222   1.297
 2653TIP3    H2 7924   4.084   0.372   1.301
 2654TIP3   OH2 7925   3.604   3.071   5.681
 2654TIP3    H1 7926   3.600   3.138   5.612
 2654TIP3    H2 7927   3.521   3.082   5.729
 2655TIP3   OH2 7928   0.691   3.589   5.243
 2655TIP3    H1 7929   0.662   3.671   5.203
 2655TIP3    H2 7930   0.681   3.603   5.337
 2656TIP3   OH2 7931   0.746   4.922   2.246
 2656TIP3    H1 7932   0.810   4.877   2.300
 2656TIP3    H2 7933   0.690   4.970   2.308
 2657TIP3   OH2 7934   4.510   0.253   5.187
 2657TIP3    H1 7935   4.451   0.232   5.259
 2657TIP3    H2 7936   4.572   0.317   5.224
 2658TIP3   OH2 7937   0.192   0.159   3.549
 2658TIP3    H1 7938   0.140   0.238   3.567
 2658TIP3    H2 7939   0.129   0.098   3.510
 2659TIP3   OH2 7940   6.320   4.776   0.109
 2659TIP3    H1 7941   6.397   4.757   0.056
 2659TIP3    H2 7942   6.288   4.860   0.077
 2660TIP3   OH2 7943   6.108   1.441   3.696
 2660TIP3    H1 7944   6.191   1.466   3.656
 2660TIP3    H2 7945   6.041   1.489   3.647
 2661TIP3   OH2 7946   0.332   4.314   5.766
 2661TIP3    H1 7947   0.278   4.255   5.713
 2661TIP3    H2 7948   0.395   4.256   5.808
 2662TIP3   OH2 7949   5.905   1.440   2.170
 2662TIP3    H1 7950   5.880   1.425   2.261
 2662TIP3    H2 7951   5.975   1.505   2.174
 2663TIP3   OH2 7952   3.785   6.034   3.766
 2663TIP3    H1 7953   3.748   6.054   3.680
 2663TIP3    H2 7954   3.837   6.111   3.788
 2664TIP3   OH2 7955   5.360   3.126   0.379
 2664TIP3    H1 7956   5.294   3.179   0.334
 2664TIP3    H2 7957   5.309   3.066   0.433
 2665TIP3   OH2 7958   1.681   3.716   4.440
 2665TIP3    H1 7959   1.770   3.751   4.441
 2665TIP3    H2 7960   1.686   3.637   4.495
 2666TIP3   OH2 7961   3.811   6.822   4.646
 2666TIP3    H1 7962   3.756   6.859   4.578
 2666TIP3    H2 7963   3.751   6.769   4.699
 2667TIP3   OH2 7964   3.932   0.398   3.319
 2667TIP3    H1 7965   3.842   0.365   3.309
 2667TIP3    H2 7966   3.981   0.323   3.353
 2668TIP3   OH2 7967   5.828   3.681   2.648
 2668TIP3    H1 7968   5.910   3.712   2.609
 2668TIP3    H2 7969   5.793   3.756   2.695
 2669TIP3   OH2 7970   6.030   1.930   1.325
 2669TIP3    H1 7971   5.978   1.933   1.405
 2669TIP3    H2 7972   6.115   1.966   1.350
 2670TIP3   OH2 7973   2.837   5.491   0.630
 2670TIP3    H1 7974   2.881   5.412   0.597
 2670TIP3    H2 7975   2.774   5.458   0.694
 2671TIP3   OH2 7976   1.326   4.220   1.437
 2671TIP3    H1 7977   1.362   4.223   1.525
 2671TIP3    H2 7978   1.258   4.152   1.441
 2672TIP3   OH2 7979   3.155   0.868   4.769
 2672TIP3    H1 7980   3.203   0.876   4.852
 2672TIP3    H2 7981   3.158   0.955   4.730
 2673TIP3   OH2 7982   4.713   3.513   1.955
 2673TIP3    H1 7983   4.764   3.524   2.035
 2673TIP3    H2 7984   4.669   3.429   1.966
 2674TIP3   OH2 7985   2.696   6.587   4.158
 2674TIP3    H1 7986   2.605   6.614   4.149
 2674TIP3    H2 7987   2.695   6.492   4.142
 2675TIP3   OH2 7988   3.569   1.500   5.594
 2675TIP3    H1 7989   3.553   1.486   5.687
 2675TIP3    H2 7990   3.663   1.487   5.583
 2676TIP3   OH2 7991   6.859   5.989   0.750
 2676TIP3    H1 7992   6.785   5.931   0.766
 2676TIP3    H2 7993   6.831   6.074   0.784
 2677TIP3   OH2 7994   2.368   2.321   4.912
 2677TIP3    H1 7995   2.344   2.340   4.821
 2677TIP3    H2 7996   2.405   2.404   4.945
 2678TIP3   OH2 7997   6.452   4.932   2.090
 2678TIP3    H1 7998   6.528   4.987   2.110
 2678TIP3    H2 7999   6.380   4.994   2.079
 2679TIP3   OH2 8000   2.236   3.632   1.428
 2679TIP3    H1 8001   2.237   3.635   1.333
 2679TIP3    H2 8002   2.276   3.548   1.450
 2680TIP3   OH2 8003   7.047   5.872   2.044
 2680TIP3    H1 8004   7.050   5.781   2.013
 2680TIP3    H2 8005   7.138   5.892   2.068
 2681TIP3   OH2 8006   6.855   1.655   1.494
 2681TIP3    H1 8007   6.779   1.708   1.472
 2681TIP3    H2 8008   6.848   1.640   1.588
 2682TIP3   OH2 8009   0.263   4.052   0.338
 2682TIP3    H1 8010   0.255   3.994   0.413
 2682TIP3    H2 8011   0.352   4.037   0.306
 2683TIP3   OH2 8012   5.524   6.157   4.034
 2683TIP3    H1 8013   5.537   6.088   3.970
 2683TIP3    H2 8014   5.601   6.152   4.091
 2684TIP3   OH2 8015  -0.034   0.144   5.878
 2684TIP3    H1 8016   0.041   0.180   5.832
 2684TIP3    H2 8017  -0.063   0.071   5.824
 2685TIP3   OH2 8018   6.494   2.328   1.538
 2685TIP3    H1 8019   6.505   2.379   1.457
 2685TIP3    H2 8020   6.583   2.320   1.573
 2686TIP3   OH2 8021   3.682   0.210   4.437
 2686TIP3    H1 8022   3.600   0.215   4.387
 2686TIP3    H2 8023   3.736   0.281   4.402
 2687TIP3   OH2 8024   4.280   0.304   2.871
 2687TIP3    H1 8025   4.231   0.284   2.951
 2687TIP3    H2 8026   4.365   0.335   2.902
 2688TIP3   OH2 8027   0.884   1.591   1.609
 2688TIP3    H1 8028   0.872   1.679   1.645
 2688TIP3    H2 8029   0.977   1.585   1.591
 2689TIP3   OH2 8030   4.076   4.889   0.501
 2689TIP3    H1 8031   4.170   4.876   0.507
 2689TIP3    H2 8032   4.050   4.845   0.420
 2690TIP3   OH2 8033   5.670   5.895   0.425
 2690TIP3    H1 8034   5.717   5.934   0.498
 2690TIP3    H2 8035   5.711   5.933   0.347
 2691TIP3   OH2 8036   2.471   4.356   0.203
 2691TIP3    H1 8037   2.528   4.388   0.133
 2691TIP3    H2 8038   2.504   4.269   0.222
 2692TIP3   OH2 8039   5.129   3.415   2.610
 2692TIP3    H1 8040   5.097   3.476   2.544
 2692TIP3    H2 8041   5.189   3.357   2.563
 2693TIP3   OH2 8042   3.288   0.611   1.029
 2693TIP3    H1 8043   3.233   0.617   0.950
 2693TIP3    H2 8044   3.378   0.612   0.995
 2694TIP3   OH2 8045   4.516   4.498   5.695
 2694TIP3    H1 8046   4.579   4.445   5.744
 2694TIP3    H2 8047   4.449   4.520   5.760
 2695TIP3   OH2 8048   1.609   1.219   4.648
 2695TIP3    H1 8049   1.518   1.247   4.655
 2695TIP3    H2 8050   1.644   1.269   4.574
 2696TIP3   OH2 8051   3.158   2.306   0.163
 2696TIP3    H1 8052   3.184   2.266   0.246
 2696TIP3    H2 8053   3.239   2.312   0.113
 2697TIP3   OH2 8054   5.707   4.892   0.601
 2697TIP3    H1 8055   5.773   4.869   0.536
 2697TIP3    H2 8056   5.646   4.819   0.601
 2698TIP3   OH2 8057   2.642   1.888   3.502
 2698TIP3    H1 8058   2.678   1.945   3.570
 2698TIP3    H2 8059   2.636   1.802   3.544
 2699TIP3   OH2 8060   0.149   2.158   2.383
 2699TIP3    H1 8061   0.206   2.215   2.434
 2699TIP3    H2 8062   0.074   2.141   2.440
 2700TIP3   OH2 8063   3.751   3.788   1.091
 2700TIP3    H1 8064   3.742   3.693   1.092
 2700TIP3    H2 8065   3.683   3.820   1.150
 2701TIP3   OH2 8066   2.489   5.442   4.190
 2701TIP3    H1 8067   2.420   5.399   4.139
 2701TIP3    H2 8068   2.568   5.432   4.137
 2702TIP3   OH2 8069   6.360   4.390   5.744
 2702TIP3    H1 8070   6.451   4.370   5.764
 2702TIP3    H2 8071   6.310   4.320   5.786
 2703TIP3   OH2 8072   5.462   1.913   0.544
 2703TIP3    H1 8073   5.374   1.879   0.560
 2703TIP3    H2 8074   5.479   1.969   0.620
 2704TIP3   OH2 8075   0.479   5.620   0.932
 2704TIP3    H1 8076   0.537   5.614   1.008
 2704TIP3    H2 8077   0.432   5.537   0.931
 2705TIP3   OH2 8078   5.502   3.824   4.253
 2705TIP3    H1 8079   5.424   3.768   4.255
 2705TIP3    H2 8080   5.471   3.906   4.213
 2706TIP3   OH2 8081   2.151   0.753   5.808
 2706TIP3    H1 8082   2.186   0.797   5.731
 2706TIP3    H2 8083   2.157   0.818   5.878
 2707TIP3   OH2 8084   3.215   4.018   4.282
 2707TIP3    H1 8085   3.292   3.962   4.284
 2707TIP3    H2 8086   3.189   4.021   4.189
 2708TIP3   OH2 8087   1.688   4.660   3.444
 2708TIP3    H1 8088   1.602   4.673   3.404
 2708TIP3    H2 8089   1.749   4.703   3.384
 2709TIP3   OH2 8090   6.314   0.038   3.401
 2709TIP3    H1 8091   6.405   0.025   3.376
 2709TIP3    H2 8092   6.284  -0.048   3.430
 2710TIP3   OH2 8093   4.724   0.425   5.248
 2710TIP3    H1 8094   4.749   0.497   5.189
 2710TIP3    H2 8095   4.664   0.466   5.311
 2711TIP3   OH2 8096   3.919   2.109   4.363
 2711TIP3    H1 8097   3.851   2.106   4.430
 2711TIP3    H2 8098   4.001   2.107   4.412
 2712TIP3   OH2 8099   1.476   6.538   3.383
 2712TIP3    H1 8100   1.440   6.450   3.378
 2712TIP3    H2 8101   1.400   6.595   3.391
 2713TIP3   OH2 8102   5.279   0.769   0.990
 2713TIP3    H1 8103   5.253   0.759   1.081
 2713TIP3    H2 8104   5.199   0.796   0.945
 2714TIP3   OH2 8105   5.167   0.159   3.190
 2714TIP3    H1 8106   5.120   0.188   3.268
 2714TIP3    H2 8107   5.256   0.190   3.203
 2715TIP3   OH2 8108   5.608   4.779   1.693
 2715TIP3    H1 8109   5.567   4.838   1.629
 2715TIP3    H2 8110   5.699   4.774   1.666
 2716TIP3   OH2 8111   0.391   2.475   5.685
 2716TIP3    H1 8112   0.407   2.565   5.714
 2716TIP3    H2 8113   0.475   2.430   5.696
 2717TIP3   OH2 8114   6.208   5.105   2.073
 2717TIP3    H1 8115   6.185   5.026   2.024
 2717TIP3    H2 8116   6.152   5.174   2.035
 2718TIP3   OH2 8117   2.739   4.745   1.866
 2718TIP3    H1 8118   2.707   4.733   1.777
 2718TIP3    H2 8119   2.827   4.781   1.855
 2719TIP3   OH2 8120   0.445   4.702   3.417
 2719TIP3    H1 8121   0.538   4.725   3.420
 2719TIP3    H2 8122   0.433   4.640   3.489
 2720TIP3   OH2 8123   5.365   3.200   4.329
 2720TIP3    H1 8124   5.307   3.237   4.394
 2720TIP3    H2 8125   5.353   3.105   4.336
 2721TIP3   OH2 8126   4.392   1.045   1.594
 2721TIP3    H1 8127   4.349   0.961   1.581
 2721TIP3    H2 8128   4.394   1.056   1.689
 2722TIP3   OH2 8129   2.807   3.352   2.355
 2722TIP3    H1 8130   2.854   3.338   2.273
 2722TIP3    H2 8131   2.741   3.418   2.334
 2723TIP3   OH2 8132   1.153   3.259   2.528
 2723TIP3    H1 8133   1.117   3.236   2.614
 2723TIP3    H2 8134   1.164   3.176   2.483
 2724TIP3   OH2 8135   2.794   1.071   5.681
 2724TIP3    H1 8136   2.878   1.029   5.664
 2724TIP3    H2 8137   2.772   1.116   5.599
 2725TIP3   OH2 8138   6.648   4.560   0.820
 2725TIP3    H1 8139   6.656   4.589   0.729
 2725TIP3    H2 8140   6.585   4.488   0.817
 2726TIP3   OH2 8141   2.479   3.252   4.276
 2726TIP3    H1 8142   2.389   3.284   4.272
 2726TIP3    H2 8143   2.471   3.156   4.274
 2727TIP3   OH2 8144   0.946   3.977   4.056
 2727TIP3    H1 8145   1.012   3.918   4.020
 2727TIP3    H2 8146   0.998   4.045   4.101
 2728TIP3   OH2 8147   5.940   3.819   4.745
 2728TIP3    H1 8148   5.948   3.725   4.763
 2728TIP3    H2 8149   5.979   3.829   4.657
 2729TIP3   OH2 8150   1.542   6.246   4.998
 2729TIP3    H1 8151   1.450   6.231   4.974
 2729TIP3    H2 8152   1.576   6.303   4.930
 2730TIP3   OH2 8153   6.934   5.179   2.287
 2730TIP3    H1 8154   6.844   5.207   2.268
 2730TIP3    H2 8155   6.975   5.168   2.201
 2731TIP3   OH2 8156   5.045   4.530   5.085
 2731TIP3    H1 8157   5.125   4.579   5.066
 2731TIP3    H2 8158   5.069   4.470   5.155
 2732TIP3   OH2 8159   6.851   1.536   2.392
 2732TIP3    H1 8160   6.820   1.456   2.349
 2732TIP3    H2 8161   6.904   1.506   2.465
 2733TIP3   OH2 8162   6.699   5.718   3.180
 2733TIP3    H1 8163   6.773   5.692   3.125
 2733TIP3    H2 8164   6.692   5.649   3.245
 2734TIP3   OH2 8165   5.224   1.086   0.092
 2734TIP3    H1 8166   5.186   1.024   0.030
 2734TIP3    H2 8167   5.316   1.093   0.065
 2735TIP3   OH2 8168   2.456   0.212   1.715
 2735TIP3    H1 8169   2.480   0.125   1.683
 2735TIP3    H2 8170   2.386   0.196   1.778
 2736TIP3   OH2 8171   3.242   5.003   3.266
 2736TIP3    H1 8172   3.180   5.036   3.330
 2736TIP3    H2 8173   3.267   4.916   3.298
 2737TIP3   OH2 8174   4.880   1.736   5.203
 2737TIP3    H1 8175   4.861   1.801   5.271
 2737TIP3    H2 8176   4.880   1.785   5.121
 2738TIP3   OH2 8177   5.564   2.359   4.591
 2738TIP3    H1 8178   5.496   2.323   4.534
 2738TIP3    H2 8179   5.593   2.284   4.643
 2739TIP3   OH2 8180   5.065   5.594   3.550
 2739TIP3    H1 8181   4.980   5.595   3.592
 2739TIP3    H2 8182   5.112   5.521   3.590
 2740TIP3   OH2 8183   2.946   5.344   1.061
 2740TIP3    H1 8184   2.952   5.424   1.114
 2740TIP3    H2 8185   2.857   5.313   1.075
 2741TIP3   OH2 8186   5.083   1.062   3.013
 2741TIP3    H1 8187   5.065   1.143   2.965
 2741TIP3    H2 8188   5.066   0.993   2.949
 2742TIP3   OH2 8189   1.195   3.702   1.847
 2742TIP3    H1 8190   1.174   3.676   1.757
 2742TIP3    H2 8191   1.230   3.790   1.839
 2743TIP3   OH2 8192   2.879   4.041   0.891
 2743TIP3    H1 8193   2.953   4.098   0.870
 2743TIP3    H2 8194   2.814   4.060   0.823
 2744TIP3   OH2 8195   2.856   1.971   2.250
 2744TIP3    H1 8196   2.915   1.944   2.320
 2744TIP3    H2 8197   2.913   1.977   2.173
 2745TIP3   OH2 8198   2.258   5.752   0.292
 2745TIP3    H1 8199   2.253   5.777   0.199
 2745TIP3    H2 8200   2.202   5.816   0.336
 2746TIP3   OH2 8201   5.239   1.107   4.788
 2746TIP3    H1 8202   5.227   1.194   4.751
 2746TIP3    H2 8203   5.154   1.064   4.777
 2747TIP3   OH2 8204   4.550   0.917   2.186
 2747TIP3    H1 8205   4.503   1.001   2.191
 2747TIP3    H2 8206   4.483   0.853   2.166
 2748TIP3   OH2 8207   6.196   5.508   2.168
 2748TIP3    H1 8208   6.188   5.553   2.252
 2748TIP3    H2 8209   6.127   5.547   2.113
 2749TIP3   OH2 8210   0.470   0.978   1.264
 2749TIP3    H1 8211   0.410   0.927   1.211
 2749TIP3    H2 8212   0.526   0.913   1.307
 2750TIP3   OH2 8213   3.082   6.665   1.232
 2750TIP3    H1 8214   3.043   6.621   1.157
 2750TIP3    H2 8215   3.163   6.619   1.248
 2751TIP3   OH2 8216   5.941   0.299   5.365
 2751TIP3    H1 8217   5.947   0.348   5.283
 2751TIP3    H2 8218   5.918   0.365   5.431
 2752TIP3   OH2 8219   4.498   0.759   4.251
 2752TIP3    H1 8220   4.414   0.794   4.280
 2752TIP3    H2 8221   4.500   0.776   4.156
 2753TIP3   OH2 8222   1.686   1.488   2.982
 2753TIP3    H1 8223   1.743   1.413   2.997
 2753TIP3    H2 8224   1.687   1.500   2.887
 2754TIP3   OH2 8225   4.142   1.613   1.282
 2754TIP3    H1 8226   4.073   1.672   1.310
 2754TIP3    H2 8227   4.162   1.640   1.192
 2755TIP3   OH2 8228   4.965   5.180   1.307
 2755TIP3    H1 8229   5.043   5.204   1.358
 2755TIP3    H2 8230   4.986   5.207   1.217
 2756TIP3   OH2 8231   0.831   6.224   0.945
 2756TIP3    H1 8232   0.786   6.267   1.018
 2756TIP3    H2 8233   0.854   6.295   0.886
 2757TIP3   OH2 8234   2.982   2.572   4.030
 2757TIP3    H1 8235   2.890   2.598   4.038
 2757TIP3    H2 8236   3.024   2.608   4.108
 2758TIP3   OH2 8237   1.111   3.270   4.180
 2758TIP3    H1 8238   1.084   3.289   4.090
 2758TIP3    H2 8239   1.029   3.260   4.228
 2759TIP3   OH2 8240   0.454   3.912   5.427
 2759TIP3    H1 8241   0.368   3.881   5.397
 2759TIP3    H2 8242   0.485   3.968   5.357
 2760TIP3   OH2 8243   6.521   2.892   2.470
 2760TIP3    H1 8244   6.525   2.869   2.377
 2760TIP3    H2 8245   6.603   2.859   2.506
 2761TIP3   OH2 8246   5.945   1.295   3.401
 2761TIP3    H1 8247   5.920   1.375   3.447
 2761TIP3    H2 8248   5.940   1.318   3.308
 2762TIP3   OH2 8249   0.784   3.717   4.905
 2762TIP3    H1 8250   0.789   3.810   4.882
 2762TIP3    H2 8251   0.806   3.671   4.823
 2763TIP3   OH2 8252   1.919   4.087   2.658
 2763TIP3    H1 8253   1.876   4.029   2.596
 2763TIP3    H2 8254   1.905   4.046   2.743
 2764TIP3   OH2 8255   5.189   6.031   3.754
 2764TIP3    H1 8256   5.270   6.081   3.745
 2764TIP3    H2 8257   5.120   6.097   3.762
 2765TIP3   OH2 8258   6.085   3.953   5.672
 2765TIP3    H1 8259   5.998   3.989   5.690
 2765TIP3    H2 8260   6.074   3.901   5.593
 2766TIP3   OH2 8261   6.762   0.579   4.928
 2766TIP3    H1 8262   6.723   0.611   5.010
 2766TIP3    H2 8263   6.764   0.484   4.939
 2767TIP3   OH2 8264   3.022   4.060   0.538
 2767TIP3    H1 8265   3.037   4.103   0.623
 2767TIP3    H2 8266   3.103   4.075   0.490
 2768TIP3   OH2 8267   3.600   2.959   4.963
 2768TIP3    H1 8268   3.654   2.881   4.978
 2768TIP3    H2 8269   3.536   2.958   5.034
 2769TIP3   OH2 8270   3.914   2.878   4.084
 2769TIP3    H1 8271   3.894   2.829   4.004
 2769TIP3    H2 8272   3.907   2.970   4.059
 2770TIP3   OH2 8273   6.001   3.975   3.112
 2770TIP3    H1 8274   5.964   3.893   3.078
 2770TIP3    H2 8275   6.057   4.007   3.041
 2771TIP3   OH2 8276   0.543   4.267   1.325
 2771TIP3    H1 8277   0.504   4.180   1.319
 2771TIP3    H2 8278   0.624   4.261   1.273
 2772TIP3   OH2 8279   5.080   2.691   4.314
 2772TIP3    H1 8280   5.001   2.663   4.361
 2772TIP3    H2 8281   5.151   2.646   4.358
 2773TIP3   OH2 8282   6.185   4.880   0.409
 2773TIP3    H1 8283   6.241   4.956   0.423
 2773TIP3    H2 8284   6.188   4.864   0.315
 2774TIP3   OH2 8285   6.324   5.129   0.428
 2774TIP3    H1 8286   6.396   5.189   0.406
 2774TIP3    H2 8287   6.248   5.187   0.440
 2775TIP3   OH2 8288   2.797   2.774   4.382
 2775TIP3    H1 8289   2.813   2.680   4.380
 2775TIP3    H2 8290   2.818   2.804   4.293
 2776TIP3   OH2 8291   2.335   6.350   2.080
 2776TIP3    H1 8292   2.388   6.420   2.118
 2776TIP3    H2 8293   2.326   6.374   1.987
 2777TIP3   OH2 8294   5.560   3.409   2.561
 2777TIP3    H1 8295   5.483   3.353   2.574
 2777TIP3    H2 8296   5.533   3.495   2.595
 2778TIP3   OH2 8297   5.464   5.903   3.514
 2778TIP3    H1 8298   5.431   5.974   3.458
 2778TIP3    H2 8299   5.404   5.830   3.499
 2779TIP3   OH2 8300   5.345   5.525   1.642
 2779TIP3    H1 8301   5.268   5.562   1.600
 2779TIP3    H2 8302   5.314   5.445   1.683
 2780TIP3   OH2 8303   2.903   1.397   2.863
 2780TIP3    H1 8304   2.973   1.335   2.841
 2780TIP3    H2 8305   2.912   1.411   2.957
 2781TIP3   OH2 8306   0.356   5.640   3.832
 2781TIP3    H1 8307   0.361   5.632   3.927
 2781TIP3    H2 8308   0.442   5.611   3.801
 2782TIP3   OH2 8309   6.729   2.275   3.045
 2782TIP3    H1 8310   6.813   2.315   3.019
 2782TIP3    H2 8311   6.736   2.265   3.140
 2783TIP3   OH2 8312   1.522   0.154   3.036
 2783TIP3    H1 8313   1.459   0.106   2.982
 2783TIP3    H2 8314   1.474   0.230   3.068
 2784TIP3   OH2 8315   1.087   4.802   2.809
 2784TIP3    H1 8316   1.114   4.836   2.724
 2784TIP3    H2 8317   1.034   4.725   2.789
 2785TIP3   OH2 8318   2.145   2.312   1.178
 2785TIP3    H1 8319   2.088   2.318   1.255
 2785TIP3    H2 8320   2.102   2.367   1.112
 2786TIP3   OH2 8321   3.849   5.915   5.516
 2786TIP3    H1 8322   3.823   6.006   5.529
 2786TIP3    H2 8323   3.844   5.903   5.421
 2787TIP3   OH2 8324   6.573   5.298   3.014
 2787TIP3    H1 8325   6.580   5.382   3.058
 2787TIP3    H2 8326   6.488   5.263   3.041
 2788TIP3   OH2 8327   5.799   0.790   5.484
 2788TIP3    H1 8328   5.812   0.849   5.410
 2788TIP3    H2 8329   5.784   0.849   5.559
 2789TIP3   OH2 8330   3.089   4.709   1.497
 2789TIP3    H1 8331   3.079   4.614   1.494
 2789TIP3    H2 8332   3.173   4.723   1.541
 2790TIP3   OH2 8333   3.491   1.173   2.376
 2790TIP3    H1 8334   3.529   1.175   2.464
 2790TIP3    H2 8335   3.486   1.080   2.354
 2791TIP3   OH2 8336   5.242   2.377   2.483
 2791TIP3    H1 8337   5.230   2.454   2.427
 2791TIP3    H2 8338   5.153   2.353   2.509
 2792TIP3   OH2 8339   4.644   3.711   2.167
 2792TIP3    H1 8340   4.553   3.730   2.145
 2792TIP3    H2 8341   4.670   3.643   2.105
 2793TIP3   OH2 8342   5.589   3.884   1.880
 2793TIP3    H1 8343   5.593   3.839   1.796
 2793TIP3    H2 8344   5.605   3.976   1.859
 2794TIP3   OH2 8345   5.098   5.409   4.077
 2794TIP3    H1 8346   5.063   5.421   4.166
 2794TIP3    H2 8347   5.193   5.402   4.090
 2795TIP3   OH2 8348   6.370   3.956   3.464
 2795TIP3    H1 8349   6.465   3.951   3.459
 2795TIP3    H2 8350   6.344   3.997   3.381
 2796TIP3   OH2 8351   2.280   6.194   5.579
 2796TIP3    H1 8352   2.343   6.188   5.507
 2796TIP3    H2 8353   2.324   6.248   5.644
 2797TIP3   OH2 8354   2.304   6.066   4.202
 2797TIP3    H1 8355   2.326   6.063   4.295
 2797TIP3    H2 8356   2.303   6.159   4.181
 2798TIP3   OH2 8357   3.669   6.331   3.629
 2798TIP3    H1 8358   3.720   6.315   3.709
 2798TIP3    H2 8359   3.639   6.421   3.638
 2799TIP3   OH2 8360   2.527   6.175   3.676
 2799TIP3    H1 8361   2.571   6.223   3.606
 2799TIP3    H2 8362   2.435   6.174   3.651
 2800TIP3   OH2 8363   6.880   0.658   2.280
 2800TIP3    H1 8364   6.810   0.671   2.345
 2800TIP3    H2 8365   6.951   0.715   2.309
 2801TIP3   OH2 8366   1.967   6.009   0.408
 2801TIP3    H1 8367   1.906   5.936   0.416
 2801TIP3    H2 8368   1.913   6.087   0.418
 2802TIP3   OH2 8369   2.621   4.351   2.819
 2802TIP3    H1 8370   2.557   4.296   2.863
 2802TIP3    H2 8371   2.651   4.299   2.745
 2803TIP3   OH2 8372   5.034   3.813   1.478
 2803TIP3    H1 8373   5.084   3.895   1.474
 2803TIP3    H2 8374   5.098   3.745   1.458
 2804TIP3   OH2 8375   3.867   2.635   3.162
 2804TIP3    H1 8376   3.826   2.712   3.122
 2804TIP3    H2 8377   3.949   2.668   3.198
 2805TIP3   OH2 8378   5.988   6.138   0.408
 2805TIP3    H1 8379   6.041   6.203   0.453
 2805TIP3    H2 8380   5.919   6.188   0.365
 2806TIP3   OH2 8381   2.461   2.692   5.427
 2806TIP3    H1 8382   2.397   2.642   5.375
 2806TIP3    H2 8383   2.460   2.650   5.513
 2807TIP3   OH2 8384   3.667   4.508   3.329
 2807TIP3    H1 8385   3.600   4.513   3.397
 2807TIP3    H2 8386   3.679   4.414   3.314
 2808TIP3   OH2 8387   7.157   5.267   5.202
 2808TIP3    H1 8388   7.124   5.283   5.290
 2808TIP3    H2 8389   7.116   5.335   5.148
 2809TIP3   OH2 8390   0.244   1.063   3.325
 2809TIP3    H1 8391   0.210   1.010   3.253
 2809TIP3    H2 8392   0.339   1.054   3.319
 2810TIP3   OH2 8393   7.210   3.662   5.377
 2810TIP3    H1 8394   7.184   3.680   5.286
 2810TIP3    H2 8395   7.222   3.567   5.380
 2811TIP3   OH2 8396   0.728   2.406   2.349
 2811TIP3    H1 8397   0.662   2.447   2.405
 2811TIP3    H2 8398   0.795   2.474   2.338
 2812TIP3   OH2 8399   6.191   2.755   1.399
 2812TIP3    H1 8400   6.237   2.695   1.457
 2812TIP3    H2 8401   6.234   2.839   1.412
 2813TIP3   OH2 8402   4.153   3.576   5.425
 2813TIP3    H1 8403   4.216   3.633   5.380
 2813TIP3    H2 8404   4.104   3.635   5.482
 2814TIP3   OH2 8405   3.864   3.018   5.263
 2814TIP3    H1 8406   3.952   3.054   5.254
 2814TIP3    H2 8407   3.865   2.939   5.208
 2815TIP3   OH2 8408   2.792   3.829   5.319
 2815TIP3    H1 8409   2.856   3.868   5.379
 2815TIP3    H2 8410   2.707   3.851   5.357
 2816TIP3   OH2 8411   6.531   2.712   4.648
 2816TIP3    H1 8412   6.525   2.658   4.727
 2816TIP3    H2 8413   6.591   2.783   4.672
 2817TIP3   OH2 8414   0.389   0.735   3.822
 2817TIP3    H1 8415   0.323   0.794   3.787
 2817TIP3    H2 8416   0.464   0.791   3.841
 2818TIP3   OH2 8417   5.984   5.598   2.022
 2818TIP3    H1 8418   6.004   5.655   1.947
 2818TIP3    H2 8419   5.902   5.554   1.998
 2819TIP3   OH2 8420   3.062   5.404   2.394
 2819TIP3    H1 8421   2.983   5.420   2.343
 2819TIP3    H2 8422   3.082   5.311   2.379
 2820TIP3   OH2 8423   6.633   3.467   1.158
 2820TIP3    H1 8424   6.614   3.440   1.248
 2820TIP3    H2 8425   6.636   3.385   1.108
 2821TIP3   OH2 8426   5.791   1.831   4.966
 2821TIP3    H1 8427   5.844   1.862   4.892
 2821TIP3    H2 8428   5.838   1.754   4.997
 2822TIP3   OH2 8429   4.236   0.934   3.895
 2822TIP3    H1 8430   4.246   1.024   3.865
 2822TIP3    H2 8431   4.247   0.881   3.817
 2823TIP3   OH2 8432   2.217   3.354   0.353
 2823TIP3    H1 8433   2.294   3.411   0.358
 2823TIP3    H2 8434   2.251   3.266   0.367
 2824TIP3   OH2 8435   7.048   1.978   0.379
 2824TIP3    H1 8436   7.029   2.062   0.420
 2824TIP3    H2 8437   7.117   1.940   0.435
 2825TIP3   OH2 8438   4.509   3.396   4.949
 2825TIP3    H1 8439   4.453   3.446   5.009
 2825TIP3    H2 8440   4.535   3.460   4.882
 2826TIP3   OH2 8441   7.193   0.058   1.925
 2826TIP3    H1 8442   7.113   0.066   1.874
 2826TIP3    H2 8443   7.264   0.067   1.861
 2827TIP3   OH2 8444   3.869   3.003   1.396
 2827TIP3    H1 8445   3.861   3.097   1.379
 2827TIP3    H2 8446   3.913   2.968   1.319
 2828TIP3   OH2 8447   6.027   4.393   5.862
 2828TIP3    H1 8448   6.061   4.370   5.776
 2828TIP3    H2 8449   6.051   4.320   5.918
 2829TIP3   OH2 8450   1.488   5.379   0.407
 2829TIP3    H1 8451   1.456   5.470   0.399
 2829TIP3    H2 8452   1.561   5.374   0.346
 2830TIP3   OH2 8453   3.757   5.099   5.693
 2830TIP3    H1 8454   3.814   5.035   5.736
 2830TIP3    H2 8455   3.708   5.139   5.764
 2831TIP3   OH2 8456   0.913   5.170   0.177
 2831TIP3    H1 8457   0.920   5.230   0.251
 2831TIP3    H2 8458   0.991   5.115   0.184
 2832TIP3   OH2 8459   2.522   5.129   4.743
 2832TIP3    H1 8460   2.551   5.062   4.806
 2832TIP3    H2 8461   2.572   5.110   4.664
 2833TIP3   OH2 8462   1.731   5.577   3.072
 2833TIP3    H1 8463   1.652   5.551   3.025
 2833TIP3    H2 8464   1.771   5.495   3.101
 2834TIP3   OH2 8465   5.485   1.959   1.965
 2834TIP3    H1 8466   5.421   2.025   1.991
 2834TIP3    H2 8467   5.480   1.892   2.033
 2835TIP3   OH2 8468   7.180   3.694   0.404
 2835TIP3    H1 8469   7.164   3.675   0.496
 2835TIP3    H2 8470   7.201   3.787   0.402
 2836TIP3   OH2 8471   5.045   0.901   3.727
 2836TIP3    H1 8472   5.041   0.806   3.721
 2836TIP3    H2 8473   5.086   0.918   3.812
 2837TIP3   OH2 8474   3.264   0.499   3.984
 2837TIP3    H1 8475   3.207   0.576   3.991
 2837TIP3    H2 8476   3.344   0.531   3.942
 2838TIP3   OH2 8477   3.392   5.842   1.701
 2838TIP3    H1 8478   3.312   5.819   1.654
 2838TIP3    H2 8479   3.452   5.872   1.633
 2839TIP3   OH2 8480   1.842   0.911   0.503
 2839TIP3    H1 8481   1.909   0.889   0.569
 2839TIP3    H2 8482   1.892   0.929   0.424
 2840TIP3   OH2 8483   3.130   5.568   2.658
 2840TIP3    H1 8484   3.140   5.658   2.626
 2840TIP3    H2 8485   3.094   5.520   2.583
 2841TIP3   OH2 8486   6.997   3.186   1.752
 2841TIP3    H1 8487   6.917   3.239   1.752
 2841TIP3    H2 8488   7.066   3.245   1.778
 2842TIP3   OH2 8489   1.502   3.059   5.082
 2842TIP3    H1 8490   1.424   3.110   5.057
 2842TIP3    H2 8491   1.566   3.079   5.014
 2843TIP3   OH2 8492   6.514   3.891   0.828
 2843TIP3    H1 8493   6.449   3.943   0.781
 2843TIP3    H2 8494   6.562   3.955   0.881
 2844TIP3   OH2 8495   3.209   4.402   0.803
 2844TIP3    H1 8496   3.279   4.433   0.860
 2844TIP3    H2 8497   3.131   4.451   0.831
 2845TIP3   OH2 8498   6.141   3.941   1.421
 2845TIP3    H1 8499   6.232   3.972   1.417
 2845TIP3    H2 8500   6.116   3.955   1.513
 2846TIP3   OH2 8501   5.830   2.482   5.596
 2846TIP3    H1 8502   5.883   2.495   5.517
 2846TIP3    H2 8503   5.745   2.454   5.564
 2847TIP3   OH2 8504   6.334   3.023   1.488
 2847TIP3    H1 8505   6.250   3.061   1.461
 2847TIP3    H2 8506   6.398   3.091   1.468
 2848TIP3   OH2 8507   6.085   6.512   2.877
 2848TIP3    H1 8508   6.123   6.471   2.799
 2848TIP3    H2 8509   6.083   6.442   2.942
 2849TIP3   OH2 8510   4.613   1.086   3.469
 2849TIP3    H1 8511   4.548   1.026   3.505
 2849TIP3    H2 8512   4.561   1.152   3.421
 2850TIP3   OH2 8513   2.760   2.220   2.352
 2850TIP3    H1 8514   2.748   2.132   2.387
 2850TIP3    H2 8515   2.701   2.225   2.277
 2851TIP3   OH2 8516   2.364   6.105   1.327
 2851TIP3    H1 8517   2.352   6.010   1.339
 2851TIP3    H2 8518   2.295   6.144   1.381
 2852TIP3   OH2 8519   2.549   6.538   5.584
 2852TIP3    H1 8520   2.545   6.497   5.498
 2852TIP3    H2 8521   2.458   6.553   5.608
 2853TIP3   OH2 8522   4.361   1.484   0.080
 2853TIP3    H1 8523   4.388   1.393   0.086
 2853TIP3    H2 8524   4.274   1.487   0.120
 2854TIP3   OH2 8525   0.492   2.198   5.268
 2854TIP3    H1 8526   0.503   2.181   5.175
 2854TIP3    H2 8527   0.494   2.294   5.275
 2855TIP3   OH2 8528   1.503   5.308   4.109
 2855TIP3    H1 8529   1.436   5.240   4.114
 2855TIP3    H2 8530   1.460   5.387   4.143
 2856TIP3   OH2 8531   5.157   2.749   5.038
 2856TIP3    H1 8532   5.243   2.790   5.047
 2856TIP3    H2 8533   5.176   2.655   5.044
 2857TIP3   OH2 8534   1.513   5.500   2.919
 2857TIP3    H1 8535   1.425   5.511   2.883
 2857TIP3    H2 8536   1.532   5.407   2.908
 2858TIP3   OH2 8537   4.465   6.234   2.545
 2858TIP3    H1 8538   4.397   6.168   2.539
 2858TIP3    H2 8539   4.509   6.232   2.460
 2859TIP3   OH2 8540   4.421   6.078   1.392
 2859TIP3    H1 8541   4.421   6.173   1.393
 2859TIP3    H2 8542   4.476   6.053   1.467
 2860TIP3   OH2 8543   2.534   5.395   2.178
 2860TIP3    H1 8544   2.499   5.462   2.236
 2860TIP3    H2 8545   2.602   5.440   2.128
 2861TIP3   OH2 8546   2.851   0.225   2.433
 2861TIP3    H1 8547   2.821   0.279   2.506
 2861TIP3    H2 8548   2.805   0.260   2.357
 2862TIP3   OH2 8549   4.776   6.237   3.800
 2862TIP3    H1 8550   4.762   6.251   3.894
 2862TIP3    H2 8551   4.722   6.303   3.758
 2863TIP3   OH2 8552   4.074   3.396   0.447
 2863TIP3    H1 8553   4.120   3.468   0.402
 2863TIP3    H2 8554   4.052   3.432   0.533
 2864TIP3   OH2 8555   6.786   2.142   5.069
 2864TIP3    H1 8556   6.873   2.181   5.072
 2864TIP3    H2 8557   6.745   2.169   5.151
 2865TIP3   OH2 8558   4.761   4.410   5.400
 2865TIP3    H1 8559   4.744   4.497   5.436
 2865TIP3    H2 8560   4.748   4.421   5.305
 2866TIP3   OH2 8561   0.295   1.948   5.339
 2866TIP3    H1 8562   0.204   1.955   5.367
 2866TIP3    H2 8563   0.345   1.988   5.411
 2867TIP3   OH2 8564   6.272   2.198   2.310
 2867TIP3    H1 8565   6.219   2.123   2.337
 2867TIP3    H2 8566   6.298   2.240   2.392
 2868TIP3   OH2 8567   1.416   4.989   4.645
 2868TIP3    H1 8568   1.481   5.059   4.656
 2868TIP3    H2 8569   1.469   4.910   4.627
 2869TIP3   OH2 8570   4.615   6.358   5.510
 2869TIP3    H1 8571   4.624   6.388   5.600
 2869TIP3    H2 8572   4.564   6.427   5.467
 2870TIP3   OH2 8573   2.241   2.537   5.285
 2870TIP3    H1 8574   2.167   2.584   5.323
 2870TIP3    H2 8575   2.256   2.579   5.201
 2871TIP3   OH2 8576   2.636   0.901   5.886
 2871TIP3    H1 8577   2.683   0.933   5.809
 2871TIP3    H2 8578   2.552   0.946   5.883
 2872TIP3   OH2 8579   4.061   4.565   0.816
 2872TIP3    H1 8580   3.999   4.518   0.873
 2872TIP3    H2 8581   4.038   4.657   0.826
 2873TIP3   OH2 8582   6.830   0.047   1.513
 2873TIP3    H1 8583   6.904   0.107   1.515
 2873TIP3    H2 8584   6.807   0.033   1.604
 2874TIP3   OH2 8585   6.604   4.748   4.533
 2874TIP3    H1 8586   6.623   4.841   4.547
 2874TIP3    H2 8587   6.675   4.718   4.476
 2875TIP3   OH2 8588   3.963   2.791   3.809
 2875TIP3    H1 8589   3.882   2.839   3.792
 2875TIP3    H2 8590   4.027   2.830   3.749
 2876TIP3   OH2 8591   0.943   3.581   0.271
 2876TIP3    H1 8592   1.026   3.582   0.225
 2876TIP3    H2 8593   0.893   3.510   0.230
 2877TIP3   OH2 8594   4.305   4.401   0.197
 2877TIP3    H1 8595   4.277   4.397   0.106
 2877TIP3    H2 8596   4.236   4.354   0.245
 2878TIP3   OH2 8597   4.975   4.107   3.630
 2878TIP3    H1 8598   5.049   4.072   3.581
 2878TIP3    H2 8599   4.948   4.035   3.687
 2879TIP3   OH2 8600   4.414   3.981   5.395
 2879TIP3    H1 8601   4.454   4.033   5.325
 2879TIP3    H2 8602   4.417   4.037   5.472
 2880TIP3   OH2 8603   6.370   3.202   0.535
 2880TIP3    H1 8604   6.302   3.211   0.468
 2880TIP3    H2 8605   6.412   3.288   0.537
 2881TIP3   OH2 8606   1.726   0.379   0.157
 2881TIP3    H1 8607   1.755   0.332   0.236
 2881TIP3    H2 8608   1.807   0.412   0.119
 2882TIP3   OH2 8609   6.195   1.312   5.089
 2882TIP3    H1 8610   6.262   1.295   5.155
 2882TIP3    H2 8611   6.245   1.343   5.013
 2883TIP3   OH2 8612   2.736   3.700   3.339
 2883TIP3    H1 8613   2.805   3.678   3.401
 2883TIP3    H2 8614   2.682   3.621   3.334
 2884TIP3   OH2 8615   1.492   4.565   2.496
 2884TIP3    H1 8616   1.581   4.556   2.462
 2884TIP3    H2 8617   1.446   4.489   2.462
 2885TIP3   OH2 8618   5.336   4.624   5.184
 2885TIP3    H1 8619   5.359   4.691   5.119
 2885TIP3    H2 8620   5.392   4.549   5.162
 2886TIP3   OH2 8621   5.389   5.113   2.666
 2886TIP3    H1 8622   5.445   5.035   2.671
 2886TIP3    H2 8623   5.441   5.183   2.705
 2887TIP3   OH2 8624   4.382   1.313   4.187
 2887TIP3    H1 8625   4.338   1.230   4.171
 2887TIP3    H2 8626   4.413   1.307   4.277
 2888TIP3   OH2 8627   4.538   2.492   0.386
 2888TIP3    H1 8628   4.502   2.463   0.470
 2888TIP3    H2 8629   4.484   2.446   0.320
 2889TIP3   OH2 8630   0.916   0.284   5.518
 2889TIP3    H1 8631   0.904   0.208   5.461
 2889TIP3    H2 8632   0.854   0.349   5.484
 2890TIP3   OH2 8633   3.415   5.234   2.726
 2890TIP3    H1 8634   3.507   5.240   2.700
 2890TIP3    H2 8635   3.368   5.283   2.658
 2891TIP3   OH2 8636   6.273   1.144   0.716
 2891TIP3    H1 8637   6.299   1.053   0.734
 2891TIP3    H2 8638   6.177   1.142   0.719
 2892TIP3   OH2 8639   2.206   0.838   1.243
 2892TIP3    H1 8640   2.244   0.920   1.210
 2892TIP3    H2 8641   2.124   0.828   1.194
 2893TIP3   OH2 8642   3.789   1.209   1.562
 2893TIP3    H1 8643   3.742   1.169   1.636
 2893TIP3    H2 8644   3.745   1.173   1.484
 2894TIP3   OH2 8645   0.353   0.728   1.843
 2894TIP3    H1 8646   0.372   0.785   1.918
 2894TIP3    H2 8647   0.318   0.788   1.777
 2895TIP3   OH2 8648   4.634   5.131   2.016
 2895TIP3    H1 8649   4.591   5.217   2.017
 2895TIP3    H2 8650   4.642   5.109   1.924
 2896TIP3   OH2 8651   5.290   1.935   3.785
 2896TIP3    H1 8652   5.273   2.028   3.802
 2896TIP3    H2 8653   5.343   1.907   3.859
 2897TIP3   OH2 8654   7.240   6.318   0.385
 2897TIP3    H1 8655   7.245   6.238   0.437
 2897TIP3    H2 8656   7.160   6.309   0.333
 2898TIP3   OH2 8657   1.919   4.037   3.491
 2898TIP3    H1 8658   1.916   4.132   3.479
 2898TIP3    H2 8659   1.843   4.005   3.442
 2899TIP3   OH2 8660   4.061   4.734   0.274
 2899TIP3    H1 8661   3.981   4.705   0.232
 2899TIP3    H2 8662   4.121   4.754   0.202
 2900TIP3   OH2 8663   1.785   0.966   2.993
 2900TIP3    H1 8664   1.760   0.876   3.014
 2900TIP3    H2 8665   1.743   0.983   2.909
 2901TIP3   OH2 8666   5.020   4.310   4.806
 2901TIP3    H1 8667   5.089   4.348   4.751
 2901TIP3    H2 8668   4.966   4.384   4.831
 2902TIP3   OH2 8669   4.090   3.787   5.606
 2902TIP3    H1 8670   4.112   3.856   5.669
 2902TIP3    H2 8671   4.038   3.831   5.539
 2903TIP3   OH2 8672   4.854   2.721   5.127
 2903TIP3    H1 8673   4.948   2.738   5.126
 2903TIP3    H2 8674   4.816   2.792   5.076
 2904TIP3   OH2 8675   6.770   5.214   0.082
 2904TIP3    H1 8676   6.856   5.207   0.040
 2904TIP3    H2 8677   6.752   5.308   0.082
 2905TIP3   OH2 8678   0.090   0.937   4.504
 2905TIP3    H1 8679   0.009   0.908   4.546
 2905TIP3    H2 8680   0.091   0.890   4.421
 2906TIP3   OH2 8681   1.772   4.537   2.021
 2906TIP3    H1 8682   1.699   4.494   2.065
 2906TIP3    H2 8683   1.844   4.534   2.084
 2907TIP3   OH2 8684   3.328   3.617   1.838
 2907TIP3    H1 8685   3.404   3.671   1.860
 2907TIP3    H2 8686   3.267   3.677   1.797
 2908TIP3   OH2 8687   0.280   1.156   1.151
 2908TIP3    H1 8688   0.213   1.204   1.200
 2908TIP3    H2 8689   0.345   1.131   1.217
 2909TIP3   OH2 8690   3.272   1.926   2.350
 2909TIP3    H1 8691   3.250   2.009   2.308
 2909TIP3    H2 8692   3.221   1.861   2.303
 2910TIP3   OH2 8693   5.621   6.858   3.469
 2910TIP3    H1 8694   5.710   6.826   3.486
 2910TIP3    H2 8695   5.568   6.779   3.460
 2911TIP3   OH2 8696   4.599   1.792   1.789
 2911TIP3    H1 8697   4.663   1.772   1.720
 2911TIP3    H2 8698   4.650   1.835   1.858
 2912TIP3   OH2 8699   2.649   1.206   0.553
 2912TIP3    H1 8700   2.592   1.132   0.573
 2912TIP3    H2 8701   2.600   1.283   0.583
 2913TIP3   OH2 8702   0.481   6.021   4.146
 2913TIP3    H1 8703   0.418   5.991   4.081
 2913TIP3    H2 8704   0.563   5.977   4.123
 2914TIP3   OH2 8705   1.220   4.679   0.758
 2914TIP3    H1 8706   1.164   4.755   0.775
 2914TIP3    H2 8707   1.302   4.717   0.727
 2915TIP3   OH2 8708   0.612   1.179   1.355
 2915TIP3    H1 8709   0.667   1.124   1.412
 2915TIP3    H2 8710   0.536   1.124   1.336
 2916TIP3   OH2 8711   3.531   1.030   5.243
 2916TIP3    H1 8712   3.594   1.040   5.315
 2916TIP3    H2 8713   3.537   0.938   5.218
 2917TIP3   OH2 8714   5.923   6.492   3.321
 2917TIP3    H1 8715   5.989   6.546   3.365
 2917TIP3    H2 8716   5.863   6.555   3.281
 2918TIP3   OH2 8717   5.414   4.621   4.659
 2918TIP3    H1 8718   5.417   4.672   4.578
 2918TIP3    H2 8719   5.388   4.684   4.726
 2919TIP3   OH2 8720   7.122   2.806   2.382
 2919TIP3    H1 8721   7.039   2.849   2.363
 2919TIP3    H2 8722   7.099   2.727   2.429
 2920TIP3   OH2 8723   5.355   3.268   2.468
 2920TIP3    H1 8724   5.382   3.324   2.396
 2920TIP3    H2 8725   5.345   3.181   2.428
 2921TIP3   OH2 8726   6.174  -0.003   4.006
 2921TIP3    H1 8727   6.148   0.082   4.042
 2921TIP3    H2 8728   6.120  -0.015   3.929
 2922TIP3   OH2 8729   1.735   1.047   0.187
 2922TIP3    H1 8730   1.701   1.098   0.260
 2922TIP3    H2 8731   1.823   1.020   0.215
 2923TIP3   OH2 8732   5.184   5.411   4.875
 2923TIP3    H1 8733   5.147   5.495   4.847
 2923TIP3    H2 8734   5.265   5.404   4.825
 2924TIP3   OH2 8735   1.944   3.225   5.105
 2924TIP3    H1 8736   1.980   3.180   5.029
 2924TIP3    H2 8737   2.021   3.252   5.155
 2925TIP3   OH2 8738   5.480   6.446   4.096
 2925TIP3    H1 8739   5.573   6.465   4.085
 2925TIP3    H2 8740   5.474   6.351   4.083
 2926TIP3   OH2 8741   2.702   6.233   3.914
 2926TIP3    H1 8742   2.716   6.139   3.919
 2926TIP3    H2 8743   2.630   6.244   3.852
 2927TIP3   OH2 8744   5.407   1.287   2.156
 2927TIP3    H1 8745   5.494   1.328   2.155
 2927TIP3    H2 8746   5.353   1.344   2.102
 2928TIP3   OH2 8747   5.750   5.978   4.407
 2928TIP3    H1 8748   5.823   6.037   4.389
 2928TIP3    H2 8749   5.676   6.016   4.360
 2929TIP3   OH2 8750   6.591   2.879   5.044
 2929TIP3    H1 8751   6.639   2.950   5.086
 2929TIP3    H2 8752   6.501   2.891   5.074
 2930TIP3   OH2 8753   1.904   0.134   5.845
 2930TIP3    H1 8754   1.819   0.173   5.864
 2930TIP3    H2 8755   1.948   0.198   5.790
 2931TIP3   OH2 8756   3.845   0.618   1.930
 2931TIP3    H1 8757   3.837   0.707   1.897
 2931TIP3    H2 8758   3.887   0.628   2.015
 2932TIP3   OH2 8759   1.181   4.224   0.925
 2932TIP3    H1 8760   1.175   4.230   0.829
 2932TIP3    H2 8761   1.160   4.312   0.956
 2933TIP3   OH2 8762   5.050   1.026   4.486
 2933TIP3    H1 8763   5.123   1.083   4.460
 2933TIP3    H2 8764   5.090   0.939   4.495
 2934TIP3   OH2 8765   1.481   4.199   4.020
 2934TIP3    H1 8766   1.461   4.137   4.091
 2934TIP3    H2 8767   1.456   4.152   3.940
 2935TIP3   OH2 8768   0.010   1.833   4.733
 2935TIP3    H1 8769   0.093   1.873   4.704
 2935TIP3    H2 8770   0.028   1.803   4.823
 2936TIP3   OH2 8771   3.324   6.580   1.277
 2936TIP3    H1 8772   3.392   6.643   1.303
 2936TIP3    H2 8773   3.359   6.495   1.306
 2937TIP3   OH2 8774   5.214   6.352   0.503
 2937TIP3    H1 8775   5.255   6.269   0.482
 2937TIP3    H2 8776   5.286   6.407   0.535
 2938TIP3   OH2 8777   6.376   1.349   5.624
 2938TIP3    H1 8778   6.292   1.337   5.579
 2938TIP3    H2 8779   6.376   1.441   5.650
 2939TIP3   OH2 8780   3.456   0.587   0.511
 2939TIP3    H1 8781   3.450   0.564   0.418
 2939TIP3    H2 8782   3.466   0.504   0.556
 2940TIP3   OH2 8783   2.760   4.947   5.508
 2940TIP3    H1 8784   2.742   4.853   5.511
 2940TIP3    H2 8785   2.809   4.965   5.588
 2941TIP3   OH2 8786   1.726   3.501   3.379
 2941TIP3    H1 8787   1.819   3.495   3.401
 2941TIP3    H2 8788   1.688   3.420   3.414
 2942TIP3   OH2 8789   2.888   0.286   3.387
 2942TIP3    H1 8790   2.804   0.331   3.380
 2942TIP3    H2 8791   2.879   0.210   3.329
 2943TIP3   OH2 8792   1.838   1.384   2.321
 2943TIP3    H1 8793   1.791   1.369   2.403
 2943TIP3    H2 8794   1.827   1.477   2.303
 2944TIP3   OH2 8795   5.766   0.580   4.116
 2944TIP3    H1 8796   5.671   0.588   4.105
 2944TIP3    H2 8797   5.801   0.660   4.076
 2945TIP3   OH2 8798   4.615   5.781   5.737
 2945TIP3    H1 8799   4.564   5.862   5.740
 2945TIP3    H2 8800   4.562   5.718   5.786
 2946TIP3   OH2 8801   3.611   6.475   2.134
 2946TIP3    H1 8802   3.668   6.409   2.094
 2946TIP3    H2 8803   3.665   6.554   2.137
 2947TIP3   OH2 8804   1.079   6.399   4.986
 2947TIP3    H1 8805   1.040   6.457   4.921
 2947TIP3    H2 8806   1.014   6.393   5.056
 2948TIP3   OH2 8807   1.966   3.535   1.620
 2948TIP3    H1 8808   2.014   3.608   1.581
 2948TIP3    H2 8809   1.942   3.480   1.545
 2949TIP3   OH2 8810   0.158   6.362   0.912
 2949TIP3    H1 8811   0.172   6.352   0.818
 2949TIP3    H2 8812   0.223   6.303   0.952
 2950TIP3   OH2 8813   3.571   5.956   4.854
 2950TIP3    H1 8814   3.662   5.927   4.840
 2950TIP3    H2 8815   3.565   6.039   4.806
 2951TIP3   OH2 8816   3.999   1.458   0.863
 2951TIP3    H1 8817   3.957   1.490   0.943
 2951TIP3    H2 8818   3.928   1.418   0.813
 2952TIP3   OH2 8819   6.699   1.255   1.758
 2952TIP3    H1 8820   6.639   1.329   1.764
 2952TIP3    H2 8821   6.646   1.179   1.779
 2953TIP3   OH2 8822   0.090   4.271   0.274
 2953TIP3    H1 8823   0.089   4.176   0.264
 2953TIP3    H2 8824   0.073   4.286   0.367
 2954TIP3   OH2 8825   5.904   5.364   5.078
 2954TIP3    H1 8826   5.891   5.288   5.134
 2954TIP3    H2 8827   5.987   5.348   5.034
 2955TIP3   OH2 8828   3.887   4.861   2.672
 2955TIP3    H1 8829   3.888   4.829   2.581
 2955TIP3    H2 8830   3.884   4.782   2.725
 2956TIP3   OH2 8831   2.885   2.992   1.389
 2956TIP3    H1 8832   2.970   2.952   1.411
 2956TIP3    H2 8833   2.820   2.929   1.420
 2957TIP3   OH2 8834   5.601   2.995   4.765
 2957TIP3    H1 8835   5.534   3.031   4.824
 2957TIP3    H2 8836   5.563   2.914   4.733
 2958TIP3   OH2 8837   3.054   1.159   2.815
 2958TIP3    H1 8838   2.967   1.120   2.828
 2958TIP3    H2 8839   3.112   1.083   2.805
 2959TIP3   OH2 8840   0.723   6.441   3.861
 2959TIP3    H1 8841   0.676   6.510   3.815
 2959TIP3    H2 8842   0.744   6.479   3.947
 2960TIP3   OH2 8843   5.158   0.228   4.302
 2960TIP3    H1 8844   5.225   0.195   4.241
 2960TIP3    H2 8845   5.109   0.150   4.327
 2961TIP3   OH2 8846   5.085   4.014   3.158
 2961TIP3    H1 8847   5.149   3.956   3.117
 2961TIP3    H2 8848   5.078   3.983   3.248
 2962TIP3   OH2 8849   1.058   4.501   0.899
 2962TIP3    H1 8850   0.991   4.553   0.944
 2962TIP3    H2 8851   1.108   4.565   0.849
 2963TIP3   OH2 8852   3.152   2.548   3.502
 2963TIP3    H1 8853   3.065   2.561   3.541
 2963TIP3    H2 8854   3.177   2.459   3.529
 2964TIP3   OH2 8855   0.740   5.944   3.776
 2964TIP3    H1 8856   0.806   5.944   3.707
 2964TIP3    H2 8857   0.669   5.890   3.741
 2965TIP3   OH2 8858   3.151   0.397   1.432
 2965TIP3    H1 8859   3.133   0.314   1.388
 2965TIP3    H2 8860   3.077   0.410   1.491
 2966TIP3   OH2 8861   1.581   3.084   3.162
 2966TIP3    H1 8862   1.585   2.989   3.169
 2966TIP3    H2 8863   1.615   3.103   3.075
 2967TIP3   OH2 8864   2.641   3.458   4.116
 2967TIP3    H1 8865   2.573   3.483   4.054
 2967TIP3    H2 8866   2.600   3.391   4.171
 2968TIP3   OH2 8867   3.158   0.786   0.394
 2968TIP3    H1 8868   3.119   0.837   0.323
 2968TIP3    H2 8869   3.252   0.789   0.378
 2969TIP3   OH2 8870   7.242   2.285   4.093
 2969TIP3    H1 8871   7.280   2.372   4.104
 2969TIP3    H2 8872   7.155   2.301   4.057
 2970TIP3   OH2 8873   6.655   0.569   3.576
 2970TIP3    H1 8874   6.655   0.625   3.653
 2970TIP3    H2 8875   6.625   0.626   3.505
 2971TIP3   OH2 8876   4.428   0.250   3.656
 2971TIP3    H1 8877   4.349   0.199   3.676
 2971TIP3    H2 8878   4.483   0.241   3.733
 2972TIP3   OH2 8879   1.894   0.610   2.161
 2972TIP3    H1 8880   1.805   0.603   2.127
 2972TIP3    H2 8881   1.884   0.643   2.250
 2973TIP3   OH2 8882   4.506   1.178   2.498
 2973TIP3    H1 8883   4.527   1.085   2.503
 2973TIP3    H2 8884   4.591   1.221   2.488
 2974TIP3   OH2 8885   4.240   6.036   2.595
 2974TIP3    H1 8886   4.149   6.057   2.573
 2974TIP3    H2 8887   4.233   5.971   2.665
 2975TIP3   OH2 8888   4.232   4.058   4.872
 2975TIP3    H1 8889   4.285   4.000   4.818
 2975TIP3    H2 8890   4.284   4.071   4.951
 2976TIP3   OH2 8891   3.245   6.278   2.953
 2976TIP3    H1 8892   3.304   6.215   2.993
 2976TIP3    H2 8893   3.259   6.268   2.858
 2977TIP3   OH2 8894   1.498   3.691   1.819
 2977TIP3    H1 8895   1.434   3.625   1.791
 2977TIP3    H2 8896   1.516   3.742   1.741
 2978TIP3   OH2 8897   4.963   3.328   5.691
 2978TIP3    H1 8898   4.921   3.243   5.705
 2978TIP3    H2 8899   5.008   3.346   5.774
 2979TIP3   OH2 8900   3.780   2.847   0.585
 2979TIP3    H1 8901   3.757   2.802   0.504
 2979TIP3    H2 8902   3.774   2.940   0.562
 2980TIP3   OH2 8903   0.242   0.594   0.124
 2980TIP3    H1 8904   0.269   0.504   0.106
 2980TIP3    H2 8905   0.265   0.608   0.216
 2981TIP3   OH2 8906   3.587   3.631   2.153
 2981TIP3    H1 8907   3.639   3.553   2.136
 2981TIP3    H2 8908   3.497   3.599   2.159
 2982TIP3   OH2 8909   0.382   4.440   1.438
 2982TIP3    H1 8910   0.445   4.392   1.384
 2982TIP3    H2 8911   0.435   4.477   1.509
 2983TIP3   OH2 8912   5.753   2.403   3.999
 2983TIP3    H1 8913   5.782   2.417   3.909
 2983TIP3    H2 8914   5.807   2.331   4.031
 2984TIP3   OH2 8915   6.661   1.732   2.394
 2984TIP3    H1 8916   6.703   1.805   2.439
 2984TIP3    H2 8917   6.730   1.667   2.382
 2985TIP3   OH2 8918   2.597   0.788   2.272
 2985TIP3    H1 8919   2.594   0.782   2.367
 2985TIP3    H2 8920   2.689   0.810   2.252
 2986TIP3   OH2 8921   2.931   0.426   1.624
 2986TIP3    H1 8922   2.870   0.355   1.605
 2986TIP3    H2 8923   2.879   0.491   1.672
 2987TIP3   OH2 8924   0.556   0.924   5.439
 2987TIP3    H1 8925   0.611   0.873   5.380
 2987TIP3    H2 8926   0.532   0.863   5.509
 2988TIP3   OH2 8927   2.123   0.477   4.236
 2988TIP3    H1 8928   2.093   0.431   4.314
 2988TIP3    H2 8929   2.069   0.442   4.165
 2989TIP3   OH2 8930   4.347   1.522   2.219
 2989TIP3    H1 8931   4.319   1.602   2.176
 2989TIP3    H2 8932   4.418   1.488   2.164
 2990TIP3   OH2 8933   3.951   4.175   4.249
 2990TIP3    H1 8934   4.023   4.235   4.270
 2990TIP3    H2 8935   3.873   4.221   4.279
 2991TIP3   OH2 8936   7.123   1.725   1.397
 2991TIP3    H1 8937   7.056   1.742   1.463
 2991TIP3    H2 8938   7.200   1.773   1.428
 2992TIP3   OH2 8939   0.910   2.710   4.189
 2992TIP3    H1 8940   0.983   2.744   4.137
 2992TIP3    H2 8941   0.890   2.626   4.149
 2993TIP3   OH2 8942   2.372   6.398   1.283
 2993TIP3    H1 8943   2.341   6.387   1.194
 2993TIP3    H2 8944   2.369   6.311   1.321
 2994TIP3   OH2 8945   4.113   4.532   0.460
 2994TIP3    H1 8946   4.102   4.612   0.408
 2994TIP3    H2 8947   4.034   4.481   0.441
 2995TIP3   OH2 8948   5.489   6.074   4.984
 2995TIP3    H1 8949   5.461   6.123   4.907
 2995TIP3    H2 8950   5.418   6.085   5.046
 2996TIP3   OH2 8951   0.626   0.464   3.968
 2996TIP3    H1 8952   0.565   0.466   3.894
 2996TIP3    H2 8953   0.640   0.556   3.989
 2997TIP3   OH2 8954   2.244   3.111   1.330
 2997TIP3    H1 8955   2.210   3.162   1.404
 2997TIP3    H2 8956   2.331   3.084   1.358
 2998TIP3   OH2 8957   3.927   1.872   2.865
 2998TIP3    H1 8958   3.934   1.782   2.896
 2998TIP3    H2 8959   3.836   1.881   2.836
 2999TIP3   OH2 8960   0.201   4.923   4.167
 2999TIP3    H1 8961   0.178   4.974   4.089
 2999TIP3    H2 8962   0.261   4.979   4.215
 3000TIP3   OH2 8963   2.074   0.324   4.656
 3000TIP3    H1 8964   2.120   0.252   4.614
 3000TIP3    H2 8965   2.030   0.284   4.731
 3001TIP3   OH2 8966   7.213   2.104   0.194
 3001TIP3    H1 8967   7.172   2.164   0.132
 3001TIP3    H2 8968   7.142   2.076   0.252
 3002TIP3   OH2 8969   6.786   5.419   2.757
 3002TIP3    H1 8970   6.848   5.403   2.829
 3002TIP3    H2 8971   6.796   5.513   2.739
 3003TIP3   OH2 8972   0.555   0.335   0.540
 3003TIP3    H1 8973   0.478   0.393   0.533
 3003TIP3    H2 8974   0.586   0.347   0.630
 3004TIP3   OH2 8975   2.623   2.936   1.644
 3004TIP3    H1 8976   2.530   2.919   1.654
 3004TIP3    H2 8977   2.655   2.867   1.586
 3005TIP3   OH2 8978   0.267   0.935   1.687
 3005TIP3    H1 8979   0.242   1.012   1.739
 3005TIP3    H2 8980   0.231   0.952   1.600
 3006TIP3   OH2 8981   0.456   2.152   4.571
 3006TIP3    H1 8982   0.381   2.105   4.608
 3006TIP3    H2 8983   0.453   2.133   4.477
 3007TIP3   OH2 8984   1.684   4.981   0.732
 3007TIP3    H1 8985   1.745   5.047   0.765
 3007TIP3    H2 8986   1.689   4.988   0.637
 3008TIP3   OH2 8987   4.150   1.275   0.039
 3008TIP3    H1 8988   4.080   1.249  -0.021
 3008TIP3    H2 8989   4.228   1.232   0.005
 3009TIP3   OH2 8990   4.606   6.790   1.755
 3009TIP3    H1 8991   4.516   6.821   1.765
 3009TIP3    H2 8992   4.616   6.778   1.660
 3010TIP3   OH2 8993   7.133   0.806   3.254
 3010TIP3    H1 8994   7.208   0.849   3.295
 3010TIP3    H2 8995   7.090   0.875   3.204
 3011TIP3   OH2 8996   0.612   4.207   2.408
 3011TIP3    H1 8997   0.547   4.276   2.418
 3011TIP3    H2 8998   0.660   4.231   2.328
 3012TIP3   OH2 8999   1.549   4.315   3.496
 3012TIP3    H1 9000   1.522   4.322   3.404
 3012TIP3    H2 9001   1.638   4.281   3.493
 3013TIP3   OH2 9002   3.119   0.622   0.799
 3013TIP3    H1 9003   3.123   0.615   0.704
 3013TIP3    H2 9004   3.069   0.702   0.815
 3014TIP3   OH2 9005   1.123   3.068   2.758
 3014TIP3    H1 9006   1.087   2.992   2.711
 3014TIP3    H2 9007   1.215   3.071   2.732
 3015TIP3   OH2 9008   2.830   1.417   0.815
 3015TIP3    H1 9009   2.923   1.438   0.816
 3015TIP3    H2 9010   2.800   1.442   0.728
 3016TIP3   OH2 9011   4.395   2.096   5.197
 3016TIP3    H1 9012   4.469   2.044   5.165
 3016TIP3    H2 9013   4.318   2.057   5.156
 3017TIP3   OH2 9014   3.096   5.393   0.221
 3017TIP3    H1 9015   3.001   5.390   0.223
 3017TIP3    H2 9016   3.117   5.479   0.186
 3018TIP3   OH2 9017   0.417   6.520   5.413
 3018TIP3    H1 9018   0.363   6.594   5.440
 3018TIP3    H2 9019   0.369   6.479   5.341
 3019TIP3   OH2 9020   3.245   2.738   4.878
 3019TIP3    H1 9021   3.194   2.801   4.928
 3019TIP3    H2 9022   3.229   2.654   4.922
 3020TIP3   OH2 9023   6.483   1.216   0.558
 3020TIP3    H1 9024   6.397   1.219   0.601
 3020TIP3    H2 9025   6.545   1.233   0.629
 3021TIP3   OH2 9026   2.181   2.082   1.446
 3021TIP3    H1 9027   2.095   2.067   1.407
 3021TIP3    H2 9028   2.200   2.001   1.493
 3022TIP3   OH2 9029   4.215   3.407   3.547
 3022TIP3    H1 9030   4.293   3.395   3.494
 3022TIP3    H2 9031   4.217   3.499   3.572
 3023TIP3   OH2 9032   7.194   6.370   4.633
 3023TIP3    H1 9033   7.163   6.286   4.597
 3023TIP3    H2 9034   7.119   6.405   4.681
 3024TIP3   OH2 9035   5.000   4.269   3.131
 3024TIP3    H1 9036   5.003   4.174   3.143
 3024TIP3    H2 9037   5.088   4.291   3.099
 3025TIP3   OH2 9038   4.811   3.363   5.009
 3025TIP3    H1 9039   4.716   3.369   5.008
 3025TIP3    H2 9040   4.840   3.450   4.980
 3026TIP3   OH2 9041   0.195   1.701   4.382
 3026TIP3    H1 9042   0.222   1.696   4.474
 3026TIP3    H2 9043   0.126   1.767   4.380
 3027TIP3   OH2 9044   3.556   6.698   0.381
 3027TIP3    H1 9045   3.629   6.637   0.392
 3027TIP3    H2 9046   3.539   6.698   0.287
 3028TIP3   OH2 9047   5.051   2.323   3.039
 3028TIP3    H1 9048   5.066   2.313   2.945
 3028TIP3    H2 9049   5.067   2.236   3.076
 3029TIP3   OH2 9050   1.759   6.560   1.087
 3029TIP3    H1 9051   1.733   6.483   1.138
 3029TIP3    H2 9052   1.790   6.523   1.004
 3030TIP3   OH2 9053   6.306   0.844   3.517
 3030TIP3    H1 9054   6.291   0.755   3.483
 3030TIP3    H2 9055   6.254   0.900   3.460
 3031TIP3   OH2 9056   0.883   5.601   2.191
 3031TIP3    H1 9057   0.884   5.557   2.276
 3031TIP3    H2 9058   0.818   5.553   2.140
 3032TIP3   OH2 9059   2.364   0.739   3.992
 3032TIP3    H1 9060   2.290   0.734   4.053
 3032TIP3    H2 9061   2.432   0.785   4.041
 3033TIP3   OH2 9062   2.240   4.954   2.354
 3033TIP3    H1 9063   2.302   5.017   2.316
 3033TIP3    H2 9064   2.275   4.868   2.329
 3034TIP3   OH2 9065   2.513   2.032   0.694
 3034TIP3    H1 9066   2.424   2.057   0.718
 3034TIP3    H2 9067   2.505   1.944   0.658
 3035TIP3   OH2 9068   6.785   3.939   3.956
 3035TIP3    H1 9069   6.868   3.931   3.909
 3035TIP3    H2 9070   6.725   3.978   3.893
 3036TIP3   OH2 9071   7.211   3.384   1.929
 3036TIP3    H1 9072   7.296   3.344   1.945
 3036TIP3    H2 9073   7.226   3.447   1.859
 3037TIP3   OH2 9074   7.013   1.256   1.132
 3037TIP3    H1 9075   7.004   1.338   1.181
 3037TIP3    H2 9076   6.994   1.281   1.041
 3038TIP3   OH2 9077   0.786   4.881   2.673
 3038TIP3    H1 9078   0.840   4.884   2.751
 3038TIP3    H2 9079   0.722   4.951   2.685
 3039TIP3   OH2 9080   7.102   0.973   5.814
 3039TIP3    H1 9081   7.073   1.006   5.899
 3039TIP3    H2 9082   7.025   0.978   5.759
 3040TIP3   OH2 9083   5.625   1.151   1.060
 3040TIP3    H1 9084   5.598   1.157   0.968
 3040TIP3    H2 9085   5.712   1.192   1.062
 3041TIP3   OH2 9086   0.394   4.794   3.846
 3041TIP3    H1 9087   0.438   4.849   3.781
 3041TIP3    H2 9088   0.349   4.856   3.904
 3042TIP3   OH2 9089   4.094   0.280   0.766
 3042TIP3    H1 9090   4.112   0.293   0.673
 3042TIP3    H2 9091   4.098   0.368   0.804
 3043TIP3   OH2 9092   2.417   0.839   2.724
 3043TIP3    H1 9093   2.327   0.816   2.699
 3043TIP3    H2 9094   2.436   0.782   2.798
 3044TIP3   OH2 9095   6.301   0.873   2.258
 3044TIP3    H1 9096   6.327   0.785   2.231
 3044TIP3    H2 9097   6.266   0.913   2.179
 3045TIP3   OH2 9098   1.377   5.584   4.151
 3045TIP3    H1 9099   1.410   5.672   4.135
 3045TIP3    H2 9100   1.308   5.596   4.215
 3046TIP3   OH2 9101   1.054   5.460   2.639
 3046TIP3    H1 9102   1.028   5.377   2.680
 3046TIP3    H2 9103   1.040   5.525   2.707
 3047TIP3   OH2 9104   6.473   0.228   4.106
 3047TIP3    H1 9105   6.555   0.278   4.103
 3047TIP3    H2 9106   6.413   0.277   4.050
 3048TIP3   OH2 9107   4.807   2.009   3.764
 3048TIP3    H1 9108   4.804   2.098   3.728
 3048TIP3    H2 9109   4.750   1.958   3.706
 3049TIP3   OH2 9110   6.551   6.697   4.607
 3049TIP3    H1 9111   6.581   6.610   4.579
 3049TIP3    H2 9112   6.523   6.739   4.526
 3050TIP3   OH2 9113   1.877   1.717   5.123
 3050TIP3    H1 9114   1.821   1.792   5.141
 3050TIP3    H2 9115   1.817   1.645   5.106
 3051TIP3   OH2 9116   4.189   2.108   5.556
 3051TIP3    H1 9117   4.284   2.096   5.564
 3051TIP3    H2 9118   4.174   2.200   5.578
 3052TIP3   OH2 9119   4.911   3.326   4.420
 3052TIP3    H1 9120   4.894   3.330   4.514
 3052TIP3    H2 9121   4.828   3.296   4.382
 3053TIP3   OH2 9122   1.891   5.043   5.742
 3053TIP3    H1 9123   1.872   4.950   5.750
 3053TIP3    H2 9124   1.872   5.064   5.650
 3054TIP3   OH2 9125   0.212   6.539   1.955
 3054TIP3    H1 9126   0.141   6.603   1.947
 3054TIP3    H2 9127   0.168   6.455   1.959
 3055TIP3   OH2 9128   6.787   5.576   4.895
 3055TIP3    H1 9129   6.711   5.525   4.922
 3055TIP3    H2 9130   6.826   5.525   4.824
 3056TIP3   OH2 9131   5.707   5.648   3.008
 3056TIP3    H1 9132   5.648   5.582   3.045
 3056TIP3    H2 9133   5.716   5.714   3.077
 3057TIP3   OH2 9134   3.579   2.876   2.788
 3057TIP3    H1 9135   3.519   2.942   2.822
 3057TIP3    H2 9136   3.523   2.819   2.735
 3058TIP3   OH2 9137   4.910   6.296   3.432
 3058TIP3    H1 9138   4.914   6.201   3.422
 3058TIP3    H2 9139   4.869   6.327   3.351
 3059TIP3   OH2 9140   6.442   1.076   5.641
 3059TIP3    H1 9141   6.431   1.169   5.622
 3059TIP3    H2 9142   6.390   1.032   5.573
 3060TIP3   OH2 9143   2.627   5.410   2.955
 3060TIP3    H1 9144   2.664   5.344   3.013
 3060TIP3    H2 9145   2.572   5.361   2.894
 3061TIP3   OH2 9146   4.397   0.308   5.445
 3061TIP3    H1 9147   4.302   0.309   5.458
 3061TIP3    H2 9148   4.425   0.224   5.482
 3062TIP3   OH2 9149   4.696   2.512   3.510
 3062TIP3    H1 9150   4.773   2.455   3.507
 3062TIP3    H2 9151   4.624   2.455   3.537
 3063TIP3   OH2 9152   5.949   1.537   1.543
 3063TIP3    H1 9153   5.875   1.583   1.581
 3063TIP3    H2 9154   5.923   1.520   1.452
 3064TIP3   OH2 9155   4.763   2.254   2.141
 3064TIP3    H1 9156   4.748   2.225   2.231
 3064TIP3    H2 9157   4.695   2.209   2.090
 3065TIP3   OH2 9158   2.118   6.525   3.606
 3065TIP3    H1 9159   2.045   6.567   3.560
 3065TIP3    H2 9160   2.077   6.457   3.658
 3066TIP3   OH2 9161   4.147   3.513   5.777
 3066TIP3    H1 9162   4.219   3.524   5.715
 3066TIP3    H2 9163   4.188   3.527   5.863
 3067TIP3   OH2 9164   5.579   2.038   4.259
 3067TIP3    H1 9165   5.667   2.012   4.284
 3067TIP3    H2 9166   5.526   2.021   4.337
 3068TIP3   OH2 9167   2.015   1.933   2.283
 3068TIP3    H1 9168   1.949   1.868   2.307
 3068TIP3    H2 9169   2.021   1.991   2.359
 3069TIP3   OH2 9170   4.875   4.541   4.869
 3069TIP3    H1 9171   4.932   4.534   4.946
 3069TIP3    H2 9172   4.911   4.614   4.819
 3070TIP3   OH2 9173   6.942   1.026   0.960
 3070TIP3    H1 9174   6.937   1.116   0.929
 3070TIP3    H2 9175   6.853   1.006   0.988
 3071TIP3   OH2 9176   1.680   1.208   1.863
 3071TIP3    H1 9177   1.677   1.267   1.938
 3071TIP3    H2 9178   1.744   1.141   1.887
 3072TIP3   OH2 9179   0.767   6.209   5.490
 3072TIP3    H1 9180   0.709   6.142   5.452
 3072TIP3    H2 9181   0.820   6.161   5.554
 3073TIP3   OH2 9182   5.260   3.129   3.916
 3073TIP3    H1 9183   5.176   3.129   3.963
 3073TIP3    H2 9184   5.256   3.052   3.860
 3074TIP3   OH2 9185   0.077   4.903   1.311
 3074TIP3    H1 9186   0.102   4.830   1.368
 3074TIP3    H2 9187  -0.019   4.907   1.319
 3075TIP3   OH2 9188   3.666   4.357   0.572
 3075TIP3    H1 9189   3.676   4.340   0.665
 3075TIP3    H2 9190   3.665   4.270   0.531
 3076TIP3   OH2 9191   4.216   0.519   4.790
 3076TIP3    H1 9192   4.267   0.591   4.828
 3076TIP3    H2 9193   4.175   0.556   4.712
 3077TIP3   OH2 9194   4.638   5.365   1.176
 3077TIP3    H1 9195   4.570   5.430   1.193
 3077TIP3    H2 9196   4.631   5.346   1.083
 3078TIP3   OH2 9197   1.830   3.086   4.678
 3078TIP3    H1 9198   1.773   3.162   4.667
 3078TIP3    H2 9199   1.853   3.060   4.589
 3079TIP3   OH2 9200   4.390   0.818   4.598
 3079TIP3    H1 9201   4.403   0.891   4.537
 3079TIP3    H2 9202   4.373   0.860   4.682
 3080TIP3   OH2 9203   1.937   3.899   4.152
 3080TIP3    H1 9204   1.917   3.875   4.242
 3080TIP3    H2 9205   1.890   3.834   4.099
 3081TIP3   OH2 9206   7.180   1.018   5.285
 3081TIP3    H1 9207   7.159   0.956   5.356
 3081TIP3    H2 9208   7.108   1.081   5.287
 3082TIP3   OH2 9209   5.707   0.432   1.725
 3082TIP3    H1 9210   5.732   0.348   1.764
 3082TIP3    H2 9211   5.620   0.449   1.761
 3083TIP3   OH2 9212   3.832   3.801   1.731
 3083TIP3    H1 9213   3.832   3.896   1.743
 3083TIP3    H2 9214   3.925   3.778   1.724
 3084TIP3   OH2 9215   4.284   3.522   5.100
 3084TIP3    H1 9216   4.280   3.557   5.189
 3084TIP3    H2 9217   4.341   3.583   5.053
 3085TIP3   OH2 9218   5.018   1.959   2.590
 3085TIP3    H1 9219   4.949   2.024   2.601
 3085TIP3    H2 9220   5.057   1.980   2.505
 3086TIP3   OH2 9221   5.754   3.144   5.318
 3086TIP3    H1 9222   5.794   3.213   5.371
 3086TIP3    H2 9223   5.813   3.135   5.242
 3087TIP3   OH2 9224   4.202   6.146   5.490
 3087TIP3    H1 9225   4.186   6.068   5.543
 3087TIP3    H2 9226   4.115   6.178   5.468
 3088TIP3   OH2 9227   3.597   1.149   1.354
 3088TIP3    H1 9228   3.581   1.058   1.330
 3088TIP3    H2 9229   3.512   1.192   1.341
 3089TIP3   OH2 9230   5.225   5.232   2.023
 3089TIP3    H1 9231   5.184   5.294   2.084
 3089TIP3    H2 9232   5.158   5.166   2.007
 3090TIP3   OH2 9233   6.656   4.055   1.360
 3090TIP3    H1 9234   6.639   4.064   1.266
 3090TIP3    H2 9235   6.636   3.964   1.379
 3091TIP3   OH2 9236   4.643   3.363   2.434
 3091TIP3    H1 9237   4.619   3.411   2.513
 3091TIP3    H2 9238   4.734   3.389   2.418
 3092TIP3   OH2 9239   2.302   6.726   3.549
 3092TIP3    H1 9240   2.269   6.759   3.466
 3092TIP3    H2 9241   2.241   6.655   3.573
 3093TIP3   OH2 9242   1.019   1.208   0.700
 3093TIP3    H1 9243   1.000   1.293   0.661
 3093TIP3    H2 9244   1.112   1.212   0.721
 3094TIP3   OH2 9245   0.418   2.760   2.177
 3094TIP3    H1 9246   0.513   2.775   2.179
 3094TIP3    H2 9247   0.391   2.789   2.090
 3095TIP3   OH2 9248   1.621   6.815   0.596
 3095TIP3    H1 9249   1.633   6.785   0.686
 3095TIP3    H2 9250   1.689   6.881   0.583
 3096TIP3   OH2 9251   6.892   6.142   1.876
 3096TIP3    H1 9252   6.964   6.096   1.833
 3096TIP3    H2 9253   6.888   6.227   1.831
 3097TIP3   OH2 9254   3.374   5.071   4.938
 3097TIP3    H1 9255   3.436   5.073   5.011
 3097TIP3    H2 9256   3.366   5.163   4.911
 3098TIP3   OH2 9257   5.512   1.388   1.875
 3098TIP3    H1 9258   5.587   1.383   1.815
 3098TIP3    H2 9259   5.441   1.424   1.821
 3099TIP3   OH2 9260   4.599   1.949   5.112
 3099TIP3    H1 9261   4.682   1.996   5.106
 3099TIP3    H2 9262   4.597   1.915   5.202
 3100TIP3   OH2 9263   5.974   3.192   1.966
 3100TIP3    H1 9264   5.878   3.195   1.974
 3100TIP3    H2 9265   5.998   3.279   1.936
 3101TIP3   OH2 9266   3.628   3.047   3.352
 3101TIP3    H1 9267   3.534   3.063   3.340
 3101TIP3    H2 9268   3.635   2.954   3.371
 3102TIP3   OH2 9269   4.860   2.026   0.842
 3102TIP3    H1 9270   4.827   1.968   0.911
 3102TIP3    H2 9271   4.847   2.114   0.876
 3103TIP3   OH2 9272   4.371   2.543   4.568
 3103TIP3    H1 9273   4.392   2.532   4.660
 3103TIP3    H2 9274   4.300   2.481   4.552
 3104TIP3   OH2 9275   0.457   1.548   1.894
 3104TIP3    H1 9276   0.436   1.542   1.988
 3104TIP3    H2 9277   0.372   1.556   1.851
 3105TIP3   OH2 9278   1.155   4.884   4.845
 3105TIP3    H1 9279   1.075   4.851   4.887
 3105TIP3    H2 9280   1.215   4.901   4.917
 3106TIP3   OH2 9281   2.522   4.946   2.083
 3106TIP3    H1 9282   2.545   4.886   2.154
 3106TIP3    H2 9283   2.464   5.011   2.124
 3107TIP3   OH2 9284   2.643   2.426   1.290
 3107TIP3    H1 9285   2.549   2.422   1.306
 3107TIP3    H2 9286   2.683   2.404   1.374
 3108TIP3   OH2 9287   1.230   2.441   0.065
 3108TIP3    H1 9288   1.151   2.401   0.101
 3108TIP3    H2 9289   1.217   2.440  -0.029
 3109TIP3   OH2 9290   7.115   6.567   3.432
 3109TIP3    H1 9291   7.041   6.543   3.488
 3109TIP3    H2 9292   7.099   6.658   3.408
 3110TIP3   OH2 9293   3.371   6.576   3.783
 3110TIP3    H1 9294   3.355   6.534   3.699
 3110TIP3    H2 9295   3.457   6.544   3.810
 3111TIP3   OH2 9296   1.174   3.001   1.048
 3111TIP3    H1 9297   1.185   2.926   1.107
 3111TIP3    H2 9298   1.261   3.039   1.041
 3112TIP3   OH2 9299   0.174   4.766   2.793
 3112TIP3    H1 9300   0.203   4.834   2.854
 3112TIP3    H2 9301   0.080   4.761   2.807
 3113TIP3   OH2 9302   6.759   6.105   3.334
 3113TIP3    H1 9303   6.852   6.127   3.340
 3113TIP3    H2 9304   6.735   6.126   3.244
 3114TIP3   OH2 9305   4.462   0.924   5.322
 3114TIP3    H1 9306   4.395   0.863   5.352
 3114TIP3    H2 9307   4.416   0.983   5.262
 3115TIP3   OH2 9308   6.551   6.721   0.847
 3115TIP3    H1 9309   6.492   6.663   0.799
 3115TIP3    H2 9310   6.577   6.787   0.782
 3116TIP3   OH2 9311   5.026   2.192   1.776
 3116TIP3    H1 9312   5.107   2.243   1.775
 3116TIP3    H2 9313   4.957   2.258   1.772
 3117TIP3   OH2 9314   2.930   1.117   0.451
 3117TIP3    H1 9315   2.862   1.111   0.518
 3117TIP3    H2 9316   2.928   1.209   0.424
 3118TIP3   OH2 9317   4.352   3.660   0.353
 3118TIP3    H1 9318   4.424   3.606   0.387
 3118TIP3    H2 9319   4.333   3.722   0.423
 3119TIP3   OH2 9320   3.952   1.064   0.637
 3119TIP3    H1 9321   3.944   1.042   0.730
 3119TIP3    H2 9322   3.917   1.153   0.630
 3120TIP3   OH2 9323   2.973   3.249   4.368
 3120TIP3    H1 9324   2.913   3.292   4.428
 3120TIP3    H2 9325   2.924   3.245   4.285
 3121TIP3   OH2 9326   4.957   0.066   1.785
 3121TIP3    H1 9327   4.999   0.151   1.776
 3121TIP3    H2 9328   4.878   0.072   1.732
 3122TIP3   OH2 9329   0.294   5.159   4.747
 3122TIP3    H1 9330   0.376   5.109   4.747
 3122TIP3    H2 9331   0.243   5.119   4.676
 3123TIP3   OH2 9332   4.561   5.631   0.877
 3123TIP3    H1 9333   4.650   5.607   0.852
 3123TIP3    H2 9334   4.505   5.586   0.814
 3124TIP3   OH2 9335   2.003   0.199   0.063
 3124TIP3    H1 9336   1.992   0.293   0.055
 3124TIP3    H2 9337   2.076   0.178   0.005
 3125TIP3   OH2 9338   0.271   1.537   3.046
 3125TIP3    H1 9339   0.271   1.451   3.087
 3125TIP3    H2 9340   0.327   1.527   2.969
 3126TIP3   OH2 9341   3.636   2.056   4.902
 3126TIP3    H1 9342   3.611   1.978   4.854
 3126TIP3    H2 9343   3.576   2.058   4.977
 3127TIP3   OH2 9344   1.613   2.861   4.319
 3127TIP3    H1 9345   1.688   2.856   4.378
 3127TIP3    H2 9346   1.603   2.773   4.284
 3128TIP3   OH2 9347   7.079   6.122   4.606
 3128TIP3    H1 9348   7.121   6.043   4.642
 3128TIP3    H2 9349   6.989   6.095   4.587
 3129TIP3   OH2 9350   5.760   2.743   1.682
 3129TIP3    H1 9351   5.724   2.809   1.742
 3129TIP3    H2 9352   5.695   2.736   1.612
 3130TIP3   OH2 9353   7.240   0.702   5.808
 3130TIP3    H1 9354   7.185   0.779   5.820
 3130TIP3    H2 9355   7.206   0.659   5.730
 3131TIP3   OH2 9356   6.326   0.369   0.660
 3131TIP3    H1 9357   6.353   0.297   0.717
 3131TIP3    H2 9358   6.403   0.385   0.604
 3132TIP3   OH2 9359   1.733   6.105   5.835
 3132TIP3    H1 9360   1.789   6.126   5.760
 3132TIP3    H2 9361   1.753   6.172   5.900
 3133TIP3   OH2 9362   1.476   1.788   0.185
 3133TIP3    H1 9363   1.545   1.726   0.205
 3133TIP3    H2 9364   1.460   1.834   0.268
 3134TIP3   OH2 9365   1.389   4.061   1.070
 3134TIP3    H1 9366   1.467   4.092   1.116
 3134TIP3    H2 9367   1.346   4.141   1.041
 3135TIP3   OH2 9368   6.143   4.409   1.020
 3135TIP3    H1 9369   6.108   4.449   0.940
 3135TIP3    H2 9370   6.098   4.325   1.026
 3136TIP3   OH2 9371   1.306   4.556   2.008
 3136TIP3    H1 9372   1.244   4.515   1.949
 3136TIP3    H2 9373   1.358   4.614   1.953
 3137TIP3   OH2 9374   1.395   4.614   2.764
 3137TIP3    H1 9375   1.415   4.616   2.671
 3137TIP3    H2 9376   1.397   4.706   2.791
 3138TIP3   OH2 9377   6.115   1.160   5.788
 3138TIP3    H1 9378   6.057   1.195   5.720
 3138TIP3    H2 9379   6.203   1.174   5.754
 3139TIP3   OH2 9380   4.597   0.866   0.112
 3139TIP3    H1 9381   4.586   0.961   0.113
 3139TIP3    H2 9382   4.656   0.849   0.039
 3140TIP3   OH2 9383   5.931   3.756   2.966
 3140TIP3    H1 9384   5.877   3.818   2.918
 3140TIP3    H2 9385   5.887   3.672   2.957
 3141TIP3   OH2 9386   2.262   4.352   2.118
 3141TIP3    H1 9387   2.313   4.407   2.177
 3141TIP3    H2 9388   2.308   4.268   2.118
 3142TIP3   OH2 9389   2.775   5.933   0.635
 3142TIP3    H1 9390   2.786   5.855   0.581
 3142TIP3    H2 9391   2.862   5.948   0.672
 3143TIP3   OH2 9392   1.965   1.302   1.311
 3143TIP3    H1 9393   2.010   1.386   1.301
 3143TIP3    H2 9394   2.005   1.262   1.389
 3144TIP3   OH2 9395   3.038   6.465   1.065
 3144TIP3    H1 9396   3.117   6.410   1.065
 3144TIP3    H2 9397   3.001   6.455   0.977
 3145TIP3   OH2 9398   6.114   2.438   1.492
 3145TIP3    H1 9399   6.029   2.469   1.463
 3145TIP3    H2 9400   6.112   2.448   1.588
 3146TIP3   OH2 9401   2.530   1.551   0.840
 3146TIP3    H1 9402   2.478   1.547   0.921
 3146TIP3    H2 9403   2.493   1.482   0.784
 3147TIP3   OH2 9404   7.085   5.936   2.943
 3147TIP3    H1 9405   7.146   5.974   3.006
 3147TIP3    H2 9406   7.106   5.980   2.860
 3148TIP3   OH2 9407   4.398   4.162   4.530
 3148TIP3    H1 9408   4.440   4.146   4.445
 3148TIP3    H2 9409   4.323   4.102   4.531
 3149TIP3   OH2 9410   4.254   0.671  -0.027
 3149TIP3    H1 9411   4.322   0.673   0.041
 3149TIP3    H2 9412   4.172   0.673   0.022
 3150TIP3   OH2 9413   5.400   4.456   3.881
 3150TIP3    H1 9414   5.377   4.538   3.838
 3150TIP3    H2 9415   5.398   4.390   3.811
 3151TIP3   OH2 9416   2.251   0.798   0.304
 3151TIP3    H1 9417   2.172   0.748   0.286
 3151TIP3    H2 9418   2.265   0.788   0.398
 3152TIP3   OH2 9419   2.118   1.505   0.413
 3152TIP3    H1 9420   2.187   1.486   0.477
 3152TIP3    H2 9421   2.139   1.594   0.382
 3153TIP3   OH2 9422   3.974   3.870   5.364
 3153TIP3    H1 9423   3.884   3.900   5.369
 3153TIP3    H2 9424   3.976   3.810   5.289
 3154TIP3   OH2 9425   0.679   2.042   0.113
 3154TIP3    H1 9426   0.771   2.036   0.086
 3154TIP3    H2 9427   0.645   2.117   0.063
 3155TIP3   OH2 9428   2.905   2.107   4.927
 3155TIP3    H1 9429   2.985   2.118   4.875
 3155TIP3    H2 9430   2.863   2.031   4.889
 3156TIP3   OH2 9431   0.033   6.636   3.147
 3156TIP3    H1 9432  -0.042   6.676   3.192
 3156TIP3    H2 9433   0.010   6.640   3.054
 3157TIP3   OH2 9434   3.273   6.344   5.126
 3157TIP3    H1 9435   3.197   6.375   5.175
 3157TIP3    H2 9436   3.245   6.261   5.088
 3158TIP3   OH2 9437   5.588   2.098   2.463
 3158TIP3    H1 9438   5.664   2.141   2.425
 3158TIP3    H2 9439   5.597   2.006   2.438
 3159TIP3   OH2 9440   1.276   2.655   4.000
 3159TIP3    H1 9441   1.218   2.720   3.960
 3159TIP3    H2 9442   1.229   2.572   3.989
 3160TIP3   OH2 9443   1.209   0.485   1.637
 3160TIP3    H1 9444   1.165   0.432   1.704
 3160TIP3    H2 9445   1.138   0.532   1.593
 3161TIP3   OH2 9446   6.275   4.436   4.547
 3161TIP3    H1 9447   6.286   4.356   4.496
 3161TIP3    H2 9448   6.283   4.507   4.484
 3162TIP3   OH2 9449   2.949   0.827   3.847
 3162TIP3    H1 9450   2.894   0.749   3.861
 3162TIP3    H2 9451   2.946   0.873   3.931
 3163TIP3   OH2 9452   1.595   0.995   5.754
 3163TIP3    H1 9453   1.678   0.968   5.794
 3163TIP3    H2 9454   1.616   1.076   5.708
 3164TIP3   OH2 9455   1.716   3.217   1.645
 3164TIP3    H1 9456   1.807   3.189   1.638
 3164TIP3    H2 9457   1.677   3.193   1.561
 3165TIP3   OH2 9458   6.508   5.593   4.458
 3165TIP3    H1 9459   6.512   5.605   4.553
 3165TIP3    H2 9460   6.579   5.531   4.439
 3166TIP3   OH2 9461   2.885   0.302   2.894
 3166TIP3    H1 9462   2.962   0.246   2.886
 3166TIP3    H2 9463   2.917   0.381   2.938
 3167TIP3   OH2 9464   1.646  -0.071   2.487
 3167TIP3    H1 9465   1.556  -0.083   2.518
 3167TIP3    H2 9466   1.636  -0.037   2.398
 3168TIP3   OH2 9467   2.043   5.017   0.801
 3168TIP3    H1 9468   2.087   5.011   0.886
 3168TIP3    H2 9469   2.021   4.926   0.780
 3169TIP3   OH2 9470   6.395   5.790   5.712
 3169TIP3    H1 9471   6.471   5.738   5.686
 3169TIP3    H2 9472   6.412   5.814   5.803
 3170TIP3   OH2 9473   3.395   4.842   1.359
 3170TIP3    H1 9474   3.433   4.861   1.274
 3170TIP3    H2 9475   3.305   4.875   1.353
 3171TIP3   OH2 9476   1.437   0.710   3.778
 3171TIP3    H1 9477   1.493   0.787   3.790
 3171TIP3    H2 9478   1.497   0.635   3.787
 3172TIP3   OH2 9479   3.055   2.644   2.558
 3172TIP3    H1 9480   3.058   2.737   2.580
 3172TIP3    H2 9481   3.069   2.642   2.463
 3173TIP3   OH2 9482   3.639   3.215   1.581
 3173TIP3    H1 9483   3.605   3.305   1.581
 3173TIP3    H2 9484   3.600   3.175   1.504
 3174TIP3   OH2 9485   5.256   2.477   4.992
 3174TIP3    H1 9486   5.167   2.445   4.982
 3174TIP3    H2 9487   5.311   2.409   4.952
 3175TIP3   OH2 9488   6.529   6.766   3.530
 3175TIP3    H1 9489   6.453   6.801   3.576
 3175TIP3    H2 9490   6.496   6.745   3.442
 3176TIP3   OH2 9491   0.574   3.591   0.544
 3176TIP3    H1 9492   0.656   3.626   0.510
 3176TIP3    H2 9493   0.508   3.619   0.480
 3177TIP3   OH2 9494   3.756   1.488   2.751
 3177TIP3    H1 9495   3.779   1.438   2.830
 3177TIP3    H2 9496   3.667   1.461   2.730
 3178TIP3   OH2 9497   3.527   3.488   0.191
 3178TIP3    H1 9498   3.517   3.400   0.154
 3178TIP3    H2 9499   3.572   3.538   0.123
 3179TIP3   OH2 9500   0.817   4.023   1.428
 3179TIP3    H1 9501   0.845   3.931   1.423
 3179TIP3    H2 9502   0.741   4.028   1.369
 3180TIP3   OH2 9503   4.606   0.289   2.503
 3180TIP3    H1 9504   4.642   0.200   2.508
 3180TIP3    H2 9505   4.521   0.278   2.460
 3181TIP3   OH2 9506   6.115   3.192   2.441
 3181TIP3    H1 9507   6.086   3.177   2.531
 3181TIP3    H2 9508   6.210   3.183   2.445
 3182TIP3   OH2 9509   3.980   5.808   0.900
 3182TIP3    H1 9510   3.912   5.861   0.858
 3182TIP3    H2 9511   3.942   5.783   0.984
 3183TIP3   OH2 9512   1.305   2.036   5.606
 3183TIP3    H1 9513   1.347   2.003   5.527
 3183TIP3    H2 9514   1.298   1.960   5.663
 3184TIP3   OH2 9515   1.062   3.403   0.663
 3184TIP3    H1 9516   1.014   3.327   0.698
 3184TIP3    H2 9517   1.118   3.366   0.594
 3185TIP3   OH2 9518   5.938   5.829   5.213
 3185TIP3    H1 9519   5.986   5.906   5.244
 3185TIP3    H2 9520   5.847   5.847   5.234
 3186TIP3   OH2 9521   2.137   2.091   4.689
 3186TIP3    H1 9522   2.085   2.046   4.622
 3186TIP3    H2 9523   2.125   2.184   4.670
 3187TIP3   OH2 9524   3.561   0.807   1.979
 3187TIP3    H1 9525   3.493   0.863   1.940
 3187TIP3    H2 9526   3.641   0.831   1.933
 3188TIP3   OH2 9527   0.289   0.478   4.728
 3188TIP3    H1 9528   0.195   0.488   4.715
 3188TIP3    H2 9529   0.327   0.560   4.697
 3189TIP3   OH2 9530   1.043   1.173   3.885
 3189TIP3    H1 9531   1.081   1.254   3.850
 3189TIP3    H2 9532   1.006   1.199   3.970
 3190TIP3   OH2 9533   2.306   4.774   5.851
 3190TIP3    H1 9534   2.372   4.772   5.782
 3190TIP3    H2 9535   2.349   4.816   5.925
 3191TIP3   OH2 9536   1.629   6.295   3.059
 3191TIP3    H1 9537   1.723   6.281   3.047
 3191TIP3    H2 9538   1.612   6.380   3.019
 3192TIP3   OH2 9539   4.715   0.794   5.832
 3192TIP3    H1 9540   4.717   0.701   5.857
 3192TIP3    H2 9541   4.635   0.828   5.872
 3193TIP3   OH2 9542   4.101   2.879   4.556
 3193TIP3    H1 9543   4.101   2.818   4.482
 3193TIP3    H2 9544   4.058   2.831   4.627
 3194TIP3   OH2 9545   3.636   2.557   1.307
 3194TIP3    H1 9546   3.680   2.522   1.384
 3194TIP3    H2 9547   3.543   2.553   1.328
 3195TIP3   OH2 9548   6.377   4.043   4.126
 3195TIP3    H1 9549   6.434   3.977   4.166
 3195TIP3    H2 9550   6.289   4.017   4.150
 3196TIP3   OH2 9551   3.490   0.289   3.323
 3196TIP3    H1 9552   3.513   0.382   3.329
 3196TIP3    H2 9553   3.451   0.268   3.408
 3197TIP3   OH2 9554   2.822   6.039   2.262
 3197TIP3    H1 9555   2.845   5.947   2.249
 3197TIP3    H2 9556   2.802   6.045   2.355
 3198TIP3   OH2 9557   0.659   3.277   5.503
 3198TIP3    H1 9558   0.609   3.196   5.504
 3198TIP3    H2 9559   0.607   3.339   5.553
 3199TIP3   OH2 9560   4.753   3.349   4.187
 3199TIP3    H1 9561   4.702   3.428   4.169
 3199TIP3    H2 9562   4.843   3.381   4.197
 3200TIP3   OH2 9563   2.768   2.012   1.068
 3200TIP3    H1 9564   2.744   2.078   1.004
 3200TIP3    H2 9565   2.742   2.048   1.152
 3201TIP3   OH2 9566   6.343   3.754   3.628
 3201TIP3    H1 9567   6.353   3.838   3.584
 3201TIP3    H2 9568   6.403   3.758   3.702
 3202TIP3   OH2 9569   6.739   6.642   4.796
 3202TIP3    H1 9570   6.692   6.596   4.865
 3202TIP3    H2 9571   6.673   6.659   4.729
 3203TIP3   OH2 9572   7.245   2.968   2.056
 3203TIP3    H1 9573   7.245   2.992   2.149
 3203TIP3    H2 9574   7.209   2.880   2.055
 3204TIP3   OH2 9575   0.890   6.073   3.169
 3204TIP3    H1 9576   0.870   6.086   3.077
 3204TIP3    H2 9577   0.950   5.999   3.171
 3205TIP3   OH2 9578   0.783   1.121   0.066
 3205TIP3    H1 9579   0.716   1.054   0.066
 3205TIP3    H2 9580   0.824   1.115   0.152
 3206TIP3   OH2 9581   6.376   0.460   0.222
 3206TIP3    H1 9582   6.307   0.425   0.278
 3206TIP3    H2 9583   6.411   0.383   0.177
 3207TIP3   OH2 9584   0.383   1.807   2.272
 3207TIP3    H1 9585   0.398   1.881   2.331
 3207TIP3    H2 9586   0.449   1.817   2.204
 3208TIP3   OH2 9587   1.307   5.068   0.005
 3208TIP3    H1 9588   1.213   5.063  -0.013
 3208TIP3    H2 9589   1.329   4.980   0.038
 3209TIP3   OH2 9590   2.723   6.485   1.102
 3209TIP3    H1 9591   2.656   6.419   1.090
 3209TIP3    H2 9592   2.802   6.436   1.123
 3210TIP3   OH2 9593   0.195   1.095   5.462
 3210TIP3    H1 9594   0.136   1.081   5.389
 3210TIP3    H2 9595   0.275   1.130   5.422
 3211TIP3   OH2 9596   5.604   5.347   0.534
 3211TIP3    H1 9597   5.556   5.429   0.527
 3211TIP3    H2 9598   5.613   5.316   0.444
 3212TIP3   OH2 9599   1.442   4.698   3.296
 3212TIP3    H1 9600   1.367   4.701   3.237
 3212TIP3    H2 9601   1.405   4.714   3.383
 3213TIP3   OH2 9602   2.588   3.534   0.573
 3213TIP3    H1 9603   2.496   3.517   0.592
 3213TIP3    H2 9604   2.603   3.625   0.599
 3214TIP3   OH2 9605   6.360   1.485   3.945
 3214TIP3    H1 9606   6.342   1.404   3.992
 3214TIP3    H2 9607   6.455   1.486   3.934
 3215TIP3   OH2 9608   3.330   4.729   0.107
 3215TIP3    H1 9609   3.326   4.757   0.016
 3215TIP3    H2 9610   3.239   4.711   0.131
 3216TIP3   OH2 9611   6.547   2.749   2.759
 3216TIP3    H1 9612   6.606   2.824   2.767
 3216TIP3    H2 9613   6.603   2.677   2.731
 3217TIP3   OH2 9614   2.567   2.084   0.350
 3217TIP3    H1 9615   2.473   2.100   0.345
 3217TIP3    H2 9616   2.601   2.113   0.265
 3218TIP3   OH2 9617   1.678   6.451   1.654
 3218TIP3    H1 9618   1.736   6.499   1.714
 3218TIP3    H2 9619   1.723   6.451   1.570
 3219TIP3   OH2 9620   4.787   0.080   2.844
 3219TIP3    H1 9621   4.821   0.141   2.779
 3219TIP3    H2 9622   4.717   0.033   2.798
 3220TIP3   OH2 9623   1.690   1.856   4.505
 3220TIP3    H1 9624   1.636   1.777   4.512
 3220TIP3    H2 9625   1.748   1.839   4.431
 3221TIP3   OH2 9626   5.364   3.905   3.570
 3221TIP3    H1 9627   5.455   3.883   3.550
 3221TIP3    H2 9628   5.327   3.825   3.606
 3222TIP3   OH2 9629   6.159   6.078   0.734
 3222TIP3    H1 9630   6.186   6.091   0.825
 3222TIP3    H2 9631   6.141   5.984   0.727
 3223TIP3   OH2 9632   1.092   2.791   3.015
 3223TIP3    H1 9633   1.142   2.711   3.032
 3223TIP3    H2 9634   1.030   2.766   2.947
 3224TIP3   OH2 9635   4.854   3.330   3.879
 3224TIP3    H1 9636   4.880   3.289   3.797
 3224TIP3    H2 9637   4.822   3.417   3.854
 3225TIP3   OH2 9638   6.465   4.373   4.789
 3225TIP3    H1 9639   6.547   4.328   4.810
 3225TIP3    H2 9640   6.455   4.364   4.695
 3226TIP3   OH2 9641   0.050   0.236   2.604
 3226TIP3    H1 9642   0.114   0.251   2.674
 3226TIP3    H2 9643   0.076   0.151   2.567
 3227TIP3   OH2 9644   4.723   5.051   5.710
 3227TIP3    H1 9645   4.683   4.973   5.749
 3227TIP3    H2 9646   4.669   5.124   5.740
 3228TIP3   OH2 9647   4.397   5.136   4.558
 3228TIP3    H1 9648   4.343   5.129   4.636
 3228TIP3    H2 9649   4.459   5.206   4.577
 3229TIP3   OH2 9650   6.546   1.532   1.795
 3229TIP3    H1 9651   6.482   1.591   1.755
 3229TIP3    H2 9652   6.501   1.447   1.799
 3230TIP3   OH2 9653   3.107   0.079   0.424
 3230TIP3    H1 9654   3.059   0.142   0.370
 3230TIP3    H2 9655   3.163   0.032   0.362
 3231TIP3   OH2 9656   3.462   2.742   2.567
 3231TIP3    H1 9657   3.395   2.718   2.503
 3231TIP3    H2 9658   3.539   2.691   2.540
 3232TIP3   OH2 9659   7.146   2.755   0.871
 3232TIP3    H1 9660   7.188   2.841   0.860
 3232TIP3    H2 9661   7.052   2.774   0.862
 3233TIP3   OH2 9662   4.114   4.110   3.525
 3233TIP3    H1 9663   4.042   4.170   3.507
 3233TIP3    H2 9664   4.193   4.162   3.510
 3234TIP3   OH2 9665   2.872   1.479   1.129
 3234TIP3    H1 9666   2.918   1.488   1.045
 3234TIP3    H2 9667   2.808   1.551   1.128
 3235TIP3   OH2 9668   3.659   0.831   4.289
 3235TIP3    H1 9669   3.574   0.788   4.280
 3235TIP3    H2 9670   3.677   0.828   4.383
 3236TIP3   OH2 9671   1.320   2.547   3.348
 3236TIP3    H1 9672   1.280   2.517   3.266
 3236TIP3    H2 9673   1.352   2.466   3.389
 3237TIP3   OH2 9674   4.296   5.477   1.419
 3237TIP3    H1 9675   4.220   5.531   1.439
 3237TIP3    H2 9676   4.330   5.513   1.337
 3238TIP3   OH2 9677   3.060   5.841   5.380
 3238TIP3    H1 9678   3.113   5.857   5.302
 3238TIP3    H2 9679   2.970   5.839   5.347
 3239TIP3   OH2 9680   1.045   3.975   2.698
 3239TIP3    H1 9681   0.972   4.033   2.716
 3239TIP3    H2 9682   1.088   3.963   2.782
 3240TIP3   OH2 9683   1.118   0.329   5.887
 3240TIP3    H1 9684   1.125   0.400   5.823
 3240TIP3    H2 9685   1.153   0.252   5.842
 3241TIP3   OH2 9686   3.912   0.110   5.759
 3241TIP3    H1 9687   3.916   0.099   5.854
 3241TIP3    H2 9688   3.952   0.195   5.743
 3242TIP3   OH2 9689   0.871   3.460   5.030
 3242TIP3    H1 9690   0.843   3.551   5.031
 3242TIP3    H2 9691   0.921   3.450   5.111
 3243TIP3   OH2 9692   5.893   1.998   5.165
 3243TIP3    H1 9693   5.868   1.928   5.104
 3243TIP3    H2 9694   5.988   2.003   5.158
 3244TIP3   OH2 9695   5.613   1.905   5.215
 3244TIP3    H1 9696   5.695   1.949   5.192
 3244TIP3    H2 9697   5.545   1.958   5.175
 3245TIP3   OH2 9698   4.210   5.322   3.656
 3245TIP3    H1 9699   4.257   5.274   3.587
 3245TIP3    H2 9700   4.244   5.411   3.650
 3246TIP3   OH2 9701   4.096   5.392   5.475
 3246TIP3    H1 9702   4.128   5.303   5.480
 3246TIP3    H2 9703   4.092   5.411   5.381
 3247TIP3   OH2 9704   1.036   5.620   0.563
 3247TIP3    H1 9705   0.957   5.574   0.592
 3247TIP3    H2 9706   1.060   5.676   0.637
 3248TIP3   OH2 9707   0.079   1.767   2.509
 3248TIP3    H1 9708   0.151   1.804   2.457
 3248TIP3    H2 9709   0.117   1.690   2.551
 3249TIP3   OH2 9710   3.325   3.967   3.169
 3249TIP3    H1 9711   3.327   3.927   3.256
 3249TIP3    H2 9712   3.417   3.980   3.146
 3250TIP3   OH2 9713   5.794   5.272   3.186
 3250TIP3    H1 9714   5.826   5.305   3.102
 3250TIP3    H2 9715   5.713   5.226   3.164
 3251TIP3   OH2 9716   1.938   0.055   0.970
 3251TIP3    H1 9717   1.917   0.037   1.062
 3251TIP3    H2 9718   1.882  -0.005   0.921
 3252TIP3   OH2 9719   5.993   1.374   3.921
 3252TIP3    H1 9720   6.027   1.398   3.835
 3252TIP3    H2 9721   6.042   1.428   3.983
 3253TIP3   OH2 9722   0.540   4.428   4.479
 3253TIP3    H1 9723   0.501   4.472   4.403
 3253TIP3    H2 9724   0.465   4.404   4.534
 3254TIP3   OH2 9725   7.187   0.382   1.771
 3254TIP3    H1 9726   7.238   0.303   1.752
 3254TIP3    H2 9727   7.097   0.358   1.750
 3255TIP3   OH2 9728   2.708   4.667   5.541
 3255TIP3    H1 9729   2.675   4.600   5.600
 3255TIP3    H2 9730   2.733   4.618   5.462
 3256TIP3   OH2 9731   5.049   4.607   1.428
 3256TIP3    H1 9732   4.963   4.631   1.392
 3256TIP3    H2 9733   5.112   4.638   1.363
 3257TIP3   OH2 9734   1.786   3.520   4.644
 3257TIP3    H1 9735   1.849   3.496   4.577
 3257TIP3    H2 9736   1.739   3.438   4.664
 3258TIP3   OH2 9737   5.293   4.108   2.826
 3258TIP3    H1 9738   5.206   4.148   2.820
 3258TIP3    H2 9739   5.325   4.135   2.912
 3259TIP3   OH2 9740   6.033   1.064   2.730
 3259TIP3    H1 9741   6.110   1.063   2.673
 3259TIP3    H2 9742   5.995   0.976   2.720
 3260TIP3   OH2 9743   2.826   2.781   5.578
 3260TIP3    H1 9744   2.757   2.825   5.529
 3260TIP3    H2 9745   2.855   2.847   5.642
 3261TIP3   OH2 9746   2.472   1.266   1.773
 3261TIP3    H1 9747   2.406   1.214   1.820
 3261TIP3    H2 9748   2.534   1.201   1.739
 3262TIP3   OH2 9749   5.865   5.273   4.477
 3262TIP3    H1 9750   5.894   5.364   4.483
 3262TIP3    H2 9751   5.886   5.247   4.387
 3263TIP3   OH2 9752   3.091   0.009   3.392
 3263TIP3    H1 9753   3.074   0.046   3.478
 3263TIP3    H2 9754   3.018   0.040   3.338
 3264TIP3   OH2 9755   5.283   4.685   3.501
 3264TIP3    H1 9756   5.253   4.679   3.592
 3264TIP3    H2 9757   5.309   4.776   3.490
 3265TIP3   OH2 9758   5.697   5.775   5.629
 3265TIP3    H1 9759   5.732   5.690   5.656
 3265TIP3    H2 9760   5.774   5.829   5.613
 3266TIP3   OH2 9761   3.622   2.215   4.179
 3266TIP3    H1 9762   3.656   2.297   4.145
 3266TIP3    H2 9763   3.598   2.234   4.270
 3267TIP3   OH2 9764   1.677   6.159   3.793
 3267TIP3    H1 9765   1.652   6.169   3.701
 3267TIP3    H2 9766   1.738   6.086   3.794
 3268TIP3   OH2 9767   3.853   6.117   1.121
 3268TIP3    H1 9768   3.912   6.179   1.080
 3268TIP3    H2 9769   3.840   6.151   1.210
 3269TIP3   OH2 9770   4.383   3.792   2.164
 3269TIP3    H1 9771   4.356   3.879   2.194
 3269TIP3    H2 9772   4.309   3.735   2.187
 3270TIP3   OH2 9773   6.232   5.651   2.910
 3270TIP3    H1 9774   6.319   5.632   2.875
 3270TIP3    H2 9775   6.192   5.709   2.845
 3271TIP3   OH2 9776   0.229   0.642   3.020
 3271TIP3    H1 9777   0.313   0.667   2.982
 3271TIP3    H2 9778   0.168   0.709   2.989
 3272TIP3   OH2 9779   1.532   3.104   0.340
 3272TIP3    H1 9780   1.566   3.177   0.289
 3272TIP3    H2 9781   1.482   3.052   0.277
 3273TIP3   OH2 9782   6.849   6.218   5.397
 3273TIP3    H1 9783   6.924   6.196   5.343
 3273TIP3    H2 9784   6.773   6.201   5.341
 3274TIP3   OH2 9785   3.709   0.875   5.871
 3274TIP3    H1 9786   3.677   0.825   5.796
 3274TIP3    H2 9787   3.757   0.810   5.923
 3275TIP3   OH2 9788   5.091   3.138   4.952
 3275TIP3    H1 9789   5.169   3.182   4.983
 3275TIP3    H2 9790   5.035   3.130   5.030
 3276TIP3   OH2 9791   2.007   3.938   0.478
 3276TIP3    H1 9792   1.986   3.850   0.510
 3276TIP3    H2 9793   2.102   3.939   0.472
 3277TIP3   OH2 9794   2.201   5.149   5.831
 3277TIP3    H1 9795   2.153   5.151   5.914
 3277TIP3    H2 9796   2.223   5.241   5.814
 3278TIP3   OH2 9797   0.134   6.637   4.827
 3278TIP3    H1 9798   0.212   6.583   4.813
 3278TIP3    H2 9799   0.071   6.578   4.868
 3279TIP3   OH2 9800   2.527   2.245   2.901
 3279TIP3    H1 9801   2.579   2.318   2.937
 3279TIP3    H2 9802   2.554   2.240   2.809
 3280TIP3   OH2 9803   4.281   0.627   5.414
 3280TIP3    H1 9804   4.297   0.563   5.345
 3280TIP3    H2 9805   4.195   0.663   5.394
 3281TIP3   OH2 9806   4.257   4.276   2.292
 3281TIP3    H1 9807   4.275   4.354   2.240
 3281TIP3    H2 9808   4.165   4.285   2.319
 3282TIP3   OH2 9809   0.879   2.791   2.414
 3282TIP3    H1 9810   0.878   2.697   2.427
 3282TIP3    H2 9811   0.941   2.805   2.342
 3283TIP3   OH2 9812   6.405   5.245   3.922
 3283TIP3    H1 9813   6.451   5.293   3.991
 3283TIP3    H2 9814   6.450   5.270   3.842
 3284TIP3   OH2 9815   4.267   4.266   5.242
 3284TIP3    H1 9816   4.326   4.245   5.170
 3284TIP3    H2 9817   4.197   4.201   5.235
 3285TIP3   OH2 9818   3.173   1.649   1.172
 3285TIP3    H1 9819   3.136   1.576   1.220
 3285TIP3    H2 9820   3.101   1.681   1.118
 3286TIP3   OH2 9821   5.508   4.010   3.165
 3286TIP3    H1 9822   5.528   4.044   3.252
 3286TIP3    H2 9823   5.537   4.079   3.105
 3287TIP3   OH2 9824   7.166   3.664   2.419
 3287TIP3    H1 9825   7.202   3.685   2.505
 3287TIP3    H2 9826   7.238   3.620   2.373
 3288TIP3   OH2 9827   0.316   4.142   5.102
 3288TIP3    H1 9828   0.294   4.194   5.025
 3288TIP3    H2 9829   0.398   4.099   5.080
 3289TIP3   OH2 9830   5.124   4.084   5.291
 3289TIP3    H1 9831   5.203   4.088   5.237
 3289TIP3    H2 9832   5.076   4.164   5.270
 3290TIP3   OH2 9833   0.820   1.433   3.160
 3290TIP3    H1 9834   0.890   1.379   3.198
 3290TIP3    H2 9835   0.849   1.523   3.178
 3291TIP3   OH2 9836   7.075   6.266   0.709
 3291TIP3    H1 9837   6.985   6.233   0.706
 3291TIP3    H2 9838   7.065   6.361   0.705
 3292TIP3   OH2 9839   5.811   0.951   3.078
 3292TIP3    H1 9840   5.811   0.929   3.172
 3292TIP3    H2 9841   5.722   0.934   3.050
 3293TIP3   OH2 9842   3.247   3.367   0.486
 3293TIP3    H1 9843   3.313   3.301   0.507
 3293TIP3    H2 9844   3.213   3.394   0.571
 3294TIP3   OH2 9845   0.667   0.065   3.020
 3294TIP3    H1 9846   0.616   0.017   3.085
 3294TIP3    H2 9847   0.751   0.019   3.016
 3295TIP3   OH2 9848   6.973   5.163   2.677
 3295TIP3    H1 9849   7.025   5.222   2.731
 3295TIP3    H2 9850   7.035   5.129   2.612
 3296TIP3   OH2 9851   5.535   2.488   1.383
 3296TIP3    H1 9852   5.453   2.439   1.379
 3296TIP3    H2 9853   5.592   2.433   1.437
 3297TIP3   OH2 9854   2.801   1.170   0.042
 3297TIP3    H1 9855   2.813   1.226  -0.035
 3297TIP3    H2 9856   2.889   1.155   0.075
 3298TIP3   OH2 9857   3.278   4.243   4.811
 3298TIP3    H1 9858   3.319   4.297   4.879
 3298TIP3    H2 9859   3.266   4.302   4.737
 3299TIP3   OH2 9860   0.561   4.954   2.857
 3299TIP3    H1 9861   0.575   5.005   2.936
 3299TIP3    H2 9862   0.500   4.885   2.882
 3300TIP3   OH2 9863   6.989   1.125   4.782
 3300TIP3    H1 9864   7.036   1.042   4.791
 3300TIP3    H2 9865   7.040   1.186   4.835
 3301TIP3   OH2 9866   0.719   1.111   4.490
 3301TIP3    H1 9867   0.757   1.170   4.424
 3301TIP3    H2 9868   0.790   1.052   4.513
 3302TIP3   OH2 9869   3.299   5.994   4.431
 3302TIP3    H1 9870   3.319   5.954   4.346
 3302TIP3    H2 9871   3.297   5.920   4.492
 3303TIP3   OH2 9872   5.966   0.575   0.824
 3303TIP3    H1 9873   5.935   0.551   0.911
 3303TIP3    H2 9874   5.895   0.549   0.765
 3304TIP3   OH2 9875   1.139   0.463   0.677
 3304TIP3    H1 9876   1.161   0.375   0.708
 3304TIP3    H2 9877   1.211   0.486   0.618
 3305TIP3   OH2 9878   5.151   6.753   5.438
 3305TIP3    H1 9879   5.242   6.755   5.469
 3305TIP3    H2 9880   5.150   6.683   5.372
 3306TIP3   OH2 9881   2.021   2.353   1.420
 3306TIP3    H1 9882   2.025   2.258   1.428
 3306TIP3    H2 9883   2.043   2.385   1.507
 3307TIP3   OH2 9884   1.786   4.633   0.890
 3307TIP3    H1 9885   1.761   4.722   0.865
 3307TIP3    H2 9886   1.756   4.578   0.817
 3308TIP3   OH2 9887   5.635   5.506   2.463
 3308TIP3    H1 9888   5.578   5.449   2.412
 3308TIP3    H2 9889   5.721   5.498   2.421
 3309TIP3   OH2 9890   5.628   0.218   2.622
 3309TIP3    H1 9891   5.548   0.222   2.570
 3309TIP3    H2 9892   5.627   0.300   2.673
 3310TIP3   OH2 9893   4.085   0.404   4.115
 3310TIP3    H1 9894   4.085   0.337   4.184
 3310TIP3    H2 9895   4.162   0.383   4.062
 3311TIP3   OH2 9896   6.078   5.478   2.555
 3311TIP3    H1 9897   6.147   5.453   2.617
 3311TIP3    H2 9898   6.114   5.554   2.510
 3312TIP3   OH2 9899   3.093   3.660   2.443
 3312TIP3    H1 9900   3.115   3.667   2.350
 3312TIP3    H2 9901   3.008   3.704   2.452
 3313TIP3   OH2 9902   5.725   0.483   0.722
 3313TIP3    H1 9903   5.639   0.474   0.681
 3313TIP3    H2 9904   5.719   0.429   0.801
 3314TIP3   OH2 9905   6.445   4.690   1.253
 3314TIP3    H1 9906   6.527   4.672   1.207
 3314TIP3    H2 9907   6.380   4.635   1.210
 3315TIP3   OH2 9908   6.926   5.420   1.416
 3315TIP3    H1 9909   6.988   5.466   1.359
 3315TIP3    H2 9910   6.928   5.329   1.387
 3316TIP3   OH2 9911   5.222   5.080   1.378
 3316TIP3    H1 9912   5.240   5.031   1.458
 3316TIP3    H2 9913   5.153   5.029   1.334
 3317TIP3   OH2 9914   1.848   1.730   2.624
 3317TIP3    H1 9915   1.820   1.639   2.623
 3317TIP3    H2 9916   1.810   1.767   2.544
 3318TIP3   OH2 9917   2.402   1.041   2.941
 3318TIP3    H1 9918   2.356   0.967   2.982
 3318TIP3    H2 9919   2.438   1.005   2.860
 3319TIP3   OH2 9920   1.500   2.095   2.216
 3319TIP3    H1 9921   1.496   2.039   2.294
 3319TIP3    H2 9922   1.413   2.135   2.212
 3320TIP3   OH2 9923   0.038   3.851   1.795
 3320TIP3    H1 9924  -0.051   3.885   1.786
 3320TIP3    H2 9925   0.082   3.878   1.714
 3321TIP3   OH2 9926   5.500   4.728   2.302
 3321TIP3    H1 9927   5.420   4.781   2.304
 3321TIP3    H2 9928   5.468   4.638   2.302
 3322TIP3   OH2 9929   2.341   6.198   1.819
 3322TIP3    H1 9930   2.268   6.260   1.828
 3322TIP3    H2 9931   2.317   6.144   1.743
 3323TIP3   OH2 9932   1.067   3.354   5.210
 3323TIP3    H1 9933   1.021   3.272   5.225
 3323TIP3    H2 9934   1.101   3.379   5.296
 3324TIP3   OH2 9935   2.037   5.019   1.132
 3324TIP3    H1 9936   2.008   4.938   1.175
 3324TIP3    H2 9937   2.131   5.023   1.150
 3325TIP3   OH2 9938   4.333   4.555   0.721
 3325TIP3    H1 9939   4.250   4.549   0.768
 3325TIP3    H2 9940   4.376   4.471   0.738
 3326TIP3   OH2 9941   2.879   0.255   4.978
 3326TIP3    H1 9942   2.834   0.171   4.966
 3326TIP3    H2 9943   2.915   0.276   4.892
 3327TIP3   OH2 9944   2.768   0.179   1.865
 3327TIP3    H1 9945   2.758   0.123   1.788
 3327TIP3    H2 9946   2.707   0.142   1.929
 3328TIP3   OH2 9947   3.261   0.895   4.152
 3328TIP3    H1 9948   3.316   0.940   4.216
 3328TIP3    H2 9949   3.321   0.874   4.080
 3329TIP3   OH2 9950   3.532   1.204   4.477
 3329TIP3    H1 9951   3.453   1.258   4.473
 3329TIP3    H2 9952   3.559   1.195   4.386
 3330TIP3   OH2 9953   3.962   4.157   4.859
 3330TIP3    H1 9954   3.969   4.182   4.767
 3330TIP3    H2 9955   4.045   4.113   4.879
 3331TIP3   OH2 9956   6.346   4.667   0.781
 3331TIP3    H1 9957   6.393   4.630   0.706
 3331TIP3    H2 9958   6.254   4.648   0.762
 3332TIP3   OH2 9959   4.274   6.480   1.957
 3332TIP3    H1 9960   4.329   6.458   2.032
 3332TIP3    H2 9961   4.337   6.496   1.886
 3333TIP3   OH2 9962   6.601   3.645   2.105
 3333TIP3    H1 9963   6.688   3.605   2.115
 3333TIP3    H2 9964   6.587   3.647   2.011
 3334TIP3   OH2 9965   4.599   5.345   4.598
 3334TIP3    H1 9966   4.602   5.394   4.680
 3334TIP3    H2 9967   4.528   5.385   4.548
 3335TIP3   OH2 9968   7.199   4.467   1.410
 3335TIP3    H1 9969   7.211   4.523   1.333
 3335TIP3    H2 9970   7.134   4.403   1.383
 3336TIP3   OH2 9971   3.998   4.534   5.821
 3336TIP3    H1 9972   4.060   4.495   5.759
 3336TIP3    H2 9973   4.031   4.509   5.907
 3337TIP3   OH2 9974   5.172   0.322   0.182
 3337TIP3    H1 9975   5.159   0.231   0.208
 3337TIP3    H2 9976   5.094   0.343   0.131
 3338TIP3   OH2 9977   7.105   5.504   1.221
 3338TIP3    H1 9978   7.097   5.474   1.130
 3338TIP3    H2 9979   7.169   5.445   1.260
 3339TIP3   OH2 9980   3.061   6.329   3.301
 3339TIP3    H1 9981   3.032   6.360   3.387
 3339TIP3    H2 9982   3.156   6.339   3.303
 3340TIP3   OH2 9983   6.659   3.711   5.819
 3340TIP3    H1 9984   6.716   3.634   5.822
 3340TIP3    H2 9985   6.660   3.745   5.909
 3341TIP3   OH2 9986   6.025   4.135   0.325
 3341TIP3    H1 9987   6.017   4.082   0.405
 3341TIP3    H2 9988   6.068   4.216   0.354
 3342TIP3   OH2 9989   2.976   5.317   1.422
 3342TIP3    H1 9990   3.007   5.406   1.409
 3342TIP3    H2 9991   2.901   5.309   1.363
 3343TIP3   OH2 9992   5.632   6.159   0.138
 3343TIP3    H1 9993   5.545   6.120   0.141
 3343TIP3    H2 9994   5.690   6.087   0.115
 3344TIP3   OH2 9995   0.594   0.491   0.114
 3344TIP3    H1 9996   0.649   0.440   0.173
 3344TIP3    H2 9997   0.521   0.433   0.093
 3345TIP3   OH2 9998   7.214   6.708   0.537
 3345TIP3    H1 9999   7.176   6.677   0.619
 3345TIP3    H210000   7.218   6.803   0.547
 3346TIP3   OH210001   5.590   2.404   3.689
 3346TIP3    H110002   5.552   2.416   3.776
 3346TIP3    H210003   5.613   2.311   3.686
 3347TIP3   OH210004   3.208   5.800   2.540
 3347TIP3    H110005   3.243   5.888   2.527
 3347TIP3    H210006   3.254   5.746   2.475
 3348TIP3   OH210007   2.966   5.423   4.158
 3348TIP3    H110008   3.059   5.401   4.167
 3348TIP3    H210009   2.933   5.422   4.248
 3349TIP3   OH210010   1.780   2.849   0.966
 3349TIP3    H110011   1.862   2.887   0.936
 3349TIP3    H210012   1.715   2.878   0.902
 3350TIP3   OH210013   0.488   1.004   2.352
 3350TIP3    H110014   0.569   1.035   2.391
 3350TIP3    H210015   0.448   0.949   2.419
 3351TIP3   OH210016   0.572   2.599   2.479
 3351TIP3    H110017   0.592   2.595   2.573
 3351TIP3    H210018   0.520   2.679   2.470
 3352TIP3   OH210019   1.237   3.540   2.918
 3352TIP3    H110020   1.143   3.556   2.915
 3352TIP3    H210021   1.245   3.445   2.931
 3353TIP3   OH210022   1.712   1.818   3.728
 3353TIP3    H110023   1.662   1.871   3.667
 3353TIP3    H210024   1.649   1.795   3.797
 3354TIP3   OH210025   0.424   2.497   2.043
 3354TIP3    H110026   0.386   2.579   2.075
 3354TIP3    H210027   0.425   2.507   1.948
 3355TIP3   OH210028   1.905   4.742   3.274
 3355TIP3    H110029   1.977   4.767   3.215
 3355TIP3    H210030   1.861   4.825   3.292
 3356TIP3   OH210031   6.865   2.524   4.955
 3356TIP3    H110032   6.958   2.506   4.971
 3356TIP3    H210033   6.862   2.560   4.866
 3357TIP3   OH210034   5.798   0.363   2.931
 3357TIP3    H110035   5.730   0.385   2.866
 3357TIP3    H210036   5.840   0.446   2.951
 3358TIP3   OH210037   3.511   4.105   4.447
 3358TIP3    H110038   3.588   4.076   4.496
 3358TIP3    H210039   3.462   4.024   4.430
 3359TIP3   OH210040   5.941   2.870   2.818
 3359TIP3    H110041   5.846   2.877   2.830
 3359TIP3    H210042   5.957   2.778   2.801
 3360TIP3   OH210043   4.078   4.422   1.301
 3360TIP3    H110044   4.153   4.419   1.241
 3360TIP3    H210045   4.070   4.332   1.333
 3361TIP3   OH210046   0.713   4.707   5.689
 3361TIP3    H110047   0.750   4.733   5.604
 3361TIP3    H210048   0.778   4.648   5.727
 3362TIP3   OH210049   1.252   3.966   2.899
 3362TIP3    H110050   1.284   4.009   2.978
 3362TIP3    H210051   1.330   3.958   2.843
 3363TIP3   OH210052   0.287   0.916   0.440
 3363TIP3    H110053   0.277   1.009   0.418
 3363TIP3    H210054   0.208   0.875   0.405
 3364TIP3   OH210055   4.241   5.202   5.197
 3364TIP3    H110056   4.215   5.293   5.184
 3364TIP3    H210057   4.169   5.165   5.249
 3365TIP3   OH210058   5.284   0.674   0.629
 3365TIP3    H110059   5.265   0.609   0.562
 3365TIP3    H210060   5.309   0.623   0.706
 3366TIP3   OH210061   3.215   5.845   2.827
 3366TIP3    H110062   3.218   5.776   2.893
 3366TIP3    H210063   3.238   5.801   2.745
 3367TIP3   OH210064   2.651   6.002   4.336
 3367TIP3    H110065   2.707   6.045   4.401
 3367TIP3    H210066   2.633   6.070   4.271
 3368TIP3   OH210067   6.494   5.086   3.472
 3368TIP3    H110068   6.580   5.046   3.484
 3368TIP3    H210069   6.433   5.013   3.470
 3369TIP3   OH210070   5.122   0.090   1.337
 3369TIP3    H110071   5.144   0.000   1.361
 3369TIP3    H210072   5.205   0.129   1.310
 3370TIP3   OH210073   5.892   5.422   2.943
 3370TIP3    H110074   5.837   5.500   2.953
 3370TIP3    H210075   5.892   5.404   2.849
 3371TIP3   OH210076   4.090   0.522   2.310
 3371TIP3    H110077   4.064   0.456   2.375
 3371TIP3    H210078   4.184   0.534   2.324
 3372TIP3   OH210079   2.092   3.446   3.326
 3372TIP3    H110080   2.093   3.381   3.396
 3372TIP3    H210081   2.064   3.397   3.248
 3373TIP3   OH210082   1.721   2.334   3.727
 3373TIP3    H110083   1.807   2.339   3.769
 3373TIP3    H210084   1.698   2.425   3.708
 3374TIP3   OH210085   0.124   4.669   4.240
 3374TIP3    H110086   0.122   4.686   4.335
 3374TIP3    H210087   0.162   4.749   4.203
 3375TIP3   OH210088   5.631   6.372   0.787
 3375TIP3    H110089   5.583   6.326   0.856
 3375TIP3    H210090   5.700   6.310   0.760
 3376TIP3   OH210091   3.067   5.092   1.946
 3376TIP3    H110092   3.054   5.174   1.994
 3376TIP3    H210093   3.020   5.104   1.864
 3377TIP3   OH210094   2.138   2.735   4.779
 3377TIP3    H110095   2.140   2.716   4.873
 3377TIP3    H210096   2.193   2.812   4.769
 3378TIP3   OH210097   1.148   1.281   5.308
 3378TIP3    H110098   1.150   1.286   5.403
 3378TIP3    H210099   1.056   1.292   5.285
 3379TIP3   OH210100   4.307   6.260   3.336
 3379TIP3    H110101   4.274   6.342   3.299
 3379TIP3    H210102   4.258   6.191   3.290
 3380TIP3   OH210103   5.633   0.624   5.085
 3380TIP3    H110104   5.639   0.684   5.011
 3380TIP3    H210105   5.625   0.538   5.045
 3381TIP3   OH210106   1.426   1.365   1.254
 3381TIP3    H110107   1.437   1.454   1.288
 3381TIP3    H210108   1.498   1.315   1.293
 3382TIP3   OH210109   5.911   5.718   0.653
 3382TIP3    H110110   5.989   5.738   0.704
 3382TIP3    H210111   5.871   5.803   0.636
 3383TIP3   OH210112   3.831   5.126   3.191
 3383TIP3    H110113   3.920   5.099   3.170
 3383TIP3    H210114   3.837   5.220   3.205
 3384TIP3   OH210115   5.571   2.404   5.516
 3384TIP3    H110116   5.513   2.361   5.579
 3384TIP3    H210117   5.520   2.477   5.482
 3385TIP3   OH210118   1.017   3.366   1.095
 3385TIP3    H110119   0.981   3.291   1.143
 3385TIP3    H210120   1.086   3.400   1.152
 3386TIP3   OH210121   1.028   5.835   0.190
 3386TIP3    H110122   1.015   5.782   0.112
 3386TIP3    H210123   0.987   5.919   0.169
 3387TIP3   OH210124   0.342   4.881   5.856
 3387TIP3    H110125   0.352   4.873   5.761
 3387TIP3    H210126   0.342   4.975   5.873
 3388TIP3   OH210127   0.987   5.275   1.082
 3388TIP3    H110128   0.984   5.192   1.129
 3388TIP3    H210129   0.896   5.304   1.078
 3389TIP3   OH210130   1.156   5.148   0.856
 3389TIP3    H110131   1.147   5.156   0.951
 3389TIP3    H210132   1.148   5.238   0.824
 3390TIP3   OH210133   0.754   0.147   2.769
 3390TIP3    H110134   0.731   0.125   2.859
 3390TIP3    H210135   0.675   0.189   2.734
 3391TIP3   OH210136   3.225   4.965   5.180
 3391TIP3    H110137   3.151   4.973   5.119
 3391TIP3    H210138   3.301   4.951   5.124
 3392TIP3   OH210139   7.082   6.238   3.818
 3392TIP3    H110140   7.090   6.228   3.913
 3392TIP3    H210141   7.170   6.224   3.785
 3393TIP3   OH210142   0.795   2.887   5.228
 3393TIP3    H110143   0.861   2.835   5.183
 3393TIP3    H210144   0.713   2.868   5.182
 3394TIP3   OH210145   1.715   4.388   1.057
 3394TIP3    H110146   1.620   4.389   1.044
 3394TIP3    H210147   1.745   4.471   1.019
 3395TIP3   OH210148   3.143   2.901   2.592
 3395TIP3    H110149   3.067   2.957   2.599
 3395TIP3    H210150   3.176   2.894   2.682
 3396TIP3   OH210151   0.848   4.848   1.222
 3396TIP3    H110152   0.850   4.764   1.175
 3396TIP3    H210153   0.816   4.825   1.310
 3397TIP3   OH210154   2.782   4.617   1.556
 3397TIP3    H110155   2.776   4.657   1.469
 3397TIP3    H210156   2.870   4.639   1.586
 3398TIP3   OH210157   0.050   6.338   5.553
 3398TIP3    H110158   0.057   6.384   5.636
 3398TIP3    H210159   0.003   6.398   5.496
 3399TIP3   OH210160   2.782   3.689   0.882
 3399TIP3    H110161   2.858   3.632   0.888
 3399TIP3    H210162   2.797   3.758   0.947
 3400TIP3   OH210163   0.884   1.748   3.064
 3400TIP3    H110164   0.964   1.703   3.037
 3400TIP3    H210165   0.895   1.765   3.157
 3401TIP3   OH210166   2.088   3.034   3.310
 3401TIP3    H110167   2.067   2.972   3.239
 3401TIP3    H210168   2.049   2.995   3.388
 3402TIP3   OH210169   5.746   3.852   4.114
 3402TIP3    H110170   5.663   3.858   4.163
 3402TIP3    H210171   5.767   3.943   4.094
 3403TIP3   OH210172   0.824   1.618   3.851
 3403TIP3    H110173   0.734   1.640   3.875
 3403TIP3    H210174   0.878   1.657   3.920
 3404TIP3   OH210175   6.642   5.670   2.024
 3404TIP3    H110176   6.666   5.758   2.051
 3404TIP3    H210177   6.623   5.677   1.931
 3405TIP3   OH210178   6.211   0.151   2.506
 3405TIP3    H110179   6.197   0.120   2.417
 3405TIP3    H210180   6.136   0.209   2.523
 3406TIP3   OH210181   1.332   2.782   3.538
 3406TIP3    H110182   1.317   2.781   3.443
 3406TIP3    H210183   1.352   2.691   3.560
 3407TIP3   OH210184   4.412   5.807   2.475
 3407TIP3    H110185   4.335   5.750   2.472
 3407TIP3    H210186   4.377   5.894   2.492
 3408TIP3   OH210187   5.886   3.642   1.165
 3408TIP3    H110188   5.900   3.623   1.258
 3408TIP3    H210189   5.907   3.560   1.121
 3409TIP3   OH210190   3.843   6.356   2.029
 3409TIP3    H110191   3.817   6.271   2.064
 3409TIP3    H210192   3.904   6.391   2.093
 3410TIP3   OH210193   7.115   0.941   2.377
 3410TIP3    H110194   7.123   1.036   2.383
 3410TIP3    H210195   7.040   0.920   2.433
 3411TIP3   OH210196   5.647   5.796   3.257
 3411TIP3    H110197   5.556   5.789   3.229
 3411TIP3    H210198   5.661   5.891   3.267
 3412TIP3   OH210199   0.658   2.873   1.446
 3412TIP3    H110200   0.723   2.879   1.376
 3412TIP3    H210201   0.637   2.965   1.466
 3413TIP3   OH210202   2.643   0.132   0.594
 3413TIP3    H110203   2.614   0.186   0.667
 3413TIP3    H210204   2.738   0.132   0.600
 3414TIP3   OH210205   2.626   0.314   4.280
 3414TIP3    H110206   2.649   0.223   4.294
 3414TIP3    H210207   2.585   0.316   4.194
 3415TIP3   OH210208   0.538   1.576   3.549
 3415TIP3    H110209   0.573   1.503   3.498
 3415TIP3    H210210   0.462   1.541   3.594
 3416TIP3   OH210211   1.152   5.219   5.416
 3416TIP3    H110212   1.070   5.235   5.369
 3416TIP3    H210213   1.157   5.123   5.423
 3417TIP3   OH210214   3.891   2.411   4.352
 3417TIP3    H110215   3.909   2.460   4.433
 3417TIP3    H210216   3.903   2.320   4.376
 3418TIP3   OH210217   4.146   0.263   5.456
 3418TIP3    H110218   4.102   0.185   5.488
 3418TIP3    H210219   4.082   0.305   5.399
 3419TIP3   OH210220   5.326   2.334   2.876
 3419TIP3    H110221   5.250   2.309   2.824
 3419TIP3    H210222   5.349   2.255   2.925
 3420TIP3   OH210223   6.348   1.714   1.658
 3420TIP3    H110224   6.253   1.705   1.654
 3420TIP3    H210225   6.364   1.809   1.656
 3421TIP3   OH210226   0.940   6.803   3.627
 3421TIP3    H110227   0.895   6.855   3.693
 3421TIP3    H210228   0.946   6.715   3.666
 3422TIP3   OH210229   3.851   4.128   2.436
 3422TIP3    H110230   3.757   4.137   2.420
 3422TIP3    H210231   3.858   4.110   2.530
 3423TIP3   OH210232   7.118   5.917   0.834
 3423TIP3    H110233   7.130   5.859   0.910
 3423TIP3    H210234   7.030   5.896   0.802
 3424TIP3   OH210235   3.996   3.342   5.347
 3424TIP3    H110236   4.045   3.420   5.373
 3424TIP3    H210237   4.057   3.293   5.292
 3425TIP3   OH210238   4.480   5.130   0.417
 3425TIP3    H110239   4.495   5.130   0.323
 3425TIP3    H210240   4.386   5.141   0.428
 3426TIP3   OH210241   3.116   6.062   0.280
 3426TIP3    H110242   3.043   6.010   0.247
 3426TIP3    H210243   3.076   6.142   0.314
 3427TIP3   OH210244   5.285   6.104   4.129
 3427TIP3    H110245   5.357   6.139   4.077
 3427TIP3    H210246   5.273   6.015   4.096
 3428TIP3   OH210247   0.841   4.276   0.323
 3428TIP3    H110248   0.751   4.268   0.291
 3428TIP3    H210249   0.891   4.215   0.269
 3429TIP3   OH210250   1.515   3.365   0.674
 3429TIP3    H110251   1.504   3.419   0.752
 3429TIP3    H210252   1.463   3.286   0.692
 3430TIP3   OH210253   1.843   6.120   0.836
 3430TIP3    H110254   1.794   6.203   0.839
 3430TIP3    H210255   1.806   6.074   0.761
 3431TIP3   OH210256   2.746   4.073   0.082
 3431TIP3    H110257   2.796   3.996   0.057
 3431TIP3    H210258   2.812   4.135   0.115
 3432TIP3   OH210259   4.709   1.872   1.018
 3432TIP3    H110260   4.630   1.870   1.072
 3432TIP3    H210261   4.708   1.789   0.972
 3433TIP3   OH210262   3.189   1.564   3.360
 3433TIP3    H110263   3.259   1.586   3.299
 3433TIP3    H210264   3.171   1.471   3.344
 3434TIP3   OH210265   2.880   1.654   5.035
 3434TIP3    H110266   2.809   1.592   5.049
 3434TIP3    H210267   2.836   1.738   5.020
 3435TIP3   OH210268   4.005   1.379   1.372
 3435TIP3    H110269   4.053   1.361   1.453
 3435TIP3    H210270   4.041   1.462   1.341
 3436TIP3   OH210271   3.119   0.227   5.450
 3436TIP3    H110272   3.095   0.215   5.359
 3436TIP3    H210273   3.040   0.205   5.499
 3437TIP3   OH210274   5.889   5.564   0.422
 3437TIP3    H110275   5.796   5.566   0.399
 3437TIP3    H210276   5.896   5.621   0.498
 3438TIP3   OH210277   2.284   5.139   3.577
 3438TIP3    H110278   2.325   5.205   3.633
 3438TIP3    H210279   2.256   5.188   3.500
 3439TIP3   OH210280   1.227   1.671   2.082
 3439TIP3    H110281   1.207   1.659   1.989
 3439TIP3    H210282   1.257   1.586   2.112
 3440TIP3   OH210283   3.345   2.267   4.824
 3440TIP3    H110284   3.288   2.338   4.793
 3440TIP3    H210285   3.433   2.305   4.823
 3441TIP3   OH210286   6.095   2.820  -0.003
 3441TIP3    H110287   6.145   2.764   0.056
 3441TIP3    H210288   6.160   2.877  -0.043
 3442TIP3   OH210289   5.016   6.442   5.400
 3442TIP3    H110290   5.076   6.437   5.474
 3442TIP3    H210291   4.980   6.353   5.392
 3443TIP3   OH210292   7.193   4.962   5.802
 3443TIP3    H110293   7.119   4.993   5.750
 3443TIP3    H210294   7.176   4.994   5.890
 3444TIP3   OH210295   6.962   1.291   0.854
 3444TIP3    H110296   7.028   1.347   0.812
 3444TIP3    H210297   6.878   1.327   0.826
 3445TIP3   OH210298   1.855   6.141   2.300
 3445TIP3    H110299   1.919   6.124   2.231
 3445TIP3    H210300   1.785   6.190   2.257
 3446TIP3   OH210301   2.995   0.177   1.274
 3446TIP3    H110302   3.019   0.250   1.216
 3446TIP3    H210303   2.902   0.192   1.294
 3447TIP3   OH210304   0.640   0.376   4.374
 3447TIP3    H110305   0.567   0.378   4.312
 3447TIP3    H210306   0.670   0.467   4.378
 3448TIP3   OH210307   2.148   3.958   3.717
 3448TIP3    H110308   2.178   3.880   3.669
 3448TIP3    H210309   2.093   4.005   3.654
 3449TIP3   OH210310   5.966   0.387   4.439
 3449TIP3    H110311   6.005   0.424   4.518
 3449TIP3    H210312   5.906   0.455   4.408
 3450TIP3   OH210313   6.696   0.590   5.846
 3450TIP3    H110314   6.734   0.656   5.904
 3450TIP3    H210315   6.604   0.583   5.874
 3451TIP3   OH210316   4.978   0.727   0.282
 3451TIP3    H110317   5.012   0.674   0.354
 3451TIP3    H210318   4.888   0.748   0.307
 3452TIP3   OH210319   0.910   4.557   2.763
 3452TIP3    H110320   0.861   4.582   2.842
 3452TIP3    H210321   0.844   4.522   2.704
 3453TIP3   OH210322   5.424   1.759   3.064
 3453TIP3    H110323   5.349   1.741   3.007
 3453TIP3    H210324   5.394   1.733   3.152
 3454TIP3   OH210325   2.924   3.842   4.510
 3454TIP3    H110326   3.005   3.873   4.551
 3454TIP3    H210327   2.924   3.882   4.423
 3455TIP3   OH210328   0.361   6.333   0.448
 3455TIP3    H110329   0.291   6.332   0.513
 3455TIP3    H210330   0.347   6.414   0.399
 3456TIP3   OH210331   4.718   2.508   5.797
 3456TIP3    H110332   4.707   2.426   5.748
 3456TIP3    H210333   4.629   2.539   5.812
 3457TIP3   OH210334   2.560   3.959   1.796
 3457TIP3    H110335   2.634   3.989   1.743
 3457TIP3    H210336   2.483   3.994   1.752
 3458TIP3   OH210337   3.860   2.797   5.113
 3458TIP3    H110338   3.792   2.730   5.121
 3458TIP3    H210339   3.937   2.750   5.083
 3459TIP3   OH210340   2.548   1.782   1.636
 3459TIP3    H110341   2.597   1.709   1.600
 3459TIP3    H210342   2.547   1.766   1.731
 3460TIP3   OH210343   0.355   4.659   5.602
 3460TIP3    H110344   0.385   4.749   5.593
 3460TIP3    H210345   0.259   4.664   5.597
 3461TIP3   OH210346   5.574   2.598   2.702
 3461TIP3    H110347   5.529   2.669   2.655
 3461TIP3    H210348   5.546   2.518   2.657
 3462TIP3   OH210349   4.810   0.550   4.941
 3462TIP3    H110350   4.761   0.485   4.891
 3462TIP3    H210351   4.874   0.499   4.990
 3463TIP3   OH210352   4.749   1.966   0.566
 3463TIP3    H110353   4.800   1.978   0.645
 3463TIP3    H210354   4.808   1.989   0.494
 3464TIP3   OH210355   1.761   4.818   4.277
 3464TIP3    H110356   1.715   4.851   4.199
 3464TIP3    H210357   1.725   4.869   4.349
 3465TIP3   OH210358   2.118   1.752   0.771
 3465TIP3    H110359   2.176   1.706   0.710
 3465TIP3    H210360   2.042   1.776   0.717
 3466TIP3   OH210361   4.003   3.707   5.146
 3466TIP3    H110362   3.949   3.628   5.137
 3466TIP3    H210363   4.047   3.716   5.062
 3467TIP3   OH210364   1.393   5.438   0.690
 3467TIP3    H110365   1.436   5.434   0.605
 3467TIP3    H210366   1.379   5.346   0.714
 3468TIP3   OH210367   4.251   6.712   5.374
 3468TIP3    H110368   4.208   6.700   5.459
 3468TIP3    H210369   4.301   6.631   5.361
 3469TIP3   OH210370   5.293   3.526   1.204
 3469TIP3    H110371   5.380   3.556   1.230
 3469TIP3    H210372   5.304   3.432   1.190
 3470TIP3   OH210373   3.043   5.684   3.633
 3470TIP3    H110374   2.976   5.618   3.653
 3470TIP3    H210375   3.024   5.710   3.542
 3471TIP3   OH210376   1.526   4.910   5.571
 3471TIP3    H110377   1.492   4.824   5.595
 3471TIP3    H210378   1.551   4.902   5.480
 3472TIP3   OH210379   0.268   1.571   2.434
 3472TIP3    H110380   0.335   1.507   2.412
 3472TIP3    H210381   0.185   1.528   2.411
 3473TIP3   OH210382   6.547   4.656   2.167
 3473TIP3    H110383   6.533   4.750   2.180
 3473TIP3    H210384   6.587   4.649   2.080
 3474TIP3   OH210385   0.691   1.992   2.865
 3474TIP3    H110386   0.711   1.902   2.893
 3474TIP3    H210387   0.767   2.043   2.890
 3475TIP3   OH210388   0.544   2.667   4.350
 3475TIP3    H110389   0.524   2.754   4.316
 3475TIP3    H210390   0.533   2.676   4.445
 3476TIP3   OH210391   1.539   1.499   0.577
 3476TIP3    H110392   1.541   1.408   0.606
 3476TIP3    H210393   1.586   1.547   0.645
 3477TIP3   OH210394   4.406   0.365   1.560
 3477TIP3    H110395   4.392   0.374   1.655
 3477TIP3    H210396   4.355   0.288   1.535
 3478TIP3   OH210397   6.633   2.920   3.275
 3478TIP3    H110398   6.587   2.858   3.331
 3478TIP3    H210399   6.633   2.880   3.188
 3479TIP3   OH210400   3.978   3.887   2.360
 3479TIP3    H110401   3.928   3.966   2.382
 3479TIP3    H210402   3.923   3.814   2.389
 3480TIP3   OH210403   0.044   5.539   2.362
 3480TIP3    H110404   0.087   5.621   2.387
 3480TIP3    H210405  -0.007   5.515   2.440
 3481TIP3   OH210406   2.135   0.164   4.206
 3481TIP3    H110407   2.210   0.223   4.212
 3481TIP3    H210408   2.169   0.078   4.231
 3482TIP3   OH210409   2.755   3.991   1.292
 3482TIP3    H110410   2.817   3.943   1.237
 3482TIP3    H210411   2.808   4.025   1.364
 3483TIP3   OH210412   1.522   2.014   1.231
 3483TIP3    H110413   1.594   2.051   1.180
 3483TIP3    H210414   1.482   1.949   1.173
 3484TIP3   OH210415   0.280   5.691   1.657
 3484TIP3    H110416   0.309   5.761   1.715
 3484TIP3    H210417   0.361   5.657   1.618
 3485TIP3   OH210418   6.109   3.718   2.608
 3485TIP3    H110419   6.125   3.649   2.672
 3485TIP3    H210420   6.164   3.791   2.638
 3486TIP3   OH210421   2.026   4.215   0.274
 3486TIP3    H110422   2.073   4.133   0.291
 3486TIP3    H210423   2.072   4.280   0.328
 3487TIP3   OH210424   3.752   2.164   3.823
 3487TIP3    H110425   3.826   2.143   3.766
 3487TIP3    H210426   3.790   2.167   3.911
 3488TIP3   OH210427   5.630   2.409   3.255
 3488TIP3    H110428   5.663   2.459   3.180
 3488TIP3    H210429   5.692   2.428   3.325
 3489TIP3   OH210430   5.812   5.064   1.987
 3489TIP3    H110431   5.827   5.125   2.060
 3489TIP3    H210432   5.852   5.108   1.912
 3490TIP3   OH210433   3.243   2.448   1.897
 3490TIP3    H110434   3.223   2.369   1.846
 3490TIP3    H210435   3.331   2.473   1.868
 3491TIP3   OH210436   3.114   2.094   5.665
 3491TIP3    H110437   3.070   2.177   5.647
 3491TIP3    H210438   3.151   2.104   5.752
 3492TIP3   OH210439   1.920   1.666   5.707
 3492TIP3    H110440   1.976   1.589   5.703
 3492TIP3    H210441   1.971   1.736   5.665
 3493TIP3   OH210442   2.993   5.258   4.408
 3493TIP3    H110443   2.934   5.322   4.446
 3493TIP3    H210444   3.021   5.204   4.482
 3494TIP3   OH210445   3.727   2.929   0.089
 3494TIP3    H110446   3.701   3.019   0.070
 3494TIP3    H210447   3.823   2.931   0.087
 3495TIP3   OH210448   0.935   6.093   4.936
 3495TIP3    H110449   0.863   6.062   4.881
 3495TIP3    H210450   0.962   6.176   4.895
 3496TIP3   OH210451   6.657   1.332   5.899
 3496TIP3    H110452   6.678   1.298   5.811
 3496TIP3    H210453   6.574   1.289   5.922
 3497TIP3   OH210454   5.523   2.459   0.941
 3497TIP3    H110455   5.606   2.416   0.964
 3497TIP3    H210456   5.520   2.455   0.845
 3498TIP3   OH210457   6.732   4.832   2.902
 3498TIP3    H110458   6.672   4.907   2.912
 3498TIP3    H210459   6.675   4.756   2.900
 3499TIP3   OH210460   3.785   3.006   1.003
 3499TIP3    H110461   3.785   2.911   1.013
 3499TIP3    H210462   3.692   3.029   0.999
 3500TIP3   OH210463   6.011   0.969   5.353
 3500TIP3    H110464   6.103   0.948   5.369
 3500TIP3    H210465   5.999   0.954   5.260
 3501TIP3   OH210466   3.204   6.241   0.540
 3501TIP3    H110467   3.130   6.252   0.479
 3501TIP3    H210468   3.279   6.276   0.492
 3502TIP3   OH210469   0.355   0.271   4.502
 3502TIP3    H110470   0.417   0.239   4.436
 3502TIP3    H210471   0.294   0.326   4.453
 3503TIP3   OH210472   4.502   3.269   1.261
 3503TIP3    H110473   4.575   3.218   1.298
 3503TIP3    H210474   4.451   3.296   1.338
 3504TIP3   OH210475   1.942   0.761   3.838
 3504TIP3    H110476   1.917   0.696   3.903
 3504TIP3    H210477   1.884   0.745   3.764
 3505TIP3   OH210478   5.224   6.460   4.466
 3505TIP3    H110479   5.249   6.552   4.457
 3505TIP3    H210480   5.306   6.412   4.451
 3506TIP3   OH210481   2.333   6.170   2.271
 3506TIP3    H110482   2.384   6.240   2.312
 3506TIP3    H210483   2.303   6.207   2.188
 3507TIP3   OH210484   0.530   4.359   5.175
 3507TIP3    H110485   0.515   4.352   5.269
 3507TIP3    H210486   0.442   4.372   5.138
 3508TIP3   OH210487   6.257   5.907   4.120
 3508TIP3    H110488   6.232   5.947   4.036
 3508TIP3    H210489   6.246   5.813   4.105
 3509TIP3   OH210490   4.522   3.240   4.649
 3509TIP3    H110491   4.550   3.182   4.579
 3509TIP3    H210492   4.432   3.212   4.668
 3510TIP3   OH210493   3.468   3.216   3.063
 3510TIP3    H110494   3.512   3.195   2.981
 3510TIP3    H210495   3.426   3.300   3.047
 3511TIP3   OH210496   6.237   5.386   2.795
 3511TIP3    H110497   6.311   5.350   2.746
 3511TIP3    H210498   6.264   5.475   2.818
 3512TIP3   OH210499   6.833   5.276   0.631
 3512TIP3    H110500   6.836   5.334   0.555
 3512TIP3    H210501   6.922   5.242   0.639
 3513TIP3   OH210502   4.305   2.281   3.816
 3513TIP3    H110503   4.279   2.373   3.814
 3513TIP3    H210504   4.223   2.232   3.811
 3514TIP3   OH210505   2.988   2.722   3.147
 3514TIP3    H110506   2.894   2.730   3.157
 3514TIP3    H210507   3.023   2.731   3.236
 3515TIP3   OH210508   0.797   6.472   1.088
 3515TIP3    H110509   0.750   6.546   1.126
 3515TIP3    H210510   0.886   6.479   1.125
 3516TIP3   OH210511   6.544   3.210   2.868
 3516TIP3    H110512   6.514   3.287   2.820
 3516TIP3    H210513   6.555   3.242   2.958
 3517TIP3   OH210514   3.894   0.857   5.025
 3517TIP3    H110515   3.931   0.863   5.113
 3517TIP3    H210516   3.862   0.767   5.018
 3518TIP3   OH210517   3.371   3.742   5.505
 3518TIP3    H110518   3.397   3.785   5.424
 3518TIP3    H210519   3.401   3.802   5.574
 3519TIP3   OH210520   6.089   6.251   1.185
 3519TIP3    H110521   6.167   6.267   1.239
 3519TIP3    H210522   6.016   6.263   1.245
 3520TIP3   OH210523   2.811   6.479   1.469
 3520TIP3    H110524   2.785   6.565   1.503
 3520TIP3    H210525   2.739   6.421   1.493
 3521TIP3   OH210526   3.504   6.715   2.411
 3521TIP3    H110527   3.585   6.667   2.426
 3521TIP3    H210528   3.455   6.660   2.349
 3522TIP3   OH210529   6.702   2.966   2.838
 3522TIP3    H110530   6.651   3.046   2.827
 3522TIP3    H210531   6.788   2.996   2.867
 3523TIP3   OH210532   2.252   6.770   1.155
 3523TIP3    H110533   2.344   6.744   1.143
 3523TIP3    H210534   2.202   6.693   1.130
 3524TIP3   OH210535   6.525   5.038   4.508
 3524TIP3    H110536   6.457   5.055   4.443
 3524TIP3    H210537   6.607   5.051   4.460
 3525TIP3   OH210538   3.552   3.699   4.532
 3525TIP3    H110539   3.633   3.674   4.577
 3525TIP3    H210540   3.550   3.645   4.454
 3526TIP3   OH210541   4.444   1.756   5.250
 3526TIP3    H110542   4.486   1.689   5.304
 3526TIP3    H210543   4.480   1.741   5.162
 3527TIP3   OH210544   5.784   2.492   4.398
 3527TIP3    H110545   5.717   2.485   4.466
 3527TIP3    H210546   5.773   2.581   4.363
 3528TIP3   OH210547   3.200   1.231   2.554
 3528TIP3    H110548   3.293   1.217   2.536
 3528TIP3    H210549   3.179   1.164   2.619
 3529TIP3   OH210550   5.500   0.897   5.401
 3529TIP3    H110551   5.441   0.891   5.327
 3529TIP3    H210552   5.526   0.807   5.420
 3530TIP3   OH210553   7.193   2.542   2.914
 3530TIP3    H110554   7.129   2.599   2.873
 3530TIP3    H210555   7.219   2.588   2.994
 3531TIP3   OH210556   2.798   5.100   4.051
 3531TIP3    H110557   2.881   5.103   4.099
 3531TIP3    H210558   2.766   5.190   4.054
 3532TIP3   OH210559   2.283   0.311   0.955
 3532TIP3    H110560   2.262   0.402   0.935
 3532TIP3    H210561   2.296   0.310   1.050
 3533TIP3   OH210562   3.321   3.746   4.649
 3533TIP3    H110563   3.276   3.675   4.603
 3533TIP3    H210564   3.410   3.745   4.612
 3534TIP3   OH210565   5.357   2.948   0.744
 3534TIP3    H110566   5.396   2.875   0.793
 3534TIP3    H210567   5.314   2.907   0.669
 3535TIP3   OH210568   2.506   2.515   2.198
 3535TIP3    H110569   2.436   2.519   2.133
 3535TIP3    H210570   2.527   2.606   2.217
 3536TIP3   OH210571   6.648   4.387   4.562
 3536TIP3    H110572   6.710   4.356   4.627
 3536TIP3    H210573   6.696   4.382   4.479
 3537TIP3   OH210574   5.533   0.494   1.001
 3537TIP3    H110575   5.590   0.452   1.066
 3537TIP3    H210576   5.546   0.588   1.015
 3538TIP3   OH210577   1.828   0.329   0.418
 3538TIP3    H110578   1.898   0.371   0.468
 3538TIP3    H210579   1.863   0.241   0.398
 3539TIP3   OH210580   6.542   6.397   2.252
 3539TIP3    H110581   6.494   6.457   2.194
 3539TIP3    H210582   6.477   6.369   2.316
 3540TIP3   OH210583   0.454   5.412   4.511
 3540TIP3    H110584   0.466   5.418   4.606
 3540TIP3    H210585   0.516   5.475   4.475
 3541TIP3   OH210586   6.483   1.635   1.034
 3541TIP3    H110587   6.447   1.645   1.122
 3541TIP3    H210588   6.576   1.615   1.048
 3542TIP3   OH210589   0.953   5.733   3.934
 3542TIP3    H110590   0.936   5.826   3.917
 3542TIP3    H210591   0.997   5.702   3.856
 3543TIP3   OH210592   3.524   3.791   1.910
 3543TIP3    H110593   3.509   3.823   1.999
 3543TIP3    H210594   3.617   3.771   1.907
 3544TIP3   OH210595   2.327   5.903   0.803
 3544TIP3    H110596   2.416   5.868   0.791
 3544TIP3    H210597   2.278   5.868   0.729
 3545TIP3   OH210598   1.864   0.675   1.589
 3545TIP3    H110599   1.928   0.637   1.529
 3545TIP3    H210600   1.889   0.768   1.596
 3546TIP3   OH210601   7.045   2.213   5.144
 3546TIP3    H110602   7.017   2.251   5.227
 3546TIP3    H210603   7.128   2.255   5.125
 3547TIP3   OH210604   1.306   5.829   1.992
 3547TIP3    H110605   1.356   5.748   1.989
 3547TIP3    H210606   1.360   5.892   1.944
 3548TIP3   OH210607   5.016   0.080   0.569
 3548TIP3    H110608   4.928   0.095   0.605
 3548TIP3    H210609   5.033  -0.013   0.585
 3549TIP3   OH210610   1.444   2.808   2.311
 3549TIP3    H110611   1.527   2.787   2.355
 3549TIP3    H210612   1.456   2.898   2.280
 3550TIP3   OH210613   4.370   0.186   2.384
 3550TIP3    H110614   4.307   0.230   2.440
 3550TIP3    H210615   4.320   0.163   2.305
 3551TIP3   OH210616   0.436   6.121   4.735
 3551TIP3    H110617   0.344   6.147   4.744
 3551TIP3    H210618   0.465   6.166   4.656
 3552TIP3   OH210619   4.049   5.398   2.584
 3552TIP3    H110620   4.076   5.386   2.675
 3552TIP3    H210621   3.971   5.453   2.590
 3553TIP3   OH210622   5.626   2.143   4.771
 3553TIP3    H110623   5.719   2.125   4.755
 3553TIP3    H210624   5.581   2.065   4.738
 3554TIP3   OH210625   7.106   1.805   3.467
 3554TIP3    H110626   7.144   1.722   3.497
 3554TIP3    H210627   7.099   1.858   3.547
 3555TIP3   OH210628   5.247   6.025   2.215
 3555TIP3    H110629   5.159   5.989   2.204
 3555TIP3    H210630   5.236   6.119   2.205
 3556TIP3   OH210631   4.594   1.413   1.527
 3556TIP3    H110632   4.670   1.459   1.491
 3556TIP3    H210633   4.527   1.420   1.458
 3557TIP3   OH210634   2.707   2.786   1.425
 3557TIP3    H110635   2.746   2.704   1.455
 3557TIP3    H210636   2.649   2.760   1.354
 3558TIP3   OH210637   5.048   4.884   3.658
 3558TIP3    H110638   5.135   4.844   3.660
 3558TIP3    H210639   5.044   4.938   3.737
 3559TIP3   OH210640   6.529   5.189   1.578
 3559TIP3    H110641   6.619   5.160   1.594
 3559TIP3    H210642   6.533   5.231   1.492
 3560TIP3   OH210643   7.098   0.265   2.055
 3560TIP3    H110644   7.127   0.178   2.029
 3560TIP3    H210645   7.016   0.278   2.009
 3561TIP3   OH210646   0.740   3.814   1.060
 3561TIP3    H110647   0.770   3.723   1.064
 3561TIP3    H210648   0.775   3.846   0.976
 3562TIP3   OH210649   7.109   4.461   1.068
 3562TIP3    H110650   7.056   4.495   0.996
 3562TIP3    H210651   7.148   4.539   1.108
 3563TIP3   OH210652   7.133   2.618   1.171
 3563TIP3    H110653   7.222   2.651   1.157
 3563TIP3    H210654   7.138   2.572   1.255
 3564TIP3   OH210655   5.796   1.005   0.842
 3564TIP3    H110656   5.799   1.005   0.937
 3564TIP3    H210657   5.745   0.927   0.819
 3565TIP3   OH210658   1.355   0.514   4.148
 3565TIP3    H110659   1.292   0.502   4.219
 3565TIP3    H210660   1.301   0.538   4.073
 3566TIP3   OH210661   4.909   3.666   3.640
 3566TIP3    H110662   4.833   3.670   3.581
 3566TIP3    H210663   4.979   3.631   3.585
 3567TIP3   OH210664   1.573   3.632   0.235
 3567TIP3    H110665   1.556   3.716   0.277
 3567TIP3    H210666   1.532   3.568   0.292
 3568TIP3   OH210667   3.553   2.697   0.778
 3568TIP3    H110668   3.629   2.715   0.723
 3568TIP3    H210669   3.478   2.705   0.720
 3569TIP3   OH210670   2.255   1.091   1.178
 3569TIP3    H110671   2.296   1.153   1.238
 3569TIP3    H210672   2.261   1.133   1.092
 3570TIP3   OH210673   1.753   2.518   2.911
 3570TIP3    H110674   1.711   2.458   2.972
 3570TIP3    H210675   1.847   2.505   2.925
 3571TIP3   OH210676   3.368   0.445   1.246
 3571TIP3    H110677   3.349   0.501   1.171
 3571TIP3    H210678   3.301   0.467   1.310
 3572TIP3   OH210679   2.586   0.587   0.713
 3572TIP3    H110680   2.656   0.522   0.712
 3572TIP3    H210681   2.625   0.665   0.673
 3573TIP3   OH210682   3.363   6.529   2.232
 3573TIP3    H110683   3.334   6.476   2.158
 3573TIP3    H210684   3.459   6.520   2.232
 3574TIP3   OH210685   5.019   5.029   3.148
 3574TIP3    H110686   4.951   4.990   3.204
 3574TIP3    H210687   5.048   4.957   3.091
 3575TIP3   OH210688   0.529   3.396   5.729
 3575TIP3    H110689   0.484   3.480   5.745
 3575TIP3    H210690   0.475   3.332   5.776
 3576TIP3   OH210691   0.543   5.759   3.256
 3576TIP3    H110692   0.563   5.830   3.195
 3576TIP3    H210693   0.472   5.794   3.310
 3577TIP3   OH210694   6.974   0.918   3.764
 3577TIP3    H110695   6.924   0.880   3.692
 3577TIP3    H210696   7.049   0.859   3.775
 3578TIP3   OH210697   3.839   6.292   3.392
 3578TIP3    H110698   3.766   6.285   3.330
 3578TIP3    H210699   3.799   6.283   3.478
 3579TIP3   OH210700   5.406   2.976   1.796
 3579TIP3    H110701   5.419   3.029   1.875
 3579TIP3    H210702   5.374   3.039   1.731
 3580TIP3   OH210703   1.181   4.782   1.079
 3580TIP3    H110704   1.141   4.837   1.146
 3580TIP3    H210705   1.131   4.799   1.000
 3581TIP3   OH210706   3.889   5.509   5.667
 3581TIP3    H110707   3.963   5.477   5.615
 3581TIP3    H210708   3.906   5.476   5.756
 3582TIP3   OH210709   7.077   5.882   2.318
 3582TIP3    H110710   7.016   5.820   2.277
 3582TIP3    H210711   7.066   5.869   2.412
 3583TIP3   OH210712   7.040   1.066   1.506
 3583TIP3    H110713   6.977   1.136   1.528
 3583TIP3    H210714   7.000   1.020   1.432
 3584TIP3   OH210715   6.190   3.060   5.547
 3584TIP3    H110716   6.128   3.121   5.588
 3584TIP3    H210717   6.144   2.975   5.548
 3585TIP3   OH210718   6.607   2.622   4.934
 3585TIP3    H110719   6.583   2.679   5.007
 3585TIP3    H210720   6.683   2.573   4.967
 3586TIP3   OH210721   5.934   2.007   3.345
 3586TIP3    H110722   5.973   2.037   3.262
 3586TIP3    H210723   5.996   1.943   3.378
 3587TIP3   OH210724   1.780   2.383   0.202
 3587TIP3    H110725   1.685   2.376   0.212
 3587TIP3    H210726   1.804   2.456   0.259
 3588TIP3   OH210727   3.835   4.556   3.642
 3588TIP3    H110728   3.872   4.605   3.568
 3588TIP3    H210729   3.743   4.542   3.618
 3589TIP3   OH210730   1.863   0.109   1.439
 3589TIP3    H110731   1.789   0.059   1.472
 3589TIP3    H210732   1.902   0.053   1.371
 3590TIP3   OH210733   3.520   3.402   4.868
 3590TIP3    H110734   3.566   3.436   4.791
 3590TIP3    H210735   3.474   3.478   4.903
 3591TIP3   OH210736   0.230   2.307   0.221
 3591TIP3    H110737   0.242   2.223   0.266
 3591TIP3    H210738   0.318   2.345   0.217
 3592TIP3   OH210739   0.820   1.762   1.970
 3592TIP3    H110740   0.859   1.830   2.025
 3592TIP3    H210741   0.855   1.780   1.882
 3593TIP3   OH210742   2.024   2.763   2.286
 3593TIP3    H110743   2.108   2.798   2.256
 3593TIP3    H210744   2.023   2.779   2.380
 3594TIP3   OH210745   0.889   0.055   0.209
 3594TIP3    H110746   0.810   0.103   0.185
 3594TIP3    H210747   0.941   0.054   0.128
 3595TIP3   OH210748   6.999   2.401   3.942
 3595TIP3    H110749   7.010   2.495   3.953
 3595TIP3    H210750   6.906   2.386   3.961
 3596TIP3   OH210751   3.081   2.668   1.686
 3596TIP3    H110752   3.109   2.741   1.630
 3596TIP3    H210753   3.123   2.591   1.647
 3597TIP3   OH210754   2.061   0.226   2.435
 3597TIP3    H110755   1.995   0.207   2.501
 3597TIP3    H210756   2.128   0.275   2.482
 3598TIP3   OH210757   3.760   1.702   2.571
 3598TIP3    H110758   3.767   1.640   2.644
 3598TIP3    H210759   3.686   1.670   2.519
 3599TIP3   OH210760   3.016   0.390   0.825
 3599TIP3    H110761   2.941   0.425   0.872
 3599TIP3    H210762   3.060   0.467   0.789
 3600TIP3   OH210763   2.016   2.900   0.881
 3600TIP3    H110764   2.022   2.861   0.968
 3600TIP3    H210765   2.074   2.977   0.885
 3601TIP3   OH210766   1.054   2.424   4.705
 3601TIP3    H110767   1.148   2.425   4.688
 3601TIP3    H210768   1.030   2.517   4.709
 3602TIP3   OH210769   1.441   4.388   1.051
 3602TIP3    H110770   1.377   4.432   1.106
 3602TIP3    H210771   1.416   4.412   0.961
 3603TIP3   OH210772   5.612   6.670   4.655
 3603TIP3    H110773   5.576   6.634   4.736
 3603TIP3    H210774   5.636   6.759   4.677
 3604TIP3   OH210775   0.570   4.962   4.259
 3604TIP3    H110776   0.580   5.037   4.317
 3604TIP3    H210777   0.516   4.900   4.309
 3605TIP3   OH210778   1.695   6.768   5.561
 3605TIP3    H110779   1.617   6.731   5.520
 3605TIP3    H210780   1.667   6.791   5.650
 3606TIP3   OH210781   0.641   3.224   0.239
 3606TIP3    H110782   0.567   3.284   0.242
 3606TIP3    H210783   0.702   3.259   0.304
 3607TIP3   OH210784   1.135   6.582   0.263
 3607TIP3    H110785   1.221   6.624   0.260
 3607TIP3    H210786   1.149   6.495   0.226
 3608TIP3   OH210787   0.531   6.711   4.199
 3608TIP3    H110788   0.442   6.722   4.168
 3608TIP3    H210789   0.579   6.784   4.162
 3609TIP3   OH210790   5.166   4.325   1.815
 3609TIP3    H110791   5.211   4.288   1.739
 3609TIP3    H210792   5.225   4.307   1.889
 3610TIP3   OH210793   2.099   3.146   4.372
 3610TIP3    H110794   2.135   3.121   4.457
 3610TIP3    H210795   2.173   3.141   4.312
 3611TIP3   OH210796   2.623   4.201   5.565
 3611TIP3    H110797   2.622   4.120   5.616
 3611TIP3    H210798   2.710   4.238   5.581
 3612TIP3   OH210799   5.724   2.858   3.860
 3612TIP3    H110800   5.639   2.838   3.821
 3612TIP3    H210801   5.734   2.793   3.930
 3613TIP3   OH210802   5.145   2.550   0.151
 3613TIP3    H110803   5.230   2.593   0.161
 3613TIP3    H210804   5.082   2.622   0.150
 3614TIP3   OH210805   2.169   4.074   1.903
 3614TIP3    H110806   2.218   4.031   1.833
 3614TIP3    H210807   2.234   4.088   1.973
 3615TIP3   OH210808   4.898   5.816   5.796
 3615TIP3    H110809   4.824   5.794   5.740
 3615TIP3    H210810   4.869   5.892   5.845
 3616TIP3   OH210811   1.738   0.476   0.897
 3616TIP3    H110812   1.799   0.508   0.831
 3616TIP3    H210813   1.786   0.408   0.944
 3617TIP3   OH210814   0.035   1.614   3.215
 3617TIP3    H110815   0.107   1.575   3.164
 3617TIP3    H210816   0.071   1.624   3.303
 3618TIP3   OH210817   2.036   4.341   4.975
 3618TIP3    H110818   2.075   4.343   5.063
 3618TIP3    H210819   1.954   4.294   4.987
 3619TIP3   OH210820   5.750   1.441   1.323
 3619TIP3    H110821   5.682   1.419   1.386
 3619TIP3    H210822   5.754   1.536   1.324
 3620TIP3   OH210823   4.354   1.094   1.334
 3620TIP3    H110824   4.359   1.118   1.426
 3620TIP3    H210825   4.361   0.998   1.334
 3621TIP3   OH210826   7.082   5.773   1.099
 3621TIP3    H110827   6.999   5.738   1.068
 3621TIP3    H210828   7.124   5.699   1.144
 3622TIP3   OH210829   5.896   6.202   2.443
 3622TIP3    H110830   5.838   6.134   2.410
 3622TIP3    H210831   5.926   6.248   2.364
 3623TIP3   OH210832   5.362   3.866   5.757
 3623TIP3    H110833   5.412   3.784   5.758
 3623TIP3    H210834   5.399   3.915   5.683
 3624TIP3   OH210835   1.789   1.085   2.334
 3624TIP3    H110836   1.831   1.170   2.336
 3624TIP3    H210837   1.787   1.060   2.242
 3625TIP3   OH210838   3.994   1.097   5.370
 3625TIP3    H110839   4.082   1.126   5.394
 3625TIP3    H210840   3.996   1.002   5.383
 3626TIP3   OH210841   6.172   1.101   3.417
 3626TIP3    H110842   6.171   1.133   3.507
 3626TIP3    H210843   6.182   1.179   3.363
 3627TIP3   OH210844   1.980   2.842   2.613
 3627TIP3    H110845   1.905   2.846   2.672
 3627TIP3    H210846   2.051   2.806   2.667
 3628TIP3   OH210847   6.639   5.572   3.400
 3628TIP3    H110848   6.625   5.485   3.363
 3628TIP3    H210849   6.561   5.589   3.452
 3629TIP3   OH210850   5.715   3.932   2.474
 3629TIP3    H110851   5.787   3.972   2.521
 3629TIP3    H210852   5.644   3.996   2.477
 3630TIP3   OH210853   3.145   3.840   1.774
 3630TIP3    H110854   3.151   3.868   1.865
 3630TIP3    H210855   3.181   3.913   1.724
 3631TIP3   OH210856   6.201   6.760   2.563
 3631TIP3    H110857   6.155   6.778   2.645
 3631TIP3    H210858   6.151   6.807   2.496
 3632TIP3   OH210859   5.106   5.280   5.588
 3632TIP3    H110860   5.077   5.204   5.538
 3632TIP3    H210861   5.083   5.259   5.679
 3633TIP3   OH210862   1.664   5.685   5.239
 3633TIP3    H110863   1.592   5.663   5.180
 3633TIP3    H210864   1.624   5.738   5.307
 3634TIP3   OH210865   2.886   3.044   0.909
 3634TIP3    H110866   2.879   2.997   0.993
 3634TIP3    H210867   2.840   2.987   0.847
 3635TIP3   OH210868   6.613   1.159   4.379
 3635TIP3    H110869   6.632   1.238   4.431
 3635TIP3    H210870   6.639   1.183   4.290
 3636TIP3   OH210871   6.930   4.176   1.066
 3636TIP3    H110872   6.838   4.153   1.074
 3636TIP3    H210873   6.931   4.260   1.020
 3637TIP3   OH210874   5.874   5.858   2.591
 3637TIP3    H110875   5.783   5.862   2.561
 3637TIP3    H210876   5.926   5.853   2.511
 3638TIP3   OH210877   2.750   2.597   0.526
 3638TIP3    H110878   2.815   2.594   0.456
 3638TIP3    H210879   2.667   2.609   0.480
 3639TIP3   OH210880   5.999   1.381   4.631
 3639TIP3    H110881   5.954   1.309   4.675
 3639TIP3    H210882   6.083   1.389   4.676
 3640TIP3   OH210883   0.517   2.430   0.787
 3640TIP3    H110884   0.533   2.431   0.693
 3640TIP3    H210885   0.559   2.350   0.819
 3641TIP3   OH210886   5.143   0.092   3.443
 3641TIP3    H110887   5.109   0.153   3.508
 3641TIP3    H210888   5.227   0.063   3.478
 3642TIP3   OH210889   5.860   6.648   2.590
 3642TIP3    H110890   5.841   6.598   2.511
 3642TIP3    H210891   5.817   6.733   2.575
 3643TIP3   OH210892   5.820   4.164   0.123
 3643TIP3    H110893   5.894   4.131   0.175
 3643TIP3    H210894   5.761   4.203   0.188
 3644TIP3   OH210895   3.960   6.533   2.581
 3644TIP3    H110896   4.036   6.563   2.532
 3644TIP3    H210897   3.926   6.612   2.623
 3645TIP3   OH210898   0.325   6.332   5.633
 3645TIP3    H110899   0.233   6.329   5.605
 3645TIP3    H210900   0.343   6.425   5.645
 3646TIP3   OH210901   5.779   1.522   0.816
 3646TIP3    H110902   5.778   1.532   0.721
 3646TIP3    H210903   5.867   1.491   0.836
 3647TIP3   OH210904   5.585   4.605   0.375
 3647TIP3    H110905   5.544   4.521   0.396
 3647TIP3    H210906   5.639   4.587   0.299
 3648TIP3   OH210907   5.091   1.786   4.411
 3648TIP3    H110908   5.020   1.723   4.400
 3648TIP3    H210909   5.160   1.737   4.456
 3649TIP3   OH210910   6.066   4.240   1.776
 3649TIP3    H110911   6.031   4.327   1.755
 3649TIP3    H210912   6.051   4.231   1.870
 3650TIP3   OH210913   4.278   4.736   4.687
 3650TIP3    H110914   4.340   4.689   4.742
 3650TIP3    H210915   4.238   4.800   4.746
 3651TIP3   OH210916   6.694   5.340   3.295
 3651TIP3    H110917   6.780   5.310   3.325
 3651TIP3    H210918   6.669   5.277   3.227
 3652TIP3   OH210919   2.585   1.036   3.156
 3652TIP3    H110920   2.521   1.036   3.085
 3652TIP3    H210921   2.603   1.129   3.172
 3653TIP3   OH210922   6.541   4.280   0.795
 3653TIP3    H110923   6.487   4.206   0.767
 3653TIP3    H210924   6.560   4.262   0.887
 3654TIP3   OH210925   1.778   2.592   2.630
 3654TIP3    H110926   1.722   2.515   2.615
 3654TIP3    H210927   1.809   2.581   2.720
 3655TIP3   OH210928   6.809   5.355   3.697
 3655TIP3    H110929   6.818   5.423   3.630
 3655TIP3    H210930   6.819   5.402   3.780
 3656TIP3   OH210931   0.149   0.843   1.211
 3656TIP3    H110932   0.101   0.897   1.148
 3656TIP3    H210933   0.143   0.890   1.294
 3657TIP3   OH210934   2.920   5.597   1.935
 3657TIP3    H110935   2.972   5.615   2.013
 3657TIP3    H210936   2.838   5.560   1.969
 3658TIP3   OH210937   6.121   1.975   5.037
 3658TIP3    H110938   6.151   1.888   5.013
 3658TIP3    H210939   6.154   2.032   4.967
 3659TIP3   OH210940   5.913   3.995   4.964
 3659TIP3    H110941   5.934   3.947   4.884
 3659TIP3    H210942   5.821   4.018   4.955
 3660TIP3   OH210943   0.087   6.239   4.000
 3660TIP3    H110944   0.122   6.210   3.916
 3660TIP3    H210945   0.085   6.160   4.054
 3661TIP3   OH210946   3.520   5.393   4.447
 3661TIP3    H110947   3.486   5.462   4.503
 3661TIP3    H210948   3.613   5.412   4.439
 3662TIP3   OH210949   5.087   1.201   0.771
 3662TIP3    H110950   5.121   1.236   0.853
 3662TIP3    H210951   5.159   1.148   0.737
 3663TIP3   OH210952   6.980   1.859   0.789
 3663TIP3    H110953   7.037   1.787   0.764
 3663TIP3    H210954   7.023   1.898   0.865
 3664TIP3   OH210955   3.030   0.137   4.069
 3664TIP3    H110956   2.969   0.109   4.000
 3664TIP3    H210957   3.037   0.232   4.058
 3665TIP3   OH210958   6.001   1.992   1.863
 3665TIP3    H110959   6.051   2.014   1.941
 3665TIP3    H210960   5.950   2.071   1.844
 3666TIP3   OH210961   1.816   3.871   2.195
 3666TIP3    H110962   1.898   3.865   2.146
 3666TIP3    H210963   1.758   3.921   2.138
 3667TIP3   OH210964   6.837   5.775   3.711
 3667TIP3    H110965   6.852   5.700   3.654
 3667TIP3    H210966   6.828   5.849   3.650
 3668TIP3   OH210967   4.363   2.522   0.901
 3668TIP3    H110968   4.279   2.476   0.910
 3668TIP3    H210969   4.347   2.585   0.830
 3669TIP3   OH210970   4.773   2.299   0.964
 3669TIP3    H110971   4.833   2.293   1.039
 3669TIP3    H210972   4.809   2.368   0.909
 3670TIP3   OH210973   4.754   3.912   5.343
 3670TIP3    H110974   4.707   3.990   5.313
 3670TIP3    H210975   4.843   3.924   5.312
 3671TIP3   OH210976   4.936   1.687   2.733
 3671TIP3    H110977   4.874   1.703   2.662
 3671TIP3    H210978   5.014   1.654   2.689
 3672TIP3   OH210979   2.028   4.747   0.732
 3672TIP3    H110980   2.122   4.755   0.713
 3672TIP3    H210981   2.009   4.654   0.719
 3673TIP3   OH210982   2.151   1.486   5.669
 3673TIP3    H110983   2.197   1.430   5.607
 3673TIP3    H210984   2.220   1.528   5.720
 3674TIP3   OH210985   4.019   2.544   1.012
 3674TIP3    H110986   4.065   2.577   1.090
 3674TIP3    H210987   4.047   2.453   1.004
 3675TIP3   OH210988   5.202   1.352   4.659
 3675TIP3    H110989   5.155   1.402   4.592
 3675TIP3    H210990   5.293   1.352   4.628
 3676TIP3   OH210991   2.275   0.627   2.384
 3676TIP3    H110992   2.365   0.594   2.388
 3676TIP3    H210993   2.229   0.580   2.454
 3677TIP3   OH210994   1.783   5.895   0.071
 3677TIP3    H110995   1.812   5.986   0.065
 3677TIP3    H210996   1.837   5.848   0.007
 3678TIP3   OH210997   4.409   1.375   1.313
 3678TIP3    H110998   4.422   1.417   1.228
 3678TIP3    H210999   4.403   1.281   1.292
 3679TIP3   OH211000   0.636   2.079   5.472
 3679TIP3    H111001   0.571   2.049   5.536
 3679TIP3    H211002   0.584   2.107   5.397
 3680TIP3   OH211003   6.774   4.166   0.713
 3680TIP3    H111004   6.839   4.234   0.694
 3680TIP3    H211005   6.696   4.215   0.740
 3681TIP3   OH211006   2.420   6.133   5.104
 3681TIP3    H111007   2.434   6.117   5.197
 3681TIP3    H211008   2.447   6.052   5.061
 3682TIP3   OH211009   1.859   3.564   5.442
 3682TIP3    H111010   1.881   3.652   5.472
 3682TIP3    H211011   1.804   3.528   5.511
 3683TIP3   OH211012   0.103   1.114   2.141
 3683TIP3    H111013   0.085   1.032   2.095
 3683TIP3    H211014   0.199   1.119   2.144
 3684TIP3   OH211015   5.682   2.620   5.244
 3684TIP3    H111016   5.759   2.571   5.272
 3684TIP3    H211017   5.661   2.584   5.157
 3685TIP3   OH211018   3.119   2.133   3.922
 3685TIP3    H111019   3.048   2.130   3.858
 3685TIP3    H211020   3.126   2.044   3.955
 3686TIP3   OH211021   4.623   3.408   0.371
 3686TIP3    H111022   4.716   3.433   0.379
 3686TIP3    H211023   4.595   3.447   0.288
 3687TIP3   OH211024   1.177   4.124   2.525
 3687TIP3    H111025   1.120   4.199   2.543
 3687TIP3    H211026   1.141   4.053   2.578
 3688TIP3   OH211027   6.029   3.396   2.265
 3688TIP3    H111028   6.074   3.327   2.313
 3688TIP3    H211029   5.955   3.421   2.321
 3689TIP3   OH211030   4.857   4.899   4.406
 3689TIP3    H111031   4.830   4.991   4.403
 3689TIP3    H211032   4.777   4.850   4.390
 3690TIP3   OH211033   0.667   5.624   5.184
 3690TIP3    H111034   0.681   5.530   5.175
 3690TIP3    H211035   0.616   5.633   5.264
 3691TIP3   OH211036   1.681   3.988   1.960
 3691TIP3    H111037   1.594   3.955   1.985
 3691TIP3    H211038   1.662   4.067   1.909
 3692TIP3   OH211039   0.381   5.872   0.837
 3692TIP3    H111040   0.432   5.941   0.880
 3692TIP3    H211041   0.433   5.792   0.850
 3693TIP3   OH211042   2.491   1.681   2.967
 3693TIP3    H111043   2.490   1.635   2.884
 3693TIP3    H211044   2.583   1.682   2.993
 3694TIP3   OH211045   2.474   1.839   1.023
 3694TIP3    H111046   2.423   1.920   1.035
 3694TIP3    H211047   2.408   1.770   1.017
 3695TIP3   OH211048   6.875   1.787   2.196
 3695TIP3    H111049   6.892   1.704   2.241
 3695TIP3    H211050   6.789   1.814   2.226
 3696TIP3   OH211051   3.384   5.179   4.323
 3696TIP3    H111052   3.448   5.214   4.385
 3696TIP3    H211053   3.362   5.092   4.358
 3697TIP3   OH211054   5.401   6.465   2.113
 3697TIP3    H111055   5.461   6.513   2.170
 3697TIP3    H211056   5.398   6.377   2.150
 3698TIP3   OH211057   6.392   3.408   2.071
 3698TIP3    H111058   6.320   3.468   2.089
 3698TIP3    H211059   6.468   3.449   2.113
 3699TIP3   OH211060   5.272   1.403   5.284
 3699TIP3    H111061   5.217   1.474   5.253
 3699TIP3    H211062   5.240   1.385   5.372
 3700TIP3   OH211063   0.270   4.337   4.096
 3700TIP3    H111064   0.354   4.293   4.109
 3700TIP3    H211065   0.239   4.307   4.011
 3701TIP3   OH211066   2.099   5.062   1.466
 3701TIP3    H111067   2.056   5.117   1.532
 3701TIP3    H211068   2.189   5.055   1.496
 3702TIP3   OH211069   5.907   5.967   5.866
 3702TIP3    H111070   5.905   5.937   5.775
 3702TIP3    H211071   5.999   5.983   5.885
 3703TIP3   OH211072   2.916   4.580   2.529
 3703TIP3    H111073   2.934   4.586   2.623
 3703TIP3    H211074   2.982   4.519   2.496
 3704TIP3   OH211075   5.237   1.664   4.836
 3704TIP3    H111076   5.172   1.691   4.900
 3704TIP3    H211077   5.279   1.588   4.875
 3705TIP3   OH211078   6.194   1.161   1.818
 3705TIP3    H111079   6.166   1.231   1.759
 3705TIP3    H211080   6.280   1.189   1.849
 3706TIP3   OH211081   1.118   6.790  -0.003
 3706TIP3    H111082   1.106   6.716  -0.063
 3706TIP3    H211083   1.168   6.753   0.070
 3707TIP3   OH211084   0.535   1.279   4.634
 3707TIP3    H111085   0.485   1.220   4.577
 3707TIP3    H211086   0.627   1.258   4.615
 3708TIP3   OH211087   4.793   6.371   3.195
 3708TIP3    H111088   4.839   6.390   3.114
 3708TIP3    H211089   4.750   6.453   3.219
 3709TIP3   OH211090   6.385   4.074   1.442
 3709TIP3    H111091   6.418   4.082   1.532
 3709TIP3    H211092   6.457   4.106   1.388
 3710TIP3   OH211093   1.552   6.552   2.987
 3710TIP3    H111094   1.587   6.553   2.898
 3710TIP3    H211095   1.614   6.604   3.038
 3711TIP3   OH211096   0.929   2.432   2.073
 3711TIP3    H111097   0.879   2.502   2.030
 3711TIP3    H211098   1.013   2.431   2.027
 3712TIP3   OH211099   1.307   3.908   5.040
 3712TIP3    H111100   1.240   3.939   5.102
 3712TIP3    H211101   1.339   3.826   5.079
 3713TIP3   OH211102   5.141   0.951   2.313
 3713TIP3    H111103   5.065   0.900   2.284
 3713TIP3    H211104   5.125   1.039   2.279
 3714TIP3   OH211105   1.701   3.777   1.425
 3714TIP3    H111106   1.764   3.844   1.400
 3714TIP3    H211107   1.636   3.778   1.354
 3715TIP3   OH211108   1.880   2.983   4.423
 3715TIP3    H111109   1.943   3.019   4.360
 3715TIP3    H211110   1.925   2.906   4.460
 3716TIP3   OH211111   2.657   1.469   1.335
 3716TIP3    H111112   2.746   1.434   1.332
 3716TIP3    H211113   2.651   1.515   1.418
 3717TIP3   OH211114   0.698   3.530   4.305
 3717TIP3    H111115   0.775   3.548   4.252
 3717TIP3    H211116   0.628   3.580   4.264
 3718TIP3   OH211117   2.264   3.420   4.294
 3718TIP3    H111118   2.219   3.379   4.368
 3718TIP3    H211119   2.270   3.512   4.318
 3719TIP3   OH211120   2.730   5.238   5.179
 3719TIP3    H111121   2.776   5.238   5.095
 3719TIP3    H211122   2.794   5.205   5.242
 3720TIP3   OH211123   6.358   0.510   3.004
 3720TIP3    H111124   6.371   0.488   2.911
 3720TIP3    H211125   6.373   0.428   3.051
 3721TIP3   OH211126   2.692   0.543   4.424
 3721TIP3    H111127   2.625   0.611   4.425
 3721TIP3    H211128   2.652   0.470   4.378
 3722TIP3   OH211129   0.278   2.146   4.028
 3722TIP3    H111130   0.279   2.081   4.097
 3722TIP3    H211131   0.218   2.214   4.059
 3723TIP3   OH211132   6.341   1.686   2.843
 3723TIP3    H111133   6.408   1.649   2.786
 3723TIP3    H211134   6.335   1.624   2.916
 3724TIP3   OH211135   6.331   1.928   0.563
 3724TIP3    H111136   6.382   1.974   0.630
 3724TIP3    H211137   6.286   1.859   0.611
 3725TIP3   OH211138   3.645   3.259   0.370
 3725TIP3    H111139   3.607   3.202   0.303
 3725TIP3    H211140   3.604   3.344   0.355
 3726TIP3   OH211141   2.670   4.491   5.730
 3726TIP3    H111142   2.622   4.420   5.686
 3726TIP3    H211143   2.685   4.457   5.818
 3727TIP3   OH211144   6.283   0.726   4.632
 3727TIP3    H111145   6.350   0.694   4.692
 3727TIP3    H211146   6.331   0.776   4.566
 3728TIP3   OH211147   1.286   0.539   4.571
 3728TIP3    H111148   1.248   0.539   4.483
 3728TIP3    H211149   1.364   0.485   4.563
 3729TIP3   OH211150   6.431   2.441   5.380
 3729TIP3    H111151   6.476   2.376   5.434
 3729TIP3    H211152   6.498   2.471   5.318
 3730TIP3   OH211153   6.670   4.362   2.357
 3730TIP3    H111154   6.652   4.444   2.404
 3730TIP3    H211155   6.703   4.303   2.425
 3731TIP3   OH211156   6.893   5.070   5.816
 3731TIP3    H111157   6.833   5.052   5.888
 3731TIP3    H211158   6.880   4.997   5.755
 3732TIP3   OH211159   4.880   4.873   3.313
 3732TIP3    H111160   4.845   4.827   3.389
 3732TIP3    H211161   4.834   4.835   3.238
 3733TIP3   OH211162   1.142   1.660   1.541
 3733TIP3    H111163   1.144   1.697   1.453
 3733TIP3    H211164   1.203   1.586   1.538
 3734TIP3   OH211165   3.202   3.285   3.207
 3734TIP3    H111166   3.283   3.300   3.255
 3734TIP3    H211167   3.154   3.367   3.216
 3735TIP3   OH211168   2.719   4.750   5.919
 3735TIP3    H111169   2.667   4.695   5.860
 3735TIP3    H211170   2.759   4.688   5.980
 3736TIP3   OH211171   1.676   0.142   1.899
 3736TIP3    H111172   1.721   0.070   1.943
 3736TIP3    H211173   1.589   0.144   1.939
 3737TIP3   OH211174   6.445   4.662   3.541
 3737TIP3    H111175   6.351   4.645   3.541
 3737TIP3    H211176   6.459   4.720   3.466
 3738TIP3   OH211177   4.358   3.153   5.190
 3738TIP3    H111178   4.398   3.133   5.105
 3738TIP3    H211179   4.396   3.237   5.215
 3739TIP3   OH211180   5.748   3.376   3.677
 3739TIP3    H111181   5.659   3.343   3.681
 3739TIP3    H211182   5.795   3.312   3.624
 3740TIP3   OH211183   1.290   1.830   5.770
 3740TIP3    H111184   1.325   1.801   5.854
 3740TIP3    H211185   1.201   1.860   5.789
 3741TIP3   OH211186   1.475   4.662   5.658
 3741TIP3    H111187   1.492   4.592   5.595
 3741TIP3    H211188   1.380   4.662   5.670
 3742TIP3   OH211189   3.315   5.259   2.984
 3742TIP3    H111190   3.294   5.274   2.892
 3742TIP3    H211191   3.315   5.164   2.994
 3743TIP3   OH211192   6.052   0.519   2.068
 3743TIP3    H111193   5.986   0.542   2.003
 3743TIP3    H211194   6.063   0.424   2.057
 3744TIP3   OH211195   5.541   2.796   5.554
 3744TIP3    H111196   5.489   2.866   5.593
 3744TIP3    H211197   5.477   2.727   5.535
 3745TIP3   OH211198   1.991   0.950   0.281
 3745TIP3    H111199   2.016   0.860   0.262
 3745TIP3    H211200   2.074   0.995   0.299
 3746TIP3   OH211201   0.379   0.891   4.976
 3746TIP3    H111202   0.357   0.973   4.930
 3746TIP3    H211203   0.319   0.889   5.051
 3747TIP3   OH211204   4.379   2.864   2.197
 3747TIP3    H111205   4.330   2.856   2.279
 3747TIP3    H211206   4.430   2.944   2.207
 3748TIP3   OH211207   2.714   2.050   4.666
 3748TIP3    H111208   2.630   2.065   4.621
 3748TIP3    H211209   2.780   2.083   4.606
 3749TIP3   OH211210   2.777   1.788   1.404
 3749TIP3    H111211   2.803   1.732   1.330
 3749TIP3    H211212   2.832   1.758   1.476
 3750TIP3   OH211213   5.959   4.152   1.284
 3750TIP3    H111214   5.899   4.164   1.358
 3750TIP3    H211215   6.000   4.067   1.300
 3751TIP3   OH211216   3.801   3.583   3.675
 3751TIP3    H111217   3.775   3.642   3.604
 3751TIP3    H211218   3.893   3.605   3.692
 3752TIP3   OH211219   1.543   0.547   1.151
 3752TIP3    H111220   1.588   0.467   1.124
 3752TIP3    H211221   1.476   0.560   1.084
 3753TIP3   OH211222   2.027   2.681   5.412
 3753TIP3    H111223   1.953   2.736   5.385
 3753TIP3    H211224   1.993   2.633   5.489
 3754TIP3   OH211225   6.064   1.364   2.644
 3754TIP3    H111226   6.056   1.269   2.651
 3754TIP3    H211227   5.991   1.391   2.589
 3755TIP3   OH211228   7.012   3.807   3.724
 3755TIP3    H111229   7.092   3.823   3.674
 3755TIP3    H211230   7.040   3.809   3.815
 3756TIP3   OH211231   3.762   1.217   4.206
 3756TIP3    H111232   3.810   1.200   4.286
 3756TIP3    H211233   3.829   1.225   4.138
 3757TIP3   OH211234   1.642   2.973   2.753
 3757TIP3    H111235   1.685   2.917   2.818
 3757TIP3    H211236   1.712   3.032   2.723
 3758TIP3   OH211237   6.970   2.222   2.112
 3758TIP3    H111238   7.009   2.153   2.166
 3758TIP3    H211239   6.878   2.198   2.106
 3759TIP3   OH211240   5.628   6.251   1.455
 3759TIP3    H111241   5.668   6.230   1.540
 3759TIP3    H211242   5.566   6.179   1.440
 3760TIP3   OH211243   1.597   1.610   5.876
 3760TIP3    H111244   1.679   1.577   5.914
 3760TIP3    H211245   1.625   1.678   5.815
 3761TIP3   OH211246   6.687   2.400   0.968
 3761TIP3    H111247   6.711   2.484   0.929
 3761TIP3    H211248   6.768   2.369   1.009
 3762TIP3   OH211249   5.424   2.619   5.406
 3762TIP3    H111250   5.481   2.644   5.334
 3762TIP3    H211251   5.341   2.664   5.389
 3763TIP3   OH211252   4.569   3.104   2.333
 3763TIP3    H111253   4.595   3.196   2.342
 3763TIP3    H211254   4.649   3.060   2.304
 3764TIP3   OH211255   6.324   3.722   1.251
 3764TIP3    H111256   6.243   3.758   1.216
 3764TIP3    H211257   6.358   3.666   1.180
 3765TIP3   OH211258   4.958   5.846   1.445
 3765TIP3    H111259   5.005   5.906   1.504
 3765TIP3    H211260   4.926   5.902   1.374
 3766TIP3   OH211261   6.552   2.271   5.574
 3766TIP3    H111262   6.519   2.186   5.545
 3766TIP3    H211263   6.537   2.271   5.669
 3767TIP3   OH211264   4.586   4.130   5.590
 3767TIP3    H111265   4.675   4.159   5.569
 3767TIP3    H211266   4.531   4.203   5.562
 3768TIP3   OH211267   2.854   1.200   3.592
 3768TIP3    H111268   2.911   1.226   3.520
 3768TIP3    H211269   2.790   1.141   3.552
 3769TIP3   OH211270   5.493   0.344   4.242
 3769TIP3    H111271   5.540   0.292   4.308
 3769TIP3    H211272   5.453   0.278   4.184
 3770TIP3   OH211273   4.680   6.327   4.939
 3770TIP3    H111274   4.685   6.292   5.028
 3770TIP3    H211275   4.705   6.254   4.883
 3771TIP3   OH211276   2.985   1.466   4.452
 3771TIP3    H111277   2.978   1.543   4.395
 3771TIP3    H211278   2.916   1.407   4.420
 3772TIP3   OH211279   3.093   4.177   4.535
 3772TIP3    H111280   3.110   4.111   4.603
 3772TIP3    H211281   3.135   4.141   4.457
 3773TIP3   OH211282   1.325   4.008   4.772
 3773TIP3    H111283   1.279   3.960   4.841
 3773TIP3    H211284   1.297   4.099   4.784
 3774TIP3   OH211285   2.135   2.242   5.049
 3774TIP3    H111286   2.109   2.169   4.993
 3774TIP3    H211287   2.218   2.273   5.011
 3775TIP3   OH211288   4.929   6.096   2.669
 3775TIP3    H111289   4.871   6.027   2.636
 3775TIP3    H211290   4.917   6.093   2.764
 3776TIP3   OH211291   6.410   1.589   0.044
 3776TIP3    H111292   6.412   1.661  -0.019
 3776TIP3    H211293   6.498   1.590   0.084
 3777TIP3   OH211294   0.744   0.497   3.619
 3777TIP3    H111295   0.753   0.408   3.586
 3777TIP3    H211296   0.661   0.497   3.667
 3778TIP3   OH211297   1.779   5.917   4.045
 3778TIP3    H111298   1.757   5.978   4.116
 3778TIP3    H211299   1.875   5.912   4.048
 3779TIP3   OH211300   3.482   2.813   4.124
 3779TIP3    H111301   3.516   2.734   4.166
 3779TIP3    H211302   3.515   2.885   4.177
 3780TIP3   OH211303   1.224   6.019   4.724
 3780TIP3    H111304   1.262   6.091   4.775
 3780TIP3    H211305   1.257   6.034   4.635
 3781TIP3   OH211306   6.529   2.540   4.440
 3781TIP3    H111307   6.513   2.585   4.356
 3781TIP3    H211308   6.521   2.609   4.506
 3782TIP3   OH211309   4.144   6.278   0.410
 3782TIP3    H111310   4.078   6.216   0.379
 3782TIP3    H211311   4.204   6.225   0.462
 3783TIP3   OH211312   1.745   6.777   1.981
 3783TIP3    H111313   1.793   6.748   1.903
 3783TIP3    H211314   1.730   6.697   2.031
 3784TIP3   OH211315   6.394   4.863   3.317
 3784TIP3    H111316   6.299   4.870   3.310
 3784TIP3    H211317   6.421   4.816   3.238
 3785TIP3   OH211318   2.400   3.723   1.647
 3785TIP3    H111319   2.471   3.785   1.627
 3785TIP3    H211320   2.361   3.703   1.562
 3786TIP3   OH211321   3.906   6.358   5.097
 3786TIP3    H111322   3.930   6.422   5.030
 3786TIP3    H211323   3.924   6.403   5.180
 3787TIP3   OH211324   0.629   1.430   1.608
 3787TIP3    H111325   0.609   1.448   1.516
 3787TIP3    H211326   0.581   1.350   1.629
 3788TIP3   OH211327   4.688   6.528   0.531
 3788TIP3    H111328   4.755   6.505   0.595
 3788TIP3    H211329   4.683   6.452   0.473
 3789TIP3   OH211330   6.748   1.346   5.043
 3789TIP3    H111331   6.823   1.327   5.100
 3789TIP3    H211332   6.732   1.264   4.996
 3790TIP3   OH211333   6.049   3.047   1.671
 3790TIP3    H111334   5.960   3.024   1.698
 3790TIP3    H211335   6.044   3.055   1.575
 3791TIP3   OH211336   3.649   6.264   0.982
 3791TIP3    H111337   3.722   6.203   0.996
 3791TIP3    H211338   3.585   6.240   1.049
 3792TIP3   OH211339   6.093   6.225   4.125
 3792TIP3    H111340   6.072   6.236   4.033
 3792TIP3    H211341   6.188   6.226   4.129
 3793TIP3   OH211342   4.654   5.731   5.054
 3793TIP3    H111343   4.692   5.659   5.104
 3793TIP3    H211344   4.704   5.808   5.079
 3794TIP3   OH211345   1.531   4.719   1.408
 3794TIP3    H111346   1.602   4.661   1.380
 3794TIP3    H211347   1.575   4.801   1.431
 3795TIP3   OH211348   6.798   0.750   2.033
 3795TIP3    H111349   6.813   0.714   2.120
 3795TIP3    H211350   6.769   0.676   1.981
 3796TIP3   OH211351   1.271   3.835   1.575
 3796TIP3    H111352   1.361   3.860   1.593
 3796TIP3    H211353   1.222   3.918   1.576
 3797TIP3   OH211354   5.674   0.355   3.186
 3797TIP3    H111355   5.691   0.266   3.215
 3797TIP3    H211356   5.736   0.369   3.114
 3798TIP3   OH211357   4.350   0.284   4.912
 3798TIP3    H111358   4.337   0.363   4.859
 3798TIP3    H211359   4.265   0.267   4.952
 3799TIP3   OH211360   0.721   3.762   1.643
 3799TIP3    H111361   0.669   3.841   1.660
 3799TIP3    H211362   0.789   3.762   1.710
 3800TIP3   OH211363   6.524   5.314   3.668
 3800TIP3    H111364   6.620   5.325   3.670
 3800TIP3    H211365   6.507   5.272   3.584
 3801TIP3   OH211366   7.076   5.749   2.676
 3801TIP3    H111367   7.166   5.737   2.706
 3801TIP3    H211368   7.068   5.844   2.663
 3802TIP3   OH211369   0.360   5.904   0.480
 3802TIP3    H111370   0.298   5.927   0.549
 3802TIP3    H211371   0.387   5.987   0.442
 3803TIP3   OH211372   0.185   2.638   2.269
 3803TIP3    H111373   0.160   2.698   2.340
 3803TIP3    H211374   0.262   2.679   2.229
 3804TIP3   OH211375   3.485   5.208   0.808
 3804TIP3    H111376   3.558   5.237   0.753
 3804TIP3    H211377   3.407   5.225   0.754
 3805TIP3   OH211378   0.538   6.117   0.884
 3805TIP3    H111379   0.569   6.204   0.912
 3805TIP3    H211380   0.551   6.117   0.789
 3806TIP3   OH211381   0.137   3.984   0.903
 3806TIP3    H111382   0.102   4.053   0.958
 3806TIP3    H211383   0.070   3.970   0.836
 3807TIP3   OH211384   6.032   6.338   5.209
 3807TIP3    H111385   6.121   6.318   5.237
 3807TIP3    H211386   6.028   6.306   5.119
 3808TIP3   OH211387   6.749   3.169   0.315
 3808TIP3    H111388   6.805   3.091   0.317
 3808TIP3    H211389   6.795   3.233   0.370
 3809TIP3   OH211390   0.169   3.361  -0.025
 3809TIP3    H111391   0.218   3.427  -0.073
 3809TIP3    H211392   0.131   3.408   0.049
 3810TIP3   OH211393   2.249   0.594   5.003
 3810TIP3    H111394   2.311   0.592   5.077
 3810TIP3    H211395   2.180   0.653   5.032
 3811TIP3   OH211396   4.851   0.935   1.539
 3811TIP3    H111397   4.781   0.973   1.592
 3811TIP3    H211398   4.932   0.961   1.584
 3812TIP3   OH211399   0.276   0.226   2.223
 3812TIP3    H111400   0.369   0.245   2.216
 3812TIP3    H211401   0.233   0.304   2.188
 3813TIP3   OH211402   2.907   5.119   3.729
 3813TIP3    H111403   2.884   5.175   3.655
 3813TIP3    H211404   2.980   5.066   3.697
 3814TIP3   OH211405   5.903   5.711   3.366
 3814TIP3    H111406   5.932   5.783   3.422
 3814TIP3    H211407   5.825   5.745   3.321
 3815TIP3   OH211408   4.209   2.438   1.500
 3815TIP3    H111409   4.300   2.467   1.510
 3815TIP3    H211410   4.200   2.366   1.562
 3816TIP3   OH211411   6.050   3.837   0.095
 3816TIP3    H111412   6.101   3.839   0.013
 3816TIP3    H211413   6.065   3.923   0.134
 3817TIP3   OH211414   0.999   4.710   3.972
 3817TIP3    H111415   1.048   4.629   3.954
 3817TIP3    H211416   0.913   4.694   3.935
 3818TIP3   OH211417   3.585   3.881   2.694
 3818TIP3    H111418   3.495   3.891   2.664
 3818TIP3    H211419   3.580   3.821   2.768
 3819TIP3   OH211420   3.946   6.760   0.908
 3819TIP3    H111421   3.964   6.693   0.974
 3819TIP3    H211422   3.857   6.739   0.877
 3820TIP3   OH211423   3.075   2.765   5.497
 3820TIP3    H111424   3.121   2.780   5.580
 3820TIP3    H211425   2.984   2.784   5.516
 3821TIP3   OH211426   7.086   6.189   2.080
 3821TIP3    H111427   7.141   6.265   2.097
 3821TIP3    H211428   7.141   6.114   2.101
 3822TIP3   OH211429   3.368   5.166   2.318
 3822TIP3    H111430   3.286   5.117   2.317
 3822TIP3    H211431   3.372   5.205   2.405
 3823TIP3   OH211432   2.782   5.880   1.183
 3823TIP3    H111433   2.846   5.834   1.129
 3823TIP3    H211434   2.834   5.939   1.237
 3824TIP3   OH211435   3.034   3.116   5.224
 3824TIP3    H111436   3.041   3.188   5.287
 3824TIP3    H211437   2.965   3.144   5.163
 3825TIP3   OH211438   1.769   3.936   2.490
 3825TIP3    H111439   1.748   3.915   2.399
 3825TIP3    H211440   1.716   4.013   2.510
 3826TIP3   OH211441   0.441   3.051   5.072
 3826TIP3    H111442   0.489   3.130   5.096
 3826TIP3    H211443   0.497   3.008   5.008
 3827TIP3   OH211444   3.602   0.104   3.616
 3827TIP3    H111445   3.659   0.028   3.628
 3827TIP3    H211446   3.514   0.067   3.611
 3828TIP3   OH211447   6.302   2.090   4.542
 3828TIP3    H111448   6.372   2.128   4.595
 3828TIP3    H211449   6.332   2.101   4.451
 3829TIP3   OH211450   1.994   2.754   3.763
 3829TIP3    H111451   1.953   2.835   3.792
 3829TIP3    H211452   2.058   2.733   3.832
 3830TIP3   OH211453   1.073   1.078   1.199
 3830TIP3    H111454   1.021   1.145   1.153
 3830TIP3    H211455   1.161   1.114   1.202
 3831TIP3   OH211456   3.856   6.466   1.789
 3831TIP3    H111457   3.782   6.425   1.744
 3831TIP3    H211458   3.865   6.418   1.871
 3832TIP3   OH211459   4.002   0.041   3.596
 3832TIP3    H111460   3.954   0.120   3.571
 3832TIP3    H211461   3.936  -0.016   3.635
 3833TIP3   OH211462   3.782   1.304   2.962
 3833TIP3    H111463   3.744   1.299   3.050
 3833TIP3    H211464   3.812   1.215   2.945
 3834TIP3   OH211465   5.752   0.918   5.744
 3834TIP3    H111466   5.791   0.984   5.801
 3834TIP3    H211467   5.683   0.878   5.797
 3835TIP3   OH211468   0.352   2.398   4.624
 3835TIP3    H111469   0.388   2.318   4.585
 3835TIP3    H211470   0.261   2.400   4.594
 3836TIP3   OH211471   4.873   5.723   0.666
 3836TIP3    H111472   4.923   5.674   0.601
 3836TIP3    H211473   4.837   5.655   0.724
 3837TIP3   OH211474   3.453   5.359  -0.015
 3837TIP3    H111475   3.429   5.447   0.013
 3837TIP3    H211476   3.392   5.301   0.030
 3838TIP3   OH211477   6.803   5.038   0.282
 3838TIP3    H111478   6.738   4.986   0.330
 3838TIP3    H211479   6.755   5.073   0.207
 3839TIP3   OH211480   2.410   4.550   5.464
 3839TIP3    H111481   2.416   4.454   5.458
 3839TIP3    H211482   2.317   4.569   5.458
 3840TIP3   OH211483   7.187   0.623   1.158
 3840TIP3    H111484   7.099   0.645   1.186
 3840TIP3    H211485   7.243   0.688   1.200
 3841TIP3   OH211486   3.420   4.380   4.405
 3841TIP3    H111487   3.457   4.299   4.439
 3841TIP3    H211488   3.367   4.353   4.331
 3842TIP3   OH211489   6.909   5.720   2.970
 3842TIP3    H111490   6.977   5.788   2.966
 3842TIP3    H211491   6.866   5.724   2.885
 3843TIP3   OH211492   5.384   4.018   2.231
 3843TIP3    H111493   5.372   3.974   2.315
 3843TIP3    H211494   5.390   4.111   2.253
 3844TIP3   OH211495   2.642   4.708   2.192
 3844TIP3    H111496   2.703   4.684   2.123
 3844TIP3    H211497   2.697   4.723   2.269
 3845TIP3   OH211498   1.412   1.907   1.558
 3845TIP3    H111499   1.451   1.983   1.516
 3845TIP3    H211500   1.434   1.916   1.650
 3846TIP3   OH211501   5.594   4.077   3.771
 3846TIP3    H111502   5.674   4.038   3.736
 3846TIP3    H211503   5.609   4.172   3.766
 3847TIP3   OH211504   6.903   2.487   3.177
 3847TIP3    H111505   6.955   2.429   3.123
 3847TIP3    H211506   6.835   2.520   3.118
 3848TIP3   OH211507   1.126   1.648   0.955
 3848TIP3    H111508   1.082   1.604   0.882
 3848TIP3    H211509   1.143   1.736   0.923
 3849TIP3   OH211510   1.912   0.452   5.054
 3849TIP3    H111511   1.921   0.408   4.970
 3849TIP3    H211512   1.961   0.397   5.115
 3850TIP3   OH211513   4.458   3.824   1.426
 3850TIP3    H111514   4.444   3.766   1.351
 3850TIP3    H211515   4.548   3.807   1.453
 3851TIP3   OH211516   2.603   4.445   1.692
 3851TIP3    H111517   2.653   4.501   1.633
 3851TIP3    H211518   2.532   4.410   1.638
 3852TIP3   OH211519   0.728   4.974   5.318
 3852TIP3    H111520   0.710   4.893   5.365
 3852TIP3    H211521   0.720   5.042   5.385
 3853TIP3   OH211522   1.577   3.085   1.446
 3853TIP3    H111523   1.593   3.043   1.362
 3853TIP3    H211524   1.482   3.101   1.447
 3854TIP3   OH211525   5.563   1.261   0.735
 3854TIP3    H111526   5.543   1.345   0.694
 3854TIP3    H211527   5.606   1.210   0.666
 3855TIP3   OH211528   5.424   0.317   5.723
 3855TIP3    H111529   5.402   0.343   5.634
 3855TIP3    H211530   5.353   0.258   5.749
 3856TIP3   OH211531   6.542   0.325   4.990
 3856TIP3    H111532   6.630   0.318   4.953
 3856TIP3    H211533   6.487   0.277   4.929
 3857TIP3   OH211534   6.298   4.201   2.128
 3857TIP3    H111535   6.318   4.254   2.205
 3857TIP3    H211536   6.362   4.228   2.062
 3858TIP3   OH211537   3.141   0.244   4.561
 3858TIP3    H111538   3.232   0.227   4.586
 3858TIP3    H211539   3.129   0.194   4.481
 3859TIP3   OH211540   2.924   6.489   0.791
 3859TIP3    H111541   3.010   6.509   0.755
 3859TIP3    H211542   2.881   6.574   0.797
 3860TIP3   OH211543   5.506   1.774   0.024
 3860TIP3    H111544   5.473   1.685   0.008
 3860TIP3    H211545   5.427   1.826   0.039
 3861TIP3   OH211546   1.752   6.443   5.665
 3861TIP3    H111547   1.804   6.363   5.659
 3861TIP3    H211548   1.749   6.478   5.576
 3862TIP3   OH211549   7.006   6.493   0.423
 3862TIP3    H111550   7.090   6.466   0.460
 3862TIP3    H211551   7.024   6.503   0.329
 3863TIP3   OH211552   3.307   4.426   1.232
 3863TIP3    H111553   3.361   4.358   1.272
 3863TIP3    H211554   3.325   4.505   1.284
 3864TIP3   OH211555   1.469   3.278   5.521
 3864TIP3    H111556   1.486   3.249   5.610
 3864TIP3    H211557   1.504   3.208   5.465
 3865TIP3   OH211558   3.263   3.211   3.941
 3865TIP3    H111559   3.256   3.118   3.917
 3865TIP3    H211560   3.312   3.211   4.023
 3866TIP3   OH211561   3.477   2.374   2.682
 3866TIP3    H111562   3.398   2.414   2.718
 3866TIP3    H211563   3.549   2.413   2.732
 3867TIP3   OH211564   3.033   4.652   0.620
 3867TIP3    H111565   3.108   4.710   0.634
 3867TIP3    H211566   2.976   4.701   0.560
 3868TIP3   OH211567   2.112   4.223   5.776
 3868TIP3    H111568   2.154   4.304   5.804
 3868TIP3    H211569   2.145   4.207   5.688
 3869TIP3   OH211570   1.870   3.436   2.917
 3869TIP3    H111571   1.847   3.516   2.965
 3869TIP3    H211572   1.965   3.441   2.905
 3870TIP3   OH211573   4.441   3.768   5.660
 3870TIP3    H111574   4.400   3.799   5.579
 3870TIP3    H211575   4.448   3.673   5.649
 3871TIP3   OH211576   2.700   5.153   3.078
 3871TIP3    H111577   2.643   5.107   3.140
 3871TIP3    H211578   2.782   5.165   3.125
 3872TIP3   OH211579   5.302   6.652   0.050
 3872TIP3    H111580   5.294   6.650  -0.046
 3872TIP3    H211581   5.213   6.668   0.081
 3873TIP3   OH211582   0.842   4.776   4.852
 3873TIP3    H111583   0.754   4.742   4.868
 3873TIP3    H211584   0.893   4.745   4.927
 3874TIP3   OH211585   6.466   0.984   0.416
 3874TIP3    H111586   6.460   1.070   0.456
 3874TIP3    H211587   6.382   0.971   0.373
 3875TIP3   OH211588   2.253   1.725   0.534
 3875TIP3    H111589   2.216   1.810   0.513
 3875TIP3    H211590   2.276   1.687   0.449
 3876TIP3   OH211591   2.169   4.534   0.891
 3876TIP3    H111592   2.113   4.594   0.940
 3876TIP3    H211593   2.209   4.478   0.959
 3877TIP3   OH211594   4.438   0.369   1.841
 3877TIP3    H111595   4.397   0.289   1.873
 3877TIP3    H211596   4.529   0.363   1.870
 3878TIP3   OH211597   4.454   5.723   0.152
 3878TIP3    H111598   4.398   5.779   0.206
 3878TIP3    H211599   4.543   5.747   0.177
 3879TIP3   OH211600   5.509   2.094   2.799
 3879TIP3    H111601   5.486   2.183   2.775
 3879TIP3    H211602   5.508   2.093   2.894
 3880TIP3   OH211603   0.681   1.717   2.875
 3880TIP3    H111604   0.667   1.623   2.881
 3880TIP3    H211605   0.761   1.733   2.926
 3881TIP3   OH211606   1.812   1.281   1.035
 3881TIP3    H111607   1.867   1.316   1.105
 3881TIP3    H211608   1.773   1.202   1.073
 3882TIP3   OH211609   3.821   0.884   1.878
 3882TIP3    H111610   3.785   0.971   1.897
 3882TIP3    H211611   3.914   0.892   1.896
 3883TIP3   OH211612   6.968   6.324   0.991
 3883TIP3    H111613   7.039   6.271   0.955
 3883TIP3    H211614   6.891   6.300   0.939
 3884TIP3   OH211615   3.148   6.449   4.153
 3884TIP3    H111616   3.222   6.460   4.212
 3884TIP3    H211617   3.155   6.359   4.123
 3885TIP3   OH211618   1.642   1.810   0.984
 3885TIP3    H111619   1.661   1.748   1.054
 3885TIP3    H211620   1.683   1.892   1.013
 3886TIP3   OH211621   1.977   1.014   3.948
 3886TIP3    H111622   1.958   0.934   3.900
 3886TIP3    H211623   1.997   0.985   4.037
 3887TIP3   OH211624   5.175   4.074   3.458
 3887TIP3    H111625   5.209   4.152   3.413
 3887TIP3    H211626   5.253   4.031   3.492
 3888TIP3   OH211627   2.688   3.645   0.317
 3888TIP3    H111628   2.601   3.613   0.294
 3888TIP3    H211629   2.720   3.582   0.382
 3889TIP3   OH211630   3.801   5.184   5.418
 3889TIP3    H111631   3.764   5.125   5.352
 3889TIP3    H211632   3.772   5.148   5.501
 3890TIP3   OH211633   2.259   4.298   0.661
 3890TIP3    H111634   2.297   4.225   0.613
 3890TIP3    H211635   2.333   4.354   0.682
 3891TIP3   OH211636   1.389   4.314   5.234
 3891TIP3    H111637   1.339   4.289   5.312
 3891TIP3    H211638   1.466   4.258   5.236
 3892TIP3   OH211639   1.277   6.528   1.383
 3892TIP3    H111640   1.319   6.588   1.445
 3892TIP3    H211641   1.349   6.479   1.344
 3893TIP3   OH211642   5.362   0.371   2.156
 3893TIP3    H111643   5.308   0.444   2.188
 3893TIP3    H211644   5.304   0.323   2.097
 3894TIP3   OH211645   1.045   1.365   1.685
 3894TIP3    H111646   1.077   1.305   1.753
 3894TIP3    H211647   1.122   1.386   1.634
 3895TIP3   OH211648   5.778   4.630   2.269
 3895TIP3    H111649   5.746   4.543   2.243
 3895TIP3    H211650   5.699   4.681   2.284
 3896TIP3   OH211651   5.000   4.519   2.821
 3896TIP3    H111652   5.040   4.540   2.905
 3896TIP3    H211653   4.922   4.574   2.817
 3897TIP3   OH211654   2.198   5.316   4.329
 3897TIP3    H111655   2.128   5.350   4.273
 3897TIP3    H211656   2.199   5.376   4.404
 3898TIP3   OH211657   6.540   1.593   3.485
 3898TIP3    H111658   6.574   1.660   3.545
 3898TIP3    H211659   6.498   1.529   3.543
 3899TIP3   OH211660   2.691   5.464   2.572
 3899TIP3    H111661   2.681   5.381   2.618
 3899TIP3    H211662   2.758   5.511   2.621
 3900TIP3   OH211663   0.247   2.489   1.290
 3900TIP3    H111664   0.249   2.556   1.222
 3900TIP3    H211665   0.321   2.510   1.347
 3901TIP3   OH211666   6.602   4.451   1.719
 3901TIP3    H111667   6.649   4.377   1.758
 3901TIP3    H211668   6.598   4.430   1.626
 3902TIP3   OH211669   3.764   0.071   2.872
 3902TIP3    H111670   3.701   0.086   2.943
 3902TIP3    H211671   3.844   0.043   2.916
 3903TIP3   OH211672   3.299   2.424   0.994
 3903TIP3    H111673   3.257   2.365   1.058
 3903TIP3    H211674   3.228   2.446   0.934
 3904TIP3   OH211675   0.322   3.218   5.834
 3904TIP3    H111676   0.249   3.177   5.787
 3904TIP3    H211677   0.328   3.168   5.915
 3905TIP3   OH211678   0.133   2.305   0.575
 3905TIP3    H111679   0.058   2.329   0.521
 3905TIP3    H211680   0.196   2.266   0.514
 3906TIP3   OH211681   6.915   3.171   1.048
 3906TIP3    H111682   6.948   3.098   0.996
 3906TIP3    H211683   6.865   3.129   1.119
 3907TIP3   OH211684   5.780   1.676   3.725
 3907TIP3    H111685   5.792   1.712   3.638
 3907TIP3    H211686   5.833   1.732   3.782
 3908TIP3   OH211687   6.672   1.683   5.510
 3908TIP3    H111688   6.615   1.759   5.494
 3908TIP3    H211689   6.738   1.687   5.442
 3909TIP3   OH211690   3.414   4.488   0.983
 3909TIP3    H111691   3.371   4.475   1.068
 3909TIP3    H211692   3.475   4.414   0.976
 3910TIP3   OH211693   2.470   4.274   4.164
 3910TIP3    H111694   2.468   4.181   4.143
 3910TIP3    H211695   2.462   4.318   4.079
 3911TIP3   OH211696   6.022   0.457   0.158
 3911TIP3    H111697   6.039   0.510   0.081
 3911TIP3    H211698   6.099   0.470   0.214
 3912TIP3   OH211699   5.226   2.796   2.863
 3912TIP3    H111700   5.244   2.889   2.878
 3912TIP3    H211701   5.137   2.783   2.897
 3913TIP3   OH211702   2.392   6.417   2.401
 3913TIP3    H111703   2.299   6.437   2.405
 3913TIP3    H211704   2.427   6.479   2.337
 3914TIP3   OH211705   5.159   0.393   5.579
 3914TIP3    H111706   5.242   0.379   5.534
 3914TIP3    H211707   5.165   0.480   5.617
 3915TIP3   OH211708   1.814   1.243   2.985
 3915TIP3    H111709   1.802   1.156   3.024
 3915TIP3    H211710   1.835   1.225   2.893
 3916TIP3   OH211711   5.447   3.207   0.771
 3916TIP3    H111712   5.364   3.254   0.764
 3916TIP3    H211713   5.423   3.114   0.761
 3917TIP3   OH211714   1.796   0.651   0.681
 3917TIP3    H111715   1.786   0.738   0.719
 3917TIP3    H211716   1.721   0.643   0.621
 3918TIP3   OH211717   6.068   4.881   5.898
 3918TIP3    H111718   5.993   4.827   5.922
 3918TIP3    H211719   6.127   4.821   5.853
 3919TIP3   OH211720   5.541   2.229   4.068
 3919TIP3    H111721   5.548   2.159   4.132
 3919TIP3    H211722   5.609   2.292   4.093
 3920TIP3   OH211723   6.602   0.744   4.701
 3920TIP3    H111724   6.546   0.798   4.757
 3920TIP3    H211725   6.655   0.692   4.763
 3921TIP3   OH211726   3.985   1.799   1.384
 3921TIP3    H111727   3.955   1.868   1.325
 3921TIP3    H211728   3.928   1.807   1.460
 3922TIP3   OH211729   2.483   2.978   5.729
 3922TIP3    H111730   2.423   3.043   5.766
 3922TIP3    H211731   2.461   2.897   5.774
 3923TIP3   OH211732   5.761   6.497   4.113
 3923TIP3    H111733   5.742   6.584   4.148
 3923TIP3    H211734   5.853   6.501   4.088
 3924TIP3   OH211735   4.142   2.999   3.968
 3924TIP3    H111736   4.059   2.965   4.000
 3924TIP3    H211737   4.117   3.067   3.905
 3925TIP3   OH211738   2.704   6.789   4.361
 3925TIP3    H111739   2.747   6.751   4.438
 3925TIP3    H211740   2.718   6.726   4.291
 3926TIP3   OH211741   5.197   1.083   3.249
 3926TIP3    H111742   5.149   1.096   3.167
 3926TIP3    H211743   5.159   1.004   3.286
 3927TIP3   OH211744   0.655   2.644   4.095
 3927TIP3    H111745   0.643   2.660   4.188
 3927TIP3    H211746   0.710   2.716   4.065
 3928TIP3   OH211747   6.212   0.847   3.974
 3928TIP3    H111748   6.121   0.860   3.948
 3928TIP3    H211749   6.262   0.869   3.895
 3929TIP3   OH211750   6.609   3.590   1.535
 3929TIP3    H111751   6.539   3.529   1.558
 3929TIP3    H211752   6.689   3.550   1.570
 3930TIP3   OH211753   4.404   4.802   4.115
 3930TIP3    H111754   4.381   4.735   4.179
 3930TIP3    H211755   4.434   4.876   4.167
 3931TIP3   OH211756   1.577   4.144   5.316
 3931TIP3    H111757   1.607   4.122   5.404
 3931TIP3    H211758   1.539   4.063   5.282
 3932TIP3   OH211759   4.833   5.721   4.199
 3932TIP3    H111760   4.859   5.804   4.157
 3932TIP3    H211761   4.783   5.675   4.131
 3933TIP3   OH211762   4.555   3.034   4.453
 3933TIP3    H111763   4.646   3.011   4.471
 3933TIP3    H211764   4.505   2.962   4.492
 3934TIP3   OH211765   5.356   0.237   4.530
 3934TIP3    H111766   5.363   0.154   4.483
 3934TIP3    H211767   5.262   0.249   4.543
 3935TIP3   OH211768   2.005   0.431   2.808
 3935TIP3    H111769   1.953   0.393   2.736
 3935TIP3    H211770   1.964   0.397   2.887
 3936TIP3   OH211771   2.228   5.917   2.132
 3936TIP3    H111772   2.311   5.951   2.166
 3936TIP3    H211773   2.179   5.995   2.106
 3937TIP3   OH211774   3.415   3.257   0.975
 3937TIP3    H111775   3.484   3.213   1.025
 3937TIP3    H211776   3.334   3.230   1.018
 3938TIP3   OH211777   2.127   4.035   3.238
 3938TIP3    H111778   2.153   4.126   3.227
 3938TIP3    H211779   2.147   4.015   3.330
 3939TIP3   OH211780   4.752   6.224   4.090
 3939TIP3    H111781   4.674   6.227   4.146
 3939TIP3    H211782   4.824   6.247   4.149
 3940TIP3   OH211783   3.421   0.867   0.693
 3940TIP3    H111784   3.405   0.816   0.614
 3940TIP3    H211785   3.342   0.853   0.746
 3941TIP3   OH211786   1.404   1.331   5.512
 3941TIP3    H111787   1.411   1.415   5.557
 3941TIP3    H211788   1.318   1.298   5.539
 3942TIP3   OH211789   1.000   1.895   2.191
 3942TIP3    H111790   0.963   1.980   2.215
 3942TIP3    H211791   1.074   1.916   2.134
 3943TIP3   OH211792   1.213   0.220   0.796
 3943TIP3    H111793   1.241   0.211   0.887
 3943TIP3    H211794   1.129   0.173   0.792
 3944TIP3   OH211795   1.290   3.188   1.376
 3944TIP3    H111796   1.280   3.248   1.302
 3944TIP3    H211797   1.247   3.107   1.347
 3945TIP3   OH211798   4.949   6.466   5.112
 3945TIP3    H111799   4.856   6.473   5.135
 3945TIP3    H211800   4.993   6.445   5.194
 3946TIP3   OH211801   6.558   2.597   1.118
 3946TIP3    H111802   6.625   2.644   1.167
 3946TIP3    H211803   6.606   2.528   1.071
 3947TIP3   OH211804   0.310   4.448   5.368
 3947TIP3    H111805   0.271   4.510   5.306
 3947TIP3    H211806   0.363   4.503   5.426
 3948TIP3   OH211807   3.401   1.252   4.808
 3948TIP3    H111808   3.313   1.233   4.774
 3948TIP3    H211809   3.412   1.346   4.793
 3949TIP3   OH211810   0.692   5.632   1.125
 3949TIP3    H111811   0.735   5.715   1.104
 3949TIP3    H211812   0.762   5.567   1.119
 3950TIP3   OH211813   0.189   0.502   4.411
 3950TIP3    H111814   0.154   0.561   4.344
 3950TIP3    H211815   0.263   0.550   4.449
 3951TIP3   OH211816   6.235   6.656   0.611
 3951TIP3    H111817   6.172   6.645   0.540
 3951TIP3    H211818   6.302   6.714   0.575
 3952TIP3   OH211819   0.781   4.717   0.723
 3952TIP3    H111820   0.809   4.732   0.633
 3952TIP3    H211821   0.769   4.622   0.730
 3953TIP3   OH211822   2.108   5.060   2.756
 3953TIP3    H111823   2.163   4.989   2.724
 3953TIP3    H211824   2.021   5.040   2.722
 3954TIP3   OH211825   2.391   4.866   4.912
 3954TIP3    H111826   2.389   4.951   4.956
 3954TIP3    H211827   2.482   4.856   4.884
 3955TIP3   OH211828   4.365   6.547   4.775
 3955TIP3    H111829   4.423   6.580   4.706
 3955TIP3    H211830   4.358   6.619   4.837
 3956TIP3   OH211831   1.596   4.970   4.908
 3956TIP3    H111832   1.562   4.881   4.920
 3956TIP3    H211833   1.553   5.003   4.830
 3957TIP3   OH211834   2.190   3.714   2.297
 3957TIP3    H111835   2.103   3.723   2.336
 3957TIP3    H211836   2.242   3.783   2.336
 3958TIP3   OH211837   2.367   5.043   1.303
 3958TIP3    H111838   2.426   5.041   1.379
 3958TIP3    H211839   2.327   5.130   1.307
 3959TIP3   OH211840   3.726   1.595   1.639
 3959TIP3    H111841   3.733   1.518   1.582
 3959TIP3    H211842   3.654   1.574   1.698
 3960TIP3   OH211843   2.761   1.263   4.439
 3960TIP3    H111844   2.689   1.267   4.501
 3960TIP3    H211845   2.818   1.193   4.473
 3961TIP3   OH211846   5.530   4.809   2.838
 3961TIP3    H111847   5.541   4.724   2.795
 3961TIP3    H211848   5.601   4.862   2.803
 3962TIP3   OH211849   4.365   2.889   3.033
 3962TIP3    H111850   4.390   2.818   3.093
 3962TIP3    H211851   4.446   2.910   2.986
 3963TIP3   OH211852   6.267   5.051   5.538
 3963TIP3    H111853   6.206   5.030   5.467
 3963TIP3    H211854   6.284   4.967   5.580
 3964TIP3   OH211855   1.732  -0.002   3.112
 3964TIP3    H111856   1.798   0.028   3.050
 3964TIP3    H211857   1.661   0.061   3.104
 3965TIP3   OH211858   7.001   5.168   0.973
 3965TIP3    H111859   7.033   5.252   1.006
 3965TIP3    H211860   7.033   5.164   0.883
 3966TIP3   OH211861   3.821   5.533   1.462
 3966TIP3    H111862   3.784   5.600   1.518
 3966TIP3    H211863   3.908   5.565   1.439
 3967TIP3   OH211864   2.338   2.530   1.116
 3967TIP3    H111865   2.311   2.531   1.024
 3967TIP3    H211866   2.282   2.464   1.157
 3968TIP3   OH211867   3.229   4.437   2.701
 3968TIP3    H111868   3.212   4.510   2.761
 3968TIP3    H211869   3.186   4.463   2.619
 3969TIP3   OH211870   0.590   3.994   5.654
 3969TIP3    H111871   0.554   3.934   5.719
 3969TIP3    H211872   0.541   3.976   5.574
 3970TIP3   OH211873   2.721   0.154   5.350
 3970TIP3    H111874   2.692   0.225   5.407
 3970TIP3    H211875   2.663   0.158   5.275
 3971TIP3   OH211876   1.420   2.654   0.008
 3971TIP3    H111877   1.363   2.708  -0.046
 3971TIP3    H211878   1.374   2.570   0.016
 3972TIP3   OH211879   3.636   1.578   0.630
 3972TIP3    H111880   3.682   1.562   0.547
 3972TIP3    H211881   3.550   1.610   0.603
 3973TIP3   OH211882   2.685   2.985   0.227
 3973TIP3    H111883   2.686   3.079   0.247
 3973TIP3    H211884   2.674   2.981   0.132
 3974TIP3   OH211885   3.667   4.686   5.549
 3974TIP3    H111886   3.604   4.751   5.581
 3974TIP3    H211887   3.738   4.739   5.512
 3975TIP3   OH211888   6.691   4.839   5.270
 3975TIP3    H111889   6.771   4.801   5.233
 3975TIP3    H211890   6.645   4.764   5.307
 3976TIP3   OH211891   1.190   0.544   4.829
 3976TIP3    H111892   1.261   0.589   4.874
 3976TIP3    H211893   1.214   0.549   4.736
 3977TIP3   OH211894   2.219   4.723   5.023
 3977TIP3    H111895   2.275   4.651   5.050
 3977TIP3    H211896   2.277   4.785   4.979
 3978TIP3   OH211897   7.021   1.753   5.648
 3978TIP3    H111898   6.953   1.732   5.585
 3978TIP3    H211899   7.023   1.848   5.650
 3979TIP3   OH211900   0.419   1.987   2.518
 3979TIP3    H111901   0.498   2.029   2.551
 3979TIP3    H211902   0.356   2.059   2.506
 3980TIP3   OH211903   4.218   2.979   0.205
 3980TIP3    H111904   4.157   3.026   0.262
 3980TIP3    H211905   4.276   2.934   0.266
 3981TIP3   OH211906   4.174   5.995   0.776
 3981TIP3    H111907   4.260   5.975   0.815
 3981TIP3    H211908   4.114   5.935   0.820
 3982TIP3   OH211909   6.744   6.360   0.425
 3982TIP3    H111910   6.682   6.419   0.383
 3982TIP3    H211911   6.829   6.383   0.387
 3983TIP3   OH211912   5.138   4.674   5.671
 3983TIP3    H111913   5.165   4.588   5.639
 3983TIP3    H211914   5.172   4.735   5.606
 3984TIP3   OH211915   6.458   1.984   5.766
 3984TIP3    H111916   6.412   2.057   5.807
 3984TIP3    H211917   6.399   1.953   5.698
 3985TIP3   OH211918   6.533   2.774   2.232
 3985TIP3    H111919   6.490   2.710   2.289
 3985TIP3    H211920   6.487   2.766   2.148
 3986TIP3   OH211921   0.407   2.857   1.330
 3986TIP3    H111922   0.487   2.843   1.381
 3986TIP3    H211923   0.432   2.836   1.240
 3987TIP3   OH211924   6.833   5.951   1.529
 3987TIP3    H111925   6.832   5.886   1.599
 3987TIP3    H211926   6.924   5.981   1.524
 3988TIP3   OH211927   3.788   4.106   5.281
 3988TIP3    H111928   3.742   4.131   5.201
 3988TIP3    H211929   3.722   4.111   5.350
 3989TIP3   OH211930   0.967   3.073   2.044
 3989TIP3    H111931   0.889   3.047   1.995
 3989TIP3    H211932   1.034   3.085   1.976
 3990TIP3   OH211933   1.553   0.269   5.232
 3990TIP3    H111934   1.630   0.226   5.267
 3990TIP3    H211935   1.519   0.209   5.166
 3991TIP3   OH211936   5.853   6.329   1.307
 3991TIP3    H111937   5.781   6.324   1.370
 3991TIP3    H211938   5.813   6.361   1.227
 3992TIP3   OH211939   5.446   3.107   2.029
 3992TIP3    H111940   5.423   3.032   2.084
 3992TIP3    H211941   5.382   3.175   2.052
 3993TIP3   OH211942   2.914   2.749   3.433
 3993TIP3    H111943   2.838   2.760   3.377
 3993TIP3    H211944   2.916   2.656   3.453
 3994TIP3   OH211945   3.220   2.489   3.152
 3994TIP3    H111946   3.190   2.577   3.176
 3994TIP3    H211947   3.286   2.505   3.084
 3995TIP3   OH211948   0.931   0.759   3.297
 3995TIP3    H111949   0.884   0.758   3.214
 3995TIP3    H211950   0.863   0.744   3.363
 3996TIP3   OH211951   6.990   1.717   3.194
 3996TIP3    H111952   7.072   1.671   3.214
 3996TIP3    H211953   7.008   1.763   3.112
 3997TIP3   OH211954   5.618   6.547   4.406
 3997TIP3    H111955   5.623   6.620   4.344
 3997TIP3    H211956   5.590   6.588   4.488
 3998TIP3   OH211957   3.956   2.523   2.211
 3998TIP3    H111958   3.941   2.432   2.234
 3998TIP3    H211959   4.049   2.538   2.227
 3999TIP3   OH211960   5.762   4.297   4.647
 3999TIP3    H111961   5.763   4.201   4.642
 3999TIP3    H211962   5.824   4.325   4.580
 4000TIP3   OH211963   3.148   0.962   2.646
 4000TIP3    H111964   3.151   0.877   2.689
 4000TIP3    H211965   3.180   0.946   2.557
 4001TIP3   OH211966   6.101   4.572   0.526
 4001TIP3    H111967   6.146   4.491   0.551
 4001TIP3    H211968   6.128   4.586   0.435
 4002TIP3   OH211969   1.499   2.720   1.277
 4002TIP3    H111970   1.477   2.632   1.309
 4002TIP3    H211971   1.415   2.758   1.253
 4003TIP3   OH211972   6.504   0.413   0.473
 4003TIP3    H111973   6.460   0.423   0.389
 4003TIP3    H211974   6.557   0.493   0.482
 4004TIP3   OH211975   5.042   3.165   5.228
 4004TIP3    H111976   4.951   3.137   5.229
 4004TIP3    H211977   5.046   3.235   5.294
 4005TIP3   OH211978   4.617   1.050   1.210
 4005TIP3    H111979   4.541   1.061   1.267
 4005TIP3    H211980   4.589   1.087   1.126
 4006TIP3   OH211981   2.049   2.867   0.133
 4006TIP3    H111982   1.983   2.919   0.180
 4006TIP3    H211983   2.070   2.796   0.193
 4007TIP3   OH211984   7.219   0.349   0.461
 4007TIP3    H111985   7.182   0.424   0.507
 4007TIP3    H211986   7.169   0.343   0.380
 4008TIP3   OH211987   3.806   2.871   1.928
 4008TIP3    H111988   3.712   2.885   1.916
 4008TIP3    H211989   3.847   2.934   1.869
 4009TIP3   OH211990   4.283   4.810   0.036
 4009TIP3    H111991   4.268   4.819  -0.058
 4009TIP3    H211992   4.372   4.774   0.042
 4010TIP3   OH211993   3.111   2.026   1.457
 4010TIP3    H111994   3.078   2.065   1.375
 4010TIP3    H211995   3.162   1.951   1.428
 4011TIP3   OH211996   6.456   2.272   2.730
 4011TIP3    H111997   6.480   2.324   2.807
 4011TIP3    H211998   6.508   2.191   2.738
 4012TIP3   OH211999   0.084   4.595   3.558
 4012TIP3    H112000   0.039   4.512   3.574
 4012TIP3    H212001   0.042   4.631   3.480
 4013TIP3   OH212002   0.655   5.970   5.353
 4013TIP3    H112003   0.566   5.997   5.332
 4013TIP3    H212004   0.708   6.003   5.281
 4014TIP3   OH212005   4.961   6.777   0.235
 4014TIP3    H112006   4.978   6.757   0.327
 4014TIP3    H212007   4.984   6.697   0.188
 4015TIP3   OH212008   2.690   0.981   1.227
 4015TIP3    H112009   2.620   0.951   1.285
 4015TIP3    H212010   2.743   1.039   1.281
 4016TIP3   OH212011   1.820   4.282   3.381
 4016TIP3    H112012   1.907   4.316   3.404
 4016TIP3    H212013   1.793   4.333   3.305
 4017TIP3   OH212014   0.966   2.533   2.334
 4017TIP3    H112015   0.968   2.490   2.248
 4017TIP3    H212016   1.053   2.571   2.344
 4018TIP3   OH212017   0.461   3.581   0.048
 4018TIP3    H112018   0.445   3.506   0.106
 4018TIP3    H212019   0.534   3.627   0.089
 4019TIP3   OH212020   0.904   1.266   2.513
 4019TIP3    H112021   0.963   1.248   2.586
 4019TIP3    H212022   0.822   1.223   2.536
 4020TIP3   OH212023   4.676   1.204   5.633
 4020TIP3    H112024   4.737   1.130   5.625
 4020TIP3    H212025   4.708   1.268   5.570
 4021TIP3   OH212026   4.339   6.628   0.029
 4021TIP3    H112027   4.311   6.680   0.104
 4021TIP3    H212028   4.259   6.586  -0.002
 4022TIP3   OH212029   0.414   0.756   4.149
 4022TIP3    H112030   0.402   0.748   4.054
 4022TIP3    H212031   0.478   0.827   4.159
 4023TIP3   OH212032   5.215   2.035   5.524
 4023TIP3    H112033   5.213   1.967   5.457
 4023TIP3    H212034   5.148   2.098   5.497
 4024TIP3   OH212035   4.784   1.768   4.354
 4024TIP3    H112036   4.738   1.849   4.374
 4024TIP3    H212037   4.721   1.717   4.303
 4025TIP3   OH212038   1.526   5.903   4.788
 4025TIP3    H112039   1.444   5.926   4.831
 4025TIP3    H212040   1.506   5.821   4.742
 4026TIP3   OH212041   5.813   1.037   3.383
 4026TIP3    H112042   5.888   1.096   3.376
 4026TIP3    H212043   5.771   1.062   3.465
 4027TIP3   OH212044   3.618   2.820   3.859
 4027TIP3    H112045   3.628   2.910   3.828
 4027TIP3    H212046   3.567   2.828   3.939
 4028TIP3   OH212047   1.241   2.564   3.045
 4028TIP3    H112048   1.211   2.473   3.052
 4028TIP3    H212049   1.320   2.559   2.990
 4029TIP3   OH212050   6.930   1.690   5.902
 4029TIP3    H112051   6.846   1.677   5.858
 4029TIP3    H212052   6.986   1.729   5.835
 4030TIP3   OH212053   4.024   2.697   2.670
 4030TIP3    H112054   3.944   2.750   2.664
 4030TIP3    H212055   4.069   2.731   2.747
 4031TIP3   OH212056   4.060   0.731   0.264
 4031TIP3    H112057   4.141   0.781   0.254
 4031TIP3    H212058   4.067   0.692   0.351
 4032TIP3   OH212059   3.088   1.610   0.062
 4032TIP3    H112060   3.086   1.661   0.142
 4032TIP3    H212061   3.152   1.655   0.006
 4033TIP3   OH212062   0.084   5.606   3.822
 4033TIP3    H112063   0.170   5.642   3.841
 4033TIP3    H212064   0.092   5.570   3.734
 4034TIP3   OH212065   1.840   6.586   2.446
 4034TIP3    H112066   1.809   6.506   2.488
 4034TIP3    H212067   1.775   6.652   2.469
 4035TIP3   OH212068   3.717   5.697   3.460
 4035TIP3    H112069   3.787   5.690   3.395
 4035TIP3    H212070   3.763   5.699   3.544
 4036TIP3   OH212071   4.121   0.041   2.565
 4036TIP3    H112072   4.101   0.066   2.656
 4036TIP3    H212073   4.070   0.103   2.512
 4037TIP3   OH212074   0.785   3.770   3.761
 4037TIP3    H112075   0.833   3.759   3.843
 4037TIP3    H212076   0.847   3.813   3.702
 4038TIP3   OH212077   4.926   0.348   0.060
 4038TIP3    H112078   4.849   0.326   0.008
 4038TIP3    H212079   4.891   0.395   0.136
 4039TIP3   OH212080   6.158   5.907   1.910
 4039TIP3    H112081   6.192   5.857   1.836
 4039TIP3    H212082   6.144   5.995   1.875
 4040TIP3   OH212083   0.955   2.711   2.804
 4040TIP3    H112084   0.996   2.774   2.745
 4040TIP3    H212085   0.978   2.626   2.768
 4041TIP3   OH212086   6.435   3.034   0.734
 4041TIP3    H112087   6.420   3.107   0.675
 4041TIP3    H212088   6.388   2.961   0.695
 4042TIP3   OH212089   5.616   0.431   2.076
 4042TIP3    H112090   5.679   0.358   2.076
 4042TIP3    H212091   5.533   0.390   2.100
 4043TIP3   OH212092   2.690   2.542   1.580
 4043TIP3    H112093   2.735   2.476   1.632
 4043TIP3    H212094   2.605   2.554   1.622
 4044TIP3   OH212095   0.829   5.814   5.087
 4044TIP3    H112096   0.766   5.752   5.123
 4044TIP3    H212097   0.844   5.877   5.158
 4045TIP3   OH212098   4.982   0.439   4.563
 4045TIP3    H112099   4.939   0.369   4.612
 4045TIP3    H212100   4.926   0.516   4.578
 4046TIP3   OH212101   5.699   3.210   2.037
 4046TIP3    H112102   5.700   3.297   2.076
 4046TIP3    H212103   5.606   3.191   2.023
 4047TIP3   OH212104   1.970   4.964   2.300
 4047TIP3    H112105   2.063   4.965   2.325
 4047TIP3    H212106   1.944   4.872   2.309
 4048TIP3   OH212107   6.829   5.670   2.707
 4048TIP3    H112108   6.923   5.680   2.693
 4048TIP3    H212109   6.795   5.759   2.704
 4049TIP3   OH212110   6.808   1.300   3.429
 4049TIP3    H112111   6.798   1.372   3.366
 4049TIP3    H212112   6.738   1.238   3.406
 4050TIP3   OH212113   2.611   3.381   5.310
 4050TIP3    H112114   2.585   3.464   5.349
 4050TIP3    H212115   2.645   3.404   5.223
 4051TIP3   OH212116   2.724   6.348   0.658
 4051TIP3    H112117   2.796   6.384   0.709
 4051TIP3    H212118   2.766   6.314   0.579
 4052TIP3   OH212119   1.032   2.832   2.199
 4052TIP3    H112120   1.023   2.916   2.154
 4052TIP3    H212121   1.114   2.795   2.164
 4053TIP3   OH212122   5.074   6.535   4.861
 4053TIP3    H112123   4.995   6.555   4.811
 4053TIP3    H212124   5.043   6.528   4.952
 4054TIP3   OH212125   1.276   4.291   4.991
 4054TIP3    H112126   1.324   4.284   5.074
 4054TIP3    H212127   1.344   4.292   4.924
 4055TIP3   OH212128   4.381   6.478   2.655
 4055TIP3    H112129   4.356   6.539   2.586
 4055TIP3    H212130   4.439   6.416   2.612
 4056TIP3   OH212131   5.190   3.323   2.901
 4056TIP3    H112132   5.195   3.334   2.806
 4056TIP3    H212133   5.179   3.412   2.936
 4057TIP3   OH212134   6.697   3.774   0.418
 4057TIP3    H112135   6.748   3.693   0.406
 4057TIP3    H212136   6.713   3.824   0.338
 4058TIP3   OH212137   1.815   6.356   3.382
 4058TIP3    H112138   1.777   6.438   3.349
 4058TIP3    H212139   1.890   6.339   3.325
 4059TIP3   OH212140   4.680   6.604   4.909
 4059TIP3    H112141   4.662   6.511   4.925
 4059TIP3    H212142   4.744   6.604   4.838
 4060TIP3   OH212143   0.250   0.138   4.721
 4060TIP3    H112144   0.202   0.091   4.654
 4060TIP3    H212145   0.294   0.069   4.772
 4061TIP3   OH212146   5.011   4.229   2.812
 4061TIP3    H112147   4.954   4.243   2.888
 4061TIP3    H212148   5.025   4.317   2.776
 4062TIP3   OH212149   2.239   2.979   4.728
 4062TIP3    H112150   2.277   2.976   4.640
 4062TIP3    H212151   2.314   2.991   4.786
 4063TIP3   OH212152   4.026   1.420   3.879
 4063TIP3    H112153   4.002   1.507   3.847
 4063TIP3    H212154   4.102   1.434   3.934
 4064TIP3   OH212155   2.616   4.193   0.719
 4064TIP3    H112156   2.655   4.252   0.654
 4064TIP3    H212157   2.534   4.164   0.679
 4065TIP3   OH212158   1.279   5.206   5.904
 4065TIP3    H112159   1.218   5.131   5.903
 4065TIP3    H212160   1.340   5.188   5.833
 4066TIP3   OH212161   1.188   0.210   1.275
 4066TIP3    H112162   1.129   0.263   1.329
 4066TIP3    H212163   1.153   0.121   1.281
 4067TIP3   OH212164   1.229   6.666   3.358
 4067TIP3    H112165   1.151   6.721   3.370
 4067TIP3    H212166   1.231   6.648   3.265
 4068TIP3   OH212167   3.402   1.031   1.907
 4068TIP3    H112168   3.407   1.121   1.939
 4068TIP3    H212169   3.312   1.022   1.876
 4069TIP3   OH212170   4.851   1.174   4.011
 4069TIP3    H112171   4.814   1.191   3.925
 4069TIP3    H212172   4.809   1.238   4.069
 4070TIP3   OH212173   6.588   0.331   1.755
 4070TIP3    H112174   6.525   0.273   1.797
 4070TIP3    H212175   6.536   0.378   1.689
 4071TIP3   OH212176   1.474  -0.007   0.335
 4071TIP3    H112177   1.446  -0.071   0.269
 4071TIP3    H212178   1.399   0.051   0.347
 4072TIP3   OH212179   1.211   3.987   1.842
 4072TIP3    H112180   1.197   4.048   1.915
 4072TIP3    H212181   1.169   4.029   1.767
 4073TIP3   OH212182   5.145   2.972   0.469
 4073TIP3    H112183   5.111   3.053   0.509
 4073TIP3    H212184   5.107   2.971   0.381
 4074TIP3   OH212185   3.178   1.626   4.294
 4074TIP3    H112186   3.100   1.575   4.273
 4074TIP3    H212187   3.201   1.670   4.211
 4075TIP3   OH212188   4.756   5.478   5.123
 4075TIP3    H112189   4.838   5.450   5.083
 4075TIP3    H212190   4.697   5.404   5.112
 4076TIP3   OH212191   0.901   0.848   1.648
 4076TIP3    H112192   0.875   0.891   1.729
 4076TIP3    H212193   0.976   0.794   1.672
 4077TIP3   OH212194   0.474   3.896   0.238
 4077TIP3    H112195   0.550   3.838   0.245
 4077TIP3    H212196   0.453   3.896   0.145
 4078TIP3   OH212197   4.676   3.539   1.165
 4078TIP3    H112198   4.677   3.633   1.150
 4078TIP3    H212199   4.768   3.516   1.179
 4079TIP3   OH212200   6.223   3.232   5.158
 4079TIP3    H112201   6.259   3.311   5.198
 4079TIP3    H212202   6.269   3.225   5.074
 4080TIP3   OH212203   1.570   0.462   3.730
 4080TIP3    H112204   1.521   0.380   3.718
 4080TIP3    H212205   1.656   0.433   3.762
 4081TIP3   OH212206   4.816   5.377   1.751
 4081TIP3    H112207   4.822   5.286   1.722
 4081TIP3    H212208   4.740   5.412   1.704
 4082TIP3   OH212209   1.374   5.860   4.242
 4082TIP3    H112210   1.441   5.900   4.297
 4082TIP3    H212211   1.295   5.861   4.296
 4083TIP3   OH212212   0.301   0.895   5.260
 4083TIP3    H112213   0.358   0.916   5.334
 4083TIP3    H212214   0.216   0.931   5.284
 4084TIP3   OH212215   5.978   2.816   4.773
 4084TIP3    H112216   6.063   2.848   4.743
 4084TIP3    H212217   5.948   2.759   4.703
 4085TIP3   OH212218   3.101   5.669   0.221
 4085TIP3    H112219   3.172   5.731   0.238
 4085TIP3    H212220   3.024   5.709   0.262
 4086TIP3   OH212221   6.021   4.883   3.450
 4086TIP3    H112222   5.933   4.881   3.486
 4086TIP3    H212223   6.058   4.966   3.482
 4087TIP3   OH212224   1.414   2.200   0.072
 4087TIP3    H112225   1.350   2.244   0.016
 4087TIP3    H212226   1.488   2.260   0.077
 4088TIP3   OH212227   2.427   6.297   4.702
 4088TIP3    H112228   2.478   6.220   4.726
 4088TIP3    H212229   2.367   6.310   4.776
 4089TIP3   OH212230   0.068   1.592   1.148
 4089TIP3    H112231   0.070   1.573   1.242
 4089TIP3    H212232   0.138   1.539   1.111
 4090TIP3   OH212233   1.574   0.829   0.542
 4090TIP3    H112234   1.659   0.874   0.538
 4090TIP3    H212235   1.555   0.806   0.451
 4091TIP3   OH212236   6.192   5.670   4.025
 4091TIP3    H112237   6.109   5.623   4.034
 4091TIP3    H212238   6.253   5.622   4.082
 4092TIP3   OH212239   3.324   3.334   3.640
 4092TIP3    H112240   3.238   3.294   3.651
 4092TIP3    H212241   3.353   3.304   3.554
 4093TIP3   OH212242   0.849   0.003   5.762
 4093TIP3    H112243   0.789  -0.047   5.816
 4093TIP3    H212244   0.853   0.089   5.803
 4094TIP3   OH212245   1.522   3.849   2.302
 4094TIP3    H112246   1.500   3.846   2.209
 4094TIP3    H212247   1.551   3.760   2.323
 4095TIP3   OH212248   0.817   1.016   1.434
 4095TIP3    H112249   0.821   0.959   1.510
 4095TIP3    H212250   0.782   0.961   1.364
 4096TIP3   OH212251   6.489   4.152   4.520
 4096TIP3    H112252   6.546   4.227   4.536
 4096TIP3    H212253   6.442   4.174   4.440
 4097TIP3   OH212254   1.357   6.101   1.120
 4097TIP3    H112255   1.327   6.012   1.139
 4097TIP3    H212256   1.391   6.096   1.030
 4098TIP3   OH212257   3.646   2.853   1.341
 4098TIP3    H112258   3.736   2.885   1.353
 4098TIP3    H212259   3.656   2.759   1.329
 4099TIP3   OH212260   4.688   6.529   1.345
 4099TIP3    H112261   4.612   6.486   1.305
 4099TIP3    H212262   4.744   6.552   1.271
 4100TIP3   OH212263   3.041   4.451   2.079
 4100TIP3    H112264   3.103   4.520   2.056
 4100TIP3    H212265   3.068   4.376   2.026
 4101TIP3   OH212266   1.693   5.804   3.715
 4101TIP3    H112267   1.774   5.824   3.762
 4101TIP3    H212268   1.630   5.783   3.784
 4102TIP3   OH212269   2.444   2.734   4.114
 4102TIP3    H112270   2.514   2.704   4.056
 4102TIP3    H212271   2.418   2.656   4.163
 4103TIP3   OH212272   4.295   4.472   2.094
 4103TIP3    H112273   4.201   4.482   2.075
 4103TIP3    H212274   4.333   4.445   2.010
 4104TIP3   OH212275   7.164   1.404   5.381
 4104TIP3    H112276   7.185   1.471   5.316
 4104TIP3    H212277   7.097   1.350   5.339
 4105TIP3   OH212278   3.922   3.917   3.665
 4105TIP3    H112279   3.909   3.866   3.585
 4105TIP3    H212280   3.993   3.977   3.644
 4106TIP3   OH212281   3.449   2.922   5.205
 4106TIP3    H112282   3.481   2.987   5.267
 4106TIP3    H212283   3.367   2.892   5.242
 4107TIP3   OH212284   5.433   5.618   2.640
 4107TIP3    H112285   5.492   5.604   2.566
 4107TIP3    H212286   5.363   5.672   2.604
 4108TIP3   OH212287   1.065   1.008   4.532
 4108TIP3    H112288   1.004   0.942   4.564
 4108TIP3    H212289   1.123   0.960   4.473
 4109TIP3   OH212290   6.602   5.430   5.041
 4109TIP3    H112291   6.609   5.463   5.131
 4109TIP3    H212292   6.550   5.350   5.049
 4110TIP3   OH212293   3.349   3.808   0.654
 4110TIP3    H112294   3.442   3.827   0.658
 4110TIP3    H212295   3.332   3.789   0.562
 4111TIP3   OH212296   5.547   6.419   0.055
 4111TIP3    H112297   5.523   6.466   0.135
 4111TIP3    H212298   5.572   6.332   0.085
 4112TIP3   OH212299   4.416   2.644   2.885
 4112TIP3    H112300   4.381   2.668   2.799
 4112TIP3    H212301   4.491   2.702   2.899
 4113TIP3   OH212302   0.389   4.427   2.459
 4113TIP3    H112303   0.376   4.469   2.544
 4113TIP3    H212304   0.307   4.379   2.442
 4114TIP3   OH212305   0.236   1.929   4.178
 4114TIP3    H112306   0.177   1.964   4.245
 4114TIP3    H212307   0.197   1.845   4.153
 4115TIP3   OH212308   6.183   6.011   3.879
 4115TIP3    H112309   6.111   6.030   3.819
 4115TIP3    H212310   6.262   6.023   3.826
 4116TIP3   OH212311   4.045   6.221   4.719
 4116TIP3    H112312   4.131   6.253   4.692
 4116TIP3    H212313   4.062   6.134   4.755
 4117TIP3   OH212314   3.568   3.672   0.388
 4117TIP3    H112315   3.664   3.666   0.383
 4117TIP3    H212316   3.537   3.610   0.322
 4118TIP3   OH212317   4.510   3.653   3.068
 4118TIP3    H112318   4.416   3.646   3.054
 4118TIP3    H212319   4.547   3.655   2.980
 4119TIP3   OH212320   4.576   1.741   4.017
 4119TIP3    H112321   4.637   1.813   4.029
 4119TIP3    H212322   4.602   1.699   3.935
 4120TIP3   OH212323   5.377   5.802   4.895
 4120TIP3    H112324   5.344   5.888   4.919
 4120TIP3    H212325   5.401   5.761   4.978
 4121TIP3   OH212326   3.249   2.734   2.207
 4121TIP3    H112327   3.269   2.645   2.179
 4121TIP3    H212328   3.249   2.785   2.126
 4122TIP3   OH212329   4.086   5.380   2.214
 4122TIP3    H112330   4.177   5.375   2.244
 4122TIP3    H212331   4.035   5.349   2.288
 4123TIP3   OH212332   6.259   0.815   2.773
 4123TIP3    H112333   6.332   0.767   2.733
 4123TIP3    H212334   6.273   0.906   2.744
 4124TIP3   OH212335   5.161   3.780   4.050
 4124TIP3    H112336   5.219   3.713   4.087
 4124TIP3    H212337   5.121   3.737   3.974
 4125TIP3   OH212338   2.919   5.712   0.999
 4125TIP3    H112339   2.997   5.706   0.943
 4125TIP3    H212340   2.855   5.656   0.956
 4126TIP3   OH212341   6.807   3.158   5.886
 4126TIP3    H112342   6.760   3.145   5.803
 4126TIP3    H212343   6.762   3.101   5.948
 4127TIP3   OH212344   0.189   2.927   0.578
 4127TIP3    H112345   0.252   2.935   0.506
 4127TIP3    H212346   0.115   2.879   0.540
 4128TIP3   OH212347   1.817   1.377   5.676
 4128TIP3    H112348   1.733   1.332   5.667
 4128TIP3    H212349   1.848   1.388   5.587
 4129TIP3   OH212350   4.683   5.289   3.242
 4129TIP3    H112351   4.671   5.261   3.332
 4129TIP3    H212352   4.751   5.355   3.246
 4130TIP3   OH212353   2.096   5.891   1.087
 4130TIP3    H112354   2.008   5.924   1.104
 4130TIP3    H212355   2.117   5.839   1.164
 4131TIP3   OH212356   1.005   4.127   3.099
 4131TIP3    H112357   1.075   4.114   3.163
 4131TIP3    H212358   0.990   4.040   3.062
 4132TIP3   OH212359   3.655   3.312   4.613
 4132TIP3    H112360   3.687   3.355   4.534
 4132TIP3    H212361   3.574   3.270   4.586
 4133TIP3   OH212362   7.149   6.621   5.550
 4133TIP3    H112363   7.086   6.612   5.479
 4133TIP3    H212364   7.192   6.705   5.534
 4134TIP3   OH212365   2.695   1.780   2.161
 4134TIP3    H112366   2.743   1.858   2.188
 4134TIP3    H212367   2.755   1.708   2.178
 4135TIP3   OH212368   1.174   3.413   4.560
 4135TIP3    H112369   1.195   3.321   4.571
 4135TIP3    H212370   1.234   3.459   4.618
 4136TIP3   OH212371   5.318   2.461   1.112
 4136TIP3    H112372   5.321   2.433   1.203
 4136TIP3    H212373   5.402   2.431   1.076
 4137TIP3   OH212374   7.175   3.937   3.404
 4137TIP3    H112375   7.235   3.993   3.454
 4137TIP3    H212376   7.214   3.932   3.317
 4138TIP3   OH212377   4.258   6.779   0.248
 4138TIP3    H112378   4.212   6.712   0.298
 4138TIP3    H212379   4.281   6.845   0.313
 4139TIP3   OH212380   0.209   3.331   0.984
 4139TIP3    H112381   0.265   3.392   1.032
 4139TIP3    H212382   0.174   3.273   1.052
 4140TIP3   OH212383   4.980   0.641   3.078
 4140TIP3    H112384   5.074   0.620   3.085
 4140TIP3    H212385   4.937   0.556   3.071
 4141TIP3   OH212386   3.830   0.948   3.737
 4141TIP3    H112387   3.875   1.028   3.709
 4141TIP3    H212388   3.739   0.975   3.748
 4142TIP3   OH212389   5.860   2.612   3.352
 4142TIP3    H112390   5.825   2.685   3.401
 4142TIP3    H212391   5.955   2.620   3.360
 4143TIP3   OH212392   2.973   1.766   1.034
 4143TIP3    H112393   2.968   1.845   0.981
 4143TIP3    H212394   2.883   1.732   1.035
 4144TIP3   OH212395   3.577   1.547   5.252
 4144TIP3    H112396   3.597   1.519   5.342
 4144TIP3    H212397   3.577   1.466   5.201
 4145TIP3   OH212398   5.763   2.873   2.185
 4145TIP3    H112399   5.813   2.937   2.235
 4145TIP3    H212400   5.800   2.788   2.210
 4146TIP3   OH212401   5.845   2.821   5.037
 4146TIP3    H112402   5.863   2.875   4.959
 4146TIP3    H212403   5.778   2.759   5.008
 4147TIP3   OH212404   0.980   6.416   3.470
 4147TIP3    H112405   1.014   6.440   3.556
 4147TIP3    H212406   0.901   6.470   3.459
 4148TIP3   OH212407   2.952   0.480   4.053
 4148TIP3    H112408   2.991   0.534   4.122
 4148TIP3    H212409   2.896   0.541   4.005
 4149TIP3   OH212410   4.471   6.365   1.507
 4149TIP3    H112411   4.376   6.357   1.504
 4149TIP3    H212412   4.495   6.400   1.421
 4150TIP3   OH212413   6.308   4.039   3.205
 4150TIP3    H112414   6.260   4.060   3.126
 4150TIP3    H212415   6.360   4.117   3.224
 4151TIP3   OH212416   2.933   3.969   5.090
 4151TIP3    H112417   2.946   4.052   5.136
 4151TIP3    H212418   2.884   3.915   5.153
 4152TIP3   OH212419   5.104   0.757   4.185
 4152TIP3    H112420   5.134   0.696   4.252
 4152TIP3    H212421   5.011   0.769   4.203
 4153TIP3   OH212422   4.402   5.049   0.932
 4153TIP3    H112423   4.395   5.114   0.862
 4153TIP3    H212424   4.441   4.973   0.888
 4154TIP3   OH212425   6.946   5.660   0.211
 4154TIP3    H112426   6.882   5.730   0.201
 4154TIP3    H212427   7.023   5.703   0.248
 4155TIP3   OH212428   0.898   4.172   5.467
 4155TIP3    H112429   0.836   4.114   5.511
 4155TIP3    H212430   0.847   4.210   5.395
 4156TIP3   OH212431   3.806   0.071   2.347
 4156TIP3    H112432   3.815   0.032   2.433
 4156TIP3    H212433   3.829   0.001   2.286
 4157TIP3   OH212434   6.392   5.019   2.610
 4157TIP3    H112435   6.310   5.049   2.650
 4157TIP3    H212436   6.408   5.081   2.539
 4158TIP3   OH212437   3.784   4.848   1.248
 4158TIP3    H112438   3.706   4.819   1.200
 4158TIP3    H212439   3.768   4.942   1.262
 4159TIP3   OH212440   5.923   3.388   1.052
 4159TIP3    H112441   5.928   3.293   1.044
 4159TIP3    H212442   5.865   3.415   0.981
 4160TIP3   OH212443   3.069   0.410   1.126
 4160TIP3    H112444   3.018   0.434   1.049
 4160TIP3    H212445   3.138   0.353   1.093
 4161TIP3   OH212446   4.063   5.463   4.523
 4161TIP3    H112447   4.062   5.433   4.614
 4161TIP3    H212448   3.976   5.444   4.490
 4162TIP3   OH212449   7.154   2.033   4.212
 4162TIP3    H112450   7.199   2.101   4.161
 4162TIP3    H212451   7.155   1.956   4.155
 4163TIP3   OH212452   0.116   2.714   4.283
 4163TIP3    H112453   0.039   2.699   4.339
 4163TIP3    H212454   0.125   2.809   4.278
 4164TIP3   OH212455   1.024   4.189   1.321
 4164TIP3    H112456   0.945   4.153   1.361
 4164TIP3    H212457   1.022   4.155   1.231
 4165TIP3   OH212458   2.764   5.021   0.683
 4165TIP3    H112459   2.757   5.050   0.774
 4165TIP3    H212460   2.696   5.069   0.637
 4166TIP3   OH212461   3.386   1.704   4.955
 4166TIP3    H112462   3.343   1.633   4.907
 4166TIP3    H212463   3.333   1.714   5.035
 4167TIP3   OH212464   3.681   6.137   4.323
 4167TIP3    H112465   3.729   6.072   4.271
 4167TIP3    H212466   3.629   6.186   4.259
 4168TIP3   OH212467   6.323   6.262   5.102
 4168TIP3    H112468   6.339   6.261   5.196
 4168TIP3    H212469   6.273   6.182   5.085
 4169TIP3   OH212470   2.100   2.424   1.677
 4169TIP3    H112471   2.102   2.371   1.757
 4169TIP3    H212472   2.060   2.507   1.706
 4170TIP3   OH212473   6.569   2.277   3.713
 4170TIP3    H112474   6.577   2.359   3.665
 4170TIP3    H212475   6.549   2.303   3.803
 4171TIP3   OH212476   0.103   5.002   4.565
 4171TIP3    H112477   0.033   5.025   4.626
 4171TIP3    H212478   0.127   4.912   4.589
 4172TIP3   OH212479   0.405   5.355   0.935
 4172TIP3    H112480   0.440   5.310   1.012
 4172TIP3    H212481   0.321   5.312   0.919
 4173TIP3   OH212482   2.048   1.244   3.694
 4173TIP3    H112483   2.013   1.321   3.739
 4173TIP3    H212484   2.137   1.234   3.729
 4174TIP3   OH212485   2.414   6.704   4.751
 4174TIP3    H112486   2.333   6.663   4.780
 4174TIP3    H212487   2.448   6.645   4.684
 4175TIP3   OH212488   5.010   0.830   2.872
 4175TIP3    H112489   4.971   0.780   2.943
 4175TIP3    H212490   4.943   0.894   2.848
 4176TIP3   OH212491   5.495   5.931   2.088
 4176TIP3    H112492   5.432   5.975   2.144
 4176TIP3    H212493   5.557   5.891   2.149
 4177TIP3   OH212494   0.539   1.692   2.504
 4177TIP3    H112495   0.465   1.691   2.443
 4177TIP3    H212496   0.525   1.769   2.558
 4178TIP3   OH212497   3.342   1.383   2.182
 4178TIP3    H112498   3.356   1.291   2.203
 4178TIP3    H212499   3.323   1.384   2.088
 4179TIP3   OH212500   1.436   3.857   2.022
 4179TIP3    H112501   1.458   3.801   1.948
 4179TIP3    H212502   1.350   3.894   2.000
 4180TIP3   OH212503   1.732   6.035   4.673
 4180TIP3    H112504   1.647   5.995   4.690
 4180TIP3    H212505   1.790   5.961   4.654
 4181TIP3   OH212506   6.806   2.432   4.565
 4181TIP3    H112507   6.799   2.344   4.602
 4181TIP3    H212508   6.717   2.452   4.533
 4182TIP3   OH212509   1.117   1.455   2.390
 4182TIP3    H112510   1.094   1.407   2.310
 4182TIP3    H212511   1.103   1.392   2.461
 4183TIP3   OH212512   5.424   3.394   5.346
 4183TIP3    H112513   5.508   3.427   5.377
 4183TIP3    H212514   5.419   3.305   5.381
 4184TIP3   OH212515   6.589   0.368   4.650
 4184TIP3    H112516   6.651   0.395   4.582
 4184TIP3    H212517   6.645   0.334   4.721
 4185TIP3   OH212518   5.440   2.660   0.189
 4185TIP3    H112519   5.440   2.755   0.201
 4185TIP3    H212520   5.520   2.630   0.232
 4186TIP3   OH212521   7.020   1.994   2.335
 4186TIP3    H112522   7.002   1.939   2.259
 4186TIP3    H212523   7.047   1.933   2.403
 4187TIP3   OH212524   6.053   6.024   1.383
 4187TIP3    H112525   6.133   5.987   1.421
 4187TIP3    H212526   6.082   6.105   1.342
 4188TIP3   OH212527   5.790   5.293   4.760
 4188TIP3    H112528   5.758   5.381   4.777
 4188TIP3    H212529   5.818   5.295   4.668
 4189TIP3   OH212530   6.337   3.930   4.926
 4189TIP3    H112531   6.370   3.908   5.013
 4189TIP3    H212532   6.335   4.026   4.924
 4190TIP3   OH212533   4.640   6.128   3.158
 4190TIP3    H112534   4.666   6.083   3.077
 4190TIP3    H212535   4.712   6.189   3.175
 4191TIP3   OH212536   1.270   3.133   3.850
 4191TIP3    H112537   1.203   3.202   3.853
 4191TIP3    H212538   1.221   3.051   3.863
 4192TIP3   OH212539   5.757   3.490   0.818
 4192TIP3    H112540   5.674   3.458   0.784
 4192TIP3    H212541   5.777   3.567   0.765
 4193TIP3   OH212542   5.931   2.502   5.321
 4193TIP3    H112543   6.026   2.518   5.317
 4193TIP3    H212544   5.922   2.412   5.290
 4194TIP3   OH212545   6.005   3.446   1.867
 4194TIP3    H112546   6.064   3.498   1.921
 4194TIP3    H212547   6.061   3.412   1.796
 4195TIP3   OH212548   5.788   0.299   0.917
 4195TIP3    H112549   5.738   0.218   0.904
 4195TIP3    H212550   5.775   0.321   1.009
 4196TIP3   OH212551   4.752   1.508   5.148
 4196TIP3    H112552   4.814   1.579   5.163
 4196TIP3    H212553   4.672   1.536   5.193
 4197TIP3   OH212554   3.061   4.684   5.771
 4197TIP3    H112555   2.986   4.742   5.784
 4197TIP3    H212556   3.075   4.643   5.856
 4198TIP3   OH212557   0.299   3.613   5.423
 4198TIP3    H112558   0.222   3.656   5.386
 4198TIP3    H212559   0.306   3.531   5.374
 4199TIP3   OH212560   5.008   0.596   1.565
 4199TIP3    H112561   5.085   0.653   1.564
 4199TIP3    H212562   4.966   0.613   1.480
 4200TIP3   OH212563   3.090   1.284   2.032
 4200TIP3    H112564   3.141   1.224   2.088
 4200TIP3    H212565   3.106   1.252   1.943
 4201TIP3   OH212566   4.633   5.537   5.454
 4201TIP3    H112567   4.551   5.502   5.422
 4201TIP3    H212568   4.610   5.622   5.491
 4202TIP3   OH212569   4.468   1.351   4.747
 4202TIP3    H112570   4.429   1.266   4.768
 4202TIP3    H212571   4.409   1.415   4.785
 4203TIP3   OH212572   0.347   4.414   1.863
 4203TIP3    H112573   0.266   4.368   1.840
 4203TIP3    H212574   0.320   4.477   1.930
 4204TIP3   OH212575   1.845   0.087   3.805
 4204TIP3    H112576   1.847  -0.006   3.831
 4204TIP3    H212577   1.792   0.089   3.726
 4205TIP3   OH212578   0.251   3.747   1.018
 4205TIP3    H112579   0.316   3.782   1.080
 4205TIP3    H212580   0.192   3.820   1.001
 4206TIP3   OH212581   3.719   4.251   3.240
 4206TIP3    H112582   3.798   4.291   3.204
 4206TIP3    H212583   3.679   4.207   3.165
 4207TIP3   OH212584   0.299   0.612   0.415
 4207TIP3    H112585   0.283   0.532   0.466
 4207TIP3    H212586   0.242   0.678   0.455
 4208TIP3   OH212587   1.995   2.568   4.356
 4208TIP3    H112588   2.011   2.605   4.443
 4208TIP3    H212589   1.930   2.499   4.371
 4209TIP3   OH212590   5.392   5.783   3.100
 4209TIP3    H112591   5.321   5.778   3.163
 4209TIP3    H212592   5.366   5.724   3.030
 4210TIP3   OH212593   0.527   3.328   4.415
 4210TIP3    H112594   0.581   3.397   4.376
 4210TIP3    H212595   0.440   3.340   4.376
 4211TIP3   OH212596   4.849   5.242   5.349
 4211TIP3    H112597   4.757   5.248   5.378
 4211TIP3    H212598   4.848   5.176   5.280
 4212TIP3   OH212599   2.891   3.576   3.760
 4212TIP3    H112600   2.957   3.642   3.741
 4212TIP3    H212601   2.929   3.524   3.831
 4213TIP3   OH212602   4.753   1.637   3.243
 4213TIP3    H112603   4.779   1.593   3.162
 4213TIP3    H212604   4.791   1.583   3.312
 4214TIP3   OH212605   2.296   5.397   5.780
 4214TIP3    H112606   2.375   5.417   5.731
 4214TIP3    H212607   2.252   5.481   5.792
 4215TIP3   OH212608   0.433   2.907   0.902
 4215TIP3    H112609   0.481   2.863   0.832
 4215TIP3    H212610   0.498   2.965   0.942
 4216TIP3   OH212611   2.986   6.488   4.451
 4216TIP3    H112612   3.048   6.456   4.516
 4216TIP3    H212613   3.041   6.524   4.381
 4217TIP3   OH212614   4.515   3.490   2.645
 4217TIP3    H112615   4.460   3.448   2.711
 4217TIP3    H212616   4.570   3.550   2.694
 4218TIP3   OH212617   1.496   5.557   4.425
 4218TIP3    H112618   1.488   5.547   4.330
 4218TIP3    H212619   1.585   5.526   4.445
 4219TIP3   OH212620   0.968   6.317   3.083
 4219TIP3    H112621   0.945   6.241   3.136
 4219TIP3    H212622   1.061   6.331   3.101
 4220TIP3   OH212623   4.310   1.010   1.071
 4220TIP3    H112624   4.330   1.030   1.162
 4220TIP3    H212625   4.266   1.089   1.038
 4221TIP3   OH212626   3.333   2.578   2.896
 4221TIP3    H112627   3.414   2.609   2.856
 4221TIP3    H212628   3.285   2.536   2.824
 4222TIP3   OH212629   2.723   0.718   5.614
 4222TIP3    H112630   2.800   0.718   5.671
 4222TIP3    H212631   2.742   0.783   5.546
 4223TIP3   OH212632   0.426   1.808   2.755
 4223TIP3    H112633   0.504   1.807   2.811
 4223TIP3    H212634   0.433   1.890   2.706
 4224TIP3   OH212635   6.923   0.970   5.609
 4224TIP3    H112636   6.828   0.977   5.598
 4224TIP3    H212637   6.953   1.060   5.610
 4225TIP3   OH212638   5.301   1.624   3.316
 4225TIP3    H112639   5.242   1.566   3.267
 4225TIP3    H212640   5.243   1.687   3.358
 4226TIP3   OH212641   3.434   1.593   1.158
 4226TIP3    H112642   3.424   1.555   1.070
 4226TIP3    H212643   3.352   1.639   1.174
 4227TIP3   OH212644   4.464   2.922   4.021
 4227TIP3    H112645   4.465   2.997   4.081
 4227TIP3    H212646   4.555   2.911   3.994
 4228TIP3   OH212647   1.342   3.167   0.715
 4228TIP3    H112648   1.296   3.195   0.794
 4228TIP3    H212649   1.302   3.082   0.693
 4229TIP3   OH212650   4.679  -0.001   0.817
 4229TIP3    H112651   4.739  -0.074   0.836
 4229TIP3    H212652   4.736   0.074   0.806
 4230TIP3   OH212653   6.011   0.196   4.709
 4230TIP3    H112654   5.999   0.197   4.614
 4230TIP3    H212655   6.098   0.234   4.723
 4231TIP3   OH212656   2.455   0.651   2.930
 4231TIP3    H112657   2.463   0.636   3.024
 4231TIP3    H212658   2.373   0.609   2.906
 4232TIP3   OH212659   4.907   0.650   5.325
 4232TIP3    H112660   4.872   0.663   5.413
 4232TIP3    H212661   4.830   0.653   5.268
 4233TIP3   OH212662   4.778   3.320   4.681
 4233TIP3    H112663   4.688   3.287   4.681
 4233TIP3    H212664   4.820   3.279   4.756
 4234TIP3   OH212665   4.610   6.511   2.901
 4234TIP3    H112666   4.549   6.525   2.828
 4234TIP3    H212667   4.697   6.513   2.860
 4235TIP3   OH212668   4.631   2.562   0.965
 4235TIP3    H112669   4.671   2.492   1.016
 4235TIP3    H212670   4.538   2.539   0.963
 4236TIP3   OH212671   1.220   1.692   1.807
 4236TIP3    H112672   1.192   1.665   1.719
 4236TIP3    H212673   1.252   1.781   1.796
 4237TIP3   OH212674   7.221   6.414   2.163
 4237TIP3    H112675   7.217   6.498   2.117
 4237TIP3    H212676   7.136   6.406   2.206
 4238TIP3   OH212677   1.206   2.595   4.923
 4238TIP3    H112678   1.162   2.525   4.970
 4238TIP3    H212679   1.162   2.675   4.952
 4239TIP3   OH212680   7.143   3.543   3.277
 4239TIP3    H112681   7.151   3.546   3.182
 4239TIP3    H212682   7.061   3.590   3.296
 4240TIP3   OH212683   2.442   0.058   5.633
 4240TIP3    H112684   2.381   0.131   5.622
 4240TIP3    H212685   2.436   0.035   5.726
 4241TIP3   OH212686   5.645   6.051   3.228
 4241TIP3    H112687   5.662   6.061   3.135
 4241TIP3    H212688   5.697   6.119   3.270
 4242TIP3   OH212689   2.098   0.151   1.708
 4242TIP3    H112690   2.043   0.176   1.783
 4242TIP3    H212691   2.104   0.056   1.713
 4243TIP3   OH212692   5.816   2.182   2.942
 4243TIP3    H112693   5.734   2.195   2.990
 4243TIP3    H212694   5.885   2.202   3.007
 4244TIP3   OH212695   6.191   4.341   0.612
 4244TIP3    H112696   6.115   4.295   0.649
 4244TIP3    H212697   6.266   4.305   0.659
 4245TIP3   OH212698   1.164   5.945   4.991
 4245TIP3    H112699   1.124   5.859   5.004
 4245TIP3    H212700   1.094   5.999   4.955
 4246TIP3   OH212701   2.648   4.718   4.813
 4246TIP3    H112702   2.736   4.681   4.809
 4246TIP3    H212703   2.595   4.651   4.855
 4247TIP3   OH212704   2.321   3.719   1.179
 4247TIP3    H112705   2.237   3.711   1.133
 4247TIP3    H212706   2.381   3.665   1.129
 4248TIP3   OH212707   4.586   4.809   2.592
 4248TIP3    H112708   4.670   4.853   2.596
 4248TIP3    H212709   4.601   4.732   2.537
 4249TIP3   OH212710   0.551   4.032   4.622
 4249TIP3    H112711   0.600   3.999   4.547
 4249TIP3    H212712   0.562   3.966   4.689
 4250TIP3   OH212713   2.990   0.858   0.685
 4250TIP3    H112714   3.017   0.896   0.601
 4250TIP3    H212715   2.946   0.930   0.730
 4251TIP3   OH212716   1.193   2.456   3.727
 4251TIP3    H112717   1.171   2.546   3.702
 4251TIP3    H212718   1.109   2.418   3.752
 4252TIP3   OH212719   7.106   4.737   3.396
 4252TIP3    H112720   7.035   4.765   3.339
 4252TIP3    H212721   7.186   4.765   3.350
 4253TIP3   OH212722   0.439   5.133   2.290
 4253TIP3    H112723   0.386   5.210   2.309
 4253TIP3    H212724   0.530   5.162   2.297
 4254TIP3   OH212725   4.041   5.037   2.144
 4254TIP3    H112726   4.027   5.083   2.228
 4254TIP3    H212727   3.965   4.980   2.135
 4255TIP3   OH212728   4.233   5.178   1.969
 4255TIP3    H112729   4.165   5.193   2.035
 4255TIP3    H212730   4.208   5.096   1.927
 4256TIP3   OH212731   3.591   5.824   3.228
 4256TIP3    H112732   3.622   5.805   3.317
 4256TIP3    H212733   3.520   5.762   3.214
 4257TIP3   OH212734   2.741   2.686   1.130
 4257TIP3    H112735   2.780   2.658   1.047
 4257TIP3    H212736   2.701   2.607   1.165
 4258TIP3   OH212737   4.336   6.037   4.661
 4258TIP3    H112738   4.355   6.129   4.646
 4258TIP3    H212739   4.422   5.995   4.667
 4259TIP3   OH212740   0.668   1.744   0.153
 4259TIP3    H112741   0.635   1.829   0.180
 4259TIP3    H212742   0.593   1.700   0.114
 4260TIP3   OH212743   4.255   3.516   4.161
 4260TIP3    H112744   4.174   3.549   4.122
 4260TIP3    H212745   4.243   3.421   4.165
 4261TIP3   OH212746   0.768   3.525   2.648
 4261TIP3    H112747   0.771   3.620   2.647
 4261TIP3    H212748   0.795   3.499   2.560
 4262TIP3   OH212749   3.788   1.727   4.484
 4262TIP3    H112750   3.864   1.760   4.437
 4262TIP3    H212751   3.730   1.802   4.493
 4263TIP3   OH212752   6.467   2.910   5.736
 4263TIP3    H112753   6.548   2.897   5.688
 4263TIP3    H212754   6.467   2.841   5.802
 4264TIP3   OH212755   0.535   3.077   2.192
 4264TIP3    H112756   0.522   3.086   2.286
 4264TIP3    H212757   0.594   3.002   2.183
 4265TIP3   OH212758   3.086   1.995   2.079
 4265TIP3    H112759   3.164   2.039   2.044
 4265TIP3    H212760   3.112   1.903   2.087
 4266TIP3   OH212761   5.661   1.478   0.119
 4266TIP3    H112762   5.580   1.502   0.074
 4266TIP3    H212763   5.660   1.530   0.199
 4267TIP3   OH212764   2.219   4.420   0.370
 4267TIP3    H112765   2.292   4.405   0.310
 4267TIP3    H212766   2.260   4.445   0.453
 4268TIP3   OH212767   6.892   1.296   1.571
 4268TIP3    H112768   6.830   1.297   1.644
 4268TIP3    H212769   6.957   1.363   1.592
 4269TIP3   OH212770   6.555   2.216   4.676
 4269TIP3    H112771   6.628   2.189   4.621
 4269TIP3    H212772   6.567   2.166   4.757
 4270TIP3   OH212773   0.931   0.895   1.052
 4270TIP3    H112774   0.938   0.912   0.958
 4270TIP3    H212775   0.986   0.962   1.092
 4271TIP3   OH212776   1.656   0.034   4.093
 4271TIP3    H112777   1.566   0.065   4.090
 4271TIP3    H212778   1.706   0.104   4.052
 4272TIP3   OH212779   0.747   0.156   2.357
 4272TIP3    H112780   0.720   0.234   2.406
 4272TIP3    H212781   0.675   0.095   2.368
 4273TIP3   OH212782   1.145   5.920   2.787
 4273TIP3    H112783   1.230   5.906   2.829
 4273TIP3    H212784   1.153   5.874   2.703
 4274TIP3   OH212785   0.772   2.491   4.771
 4274TIP3    H112786   0.815   2.463   4.690
 4274TIP3    H212787   0.829   2.458   4.841
 4275TIP3   OH212788   5.651   5.285   5.214
 4275TIP3    H112789   5.674   5.302   5.123
 4275TIP3    H212790   5.683   5.361   5.262
 4276TIP3   OH212791   1.418   1.554   2.942
 4276TIP3    H112792   1.481   1.504   2.994
 4276TIP3    H212793   1.468   1.585   2.867
 4277TIP3   OH212794   5.452   0.953   4.738
 4277TIP3    H112795   5.386   1.017   4.763
 4277TIP3    H212796   5.411   0.902   4.668
 4278TIP3   OH212797   0.951   4.340   2.083
 4278TIP3    H112798   0.930   4.405   2.016
 4278TIP3    H212799   0.875   4.281   2.084
 4279TIP3   OH212800   0.881   0.150   3.196
 4279TIP3    H112801   0.832   0.117   3.271
 4279TIP3    H212802   0.845   0.236   3.178
 4280TIP3   OH212803   2.081   3.387   5.320
 4280TIP3    H112804   2.165   3.377   5.364
 4280TIP3    H212805   2.027   3.434   5.384
 4281TIP3   OH212806   4.087   1.200   2.841
 4281TIP3    H112807   4.151   1.140   2.880
 4281TIP3    H212808   4.010   1.145   2.824
 4282TIP3   OH212809   1.465   0.824   2.981
 4282TIP3    H112810   1.479   0.909   2.939
 4282TIP3    H212811   1.553   0.796   3.009
 4283TIP3   OH212812   2.085   1.057   5.448
 4283TIP3    H112813   2.113   1.000   5.520
 4283TIP3    H212814   2.011   1.011   5.408
 4284TIP3   OH212815   3.028   4.472   5.605
 4284TIP3    H112816   3.036   4.544   5.668
 4284TIP3    H212817   3.041   4.512   5.520
 4285TIP3   OH212818   3.181   2.204   0.458
 4285TIP3    H112819   3.101   2.204   0.510
 4285TIP3    H212820   3.211   2.113   0.460
 4286TIP3   OH212821   5.978   4.231   0.746
 4286TIP3    H112822   5.910   4.299   0.753
 4286TIP3    H212823   5.979   4.189   0.832
 4287TIP3   OH212824   5.873   2.401   2.349
 4287TIP3    H112825   5.857   2.319   2.302
 4287TIP3    H212826   5.920   2.456   2.285
 4288TIP3   OH212827   5.635   4.733   4.207
 4288TIP3    H112828   5.727   4.758   4.198
 4288TIP3    H212829   5.634   4.639   4.188
 4289TIP3   OH212830   5.019   1.909   3.429
 4289TIP3    H112831   4.926   1.928   3.420
 4289TIP3    H212832   5.056   1.988   3.469
 4290TIP3   OH212833   2.004   3.540   3.890
 4290TIP3    H112834   2.083   3.547   3.942
 4290TIP3    H212835   1.958   3.465   3.927
 4291TIP3   OH212836   3.880   2.282   3.233
 4291TIP3    H112837   3.946   2.340   3.270
 4291TIP3    H212838   3.893   2.287   3.139
 4292TIP3   OH212839   3.387   3.573   1.167
 4292TIP3    H112840   3.322   3.531   1.223
 4292TIP3    H212841   3.338   3.597   1.088
 4293TIP3   OH212842   3.309   0.387   5.234
 4293TIP3    H112843   3.290   0.396   5.327
 4293TIP3    H212844   3.329   0.476   5.204
 4294TIP3   OH212845   3.236   4.320   1.628
 4294TIP3    H112846   3.149   4.348   1.600
 4294TIP3    H212847   3.295   4.388   1.594
 4295TIP3   OH212848   6.398   3.214   5.471
 4295TIP3    H112849   6.366   3.302   5.491
 4295TIP3    H212850   6.326   3.156   5.497
 4296TIP3   OH212851   6.477   3.209   1.883
 4296TIP3    H112852   6.451   3.283   1.938
 4296TIP3    H212853   6.557   3.239   1.839
 4297TIP3   OH212854   4.601   2.757   3.450
 4297TIP3    H112855   4.689   2.791   3.436
 4297TIP3    H212856   4.613   2.664   3.465
 4298TIP3   OH212857   3.496   4.862   1.123
 4298TIP3    H112858   3.546   4.943   1.110
 4298TIP3    H212859   3.428   4.865   1.055
 4299TIP3   OH212860   2.988   5.677   5.869
 4299TIP3    H112861   2.934   5.729   5.930
 4299TIP3    H212862   3.016   5.741   5.803
 4300TIP3   OH212863   2.342   3.496   3.482
 4300TIP3    H112864   2.408   3.436   3.448
 4300TIP3    H212865   2.278   3.505   3.411
 4301TIP3   OH212866   4.799   5.791   4.476
 4301TIP3    H112867   4.814   5.720   4.414
 4301TIP3    H212868   4.815   5.751   4.562
 4302TIP3   OH212869   2.146   4.895   5.646
 4302TIP3    H112870   2.132   4.990   5.645
 4302TIP3    H212871   2.194   4.879   5.727
 4303TIP3   OH212872   6.028   5.121   3.241
 4303TIP3    H112873   6.100   5.184   3.251
 4303TIP3    H212874   5.953   5.165   3.281
 4304TIP3   OH212875   7.244   6.052   3.444
 4304TIP3    H112876   7.150   6.064   3.431
 4304TIP3    H212877   7.251   5.962   3.478
 4305TIP3   OH212878   6.705   2.113   2.772
 4305TIP3    H112879   6.700   2.040   2.834
 4305TIP3    H212880   6.682   2.190   2.823
 4306TIP3   OH212881   1.959   4.820   5.023
 4306TIP3    H112882   2.043   4.778   5.041
 4306TIP3    H212883   1.976   4.877   4.948
 4307TIP3   OH212884   7.028   5.470   1.670
 4307TIP3    H112885   7.054   5.561   1.664
 4307TIP3    H212886   6.993   5.449   1.583
 4308TIP3   OH212887   6.825   5.476   1.965
 4308TIP3    H112888   6.757   5.480   2.033
 4308TIP3    H212889   6.776   5.481   1.883
 4309TIP3   OH212890   1.802   4.009   0.288
 4309TIP3    H112891   1.883   3.993   0.338
 4309TIP3    H212892   1.781   4.100   0.307
 4310TIP3   OH212893   1.242   3.781   5.335
 4310TIP3    H112894   1.167   3.824   5.293
 4310TIP3    H212895   1.211   3.693   5.355
 4311TIP3   OH212896   2.135   0.265   3.402
 4311TIP3    H112897   2.098   0.178   3.417
 4311TIP3    H212898   2.215   0.267   3.454
 4312TIP3   OH212899   2.643   3.170   1.279
 4312TIP3    H112900   2.643   3.218   1.196
 4312TIP3    H212901   2.645   3.078   1.253
 4313TIP3   OH212902   5.186   1.599   1.455
 4313TIP3    H112903   5.146   1.675   1.496
 4313TIP3    H212904   5.245   1.564   1.521
 4314TIP3   OH212905   2.490   0.978   5.565
 4314TIP3    H112906   2.518   1.052   5.511
 4314TIP3    H212907   2.563   0.916   5.562
 4315TIP3   OH212908   0.303   0.376   1.248
 4315TIP3    H112909   0.352   0.398   1.169
 4315TIP3    H212910   0.286   0.460   1.290
 4316TIP3   OH212911   0.762   2.838   3.259
 4316TIP3    H112912   0.844   2.798   3.289
 4316TIP3    H212913   0.700   2.820   3.329
 4317TIP3   OH212914   1.993   0.343   5.691
 4317TIP3    H112915   1.915   0.393   5.716
 4317TIP3    H212916   2.055   0.410   5.661
 4318TIP3   OH212917   1.837   3.104   0.310
 4318TIP3    H112918   1.772   3.066   0.251
 4318TIP3    H212919   1.894   3.156   0.254
 4319TIP3   OH212920   3.257   5.500   4.104
 4319TIP3    H112921   3.330   5.480   4.164
 4319TIP3    H212922   3.287   5.577   4.056
 4320TIP3   OH212923   5.603   6.299   4.502
 4320TIP3    H112924   5.523   6.291   4.449
 4320TIP3    H212925   5.632   6.389   4.488
 4321TIP3   OH212926  -0.026   6.164   1.008
 4321TIP3    H112927   0.010   6.245   0.972
 4321TIP3    H212928  -0.025   6.103   0.935
 4322TIP3   OH212929   3.635   1.723   2.923
 4322TIP3    H112930   3.659   1.807   2.884
 4322TIP3    H212931   3.719   1.683   2.946
 4323TIP3   OH212932   4.119   3.751   4.906
 4323TIP3    H112933   4.189   3.783   4.963
 4323TIP3    H212934   4.164   3.695   4.842
 4324TIP3   OH212935   3.010   0.593   2.000
 4324TIP3    H112936   3.038   0.529   2.066
 4324TIP3    H212937   2.941   0.548   1.951
 4325TIP3   OH212938   5.860   0.202   4.935
 4325TIP3    H112939   5.916   0.209   4.858
 4325TIP3    H212940   5.833   0.110   4.937
 4326TIP3   OH212941   1.186   4.860   4.552
 4326TIP3    H112942   1.212   4.801   4.481
 4326TIP3    H212943   1.094   4.879   4.534
 4327TIP3   OH212944   3.117   3.701   2.159
 4327TIP3    H112945   3.046   3.660   2.109
 4327TIP3    H212946   3.147   3.772   2.103
 4328TIP3   OH212947   6.104   0.225   1.725
 4328TIP3    H112948   6.182   0.192   1.769
 4328TIP3    H212949   6.097   0.171   1.646
 4329TIP3   OH212950   6.266   4.017   0.058
 4329TIP3    H112951   6.301   4.028   0.146
 4329TIP3    H212952   6.336   3.976   0.008
 4330TIP3   OH212953   3.559   4.844   3.601
 4330TIP3    H112954   3.575   4.818   3.510
 4330TIP3    H212955   3.646   4.866   3.635
 4331TIP3   OH212956   2.356   5.561   0.947
 4331TIP3    H112957   2.304   5.583   0.870
 4331TIP3    H212958   2.396   5.477   0.926
 4332TIP3   OH212959   3.832   2.083   2.191
 4332TIP3    H112960   3.870   2.141   2.257
 4332TIP3    H212961   3.745   2.119   2.174
 4333TIP3   OH212962   4.739   4.994   1.113
 4333TIP3    H112963   4.781   5.041   1.041
 4333TIP3    H212964   4.713   4.910   1.076
 4334TIP3   OH212965   0.861   1.415   5.493
 4334TIP3    H112966   0.857   1.363   5.413
 4334TIP3    H212967   0.899   1.498   5.465
 4335TIP3   OH212968   6.775   5.478   0.832
 4335TIP3    H112969   6.715   5.535   0.785
 4335TIP3    H212970   6.788   5.403   0.775
 4336TIP3   OH212971   4.471   0.157   0.903
 4336TIP3    H112972   4.473   0.197   0.990
 4336TIP3    H212973   4.561   0.126   0.889
 4337TIP3   OH212974   2.255   3.761   3.546
 4337TIP3    H112975   2.303   3.679   3.560
 4337TIP3    H212976   2.175   3.734   3.502
 4338TIP3   OH212977   5.256   3.877   4.733
 4338TIP3    H112978   5.257   3.936   4.657
 4338TIP3    H212979   5.263   3.935   4.808
 4339TIP3   OH212980   1.494   4.391   2.877
 4339TIP3    H112981   1.438   4.463   2.847
 4339TIP3    H212982   1.480   4.321   2.813
 4340TIP3   OH212983   3.704   2.135   0.331
 4340TIP3    H112984   3.704   2.199   0.259
 4340TIP3    H212985   3.618   2.094   0.326
 4341TIP3   OH212986   2.412   6.589   5.045
 4341TIP3    H112987   2.459   6.505   5.049
 4341TIP3    H212988   2.471   6.652   5.086
 4342TIP3   OH212989   0.933   5.176   0.537
 4342TIP3    H112990   0.873   5.204   0.607
 4342TIP3    H212991   0.929   5.246   0.472
 4343TIP3   OH212992   2.293   3.921   1.385
 4343TIP3    H112993   2.259   3.845   1.337
 4343TIP3    H212994   2.370   3.949   1.335
 4344TIP3   OH212995   6.894   0.363   2.302
 4344TIP3    H112996   6.874   0.456   2.291
 4344TIP3    H212997   6.989   0.356   2.292
 4345TIP3   OH212998   4.267   3.236   4.106
 4345TIP3    H112999   4.208   3.170   4.069
 4345TIP3    H213000   4.308   3.277   4.030
 4346TIP3   OH213001   5.020   4.478   1.047
 4346TIP3    H113002   5.089   4.443   0.991
 4346TIP3    H213003   4.939   4.438   1.014
 4347TIP3   OH213004   2.133   6.134   3.108
 4347TIP3    H113005   2.228   6.142   3.110
 4347TIP3    H213006   2.117   6.051   3.062
 4348TIP3   OH213007   2.861   6.228   1.082
 4348TIP3    H113008   2.814   6.179   1.015
 4348TIP3    H213009   2.949   6.190   1.084
 4349TIP3   OH213010   1.455   2.041   3.274
 4349TIP3    H113011   1.417   1.977   3.214
 4349TIP3    H213012   1.389   2.111   3.280
 4350TIP3   OH213013   2.501   2.615   0.393
 4350TIP3    H113014   2.450   2.673   0.336
 4350TIP3    H213015   2.453   2.532   0.392
 4351TIP3   OH213016   2.048   4.628   4.159
 4351TIP3    H113017   1.962   4.587   4.166
 4351TIP3    H213018   2.030   4.713   4.119
 4352TIP3   OH213019   5.913   6.507   4.968
 4352TIP3    H113020   5.878   6.418   4.971
 4352TIP3    H213021   5.912   6.530   4.875
 4353TIP3   OH213022   6.925   4.347   5.208
 4353TIP3    H113023   6.859   4.277   5.212
 4353TIP3    H213024   6.993   4.318   5.269
 4354TIP3   OH213025   3.383   6.172   0.763
 4354TIP3    H113026   3.314   6.175   0.697
 4354TIP3    H213027   3.450   6.233   0.731
 4355TIP3   OH213028   5.949   4.741   5.562
 4355TIP3    H113029   6.042   4.720   5.567
 4355TIP3    H213030   5.924   4.721   5.471
 4356TIP3   OH213031   1.428   2.231   4.153
 4356TIP3    H113032   1.459   2.173   4.223
 4356TIP3    H213033   1.437   2.179   4.074
 4357TIP3   OH213034   6.126   2.182   5.738
 4357TIP3    H113035   6.065   2.240   5.782
 4357TIP3    H213036   6.107   2.095   5.775
 4358TIP3   OH213037   2.606   5.122   4.482
 4358TIP3    H113038   2.596   5.214   4.456
 4358TIP3    H213039   2.535   5.077   4.437
 4359TIP3   OH213040   0.116   4.699   1.484
 4359TIP3    H113041   0.191   4.659   1.528
 4359TIP3    H213042   0.049   4.631   1.485
 4360TIP3   OH213043   2.550   5.570   0.061
 4360TIP3    H113044   2.569   5.513  -0.014
 4360TIP3    H213045   2.633   5.579   0.107
 4361TIP3   OH213046   3.420   6.688   5.113
 4361TIP3    H113047   3.457   6.630   5.047
 4361TIP3    H213048   3.359   6.744   5.065
 4362TIP3   OH213049   4.942   2.394   2.471
 4362TIP3    H113050   4.881   2.410   2.398
 4362TIP3    H213051   4.887   2.397   2.549
 4363TIP3   OH213052   3.371   3.428   5.274
 4363TIP3    H113053   3.380   3.334   5.260
 4363TIP3    H213054   3.291   3.452   5.228
 4364TIP3   OH213055   6.689   0.977   1.028
 4364TIP3    H113056   6.625   1.047   1.042
 4364TIP3    H213057   6.655   0.903   1.077
 4365TIP3   OH213058   1.821   3.732   2.879
 4365TIP3    H113059   1.778   3.701   2.959
 4365TIP3    H213060   1.845   3.822   2.898
 4366TIP3   OH213061   0.849   1.032   5.145
 4366TIP3    H113062   0.759   1.063   5.145
 4366TIP3    H213063   0.843   0.941   5.174
 4367TIP3   OH213064   0.275   3.186   0.590
 4367TIP3    H113065   0.250   3.095   0.606
 4367TIP3    H213066   0.243   3.205   0.501
 4368TIP3   OH213067   0.722   1.602   5.880
 4368TIP3    H113068   0.725   1.560   5.794
 4368TIP3    H213069   0.791   1.669   5.876
 4369TIP3   OH213070   7.072   0.600   0.240
 4369TIP3    H113071   7.013   0.525   0.234
 4369TIP3    H213072   7.044   0.646   0.320
 4370TIP3   OH213073   1.463   1.844   3.985
 4370TIP3    H113074   1.475   1.937   3.966
 4370TIP3    H213075   1.426   1.808   3.904
 4371TIP3   OH213076   1.600   5.220   4.705
 4371TIP3    H113077   1.627   5.300   4.750
 4371TIP3    H213078   1.655   5.216   4.627
 4372TIP3   OH213079   2.131   6.479   2.455
 4372TIP3    H113080   2.091   6.565   2.446
 4372TIP3    H213081   2.088   6.439   2.531
 4373TIP3   OH213082   1.751   2.774   1.994
 4373TIP3    H113083   1.713   2.708   1.935
 4373TIP3    H213084   1.675   2.821   2.028
 4374TIP3   OH213085   4.265   1.281   0.622
 4374TIP3    H113086   4.171   1.277   0.638
 4374TIP3    H213087   4.278   1.363   0.574
 4375TIP3   OH213088   6.124   5.826   2.729
 4375TIP3    H113089   6.133   5.912   2.689
 4375TIP3    H213090   6.033   5.802   2.712
 4376TIP3   OH213091   2.563   2.478   3.155
 4376TIP3    H113092   2.621   2.494   3.081
 4376TIP3    H213093   2.601   2.403   3.201
 4377TIP3   OH213094   1.479   2.393   2.317
 4377TIP3    H113095   1.521   2.408   2.402
 4377TIP3    H213096   1.397   2.347   2.339
 4378TIP3   OH213097   4.733   5.349   2.535
 4378TIP3    H113098   4.822   5.383   2.538
 4378TIP3    H213099   4.718   5.328   2.443
 4379TIP3   OH213100   7.239   4.216   1.031
 4379TIP3    H113101   7.206   4.303   1.055
 4379TIP3    H213102   7.177   4.155   1.072
 4380TIP3   OH213103   2.577   0.853   4.121
 4380TIP3    H113104   2.672   0.844   4.123
 4380TIP3    H213105   2.561   0.947   4.132
 4381TIP3   OH213106   2.605   3.524   2.558
 4381TIP3    H113107   2.526   3.548   2.606
 4381TIP3    H213108   2.586   3.547   2.467
 4382TIP3   OH213109   0.322   4.641   0.237
 4382TIP3    H113110   0.334   4.546   0.237
 4382TIP3    H213111   0.330   4.667   0.145
 4383TIP3   OH213112   5.466   1.826   4.050
 4383TIP3    H113113   5.523   1.899   4.075
 4383TIP3    H213114   5.384   1.844   4.095
 4384TIP3   OH213115   1.939   4.645   1.617
 4384TIP3    H113116   1.926   4.738   1.636
 4384TIP3    H213117   2.032   4.631   1.631
 4385TIP3   OH213118   6.114   0.646   3.148
 4385TIP3    H113119   6.150   0.727   3.184
 4385TIP3    H213120   6.174   0.622   3.078
 4386TIP3   OH213121   5.241   6.322   1.168
 4386TIP3    H113122   5.242   6.319   1.263
 4386TIP3    H213123   5.170   6.264   1.142
 4387TIP3   OH213124   3.474   4.670   2.269
 4387TIP3    H113125   3.473   4.750   2.215
 4387TIP3    H213126   3.481   4.702   2.359
 4388TIP3   OH213127   1.658   4.519   4.358
 4388TIP3    H113128   1.707   4.598   4.377
 4388TIP3    H213129   1.641   4.523   4.264
 4389TIP3   OH213130   3.907   4.766   5.425
 4389TIP3    H113131   3.877   4.825   5.356
 4389TIP3    H213132   3.987   4.807   5.458
 4390TIP3   OH213133   2.370   0.372   3.523
 4390TIP3    H113134   2.366   0.465   3.502
 4390TIP3    H213135   2.446   0.363   3.581
 4391TIP3   OH213136   2.968   0.956   0.229
 4391TIP3    H113137   3.045   1.011   0.212
 4391TIP3    H213138   2.933   0.988   0.312
 4392TIP3   OH213139   4.710   1.312   3.615
 4392TIP3    H113140   4.697   1.231   3.566
 4392TIP3    H213141   4.625   1.357   3.609
 4393TIP3   OH213142   4.091   0.088   2.855
 4393TIP3    H113143   4.136   0.171   2.841
 4393TIP3    H213144   4.081   0.081   2.950
 4394TIP3   OH213145   4.150   6.509   4.148
 4394TIP3    H113146   4.246   6.504   4.145
 4394TIP3    H213147   4.131   6.601   4.164
 4395TIP3   OH213148   6.306   1.098   4.655
 4395TIP3    H113149   6.375   1.163   4.668
 4395TIP3    H213150   6.352   1.019   4.629
 4396TIP3   OH213151   5.293   3.846   3.033
 4396TIP3    H113152   5.357   3.857   3.103
 4396TIP3    H213153   5.256   3.759   3.049
 4397TIP3   OH213154   6.172   2.739   4.242
 4397TIP3    H113155   6.129   2.755   4.325
 4397TIP3    H213156   6.134   2.803   4.182
 4398TIP3   OH213157   0.423   3.215   0.814
 4398TIP3    H113158   0.365   3.186   0.884
 4398TIP3    H213159   0.371   3.204   0.734
 4399TIP3   OH213160   7.032   2.744   2.053
 4399TIP3    H113161   6.959   2.759   1.993
 4399TIP3    H213162   6.991   2.737   2.139
 4400TIP3   OH213163   5.001   2.636   3.069
 4400TIP3    H113164   4.907   2.640   3.086
 4400TIP3    H213165   5.024   2.544   3.085
 4401TIP3   OH213166   3.075   3.169   0.373
 4401TIP3    H113167   3.120   3.085   0.365
 4401TIP3    H213168   3.132   3.221   0.429
 4402TIP3   OH213169   0.462   6.135   4.410
 4402TIP3    H113170   0.394   6.069   4.421
 4402TIP3    H213171   0.475   6.141   4.315
 4403TIP3   OH213172   0.388   4.948   5.559
 4403TIP3    H113173   0.326   5.016   5.534
 4403TIP3    H213174   0.470   4.995   5.573
 4404TIP3   OH213175   4.162   6.555   0.368
 4404TIP3    H113176   4.229   6.568   0.435
 4404TIP3    H213177   4.148   6.461   0.366
 4405TIP3   OH213178   2.052   0.123   2.772
 4405TIP3    H113179   1.972   0.160   2.811
 4405TIP3    H213180   2.024   0.038   2.737
 4406TIP3   OH213181   2.317   1.105   5.777
 4406TIP3    H113182   2.354   1.025   5.739
 4406TIP3    H213183   2.393   1.161   5.793
 4407TIP3   OH213184   6.476   4.922   0.747
 4407TIP3    H113185   6.538   4.904   0.818
 4407TIP3    H213186   6.404   4.861   0.762
 4408TIP3   OH213187   3.539   6.817   5.810
 4408TIP3    H113188   3.610   6.754   5.796
 4408TIP3    H213189   3.459   6.766   5.803
 4409TIP3   OH213190   5.679   2.659   4.068
 4409TIP3    H113191   5.606   2.656   4.130
 4409TIP3    H213192   5.706   2.568   4.058
 4410TIP3   OH213193   0.997   1.811   4.011
 4410TIP3    H113194   0.986   1.903   3.986
 4410TIP3    H213195   1.039   1.814   4.096
 4411TIP3   OH213196   2.377   6.064   1.050
 4411TIP3    H113197   2.469   6.055   1.025
 4411TIP3    H213198   2.379   6.085   1.143
 4412TIP3   OH213199   5.813   4.308   5.627
 4412TIP3    H113200   5.791   4.392   5.667
 4412TIP3    H213201   5.898   4.322   5.586
 4413TIP3   OH213202   5.643   3.156   1.662
 4413TIP3    H113203   5.620   3.134   1.752
 4413TIP3    H213204   5.691   3.239   1.669
 4414TIP3   OH213205   0.034   5.341   3.093
 4414TIP3    H113206   0.113   5.301   3.056
 4414TIP3    H213207   0.038   5.319   3.186
 4415TIP3   OH213208   3.437   2.641   3.426
 4415TIP3    H113209   3.450   2.718   3.480
 4415TIP3    H213210   3.342   2.640   3.409
 4416TIP3   OH213211   2.553   5.661   5.339
 4416TIP3    H113212   2.510   5.728   5.285
 4416TIP3    H213213   2.535   5.578   5.294
 4417TIP3   OH213214   4.829   1.041   2.798
 4417TIP3    H113215   4.894   1.047   2.728
 4417TIP3    H213216   4.748   1.016   2.754
 4418TIP3   OH213217   3.385   5.169   3.495
 4418TIP3    H113218   3.461   5.114   3.476
 4418TIP3    H213219   3.334   5.117   3.557
 4419TIP3   OH213220   3.295   5.865   0.327
 4419TIP3    H113221   3.264   5.955   0.319
 4419TIP3    H213222   3.300   5.849   0.421
 4420TIP3   OH213223   2.885   3.522   0.492
 4420TIP3    H113224   2.960   3.567   0.530
 4420TIP3    H213225   2.840   3.483   0.567
 4421TIP3   OH213226   5.746   6.040   5.294
 4421TIP3    H113227   5.659   6.068   5.322
 4421TIP3    H213228   5.797   6.121   5.286
 4422TIP3   OH213229   0.530   4.122   3.796
 4422TIP3    H113230   0.561   4.112   3.706
 4422TIP3    H213231   0.609   4.124   3.849
 4423TIP3   OH213232   5.304   3.222   1.690
 4423TIP3    H113233   5.220   3.255   1.721
 4423TIP3    H213234   5.367   3.288   1.717
 4424TIP3   OH213235   5.495   1.366   1.477
 4424TIP3    H113236   5.485   1.299   1.410
 4424TIP3    H213237   5.444   1.333   1.552
 4425TIP3   OH213238   4.002   1.815   4.327
 4425TIP3    H113239   4.055   1.783   4.253
 4425TIP3    H213240   4.033   1.904   4.341
 4426TIP3   OH213241   6.407   0.617   1.837
 4426TIP3    H113242   6.344   0.547   1.853
 4426TIP3    H213243   6.465   0.616   1.913
 4427TIP3   OH213244   2.386   4.530   3.093
 4427TIP3    H113245   2.293   4.551   3.103
 4427TIP3    H213246   2.398   4.451   3.145
 4428TIP3   OH213247   2.916   2.809   0.326
 4428TIP3    H113248   2.839   2.865   0.332
 4428TIP3    H213249   2.988   2.864   0.359
 4429TIP3   OH213250   5.995   5.742   1.448
 4429TIP3    H113251   5.904   5.714   1.450
 4429TIP3    H213252   5.991   5.837   1.435
 4430TIP3   OH213253   4.663   0.271  -0.019
 4430TIP3    H113254   4.611   0.301  -0.093
 4430TIP3    H213255   4.604   0.278   0.057
 4431TIP3   OH213256   3.198   5.753   5.627
 4431TIP3    H113257   3.135   5.796   5.570
 4431TIP3    H213258   3.177   5.660   5.621
 4432TIP3   OH213259   2.377   4.438   4.418
 4432TIP3    H113260   2.290   4.475   4.402
 4432TIP3    H213261   2.361   4.361   4.472
 4433TIP3   OH213262   4.001   2.903   0.053
 4433TIP3    H113263   4.039   2.917  -0.034
 4433TIP3    H213264   4.066   2.937   0.114
 4434TIP3   OH213265   3.465   4.234   3.382
 4434TIP3    H113266   3.556   4.220   3.358
 4434TIP3    H213267   3.431   4.291   3.313
 4435TIP3   OH213268   5.595   0.738   2.752
 4435TIP3    H113269   5.612   0.823   2.792
 4435TIP3    H213270   5.559   0.759   2.666
 4436TIP3   OH213271   4.969   1.296   5.241
 4436TIP3    H113272   4.964   1.302   5.146
 4436TIP3    H213273   5.010   1.378   5.268
 4437TIP3   OH213274   3.321   5.431   5.233
 4437TIP3    H113275   3.369   5.350   5.251
 4437TIP3    H213276   3.229   5.407   5.248
 4438TIP3   OH213277   4.766   1.912   5.390
 4438TIP3    H113278   4.792   1.905   5.482
 4438TIP3    H213279   4.825   1.977   5.352
 4439TIP3   OH213280   4.856   1.518   2.310
 4439TIP3    H113281   4.917   1.499   2.238
 4439TIP3    H213282   4.791   1.576   2.272
 4440TIP3   OH213283   4.993   0.466   0.735
 4440TIP3    H113284   4.933   0.540   0.727
 4440TIP3    H213285   5.034   0.459   0.648
 4441TIP3   OH213286   1.398   3.347   3.976
 4441TIP3    H113287   1.367   3.322   4.063
 4441TIP3    H213288   1.363   3.280   3.918
 4442TIP3   OH213289   0.491   2.156   2.915
 4442TIP3    H113290   0.432   2.140   2.841
 4442TIP3    H213291   0.557   2.087   2.908
 4443TIP3   OH213292   5.349   4.951   3.023
 4443TIP3    H113293   5.424   4.917   2.974
 4443TIP3    H213294   5.276   4.949   2.960
 4444TIP3   OH213295   4.978   4.506   3.885
 4444TIP3    H113296   4.916   4.447   3.927
 4444TIP3    H213297   4.949   4.594   3.909
 4445TIP3   OH213298   1.020   5.556   2.910
 4445TIP3    H113299   1.114   5.571   2.921
 4445TIP3    H213300   0.988   5.537   2.997
 4446TIP3   OH213301   4.636   0.298   1.420
 4446TIP3    H113302   4.641   0.350   1.340
 4446TIP3    H213303   4.565   0.338   1.470
 4447TIP3   OH213304   6.785   5.802   3.969
 4447TIP3    H113305   6.717   5.744   4.002
 4447TIP3    H213306   6.802   5.772   3.879
 4448TIP3   OH213307   0.785   6.396   2.875
 4448TIP3    H113308   0.824   6.391   2.962
 4448TIP3    H213309   0.856   6.372   2.815
 4449TIP3   OH213310   4.066   6.093   2.872
 4449TIP3    H113311   3.997   6.120   2.932
 4449TIP3    H213312   4.138   6.155   2.887
 4450TIP3   OH213313   0.690   6.162   1.867
 4450TIP3    H113314   0.735   6.079   1.855
 4450TIP3    H213315   0.760   6.226   1.878
 4451TIP3   OH213316   7.023   2.380   1.414
 4451TIP3    H113317   7.103   2.417   1.451
 4451TIP3    H213318   7.043   2.287   1.402
 4452TIP3   OH213319   0.140   2.958   4.519
 4452TIP3    H113320   0.160   2.869   4.547
 4452TIP3    H213321   0.219   2.988   4.474
 4453TIP3   OH213322   3.652   2.509   2.828
 4453TIP3    H113323   3.675   2.487   2.919
 4453TIP3    H213324   3.686   2.598   2.817
 4454TIP3   OH213325   5.189   6.138   4.578
 4454TIP3    H113326   5.174   6.084   4.501
 4454TIP3    H213327   5.122   6.207   4.572
 4455TIP3   OH213328   6.719   2.059   5.713
 4455TIP3    H113329   6.732   2.058   5.808
 4455TIP3    H213330   6.661   1.984   5.696
 4456TIP3   OH213331   4.906   2.579   5.498
 4456TIP3    H113332   4.927   2.596   5.590
 4456TIP3    H213333   4.863   2.493   5.498
 4457TIP3   OH213334   4.524   0.774   3.317
 4457TIP3    H113335   4.619   0.787   3.306
 4457TIP3    H213336   4.503   0.701   3.259
 4458TIP3   OH213337   3.535   1.378   5.841
 4458TIP3    H113338   3.587   1.299   5.852
 4458TIP3    H213339   3.494   1.392   5.927
 4459TIP3   OH213340   6.501   3.434   0.561
 4459TIP3    H113341   6.515   3.450   0.468
 4459TIP3    H213342   6.527   3.515   0.604
 4460TIP3   OH213343   6.410   3.181   2.464
 4460TIP3    H113344   6.457   3.113   2.513
 4460TIP3    H213345   6.398   3.144   2.377
 4461TIP3   OH213346   4.047   5.947   0.526
 4461TIP3    H113347   4.038   5.851   0.529
 4461TIP3    H213348   4.108   5.967   0.597
 4462TIP3   OH213349   2.260   2.132   0.046
 4462TIP3    H113350   2.316   2.124  -0.031
 4462TIP3    H213351   2.173   2.150   0.011
 4463TIP3   OH213352   4.762   4.287   3.899
 4463TIP3    H113353   4.681   4.270   3.852
 4463TIP3    H213354   4.817   4.211   3.880
 4464TIP3   OH213355   2.663   1.490   4.636
 4464TIP3    H113356   2.640   1.493   4.543
 4464TIP3    H213357   2.654   1.581   4.666
 4465TIP3   OH213358   1.117   5.007   0.271
 4465TIP3    H113359   1.190   5.064   0.294
 4465TIP3    H213360   1.149   4.918   0.287
 4466TIP3   OH213361   6.372   3.100   4.988
 4466TIP3    H113362   6.313   3.032   5.022
 4466TIP3    H213363   6.457   3.080   5.027
 4467TIP3   OH213364   1.088   6.020   0.492
 4467TIP3    H113365   1.125   6.107   0.476
 4467TIP3    H213366   1.158   5.959   0.469
 4468TIP3   OH213367   0.270   5.173   3.733
 4468TIP3    H113368   0.286   5.253   3.682
 4468TIP3    H213369   0.249   5.107   3.667
 4469TIP3   OH213370   3.254   4.047   1.647
 4469TIP3    H113371   3.342   4.032   1.679
 4469TIP3    H213372   3.240   4.142   1.657
 4470TIP3   OH213373   4.576   0.345   3.874
 4470TIP3    H113374   4.597   0.424   3.824
 4470TIP3    H213375   4.658   0.296   3.878
 4471TIP3   OH213376   0.071   6.640   4.096
 4471TIP3    H113377   0.016   6.562   4.090
 4471TIP3    H213378   0.009   6.711   4.116
 4472TIP3   OH213379   4.738   1.928   2.284
 4472TIP3    H113380   4.659   1.945   2.336
 4472TIP3    H213381   4.789   1.867   2.338
 4473TIP3   OH213382   0.092   1.245   2.580
 4473TIP3    H113383   0.182   1.270   2.599
 4473TIP3    H213384   0.064   1.307   2.512
 4474TIP3   OH213385   2.110   2.328   1.963
 4474TIP3    H113386   2.019   2.358   1.956
 4474TIP3    H213387   2.104   2.248   2.016
 4475TIP3   OH213388   5.145   0.985   5.465
 4475TIP3    H113389   5.222   1.040   5.478
 4475TIP3    H213390   5.101   1.023   5.389
 4476TIP3   OH213391   5.580   4.324   3.379
 4476TIP3    H113392   5.635   4.289   3.309
 4476TIP3    H213393   5.570   4.251   3.440
 4477TIP3   OH213394   6.527   3.724   5.586
 4477TIP3    H113395   6.581   3.727   5.664
 4477TIP3    H213396   6.442   3.692   5.616
 4478TIP3   OH213397   2.717   2.789   2.969
 4478TIP3    H113398   2.787   2.851   2.991
 4478TIP3    H213399   2.669   2.830   2.898
 4479TIP3   OH213400   3.760   3.760   3.482
 4479TIP3    H113401   3.777   3.712   3.401
 4479TIP3    H213402   3.741   3.849   3.453
 4480TIP3   OH213403   3.692   3.502   1.096
 4480TIP3    H113404   3.600   3.525   1.101
 4480TIP3    H213405   3.697   3.411   1.124
 4481TIP3   OH213406   5.904   2.228   4.132
 4481TIP3    H113407   5.876   2.139   4.155
 4481TIP3    H213408   5.955   2.257   4.208
 4482TIP3   OH213409   3.335   2.702   0.179
 4482TIP3    H113410   3.384   2.670   0.104
 4482TIP3    H213411   3.386   2.672   0.255
 4483TIP3   OH213412   0.304   4.373   0.145
 4483TIP3    H113413   0.270   4.380   0.056
 4483TIP3    H213414   0.234   4.330   0.194
 4484TIP3   OH213415   6.888   6.291   1.252
 4484TIP3    H113416   6.900   6.318   1.161
 4484TIP3    H213417   6.893   6.196   1.249
 4485TIP3   OH213418   4.594   5.860   0.994
 4485TIP3    H113419   4.587   5.838   1.087
 4485TIP3    H213420   4.578   5.777   0.948
 4486TIP3   OH213421   7.060   1.631   1.005
 4486TIP3    H113422   7.127   1.608   1.070
 4486TIP3    H213423   7.094   1.596   0.923
 4487TIP3   OH213424   0.963   4.080   2.204
 4487TIP3    H113425   0.936   4.170   2.220
 4487TIP3    H213426   0.949   4.067   2.110
 4488TIP3   OH213427   3.340   3.940   2.589
 4488TIP3    H113428   3.326   3.926   2.496
 4488TIP3    H213429   3.310   3.860   2.631
 4489TIP3   OH213430   4.486   2.345   5.505
 4489TIP3    H113431   4.449   2.274   5.557
 4489TIP3    H213432   4.416   2.370   5.444
 4490TIP3   OH213433   5.619   6.309   5.108
 4490TIP3    H113434   5.578   6.392   5.133
 4490TIP3    H213435   5.572   6.243   5.159
 4491TIP3   OH213436   0.934   3.181   2.932
 4491TIP3    H113437   0.950   3.118   3.003
 4491TIP3    H213438   0.968   3.139   2.854
 4492TIP3   OH213439   2.580   4.251   1.073
 4492TIP3    H113440   2.580   4.179   1.010
 4492TIP3    H213441   2.537   4.216   1.150
 4493TIP3   OH213442   4.627   2.763   1.466
 4493TIP3    H113443   4.583   2.759   1.381
 4493TIP3    H213444   4.597   2.846   1.504
 4494TIP3   OH213445   1.843   0.989   2.034
 4494TIP3    H113446   1.926   0.942   2.032
 4494TIP3    H213447   1.778   0.921   2.052
 4495TIP3   OH213448   5.064   0.070   0.191
 4495TIP3    H113449   4.970   0.077   0.205
 4495TIP3    H213450   5.074   0.009   0.118
 4496TIP3   OH213451   3.061   6.285   2.459
 4496TIP3    H113452   3.081   6.317   2.371
 4496TIP3    H213453   2.968   6.263   2.456
 4497TIP3   OH213454   4.482   5.106   1.580
 4497TIP3    H113455   4.547   5.129   1.513
 4497TIP3    H213456   4.409   5.068   1.531
 4498TIP3   OH213457   4.034   2.412   4.024
 4498TIP3    H113458   3.993   2.326   4.008
 4498TIP3    H213459   4.065   2.406   4.114
 4499TIP3   OH213460   3.571   5.366   1.174
 4499TIP3    H113461   3.664   5.378   1.156
 4499TIP3    H213462   3.540   5.452   1.205
 4500TIP3   OH213463   3.711   2.197   5.336
 4500TIP3    H113464   3.636   2.256   5.345
 4500TIP3    H213465   3.674   2.118   5.295
 4501TIP3   OH213466   6.901   1.709   5.344
 4501TIP3    H113467   6.933   1.799   5.347
 4501TIP3    H213468   6.924   1.678   5.256
 4502TIP3   OH213469   1.922   2.937   5.130
 4502TIP3    H113470   1.862   2.935   5.204
 4502TIP3    H213471   1.934   3.031   5.112
 4503TIP3   OH213472   5.263   1.467   2.798
 4503TIP3    H113473   5.240   1.527   2.869
 4503TIP3    H213474   5.341   1.506   2.758
 4504TIP3   OH213475   2.811   3.780   1.671
 4504TIP3    H113476   2.828   3.869   1.703
 4504TIP3    H213477   2.716   3.769   1.682
 4505TIP3   OH213478   1.829   5.358   5.135
 4505TIP3    H113479   1.742   5.378   5.167
 4505TIP3    H213480   1.817   5.282   5.079
 4506TIP3   OH213481   2.062   3.054   2.447
 4506TIP3    H113482   2.154   3.059   2.473
 4506TIP3    H213483   2.025   2.986   2.503
 4507TIP3   OH213484   2.697   1.050   3.432
 4507TIP3    H113485   2.654   1.019   3.352
 4507TIP3    H213486   2.626   1.087   3.484
 4508TIP3   OH213487   1.474   5.810   2.621
 4508TIP3    H113488   1.534   5.816   2.547
 4508TIP3    H213489   1.396   5.857   2.593
 4509TIP3   OH213490   5.015   2.368   5.017
 4509TIP3    H113491   4.932   2.416   5.009
 4509TIP3    H213492   5.003   2.292   4.960
 4510TIP3   OH213493   7.118   2.873   0.566
 4510TIP3    H113494   7.027   2.901   0.577
 4510TIP3    H213495   7.112   2.781   0.541
 4511TIP3   OH213496   4.903   0.953   1.272
 4511TIP3    H113497   4.819   0.988   1.244
 4511TIP3    H213498   4.890   0.931   1.365
 4512TIP3   OH213499   2.103   6.317   0.471
 4512TIP3    H113500   2.178   6.299   0.526
 4512TIP3    H213501   2.140   6.338   0.385
 4513TIP3   OH213502   2.823   6.051   3.160
 4513TIP3    H113503   2.895   6.077   3.102
 4513TIP3    H213504   2.799   6.132   3.205
 4514TIP3   OH213505   6.735   4.416   3.030
 4514TIP3    H113506   6.713   4.442   3.120
 4514TIP3    H213507   6.764   4.325   3.038
 4515TIP3   OH213508   3.631   4.360   2.832
 4515TIP3    H113509   3.551   4.327   2.792
 4515TIP3    H213510   3.697   4.354   2.763
 4516TIP3   OH213511   4.068   2.414   3.377
 4516TIP3    H113512   4.110   2.458   3.451
 4516TIP3    H213513   4.139   2.361   3.339
 4517TIP3   OH213514   0.766   2.326   4.516
 4517TIP3    H113515   0.681   2.347   4.478
 4517TIP3    H213516   0.829   2.376   4.464
 4518TIP3   OH213517   6.194   1.647   2.470
 4518TIP3    H113518   6.208   1.592   2.393
 4518TIP3    H213519   6.279   1.651   2.512
 4519TIP3   OH213520   1.108   2.734   3.689
 4519TIP3    H113521   1.092   2.817   3.734
 4519TIP3    H213522   1.173   2.755   3.622
 4520TIP3   OH213523   3.644   0.115   2.069
 4520TIP3    H113524   3.715   0.080   2.016
 4520TIP3    H213525   3.583   0.153   2.006
 4521TIP3   OH213526   6.872   3.031   1.995
 4521TIP3    H113527   6.779   3.036   1.972
 4521TIP3    H213528   6.917   3.026   1.911
 4522TIP3   OH213529   3.375   3.163   4.907
 4522TIP3    H113530   3.440   3.094   4.902
 4522TIP3    H213531   3.420   3.241   4.872
 4523TIP3   OH213532   3.075   5.365   5.299
 4523TIP3    H113533   3.018   5.348   5.373
 4523TIP3    H213534   3.015   5.385   5.227
 4524TIP3   OH213535   5.517   1.534   2.712
 4524TIP3    H113536   5.557   1.599   2.654
 4524TIP3    H213537   5.557   1.549   2.797
 4525TIP3   OH213538   2.359   3.624   2.778
 4525TIP3    H113539   2.325   3.603   2.691
 4525TIP3    H213540   2.286   3.668   2.822
 4526TIP3   OH213541   4.434   4.165   2.485
 4526TIP3    H113542   4.429   4.220   2.563
 4526TIP3    H213543   4.381   4.212   2.420
 4527TIP3   OH213544   3.493   4.129   5.356
 4527TIP3    H113545   3.462   4.069   5.289
 4527TIP3    H213546   3.416   4.147   5.411
 4528TIP3   OH213547   5.160   1.966   5.817
 4528TIP3    H113548   5.081   2.015   5.839
 4528TIP3    H213549   5.188   2.002   5.733
 4529TIP3   OH213550   4.412   0.507   3.324
 4529TIP3    H113551   4.485   0.524   3.384
 4529TIP3    H213552   4.335   0.543   3.369
 4530TIP3   OH213553   0.880   4.404   3.986
 4530TIP3    H113554   0.968   4.397   4.021
 4530TIP3    H213555   0.824   4.418   4.063
 4531TIP3   OH213556   5.436   3.465   1.914
 4531TIP3    H113557   5.404   3.544   1.871
 4531TIP3    H213558   5.526   3.485   1.938
 4532TIP3   OH213559   2.083   1.855   5.253
 4532TIP3    H113560   2.175   1.840   5.228
 4532TIP3    H213561   2.033   1.800   5.193
 4533TIP3   OH213562   0.033   4.543   5.851
 4533TIP3    H113563   0.022   4.450   5.867
 4533TIP3    H213564   0.064   4.579   5.934
 4534TIP3   OH213565   2.231   2.302   2.917
 4534TIP3    H113566   2.226   2.286   3.012
 4534TIP3    H213567   2.325   2.309   2.900
 4535TIP3   OH213568   1.568   2.887   5.543
 4535TIP3    H113569   1.479   2.853   5.537
 4535TIP3    H213570   1.573   2.954   5.476
 4536TIP3   OH213571   3.469   5.614   2.094
 4536TIP3    H113572   3.458   5.519   2.103
 4536TIP3    H213573   3.538   5.636   2.157
 4537TIP3   OH213574   3.418   0.619   4.243
 4537TIP3    H113575   3.407   0.572   4.161
 4537TIP3    H213576   3.338   0.602   4.293
 4538TIP3   OH213577   3.875   5.675   1.160
 4538TIP3    H113578   3.847   5.586   1.138
 4538TIP3    H213579   3.813   5.731   1.113
 4539TIP3   OH213580   7.004   5.142   4.984
 4539TIP3    H113581   7.027   5.197   5.059
 4539TIP3    H213582   7.063   5.067   4.991
 4540TIP3   OH213583   2.914   1.881   3.362
 4540TIP3    H113584   2.822   1.887   3.385
 4540TIP3    H213585   2.955   1.954   3.410
 4541TIP3   OH213586   4.124   0.555   5.810
 4541TIP3    H113587   4.139   0.649   5.806
 4541TIP3    H213588   4.210   0.517   5.831
 4542TIP3   OH213589   0.673   6.302   1.451
 4542TIP3    H113590   0.636   6.389   1.462
 4542TIP3    H213591   0.764   6.310   1.481
 4543TIP3   OH213592   5.471   3.984   5.546
 4543TIP3    H113593   5.470   3.960   5.453
 4543TIP3    H213594   5.485   4.079   5.546
 4544TIP3   OH213595   1.216   3.070   3.392
 4544TIP3    H113596   1.223   2.976   3.376
 4544TIP3    H213597   1.281   3.110   3.334
 4545TIP3   OH213598   1.865   3.994   1.381
 4545TIP3    H113599   1.859   4.066   1.319
 4545TIP3    H213600   1.853   4.035   1.467
 4546TIP3   OH213601   2.588   1.792   5.114
 4546TIP3    H113602   2.607   1.885   5.107
 4546TIP3    H213603   2.578   1.763   5.023
 4547TIP3   OH213604   7.100   4.979   5.286
 4547TIP3    H113605   7.163   4.952   5.353
 4547TIP3    H213606   7.153   4.989   5.207
 4548TIP3   OH213607   1.618   1.182   5.557
 4548TIP3    H113608   1.650   1.153   5.472
 4548TIP3    H213609   1.542   1.236   5.537
 4549TIP3   OH213610   0.489   5.929   0.032
 4549TIP3    H113611   0.433   5.893   0.101
 4549TIP3    H213612   0.500   6.021   0.055
 4550TIP3   OH213613   4.652   5.964   2.321
 4550TIP3    H113614   4.583   6.005   2.268
 4550TIP3    H213615   4.720   5.940   2.257
 4551TIP3   OH213616   4.780   6.129   1.781
 4551TIP3    H113617   4.769   6.218   1.747
 4551TIP3    H213618   4.725   6.074   1.725
 4552TIP3   OH213619   0.358   5.507   2.070
 4552TIP3    H113620   0.385   5.540   2.156
 4552TIP3    H213621   0.436   5.464   2.035
 4553TIP3   OH213622   5.713   1.447   3.545
 4553TIP3    H113623   5.729   1.528   3.593
 4553TIP3    H213624   5.661   1.393   3.605
 4554TIP3   OH213625   0.957   1.415   0.080
 4554TIP3    H113626   0.900   1.375   0.145
 4554TIP3    H213627   1.046   1.398   0.112
 4555TIP3   OH213628   6.991   6.691   3.688
 4555TIP3    H113629   6.998   6.747   3.766
 4555TIP3    H213630   7.051   6.730   3.625
 4556TIP3   OH213631   4.456   2.423   2.650
 4556TIP3    H113632   4.426   2.332   2.659
 4556TIP3    H213633   4.504   2.441   2.730
 4557TIP3   OH213634   5.449   4.247   2.651
 4557TIP3    H113635   5.379   4.308   2.627
 4557TIP3    H213636   5.403   4.174   2.694
 4558TIP3   OH213637   4.842   6.491   0.911
 4558TIP3    H113638   4.925   6.445   0.901
 4558TIP3    H213639   4.851   6.538   0.994
 4559TIP3   OH213640   3.398   4.568   2.889
 4559TIP3    H113641   3.431   4.524   2.967
 4559TIP3    H213642   3.471   4.565   2.827
 4560TIP3   OH213643   0.742   2.921   5.495
 4560TIP3    H113644   0.790   2.925   5.412
 4560TIP3    H213645   0.658   2.962   5.476
 4561TIP3   OH213646   1.883   1.469   3.818
 4561TIP3    H113647   1.851   1.379   3.827
 4561TIP3    H213648   1.808   1.523   3.843
 4562TIP3   OH213649   7.037   6.316   0.190
 4562TIP3    H113650   6.975   6.247   0.166
 4562TIP3    H213651   7.084   6.335   0.109
 4563TIP3   OH213652   6.605   3.340   3.394
 4563TIP3    H113653   6.649   3.399   3.456
 4563TIP3    H213654   6.536   3.298   3.446
 4564TIP3   OH213655   5.899   5.958   0.973
 4564TIP3    H113656   5.848   5.991   1.047
 4564TIP3    H213657   5.982   5.930   1.012
 4565TIP3   OH213658   3.569   6.795   1.187
 4565TIP3    H113659   3.609   6.800   1.274
 4565TIP3    H213660   3.612   6.864   1.137
 4566TIP3   OH213661   0.164   2.427   1.736
 4566TIP3    H113662   0.176   2.510   1.691
 4566TIP3    H213663   0.140   2.451   1.826
 4567TIP3   OH213664   1.505   6.541   0.174
 4567TIP3    H113665   1.474   6.513   0.260
 4567TIP3    H213666   1.596   6.567   0.188
 4568TIP3   OH213667   3.097   5.211   3.930
 4568TIP3    H113668   3.032   5.187   3.864
 4568TIP3    H213669   3.100   5.136   3.990
 4569TIP3   OH213670   5.473   2.696   3.715
 4569TIP3    H113671   5.436   2.642   3.645
 4569TIP3    H213672   5.473   2.639   3.791
 4570TIP3   OH213673   0.471   0.318   4.166
 4570TIP3    H113674   0.500   0.372   4.093
 4570TIP3    H213675   0.380   0.298   4.147
 4571TIP3   OH213676   3.962   1.120   5.091
 4571TIP3    H113677   3.895   1.057   5.065
 4571TIP3    H213678   3.985   1.096   5.181
 4572TIP3   OH213679   0.119   1.109   4.741
 4572TIP3    H113680   0.103   1.040   4.677
 4572TIP3    H213681   0.082   1.075   4.823
 4573TIP3   OH213682   3.729   3.260   4.331
 4573TIP3    H113683   3.702   3.224   4.246
 4573TIP3    H213684   3.800   3.203   4.359
 4574TIP3   OH213685   5.803   5.340   0.939
 4574TIP3    H113686   5.781   5.249   0.920
 4574TIP3    H213687   5.771   5.389   0.863
 4575TIP3   OH213688   0.741   5.890   5.902
 4575TIP3    H113689   0.704   5.958   5.958
 4575TIP3    H213690   0.780   5.827   5.964
 4576TIP3   OH213691   0.406   2.621   0.421
 4576TIP3    H113692   0.407   2.697   0.362
 4576TIP3    H213693   0.318   2.623   0.459
 4577TIP3   OH213694   1.834   6.488   5.399
 4577TIP3    H113695   1.846   6.575   5.362
 4577TIP3    H213696   1.917   6.443   5.382
 4578TIP3   OH213697   1.871   3.704   0.589
 4578TIP3    H113698   1.906   3.740   0.671
 4578TIP3    H213699   1.820   3.628   0.616
 4579TIP3   OH213700   2.585   3.300   5.660
 4579TIP3    H113701   2.502   3.281   5.703
 4579TIP3    H213702   2.561   3.320   5.569
 4580TIP3   OH213703   7.150   2.873   3.259
 4580TIP3    H113704   7.228   2.924   3.281
 4580TIP3    H213705   7.080   2.911   3.312
 4581TIP3   OH213706   0.772   5.921   2.738
 4581TIP3    H113707   0.845   5.976   2.769
 4581TIP3    H213708   0.703   5.984   2.716
 4582TIP3   OH213709   4.043   2.082   1.666
 4582TIP3    H113710   4.066   2.024   1.593
 4582TIP3    H213711   3.963   2.043   1.703
 4583TIP3   OH213712   1.243   1.785   3.398
 4583TIP3    H113713   1.218   1.841   3.471
 4583TIP3    H213714   1.242   1.696   3.433
 4584TIP3   OH213715   5.284   2.581   3.533
 4584TIP3    H113716   5.334   2.568   3.453
 4584TIP3    H213717   5.200   2.618   3.504
 4585TIP3   OH213718   2.407   0.424   5.841
 4585TIP3    H113719   2.430   0.454   5.753
 4585TIP3    H213720   2.352   0.347   5.826
 4586TIP3   OH213721   2.614   4.737   4.526
 4586TIP3    H113722   2.634   4.746   4.619
 4586TIP3    H213723   2.649   4.817   4.486
 4587TIP3   OH213724   6.493   5.975   2.053
 4587TIP3    H113725   6.485   5.974   1.958
 4587TIP3    H213726   6.470   5.886   2.080
 4588TIP3   OH213727   2.418   5.523   3.580
 4588TIP3    H113728   2.425   5.615   3.603
 4588TIP3    H213729   2.490   5.507   3.520
 4589TIP3   OH213730   0.268   2.561   0.762
 4589TIP3    H113731   0.355   2.521   0.769
 4589TIP3    H213732   0.275   2.642   0.812
 4590TIP3   OH213733   6.374   6.334   4.531
 4590TIP3    H113734   6.377   6.246   4.570
 4590TIP3    H213735   6.281   6.355   4.527
 4591TIP3   OH213736   5.530   1.475   0.593
 4591TIP3    H113737   5.622   1.491   0.574
 4591TIP3    H213738   5.495   1.438   0.512
 4592TIP3   OH213739   3.758   4.944   5.214
 4592TIP3    H113740   3.828   4.917   5.155
 4592TIP3    H213741   3.694   4.872   5.210
 4593TIP3   OH213742   6.225   1.672   0.219
 4593TIP3    H113743   6.164   1.727   0.172
 4593TIP3    H213744   6.281   1.634   0.151
 4594TIP3   OH213745   1.717   2.612   4.032
 4594TIP3    H113746   1.702   2.650   3.945
 4594TIP3    H213747   1.811   2.622   4.046
 4595TIP3   OH213748   3.090   1.713   1.799
 4595TIP3    H113749   3.170   1.757   1.828
 4595TIP3    H213750   3.064   1.659   1.873
 4596TIP3   OH213751   3.080   4.219   1.227
 4596TIP3    H113752   3.130   4.297   1.202
 4596TIP3    H213753   3.121   4.148   1.176
 4597TIP3   OH213754   6.609   4.028   3.738
 4597TIP3    H113755   6.631   4.107   3.688
 4597TIP3    H213756   6.518   4.040   3.764
 4598TIP3   OH213757   0.826   5.941  -0.019
 4598TIP3    H113758   0.886   6.008  -0.052
 4598TIP3    H213759   0.764   5.989   0.035
 4599TIP3   OH213760   4.020   2.703   0.565
 4599TIP3    H113761   4.093   2.710   0.627
 4599TIP3    H213762   3.943   2.730   0.616
 4600TIP3   OH213763   5.674   5.124   5.717
 4600TIP3    H113764   5.672   5.059   5.646
 4600TIP3    H213765   5.751   5.103   5.768
 4601TIP3   OH213766   4.841   5.026   0.689
 4601TIP3    H113767   4.784   5.093   0.650
 4601TIP3    H213768   4.879   5.069   0.765
 4602TIP3   OH213769   5.957   3.188   5.665
 4602TIP3    H113770   5.867   3.156   5.673
 4602TIP3    H213771   5.953   3.253   5.595
 4603TIP3   OH213772   1.644   1.266   2.514
 4603TIP3    H113773   1.554   1.256   2.547
 4603TIP3    H213774   1.651   1.202   2.444
 4604TIP3   OH213775   6.085   0.905   1.792
 4604TIP3    H113776   6.126   0.991   1.803
 4604TIP3    H213777   6.154   0.850   1.754
 4605TIP3   OH213778   4.143   5.583   0.808
 4605TIP3    H113779   4.138   5.675   0.832
 4605TIP3    H213780   4.056   5.562   0.773
 4606TIP3   OH213781   2.612   0.363   3.845
 4606TIP3    H113782   2.615   0.333   3.754
 4606TIP3    H213783   2.601   0.283   3.896
 4607TIP3   OH213784   2.389   4.103   2.056
 4607TIP3    H113785   2.477   4.123   2.025
 4607TIP3    H213786   2.402   4.049   2.134
 4608TIP3   OH213787   5.802   1.601   5.533
 4608TIP3    H113788   5.717   1.563   5.510
 4608TIP3    H213789   5.863   1.565   5.468
 4609TIP3   OH213790   6.428   0.755   0.018
 4609TIP3    H113791   6.452   0.664   0.034
 4609TIP3    H213792   6.465   0.803   0.092
 4610TIP3   OH213793   1.434   4.479   0.724
 4610TIP3    H113794   1.493   4.523   0.663
 4610TIP3    H213795   1.358   4.538   0.731
 4611TIP3   OH213796   0.290   3.504   1.638
 4611TIP3    H113797   0.360   3.531   1.698
 4611TIP3    H213798   0.210   3.525   1.685
 4612TIP3   OH213799   6.292   4.677   2.057
 4612TIP3    H113800   6.368   4.692   2.112
 4612TIP3    H213801   6.329   4.660   1.970
 4613TIP3   OH213802   5.167   4.406   5.587
 4613TIP3    H113803   5.182   4.364   5.672
 4613TIP3    H213804   5.255   4.425   5.554
 4614TIP3   OH213805   1.336   3.976   5.528
 4614TIP3    H113806   1.313   3.913   5.460
 4614TIP3    H213807   1.397   3.928   5.585
 4615TIP3   OH213808   1.614   6.212   2.661
 4615TIP3    H113809   1.677   6.282   2.673
 4615TIP3    H213810   1.667   6.133   2.654
 4616TIP3   OH213811   1.787   6.013   2.549
 4616TIP3    H113812   1.818   6.072   2.481
 4616TIP3    H213813   1.784   5.927   2.507
 4617TIP3   OH213814   4.190   5.738   4.503
 4617TIP3    H113815   4.132   5.802   4.462
 4617TIP3    H213816   4.138   5.657   4.505
 4618TIP3   OH213817   3.512   5.595   4.636
 4618TIP3    H113818   3.574   5.635   4.575
 4618TIP3    H213819   3.451   5.666   4.657
 4619TIP3   OH213820   5.547   1.613   5.153
 4619TIP3    H113821   5.542   1.708   5.164
 4619TIP3    H213822   5.631   1.599   5.108
 4620TIP3   OH213823   0.032   3.504   0.160
 4620TIP3    H113824  -0.044   3.472   0.112
 4620TIP3    H213825   0.026   3.599   0.151
 4621TIP3   OH213826   3.410   4.464   0.095
 4621TIP3    H113827   3.409   4.559   0.085
 4621TIP3    H213828   3.475   4.448   0.164
 4622TIP3   OH213829   2.437   4.043   2.337
 4622TIP3    H113830   2.486   4.118   2.370
 4622TIP3    H213831   2.484   3.967   2.369
 4623TIP3   OH213832   2.031   6.080   3.525
 4623TIP3    H113833   2.040   5.990   3.557
 4623TIP3    H213834   1.936   6.096   3.527
 4624TIP3   OH213835   5.726   1.522   3.984
 4624TIP3    H113836   5.788   1.504   3.912
 4624TIP3    H213837   5.775   1.579   4.043
 4625TIP3   OH213838   2.880   4.588   4.809
 4625TIP3    H113839   2.960   4.641   4.805
 4625TIP3    H213840   2.896   4.515   4.750
 4626TIP3   OH213841   2.115   1.711   4.677
 4626TIP3    H113842   2.030   1.670   4.689
 4626TIP3    H213843   2.137   1.747   4.764
 4627TIP3   OH213844   3.901   4.837   3.964
 4627TIP3    H113845   3.824   4.866   3.915
 4627TIP3    H213846   3.892   4.742   3.968
 4628TIP3   OH213847   4.958   4.151   0.386
 4628TIP3    H113848   4.965   4.151   0.482
 4628TIP3    H213849   4.959   4.244   0.362
 4629TIP3   OH213850   6.852   6.050   2.229
 4629TIP3    H113851   6.920   5.982   2.231
 4629TIP3    H213852   6.831   6.066   2.321
 4630TIP3   OH213853   3.661   0.046   4.880
 4630TIP3    H113854   3.693  -0.043   4.896
 4630TIP3    H213855   3.566   0.039   4.883
 4631TIP3   OH213856   6.460   3.500   3.205
 4631TIP3    H113857   6.522   3.431   3.231
 4631TIP3    H213858   6.429   3.536   3.288
 4632TIP3   OH213859   3.344   4.196   2.961
 4632TIP3    H113860   3.259   4.155   2.970
 4632TIP3    H213861   3.355   4.209   2.867
 4633TIP3   OH213862   5.050   5.694   3.132
 4633TIP3    H113863   5.035   5.688   3.038
 4633TIP3    H213864   5.114   5.626   3.151
 4634TIP3   OH213865   5.006   2.774   4.802
 4634TIP3    H113866   5.029   2.858   4.762
 4634TIP3    H213867   5.027   2.785   4.894
 4635TIP3   OH213868   4.539   5.452   1.569
 4635TIP3    H113869   4.497   5.418   1.648
 4635TIP3    H213870   4.472   5.445   1.501
 4636TIP3   OH213871   0.154   2.712   4.614
 4636TIP3    H113872   0.064   2.707   4.579
 4636TIP3    H213873   0.187   2.623   4.606
 4637TIP3   OH213874   3.112   5.750   3.335
 4637TIP3    H113875   3.123   5.845   3.347
 4637TIP3    H213876   3.074   5.741   3.248
 4638TIP3   OH213877   0.868   6.359   1.881
 4638TIP3    H113878   0.938   6.350   1.946
 4638TIP3    H213879   0.897   6.432   1.825
 4639TIP3   OH213880   1.513   6.163   5.259
 4639TIP3    H113881   1.532   6.201   5.174
 4639TIP3    H213882   1.475   6.077   5.240
 4640TIP3   OH213883   3.510   3.110   1.343
 4640TIP3    H113884   3.546   3.022   1.338
 4640TIP3    H213885   3.415   3.098   1.340
 4641TIP3   OH213886   4.638   2.156   5.867
 4641TIP3    H113887   4.556   2.184   5.827
 4641TIP3    H213888   4.633   2.186   5.957
 4642TIP3   OH213889   2.220   0.430   5.389
 4642TIP3    H113890   2.154   0.365   5.364
 4642TIP3    H213891   2.188   0.466   5.472
 4643TIP3   OH213892   5.086   4.887   1.716
 4643TIP3    H113893   5.009   4.892   1.658
 4643TIP3    H213894   5.091   4.794   1.741
 4644TIP3   OH213895   2.013   0.293   0.798
 4644TIP3    H113896   2.054   0.350   0.863
 4644TIP3    H213897   1.984   0.217   0.849
 4645TIP3   OH213898   0.768   6.825   0.102
 4645TIP3    H113899   0.775   6.743   0.053
 4645TIP3    H213900   0.835   6.819   0.170
 4646TIP3   OH213901   1.126   3.522   5.455
 4646TIP3    H113902   1.140   3.430   5.476
 4646TIP3    H213903   1.033   3.537   5.473
 4647TIP3   OH213904   2.156   0.401   1.794
 4647TIP3    H113905   2.148   0.330   1.731
 4647TIP3    H213906   2.219   0.369   1.858
 4648TIP3   OH213907   6.336   4.586   2.546
 4648TIP3    H113908   6.304   4.496   2.557
 4648TIP3    H213909   6.259   4.640   2.565
 4649TIP3   OH213910   6.637   5.861   2.332
 4649TIP3    H113911   6.662   5.940   2.285
 4649TIP3    H213912   6.695   5.793   2.298
 4650TIP3   OH213913   1.359   0.316   2.613
 4650TIP3    H113914   1.328   0.268   2.536
 4650TIP3    H213915   1.296   0.387   2.624
 4651TIP3   OH213916   5.098   5.674   2.524
 4651TIP3    H113917   5.151   5.705   2.451
 4651TIP3    H213918   5.119   5.733   2.596
 4652TIP3   OH213919   5.921   5.933   5.577
 4652TIP3    H113920   5.893   6.008   5.525
 4652TIP3    H213921   6.012   5.919   5.552
 4653TIP3   OH213922   0.901   5.995   2.446
 4653TIP3    H113923   0.935   6.038   2.368
 4653TIP3    H213924   0.964   6.015   2.515
 4654TIP3   OH213925   6.267   6.512   3.868
 4654TIP3    H113926   6.316   6.480   3.793
 4654TIP3    H213927   6.277   6.607   3.865
 4655TIP3   OH213928   3.514   1.810   2.368
 4655TIP3    H113929   3.566   1.859   2.431
 4655TIP3    H213930   3.430   1.857   2.365
 4656TIP3   OH213931   3.645   6.033   5.278
 4656TIP3    H113932   3.700   6.063   5.205
 4656TIP3    H213933   3.608   5.950   5.249
 4657TIP3   OH213934   2.857   1.980   4.396
 4657TIP3    H113935   2.942   1.986   4.440
 4657TIP3    H213936   2.864   2.040   4.322
 4658TIP3   OH213937   6.870   3.568   5.502
 4658TIP3    H113938   6.937   3.547   5.436
 4658TIP3    H213939   6.788   3.541   5.461
 4659TIP3   OH213940   2.846   0.896   2.214
 4659TIP3    H113941   2.841   0.891   2.118
 4659TIP3    H213942   2.939   0.883   2.233
 4660TIP3   OH213943   0.663   2.633   0.915
 4660TIP3    H113944   0.756   2.635   0.938
 4660TIP3    H213945   0.647   2.542   0.890
 4661TIP3   OH213946   6.093   3.851   1.182
 4661TIP3    H113947   6.012   3.802   1.170
 4661TIP3    H213948   6.094   3.874   1.275
 4662TIP3   OH213949   5.910   0.591   1.852
 4662TIP3    H113950   5.882   0.681   1.868
 4662TIP3    H213951   5.838   0.552   1.803
 4663TIP3   OH213952   4.026   6.225   0.709
 4663TIP3    H113953   4.051   6.132   0.710
 4663TIP3    H213954   4.110   6.272   0.711
 4664TIP3   OH213955   2.963   5.843   1.528
 4664TIP3    H113956   3.045   5.885   1.552
 4664TIP3    H213957   2.899   5.914   1.525
 4665TIP3   OH213958   0.200   5.158   5.505
 4665TIP3    H113959   0.226   5.223   5.439
 4665TIP3    H213960   0.195   5.207   5.587
 4666TIP3   OH213961   3.620   2.843   0.338
 4666TIP3    H113962   3.622   2.748   0.338
 4666TIP3    H213963   3.673   2.868   0.263
 4667TIP3   OH213964   5.129   6.505   1.385
 4667TIP3    H113965   5.117   6.596   1.412
 4667TIP3    H213966   5.219   6.485   1.410
 4668TIP3   OH213967   4.293   1.777   0.411
 4668TIP3    H113968   4.275   1.850   0.470
 4668TIP3    H213969   4.373   1.802   0.365
 4669TIP3   OH213970   4.624   6.615   3.157
 4669TIP3    H113971   4.571   6.574   3.090
 4669TIP3    H213972   4.666   6.689   3.113
 4670TIP3   OH213973   3.398   3.183   4.206
 4670TIP3    H113974   3.338   3.112   4.227
 4670TIP3    H213975   3.431   3.213   4.291
 4671TIP3   OH213976   0.927   5.370   0.351
 4671TIP3    H113977   0.871   5.431   0.302
 4671TIP3    H213978   0.980   5.426   0.407
 4672TIP3   OH213979   5.612   0.465   2.761
 4672TIP3    H113980   5.636   0.555   2.784
 4672TIP3    H213981   5.516   0.465   2.762
 4673TIP3   OH213982   6.949   0.982   4.258
 4673TIP3    H113983   6.990   0.896   4.263
 4673TIP3    H213984   6.987   1.023   4.180
 4674TIP3   OH213985   6.735   3.882   0.168
 4674TIP3    H113986   6.796   3.901   0.097
 4674TIP3    H213987   6.679   3.812   0.133
 4675TIP3   OH213988   2.557   6.334   2.645
 4675TIP3    H113989   2.500   6.354   2.570
 4675TIP3    H213990   2.561   6.415   2.695
 4676TIP3   OH213991   2.451   1.841   5.809
 4676TIP3    H113992   2.405   1.772   5.856
 4676TIP3    H213993   2.538   1.843   5.848
 4677TIP3   OH213994   4.464   5.091   1.219
 4677TIP3    H113995   4.494   5.088   1.128
 4677TIP3    H213996   4.544   5.104   1.270
 4678TIP3   OH213997   3.157   6.650   5.352
 4678TIP3    H113998   3.123   6.732   5.387
 4678TIP3    H213999   3.252   6.664   5.348
 4679TIP3   OH214000   1.495   2.294   0.843
 4679TIP3    H114001   1.483   2.357   0.914
 4679TIP3    H214002   1.463   2.212   0.879
 4680TIP3   OH214003   2.884   3.042   1.780
 4680TIP3    H114004   2.893   3.097   1.703
 4680TIP3    H214005   2.824   2.972   1.753
 4681TIP3   OH214006   0.177   3.069   0.095
 4681TIP3    H114007   0.082   3.075   0.105
 4681TIP3    H214008   0.202   3.153   0.055
 4682TIP3   OH214009   4.767   3.283   5.265
 4682TIP3    H114010   4.830   3.312   5.332
 4682TIP3    H214011   4.811   3.303   5.182
 4683TIP3   OH214012   6.971   1.336   4.295
 4683TIP3    H114013   7.061   1.320   4.322
 4683TIP3    H214014   6.944   1.414   4.344
 4684TIP3   OH214015   6.461   2.730   3.379
 4684TIP3    H114016   6.416   2.681   3.448
 4684TIP3    H214017   6.418   2.703   3.299
 4685TIP3   OH214018   5.356   3.370   3.179
 4685TIP3    H114019   5.420   3.361   3.108
 4685TIP3    H214020   5.335   3.280   3.204
 4686TIP3   OH214021   0.335   2.883   4.755
 4686TIP3    H114022   0.297   2.966   4.726
 4686TIP3    H214023   0.287   2.817   4.704
 4687TIP3   OH214024   1.079   1.185   2.311
 4687TIP3    H114025   0.993   1.189   2.355
 4687TIP3    H214026   1.067   1.120   2.242
 4688TIP3   OH214027   0.048   4.662   5.273
 4688TIP3    H114028   0.111   4.703   5.332
 4688TIP3    H214029   0.074   4.692   5.186
 4689TIP3   OH214030   6.215   5.634   3.697
 4689TIP3    H114031   6.159   5.649   3.774
 4689TIP3    H214032   6.244   5.722   3.673
 4690TIP3   OH214033   2.449   4.636   3.602
 4690TIP3    H114034   2.505   4.712   3.617
 4690TIP3    H214035   2.366   4.657   3.645
 4691TIP3   OH214036   4.299   3.622   4.749
 4691TIP3    H114037   4.393   3.607   4.759
 4691TIP3    H214038   4.287   3.636   4.655
 4692TIP3   OH214039   4.594   0.147   4.644
 4692TIP3    H114040   4.501   0.157   4.662
 4692TIP3    H214041   4.598   0.110   4.556
 4693TIP3   OH214042   3.541   5.811   2.325
 4693TIP3    H114043   3.508   5.846   2.242
 4693TIP3    H214044   3.636   5.805   2.313
 4694TIP3   OH214045   6.089   3.767   5.029
 4694TIP3    H114046   6.167   3.814   4.997
 4694TIP3    H214047   6.024   3.836   5.043
 4695TIP3   OH214048   1.850   3.003   3.488
 4695TIP3    H114049   1.882   3.037   3.572
 4695TIP3    H214050   1.814   3.080   3.444
 4696TIP3   OH214051   5.768   3.626   3.589
 4696TIP3    H114052   5.794   3.545   3.633
 4696TIP3    H214053   5.825   3.631   3.512
 4697TIP3   OH214054   3.116   4.437   2.424
 4697TIP3    H114055   3.131   4.506   2.359
 4697TIP3    H214056   3.054   4.377   2.381
 4698TIP3   OH214057   4.654   4.046   2.671
 4698TIP3    H114058   4.591   3.977   2.651
 4698TIP3    H214059   4.635   4.115   2.608
 4699TIP3   OH214060   3.713   3.890   5.659
 4699TIP3    H114061   3.699   3.884   5.565
 4699TIP3    H214062   3.763   3.811   5.681
 4700TIP3   OH214063   4.065   0.889   5.624
 4700TIP3    H114064   3.980   0.911   5.663
 4700TIP3    H214065   4.046   0.815   5.566
 4701TIP3   OH214066   6.029   6.360   3.086
 4701TIP3    H114067   5.938   6.348   3.057
 4701TIP3    H214068   6.023   6.371   3.181
 4702TIP3   OH214069   1.630   2.718   3.811
 4702TIP3    H114070   1.567   2.790   3.819
 4702TIP3    H214071   1.598   2.667   3.736
 4703TIP3   OH214072   2.337   6.542   3.003
 4703TIP3    H114073   2.387   6.566   2.925
 4703TIP3    H214074   2.306   6.453   2.985
 4704TIP3   OH214075   1.675   3.257   2.944
 4704TIP3    H114076   1.738   3.329   2.949
 4704TIP3    H214077   1.657   3.247   2.851
 4705TIP3   OH214078   4.054   6.766   4.083
 4705TIP3    H114079   3.959   6.758   4.071
 4705TIP3    H214080   4.069   6.858   4.101
 4706TIP3   OH214081   6.482   4.397   0.281
 4706TIP3    H114082   6.513   4.324   0.333
 4706TIP3    H214083   6.508   4.475   0.330
 4707TIP3   OH214084   1.485   6.308   3.967
 4707TIP3    H114085   1.399   6.315   3.925
 4707TIP3    H214086   1.542   6.270   3.901
 4708TIP3   OH214087   0.589   1.755   4.415
 4708TIP3    H114088   0.543   1.672   4.423
 4708TIP3    H214089   0.527   1.814   4.371
 4709TIP3   OH214090   1.256   5.721   0.925
 4709TIP3    H114091   1.211   5.768   0.855
 4709TIP3    H214092   1.334   5.685   0.883
 4710TIP3   OH214093   6.255   1.311   2.833
 4710TIP3    H114094   6.308   1.246   2.786
 4710TIP3    H214095   6.185   1.334   2.771
 4711TIP3   OH214096   5.432   6.491   3.136
 4711TIP3    H114097   5.394   6.502   3.050
 4711TIP3    H214098   5.501   6.558   3.141
 4712TIP3   OH214099   0.465   0.239   3.304
 4712TIP3    H114100   0.415   0.164   3.270
 4712TIP3    H214101   0.503   0.207   3.386
 4713TIP3   OH214102   0.253   0.328   2.789
 4713TIP3    H114103   0.337   0.320   2.834
 4713TIP3    H214104   0.270   0.394   2.721
 4714TIP3   OH214105   5.758   3.098   0.614
 4714TIP3    H114106   5.761   3.040   0.538
 4714TIP3    H214107   5.708   3.174   0.585
 4715TIP3   OH214108   3.114   6.130   4.601
 4715TIP3    H114109   3.064   6.075   4.661
 4715TIP3    H214110   3.177   6.070   4.561
 4716TIP3   OH214111   1.363   6.793   0.175
 4716TIP3    H114112   1.422   6.718   0.163
 4716TIP3    H214113   1.405   6.846   0.243
 4717TIP3   OH214114   0.190   1.499   1.764
 4717TIP3    H114115   0.107   1.541   1.741
 4717TIP3    H214116   0.251   1.526   1.696
 4718TIP3   OH214117   1.891   6.579   0.851
 4718TIP3    H114118   1.976   6.594   0.808
 4718TIP3    H214119   1.851   6.665   0.857
 4719TIP3   OH214120   7.033   0.301   5.700
 4719TIP3    H114121   6.958   0.331   5.750
 4719TIP3    H214122   7.077   0.239   5.757
 4720TIP3   OH214123   1.573   0.259   4.325
 4720TIP3    H114124   1.642   0.286   4.264
 4720TIP3    H214125   1.492   0.272   4.276
 4721TIP3   OH214126   3.119   2.906   1.520
 4721TIP3    H114127   3.200   2.893   1.472
 4721TIP3    H214128   3.123   2.996   1.552
 4722TIP3   OH214129   5.646   3.244   5.665
 4722TIP3    H114130   5.614   3.209   5.748
 4722TIP3    H214131   5.581   3.217   5.600
 4723TIP3   OH214132   1.251   3.659   5.871
 4723TIP3    H114133   1.246   3.717   5.947
 4723TIP3    H214134   1.160   3.644   5.846
 4724TIP3   OH214135   1.841   2.075   5.094
 4724TIP3    H114136   1.776   2.129   5.050
 4724TIP3    H214137   1.902   2.049   5.024
 4725TIP3   OH214138   2.103   4.813   1.946
 4725TIP3    H114139   2.108   4.717   1.941
 4725TIP3    H214140   2.012   4.831   1.968
 4726TIP3   OH214141   2.476   2.592   5.697
 4726TIP3    H114142   2.552   2.611   5.753
 4726TIP3    H214143   2.407   2.648   5.731
 4727TIP3   OH214144   6.073   2.448   4.479
 4727TIP3    H114145   6.086   2.428   4.386
 4727TIP3    H214146   5.982   2.475   4.485
 4728TIP3   OH214147   4.784   5.607   1.410
 4728TIP3    H114148   4.723   5.536   1.431
 4728TIP3    H214149   4.798   5.652   1.494
 4729TIP3   OH214150   3.622   0.604   2.271
 4729TIP3    H114151   3.616   0.628   2.178
 4729TIP3    H214152   3.614   0.509   2.272
 4730TIP3   OH214153   3.172   1.088   1.785
 4730TIP3    H114154   3.195   1.091   1.692
 4730TIP3    H214155   3.122   1.006   1.795
 4731TIP3   OH214156   6.472   0.481   0.934
 4731TIP3    H114157   6.461   0.411   0.870
 4731TIP3    H214158   6.406   0.462   1.001
 4732TIP3   OH214159   0.865   0.243   0.858
 4732TIP3    H114160   0.883   0.178   0.925
 4732TIP3    H214161   0.907   0.208   0.779
 4733TIP3   OH214162   6.546   5.293   0.379
 4733TIP3    H114163   6.555   5.385   0.356
 4733TIP3    H214164   6.617   5.249   0.332
 4734TIP3   OH214165   1.419   2.865   5.274
 4734TIP3    H114166   1.494   2.807   5.277
 4734TIP3    H214167   1.450   2.942   5.227
 4735TIP3   OH214168   7.059   5.060   2.046
 4735TIP3    H114169   7.115   4.983   2.038
 4735TIP3    H214170   6.971   5.027   2.032
 4736TIP3   OH214171   6.876   0.969   1.267
 4736TIP3    H114172   6.887   1.047   1.213
 4736TIP3    H214173   6.822   0.997   1.341
 4737TIP3   OH214174   1.146   3.696   2.191
 4737TIP3    H114175   1.213   3.644   2.145
 4737TIP3    H214176   1.193   3.773   2.222
 4738TIP3   OH214177   4.462   6.124   5.432
 4738TIP3    H114178   4.464   6.217   5.457
 4738TIP3    H214179   4.371   6.099   5.440
 4739TIP3   OH214180   5.383   5.609   1.202
 4739TIP3    H114181   5.314   5.576   1.144
 4739TIP3    H214182   5.441   5.535   1.216
 4740TIP3   OH214183   5.275   5.605   2.885
 4740TIP3    H114184   5.253   5.512   2.886
 4740TIP3    H214185   5.341   5.614   2.816
 4741TIP3   OH214186   1.346   1.230   2.426
 4741TIP3    H114187   1.264   1.187   2.400
 4741TIP3    H214188   1.318   1.313   2.465
 4742TIP3   OH214189   4.601   5.431   4.276
 4742TIP3    H114190   4.520   5.401   4.234
 4742TIP3    H214191   4.583   5.522   4.299
 4743TIP3   OH214192   3.003   0.274   0.263
 4743TIP3    H114193   2.914   0.285   0.228
 4743TIP3    H214194   3.051   0.350   0.230
 4744TIP3   OH214195   4.472   6.171   0.345
 4744TIP3    H114196   4.439   6.180   0.434
 4744TIP3    H214197   4.473   6.076   0.329
 4745TIP3   OH214198   0.421   5.520   3.530
 4745TIP3    H114199   0.398   5.498   3.439
 4745TIP3    H214200   0.507   5.480   3.543
 4746TIP3   OH214201  -0.012   5.363   4.524
 4746TIP3    H114202   0.079   5.391   4.533
 4746TIP3    H214203  -0.041   5.402   4.441
 4747TIP3   OH214204   2.108   6.092   0.877
 4747TIP3    H114205   2.014   6.098   0.862
 4747TIP3    H214206   2.146   6.150   0.812
 4748TIP3   OH214207   1.931   0.216   1.901
 4748TIP3    H114208   1.943   0.270   1.978
 4748TIP3    H214209   1.840   0.189   1.904
 4749TIP3   OH214210   0.860   0.377   2.617
 4749TIP3    H114211   0.792   0.444   2.614
 4749TIP3    H214212   0.827   0.313   2.681
 4750TIP3   OH214213   6.647   5.183   2.711
 4750TIP3    H114214   6.637   5.125   2.787
 4750TIP3    H214215   6.709   5.250   2.741
 4751TIP3   OH214216   0.605   1.563   5.610
 4751TIP3    H114217   0.517   1.550   5.647
 4751TIP3    H214218   0.611   1.499   5.539
 4752TIP3   OH214219   4.810   3.121   3.211
 4752TIP3    H114220   4.868   3.153   3.142
 4752TIP3    H214221   4.833   3.172   3.288
 4753TIP3   OH214222   2.292   0.336   2.548
 4753TIP3    H114223   2.286   0.293   2.633
 4753TIP3    H214224   2.380   0.376   2.548
 4754TIP3   OH214225   0.523   4.277   5.436
 4754TIP3    H114226   0.584   4.286   5.509
 4754TIP3    H214227   0.437   4.289   5.475
 4755TIP3   OH214228   4.820   5.098   3.694
 4755TIP3    H114229   4.815   5.003   3.698
 4755TIP3    H214230   4.905   5.120   3.733
 4756TIP3   OH214231   2.391   1.523   1.820
 4756TIP3    H114232   2.465   1.584   1.821
 4756TIP3    H214233   2.431   1.436   1.819
 4757TIP3   OH214234   1.671   3.814   1.033
 4757TIP3    H114235   1.644   3.869   0.959
 4757TIP3    H214236   1.589   3.794   1.079
 4758TIP3   OH214237   2.557   0.953   0.956
 4758TIP3    H114238   2.563   0.960   1.052
 4758TIP3    H214239   2.597   1.033   0.923
 4759TIP3   OH214240   5.875   6.039   2.793
 4759TIP3    H114241   5.942   6.096   2.755
 4759TIP3    H214242   5.835   5.996   2.718
 4760TIP3   OH214243   2.419   0.200   2.779
 4760TIP3    H114244   2.382   0.166   2.861
 4760TIP3    H214245   2.514   0.192   2.792
 4761TIP3   OH214246   0.016   1.986   0.822
 4761TIP3    H114247   0.069   1.915   0.857
 4761TIP3    H214248  -0.008   2.038   0.899
 4762TIP3   OH214249   6.929   6.552   2.120
 4762TIP3    H114250   6.995   6.594   2.064
 4762TIP3    H214251   6.955   6.576   2.209
 4763TIP3   OH214252   5.605   0.875   3.863
 4763TIP3    H114253   5.664   0.920   3.922
 4763TIP3    H214254   5.524   0.925   3.867
 4764TIP3   OH214255   5.482   3.499   0.770
 4764TIP3    H114256   5.427   3.421   0.771
 4764TIP3    H214257   5.439   3.559   0.830
 4765TIP3   OH214258   6.841   4.751   4.370
 4765TIP3    H114259   6.833   4.845   4.382
 4765TIP3    H214260   6.935   4.734   4.380
 4766TIP3   OH214261   1.959   0.065   2.240
 4766TIP3    H114262   2.005   0.120   2.304
 4766TIP3    H214263   2.029   0.016   2.197
 4767TIP3   OH214264   0.726   2.272   2.987
 4767TIP3    H114265   0.738   2.205   3.055
 4767TIP3    H214266   0.634   2.265   2.962
 4768TIP3   OH214267   6.344   6.283   4.214
 4768TIP3    H114268   6.405   6.319   4.149
 4768TIP3    H214269   6.337   6.352   4.280
 4769TIP3   OH214270   6.622   3.216   5.667
 4769TIP3    H114271   6.557   3.202   5.598
 4769TIP3    H214272   6.594   3.296   5.711
 4770TIP3   OH214273   4.829   0.432   0.307
 4770TIP3    H114274   4.762   0.388   0.359
 4770TIP3    H214275   4.799   0.523   0.302
 4771TIP3   OH214276   4.882   3.505   0.370
 4771TIP3    H114277   4.926   3.562   0.308
 4771TIP3    H214278   4.946   3.436   0.389
 4772TIP3   OH214279   5.547   1.756   0.816
 4772TIP3    H114280   5.456   1.726   0.817
 4772TIP3    H214281   5.584   1.717   0.737
 4773TIP3   OH214282   3.223   4.861   4.274
 4773TIP3    H114283   3.303   4.861   4.220
 4773TIP3    H214284   3.249   4.817   4.355
 4774TIP3   OH214285   1.364   4.811   1.783
 4774TIP3    H114286   1.420   4.733   1.777
 4774TIP3    H214287   1.421   4.883   1.754
 4775TIP3   OH214288   1.240   5.211   4.374
 4775TIP3    H114289   1.252   5.294   4.326
 4775TIP3    H214290   1.291   5.222   4.454
 4776TIP3   OH214291   6.367   6.439   1.122
 4776TIP3    H114292   6.288   6.462   1.072
 4776TIP3    H214293   6.334   6.408   1.206
 4777TIP3   OH214294   1.977   2.983   0.605
 4777TIP3    H114295   1.973   2.973   0.700
 4777TIP3    H214296   1.899   3.034   0.583
 4778TIP3   OH214297   2.923   5.550   1.609
 4778TIP3    H114298   2.967   5.615   1.554
 4778TIP3    H214299   2.867   5.601   1.667
 4779TIP3   OH214300   5.119   2.625   0.994
 4779TIP3    H114301   5.171   2.555   1.033
 4779TIP3    H214302   5.129   2.699   1.054
 4780TIP3   OH214303   1.489   3.152   5.767
 4780TIP3    H114304   1.516   3.133   5.856
 4780TIP3    H214305   1.427   3.082   5.745
 4781TIP3   OH214306   3.134   4.473   3.640
 4781TIP3    H114307   3.052   4.471   3.591
 4781TIP3    H214308   3.148   4.382   3.667
 4782TIP3   OH214309   1.842   6.755   5.332
 4782TIP3    H114310   1.795   6.811   5.270
 4782TIP3    H214311   1.791   6.762   5.414
 4783TIP3   OH214312   1.255   3.261   2.929
 4783TIP3    H114313   1.191   3.211   2.880
 4783TIP3    H214314   1.264   3.215   3.012
 4784TIP3   OH214315   0.307   3.589   2.820
 4784TIP3    H114316   0.257   3.589   2.901
 4784TIP3    H214317   0.399   3.592   2.848
 4785TIP3   OH214318   1.180   1.590   3.072
 4785TIP3    H114319   1.266   1.561   3.041
 4785TIP3    H214320   1.156   1.527   3.140
 4786TIP3   OH214321   6.968   5.438   2.990
 4786TIP3    H114322   7.038   5.408   3.048
 4786TIP3    H214323   6.975   5.533   2.991
 4787TIP3   OH214324   2.372   4.844   0.211
 4787TIP3    H114325   2.402   4.789   0.138
 4787TIP3    H214326   2.286   4.875   0.182
 4788TIP3   OH214327   3.322   6.328   3.334
 4788TIP3    H114328   3.365   6.281   3.406
 4788TIP3    H214329   3.380   6.314   3.259
 4789TIP3   OH214330   0.193   0.307   4.080
 4789TIP3    H114331   0.153   0.294   4.166
 4789TIP3    H214332   0.213   0.219   4.049
 4790TIP3   OH214333   1.730   6.015   0.620
 4790TIP3    H114334   1.688   6.072   0.556
 4790TIP3    H214335   1.743   5.932   0.575
 4791TIP3   OH214336   0.103   2.726   2.636
 4791TIP3    H114337   0.180   2.766   2.596
 4791TIP3    H214338   0.067   2.795   2.692
 4792TIP3   OH214339   1.726   0.960   4.729
 4792TIP3    H114340   1.682   0.882   4.696
 4792TIP3    H214341   1.682   1.033   4.686
 4793TIP3   OH214342   5.283   0.732   1.605
 4793TIP3    H114343   5.295   0.727   1.510
 4793TIP3    H214344   5.325   0.653   1.639
 4794TIP3   OH214345   4.608   0.852   4.971
 4794TIP3    H114346   4.674   0.921   4.974
 4794TIP3    H214347   4.544   0.882   4.906
 4795TIP3   OH214348   4.833   1.974   0.096
 4795TIP3    H114349   4.748   1.992   0.057
 4795TIP3    H214350   4.839   1.878   0.099
 4796TIP3   OH214351   6.702   2.543   2.962
 4796TIP3    H114352   6.659   2.474   3.013
 4796TIP3    H214353   6.677   2.525   2.871
 4797TIP3   OH214354   5.635   1.569   2.416
 4797TIP3    H114355   5.540   1.566   2.431
 4797TIP3    H214356   5.645   1.545   2.324
 4798TIP3   OH214357   3.390   0.832   3.930
 4798TIP3    H114358   3.461   0.803   3.872
 4798TIP3    H214359   3.323   0.865   3.870
 4799TIP3   OH214360   5.176   2.638   2.366
 4799TIP3    H114361   5.117   2.573   2.328
 4799TIP3    H214362   5.120   2.693   2.422
 4800TIP3   OH214363   0.776   1.465   2.909
 4800TIP3    H114364   0.785   1.435   2.999
 4800TIP3    H214365   0.853   1.430   2.865
 4801TIP3   OH214366   2.402   6.145   3.106
 4801TIP3    H114367   2.460   6.087   3.057
 4801TIP3    H214368   2.457   6.182   3.175
 4802TIP3   OH214369   1.558   6.418   4.395
 4802TIP3    H114370   1.602   6.370   4.465
 4802TIP3    H214371   1.629   6.453   4.341
 4803TIP3   OH214372   0.069   6.592   1.025
 4803TIP3    H114373   0.131   6.591   1.097
 4803TIP3    H214374   0.096   6.519   0.969
 4804TIP3   OH214375   5.642   0.065   1.510
 4804TIP3    H114376   5.710   0.016   1.556
 4804TIP3    H214377   5.677   0.077   1.422
 4805TIP3   OH214378   6.496   6.105   5.476
 4805TIP3    H114379   6.499   6.013   5.453
 4805TIP3    H214380   6.577   6.120   5.524
 4806TIP3   OH214381   1.183   4.468   2.249
 4806TIP3    H114382   1.237   4.506   2.180
 4806TIP3    H214383   1.097   4.455   2.209
 4807TIP3   OH214384   3.106   3.908   4.690
 4807TIP3    H114385   3.076   3.850   4.761
 4807TIP3    H214386   3.202   3.903   4.696
 4808TIP3   OH214387   6.912   3.622   2.579
 4808TIP3    H114388   6.988   3.652   2.530
 4808TIP3    H214389   6.899   3.532   2.550
 4809TIP3   OH214390   4.418   3.034   3.760
 4809TIP3    H114391   4.383   3.007   3.845
 4809TIP3    H214392   4.453   3.122   3.775
 4810TIP3   OH214393   4.396   1.050   1.868
 4810TIP3    H114394   4.445   1.100   1.933
 4810TIP3    H214395   4.308   1.089   1.870
 4811TIP3   OH214396   0.427   2.266   1.369
 4811TIP3    H114397   0.350   2.318   1.345
 4811TIP3    H214398   0.499   2.328   1.367
 4812TIP3   OH214399   5.009   5.171   5.829
 4812TIP3    H114400   5.055   5.110   5.886
 4812TIP3    H214401   4.935   5.121   5.794
 4813TIP3   OH214402   3.350   1.072   3.333
 4813TIP3    H114403   3.319   1.157   3.366
 4813TIP3    H214404   3.392   1.031   3.408
 4814TIP3   OH214405   4.227   5.069   2.553
 4814TIP3    H114406   4.308   5.108   2.521
 4814TIP3    H214407   4.255   5.002   2.615
 4815TIP3   OH214408   0.456   0.504   5.491
 4815TIP3    H114409   0.455   0.588   5.538
 4815TIP3    H214410   0.370   0.466   5.508
 4816TIP3   OH214411   2.605   5.120   3.605
 4816TIP3    H114412   2.645   5.060   3.667
 4816TIP3    H214413   2.527   5.153   3.650
 4817TIP3   OH214414   0.619   5.822   2.138
 4817TIP3    H114415   0.653   5.753   2.081
 4817TIP3    H214416   0.695   5.877   2.157
 4818TIP3   OH214417   6.197   5.545   4.643
 4818TIP3    H114418   6.271   5.539   4.704
 4818TIP3    H214419   6.213   5.477   4.578
 4819TIP3   OH214420   0.312   2.310   3.086
 4819TIP3    H114421   0.251   2.312   3.013
 4819TIP3    H214422   0.376   2.242   3.063
 4820TIP3   OH214423   1.174   5.870   4.430
 4820TIP3    H114424   1.107   5.929   4.464
 4820TIP3    H214425   1.207   5.824   4.507
 4821TIP3   OH214426   6.208   4.660   2.998
 4821TIP3    H114427   6.164   4.718   3.060
 4821TIP3    H214428   6.301   4.679   3.012
 4822TIP3   OH214429   6.195   0.949   4.225
 4822TIP3    H114430   6.139   1.022   4.199
 4822TIP3    H214431   6.224   0.910   4.142
 4823TIP3   OH214432   5.505   1.858   1.381
 4823TIP3    H114433   5.502   1.808   1.462
 4823TIP3    H214434   5.481   1.795   1.313
 4824TIP3   OH214435   5.557   5.144   1.708
 4824TIP3    H114436   5.563   5.172   1.799
 4824TIP3    H214437   5.647   5.148   1.676
 4825TIP3   OH214438   4.299   0.549   0.667
 4825TIP3    H114439   4.379   0.496   0.662
 4825TIP3    H214440   4.325   0.627   0.717
 4826TIP3   OH214441   0.913   0.588   4.795
 4826TIP3    H114442   1.002   0.561   4.816
 4826TIP3    H214443   0.900   0.560   4.704
 4827TIP3   OH214444   2.687   4.420   0.880
 4827TIP3    H114445   2.653   4.349   0.934
 4827TIP3    H214446   2.621   4.433   0.812
 4828TIP3   OH214447   4.073   2.790   1.450
 4828TIP3    H114448   4.139   2.784   1.519
 4828TIP3    H214449   4.022   2.868   1.472
 4829TIP3   OH214450   5.631   0.623   3.147
 4829TIP3    H114451   5.622   0.683   3.221
 4829TIP3    H214452   5.642   0.537   3.187
 4830TIP3   OH214453   5.034   4.682   0.689
 4830TIP3    H114454   5.067   4.736   0.618
 4830TIP3    H214455   4.946   4.715   0.706
 4831TIP3   OH214456   0.557   2.339   0.511
 4831TIP3    H114457   0.479   2.297   0.547
 4831TIP3    H214458   0.588   2.278   0.444
 4832TIP3   OH214459   2.141   5.465   3.552
 4832TIP3    H114460   2.235   5.459   3.569
 4832TIP3    H214461   2.102   5.463   3.640
 4833TIP3   OH214462   1.594   0.643   5.353
 4833TIP3    H114463   1.558   0.608   5.272
 4833TIP3    H214464   1.554   0.730   5.362
 4834TIP3   OH214465   2.136   1.781   2.574
 4834TIP3    H114466   2.058   1.832   2.556
 4834TIP3    H214467   2.195   1.841   2.619
 4835TIP3   OH214468   3.397   4.672   0.787
 4835TIP3    H114469   3.411   4.616   0.863
 4835TIP3    H214470   3.363   4.754   0.824
 4836TIP3   OH214471   1.417   1.904   0.429
 4836TIP3    H114472   1.361   1.837   0.467
 4836TIP3    H214473   1.469   1.936   0.502
 4837TIP3   OH214474   3.221   6.210   2.669
 4837TIP3    H114475   3.153   6.201   2.602
 4837TIP3    H214476   3.300   6.174   2.629
 4838TIP3   OH214477   2.917   2.490   2.773
 4838TIP3    H114478   2.963   2.556   2.719
 4838TIP3    H214479   2.828   2.489   2.738
 4839TIP3   OH214480   1.001   2.189   4.314
 4839TIP3    H114481   0.936   2.121   4.333
 4839TIP3    H214482   0.949   2.264   4.286
 4840TIP3   OH214483   3.127   0.869   2.406
 4840TIP3    H114484   3.073   0.796   2.437
 4840TIP3    H214485   3.178   0.832   2.334
 4841TIP3   OH214486   0.203   2.822   0.012
 4841TIP3    H114487   0.175   2.807   0.103
 4841TIP3    H214488   0.218   2.916   0.007
 4842TIP3   OH214489   0.148   5.958   0.700
 4842TIP3    H114490   0.063   5.941   0.742
 4842TIP3    H214491   0.212   5.911   0.754
 4843TIP3   OH214492   1.320   6.328   0.059
 4843TIP3    H114493   1.338   6.237   0.085
 4843TIP3    H214494   1.406   6.363   0.034
 4844TIP3   OH214495   1.179   4.668   5.669
 4844TIP3    H114496   1.147   4.713   5.746
 4844TIP3    H214497   1.207   4.582   5.700
 4845TIP3   OH214498   0.488   6.420   3.449
 4845TIP3    H114499   0.454   6.360   3.515
 4845TIP3    H214500   0.583   6.415   3.458
 4846TIP3   OH214501   6.904   0.410   5.187
 4846TIP3    H114502   6.855   0.469   5.245
 4846TIP3    H214503   6.984   0.459   5.166
 4847TIP3   OH214504   3.025   2.145   3.100
 4847TIP3    H114505   3.006   2.222   3.046
 4847TIP3    H214506   2.963   2.079   3.070
 4848TIP3   OH214507   2.374   3.612   2.087
 4848TIP3    H114508   2.294   3.620   2.037
 4848TIP3    H214509   2.357   3.662   2.168
 4849TIP3   OH214510   1.848   3.403   2.496
 4849TIP3    H114511   1.766   3.443   2.523
 4849TIP3    H214512   1.884   3.465   2.431
 4850TIP3   OH214513   6.582   5.689   4.699
 4850TIP3    H114514   6.544   5.766   4.740
 4850TIP3    H214515   6.676   5.706   4.697
 4851TIP3   OH214516   4.719   6.567   1.874
 4851TIP3    H114517   4.713   6.558   1.969
 4851TIP3    H214518   4.698   6.659   1.857
 4852TIP3   OH214519   1.725   2.007   3.198
 4852TIP3    H114520   1.638   2.013   3.237
 4852TIP3    H214521   1.714   1.948   3.123
 4853TIP3   OH214522   0.850   3.378   0.140
 4853TIP3    H114523   0.826   3.410   0.053
 4853TIP3    H214524   0.775   3.324   0.167
 4854TIP3   OH214525   6.829   1.581   3.353
 4854TIP3    H114526   6.740   1.615   3.342
 4854TIP3    H214527   6.884   1.642   3.303
 4855TIP3   OH214528   5.927   6.731   5.692
 4855TIP3    H114529   5.872   6.730   5.771
 4855TIP3    H214530   5.933   6.824   5.668
 4856TIP3   OH214531   4.716   3.133   1.420
 4856TIP3    H114532   4.749   3.075   1.353
 4856TIP3    H214533   4.664   3.077   1.477
 4857TIP3   OH214534   3.632   6.244   5.042
 4857TIP3    H114535   3.726   6.258   5.041
 4857TIP3    H214536   3.596   6.328   5.071
 4858TIP3   OH214537   2.702   4.828   4.151
 4858TIP3    H114538   2.634   4.821   4.084
 4858TIP3    H214539   2.698   4.920   4.179
 4859TIP3   OH214540   3.943   4.488   1.060
 4859TIP3    H114541   3.964   4.411   1.112
 4859TIP3    H214542   4.013   4.550   1.079
 4860TIP3   OH214543   0.199   5.154   5.823
 4860TIP3    H114544   0.164   5.226   5.771
 4860TIP3    H214545   0.132   5.086   5.819
 4861TIP3   OH214546   3.371   5.683   4.283
 4861TIP3    H114547   3.442   5.657   4.341
 4861TIP3    H214548   3.297   5.627   4.308
 4862TIP3   OH214549   4.497   0.316   0.185
 4862TIP3    H114550   4.544   0.325   0.268
 4862TIP3    H214551   4.410   0.352   0.203
 4863TIP3   OH214552   1.459   3.760   1.296
 4863TIP3    H114553   1.449   3.693   1.228
 4863TIP3    H214554   1.382   3.815   1.288
 4864TIP3   OH214555   2.914   3.388   1.720
 4864TIP3    H114556   2.831   3.354   1.752
 4864TIP3    H214557   2.915   3.366   1.627
 4865TIP3   OH214558   3.024   2.145   5.295
 4865TIP3    H114559   3.055   2.217   5.350
 4865TIP3    H214560   3.100   2.123   5.240
 4866TIP3   OH214561   4.592   1.126   0.158
 4866TIP3    H114562   4.543   1.189   0.211
 4866TIP3    H214563   4.678   1.121   0.200
 4867TIP3   OH214564   1.149   5.799   2.524
 4867TIP3    H114565   1.074   5.788   2.466
 4867TIP3    H214566   1.214   5.736   2.491
 4868TIP3   OH214567   4.779   6.207   0.501
 4868TIP3    H114568   4.734   6.158   0.432
 4868TIP3    H214569   4.801   6.142   0.567
 4869TIP3   OH214570   4.222   3.692   3.591
 4869TIP3    H114571   4.180   3.715   3.674
 4869TIP3    H214572   4.183   3.752   3.527
 4870TIP3   OH214573   6.457   2.440   4.808
 4870TIP3    H114574   6.526   2.388   4.766
 4870TIP3    H214575   6.503   2.488   4.878
 4871TIP3   OH214576   2.688   3.741   4.105
 4871TIP3    H114577   2.766   3.767   4.155
 4871TIP3    H214578   2.690   3.645   4.105
 4872TIP3   OH214579   2.068   6.784   0.172
 4872TIP3    H114580   2.055   6.693   0.147
 4872TIP3    H214581   2.026   6.835   0.102
 4873TIP3   OH214582   5.428   6.043   2.493
 4873TIP3    H114583   5.337   6.039   2.464
 4873TIP3    H214584   5.429   5.993   2.575
 4874TIP3   OH214585   5.973   3.140   5.157
 4874TIP3    H114586   6.055   3.178   5.190
 4874TIP3    H214587   5.986   3.132   5.063
 4875TIP3   OH214588   1.487   4.230   1.665
 4875TIP3    H114589   1.427   4.270   1.727
 4875TIP3    H214590   1.545   4.300   1.637
 4876TIP3   OH214591  -0.019   5.655   0.542
 4876TIP3    H114592   0.034   5.591   0.494
 4876TIP3    H214593   0.042   5.694   0.605
 4877TIP3   OH214594   4.064   3.368   5.027
 4877TIP3    H114595   4.140   3.418   5.057
 4877TIP3    H214596   3.989   3.420   5.056
 4878TIP3   OH214597   3.577   5.793   5.176
 4878TIP3    H114598   3.625   5.735   5.116
 4878TIP3    H214599   3.494   5.747   5.192
 4879TIP3   OH214600   1.906   1.706   4.388
 4879TIP3    H114601   1.918   1.634   4.450
 4879TIP3    H214602   1.901   1.664   4.303
 4880TIP3   OH214603   2.592   5.061   3.333
 4880TIP3    H114604   2.585   5.081   3.427
 4880TIP3    H214605   2.660   4.994   3.328
 4881TIP3   OH214606   0.695   1.787   3.632
 4881TIP3    H114607   0.624   1.722   3.637
 4881TIP3    H214608   0.775   1.735   3.625
 4882TIP3   OH214609   2.402   4.253   5.423
 4882TIP3    H114610   2.351   4.179   5.456
 4882TIP3    H214611   2.484   4.249   5.472
 4883TIP3   OH214612   1.276   1.013   3.877
 4883TIP3    H114613   1.262   0.961   3.798
 4883TIP3    H214614   1.195   1.063   3.888
 4884TIP3   OH214615   4.705   0.704   0.327
 4884TIP3    H114616   4.663   0.722   0.243
 4884TIP3    H214617   4.641   0.731   0.392
 4885TIP3   OH214618   4.841   1.242   2.989
 4885TIP3    H114619   4.856   1.180   2.919
 4885TIP3    H214620   4.815   1.188   3.064
 4886TIP3   OH214621   0.569   4.840   5.054
 4886TIP3    H114622   0.591   4.755   5.018
 4886TIP3    H214623   0.628   4.850   5.129
 4887TIP3   OH214624   1.610   3.102   5.336
 4887TIP3    H114625   1.660   3.183   5.333
 4887TIP3    H214626   1.585   3.086   5.245
 4888TIP3   OH214627   5.728   3.571   2.994
 4888TIP3    H114628   5.653   3.630   2.989
 4888TIP3    H214629   5.692   3.484   2.978
 4889TIP3   OH214630   3.300   1.780   1.974
 4889TIP3    H114631   3.351   1.715   2.022
 4889TIP3    H214632   3.342   1.863   1.994
 4890TIP3   OH214633   3.545   5.946   0.848
 4890TIP3    H114634   3.627   5.973   0.808
 4890TIP3    H214635   3.482   6.014   0.822
 4891TIP3   OH214636   3.630   5.648   3.798
 4891TIP3    H114637   3.696   5.579   3.800
 4891TIP3    H214638   3.569   5.625   3.868
 4892TIP3   OH214639   2.058   0.587   2.593
 4892TIP3    H114640   2.039   0.524   2.662
 4892TIP3    H214641   2.103   0.659   2.637
 4893TIP3   OH214642   1.839   3.816   3.620
 4893TIP3    H114643   1.873   3.890   3.570
 4893TIP3    H214644   1.786   3.856   3.689
 4894TIP3   OH214645   2.466   3.119   1.511
 4894TIP3    H114646   2.518   3.108   1.591
 4894TIP3    H214647   2.527   3.097   1.440
 4895TIP3   OH214648   2.295   1.878   1.587
 4895TIP3    H114649   2.279   1.903   1.678
 4895TIP3    H214650   2.383   1.840   1.587
 4896TIP3   OH214651   1.528  -0.035   1.253
 4896TIP3    H114652   1.503   0.057   1.249
 4896TIP3    H214653   1.570  -0.046   1.338
 4897TIP3   OH214654   3.142   4.154   0.762
 4897TIP3    H114655   3.223   4.106   0.774
 4897TIP3    H214656   3.168   4.246   0.764
 4898TIP3   OH214657   2.008   4.960   4.161
 4898TIP3    H114658   1.944   4.912   4.214
 4898TIP3    H214659   2.088   4.958   4.212
 4899TIP3   OH214660   0.509   3.847   0.704
 4899TIP3    H114661   0.535   3.846   0.797
 4899TIP3    H214662   0.547   3.767   0.668
 4900TIP3   OH214663   2.902   6.662   4.006
 4900TIP3    H114664   2.934   6.574   3.989
 4900TIP3    H214665   2.832   6.650   4.070
 4901TIP3   OH214666   3.635   2.713   4.555
 4901TIP3    H114667   3.673   2.757   4.479
 4901TIP3    H214668   3.575   2.777   4.592
 4902TIP3   OH214669   4.568   5.354   2.998
 4902TIP3    H114670   4.493   5.407   3.024
 4902TIP3    H214671   4.606   5.323   3.080
 4903TIP3   OH214672   0.904   3.893   0.837
 4903TIP3    H114673   0.900   3.797   0.840
 4903TIP3    H214674   0.934   3.913   0.748
 4904TIP3   OH214675   5.677   1.124   0.534
 4904TIP3    H114676   5.611   1.054   0.540
 4904TIP3    H214677   5.726   1.103   0.454
 4905TIP3   OH214678   5.460   6.638   3.486
 4905TIP3    H114679   5.444   6.547   3.461
 4905TIP3    H214680   5.373   6.678   3.488
 4906TIP3   OH214681   1.438   2.245   5.687
 4906TIP3    H114682   1.409   2.311   5.624
 4906TIP3    H214683   1.373   2.175   5.679
 4907TIP3   OH214684   2.252   4.856   2.612
 4907TIP3    H114685   2.346   4.849   2.627
 4907TIP3    H214686   2.243   4.859   2.517
 4908TIP3   OH214687   0.707   1.547   1.233
 4908TIP3    H114688   0.765   1.473   1.250
 4908TIP3    H214689   0.767   1.619   1.212
 4909TIP3   OH214690   1.252   2.314   4.340
 4909TIP3    H114691   1.175   2.307   4.285
 4909TIP3    H214692   1.322   2.275   4.288
 4910TIP3   OH214693   0.450   1.226   1.669
 4910TIP3    H114694   0.390   1.204   1.597
 4910TIP3    H214695   0.393   1.256   1.739
 4911TIP3   OH214696   2.372   2.998   5.002
 4911TIP3    H114697   2.339   3.079   5.042
 4911TIP3    H214698   2.444   2.971   5.060
 4912TIP3   OH214699   7.048   5.623   1.955
 4912TIP3    H114700   6.975   5.563   1.974
 4912TIP3    H214701   7.124   5.582   1.996
 4913TIP3   OH214702   1.032   4.197   4.668
 4913TIP3    H114703   0.950   4.237   4.636
 4913TIP3    H214704   1.095   4.212   4.598
 4914TIP3   OH214705   4.559   1.512   5.337
 4914TIP3    H114706   4.489   1.474   5.390
 4914TIP3    H214707   4.639   1.499   5.389
 4915TIP3   OH214708   0.134   6.185   4.759
 4915TIP3    H114709   0.138   6.258   4.820
 4915TIP3    H214710   0.095   6.223   4.680
 4916TIP3   OH214711   6.129   1.147   3.757
 4916TIP3    H114712   6.143   1.241   3.766
 4916TIP3    H214713   6.207   1.108   3.797
 4917TIP3   OH214714   2.745   3.476   2.798
 4917TIP3    H114715   2.801   3.402   2.774
 4917TIP3    H214716   2.679   3.480   2.729
 4918TIP3   OH214717   1.077   5.250   2.861
 4918TIP3    H114718   1.014   5.199   2.912
 4918TIP3    H214719   1.163   5.221   2.892
 4919TIP3   OH214720   2.823   0.684   5.881
 4919TIP3    H114721   2.793   0.767   5.919
 4919TIP3    H214722   2.750   0.624   5.896
 4920TIP3   OH214723   2.818   4.590   0.051
 4920TIP3    H114724   2.817   4.503   0.091
 4920TIP3    H214725   2.804   4.575  -0.042
 4921TIP3   OH214726   3.840   4.445   4.546
 4921TIP3    H114727   3.793   4.465   4.465
 4921TIP3    H214728   3.853   4.530   4.588
 4922TIP3   OH214729   0.624   0.933   4.240
 4922TIP3    H114730   0.576   1.016   4.246
 4922TIP3    H214731   0.714   0.956   4.263
 4923TIP3   OH214732   3.762   2.163   2.913
 4923TIP3    H114733   3.838   2.204   2.873
 4923TIP3    H214734   3.741   2.089   2.855
 4924TIP3   OH214735   2.914   4.954   2.221
 4924TIP3    H114736   2.908   4.886   2.155
 4924TIP3    H214737   2.882   4.913   2.301
 4925TIP3   OH214738   5.650   1.954   1.761
 4925TIP3    H114739   5.677   2.045   1.778
 4925TIP3    H214740   5.594   1.931   1.835
 4926TIP3   OH214741   1.681   5.255   1.080
 4926TIP3    H114742   1.622   5.187   1.048
 4926TIP3    H214743   1.745   5.208   1.133
 4927TIP3   OH214744   0.146   6.518   4.423
 4927TIP3    H114745   0.097   6.471   4.491
 4927TIP3    H214746   0.078   6.560   4.369
 4928TIP3   OH214747   7.185   2.616   3.191
 4928TIP3    H114748   7.104   2.576   3.222
 4928TIP3    H214749   7.174   2.709   3.208
 4929TIP3   OH214750   5.353   3.931   0.538
 4929TIP3    H114751   5.400   3.852   0.564
 4929TIP3    H214752   5.304   3.906   0.460
 4930TIP3   OH214753   0.611   1.693   1.721
 4930TIP3    H114754   0.561   1.660   1.795
 4930TIP3    H214755   0.639   1.615   1.674
 4931TIP3   OH214756   1.657   2.806   3.178
 4931TIP3    H114757   1.686   2.809   3.269
 4931TIP3    H214758   1.584   2.744   3.177
 4932TIP3   OH214759   4.350   4.541   4.876
 4932TIP3    H114760   4.288   4.511   4.942
 4932TIP3    H214761   4.432   4.497   4.897
 4933TIP3   OH214762   3.540   6.545   4.379
 4933TIP3    H114763   3.477   6.590   4.434
 4933TIP3    H214764   3.579   6.478   4.437
 4934TIP3   OH214765   6.123   5.498   3.107
 4934TIP3    H114766   6.056   5.443   3.066
 4934TIP3    H214767   6.167   5.542   3.034
 4935TIP3   OH214768   3.149   4.841   2.865
 4935TIP3    H114769   3.178   4.805   2.781
 4935TIP3    H214770   3.228   4.874   2.906
 4936TIP3   OH214771   6.606   3.012   4.468
 4936TIP3    H114772   6.677   3.001   4.531
 4936TIP3    H214773   6.528   3.023   4.523
 4937TIP3   OH214774   0.367   5.852   1.858
 4937TIP3    H114775   0.458   5.824   1.844
 4937TIP3    H214776   0.375   5.939   1.897
 4938TIP3   OH214777   2.788   1.205   1.925
 4938TIP3    H114778   2.778   1.222   2.019
 4938TIP3    H214779   2.812   1.113   1.920
 4939TIP3   OH214780   5.687   2.575   4.689
 4939TIP3    H114781   5.781   2.562   4.701
 4939TIP3    H214782   5.654   2.489   4.663
 4940TIP3   OH214783   7.042   4.709   5.485
 4940TIP3    H114784   7.136   4.698   5.476
 4940TIP3    H214785   7.009   4.714   5.395
 4941TIP3   OH214786   2.707   1.135   1.666
 4941TIP3    H114787   2.753   1.178   1.738
 4941TIP3    H214788   2.749   1.168   1.587
 4942TIP3   OH214789   6.760   0.262   4.818
 4942TIP3    H114790   6.826   0.294   4.757
 4942TIP3    H214791   6.783   0.170   4.832
 4943TIP3   OH214792   6.339   0.048   0.579
 4943TIP3    H114793   6.335  -0.012   0.505
 4943TIP3    H214794   6.261   0.103   0.570
 4944TIP3   OH214795   2.060   5.703   2.176
 4944TIP3    H114796   1.980   5.751   2.200
 4944TIP3    H214797   2.130   5.767   2.185
 4945TIP3   OH214798   4.272   2.167   3.042
 4945TIP3    H114799   4.358   2.131   3.061
 4945TIP3    H214800   4.256   2.145   2.950
 4946TIP3   OH214801   3.451   1.356   2.963
 4946TIP3    H114802   3.544   1.376   2.966
 4946TIP3    H214803   3.446   1.263   2.988
 4947TIP3   OH214804   4.879   0.162   1.243
 4947TIP3    H114805   4.810   0.095   1.241
 4947TIP3    H214806   4.959   0.114   1.265
 4948TIP3   OH214807   2.672   2.726   0.121
 4948TIP3    H114808   2.700   2.786   0.191
 4948TIP3    H214809   2.729   2.749   0.047
 4949TIP3   OH214810   5.473   2.648   2.384
 4949TIP3    H114811   5.501   2.586   2.316
 4949TIP3    H214812   5.378   2.654   2.374
 4950TIP3   OH214813   2.867   0.848   2.619
 4950TIP3    H114814   2.917   0.907   2.563
 4950TIP3    H214815   2.844   0.900   2.696
 4951TIP3   OH214816   5.313   5.319   3.069
 4951TIP3    H114817   5.395   5.313   3.020
 4951TIP3    H214818   5.255   5.256   3.026
 4952TIP3   OH214819   6.850   1.564   4.375
 4952TIP3    H114820   6.874   1.600   4.290
 4952TIP3    H214821   6.914   1.603   4.436
 4953TIP3   OH214822   0.620   6.450   5.098
 4953TIP3    H114823   0.659   6.483   5.179
 4953TIP3    H214824   0.613   6.526   5.041
 4954TIP3   OH214825   4.736   4.240   3.417
 4954TIP3    H114826   4.776   4.233   3.504
 4954TIP3    H214827   4.697   4.154   3.401
 4955TIP3   OH214828   5.036   6.221   4.173
 4955TIP3    H114829   5.106   6.156   4.174
 4955TIP3    H214830   5.080   6.302   4.145
 4956TIP3   OH214831   3.193   0.344   4.215
 4956TIP3    H114832   3.100   0.360   4.232
 4956TIP3    H214833   3.213   0.397   4.137
 4957TIP3   OH214834   4.803   4.452   3.258
 4957TIP3    H114835   4.801   4.364   3.295
 4957TIP3    H214836   4.782   4.440   3.166
 4958TIP3   OH214837   0.561   2.238   3.760
 4958TIP3    H114838   0.470   2.267   3.764
 4958TIP3    H214839   0.578   2.222   3.667
 4959TIP3   OH214840   3.376   5.165   1.528
 4959TIP3    H114841   3.432   5.241   1.540
 4959TIP3    H214842   3.357   5.163   1.434
 4960TIP3   OH214843   6.970   2.263   2.432
 4960TIP3    H114844   6.968   2.176   2.393
 4960TIP3    H214845   7.027   2.314   2.374
 4961TIP3   OH214846   3.335   0.753   5.530
 4961TIP3    H114847   3.399   0.682   5.526
 4961TIP3    H214848   3.386   0.829   5.559
 4962TIP3   OH214849   3.742   0.725   1.325
 4962TIP3    H114850   3.697   0.643   1.304
 4962TIP3    H214851   3.819   0.699   1.376
 4963TIP3   OH214852   3.094   2.927   0.688
 4963TIP3    H114853   3.105   2.918   0.782
 4963TIP3    H214854   3.003   2.902   0.671
 4964TIP3   OH214855   6.949   2.385   3.440
 4964TIP3    H114856   7.037   2.347   3.431
 4964TIP3    H214857   6.940   2.442   3.363
 4965TIP3   OH214858   1.042   1.543   4.503
 4965TIP3    H114859   1.045   1.607   4.432
 4965TIP3    H214860   1.116   1.485   4.487
 4966TIP3   OH214861   0.294   1.547   2.740
 4966TIP3    H114862   0.320   1.477   2.680
 4966TIP3    H214863   0.333   1.626   2.704
 4967TIP3   OH214864   3.464   2.065   0.257
 4967TIP3    H114865   3.408   2.038   0.330
 4967TIP3    H214866   3.416   2.039   0.179
 4968TIP3   OH214867   5.287   4.061   4.509
 4968TIP3    H114868   5.248   4.012   4.437
 4968TIP3    H214869   5.342   4.127   4.467
 4969TIP3   OH214870   6.688   4.603   1.109
 4969TIP3    H114871   6.656   4.596   1.020
 4969TIP3    H214872   6.705   4.512   1.135
 4970TIP3   OH214873   6.126   5.036   2.674
 4970TIP3    H114874   6.115   5.083   2.756
 4970TIP3    H214875   6.048   5.057   2.623
 4971TIP3   OH214876   0.136   6.547   5.715
 4971TIP3    H114877   0.061   6.586   5.670
 4971TIP3    H214878   0.136   6.588   5.801
 4972TIP3   OH214879   3.391   5.011   2.858
 4972TIP3    H114880   3.483   4.991   2.844
 4972TIP3    H214881   3.376   5.092   2.809
 4973TIP3   OH214882   6.057   6.622   4.145
 4973TIP3    H114883   6.100   6.546   4.104
 4973TIP3    H214884   6.038   6.681   4.071
 4974TIP3   OH214885   6.318   3.003   3.328
 4974TIP3    H114886   6.368   2.922   3.330
 4974TIP3    H214887   6.340   3.046   3.411
 4975TIP3   OH214888   5.015   6.360   2.687
 4975TIP3    H114889   5.102   6.355   2.727
 4975TIP3    H214890   4.984   6.269   2.685
 4976TIP3   OH214891   3.345   5.626   5.032
 4976TIP3    H114892   3.435   5.639   5.004
 4976TIP3    H214893   3.348   5.549   5.089
 4977TIP3   OH214894   4.676   2.569   5.282
 4977TIP3    H114895   4.753   2.619   5.256
 4977TIP3    H214896   4.633   2.623   5.348
 4978TIP3   OH214897   5.751   5.007   4.465
 4978TIP3    H114898   5.701   5.022   4.385
 4978TIP3    H214899   5.761   5.093   4.505
 4979TIP3   OH214900   6.587   0.152   2.267
 4979TIP3    H114901   6.523   0.212   2.229
 4979TIP3    H214902   6.564   0.149   2.360
 4980TIP3   OH214903   4.937   4.212   4.366
 4980TIP3    H114904   4.999   4.282   4.349
 4980TIP3    H214905   4.871   4.221   4.297
 4981TIP3   OH214906   6.098   5.117   0.217
 4981TIP3    H114907   6.118   5.158   0.133
 4981TIP3    H214908   6.145   5.170   0.282
 4982TIP3   OH214909   2.353   0.754   0.590
 4982TIP3    H114910   2.419   0.823   0.591
 4982TIP3    H214911   2.389   0.685   0.645
 4983TIP3   OH214912   4.100   5.343   3.346
 4983TIP3    H114913   4.128   5.251   3.342
 4983TIP3    H214914   4.046   5.348   3.425
 4984TIP3   OH214915   6.788   4.575   5.852
 4984TIP3    H114916   6.848   4.583   5.778
 4984TIP3    H214917   6.844   4.558   5.927
 4985TIP3   OH214918   3.613   1.488   3.413
 4985TIP3    H114919   3.550   1.503   3.343
 4985TIP3    H214920   3.621   1.393   3.418
 4986TIP3   OH214921   6.859   5.576   3.535
 4986TIP3    H114922   6.919   5.555   3.463
 4986TIP3    H214923   6.785   5.619   3.492
 4987TIP3   OH214924   3.994   3.659   1.094
 4987TIP3    H114925   4.002   3.659   1.189
 4987TIP3    H214926   3.919   3.717   1.076
 4988TIP3   OH214927   3.023   2.237   2.467
 4988TIP3    H114928   2.929   2.220   2.462
 4988TIP3    H214929   3.058   2.164   2.519
 4989TIP3   OH214930   6.872   2.112   0.630
 4989TIP3    H114931   6.879   2.035   0.687
 4989TIP3    H214932   6.806   2.087   0.565
 4990TIP3   OH214933   4.748   2.312   0.565
 4990TIP3    H114934   4.734   2.394   0.613
 4990TIP3    H214935   4.842   2.310   0.547
 4991TIP3   OH214936   2.951   5.562   1.228
 4991TIP3    H114937   2.877   5.600   1.275
 4991TIP3    H214938   2.955   5.611   1.146
 4992TIP3   OH214939   5.569   3.974   4.967
 4992TIP3    H114940   5.551   4.033   4.894
 4992TIP3    H214941   5.555   3.887   4.932
 4993TIP3   OH214942   6.825   6.787   5.632
 4993TIP3    H114943   6.798   6.828   5.714
 4993TIP3    H214944   6.784   6.700   5.634
 4994TIP3   OH214945   4.850   4.677   3.603
 4994TIP3    H114946   4.880   4.588   3.622
 4994TIP3    H214947   4.922   4.733   3.629
 4995TIP3   OH214948   0.832   3.790   2.612
 4995TIP3    H114949   0.819   3.821   2.522
 4995TIP3    H214950   0.916   3.828   2.638
 4996TIP3   OH214951   5.090   4.681   5.340
 4996TIP3    H114952   5.169   4.670   5.287
 4996TIP3    H214953   5.052   4.594   5.347
 4997TIP3   OH214954   1.143   3.965   5.769
 4997TIP3    H114955   1.074   3.902   5.748
 4997TIP3    H214956   1.148   4.021   5.691
 4998TIP3   OH214957   1.471   2.597   2.868
 4998TIP3    H114958   1.557   2.557   2.883
 4998TIP3    H214959   1.488   2.664   2.802
 4999TIP3   OH214960   6.156   5.203   1.084
 4999TIP3    H114961   6.153   5.152   1.003
 4999TIP3    H214962   6.244   5.189   1.118
 5000TIP3   OH214963   4.892   2.611   1.974
 5000TIP3    H114964   4.907   2.696   1.930
 5000TIP3    H214965   4.866   2.635   2.063
 5001TIP3   OH214966   5.897   0.565   1.089
 5001TIP3    H114967   5.852   0.499   1.142
 5001TIP3    H214968   5.869   0.648   1.127
 5002TIP3   OH214969   4.618   4.051   1.192
 5002TIP3    H114970   4.646   4.080   1.278
 5002TIP3    H214971   4.523   4.056   1.194
 5003TIP3   OH214972   6.938   0.377   2.856
 5003TIP3    H114973   6.921   0.398   2.765
 5003TIP3    H214974   6.984   0.293   2.853
 5004TIP3   OH214975   4.821   2.057   1.414
 5004TIP3    H114976   4.783   1.983   1.460
 5004TIP3    H214977   4.913   2.056   1.439
 5005TIP3   OH214978   3.127   2.003   4.437
 5005TIP3    H114979   3.154   2.090   4.408
 5005TIP3    H214980   3.197   1.975   4.496
 5006TIP3   OH214981   4.608   0.481   0.887
 5006TIP3    H114982   4.674   0.438   0.941
 5006TIP3    H214983   4.615   0.438   0.802
 5007TIP3   OH214984   4.788   0.081   2.462
 5007TIP3    H114985   4.763   0.005   2.515
 5007TIP3    H214986   4.852   0.045   2.399
 5008TIP3   OH214987   3.046   2.651   0.137
 5008TIP3    H114988   3.139   2.673   0.140
 5008TIP3    H214989   3.010   2.688   0.218
 5009TIP3   OH214990   1.995   3.985   1.076
 5009TIP3    H114991   2.041   4.068   1.068
 5009TIP3    H214992   1.907   4.009   1.105
 5010TIP3   OH214993   3.221   6.294   0.078
 5010TIP3    H114994   3.235   6.209   0.121
 5010TIP3    H214995   3.220   6.273  -0.016
 5011TIP3   OH214996   4.264   2.750   3.961
 5011TIP3    H114997   4.193   2.809   3.986
 5011TIP3    H214998   4.343   2.802   3.971
 5012TIP3   OH214999   2.324   1.417   3.267
 5012TIP3    H115000   2.326   1.374   3.182
 5012TIP3    H215001   2.294   1.506   3.249
 5013TIP3   OH215002   1.431   1.751   3.735
 5013TIP3    H115003   1.454   1.808   3.662
 5013TIP3    H215004   1.380   1.680   3.695
 5014TIP3   OH215005   5.552   0.595   3.841
 5014TIP3    H115006   5.472   0.587   3.789
 5014TIP3    H215007   5.567   0.690   3.849
 5015TIP3   OH215008   0.984   3.229   1.353
 5015TIP3    H115009   1.066   3.269   1.380
 5015TIP3    H215010   0.994   3.137   1.375
 5016TIP3   OH215011   3.854   6.048   4.136
 5016TIP3    H115012   3.855   6.141   4.157
 5016TIP3    H215013   3.888   6.043   4.047
 5017TIP3   OH215014   3.706   6.657   3.668
 5017TIP3    H115015   3.653   6.713   3.725
 5017TIP3    H215016   3.665   6.666   3.582
 5018TIP3   OH215017   1.782   1.485   3.467
 5018TIP3    H115018   1.805   1.565   3.420
 5018TIP3    H215019   1.866   1.443   3.485
 5019TIP3   OH215020   3.274   6.276   1.376
 5019TIP3    H115021   3.308   6.334   1.444
 5019TIP3    H215022   3.192   6.317   1.348
 5020TIP3   OH215023   1.462   2.947   3.778
 5020TIP3    H115024   1.425   3.027   3.815
 5020TIP3    H215025   1.398   2.918   3.713
 5021TIP3   OH215026   4.604   2.453   2.953
 5021TIP3    H115027   4.590   2.408   3.037
 5021TIP3    H215028   4.533   2.516   2.947
 5022TIP3   OH215029   6.696   5.472   1.136
 5022TIP3    H115030   6.636   5.397   1.138
 5022TIP3    H215031   6.751   5.456   1.059
 5023TIP3   OH215032   4.749   2.436   2.698
 5023TIP3    H115033   4.756   2.456   2.791
 5023TIP3    H215034   4.663   2.394   2.690
 5024TIP3   OH215035   3.379   4.529   3.474
 5024TIP3    H115036   3.316   4.545   3.544
 5024TIP3    H215037   3.339   4.569   3.397
 5025TIP3   OH215038   6.416   1.728   2.279
 5025TIP3    H115039   6.505   1.713   2.309
 5025TIP3    H215040   6.416   1.695   2.189
 5026TIP3   OH215041   1.369   5.536   3.828
 5026TIP3    H115042   1.421   5.530   3.748
 5026TIP3    H215043   1.408   5.609   3.876
 5027TIP3   OH215044   1.841   4.610   2.613
 5027TIP3    H115045   1.932   4.620   2.643
 5027TIP3    H215046   1.791   4.593   2.693
 5028TIP3   OH215047   2.874   5.369   5.477
 5028TIP3    H115048   2.849   5.280   5.504
 5028TIP3    H215049   2.853   5.423   5.553
 5029TIP3   OH215050   5.467   4.815   5.039
 5029TIP3    H115051   5.560   4.822   5.058
 5029TIP3    H215052   5.427   4.887   5.088
 5030TIP3   OH215053   2.617   4.256   2.367
 5030TIP3    H115054   2.596   4.275   2.276
 5030TIP3    H215055   2.636   4.341   2.406
 5031TIP3   OH215056   6.174   4.672   3.545
 5031TIP3    H115057   6.118   4.741   3.509
 5031TIP3    H215058   6.160   4.597   3.487
 5032TIP3   OH215059   5.519   1.402   3.308
 5032TIP3    H115060   5.565   1.404   3.224
 5032TIP3    H215061   5.581   1.441   3.371
 5033TIP3   OH215062   4.320   1.686   2.620
 5033TIP3    H115063   4.376   1.622   2.575
 5033TIP3    H215064   4.244   1.694   2.563
 5034TIP3   OH215065   3.477   6.289   4.546
 5034TIP3    H115066   3.526   6.234   4.486
 5034TIP3    H215067   3.479   6.242   4.629
 5035TIP3   OH215068   1.756   1.664   1.222
 5035TIP3    H115069   1.795   1.751   1.231
 5035TIP3    H215070   1.830   1.606   1.207
 5036TIP3   OH215071   4.251   1.168   5.445
 5036TIP3    H115072   4.325   1.128   5.491
 5036TIP3    H215073   4.198   1.208   5.514
 5037TIP3   OH215074   4.449   0.072   3.982
 5037TIP3    H115075   4.510   0.099   4.050
 5037TIP3    H215076   4.375   0.132   3.990
 5038TIP3   OH215077   6.126   5.046   1.730
 5038TIP3    H115078   6.126   4.990   1.807
 5038TIP3    H215079   6.043   5.028   1.686
 5039TIP3   OH215080   2.107   1.571   0.965
 5039TIP3    H115081   2.088   1.642   0.904
 5039TIP3    H215082   2.100   1.491   0.912
 5040TIP3   OH215083   0.712   3.104   3.498
 5040TIP3    H115084   0.684   3.013   3.506
 5040TIP3    H215085   0.740   3.128   3.587
 5041TIP3   OH215086   2.753   6.157   0.411
 5041TIP3    H115087   2.692   6.131   0.342
 5041TIP3    H215088   2.744   6.089   0.478
 5042TIP3   OH215089   6.370   2.770   2.016
 5042TIP3    H115090   6.303   2.704   2.033
 5042TIP3    H215091   6.338   2.816   1.938
 5043TIP3   OH215092   7.138   6.018   2.670
 5043TIP3    H115093   7.195   6.082   2.628
 5043TIP3    H215094   7.054   6.026   2.624
 5044TIP3   OH215095   4.495   0.269   5.860
 5044TIP3    H115096   4.426   0.205   5.842
 5044TIP3    H215097   4.474   0.343   5.802
 5045TIP3   OH215098   1.834   2.091   0.088
 5045TIP3    H115099   1.747   2.052   0.095
 5045TIP3    H215100   1.866   2.095   0.178
 5046TIP3   OH215101   5.198   6.683   5.809
 5046TIP3    H115102   5.117   6.713   5.851
 5046TIP3    H215103   5.267   6.713   5.868
 5047TIP3   OH215104   0.693   4.897   0.343
 5047TIP3    H115105   0.600   4.873   0.341
 5047TIP3    H215106   0.693   4.993   0.350
 5048TIP3   OH215107   4.289   3.485   3.223
 5048TIP3    H115108   4.354   3.473   3.292
 5048TIP3    H215109   4.299   3.407   3.167
 5049TIP3   OH215110   6.269   2.284   1.176
 5049TIP3    H115111   6.238   2.374   1.182
 5049TIP3    H215112   6.239   2.253   1.091
 5050TIP3   OH215113   3.585   4.610   2.643
 5050TIP3    H115114   3.677   4.608   2.669
 5050TIP3    H215115   3.578   4.545   2.572
 5051TIP3   OH215116   1.769   6.682   1.457
 5051TIP3    H115117   1.704   6.749   1.436
 5051TIP3    H215118   1.764   6.619   1.385
 5052TIP3   OH215119   1.866   5.888   5.463
 5052TIP3    H115120   1.878   5.793   5.459
 5052TIP3    H215121   1.941   5.924   5.416
 5053TIP3   OH215122   2.646   0.480   1.206
 5053TIP3    H115123   2.715   0.545   1.221
 5053TIP3    H215124   2.565   0.525   1.229
 5054TIP3   OH215125   2.934   4.432   3.233
 5054TIP3    H115126   2.954   4.477   3.151
 5054TIP3    H215127   2.839   4.433   3.238
 5055TIP3   OH215128   2.960   4.604   2.825
 5055TIP3    H115129   2.911   4.611   2.906
 5055TIP3    H215130   3.039   4.656   2.840
 5056TIP3   OH215131   5.060   1.768   3.723
 5056TIP3    H115132   5.000   1.836   3.692
 5056TIP3    H215133   5.146   1.811   3.724
 5057TIP3   OH215134   6.846   4.253   3.926
 5057TIP3    H115135   6.831   4.229   3.834
 5057TIP3    H215136   6.935   4.222   3.944
 5058TIP3   OH215137   2.526   5.486   1.163
 5058TIP3    H115138   2.596   5.434   1.203
 5058TIP3    H215139   2.447   5.436   1.180
 5059TIP3   OH215140   4.119   0.912   1.941
 5059TIP3    H115141   4.123   0.890   2.034
 5059TIP3    H215142   4.112   1.008   1.940
 5060TIP3   OH215143   3.633   5.618   4.969
 5060TIP3    H115144   3.669   5.533   4.996
 5060TIP3    H215145   3.707   5.665   4.932
 5061TIP3   OH215146   6.826   5.673   4.267
 5061TIP3    H115147   6.757   5.730   4.301
 5061TIP3    H215148   6.813   5.672   4.173
 5062TIP3   OH215149   5.193   1.922   5.088
 5062TIP3    H115150   5.187   1.950   4.997
 5062TIP3    H215151   5.237   1.994   5.133
 5063TIP3   OH215152   6.525   4.546   0.559
 5063TIP3    H115153   6.611   4.555   0.518
 5063TIP3    H215154   6.467   4.598   0.504
 5064TIP3   OH215155   3.516   1.026   2.934
 5064TIP3    H115156   3.461   0.978   2.995
 5064TIP3    H215157   3.601   0.980   2.937
 5065TIP3   OH215158   0.000   3.516   5.113
 5065TIP3    H115159   0.093   3.526   5.092
 5065TIP3    H215160  -0.041   3.597   5.083
 5066TIP3   OH215161   3.939   3.092   4.424
 5066TIP3    H115162   3.976   3.030   4.487
 5066TIP3    H215163   4.004   3.162   4.418
 5067TIP3   OH215164   4.081   3.717   1.671
 5067TIP3    H115165   4.176   3.724   1.675
 5067TIP3    H215166   4.065   3.647   1.608
 5068TIP3   OH215167   0.606   5.151   3.825
 5068TIP3    H115168   0.546   5.105   3.766
 5068TIP3    H215169   0.550   5.213   3.871
 5069TIP3   OH215170   1.117   5.783   5.635
 5069TIP3    H115171   1.063   5.792   5.556
 5069TIP3    H215172   1.172   5.862   5.635
 5070TIP3   OH215173   6.165   3.696   0.945
 5070TIP3    H115174   6.255   3.663   0.949
 5070TIP3    H215175   6.154   3.745   1.026
 5071TIP3   OH215176   2.099   3.262   1.167
 5071TIP3    H115177   2.017   3.257   1.216
 5071TIP3    H215178   2.160   3.209   1.218
 5072TIP3   OH215179   1.393   4.924   2.390
 5072TIP3    H115180   1.401   5.017   2.369
 5072TIP3    H215181   1.470   4.883   2.351
 5073TIP3   OH215182   3.132   1.173   0.847
 5073TIP3    H115183   3.097   1.148   0.933
 5073TIP3    H215184   3.208   1.227   0.867
 5074TIP3   OH215185   0.061   3.376   2.716
 5074TIP3    H115186   0.012   3.439   2.664
 5074TIP3    H215187   0.153   3.400   2.702
 5075TIP3   OH215188   3.227   1.309   4.434
 5075TIP3    H115189   3.162   1.240   4.450
 5075TIP3    H215190   3.185   1.389   4.466
 5076TIP3   OH215191   4.422   5.271   3.495
 5076TIP3    H115192   4.506   5.233   3.520
 5076TIP3    H215193   4.442   5.362   3.473
 5077TIP3   OH215194   0.557   5.616   5.485
 5077TIP3    H115195   0.485   5.668   5.522
 5077TIP3    H215196   0.579   5.554   5.555
 5078TIP3   OH215197   4.250   6.385   0.747
 5078TIP3    H115198   4.262   6.416   0.837
 5078TIP3    H215199   4.273   6.460   0.693
 5079TIP3   OH215200   1.614   5.815   4.448
 5079TIP3    H115201   1.673   5.809   4.524
 5079TIP3    H215202   1.560   5.736   4.455
 5080TIP3   OH215203   7.173   5.733   5.510
 5080TIP3    H115204   7.087   5.761   5.540
 5080TIP3    H215205   7.223   5.717   5.590
 5081TIP3   OH215206   1.680   4.600   3.730
 5081TIP3    H115207   1.602   4.616   3.783
 5081TIP3    H215208   1.655   4.627   3.642
 5082TIP3   OH215209   3.628   3.096   2.516
 5082TIP3    H115210   3.533   3.105   2.529
 5082TIP3    H215211   3.638   3.085   2.421
 5083TIP3   OH215212   3.635   3.431   2.832
 5083TIP3    H115213   3.580   3.353   2.841
 5083TIP3    H215214   3.721   3.402   2.863
 5084TIP3   OH215215   2.127   5.181   3.327
 5084TIP3    H115216   2.052   5.240   3.324
 5084TIP3    H215217   2.184   5.210   3.255
 5085TIP3   OH215218   1.750   1.247   4.361
 5085TIP3    H115219   1.722   1.157   4.346
 5085TIP3    H215220   1.840   1.251   4.329
 5086TIP3   OH215221   5.750   6.744   3.844
 5086TIP3    H115222   5.677   6.800   3.873
 5086TIP3    H215223   5.711   6.657   3.838
 5087TIP3   OH215224   6.531   3.834   2.292
 5087TIP3    H115225   6.607   3.887   2.314
 5087TIP3    H215226   6.566   3.762   2.239
 5088TIP3   OH215227   4.514   2.419   5.095
 5088TIP3    H115228   4.590   2.469   5.123
 5088TIP3    H215229   4.548   2.354   5.034
 5089TIP3   OH215230   6.686   2.925   4.784
 5089TIP3    H115231   6.782   2.933   4.787
 5089TIP3    H215232   6.661   2.898   4.872
 5090TIP3   OH215233   3.376   2.106   1.166
 5090TIP3    H115234   3.291   2.130   1.129
 5090TIP3    H215235   3.379   2.151   1.250
 5091TIP3   OH215236   3.823   4.963   0.831
 5091TIP3    H115237   3.763   4.902   0.789
 5091TIP3    H215238   3.792   4.969   0.922
 5092TIP3   OH215239   3.774   1.680   0.112
 5092TIP3    H115240   3.733   1.754   0.067
 5092TIP3    H215241   3.723   1.604   0.086
 5093TIP3   OH215242   2.750   5.749   4.334
 5093TIP3    H115243   2.701   5.812   4.282
 5093TIP3    H215244   2.737   5.776   4.424
 5094TIP3   OH215245   4.826   0.261   0.796
 5094TIP3    H115246   4.802   0.297   0.882
 5094TIP3    H215247   4.892   0.323   0.763
 5095TIP3   OH215248   0.315   3.636   0.408
 5095TIP3    H115249   0.305   3.726   0.378
 5095TIP3    H215250   0.235   3.618   0.457
 5096TIP3   OH215251   6.288   3.946   4.525
 5096TIP3    H115252   6.211   3.953   4.468
 5096TIP3    H215253   6.323   4.035   4.530
 5097TIP3   OH215254   3.411   3.839   5.235
 5097TIP3    H115255   3.327   3.848   5.190
 5097TIP3    H215256   3.468   3.795   5.171
 5098TIP3   OH215257   5.386   5.040   2.380
 5098TIP3    H115258   5.296   5.018   2.354
 5098TIP3    H215259   5.375   5.082   2.466
 5099TIP3   OH215260   3.708   2.663   2.155
 5099TIP3    H115261   3.787   2.614   2.175
 5099TIP3    H215262   3.739   2.745   2.118
 5100TIP3   OH215263   5.729   5.102   0.817
 5100TIP3    H115264   5.700   5.017   0.783
 5100TIP3    H215265   5.807   5.123   0.764
 5101TIP3   OH215266   5.273   0.588   3.108
 5101TIP3    H115267   5.316   0.516   3.062
 5101TIP3    H215268   5.329   0.664   3.092
 5102TIP3   OH215269   3.111   5.898   1.245
 5102TIP3    H115270   3.082   5.894   1.336
 5102TIP3    H215271   3.174   5.826   1.237
 5103TIP3   OH215272   2.880   5.874   5.672
 5103TIP3    H115273   2.844   5.904   5.756
 5103TIP3    H215274   2.807   5.829   5.630
 5104TIP3   OH215275   3.702   3.782   4.211
 5104TIP3    H115276   3.707   3.797   4.117
 5104TIP3    H215277   3.785   3.814   4.245
 5105TIP3   OH215278   0.929   5.524   4.223
 5105TIP3    H115279   0.993   5.471   4.174
 5105TIP3    H215280   0.977   5.603   4.246
 5106TIP3   OH215281   3.424   6.495   4.918
 5106TIP3    H115282   3.359   6.469   4.983
 5106TIP3    H215283   3.441   6.414   4.868
 5107TIP3   OH215284   3.530   2.630   5.393
 5107TIP3    H115285   3.581   2.674   5.461
 5107TIP3    H215286   3.486   2.558   5.439
 5108TIP3   OH215287   5.844   6.787   1.348
 5108TIP3    H115288   5.847   6.708   1.294
 5108TIP3    H215289   5.762   6.780   1.397
 5109TIP3   OH215290   2.221   2.716   3.918
 5109TIP3    H115291   2.245   2.665   3.840
 5109TIP3    H215292   2.294   2.703   3.978
 5110TIP3   OH215293   0.522   0.271   4.792
 5110TIP3    H115294   0.565   0.195   4.831
 5110TIP3    H215295   0.552   0.345   4.845
 5111TIP3   OH215296   4.445   6.793   5.614
 5111TIP3    H115297   4.389   6.826   5.684
 5111TIP3    H215298   4.389   6.732   5.565
 5112TIP3   OH215299   6.718   5.432   2.484
 5112TIP3    H115300   6.762   5.406   2.564
 5112TIP3    H215301   6.785   5.423   2.416
 5113TIP3   OH215302   3.062   6.028   1.020
 5113TIP3    H115303   3.088   5.962   0.955
 5113TIP3    H215304   3.082   5.988   1.104
 5114TIP3   OH215305   0.284   2.851   2.448
 5114TIP3    H115306   0.357   2.862   2.387
 5114TIP3    H215307   0.213   2.902   2.410
 5115TIP3   OH215308   6.187   4.626   5.524
 5115TIP3    H115309   6.190   4.541   5.481
 5115TIP3    H215310   6.265   4.672   5.492
 5116TIP3   OH215311   5.825   4.414   2.091
 5116TIP3    H115312   5.913   4.451   2.082
 5116TIP3    H215313   5.836   4.339   2.149
 5117TIP3   OH215314   3.475   1.547   2.773
 5117TIP3    H115315   3.520   1.617   2.819
 5117TIP3    H215316   3.447   1.487   2.842
 5118TIP3   OH215317   1.919   1.096   4.840
 5118TIP3    H115318   1.971   1.122   4.764
 5118TIP3    H215319   1.861   1.027   4.808
 5119TIP3   OH215320   0.242   0.288   1.501
 5119TIP3    H115321   0.160   0.299   1.452
 5119TIP3    H215322   0.310   0.289   1.434
 5120TIP3   OH215323   3.650   6.697   3.414
 5120TIP3    H115324   3.572   6.720   3.363
 5120TIP3    H215325   3.722   6.703   3.351
 5121TIP3   OH215326   0.624   2.899   2.457
 5121TIP3    H115327   0.713   2.866   2.448
 5121TIP3    H215328   0.603   2.885   2.549
 5122TIP3   OH215329   4.449   1.528   3.266
 5122TIP3    H115330   4.488   1.473   3.198
 5122TIP3    H215331   4.459   1.618   3.234
 5123TIP3   OH215332   2.533   6.446   3.475
 5123TIP3    H115333   2.520   6.522   3.418
 5123TIP3    H215334   2.605   6.472   3.532
 5124TIP3   OH215335   0.862   5.893   1.892
 5124TIP3    H115336   0.943   5.869   1.848
 5124TIP3    H215337   0.890   5.932   1.975
 5125TIP3   OH215338   3.526   0.557   5.416
 5125TIP3    H115339   3.613   0.517   5.417
 5125TIP3    H215340   3.469   0.492   5.459
 5126TIP3   OH215341   0.519   4.068   4.924
 5126TIP3    H115342   0.607   4.060   4.888
 5126TIP3    H215343   0.469   3.999   4.882
 5127TIP3   OH215344   4.029   6.417   5.616
 5127TIP3    H115345   4.001   6.331   5.648
 5127TIP3    H215346   3.981   6.429   5.534
 5128TIP3   OH215347   3.854   4.242   3.527
 5128TIP3    H115348   3.858   4.330   3.564
 5128TIP3    H215349   3.834   4.185   3.601
 5129TIP3   OH215350   7.094   0.493   3.620
 5129TIP3    H115351   7.109   0.446   3.702
 5129TIP3    H215352   7.115   0.429   3.552
 5130TIP3   OH215353   2.271   3.134   2.593
 5130TIP3    H115354   2.210   3.201   2.623
 5130TIP3    H215355   2.356   3.179   2.590
 5131TIP3   OH215356   6.717   0.867   3.144
 5131TIP3    H115357   6.752   0.856   3.055
 5131TIP3    H215358   6.632   0.824   3.141
 5132TIP3   OH215359   2.201   3.655   1.835
 5132TIP3    H115360   2.155   3.579   1.799
 5132TIP3    H215361   2.247   3.692   1.760
 5133TIP3   OH215362   6.419   3.399   3.835
 5133TIP3    H115363   6.432   3.489   3.807
 5133TIP3    H215364   6.336   3.400   3.882
 5134TIP3   OH215365   1.316   0.296   5.354
 5134TIP3    H115366   1.287   0.387   5.342
 5134TIP3    H215367   1.401   0.292   5.310
 5135TIP3   OH215368   5.126   2.125   3.529
 5135TIP3    H115369   5.174   2.114   3.611
 5135TIP3    H215370   5.149   2.213   3.499
 5136TIP3   OH215371   0.814   2.944   1.216
 5136TIP3    H115372   0.864   2.958   1.136
 5136TIP3    H215373   0.726   2.975   1.195
 5137TIP3   OH215374   3.137   4.191   3.695
 5137TIP3    H115375   3.219   4.154   3.729
 5137TIP3    H215376   3.069   4.133   3.728
 5138TIP3   OH215377   5.897   2.454   1.024
 5138TIP3    H115378   5.850   2.496   1.096
 5138TIP3    H215379   5.849   2.372   1.009
 5139TIP3   OH215380   4.299   6.638   3.838
 5139TIP3    H115381   4.217   6.687   3.839
 5139TIP3    H215382   4.331   6.646   3.748
 5140TIP3   OH215383   6.653   3.274   3.119
 5140TIP3    H115384   6.607   3.251   3.199
 5140TIP3    H215385   6.746   3.269   3.142
 5141TIP3   OH215386   6.467   5.544   2.825
 5141TIP3    H115387   6.505   5.462   2.857
 5141TIP3    H215388   6.502   5.553   2.736
 5142TIP3   OH215389   3.346   6.088   1.949
 5142TIP3    H115390   3.263   6.102   1.993
 5142TIP3    H215391   3.336   6.004   1.905
 5143TIP3   OH215392   1.647   1.770   3.387
 5143TIP3    H115393   1.600   1.793   3.306
 5143TIP3    H215394   1.610   1.828   3.453
 5144TIP3   OH215395   4.114   6.249   1.843
 5144TIP3    H115396   4.168   6.324   1.868
 5144TIP3    H215397   4.037   6.256   1.899
 5145TIP3   OH215398   1.976   3.042   2.975
 5145TIP3    H115399   1.932   3.035   2.890
 5145TIP3    H215400   2.067   3.063   2.953
 5146TIP3   OH215401   2.677   1.572   5.728
 5146TIP3    H115402   2.618   1.499   5.710
 5146TIP3    H215403   2.740   1.537   5.791
 5147TIP3   OH215404   3.933   0.063   3.127
 5147TIP3    H115405   3.999   0.053   3.195
 5147TIP3    H215406   3.872   0.128   3.161
 5148TIP3   OH215407   2.997   3.175   4.751
 5148TIP3    H115408   3.047   3.214   4.823
 5148TIP3    H215409   2.970   3.089   4.784
 5149TIP3   OH215410   0.923   3.155   5.631
 5149TIP3    H115411   0.881   3.219   5.689
 5149TIP3    H215412   0.853   3.128   5.570
 5150TIP3   OH215413   2.602   6.011   3.011
 5150TIP3    H115414   2.669   6.054   3.065
 5150TIP3    H215415   2.622   6.038   2.922
 5151TIP3   OH215416   6.573   3.190   1.079
 5151TIP3    H115417   6.487   3.149   1.085
 5151TIP3    H215418   6.630   3.135   1.132
 5152TIP3   OH215419   5.797   2.733   5.660
 5152TIP3    H115420   5.715   2.746   5.612
 5152TIP3    H215421   5.816   2.639   5.650
 5153TIP3   OH215422   1.639   1.088   2.774
 5153TIP3    H115423   1.696   1.148   2.726
 5153TIP3    H215424   1.550   1.115   2.751
 5154TIP3   OH215425   2.081   4.660   2.708
 5154TIP3    H115426   2.140   4.585   2.715
 5154TIP3    H215427   2.135   4.735   2.734
 5155TIP3   OH215428   1.063   1.173   2.723
 5155TIP3    H115429   1.129   1.187   2.791
 5155TIP3    H215430   1.100   1.105   2.667
 5156TIP3   OH215431   6.549   5.599   0.228
 5156TIP3    H115432   6.458   5.571   0.222
 5156TIP3    H215433   6.546   5.694   0.228
 5157TIP3   OH215434   6.294   3.031   2.848
 5157TIP3    H115435   6.238   3.054   2.922
 5157TIP3    H215436   6.369   3.091   2.855
 5158TIP3   OH215437   7.234   6.045   0.137
 5158TIP3    H115438   7.187   6.001   0.065
 5158TIP3    H215439   7.243   6.136   0.108
 5159TIP3   OH215440   3.181   3.802   5.037
 5159TIP3    H115441   3.132   3.834   5.112
 5159TIP3    H215442   3.119   3.802   4.965
 5160TIP3   OH215443   3.548   3.506   1.573
 5160TIP3    H115444   3.622   3.522   1.632
 5160TIP3    H215445   3.545   3.583   1.516
 5161TIP3   OH215446   0.502   4.619   4.021
 5161TIP3    H115447   0.443   4.677   3.972
 5161TIP3    H215448   0.576   4.674   4.045
 5162TIP3   OH215449   1.644   4.008   0.076
 5162TIP3    H115450   1.596   4.085   0.106
 5162TIP3    H215451   1.698   3.982   0.151
 5163TIP3   OH215452   2.478   2.614   4.540
 5163TIP3    H115453   2.388   2.635   4.517
 5163TIP3    H215454   2.530   2.687   4.507
 5164TIP3   OH215455   1.684   0.853   4.991
 5164TIP3    H115456   1.690   0.909   4.914
 5164TIP3    H215457   1.672   0.765   4.956
 5165TIP3   OH215458   0.985   3.424   3.181
 5165TIP3    H115459   0.936   3.395   3.258
 5165TIP3    H215460   0.983   3.349   3.121
 5166TIP3   OH215461   7.105   5.681   5.190
 5166TIP3    H115462   7.048   5.628   5.134
 5166TIP3    H215463   7.077   5.771   5.174
 5167TIP3   OH215464   2.204   1.645   4.376
 5167TIP3    H115465   2.230   1.735   4.393
 5167TIP3    H215466   2.147   1.650   4.299
 5168TIP3   OH215467   5.569   0.848   0.122
 5168TIP3    H115468   5.645   0.792   0.104
 5168TIP3    H215469   5.509   0.830   0.050
 5169TIP3   OH215470   6.532   5.293   4.645
 5169TIP3    H115471   6.522   5.198   4.645
 5169TIP3    H215472   6.626   5.308   4.635
 5170TIP3   OH215473   1.295   4.854   2.976
 5170TIP3    H115474   1.217   4.837   2.922
 5170TIP3    H215475   1.272   4.820   3.062
 5171TIP3   OH215476   0.982   4.860   4.207
 5171TIP3    H115477   0.959   4.949   4.179
 5171TIP3    H215478   0.967   4.806   4.130
 5172TIP3   OH215479   6.614   3.520   2.531
 5172TIP3    H115480   6.687   3.509   2.593
 5172TIP3    H215481   6.640   3.468   2.454
 5173TIP3   OH215482   3.863   4.465   1.636
 5173TIP3    H115483   3.817   4.383   1.620
 5173TIP3    H215484   3.822   4.527   1.576
 5174TIP3   OH215485   3.497   4.862   2.072
 5174TIP3    H115486   3.543   4.812   2.004
 5174TIP3    H215487   3.518   4.954   2.051
 5175TIP3   OH215488   7.014   3.444   3.558
 5175TIP3    H115489   7.014   3.497   3.478
 5175TIP3    H215490   7.092   3.471   3.606
 5176TIP3   OH215491   3.475   2.317   5.384
 5176TIP3    H115492   3.423   2.331   5.304
 5176TIP3    H215493   3.431   2.244   5.428
 5177TIP3   OH215494   7.229   6.358   1.854
 5177TIP3    H115495   7.175   6.432   1.827
 5177TIP3    H215496   7.170   6.283   1.850
 5178TIP3   OH215497   2.336   2.801   1.095
 5178TIP3    H115498   2.341   2.707   1.113
 5178TIP3    H215499   2.243   2.822   1.106
 5179TIP3   OH215500   6.239   1.943   2.403
 5179TIP3    H115501   6.250   1.849   2.387
 5179TIP3    H215502   6.172   1.948   2.471
 5180TIP3   OH215503   1.267   3.518   4.262
 5180TIP3    H115504   1.207   3.554   4.197
 5180TIP3    H215505   1.215   3.456   4.312
 5181TIP3   OH215506   0.588   4.165   0.244
 5181TIP3    H115507   0.539   4.209   0.314
 5181TIP3    H215508   0.574   4.072   0.260
 5182TIP3   OH215509   6.443   0.258   3.125
 5182TIP3    H115510   6.460   0.297   3.211
 5182TIP3    H215511   6.491   0.175   3.126
 5183TIP3   OH215512   5.799   1.200   2.597
 5183TIP3    H115513   5.741   1.139   2.552
 5183TIP3    H215514   5.878   1.150   2.616
 5184TIP3   OH215515   3.178   1.900   0.188
 5184TIP3    H115516   3.236   1.919   0.114
 5184TIP3    H215517   3.094   1.937   0.163
 5185TIP3   OH215518   3.368   2.073   5.435
 5185TIP3    H115519   3.419   2.006   5.481
 5185TIP3    H215520   3.282   2.073   5.479
 5186TIP3   OH215521   6.398   1.457   2.992
 5186TIP3    H115522   6.369   1.392   2.928
 5186TIP3    H215523   6.445   1.407   3.058
 5187TIP3   OH215524  -0.011   3.028   4.737
 5187TIP3    H115525   0.041   3.093   4.785
 5187TIP3    H215526   0.032   3.022   4.651
 5188TIP3   OH215527   2.014   1.319   4.955
 5188TIP3    H115528   1.987   1.385   4.892
 5188TIP3    H215529   1.976   1.237   4.922
 5189TIP3   OH215530   5.360   5.319   4.126
 5189TIP3    H115531   5.406   5.395   4.091
 5189TIP3    H215532   5.379   5.320   4.220
 5190TIP3   OH215533   4.037   1.447   2.655
 5190TIP3    H115534   4.079   1.399   2.726
 5190TIP3    H215535   3.948   1.462   2.685
 5191TIP3   OH215536   2.146   6.764   5.703
 5191TIP3    H115537   2.201   6.840   5.723
 5191TIP3    H215538   2.124   6.774   5.610
 5192TIP3   OH215539   0.036   1.513   5.079
 5192TIP3    H115540   0.112   1.459   5.102
 5192TIP3    H215541  -0.014   1.458   5.018
 5193TIP3   OH215542   1.276   0.819   4.082
 5193TIP3    H115543   1.295   0.731   4.052
 5193TIP3    H215544   1.268   0.871   4.001
 5194TIP3   OH215545   6.848   3.967   1.557
 5194TIP3    H115546   6.882   4.043   1.603
 5194TIP3    H215547   6.789   4.002   1.491
 5195TIP3   OH215548   5.143   6.011   2.502
 5195TIP3    H115549   5.165   5.951   2.573
 5195TIP3    H215550   5.062   6.054   2.532
 5196TIP3   OH215551   0.334   6.180   3.166
 5196TIP3    H115552   0.365   6.104   3.115
 5196TIP3    H215553   0.384   6.254   3.133
 5197TIP3   OH215554   2.961   4.271   0.388
 5197TIP3    H115555   3.027   4.339   0.398
 5197TIP3    H215556   2.989   4.202   0.448
 5198TIP3   OH215557   6.171   2.451   3.368
 5198TIP3    H115558   6.136   2.396   3.438
 5198TIP3    H215559   6.131   2.537   3.382
 5199TIP3   OH215560   2.679   6.599   0.561
 5199TIP3    H115561   2.664   6.531   0.627
 5199TIP3    H215562   2.766   6.581   0.526
 5200TIP3   OH215563   6.023   1.443   0.917
 5200TIP3    H115564   6.073   1.524   0.930
 5200TIP3    H215565   6.089   1.373   0.918
 5201TIP3   OH215566   4.248   2.245   1.719
 5201TIP3    H115567   4.184   2.174   1.714
 5201TIP3    H215568   4.322   2.207   1.767
 5202TIP3   OH215569   5.842   3.357   5.080
 5202TIP3    H115570   5.861   3.277   5.129
 5202TIP3    H215571   5.889   3.425   5.128
 5203TIP3   OH215572   3.773   3.723   2.550
 5203TIP3    H115573   3.712   3.787   2.586
 5203TIP3    H215574   3.718   3.654   2.513
 5204TIP3   OH215575   0.851   3.934   0.119
 5204TIP3    H115576   0.921   3.956   0.180
 5204TIP3    H215577   0.829   4.017   0.077
 5205TIP3   OH215578   3.159   4.462   0.450
 5205TIP3    H115579   3.110   4.518   0.510
 5205TIP3    H215580   3.237   4.436   0.499
 5206TIP3   OH215581   2.079   1.985   4.928
 5206TIP3    H115582   2.130   1.910   4.959
 5206TIP3    H215583   2.113   2.002   4.840
 5207TIP3   OH215584   4.721   0.688   1.515
 5207TIP3    H115585   4.729   0.783   1.521
 5207TIP3    H215586   4.655   0.665   1.579
 5208TIP3   OH215587   3.877   3.195   2.133
 5208TIP3    H115588   3.794   3.147   2.140
 5208TIP3    H215589   3.902   3.211   2.224
 5209TIP3   OH215590   4.023   0.334   5.686
 5209TIP3    H115591   4.056   0.413   5.730
 5209TIP3    H215592   4.072   0.331   5.604
 5210TIP3   OH215593   2.069   6.463   2.198
 5210TIP3    H115594   2.121   6.396   2.154
 5210TIP3    H215595   2.111   6.473   2.283
 5211TIP3   OH215596   6.225   0.323   3.391
 5211TIP3    H115597   6.312   0.328   3.432
 5211TIP3    H215598   6.203   0.230   3.395
 5212TIP3   OH215599   2.648   6.525   1.791
 5212TIP3    H115600   2.686   6.604   1.750
 5212TIP3    H215601   2.648   6.460   1.720
 5213TIP3   OH215602   2.246   6.795   1.885
 5213TIP3    H115603   2.284   6.842   1.810
 5213TIP3    H215604   2.204   6.719   1.846
 5214TIP3   OH215605   0.952   4.908   3.724
 5214TIP3    H115606   0.994   4.994   3.731
 5214TIP3    H215607   1.004   4.862   3.658
 5215TIP3   OH215608   0.589   4.208   5.808
 5215TIP3    H115609   0.588   4.281   5.746
 5215TIP3    H215610   0.589   4.130   5.753
 5216TIP3   OH215611   1.369   4.060   3.533
 5216TIP3    H115612   1.405   4.149   3.527
 5216TIP3    H215613   1.435   4.011   3.583
 5217TIP3   OH215614   0.591   3.148   1.393
 5217TIP3    H115615   0.533   3.131   1.319
 5217TIP3    H215616   0.626   3.236   1.377
 5218TIP3   OH215617   6.732   0.646   5.587
 5218TIP3    H115618   6.723   0.618   5.678
 5218TIP3    H215619   6.727   0.741   5.590
 5219TIP3   OH215620   2.850   6.624   5.814
 5219TIP3    H115621   2.830   6.536   5.783
 5219TIP3    H215622   2.766   6.668   5.817
 5220TIP3   OH215623   4.625   3.637   1.681
 5220TIP3    H115624   4.667   3.716   1.646
 5220TIP3    H215625   4.623   3.651   1.775
 5221TIP3   OH215626   5.947   0.272   5.783
 5221TIP3    H115627   5.956   0.177   5.791
 5221TIP3    H215628   5.854   0.287   5.766
 5222TIP3   OH215629   5.811   6.639   2.865
 5222TIP3    H115630   5.900   6.609   2.884
 5222TIP3    H215631   5.811   6.657   2.771
 5223TIP3   OH215632   5.298   4.519   2.256
 5223TIP3    H115633   5.359   4.460   2.213
 5223TIP3    H215634   5.244   4.554   2.185
 5224TIP3   OH215635   3.332   1.630   4.025
 5224TIP3    H115636   3.422   1.601   4.039
 5224TIP3    H215637   3.299   1.572   3.956
 5225TIP3   OH215638   4.483   1.909   2.771
 5225TIP3    H115639   4.455   1.838   2.713
 5225TIP3    H215640   4.577   1.920   2.752
 5226TIP3   OH215641   4.929   0.306   2.119
 5226TIP3    H115642   4.949   0.343   2.205
 5226TIP3    H215643   4.858   0.244   2.135
 5227TIP3   OH215644   4.929   0.811   2.207
 5227TIP3    H115645   4.887   0.726   2.190
 5227TIP3    H215646   4.872   0.874   2.163
 5228TIP3   OH215647   6.061   3.090   4.895
 5228TIP3    H115648   6.061   2.999   4.867
 5228TIP3    H215649   6.001   3.134   4.835
 5229TIP3   OH215650   7.121   2.565   2.540
 5229TIP3    H115651   7.196   2.593   2.592
 5229TIP3    H215652   7.158   2.506   2.475
 5230TIP3   OH215653   1.819   6.454   3.924
 5230TIP3    H115654   1.733   6.496   3.933
 5230TIP3    H215655   1.800   6.360   3.931
 5231TIP3   OH215656   0.240   4.408   1.171
 5231TIP3    H115657   0.280   4.351   1.106
 5231TIP3    H215658   0.296   4.400   1.248
 5232TIP3   OH215659   6.451   1.377   4.690
 5232TIP3    H115660   6.532   1.366   4.640
 5232TIP3    H215661   6.436   1.472   4.692
 5233TIP3   OH215662   4.463   2.042   1.745
 5233TIP3    H115663   4.496   1.953   1.760
 5233TIP3    H215664   4.439   2.042   1.652
 5234TIP3   OH215665   5.927   1.122   1.653
 5234TIP3    H115666   5.965   1.046   1.696
 5234TIP3    H215667   5.977   1.196   1.687
 5235TIP3   OH215668   5.451   5.382   4.706
 5235TIP3    H115669   5.507   5.422   4.640
 5235TIP3    H215670   5.386   5.333   4.656
 5236TIP3   OH215671   4.139   2.654   5.869
 5236TIP3    H115672   4.220   2.668   5.919
 5236TIP3    H215673   4.163   2.674   5.779
 5237TIP3   OH215674   1.651   0.510   2.049
 5237TIP3    H115675   1.567   0.555   2.038
 5237TIP3    H215676   1.692   0.517   1.963
 5238TIP3   OH215677   0.435   4.494   4.242
 5238TIP3    H115678   0.462   4.534   4.159
 5238TIP3    H215679   0.351   4.452   4.223
 5239TIP3   OH215680   4.126   5.447   4.779
 5239TIP3    H115681   4.146   5.539   4.798
 5239TIP3    H215682   4.192   5.398   4.827
 5240TIP3   OH215683   5.982   4.524   1.812
 5240TIP3    H115684   5.960   4.589   1.746
 5240TIP3    H215685   5.976   4.571   1.895
 5241TIP3   OH215686   5.573   1.037   1.579
 5241TIP3    H115687   5.631   1.101   1.537
 5241TIP3    H215688   5.629   0.960   1.593
 5242TIP3   OH215689   5.586   4.714   1.079
 5242TIP3    H115690   5.509   4.664   1.054
 5242TIP3    H215691   5.555   4.803   1.091
 5243TIP3   OH215692   1.197   0.114   4.628
 5243TIP3    H115693   1.210   0.131   4.535
 5243TIP3    H215694   1.250   0.036   4.646
 5244TIP3   OH215695   2.748   0.445   1.988
 5244TIP3    H115696   2.670   0.447   2.044
 5244TIP3    H215697   2.752   0.355   1.957
 5245TIP3   OH215698   6.349   6.064   4.647
 5245TIP3    H115699   6.344   5.988   4.705
 5245TIP3    H215700   6.394   6.031   4.569
 5246TIP3   OH215701   2.708   4.942   2.884
 5246TIP3    H115702   2.713   5.002   2.959
 5246TIP3    H215703   2.706   5.000   2.808
 5247TIP3   OH215704   1.784   6.219   4.477
 5247TIP3    H115705   1.779   6.159   4.552
 5247TIP3    H215706   1.755   6.166   4.402
 5248TIP3   OH215707   0.678   0.465   1.222
 5248TIP3    H115708   0.752   0.520   1.198
 5248TIP3    H215709   0.604   0.499   1.171
 5249TIP3   OH215710   1.995   4.837   1.359
 5249TIP3    H115711   2.071   4.812   1.306
 5249TIP3    H215712   2.020   4.920   1.398
 5250TIP3   OH215713   0.337   0.388   5.816
 5250TIP3    H115714   0.306   0.370   5.727
 5250TIP3    H215715   0.257   0.393   5.869
 5251TIP3   OH215716   6.553   2.174   1.173
 5251TIP3    H115717   6.461   2.193   1.193
 5251TIP3    H215718   6.572   2.226   1.095
 5252TIP3   OH215719   1.459   6.367   1.230
 5252TIP3    H115720   1.449   6.363   1.135
 5252TIP3    H215721   1.553   6.372   1.244
 5253TIP3   OH215722   7.116   2.295   4.417
 5253TIP3    H115723   7.069   2.252   4.346
 5253TIP3    H215724   7.100   2.239   4.493
 5254TIP3   OH215725   1.533   4.453   5.493
 5254TIP3    H115726   1.567   4.451   5.404
 5254TIP3    H215727   1.474   4.378   5.499
 5255TIP3   OH215728   1.525   0.610   3.473
 5255TIP3    H115729   1.563   0.603   3.561
 5255TIP3    H215730   1.595   0.581   3.415
 5256TIP3   OH215731   0.090   6.721   2.250
 5256TIP3    H115732   0.050   6.782   2.312
 5256TIP3    H215733   0.121   6.649   2.305
 5257TIP3   OH215734   2.849   6.203   1.780
 5257TIP3    H115735   2.898   6.127   1.812
 5257TIP3    H215736   2.757   6.177   1.788
 5258TIP3   OH215737   1.002   1.873   1.382
 5258TIP3    H115738   0.927   1.906   1.432
 5258TIP3    H215739   1.072   1.935   1.401
 5259TIP3   OH215740   3.688   5.005   4.255
 5259TIP3    H115741   3.612   5.024   4.200
 5259TIP3    H215742   3.762   5.040   4.206
 5260TIP3   OH215743   5.742   4.199   1.537
 5260TIP3    H115744   5.773   4.288   1.558
 5260TIP3    H215745   5.655   4.212   1.500
 5261TIP3   OH215746   6.268   6.527   4.995
 5261TIP3    H115747   6.239   6.574   5.072
 5261TIP3    H215748   6.296   6.441   5.028
 5262TIP3   OH215749   5.371   2.509   3.255
 5262TIP3    H115750   5.461   2.489   3.279
 5262TIP3    H215751   5.366   2.487   3.162
 5263TIP3   OH215752   0.058   1.991   3.372
 5263TIP3    H115753   0.003   1.922   3.410
 5263TIP3    H215754   0.147   1.956   3.377
 5264TIP3   OH215755   6.728   5.385   4.395
 5264TIP3    H115756   6.732   5.301   4.441
 5264TIP3    H215757   6.803   5.434   4.429
 5265TIP3   OH215758   0.529   1.505   4.798
 5265TIP3    H115759   0.532   1.429   4.742
 5265TIP3    H215760   0.600   1.561   4.768
 5266TIP3   OH215761   0.008   3.425   5.894
 5266TIP3    H115762   0.079   3.426   5.830
 5266TIP3    H215763  -0.065   3.469   5.850
 5267TIP3   OH215764   3.749   0.942   5.397
 5267TIP3    H115765   3.808   1.017   5.398
 5267TIP3    H215766   3.807   0.866   5.390
 5268TIP3   OH215767   0.567   1.279   3.843
 5268TIP3    H115768   0.505   1.218   3.804
 5268TIP3    H215769   0.645   1.274   3.787
 5269TIP3   OH215770   0.840   5.706   5.475
 5269TIP3    H115771   0.746   5.691   5.473
 5269TIP3    H215772   0.874   5.640   5.535
 5270TIP3   OH215773   3.889   2.286   2.370
 5270TIP3    H115774   3.962   2.228   2.392
 5270TIP3    H215775   3.880   2.343   2.447
 5271TIP3   OH215776   4.733   2.193   2.398
 5271TIP3    H115777   4.793   2.119   2.391
 5271TIP3    H215778   4.652   2.155   2.430
 5272TIP3   OH215779   6.288   4.375   1.451
 5272TIP3    H115780   6.312   4.373   1.358
 5272TIP3    H215781   6.257   4.287   1.470
 5273TIP3   OH215782   6.014   2.850   0.398
 5273TIP3    H115783   6.025   2.762   0.362
 5273TIP3    H215784   5.919   2.861   0.407
 5274TIP3   OH215785   1.049   4.161   4.240
 5274TIP3    H115786   1.128   4.166   4.293
 5274TIP3    H215787   0.978   4.178   4.302
 5275TIP3   OH215788   1.647   1.952   1.724
 5275TIP3    H115789   1.675   1.861   1.718
 5275TIP3    H215790   1.628   1.965   1.817
 5276TIP3   OH215791   5.460   3.938   0.112
 5276TIP3    H115792   5.539   3.925   0.060
 5276TIP3    H215793   5.402   3.988   0.055
 5277TIP3   OH215794   2.498   0.850   1.417
 5277TIP3    H115795   2.458   0.863   1.503
 5277TIP3    H215796   2.456   0.772   1.382
 5278TIP3   OH215797   0.701   3.883   4.474
 5278TIP3    H115798   0.712   3.903   4.381
 5278TIP3    H215799   0.790   3.874   4.508
 5279TIP3   OH215800   5.705   2.161   3.774
 5279TIP3    H115801   5.685   2.079   3.728
 5279TIP3    H215802   5.700   2.138   3.867
 5280TIP3   OH215803   4.362   3.749   1.669
 5280TIP3    H115804   4.445   3.705   1.689
 5280TIP3    H215805   4.376   3.788   1.583
 5281TIP3   OH215806   1.003   4.277   5.682
 5281TIP3    H115807   0.955   4.227   5.616
 5281TIP3    H215808   0.973   4.242   5.765
 5282TIP3   OH215809   4.614   5.748   1.928
 5282TIP3    H115810   4.539   5.725   1.872
 5282TIP3    H215811   4.585   5.727   2.016
 5283TIP3   OH215812   6.192   0.403   0.396
 5283TIP3    H115813   6.226   0.396   0.485
 5283TIP3    H215814   6.143   0.322   0.382
 5284TIP3   OH215815   0.233   5.073   0.246
 5284TIP3    H115816   0.296   5.045   0.179
 5284TIP3    H215817   0.282   5.132   0.302
 5285TIP3   OH215818   1.154   3.811   3.948
 5285TIP3    H115819   1.195   3.805   3.862
 5285TIP3    H215820   1.227   3.831   4.008
 5286TIP3   OH215821   5.503   3.637   5.798
 5286TIP3    H115822   5.495   3.584   5.878
 5286TIP3    H215823   5.590   3.614   5.764
 5287TIP3   OH215824   5.583   2.737   1.471
 5287TIP3    H115825   5.529   2.660   1.451
 5287TIP3    H215826   5.522   2.811   1.466
 5288TIP3   OH215827   2.875   4.008   2.807
 5288TIP3    H115828   2.954   4.053   2.835
 5288TIP3    H215829   2.839   4.063   2.737
 5289TIP3   OH215830   1.042   3.534   2.517
 5289TIP3    H115831   0.969   3.502   2.464
 5289TIP3    H215832   1.076   3.456   2.560
 5290TIP3   OH215833   1.644  -0.003   4.366
 5290TIP3    H115834   1.644  -0.003   4.270
 5290TIP3    H215835   1.592   0.074   4.390
 5291TIP3   OH215836   0.297   0.589   0.832
 5291TIP3    H115837   0.286   0.540   0.751
 5291TIP3    H215838   0.300   0.680   0.805
 5292TIP3   OH215839   0.960   6.583   4.830
 5292TIP3    H115840   0.922   6.664   4.863
 5292TIP3    H215841   0.917   6.568   4.746
 5293TIP3   OH215842   6.186   2.287   4.757
 5293TIP3    H115843   6.217   2.197   4.770
 5293TIP3    H215844   6.106   2.278   4.705
 5294TIP3   OH215845   5.952   2.723   1.913
 5294TIP3    H115846   5.885   2.750   1.850
 5294TIP3    H215847   6.008   2.800   1.923
 5295TIP3   OH215848   6.241   4.518   0.219
 5295TIP3    H115849   6.319   4.467   0.239
 5295TIP3    H215850   6.273   4.607   0.206
 5296TIP3   OH215851   6.754   2.224   3.319
 5296TIP3    H115852   6.783   2.156   3.380
 5296TIP3    H215853   6.788   2.306   3.356
 5297TIP3   OH215854   2.054   2.142   5.311
 5297TIP3    H115855   2.050   2.048   5.294
 5297TIP3    H215856   2.091   2.179   5.231
 5298TIP3   OH215857   1.912   4.663   3.602
 5298TIP3    H115858   1.849   4.657   3.674
 5298TIP3    H215859   1.863   4.631   3.525
 5299TIP3   OH215860   1.808   2.839   5.378
 5299TIP3    H115861   1.775   2.861   5.465
 5299TIP3    H215862   1.730   2.821   5.326
 5300TIP3   OH215863   1.106   6.693   1.005
 5300TIP3    H115864   1.114   6.625   1.071
 5300TIP3    H215865   1.125   6.775   1.052
 5301TIP3   OH215866   5.931   5.559   4.482
 5301TIP3    H115867   5.916   5.634   4.539
 5301TIP3    H215868   5.997   5.589   4.419
 5302TIP3   OH215869   4.781   6.445   2.575
 5302TIP3    H115870   4.751   6.364   2.534
 5302TIP3    H215871   4.865   6.421   2.615
 5303TIP3   OH215872   0.962   4.244   1.745
 5303TIP3    H115873   0.888   4.283   1.697
 5303TIP3    H215874   0.921   4.196   1.817
 5304TIP3   OH215875   5.735   2.753   1.058
 5304TIP3    H115876   5.763   2.679   1.112
 5304TIP3    H215877   5.757   2.728   0.969
 5305TIP3   OH215878   0.627   6.215   3.035
 5305TIP3    H115879   0.669   6.235   2.952
 5305TIP3    H215880   0.576   6.293   3.056
 5306TIP3   OH215881   6.174   5.193   4.655
 5306TIP3    H115882   6.156   5.118   4.599
 5306TIP3    H215883   6.240   5.161   4.717
 5307TIP3   OH215884   4.859   4.100   5.581
 5307TIP3    H115885   4.954   4.086   5.576
 5307TIP3    H215886   4.822   4.012   5.582
 5308TIP3   OH215887   6.640   4.062   0.480
 5308TIP3    H115888   6.668   4.088   0.568
 5308TIP3    H215889   6.674   3.974   0.469
 5309TIP3   OH215890   5.526   4.670   0.639
 5309TIP3    H115891   5.563   4.612   0.572
 5309TIP3    H215892   5.561   4.637   0.722
 5310TIP3   OH215893   6.624   6.055   3.967
 5310TIP3    H115894   6.665   5.969   3.974
 5310TIP3    H215895   6.540   6.039   3.924
 5311TIP3   OH215896   6.132   6.027   5.365
 5311TIP3    H115897   6.168   5.987   5.444
 5311TIP3    H215898   6.075   6.097   5.397
 5312TIP3   OH215899   1.529   1.629   4.456
 5312TIP3    H115900   1.463   1.619   4.525
 5312TIP3    H215901   1.481   1.614   4.375
 5313TIP3   OH215902   1.432   0.972   0.709
 5313TIP3    H115903   1.349   0.923   0.706
 5313TIP3    H215904   1.486   0.932   0.641
 5314TIP3   OH215905   3.759   2.352   0.157
 5314TIP3    H115906   3.759   2.325   0.065
 5314TIP3    H215907   3.845   2.392   0.170
 5315TIP3   OH215908   3.940   5.220   3.846
 5315TIP3    H115909   3.857   5.193   3.886
 5315TIP3    H215910   3.993   5.140   3.845
 5316TIP3   OH215911   1.224   2.737   1.165
 5316TIP3    H115912   1.216   2.642   1.175
 5316TIP3    H215913   1.166   2.773   1.232
 5317TIP3   OH215914   5.796   0.908   0.370
 5317TIP3    H115915   5.876   0.863   0.399
 5317TIP3    H215916   5.725   0.848   0.392
 5318TIP3   OH215917   1.418   3.993   4.458
 5318TIP3    H115918   1.461   4.023   4.538
 5318TIP3    H215919   1.376   3.911   4.483
 5319TIP3   OH215920   3.132   0.481   3.410
 5319TIP3    H115921   3.117   0.572   3.383
 5319TIP3    H215922   3.068   0.431   3.359
 5320TIP3   OH215923   1.981   5.424   4.168
 5320TIP3    H115924   1.927   5.503   4.162
 5320TIP3    H215925   1.926   5.354   4.132
 5321TIP3   OH215926   7.157   2.810   1.774
 5321TIP3    H115927   7.164   2.766   1.859
 5321TIP3    H215928   7.064   2.808   1.753
 5322TIP3   OH215929   1.329   0.936   2.218
 5322TIP3    H115930   1.374   1.020   2.219
 5322TIP3    H215931   1.383   0.879   2.272
 5323TIP3   OH215932   5.022   0.607   3.442
 5323TIP3    H115933   4.973   0.526   3.455
 5323TIP3    H215934   5.009   0.655   3.524
 5324TIP3   OH215935   0.185   3.280   0.301
 5324TIP3    H115936   0.134   3.342   0.248
 5324TIP3    H215937   0.120   3.223   0.341
 5325TIP3   OH215938   5.365   2.107   0.752
 5325TIP3    H115939   5.347   2.101   0.846
 5325TIP3    H215940   5.278   2.108   0.712
 5326TIP3   OH215941   3.482   6.073   2.189
 5326TIP3    H115942   3.570   6.107   2.202
 5326TIP3    H215943   3.467   6.078   2.095
 5327TIP3   OH215944   2.104   1.217   2.838
 5327TIP3    H115945   2.083   1.124   2.850
 5327TIP3    H215946   2.035   1.250   2.780
 5328TIP3   OH215947   4.347   0.749   0.257
 5328TIP3    H115948   4.412   0.810   0.222
 5328TIP3    H215949   4.379   0.725   0.343
 5329TIP3   OH215950   2.709   5.372   3.544
 5329TIP3    H115951   2.685   5.284   3.573
 5329TIP3    H215952   2.756   5.358   3.462
 5330TIP3   OH215953   4.351   5.540   5.578
 5330TIP3    H115954   4.291   5.467   5.594
 5330TIP3    H215955   4.351   5.552   5.484
 5331TIP3   OH215956   5.667   3.181   2.363
 5331TIP3    H115957   5.745   3.129   2.344
 5331TIP3    H215958   5.683   3.265   2.321
 5332TIP3   OH215959   2.420   3.989   3.139
 5332TIP3    H115960   2.462   3.979   3.224
 5332TIP3    H215961   2.340   3.936   3.146
 5333TIP3   OH215962   5.498   1.797   5.502
 5333TIP3    H115963   5.525   1.707   5.484
 5333TIP3    H215964   5.517   1.844   5.420
 5334TIP3   OH215965   0.868   5.202   4.936
 5334TIP3    H115966   0.846   5.170   4.849
 5334TIP3    H215967   0.906   5.126   4.981
 5335TIP3   OH215968   4.474   6.230   5.744
 5335TIP3    H115969   4.494   6.249   5.836
 5335TIP3    H215970   4.417   6.301   5.716
 5336TIP3   OH215971   2.797   4.023   2.211
 5336TIP3    H115972   2.732   4.008   2.280
 5336TIP3    H215973   2.791   3.945   2.156
 5337TIP3   OH215974   4.657   1.643   2.147
 5337TIP3    H115975   4.678   1.722   2.097
 5337TIP3    H215976   4.628   1.580   2.080
 5338TIP3   OH215977   0.481   3.446   5.023
 5338TIP3    H115978   0.572   3.467   5.047
 5338TIP3    H215979   0.455   3.380   5.087
 5339TIP3   OH215980   2.890   5.316   2.825
 5339TIP3    H115981   2.967   5.352   2.869
 5339TIP3    H215982   2.816   5.357   2.869
 5340TIP3   OH215983   3.421   4.566   5.813
 5340TIP3    H115984   3.353   4.561   5.879
 5340TIP3    H215985   3.485   4.627   5.850
 5341TIP3   OH215986   1.094   0.176   1.973
 5341TIP3    H115987   1.065   0.088   1.997
 5341TIP3    H215988   1.015   0.220   1.942
 5342TIP3   OH215989   4.875   3.197   0.151
 5342TIP3    H115990   4.844   3.276   0.107
 5342TIP3    H215991   4.803   3.171   0.209
 5343TIP3   OH215992   0.199   1.801   2.994
 5343TIP3    H115993   0.275   1.826   2.942
 5343TIP3    H215994   0.199   1.705   2.992
 5344TIP3   OH215995   4.587   4.516   2.859
 5344TIP3    H115996   4.661   4.562   2.821
 5344TIP3    H215997   4.627   4.446   2.911
 5345TIP3   OH215998   3.359   0.635   3.542
 5345TIP3    H115999   3.293   0.566   3.534
 5345TIP3    H216000   3.320   0.698   3.602
 5346TIP3   OH216001   2.284   5.414   4.590
 5346TIP3    H116002   2.290   5.319   4.605
 5346TIP3    H216003   2.243   5.448   4.670
 5347TIP3   OH216004   2.260   5.248   2.886
 5347TIP3    H116005   2.230   5.159   2.867
 5347TIP3    H216006   2.334   5.262   2.826
 5348TIP3   OH216007   1.896   0.400   1.421
 5348TIP3    H116008   1.877   0.383   1.513
 5348TIP3    H216009   1.892   0.314   1.380
 5349TIP3   OH216010   4.999   3.338   5.413
 5349TIP3    H116011   4.986   3.356   5.506
 5349TIP3    H216012   5.055   3.409   5.382
 5350TIP3   OH216013   0.841   4.190   0.766
 5350TIP3    H116014   0.786   4.174   0.843
 5350TIP3    H216015   0.806   4.130   0.700
 5351TIP3   OH216016   3.945   5.027   4.142
 5351TIP3    H116017   4.020   4.996   4.193
 5351TIP3    H216018   3.928   4.956   4.081
 5352TIP3   OH216019   3.774   6.263   4.710
 5352TIP3    H116020   3.869   6.251   4.707
 5352TIP3    H216021   3.762   6.356   4.691
 5353TIP3   OH216022   3.306   1.373   0.956
 5353TIP3    H116023   3.246   1.435   0.999
 5353TIP3    H216024   3.369   1.428   0.911
 5354TIP3   OH216025   1.089   5.843   0.720
 5354TIP3    H116026   1.012   5.864   0.773
 5354TIP3    H216027   1.097   5.917   0.660
 5355TIP3   OH216028   0.532   5.533   1.627
 5355TIP3    H116029   0.576   5.491   1.553
 5355TIP3    H216030   0.538   5.469   1.698
 5356TIP3   OH216031   1.893   6.336   2.016
 5356TIP3    H116032   1.806   6.314   2.050
 5356TIP3    H216033   1.930   6.396   2.082
 5357TIP3   OH216034   3.551   5.628   1.276
 5357TIP3    H116035   3.570   5.709   1.229
 5357TIP3    H216036   3.512   5.656   1.359
 5358TIP3   OH216037   1.425   6.251   1.640
 5358TIP3    H116038   1.401   6.198   1.564
 5358TIP3    H216039   1.487   6.315   1.606
 5359TIP3   OH216040   7.167   0.154   5.201
 5359TIP3    H116041   7.140   0.138   5.292
 5359TIP3    H216042   7.092   0.129   5.149
 5360TIP3   OH216043   4.169   4.938   1.863
 5360TIP3    H116044   4.097   4.879   1.887
 5360TIP3    H216045   4.248   4.888   1.880
 5361TIP3   OH216046   4.617   0.621   3.828
 5361TIP3    H116047   4.606   0.701   3.778
 5361TIP3    H216048   4.629   0.650   3.919
 5362TIP3   OH216049   1.239   4.531   1.140
 5362TIP3    H116050   1.233   4.625   1.121
 5362TIP3    H216051   1.164   4.514   1.198
 5363TIP3   OH216052   6.548   0.325   3.771
 5363TIP3    H116053   6.453   0.330   3.765
 5363TIP3    H216054   6.580   0.404   3.728
 5364TIP3   OH216055   1.480   4.796   1.137
 5364TIP3    H116056   1.403   4.781   1.083
 5364TIP3    H216057   1.460   4.756   1.221
 5365TIP3   OH216058   4.051   4.941   3.763
 5365TIP3    H116059   4.082   4.882   3.695
 5365TIP3    H216060   4.026   4.884   3.835
 5366TIP3   OH216061   2.105   1.807   3.971
 5366TIP3    H116062   2.132   1.743   3.906
 5366TIP3    H216063   2.185   1.826   4.021
 5367TIP3   OH216064   2.136   1.828   1.284
 5367TIP3    H116065   2.104   1.820   1.374
 5367TIP3    H216066   2.227   1.856   1.293
 5368TIP3   OH216067   0.502   3.727   2.067
 5368TIP3    H116068   0.468   3.686   1.988
 5368TIP3    H216069   0.497   3.658   2.134
 5369TIP3   OH216070   4.629   5.802   1.257
 5369TIP3    H116071   4.624   5.888   1.299
 5369TIP3    H216072   4.699   5.757   1.304
 5370TIP3   OH216073   6.963   2.384   0.731
 5370TIP3    H116074   7.047   2.375   0.778
 5370TIP3    H216075   6.945   2.297   0.696
 5371TIP3   OH216076   1.212   6.366   3.905
 5371TIP3    H116077   1.139   6.352   3.966
 5371TIP3    H216078   1.214   6.461   3.891
 5372TIP3   OH216079   3.446   6.199   4.178
 5372TIP3    H116080   3.375   6.230   4.234
 5372TIP3    H216081   3.430   6.105   4.168
 5373TIP3   OH216082   4.354   2.199   2.255
 5373TIP3    H116083   4.290   2.216   2.186
 5373TIP3    H216084   4.327   2.255   2.328
 5374TIP3   OH216085   0.539   3.778   5.069
 5374TIP3    H116086   0.593   3.741   5.000
 5374TIP3    H216087   0.456   3.800   5.026
 5375TIP3   OH216088   4.553   4.467   1.587
 5375TIP3    H116089   4.491   4.493   1.655
 5375TIP3    H216090   4.639   4.493   1.621
 5376TIP3   OH216091   7.178   2.260   3.399
 5376TIP3    H116092   7.184   2.166   3.382
 5376TIP3    H216093   7.243   2.276   3.468
 5377TIP3   OH216094   0.186   5.724   2.518
 5377TIP3    H116095   0.217   5.809   2.486
 5377TIP3    H216096   0.164   5.740   2.610
 5378TIP3   OH216097   6.806   0.328   2.014
 5378TIP3    H116098   6.816   0.276   2.093
 5378TIP3    H216099   6.735   0.389   2.034
 5379TIP3   OH216100   5.337   2.801   4.061
 5379TIP3    H116101   5.354   2.735   4.128
 5379TIP3    H216102   5.412   2.860   4.066
 5380TIP3   OH216103   0.297   1.243   1.436
 5380TIP3    H116104   0.210   1.284   1.445
 5380TIP3    H216105   0.351   1.311   1.395
 5381TIP3   OH216106   3.468   5.128   1.999
 5381TIP3    H116107   3.557   5.147   1.969
 5381TIP3    H216108   3.444   5.204   2.053
 5382TIP3   OH216109   6.553   1.149   3.416
 5382TIP3    H116110   6.519   1.189   3.496
 5382TIP3    H216111   6.585   1.063   3.444
 5383TIP3   OH216112   2.370   2.047   5.326
 5383TIP3    H116113   2.438   2.033   5.260
 5383TIP3    H216114   2.351   2.141   5.321
 5384TIP3   OH216115   6.788   4.093   5.133
 5384TIP3    H116116   6.777   4.079   5.227
 5384TIP3    H216117   6.783   4.005   5.095
 5385TIP3   OH216118   2.362   4.360   1.558
 5385TIP3    H116119   2.326   4.440   1.520
 5385TIP3    H216120   2.300   4.336   1.627
 5386TIP3   OH216121   4.975   3.088   2.571
 5386TIP3    H116122   4.934   3.072   2.486
 5386TIP3    H216123   5.051   3.029   2.573
 5387TIP3   OH216124   4.323   2.267   4.102
 5387TIP3    H116125   4.414   2.299   4.098
 5387TIP3    H216126   4.298   2.257   4.010
 5388TIP3   OH216127   0.071   3.023   2.387
 5388TIP3    H116128  -0.005   2.965   2.373
 5388TIP3    H216129   0.064   3.049   2.478
 5389TIP3   OH216130   4.470   0.448   4.258
 5389TIP3    H116131   4.445   0.539   4.240
 5389TIP3    H216132   4.565   0.451   4.267
 5390TIP3   OH216133   1.377   2.891   4.493
 5390TIP3    H116134   1.446   2.918   4.553
 5390TIP3    H216135   1.422   2.878   4.409
 5391TIP3   OH216136   1.270   3.005   2.413
 5391TIP3    H116137   1.283   2.918   2.374
 5391TIP3    H216138   1.356   3.027   2.449
 5392TIP3   OH216139   3.884   2.900   3.188
 5392TIP3    H116140   3.794   2.871   3.176
 5392TIP3    H216141   3.888   2.932   3.278
 5393TIP3   OH216142   1.844   6.671   3.567
 5393TIP3    H116143   1.873   6.693   3.655
 5393TIP3    H216144   1.772   6.610   3.580
 5394TIP3   OH216145   3.332   2.943   3.925
 5394TIP3    H116146   3.369   2.895   3.999
 5394TIP3    H216147   3.279   2.879   3.879
 5395TIP3   OH216148   4.554   2.162   0.995
 5395TIP3    H116149   4.627   2.222   1.011
 5395TIP3    H216150   4.592   2.075   1.001
 5396TIP3   OH216151   1.517   1.206   1.594
 5396TIP3    H116152   1.584   1.165   1.649
 5396TIP3    H216153   1.555   1.205   1.506
 5397TIP3   OH216154   7.165   4.377   0.798
 5397TIP3    H116155   7.190   4.321   0.872
 5397TIP3    H216156   7.216   4.342   0.724
 5398TIP3   OH216157   4.969   0.847   0.557
 5398TIP3    H116158   5.029   0.885   0.493
 5398TIP3    H216159   5.019   0.845   0.639
 5399TIP3   OH216160   2.955   6.611   1.808
 5399TIP3    H116161   2.937   6.692   1.855
 5399TIP3    H216162   2.913   6.543   1.861
 5400TIP3   OH216163   4.330   2.832   3.390
 5400TIP3    H116164   4.336   2.922   3.423
 5400TIP3    H216165   4.415   2.794   3.412
 5401TIP3   OH216166   7.097   2.363   4.827
 5401TIP3    H116167   7.106   2.273   4.797
 5401TIP3    H216168   7.159   2.370   4.900
 5402TIP3   OH216169   2.334   6.342   4.162
 5402TIP3    H116170   2.299   6.333   4.250
 5402TIP3    H216171   2.299   6.426   4.130
 5403TIP3   OH216172   5.756   6.045   4.992
 5403TIP3    H116173   5.662   6.056   4.974
 5403TIP3    H216174   5.761   6.037   5.087
 5404TIP3   OH216175   0.288   1.533   0.509
 5404TIP3    H116176   0.280   1.584   0.428
 5404TIP3    H216177   0.293   1.599   0.578
 5405TIP3   OH216178   5.847   2.811   4.237
 5405TIP3    H116179   5.919   2.836   4.180
 5405TIP3    H216180   5.789   2.760   4.181
 5406TIP3   OH216181   3.850   5.920   1.774
 5406TIP3    H116182   3.865   5.991   1.712
 5406TIP3    H216183   3.909   5.850   1.745
 5407TIP3   OH216184   2.131   2.852   5.647
 5407TIP3    H116185   2.046   2.809   5.661
 5407TIP3    H216186   2.129   2.879   5.555
 5408TIP3   OH216187   3.123   1.175   1.204
 5408TIP3    H116188   3.166   1.090   1.197
 5408TIP3    H216189   3.051   1.171   1.141
 5409TIP3   OH216190   5.074   5.052   3.456
 5409TIP3    H116191   4.990   5.034   3.415
 5409TIP3    H216192   5.084   4.983   3.521
 5410TIP3   OH216193   3.067   4.723   1.054
 5410TIP3    H116194   3.134   4.780   1.017
 5410TIP3    H216195   3.030   4.677   0.979
 5411TIP3   OH216196   5.720   6.227   4.230
 5411TIP3    H116197   5.710   6.243   4.323
 5411TIP3    H216198   5.731   6.313   4.191
 5412TIP3   OH216199   2.474   3.258   4.640
 5412TIP3    H116200   2.555   3.210   4.620
 5412TIP3    H216201   2.485   3.288   4.730
 5413TIP3   OH216202   3.743   1.554   0.384
 5413TIP3    H116203   3.722   1.609   0.309
 5413TIP3    H216204   3.802   1.488   0.349
 5414TIP3   OH216205   4.181   2.521   3.824
 5414TIP3    H116206   4.196   2.612   3.848
 5414TIP3    H216207   4.119   2.489   3.890
 5415TIP3   OH216208   5.284   0.186   5.213
 5415TIP3    H116209   5.218   0.254   5.225
 5415TIP3    H216210   5.290   0.174   5.118
 5416TIP3   OH216211   1.461   3.436   0.420
 5416TIP3    H116212   1.373   3.399   0.424
 5416TIP3    H216213   1.485   3.452   0.512
 5417TIP3   OH216214   5.672   5.804   2.764
 5417TIP3    H116215   5.764   5.799   2.737
 5417TIP3    H216216   5.660   5.727   2.820
 5418TIP3   OH216217   2.689   4.131   3.073
 5418TIP3    H116218   2.601   4.121   3.037
 5418TIP3    H216219   2.688   4.080   3.154
 5419TIP3   OH216220   2.222   6.632   3.261
 5419TIP3    H116221   2.260   6.638   3.174
 5419TIP3    H216222   2.215   6.538   3.277
 5420TIP3   OH216223   5.498   3.408   2.949
 5420TIP3    H116224   5.428   3.355   2.910
 5420TIP3    H216225   5.515   3.476   2.883
 5421TIP3   OH216226   5.742   6.122   1.691
 5421TIP3    H116227   5.778   6.034   1.682
 5421TIP3    H216228   5.723   6.131   1.784
 5422TIP3   OH216229   6.865   2.018   4.838
 5422TIP3    H116230   6.850   2.023   4.933
 5422TIP3    H216231   6.824   1.935   4.813
 5423TIP3   OH216232   0.604   0.496   3.372
 5423TIP3    H116233   0.585   0.403   3.357
 5423TIP3    H216234   0.633   0.499   3.463
 5424TIP3   OH216235   3.983   1.963   0.925
 5424TIP3    H116236   3.936   2.035   0.884
 5424TIP3    H216237   3.985   1.895   0.858
 5425TIP3   OH216238   2.945   2.193   4.604
 5425TIP3    H116239   3.021   2.161   4.654
 5425TIP3    H216240   2.983   2.247   4.535
 5426TIP3   OH216241   3.840   3.494   5.142
 5426TIP3    H116242   3.803   3.532   5.222
 5426TIP3    H216243   3.814   3.402   5.145
 5427TIP3   OH216244   3.898   1.539   1.132
 5427TIP3    H116245   3.853   1.608   1.182
 5427TIP3    H216246   3.945   1.489   1.198
 5428TIP3   OH216247   2.272   1.268   3.054
 5428TIP3    H116248   2.212   1.310   2.994
 5428TIP3    H216249   2.303   1.190   3.006
 5429TIP3   OH216250   6.069   1.829   2.990
 5429TIP3    H116251   6.042   1.918   2.964
 5429TIP3    H216252   5.996   1.773   2.962
 5430TIP3   OH216253   6.230   5.029   3.672
 5430TIP3    H116254   6.265   4.944   3.699
 5430TIP3    H216255   6.302   5.072   3.627
 5431TIP3   OH216256   0.990   4.069   1.065
 5431TIP3    H116257   0.993   3.985   1.018
 5431TIP3    H216258   1.063   4.119   1.028
 5432TIP3   OH216259   3.040   2.510   3.761
 5432TIP3    H116260   3.019   2.546   3.847
 5432TIP3    H216261   3.110   2.447   3.778
 5433TIP3   OH216262   3.723   4.267   0.819
 5433TIP3    H116263   3.819   4.265   0.822
 5433TIP3    H216264   3.695   4.227   0.901
 5434TIP3   OH216265   3.561   5.386   4.122
 5434TIP3    H116266   3.650   5.418   4.109
 5434TIP3    H216267   3.553   5.374   4.216
 5435TIP3   OH216268   5.513   5.681   5.102
 5435TIP3    H116269   5.513   5.586   5.090
 5435TIP3    H216270   5.590   5.698   5.157
 5436TIP3   OH216271   6.661   2.054   0.469
 5436TIP3    H116272   6.567   2.039   0.477
 5436TIP3    H216273   6.695   1.974   0.428
 5437TIP3   OH216274   4.749   1.420   2.716
 5437TIP3    H116275   4.738   1.442   2.623
 5437TIP3    H216276   4.841   1.395   2.723
 5438TIP3   OH216277   4.269   3.625   1.005
 5438TIP3    H116278   4.289   3.581   0.922
 5438TIP3    H216279   4.174   3.627   1.009
 5439TIP3   OH216280   2.999   3.551   3.464
 5439TIP3    H116281   3.038   3.548   3.551
 5439TIP3    H216282   2.949   3.470   3.457
 5440TIP3   OH216283   5.991   2.271   1.292
 5440TIP3    H116284   6.052   2.335   1.329
 5440TIP3    H216285   6.047   2.211   1.242
 5441TIP3   OH216286   2.316   3.210   5.810
 5441TIP3    H116287   2.265   3.287   5.784
 5441TIP3    H216288   2.298   3.201   5.904
 5442TIP3   OH216289   1.961   3.971   2.929
 5442TIP3    H116290   2.013   4.051   2.924
 5442TIP3    H216291   1.937   3.963   3.021
 5443TIP3   OH216292   7.200   6.457   4.946
 5443TIP3    H116293   7.252   6.400   5.002
 5443TIP3    H216294   7.114   6.460   4.988
 5444TIP3   OH216295   5.093   2.637   1.668
 5444TIP3    H116296   4.999   2.645   1.654
 5444TIP3    H216297   5.132   2.692   1.601
 5445TIP3   OH216298   5.577   1.731   1.126
 5445TIP3    H116299   5.525   1.788   1.068
 5445TIP3    H216300   5.534   1.646   1.120
 5446TIP3   OH216301   6.756   1.957   2.535
 5446TIP3    H116302   6.733   2.037   2.583
 5446TIP3    H216303   6.849   1.944   2.554
 5447TIP3   OH216304   2.734   5.419   4.017
 5447TIP3    H116305   2.732   5.461   3.931
 5447TIP3    H216306   2.813   5.452   4.059
 5448TIP3   OH216307   0.843   1.896   4.723
 5448TIP3    H116308   0.753   1.869   4.741
 5448TIP3    H216309   0.887   1.893   4.808
 5449TIP3   OH216310   2.912   0.202   0.642
 5449TIP3    H116311   2.944   0.255   0.716
 5449TIP3    H216312   2.990   0.163   0.604
 5450TIP3   OH216313   1.559   2.375   3.956
 5450TIP3    H116314   1.621   2.445   3.980
 5450TIP3    H216315   1.482   2.392   4.011
 5451TIP3   OH216316   5.944   6.235   5.755
 5451TIP3    H116317   5.993   6.209   5.833
 5451TIP3    H216318   5.853   6.216   5.776
 5452TIP3   OH216319   0.316   1.160   3.797
 5452TIP3    H116320   0.314   1.112   3.880
 5452TIP3    H216321   0.226   1.153   3.764
 5453TIP3   OH216322   3.788   2.509   3.758
 5453TIP3    H116323   3.830   2.453   3.693
 5453TIP3    H216324   3.848   2.583   3.769
 5454TIP3   OH216325   3.053   5.964   1.836
 5454TIP3    H116326   3.082   5.880   1.802
 5454TIP3    H216327   3.114   6.027   1.798
 5455TIP3   OH216328   5.376   5.877   5.242
 5455TIP3    H116329   5.299   5.906   5.192
 5455TIP3    H216330   5.430   5.832   5.177
 5456TIP3   OH216331   1.424   6.481   4.178
 5456TIP3    H116332   1.451   6.470   4.269
 5456TIP3    H216333   1.463   6.407   4.132
 5457TIP3   OH216334   4.981   4.138   1.225
 5457TIP3    H116335   4.907   4.195   1.205
 5457TIP3    H216336   4.996   4.089   1.144
 5458TIP3   OH216337   7.111   3.321   4.912
 5458TIP3    H116338   7.111   3.416   4.904
 5458TIP3    H216339   7.198   3.294   4.880
 5459TIP3   OH216340   6.883   1.153   5.891
 5459TIP3    H116341   6.936   1.207   5.833
 5459TIP3    H216342   6.820   1.214   5.930
 5460TIP3   OH216343   4.403   5.026   5.090
 5460TIP3    H116344   4.359   5.108   5.114
 5460TIP3    H216345   4.456   5.004   5.166
 5461TIP3   OH216346   3.204   1.458   5.193
 5461TIP3    H116347   3.187   1.468   5.100
 5461TIP3    H216348   3.165   1.536   5.233
 5462TIP3   OH216349   3.072   6.267   1.617
 5462TIP3    H116350   3.060   6.358   1.591
 5462TIP3    H216351   2.996   6.247   1.672
 5463TIP3   OH216352   2.481   0.247   0.790
 5463TIP3    H116353   2.453   0.320   0.735
 5463TIP3    H216354   2.410   0.236   0.853
 5464TIP3   OH216355   0.697   5.296   1.050
 5464TIP3    H116356   0.631   5.353   1.089
 5464TIP3    H216357   0.686   5.212   1.095
 5465TIP3   OH216358   2.378   0.540   4.786
 5465TIP3    H116359   2.326   0.563   4.863
 5465TIP3    H216360   2.456   0.497   4.822
 5466TIP3   OH216361   1.304   0.791   3.397
 5466TIP3    H116362   1.374   0.725   3.404
 5466TIP3    H216363   1.239   0.751   3.339
 5467TIP3   OH216364   1.857   5.198   1.796
 5467TIP3    H116365   1.776   5.205   1.847
 5467TIP3    H216366   1.842   5.255   1.720
 5468TIP3   OH216367   6.040   6.763   2.216
 5468TIP3    H116368   5.976   6.775   2.146
 5468TIP3    H216369   6.011   6.685   2.262
 5469TIP3   OH216370   2.979   2.464   0.383
 5469TIP3    H116371   2.900   2.421   0.350
 5469TIP3    H216372   3.038   2.467   0.307
 5470TIP3   OH216373   3.902   3.144   2.408
 5470TIP3    H116374   3.860   3.177   2.488
 5470TIP3    H216375   3.870   3.054   2.399
 5471TIP3   OH216376   3.675   5.871   2.965
 5471TIP3    H116377   3.750   5.838   3.015
 5471TIP3    H216378   3.601   5.864   3.024
 5472TIP3   OH216379   3.180   6.176   4.219
 5472TIP3    H116380   3.089   6.146   4.217
 5472TIP3    H216381   3.220   6.128   4.292
 5473TIP3   OH216382   6.090   4.489   2.754
 5473TIP3    H116383   6.097   4.585   2.753
 5473TIP3    H216384   6.030   4.471   2.826
 5474TIP3   OH216385   0.204   6.134   1.855
 5474TIP3    H116386   0.177   6.226   1.857
 5474TIP3    H216387   0.286   6.132   1.903
 5475TIP3   OH216388   3.552   0.921   1.161
 5475TIP3    H116389   3.613   0.864   1.208
 5475TIP3    H216390   3.575   0.911   1.069
 5476TIP3   OH216391   0.543   6.660   0.836
 5476TIP3    H116392   0.490   6.707   0.901
 5476TIP3    H216393   0.493   6.665   0.755
 5477TIP3   OH216394   5.098   6.341   0.811
 5477TIP3    H116395   5.077   6.254   0.777
 5477TIP3    H216396   5.191   6.336   0.834
 5478TIP3   OH216397   6.027   0.352   2.548
 5478TIP3    H116398   5.958   0.291   2.578
 5478TIP3    H216399   5.987   0.397   2.474
 5479TIP3   OH216400   2.052   1.391   1.740
 5479TIP3    H116401   2.066   1.316   1.797
 5479TIP3    H216402   2.042   1.465   1.799
 5480TIP3   OH216403   5.565   3.608   2.742
 5480TIP3    H116404   5.547   3.688   2.792
 5480TIP3    H216405   5.648   3.625   2.697
 5481TIP3   OH216406   4.730   0.711   5.573
 5481TIP3    H116407   4.713   0.704   5.666
 5481TIP3    H216408   4.654   0.670   5.531
 5482TIP3   OH216409   6.995   1.274   0.476
 5482TIP3    H116410   6.944   1.337   0.528
 5482TIP3    H216411   6.948   1.192   0.485
 5483TIP3   OH216412   3.985   5.881   4.425
 5483TIP3    H116413   3.912   5.910   4.480
 5483TIP3    H216414   4.032   5.961   4.402
 5484TIP3   OH216415   0.469   3.378   2.908
 5484TIP3    H116416   0.522   3.451   2.939
 5484TIP3    H216417   0.409   3.359   2.980
 5485TIP3   OH216418   2.763   0.213   1.583
 5485TIP3    H116419   2.748   0.228   1.489
 5485TIP3    H216420   2.687   0.251   1.626
 5486TIP3   OH216421   6.122   4.097   5.114
 5486TIP3    H116422   6.151   4.153   5.042
 5486TIP3    H216423   6.050   4.047   5.078
 5487TIP3   OH216424   6.460   2.185   3.018
 5487TIP3    H116425   6.554   2.175   3.038
 5487TIP3    H216426   6.428   2.246   3.085
 5488TIP3   OH216427   3.861   0.819   0.060
 5488TIP3    H116428   3.922   0.790   0.128
 5488TIP3    H216429   3.779   0.775   0.081
 5489TIP3   OH216430   5.283   4.353   3.605
 5489TIP3    H116431   5.333   4.432   3.588
 5489TIP3    H216432   5.244   4.330   3.521
 5490TIP3   OH216433   2.891   3.268   3.451
 5490TIP3    H116434   2.812   3.312   3.483
 5490TIP3    H216435   2.877   3.261   3.356
 5491TIP3   OH216436   1.701   4.577   2.846
 5491TIP3    H116437   1.639   4.647   2.867
 5491TIP3    H216438   1.648   4.498   2.839
 5492TIP3   OH216439   6.442   5.470   3.195
 5492TIP3    H116440   6.440   5.506   3.284
 5492TIP3    H216441   6.374   5.517   3.148
 5493TIP3   OH216442   4.143   4.305   2.884
 5493TIP3    H116443   4.220   4.256   2.911
 5493TIP3    H216444   4.176   4.391   2.860
 5494TIP3   OH216445   5.505   2.098   0.066
 5494TIP3    H116446   5.473   2.143   0.144
 5494TIP3    H216447   5.599   2.085   0.083
 5495TIP3   OH216448   0.763   4.458   1.188
 5495TIP3    H116449   0.731   4.513   1.117
 5495TIP3    H216450   0.721   4.494   1.266
 5496TIP3   OH216451   5.976   6.201   4.984
 5496TIP3    H116452   5.888   6.169   4.965
 5496TIP3    H216453   6.022   6.193   4.900
 5497TIP3   OH216454   4.433   4.145   5.056
 5497TIP3    H116455   4.505   4.171   5.113
 5497TIP3    H216456   4.458   4.178   4.969
 5498TIP3   OH216457   3.231   1.909   4.021
 5498TIP3    H116458   3.259   1.817   4.017
 5498TIP3    H216459   3.282   1.946   4.094
 5499TIP3   OH216460   2.609   3.959   5.724
 5499TIP3    H116461   2.614   4.000   5.811
 5499TIP3    H216462   2.676   3.891   5.726
 5500TIP3   OH216463   1.508   0.513   5.091
 5500TIP3    H116464   1.557   0.537   5.012
 5500TIP3    H216465   1.521   0.419   5.100
 5501TIP3   OH216466   4.228   3.347   5.528
 5501TIP3    H116467   4.292   3.300   5.475
 5501TIP3    H216468   4.226   3.435   5.492
 5502TIP3   OH216469   3.955   6.192   5.367
 5502TIP3    H116470   3.947   6.152   5.280
 5502TIP3    H216471   3.970   6.285   5.349
 5503TIP3   OH216472   3.309   0.531   2.901
 5503TIP3    H116473   3.312   0.483   2.818
 5503TIP3    H216474   3.251   0.605   2.883
 5504TIP3   OH216475   4.823   5.545   0.855
 5504TIP3    H116476   4.894   5.568   0.915
 5504TIP3    H216477   4.795   5.458   0.884
 5505TIP3   OH216478   0.824   4.181   2.619
 5505TIP3    H116479   0.737   4.182   2.660
 5505TIP3    H216480   0.805   4.186   2.525
 5506TIP3   OH216481   2.067   3.244   3.494
 5506TIP3    H116482   2.080   3.166   3.440
 5506TIP3    H216483   2.014   3.213   3.568
 5507TIP3   OH216484   0.692   3.277   4.061
 5507TIP3    H116485   0.623   3.222   4.026
 5507TIP3    H216486   0.764   3.269   3.998
 5508TIP3   OH216487   4.609   0.598   3.103
 5508TIP3    H116488   4.687   0.556   3.138
 5508TIP3    H216489   4.549   0.525   3.084
 5509TIP3   OH216490   5.398   6.095   3.315
 5509TIP3    H116491   5.319   6.056   3.277
 5509TIP3    H216492   5.469   6.057   3.264
 5510TIP3   OH216493   0.801   3.188   1.771
 5510TIP3    H116494   0.851   3.166   1.693
 5510TIP3    H216495   0.842   3.268   1.804
 5511TIP3   OH216496   6.621   5.688   1.744
 5511TIP3    H116497   6.650   5.724   1.660
 5511TIP3    H216498   6.625   5.593   1.731
 5512TIP3   OH216499   6.053   0.164   0.427
 5512TIP3    H116500   6.017   0.077   0.409
 5512TIP3    H216501   5.995   0.201   0.493
 5513TIP3   OH216502   6.469   6.302   5.677
 5513TIP3    H116503   6.513   6.248   5.612
 5513TIP3    H216504   6.376   6.287   5.662
 5514TIP3   OH216505   5.366   2.248   3.662
 5514TIP3    H116506   5.339   2.227   3.752
 5514TIP3    H216507   5.394   2.340   3.666
 5515TIP3   OH216508   4.697   3.682   2.439
 5515TIP3    H116509   4.697   3.678   2.344
 5515TIP3    H216510   4.633   3.750   2.461
 5516TIP3   OH216511   3.524   5.957   3.829
 5516TIP3    H116512   3.617   5.980   3.820
 5516TIP3    H216513   3.510   5.889   3.763
 5517TIP3   OH216514   0.587   3.636   1.399
 5517TIP3    H116515   0.621   3.670   1.316
 5517TIP3    H216516   0.610   3.702   1.464
 5518TIP3   OH216517   1.534   6.286   1.896
 5518TIP3    H116518   1.613   6.332   1.870
 5518TIP3    H216519   1.489   6.267   1.813
 5519TIP3   OH216520   1.754   4.941   1.493
 5519TIP3    H116521   1.775   4.935   1.587
 5519TIP3    H216522   1.808   4.873   1.452
 5520TIP3   OH216523   6.995   6.430   1.501
 5520TIP3    H116524   6.984   6.366   1.430
 5520TIP3    H216525   6.921   6.415   1.559
 5521TIP3   OH216526   2.167   5.912   1.812
 5521TIP3    H116527   2.224   5.923   1.736
 5521TIP3    H216528   2.219   5.944   1.886
 5522TIP3   OH216529   1.601   0.923   3.807
 5522TIP3    H116530   1.639   0.904   3.722
 5522TIP3    H216531   1.579   1.017   3.804
 5523TIP3   OH216532   6.572   5.896   3.363
 5523TIP3    H116533   6.644   5.958   3.354
 5523TIP3    H216534   6.609   5.812   3.337
 5524TIP3   OH216535   3.387   5.816   0.589
 5524TIP3    H116536   3.390   5.850   0.679
 5524TIP3    H216537   3.420   5.727   0.597
 5525TIP3   OH216538   1.823   5.136   1.287
 5525TIP3    H116539   1.891   5.104   1.228
 5525TIP3    H216540   1.784   5.057   1.324
 5526TIP3   OH216541   3.082   2.343   4.417
 5526TIP3    H116542   3.171   2.309   4.432
 5526TIP3    H216543   3.073   2.345   4.322
 5527TIP3   OH216544   2.306   4.268   4.624
 5527TIP3    H116545   2.246   4.210   4.671
 5527TIP3    H216546   2.286   4.356   4.658
 5528TIP3   OH216547   2.229   3.097   0.917
 5528TIP3    H116548   2.252   3.138   0.834
 5528TIP3    H216549   2.201   3.170   0.972
 5529TIP3   OH216550   4.115   4.023   5.762
 5529TIP3    H116551   4.128   4.063   5.676
 5529TIP3    H216552   4.108   4.097   5.822
 5530TIP3   OH216553   2.867   3.806   5.720
 5530TIP3    H116554   2.886   3.726   5.768
 5530TIP3    H216555   2.939   3.813   5.657
 5531TIP3   OH216556   1.021   5.414   5.035
 5531TIP3    H116557   0.994   5.347   4.972
 5531TIP3    H216558   1.116   5.415   5.031
 5532TIP3   OH216559   6.458   2.317   0.254
 5532TIP3    H116560   6.423   2.336   0.167
 5532TIP3    H216561   6.418   2.233   0.279
 5533TIP3   OH216562   5.953   5.162   0.634
 5533TIP3    H116563   5.924   5.201   0.551
 5533TIP3    H216564   6.019   5.223   0.667
 5534TIP3   OH216565   1.623   4.453   1.571
 5534TIP3    H116566   1.660   4.513   1.506
 5534TIP3    H216567   1.698   4.403   1.603
 5535TIP3   OH216568   6.576   1.172   3.023
 5535TIP3    H116569   6.611   1.130   3.101
 5535TIP3    H216570   6.492   1.129   3.007
 5536TIP3   OH216571   0.940   0.749   5.209
 5536TIP3    H116572   0.938   0.778   5.300
 5536TIP3    H216573   1.023   0.783   5.175
 5537TIP3   OH216574   3.161   1.043   2.192
 5537TIP3    H116575   3.179   0.961   2.146
 5537TIP3    H216576   3.189   1.026   2.282
 5538TIP3   OH216577   1.998   5.185   3.657
 5538TIP3    H116578   1.977   5.092   3.645
 5538TIP3    H216579   2.081   5.197   3.612
 5539TIP3   OH216580   2.759   6.449   2.034
 5539TIP3    H116581   2.720   6.441   1.948
 5539TIP3    H216582   2.734   6.368   2.079
 5540TIP3   OH216583   3.893   1.646   3.018
 5540TIP3    H116584   3.962   1.579   3.016
 5540TIP3    H216585   3.865   1.649   3.110
 5541TIP3   OH216586   0.457   2.566   3.130
 5541TIP3    H116587   0.442   2.471   3.128
 5541TIP3    H216588   0.407   2.600   3.056
 5542TIP3   OH216589   6.936   4.902   0.058
 5542TIP3    H116590   6.995   4.829   0.079
 5542TIP3    H216591   6.907   4.934   0.144
 5543TIP3   OH216592   6.230   2.893   0.594
 5543TIP3    H116593   6.197   2.921   0.509
 5543TIP3    H216594   6.200   2.802   0.602
 5544TIP3   OH216595   2.826   1.456   1.835
 5544TIP3    H116596   2.888   1.500   1.893
 5544TIP3    H216597   2.804   1.375   1.881
 5545TIP3   OH216598   6.422   4.761   5.039
 5545TIP3    H116599   6.443   4.680   5.086
 5545TIP3    H216600   6.468   4.753   4.955
 5546TIP3   OH216601   6.708   4.157   2.063
 5546TIP3    H116602   6.777   4.195   2.118
 5546TIP3    H216603   6.678   4.082   2.113
 5547TIP3   OH216604   4.844   1.098   0.266
 5547TIP3    H116605   4.863   1.082   0.358
 5547TIP3    H216606   4.915   1.154   0.236
 5548TIP3   OH216607   5.024   5.040   1.974
 5548TIP3    H116608   5.064   4.959   2.007
 5548TIP3    H216609   4.985   5.015   1.891
 5549TIP3   OH216610   6.786   6.401   5.594
 5549TIP3    H116611   6.830   6.346   5.529
 5549TIP3    H216612   6.705   6.429   5.551
 5550TIP3   OH216613   1.435   0.199   1.396
 5550TIP3    H116614   1.412   0.130   1.459
 5550TIP3    H216615   1.355   0.215   1.347
 5551TIP3   OH216616   4.206   2.369   5.600
 5551TIP3    H116617   4.112   2.386   5.601
 5551TIP3    H216618   4.246   2.456   5.589
 5552TIP3   OH216619   4.289   5.651   3.359
 5552TIP3    H116620   4.239   5.683   3.284
 5552TIP3    H216621   4.308   5.560   3.338
 5553TIP3   OH216622   5.695   2.872   1.918
 5553TIP3    H116623   5.743   2.886   2.000
 5553TIP3    H216624   5.618   2.928   1.926
 5554TIP3   OH216625   1.748   1.490   5.103
 5554TIP3    H116626   1.795   1.425   5.155
 5554TIP3    H216627   1.711   1.441   5.030
 5555TIP3   OH216628   7.108   0.160   5.474
 5555TIP3    H116629   7.056   0.159   5.554
 5555TIP3    H216630   7.126   0.252   5.458
 5556TIP3   OH216631   5.587   6.390   5.500
 5556TIP3    H116632   5.559   6.478   5.527
 5556TIP3    H216633   5.668   6.405   5.450
 5557TIP3   OH216634   6.405   2.518   0.721
 5557TIP3    H116635   6.424   2.531   0.628
 5557TIP3    H216636   6.489   2.528   0.765
 5558TIP3   OH216637   4.838   6.776   3.407
 5558TIP3    H116638   4.875   6.690   3.426
 5558TIP3    H216639   4.772   6.760   3.339
 5559TIP3   OH216640   2.917   2.478   5.586
 5559TIP3    H116641   2.864   2.557   5.571
 5559TIP3    H216642   2.855   2.406   5.575
 5560TIP3   OH216643   5.686   1.721   2.936
 5560TIP3    H116644   5.599   1.731   2.975
 5560TIP3    H216645   5.694   1.796   2.877
 5561TIP3   OH216646   2.247   0.348   0.122
 5561TIP3    H116647   2.215   0.390   0.202
 5561TIP3    H216648   2.291   0.418   0.074
 5562TIP3   OH216649   5.248   2.863   1.070
 5562TIP3    H116650   5.297   2.924   1.126
 5562TIP3    H216651   5.316   2.816   1.021
 5563TIP3   OH216652   0.645   0.263   3.532
 5563TIP3    H116653   0.707   0.200   3.494
 5563TIP3    H216654   0.600   0.214   3.600
 5564TIP3   OH216655   3.769   6.108   2.163
 5564TIP3    H116656   3.789   6.014   2.169
 5564TIP3    H216657   3.793   6.143   2.248
 5565TIP3   OH216658   6.557   0.688   3.351
 5565TIP3    H116659   6.495   0.677   3.279
 5565TIP3    H216660   6.588   0.778   3.344
 5566TIP3   OH216661   5.885   1.876   5.601
 5566TIP3    H116662   5.820   1.937   5.635
 5566TIP3    H216663   5.843   1.834   5.526
 5567TIP3   OH216664   0.065   5.648   3.169
 5567TIP3    H116665   0.098   5.598   3.095
 5567TIP3    H216666   0.113   5.731   3.166
 5568TIP3   OH216667   1.446   6.157   4.197
 5568TIP3    H116668   1.452   6.220   4.126
 5568TIP3    H216669   1.357   6.121   4.191
 5569TIP3   OH216670   3.358   1.903   3.736
 5569TIP3    H116671   3.311   1.822   3.713
 5569TIP3    H216672   3.325   1.925   3.824
 5570TIP3   OH216673   5.161   3.231   0.170
 5570TIP3    H116674   5.207   3.161   0.124
 5570TIP3    H216675   5.071   3.226   0.138
 5571TIP3   OH216676   6.213   4.636   5.800
 5571TIP3    H116677   6.174   4.568   5.854
 5571TIP3    H216678   6.226   4.595   5.714
 5572TIP3   OH216679   0.464   4.835   0.963
 5572TIP3    H116680   0.539   4.893   0.975
 5572TIP3    H216681   0.433   4.854   0.875
 5573TIP3   OH216682   2.255   6.233  -0.004
 5573TIP3    H116683   2.350   6.222  -0.005
 5573TIP3    H216684   2.242   6.328  -0.004
 5574TIP3   OH216685   3.038   2.968   4.437
 5574TIP3    H116686   2.992   2.907   4.379
 5574TIP3    H216687   2.980   3.044   4.443
 5575TIP3   OH216688   1.766   0.252   3.270
 5575TIP3    H116689   1.766   0.220   3.360
 5575TIP3    H216690   1.693   0.313   3.266
 5576TIP3   OH216691   6.885   6.041   2.548
 5576TIP3    H116692   6.851   6.129   2.533
 5576TIP3    H216693   6.810   5.993   2.585
 5577TIP3   OH216694   2.035   1.335   2.144
 5577TIP3    H116695   1.964   1.365   2.201
 5577TIP3    H216696   2.110   1.322   2.203
 5578TIP3   OH216697   1.862   4.051   0.689
 5578TIP3    H116698   1.931   4.084   0.746
 5578TIP3    H216699   1.899   3.974   0.648
 5579TIP3   OH216700   3.556   3.382   0.784
 5579TIP3    H116701   3.496   3.380   0.860
 5579TIP3    H216702   3.633   3.333   0.813
 5580TIP3   OH216703   5.831   0.132   0.068
 5580TIP3    H116704   5.758   0.084   0.106
 5580TIP3    H216705   5.807   0.224   0.076
 5581TIP3   OH216706   5.849   4.174   2.213
 5581TIP3    H116707   5.880   4.176   2.304
 5581TIP3    H216708   5.786   4.102   2.211
 5582TIP3   OH216709   0.088   2.249   1.215
 5582TIP3    H116710   0.041   2.243   1.298
 5582TIP3    H216711   0.136   2.332   1.221
 5583TIP3   OH216712   1.357   4.704   4.076
 5583TIP3    H116713   1.314   4.715   4.161
 5583TIP3    H216714   1.446   4.734   4.090
 5584TIP3   OH216715   5.914   5.635   5.426
 5584TIP3    H116716   5.943   5.691   5.353
 5584TIP3    H216717   5.821   5.655   5.435
 5585TIP3   OH216718   5.248   2.167   3.912
 5585TIP3    H116719   5.301   2.207   3.981
 5585TIP3    H216720   5.159   2.198   3.929
 5586TIP3   OH216721   1.862   3.438   1.859
 5586TIP3    H116722   1.818   3.516   1.893
 5586TIP3    H216723   1.890   3.463   1.771
 5587TIP3   OH216724   3.362   3.927   2.324
 5587TIP3    H116725   3.407   3.855   2.279
 5587TIP3    H216726   3.338   3.988   2.254
 5588TIP3   OH216727   3.803   1.862   1.629
 5588TIP3    H116728   3.753   1.912   1.694
 5588TIP3    H216729   3.775   1.772   1.642
 5589TIP3   OH216730   3.205   4.774   2.583
 5589TIP3    H116731   3.177   4.734   2.501
 5589TIP3    H216732   3.290   4.814   2.562
 5590TIP3   OH216733   6.020   1.917   0.344
 5590TIP3    H116734   6.069   1.965   0.277
 5590TIP3    H216735   5.936   1.897   0.302
 5591TIP3   OH216736   4.243   6.703   1.228
 5591TIP3    H116737   4.278   6.652   1.301
 5591TIP3    H216738   4.156   6.666   1.212
 5592TIP3   OH216739   3.026   1.010   3.248
 5592TIP3    H116740   3.031   1.060   3.330
 5592TIP3    H216741   3.045   1.075   3.180
 5593TIP3   OH216742   1.658   2.806   3.465
 5593TIP3    H116743   1.572   2.828   3.500
 5593TIP3    H216744   1.706   2.889   3.465
 5594TIP3   OH216745   5.665   5.747   5.313
 5594TIP3    H116746   5.637   5.669   5.362
 5594TIP3    H216747   5.630   5.821   5.363
 5595TIP3   OH216748   2.227   5.426   2.158
 5595TIP3    H116749   2.234   5.496   2.223
 5595TIP3    H216750   2.314   5.387   2.156
 5596TIP3   OH216751   4.402   5.970   5.698
 5596TIP3    H116752   4.440   6.051   5.663
 5596TIP3    H216753   4.314   5.996   5.727
 5597TIP3   OH216754   2.488   4.469   0.669
 5597TIP3    H116755   2.490   4.564   0.658
 5597TIP3    H216756   2.562   4.438   0.616
 5598TIP3   OH216757   1.964   3.215   5.525
 5598TIP3    H116758   1.891   3.237   5.468
 5598TIP3    H216759   1.993   3.128   5.495
 5599TIP3   OH216760   3.971   2.629   1.945
 5599TIP3    H116761   3.926   2.705   1.908
 5599TIP3    H216762   3.972   2.646   2.039
 5600TIP3   OH216763   4.714   6.374   1.643
 5600TIP3    H116764   4.689   6.433   1.713
 5600TIP3    H216765   4.645   6.384   1.577
 5601TIP3   OH216766   2.868   1.074   0.772
 5601TIP3    H116767   2.945   1.128   0.789
 5601TIP3    H216768   2.794   1.129   0.798
 5602TIP3   OH216769   4.471   0.225   3.244
 5602TIP3    H116770   4.459   0.159   3.312
 5602TIP3    H216771   4.460   0.309   3.289
 5603TIP3   OH216772   1.984   3.269   3.131
 5603TIP3    H116773   1.913   3.310   3.082
 5603TIP3    H216774   2.002   3.187   3.085
 5604TIP3   OH216775   4.787   3.677   4.951
 5604TIP3    H116776   4.786   3.765   4.990
 5604TIP3    H216777   4.879   3.662   4.929
 5605TIP3   OH216778   0.735   2.016   4.039
 5605TIP3    H116779   0.670   2.024   3.969
 5605TIP3    H216780   0.729   1.925   4.067
 5606TIP3   OH216781   0.934   2.967   0.975
 5606TIP3    H116782   1.027   2.972   0.996
 5606TIP3    H216783   0.913   3.052   0.937
 5607TIP3   OH216784   2.242   1.507   1.577
 5607TIP3    H116785   2.297   1.546   1.645
 5607TIP3    H216786   2.164   1.476   1.623
 5608TIP3   OH216787   3.884   3.393   5.757
 5608TIP3    H116788   3.870   3.340   5.679
 5608TIP3    H216789   3.978   3.414   5.755
 5609TIP3   OH216790   6.338   1.589   5.689
 5609TIP3    H116791   6.332   1.615   5.781
 5609TIP3    H216792   6.294   1.661   5.642
 5610TIP3   OH216793   0.570   5.814   3.606
 5610TIP3    H116794   0.526   5.729   3.600
 5610TIP3    H216795   0.548   5.859   3.524
 5611TIP3   OH216796   0.401   2.301   2.419
 5611TIP3    H116797   0.368   2.383   2.455
 5611TIP3    H216798   0.464   2.270   2.484
 5612TIP3   OH216799   4.992   6.271   0.328
 5612TIP3    H116800   5.055   6.303   0.393
 5612TIP3    H216801   4.907   6.293   0.365
 5613TIP3   OH216802   1.065   0.194   0.381
 5613TIP3    H116803   1.005   0.138   0.331
 5613TIP3    H216804   1.128   0.225   0.316
 5614TIP3   OH216805   5.836   4.449   1.514
 5614TIP3    H116806   5.923   4.488   1.512
 5614TIP3    H216807   5.807   4.450   1.423
 5615TIP3   OH216808   5.986   1.704   2.159
 5615TIP3    H116809   5.927   1.732   2.089
 5615TIP3    H216810   5.986   1.776   2.221
 5616TIP3   OH216811   0.102   1.108   3.574
 5616TIP3    H116812   0.143   1.091   3.490
 5616TIP3    H216813   0.076   1.200   3.570
 5617TIP3   OH216814   0.732   0.116   2.067
 5617TIP3    H116815   0.710   0.103   2.159
 5617TIP3    H216816   0.755   0.028   2.035
 5618TIP3   OH216817   1.981   1.458   5.427
 5618TIP3    H116818   2.030   1.438   5.507
 5618TIP3    H216819   1.983   1.554   5.421
 5619TIP3   OH216820   3.970   2.413   4.644
 5619TIP3    H116821   3.888   2.381   4.680
 5619TIP3    H216822   4.005   2.471   4.711
 5620TIP3   OH216823   4.664   5.888   0.104
 5620TIP3    H116824   4.591   5.947   0.089
 5620TIP3    H216825   4.709   5.883   0.020
 5621TIP3   OH216826   0.664   3.493   3.824
 5621TIP3    H116827   0.717   3.565   3.790
 5621TIP3    H216828   0.715   3.414   3.803
 5622TIP3   OH216829   3.811   5.543   4.246
 5622TIP3    H116830   3.847   5.455   4.253
 5622TIP3    H216831   3.869   5.589   4.185
 5623TIP3   OH216832   2.348   1.774   5.240
 5623TIP3    H116833   2.371   1.845   5.300
 5623TIP3    H216834   2.430   1.754   5.195
 5624TIP3   OH216835   5.137   4.981   0.895
 5624TIP3    H116836   5.228   4.989   0.869
 5624TIP3    H216837   5.113   4.891   0.872
 5625TIP3   OH216838   2.192   4.536   1.930
 5625TIP3    H116839   2.207   4.450   1.969
 5625TIP3    H216840   2.276   4.580   1.937
 5626TIP3   OH216841   1.292   0.233   0.220
 5626TIP3    H116842   1.297   0.156   0.164
 5626TIP3    H216843   1.359   0.293   0.185
 5627TIP3   OH216844   6.259   2.980   0.269
 5627TIP3    H116845   6.204   3.030   0.210
 5627TIP3    H216846   6.226   2.891   0.263
 5628TIP3   OH216847   3.610   4.888   0.055
 5628TIP3    H116848   3.636   4.882  -0.037
 5628TIP3    H216849   3.623   4.799   0.089
 5629TIP3   OH216850   2.373   3.049   3.341
 5629TIP3    H116851   2.409   2.990   3.275
 5629TIP3    H216852   2.278   3.045   3.329
 5630TIP3   OH216853   7.216   2.307   1.992
 5630TIP3    H116854   7.139   2.285   2.044
 5630TIP3    H216855   7.286   2.318   2.057
 5631TIP3   OH216856   3.487   1.896   5.588
 5631TIP3    H116857   3.436   1.861   5.661
 5631TIP3    H216858   3.472   1.833   5.517
 5632TIP3   OH216859   5.831   4.575   5.049
 5632TIP3    H116860   5.923   4.548   5.049
 5632TIP3    H216861   5.783   4.498   5.080
 5633TIP3   OH216862   2.947   2.949   5.776
 5633TIP3    H116863   3.002   2.971   5.852
 5633TIP3    H216864   2.910   3.033   5.748
 5634TIP3   OH216865   5.318   2.883   5.775
 5634TIP3    H116866   5.225   2.896   5.756
 5634TIP3    H216867   5.319   2.831   5.856
 5635TIP3   OH216868   2.392   3.263   1.804
 5635TIP3    H116869   2.358   3.173   1.803
 5635TIP3    H216870   2.323   3.313   1.848
 5636TIP3   OH216871   5.582   3.209   4.599
 5636TIP3    H116872   5.627   3.126   4.613
 5636TIP3    H216873   5.636   3.274   4.645
 5637TIP3   OH216874   3.417   1.400   3.843
 5637TIP3    H116875   3.391   1.354   3.762
 5637TIP3    H216876   3.510   1.417   3.832
 5638TIP3   OH216877   1.136   1.783   2.881
 5638TIP3    H116878   1.163   1.727   2.954
 5638TIP3    H216879   1.129   1.723   2.807
 5639TIP3   OH216880   3.285   1.130   0.622
 5639TIP3    H116881   3.356   1.069   0.642
 5639TIP3    H216882   3.233   1.134   0.703
 5640TIP3   OH216883   7.089   4.679   0.125
 5640TIP3    H116884   7.066   4.662   0.217
 5640TIP3    H216885   7.120   4.595   0.092
 5641TIP3   OH216886   1.253   5.332   3.498
 5641TIP3    H116887   1.234   5.275   3.573
 5641TIP3    H216888   1.337   5.301   3.465
 5642TIP3   OH216889   5.381   3.541   4.942
 5642TIP3    H116890   5.336   3.500   4.869
 5642TIP3    H216891   5.448   3.478   4.968
 5643TIP3   OH216892   2.240   4.795   1.257
 5643TIP3    H116893   2.292   4.874   1.276
 5643TIP3    H216894   2.267   4.769   1.169
 5644TIP3   OH216895   1.063   4.673   3.447
 5644TIP3    H116896   0.996   4.662   3.516
 5644TIP3    H216897   1.052   4.596   3.391
 5645TIP3   OH216898   0.614   4.889   5.858
 5645TIP3    H116899   0.519   4.875   5.857
 5645TIP3    H216900   0.648   4.829   5.791
 5646TIP3   OH216901   4.232   0.876   5.136
 5646TIP3    H116902   4.174   0.835   5.200
 5646TIP3    H216903   4.216   0.970   5.145
 5647TIP3   OH216904   0.844   3.582   1.056
 5647TIP3    H116905   0.812   3.580   0.966
 5647TIP3    H216906   0.893   3.500   1.066
 5648TIP3   OH216907   6.504   0.158   2.532
 5648TIP3    H116908   6.543   0.149   2.619
 5648TIP3    H216909   6.410   0.155   2.547
 5649TIP3   OH216910   5.137   2.323   5.577
 5649TIP3    H116911   5.096   2.409   5.566
 5649TIP3    H216912   5.066   2.265   5.602
 5650TIP3   OH216913   5.639   5.085   0.420
 5650TIP3    H116914   5.733   5.105   0.411
 5650TIP3    H216915   5.634   5.032   0.500
 5651TIP3   OH216916   7.026   5.921   5.069
 5651TIP3    H116917   7.083   5.950   4.998
 5651TIP3    H216918   6.944   5.897   5.026
 5652TIP3   OH216919   2.510   1.149   5.007
 5652TIP3    H116920   2.459   1.081   4.963
 5652TIP3    H216921   2.560   1.191   4.937
 5653TIP3   OH216922   5.919   1.428   4.346
 5653TIP3    H116923   5.852   1.361   4.337
 5653TIP3    H216924   5.954   1.416   4.435
 5654TIP3   OH216925   2.958   3.738   2.806
 5654TIP3    H116926   2.937   3.645   2.805
 5654TIP3    H216927   3.034   3.746   2.748
 5655TIP3   OH216928   2.858   1.268   2.197
 5655TIP3    H116929   2.943   1.262   2.154
 5655TIP3    H216930   2.875   1.243   2.288
 5656TIP3   OH216931   6.537   1.770   5.937
 5656TIP3    H116932   6.501   1.843   5.888
 5656TIP3    H216933   6.554   1.702   5.871
 5657TIP3   OH216934   6.763   6.248   4.692
 5657TIP3    H116935   6.716   6.185   4.638
 5657TIP3    H216936   6.789   6.198   4.769
 5658TIP3   OH216937   4.669   4.990   1.783
 5658TIP3    H116938   4.595   4.965   1.728
 5658TIP3    H216939   4.727   5.040   1.724
 5659TIP3   OH216940   0.216   1.185   0.461
 5659TIP3    H116941   0.154   1.127   0.505
 5659TIP3    H216942   0.162   1.241   0.405
 5660TIP3   OH216943   3.191   2.926   5.295
 5660TIP3    H116944   3.128   2.998   5.288
 5660TIP3    H216945   3.154   2.867   5.360
 5661TIP3   OH216946   0.021   0.843   2.038
 5661TIP3    H116947  -0.044   0.774   2.028
 5661TIP3    H216948   0.106   0.797   2.036
 5662TIP3   OH216949   6.351   1.016   3.047
 5662TIP3    H116950   6.371   0.924   3.061
 5662TIP3    H216951   6.270   1.016   2.996
 5663TIP3   OH216952   5.080   5.998   1.187
 5663TIP3    H116953   5.087   5.920   1.132
 5663TIP3    H216954   5.034   6.062   1.132
 5664TIP3   OH216955   1.746   2.293   1.565
 5664TIP3    H116956   1.769   2.252   1.648
 5664TIP3    H216957   1.812   2.262   1.504
 5665TIP3   OH216958   2.217   1.282   5.481
 5665TIP3    H116959   2.184   1.192   5.474
 5665TIP3    H216960   2.240   1.306   5.391
 5666TIP3   OH216961   6.677   4.172   5.396
 5666TIP3    H116962   6.697   4.264   5.415
 5666TIP3    H216963   6.727   4.123   5.461
 5667TIP3   OH216964   0.735   6.552   3.464
 5667TIP3    H116965   0.680   6.551   3.542
 5667TIP3    H216966   0.710   6.632   3.418
 5668TIP3   OH216967   0.618   5.608   2.310
 5668TIP3    H116968   0.648   5.646   2.393
 5668TIP3    H216969   0.621   5.681   2.249
 5669TIP3   OH216970   3.369   6.191   4.818
 5669TIP3    H116971   3.277   6.166   4.808
 5669TIP3    H216972   3.400   6.141   4.893
 5670TIP3   OH216973   7.199   4.617   0.662
 5670TIP3    H116974   7.217   4.592   0.752
 5670TIP3    H216975   7.234   4.544   0.610
 5671TIP3   OH216976   0.220   1.997   4.651
 5671TIP3    H116977   0.181   2.048   4.722
 5671TIP3    H216978   0.172   2.024   4.572
 5672TIP3   OH216979   0.632   0.435   5.787
 5672TIP3    H116980   0.625   0.351   5.740
 5672TIP3    H216981   0.541   0.463   5.799
 5673TIP3   OH216982   3.928   4.747   2.384
 5673TIP3    H116983   3.929   4.782   2.295
 5673TIP3    H216984   3.883   4.662   2.377
 5674TIP3   OH216985   3.400   0.715   2.452
 5674TIP3    H116986   3.347   0.672   2.519
 5674TIP3    H216987   3.476   0.659   2.442
 5675TIP3   OH216988   3.587   3.376   5.574
 5675TIP3    H116989   3.495   3.400   5.564
 5675TIP3    H216990   3.631   3.458   5.598
 5676TIP3   OH216991   1.649   5.788   2.346
 5676TIP3    H116992   1.662   5.710   2.293
 5676TIP3    H216993   1.568   5.826   2.314
 5677TIP3   OH216994   7.059   2.225   3.740
 5677TIP3    H116995   6.978   2.186   3.707
 5677TIP3    H216996   7.031   2.291   3.803
 5678TIP3   OH216997   6.710   2.054   0.124
 5678TIP3    H116998   6.630   2.004   0.108
 5678TIP3    H216999   6.779   1.987   0.128
 5679TIP3   OH217000   1.826   4.930   5.251
 5679TIP3    H117001   1.891   4.912   5.318
 5679TIP3    H217002   1.853   4.879   5.175
 5680TIP3   OH217003   5.544   5.355   2.778
 5680TIP3    H117004   5.495   5.431   2.745
 5680TIP3    H217005   5.633   5.369   2.746
 5681TIP3   OH217006   0.953   4.935   1.599
 5681TIP3    H117007   1.020   4.888   1.549
 5681TIP3    H217008   1.001   4.978   1.669
 5682TIP3   OH217009   3.691   5.769   0.511
 5682TIP3    H117010   3.629   5.724   0.454
 5682TIP3    H217011   3.681   5.727   0.596
 5683TIP3   OH217012   0.067   5.592   1.471
 5683TIP3    H117013   0.073   5.620   1.562
 5683TIP3    H217014  -0.008   5.640   1.436
 5684TIP3   OH217015   2.576   3.894   4.602
 5684TIP3    H117016   2.569   3.834   4.527
 5684TIP3    H217017   2.486   3.905   4.633
 5685TIP3   OH217018   7.179   1.027   1.114
 5685TIP3    H117019   7.152   1.117   1.136
 5685TIP3    H217020   7.104   0.991   1.067
 5686TIP3   OH217021   1.250   0.596   5.195
 5686TIP3    H117022   1.214   0.670   5.146
 5686TIP3    H217023   1.336   0.581   5.156
 5687TIP3   OH217024   6.422   5.314   2.588
 5687TIP3    H117025   6.458   5.373   2.522
 5687TIP3    H217026   6.498   5.269   2.624
 5688TIP3   OH217027   4.376   1.492   5.512
 5688TIP3    H117028   4.393   1.579   5.550
 5688TIP3    H217029   4.382   1.433   5.587
 5689TIP3   OH217030   4.446   3.416   2.133
 5689TIP3    H117031   4.386   3.480   2.094
 5689TIP3    H217032   4.459   3.351   2.065
 5690TIP3   OH217033   5.666   5.655   0.286
 5690TIP3    H117034   5.672   5.742   0.327
 5690TIP3    H217035   5.745   5.649   0.233
 5691TIP3   OH217036   5.014   5.709   0.270
 5691TIP3    H117037   5.053   5.738   0.187
 5691TIP3    H217038   4.936   5.764   0.280
 5692TIP3   OH217039   6.999   3.963   4.578
 5692TIP3    H117040   6.945   3.975   4.656
 5692TIP3    H217041   7.062   4.035   4.582
 5693TIP3   OH217042   0.079   0.841   2.862
 5693TIP3    H117043   0.016   0.897   2.818
 5693TIP3    H217044   0.076   0.758   2.814
 5694TIP3   OH217045   5.080   4.721   4.431
 5694TIP3    H117046   5.138   4.794   4.407
 5694TIP3    H217047   4.992   4.757   4.424
 5695TIP3   OH217048   6.753   1.570   1.158
 5695TIP3    H117049   6.722   1.633   1.224
 5695TIP3    H217050   6.846   1.587   1.150
 5696TIP3   OH217051   5.067   0.465   0.458
 5696TIP3    H117052   5.137   0.406   0.429
 5696TIP3    H217053   4.990   0.436   0.410
 5697TIP3   OH217054   3.950   5.791   5.233
 5697TIP3    H117055   3.869   5.759   5.272
 5697TIP3    H217056   3.933   5.794   5.139
 5698TIP3   OH217057   3.682   5.522   2.280
 5698TIP3    H117058   3.682   5.428   2.294
 5698TIP3    H217059   3.749   5.537   2.213
 5699TIP3   OH217060   1.534   3.855   0.374
 5699TIP3    H117061   1.580   3.810   0.445
 5699TIP3    H217062   1.485   3.925   0.418
 5700TIP3   OH217063   3.736   3.414   2.023
 5700TIP3    H117064   3.774   3.344   2.076
 5700TIP3    H217065   3.680   3.369   1.959
 5701TIP3   OH217066   3.163   3.515   1.294
 5701TIP3    H117067   3.106   3.494   1.220
 5701TIP3    H217068   3.103   3.531   1.367
 5702TIP3   OH217069   2.422   6.658   0.428
 5702TIP3    H117070   2.508   6.626   0.454
 5702TIP3    H217071   2.439   6.744   0.388
 5703TIP3   OH217072   4.062   0.816   3.355
 5703TIP3    H117073   3.981   0.786   3.396
 5703TIP3    H217074   4.082   0.899   3.399
 5704TIP3   OH217075   5.818   5.934   0.189
 5704TIP3    H117076   5.785   5.921   0.100
 5704TIP3    H217077   5.903   5.977   0.177
 5705TIP3   OH217078   0.454   3.155   1.915
 5705TIP3    H117079   0.501   3.152   1.998
 5705TIP3    H217080   0.367   3.189   1.937
 5706TIP3   OH217081   3.861   1.852   4.066
 5706TIP3    H117082   3.782   1.904   4.076
 5706TIP3    H217083   3.879   1.818   4.154
 5707TIP3   OH217084   1.012   1.827   4.295
 5707TIP3    H117085   1.077   1.895   4.310
 5707TIP3    H217086   0.935   1.857   4.343
 5708TIP3   OH217087   4.536   0.915   0.916
 5708TIP3    H117088   4.591   0.984   0.877
 5708TIP3    H217089   4.479   0.962   0.977
 5709TIP3   OH217090   4.309   3.814   5.090
 5709TIP3    H117091   4.256   3.823   5.170
 5709TIP3    H217092   4.395   3.847   5.115
 5710TIP3   OH217093   6.680   1.283   5.618
 5710TIP3    H117094   6.740   1.321   5.555
 5710TIP3    H217095   6.609   1.247   5.565
 5711TIP3   OH217096   6.401   1.271   5.286
 5711TIP3    H117097   6.408   1.358   5.326
 5711TIP3    H217098   6.492   1.244   5.271
 5712TIP3   OH217099   1.742   3.164   0.559
 5712TIP3    H117100   1.646   3.167   0.556
 5712TIP3    H217101   1.769   3.170   0.468
 5713TIP3   OH217102   0.870   0.308   1.932
 5713TIP3    H117103   0.806   0.239   1.948
 5713TIP3    H217104   0.827   0.364   1.867
 5714TIP3   OH217105   5.631   2.644   0.389
 5714TIP3    H117106   5.613   2.671   0.479
 5714TIP3    H217107   5.682   2.564   0.398
 5715TIP3   OH217108   5.648   1.126   4.587
 5715TIP3    H117109   5.691   1.052   4.544
 5715TIP3    H217110   5.582   1.086   4.643
 5716TIP3   OH217111   1.237   5.984   3.955
 5716TIP3    H117112   1.276   6.018   4.036
 5716TIP3    H217113   1.142   5.995   3.969
 5717TIP3   OH217114   0.383   0.435   5.134
 5717TIP3    H117115   0.374   0.387   5.216
 5717TIP3    H217116   0.422   0.372   5.074
 5718TIP3   OH217117   7.136   4.560   5.013
 5718TIP3    H117118   7.156   4.626   4.947
 5718TIP3    H217119   7.200   4.491   4.998
 5719TIP3   OH217120   2.117   4.522   4.401
 5719TIP3    H117121   2.108   4.547   4.309
 5719TIP3    H217122   2.059   4.582   4.448
 5720TIP3   OH217123   3.864   2.346   1.691
 5720TIP3    H117124   3.902   2.349   1.778
 5720TIP3    H217125   3.916   2.280   1.645
 5721TIP3   OH217126   3.374   4.008   0.865
 5721TIP3    H117127   3.462   3.970   0.872
 5721TIP3    H217128   3.337   3.964   0.788
 5722TIP3   OH217129   1.108   1.734   0.447
 5722TIP3    H117130   1.038   1.676   0.474
 5722TIP3    H217131   1.180   1.716   0.508
 5723TIP3   OH217132   4.543   4.433   1.255
 5723TIP3    H117133   4.517   4.498   1.320
 5723TIP3    H217134   4.461   4.395   1.224
 5724TIP3   OH217135   6.187   3.676   2.923
 5724TIP3    H117136   6.112   3.733   2.903
 5724TIP3    H217137   6.190   3.673   3.019
 5725TIP3   OH217138   1.261   0.753   0.696
 5725TIP3    H117139   1.250   0.668   0.738
 5725TIP3    H217140   1.243   0.737   0.604
 5726TIP3   OH217141   1.097   0.459   5.657
 5726TIP3    H117142   1.045   0.395   5.609
 5726TIP3    H217143   1.134   0.515   5.589
 5727TIP3   OH217144   7.016   0.300   0.037
 5727TIP3    H117145   7.042   0.374  -0.018
 5727TIP3    H217146   7.085   0.236   0.025
 5728TIP3   OH217147   6.605   2.678   1.579
 5728TIP3    H117148   6.593   2.670   1.674
 5728TIP3    H217149   6.519   2.658   1.542
 5729TIP3   OH217150   5.692   1.263   4.337
 5729TIP3    H117151   5.667   1.221   4.419
 5729TIP3    H217152   5.677   1.196   4.270
 5730TIP3   OH217153   6.474   0.044   5.145
 5730TIP3    H117154   6.509  -0.022   5.085
 5730TIP3    H217155   6.411   0.093   5.093
 5731TIP3   OH217156   3.613   0.751   5.229
 5731TIP3    H117157   3.585   0.679   5.287
 5731TIP3    H217158   3.675   0.801   5.282
 5732TIP3   OH217159   5.678   5.333   3.776
 5732TIP3    H117160   5.733   5.410   3.759
 5732TIP3    H217161   5.677   5.285   3.694
 5733TIP3   OH217162   6.462   6.126   3.442
 5733TIP3    H117163   6.521   6.051   3.436
 5733TIP3    H217164   6.518   6.202   3.427
 5734TIP3   OH217165   2.903   1.395   1.528
 5734TIP3    H117166   2.997   1.410   1.518
 5734TIP3    H217167   2.881   1.433   1.613
 5735TIP3   OH217168   2.333   0.183   3.759
 5735TIP3    H117169   2.297   0.267   3.731
 5735TIP3    H217170   2.266   0.147   3.817
 5736TIP3   OH217171   0.019   0.382   1.336
 5736TIP3    H117172   0.099   0.410   1.292
 5736TIP3    H217173  -0.045   0.451   1.316
 5737TIP3   OH217174   1.973   2.435   4.955
 5737TIP3    H117175   2.043   2.383   4.995
 5737TIP3    H217176   1.975   2.518   5.003
 5738TIP3   OH217177   0.028   1.530   2.722
 5738TIP3    H117178   0.002   1.592   2.789
 5738TIP3    H217179   0.124   1.535   2.720
 5739TIP3   OH217180   4.759   4.123   4.965
 5739TIP3    H117181   4.808   4.046   4.994
 5739TIP3    H217182   4.739   4.105   4.874
 5740TIP3   OH217183   1.845   1.689   1.667
 5740TIP3    H117184   1.810   1.613   1.621
 5740TIP3    H217185   1.830   1.671   1.760
 5741TIP3   OH217186   0.909   4.770   0.476
 5741TIP3    H117187   0.845   4.820   0.426
 5741TIP3    H217188   0.962   4.836   0.520
 5742TIP3   OH217189   6.907   0.815   3.517
 5742TIP3    H117190   6.955   0.877   3.462
 5742TIP3    H217191   6.918   0.731   3.472
 5743TIP3   OH217192   4.135   4.366   5.642
 5743TIP3    H117193   4.071   4.394   5.578
 5743TIP3    H217194   4.179   4.291   5.601
 5744TIP3   OH217195   6.232   6.093   0.999
 5744TIP3    H117196   6.175   6.130   1.065
 5744TIP3    H217197   6.289   6.165   0.973
 5745TIP3   OH217198   0.513   1.990   3.575
 5745TIP3    H117199   0.576   2.047   3.531
 5745TIP3    H217200   0.566   1.925   3.621
 5746TIP3   OH217201   5.043   2.113   4.866
 5746TIP3    H117202   4.965   2.129   4.812
 5746TIP3    H217203   5.113   2.095   4.804
 5747TIP3   OH217204   5.260   5.398   5.335
 5747TIP3    H117205   5.219   5.485   5.341
 5747TIP3    H217206   5.227   5.350   5.411
 5748TIP3   OH217207   3.530   4.087   4.818
 5748TIP3    H117208   3.435   4.094   4.808
 5748TIP3    H217209   3.562   4.176   4.804
 5749TIP3   OH217210   6.517   5.672   0.945
 5749TIP3    H117211   6.451   5.736   0.972
 5749TIP3    H217212   6.482   5.588   0.974
 5750TIP3   OH217213   1.954   6.664   3.811
 5750TIP3    H117214   1.953   6.719   3.889
 5750TIP3    H217215   1.921   6.579   3.841
 5751TIP3   OH217216   6.146   1.932   4.211
 5751TIP3    H117217   6.068   1.949   4.159
 5751TIP3    H217218   6.134   1.844   4.245
 5752TIP3   OH217219   0.962   3.613   3.933
 5752TIP3    H117220   1.043   3.663   3.921
 5752TIP3    H217221   0.939   3.627   4.025
 5753TIP3   OH217222   5.417   1.008   1.980
 5753TIP3    H117223   5.452   1.036   2.065
 5753TIP3    H217224   5.329   0.975   2.000
 5754TIP3   OH217225   6.773   6.669   4.000
 5754TIP3    H117226   6.839   6.731   3.970
 5754TIP3    H217227   6.733   6.636   3.920
 5755TIP3   OH217228   2.852   2.150   5.799
 5755TIP3    H117229   2.857   2.132   5.893
 5755TIP3    H217230   2.883   2.069   5.757
 5756TIP3   OH217231   1.883   1.008   5.112
 5756TIP3    H117232   1.903   1.067   5.040
 5756TIP3    H217233   1.829   0.939   5.073
 5757TIP3   OH217234   5.356   0.639   5.634
 5757TIP3    H117235   5.388   0.606   5.550
 5757TIP3    H217236   5.417   0.710   5.656
 5758TIP3   OH217237   4.927   5.019   4.133
 5758TIP3    H117238   4.893   5.087   4.191
 5758TIP3    H217239   4.864   4.947   4.142
 5759TIP3   OH217240   1.446   0.699   2.024
 5759TIP3    H117241   1.370   0.676   2.077
 5759TIP3    H217242   1.441   0.794   2.013
 5760TIP3   OH217243   4.861   3.944   5.879
 5760TIP3    H117244   4.884   4.037   5.875
 5760TIP3    H217245   4.819   3.926   5.795
 5761TIP3   OH217246   5.951   6.604   1.796
 5761TIP3    H117247   5.892   6.567   1.731
 5761TIP3    H217248   6.000   6.672   1.749
 5762TIP3   OH217249   1.518   1.634   1.802
 5762TIP3    H117250   1.536   1.641   1.896
 5762TIP3    H217251   1.426   1.659   1.793
 5763TIP3   OH217252   2.205   0.099   4.564
 5763TIP3    H117253   2.227   0.035   4.631
 5763TIP3    H217254   2.289   0.125   4.526
 5764TIP3   OH217255   6.023   4.533   0.816
 5764TIP3    H117256   5.991   4.533   0.726
 5764TIP3    H217257   5.988   4.615   0.853
 5765TIP3   OH217258   3.208   3.075   1.268
 5765TIP3    H117259   3.144   3.110   1.206
 5765TIP3    H217260   3.196   2.980   1.264
 5766TIP3   OH217261   3.199   2.198   1.749
 5766TIP3    H117262   3.265   2.141   1.710
 5766TIP3    H217263   3.115   2.162   1.719
 5767TIP3   OH217264   6.228   5.429   5.130
 5767TIP3    H117265   6.208   5.347   5.174
 5767TIP3    H217266   6.203   5.414   5.039
 5768TIP3   OH217267   6.061   2.516   1.751
 5768TIP3    H117268   6.108   2.453   1.806
 5768TIP3    H217269   6.046   2.591   1.809
 5769TIP3   OH217270   4.970   0.509   2.334
 5769TIP3    H117271   4.893   0.558   2.305
 5769TIP3    H217272   4.980   0.532   2.426
 5770TIP3   OH217273   0.506   3.641   2.998
 5770TIP3    H117274   0.593   3.682   2.998
 5770TIP3    H217275   0.476   3.651   3.088
 5771TIP3   OH217276   0.151   5.688   5.260
 5771TIP3    H117277   0.063   5.670   5.229
 5771TIP3    H217278   0.143   5.769   5.311
 5772TIP3   OH217279   1.648   3.896   5.030
 5772TIP3    H117280   1.603   3.914   5.112
 5772TIP3    H217281   1.615   3.810   5.002
 5773TIP3   OH217282   4.279   6.010   5.168
 5773TIP3    H117283   4.329   5.949   5.114
 5773TIP3    H217284   4.264   5.962   5.250
 5774TIP3   OH217285   3.828   4.906   3.023
 5774TIP3    H117286   3.746   4.870   2.988
 5774TIP3    H217287   3.799   4.964   3.094
 5775TIP3   OH217288   5.300   6.455   2.558
 5775TIP3    H117289   5.333   6.378   2.603
 5775TIP3    H217290   5.375   6.491   2.512
 5776TIP3   OH217291   0.274   3.251   3.125
 5776TIP3    H117292   0.234   3.328   3.167
 5776TIP3    H217293   0.314   3.203   3.198
 5777TIP3   OH217294   3.609   3.115   5.324
 5777TIP3    H117295   3.699   3.082   5.320
 5777TIP3    H217296   3.618   3.209   5.312
 5778TIP3   OH217297   3.005   4.465   4.321
 5778TIP3    H117298   3.030   4.549   4.360
 5778TIP3    H217299   3.052   4.399   4.373
 5779TIP3   OH217300   5.841   2.497   3.696
 5779TIP3    H117301   5.753   2.463   3.682
 5779TIP3    H217302   5.843   2.580   3.648
 5780TIP3   OH217303   6.990   2.581   4.674
 5780TIP3    H117304   6.998   2.508   4.735
 5780TIP3    H217305   6.933   2.549   4.605
 5781TIP3   OH217306   2.317   0.092   2.392
 5781TIP3    H117307   2.343   0.136   2.472
 5781TIP3    H217308   2.258   0.153   2.348
 5782TIP3   OH217309   0.342   1.727   3.894
 5782TIP3    H117310   0.324   1.680   3.975
 5782TIP3    H217311   0.361   1.658   3.830
 5783TIP3   OH217312   2.365   0.229   1.982
 5783TIP3    H117313   2.330   0.300   2.036
 5783TIP3    H217314   2.446   0.203   2.026
 5784TIP3   OH217315   3.727   3.523  -0.004
 5784TIP3    H117316   3.780   3.507  -0.082
 5784TIP3    H217317   3.781   3.493   0.069
 5785TIP3   OH217318   0.996   1.706   3.308
 5785TIP3    H117319   1.084   1.742   3.318
 5785TIP3    H217320   0.999   1.622   3.355
 5786TIP3   OH217321   1.421   3.932   2.545
 5786TIP3    H117322   1.471   3.922   2.463
 5786TIP3    H217323   1.335   3.896   2.525
 5787TIP3   OH217324   3.534   0.218   5.355
 5787TIP3    H117325   3.459   0.217   5.296
 5787TIP3    H217326   3.512   0.157   5.425
 5788TIP3   OH217327   2.384   5.172   5.483
 5788TIP3    H117328   2.402   5.081   5.459
 5788TIP3    H217329   2.289   5.180   5.479
 5789TIP3   OH217330   4.279   1.872   2.345
 5789TIP3    H117331   4.346   1.815   2.382
 5789TIP3    H217332   4.242   1.822   2.272
 5790TIP3   OH217333   1.643   2.937   1.226
 5790TIP3    H117334   1.596   2.855   1.241
 5790TIP3    H217335   1.721   2.911   1.177
 5791TIP3   OH217336   4.799   2.293   3.722
 5791TIP3    H117337   4.729   2.309   3.659
 5791TIP3    H217338   4.860   2.366   3.710
 5792TIP3   OH217339   5.873   4.426   3.026
 5792TIP3    H117340   5.921   4.409   3.107
 5792TIP3    H217341   5.816   4.500   3.047
 5793TIP3   OH217342   7.077   3.363   4.624
 5793TIP3    H117343   7.101   3.404   4.707
 5793TIP3    H217344   7.020   3.290   4.649
 5794TIP3   OH217345   3.200   6.789   4.957
 5794TIP3    H117346   3.126   6.764   5.012
 5794TIP3    H217347   3.162   6.845   4.889
 5795TIP3   OH217348   3.801   3.131   0.554
 5795TIP3    H117349   3.796   3.174   0.639
 5795TIP3    H217350   3.753   3.189   0.495
 5796TIP3   OH217351   3.378   2.314   0.016
 5796TIP3    H117352   3.447   2.265  -0.029
 5796TIP3    H217353   3.415   2.401   0.029
 5797TIP3   OH217354   0.347   4.320   3.584
 5797TIP3    H117355   0.407   4.288   3.651
 5797TIP3    H217356   0.356   4.415   3.586
 5798TIP3   OH217357   6.042   4.143   4.704
 5798TIP3    H117358   5.981   4.188   4.646
 5798TIP3    H217359   6.043   4.052   4.673
 5799TIP3   OH217360   0.753   0.358   0.289
 5799TIP3    H117361   0.820   0.290   0.284
 5799TIP3    H217362   0.692   0.327   0.356
 5800TIP3   OH217363   2.011   2.977   1.290
 5800TIP3    H117364   1.948   3.047   1.308
 5800TIP3    H217365   2.095   3.015   1.315
 5801TIP3   OH217366   1.950   3.948   5.385
 5801TIP3    H117367   1.913   3.905   5.463
 5801TIP3    H217368   1.884   3.935   5.317
 5802TIP3   OH217369   0.783   4.274   3.061
 5802TIP3    H117370   0.782   4.344   2.995
 5802TIP3    H217371   0.876   4.253   3.072
 5803TIP3   OH217372   2.803   3.973   4.731
 5803TIP3    H117373   2.884   3.943   4.690
 5803TIP3    H217374   2.736   3.958   4.665
 5804TIP3   OH217375   0.253   3.778   2.251
 5804TIP3    H117376   0.230   3.748   2.339
 5804TIP3    H217377   0.308   3.856   2.266
 5805TIP3   OH217378   1.519   6.639   0.939
 5805TIP3    H117379   1.494   6.549   0.919
 5805TIP3    H217380   1.603   6.630   0.985
 5806TIP3   OH217381   4.945   5.365   3.353
 5806TIP3    H117382   4.984   5.420   3.421
 5806TIP3    H217383   5.020   5.328   3.306
 5807TIP3   OH217384   1.261   2.650   2.458
 5807TIP3    H117385   1.326   2.667   2.390
 5807TIP3    H217386   1.312   2.643   2.539
 5808TIP3   OH217387   2.678   4.816   0.143
 5808TIP3    H117388   2.731   4.750   0.098
 5808TIP3    H217389   2.591   4.776   0.150
 5809TIP3   OH217390   5.116   5.476   0.666
 5809TIP3    H117391   5.155   5.389   0.663
 5809TIP3    H217392   5.025   5.462   0.637
 5810TIP3   OH217393   1.440   0.004   3.860
 5810TIP3    H117394   1.347   0.005   3.883
 5810TIP3    H217395   1.451   0.081   3.804
 5811TIP3   OH217396   1.985   4.411   1.165
 5811TIP3    H117397   1.925   4.368   1.104
 5811TIP3    H217398   2.070   4.372   1.146
 5812TIP3   OH217399   6.974   0.354   0.287
 5812TIP3    H117400   6.892   0.310   0.308
 5812TIP3    H217401   6.986   0.340   0.193
 5813TIP3   OH217402   4.380   6.123   3.014
 5813TIP3    H117403   4.461   6.144   3.061
 5813TIP3    H217404   4.382   6.028   3.005
 5814TIP3   OH217405   2.972   4.552   0.865
 5814TIP3    H117406   2.881   4.525   0.871
 5814TIP3    H217407   2.980   4.589   0.777
 5815TIP3   OH217408   0.243   2.494   3.865
 5815TIP3    H117409   0.162   2.499   3.815
 5815TIP3    H217410   0.215   2.500   3.956
 5816TIP3   OH217411   5.731   1.347   1.717
 5816TIP3    H117412   5.783   1.311   1.789
 5816TIP3    H217413   5.736   1.279   1.649
 5817TIP3   OH217414   2.052   1.123   5.745
 5817TIP3    H117415   2.050   1.159   5.656
 5817TIP3    H217416   2.145   1.105   5.761
 5818TIP3   OH217417   2.659   4.415   3.369
 5818TIP3    H117418   2.605   4.399   3.446
 5818TIP3    H217419   2.616   4.365   3.299
 5819TIP3   OH217420   2.611   0.271   3.590
 5819TIP3    H117421   2.671   0.205   3.625
 5819TIP3    H217422   2.603   0.249   3.497
 5820TIP3   OH217423   5.452   0.287   0.333
 5820TIP3    H117424   5.443   0.373   0.291
 5820TIP3    H217425   5.362   0.261   0.353
 5821TIP3   OH217426   0.261   3.243   3.807
 5821TIP3    H117427   0.197   3.204   3.747
 5821TIP3    H217428   0.242   3.337   3.802
 5822TIP3   OH217429   1.704   0.589   4.909
 5822TIP3    H117430   1.708   0.550   4.821
 5822TIP3    H217431   1.771   0.542   4.959
 5823TIP3   OH217432   0.067   2.761   5.603
 5823TIP3    H117433   0.068   2.808   5.686
 5823TIP3    H217434   0.092   2.826   5.537
 5824TIP3   OH217435   2.491   6.614   0.799
 5824TIP3    H117436   2.522   6.557   0.869
 5824TIP3    H217437   2.465   6.554   0.729
 5825TIP3   OH217438   0.780   0.444   2.213
 5825TIP3    H117439   0.840   0.518   2.210
 5825TIP3    H217440   0.811   0.385   2.144
 5826TIP3   OH217441   6.597   1.359   1.072
 5826TIP3    H117442   6.652   1.423   1.116
 5826TIP3    H217443   6.564   1.303   1.142
 5827TIP3   OH217444   5.838   0.180   3.347
 5827TIP3    H117445   5.882   0.252   3.301
 5827TIP3    H217446   5.806   0.220   3.428
 5828TIP3   OH217447   1.300   3.751   0.232
 5828TIP3    H117448   1.373   3.790   0.281
 5828TIP3    H217449   1.273   3.820   0.171
 5829TIP3   OH217450   5.163   1.818   5.355
 5829TIP3    H117451   5.168   1.843   5.263
 5829TIP3    H217452   5.133   1.727   5.354
 5830TIP3   OH217453   4.712   5.193   1.382
 5830TIP3    H117454   4.698   5.268   1.323
 5830TIP3    H217455   4.796   5.157   1.355
 5831TIP3   OH217456   4.446   2.029   4.727
 5831TIP3    H117457   4.367   1.983   4.754
 5831TIP3    H217458   4.416   2.118   4.707
 5832TIP3   OH217459   0.596   0.049   0.485
 5832TIP3    H117460   0.562   0.127   0.529
 5832TIP3    H217461   0.585   0.066   0.392
 5833TIP3   OH217462   4.429   3.616   1.229
 5833TIP3    H117463   4.512   3.575   1.203
 5833TIP3    H217464   4.374   3.611   1.150
 5834TIP3   OH217465   6.955   4.988   2.919
 5834TIP3    H117466   6.895   4.914   2.922
 5834TIP3    H217467   6.941   5.027   2.833
 5835TIP3   OH217468   5.437   1.430   4.523
 5835TIP3    H117469   5.367   1.453   4.462
 5835TIP3    H217470   5.473   1.348   4.489
 5836TIP3   OH217471   3.066   0.997   4.446
 5836TIP3    H117472   3.043   0.905   4.449
 5836TIP3    H217473   3.140   1.002   4.385
 5837TIP3   OH217474   5.283   5.679   0.640
 5837TIP3    H117475   5.372   5.643   0.632
 5837TIP3    H217476   5.226   5.605   0.621
 5838TIP3   OH217477   6.926   6.027   1.149
 5838TIP3    H117478   6.942   6.021   1.055
 5838TIP3    H217479   6.991   5.969   1.188
 5839TIP3   OH217480   2.712   5.622   4.687
 5839TIP3    H117481   2.656   5.688   4.646
 5839TIP3    H217482   2.767   5.670   4.748
 5840TIP3   OH217483   6.786   5.879   0.128
 5840TIP3    H117484   6.815   5.967   0.152
 5840TIP3    H217485   6.695   5.875   0.159
 5841TIP3   OH217486   3.812   0.530   3.550
 5841TIP3    H117487   3.738   0.470   3.562
 5841TIP3    H217488   3.801   0.566   3.463
 5842TIP3   OH217489   3.053   0.926   5.654
 5842TIP3    H117490   3.148   0.915   5.656
 5842TIP3    H217491   3.038   0.993   5.587
 5843TIP3   OH217492   3.150   3.172   1.014
 5843TIP3    H117493   3.063   3.181   1.051
 5843TIP3    H217494   3.147   3.089   0.965
 5844TIP3   OH217495   6.399   1.638   1.357
 5844TIP3    H117496   6.385   1.716   1.304
 5844TIP3    H217497   6.389   1.668   1.447
 5845TIP3   OH217498   4.944   2.596   3.800
 5845TIP3    H117499   4.877   2.659   3.774
 5845TIP3    H217500   4.961   2.616   3.892
 5846TIP3   OH217501   0.545   1.415   3.165
 5846TIP3    H117502   0.507   1.329   3.151
 5846TIP3    H217503   0.640   1.401   3.158
 5847TIP3   OH217504   0.995   2.737   4.658
 5847TIP3    H117505   0.904   2.749   4.630
 5847TIP3    H217506   1.000   2.785   4.741
 5848TIP3   OH217507   1.959   3.460   3.637
 5848TIP3    H117508   1.992   3.372   3.658
 5848TIP3    H217509   1.977   3.510   3.717
 5849TIP3   OH217510   4.383   0.815   1.286
 5849TIP3    H117511   4.383   0.772   1.200
 5849TIP3    H217512   4.392   0.743   1.349
 5850TIP3   OH217513   3.779   4.348   5.778
 5850TIP3    H117514   3.861   4.390   5.803
 5850TIP3    H217515   3.743   4.403   5.708
 5851TIP3   OH217516   5.302   3.804   0.836
 5851TIP3    H117517   5.259   3.821   0.752
 5851TIP3    H217518   5.281   3.712   0.855
 5852TIP3   OH217519   2.169   0.835   2.645
 5852TIP3    H117520   2.153   0.877   2.730
 5852TIP3    H217521   2.109   0.878   2.585
 5853TIP3   OH217522   1.558   3.487   1.174
 5853TIP3    H117523   1.475   3.440   1.187
 5853TIP3    H217524   1.609   3.468   1.252
 5854TIP3   OH217525   0.128   5.790   4.822
 5854TIP3    H117526   0.129   5.825   4.733
 5854TIP3    H217527   0.220   5.788   4.849
 5855TIP3   OH217528   3.305   3.486   5.539
 5855TIP3    H117529   3.342   3.462   5.454
 5855TIP3    H217530   3.321   3.579   5.547
 5856TIP3   OH217531   1.344   1.728   1.358
 5856TIP3    H117532   1.358   1.790   1.429
 5856TIP3    H217533   1.422   1.672   1.360
 5857TIP3   OH217534   6.103   2.311   3.590
 5857TIP3    H117535   6.026   2.297   3.535
 5857TIP3    H217536   6.067   2.323   3.678
 5858TIP3   OH217537   6.977   2.059   5.633
 5858TIP3    H117538   6.882   2.057   5.644
 5858TIP3    H217539   7.011   2.086   5.719
 5859TIP3   OH217540   7.254   1.822   0.143
 5859TIP3    H117541   7.229   1.842   0.054
 5859TIP3    H217542   7.229   1.899   0.194
 5860TIP3   OH217543   0.171   2.715   1.143
 5860TIP3    H117544   0.180   2.777   1.071
 5860TIP3    H217545   0.213   2.757   1.217
 5861TIP3   OH217546   6.360   6.472   3.616
 5861TIP3    H117547   6.404   6.528   3.553
 5861TIP3    H217548   6.422   6.400   3.632
 5862TIP3   OH217549   3.379   2.006   1.658
 5862TIP3    H117550   3.321   1.938   1.625
 5862TIP3    H217551   3.450   1.958   1.701
 5863TIP3   OH217552   3.361   4.345   5.066
 5863TIP3    H117553   3.419   4.350   5.142
 5863TIP3    H217554   3.294   4.411   5.082
 5864TIP3   OH217555   6.551   6.116   1.369
 5864TIP3    H117556   6.558   6.036   1.421
 5864TIP3    H217557   6.571   6.089   1.279
 5865TIP3   OH217558   3.418   2.563   2.356
 5865TIP3    H117559   3.484   2.559   2.287
 5865TIP3    H217560   3.336   2.538   2.314
 5866TIP3   OH217561   0.168   2.965   5.461
 5866TIP3    H117562   0.151   2.960   5.367
 5866TIP3    H217563   0.263   2.972   5.468
 5867TIP3   OH217564   6.702   1.651   3.006
 5867TIP3    H117565   6.685   1.683   3.094
 5867TIP3    H217566   6.690   1.556   3.012
 5868TIP3   OH217567   6.221   4.225   4.890
 5868TIP3    H117568   6.169   4.187   4.819
 5868TIP3    H217569   6.273   4.293   4.847
 5869TIP3   OH217570   5.890   5.493   3.685
 5869TIP3    H117571   5.866   5.459   3.599
 5869TIP3    H217572   5.874   5.587   3.679
 5870TIP3   OH217573   5.002   1.696   1.830
 5870TIP3    H117574   4.923   1.654   1.797
 5870TIP3    H217575   5.073   1.638   1.801
 5871TIP3   OH217576   5.645   0.512   2.468
 5871TIP3    H117577   5.556   0.535   2.442
 5871TIP3    H217578   5.639   0.494   2.562
 5872TIP3   OH217579   3.212   5.519   0.462
 5872TIP3    H117580   3.285   5.458   0.474
 5872TIP3    H217581   3.204   5.529   0.367
 5873TIP3   OH217582   0.880   3.199   0.733
 5873TIP3    H117583   0.924   3.145   0.668
 5873TIP3    H217584   0.791   3.163   0.738
 5874TIP3   OH217585   0.531   2.807   5.137
 5874TIP3    H117586   0.485   2.891   5.140
 5874TIP3    H217587   0.511   2.766   5.222
 5875TIP3   OH217588   5.787   2.169   1.809
 5875TIP3    H117589   5.836   2.178   1.727
 5875TIP3    H217590   5.752   2.257   1.826
 5876TIP3   OH217591   5.703   2.043   1.346
 5876TIP3    H117592   5.758   2.035   1.268
 5876TIP3    H217593   5.640   1.972   1.339
 5877TIP3   OH217594   3.734   1.465   2.334
 5877TIP3    H117595   3.754   1.376   2.364
 5877TIP3    H217596   3.666   1.496   2.395
 5878TIP3   OH217597   5.316   5.986   0.948
 5878TIP3    H117598   5.323   5.995   0.853
 5878TIP3    H217599   5.237   6.035   0.971
 5879TIP3   OH217600   4.979   2.339   4.374
 5879TIP3    H117601   4.962   2.432   4.393
 5879TIP3    H217602   5.021   2.340   4.288
 5880TIP3   OH217603   3.398   0.968   0.274
 5880TIP3    H117604   3.323   1.027   0.274
 5880TIP3    H217605   3.474   1.025   0.286
 5881TIP3   OH217606   7.095   2.074   4.692
 5881TIP3    H117607   7.144   1.993   4.705
 5881TIP3    H217608   7.022   2.068   4.754
 5882TIP3   OH217609   6.458   0.211   0.844
 5882TIP3    H117610   6.412   0.128   0.837
 5882TIP3    H217611   6.548   0.187   0.867
 5883TIP3   OH217612   3.159   3.230   5.585
 5883TIP3    H117613   3.245   3.271   5.596
 5883TIP3    H217614   3.135   3.246   5.494
 5884TIP3   OH217615   3.737   0.224   5.102
 5884TIP3    H117616   3.745   0.160   5.173
 5884TIP3    H217617   3.717   0.173   5.024
 5885TIP3   OH217618   4.386   5.638   4.325
 5885TIP3    H117619   4.312   5.690   4.355
 5885TIP3    H217620   4.385   5.645   4.230
 5886TIP3   OH217621   6.836   0.127   1.183
 5886TIP3    H117622   6.915   0.128   1.237
 5886TIP3    H217623   6.782   0.057   1.220
 5887TIP3   OH217624   2.675   1.349   4.913
 5887TIP3    H117625   2.661   1.397   4.995
 5887TIP3    H217626   2.635   1.404   4.846
 5888TIP3   OH217627   2.255   2.920   0.517
 5888TIP3    H117628   2.171   2.935   0.561
 5888TIP3    H217629   2.289   2.840   0.557
 5889TIP3   OH217630  -0.019   4.420   0.071
 5889TIP3    H117631  -0.031   4.334   0.030
 5889TIP3    H217632  -0.003   4.401   0.163
 5890TIP3   OH217633   1.766   1.186   3.896
 5890TIP3    H117634   1.711   1.130   3.952
 5890TIP3    H217635   1.851   1.141   3.894
 5891TIP3   OH217636   0.342   5.553   2.354
 5891TIP3    H117637   0.301   5.607   2.422
 5891TIP3    H217638   0.430   5.589   2.344
 5892TIP3   OH217639   6.007   0.386   3.811
 5892TIP3    H117640   5.913   0.391   3.797
 5892TIP3    H217641   6.044   0.454   3.755
 5893TIP3   OH217642   2.534   3.853   5.469
 5893TIP3    H117643   2.458   3.900   5.436
 5893TIP3    H217644   2.539   3.876   5.562
 5894TIP3   OH217645   0.461   3.711   3.277
 5894TIP3    H117646   0.440   3.803   3.259
 5894TIP3    H217647   0.552   3.713   3.306
 5895TIP3   OH217648   0.937   4.575   1.909
 5895TIP3    H117649   0.941   4.667   1.937
 5895TIP3    H217650   0.999   4.569   1.837
 5896TIP3   OH217651   4.092   3.984   1.041
 5896TIP3    H117652   4.102   3.899   1.083
 5896TIP3    H217653   4.178   4.003   1.005
 5897TIP3   OH217654   6.963   4.356   4.198
 5897TIP3    H117655   7.007   4.270   4.197
 5897TIP3    H217656   7.035   4.419   4.189
 5898TIP3   OH217657   0.714   6.219   3.597
 5898TIP3    H117658   0.716   6.181   3.509
 5898TIP3    H217659   0.626   6.197   3.630
 5899TIP3   OH217660   2.862   4.778   0.470
 5899TIP3    H117661   2.849   4.841   0.399
 5899TIP3    H217662   2.800   4.805   0.537
 5900TIP3   OH217663   1.807   2.589   3.603
 5900TIP3    H117664   1.741   2.644   3.559
 5900TIP3    H217665   1.868   2.652   3.642
 5901TIP3   OH217666   6.513   5.002   2.895
 5901TIP3    H117667   6.486   4.996   2.803
 5901TIP3    H217668   6.464   5.077   2.929
 5902TIP3   OH217669   5.739   2.232   0.987
 5902TIP3    H117670   5.697   2.209   1.070
 5902TIP3    H217671   5.729   2.154   0.932
 5903TIP3   OH217672   1.768   5.541   4.425
 5903TIP3    H117673   1.798   5.609   4.365
 5903TIP3    H217674   1.813   5.560   4.508
 5904TIP3   OH217675   4.556   5.855   4.364
 5904TIP3    H117676   4.558   5.766   4.328
 5904TIP3    H217677   4.642   5.867   4.402
 5905TIP3   OH217678   3.785   1.467   4.417
 5905TIP3    H117679   3.779   1.558   4.445
 5905TIP3    H217680   3.742   1.465   4.332
 5906TIP3   OH217681   3.923   0.999   2.282
 5906TIP3    H117682   3.969   1.080   2.306
 5906TIP3    H217683   3.915   1.003   2.187
 5907TIP3   OH217684   4.876   6.746   0.513
 5907TIP3    H117685   4.780   6.746   0.510
 5907TIP3    H217686   4.899   6.659   0.543
 5908TIP3   OH217687   4.778   5.369   2.819
 5908TIP3    H117688   4.693   5.387   2.859
 5908TIP3    H217689   4.757   5.328   2.735
 5909TIP3   OH217690   6.012   0.717   0.434
 5909TIP3    H117691   6.049   0.729   0.346
 5909TIP3    H217692   5.974   0.629   0.432
 5910TIP3   OH217693   6.879   2.976   2.381
 5910TIP3    H117694   6.921   3.062   2.374
 5910TIP3    H217695   6.813   2.975   2.313
 5911TIP3   OH217696   1.141   4.280   0.431
 5911TIP3    H117697   1.107   4.354   0.381
 5911TIP3    H217698   1.101   4.289   0.518
 5912TIP3   OH217699   0.745   1.293   0.604
 5912TIP3    H117700   0.673   1.239   0.571
 5912TIP3    H217701   0.764   1.256   0.690
 5913TIP3   OH217702   1.310   3.691   3.731
 5913TIP3    H117703   1.377   3.656   3.673
 5913TIP3    H217704   1.243   3.622   3.736
 5914TIP3   OH217705   4.698   5.132   4.385
 5914TIP3    H117706   4.725   5.208   4.333
 5914TIP3    H217707   4.684   5.167   4.473
 5915TIP3   OH217708   0.620   3.666   5.518
 5915TIP3    H117709   0.539   3.694   5.476
 5915TIP3    H217710   0.613   3.698   5.608
 5916TIP3   OH217711   2.037   5.398   5.617
 5916TIP3    H117712   2.066   5.335   5.551
 5916TIP3    H217713   2.059   5.357   5.700
 5917TIP3   OH217714   5.916   1.937   0.869
 5917TIP3    H117715   5.953   1.905   0.786
 5917TIP3    H217716   5.833   1.979   0.843
 5918TIP3   OH217717   4.317   5.520   0.054
 5918TIP3    H117718   4.367   5.486  -0.021
 5918TIP3    H217719   4.376   5.585   0.093
 5919TIP3   OH217720   5.107   5.612   1.573
 5919TIP3    H117721   5.067   5.685   1.525
 5919TIP3    H217722   5.056   5.607   1.654
 5920TIP3   OH217723   6.876   4.404   0.873
 5920TIP3    H117724   6.808   4.457   0.915
 5920TIP3    H217725   6.899   4.452   0.794
 5921TIP3   OH217726   4.142   4.779   3.525
 5921TIP3    H117727   4.231   4.750   3.504
 5921TIP3    H217728   4.086   4.709   3.491
 5922TIP3   OH217729   5.392   2.409   0.393
 5922TIP3    H117730   5.426   2.451   0.314
 5922TIP3    H217731   5.415   2.317   0.384
 5923TIP3   OH217732   3.495   3.556   3.247
 5923TIP3    H117733   3.454   3.551   3.161
 5923TIP3    H217734   3.584   3.524   3.234
 5924TIP3   OH217735   4.294   0.349   3.946
 5924TIP3    H117736   4.281   0.281   3.880
 5924TIP3    H217737   4.389   0.355   3.955
 5925TIP3   OH217738   5.473   4.250   1.447
 5925TIP3    H117739   5.406   4.217   1.387
 5925TIP3    H217740   5.452   4.343   1.457
 5926TIP3   OH217741   2.544   2.063   5.097
 5926TIP3    H117742   2.615   2.121   5.127
 5926TIP3    H217743   2.507   2.108   5.021
 5927TIP3   OH217744   1.686   2.965   4.913
 5927TIP3    H117745   1.757   2.994   4.855
 5927TIP3    H217746   1.725   2.894   4.964
 5928TIP3   OH217747   3.156   3.524   0.238
 5928TIP3    H117748   3.064   3.499   0.228
 5928TIP3    H217749   3.188   3.469   0.309
 5929TIP3   OH217750   0.901   1.573   0.549
 5929TIP3    H117751   0.906   1.549   0.641
 5929TIP3    H217752   0.819   1.536   0.518
 5930TIP3   OH217753   2.600   3.725   2.836
 5930TIP3    H117754   2.644   3.649   2.874
 5930TIP3    H217755   2.516   3.691   2.806
 5931TIP3   OH217756   0.332   2.122   0.424
 5931TIP3    H117757   0.332   2.063   0.349
 5931TIP3    H217758   0.395   2.083   0.485
 5932TIP3   OH217759   5.880   4.693   4.789
 5932TIP3    H117760   5.970   4.685   4.818
 5932TIP3    H217761   5.843   4.606   4.800
 5933TIP3   OH217762   1.959   1.872   5.509
 5933TIP3    H117763   1.879   1.908   5.470
 5933TIP3    H217764   2.028   1.891   5.446
 5934TIP3   OH217765   0.885   2.128   1.933
 5934TIP3    H117766   0.834   2.203   1.900
 5934TIP3    H217767   0.829   2.052   1.917
 5935TIP3   OH217768   0.946   3.938   4.600
 5935TIP3    H117769   0.994   4.014   4.633
 5935TIP3    H217770   0.997   3.863   4.630
 5936TIP3   OH217771   2.037   1.174   1.900
 5936TIP3    H117772   2.047   1.214   1.986
 5936TIP3    H217773   2.034   1.080   1.918
 5937TIP3   OH217774   0.880   1.266   5.266
 5937TIP3    H117775   0.897   1.180   5.226
 5937TIP3    H217776   0.813   1.306   5.211
 5938TIP3   OH217777   0.057   1.264   1.263
 5938TIP3    H117778   0.039   1.293   1.352
 5938TIP3    H217779  -0.023   1.282   1.215
 5939TIP3   OH217780   0.801   6.731   0.868
 5939TIP3    H117781   0.708   6.718   0.849
 5939TIP3    H217782   0.814   6.691   0.954
 5940TIP3   OH217783   3.970   3.687   2.722
 5940TIP3    H117784   3.900   3.705   2.659
 5940TIP3    H217785   4.014   3.610   2.688
 5941TIP3   OH217786   4.198   0.114   3.777
 5941TIP3    H117787   4.138   0.067   3.719
 5941TIP3    H217788   4.160   0.103   3.864
 5942TIP3   OH217789   1.650   4.090   5.587
 5942TIP3    H117790   1.614   4.052   5.667
 5942TIP3    H217791   1.700   4.166   5.618
 5943TIP3   OH217792   0.283   5.107   4.364
 5943TIP3    H117793   0.205   5.085   4.416
 5943TIP3    H217794   0.357   5.086   4.422
 5944TIP3   OH217795   7.081   3.751   5.107
 5944TIP3    H117796   7.129   3.810   5.165
 5944TIP3    H217797   7.051   3.807   5.036
 5945TIP3   OH217798   5.859   6.416   3.689
 5945TIP3    H117799   5.831   6.495   3.643
 5945TIP3    H217800   5.811   6.345   3.647
 5946TIP3   OH217801   1.241   5.133   5.148
 5946TIP3    H117802   1.205   5.210   5.193
 5946TIP3    H217803   1.333   5.130   5.176
 5947TIP3   OH217804   1.747   1.458   1.559
 5947TIP3    H117805   1.818   1.409   1.518
 5947TIP3    H217806   1.696   1.392   1.606
 5948TIP3   OH217807   6.172   2.356   1.985
 5948TIP3    H117808   6.160   2.263   2.004
 5948TIP3    H217809   6.210   2.392   2.065
 5949TIP3   OH217810   0.166   2.711   1.684
 5949TIP3    H117811   0.078   2.740   1.709
 5949TIP3    H217812   0.181   2.748   1.598
 5950TIP3   OH217813   4.815   5.751   1.739
 5950TIP3    H117814   4.746   5.751   1.805
 5950TIP3    H217815   4.897   5.749   1.789
 5951TIP3   OH217816   0.453   5.392   0.644
 5951TIP3    H117817   0.445   5.389   0.739
 5951TIP3    H217818   0.527   5.450   0.627
 5952TIP3   OH217819   1.248   6.574   1.918
 5952TIP3    H117820   1.233   6.618   1.834
 5952TIP3    H217821   1.330   6.611   1.950
 5953TIP3   OH217822   4.023   6.692   2.240
 5953TIP3    H117823   3.944   6.741   2.263
 5953TIP3    H217824   4.090   6.759   2.226
 5954TIP3   OH217825   3.278   6.745   2.073
 5954TIP3    H117826   3.216   6.752   2.001
 5954TIP3    H217827   3.234   6.687   2.136
 5955TIP3   OH217828   6.031   3.106   1.018
 5955TIP3    H117829   6.120   3.134   0.995
 5955TIP3    H217830   6.042   3.016   1.048
 5956TIP3   OH217831   1.159   6.663   2.210
 5956TIP3    H117832   1.071   6.669   2.172
 5956TIP3    H217833   1.210   6.728   2.163
 5957TIP3   OH217834   3.048   2.616   5.796
 5957TIP3    H117835   3.083   2.558   5.864
 5957TIP3    H217836   3.032   2.559   5.722
 5958TIP3   OH217837   1.548   4.916   4.117
 5958TIP3    H117838   1.463   4.960   4.113
 5958TIP3    H217839   1.606   4.972   4.066
 5959TIP3   OH217840   1.777   0.170   2.875
 5959TIP3    H117841   1.686   0.168   2.844
 5959TIP3    H217842   1.791   0.261   2.902
 5960TIP3   OH217843   0.018   1.522   4.021
 5960TIP3    H117844   0.026   1.445   3.965
 5960TIP3    H217845   0.107   1.537   4.054
 5961TIP3   OH217846   5.063   3.728   1.931
 5961TIP3    H117847   5.117   3.682   1.868
 5961TIP3    H217848   4.998   3.774   1.879
 5962TIP3   OH217849   6.415   0.723   1.415
 5962TIP3    H117850   6.398   0.644   1.466
 5962TIP3    H217851   6.479   0.696   1.350
 5963TIP3   OH217852   6.150   4.117   2.903
 5963TIP3    H117853   6.216   4.186   2.905
 5963TIP3    H217854   6.182   4.054   2.839
 5964TIP3   OH217855   7.063   4.387   2.092
 5964TIP3    H117856   7.104   4.401   2.178
 5964TIP3    H217857   7.076   4.469   2.045
 5965TIP3   OH217858   6.626   6.237   3.113
 5965TIP3    H117859   6.616   6.332   3.104
 5965TIP3    H217860   6.537   6.202   3.102
 5966TIP3   OH217861   5.276   6.385   4.755
 5966TIP3    H117862   5.234   6.347   4.678
 5966TIP3    H217863   5.204   6.419   4.807
 5967TIP3   OH217864   4.042   6.709   2.869
 5967TIP3    H117865   3.968   6.711   2.808
 5967TIP3    H217866   4.006   6.745   2.950
 5968TIP3   OH217867   3.079   2.970   4.141
 5968TIP3    H117868   3.074   3.062   4.114
 5968TIP3    H217869   3.013   2.926   4.088
 5969TIP3   OH217870   4.213   6.333   1.551
 5969TIP3    H117871   4.172   6.246   1.541
 5969TIP3    H217872   4.205   6.351   1.645
 5970TIP3   OH217873   2.084   6.054   1.395
 5970TIP3    H117874   2.026   6.057   1.471
 5970TIP3    H217875   2.067   5.969   1.355
 5971TIP3   OH217876   4.907   1.020   4.927
 5971TIP3    H117877   4.931   0.942   4.877
 5971TIP3    H217878   4.966   1.019   5.002
 5972TIP3   OH217879   6.332   5.635   1.768
 5972TIP3    H117880   6.347   5.567   1.833
 5972TIP3    H217881   6.408   5.693   1.775
 5973TIP3   OH217882   5.095   6.175   3.190
 5973TIP3    H117883   5.049   6.128   3.260
 5973TIP3    H217884   5.090   6.267   3.215
 5974TIP3   OH217885   2.821   5.470   4.485
 5974TIP3    H117886   2.801   5.547   4.539
 5974TIP3    H217887   2.736   5.429   4.470
 5975TIP3   OH217888   0.319   1.677   5.220
 5975TIP3    H117889   0.304   1.638   5.306
 5975TIP3    H217890   0.313   1.771   5.235
 5976TIP3   OH217891   3.679   0.738   0.441
 5976TIP3    H117892   3.751   0.695   0.486
 5976TIP3    H217893   3.600   0.698   0.478
 5977TIP3   OH217894   6.514   1.178   3.765
 5977TIP3    H117895   6.596   1.161   3.812
 5977TIP3    H217896   6.455   1.109   3.795
 5978TIP3   OH217897   4.101   2.673   0.272
 5978TIP3    H117898   4.088   2.662   0.366
 5978TIP3    H217899   4.171   2.739   0.265
 5979TIP3   OH217900   2.182   2.194   5.581
 5979TIP3    H117901   2.176   2.214   5.487
 5979TIP3    H217902   2.271   2.222   5.605
 5980TIP3   OH217903   6.277   1.075   0.066
 5980TIP3    H117904   6.281   1.164   0.101
 5980TIP3    H217905   6.207   1.078   0.000
 5981TIP3   OH217906   1.521   1.585   2.406
 5981TIP3    H117907   1.596   1.602   2.350
 5981TIP3    H217908   1.522   1.656   2.471
 5982TIP3   OH217909   7.152   3.240   3.332
 5982TIP3    H117910   7.153   3.336   3.328
 5982TIP3    H217911   7.208   3.219   3.406
 5983TIP3   OH217912   6.645   3.476   4.856
 5983TIP3    H117913   6.639   3.385   4.825
 5983TIP3    H217914   6.568   3.519   4.819
 5984TIP3   OH217915   3.660   6.684   4.832
 5984TIP3    H117916   3.730   6.674   4.896
 5984TIP3    H217917   3.591   6.624   4.863
 5985TIP3   OH217918   3.999   3.592   4.455
 5985TIP3    H117919   4.021   3.505   4.424
 5985TIP3    H217920   4.079   3.623   4.498
 5986TIP3   OH217921   1.985   6.343   1.566
 5986TIP3    H117922   1.918   6.391   1.517
 5986TIP3    H217923   1.956   6.251   1.562
 5987TIP3   OH217924   0.039   4.807  -0.075
 5987TIP3    H117925  -0.015   4.770  -0.005
 5987TIP3    H217926  -0.004   4.890  -0.095
 5988TIP3   OH217927   6.980   3.459   5.260
 5988TIP3    H117928   7.067   3.480   5.228
 5988TIP3    H217929   6.921   3.497   5.195
 5989TIP3   OH217930   1.061   0.664   5.852
 5989TIP3    H117931   1.116   0.737   5.822
 5989TIP3    H217932   1.081   0.593   5.792
 5990TIP3   OH217933   7.095   3.578   4.803
 5990TIP3    H117934   7.153   3.638   4.756
 5990TIP3    H217935   7.024   3.634   4.835
 5991TIP3   OH217936   2.618   2.108   1.586
 5991TIP3    H117937   2.631   2.026   1.633
 5991TIP3    H217938   2.525   2.129   1.598
 5992TIP3   OH217939   2.680   2.143   3.944
 5992TIP3    H117940   2.651   2.056   3.972
 5992TIP3    H217941   2.661   2.145   3.850
 5993TIP3   OH217942   6.954   1.589   0.319
 5993TIP3    H117943   6.984   1.574   0.229
 5993TIP3    H217944   6.861   1.567   0.317
 5994TIP3   OH217945   6.282   0.513   2.407
 5994TIP3    H117946   6.314   0.485   2.493
 5994TIP3    H217947   6.219   0.583   2.427
 5995TIP3   OH217948   2.473   4.173   3.756
 5995TIP3    H117949   2.530   4.236   3.713
 5995TIP3    H217950   2.493   4.090   3.713
 5996TIP3   OH217951   5.384   4.816   0.221
 5996TIP3    H117952   5.442   4.762   0.275
 5996TIP3    H217953   5.441   4.883   0.184
 5997TIP3   OH217954   0.089   4.449   2.703
 5997TIP3    H117955   0.072   4.543   2.699
 5997TIP3    H217956   0.012   4.413   2.748
 5998TIP3   OH217957   4.109   5.661   3.915
 5998TIP3    H117958   4.158   5.725   3.863
 5998TIP3    H217959   4.061   5.714   3.978
 5999TIP3   OH217960   1.956   3.697   2.407
 5999TIP3    H117961   1.909   3.780   2.404
 5999TIP3    H217962   1.958   3.673   2.499
 6000TIP3   OH217963   1.818   6.608   4.601
 6000TIP3    H117964   1.841   6.543   4.535
 6000TIP3    H217965   1.804   6.689   4.551
 6001TIP3   OH217966   0.726   4.706   2.922
 6001TIP3    H117967   0.784   4.749   2.984
 6001TIP3    H217968   0.696   4.776   2.864
 6002TIP3   OH217969   4.621   4.473   4.938
 6002TIP3    H117970   4.712   4.493   4.914
 6002TIP3    H217971   4.591   4.413   4.869
 6003TIP3   OH217972   1.886   1.472   0.609
 6003TIP3    H117973   1.946   1.504   0.542
 6003TIP3    H217974   1.815   1.432   0.561
 6004TIP3   OH217975   0.919   0.675   2.182
 6004TIP3    H117976   0.857   0.717   2.123
 6004TIP3    H217977   0.959   0.748   2.230
 6005TIP3   OH217978   1.917   4.618   4.575
 6005TIP3    H117979   1.925   4.606   4.670
 6005TIP3    H217980   1.949   4.707   4.560
 6006TIP3   OH217981   5.275   2.577   4.448
 6006TIP3    H117982   5.263   2.582   4.543
 6006TIP3    H217983   5.318   2.493   4.434
 6007TIP3   OH217984   6.654   1.996   0.975
 6007TIP3    H117985   6.743   2.014   1.005
 6007TIP3    H217986   6.598   2.028   1.045
 6008TIP3   OH217987   1.216   0.050   3.230
 6008TIP3    H117988   1.131   0.018   3.201
 6008TIP3    H217989   1.203   0.144   3.244
 6009TIP3   OH217990   2.802   6.733   4.602
 6009TIP3    H117991   2.749   6.807   4.632
 6009TIP3    H217992   2.778   6.661   4.660
 6010TIP3   OH217993   0.266   0.044   4.026
 6010TIP3    H117994   0.350  -0.002   4.025
 6010TIP3    H217995   0.201  -0.027   4.022
 6011TIP3   OH217996   3.409   0.093   4.541
 6011TIP3    H117997   3.357   0.058   4.613
 6011TIP3    H217998   3.498   0.098   4.575
 6012TIP3   OH217999   5.099   3.988   1.790
 6012TIP3    H118000   5.171   4.002   1.852
 6012TIP3    H218001   5.103   4.064   1.732
 6013TIP3   OH218002   3.971   1.081   0.247
 6013TIP3    H118003   3.918   1.016   0.294
 6013TIP3    H218004   3.970   1.050   0.156
 6014TIP3   OH218005   2.318   4.653   3.366
 6014TIP3    H118006   2.377   4.639   3.439
 6014TIP3    H218007   2.281   4.740   3.381
 6015TIP3   OH218008   0.041   4.573   1.840
 6015TIP3    H118009   0.011   4.643   1.781
 6015TIP3    H218010   0.104   4.616   1.898
 6016TIP3   OH218011   3.553   3.484   4.340
 6016TIP3    H118012   3.606   3.404   4.349
 6016TIP3    H218013   3.598   3.535   4.273
 6017TIP3   OH218014   5.027   4.562   3.390
 6017TIP3    H118015   4.963   4.534   3.325
 6017TIP3    H218016   4.988   4.536   3.474
 6018TIP3   OH218017   5.250   0.149   4.949
 6018TIP3    H118018   5.280   0.190   4.869
 6018TIP3    H218019   5.234   0.058   4.925
 6019TIP3   OH218020   6.127   2.051   2.098
 6019TIP3    H118021   6.158   2.118   2.159
 6019TIP3    H218022   6.192   1.982   2.104
 6020TIP3   OH218023   4.612   2.804   2.875
 6020TIP3    H118024   4.667   2.864   2.824
 6020TIP3    H218025   4.654   2.799   2.961
 6021TIP3   OH218026   4.452   1.372   5.080
 6021TIP3    H118027   4.515   1.443   5.094
 6021TIP3    H218028   4.407   1.396   4.999
 6022TIP3   OH218029   5.059   0.196   5.752
 6022TIP3    H118030   5.082   0.254   5.679
 6022TIP3    H218031   5.140   0.187   5.802
 6023TIP3   OH218032   5.291   4.810   1.485
 6023TIP3    H118033   5.285   4.857   1.568
 6023TIP3    H218034   5.215   4.838   1.435
 6024TIP3   OH218035   3.628   6.103   3.250
 6024TIP3    H118036   3.599   6.014   3.227
 6024TIP3    H218037   3.597   6.157   3.177
 6025TIP3   OH218038   0.768   4.351   4.637
 6025TIP3    H118039   0.678   4.373   4.615
 6025TIP3    H218040   0.770   4.347   4.733
 6026TIP3   OH218041   5.734   6.352   2.944
 6026TIP3    H118042   5.701   6.441   2.948
 6026TIP3    H218043   5.730   6.321   3.035
 6027TIP3   OH218044   0.118   3.276   4.524
 6027TIP3    H118045   0.051   3.340   4.548
 6027TIP3    H218046   0.166   3.317   4.453
 6028TIP3   OH218047   6.025   6.342   4.563
 6028TIP3    H118048   5.989   6.418   4.517
 6028TIP3    H218049   6.076   6.380   4.635
 6029TIP3   OH218050  -0.008   2.137   2.636
 6029TIP3    H118051  -0.062   2.062   2.614
 6029TIP3    H218052  -0.070   2.209   2.648
 6030TIP3   OH218053   7.160   3.224   5.169
 6030TIP3    H118054   7.244   3.200   5.130
 6030TIP3    H218055   7.127   3.294   5.113
 6031TIP3   OH218056   4.605   6.595   0.163
 6031TIP3    H118057   4.521   6.587   0.118
 6031TIP3    H218058   4.582   6.623   0.252
 6032TIP3   OH218059   1.897   0.646   4.093
 6032TIP3    H118060   1.919   0.724   4.145
 6032TIP3    H218061   1.833   0.599   4.146
 6033TIP3   OH218062   0.245   0.060   3.237
 6033TIP3    H118063   0.243   0.150   3.205
 6033TIP3    H218064   0.170   0.054   3.296
 6034TIP3   OH218065   5.892   0.092   2.637
 6034TIP3    H118066   5.910   0.014   2.584
 6034TIP3    H218067   5.799   0.109   2.623
 6035TIP3   OH218068   1.602   4.453   4.092
 6035TIP3    H118069   1.545   4.383   4.059
 6035TIP3    H218070   1.688   4.435   4.052
 6036TIP3   OH218071   4.177   6.107   0.084
 6036TIP3    H118072   4.095   6.065   0.110
 6036TIP3    H218073   4.150   6.177   0.025
 6037TIP3   OH218074   4.513   4.314   3.785
 6037TIP3    H118075   4.491   4.399   3.749
 6037TIP3    H218076   4.435   4.260   3.768
 6038TIP3   OH218077   5.521   4.374   0.594
 6038TIP3    H118078   5.452   4.310   0.614
 6038TIP3    H218079   5.554   4.348   0.508
 6039TIP3   OH218080   6.323   5.848   1.080
 6039TIP3    H118081   6.279   5.933   1.075
 6039TIP3    H218082   6.262   5.791   1.126
 6040TIP3   OH218083   0.041   5.769   3.424
 6040TIP3    H118084  -0.049   5.788   3.398
 6040TIP3    H218085   0.078   5.723   3.348
 6041TIP3   OH218086   4.129   0.200   3.366
 6041TIP3    H118087   4.179   0.269   3.409
 6041TIP3    H218088   4.127   0.129   3.430
 6042TIP3   OH218089   4.852   2.885   3.396
 6042TIP3    H118090   4.890   2.919   3.316
 6042TIP3    H218091   4.913   2.912   3.465
 6043TIP3   OH218092   2.390   5.376   0.446
 6043TIP3    H118093   2.358   5.347   0.531
 6043TIP3    H218094   2.431   5.461   0.463
 6044TIP3   OH218095   6.395   4.845   3.767
 6044TIP3    H118096   6.417   4.752   3.771
 6044TIP3    H218097   6.475   4.890   3.794
 6045TIP3   OH218098   3.728   0.618   2.524
 6045TIP3    H118099   3.715   0.623   2.429
 6045TIP3    H218100   3.738   0.524   2.541
 6046TIP3   OH218101   0.507   5.707   1.312
 6046TIP3    H118102   0.483   5.796   1.285
 6046TIP3    H218103   0.577   5.682   1.252
 6047TIP3   OH218104   5.964   3.179   0.109
 6047TIP3    H118105   5.997   3.163   0.198
 6047TIP3    H218106   5.893   3.242   0.120
 6048TIP3   OH218107   2.645   1.201   5.438
 6048TIP3    H118108   2.610   1.286   5.412
 6048TIP3    H218109   2.621   1.142   5.366
 6049TIP3   OH218110   3.763   4.084   1.721
 6049TIP3    H118111   3.691   4.059   1.778
 6049TIP3    H218112   3.720   4.116   1.641
 6050TIP3   OH218113   1.440   2.513   3.650
 6050TIP3    H118114   1.368   2.499   3.712
 6050TIP3    H218115   1.443   2.433   3.598
 6051TIP3   OH218116   6.312   6.426   2.397
 6051TIP3    H118117   6.240   6.432   2.461
 6051TIP3    H218118   6.268   6.409   2.314
 6052TIP3   OH218119   4.398   0.770   5.652
 6052TIP3    H118120   4.367   0.756   5.562
 6052TIP3    H218121   4.404   0.865   5.661
 6053TIP3   OH218122   5.877   4.189   2.888
 6053TIP3    H118123   5.969   4.163   2.897
 6053TIP3    H218124   5.878   4.284   2.900
 6054TIP3   OH218125   3.370   2.990   1.703
 6054TIP3    H118126   3.331   2.903   1.712
 6054TIP3    H218127   3.300   3.045   1.669
 6055TIP3   OH218128   2.536   1.498   0.042
 6055TIP3    H118129   2.565   1.436   0.110
 6055TIP3    H218130   2.459   1.458   0.003
 6056TIP3   OH218131   0.127   2.841   5.907
 6056TIP3    H118132   0.216   2.875   5.902
 6056TIP3    H218133   0.127   2.784   5.983
 6057TIP3   OH218134   5.402   0.291   3.248
 6057TIP3    H118135   5.497   0.284   3.259
 6057TIP3    H218136   5.377   0.366   3.303
 6058TIP3   OH218137   4.230   2.257   1.292
 6058TIP3    H118138   4.227   2.329   1.356
 6058TIP3    H218139   4.294   2.286   1.227
 6059TIP3   OH218140   4.655   3.547   3.879
 6059TIP3    H118141   4.664   3.642   3.872
 6059TIP3    H218142   4.644   3.530   3.972
 6060TIP3   OH218143   5.053   1.516   2.108
 6060TIP3    H118144   5.145   1.496   2.092
 6060TIP3    H218145   5.051   1.611   2.118
 6061TIP3   OH218146   2.791   6.155   3.490
 6061TIP3    H118147   2.719   6.094   3.474
 6061TIP3    H218148   2.821   6.180   3.403
 6062TIP3   OH218149   2.448   1.746   2.315
 6062TIP3    H118150   2.507   1.742   2.240
 6062TIP3    H218151   2.364   1.776   2.279
 6063TIP3   OH218152   2.213   0.133   0.359
 6063TIP3    H118153   2.307   0.139   0.374
 6063TIP3    H218154   2.187   0.221   0.331
 6064TIP3   OH218155   5.003   0.735   4.837
 6064TIP3    H118156   5.092   0.718   4.870
 6064TIP3    H218157   4.947   0.675   4.887
 6065TIP3   OH218158   6.206   4.818   4.212
 6065TIP3    H118159   6.215   4.887   4.145
 6065TIP3    H218160   6.203   4.865   4.295
 6066TIP3   OH218161   0.333   6.611   4.018
 6066TIP3    H118162   0.325   6.522   3.983
 6066TIP3    H218163   0.244   6.633   4.047
 6067TIP3   OH218164   6.454   1.359   4.961
 6067TIP3    H118165   6.434   1.382   4.870
 6067TIP3    H218166   6.546   1.335   4.960
 6068TIP3   OH218167   4.581   4.884   0.526
 6068TIP3    H118168   4.495   4.842   0.529
 6068TIP3    H218169   4.561   4.977   0.513
 6069TIP3   OH218170   4.756   3.519   5.644
 6069TIP3    H118171   4.811   3.441   5.635
 6069TIP3    H218172   4.805   3.576   5.703
 6070TIP3   OH218173   0.125   2.916   2.865
 6070TIP3    H118174   0.044   2.933   2.914
 6070TIP3    H218175   0.195   2.931   2.928
 6071TIP3   OH218176   4.412   6.450   4.411
 6071TIP3    H118177   4.418   6.523   4.472
 6071TIP3    H218178   4.448   6.483   4.329
 6072TIP3   OH218179   3.531   0.367   0.687
 6072TIP3    H118180   3.495   0.318   0.613
 6072TIP3    H218181   3.608   0.316   0.714
 6073TIP3   OH218182   0.669   4.379   3.585
 6073TIP3    H118183   0.663   4.415   3.674
 6073TIP3    H218184   0.754   4.410   3.553
 6074TIP3   OH218185   3.734   2.421   1.057
 6074TIP3    H118186   3.705   2.495   1.111
 6074TIP3    H218187   3.790   2.369   1.116
 6075TIP3   OH218188   0.641   2.179   0.838
 6075TIP3    H118189   0.732   2.182   0.869
 6075TIP3    H218190   0.624   2.086   0.824
 6076TIP3   OH218191   4.439   0.482   2.245
 6076TIP3    H118192   4.389   0.401   2.259
 6076TIP3    H218193   4.529   0.460   2.269
 6077TIP3   OH218194   3.639   6.582   2.846
 6077TIP3    H118195   3.557   6.561   2.801
 6077TIP3    H218196   3.612   6.633   2.922
 6078TIP3   OH218197   5.900   1.516   2.909
 6078TIP3    H118198   5.965   1.540   2.842
 6078TIP3    H218199   5.831   1.581   2.900
 6079TIP3   OH218200   4.051   4.049   3.083
 6079TIP3    H118201   4.034   4.028   2.991
 6079TIP3    H218202   4.090   3.969   3.118
 6080TIP3   OH218203   3.632   0.495   1.279
 6080TIP3    H118204   3.544   0.468   1.252
 6080TIP3    H218205   3.691   0.454   1.215
 6081TIP3   OH218206   4.837   6.569   3.909
 6081TIP3    H118207   4.781   6.528   3.843
 6081TIP3    H218208   4.798   6.656   3.922
 6082TIP3   OH218209   2.037   2.026   3.784
 6082TIP3    H118210   2.038   1.960   3.854
 6082TIP3    H218211   2.023   1.976   3.704
 6083TIP3   OH218212   2.250   6.385   1.044
 6083TIP3    H118213   2.167   6.378   1.093
 6083TIP3    H218214   2.223   6.402   0.954
 6084TIP3   OH218215   3.841   5.775   3.681
 6084TIP3    H118216   3.769   5.744   3.737
 6084TIP3    H218217   3.828   5.870   3.677
 6085TIP3   OH218218   0.197   2.304   5.312
 6085TIP3    H118219   0.167   2.371   5.373
 6085TIP3    H218220   0.290   2.324   5.298
 6086TIP3   OH218221   0.918   4.338   3.461
 6086TIP3    H118222   0.958   4.391   3.392
 6086TIP3    H218223   0.942   4.248   3.439
 6087TIP3   OH218224   0.590   5.152   0.196
 6087TIP3    H118225   0.520   5.210   0.227
 6087TIP3    H218226   0.544   5.081   0.151
 6088TIP3   OH218227   2.886   4.372   3.532
 6088TIP3    H118228   2.814   4.416   3.487
 6088TIP3    H218229   2.879   4.281   3.505
 6089TIP3   OH218230   2.599   4.382   2.103
 6089TIP3    H118231   2.648   4.450   2.149
 6089TIP3    H218232   2.560   4.427   2.028
 6090TIP3   OH218233   0.911   2.653   0.635
 6090TIP3    H118234   0.838   2.605   0.596
 6090TIP3    H218235   0.943   2.710   0.565
 6091TIP3   OH218236   1.971   1.930   4.506
 6091TIP3    H118237   1.882   1.967   4.509
 6091TIP3    H218238   1.959   1.843   4.468
 6092TIP3   OH218239   3.188   5.765   3.867
 6092TIP3    H118240   3.135   5.807   3.799
 6092TIP3    H218241   3.152   5.799   3.949
 6093TIP3   OH218242   6.903   3.183   3.203
 6093TIP3    H118243   6.986   3.193   3.250
 6093TIP3    H218244   6.856   3.116   3.251
 6094TIP3   OH218245   6.316   3.279   1.289
 6094TIP3    H118246   6.320   3.195   1.242
 6094TIP3    H218247   6.391   3.276   1.348
 6095TIP3   OH218248   5.158   0.796   3.302
 6095TIP3    H118249   5.111   0.786   3.219
 6095TIP3    H218250   5.130   0.720   3.354
 6096TIP3   OH218251   6.111   2.875   1.159
 6096TIP3    H118252   6.071   2.818   1.094
 6096TIP3    H218253   6.128   2.818   1.235
 6097TIP3   OH218254   6.622   5.832   4.365
 6097TIP3    H118255   6.568   5.762   4.404
 6097TIP3    H218256   6.559   5.894   4.329
 6098TIP3   OH218257   7.039   4.114   3.747
 6098TIP3    H118258   7.070   4.075   3.829
 6098TIP3    H218259   6.978   4.050   3.711
 6099TIP3   OH218260   4.467   4.558   3.658
 6099TIP3    H118261   4.393   4.511   3.621
 6099TIP3    H218262   4.537   4.548   3.594
 6100TIP3   OH218263   1.083   2.374   0.925
 6100TIP3    H118264   1.027   2.431   0.979
 6100TIP3    H218265   1.140   2.330   0.989
 6101TIP3   OH218266   4.855   4.318   2.254
 6101TIP3    H118267   4.767   4.286   2.237
 6101TIP3    H218268   4.913   4.253   2.214
 6102TIP3   OH218269   5.639   2.019   0.804
 6102TIP3    H118270   5.616   1.930   0.831
 6102TIP3    H218271   5.557   2.068   0.808
 6103TIP3   OH218272   1.756   3.571   5.175
 6103TIP3    H118273   1.792   3.593   5.261
 6103TIP3    H218274   1.801   3.630   5.115
 6104TIP3   OH218275   2.035   3.720   1.155
 6104TIP3    H118276   1.968   3.693   1.092
 6104TIP3    H218277   2.024   3.815   1.163
 6105TIP3   OH218278   0.622   6.616   4.465
 6105TIP3    H118279   0.533   6.629   4.499
 6105TIP3    H218280   0.620   6.657   4.379
 6106TIP3   OH218281   5.635   6.288   2.520
 6106TIP3    H118282   5.628   6.380   2.494
 6106TIP3    H218283   5.726   6.265   2.503
 6107TIP3   OH218284   5.624   1.475   2.124
 6107TIP3    H118285   5.579   1.477   2.040
 6107TIP3    H218286   5.712   1.508   2.105
 6108TIP3   OH218287   3.561   2.058   3.649
 6108TIP3    H118288   3.511   1.992   3.696
 6108TIP3    H218289   3.627   2.088   3.712
 6109TIP3   OH218290   3.190   1.457   0.373
 6109TIP3    H118291   3.200   1.485   0.464
 6109TIP3    H218292   3.224   1.530   0.321
 6110TIP3   OH218293   1.204   2.940   5.413
 6110TIP3    H118294   1.143   2.867   5.421
 6110TIP3    H218295   1.281   2.902   5.370
 6111TIP3   OH218296   0.003   6.370   2.810
 6111TIP3    H118297   0.089   6.335   2.789
 6111TIP3    H218298   0.018   6.464   2.823
 6112TIP3   OH218299   5.153   0.897   1.996
 6112TIP3    H118300   5.193   0.810   1.988
 6112TIP3    H218301   5.087   0.887   2.064
 6113TIP3   OH218302   4.299   3.946   4.257
 6113TIP3    H118303   4.354   3.868   4.265
 6113TIP3    H218304   4.359   4.019   4.273
 6114TIP3   OH218305   0.296   5.982   2.488
 6114TIP3    H118306   0.277   6.074   2.469
 6114TIP3    H218307   0.315   5.944   2.402
 6115TIP3   OH218308   2.055   4.397   3.483
 6115TIP3    H118309   2.013   4.463   3.538
 6115TIP3    H218310   2.146   4.397   3.513
 6116TIP3   OH218311   2.256   1.430   3.950
 6116TIP3    H118312   2.236   1.500   3.888
 6116TIP3    H218313   2.171   1.404   3.985
 6117TIP3   OH218314   0.681   2.650   2.715
 6117TIP3    H118315   0.764   2.608   2.691
 6117TIP3    H218316   0.700   2.697   2.796
 6118TIP3   OH218317   2.947   5.224   0.578
 6118TIP3    H118318   2.901   5.155   0.627
 6118TIP3    H218319   3.024   5.242   0.631
 6119TIP3   OH218320   6.358   2.822   5.475
 6119TIP3    H118321   6.267   2.792   5.484
 6119TIP3    H218322   6.382   2.852   5.562
 6120TIP3   OH218323   6.030   2.164   4.552
 6120TIP3    H118324   6.125   2.168   4.562
 6120TIP3    H218325   6.005   2.253   4.527
 6121TIP3   OH218326   1.019   4.717   2.201
 6121TIP3    H118327   1.016   4.769   2.281
 6121TIP3    H218328   1.049   4.777   2.133
 6122TIP3   OH218329   1.217   0.635   5.468
 6122TIP3    H118330   1.178   0.723   5.469
 6122TIP3    H218331   1.233   0.618   5.375
 6123TIP3   OH218332   2.789   3.297   0.954
 6123TIP3    H118333   2.696   3.284   0.937
 6123TIP3    H218334   2.828   3.210   0.945
 6124TIP3   OH218335   4.343   6.449   5.665
 6124TIP3    H118336   4.325   6.509   5.738
 6124TIP3    H218337   4.262   6.447   5.614
 6125TIP3   OH218338   1.601   2.827   0.105
 6125TIP3    H118339   1.531   2.771   0.073
 6125TIP3    H218340   1.682   2.778   0.087
 6126TIP3   OH218341   5.821   0.973   1.246
 6126TIP3    H118342   5.822   1.049   1.304
 6126TIP3    H218343   5.754   0.993   1.180
 6127TIP3   OH218344   6.319   6.270   1.334
 6127TIP3    H118345   6.333   6.290   1.426
 6127TIP3    H218346   6.378   6.198   1.315
 6128TIP3   OH218347   2.976   2.360   4.875
 6128TIP3    H118348   2.904   2.394   4.821
 6128TIP3    H218349   2.955   2.267   4.886
 6129TIP3   OH218350   0.796   6.032   2.157
 6129TIP3    H118351   0.751   6.047   2.240
 6129TIP3    H218352   0.874   6.087   2.162
 6130TIP3   OH218353   4.772   1.084   2.343
 6130TIP3    H118354   4.728   1.011   2.299
 6130TIP3    H218355   4.830   1.121   2.277
 6131TIP3   OH218356   4.166   2.744   4.330
 6131TIP3    H118357   4.198   2.654   4.340
 6131TIP3    H218358   4.110   2.740   4.253
 6132TIP3   OH218359   4.379   5.614   4.011
 6132TIP3    H118360   4.337   5.535   3.978
 6132TIP3    H218361   4.331   5.686   3.970
 6133TIP3   OH218362   2.608   0.120   2.103
 6133TIP3    H118363   2.593   0.034   2.142
 6133TIP3    H218364   2.624   0.178   2.177
 6134TIP3   OH218365   4.173   2.836   2.411
 6134TIP3    H118366   4.214   2.757   2.446
 6134TIP3    H218367   4.106   2.859   2.475
 6135TIP3   OH218368   4.754   3.815   1.464
 6135TIP3    H118369   4.741   3.908   1.447
 6135TIP3    H218370   4.849   3.805   1.474
 6136TIP3   OH218371   4.897   5.658   3.852
 6136TIP3    H118372   4.904   5.575   3.897
 6136TIP3    H218373   4.805   5.682   3.858
 6137TIP3   OH218374   1.301   5.077   4.145
 6137TIP3    H118375   1.270   5.125   4.222
 6137TIP3    H218376   1.231   5.014   4.127
 6138TIP3   OH218377   1.656   4.095   0.907
 6138TIP3    H118378   1.717   4.113   0.978
 6138TIP3    H218379   1.712   4.088   0.829
 6139TIP3   OH218380   5.346   6.266   2.791
 6139TIP3    H118381   5.307   6.180   2.805
 6139TIP3    H218382   5.435   6.247   2.760
 6140TIP3   OH218383   6.471   0.221   0.118
 6140TIP3    H118384   6.406   0.156   0.090
 6140TIP3    H218385   6.555   0.178   0.104
 6141TIP3   OH218386   5.179   3.536   0.033
 6141TIP3    H118387   5.180   3.467  -0.034
 6141TIP3    H218388   5.194   3.617  -0.016
 6142TIP3   OH218389   0.771   4.383   1.583
 6142TIP3    H118390   0.703   4.371   1.517
 6142TIP3    H218391   0.818   4.462   1.555
 6143TIP3   OH218392   3.773   5.114   0.129
 6143TIP3    H118393   3.864   5.093   0.105
 6143TIP3    H218394   3.728   5.029   0.131
 6144TIP3   OH218395   2.985   6.492   2.813
 6144TIP3    H118396   3.042   6.423   2.845
 6144TIP3    H218397   2.942   6.527   2.891
 6145TIP3   OH218398   0.101   5.253   3.347
 6145TIP3    H118399   0.122   5.160   3.332
 6145TIP3    H218400   0.036   5.252   3.416
 6146TIP3   OH218401   4.354   3.534   4.445
 6146TIP3    H118402   4.312   3.572   4.368
 6146TIP3    H218403   4.333   3.441   4.441
 6147TIP3   OH218404   1.399   4.039   0.518
 6147TIP3    H118405   1.413   4.076   0.605
 6147TIP3    H218406   1.384   4.116   0.462
 6148TIP3   OH218407   0.506   0.329   2.135
 6148TIP3    H118408   0.593   0.356   2.164
 6148TIP3    H218409   0.483   0.391   2.067
 6149TIP3   OH218410   0.003   3.127   4.311
 6149TIP3    H118411   0.050   3.176   4.243
 6149TIP3    H218412   0.067   3.113   4.380
 6150TIP3   OH218413   0.060   0.811   0.370
 6150TIP3    H118414  -0.023   0.775   0.400
 6150TIP3    H218415   0.040   0.901   0.345
 6151TIP3   OH218416   1.214   0.892   5.799
 6151TIP3    H118417   1.122   0.913   5.816
 6151TIP3    H218418   1.260   0.915   5.880
 6152TIP3   OH218419   7.014   1.631   3.885
 6152TIP3    H118420   7.090   1.581   3.913
 6152TIP3    H218421   7.019   1.630   3.789
 6153TIP3   OH218422   2.486   0.796   5.058
 6153TIP3    H118423   2.554   0.729   5.052
 6153TIP3    H218424   2.432   0.784   4.980
 6154TIP3   OH218425   0.010   3.101   2.643
 6154TIP3    H118426   0.047   3.078   2.728
 6154TIP3    H218427   0.013   3.196   2.640
 6155TIP3   OH218428   1.628   4.196   2.480
 6155TIP3    H118429   1.701   4.258   2.479
 6155TIP3    H218430   1.566   4.232   2.543
 6156TIP3   OH218431   6.457   3.649   4.781
 6156TIP3    H118432   6.381   3.648   4.840
 6156TIP3    H218433   6.487   3.740   4.783
 6157TIP3   OH218434   6.203   4.912   1.154
 6157TIP3    H118435   6.134   4.934   1.092
 6157TIP3    H218436   6.203   4.816   1.156
 6158TIP3   OH218437   0.299   1.986   0.188
 6158TIP3    H118438   0.359   1.943   0.127
 6158TIP3    H218439   0.213   1.974   0.148
 6159TIP3   OH218440   5.663   3.941   2.165
 6159TIP3    H118441   5.587   3.957   2.222
 6159TIP3    H218442   5.624   3.921   2.080
 6160TIP3   OH218443   3.205   3.098   2.334
 6160TIP3    H118444   3.110   3.108   2.329
 6160TIP3    H218445   3.240   3.149   2.261
 6161TIP3   OH218446   4.237   0.833   4.164
 6161TIP3    H118447   4.189   0.752   4.178
 6161TIP3    H218448   4.246   0.839   4.069
 6162TIP3   OH218449   5.061   3.675   4.710
 6162TIP3    H118450   5.077   3.642   4.798
 6162TIP3    H218451   5.110   3.757   4.705
 6163TIP3   OH218452   2.855   2.620   1.867
 6163TIP3    H118453   2.932   2.642   1.814
 6163TIP3    H218454   2.865   2.527   1.886
 6164TIP3   OH218455   3.582   3.359   3.966
 6164TIP3    H118456   3.639   3.416   4.017
 6164TIP3    H218457   3.493   3.385   3.991
 6165TIP3   OH218458   6.177   1.679   0.712
 6165TIP3    H118459   6.178   1.671   0.807
 6165TIP3    H218460   6.261   1.643   0.684
 6166TIP3   OH218461   3.670   6.139   5.533
 6166TIP3    H118462   3.602   6.082   5.499
 6166TIP3    H218463   3.724   6.161   5.457
 6167TIP3   OH218464   0.666   0.079   4.930
 6167TIP3    H118465   0.633   0.074   5.019
 6167TIP3    H218466   0.753   0.039   4.934
 6168TIP3   OH218467   1.500   6.349   5.769
 6168TIP3    H118468   1.454   6.432   5.761
 6168TIP3    H218469   1.593   6.373   5.770
 6169TIP3   OH218470   6.371   3.384   4.870
 6169TIP3    H118471   6.397   3.445   4.938
 6169TIP3    H218472   6.394   3.297   4.905
 6170TIP3   OH218473   2.717   2.651   3.984
 6170TIP3    H118474   2.689   2.704   3.910
 6170TIP3    H218475   2.672   2.567   3.972
 6171TIP3   OH218476   4.571   5.280   0.172
 6171TIP3    H118477   4.517   5.202   0.158
 6171TIP3    H218478   4.557   5.333   0.093
 6172TIP3   OH218479   2.796   5.099   2.653
 6172TIP3    H118480   2.871   5.052   2.617
 6172TIP3    H218481   2.831   5.150   2.726
 6173TIP3   OH218482   3.582   1.866   1.804
 6173TIP3    H118483   3.567   1.780   1.842
 6173TIP3    H218484   3.660   1.899   1.849
 6174TIP3   OH218485   1.193   2.182   4.962
 6174TIP3    H118486   1.213   2.104   4.910
 6174TIP3    H218487   1.270   2.238   4.952
 6175TIP3   OH218488   1.194   3.772   2.577
 6175TIP3    H118489   1.134   3.702   2.553
 6175TIP3    H218490   1.138   3.839   2.616
 6176TIP3   OH218491   3.740   6.639   5.784
 6176TIP3    H118492   3.810   6.681   5.832
 6176TIP3    H218493   3.698   6.581   5.848
 6177TIP3   OH218494   6.182   3.461   0.805
 6177TIP3    H118495   6.160   3.512   0.726
 6177TIP3    H218496   6.245   3.516   0.852
 6178TIP3   OH218497   0.481   2.393   0.208
 6178TIP3    H118498   0.571   2.388   0.240
 6178TIP3    H218499   0.449   2.478   0.240
 6179TIP3   OH218500   5.229   0.670   2.786
 6179TIP3    H118501   5.146   0.707   2.818
 6179TIP3    H218502   5.290   0.681   2.858
 6180TIP3   OH218503   3.600   0.196   2.651
 6180TIP3    H118504   3.644   0.181   2.735
 6180TIP3    H218505   3.509   0.170   2.667
 6181TIP3   OH218506   7.140   4.351   3.631
 6181TIP3    H118507   7.074   4.367   3.564
 6181TIP3    H218508   7.094   4.302   3.699
 6182TIP3   OH218509   5.851   6.690   3.548
 6182TIP3    H118510   5.841   6.704   3.642
 6182TIP3    H218511   5.945   6.678   3.535
 6183TIP3   OH218512   2.010   1.210   4.408
 6183TIP3    H118513   2.101   1.182   4.398
 6183TIP3    H218514   1.998   1.217   4.503
 6184TIP3   OH218515   1.504   5.605   1.998
 6184TIP3    H118516   1.531   5.519   1.967
 6184TIP3    H218517   1.540   5.666   1.934
 6185TIP3   OH218518   0.353   1.199   2.200
 6185TIP3    H118519   0.374   1.112   2.232
 6185TIP3    H218520   0.401   1.258   2.257
 6186TIP3   OH218521   5.851   1.916   1.569
 6186TIP3    H118522   5.799   1.921   1.649
 6186TIP3    H218523   5.809   1.979   1.510
 6187TIP3   OH218524   1.797   5.612   1.552
 6187TIP3    H118525   1.802   5.650   1.640
 6187TIP3    H218526   1.858   5.539   1.553
 6188TIP3   OH218527   5.812   3.464   2.434
 6188TIP3    H118528   5.821   3.549   2.478
 6188TIP3    H218529   5.734   3.425   2.473
 6189TIP3   OH218530   3.561   6.695   0.093
 6189TIP3    H118531   3.546   6.789   0.081
 6189TIP3    H218532   3.625   6.672   0.026
 6190TIP3   OH218533   0.215   2.499   3.565
 6190TIP3    H118534   0.170   2.504   3.481
 6190TIP3    H218535   0.188   2.415   3.602
 6191TIP3   OH218536   1.461   0.485   2.389
 6191TIP3    H118537   1.457   0.439   2.473
 6191TIP3    H218538   1.541   0.454   2.347
 6192TIP3   OH218539   5.192   4.272   0.940
 6192TIP3    H118540   5.107   4.235   0.915
 6192TIP3    H218541   5.219   4.323   0.863
 6193TIP3   OH218542   0.908   4.369   4.405
 6193TIP3    H118543   0.838   4.398   4.346
 6193TIP3    H218544   0.866   4.363   4.491
 6194TIP3   OH218545   1.426   1.915   5.379
 6194TIP3    H118546   1.389   1.981   5.322
 6194TIP3    H218547   1.520   1.919   5.363
 6195TIP3   OH218548   0.308   5.234   3.063
 6195TIP3    H118549   0.357   5.276   2.992
 6195TIP3    H218550   0.376   5.208   3.126
 6196TIP3   OH218551   3.579   1.813   4.774
 6196TIP3    H118552   3.621   1.731   4.750
 6196TIP3    H218553   3.493   1.788   4.807
 6197TIP3   OH218554   1.240   4.190   2.022
 6197TIP3    H118555   1.160   4.212   2.071
 6197TIP3    H218556   1.304   4.169   2.090
 6198TIP3   OH218557   6.732   5.056   4.356
 6198TIP3    H118558   6.691   5.062   4.270
 6198TIP3    H218559   6.797   5.126   4.357
 6199TIP3   OH218560   5.217   0.563   5.320
 6199TIP3    H118561   5.291   0.623   5.307
 6199TIP3    H218562   5.158   0.610   5.379
 6200TIP3   OH218563   1.074   6.591   4.016
 6200TIP3    H118564   0.997   6.647   4.009
 6200TIP3    H218565   1.143   6.649   4.047
 6201TIP3   OH218566   7.064   0.865   0.730
 6201TIP3    H118567   7.060   0.783   0.778
 6201TIP3    H218568   7.027   0.930   0.790
 6202TIP3   OH218569   1.958   0.213   4.883
 6202TIP3    H118570   2.009   0.133   4.897
 6202TIP3    H218571   1.870   0.190   4.911
 6203TIP3   OH218572   5.254   4.403   2.508
 6203TIP3    H118573   5.249   4.439   2.419
 6203TIP3    H218574   5.238   4.310   2.498
 6204TIP3   OH218575   3.667   6.353   1.599
 6204TIP3    H118576   3.583   6.385   1.634
 6204TIP3    H218577   3.667   6.383   1.508
 6205TIP3   OH218578   3.532   1.075   4.111
 6205TIP3    H118579   3.619   1.105   4.136
 6205TIP3    H218580   3.508   1.011   4.178
 6206TIP3   OH218581   2.156   0.551   0.931
 6206TIP3    H118582   2.113   0.550   1.016
 6206TIP3    H218583   2.218   0.624   0.936
 6207TIP3   OH218584   6.103   5.372   4.895
 6207TIP3    H118585   6.097   5.435   4.823
 6207TIP3    H218586   6.085   5.287   4.855
 6208TIP3   OH218587   4.791   4.316   1.247
 6208TIP3    H118588   4.837   4.339   1.328
 6208TIP3    H218589   4.709   4.365   1.252
 6209TIP3   OH218590   3.066   4.105   2.531
 6209TIP3    H118591   3.158   4.076   2.532
 6209TIP3    H218592   3.061   4.172   2.599
 6210TIP3   OH218593   0.862   1.641   4.972
 6210TIP3    H118594   0.926   1.583   5.012
 6210TIP3    H218595   0.856   1.715   5.032
 6211TIP3   OH218596   5.924   6.636   0.398
 6211TIP3    H118597   5.932   6.731   0.383
 6211TIP3    H218598   5.858   6.607   0.336
 6212TIP3   OH218599   5.278   2.324   5.330
 6212TIP3    H118600   5.216   2.327   5.402
 6212TIP3    H218601   5.314   2.412   5.324
 6213TIP3   OH218602   2.004   3.637   5.064
 6213TIP3    H118603   2.055   3.561   5.092
 6213TIP3    H218604   1.995   3.625   4.969
 6214TIP3   OH218605   2.835   4.338   0.152
 6214TIP3    H118606   2.905   4.309   0.093
 6214TIP3    H218607   2.862   4.307   0.238
 6215TIP3   OH218608   1.388   5.336   1.116
 6215TIP3    H118609   1.356   5.281   1.044
 6215TIP3    H218610   1.474   5.301   1.137
 6216TIP3   OH218611   0.300   1.884   3.391
 6216TIP3    H118612   0.363   1.922   3.452
 6216TIP3    H218613   0.354   1.848   3.320
 6217TIP3   OH218614   1.395   3.819   0.948
 6217TIP3    H118615   1.394   3.902   0.995
 6217TIP3    H218616   1.356   3.838   0.863
 6218TIP3   OH218617   2.292   2.609   1.490
 6218TIP3    H118618   2.204   2.579   1.513
 6218TIP3    H218619   2.327   2.540   1.433
 6219TIP3   OH218620   0.095   4.781   3.222
 6219TIP3    H118621   0.110   4.706   3.165
 6219TIP3    H218622   0.079   4.854   3.162
 6220TIP3   OH218623   5.100   0.786   5.125
 6220TIP3    H118624   5.068   0.867   5.164
 6220TIP3    H218625   5.051   0.716   5.169
 6221TIP3   OH218626   0.294   1.949   5.075
 6221TIP3    H118627   0.314   1.993   5.157
 6221TIP3    H218628   0.361   1.981   5.014
 6222TIP3   OH218629   4.839   4.604   2.176
 6222TIP3    H118630   4.829   4.511   2.194
 6222TIP3    H218631   4.846   4.645   2.263
 6223TIP3   OH218632   2.516   6.191   0.750
 6223TIP3    H118633   2.589   6.238   0.710
 6223TIP3    H218634   2.556   6.114   0.791
 6224TIP3   OH218635   0.518   2.713   5.794
 6224TIP3    H118636   0.609   2.739   5.780
 6224TIP3    H218637   0.469   2.795   5.792
 6225TIP3   OH218638   3.243   0.747   4.530
 6225TIP3    H118639   3.218   0.750   4.622
 6225TIP3    H218640   3.212   0.662   4.500
 6226TIP3   OH218641   6.785   6.374   1.693
 6226TIP3    H118642   6.740   6.369   1.608
 6226TIP3    H218643   6.716   6.361   1.757
 6227TIP3   OH218644   4.511   3.259   1.901
 6227TIP3    H118645   4.417   3.258   1.882
 6227TIP3    H218646   4.550   3.306   1.828
 6228TIP3   OH218647   4.376   1.613   1.433
 6228TIP3    H118648   4.284   1.638   1.425
 6228TIP3    H218649   4.386   1.535   1.378
 6229TIP3   OH218650   3.053   5.382   4.666
 6229TIP3    H118651   2.967   5.409   4.636
 6229TIP3    H218652   3.071   5.436   4.742
 6230TIP3   OH218653   6.377   1.980   1.813
 6230TIP3    H118654   6.342   1.970   1.902
 6230TIP3    H218655   6.469   2.002   1.825
 6231TIP3   OH218656   3.858   3.044   1.684
 6231TIP3    H118657   3.800   3.120   1.677
 6231TIP3    H218658   3.861   3.007   1.596
 6232TIP3   OH218659   4.443   4.044   3.180
 6232TIP3    H118660   4.426   4.100   3.104
 6232TIP3    H218661   4.532   4.012   3.167
 6233TIP3   OH218662   3.727   2.289   5.866
 6233TIP3    H118663   3.724   2.377   5.831
 6233TIP3    H218664   3.708   2.232   5.791
 6234TIP3   OH218665   5.919   3.087   2.258
 6234TIP3    H118666   5.958   3.104   2.173
 6234TIP3    H218667   5.992   3.096   2.320
 6235TIP3   OH218668   4.626   4.306   1.859
 6235TIP3    H118669   4.696   4.371   1.868
 6235TIP3    H218670   4.550   4.357   1.831
 6236TIP3   OH218671   5.073   3.354   3.173
 6236TIP3    H118672   5.153   3.328   3.217
 6236TIP3    H218673   5.071   3.301   3.093
 6237TIP3   OH218674   0.484   3.723   4.465
 6237TIP3    H118675   0.539   3.800   4.451
 6237TIP3    H218676   0.485   3.677   4.382
 6238TIP3   OH218677   2.909   2.309   1.198
 6238TIP3    H118678   2.926   2.216   1.213
 6238TIP3    H218679   2.821   2.323   1.230
 6239TIP3   OH218680   6.142   5.179   5.249
 6239TIP3    H118681   6.198   5.102   5.260
 6239TIP3    H218682   6.062   5.157   5.298
 6240TIP3   OH218683   0.183   1.205   2.850
 6240TIP3    H118684   0.213   1.122   2.813
 6240TIP3    H218685   0.255   1.266   2.834
 6241TIP3   OH218686   6.725   0.590   5.312
 6241TIP3    H118687   6.745   0.621   5.400
 6241TIP3    H218688   6.712   0.670   5.260
 6242TIP3   OH218689   4.824   5.946   3.785
 6242TIP3    H118690   4.798   6.038   3.774
 6242TIP3    H218691   4.851   5.940   3.877
 6243TIP3   OH218692   2.808   5.168   2.088
 6243TIP3    H118693   2.841   5.103   2.149
 6243TIP3    H218694   2.818   5.252   2.133
 6244TIP3   OH218695   6.251   1.316   0.990
 6244TIP3    H118696   6.306   1.360   0.925
 6244TIP3    H218697   6.291   1.339   1.074
 6245TIP3   OH218698   3.542   6.408   3.937
 6245TIP3    H118699   3.550   6.354   4.016
 6245TIP3    H218700   3.536   6.497   3.970
 6246TIP3   OH218701   0.657   3.170   2.968
 6246TIP3    H118702   0.605   3.242   2.933
 6246TIP3    H218703   0.736   3.169   2.915
 6247TIP3   OH218704   3.369   1.486   1.472
 6247TIP3    H118705   3.445   1.527   1.431
 6247TIP3    H218706   3.336   1.425   1.406
 6248TIP3   OH218707   1.309   1.524   3.954
 6248TIP3    H118708   1.266   1.587   3.896
 6248TIP3    H218709   1.397   1.514   3.918
 6249TIP3   OH218710   0.645   5.039   1.159
 6249TIP3    H118711   0.710   4.973   1.184
 6249TIP3    H218712   0.570   5.022   1.216
 6250TIP3   OH218713   3.192   5.167   4.601
 6250TIP3    H118714   3.274   5.199   4.638
 6250TIP3    H218715   3.126   5.232   4.626
 6251TIP3   OH218716   5.014   5.407   2.517
 6251TIP3    H118717   5.016   5.494   2.558
 6251TIP3    H218718   5.081   5.357   2.563
 6252TIP3   OH218719   4.536   2.203   4.944
 6252TIP3    H118720   4.554   2.155   4.864
 6252TIP3    H218721   4.472   2.149   4.990
 6253TIP3   OH218722   3.834   4.491   0.092
 6253TIP3    H118723   3.886   4.468   0.015
 6253TIP3    H218724   3.878   4.448   0.165
 6254TIP3   OH218725   0.364   4.317   0.676
 6254TIP3    H118726   0.407   4.364   0.748
 6254TIP3    H218727   0.346   4.230   0.712
 6255TIP3   OH218728   2.954   2.430  -0.003
 6255TIP3    H118729   2.948   2.508   0.053
 6255TIP3    H218730   3.015   2.372   0.043
 6256TIP3   OH218731   2.765   0.596   3.847
 6256TIP3    H118732   2.697   0.657   3.820
 6256TIP3    H218733   2.725   0.509   3.839
 6257TIP3   OH218734   4.841   3.927   2.172
 6257TIP3    H118735   4.771   3.861   2.177
 6257TIP3    H218736   4.797   4.006   2.143
 6258TIP3   OH218737   3.337   0.967   4.405
 6258TIP3    H118738   3.381   1.012   4.477
 6258TIP3    H218739   3.304   0.886   4.444
 6259TIP3   OH218740   2.377   4.709   4.183
 6259TIP3    H118741   2.349   4.708   4.091
 6259TIP3    H218742   2.442   4.638   4.189
 6260TIP3   OH218743   5.637   3.563   4.229
 6260TIP3    H118744   5.622   3.655   4.205
 6260TIP3    H218745   5.617   3.514   4.149
 6261TIP3   OH218746   3.285   0.944   5.010
 6261TIP3    H118747   3.302   1.029   5.050
 6261TIP3    H218748   3.371   0.905   4.998
 6262TIP3   OH218749   0.758   5.913   1.443
 6262TIP3    H118750   0.758   5.989   1.384
 6262TIP3    H218751   0.759   5.951   1.530
 6263TIP3   OH218752   4.650   5.602   4.001
 6263TIP3    H118753   4.643   5.575   3.910
 6263TIP3    H218754   4.560   5.607   4.032
 6264TIP3   OH218755   2.852   4.326   1.741
 6264TIP3    H118756   2.757   4.336   1.729
 6264TIP3    H218757   2.860   4.283   1.827
 6265TIP3   OH218758   1.146   0.608   3.265
 6265TIP3    H118759   1.179   0.647   3.184
 6265TIP3    H218760   1.065   0.656   3.283
 6266TIP3   OH218761   0.783   5.643   3.290
 6266TIP3    H118762   0.831   5.688   3.360
 6266TIP3    H218763   0.693   5.674   3.300
 6267TIP3   OH218764   1.271   2.911   0.707
 6267TIP3    H118765   1.228   2.830   0.734
 6267TIP3    H218766   1.292   2.897   0.614
 6268TIP3   OH218767   0.369   6.495   4.814
 6268TIP3    H118768   0.413   6.444   4.746
 6268TIP3    H218769   0.439   6.527   4.870
 6269TIP3   OH218770   5.497   0.166   4.764
 6269TIP3    H118771   5.488   0.164   4.669
 6269TIP3    H218772   5.462   0.251   4.789
 6270TIP3   OH218773   3.219   4.580   5.119
 6270TIP3    H118774   3.263   4.633   5.186
 6270TIP3    H218775   3.264   4.603   5.038
 6271TIP3   OH218776   4.451   0.805   3.995
 6271TIP3    H118777   4.528   0.832   3.945
 6271TIP3    H218778   4.381   0.862   3.963
 6272TIP3   OH218779   0.318   4.077   2.659
 6272TIP3    H118780   0.257   4.122   2.600
 6272TIP3    H218781   0.316   4.128   2.740
 6273TIP3   OH218782   4.308   2.006   1.288
 6273TIP3    H118783   4.269   1.945   1.351
 6273TIP3    H218784   4.282   2.092   1.319
 6274TIP3   OH218785   0.601   2.271   4.802
 6274TIP3    H118786   0.666   2.338   4.782
 6274TIP3    H218787   0.590   2.223   4.720
 6275TIP3   OH218788   4.184   1.221   1.926
 6275TIP3    H118789   4.155   1.255   2.010
 6275TIP3    H218790   4.125   1.262   1.862
 6276TIP3   OH218791   4.151   2.747   0.880
 6276TIP3    H118792   4.110   2.677   0.931
 6276TIP3    H218793   4.078   2.788   0.832
 6277TIP3   OH218794   1.072   6.400   5.761
 6277TIP3    H118795   1.078   6.460   5.835
 6277TIP3    H218796   1.074   6.313   5.801
 6278TIP3   OH218797   1.174   3.685   3.389
 6278TIP3    H118798   1.169   3.595   3.421
 6278TIP3    H218799   1.262   3.714   3.414
 6279TIP3   OH218800   1.900   3.909   5.131
 6279TIP3    H118801   1.957   3.842   5.093
 6279TIP3    H218802   1.819   3.904   5.081
 6280TIP3   OH218803   3.030   5.344   1.788
 6280TIP3    H118804   3.005   5.417   1.732
 6280TIP3    H218805   3.078   5.285   1.729
 6281TIP3   OH218806   2.023   3.807   1.529
 6281TIP3    H118807   2.108   3.781   1.494
 6281TIP3    H218808   1.975   3.841   1.453
 6282TIP3   OH218809   4.492   2.376   1.431
 6282TIP3    H118810   4.501   2.282   1.414
 6282TIP3    H218811   4.458   2.412   1.349
 6283TIP3   OH218812   3.139   5.681   1.746
 6283TIP3    H118813   3.068   5.634   1.789
 6283TIP3    H218814   3.218   5.649   1.791
 6284TIP3   OH218815   4.319   2.682   0.611
 6284TIP3    H118816   4.338   2.717   0.524
 6284TIP3    H218817   4.305   2.760   0.666
 6285TIP3   OH218818   1.164   6.393   1.599
 6285TIP3    H118819   1.184   6.423   1.511
 6285TIP3    H218820   1.247   6.355   1.630
 6286TIP3   OH218821   3.666   5.161   3.864
 6286TIP3    H118822   3.586   5.117   3.894
 6286TIP3    H218823   3.633   5.234   3.811
 6287TIP3   OH218824   1.460   4.316   4.789
 6287TIP3    H118825   1.522   4.377   4.747
 6287TIP3    H218826   1.516   4.251   4.830
 6288TIP3   OH218827   3.375   5.826   4.687
 6288TIP3    H118828   3.393   5.848   4.779
 6288TIP3    H218829   3.280   5.813   4.684
 6289TIP3   OH218830   3.790   3.235   5.103
 6289TIP3    H118831   3.711   3.186   5.080
 6289TIP3    H218832   3.844   3.173   5.152
 6290TIP3   OH218833   3.348   2.674   0.587
 6290TIP3    H118834   3.253   2.666   0.573
 6290TIP3    H218835   3.370   2.759   0.549
 6291TIP3   OH218836   3.639   6.500   5.246
 6291TIP3    H118837   3.597   6.421   5.281
 6291TIP3    H218838   3.569   6.564   5.241
 6292TIP3   OH218839   5.233   3.628   1.466
 6292TIP3    H118840   5.187   3.546   1.449
 6292TIP3    H218841   5.306   3.628   1.404
 6293TIP3   OH218842   2.973   4.933   3.121
 6293TIP3    H118843   2.984   4.952   3.027
 6293TIP3    H218844   3.061   4.945   3.157
 6294TIP3   OH218845   5.373   2.042   2.279
 6294TIP3    H118846   5.428   2.073   2.350
 6294TIP3    H218847   5.317   2.116   2.257
 6295TIP3   OH218848   3.836   4.011   3.338
 6295TIP3    H118849   3.785   4.088   3.362
 6295TIP3    H218850   3.926   4.035   3.358
 6296TIP3   OH218851   5.487   1.641   1.548
 6296TIP3    H118852   5.471   1.553   1.513
 6296TIP3    H218853   5.442   1.643   1.632
 6297TIP3   OH218854   3.258   1.650   3.628
 6297TIP3    H118855   3.227   1.629   3.541
 6297TIP3    H218856   3.323   1.582   3.647
 6298TIP3   OH218857   6.163   3.311   1.681
 6298TIP3    H118858   6.105   3.336   1.609
 6298TIP3    H218859   6.170   3.216   1.674
 6299TIP3   OH218860   4.405   0.548   5.798
 6299TIP3    H118861   4.373   0.618   5.742
 6299TIP3    H218862   4.498   0.542   5.778
 6300TIP3   OH218863   6.323   1.648   4.405
 6300TIP3    H118864   6.377   1.697   4.343
 6300TIP3    H218865   6.291   1.573   4.354
 6301TIP3   OH218866   2.238   5.419   1.884
 6301TIP3    H118867   2.223   5.332   1.846
 6301TIP3    H218868   2.254   5.401   1.977
 6302TIP3   OH218869   3.410   5.911   4.144
 6302TIP3    H118870   3.398   5.908   4.049
 6302TIP3    H218871   3.378   5.826   4.174
 6303TIP3   OH218872   6.668   3.199   4.821
 6303TIP3    H118873   6.747   3.199   4.766
 6303TIP3    H218874   6.636   3.109   4.815
 6304TIP3   OH218875   5.756   2.623   2.427
 6304TIP3    H118876   5.668   2.590   2.414
 6304TIP3    H218877   5.813   2.548   2.412
 6305TIP3   OH218878   0.234   5.311   2.354
 6305TIP3    H118879   0.307   5.372   2.352
 6305TIP3    H218880   0.156   5.366   2.341
 6306TIP3   OH218881   6.468   1.790   4.232
 6306TIP3    H118882   6.431   1.865   4.186
 6306TIP3    H218883   6.514   1.741   4.165
 6307TIP3   OH218884   7.016   6.449   5.758
 6307TIP3    H118885   7.027   6.537   5.720
 6307TIP3    H218886   6.945   6.410   5.707
 6308TIP3   OH218887   0.342   2.572  -0.011
 6308TIP3    H118888   0.271   2.633   0.008
 6308TIP3    H218889   0.422   2.622   0.006
 6309TIP3   OH218890   1.094   0.096   2.790
 6309TIP3    H118891   1.067   0.102   2.699
 6309TIP3    H218892   1.050   0.169   2.833
 6310TIP3   OH218893   0.538   0.676   0.327
 6310TIP3    H118894   0.523   0.603   0.265
 6310TIP3    H218895   0.461   0.673   0.384
 6311TIP3   OH218896   5.407   6.404   5.802
 6311TIP3    H118897   5.390   6.490   5.842
 6311TIP3    H218898   5.501   6.403   5.786
 6312TIP3   OH218899   5.810   0.889   2.140
 6312TIP3    H118900   5.776   0.806   2.175
 6312TIP3    H218901   5.811   0.876   2.045
 6313TIP3   OH218902   6.575   6.824   4.963
 6313TIP3    H118903   6.496   6.814   4.910
 6313TIP3    H218904   6.634   6.755   4.931
 6314TIP3   OH218905   0.687   5.558   1.993
 6314TIP3    H118906   0.725   5.473   1.970
 6314TIP3    H218907   0.721   5.618   1.927
 6315TIP3   OH218908   2.061   6.320   1.234
 6315TIP3    H118909   2.091   6.237   1.271
 6315TIP3    H218910   1.970   6.328   1.263
 6316TIP3   OH218911   4.303   2.947   1.952
 6316TIP3    H118912   4.243   3.020   1.965
 6316TIP3    H218913   4.302   2.899   2.035
 6317TIP3   OH218914   3.184   2.439   2.162
 6317TIP3    H118915   3.089   2.450   2.164
 6317TIP3    H218916   3.207   2.433   2.070
 6318TIP3   OH218917   2.686   4.774   3.636
 6318TIP3    H118918   2.732   4.702   3.677
 6318TIP3    H218919   2.754   4.821   3.587
 6319TIP3   OH218920   0.253   5.504   4.061
 6319TIP3    H118921   0.159   5.489   4.052
 6319TIP3    H218922   0.292   5.417   4.055
 6320TIP3   OH218923   3.742   0.378   5.428
 6320TIP3    H118924   3.826   0.385   5.384
 6320TIP3    H218925   3.691   0.318   5.374
 6321TIP3   OH218926   5.003   5.595   2.876
 6321TIP3    H118927   5.089   5.625   2.847
 6321TIP3    H218928   5.010   5.500   2.877
 6322TIP3   OH218929   3.701   2.704   3.396
 6322TIP3    H118930   3.762   2.630   3.389
 6322TIP3    H218931   3.615   2.664   3.406
 6323TIP3   OH218932   1.998   4.452   5.560
 6323TIP3    H118933   1.944   4.402   5.621
 6323TIP3    H218934   2.038   4.385   5.504
 6324TIP3   OH218935   0.498   4.551   1.686
 6324TIP3    H118936   0.432   4.513   1.744
 6324TIP3    H218937   0.581   4.529   1.727
 6325TIP3   OH218938   5.427   5.323   0.899
 6325TIP3    H118939   5.453   5.409   0.868
 6325TIP3    H218940   5.444   5.325   0.993
 6326TIP3   OH218941   1.817   4.800   1.956
 6326TIP3    H118942   1.745   4.849   1.996
 6326TIP3    H218943   1.791   4.708   1.966
 6327TIP3   OH218944   6.503   4.546   3.853
 6327TIP3    H118945   6.457   4.563   3.935
 6327TIP3    H218946   6.452   4.477   3.811
 6328TIP3   OH218947   0.868   5.595   1.735
 6328TIP3    H118948   0.921   5.671   1.759
 6328TIP3    H218949   0.847   5.609   1.643
 6329TIP3   OH218950   1.524   4.598   1.807
 6329TIP3    H118951   1.568   4.542   1.871
 6329TIP3    H218952   1.542   4.558   1.722
 6330TIP3   OH218953   5.171   2.001   1.214
 6330TIP3    H118954   5.177   2.061   1.288
 6330TIP3    H218955   5.222   1.924   1.241
 6331TIP3   OH218956   3.373   1.303   1.270
 6331TIP3    H118957   3.303   1.241   1.246
 6331TIP3    H218958   3.434   1.300   1.197
 6332TIP3   OH218959   0.771   2.792   5.720
 6332TIP3    H118960   0.769   2.863   5.656
 6332TIP3    H218961   0.839   2.732   5.688
 6333TIP3   OH218962   5.128   5.950   5.413
 6333TIP3    H118963   5.212   5.915   5.385
 6333TIP3    H218964   5.118   5.919   5.503
 6334TIP3   OH218965   7.181   3.109   0.417
 6334TIP3    H118966   7.150   3.048   0.484
 6334TIP3    H218967   7.159   3.067   0.334
 6335TIP3   OH218968   6.522   1.651   0.657
 6335TIP3    H118969   6.585   1.704   0.706
 6335TIP3    H218970   6.535   1.677   0.566
 6336TIP3   OH218971   6.078   1.928   2.640
 6336TIP3    H118972   6.073   1.862   2.710
 6336TIP3    H218973   5.993   1.923   2.596
 6337TIP3   OH218974   0.694   3.944   4.185
 6337TIP3    H118975   0.754   3.966   4.114
 6337TIP3    H218976   0.609   3.930   4.142
 6338TIP3   OH218977   6.449   6.560   1.423
 6338TIP3    H118978   6.520   6.497   1.436
 6338TIP3    H218979   6.453   6.582   1.330
 6339TIP3   OH218980   6.815   3.019   0.065
 6339TIP3    H118981   6.733   2.988   0.103
 6339TIP3    H218982   6.809   3.115   0.071
 6340TIP3   OH218983   6.459   4.014   5.440
 6340TIP3    H118984   6.436   4.030   5.532
 6340TIP3    H218985   6.521   4.084   5.419
 6341TIP3   OH218986   3.075   3.773   5.478
 6341TIP3    H118987   3.162   3.733   5.474
 6341TIP3    H218988   3.092   3.867   5.476
 6342TIP3   OH218989   6.996   3.658   1.941
 6342TIP3    H118990   7.088   3.649   1.964
 6342TIP3    H218991   6.977   3.751   1.953
 6343TIP3   OH218992   7.130   1.312   3.784
 6343TIP3    H118993   7.197   1.297   3.718
 6343TIP3    H218994   7.048   1.313   3.734
 6344TIP3   OH218995   0.257   6.733   5.486
 6344TIP3    H118996   0.186   6.758   5.545
 6344TIP3    H218997   0.280   6.814   5.440
 6345TIP3   OH218998   1.341   4.315   2.413
 6345TIP3    H118999   1.279   4.379   2.380
 6345TIP3    H219000   1.288   4.249   2.457
 6346TIP3   OH219001   0.877   1.529   3.582
 6346TIP3    H119002   0.858   1.551   3.673
 6346TIP3    H219003   0.850   1.437   3.574
 6347TIP3   OH219004   6.947   1.049   0.212
 6347TIP3    H119005   6.897   0.984   0.163
 6347TIP3    H219006   6.901   1.058   0.295
 6348TIP3   OH219007   5.905   3.333   5.432
 6348TIP3    H119008   5.851   3.409   5.412
 6348TIP3    H219009   5.995   3.365   5.427
 6349TIP3   OH219010   0.144   1.939   1.228
 6349TIP3    H119011   0.068   1.996   1.242
 6349TIP3    H219012   0.162   1.901   1.314
 6350TIP3   OH219013   3.907   4.315   2.753
 6350TIP3    H119014   3.991   4.309   2.798
 6350TIP3    H219015   3.885   4.225   2.730
 6351TIP3   OH219016   2.038   3.836   2.028
 6351TIP3    H119017   2.104   3.767   2.016
 6351TIP3    H219018   2.065   3.906   1.968
 6352TIP3   OH219019   3.887   5.725   4.958
 6352TIP3    H119020   3.901   5.804   4.905
 6352TIP3    H219021   3.975   5.691   4.975
 6353TIP3   OH219022   1.388   0.890   5.594
 6353TIP3    H119023   1.465   0.922   5.642
 6353TIP3    H219024   1.315   0.908   5.653
 6354TIP3   OH219025   2.898   2.082   3.724
 6354TIP3    H119026   2.955   2.102   3.650
 6354TIP3    H219027   2.809   2.101   3.692
 6355TIP3   OH219028   3.859   4.557   3.905
 6355TIP3    H119029   3.870   4.546   3.811
 6355TIP3    H219030   3.770   4.527   3.923
 6356TIP3   OH219031   0.778   4.261   5.234
 6356TIP3    H119032   0.785   4.184   5.177
 6356TIP3    H219033   0.684   4.277   5.241
 6357TIP3   OH219034   0.309   5.908   3.719
 6357TIP3    H119035   0.302   5.848   3.794
 6357TIP3    H219036   0.403   5.920   3.707
 6358TIP3   OH219037   3.651   6.414   0.776
 6358TIP3    H119038   3.621   6.357   0.846
 6358TIP3    H219039   3.713   6.361   0.726
 6359TIP3   OH219040   7.039   0.124   2.804
 6359TIP3    H119041   7.115   0.182   2.794
 6359TIP3    H219042   7.057   0.050   2.746
 6360TIP3   OH219043   4.091   0.343   4.953
 6360TIP3    H119044   4.000   0.318   4.940
 6360TIP3    H219045   4.111   0.399   4.878
 6361TIP3   OH219046   6.735   0.071   1.782
 6361TIP3    H119047   6.651   0.026   1.773
 6361TIP3    H219048   6.713   0.153   1.826
 6362TIP3   OH219049   2.747   6.458   5.249
 6362TIP3    H119050   2.699   6.505   5.318
 6362TIP3    H219051   2.683   6.445   5.180
 6363TIP3   OH219052   2.589   6.127   1.837
 6363TIP3    H119053   2.570   6.039   1.870
 6363TIP3    H219054   2.503   6.169   1.832
 6364TIP3   OH219055   6.031   3.436   2.707
 6364TIP3    H119056   5.965   3.475   2.765
 6364TIP3    H219057   5.981   3.387   2.642
 6365TIP3   OH219058   6.769   0.884   0.110
 6365TIP3    H119059   6.709   0.949   0.075
 6365TIP3    H219060   6.788   0.827   0.036
 6366TIP3   OH219061   5.755   0.638   4.638
 6366TIP3    H119062   5.841   0.653   4.599
 6366TIP3    H219063   5.718   0.566   4.587
 6367TIP3   OH219064   6.978   3.582   0.255
 6367TIP3    H119065   6.952   3.662   0.208
 6367TIP3    H219066   7.051   3.609   0.311
 6368TIP3   OH219067   6.964   6.200   4.097
 6368TIP3    H119068   6.999   6.209   4.186
 6368TIP3    H219069   6.870   6.210   4.107
 6369TIP3   OH219070   3.948   5.804   3.129
 6369TIP3    H119071   3.942   5.749   3.050
 6369TIP3    H219072   3.951   5.741   3.201
 6370TIP3   OH219073   2.261   6.382   3.415
 6370TIP3    H119074   2.198   6.417   3.478
 6370TIP3    H219075   2.344   6.422   3.439
 6371TIP3   OH219076   5.720   4.661   3.108
 6371TIP3    H119077   5.755   4.718   3.040
 6371TIP3    H219078   5.638   4.702   3.135
 6372TIP3   OH219079   5.903   3.646   3.340
 6372TIP3    H119080   5.967   3.702   3.296
 6372TIP3    H219081   5.917   3.560   3.303
 6373TIP3   OH219082   1.707   5.336   3.442
 6373TIP3    H119083   1.755   5.367   3.365
 6373TIP3    H219084   1.682   5.416   3.489
 6374TIP3   OH219085   5.226   1.134   2.522
 6374TIP3    H119086   5.305   1.107   2.568
 6374TIP3    H219087   5.191   1.053   2.484
 6375TIP3   OH219088   6.409   4.511   0.997
 6375TIP3    H119089   6.317   4.485   0.995
 6375TIP3    H219090   6.416   4.579   0.929
 6376TIP3   OH219091   6.709   4.267   4.879
 6376TIP3    H119092   6.747   4.349   4.908
 6376TIP3    H219093   6.712   4.210   4.957
 6377TIP3   OH219094   6.634   4.531   5.081
 6377TIP3    H119095   6.601   4.548   4.993
 6377TIP3    H219096   6.729   4.520   5.069
 6378TIP3   OH219097   4.807   0.275   4.290
 6378TIP3    H119098   4.901   0.259   4.281
 6378TIP3    H219099   4.800   0.348   4.351
 6379TIP3   OH219100   5.596   3.762   3.440
 6379TIP3    H119101   5.629   3.700   3.506
 6379TIP3    H219102   5.607   3.716   3.357
 6380TIP3   OH219103   3.983   4.347   2.336
 6380TIP3    H119104   3.956   4.270   2.386
 6380TIP3    H219105   3.941   4.336   2.250
 6381TIP3   OH219106   2.601   2.412   3.947
 6381TIP3    H119107   2.662   2.339   3.957
 6381TIP3    H219108   2.522   2.383   3.993
 6382TIP3   OH219109   4.481   1.506   3.538
 6382TIP3    H119110   4.397   1.464   3.559
 6382TIP3    H219111   4.471   1.533   3.446
 6383TIP3   OH219112   1.228   3.359   0.915
 6383TIP3    H119113   1.146   3.341   0.961
 6383TIP3    H219114   1.211   3.440   0.867
 6384TIP3   OH219115   1.297   0.045   5.437
 6384TIP3    H119116   1.226  -0.006   5.398
 6384TIP3    H219117   1.287   0.133   5.400
 6385TIP3   OH219118   5.234   2.080   4.668
 6385TIP3    H119119   5.156   2.086   4.612
 6385TIP3    H219120   5.267   1.991   4.653
 6386TIP3   OH219121   2.556   3.688   1.905
 6386TIP3    H119122   2.474   3.667   1.950
 6386TIP3    H219123   2.534   3.764   1.850
 6387TIP3   OH219124   3.633   6.245   5.813
 6387TIP3    H119125   3.617   6.259   5.720
 6387TIP3    H219126   3.557   6.195   5.843
 6388TIP3   OH219127   0.286   5.617   0.172
 6388TIP3    H119128   0.331   5.629   0.255
 6388TIP3    H219129   0.273   5.707   0.140
 6389TIP3   OH219130   3.719   5.256   2.350
 6389TIP3    H119131   3.647   5.196   2.328
 6389TIP3    H219132   3.788   5.199   2.384
 6390TIP3   OH219133   5.982   4.489   0.110
 6390TIP3    H119134   6.007   4.427   0.041
 6390TIP3    H219135   6.062   4.503   0.160
 6391TIP3   OH219136   1.801   5.877   2.115
 6391TIP3    H119137   1.746   5.890   2.192
 6391TIP3    H219138   1.805   5.782   2.103
 6392TIP3   OH219139   2.972   0.657   3.031
 6392TIP3    H119140   2.999   0.573   3.067
 6392TIP3    H219141   2.913   0.694   3.096
 6393TIP3   OH219142   3.575   5.386   0.517
 6393TIP3    H119143   3.619   5.383   0.432
 6393TIP3    H219144   3.507   5.319   0.512
 6394TIP3   OH219145   2.380   6.827   5.528
 6394TIP3    H119146   2.349   6.830   5.619
 6394TIP3    H219147   2.458   6.772   5.531
 6395TIP3   OH219148   2.837   0.696   0.203
 6395TIP3    H119149   2.756   0.716   0.250
 6395TIP3    H219150   2.899   0.762   0.235
 6396TIP3   OH219151   0.273   5.871   4.380
 6396TIP3    H119152   0.293   5.861   4.287
 6396TIP3    H219153   0.349   5.835   4.426
 6397TIP3   OH219154   7.157   0.635   2.712
 6397TIP3    H119155   7.250   0.624   2.691
 6397TIP3    H219156   7.111   0.594   2.638
 6398TIP3   OH219157   0.717   4.685   1.436
 6398TIP3    H119158   0.684   4.728   1.515
 6398TIP3    H219159   0.811   4.675   1.452
 6399TIP3   OH219160   1.513   4.610   0.479
 6399TIP3    H119161   1.486   4.611   0.387
 6399TIP3    H219162   1.608   4.621   0.476
 6400TIP3   OH219163   2.261   2.654   3.142
 6400TIP3    H119164   2.316   2.635   3.066
 6400TIP3    H219165   2.187   2.704   3.107
 6401TIP3   OH219166   2.531   6.051   4.711
 6401TIP3    H119167   2.567   5.985   4.653
 6401TIP3    H219168   2.545   6.016   4.799
 6402TIP3   OH219169   2.532   6.374   0.285
 6402TIP3    H119170   2.532   6.279   0.275
 6402TIP3    H219171   2.440   6.399   0.273
 6403TIP3   OH219172   0.373   6.253   3.905
 6403TIP3    H119173   0.336   6.246   3.993
 6403TIP3    H219174   0.459   6.213   3.912
 6404TIP3   OH219175   2.532   4.159   4.421
 6404TIP3    H119176   2.530   4.140   4.515
 6404TIP3    H219177   2.474   4.093   4.383
 6405TIP3   OH219178   1.998   3.741   0.026
 6405TIP3    H119179   1.967   3.745   0.117
 6405TIP3    H219180   1.951   3.812  -0.018
 6406TIP3   OH219181   0.685   5.587   4.473
 6406TIP3    H119182   0.758   5.648   4.466
 6406TIP3    H219183   0.725   5.504   4.498
 6407TIP3   OH219184   2.095   3.085   2.145
 6407TIP3    H119185   2.040   3.095   2.223
 6407TIP3    H219186   2.040   3.041   2.081
 6408TIP3   OH219187   1.117   2.156   5.447
 6408TIP3    H119188   1.085   2.097   5.379
 6408TIP3    H219189   1.177   2.103   5.499
 6409TIP3   OH219190   3.271   3.333   2.708
 6409TIP3    H119191   3.344   3.384   2.671
 6409TIP3    H219192   3.270   3.253   2.656
 6410TIP3   OH219193   0.084   4.194   1.764
 6410TIP3    H119194   0.120   4.208   1.676
 6410TIP3    H219195  -0.003   4.156   1.749
 6411TIP3   OH219196   4.746   0.852   3.104
 6411TIP3    H119197   4.730   0.808   3.021
 6411TIP3    H219198   4.789   0.785   3.158
 6412TIP3   OH219199   5.073   4.758   0.202
 6412TIP3    H119200   5.105   4.848   0.213
 6412TIP3    H219201   5.152   4.705   0.203
 6413TIP3   OH219202   2.283   5.517   3.944
 6413TIP3    H119203   2.229   5.471   3.880
 6413TIP3    H219204   2.234   5.511   4.026
 6414TIP3   OH219205   7.031   6.508   2.628
 6414TIP3    H119206   7.085   6.483   2.703
 6414TIP3    H219207   6.946   6.466   2.645
 6415TIP3   OH219208   7.078   2.936   1.169
 6415TIP3    H119209   7.147   2.982   1.123
 6415TIP3    H219210   7.098   2.843   1.155
 6416TIP3   OH219211   6.058   0.853   0.678
 6416TIP3    H119212   6.001   0.927   0.701
 6416TIP3    H219213   6.028   0.826   0.591
 6417TIP3   OH219214   3.867   5.508   3.868
 6417TIP3    H119215   3.938   5.556   3.910
 6417TIP3    H219216   3.897   5.418   3.865
 6418TIP3   OH219217   2.919   0.338   4.317
 6418TIP3    H119218   2.825   0.353   4.320
 6418TIP3    H219219   2.931   0.250   4.351
 6419TIP3   OH219220   1.179   4.730   3.191
 6419TIP3    H119221   1.100   4.701   3.147
 6419TIP3    H219222   1.155   4.732   3.284
 6420TIP3   OH219223   7.120   0.008   3.678
 6420TIP3    H119224   7.154  -0.081   3.684
 6420TIP3    H219225   7.141   0.036   3.589
 6421TIP3   OH219226   4.442   4.266   4.795
 6421TIP3    H119227   4.366   4.318   4.771
 6421TIP3    H219228   4.448   4.200   4.726
 6422TIP3   OH219229   5.952   2.555   2.138
 6422TIP3    H119230   6.043   2.578   2.157
 6422TIP3    H219231   5.932   2.600   2.056
 6423TIP3   OH219232   3.587   1.601   1.892
 6423TIP3    H119233   3.520   1.603   1.960
 6423TIP3    H219234   3.651   1.536   1.923
 6424TIP3   OH219235   3.375   5.713   5.874
 6424TIP3    H119236   3.305   5.688   5.933
 6424TIP3    H219237   3.331   5.741   5.794
 6425TIP3   OH219238   6.076   0.598   3.661
 6425TIP3    H119239   5.982   0.609   3.647
 6425TIP3    H219240   6.116   0.616   3.576
 6426TIP3   OH219241   4.196   1.192   4.865
 6426TIP3    H119242   4.171   1.153   4.949
 6426TIP3    H219243   4.136   1.267   4.855
 6427TIP3   OH219244   2.028   2.534   3.438
 6427TIP3    H119245   1.988   2.503   3.357
 6427TIP3    H219246   1.954   2.551   3.496
 6428TIP3   OH219247   6.308   1.076   2.652
 6428TIP3    H119248   6.393   1.114   2.633
 6428TIP3    H219249   6.270   1.057   2.566
 6429TIP3   OH219250   0.276   4.602   4.974
 6429TIP3    H119251   0.347   4.608   4.910
 6429TIP3    H219252   0.239   4.515   4.962
 6430TIP3   OH219253   0.178   4.968   1.056
 6430TIP3    H119254   0.175   4.938   1.147
 6430TIP3    H219255   0.101   4.929   1.015
 6431TIP3   OH219256   1.448   1.558   5.645
 6431TIP3    H119257   1.388   1.631   5.657
 6431TIP3    H219258   1.519   1.575   5.708
 6432TIP3   OH219259   4.353   0.198   4.227
 6432TIP3    H119260   4.375   0.291   4.231
 6432TIP3    H219261   4.437   0.153   4.221
 6433TIP3   OH219262   5.778   2.553   1.235
 6433TIP3    H119263   5.842   2.572   1.303
 6433TIP3    H219264   5.693   2.561   1.279
 6434TIP3   OH219265   6.685   4.676   2.422
 6434TIP3    H119266   6.606   4.657   2.372
 6434TIP3    H219267   6.747   4.708   2.357
 6435TIP3   OH219268   0.049   0.309   4.555
 6435TIP3    H119269   0.097   0.364   4.493
 6435TIP3    H219270  -0.041   0.341   4.551
 6436TIP3   OH219271   5.205   4.332   3.330
 6436TIP3    H119272   5.251   4.416   3.326
 6436TIP3    H219273   5.113   4.355   3.324
 6437TIP3   OH219274   4.698   4.712   1.477
 6437TIP3    H119275   4.614   4.729   1.435
 6437TIP3    H219276   4.753   4.674   1.409
 6438TIP3   OH219277   0.840   4.475   0.580
 6438TIP3    H119278   0.839   4.406   0.513
 6438TIP3    H219279   0.931   4.477   0.610
 6439TIP3   OH219280   4.531   2.706   5.750
 6439TIP3    H119281   4.508   2.799   5.752
 6439TIP3    H219282   4.598   2.699   5.682
 6440TIP3   OH219283   6.251   3.949   2.695
 6440TIP3    H119284   6.256   4.011   2.622
 6440TIP3    H219285   6.342   3.931   2.717
 6441TIP3   OH219286   1.320   2.089   5.215
 6441TIP3    H119287   1.255   2.115   5.150
 6441TIP3    H219288   1.403   2.093   5.168
 6442TIP3   OH219289   4.404   2.495   4.857
 6442TIP3    H119290   4.344   2.529   4.924
 6442TIP3    H219291   4.490   2.498   4.898
 6443TIP3   OH219292   5.450   5.808   1.665
 6443TIP3    H119293   5.437   5.892   1.621
 6443TIP3    H219294   5.466   5.746   1.594
 6444TIP3   OH219295   1.938   0.847   4.269
 6444TIP3    H119296   1.961   0.844   4.362
 6444TIP3    H219297   1.864   0.908   4.265
 6445TIP3   OH219298   0.189   5.124   5.228
 6445TIP3    H119299   0.114   5.182   5.211
 6445TIP3    H219300   0.196   5.070   5.149
 6446TIP3   OH219301   4.012   2.275   5.348
 6446TIP3    H119302   3.922   2.307   5.352
 6446TIP3    H219303   4.031   2.245   5.437
 6447TIP3   OH219304   1.322   6.213   2.706
 6447TIP3    H119305   1.316   6.206   2.802
 6447TIP3    H219306   1.414   6.192   2.687
 6448TIP3   OH219307   6.078   4.405   3.195
 6448TIP3    H119308   6.152   4.398   3.135
 6448TIP3    H219309   6.118   4.406   3.282
 6449TIP3   OH219310   2.870   3.277   1.476
 6449TIP3    H119311   2.799   3.338   1.455
 6449TIP3    H219312   2.841   3.193   1.441
 6450TIP3   OH219313   3.812   2.948   3.632
 6450TIP3    H119314   3.867   2.970   3.558
 6450TIP3    H219315   3.723   2.970   3.604
 6451TIP3   OH219316   5.681   0.766   0.806
 6451TIP3    H119317   5.625   0.749   0.882
 6451TIP3    H219318   5.705   0.678   0.775
 6452TIP3   OH219319   0.068   1.288   5.603
 6452TIP3    H119320   0.017   1.317   5.528
 6452TIP3    H219321   0.132   1.227   5.568
 6453TIP3   OH219322   4.665   3.101   0.312
 6453TIP3    H119323   4.652   3.045   0.389
 6453TIP3    H219324   4.600   3.170   0.321
 6454TIP3   OH219325   6.931   0.711   4.263
 6454TIP3    H119326   6.875   0.690   4.339
 6454TIP3    H219327   6.988   0.635   4.254
 6455TIP3   OH219328   0.794   1.410   4.530
 6455TIP3    H119329   0.851   1.482   4.503
 6455TIP3    H219330   0.809   1.401   4.624
 6456TIP3   OH219331   4.773   1.152   0.782
 6456TIP3    H119332   4.772   1.092   0.708
 6456TIP3    H219333   4.851   1.129   0.831
 6457TIP3   OH219334   2.055   6.531   2.747
 6457TIP3    H119335   2.037   6.618   2.783
 6457TIP3    H219336   2.081   6.478   2.822
 6458TIP3   OH219337   2.102   1.606   2.346
 6458TIP3    H119338   2.102   1.672   2.416
 6458TIP3    H219339   2.014   1.611   2.308
 6459TIP3   OH219340   0.841   1.267   0.328
 6459TIP3    H119341   0.827   1.267   0.423
 6459TIP3    H219342   0.779   1.332   0.294
 6460TIP3   OH219343   6.226   4.415   3.416
 6460TIP3    H119344   6.315   4.415   3.380
 6460TIP3    H219345   6.215   4.327   3.452
 6461TIP3   OH219346   5.849   1.773   1.936
 6461TIP3    H119347   5.817   1.725   1.860
 6461TIP3    H219348   5.884   1.854   1.899
 6462TIP3   OH219349   6.121   3.364   3.563
 6462TIP3    H119350   6.045   3.315   3.593
 6462TIP3    H219351   6.133   3.433   3.628
 6463TIP3   OH219352   1.240   0.586   3.921
 6463TIP3    H119353   1.192   0.536   3.855
 6463TIP3    H219354   1.313   0.625   3.872
 6464TIP3   OH219355   1.587   4.866   5.306
 6464TIP3    H119356   1.679   4.883   5.287
 6464TIP3    H219357   1.574   4.775   5.279
 6465TIP3   OH219358   5.574   4.256   5.485
 6465TIP3    H119359   5.646   4.281   5.542
 6465TIP3    H219360   5.520   4.334   5.478
 6466TIP3   OH219361   1.707   6.599   2.747
 6466TIP3    H119362   1.710   6.693   2.729
 6466TIP3    H219363   1.635   6.566   2.695
 6467TIP3   OH219364   3.936   0.511   4.440
 6467TIP3    H119365   3.932   0.515   4.536
 6467TIP3    H219366   3.967   0.422   4.421
 6468TIP3   OH219367   5.562   1.080   2.294
 6468TIP3    H119368   5.525   1.164   2.323
 6468TIP3    H219369   5.593   1.097   2.205
 6469TIP3   OH219370   3.281   0.945   1.277
 6469TIP3    H119371   3.242   0.858   1.284
 6469TIP3    H219372   3.357   0.932   1.221
 6470TIP3   OH219373   6.507   2.497   0.465
 6470TIP3    H119374   6.505   2.437   0.390
 6470TIP3    H219375   6.583   2.468   0.516
 6471TIP3   OH219376   2.727   5.303   1.271
 6471TIP3    H119377   2.710   5.210   1.259
 6471TIP3    H219378   2.687   5.324   1.356
 6472TIP3   OH219379   6.794   6.004   3.585
 6472TIP3    H119380   6.788   6.074   3.649
 6472TIP3    H219381   6.806   6.049   3.501
 6473TIP3   OH219382   0.696   4.597   5.208
 6473TIP3    H119383   0.632   4.527   5.195
 6473TIP3    H219384   0.779   4.552   5.224
 6474TIP3   OH219385   0.335   3.132   4.625
 6474TIP3    H119386   0.274   3.188   4.578
 6474TIP3    H219387   0.422   3.161   4.596
 6475TIP3   OH219388   3.270   2.768   1.932
 6475TIP3    H119389   3.244   2.681   1.902
 6475TIP3    H219390   3.193   2.823   1.916
 6476TIP3   OH219391   7.098   4.178   4.050
 6476TIP3    H119392   7.162   4.234   4.006
 6476TIP3    H219393   7.144   4.096   4.064
 6477TIP3   OH219394   4.046   0.642   4.234
 6477TIP3    H119395   4.004   0.618   4.317
 6477TIP3    H219396   4.068   0.558   4.194
 6478TIP3   OH219397   6.979   0.327   4.031
 6478TIP3    H119398   6.892   0.322   3.991
 6478TIP3    H219399   7.039   0.303   3.960
 6479TIP3   OH219400   4.307   2.368   5.273
 6479TIP3    H119401   4.383   2.404   5.227
 6479TIP3    H219402   4.307   2.276   5.250
 6480TIP3   OH219403   3.751   0.678   3.857
 6480TIP3    H119404   3.794   0.742   3.913
 6480TIP3    H219405   3.788   0.594   3.885
 6481TIP3   OH219406   1.666   3.543   3.694
 6481TIP3    H119407   1.754   3.548   3.654
 6481TIP3    H219408   1.620   3.619   3.658
 6482TIP3   OH219409   4.418   2.576   4.096
 6482TIP3    H119410   4.448   2.579   4.006
 6482TIP3    H219411   4.330   2.613   4.094
 6483TIP3   OH219412   4.292   1.155   5.181
 6483TIP3    H119413   4.286   1.162   5.277
 6483TIP3    H219414   4.329   1.238   5.153
 6484TIP3   OH219415   3.995   3.022   3.436
 6484TIP3    H119416   4.074   2.998   3.484
 6484TIP3    H219417   4.005   3.116   3.418
 6485TIP3   OH219418   6.766   5.619   1.522
 6485TIP3    H119419   6.684   5.598   1.478
 6485TIP3    H219420   6.825   5.547   1.500
 6486TIP3   OH219421   5.993   6.136   4.364
 6486TIP3    H119422   5.990   6.204   4.431
 6486TIP3    H219423   6.016   6.183   4.283
 6487TIP3   OH219424   1.658   1.973   4.778
 6487TIP3    H119425   1.669   1.933   4.692
 6487TIP3    H219426   1.702   2.057   4.771
 6488TIP3   OH219427   5.539   0.643   5.359
 6488TIP3    H119428   5.548   0.644   5.264
 6488TIP3    H219429   5.626   0.617   5.391
 6489TIP3   OH219430   2.746   5.713   0.489
 6489TIP3    H119431   2.655   5.688   0.471
 6489TIP3    H219432   2.783   5.638   0.536
 6490TIP3   OH219433   0.295   5.241   4.112
 6490TIP3    H119434   0.333   5.208   4.194
 6490TIP3    H219435   0.254   5.165   4.072
 6491TIP3   OH219436   1.413   6.673   3.990
 6491TIP3    H119437   1.406   6.597   4.047
 6491TIP3    H219438   1.362   6.741   4.034
 6492TIP3   OH219439   0.530   0.894   0.525
 6492TIP3    H119440   0.536   0.986   0.550
 6492TIP3    H219441   0.442   0.884   0.488
 6493TIP3   OH219442   1.233   2.739   2.024
 6493TIP3    H119443   1.208   2.677   1.955
 6493TIP3    H219444   1.308   2.699   2.067
 6494TIP3   OH219445   5.491   4.803   3.730
 6494TIP3    H119446   5.426   4.844   3.673
 6494TIP3    H219447   5.497   4.713   3.697
 6495TIP3   OH219448   4.569   2.878   2.492
 6495TIP3    H119449   4.572   2.957   2.438
 6495TIP3    H219450   4.642   2.888   2.553
 6496TIP3   OH219451   0.765   6.545   5.779
 6496TIP3    H119452   0.721   6.535   5.694
 6496TIP3    H219453   0.803   6.459   5.796
 6497TIP3   OH219454   2.877   4.249   5.637
 6497TIP3    H119455   2.924   4.330   5.620
 6497TIP3    H219456   2.914   4.216   5.719
 6498TIP3   OH219457   3.501   6.171   2.570
 6498TIP3    H119458   3.588   6.207   2.553
 6498TIP3    H219459   3.477   6.127   2.489
 6499TIP3   OH219460   3.398   1.860   4.544
 6499TIP3    H119461   3.410   1.772   4.507
 6499TIP3    H219462   3.342   1.846   4.620
 6500TIP3   OH219463   5.279   1.765   1.208
 6500TIP3    H119464   5.312   1.708   1.139
 6500TIP3    H219465   5.268   1.707   1.284
 6501TIP3   OH219466   5.150   5.674   4.783
 6501TIP3    H119467   5.205   5.738   4.828
 6501TIP3    H219468   5.171   5.685   4.691
 6502TIP3   OH219469   2.017   4.858   0.473
 6502TIP3    H119470   1.985   4.814   0.552
 6502TIP3    H219471   2.042   4.787   0.415
 6503TIP3   OH219472   5.491   2.871   2.619
 6503TIP3    H119473   5.525   2.960   2.605
 6503TIP3    H219474   5.488   2.833   2.531
 6504TIP3   OH219475   5.916   2.589   0.285
 6504TIP3    H119476   6.006   2.558   0.292
 6504TIP3    H219477   5.872   2.552   0.362
 6505TIP3   OH219478   6.993   4.876   4.056
 6505TIP3    H119479   6.919   4.832   4.098
 6505TIP3    H219480   7.015   4.819   3.982
 6506TIP3   OH219481   1.867   1.251   2.696
 6506TIP3    H119482   1.826   1.335   2.674
 6506TIP3    H219483   1.890   1.213   2.611
 6507TIP3   OH219484   6.881   5.912   0.433
 6507TIP3    H119485   6.962   5.876   0.397
 6507TIP3    H219486   6.890   5.902   0.528
 6508TIP3   OH219487   3.998   1.323   1.765
 6508TIP3    H119488   3.975   1.254   1.703
 6508TIP3    H219489   3.988   1.404   1.716
 6509TIP3   OH219490   4.128   2.835   5.368
 6509TIP3    H119491   4.102   2.743   5.366
 6509TIP3    H219492   4.123   2.860   5.460
 6510TIP3   OH219493   1.599   6.121   0.010
 6510TIP3    H119494   1.600   6.026   0.013
 6510TIP3    H219495   1.657   6.148   0.081
 6511TIP3   OH219496   5.503   2.868   2.154
 6511TIP3    H119497   5.599   2.868   2.154
 6511TIP3    H219498   5.479   2.784   2.115
 6512TIP3   OH219499   3.362   0.193   1.333
 6512TIP3    H119500   3.379   0.286   1.347
 6512TIP3    H219501   3.326   0.189   1.245
 6513TIP3   OH219502   2.174   4.398   5.210
 6513TIP3    H119503   2.144   4.349   5.286
 6513TIP3    H219504   2.151   4.489   5.229
 6514TIP3   OH219505   5.261   2.625   4.729
 6514TIP3    H119506   5.180   2.674   4.742
 6514TIP3    H219507   5.276   2.581   4.813
 6515TIP3   OH219508   0.730   5.349  -0.008
 6515TIP3    H119509   0.718   5.362  -0.102
 6515TIP3    H219510   0.745   5.437   0.027
 6516TIP3   OH219511   5.323   5.645   2.138
 6516TIP3    H119512   5.386   5.577   2.113
 6516TIP3    H219513   5.285   5.674   2.055
 6517TIP3   OH219514   6.037   5.420   3.954
 6517TIP3    H119515   6.077   5.377   3.879
 6517TIP3    H219516   5.944   5.425   3.932
 6518TIP3   OH219517   2.248   4.924   3.393
 6518TIP3    H119518   2.174   4.983   3.377
 6518TIP3    H219519   2.304   4.972   3.453
 6519TIP3   OH219520   0.349   6.661   4.550
 6519TIP3    H119521   0.324   6.640   4.640
 6519TIP3    H219522   0.278   6.624   4.497
 6520TIP3   OH219523   1.892   4.346   0.034
 6520TIP3    H119524   1.926   4.304   0.113
 6520TIP3    H219525   1.963   4.404   0.004
 6521TIP3   OH219526   0.228   1.391   0.731
 6521TIP3    H119527   0.241   1.421   0.641
 6521TIP3    H219528   0.244   1.297   0.728
 6522TIP3   OH219529   3.039   3.456   1.015
 6522TIP3    H119530   3.115   3.404   0.989
 6522TIP3    H219531   2.968   3.392   1.020
 6523TIP3   OH219532   5.652   4.844   2.006
 6523TIP3    H119533   5.619   4.832   1.917
 6523TIP3    H219534   5.703   4.925   2.002
 6524TIP3   OH219535   5.138   5.021   0.256
 6524TIP3    H119536   5.189   5.071   0.320
 6524TIP3    H219537   5.153   5.066   0.173
 6525TIP3   OH219538   4.747   5.968   2.033
 6525TIP3    H119539   4.678   5.910   1.999
 6525TIP3    H219540   4.784   6.009   1.955
 6526TIP3   OH219541   5.600   5.025   2.231
 6526TIP3    H119542   5.631   4.936   2.218
 6526TIP3    H219543   5.526   5.017   2.290
 6527TIP3   OH219544   2.716   4.000   3.987
 6527TIP3    H119545   2.703   3.907   3.967
 6527TIP3    H219546   2.633   4.028   4.024
 6528TIP3   OH219547   2.890   0.084   3.213
 6528TIP3    H119548   2.813   0.120   3.168
 6528TIP3    H219549   2.932   0.028   3.147
 6529TIP3   OH219550   6.871   0.572   1.051
 6529TIP3    H119551   6.878   0.612   1.138
 6529TIP3    H219552   6.928   0.496   1.054
 6530TIP3   OH219553   3.738   3.966   4.950
 6530TIP3    H119554   3.801   4.034   4.923
 6530TIP3    H219555   3.655   3.994   4.911
 6531TIP3   OH219556   1.317   2.970   3.013
 6531TIP3    H119557   1.350   3.020   2.938
 6531TIP3    H219558   1.258   2.906   2.975
 6532TIP3   OH219559   2.623   6.750   4.956
 6532TIP3    H119560   2.548   6.723   4.902
 6532TIP3    H219561   2.693   6.689   4.932
 6533TIP3   OH219562   1.382   0.029   3.472
 6533TIP3    H119563   1.336   0.032   3.389
 6533TIP3    H219564   1.368  -0.061   3.504
 6534TIP3   OH219565   3.570   2.270   4.448
 6534TIP3    H119566   3.569   2.197   4.510
 6534TIP3    H219567   3.598   2.345   4.501
 6535TIP3   OH219568   3.521   1.421   4.117
 6535TIP3    H119569   3.458   1.382   4.056
 6535TIP3    H219570   3.599   1.365   4.109
 6536TIP3   OH219571   2.558   2.447   3.670
 6536TIP3    H119572   2.481   2.393   3.650
 6536TIP3    H219573   2.569   2.439   3.765
 6537TIP3   OH219574   4.092   0.405   2.046
 6537TIP3    H119575   4.076   0.452   2.128
 6537TIP3    H219576   4.142   0.467   1.992
 6538TIP3   OH219577   3.058   1.659   3.830
 6538TIP3    H119578   3.143   1.661   3.787
 6538TIP3    H219579   3.019   1.576   3.803
 6539TIP3   OH219580   2.472   3.517   3.926
 6539TIP3    H119581   2.438   3.471   3.849
 6539TIP3    H219582   2.397   3.522   3.985
 6540TIP3   OH219583   0.473   1.188   0.586
 6540TIP3    H119584   0.385   1.208   0.554
 6540TIP3    H219585   0.470   1.209   0.680
 6541TIP3   OH219586   0.875   3.224   3.323
 6541TIP3    H119587   0.817   3.194   3.393
 6541TIP3    H219588   0.887   3.148   3.267
 6542TIP3   OH219589   3.992   1.401   5.154
 6542TIP3    H119590   3.996   1.308   5.133
 6542TIP3    H219591   4.069   1.417   5.209
 6543TIP3   OH219592   5.940   0.088   4.169
 6543TIP3    H119593   5.913   0.172   4.133
 6543TIP3    H219594   5.899   0.023   4.111
 6544TIP3   OH219595   2.667   2.907   4.628
 6544TIP3    H119596   2.689   2.999   4.639
 6544TIP3    H219597   2.719   2.877   4.554
 6545TIP3   OH219598   2.118   5.802   5.624
 6545TIP3    H119599   2.038   5.753   5.603
 6545TIP3    H219600   2.087   5.877   5.675
 6546TIP3   OH219601   6.146   0.507   1.727
 6546TIP3    H119602   6.141   0.415   1.704
 6546TIP3    H219603   6.061   0.526   1.768
 6547TIP3   OH219604   5.780   2.922   2.493
 6547TIP3    H119605   5.875   2.915   2.495
 6547TIP3    H219606   5.750   2.832   2.476
 6548TIP3   OH219607   5.378   6.428   1.523
 6548TIP3    H119608   5.338   6.344   1.544
 6548TIP3    H219609   5.447   6.406   1.460
 6549TIP3   OH219610   6.842   2.584   2.432
 6549TIP3    H119611   6.809   2.654   2.488
 6549TIP3    H219612   6.928   2.563   2.469
 6550TIP3   OH219613   1.194   0.229   4.381
 6550TIP3    H119614   1.122   0.178   4.342
 6550TIP3    H219615   1.172   0.320   4.363
 6551TIP3   OH219616   5.248   1.812   0.105
 6551TIP3    H119617   5.223   1.870   0.177
 6551TIP3    H219618   5.169   1.806   0.052
 6552TIP3   OH219619   6.731   6.266   2.428
 6552TIP3    H119620   6.676   6.271   2.506
 6552TIP3    H219621   6.677   6.301   2.358
 6553TIP3   OH219622   0.090   3.003   0.821
 6553TIP3    H119623   0.146   2.959   0.757
 6553TIP3    H219624   0.012   3.029   0.772
 6554TIP3   OH219625   4.893   3.453   2.384
 6554TIP3    H119626   4.933   3.498   2.310
 6554TIP3    H219627   4.875   3.523   2.447
 6555TIP3   OH219628   3.455   0.338   5.730
 6555TIP3    H119629   3.461   0.243   5.744
 6555TIP3    H219630   3.546   0.368   5.727
 6556TIP3   OH219631   0.884   3.674   2.136
 6556TIP3    H119632   0.849   3.702   2.220
 6556TIP3    H219633   0.979   3.669   2.150
 6557TIP3   OH219634   3.168   1.768   5.916
 6557TIP3    H119635   3.128   1.733   5.836
 6557TIP3    H219636   3.251   1.721   5.923
 6558TIP3   OH219637   2.695   4.329   5.125
 6558TIP3    H119638   2.601   4.307   5.127
 6558TIP3    H219639   2.727   4.290   5.043
 6559TIP3   OH219640   5.376   6.015   0.180
 6559TIP3    H119641   5.389   5.923   0.204
 6559TIP3    H219642   5.334   6.012   0.095
 6560TIP3   OH219643   6.665   3.047   1.680
 6560TIP3    H119644   6.654   2.982   1.749
 6560TIP3    H219645   6.700   3.124   1.725
 6561TIP3   OH219646   0.427   6.098   1.986
 6561TIP3    H119647   0.442   6.133   2.074
 6561TIP3    H219648   0.510   6.109   1.941
 6562TIP3   OH219649   1.155   2.883   4.152
 6562TIP3    H119650   1.149   2.821   4.225
 6562TIP3    H219651   1.244   2.917   4.156
 6563TIP3   OH219652   1.181  -0.023   3.939
 6563TIP3    H119653   1.097  -0.063   3.916
 6563TIP3    H219654   1.165   0.071   3.932
 6564TIP3   OH219655   1.886   5.584   0.364
 6564TIP3    H119656   1.981   5.575   0.371
 6564TIP3    H219657   1.852   5.538   0.441
 6565TIP3   OH219658   3.731   0.340   0.909
 6565TIP3    H119659   3.785   0.375   0.980
 6565TIP3    H219660   3.785   0.273   0.869
 6566TIP3   OH219661   4.646   4.357   2.570
 6566TIP3    H119662   4.610   4.426   2.514
 6566TIP3    H219663   4.740   4.372   2.568
 6567TIP3   OH219664   3.807   1.253   2.482
 6567TIP3    H119665   3.776   1.206   2.559
 6567TIP3    H219666   3.902   1.263   2.496
 6568TIP3   OH219667   0.955   6.073   2.902
 6568TIP3    H119668   1.029   6.016   2.881
 6568TIP3    H219669   0.982   6.159   2.871
 6569TIP3   OH219670   5.321   0.646   3.668
 6569TIP3    H119671   5.326   0.739   3.645
 6569TIP3    H219672   5.323   0.600   3.584
 6570TIP3   OH219673   3.125   2.086   4.771
 6570TIP3    H119674   3.203   2.142   4.771
 6570TIP3    H219675   3.159   1.998   4.786
 6571TIP3   OH219676   6.253   5.596   5.355
 6571TIP3    H119677   6.237   5.544   5.276
 6571TIP3    H219678   6.178   5.579   5.412
 6572TIP3   OH219679   6.030   5.187   3.788
 6572TIP3    H119680   5.996   5.228   3.708
 6572TIP3    H219681   6.112   5.146   3.760
 6573TIP3   OH219682   4.973   6.185   5.369
 6573TIP3    H119683   5.039   6.117   5.379
 6573TIP3    H219684   4.893   6.145   5.404
 6574TIP3   OH219685   6.962   4.650   1.881
 6574TIP3    H119686   7.013   4.708   1.824
 6574TIP3    H219687   6.950   4.570   1.830
 6575TIP3   OH219688   6.900   4.375   5.517
 6575TIP3    H119689   6.938   4.293   5.548
 6575TIP3    H219690   6.956   4.443   5.552
 6576TIP3   OH219691   1.763   4.153   1.153
 6576TIP3    H119692   1.684   4.132   1.203
 6576TIP3    H219693   1.755   4.246   1.132
 6577TIP3   OH219694   2.083   5.551   1.505
 6577TIP3    H119695   2.013   5.488   1.491
 6577TIP3    H219696   2.155   5.500   1.542
 6578TIP3   OH219697   4.158   3.366   2.233
 6578TIP3    H119698   4.138   3.277   2.261
 6578TIP3    H219699   4.253   3.368   2.227
 6579TIP3   OH219700   3.431   6.723   3.228
 6579TIP3    H119701   3.404   6.813   3.211
 6579TIP3    H219702   3.380   6.671   3.166
 6580TIP3   OH219703   6.373   0.575   3.812
 6580TIP3    H119704   6.282   0.582   3.783
 6580TIP3    H219705   6.367   0.554   3.905
 6581TIP3   OH219706   5.666   0.247   0.509
 6581TIP3    H119707   5.582   0.281   0.477
 6581TIP3    H219708   5.652   0.152   0.515
 6582TIP3   OH219709   3.789   2.254   4.833
 6582TIP3    H119710   3.798   2.306   4.913
 6582TIP3    H219711   3.725   2.186   4.855
 6583TIP3   OH219712   5.932   3.445   4.104
 6583TIP3    H119713   5.904   3.523   4.152
 6583TIP3    H219714   5.854   3.419   4.054
 6584TIP3   OH219715   2.616   5.964   3.835
 6584TIP3    H119716   2.584   6.023   3.767
 6584TIP3    H219717   2.556   5.978   3.908
 6585TIP3   OH219718   7.031   0.583   5.549
 6585TIP3    H119719   6.945   0.601   5.588
 6585TIP3    H219720   7.045   0.490   5.566
 6586TIP3   OH219721   5.349   4.098   1.900
 6586TIP3    H119722   5.369   4.063   1.987
 6586TIP3    H219723   5.431   4.091   1.852
 6587TIP3   OH219724   2.901   3.861   2.536
 6587TIP3    H119725   2.953   3.936   2.505
 6587TIP3    H219726   2.900   3.869   2.631
 6588TIP3   OH219727   6.144   5.684   0.380
 6588TIP3    H119728   6.111   5.666   0.468
 6588TIP3    H219729   6.163   5.778   0.381
 6589TIP3   OH219730   2.669   4.978   4.906
 6589TIP3    H119731   2.751   5.026   4.897
 6589TIP3    H219732   2.695   4.887   4.920
 6590TIP3   OH219733   6.656   3.149   5.101
 6590TIP3    H119734   6.747   3.160   5.130
 6590TIP3    H219735   6.657   3.177   5.010
 6591TIP3   OH219736   1.802   0.212   2.565
 6591TIP3    H119737   1.761   0.145   2.511
 6591TIP3    H219738   1.772   0.193   2.654
 6592TIP3   OH219739   2.627   2.122   3.671
 6592TIP3    H119740   2.617   2.192   3.607
 6592TIP3    H219741   2.542   2.078   3.672
 6593TIP3   OH219742   3.494   1.181   2.665
 6593TIP3    H119743   3.437   1.127   2.719
 6593TIP3    H219744   3.558   1.217   2.726
 6594TIP3   OH219745   2.410   5.968   2.436
 6594TIP3    H119746   2.336   5.940   2.491
 6594TIP3    H219747   2.376   6.043   2.388
 6595TIP3   OH219748   5.502   6.038   1.359
 6595TIP3    H119749   5.430   6.041   1.422
 6595TIP3    H219750   5.463   6.000   1.280
 6596TIP3   OH219751   6.311   3.300   0.092
 6596TIP3    H119752   6.253   3.358   0.141
 6596TIP3    H219753   6.266   3.285   0.009
 6597TIP3   OH219754   6.273   0.283   3.903
 6597TIP3    H119755   6.279   0.217   3.834
 6597TIP3    H219756   6.192   0.330   3.884
 6598TIP3   OH219757   4.839   1.469   4.292
 6598TIP3    H119758   4.789   1.387   4.290
 6598TIP3    H219759   4.773   1.537   4.283
 6599TIP3   OH219760   3.431   4.663   4.334
 6599TIP3    H119761   3.373   4.588   4.318
 6599TIP3    H219762   3.394   4.704   4.413
 6600TIP3   OH219763   6.168   6.634   1.072
 6600TIP3    H119764   6.208   6.661   1.155
 6600TIP3    H219765   6.185   6.707   1.012
 6601TIP3   OH219766   7.223   0.951   4.073
 6601TIP3    H119767   7.179   1.025   4.031
 6601TIP3    H219768   7.252   0.896   4.000
 6602TIP3   OH219769   2.275   1.393   2.372
 6602TIP3    H119770   2.362   1.433   2.377
 6602TIP3    H219771   2.217   1.466   2.352
 6603TIP3   OH219772   6.622   5.158   1.274
 6603TIP3    H119773   6.554   5.191   1.216
 6603TIP3    H219774   6.580   5.088   1.324
 6604TIP3   OH219775   4.004   1.175   1.155
 6604TIP3    H119776   3.969   1.224   1.230
 6604TIP3    H219777   4.006   1.084   1.185
 6605TIP3   OH219778   4.509   0.789   0.495
 6605TIP3    H119779   4.467   0.870   0.524
 6605TIP3    H219780   4.506   0.732   0.572
 6606TIP3   OH219781   2.530   2.115   3.142
 6606TIP3    H119782   2.461   2.056   3.173
 6606TIP3    H219783   2.504   2.136   3.052
 6607TIP3   OH219784   1.012   1.441   1.360
 6607TIP3    H119785   1.079   1.452   1.292
 6607TIP3    H219786   0.970   1.526   1.366
 6608TIP3   OH219787   1.671   0.338   5.806
 6608TIP3    H119788   1.575   0.330   5.806
 6608TIP3    H219789   1.690   0.393   5.882
 6609TIP3   OH219790   0.700   6.190   4.171
 6609TIP3    H119791   0.629   6.193   4.107
 6609TIP3    H219792   0.708   6.279   4.204
 6610TIP3   OH219793   0.056   5.903   4.558
 6610TIP3    H119794   0.130   5.901   4.498
 6610TIP3    H219795  -0.020   5.881   4.504
 6611TIP3   OH219796   4.633   0.875   2.583
 6611TIP3    H119797   4.554   0.869   2.637
 6611TIP3    H219798   4.622   0.807   2.517
 6612TIP3   OH219799   1.658   2.855   1.624
 6612TIP3    H119800   1.661   2.903   1.542
 6612TIP3    H219801   1.591   2.899   1.675
 6613TIP3   OH219802   3.943   1.971   5.187
 6613TIP3    H119803   4.019   2.027   5.169
 6613TIP3    H219804   3.944   1.907   5.116
 6614TIP3   OH219805   5.155   6.479   3.233
 6614TIP3    H119806   5.076   6.490   3.179
 6614TIP3    H219807   5.226   6.473   3.170
 6615TIP3   OH219808   0.169   0.930   0.092
 6615TIP3    H119809   0.103   0.982   0.138
 6615TIP3    H219810   0.152   0.840   0.120
 6616TIP3   OH219811   6.972   6.188   3.127
 6616TIP3    H119812   7.061   6.196   3.162
 6616TIP3    H219813   6.979   6.123   3.058
 6617TIP3   OH219814   7.073   5.154   0.695
 6617TIP3    H119815   7.077   5.058   0.691
 6617TIP3    H219816   7.134   5.184   0.627
 6618TIP3   OH219817   2.592   2.798   2.550
 6618TIP3    H119818   2.604   2.825   2.641
 6618TIP3    H219819   2.526   2.858   2.516
 6619TIP3   OH219820   6.433   1.795   0.360
 6619TIP3    H119821   6.396   1.856   0.424
 6619TIP3    H219822   6.357   1.765   0.310
 6620TIP3   OH219823   4.226   1.373   3.608
 6620TIP3    H119824   4.167   1.404   3.539
 6620TIP3    H219825   4.234   1.448   3.667
 6621TIP3   OH219826   3.229   5.476   4.424
 6621TIP3    H119827   3.237   5.381   4.416
 6621TIP3    H219828   3.155   5.489   4.484
 6622TIP3   OH219829   6.406   0.916   4.459
 6622TIP3    H119830   6.471   0.985   4.447
 6622TIP3    H219831   6.339   0.934   4.393
 6623TIP3   OH219832   4.449   3.951   0.715
 6623TIP3    H119833   4.527   3.916   0.759
 6623TIP3    H219834   4.481   4.025   0.663
 6624TIP3   OH219835   0.017   1.855   0.576
 6624TIP3    H119836   0.106   1.828   0.598
 6624TIP3    H219837  -0.011   1.909   0.650
 6625TIP3   OH219838   5.542   6.544   1.724
 6625TIP3    H119839   5.464   6.557   1.670
 6625TIP3    H219840   5.573   6.457   1.701
 6626TIP3   OH219841   1.688   1.384   2.076
 6626TIP3    H119842   1.757   1.410   2.137
 6626TIP3    H219843   1.611   1.433   2.105
 6627TIP3   OH219844   5.514   4.787   4.448
 6627TIP3    H119845   5.578   4.741   4.394
 6627TIP3    H219846   5.566   4.839   4.508
 6628TIP3   OH219847   3.383   5.302   3.922
 6628TIP3    H119848   3.448   5.314   3.991
 6628TIP3    H219849   3.428   5.327   3.841
 6629TIP3   OH219850   0.888   5.972   0.866
 6629TIP3    H119851   0.899   6.067   0.868
 6629TIP3    H219852   0.866   5.948   0.956
 6630TIP3   OH219853   0.831   3.186   4.987
 6630TIP3    H119854   0.738   3.192   5.009
 6630TIP3    H219855   0.870   3.265   5.026
 6631TIP3   OH219856   0.889   4.580   3.626
 6631TIP3    H119857   0.814   4.567   3.685
 6631TIP3    H219858   0.958   4.526   3.663
 6632TIP3   OH219859   7.105   0.598   2.032
 6632TIP3    H119860   7.043   0.576   2.101
 6632TIP3    H219861   7.173   0.530   2.039
 6633TIP3   OH219862   2.254   3.704   0.403
 6633TIP3    H119863   2.214   3.676   0.485
 6633TIP3    H219864   2.324   3.763   0.429
 6634TIP3   OH219865   2.988   2.001   0.871
 6634TIP3    H119866   2.893   1.987   0.872
 6634TIP3    H219867   3.003   2.056   0.794
 6635TIP3   OH219868   2.347   4.782   0.967
 6635TIP3    H119869   2.413   4.712   0.975
 6635TIP3    H219870   2.308   4.768   0.880
 6636TIP3   OH219871   1.696   1.618   4.011
 6636TIP3    H119872   1.633   1.665   4.066
 6636TIP3    H219873   1.643   1.559   3.958
 6637TIP3   OH219874   0.582   3.894   3.594
 6637TIP3    H119875   0.662   3.845   3.613
 6637TIP3    H219876   0.595   3.928   3.505
 6638TIP3   OH219877   7.071   0.614   0.866
 6638TIP3    H119878   6.993   0.611   0.921
 6638TIP3    H219879   7.134   0.558   0.911
 6639TIP3   OH219880   6.632   4.233   3.289
 6639TIP3    H119881   6.684   4.213   3.212
 6639TIP3    H219882   6.614   4.148   3.329
 6640TIP3   OH219883   4.302   4.632   5.568
 6640TIP3    H119884   4.385   4.606   5.610
 6640TIP3    H219885   4.254   4.550   5.559
 6641TIP3   OH219886   4.013   6.148   5.708
 6641TIP3    H119887   4.092   6.155   5.761
 6641TIP3    H219888   3.948   6.107   5.766
 6642TIP3   OH219889   6.571   0.495   4.103
 6642TIP3    H119890   6.647   0.536   4.061
 6642TIP3    H219891   6.504   0.563   4.104
 6643TIP3   OH219892   0.771   5.558   0.198
 6643TIP3    H119893   0.799   5.612   0.125
 6643TIP3    H219894   0.690   5.598   0.228
 6644TIP3   OH219895   3.094   3.602   0.655
 6644TIP3    H119896   3.151   3.674   0.632
 6644TIP3    H219897   3.134   3.563   0.733
 6645TIP3   OH219898   4.835   0.732   4.612
 6645TIP3    H119899   4.742   0.745   4.631
 6645TIP3    H219900   4.879   0.747   4.695
 6646TIP3   OH219901   2.205   0.543   4.589
 6646TIP3    H119902   2.275   0.552   4.654
 6646TIP3    H219903   2.161   0.462   4.612
 6647TIP3   OH219904   5.644   0.351   4.992
 6647TIP3    H119905   5.567   0.337   4.937
 6647TIP3    H219906   5.708   0.288   4.960
 6648TIP3   OH219907   0.306   0.433   2.501
 6648TIP3    H119908   0.244   0.448   2.430
 6648TIP3    H219909   0.391   0.424   2.458
 6649TIP3   OH219910   2.531   5.802   2.239
 6649TIP3    H119911   2.491   5.723   2.275
 6649TIP3    H219912   2.498   5.872   2.296
 6650TIP3   OH219913   5.549   0.756   5.882
 6650TIP3    H119914   5.474   0.732   5.936
 6650TIP3    H219915   5.519   0.832   5.832
 6651TIP3   OH219916   5.018   2.481   0.410
 6651TIP3    H119917   5.093   2.490   0.352
 6651TIP3    H219918   4.998   2.570   0.438
 6652TIP3   OH219919   6.591   4.664   4.800
 6652TIP3    H119920   6.585   4.579   4.757
 6652TIP3    H219921   6.596   4.727   4.729
 6653TIP3   OH219922   0.432   2.243   3.349
 6653TIP3    H119923   0.396   2.254   3.261
 6653TIP3    H219924   0.382   2.170   3.386
 6654TIP3   OH219925   2.127   3.341   1.886
 6654TIP3    H119926   2.033   3.360   1.878
 6654TIP3    H219927   2.158   3.402   1.952
 6655TIP3   OH219928   4.682   4.135   2.083
 6655TIP3    H119929   4.594   4.101   2.063
 6655TIP3    H219930   4.696   4.205   2.019
 6656TIP3   OH219931   3.889   1.873   2.359
 6656TIP3    H119932   3.892   1.793   2.306
 6656TIP3    H219933   3.889   1.944   2.296
 6657TIP3   OH219934   3.981   0.454   5.265
 6657TIP3    H119935   4.048   0.465   5.197
 6657TIP3    H219936   3.951   0.542   5.284
 6658TIP3   OH219937   2.597   6.327   1.609
 6658TIP3    H119938   2.505   6.317   1.631
 6658TIP3    H219939   2.621   6.244   1.567
 6659TIP3   OH219940   7.022   6.206   4.941
 6659TIP3    H119941   6.945   6.154   4.916
 6659TIP3    H219942   7.095   6.162   4.898
 6660TIP3   OH219943   3.625   5.416   5.681
 6660TIP3    H119944   3.711   5.419   5.640
 6660TIP3    H219945   3.638   5.365   5.761
 6661TIP3   OH219946   0.011   2.668   3.724
 6661TIP3    H119947   0.071   2.635   3.657
 6661TIP3    H219948  -0.014   2.755   3.692
 6662TIP3   OH219949   5.558   4.567   3.601
 6662TIP3    H119950   5.631   4.588   3.659
 6662TIP3    H219951   5.567   4.473   3.586
 6663TIP3   OH219952   5.405   4.535   3.302
 6663TIP3    H119953   5.381   4.592   3.376
 6663TIP3    H219954   5.479   4.484   3.334
 6664TIP3   OH219955   0.207   5.866   3.139
 6664TIP3    H119956   0.300   5.890   3.132
 6664TIP3    H219957   0.160   5.945   3.115
 6665TIP3   OH219958   1.345   2.257   0.557
 6665TIP3    H119959   1.409   2.250   0.628
 6665TIP3    H219960   1.273   2.199   0.583
 6666TIP3   OH219961   5.014   3.124   0.691
 6666TIP3    H119962   5.054   3.090   0.772
 6666TIP3    H219963   4.920   3.112   0.705
 6667TIP3   OH219964   0.921   4.799   4.476
 6667TIP3    H119965   0.830   4.811   4.502
 6667TIP3    H219966   0.925   4.833   4.386
 6668TIP3   OH219967   6.109   6.313   0.569
 6668TIP3    H119968   6.032   6.364   0.595
 6668TIP3    H219969   6.124   6.252   0.641
 6669TIP3   OH219970   6.242   1.844   5.575
 6669TIP3    H119971   6.185   1.885   5.510
 6669TIP3    H219972   6.196   1.855   5.658
 6670TIP3   OH219973   1.442   6.058   0.864
 6670TIP3    H119974   1.434   6.075   0.770
 6670TIP3    H219975   1.500   5.982   0.869
 6671TIP3   OH219976   3.148   2.170   1.035
 6671TIP3    H119977   3.095   2.107   1.085
 6671TIP3    H219978   3.134   2.145   0.944
 6672TIP3   OH219979   4.302   6.819   4.826
 6672TIP3    H119980   4.268   6.810   4.737
 6672TIP3    H219981   4.244   6.765   4.879
 6673TIP3   OH219982   3.383   2.682   1.005
 6673TIP3    H119983   3.361   2.588   1.002
 6673TIP3    H219984   3.461   2.689   0.951
 6674TIP3   OH219985   0.239   3.902   5.279
 6674TIP3    H119986   0.242   3.994   5.253
 6674TIP3    H219987   0.147   3.887   5.302
 6675TIP3   OH219988   3.865   6.293   0.203
 6675TIP3    H119989   3.784   6.287   0.152
 6675TIP3    H219990   3.873   6.208   0.246
 6676TIP3   OH219991   4.659   3.993   1.726
 6676TIP3    H119992   4.665   4.030   1.638
 6676TIP3    H219993   4.624   4.064   1.780
 6677TIP3   OH219994   6.689   0.823   5.160
 6677TIP3    H119995   6.764   0.881   5.148
 6677TIP3    H219996   6.613   0.876   5.135
 6678TIP3   OH219997   0.471   6.328   2.181
 6678TIP3    H119998   0.379   6.316   2.207
 6678TIP3    H219999   0.472   6.413   2.138
 6679TIP3   OH220000   4.743   0.990   5.302
 6679TIP3    H120001   4.716   1.074   5.264
 6679TIP3    H220002   4.661   0.942   5.314
 6680TIP3   OH220003   5.974   1.819   3.872
 6680TIP3    H120004   6.051   1.821   3.816
 6680TIP3    H220005   5.990   1.747   3.933
 6681TIP3   OH220006   2.994   4.064   1.451
 6681TIP3    H120007   3.021   4.142   1.403
 6681TIP3    H220008   3.036   3.991   1.404
 6682TIP3   OH220009   1.691   3.950   3.885
 6682TIP3    H120010   1.705   4.015   3.954
 6682TIP3    H220011   1.752   3.879   3.906
 6683TIP3   OH220012   1.231   1.942   4.856
 6683TIP3    H120013   1.303   1.880   4.863
 6683TIP3    H220014   1.223   1.960   4.763
 6684TIP3   OH220015   2.920   2.413   2.215
 6684TIP3    H120016   2.877   2.337   2.255
 6684TIP3    H220017   2.903   2.485   2.277
 6685TIP3   OH220018   0.977   2.515   4.377
 6685TIP3    H120019   0.940   2.555   4.298
 6685TIP3    H220020   1.010   2.589   4.428
 6686TIP3   OH220021   4.444   1.348   5.732
 6686TIP3    H120022   4.477   1.393   5.810
 6686TIP3    H220023   4.521   1.300   5.699
 6687TIP3   OH220024   6.956   4.691   0.872
 6687TIP3    H120025   6.911   4.708   0.954
 6687TIP3    H220026   6.886   4.673   0.809
 6688TIP3   OH220027   6.101   5.874   4.350
 6688TIP3    H120028   6.091   5.966   4.373
 6688TIP3    H220029   6.139   5.874   4.263
 6689TIP3   OH220030   6.916   3.123   5.248
 6689TIP3    H120031   6.857   3.145   5.320
 6689TIP3    H220032   6.971   3.201   5.237
 6690TIP3   OH220033   2.406   2.967   1.925
 6690TIP3    H120034   2.340   2.931   1.867
 6690TIP3    H220035   2.488   2.927   1.897
 6691TIP3   OH220036   7.144   6.483   5.313
 6691TIP3    H120037   7.116   6.395   5.287
 6691TIP3    H220038   7.222   6.501   5.260
 6692TIP3   OH220039   2.500   6.658   1.175
 6692TIP3    H120040   2.489   6.563   1.166
 6692TIP3    H220041   2.582   6.668   1.224
 6693TIP3   OH220042   6.536   1.812   4.989
 6693TIP3    H120043   6.559   1.741   5.049
 6693TIP3    H220044   6.590   1.796   4.911
 6694TIP3   OH220045   3.236   2.719   3.781
 6694TIP3    H120046   3.153   2.675   3.763
 6694TIP3    H220047   3.301   2.649   3.785
 6695TIP3   OH220048   5.348   1.219   1.661
 6695TIP3    H120049   5.305   1.291   1.707
 6695TIP3    H220050   5.349   1.148   1.725
 6696TIP3   OH220051   2.078   0.434   3.743
 6696TIP3    H120052   2.104   0.488   3.818
 6696TIP3    H220053   2.134   0.463   3.671
 6697TIP3   OH220054   0.131   1.399   2.146
 6697TIP3    H120055   0.211   1.448   2.127
 6697TIP3    H220056   0.161   1.310   2.167
 6698TIP3   OH220057   3.142   1.098   1.470
 6698TIP3    H120058   3.198   1.039   1.420
 6698TIP3    H220059   3.148   1.181   1.424
 6699TIP3   OH220060   5.295   2.016   3.302
 6699TIP3    H120061   5.241   1.975   3.370
 6699TIP3    H220062   5.378   2.036   3.346
 6700TIP3   OH220063   6.541   0.381   5.278
 6700TIP3    H120064   6.589   0.465   5.282
 6700TIP3    H220065   6.528   0.366   5.185
 6701TIP3   OH220066   5.776   2.416   0.466
 6701TIP3    H120067   5.843   2.433   0.532
 6701TIP3    H220068   5.727   2.341   0.500
 6702TIP3   OH220069   6.047   5.562   0.889
 6702TIP3    H120070   6.053   5.588   0.981
 6702TIP3    H220071   5.983   5.491   0.888
 6703TIP3   OH220072   2.760   2.555   5.338
 6703TIP3    H120073   2.666   2.535   5.338
 6703TIP3    H220074   2.768   2.633   5.284
 6704TIP3   OH220075   1.338   1.109   3.338
 6704TIP3    H120076   1.300   1.029   3.375
 6704TIP3    H220077   1.433   1.093   3.340
 6705TIP3   OH220078   6.774   0.206   3.874
 6705TIP3    H120079   6.795   0.236   3.786
 6705TIP3    H220080   6.679   0.214   3.880
 6706TIP3   OH220081   0.208   6.554   1.242
 6706TIP3    H120082   0.270   6.482   1.227
 6706TIP3    H220083   0.251   6.608   1.309
 6707TIP3   OH220084   4.452   4.289   4.044
 6707TIP3    H120085   4.497   4.288   3.959
 6707TIP3    H220086   4.361   4.311   4.023
 6708TIP3   OH220087   0.899   6.798   5.248
 6708TIP3    H120088   0.925   6.793   5.340
 6708TIP3    H220089   0.823   6.739   5.241
 6709TIP3   OH220090   0.295   3.908   3.504
 6709TIP3    H120091   0.239   3.983   3.526
 6709TIP3    H220092   0.379   3.928   3.544
 6710TIP3   OH220093   4.399   6.322   4.910
 6710TIP3    H120094   4.376   6.387   4.843
 6710TIP3    H220095   4.494   6.328   4.918
 6711TIP3   OH220096   2.762   1.693   5.341
 6711TIP3    H120097   2.674   1.710   5.306
 6711TIP3    H220098   2.779   1.767   5.399
 6712TIP3   OH220099   5.095   2.249   0.188
 6712TIP3    H120100   5.002   2.265   0.198
 6712TIP3    H220101   5.131   2.333   0.159
 6713TIP3   OH220102   0.200   0.987   0.938
 6713TIP3    H120103   0.105   0.982   0.933
 6713TIP3    H220104   0.218   1.026   1.023
 6714TIP3   OH220105   4.422   5.009   2.989
 6714TIP3    H120106   4.440   4.964   2.906
 6714TIP3    H220107   4.387   4.940   3.046
 6715TIP3   OH220108   1.907   5.439   2.401
 6715TIP3    H120109   1.990   5.391   2.400
 6715TIP3    H220110   1.878   5.438   2.310
 6716TIP3   OH220111   2.615   0.728   2.564
 6716TIP3    H120112   2.699   0.771   2.583
 6716TIP3    H220113   2.556   0.761   2.631
 6717TIP3   OH220114   5.701   3.940   0.591
 6717TIP3    H120115   5.649   3.906   0.664
 6717TIP3    H220116   5.645   4.006   0.550
 6718TIP3   OH220117   2.413   2.599   2.900
 6718TIP3    H120118   2.490   2.549   2.925
 6718TIP3    H220119   2.404   2.587   2.806
 6719TIP3   OH220120   3.435   2.932   0.509
 6719TIP3    H120121   3.510   2.892   0.465
 6719TIP3    H220122   3.448   3.026   0.499
 6720TIP3   OH220123   0.260   5.922   0.202
 6720TIP3    H120124   0.206   5.993   0.167
 6720TIP3    H220125   0.299   5.958   0.281
 6721TIP3   OH220126   6.580   0.762   3.797
 6721TIP3    H120127   6.523   0.692   3.829
 6721TIP3    H220128   6.636   0.783   3.871
 6722TIP3   OH220129   3.803   0.360   2.619
 6722TIP3    H120130   3.750   0.280   2.622
 6722TIP3    H220131   3.880   0.339   2.673
 6723TIP3   OH220132   3.885   1.789   0.495
 6723TIP3    H120133   3.902   1.854   0.427
 6723TIP3    H220134   3.811   1.738   0.461
 6724TIP3   OH220135   4.793   2.617   4.742
 6724TIP3    H120136   4.869   2.673   4.754
 6724TIP3    H220137   4.719   2.678   4.734
 6725TIP3   OH220138   4.730   6.547   4.449
 6725TIP3    H120139   4.820   6.527   4.426
 6725TIP3    H220140   4.680   6.530   4.369
 6726TIP3   OH220141   2.492   0.168   0.349
 6726TIP3    H120142   2.522   0.157   0.439
 6726TIP3    H220143   2.568   0.199   0.301
 6727TIP3   OH220144   1.936   3.671   0.301
 6727TIP3    H120145   2.024   3.655   0.335
 6727TIP3    H220146   1.898   3.734   0.362
 6728TIP3   OH220147   0.915   5.675   3.526
 6728TIP3    H120148   0.953   5.756   3.558
 6728TIP3    H220149   0.893   5.626   3.605
 6729TIP3   OH220150   2.754   2.340   4.716
 6729TIP3    H120151   2.706   2.347   4.633
 6729TIP3    H220152   2.820   2.273   4.699
 6730TIP3   OH220153   6.158   1.216   5.517
 6730TIP3    H120154   6.108   1.265   5.452
 6730TIP3    H220155   6.201   1.147   5.468
 6731TIP3   OH220156   1.349   3.165   4.290
 6731TIP3    H120157   1.261   3.191   4.264
 6731TIP3    H220158   1.370   3.090   4.235
 6732TIP3   OH220159   3.019   3.384   3.878
 6732TIP3    H120160   3.031   3.329   3.801
 6732TIP3    H220161   3.079   3.348   3.943
 6733TIP3   OH220162   2.678   0.167   2.812
 6733TIP3    H120163   2.701   0.076   2.830
 6733TIP3    H220164   2.757   0.216   2.833
 6734TIP3   OH220165   3.443   6.269   1.781
 6734TIP3    H120166   3.395   6.196   1.820
 6734TIP3    H220167   3.534   6.255   1.809
 6735TIP3   OH220168   3.577   4.451   3.905
 6735TIP3    H120169   3.578   4.368   3.953
 6735TIP3    H220170   3.591   4.426   3.814
 6736TIP3   OH220171   6.777   6.099   4.910
 6736TIP3    H120172   6.685   6.089   4.936
 6736TIP3    H220173   6.807   6.010   4.893
 6737TIP3   OH220174   0.538   2.587   4.636
 6737TIP3    H120175   0.605   2.557   4.697
 6737TIP3    H220176   0.474   2.515   4.633
 6738TIP3   OH220177   4.747   3.808   1.144
 6738TIP3    H120178   4.789   3.780   1.226
 6738TIP3    H220179   4.703   3.890   1.167
 6739TIP3   OH220180   0.066   3.064   1.771
 6739TIP3    H120181   0.063   3.052   1.865
 6739TIP3    H220182   0.000   3.004   1.736
 6740TIP3   OH220183   6.182   6.218   2.906
 6740TIP3    H120184   6.237   6.146   2.939
 6740TIP3    H220185   6.137   6.251   2.984
 6741TIP3   OH220186   1.143   5.044   1.773
 6741TIP3    H120187   1.217   4.995   1.806
 6741TIP3    H220188   1.180   5.104   1.708
 6742TIP3   OH220189   4.481   2.715   1.205
 6742TIP3    H120190   4.492   2.775   1.131
 6742TIP3    H220191   4.392   2.731   1.236
 6743TIP3   OH220192   1.125   6.454   0.531
 6743TIP3    H120193   1.113   6.515   0.457
 6743TIP3    H220194   1.109   6.508   0.609
 6744TIP3   OH220195   2.841   2.295   1.661
 6744TIP3    H120196   2.793   2.277   1.742
 6744TIP3    H220197   2.838   2.212   1.613
 6745TIP3   OH220198   5.131   4.997   2.304
 6745TIP3    H120199   5.080   5.070   2.267
 6745TIP3    H220200   5.126   4.928   2.237
 6746TIP3   OH220201   3.041   3.244   0.708
 6746TIP3    H120202   3.052   3.149   0.701
 6746TIP3    H220203   2.959   3.262   0.663
 6747TIP3   OH220204   4.438   6.013   1.862
 6747TIP3    H120205   4.506   6.019   1.796
 6747TIP3    H220206   4.450   6.091   1.916
 6748TIP3   OH220207   4.101   4.550   2.519
 6748TIP3    H120208   4.060   4.620   2.467
 6748TIP3    H220209   4.072   4.470   2.476
 6749TIP3   OH220210   6.715   1.229   4.134
 6749TIP3    H120211   6.698   1.294   4.065
 6749TIP3    H220212   6.795   1.260   4.177
 6750TIP3   OH220213   2.301   1.838   2.117
 6750TIP3    H120214   2.209   1.862   2.131
 6750TIP3    H220215   2.333   1.903   2.054
 6751TIP3   OH220216   1.481   5.249   3.119
 6751TIP3    H120217   1.573   5.274   3.127
 6751TIP3    H220218   1.455   5.224   3.207
 6752TIP3   OH220219   1.376   5.122   0.306
 6752TIP3    H120220   1.420   5.186   0.362
 6752TIP3    H220221   1.369   5.165   0.221
 6753TIP3   OH220222   5.594   5.060   4.728
 6753TIP3    H120223   5.647   5.140   4.736
 6753TIP3    H220224   5.642   4.994   4.778
 6754TIP3   OH220225   5.487   2.773   4.646
 6754TIP3    H120226   5.399   2.748   4.675
 6754TIP3    H220227   5.541   2.697   4.666
 6755TIP3   OH220228   1.218   0.783   3.076
 6755TIP3    H120229   1.311   0.795   3.056
 6755TIP3    H220230   1.173   0.801   2.993
 6756TIP3   OH220231   6.231   2.084   3.362
 6756TIP3    H120232   6.225   2.011   3.423
 6756TIP3    H220233   6.305   2.136   3.394
 6757TIP3   OH220234   1.205   5.374   1.823
 6757TIP3    H120235   1.166   5.437   1.884
 6757TIP3    H220236   1.220   5.423   1.743
 6758TIP3   OH220237   3.148   5.517   4.883
 6758TIP3    H120238   3.218   5.557   4.935
 6758TIP3    H220239   3.077   5.581   4.884
 6759TIP3   OH220240   0.913   0.167   4.355
 6759TIP3    H120241   0.888   0.256   4.331
 6759TIP3    H220242   0.850   0.141   4.423
 6760TIP3   OH220243   1.747   1.480   4.539
 6760TIP3    H120244   1.744   1.414   4.469
 6760TIP3    H220245   1.670   1.534   4.524
 6761TIP3   OH220246   4.506   4.944   4.852
 6761TIP3    H120247   4.493   4.976   4.941
 6761TIP3    H220248   4.599   4.922   4.848
 6762TIP3   OH220249   5.287   3.252   5.117
 6762TIP3    H120250   5.352   3.313   5.151
 6762TIP3    H220251   5.243   3.217   5.195
 6763TIP3   OH220252   1.672   4.231   0.565
 6763TIP3    H120253   1.730   4.165   0.603
 6763TIP3    H220254   1.584   4.204   0.593
 6764TIP3   OH220255   6.701   4.474   0.104
 6764TIP3    H120256   6.675   4.562   0.078
 6764TIP3    H220257   6.630   4.444   0.161
 6765TIP3   OH220258   3.870   2.352   1.986
 6765TIP3    H120259   3.886   2.446   1.979
 6765TIP3    H220260   3.787   2.345   2.033
 6766TIP3   OH220261   4.145   1.045   2.524
 6766TIP3    H120262   4.231   1.018   2.491
 6766TIP3    H220263   4.124   0.981   2.591
 6767TIP3   OH220264   3.188   1.420   5.581
 6767TIP3    H120265   3.217   1.385   5.497
 6767TIP3    H220266   3.251   1.488   5.603
 6768TIP3   OH220267   4.696   1.211   5.134
 6768TIP3    H120268   4.782   1.253   5.128
 6768TIP3    H220269   4.642   1.259   5.072
 6769TIP3   OH220270   1.448   5.648   0.456
 6769TIP3    H120271   1.367   5.684   0.418
 6769TIP3    H220272   1.515   5.667   0.390
 6770TIP3   OH220273   4.887   1.876   4.972
 6770TIP3    H120274   4.937   1.956   4.956
 6770TIP3    H220275   4.819   1.876   4.905
 6771TIP3   OH220276   0.676   0.477   2.916
 6771TIP3    H120277   0.619   0.403   2.939
 6771TIP3    H220278   0.615   0.547   2.894
 6772TIP3   OH220279   0.945   6.322   5.321
 6772TIP3    H120280   0.964   6.410   5.355
 6772TIP3    H220281   0.869   6.293   5.370
 6773TIP3   OH220282   4.990   1.147   2.162
 6773TIP3    H120283   5.011   1.241   2.160
 6773TIP3    H220284   4.979   1.123   2.071
 6774TIP3   OH220285   6.483   4.561   4.384
 6774TIP3    H120286   6.559   4.507   4.363
 6774TIP3    H220287   6.511   4.613   4.459
 6775TIP3   OH220288   1.477   2.669   4.186
 6775TIP3    H120289   1.399   2.678   4.132
 6775TIP3    H220290   1.550   2.677   4.126
 6776TIP3   OH220291   0.629   2.057   0.376
 6776TIP3    H120292   0.707   2.113   0.384
 6776TIP3    H220293   0.616   2.048   0.282
 6777TIP3   OH220294   4.543   2.720   5.454
 6777TIP3    H120295   4.474   2.667   5.493
 6777TIP3    H220296   4.497   2.786   5.402
 6778TIP3   OH220297   6.228   1.484   3.306
 6778TIP3    H120298   6.299   1.542   3.277
 6778TIP3    H220299   6.257   1.396   3.280
 6779TIP3   OH220300   0.410   1.176   5.354
 6779TIP3    H120301   0.477   1.111   5.332
 6779TIP3    H220302   0.459   1.258   5.362
 6780TIP3   OH220303   3.635   2.129   1.431
 6780TIP3    H120304   3.680   2.130   1.347
 6780TIP3    H220305   3.607   2.038   1.443
 6781TIP3   OH220306   1.519   3.926   1.649
 6781TIP3    H120307   1.613   3.937   1.658
 6781TIP3    H220308   1.483   4.014   1.654
 6782TIP3   OH220309   5.627   3.435   4.746
 6782TIP3    H120310   5.601   3.454   4.656
 6782TIP3    H220311   5.718   3.466   4.751
 6783TIP3   OH220312   3.486   0.826   1.498
 6783TIP3    H120313   3.500   0.775   1.578
 6783TIP3    H220314   3.528   0.775   1.429
 6784TIP3   OH220315   4.252   3.087   1.420
 6784TIP3    H120316   4.222   3.171   1.385
 6784TIP3    H220317   4.186   3.063   1.485
 6785TIP3   OH220318   5.802   5.742   3.698
 6785TIP3    H120319   5.724   5.780   3.738
 6785TIP3    H220320   5.820   5.799   3.623
 6786TIP3   OH220321   6.999   6.350   2.367
 6786TIP3    H120322   7.003   6.394   2.452
 6786TIP3    H220323   6.908   6.320   2.361
 6787TIP3   OH220324   4.099   5.037   3.191
 6787TIP3    H120325   4.123   5.062   3.101
 6787TIP3    H220326   4.182   5.038   3.239
 6788TIP3   OH220327   7.078   1.448   1.694
 6788TIP3    H120328   7.096   1.405   1.778
 6788TIP3    H220329   7.020   1.521   1.717
 6789TIP3   OH220330   5.122   0.105   3.951
 6789TIP3    H120331   5.182   0.033   3.931
 6789TIP3    H220332   5.045   0.062   3.989
 6790TIP3   OH220333   4.126   1.869   5.739
 6790TIP3    H120334   4.182   1.942   5.762
 6790TIP3    H220335   4.147   1.850   5.648
 6791TIP3   OH220336   1.504   0.790   4.654
 6791TIP3    H120337   1.447   0.860   4.687
 6791TIP3    H220338   1.448   0.713   4.649
 6792TIP3   OH220339   5.574   3.782   2.975
 6792TIP3    H120340   5.639   3.850   2.993
 6792TIP3    H220341   5.494   3.813   3.017
 6793TIP3   OH220342   6.186   3.107   3.105
 6793TIP3    H120343   6.191   3.200   3.128
 6793TIP3    H220344   6.232   3.063   3.177
 6794TIP3   OH220345   2.774   0.457   0.972
 6794TIP3    H120346   2.759   0.551   0.985
 6794TIP3    H220347   2.747   0.416   1.054
 6795TIP3   OH220348   3.543   2.238   3.055
 6795TIP3    H120349   3.605   2.221   2.984
 6795TIP3    H220350   3.569   2.324   3.090
 6796TIP3   OH220351   6.047   1.137   4.065
 6796TIP3    H120352   6.032   1.230   4.045
 6796TIP3    H220353   5.985   1.090   4.010
 6797TIP3   OH220354   5.652   4.344   3.753
 6797TIP3    H120355   5.622   4.371   3.840
 6797TIP3    H220356   5.719   4.408   3.731
 6798TIP3   OH220357   6.775   4.226   3.603
 6798TIP3    H120358   6.716   4.285   3.556
 6798TIP3    H220359   6.838   4.198   3.537
 6799TIP3   OH220360   6.180   2.250   4.261
 6799TIP3    H120361   6.191   2.326   4.204
 6799TIP3    H220362   6.267   2.237   4.300
 6800TIP3   OH220363   6.442   2.290   4.348
 6800TIP3    H120364   6.440   2.368   4.403
 6800TIP3    H220365   6.519   2.302   4.292
 6801TIP3   OH220366   5.771   4.081   5.407
 6801TIP3    H120367   5.839   4.114   5.465
 6801TIP3    H220368   5.689   4.112   5.446
 6802TIP3   OH220369   5.884   6.505   0.654
 6802TIP3    H120370   5.842   6.419   0.644
 6802TIP3    H220371   5.884   6.541   0.565
 6803TIP3   OH220372   6.956   4.052   0.203
 6803TIP3    H120373   6.880   3.995   0.202
 6803TIP3    H220374   6.930   4.127   0.148
 6804TIP3   OH220375   7.032   5.344   5.823
 6804TIP3    H120376   6.994   5.265   5.785
 6804TIP3    H220377   6.984   5.416   5.782
 6805TIP3   OH220378   4.914   1.876   2.933
 6805TIP3    H120379   4.822   1.851   2.944
 6805TIP3    H220380   4.938   1.843   2.847
 6806TIP3   OH220381   1.304   3.547   1.520
 6806TIP3    H120382   1.389   3.516   1.551
 6806TIP3    H220383   1.311   3.643   1.522
 6807TIP3   OH220384   1.560   5.695   3.386
 6807TIP3    H120385   1.491   5.636   3.356
 6807TIP3    H220386   1.566   5.762   3.318
 6808TIP3   OH220387   6.909   4.470   4.854
 6808TIP3    H120388   6.981   4.485   4.915
 6808TIP3    H220389   6.914   4.542   4.791
 6809TIP3   OH220390   3.633   5.864   5.696
 6809TIP3    H120391   3.575   5.923   5.648
 6809TIP3    H220392   3.719   5.878   5.657
 6810TIP3   OH220393   1.985   5.555   4.603
 6810TIP3    H120394   2.053   5.588   4.545
 6810TIP3    H220395   2.027   5.547   4.688
 6811TIP3   OH220396   2.544   0.519   5.093
 6811TIP3    H120397   2.547   0.533   5.188
 6811TIP3    H220398   2.632   0.487   5.071
 6812TIP3   OH220399   5.449   0.399   0.646
 6812TIP3    H120400   5.398   0.337   0.593
 6812TIP3    H220401   5.393   0.417   0.722
 6813TIP3   OH220402   4.611   4.152   5.277
 6813TIP3    H120403   4.654   4.225   5.232
 6813TIP3    H220404   4.594   4.186   5.365
 6814TIP3   OH220405   1.999   2.637   0.804
 6814TIP3    H120406   1.995   2.731   0.823
 6814TIP3    H220407   1.917   2.619   0.758
 6815TIP3   OH220408   3.000   0.830   5.061
 6815TIP3    H120409   3.010   0.856   5.152
 6815TIP3    H220410   2.984   0.912   5.014
 6816TIP3   OH220411   4.178   1.681   3.452
 6816TIP3    H120412   4.189   1.706   3.544
 6816TIP3    H220413   4.242   1.734   3.405
 6817TIP3   OH220414   5.624   6.122   1.949
 6817TIP3    H120415   5.568   6.062   1.998
 6817TIP3    H220416   5.627   6.201   2.002
 6818TIP3   OH220417   3.114   3.738   1.066
 6818TIP3    H120418   3.195   3.736   1.013
 6818TIP3    H220419   3.076   3.652   1.054
 6819TIP3   OH220420   4.321   1.506   0.505
 6819TIP3    H120421   4.266   1.567   0.456
 6819TIP3    H220422   4.396   1.559   0.534
 6820TIP3   OH220423   0.940   6.669   2.024
 6820TIP3    H120424   0.874   6.601   2.039
 6820TIP3    H220425   0.967   6.656   1.933
 6821TIP3   OH220426   4.140   1.068   3.451
 6821TIP3    H120427   4.181   1.154   3.439
 6821TIP3    H220428   4.146   1.051   3.545
 6822TIP3   OH220429   6.717   3.673   3.303
 6822TIP3    H120430   6.812   3.674   3.315
 6822TIP3    H220431   6.704   3.672   3.208
 6823TIP3   OH220432   7.003   0.781   0.445
 6823TIP3    H120433   6.931   0.815   0.392
 6823TIP3    H220434   6.997   0.829   0.527
 6824TIP3   OH220435   0.524   0.867   4.533
 6824TIP3    H120436   0.471   0.945   4.518
 6824TIP3    H220437   0.563   0.848   4.447
 6825TIP3   OH220438   2.468   0.306   5.436
 6825TIP3    H120439   2.436   0.233   5.382
 6825TIP3    H220440   2.393   0.364   5.443
 6826TIP3   OH220441   7.138   2.579   4.428
 6826TIP3    H120442   7.069   2.641   4.403
 6826TIP3    H220443   7.105   2.494   4.401
 6827TIP3   OH220444   6.629   0.409   1.152
 6827TIP3    H120445   6.572   0.423   1.076
 6827TIP3    H220446   6.698   0.351   1.120
 6828TIP3   OH220447   0.305   4.416   4.597
 6828TIP3    H120448   0.252   4.383   4.670
 6828TIP3    H220449   0.274   4.506   4.584
 6829TIP3   OH220450   3.168   6.765   2.463
 6829TIP3    H120451   3.225   6.840   2.474
 6829TIP3    H220452   3.224   6.689   2.479
 6830TIP3   OH220453   5.429   5.268   5.585
 6830TIP3    H120454   5.437   5.266   5.680
 6830TIP3    H220455   5.350   5.319   5.569
 6831TIP3   OH220456   4.852   1.264   4.520
 6831TIP3    H120457   4.885   1.174   4.519
 6831TIP3    H220458   4.794   1.269   4.444
 6832TIP3   OH220459   3.350   5.958   3.392
 6832TIP3    H120460   3.343   5.887   3.455
 6832TIP3    H220461   3.392   6.029   3.440
 6833TIP3   OH220462   1.712   6.406   4.830
 6833TIP3    H120463   1.781   6.363   4.880
 6833TIP3    H220464   1.753   6.486   4.797
 6834TIP3   OH220465   0.488   2.863   3.822
 6834TIP3    H120466   0.571   2.847   3.866
 6834TIP3    H220467   0.478   2.789   3.762
 6835TIP3   OH220468   5.087   6.465   2.408
 6835TIP3    H120469   5.175   6.473   2.447
 6835TIP3    H220470   5.039   6.410   2.470
 6836TIP3   OH220471   3.538   0.972   5.626
 6836TIP3    H120472   3.527   1.067   5.618
 6836TIP3    H220473   3.609   0.951   5.566
 6837TIP3   OH220474   4.096   4.063   5.196
 6837TIP3    H120475   4.027   4.013   5.239
 6837TIP3    H220476   4.112   4.017   5.114
 6838TIP3   OH220477   2.049   0.776   5.082
 6838TIP3    H120478   2.047   0.870   5.103
 6838TIP3    H220479   2.007   0.734   5.157
 6839TIP3   OH220480   6.026   3.842   3.533
 6839TIP3    H120481   5.943   3.799   3.512
 6839TIP3    H220482   6.070   3.780   3.591
 6840TIP3   OH220483   0.795   4.382   4.906
 6840TIP3    H120484   0.878   4.425   4.927
 6840TIP3    H220485   0.762   4.352   4.991
 6841TIP3   OH220486   2.502   4.274   3.197
 6841TIP3    H120487   2.451   4.194   3.198
 6841TIP3    H220488   2.582   4.252   3.148
 6842TIP3   OH220489   4.515   4.480   4.224
 6842TIP3    H120490   4.448   4.515   4.282
 6842TIP3    H220491   4.467   4.451   4.146
 6843TIP3   OH220492   4.258   4.421   3.557
 6843TIP3    H120493   4.190   4.478   3.592
 6843TIP3    H220494   4.231   4.405   3.466
 6844TIP3   OH220495   5.790   5.459   2.694
 6844TIP3    H120496   5.874   5.467   2.650
 6844TIP3    H220497   5.726   5.491   2.630
 6845TIP3   OH220498   6.988   3.916   1.816
 6845TIP3    H120499   6.989   4.011   1.829
 6845TIP3    H220500   6.919   3.901   1.752
 6846TIP3   OH220501   6.405   3.354   4.563
 6846TIP3    H120502   6.487   3.311   4.540
 6846TIP3    H220503   6.419   3.385   4.653
 6847TIP3   OH220504   3.236   2.838   5.730
 6847TIP3    H120505   3.242   2.932   5.747
 6847TIP3    H220506   3.171   2.807   5.792
 6848TIP3   OH220507   4.040   0.496   3.088
 6848TIP3    H120508   4.042   0.423   3.151
 6848TIP3    H220509   3.972   0.555   3.121
 6849TIP3   OH220510   5.704   6.337   3.222
 6849TIP3    H120511   5.612   6.353   3.243
 6849TIP3    H220512   5.753   6.372   3.296
 6850TIP3   OH220513   5.405   4.282   4.320
 6850TIP3    H120514   5.322   4.293   4.274
 6850TIP3    H220515   5.420   4.367   4.363
 6851TIP3   OH220516   6.983   2.336   1.698
 6851TIP3    H120517   6.994   2.370   1.609
 6851TIP3    H220518   7.045   2.387   1.750
 6852TIP3   OH220519   0.266   1.433   0.997
 6852TIP3    H120520   0.283   1.450   0.905
 6852TIP3    H220521   0.284   1.340   1.008
 6853TIP3   OH220522   4.028   4.528   2.091
 6853TIP3    H120523   3.985   4.443   2.082
 6853TIP3    H220524   3.960   4.586   2.126
 6854TIP3   OH220525   0.421   0.220   5.327
 6854TIP3    H120526   0.439   0.290   5.389
 6854TIP3    H220527   0.375   0.154   5.379
 6855TIP3   OH220528   4.384   3.235   2.559
 6855TIP3    H120529   4.456   3.280   2.516
 6855TIP3    H220530   4.335   3.194   2.488
 6856TIP3   OH220531   3.970   4.224   0.904
 6856TIP3    H120532   4.025   4.237   0.827
 6856TIP3    H220533   3.997   4.138   0.938
 6857TIP3   OH220534   3.617   1.042   1.735
 6857TIP3    H120535   3.538   1.052   1.787
 6857TIP3    H220536   3.620   0.949   1.712
 6858TIP3   OH220537   4.363   1.668   1.850
 6858TIP3    H120538   4.447   1.705   1.826
 6858TIP3    H220539   4.380   1.574   1.859
 6859TIP3   OH220540   1.656   0.180   4.697
 6859TIP3    H120541   1.599   0.132   4.757
 6859TIP3    H220542   1.705   0.112   4.651
 6860TIP3   OH220543   6.640   6.396   0.102
 6860TIP3    H120544   6.637   6.478   0.151
 6860TIP3    H220545   6.550   6.365   0.101
 6861TIP3   OH220546   5.755   2.368   2.070
 6861TIP3    H120547   5.728   2.389   1.981
 6861TIP3    H220548   5.825   2.431   2.089
 6862TIP3   OH220549   5.912   0.791   3.871
 6862TIP3    H120550   5.879   0.711   3.831
 6862TIP3    H220551   5.861   0.801   3.951
 6863TIP3   OH220552   0.285   6.093   1.122
 6863TIP3    H120553   0.366   6.046   1.142
 6863TIP3    H220554   0.229   6.028   1.079
 6864TIP3   OH220555   5.588   2.260   5.274
 6864TIP3    H120556   5.619   2.310   5.350
 6864TIP3    H220557   5.502   2.227   5.302
 6865TIP3   OH220558   6.866   0.679   1.548
 6865TIP3    H120559   6.832   0.593   1.524
 6865TIP3    H220560   6.941   0.661   1.604
 6866TIP3   OH220561   5.465   4.396   5.079
 6866TIP3    H120562   5.548   4.379   5.125
 6866TIP3    H220563   5.487   4.386   4.987
 6867TIP3   OH220564   3.198   3.754   0.420
 6867TIP3    H120565   3.193   3.810   0.343
 6867TIP3    H220566   3.160   3.670   0.392
 6868TIP3   OH220567   6.851   2.824   3.575
 6868TIP3    H120568   6.794   2.860   3.643
 6868TIP3    H220569   6.863   2.733   3.599
 6869TIP3   OH220570   1.959   3.778   0.830
 6869TIP3    H120571   1.941   3.857   0.881
 6869TIP3    H220572   1.928   3.706   0.885
 6870TIP3   OH220573   3.854   0.467   0.534
 6870TIP3    H120574   3.836   0.419   0.453
 6870TIP3    H220575   3.828   0.407   0.604
 6871TIP3   OH220576   5.332   0.424   1.659
 6871TIP3    H120577   5.256   0.388   1.706
 6871TIP3    H220578   5.398   0.438   1.727
 6872TIP3   OH220579   6.633   3.463   4.029
 6872TIP3    H120580   6.565   3.411   3.987
 6872TIP3    H220581   6.613   3.458   4.122
 6873TIP3   OH220582   6.402   5.550   4.818
 6873TIP3    H120583   6.444   5.506   4.892
 6873TIP3    H220584   6.472   5.602   4.779
 6874TIP3   OH220585   0.989   3.089   5.272
 6874TIP3    H120586   1.035   3.031   5.331
 6874TIP3    H220587   0.902   3.051   5.262
 6875TIP3   OH220588   0.415   0.619   4.479
 6875TIP3    H120589   0.433   0.710   4.502
 6875TIP3    H220590   0.481   0.597   4.413
 6876TIP3   OH220591   4.309   3.531   0.762
 6876TIP3    H120592   4.390   3.518   0.712
 6876TIP3    H220593   4.262   3.598   0.712
 6877TIP3   OH220594   0.785   1.583   2.612
 6877TIP3    H120595   0.845   1.514   2.643
 6877TIP3    H220596   0.753   1.624   2.692
 6878TIP3   OH220597   2.218   1.184   3.394
 6878TIP3    H120598   2.129   1.192   3.427
 6878TIP3    H220599   2.227   1.257   3.332
 6879TIP3   OH220600   4.146   4.110   5.502
 6879TIP3    H120601   4.053   4.126   5.514
 6879TIP3    H220602   4.156   4.094   5.408
 6880TIP3   OH220603   2.000   6.087   2.091
 6880TIP3    H120604   1.978   6.166   2.044
 6880TIP3    H220605   1.928   6.027   2.074
 6881TIP3   OH220606   6.901   2.070   1.063
 6881TIP3    H120607   6.958   1.997   1.089
 6881TIP3    H220608   6.961   2.140   1.038
 6882TIP3   OH220609   3.259   3.683   4.193
 6882TIP3    H120610   3.243   3.634   4.274
 6882TIP3    H220611   3.272   3.616   4.126
 6883TIP3   OH220612   5.909   4.798   0.436
 6883TIP3    H120613   6.003   4.818   0.441
 6883TIP3    H220614   5.905   4.703   0.450
 6884TIP3   OH220615   2.010   5.586   1.941
 6884TIP3    H120616   2.087   5.532   1.922
 6884TIP3    H220617   2.030   5.627   2.025
 6885TIP3   OH220618   1.364   3.055   2.703
 6885TIP3    H120619   1.451   3.024   2.729
 6885TIP3    H220620   1.381   3.119   2.634
 6886TIP3   OH220621   6.575   5.873   1.502
 6886TIP3    H120622   6.561   5.822   1.422
 6886TIP3    H220623   6.666   5.901   1.497
 6887TIP3   OH220624   6.270   0.619   0.757
 6887TIP3    H120625   6.281   0.538   0.707
 6887TIP3    H220626   6.355   0.633   0.798
 6888TIP3   OH220627   1.687   0.444   2.767
 6888TIP3    H120628   1.680   0.510   2.836
 6888TIP3    H220629   1.597   0.428   2.740
 6889TIP3   OH220630   2.741   3.106   2.448
 6889TIP3    H120631   2.809   3.082   2.512
 6889TIP3    H220632   2.774   3.186   2.407
 6890TIP3   OH220633   0.962   2.223   1.509
 6890TIP3    H120634   0.966   2.281   1.585
 6890TIP3    H220635   1.043   2.172   1.513
 6891TIP3   OH220636   2.807   0.839   3.165
 6891TIP3    H120637   2.737   0.903   3.175
 6891TIP3    H220638   2.888   0.888   3.182
 6892TIP3   OH220639   6.670   1.534   0.111
 6892TIP3    H120640   6.687   1.441   0.126
 6892TIP3    H220641   6.727   1.558   0.038
 6893TIP3   OH220642   5.999   5.919   3.506
 6893TIP3    H120643   6.001   5.958   3.593
 6893TIP3    H220644   6.087   5.932   3.472
 6894TIP3   OH220645   5.396   5.805   4.101
 6894TIP3    H120646   5.371   5.777   4.189
 6894TIP3    H220647   5.336   5.757   4.043
 6895TIP3   OH220648   4.986   1.162   3.733
 6895TIP3    H120649   5.009   1.072   3.707
 6895TIP3    H220650   4.957   1.204   3.652
 6896TIP3   OH220651   0.975   6.034   3.949
 6896TIP3    H120652   0.954   6.113   3.900
 6896TIP3    H220653   0.891   6.001   3.979
 6897TIP3   OH220654   1.217   3.117   4.557
 6897TIP3    H120655   1.266   3.155   4.484
 6897TIP3    H220656   1.276   3.051   4.593
 6898TIP3   OH220657   3.797   6.272   0.585
 6898TIP3    H120658   3.818   6.263   0.492
 6898TIP3    H220659   3.883   6.277   0.628
 6899TIP3   OH220660   4.464   1.546   1.106
 6899TIP3    H120661   4.404   1.521   1.036
 6899TIP3    H220662   4.460   1.642   1.109
 6900TIP3   OH220663   0.714   0.808   1.300
 6900TIP3    H120664   0.750   0.740   1.244
 6900TIP3    H220665   0.650   0.762   1.355
 6901TIP3   OH220666   5.893   3.760   0.794
 6901TIP3    H120667   5.851   3.842   0.819
 6901TIP3    H220668   5.955   3.742   0.864
 6902TIP3   OH220669   6.081   1.911   5.791
 6902TIP3    H120670   6.082   1.837   5.851
 6902TIP3    H220671   6.000   1.901   5.742
 6903TIP3   OH220672   3.698   3.360   3.143
 6903TIP3    H120673   3.714   3.375   3.236
 6903TIP3    H220674   3.643   3.282   3.140
 6904TIP3   OH220675   3.037   0.901   5.319
 6904TIP3    H120676   3.098   0.854   5.377
 6904TIP3    H220677   3.036   0.990   5.354
 6905TIP3   OH220678   0.862   5.345   4.433
 6905TIP3    H120679   0.920   5.389   4.495
 6905TIP3    H220680   0.869   5.396   4.352
 6906TIP3   OH220681   0.121   5.664   0.798
 6906TIP3    H120682   0.190   5.664   0.865
 6906TIP3    H220683   0.046   5.623   0.840
 6907TIP3   OH220684   1.974   6.098   0.137
 6907TIP3    H120685   1.986   6.074   0.228
 6907TIP3    H220686   2.062   6.117   0.105
 6908TIP3   OH220687   6.345   1.096   4.918
 6908TIP3    H120688   6.296   1.099   4.835
 6908TIP3    H220689   6.381   1.183   4.928
 6909TIP3   OH220690   5.636   5.007   2.667
 6909TIP3    H120691   5.645   4.928   2.614
 6909TIP3    H220692   5.688   5.073   2.622
 6910TIP3   OH220693   5.701   3.469   2.148
 6910TIP3    H120694   5.765   3.508   2.208
 6910TIP3    H220695   5.690   3.535   2.080
 6911TIP3   OH220696   5.332   6.727   4.506
 6911TIP3    H120697   5.413   6.779   4.512
 6911TIP3    H220698   5.298   6.726   4.595
 6912TIP3   OH220699   3.648   2.759   1.749
 6912TIP3    H120700   3.740   2.774   1.729
 6912TIP3    H220701   3.609   2.734   1.665
 6913TIP3   OH220702   6.490   2.275   5.111
 6913TIP3    H120703   6.574   2.319   5.116
 6913TIP3    H220704   6.501   2.211   5.041
 6914TIP3   OH220705   6.777   6.267   0.806
 6914TIP3    H120706   6.724   6.325   0.750
 6914TIP3    H220707   6.714   6.230   0.868
 6915TIP3   OH220708   1.171   2.254   1.172
 6915TIP3    H120709   1.076   2.268   1.179
 6915TIP3    H220710   1.186   2.171   1.218
 6916TIP3   OH220711   0.814   3.684   0.493
 6916TIP3    H120712   0.873   3.746   0.535
 6916TIP3    H220713   0.867   3.642   0.425
 6917TIP3   OH220714   0.448   5.366   2.864
 6917TIP3    H120715   0.498   5.340   2.786
 6917TIP3    H220716   0.500   5.436   2.903
 6918TIP3   OH220717   1.101   0.814   1.316
 6918TIP3    H120718   1.132   0.855   1.396
 6918TIP3    H220719   1.022   0.863   1.292
 6919TIP3   OH220720   0.886   1.708   5.646
 6919TIP3    H120721   0.897   1.799   5.620
 6919TIP3    H220722   0.855   1.664   5.568
 6920TIP3   OH220723   5.086   4.378   0.272
 6920TIP3    H120724   5.157   4.316   0.287
 6920TIP3    H220725   5.054   4.357   0.184
 6921TIP3   OH220726   1.856   2.250   5.445
 6921TIP3    H120727   1.927   2.216   5.391
 6921TIP3    H220728   1.889   2.243   5.535
 6922TIP3   OH220729   1.797   0.123   5.213
 6922TIP3    H120730   1.884   0.161   5.199
 6922TIP3    H220731   1.778   0.077   5.131
 6923TIP3   OH220732   0.813   5.046   4.720
 6923TIP3    H120733   0.759   5.000   4.655
 6923TIP3    H220734   0.854   4.975   4.771
 6924TIP3   OH220735   0.615   4.063   3.066
 6924TIP3    H120736   0.679   4.132   3.079
 6924TIP3    H220737   0.663   3.994   3.019
 6925TIP3   OH220738   2.296   5.367   5.026
 6925TIP3    H120739   2.240   5.434   4.987
 6925TIP3    H220740   2.378   5.372   4.978
 6926TIP3   OH220741   5.705   2.079   5.692
 6926TIP3    H120742   5.623   2.060   5.646
 6926TIP3    H220743   5.682   2.149   5.753
 6927TIP3   OH220744   3.026   1.389   4.102
 6927TIP3    H120745   3.027   1.315   4.041
 6927TIP3    H220746   3.119   1.406   4.119
 6928TIP3   OH220747   1.079   1.656   4.760
 6928TIP3    H120748   1.019   1.620   4.695
 6928TIP3    H220749   1.050   1.747   4.771
 6929TIP3   OH220750   4.457   6.422   1.237
 6929TIP3    H120751   4.375   6.374   1.230
 6929TIP3    H220752   4.503   6.403   1.155
 6930TIP3   OH220753   4.419   0.625   1.467
 6930TIP3    H120754   4.514   0.622   1.462
 6930TIP3    H220755   4.394   0.543   1.510
 6931TIP3   OH220756   4.065   0.766   3.002
 6931TIP3    H120757   3.983   0.734   3.039
 6931TIP3    H220758   4.132   0.735   3.063
 6932TIP3   OH220759   4.752   5.312   2.261
 6932TIP3    H120760   4.784   5.349   2.179
 6932TIP3    H220761   4.777   5.220   2.257
 6933TIP3   OH220762   3.320   2.240   4.356
 6933TIP3    H120763   3.326   2.287   4.273
 6933TIP3    H220764   3.402   2.260   4.401
 6934TIP3   OH220765   3.838   2.897   2.328
 6934TIP3    H120766   3.868   2.910   2.238
 6934TIP3    H220767   3.793   2.813   2.326
 6935TIP3   OH220768   6.299   3.004   4.310
 6935TIP3    H120769   6.273   3.067   4.377
 6935TIP3    H220770   6.223   2.946   4.302
 6936TIP3   OH220771   3.987   4.118   3.968
 6936TIP3    H120772   3.897   4.133   3.937
 6936TIP3    H220773   3.981   4.122   4.063
 6937TIP3   OH220774   0.754   6.265   5.876
 6937TIP3    H120775   0.795   6.182   5.899
 6937TIP3    H220776   0.679   6.241   5.821
 6938TIP3   OH220777   4.359   3.928   0.986
 6938TIP3    H120778   4.322   3.842   1.006
 6938TIP3    H220779   4.383   3.922   0.893
 6939TIP3   OH220780   6.928   2.115   4.332
 6939TIP3    H120781   7.007   2.076   4.294
 6939TIP3    H220782   6.856   2.067   4.291
 6940TIP3   OH220783   0.175   4.138   5.588
 6940TIP3    H120784   0.177   4.144   5.493
 6940TIP3    H220785   0.142   4.050   5.606
 6941TIP3   OH220786   5.363   1.419   3.556
 6941TIP3    H120787   5.355   1.325   3.541
 6941TIP3    H220788   5.345   1.459   3.470
 6942TIP3   OH220789   4.134   6.056   1.502
 6942TIP3    H120790   4.220   6.032   1.467
 6942TIP3    H220791   4.136   6.025   1.593
 6943TIP3   OH220792   1.268   2.098   0.260
 6943TIP3    H120793   1.332   2.066   0.324
 6943TIP3    H220794   1.320   2.147   0.197
 6944TIP3   OH220795   3.098   2.712   4.237
 6944TIP3    H120796   3.085   2.694   4.330
 6944TIP3    H220797   3.109   2.807   4.232
 6945TIP3   OH220798   7.166   4.747   4.772
 6945TIP3    H120799   7.239   4.735   4.711
 6945TIP3    H220800   7.088   4.734   4.718
 6946TIP3   OH220801   0.230   2.980   1.066
 6946TIP3    H120802   0.176   3.035   1.009
 6946TIP3    H220803   0.293   2.939   1.007
 6947TIP3   OH220804   6.998   0.017   5.031
 6947TIP3    H120805   6.940   0.056   4.965
 6947TIP3    H220806   7.035  -0.060   4.988
 6948TIP3   OH220807   4.456   0.793   1.870
 6948TIP3    H120808   4.434   0.886   1.858
 6948TIP3    H220809   4.449   0.778   1.964
 6949TIP3   OH220810   3.931   2.451   2.584
 6949TIP3    H120811   3.937   2.385   2.654
 6949TIP3    H220812   3.995   2.517   2.609
 6950TIP3   OH220813   0.344   3.608   5.706
 6950TIP3    H120814   0.252   3.594   5.729
 6950TIP3    H220815   0.343   3.634   5.614
 6951TIP3   OH220816   3.249   0.847   3.662
 6951TIP3    H120817   3.155   0.829   3.659
 6951TIP3    H220818   3.255   0.942   3.652
 6952TIP3   OH220819   4.689   2.285   0.039
 6952TIP3    H120820   4.721   2.301   0.128
 6952TIP3    H220821   4.769   2.275  -0.013
 6953TIP3   OH220822   1.579   5.563   5.596
 6953TIP3    H120823   1.512   5.595   5.656
 6953TIP3    H220824   1.570   5.618   5.518
 6954TIP3   OH220825   2.206   6.576   5.384
 6954TIP3    H120826   2.230   6.584   5.476
 6954TIP3    H220827   2.182   6.483   5.374
 6955TIP3   OH220828   6.619   3.937   3.300
 6955TIP3    H120829   6.649   3.851   3.329
 6955TIP3    H220830   6.602   3.927   3.207
 6956TIP3   OH220831   0.823   0.494   5.183
 6956TIP3    H120832   0.903   0.454   5.150
 6956TIP3    H220833   0.846   0.586   5.197
 6957TIP3   OH220834   7.198   1.060   0.302
 6957TIP3    H120835   7.106   1.051   0.275
 6957TIP3    H220836   7.212   1.154   0.308
 6958TIP3   OH220837   0.075   1.381   3.574
 6958TIP3    H120838   0.017   1.393   3.498
 6958TIP3    H220839   0.100   1.469   3.599
 6959TIP3   OH220840   1.898   6.137   5.605
 6959TIP3    H120841   1.973   6.078   5.603
 6959TIP3    H220842   1.876   6.151   5.512
 6960TIP3   OH220843   1.218   2.529   5.611
 6960TIP3    H120844   1.268   2.499   5.535
 6960TIP3    H220845   1.276   2.592   5.654
 6961TIP3   OH220846   2.031   1.440   3.045
 6961TIP3    H120847   2.000   1.516   2.995
 6961TIP3    H220848   2.021   1.366   2.985
 6962TIP3   OH220849   1.001   4.872   0.898
 6962TIP3    H120850   1.053   4.950   0.879
 6962TIP3    H220851   0.913   4.894   0.868
 6963TIP3   OH220852   6.169   2.107   0.136
 6963TIP3    H120853   6.156   2.178   0.074
 6963TIP3    H220854   6.231   2.048   0.092
 6964TIP3   OH220855   5.242   5.514   3.274
 6964TIP3    H120856   5.185   5.465   3.334
 6964TIP3    H220857   5.270   5.449   3.210
 6965TIP3   OH220858   1.559   0.453   3.215
 6965TIP3    H120859   1.616   0.502   3.156
 6965TIP3    H220860   1.478   0.441   3.166
 6966TIP3   OH220861   0.036   1.294   5.887
 6966TIP3    H120862   0.032   1.324   5.796
 6966TIP3    H220863   0.069   1.204   5.881
 6967TIP3   OH220864   2.342   3.979   3.432
 6967TIP3    H120865   2.308   3.900   3.475
 6967TIP3    H220866   2.433   3.984   3.463
 6968TIP3   OH220867   7.078   1.607   0.561
 6968TIP3    H120868   7.114   1.696   0.563
 6968TIP3    H220869   7.059   1.591   0.468
 6969TIP3   OH220870   6.284   0.031   0.065
 6969TIP3    H120871   6.346  -0.008   0.003
 6969TIP3    H220872   6.198   0.009   0.029
 6970TIP3   OH220873   1.249   1.378   4.414
 6970TIP3    H120874   1.212   1.333   4.338
 6970TIP3    H220875   1.333   1.413   4.383
 6971TIP3   OH220876   4.600   4.435   0.953
 6971TIP3    H120877   4.612   4.408   1.043
 6971TIP3    H220878   4.525   4.494   0.955
 6972TIP3   OH220879   6.324   1.222   4.035
 6972TIP3    H120880   6.238   1.183   4.050
 6972TIP3    H220881   6.385   1.149   4.046
 6973TIP3   OH220882   6.644   4.747   0.102
 6973TIP3    H120883   6.739   4.751   0.092
 6973TIP3    H220884   6.614   4.836   0.082
 6974TIP3   OH220885   6.439   1.176   1.241
 6974TIP3    H120886   6.430   1.107   1.306
 6974TIP3    H220887   6.383   1.246   1.273
 6975TIP3   OH220888   1.644   1.000   4.347
 6975TIP3    H120889   1.663   0.929   4.407
 6975TIP3    H220890   1.590   0.961   4.279
 6976TIP3   OH220891   1.240   4.341   1.800
 6976TIP3    H120892   1.259   4.288   1.877
 6976TIP3    H220893   1.151   4.315   1.774
 6977TIP3   OH220894   1.546   3.651   4.881
 6977TIP3    H120895   1.512   3.632   4.969
 6977TIP3    H220896   1.618   3.590   4.869
 6978TIP3   OH220897   2.678   1.832   4.223
 6978TIP3    H120898   2.705   1.835   4.131
 6978TIP3    H220899   2.757   1.854   4.272
 6979TIP3   OH220900   6.740   0.747   4.023
 6979TIP3    H120901   6.681   0.800   4.077
 6979TIP3    H220902   6.821   0.744   4.072
 6980TIP3   OH220903   3.092   2.757   2.886
 6980TIP3    H120904   3.042   2.766   2.967
 6980TIP3    H220905   3.150   2.683   2.902
 6981TIP3   OH220906   2.317   4.749   4.479
 6981TIP3    H120907   2.402   4.712   4.502
 6981TIP3    H220908   2.311   4.741   4.384
 6982TIP3   OH220909   2.879   6.452   3.097
 6982TIP3    H120910   2.934   6.405   3.160
 6982TIP3    H220911   2.790   6.426   3.119
 6983TIP3   OH220912   0.635   3.179   5.233
 6983TIP3    H120913   0.693   3.237   5.282
 6983TIP3    H220914   0.594   3.124   5.301
 6984TIP3   OH220915   5.595   0.040   0.216
 6984TIP3    H120916   5.603  -0.002   0.301
 6984TIP3    H220917   5.549   0.122   0.235
 6985TIP3   OH220918   6.410   5.142   2.320
 6985TIP3    H120919   6.333   5.166   2.268
 6985TIP3    H220920   6.407   5.046   2.324
 6986TIP3   OH220921   0.382   4.582   3.652
 6986TIP3    H120922   0.417   4.639   3.720
 6986TIP3    H220923   0.295   4.619   3.633
 6987TIP3   OH220924   2.466   5.689   4.936
 6987TIP3    H120925   2.405   5.714   4.867
 6987TIP3    H220926   2.513   5.614   4.900
 6988TIP3   OH220927   1.151   4.599   1.721
 6988TIP3    H120928   1.209   4.661   1.677
 6988TIP3    H220929   1.201   4.518   1.726
 6989TIP3   OH220930   0.155   1.050   5.819
 6989TIP3    H120931   0.063   1.030   5.802
 6989TIP3    H220932   0.203   0.994   5.758
 6990TIP3   OH220933   6.797   2.690   2.196
 6990TIP3    H120934   6.714   2.738   2.189
 6990TIP3    H220935   6.793   2.650   2.283
 6991TIP3   OH220936   2.292   0.905   3.388
 6991TIP3    H120937   2.252   0.867   3.466
 6991TIP3    H220938   2.297   0.999   3.408
 6992TIP3   OH220939   6.280   1.791   3.169
 6992TIP3    H120940   6.206   1.791   3.109
 6992TIP3    H220941   6.356   1.810   3.113
 6993TIP3   OH220942   2.963   4.243   5.172
 6993TIP3    H120943   2.870   4.266   5.183
 6993TIP3    H220944   3.009   4.326   5.188
 6994TIP3   OH220945   3.901   2.167   4.062
 6994TIP3    H120946   3.873   2.186   4.152
 6994TIP3    H220947   3.948   2.084   4.069
 6995TIP3   OH220948   4.093   6.722   4.672
 6995TIP3    H120949   4.087   6.640   4.623
 6995TIP3    H220950   4.004   6.758   4.668
 6996TIP3   OH220951   5.229   1.558   3.785
 6996TIP3    H120952   5.165   1.625   3.762
 6996TIP3    H220953   5.179   1.490   3.830
 6997TIP3   OH220954   5.881   0.806   5.114
 6997TIP3    H120955   5.831   0.731   5.145
 6997TIP3    H220956   5.826   0.882   5.136
 6998TIP3   OH220957   0.397   5.679   4.719
 6998TIP3    H120958   0.442   5.740   4.660
 6998TIP3    H220959   0.449   5.679   4.799
 6999TIP3   OH220960   6.182   1.922   5.313
 6999TIP3    H120961   6.166   1.940   5.220
 6999TIP3    H220962   6.218   2.004   5.347
 7000TIP3   OH220963   5.880   1.643   4.678
 7000TIP3    H120964   5.792   1.608   4.692
 7000TIP3    H220965   5.931   1.568   4.646
 7001TIP3   OH220966   1.439   0.526   2.890
 7001TIP3    H120967   1.480   0.595   2.943
 7001TIP3    H220968   1.376   0.572   2.835
 7002TIP3   OH220969   2.968   0.642   4.704
 7002TIP3    H120970   2.887   0.660   4.753
 7002TIP3    H220971   3.038   0.676   4.759
 7003TIP3   OH220972   1.301   2.268   4.607
 7003TIP3    H120973   1.269   2.178   4.605
 7003TIP3    H220974   1.291   2.298   4.517
 7004TIP3   OH220975   2.217   5.539   0.639
 7004TIP3    H120976   2.136   5.566   0.595
 7004TIP3    H220977   2.208   5.444   0.649
 7005TIP3   OH220978   3.396   0.011   3.343
 7005TIP3    H120979   3.415   0.105   3.348
 7005TIP3    H220980   3.346  -0.008   3.422
 7006TIP3   OH220981   0.813   0.681   5.766
 7006TIP3    H120982   0.799   0.589   5.744
 7006TIP3    H220983   0.897   0.682   5.810
 7007TIP3   OH220984   2.148  -0.029   4.985
 7007TIP3    H120985   2.127  -0.115   4.949
 7007TIP3    H220986   2.194   0.016   4.915
 7008TIP3   OH220987   3.800   2.868   2.626
 7008TIP3    H120988   3.749   2.908   2.555
 7008TIP3    H220989   3.740   2.865   2.700
 7009TIP3   OH220990   4.613   6.542   3.445
 7009TIP3    H120991   4.640   6.569   3.357
 7009TIP3    H220992   4.597   6.448   3.438
 7010TIP3   OH220993   1.710   2.449   5.354
 7010TIP3    H120994   1.779   2.386   5.373
 7010TIP3    H220995   1.682   2.479   5.441
 7011TIP3   OH220996   6.949   2.678   2.893
 7011TIP3    H120997   6.862   2.645   2.917
 7011TIP3    H220998   6.959   2.759   2.944
 7012TIP3   OH220999   1.894   6.174   4.890
 7012TIP3    H121000   1.964   6.125   4.848
 7012TIP3    H221001   1.829   6.187   4.822
 7013TIP3   OH221002   3.251   4.879   0.522
 7013TIP3    H121003   3.187   4.901   0.454
 7013TIP3    H221004   3.322   4.834   0.476
 7014TIP3   OH221005   0.115   0.758   4.276
 7014TIP3    H121006   0.072   0.815   4.212
 7014TIP3    H221007   0.208   0.764   4.254
 7015TIP3   OH221008   3.526   3.069   3.749
 7015TIP3    H121009   3.446   3.063   3.802
 7015TIP3    H221010   3.562   3.155   3.770
 7016TIP3   OH221011   1.443   0.197   3.681
 7016TIP3    H121012   1.435   0.134   3.610
 7016TIP3    H221013   1.363   0.249   3.677
 7017TIP3   OH221014   4.711   0.064   0.274
 7017TIP3    H121015   4.750   0.067   0.187
 7017TIP3    H221016   4.622   0.034   0.260
 7018TIP3   OH221017   3.237   4.957   4.743
 7018TIP3    H121018   3.201   5.021   4.682
 7018TIP3    H221019   3.286   5.009   4.807
 7019TIP3   OH221020   0.405   1.180   0.847
 7019TIP3    H121021   0.460   1.169   0.924
 7019TIP3    H221022   0.348   1.103   0.847
 7020TIP3   OH221023   3.333   5.245   0.563
 7020TIP3    H121024   3.298   5.228   0.476
 7020TIP3    H221025   3.256   5.264   0.616
 7021TIP3   OH221026   6.281   5.202   3.338
 7021TIP3    H121027   6.363   5.158   3.361
 7021TIP3    H221028   6.269   5.268   3.406
 7022TIP3   OH221029   3.962   4.304   3.086
 7022TIP3    H121030   3.963   4.209   3.098
 7022TIP3    H221031   4.014   4.319   3.007
 7023TIP3   OH221032   6.583   1.549   5.090
 7023TIP3    H121033   6.523   1.489   5.045
 7023TIP3    H221034   6.660   1.496   5.111
 7024TIP3   OH221035   6.877   1.658   4.116
 7024TIP3    H121036   6.938   1.639   4.044
 7024TIP3    H221037   6.820   1.728   4.081
 7025TIP3   OH221038   3.615   1.220   3.426
 7025TIP3    H121039   3.708   1.203   3.417
 7025TIP3    H221040   3.583   1.148   3.482
 7026TIP3   OH221041   4.670   3.891   3.157
 7026TIP3    H121042   4.752   3.855   3.125
 7026TIP3    H221043   4.605   3.824   3.138
 7027TIP3   OH221044   1.841   4.962   2.960
 7027TIP3    H121045   1.864   4.950   2.867
 7027TIP3    H221046   1.761   4.912   2.971
 7028TIP3   OH221047   3.254   1.211   4.158
 7028TIP3    H121048   3.332   1.156   4.146
 7028TIP3    H221049   3.267   1.252   4.244
 7029TIP3   OH221050   2.338   6.290   5.863
 7029TIP3    H121051   2.289   6.236   5.925
 7029TIP3    H221052   2.424   6.250   5.859
 7030TIP3   OH221053   6.696   1.484   4.012
 7030TIP3    H121054   6.673   1.573   3.985
 7030TIP3    H221055   6.772   1.496   4.069
 7031TIP3   OH221056   5.140   6.057   1.908
 7031TIP3    H121057   5.218   6.002   1.905
 7031TIP3    H221058   5.101   6.040   1.994
 7032TIP3   OH221059   0.595   3.962   2.121
 7032TIP3    H121060   0.583   3.874   2.086
 7032TIP3    H221061   0.538   3.965   2.198
 7033TIP3   OH221062   2.330   5.435   2.653
 7033TIP3    H121063   2.277   5.497   2.604
 7033TIP3    H221064   2.333   5.470   2.742
 7034TIP3   OH221065   1.510   5.965   3.457
 7034TIP3    H121066   1.569   5.893   3.483
 7034TIP3    H221067   1.438   5.959   3.519
 7035TIP3   OH221068   5.271   4.898   4.350
 7035TIP3    H121069   5.360   4.863   4.363
 7035TIP3    H221070   5.282   4.993   4.353
 7036TIP3   OH221071   3.418   1.787   5.329
 7036TIP3    H121072   3.473   1.717   5.293
 7036TIP3    H221073   3.342   1.790   5.271
 7037TIP3   OH221074   3.770   4.144   0.423
 7037TIP3    H121075   3.786   4.076   0.357
 7037TIP3    H221076   3.764   4.096   0.505
 7038TIP3   OH221077   3.134   2.535   5.025
 7038TIP3    H121078   3.066   2.495   4.971
 7038TIP3    H221079   3.095   2.540   5.113
 7039TIP3   OH221080   0.844   3.970   4.866
 7039TIP3    H121081   0.849   3.956   4.771
 7039TIP3    H221082   0.923   4.019   4.887
 7040TIP3   OH221083   3.259   6.822   3.809
 7040TIP3    H121084   3.299   6.741   3.777
 7040TIP3    H221085   3.166   6.813   3.788
 7041TIP3   OH221086   3.721   6.033   3.511
 7041TIP3    H121087   3.812   6.032   3.480
 7041TIP3    H221088   3.669   6.054   3.433
 7042TIP3   OH221089   6.654   0.897   4.239
 7042TIP3    H121090   6.638   0.811   4.279
 7042TIP3    H221091   6.693   0.949   4.309
 7043TIP3   OH221092   2.476   1.515   0.378
 7043TIP3    H121093   2.497   1.593   0.327
 7043TIP3    H221094   2.517   1.443   0.330
 7044TIP3   OH221095   6.610   4.933   4.742
 7044TIP3    H121096   6.668   4.986   4.797
 7044TIP3    H221097   6.587   4.991   4.670
 7045TIP3   OH221098   5.359   1.595   2.386
 7045TIP3    H121099   5.327   1.504   2.379
 7045TIP3    H221100   5.281   1.645   2.412
 7046TIP3   OH221101   4.489   4.837   0.785
 7046TIP3    H121102   4.538   4.859   0.706
 7046TIP3    H221103   4.432   4.765   0.758
 7047TIP3   OH221104   5.813   0.843   1.876
 7047TIP3    H121105   5.864   0.876   1.802
 7047TIP3    H221106   5.723   0.842   1.845
 7048TIP3   OH221107   1.853   2.321   2.069
 7048TIP3    H121108   1.835   2.275   2.151
 7048TIP3    H221109   1.853   2.414   2.093
 7049TIP3   OH221110   3.524   1.274   0.579
 7049TIP3    H121111   3.434   1.244   0.572
 7049TIP3    H221112   3.552   1.246   0.666
 7050TIP3   OH221113   0.826   6.752   3.982
 7050TIP3    H121114   0.793   6.674   4.028
 7050TIP3    H221115   0.754   6.815   3.987
 7051TIP3   OH221116   4.749   4.297   4.181
 7051TIP3    H121117   4.733   4.294   4.086
 7051TIP3    H221118   4.710   4.380   4.209
 7052TIP3   OH221119   1.024   1.042   3.158
 7052TIP3    H121120   1.094   0.978   3.176
 7052TIP3    H221121   0.982   1.009   3.079
 7053TIP3   OH221122   2.244   6.297   1.516
 7053TIP3    H121123   2.202   6.359   1.457
 7053TIP3    H221124   2.177   6.276   1.580
 7054TIP3   OH221125   4.750   5.858   2.588
 7054TIP3    H121126   4.701   5.879   2.509
 7054TIP3    H221127   4.690   5.802   2.639
 7055TIP3   OH221128   5.807   5.455   1.202
 7055TIP3    H121129   5.900   5.471   1.218
 7055TIP3    H221130   5.799   5.460   1.106
 7056TIP3   OH221131   0.021   3.681   2.687
 7056TIP3    H121132  -0.051   3.731   2.726
 7056TIP3    H221133   0.094   3.693   2.747
 7057TIP3   OH221134   4.834   4.465   0.680
 7057TIP3    H121135   4.915   4.511   0.658
 7057TIP3    H221136   4.771   4.535   0.697
 7058TIP3   OH221137   6.108   1.092   1.071
 7058TIP3    H121138   6.041   1.127   1.129
 7058TIP3    H221139   6.147   1.170   1.030
 7059TIP3   OH221140   5.623   0.421   4.532
 7059TIP3    H121141   5.684   0.349   4.517
 7059TIP3    H221142   5.536   0.384   4.513
 7060TIP3   OH221143   4.491   3.367   5.298
 7060TIP3    H121144   4.581   3.335   5.308
 7060TIP3    H221145   4.500   3.444   5.241
 7061TIP3   OH221146   2.691   0.826   2.932
 7061TIP3    H121147   2.627   0.760   2.960
 7061TIP3    H221148   2.741   0.845   3.010
 7062TIP3   OH221149   7.034   2.879   5.373
 7062TIP3    H121150   6.989   2.958   5.344
 7062TIP3    H221151   7.121   2.885   5.335
 7063TIP3   OH221152   6.276   0.256   2.895
 7063TIP3    H121153   6.212   0.190   2.922
 7063TIP3    H221154   6.342   0.254   2.965
 7064TIP3   OH221155   5.776   3.950   2.815
 7064TIP3    H121156   5.692   3.963   2.772
 7064TIP3    H221157   5.814   4.037   2.819
 7065TIP3   OH221158   4.364   4.161   1.763
 7065TIP3    H121159   4.388   4.225   1.829
 7065TIP3    H221160   4.347   4.081   1.812
 7066TIP3   OH221161   4.039   0.682   1.380
 7066TIP3    H121162   4.036   0.667   1.474
 7066TIP3    H221163   4.067   0.599   1.343
 7067TIP3   OH221164   6.179   2.621   5.759
 7067TIP3    H121165   6.261   2.670   5.761
 7067TIP3    H221166   6.123   2.668   5.698
 7068TIP3   OH221167   0.759   4.563   2.241
 7068TIP3    H121168   0.841   4.611   2.228
 7068TIP3    H221169   0.727   4.546   2.152
 7069TIP3   OH221170   2.171   5.096   3.959
 7069TIP3    H121171   2.202   5.028   3.899
 7069TIP3    H221172   2.099   5.055   4.008
 7070TIP3   OH221173   3.514   1.768   1.512
 7070TIP3    H121174   3.556   1.803   1.591
 7070TIP3    H221175   3.587   1.749   1.453
 7071TIP3   OH221176   6.507   4.927   1.404
 7071TIP3    H121177   6.552   4.892   1.481
 7071TIP3    H221178   6.496   4.852   1.346
 7072TIP3   OH221179   5.320   4.947   5.541
 7072TIP3    H121180   5.337   5.041   5.547
 7072TIP3    H221181   5.277   4.936   5.456
 7073TIP3   OH221182   0.837   4.085   1.917
 7073TIP3    H121183   0.748   4.119   1.915
 7073TIP3    H221184   0.828   3.993   1.893
 7074TIP3   OH221185   4.657   6.501   3.731
 7074TIP3    H121186   4.584   6.549   3.771
 7074TIP3    H221187   4.627   6.479   3.643
 7075TIP3   OH221188   6.907   3.500   1.288
 7075TIP3    H121189   6.966   3.572   1.309
 7075TIP3    H221190   6.892   3.508   1.194
 7076TIP3   OH221191   6.336   4.252   1.719
 7076TIP3    H121192   6.250   4.209   1.724
 7076TIP3    H221193   6.330   4.322   1.785
 7077TIP3   OH221194   2.299   2.746   5.835
 7077TIP3    H121195   2.282   2.767   5.927
 7077TIP3    H221196   2.232   2.795   5.787
 7078TIP3   OH221197   4.147   4.463   1.663
 7078TIP3    H121198   4.059   4.432   1.644
 7078TIP3    H221199   4.147   4.554   1.636
 7079TIP3   OH221200   5.870   5.064   3.996
 7079TIP3    H121201   5.818   5.130   4.042
 7079TIP3    H221202   5.900   5.107   3.916
 7080TIP3   OH221203   6.471   5.123   5.761
 7080TIP3    H121204   6.466   5.116   5.856
 7080TIP3    H221205   6.498   5.035   5.732
 7081TIP3   OH221206   1.045   6.492   1.182
 7081TIP3    H121207   1.101   6.505   1.259
 7081TIP3    H221208   1.019   6.400   1.186
 7082TIP3   OH221209   5.175   1.173   0.373
 7082TIP3    H121210   5.174   1.153   0.279
 7082TIP3    H221211   5.190   1.088   0.415
 7083TIP3   OH221212   0.572   4.415   2.849
 7083TIP3    H121213   0.593   4.324   2.829
 7083TIP3    H221214   0.598   4.464   2.771
 7084TIP3   OH221215   2.884   1.160   4.870
 7084TIP3    H121216   2.848   1.240   4.832
 7084TIP3    H221217   2.876   1.171   4.964
 7085TIP3   OH221218   4.886   5.965   4.069
 7085TIP3    H121219   4.978   5.976   4.043
 7085TIP3    H221220   4.862   6.050   4.106
 7086TIP3   OH221221   1.982   2.634   4.095
 7086TIP3    H121222   1.990   2.634   4.190
 7086TIP3    H221223   2.052   2.692   4.065
 7087TIP3   OH221224   2.750   1.603   3.251
 7087TIP3    H121225   2.805   1.628   3.325
 7087TIP3    H221226   2.769   1.669   3.184
 7088TIP3   OH221227   3.732   2.636   2.508
 7088TIP3    H121228   3.768   2.709   2.557
 7088TIP3    H221229   3.802   2.570   2.506
 7089TIP3   OH221230   5.971   3.863   4.465
 7089TIP3    H121231   5.920   3.788   4.435
 7089TIP3    H221232   6.023   3.889   4.390
 7090TIP3   OH221233   1.802   4.212   4.072
 7090TIP3    H121234   1.795   4.250   3.984
 7090TIP3    H221235   1.889   4.238   4.101
 7091TIP3   OH221236   4.435   4.639   1.036
 7091TIP3    H121237   4.340   4.651   1.023
 7091TIP3    H221238   4.446   4.636   1.131
 7092TIP3   OH221239   1.944   0.956   1.617
 7092TIP3    H121240   1.908   1.044   1.629
 7092TIP3    H221241   2.020   0.969   1.560
 7093TIP3   OH221242   1.939   3.630   2.663
 7093TIP3    H121243   1.894   3.671   2.737
 7093TIP3    H221244   1.886   3.553   2.642
 7094TIP3   OH221245   1.136   2.553   1.841
 7094TIP3    H121246   1.064   2.501   1.807
 7094TIP3    H221247   1.212   2.528   1.787
 7095TIP3   OH221248   4.430   1.304   0.278
 7095TIP3    H121249   4.424   1.399   0.277
 7095TIP3    H221250   4.354   1.275   0.329
 7096TIP3   OH221251   0.308   2.933   0.325
 7096TIP3    H121252   0.235   2.972   0.276
 7096TIP3    H221253   0.379   2.930   0.261
 7097TIP3   OH221254   4.919   3.647   5.822
 7097TIP3    H121255   5.012   3.668   5.828
 7097TIP3    H221256   4.877   3.705   5.884
 7098TIP3   OH221257   1.855   3.214   1.277
 7098TIP3    H121258   1.772   3.187   1.237
 7098TIP3    H221259   1.830   3.278   1.344
 7099TIP3   OH221260   7.140   0.215   3.830
 7099TIP3    H121261   7.107   0.164   3.756
 7099TIP3    H221262   7.179   0.150   3.888
 7100TIP3   OH221263   6.632   4.350   5.785
 7100TIP3    H121264   6.696   4.409   5.824
 7100TIP3    H221265   6.667   4.263   5.801
 7101TIP3   OH221266   0.423   6.372   4.534
 7101TIP3    H121267   0.423   6.293   4.480
 7101TIP3    H221268   0.386   6.440   4.478
 7102TIP3   OH221269   4.060   4.846   0.842
 7102TIP3    H121270   4.124   4.913   0.815
 7102TIP3    H221271   3.975   4.883   0.818
 7103TIP3   OH221272   1.686   1.432   0.838
 7103TIP3    H121273   1.711   1.375   0.911
 7103TIP3    H221274   1.768   1.449   0.792
 7104TIP3   OH221275   0.938   0.088   2.572
 7104TIP3    H121276   0.909   0.126   2.488
 7104TIP3    H221277   0.861   0.094   2.629
 7105TIP3   OH221278   0.690   1.951   0.641
 7105TIP3    H121279   0.609   1.916   0.677
 7105TIP3    H221280   0.665   1.984   0.554
 7106TIP3   OH221281   6.159   4.474   4.161
 7106TIP3    H121282   6.097   4.538   4.127
 7106TIP3    H221283   6.245   4.515   4.148
 7107TIP3   OH221284   0.221   3.286   2.029
 7107TIP3    H121285   0.220   3.248   2.116
 7107TIP3    H221286   0.273   3.366   2.038
 7108TIP3   OH221287   6.041   1.051   4.564
 7108TIP3    H121288   5.984   1.065   4.639
 7108TIP3    H221289   6.129   1.047   4.601
 7109TIP3   OH221290   6.074   3.364   1.378
 7109TIP3    H121291   6.029   3.279   1.381
 7109TIP3    H221292   6.150   3.348   1.322
 7110TIP3   OH221293   6.740   6.845   3.367
 7110TIP3    H121294   6.675   6.877   3.305
 7110TIP3    H221295   6.691   6.790   3.428
 7111TIP3   OH221296   4.044   2.858   2.153
 7111TIP3    H121297   4.099   2.786   2.122
 7111TIP3    H221298   4.065   2.866   2.246
 7112TIP3   OH221299   4.658   5.034   3.105
 7112TIP3    H121300   4.659   5.098   3.176
 7112TIP3    H221301   4.573   5.046   3.063
 7113TIP3   OH221302   1.556   3.568   3.938
 7113TIP3    H121303   1.597   3.561   3.852
 7113TIP3    H221304   1.480   3.510   3.933
 7114TIP3   OH221305   5.707   1.263   5.220
 7114TIP3    H121306   5.647   1.293   5.289
 7114TIP3    H221307   5.791   1.303   5.243
 7115TIP3   OH221308   1.204   6.369   2.297
 7115TIP3    H121309   1.165   6.419   2.368
 7115TIP3    H221310   1.205   6.428   2.222
 7116TIP3   OH221311   3.778   6.723   1.773
 7116TIP3    H121312   3.806   6.631   1.776
 7116TIP3    H221313   3.778   6.744   1.680
 7117TIP3   OH221314   5.499   1.537   4.132
 7117TIP3    H121315   5.558   1.533   4.056
 7117TIP3    H221316   5.494   1.630   4.153
 7118TIP3   OH221317   5.420   4.162   4.809
 7118TIP3    H121318   5.377   4.157   4.724
 7118TIP3    H221319   5.448   4.254   4.817
 7119TIP3   OH221320   0.876   1.497   2.079
 7119TIP3    H121321   0.971   1.486   2.074
 7119TIP3    H221322   0.860   1.583   2.042
 7120TIP3   OH221323   7.154   4.078   2.275
 7120TIP3    H121324   7.235   4.063   2.226
 7120TIP3    H221325   7.104   3.997   2.265
 7121TIP3   OH221326   6.954   1.633   2.809
 7121TIP3    H121327   6.986   1.697   2.872
 7121TIP3    H221328   6.879   1.592   2.853
 7122TIP3   OH221329   5.754   4.855   5.089
 7122TIP3    H121330   5.783   4.923   5.028
 7122TIP3    H221331   5.793   4.775   5.055
 7123TIP3   OH221332   2.676   1.848   3.922
 7123TIP3    H121333   2.766   1.833   3.951
 7123TIP3    H221334   2.674   1.813   3.833
 7124TIP3   OH221335   2.041   6.759   2.479
 7124TIP3    H121336   1.959   6.710   2.492
 7124TIP3    H221337   2.014   6.839   2.433
 7125TIP3   OH221338   5.943   4.387   5.356
 7125TIP3    H121339   6.020   4.443   5.366
 7125TIP3    H221340   5.978   4.298   5.366
 7126TIP3   OH221341   0.203   0.242   0.304
 7126TIP3    H121342   0.140   0.291   0.357
 7126TIP3    H221343   0.158   0.161   0.282
 7127TIP3   OH221344   3.655   5.351   4.724
 7127TIP3    H121345   3.658   5.373   4.817
 7127TIP3    H221346   3.620   5.430   4.682
 7128TIP3   OH221347   0.942   4.906   2.444
 7128TIP3    H121348   0.884   4.905   2.520
 7128TIP3    H221349   1.030   4.902   2.480
 7129TIP3   OH221350   1.099   5.983   2.004
 7129TIP3    H121351   1.107   6.038   1.926
 7129TIP3    H221352   1.167   5.917   1.995
 7130TIP3   OH221353   7.117   0.522   4.175
 7130TIP3    H121354   7.179   0.550   4.108
 7130TIP3    H221355   7.056   0.464   4.128
 7131TIP3   OH221356   3.022   4.816   1.838
 7131TIP3    H121357   3.094   4.755   1.825
 7131TIP3    H221358   3.065   4.901   1.850
 7132TIP3   OH221359   1.337   2.080   0.940
 7132TIP3    H121360   1.286   2.040   1.010
 7132TIP3    H221361   1.277   2.080   0.865
 7133TIP3   OH221362   2.593   5.401   1.493
 7133TIP3    H121363   2.589   5.496   1.502
 7133TIP3    H221364   2.638   5.371   1.572
 7134TIP3   OH221365   3.385   4.233   1.407
 7134TIP3    H121366   3.383   4.149   1.361
 7134TIP3    H221367   3.329   4.219   1.484
 7135TIP3   OH221368   2.696   2.669   3.284
 7135TIP3    H121369   2.645   2.601   3.242
 7135TIP3    H221370   2.642   2.698   3.358
 7136TIP3   OH221371   6.934   6.462   5.022
 7136TIP3    H121372   6.869   6.481   5.091
 7136TIP3    H221373   6.934   6.366   5.016
 7137TIP3   OH221374   2.544   2.064   4.282
 7137TIP3    H121375   2.624   2.110   4.257
 7137TIP3    H221376   2.562   1.972   4.266
 7138TIP3   OH221377   2.732   2.394   0.259
 7138TIP3    H121378   2.653   2.445   0.272
 7138TIP3    H221379   2.708   2.330   0.192
 7139TIP3   OH221380   4.966   6.467   4.344
 7139TIP3    H121381   4.984   6.476   4.251
 7139TIP3    H221382   5.053   6.465   4.385
 7140TIP3   OH221383   5.474   0.952   1.131
 7140TIP3    H121384   5.504   1.025   1.076
 7140TIP3    H221385   5.388   0.930   1.095
 7141TIP3   OH221386   2.866   4.863   4.372
 7141TIP3    H121387   2.828   4.819   4.296
 7141TIP3    H221388   2.958   4.836   4.371
 7142TIP3   OH221389   3.110   4.699   4.525
 7142TIP3    H121390   3.167   4.636   4.568
 7142TIP3    H221391   3.107   4.774   4.585
 7143TIP3   OH221392   0.610   0.091   0.175
 7143TIP3    H121393   0.557   0.164   0.144
 7143TIP3    H221394   0.583   0.017   0.120
 7144TIP3   OH221395   1.201   0.869   4.331
 7144TIP3    H121396   1.217   0.855   4.238
 7144TIP3    H221397   1.194   0.781   4.368
 7145TIP3   OH221398   1.504   3.870   5.293
 7145TIP3    H121399   1.421   3.822   5.293
 7145TIP3    H221400   1.567   3.809   5.332
 7146TIP3   OH221401   5.981   0.410   3.260
 7146TIP3    H121402   6.029   0.440   3.183
 7146TIP3    H221403   6.049   0.389   3.324
 7147TIP3   OH221404   7.009   2.350   2.688
 7147TIP3    H121405   6.979   2.313   2.605
 7147TIP3    H221406   7.042   2.437   2.664
 7148TIP3   OH221407   5.621   2.280   5.856
 7148TIP3    H121408   5.529   2.268   5.830
 7148TIP3    H221409   5.632   2.375   5.862
 7149TIP3   OH221410   3.118   0.557   0.534
 7149TIP3    H121411   3.190   0.501   0.503
 7149TIP3    H221412   3.113   0.627   0.469
 7150TIP3   OH221413   3.636   5.092   4.607
 7150TIP3    H121414   3.627   5.168   4.664
 7150TIP3    H221415   3.716   5.109   4.557
 7151TIP3   OH221416   5.923   6.567   4.422
 7151TIP3    H121417   5.935   6.557   4.328
 7151TIP3    H221418   5.870   6.646   4.431
 7152TIP3   OH221419   0.529   1.747   0.777
 7152TIP3    H121420   0.548   1.684   0.707
 7152TIP3    H221421   0.534   1.695   0.858
 7153TIP3   OH221422   5.586   0.142   1.045
 7153TIP3    H121423   5.553   0.065   0.998
 7153TIP3    H221424   5.509   0.198   1.055
 7154TIP3   OH221425   7.165   1.581   2.024
 7154TIP3    H121426   7.238   1.639   2.003
 7154TIP3    H221427   7.206   1.500   2.055
 7155TIP3   OH221428   3.223   6.243   0.995
 7155TIP3    H121429   3.167   6.166   0.986
 7155TIP3    H221430   3.280   6.241   0.918
 7156TIP3   OH221431   1.332  -0.016   4.342
 7156TIP3    H121432   1.284  -0.068   4.278
 7156TIP3    H221433   1.329   0.073   4.308
 7157TIP3   OH221434   5.757   2.724   0.764
 7157TIP3    H121435   5.671   2.724   0.722
 7157TIP3    H221436   5.791   2.636   0.748
 7158TIP3   OH221437   4.293   4.244   0.887
 7158TIP3    H121438   4.371   4.203   0.849
 7158TIP3    H221439   4.242   4.271   0.811
 7159TIP3   OH221440   1.194   5.388   1.296
 7159TIP3    H121441   1.127   5.437   1.248
 7159TIP3    H221442   1.260   5.368   1.230
 7160TIP3   OH221443   0.059   5.487   2.099
 7160TIP3    H121444   0.153   5.495   2.080
 7160TIP3    H221445   0.048   5.531   2.183
 7161TIP3   OH221446   3.482   4.835   2.548
 7161TIP3    H121447   3.533   4.894   2.603
 7161TIP3    H221448   3.505   4.747   2.580
 7162TIP3   OH221449   5.444   6.070   1.633
 7162TIP3    H121450   5.527   6.082   1.681
 7162TIP3    H221451   5.385   6.135   1.671
 7163TIP3   OH221452   0.071   2.140   1.790
 7163TIP3    H121453   0.015   2.187   1.852
 7163TIP3    H221454   0.160   2.168   1.811
 7164TIP3   OH221455   5.853   1.640   4.178
 7164TIP3    H121456   5.834   1.703   4.248
 7164TIP3    H221457   5.876   1.560   4.223
 7165TIP3   OH221458   6.132   0.851   4.874
 7165TIP3    H121459   6.176   0.800   4.806
 7165TIP3    H221460   6.047   0.874   4.835
 7166TIP3   OH221461   4.862   3.872   3.797
 7166TIP3    H121462   4.873   3.788   3.753
 7166TIP3    H221463   4.800   3.920   3.742
 7167TIP3   OH221464   0.459   6.588   2.051
 7167TIP3    H121465   0.374   6.584   2.008
 7167TIP3    H221466   0.474   6.682   2.065
 7168TIP3   OH221467   1.209   1.606   5.360
 7168TIP3    H121468   1.184   1.601   5.268
 7168TIP3    H221469   1.302   1.628   5.359
 7169TIP3   OH221470   5.085   1.183   4.125
 7169TIP3    H121471   5.001   1.173   4.079
 7169TIP3    H221472   5.100   1.278   4.127
 7170TIP3   OH221473   1.357   1.935   2.420
 7170TIP3    H121474   1.285   1.872   2.410
 7170TIP3    H221475   1.426   1.885   2.466
 7171TIP3   OH221476   5.209   6.006   2.923
 7171TIP3    H121477   5.264   5.999   3.001
 7171TIP3    H221478   5.157   6.085   2.937
 7172TIP3   OH221479   6.622   5.010   4.095
 7172TIP3    H121480   6.627   4.914   4.101
 7172TIP3    H221481   6.549   5.027   4.035
 7173TIP3   OH221482   4.683   3.880   5.658
 7173TIP3    H121483   4.638   3.959   5.630
 7173TIP3    H221484   4.612   3.818   5.679
 7174TIP3   OH221485   3.909   4.284   2.070
 7174TIP3    H121486   3.826   4.241   2.088
 7174TIP3    H221487   3.951   4.229   2.004
 7175TIP3   OH221488   2.154   1.966   0.456
 7175TIP3    H121489   2.065   1.955   0.421
 7175TIP3    H221490   2.191   2.037   0.403
 7176TIP3   OH221491   0.743   2.695   5.001
 7176TIP3    H121492   0.656   2.711   5.036
 7176TIP3    H221493   0.747   2.600   4.987
 7177TIP3   OH221494   6.577   5.023   0.014
 7177TIP3    H121495   6.546   5.023  -0.077
 7177TIP3    H221496   6.621   5.108   0.024
 7178TIP3   OH221497   3.761   0.165   3.406
 7178TIP3    H121498   3.724   0.093   3.356
 7178TIP3    H221499   3.704   0.173   3.483
 7179TIP3   OH221500   6.118   6.480   2.596
 7179TIP3    H121501   6.122   6.571   2.565
 7179TIP3    H221502   6.026   6.468   2.622
 7180TIP3   OH221503   1.425   1.834   0.785
 7180TIP3    H121504   1.475   1.799   0.859
 7180TIP3    H221505   1.405   1.924   0.809
 7181TIP3   OH221506   6.996   6.190   3.458
 7181TIP3    H121507   7.020   6.257   3.395
 7181TIP3    H221508   7.028   6.223   3.542
 7182TIP3   OH221509   1.392   3.635   2.731
 7182TIP3    H121510   1.329   3.605   2.797
 7182TIP3    H221511   1.337   3.677   2.664
 7183TIP3   OH221512   0.566   2.008   1.372
 7183TIP3    H121513   0.570   1.986   1.279
 7183TIP3    H221514   0.517   2.091   1.375
 7184TIP3   OH221515   2.033   3.104   4.870
 7184TIP3    H121516   2.112   3.116   4.817
 7184TIP3    H221517   1.961   3.101   4.807
 7185TIP3   OH221518   5.855   5.793   3.992
 7185TIP3    H121519   5.850   5.887   4.007
 7185TIP3    H221520   5.884   5.784   3.901
 7186TIP3   OH221521   1.011   2.768   5.488
 7186TIP3    H121522   0.992   2.713   5.412
 7186TIP3    H221523   0.982   2.716   5.563
 7187TIP3   OH221524   5.012   1.804   2.089
 7187TIP3    H121525   4.972   1.889   2.072
 7187TIP3    H221526   5.006   1.757   2.005
 7188TIP3   OH221527   0.246   4.998   4.973
 7188TIP3    H121528   0.301   4.933   4.932
 7188TIP3    H221529   0.252   5.075   4.915
 7189TIP3   OH221530   0.012   5.082   2.831
 7189TIP3    H121531  -0.048   5.017   2.868
 7189TIP3    H221532   0.098   5.039   2.835
 7190TIP3   OH221533   5.071   6.520   1.866
 7190TIP3    H121534   4.991   6.480   1.832
 7190TIP3    H221535   5.053   6.532   1.960
 7191TIP3   OH221536   1.880   2.569   2.160
 7191TIP3    H121537   1.937   2.616   2.221
 7191TIP3    H221538   1.832   2.639   2.115
 7192TIP3   OH221539   0.276   6.628   3.386
 7192TIP3    H121540   0.192   6.590   3.411
 7192TIP3    H221541   0.341   6.568   3.423
 7193TIP3   OH221542   3.484   4.825   0.326
 7193TIP3    H121543   3.432   4.830   0.246
 7193TIP3    H221544   3.563   4.777   0.301
 7194TIP3   OH221545   3.708   5.480   1.813
 7194TIP3    H121546   3.708   5.555   1.872
 7194TIP3    H221547   3.801   5.460   1.799
 7195TIP3   OH221548   1.582   4.782   4.589
 7195TIP3    H121549   1.650   4.719   4.610
 7195TIP3    H221550   1.622   4.841   4.525
 7196TIP3   OH221551   0.146   0.061   5.621
 7196TIP3    H121552   0.223   0.008   5.602
 7196TIP3    H221553   0.074   0.018   5.575
 7197TIP3   OH221554   5.719   5.985   3.565
 7197TIP3    H121555   5.643   5.943   3.526
 7197TIP3    H221556   5.684   6.064   3.607
 7198TIP3   OH221557   3.467   3.196   0.122
 7198TIP3    H121558   3.388   3.142   0.117
 7198TIP3    H221559   3.521   3.165   0.049
 7199TIP3   OH221560   3.795   3.662   4.650
 7199TIP3    H121561   3.867   3.669   4.587
 7199TIP3    H221562   3.816   3.585   4.702
 7200TIP3   OH221563   6.591   5.446   2.170
 7200TIP3    H121564   6.505   5.432   2.210
 7200TIP3    H221565   6.591   5.539   2.146
 7201TIP3   OH221566   5.139   1.528   2.531
 7201TIP3    H121567   5.146   1.462   2.462
 7201TIP3    H221568   5.207   1.505   2.594
 7202TIP3   OH221569   5.696   0.390   5.765
 7202TIP3    H121570   5.674   0.436   5.846
 7202TIP3    H221571   5.615   0.392   5.713
 7203TIP3   OH221572   1.782   5.266   5.853
 7203TIP3    H121573   1.844   5.205   5.813
 7203TIP3    H221574   1.779   5.340   5.793
 7204TIP3   OH221575   2.273   2.414   4.665
 7204TIP3    H121576   2.280   2.440   4.574
 7204TIP3    H221577   2.232   2.489   4.708
 7205TIP3   OH221578   1.330   0.114   5.062
 7205TIP3    H121579   1.279   0.037   5.088
 7205TIP3    H221580   1.272   0.163   5.003
 7206TIP3   OH221581   1.580   2.027   5.897
 7206TIP3    H121582   1.501   2.072   5.927
 7206TIP3    H221583   1.577   2.033   5.802
 7207TIP3   OH221584   3.568   3.707   1.370
 7207TIP3    H121585   3.508   3.780   1.387
 7207TIP3    H221586   3.524   3.655   1.303
 7208TIP3   OH221587   2.005   5.712   3.576
 7208TIP3    H121588   1.961   5.658   3.510
 7208TIP3    H221589   1.977   5.675   3.660
 7209TIP3   OH221590   3.296   1.225   5.055
 7209TIP3    H121591   3.337   1.250   4.972
 7209TIP3    H221592   3.337   1.281   5.120
 7210TIP3   OH221593   6.413   5.275   4.891
 7210TIP3    H121594   6.471   5.279   4.815
 7210TIP3    H221595   6.338   5.328   4.866
 7211TIP3   OH221596   5.546   0.107   2.890
 7211TIP3    H121597   5.477   0.064   2.841
 7211TIP3    H221598   5.610   0.133   2.823
 7212TIP3   OH221599   2.606  -0.015   0.097
 7212TIP3    H121600   2.694  -0.016   0.059
 7212TIP3    H221601   2.584   0.078   0.102
 7213TIP3   OH221602   7.005   1.673   4.576
 7213TIP3    H121603   7.078   1.735   4.571
 7213TIP3    H221604   6.970   1.684   4.665
 7214TIP3   OH221605   0.760   2.966   2.738
 7214TIP3    H121606   0.708   2.944   2.815
 7214TIP3    H221607   0.818   2.892   2.726
 7215TIP3   OH221608   4.385   5.791   4.989
 7215TIP3    H121609   4.468   5.756   5.021
 7215TIP3    H221610   4.384   5.769   4.896
 7216TIP3   OH221611   1.010   2.759   1.736
 7216TIP3    H121612   1.042   2.678   1.776
 7216TIP3    H221613   1.059   2.829   1.779
 7217TIP3   OH221614   2.289   3.090   3.636
 7217TIP3    H121615   2.320   3.081   3.545
 7217TIP3    H221616   2.219   3.025   3.644
 7218TIP3   OH221617   0.818   3.382   2.397
 7218TIP3    H121618   0.829   3.355   2.306
 7218TIP3    H221619   0.815   3.299   2.446
 7219TIP3   OH221620   3.597   0.875   0.904
 7219TIP3    H121621   3.549   0.875   0.821
 7219TIP3    H221622   3.623   0.783   0.916
 7220TIP3   OH221623   7.086   5.411   3.801
 7220TIP3    H121624   7.043   5.325   3.795
 7220TIP3    H221625   7.024   5.465   3.851
 7221TIP3   OH221626   2.219   4.216   3.885
 7221TIP3    H121627   2.176   4.167   3.815
 7221TIP3    H221628   2.312   4.210   3.865
 7222TIP3   OH221629   6.074   1.659   2.760
 7222TIP3    H121630   6.156   1.675   2.807
 7222TIP3    H221631   6.101   1.627   2.674
 7223TIP3   OH221632   4.701   4.561   4.028
 7223TIP3    H121633   4.698   4.489   3.966
 7223TIP3    H221634   4.662   4.525   4.108
 7224TIP3   OH221635   1.815   0.447   4.674
 7224TIP3    H121636   1.781   0.358   4.681
 7224TIP3    H221637   1.904   0.436   4.641
 7225TIP3   OH221638   1.284   4.568   5.228
 7225TIP3    H121639   1.284   4.478   5.196
 7225TIP3    H221640   1.377   4.593   5.228
 7226TIP3   OH221641   3.998   4.573   4.199
 7226TIP3    H121642   3.999   4.516   4.275
 7226TIP3    H221643   4.046   4.526   4.132
 7227TIP3   OH221644   0.450   4.829   3.152
 7227TIP3    H121645   0.438   4.737   3.131
 7227TIP3    H221646   0.431   4.835   3.245
 7228TIP3   OH221647   5.893   4.232   2.485
 7228TIP3    H121648   5.871   4.297   2.552
 7228TIP3    H221649   5.988   4.221   2.492
 7229TIP3   OH221650   2.359   2.278   4.374
 7229TIP3    H121651   2.290   2.308   4.314
 7229TIP3    H221652   2.401   2.206   4.329
 7230TIP3   OH221653   5.566   3.162   3.816
 7230TIP3    H121654   5.472   3.141   3.811
 7230TIP3    H221655   5.607   3.099   3.756
 7231TIP3   OH221656   1.354   5.318   4.596
 7231TIP3    H121657   1.317   5.366   4.670
 7231TIP3    H221658   1.435   5.280   4.630
 7232TIP3   OH221659   6.056   5.283   5.836
 7232TIP3    H121660   6.114   5.345   5.793
 7232TIP3    H221661   6.048   5.210   5.773
 7233TIP3   OH221662   4.134   3.699   2.208
 7233TIP3    H121663   4.115   3.780   2.254
 7233TIP3    H221664   4.132   3.631   2.276
 7234TIP3   OH221665   2.564   6.537   3.193
 7234TIP3    H121666   2.562   6.617   3.247
 7234TIP3    H221667   2.491   6.548   3.132
 7235TIP3   OH221668   6.320   5.004   4.036
 7235TIP3    H121669   6.331   5.088   3.992
 7235TIP3    H221670   6.292   4.944   3.967
 7236TIP3   OH221671   1.310   3.441   2.116
 7236TIP3    H121672   1.297   3.449   2.211
 7236TIP3    H221673   1.401   3.415   2.107
 7237TIP3   OH221674   6.682   4.940   0.955
 7237TIP3    H121675   6.755   4.949   0.894
 7237TIP3    H221676   6.721   4.908   1.036
 7238TIP3   OH221677   4.163   5.116   1.090
 7238TIP3    H121678   4.127   5.077   1.010
 7238TIP3    H221679   4.258   5.104   1.081
 7239TIP3   OH221680   6.529   3.708   3.846
 7239TIP3    H121681   6.598   3.660   3.892
 7239TIP3    H221682   6.464   3.727   3.913
 7240TIP3   OH221683   1.862   1.734   1.950
 7240TIP3    H121684   1.950   1.700   1.965
 7240TIP3    H221685   1.819   1.728   2.036
 7241TIP3   OH221686   0.686   6.111   0.625
 7241TIP3    H121687   0.769   6.154   0.602
 7241TIP3    H221688   0.699   6.020   0.598
 7242TIP3   OH221689   1.078   2.011   0.422
 7242TIP3    H121690   1.146   2.046   0.364
 7242TIP3    H221691   1.073   1.918   0.400
 7243TIP3   OH221692   4.887   4.230   0.896
 7243TIP3    H121693   4.801   4.264   0.871
 7243TIP3    H221694   4.937   4.229   0.814
 7244TIP3   OH221695   2.805   5.476   5.712
 7244TIP3    H121696   2.717   5.509   5.730
 7244TIP3    H221697   2.864   5.541   5.751
 7245TIP3   OH221698   2.469   5.421   5.557
 7245TIP3    H121699   2.504   5.449   5.472
 7245TIP3    H221700   2.446   5.329   5.544
 7246TIP3   OH221701   4.584   6.678   2.201
 7246TIP3    H121702   4.674   6.707   2.216
 7246TIP3    H221703   4.531   6.757   2.210
 7247TIP3   OH221704   0.048   3.223   3.584
 7247TIP3    H121705   0.047   3.315   3.612
 7247TIP3    H221706  -0.006   3.178   3.649
 7248TIP3   OH221707   0.194   4.533   3.076
 7248TIP3    H121708   0.289   4.541   3.084
 7248TIP3    H221709   0.178   4.524   2.982
 7249TIP3   OH221710   2.367   1.219   1.418
 7249TIP3    H121711   2.456   1.198   1.445
 7249TIP3    H221712   2.361   1.314   1.426
 7250TIP3   OH221713   0.820   5.888   1.144
 7250TIP3    H121714   0.764   5.908   1.218
 7250TIP3    H221715   0.898   5.848   1.183
 7251TIP3   OH221716   5.492   6.005   4.295
 7251TIP3    H121717   5.468   6.098   4.301
 7251TIP3    H221718   5.450   5.974   4.215
 7252TIP3   OH221719   6.255   5.979   5.109
 7252TIP3    H121720   6.229   5.994   5.200
 7252TIP3    H221721   6.257   5.884   5.100
 7253TIP3   OH221722   1.265   4.776   0.382
 7253TIP3    H121723   1.244   4.815   0.467
 7253TIP3    H221724   1.360   4.771   0.381
 7254TIP3   OH221725   4.390   6.458   4.014
 7254TIP3    H121726   4.443   6.397   3.962
 7254TIP3    H221727   4.383   6.536   3.960
 7255TIP3   OH221728   6.633   0.909   5.577
 7255TIP3    H121729   6.567   0.858   5.530
 7255TIP3    H221730   6.583   0.956   5.644
 7256TIP3   OH221731   4.132   4.331   0.643
 7256TIP3    H121732   4.196   4.381   0.592
 7256TIP3    H221733   4.069   4.396   0.672
 7257TIP3   OH221734   0.208   6.254   2.244
 7257TIP3    H121735   0.146   6.189   2.278
 7257TIP3    H221736   0.153   6.318   2.198
 7258TIP3   OH221737   3.758   3.063   4.754
 7258TIP3    H121738   3.726   3.127   4.691
 7258TIP3    H221739   3.684   3.050   4.814
 7259TIP3   OH221740   5.981   2.846   5.273
 7259TIP3    H121741   6.001   2.937   5.252
 7259TIP3    H221742   5.924   2.817   5.201
 7260TIP3   OH221743   4.192   0.620   2.689
 7260TIP3    H121744   4.274   0.634   2.738
 7260TIP3    H221745   4.162   0.708   2.666
 7261TIP3   OH221746   4.520   6.267   1.998
 7261TIP3    H121747   4.466   6.318   2.058
 7261TIP3    H221748   4.607   6.266   2.039
 7262TIP3   OH221749   4.722   0.851   1.777
 7262TIP3    H121750   4.787   0.781   1.788
 7262TIP3    H221751   4.641   0.805   1.755
 7263TIP3   OH221752   1.585   0.869   2.619
 7263TIP3    H121753   1.657   0.823   2.664
 7263TIP3    H221754   1.584   0.956   2.659
 7264TIP3   OH221755   6.887   5.188   1.251
 7264TIP3    H121756   6.795   5.173   1.270
 7264TIP3    H221757   6.895   5.176   1.157
 7265TIP3   OH221758   6.979   6.394   2.936
 7265TIP3    H121759   7.006   6.362   3.022
 7265TIP3    H221760   7.052   6.370   2.878
 7266TIP3   OH221761   7.146   5.007   4.287
 7266TIP3    H121762   7.225   4.980   4.333
 7266TIP3    H221763   7.147   4.957   4.206
 7267TIP3   OH221764   2.141   3.442   2.898
 7267TIP3    H121765   2.166   3.469   2.986
 7267TIP3    H221766   2.222   3.446   2.847
 7268TIP3   OH221767   1.017   4.154   3.655
 7268TIP3    H121768   1.036   4.171   3.747
 7268TIP3    H221769   0.967   4.231   3.626
 7269TIP3   OH221770   2.916   4.587   1.243
 7269TIP3    H121771   2.893   4.494   1.239
 7269TIP3    H221772   2.982   4.599   1.175
 7270TIP3   OH221773   3.338   4.547   1.505
 7270TIP3    H121774   3.413   4.488   1.495
 7270TIP3    H221775   3.372   4.621   1.554
 7271TIP3   OH221776   2.211   2.133   0.706
 7271TIP3    H121777   2.215   2.228   0.703
 7271TIP3    H221778   2.177   2.107   0.621
 7272TIP3   OH221779   3.328   3.603   3.651
 7272TIP3    H121780   3.329   3.507   3.648
 7272TIP3    H221781   3.419   3.627   3.672
 7273TIP3   OH221782   4.407   5.050   0.113
 7273TIP3    H121783   4.331   5.101   0.085
 7273TIP3    H221784   4.382   4.959   0.096
 7274TIP3   OH221785   0.400   6.340   5.207
 7274TIP3    H121786   0.487   6.337   5.169
 7274TIP3    H221787   0.403   6.277   5.279
 7275TIP3   OH221788   6.866   3.922   0.829
 7275TIP3    H121789   6.862   4.017   0.819
 7275TIP3    H221790   6.776   3.896   0.849
 7276TIP3   OH221791   1.796   5.116   5.037
 7276TIP3    H121792   1.770   5.079   5.121
 7276TIP3    H221793   1.749   5.064   4.972
 7277TIP3   OH221794   2.498   3.296   0.935
 7277TIP3    H121795   2.416   3.345   0.931
 7277TIP3    H221796   2.472   3.205   0.923
 7278TIP3   OH221797   1.203   3.259   5.477
 7278TIP3    H121798   1.195   3.175   5.431
 7278TIP3    H221799   1.295   3.263   5.503
 7279TIP3   OH221800   5.551   6.612   2.709
 7279TIP3    H121801   5.632   6.616   2.760
 7279TIP3    H221802   5.580   6.598   2.619
 7280TIP3   OH221803   3.075   6.005   3.735
 7280TIP3    H121804   2.993   5.986   3.781
 7280TIP3    H221805   3.076   5.943   3.662
 7281TIP3   OH221806   4.810   1.489   3.826
 7281TIP3    H121807   4.758   1.565   3.801
 7281TIP3    H221808   4.784   1.420   3.765
 7282TIP3   OH221809   4.534   3.473   0.086
 7282TIP3    H121810   4.442   3.465   0.060
 7282TIP3    H221811   4.540   3.560   0.125
 7283TIP3   OH221812   0.865   1.278   1.503
 7283TIP3    H121813   0.927   1.314   1.440
 7283TIP3    H221814   0.847   1.189   1.472
 7284TIP3   OH221815   1.025   5.415   4.664
 7284TIP3    H121816   0.956   5.398   4.728
 7284TIP3    H221817   1.095   5.455   4.715
 7285TIP3   OH221818   5.777   2.464   1.747
 7285TIP3    H121819   5.771   2.558   1.727
 7285TIP3    H221820   5.871   2.445   1.743
 7286TIP3   OH221821   0.057   1.542   0.124
 7286TIP3    H121822   0.022   1.630   0.128
 7286TIP3    H221823   0.123   1.544   0.055
 7287TIP3   OH221824   4.091   3.840   0.160
 7287TIP3    H121825   4.171   3.877   0.198
 7287TIP3    H221826   4.025   3.909   0.172
 7288TIP3   OH221827   1.716   6.576   2.161
 7288TIP3    H121828   1.781   6.576   2.232
 7288TIP3    H221829   1.632   6.563   2.205
 7289TIP3   OH221830   3.615   3.546   5.357
 7289TIP3    H121831   3.645   3.465   5.398
 7289TIP3    H221832   3.543   3.520   5.301
 7290TIP3   OH221833   5.537   3.103   2.903
 7290TIP3    H121834   5.551   3.147   2.819
 7290TIP3    H221835   5.599   3.030   2.902
 7291TIP3   OH221836   2.505   5.279   2.748
 7291TIP3    H121837   2.510   5.212   2.680
 7291TIP3    H221838   2.469   5.356   2.704
 7292TIP3   OH221839   1.483   2.977   1.784
 7292TIP3    H121840   1.436   3.060   1.786
 7292TIP3    H221841   1.528   2.973   1.868
 7293TIP3   OH221842   5.415   2.579   2.981
 7293TIP3    H121843   5.388   2.512   2.918
 7293TIP3    H221844   5.365   2.656   2.956
 7294TIP3   OH221845   0.384   2.264   4.271
 7294TIP3    H121846   0.430   2.273   4.187
 7294TIP3    H221847   0.357   2.353   4.293
 7295TIP3   OH221848   5.034   4.862   2.524
 7295TIP3    H121849   5.090   4.791   2.556
 7295TIP3    H221850   5.086   4.904   2.455
 7296TIP3   OH221851   1.947   5.686   0.666
 7296TIP3    H121852   1.954   5.650   0.755
 7296TIP3    H221853   1.876   5.636   0.625
 7297TIP3   OH221854   0.264   1.715   0.275
 7297TIP3    H121855   0.319   1.790   0.254
 7297TIP3    H221856   0.178   1.737   0.239
 7298TIP3   OH221857   0.268   0.404   0.602
 7298TIP3    H121858   0.202   0.343   0.569
 7298TIP3    H221859   0.298   0.364   0.684
 7299TIP3   OH221860   5.868   1.071   3.832
 7299TIP3    H121861   5.953   1.107   3.805
 7299TIP3    H221862   5.884   0.977   3.841
 7300TIP3   OH221863   2.973   0.132   2.076
 7300TIP3    H121864   3.060   0.115   2.113
 7300TIP3    H221865   2.989   0.144   1.982
 7301TIP3   OH221866   1.290   4.634   4.740
 7301TIP3    H121867   1.204   4.661   4.710
 7301TIP3    H221868   1.333   4.600   4.661
 7302TIP3   OH221869   6.556   1.095   1.473
 7302TIP3    H121870   6.626   1.045   1.514
 7302TIP3    H221871   6.600   1.167   1.428
 7303TIP3   OH221872   5.504   1.631   3.830
 7303TIP3    H121873   5.598   1.651   3.827
 7303TIP3    H221874   5.469   1.691   3.896
 7304TIP3   OH221875   3.696   6.534   2.469
 7304TIP3    H121876   3.790   6.545   2.483
 7304TIP3    H221877   3.684   6.439   2.464
 7305TIP3   OH221878   3.656   4.319   4.769
 7305TIP3    H121879   3.736   4.371   4.774
 7305TIP3    H221880   3.591   4.381   4.735
 7306TIP3   OH221881   2.829   6.579   5.491
 7306TIP3    H121882   2.762   6.547   5.552
 7306TIP3    H221883   2.843   6.670   5.516
 7307TIP3   OH221884   6.781   4.518   3.894
 7307TIP3    H121885   6.688   4.518   3.870
 7307TIP3    H221886   6.807   4.426   3.893
 7308TIP3   OH221887   0.924   6.281   1.517
 7308TIP3    H121888   0.985   6.344   1.556
 7308TIP3    H221889   0.942   6.199   1.562
 7309TIP3   OH221890   0.167   4.014   1.248
 7309TIP3    H121891   0.176   4.102   1.209
 7309TIP3    H221892   0.085   3.981   1.213
 7310TIP3   OH221893   2.876   1.339   5.444
 7310TIP3    H121894   2.785   1.312   5.439
 7310TIP3    H221895   2.872   1.433   5.461
 7311TIP3   OH221896  -0.014   2.487   0.916
 7311TIP3    H121897   0.070   2.463   0.876
 7311TIP3    H221898  -0.007   2.581   0.930
 7312TIP3   OH221899   1.408   3.766   3.019
 7312TIP3    H121900   1.445   3.834   2.963
 7312TIP3    H221901   1.366   3.705   2.959
 7313TIP3   OH221902   1.373   3.304   1.139
 7313TIP3    H121903   1.335   3.327   1.055
 7313TIP3    H221904   1.419   3.222   1.124
 7314TIP3   OH221905   4.990   6.573   3.438
 7314TIP3    H121906   5.080   6.554   3.409
 7314TIP3    H221907   4.975   6.512   3.510
 7315TIP3   OH221908   6.325   5.198   3.060
 7315TIP3    H121909   6.234   5.184   3.032
 7315TIP3    H221910   6.318   5.229   3.150
 7316TIP3   OH221911   0.626   1.311   3.484
 7316TIP3    H121912   0.635   1.244   3.417
 7316TIP3    H221913   0.672   1.276   3.560
 7317TIP3   OH221914   0.224   4.629   2.060
 7317TIP3    H121915   0.182   4.548   2.089
 7317TIP3    H221916   0.305   4.633   2.111
 7318TIP3   OH221917   4.152   2.299   4.478
 7318TIP3    H121918   4.090   2.347   4.533
 7318TIP3    H221919   4.149   2.209   4.510
 7319TIP3   OH221920   1.526   1.686   2.058
 7319TIP3    H121921   1.620   1.700   2.066
 7319TIP3    H221922   1.497   1.671   2.148
 7320TIP3   OH221923   2.290   3.929   4.660
 7320TIP3    H121924   2.287   3.862   4.729
 7320TIP3    H221925   2.272   4.011   4.705
 7321TIP3   OH221926   7.120   4.184   2.536
 7321TIP3    H121927   7.166   4.147   2.460
 7321TIP3    H221928   7.116   4.112   2.599
 7322TIP3   OH221929   0.683   1.055   3.321
 7322TIP3    H121930   0.778   1.049   3.326
 7322TIP3    H221931   0.652   1.015   3.402
 7323TIP3   OH221932   7.014   4.284   4.647
 7323TIP3    H121933   7.087   4.345   4.646
 7323TIP3    H221934   6.958   4.315   4.718
 7324TIP3   OH221935   1.366   2.603   0.297
 7324TIP3    H121936   1.389   2.660   0.223
 7324TIP3    H221937   1.279   2.570   0.275
 7325TIP3   OH221938   0.628   2.968   1.792
 7325TIP3    H121939   0.697   3.033   1.778
 7325TIP3    H221940   0.562   3.015   1.843
 7326TIP3   OH221941   4.000   1.062   3.969
 7326TIP3    H121942   4.069   1.003   3.937
 7326TIP3    H221943   3.932   1.004   4.002
 7327TIP3   OH221944   4.411   3.431   1.467
 7327TIP3    H121945   4.411   3.494   1.396
 7327TIP3    H221946   4.488   3.454   1.520
 7328TIP3   OH221947   4.239   3.850   3.157
 7328TIP3    H121948   4.325   3.892   3.162
 7328TIP3    H221949   4.242   3.799   3.076
 7329TIP3   OH221950   4.047   0.778   2.190
 7329TIP3    H121951   3.991   0.850   2.220
 7329TIP3    H221952   4.041   0.713   2.260
 7330TIP3   OH221953   2.709   6.434   4.410
 7330TIP3    H121954   2.718   6.394   4.324
 7330TIP3    H221955   2.798   6.441   4.443
 7331TIP3   OH221956   5.949   4.021   1.614
 7331TIP3    H121957   6.001   4.087   1.661
 7331TIP3    H221958   5.871   4.067   1.584
 7332TIP3   OH221959   6.351   5.719   5.104
 7332TIP3    H121960   6.310   5.708   5.189
 7332TIP3    H221961   6.332   5.638   5.057
 7333TIP3   OH221962   3.029   6.157   5.272
 7333TIP3    H121963   2.943   6.128   5.302
 7333TIP3    H221964   3.032   6.250   5.295
 7334TIP3   OH221965   3.716   2.135   3.397
 7334TIP3    H121966   3.761   2.194   3.337
 7334TIP3    H221967   3.734   2.048   3.363
 7335TIP3   OH221968   5.194   5.849   0.447
 7335TIP3    H121969   5.201   5.793   0.525
 7335TIP3    H221970   5.111   5.823   0.407
 7336TIP3   OH221971   4.676   5.777   3.666
 7336TIP3    H121972   4.744   5.835   3.701
 7336TIP3    H221973   4.594   5.815   3.697
 7337TIP3   OH221974   5.820   5.185   1.631
 7337TIP3    H121975   5.878   5.131   1.576
 7337TIP3    H221976   5.863   5.270   1.634
 7338TIP3   OH221977   5.068   0.077   2.929
 7338TIP3    H121978   5.110   0.109   3.009
 7338TIP3    H221979   4.975   0.073   2.950
 7339TIP3   OH221980   5.867   2.249   5.301
 7339TIP3    H121981   5.880   2.165   5.258
 7339TIP3    H221982   5.772   2.253   5.317
 7340TIP3   OH221983   2.064   2.833   3.111
 7340TIP3    H121984   1.983   2.782   3.105
 7340TIP3    H221985   2.048   2.909   3.055
 7341TIP3   OH221986   1.886   1.580   4.744
 7341TIP3    H121987   1.838   1.592   4.826
 7341TIP3    H221988   1.825   1.533   4.687
 7342TIP3   OH221989   0.212   1.874   1.476
 7342TIP3    H121990   0.200   1.919   1.559
 7342TIP3    H221991   0.304   1.850   1.474
 7343TIP3   OH221992   0.378   4.268   3.327
 7343TIP3    H121993   0.365   4.286   3.420
 7343TIP3    H221994   0.443   4.332   3.299
 7344TIP3   OH221995   5.645   5.357   0.243
 7344TIP3    H121996   5.601   5.442   0.236
 7344TIP3    H221997   5.607   5.305   0.172
 7345TIP3   OH221998   5.059   2.842   5.863
 7345TIP3    H121999   4.965   2.861   5.861
 7345TIP3    H222000   5.096   2.909   5.921
 7346TIP3   OH222001   0.338   5.067   1.382
 7346TIP3    H122002   0.248   5.056   1.351
 7346TIP3    H222003   0.376   4.979   1.382
 7347TIP3   OH222004   0.574   6.758   2.726
 7347TIP3    H122005   0.637   6.812   2.774
 7347TIP3    H222006   0.624   6.724   2.651
 7348TIP3   OH222007   5.051   4.537   1.714
 7348TIP3    H122008   5.081   4.448   1.731
 7348TIP3    H222009   5.067   4.551   1.621
 7349TIP3   OH222010   4.324   1.921   4.439
 7349TIP3    H122011   4.271   1.948   4.364
 7349TIP3    H222012   4.412   1.952   4.418
 7350TIP3   OH222013   1.132   5.409   0.775
 7350TIP3    H122014   1.059   5.467   0.753
 7350TIP3    H222015   1.209   5.452   0.737
 7351TIP3   OH222016   5.261   4.209   1.282
 7351TIP3    H122017   5.298   4.122   1.264
 7351TIP3    H222018   5.212   4.230   1.203
 7352TIP3   OH222019   4.852   2.587   4.468
 7352TIP3    H122020   4.827   2.575   4.559
 7352TIP3    H222021   4.769   2.593   4.421
 7353TIP3   OH222022   0.999   2.324   0.671
 7353TIP3    H122023   1.067   2.257   0.679
 7353TIP3    H222024   0.985   2.355   0.761
 7354TIP3   OH222025   1.726   5.997   5.010
 7354TIP3    H122026   1.635   6.016   4.988
 7354TIP3    H222027   1.774   6.074   4.980
 7355TIP3   OH222028   1.811   4.302   5.269
 7355TIP3    H122029   1.791   4.347   5.187
 7355TIP3    H222030   1.737   4.244   5.283
 7356TIP3   OH222031   2.540   0.470   2.513
 7356TIP3    H122032   2.585   0.431   2.588
 7356TIP3    H222033   2.574   0.560   2.508
 7357TIP3   OH222034   2.670   0.840   1.702
 7357TIP3    H122035   2.691   0.928   1.669
 7357TIP3    H222036   2.592   0.814   1.652
 7358TIP3   OH222037   1.661   5.232   2.853
 7358TIP3    H122038   1.592   5.172   2.825
 7358TIP3    H222039   1.713   5.247   2.774
 7359TIP3   OH222040   6.287   3.675   0.120
 7359TIP3    H122041   6.238   3.620   0.181
 7359TIP3    H222042   6.226   3.746   0.097
 7360TIP3   OH222043   6.341   0.328   2.171
 7360TIP3    H122044   6.299   0.340   2.256
 7360TIP3    H222045   6.268   0.327   2.109
 7361TIP3   OH222046   6.844   3.595   4.401
 7361TIP3    H122047   6.844   3.650   4.479
 7361TIP3    H222048   6.931   3.556   4.399
 7362TIP3   OH222049   6.713   3.956   5.617
 7362TIP3    H122050   6.670   3.987   5.697
 7362TIP3    H222051   6.647   3.901   5.575
 7363TIP3   OH222052   1.716   1.665   0.451
 7363TIP3    H122053   1.644   1.604   0.465
 7363TIP3    H222054   1.755   1.677   0.537
 7364TIP3   OH222055   0.404   5.724   4.133
 7364TIP3    H122056   0.357   5.640   4.132
 7364TIP3    H222057   0.483   5.706   4.184
 7365TIP3   OH222058   6.563   6.617   1.097
 7365TIP3    H122059   6.476   6.584   1.117
 7365TIP3    H222060   6.557   6.650   1.008
 7366TIP3   OH222061   2.506   0.764   4.682
 7366TIP3    H122062   2.473   0.674   4.686
 7366TIP3    H222063   2.541   0.773   4.594
 7367TIP3   OH222064   4.955   2.094   5.284
 7367TIP3    H122065   4.897   2.133   5.218
 7367TIP3    H222066   5.042   2.096   5.243
 7368TIP3   OH222067   1.471   6.569   2.349
 7368TIP3    H122068   1.381   6.570   2.381
 7368TIP3    H222069   1.503   6.481   2.367
 7369TIP3   OH222070   3.317   6.030   3.113
 7369TIP3    H122071   3.338   5.998   3.201
 7369TIP3    H222072   3.244   5.976   3.084
 7370TIP3   OH222073   0.121   5.059   2.274
 7370TIP3    H122074   0.129   5.023   2.185
 7370TIP3    H222075   0.189   5.125   2.279
 7371TIP3   OH222076   2.544   5.086   2.548
 7371TIP3    H122077   2.543   4.991   2.535
 7371TIP3    H222078   2.633   5.106   2.574
 7372TIP3   OH222079   0.389   6.721   5.748
 7372TIP3    H122080   0.319   6.685   5.695
 7372TIP3    H222081   0.435   6.645   5.783
 7373TIP3   OH222082   5.682   3.350   4.002
 7373TIP3    H122083   5.646   3.333   3.916
 7373TIP3    H222084   5.626   3.301   4.062
 7374TIP3   OH222085   6.993   0.319   1.030
 7374TIP3    H122086   7.070   0.263   1.020
 7374TIP3    H222087   6.926   0.262   1.067
 7375TIP3   OH222088   6.508   4.708   0.340
 7375TIP3    H122089   6.476   4.798   0.350
 7375TIP3    H222090   6.545   4.705   0.252
 7376TIP3   OH222091   5.455   3.005   1.484
 7376TIP3    H122092   5.414   3.092   1.489
 7376TIP3    H222093   5.505   2.998   1.565
 7377TIP3   OH222094   5.775   1.704   1.370
 7377TIP3    H122095   5.764   1.773   1.435
 7377TIP3    H222096   5.772   1.748   1.285
 7378TIP3   OH222097   6.138   6.309   3.441
 7378TIP3    H122098   6.210   6.316   3.503
 7378TIP3    H222099   6.163   6.236   3.383
 7379TIP3   OH222100   2.209   5.052   0.513
 7379TIP3    H122101   2.146   4.981   0.498
 7379TIP3    H222102   2.217   5.095   0.428
 7380TIP3   OH222103   3.752   5.845   2.701
 7380TIP3    H122104   3.756   5.863   2.795
 7380TIP3    H222105   3.663   5.869   2.676
 7381TIP3   OH222106   5.979   5.951   3.084
 7381TIP3    H122107   6.014   5.862   3.082
 7381TIP3    H222108   5.943   5.965   2.997
 7382TIP3   OH222109   3.543   4.457   0.341
 7382TIP3    H122110   3.608   4.431   0.406
 7382TIP3    H222111   3.466   4.480   0.392
 7383TIP3   OH222112   7.079   0.875   4.638
 7383TIP3    H122113   7.017   0.933   4.594
 7383TIP3    H222114   7.038   0.856   4.723
 7384TIP3   OH222115   5.737   4.199   3.185
 7384TIP3    H122116   5.733   4.162   3.096
 7384TIP3    H222117   5.797   4.141   3.232
 7385TIP3   OH222118   3.784   4.073   2.700
 7385TIP3    H122119   3.842   4.020   2.754
 7385TIP3    H222120   3.703   4.022   2.695
 7386TIP3   OH222121   0.624   0.997   4.776
 7386TIP3    H122122   0.582   0.977   4.693
 7386TIP3    H222123   0.712   0.960   4.768
 7387TIP3   OH222124   4.748   3.023   0.779
 7387TIP3    H122125   4.686   2.965   0.736
 7387TIP3    H222126   4.712   3.035   0.867
 7388TIP3   OH222127   1.272   1.839   0.016
 7388TIP3    H122128   1.193   1.816   0.066
 7388TIP3    H222129   1.344   1.823   0.078
 7389TIP3   OH222130   0.987   0.786   3.707
 7389TIP3    H122131   1.062   0.836   3.677
 7389TIP3    H222132   1.024   0.706   3.743
 7390TIP3   OH222133   5.138   3.042   0.913
 7390TIP3    H122134   5.148   2.982   0.987
 7390TIP3    H222135   5.217   3.028   0.860
 7391TIP3   OH222136   5.599   6.642   1.977
 7391TIP3    H122137   5.545   6.583   2.030
 7391TIP3    H222138   5.570   6.627   1.887
 7392TIP3   OH222139   2.697   1.680   1.092
 7392TIP3    H122140   2.651   1.764   1.095
 7392TIP3    H222141   2.627   1.615   1.083
 7393TIP3   OH222142   1.139   0.086   1.590
 7393TIP3    H122143   1.109   0.109   1.502
 7393TIP3    H222144   1.058   0.072   1.640
 7394TIP3   OH222145   4.872   1.560   3.516
 7394TIP3    H122146   4.812   1.514   3.575
 7394TIP3    H222147   4.937   1.599   3.574
 7395TIP3   OH222148   2.135   4.580   3.155
 7395TIP3    H122149   2.165   4.594   3.245
 7395TIP3    H222150   2.126   4.668   3.119
 7396TIP3   OH222151   2.370   0.454   3.916
 7396TIP3    H122152   2.458   0.418   3.904
 7396TIP3    H222153   2.384   0.542   3.950
 7397TIP3   OH222154   4.767   2.647   0.398
 7397TIP3    H122155   4.687   2.596   0.386
 7397TIP3    H222156   4.773   2.661   0.493
 7398TIP3   OH222157   6.835   3.520   0.663
 7398TIP3    H122158   6.760   3.579   0.667
 7398TIP3    H222159   6.821   3.458   0.735
 7399TIP3   OH222160   2.622   0.194   1.063
 7399TIP3    H122161   2.564   0.267   1.085
 7399TIP3    H222162   2.614   0.185   0.968
 7400TIP3   OH222163   1.811   2.638   0.023
 7400TIP3    H122164   1.834   2.548   0.046
 7400TIP3    H222165   1.895   2.685   0.022
 7401TIP3   OH222166   7.044   1.168   2.563
 7401TIP3    H122167   6.995   1.247   2.540
 7401TIP3    H222168   7.136   1.196   2.560
 7402TIP3   OH222169   2.658   0.913   0.031
 7402TIP3    H122170   2.745   0.874   0.024
 7402TIP3    H222171   2.674   1.004   0.056
 7403TIP3   OH222172   6.406   5.861   4.877
 7403TIP3    H122173   6.431   5.952   4.895
 7403TIP3    H222174   6.389   5.824   4.963
 7404TIP3   OH222175   2.493   5.020   1.033
 7404TIP3    H122176   2.455   4.951   0.979
 7404TIP3    H222177   2.440   5.019   1.113
 7405TIP3   OH222178   2.285   1.468   5.257
 7405TIP3    H122179   2.267   1.553   5.297
 7405TIP3    H222180   2.237   1.470   5.174
 7406TIP3   OH222181   5.306   0.052   1.891
 7406TIP3    H122182   5.277   0.134   1.932
 7406TIP3    H222183   5.387   0.075   1.847
 7407TIP3   OH222184   7.077   6.245   4.344
 7407TIP3    H122185   7.023   6.317   4.377
 7407TIP3    H222186   7.070   6.177   4.411
 7408TIP3   OH222187   0.406   0.057   4.305
 7408TIP3    H122188   0.355  -0.008   4.257
 7408TIP3    H222189   0.434   0.012   4.385
 7409TIP3   OH222190   2.339   2.973   4.189
 7409TIP3    H122191   2.354   2.885   4.155
 7409TIP3    H222192   2.344   3.029   4.112
 7410TIP3   OH222193   5.167   1.100   1.227
 7410TIP3    H122194   5.083   1.060   1.207
 7410TIP3    H222195   5.174   1.097   1.322
 7411TIP3   OH222196   4.241   2.340   2.446
 7411TIP3    H122197   4.257   2.434   2.434
 7411TIP3    H222198   4.263   2.324   2.537
 7412TIP3   OH222199   1.703   4.366   5.014
 7412TIP3    H122200   1.661   4.282   4.994
 7412TIP3    H222201   1.699   4.415   4.932
 7413TIP3   OH222202   4.197   5.667   3.082
 7413TIP3    H122203   4.286   5.701   3.094
 7413TIP3    H222204   4.203   5.575   3.110
 7414TIP3   OH222205   5.110   5.986   4.378
 7414TIP3    H122206   5.164   5.908   4.363
 7414TIP3    H222207   5.021   5.952   4.387
 7415TIP3   OH222208   5.508   5.856   1.111
 7415TIP3    H122209   5.446   5.894   1.049
 7415TIP3    H222210   5.468   5.772   1.136
 7416TIP3   OH222211   4.063   0.912   1.230
 7416TIP3    H122212   4.150   0.905   1.269
 7416TIP3    H222213   4.013   0.840   1.270
 7417TIP3   OH222214   5.939   3.290   0.768
 7417TIP3    H122215   6.022   3.328   0.796
 7417TIP3    H222216   5.874   3.357   0.789
 7418TIP3   OH222217   6.094   1.191   1.361
 7418TIP3    H122218   6.176   1.148   1.335
 7418TIP3    H222219   6.105   1.282   1.332
 7419TIP3   OH222220   1.420   0.245   4.079
 7419TIP3    H122221   1.345   0.235   4.021
 7419TIP3    H222222   1.428   0.340   4.091
 7420TIP3   OH222223   6.289   0.989   1.417
 7420TIP3    H122224   6.312   0.897   1.403
 7420TIP3    H222225   6.345   1.017   1.490
 7421TIP3   OH222226   0.181   5.756   2.051
 7421TIP3    H122227   0.226   5.800   1.979
 7421TIP3    H222228   0.217   5.667   2.051
 7422TIP3   OH222229   1.500   2.644   4.711
 7422TIP3    H122230   1.417   2.611   4.676
 7422TIP3    H222231   1.503   2.736   4.682
 7423TIP3   OH222232   0.791   6.783   4.672
 7423TIP3    H122233   0.779   6.690   4.655
 7423TIP3    H222234   0.703   6.819   4.674
 7424TIP3   OH222235   0.094   6.078   3.764
 7424TIP3    H122236   0.176   6.037   3.791
 7424TIP3    H222237   0.041   6.005   3.730
 7425TIP3   OH222238   0.191   4.206   5.315
 7425TIP3    H122239   0.232   4.187   5.230
 7425TIP3    H222240   0.232   4.288   5.343
 7426TIP3   OH222241   1.331   1.286   3.129
 7426TIP3    H122242   1.399   1.330   3.181
 7426TIP3    H222243   1.303   1.213   3.184
 7427TIP3   OH222244   0.992   2.716   3.291
 7427TIP3    H122245   1.073   2.742   3.247
 7427TIP3    H222246   0.982   2.623   3.268
 7428TIP3   OH222247   3.751   0.573   0.123
 7428TIP3    H122248   3.678   0.635   0.127
 7428TIP3    H222249   3.711   0.488   0.143
 7429TIP3   OH222250   3.960   1.261   4.451
 7429TIP3    H122251   3.920   1.179   4.478
 7429TIP3    H222252   3.892   1.327   4.462
 7430TIP3   OH222253   6.948   0.672   2.886
 7430TIP3    H122254   7.018   0.652   2.824
 7430TIP3    H222255   6.935   0.589   2.934
 7431TIP3   OH222256   3.988   0.488   0.226
 7431TIP3    H122257   4.024   0.577   0.218
 7431TIP3    H222258   3.896   0.498   0.202
 7432TIP3   OH222259   4.122   5.904   4.747
 7432TIP3    H122260   4.141   5.828   4.692
 7432TIP3    H222261   4.195   5.963   4.732
 7433TIP3   OH222262   1.840   0.619   3.606
 7433TIP3    H122263   1.829   0.533   3.647
 7433TIP3    H222264   1.891   0.602   3.527
 7434TIP3   OH222265   5.369   2.271   4.861
 7434TIP3    H122266   5.453   2.230   4.842
 7434TIP3    H222267   5.304   2.213   4.822
 7435TIP3   OH222268   4.433   0.907   3.527
 7435TIP3    H122269   4.377   0.844   3.572
 7435TIP3    H222270   4.457   0.864   3.445
 7436TIP3   OH222271   6.100   3.586   3.696
 7436TIP3    H122272   6.051   3.631   3.765
 7436TIP3    H222273   6.187   3.626   3.698
 7437TIP3   OH222274   1.660   0.036   0.576
 7437TIP3    H122275   1.598   0.107   0.562
 7437TIP3    H222276   1.743   0.069   0.542
 7438TIP3   OH222277   7.075   4.114   2.909
 7438TIP3    H122278   7.168   4.113   2.935
 7438TIP3    H222279   7.061   4.201   2.873
 7439TIP3   OH222280   4.766   1.828   1.549
 7439TIP3    H122281   4.837   1.853   1.609
 7439TIP3    H222282   4.811   1.787   1.475
 7440TIP3   OH222283   2.232   4.446   2.666
 7440TIP3    H122284   2.200   4.355   2.669
 7440TIP3    H222285   2.310   4.446   2.721
 7441TIP3   OH222286   6.626   4.418   5.497
 7441TIP3    H122287   6.720   4.432   5.486
 7441TIP3    H222288   6.617   4.395   5.590
 7442TIP3   OH222289   2.305   3.978   4.396
 7442TIP3    H122290   2.245   4.048   4.369
 7442TIP3    H222291   2.281   3.960   4.487
 7443TIP3   OH222292   4.527   2.975   0.528
 7443TIP3    H122293   4.444   3.018   0.547
 7443TIP3    H222294   4.547   2.924   0.607
 7444TIP3   OH222295   5.334   3.713   5.191
 7444TIP3    H122296   5.391   3.685   5.119
 7444TIP3    H222297   5.362   3.661   5.266
 7445TIP3   OH222298   0.294   5.453   3.290
 7445TIP3    H122299   0.236   5.381   3.316
 7445TIP3    H222300   0.239   5.510   3.236
 7446TIP3   OH222301   6.552   0.717   1.145
 7446TIP3    H122302   6.501   0.733   1.066
 7446TIP3    H222303   6.594   0.632   1.129
 7447TIP3   OH222304   4.699   6.744   5.708
 7447TIP3    H122305   4.742   6.694   5.639
 7447TIP3    H222306   4.607   6.746   5.682
 7448TIP3   OH222307   3.707   3.553   0.654
 7448TIP3    H122308   3.655   3.573   0.576
 7448TIP3    H222309   3.646   3.510   0.713
 7449TIP3   OH222310   0.543   2.794   0.654
 7449TIP3    H122311   0.606   2.732   0.691
 7449TIP3    H222312   0.507   2.750   0.577
 7450TIP3   OH222313   2.940   5.886   2.764
 7450TIP3    H122314   3.034   5.868   2.762
 7450TIP3    H222315   2.932   5.970   2.808
 7451TIP3   OH222316   0.307   4.763   0.743
 7451TIP3    H122317   0.247   4.825   0.703
 7451TIP3    H222318   0.253   4.715   0.807
 7452TIP3   OH222319   0.152   0.529   2.300
 7452TIP3    H122320   0.102   0.515   2.220
 7452TIP3    H222321   0.204   0.607   2.283
 7453TIP3   OH222322   2.834   4.238   2.003
 7453TIP3    H122323   2.868   4.161   2.050
 7453TIP3    H222324   2.757   4.264   2.052
 7454TIP3   OH222325   0.658   3.043   0.738
 7454TIP3    H122326   0.626   2.958   0.707
 7454TIP3    H222327   0.584   3.103   0.725
 7455TIP3   OH222328   1.874   0.380   3.035
 7455TIP3    H122329   1.809   0.451   3.034
 7455TIP3    H222330   1.842   0.319   3.101
 7456TIP3   OH222331   0.021   3.519   1.685
 7456TIP3    H122332  -0.008   3.609   1.697
 7456TIP3    H222333  -0.041   3.483   1.620
 7457TIP3   OH222334   6.705   0.584   0.837
 7457TIP3    H122335   6.632   0.541   0.882
 7457TIP3    H222336   6.780   0.570   0.894
 7458TIP3   OH222337   0.323   3.874   4.861
 7458TIP3    H122338   0.280   3.958   4.844
 7458TIP3    H222339   0.298   3.819   4.787
 7459TIP3   OH222340   5.574   3.945   1.431
 7459TIP3    H122341   5.499   3.907   1.384
 7459TIP3    H222342   5.538   4.024   1.473
 7460TIP3   OH222343   4.744   1.886   3.394
 7460TIP3    H122344   4.735   1.802   3.350
 7460TIP3    H222345   4.671   1.888   3.456
 7461TIP3   OH222346   3.510   5.652   4.041
 7461TIP3    H122347   3.506   5.601   4.121
 7461TIP3    H222348   3.592   5.702   4.048
 7462TIP3   OH222349   5.584   5.768   3.900
 7462TIP3    H122350   5.524   5.801   3.967
 7462TIP3    H222351   5.668   5.760   3.944
 7463TIP3   OH222352   4.672   0.413   4.729
 7463TIP3    H122353   4.662   0.322   4.702
 7463TIP3    H222354   4.600   0.459   4.685
 7464TIP3   OH222355   6.963   3.316   4.386
 7464TIP3    H122356   6.967   3.221   4.403
 7464TIP3    H222357   7.016   3.354   4.456
 7465TIP3   OH222358   2.869   3.841   1.086
 7465TIP3    H122359   2.941   3.778   1.076
 7465TIP3    H222360   2.885   3.907   1.019
 7466TIP3   OH222361   0.494   3.427   3.561
 7466TIP3    H122362   0.403   3.423   3.589
 7466TIP3    H222363   0.541   3.465   3.635
 7467TIP3   OH222364   6.290   3.390   2.794
 7467TIP3    H122365   6.309   3.398   2.701
 7467TIP3    H222366   6.194   3.387   2.799
 7468TIP3   OH222367   2.001   1.094   0.985
 7468TIP3    H122368   1.939   1.164   0.965
 7468TIP3    H222369   1.971   1.058   1.068
 7469TIP3   OH222370   4.700   4.115   1.493
 7469TIP3    H122371   4.611   4.149   1.478
 7469TIP3    H222372   4.750   4.192   1.521
 7470TIP3   OH222373   6.586   3.701   1.811
 7470TIP3    H122374   6.606   3.680   1.721
 7470TIP3    H222375   6.591   3.797   1.815
 7471TIP3   OH222376   3.031   2.798   1.192
 7471TIP3    H122377   3.047   2.711   1.230
 7471TIP3    H222378   2.936   2.810   1.199
 7472TIP3   OH222379   0.815   2.242   5.749
 7472TIP3    H122380   0.867   2.287   5.682
 7472TIP3    H222381   0.724   2.254   5.721
 7473TIP3   OH222382   2.136   3.779   2.858
 7473TIP3    H122383   2.084   3.849   2.898
 7473TIP3    H222384   2.079   3.702   2.861
 7474TIP3   OH222385   0.266   1.750   0.692
 7474TIP3    H122386   0.230   1.748   0.780
 7474TIP3    H222387   0.344   1.804   0.698
 7475TIP3   OH222388   1.724   1.343   4.851
 7475TIP3    H122389   1.786   1.276   4.822
 7475TIP3    H222390   1.638   1.308   4.826
 7476TIP3   OH222391   0.536   3.580   1.775
 7476TIP3    H122392   0.571   3.515   1.836
 7476TIP3    H222393   0.613   3.629   1.747
 7477TIP3   OH222394   2.468   1.200   3.501
 7477TIP3    H122395   2.510   1.260   3.440
 7477TIP3    H222396   2.379   1.189   3.466
 7478TIP3   OH222397   2.577   2.565   0.794
 7478TIP3    H122398   2.665   2.542   0.765
 7478TIP3    H222399   2.558   2.505   0.865
 7479TIP3   OH222400   5.281   4.205   0.345
 7479TIP3    H122401   5.279   4.111   0.363
 7479TIP3    H222402   5.373   4.226   0.331
 7480TIP3   OH222403   3.620   3.896   0.868
 7480TIP3    H122404   3.654   3.905   0.779
 7480TIP3    H222405   3.694   3.864   0.918
 7481TIP3   OH222406   3.868   2.802   4.767
 7481TIP3    H122407   3.851   2.895   4.780
 7481TIP3    H222408   3.796   2.773   4.710
 7482TIP3   OH222409   1.519   3.416   2.433
 7482TIP3    H122410   1.573   3.483   2.390
 7482TIP3    H222411   1.429   3.446   2.421
 7483TIP3   OH222412   0.112   6.589   5.156
 7483TIP3    H122413   0.093   6.575   5.063
 7483TIP3    H222414   0.208   6.594   5.160
 7484TIP3   OH222415   0.611   5.069   3.129
 7484TIP3    H122416   0.561   4.990   3.149
 7484TIP3    H222417   0.580   5.133   3.194
 7485TIP3   OH222418   5.948   3.247   2.972
 7485TIP3    H122419   5.964   3.225   2.880
 7485TIP3    H222420   6.028   3.219   3.017
 7486TIP3   OH222421   1.777   1.766   2.998
 7486TIP3    H122422   1.718   1.691   3.011
 7486TIP3    H222423   1.861   1.727   2.975
 7487TIP3   OH222424   6.021   6.380   0.941
 7487TIP3    H122425   6.052   6.372   1.032
 7487TIP3    H222426   6.029   6.473   0.921
 7488TIP3   OH222427   1.254   6.812   1.619
 7488TIP3    H122428   1.329   6.752   1.608
 7488TIP3    H222429   1.200   6.796   1.542
 7489TIP3   OH222430   6.307   5.915   3.531
 7489TIP3    H122431   6.310   6.009   3.513
 7489TIP3    H222432   6.372   5.877   3.472
 7490TIP3   OH222433   1.357   5.894   0.115
 7490TIP3    H122434   1.352   5.939   0.031
 7490TIP3    H222435   1.268   5.862   0.131
 7491TIP3   OH222436   4.910   0.810   4.357
 7491TIP3    H122437   4.961   0.889   4.370
 7491TIP3    H222438   4.883   0.784   4.445
 7492TIP3   OH222439   2.688   1.471   5.154
 7492TIP3    H122440   2.626   1.415   5.201
 7492TIP3    H222441   2.706   1.543   5.216
 7493TIP3   OH222442   4.879   2.410   1.775
 7493TIP3    H122443   4.793   2.367   1.772
 7493TIP3    H222444   4.866   2.486   1.831
 7494TIP3   OH222445   6.080   6.126   4.719
 7494TIP3    H122446   6.173   6.118   4.698
 7494TIP3    H222447   6.054   6.210   4.681
 7495TIP3   OH222448   2.157   3.091   1.807
 7495TIP3    H122449   2.087   3.048   1.856
 7495TIP3    H222450   2.135   3.184   1.813
 7496TIP3   OH222451   5.709   5.279   4.031
 7496TIP3    H122452   5.681   5.287   3.939
 7496TIP3    H222453   5.719   5.370   4.060
 7497TIP3   OH222454   3.585   4.118   2.405
 7497TIP3    H122455   3.532   4.039   2.400
 7497TIP3    H222456   3.522   4.187   2.429
 7498TIP3   OH222457   6.283   1.368   2.464
 7498TIP3    H122458   6.316   1.443   2.514
 7498TIP3    H222459   6.194   1.354   2.496
 7499TIP3   OH222460   2.282   0.668   1.700
 7499TIP3    H122461   2.364   0.622   1.717
 7499TIP3    H222462   2.218   0.626   1.757
 7500TIP3   OH222463   5.323   4.757   4.035
 7500TIP3    H122464   5.293   4.786   4.121
 7500TIP3    H222465   5.416   4.777   4.034
 7501TIP3   OH222466   3.096   3.889   3.384
 7501TIP3    H122467   3.168   3.826   3.377
 7501TIP3    H222468   3.140   3.974   3.391
 7502TIP3   OH222469   0.396   2.008   5.601
 7502TIP3    H122470   0.357   2.093   5.617
 7502TIP3    H222471   0.339   1.946   5.646
 7503TIP3   OH222472   4.249   4.520   2.764
 7503TIP3    H122473   4.198   4.536   2.685
 7503TIP3    H222474   4.268   4.608   2.797
 7504TIP3   OH222475   6.239   3.199   0.874
 7504TIP3    H122476   6.330   3.183   0.848
 7504TIP3    H222477   6.233   3.293   0.885
 7505TIP3   OH222478   4.769   3.936   3.404
 7505TIP3    H122479   4.742   3.941   3.313
 7505TIP3    H222480   4.859   3.905   3.400
 7506TIP3   OH222481   0.774   1.187   4.063
 7506TIP3    H122482   0.699   1.207   4.007
 7506TIP3    H222483   0.823   1.269   4.068
 7507TIP3   OH222484   4.626   1.268   0.495
 7507TIP3    H122485   4.568   1.232   0.427
 7507TIP3    H222486   4.676   1.192   0.525
 7508TIP3   OH222487   3.274   3.627   0.017
 7508TIP3    H122488   3.255   3.577   0.096
 7508TIP3    H222489   3.353   3.676   0.037
 7509TIP3   OH222490   3.064   2.530   1.274
 7509TIP3    H122491   3.044   2.514   1.366
 7509TIP3    H222492   3.036   2.450   1.229
 7510TIP3   OH222493   5.872   6.704   5.379
 7510TIP3    H122494   5.868   6.651   5.458
 7510TIP3    H222495   5.791   6.754   5.379
 7511TIP3   OH222496   4.465   6.691   4.545
 7511TIP3    H122497   4.454   6.785   4.562
 7511TIP3    H222498   4.546   6.684   4.494
 7512TIP3   OH222499   3.292   6.056   5.326
 7512TIP3    H122500   3.325   6.060   5.236
 7512TIP3    H222501   3.199   6.073   5.319
 7513TIP3   OH222502   6.082   4.859   3.189
 7513TIP3    H122503   6.075   4.954   3.181
 7513TIP3    H222504   6.067   4.842   3.282
 7514TIP3   OH222505   3.041   3.836   1.327
 7514TIP3    H122506   3.030   3.779   1.403
 7514TIP3    H222507   3.031   3.778   1.251
 7515TIP3   OH222508   0.262   0.681   3.463
 7515TIP3    H122509   0.330   0.727   3.414
 7515TIP3    H222510   0.201   0.649   3.397
 7516TIP3   OH222511   4.623   6.496   5.903
 7516TIP3    H122512   4.530   6.487   5.924
 7516TIP3    H222513   4.630   6.582   5.861
 7517TIP3   OH222514   2.826   5.415   2.245
 7517TIP3    H122515   2.831   5.510   2.243
 7517TIP3    H222516   2.762   5.396   2.314
 7518TIP3   OH222517   1.494   0.875   0.260
 7518TIP3    H122518   1.532   0.903   0.177
 7518TIP3    H222519   1.436   0.802   0.237
 7519TIP3   OH222520   6.305   2.020   4.824
 7519TIP3    H122521   6.307   1.951   4.758
 7519TIP3    H222522   6.397   2.039   4.842
 7520TIP3   OH222523   1.721   2.308   0.677
 7520TIP3    H122524   1.648   2.325   0.737
 7520TIP3    H222525   1.748   2.394   0.647
 7521TIP3   OH222526   4.124   2.087   2.417
 7521TIP3    H122527   4.168   2.002   2.407
 7521TIP3    H222528   4.186   2.151   2.383
 7522TIP3   OH222529   5.755   1.206   2.864
 7522TIP3    H122530   5.847   1.193   2.889
 7522TIP3    H222531   5.757   1.208   2.768
 7523TIP3   OH222532   5.670   3.111   2.657
 7523TIP3    H122533   5.654   3.176   2.589
 7523TIP3    H222534   5.722   3.043   2.614
 7524TIP3   OH222535   0.894   4.978   5.105
 7524TIP3    H122536   0.903   4.883   5.101
 7524TIP3    H222537   0.861   4.994   5.194
 7525TIP3   OH222538   3.517   0.681   4.752
 7525TIP3    H122539   3.428   0.647   4.740
 7525TIP3    H222540   3.566   0.606   4.786
 7526TIP3   OH222541   1.711   1.933   2.414
 7526TIP3    H122542   1.732   1.856   2.362
 7526TIP3    H222543   1.640   1.905   2.472
 7527TIP3   OH222544   4.160   3.143   2.387
 7527TIP3    H122545   4.067   3.138   2.407
 7527TIP3    H222546   4.180   3.061   2.342
 7528TIP3   OH222547   5.026   5.736   1.932
 7528TIP3    H122548   5.122   5.740   1.928
 7528TIP3    H222549   5.003   5.798   2.002
 7529TIP3   OH222550   1.701   3.641   2.019
 7529TIP3    H122551   1.637   3.639   1.947
 7529TIP3    H222552   1.765   3.708   1.992
 7530TIP3   OH222553   6.843   5.101   5.269
 7530TIP3    H122554   6.783   5.026   5.270
 7530TIP3    H222555   6.930   5.062   5.260
 7531TIP3   OH222556   2.656   3.781   0.657
 7531TIP3    H122557   2.723   3.771   0.724
 7531TIP3    H222558   2.694   3.842   0.594
 7532TIP3   OH222559   6.391   0.761   4.912
 7532TIP3    H122560   6.366   0.676   4.949
 7532TIP3    H222561   6.308   0.809   4.905
 7533TIP3   OH222562   3.066   6.065   2.958
 7533TIP3    H122563   3.132   6.022   2.904
 7533TIP3    H222564   3.102   6.151   2.977
 7534TIP3   OH222565   6.155   5.691   3.296
 7534TIP3    H122566   6.163   5.616   3.237
 7534TIP3    H222567   6.061   5.698   3.312
 7535TIP3   OH222568   1.883   1.143   3.277
 7535TIP3    H122569   1.911   1.127   3.367
 7535TIP3    H222570   1.845   1.060   3.248
 7536TIP3   OH222571   2.631   2.379   4.485
 7536TIP3    H122572   2.572   2.450   4.510
 7536TIP3    H222573   2.575   2.318   4.437
 7537TIP3   OH222574   3.656   0.357   3.715
 7537TIP3    H122575   3.709   0.366   3.794
 7537TIP3    H222576   3.653   0.263   3.699
 7538TIP3   OH222577   1.180   4.610   2.494
 7538TIP3    H122578   1.146   4.587   2.407
 7538TIP3    H222579   1.272   4.582   2.492
 7539TIP3   OH222580   6.388   0.552   5.638
 7539TIP3    H122581   6.405   0.569   5.731
 7539TIP3    H222582   6.311   0.496   5.638
 7540TIP3   OH222583   6.465   2.208   3.440
 7540TIP3    H122584   6.508   2.243   3.519
 7540TIP3    H222585   6.470   2.280   3.377
 7541TIP3   OH222586   0.068   0.728   1.544
 7541TIP3    H122587   0.070   0.819   1.514
 7541TIP3    H222588   0.082   0.734   1.638
 7542TIP3   OH222589   1.707   4.430   4.728
 7542TIP3    H122590   1.710   4.526   4.730
 7542TIP3    H222591   1.771   4.406   4.661
 7543TIP3   OH222592   1.096   4.568   0.370
 7543TIP3    H122593   1.030   4.628   0.406
 7543TIP3    H222594   1.167   4.625   0.342
 7544TIP3   OH222595   5.293   0.533   3.391
 7544TIP3    H122596   5.272   0.597   3.323
 7544TIP3    H222597   5.209   0.492   3.413
 7545TIP3   OH222598   1.362   3.169   1.959
 7545TIP3    H122599   1.342   3.201   2.047
 7545TIP3    H222600   1.366   3.247   1.905
 7546TIP3   OH222601   3.157   5.613   2.089
 7546TIP3    H122602   3.237   5.646   2.048
 7546TIP3    H222603   3.177   5.610   2.183
 7547TIP3   OH222604   6.809   6.675   1.779
 7547TIP3    H122605   6.774   6.617   1.711
 7547TIP3    H222606   6.745   6.668   1.851
 7548TIP3   OH222607   3.865   3.399   0.238
 7548TIP3    H122608   3.801   3.333   0.264
 7548TIP3    H222609   3.943   3.378   0.289
 7549TIP3   OH222610   1.512   2.166   1.473
 7549TIP3    H122611   1.541   2.135   1.388
 7549TIP3    H222612   1.576   2.232   1.499
 7550TIP3   OH222613   5.016   3.218   4.076
 7550TIP3    H122614   5.086   3.281   4.093
 7550TIP3    H222615   4.951   3.268   4.026
 7551TIP3   OH222616   5.969   1.862   0.618
 7551TIP3    H122617   6.004   1.882   0.531
 7551TIP3    H222618   6.023   1.789   0.648
 7552TIP3   OH222619   1.713   1.482   2.666
 7552TIP3    H122620   1.682   1.417   2.604
 7552TIP3    H222621   1.642   1.547   2.671
 7553TIP3   OH222622   2.148   2.768   1.954
 7553TIP3    H122623   2.122   2.847   2.001
 7553TIP3    H222624   2.212   2.726   2.012
 7554TIP3   OH222625   2.941   6.018   4.303
 7554TIP3    H122626   2.908   6.107   4.289
 7554TIP3    H222627   2.928   6.001   4.396
 7555TIP3   OH222628   4.519   0.631   2.479
 7555TIP3    H122629   4.521   0.570   2.554
 7555TIP3    H222630   4.493   0.576   2.405
 7556TIP3   OH222631   1.361   0.560   1.383
 7556TIP3    H122632   1.282   0.572   1.332
 7556TIP3    H222633   1.420   0.512   1.324
 7557TIP3   OH222634   6.997   6.706   4.219
 7557TIP3    H122635   6.924   6.681   4.276
 7557TIP3    H222636   7.020   6.624   4.174
 7558TIP3   OH222637   0.897   6.011   5.696
 7558TIP3    H122638   0.966   6.046   5.752
 7558TIP3    H222639   0.873   5.928   5.737
 7559TIP3   OH222640   5.799   3.750   0.154
 7559TIP3    H122641   5.863   3.791   0.095
 7559TIP3    H222642   5.724   3.732   0.098
 7560TIP3   OH222643   0.426   2.752   2.706
 7560TIP3    H122644   0.516   2.745   2.736
 7560TIP3    H222645   0.417   2.843   2.678
 7561TIP3   OH222646   6.769   4.557   0.425
 7561TIP3    H122647   6.785   4.500   0.350
 7561TIP3    H222648   6.854   4.595   0.446
 7562TIP3   OH222649   2.925   3.288   5.681
 7562TIP3    H122650   3.010   3.296   5.638
 7562TIP3    H222651   2.867   3.252   5.614
 7563TIP3   OH222652   1.655   3.925   3.407
 7563TIP3    H122653   1.625   3.929   3.498
 7563TIP3    H222654   1.585   3.878   3.361
 7564TIP3   OH222655   1.710   2.019   5.368
 7564TIP3    H122656   1.750   2.104   5.381
 7564TIP3    H222657   1.761   1.978   5.298
 7565TIP3   OH222658   3.785   1.393   1.943
 7565TIP3    H122659   3.849   1.343   1.891
 7565TIP3    H222660   3.724   1.326   1.975
 7566TIP3   OH222661   2.859   4.324   2.944
 7566TIP3    H122662   2.810   4.246   2.970
 7566TIP3    H222663   2.796   4.396   2.952
 7567TIP3   OH222664   4.896   2.209   3.964
 7567TIP3    H122665   4.863   2.214   3.875
 7567TIP3    H222666   4.839   2.266   4.015
 7568TIP3   OH222667   3.402   6.218   3.809
 7568TIP3    H122668   3.455   6.281   3.858
 7568TIP3    H222669   3.450   6.135   3.818
 7569TIP3   OH222670   4.925   4.917   4.950
 7569TIP3    H122671   4.973   4.975   4.891
 7569TIP3    H222672   4.955   4.829   4.925
 7570TIP3   OH222673   2.997   6.801   3.738
 7570TIP3    H122674   2.990   6.756   3.653
 7570TIP3    H222675   2.942   6.750   3.797
 7571TIP3   OH222676   0.358   6.343   1.183
 7571TIP3    H122677   0.440   6.331   1.135
 7571TIP3    H222678   0.316   6.257   1.180
 7572TIP3   OH222679   2.496   4.530   1.080
 7572TIP3    H122680   2.570   4.532   1.019
 7572TIP3    H222681   2.475   4.437   1.090
 7573TIP3   OH222682   5.621   3.592   3.237
 7573TIP3    H122683   5.641   3.573   3.145
 7573TIP3    H222684   5.687   3.543   3.287
 7574TIP3   OH222685   4.884   5.967   0.269
 7574TIP3    H122686   4.793   5.958   0.241
 7574TIP3    H222687   4.885   6.047   0.321
 7575TIP3   OH222688   1.158   0.253   4.871
 7575TIP3    H122689   1.161   0.347   4.851
 7575TIP3    H222690   1.192   0.210   4.793
 7576TIP3   OH222691   0.159   2.657   5.194
 7576TIP3    H122692   0.199   2.612   5.119
 7576TIP3    H222693   0.181   2.603   5.269
 7577TIP3   OH222694   6.505   5.778   2.990
 7577TIP3    H122695   6.507   5.708   2.925
 7577TIP3    H222696   6.579   5.760   3.048
 7578TIP3   OH222697   1.179   4.483   4.377
 7578TIP3    H122698   1.255   4.480   4.436
 7578TIP3    H222699   1.106   4.454   4.431
 7579TIP3   OH222700   5.972   4.407   4.468
 7579TIP3    H122701   6.064   4.405   4.495
 7579TIP3    H222702   5.949   4.500   4.470
 7580TIP3   OH222703   6.334   4.363   2.954
 7580TIP3    H122704   6.391   4.346   2.878
 7580TIP3    H222705   6.276   4.432   2.925
 7581TIP3   OH222706   0.082   6.242   1.579
 7581TIP3    H122707   0.165   6.289   1.584
 7581TIP3    H222708   0.107   6.150   1.590
 7582TIP3   OH222709   2.377   2.312   5.343
 7582TIP3    H122710   2.450   2.307   5.281
 7582TIP3    H222711   2.317   2.376   5.305
 7583TIP3   OH222712   1.524   2.087   5.039
 7583TIP3    H122713   1.516   2.182   5.034
 7583TIP3    H222714   1.562   2.061   4.955
 7584TIP3   OH222715   0.896   2.222   0.427
 7584TIP3    H122716   0.934   2.261   0.506
 7584TIP3    H222717   0.952   2.147   0.408
 7585TIP3   OH222718   3.810   0.790   3.455
 7585TIP3    H122719   3.766   0.799   3.539
 7585TIP3    H222720   3.806   0.877   3.415
 7586TIP3   OH222721   3.673   1.441   3.728
 7586TIP3    H122722   3.689   1.503   3.656
 7586TIP3    H222723   3.741   1.374   3.717
 7587TIP3   OH222724   4.187   5.988   1.760
 7587TIP3    H122725   4.279   5.974   1.784
 7587TIP3    H222726   4.169   6.078   1.789
 7588TIP3   OH222727   3.437   3.191   4.480
 7588TIP3    H122728   3.347   3.216   4.503
 7588TIP3    H222729   3.428   3.106   4.438
 7589TIP3   OH222730   1.436   5.692   0.727
 7589TIP3    H122731   1.430   5.702   0.632
 7589TIP3    H222732   1.423   5.598   0.743
 7590TIP3   OH222733   6.962   4.960   4.543
 7590TIP3    H122734   6.999   5.015   4.611
 7590TIP3    H222735   6.991   5.000   4.461
 7591TIP3   OH222736   2.366   1.702   4.631
 7591TIP3    H122737   2.273   1.719   4.647
 7591TIP3    H222738   2.398   1.783   4.590
 7592TIP3   OH222739   6.751   1.416   0.501
 7592TIP3    H122740   6.738   1.509   0.518
 7592TIP3    H222741   6.719   1.372   0.580
 7593TIP3   OH222742   5.545   4.032   0.351
 7593TIP3    H122743   5.492   3.971   0.401
 7593TIP3    H222744   5.546   3.995   0.262
 7594TIP3   OH222745   1.380   0.404   2.109
 7594TIP3    H122746   1.466   0.437   2.132
 7594TIP3    H222747   1.319   0.452   2.165
 7595TIP3   OH222748   5.933   4.740   1.259
 7595TIP3    H122749   5.920   4.818   1.205
 7595TIP3    H222750   5.845   4.717   1.289
 7596TIP3   OH222751   5.513   5.170   1.361
 7596TIP3    H122752   5.521   5.221   1.442
 7596TIP3    H222753   5.422   5.139   1.362
 7597TIP3   OH222754   6.829   6.606   3.010
 7597TIP3    H122755   6.740   6.574   2.998
 7597TIP3    H222756   6.883   6.547   2.957
 7598TIP3   OH222757   5.773   0.287   2.316
 7598TIP3    H122758   5.713   0.321   2.383
 7598TIP3    H222759   5.823   0.363   2.287
 7599TIP3   OH222760   2.206   5.044   4.353
 7599TIP3    H122761   2.202   5.137   4.328
 7599TIP3    H222762   2.195   5.044   4.448
 7600TIP3   OH222763   0.555   5.401   4.764
 7600TIP3    H122764   0.539   5.367   4.852
 7600TIP3    H222765   0.647   5.429   4.765
 7601TIP3   OH222766   6.176   2.809   5.099
 7601TIP3    H122767   6.112   2.823   5.029
 7601TIP3    H222768   6.125   2.814   5.180
 7602TIP3   OH222769   5.084   3.324   1.775
 7602TIP3    H122770   5.050   3.413   1.782
 7602TIP3    H222771   5.010   3.272   1.744
 7603TIP3   OH222772   0.267   3.400   4.321
 7603TIP3    H122773   0.241   3.347   4.245
 7603TIP3    H222774   0.202   3.470   4.325
 7604TIP3   OH222775   1.007   0.763   2.415
 7604TIP3    H122776   1.002   0.668   2.412
 7604TIP3    H222777   0.933   0.790   2.469
 7605TIP3   OH222778   3.246   0.202   3.175
 7605TIP3    H122779   3.332   0.231   3.207
 7605TIP3    H222780   3.230   0.120   3.223
 7606TIP3   OH222781   3.247   3.418   0.808
 7606TIP3    H122782   3.171   3.374   0.770
 7606TIP3    H222783   3.305   3.347   0.835
 7607TIP3   OH222784   6.017   2.684   3.956
 7607TIP3    H122785   5.982   2.596   3.943
 7607TIP3    H222786   6.086   2.693   3.890
 7608TIP3   OH222787   4.472   0.327   0.669
 7608TIP3    H122788   4.449   0.288   0.753
 7608TIP3    H222789   4.445   0.262   0.604
 7609TIP3   OH222790   0.996   0.661   1.853
 7609TIP3    H122791   1.054   0.585   1.843
 7609TIP3    H222792   1.035   0.711   1.925
 7610TIP3   OH222793   4.379   2.318   5.792
 7610TIP3    H122794   4.369   2.372   5.870
 7610TIP3    H222795   4.311   2.349   5.732
 7611TIP3   OH222796   0.791   0.809   2.999
 7611TIP3    H122797   0.791   0.900   2.969
 7611TIP3    H222798   0.710   0.772   2.964
 7612TIP3   OH222799   3.043   6.770   4.478
 7612TIP3    H122800   3.103   6.698   4.501
 7612TIP3    H222801   2.957   6.738   4.504
 7613TIP3   OH222802   3.146   6.516   0.215
 7613TIP3    H122803   3.144   6.559   0.129
 7613TIP3    H222804   3.161   6.424   0.195
 7614TIP3   OH222805   6.229   4.970   1.415
 7614TIP3    H122806   6.247   4.954   1.322
 7614TIP3    H222807   6.313   4.959   1.458
 7615TIP3   OH222808   5.557   5.522   5.414
 7615TIP3    H122809   5.468   5.557   5.422
 7615TIP3    H222810   5.562   5.455   5.482
 7616TIP3   OH222811   3.554   5.382   1.544
 7616TIP3    H122812   3.589   5.425   1.622
 7616TIP3    H222813   3.616   5.402   1.474
 7617TIP3   OH222814   0.136   4.927   1.735
 7617TIP3    H122815   0.223   4.887   1.734
 7617TIP3    H222816   0.143   5.002   1.677
 7618TIP3   OH222817   5.727   0.103   1.251
 7618TIP3    H122818   5.810   0.088   1.205
 7618TIP3    H222819   5.662   0.109   1.181
 7619TIP3   OH222820   4.313   4.322   1.167
 7619TIP3    H122821   4.275   4.306   1.081
 7619TIP3    H222822   4.329   4.234   1.203
 7620TIP3   OH222823   5.361   3.172   5.731
 7620TIP3    H122824   5.356   3.080   5.758
 7620TIP3    H222825   5.377   3.168   5.636
 7621TIP3   OH222826   0.085   4.723   5.658
 7621TIP3    H122827   0.049   4.643   5.698
 7621TIP3    H222828   0.035   4.794   5.697
 7622TIP3   OH222829   6.914   3.785   5.683
 7622TIP3    H122830   6.841   3.845   5.677
 7622TIP3    H222831   6.892   3.713   5.625
 7623TIP3   OH222832   3.638   3.749   5.092
 7623TIP3    H122833   3.664   3.837   5.065
 7623TIP3    H222834   3.707   3.692   5.058
 7624TIP3   OH222835   2.119   0.381   3.155
 7624TIP3    H122836   2.029   0.359   3.133
 7624TIP3    H222837   2.133   0.339   3.240
 7625TIP3   OH222838   1.785   1.167   0.697
 7625TIP3    H122839   1.766   1.109   0.771
 7625TIP3    H222840   1.874   1.144   0.671
 7626TIP3   OH222841   4.349   1.812   3.887
 7626TIP3    H122842   4.419   1.792   3.950
 7626TIP3    H222843   4.394   1.843   3.809
 7627TIP3   OH222844   0.539   3.762   5.808
 7627TIP3    H122845   0.475   3.701   5.772
 7627TIP3    H222846   0.493   3.808   5.878
 7628TIP3   OH222847   3.647   5.320   3.229
 7628TIP3    H122848   3.640   5.274   3.146
 7628TIP3    H222849   3.558   5.350   3.248
 7629TIP3   OH222850   4.486   3.755   3.681
 7629TIP3    H122851   4.402   3.738   3.637
 7629TIP3    H222852   4.467   3.740   3.774
 7630TIP3   OH222853   2.467   1.148   4.047
 7630TIP3    H122854   2.407   1.222   4.038
 7630TIP3    H222855   2.538   1.168   3.985
 7631TIP3   OH222856   3.741  -0.007   0.871
 7631TIP3    H122857   3.666  -0.051   0.910
 7631TIP3    H222858   3.814  -0.067   0.885
 7632TIP3   OH222859   4.025   1.960   3.105
 7632TIP3    H122860   3.978   1.974   3.023
 7632TIP3    H222861   4.077   1.881   3.090
 7633TIP3   OH222862   4.609   5.302   0.904
 7633TIP3    H122863   4.526   5.255   0.913
 7633TIP3    H222864   4.648   5.265   0.824
 7634TIP3   OH222865   6.265   6.689   5.262
 7634TIP3    H122866   6.196   6.717   5.322
 7634TIP3    H222867   6.346   6.723   5.301
 7635TIP3   OH222868   2.781   0.396   2.632
 7635TIP3    H122869   2.738   0.372   2.714
 7635TIP3    H222870   2.835   0.472   2.654
 7636TIP3   OH222871   0.169   1.717   4.954
 7636TIP3    H122872   0.224   1.765   5.016
 7636TIP3    H222873   0.119   1.656   5.008
 7637TIP3   OH222874   4.628   3.971   0.119
 7637TIP3    H122875   4.704   3.930   0.078
 7637TIP3    H222876   4.589   4.023   0.049
 7638TIP3   OH222877   1.340   6.580   5.793
 7638TIP3    H122878   1.269   6.550   5.849
 7638TIP3    H222879   1.306   6.573   5.704
 7639TIP3   OH222880   3.918   1.378   0.261
 7639TIP3    H122881   3.997   1.415   0.222
 7639TIP3    H222882   3.923   1.285   0.240
 7640TIP3   OH222883   4.901   2.088   0.379
 7640TIP3    H122884   4.886   2.047   0.294
 7640TIP3    H222885   4.856   2.172   0.373
 7641TIP3   OH222886   5.318   4.155   5.083
 7641TIP3    H122887   5.347   4.246   5.077
 7641TIP3    H222888   5.391   4.104   5.048
 7642TIP3   OH222889   1.468   3.156   3.512
 7642TIP3    H122890   1.471   3.221   3.442
 7642TIP3    H222891   1.380   3.119   3.508
 7643TIP3   OH222892   1.148   5.254   2.088
 7643TIP3    H122893   1.127   5.241   1.996
 7643TIP3    H222894   1.080   5.205   2.135
 7644TIP3   OH222895   2.388   5.560   2.903
 7644TIP3    H122896   2.342   5.589   2.982
 7644TIP3    H222897   2.470   5.524   2.935
 7645TIP3   OH222898   1.931   3.168   3.723
 7645TIP3    H122899   1.894   3.095   3.774
 7645TIP3    H222900   1.854   3.215   3.689
 7646TIP3   OH222901   0.909   6.277   0.554
 7646TIP3    H122902   0.976   6.344   0.541
 7646TIP3    H222903   0.924   6.214   0.484
 7647TIP3   OH222904   3.535   4.732   3.182
 7647TIP3    H122905   3.581   4.793   3.239
 7647TIP3    H222906   3.578   4.648   3.198
 7648TIP3   OH222907   6.368   6.530   2.026
 7648TIP3    H122908   6.285   6.516   1.981
 7648TIP3    H222909   6.348   6.594   2.095
 7649TIP3   OH222910   4.771   0.197   3.603
 7649TIP3    H122911   4.758   0.106   3.578
 7649TIP3    H222912   4.814   0.193   3.688
 7650TIP3   OH222913   6.144   5.807   0.763
 7650TIP3    H122914   6.141   5.806   0.859
 7650TIP3    H222915   6.213   5.745   0.741
 7651TIP3   OH222916   5.843  -0.003   5.363
 7651TIP3    H122917   5.850  -0.017   5.269
 7651TIP3    H222918   5.874   0.086   5.377
 7652TIP3   OH222919   4.871   3.732   2.632
 7652TIP3    H122920   4.823   3.736   2.549
 7652TIP3    H222921   4.911   3.818   2.641
 7653TIP3   OH222922   6.730   2.492   5.448
 7653TIP3    H122923   6.714   2.583   5.421
 7653TIP3    H222924   6.663   2.474   5.514
 7654TIP3   OH222925   6.705   2.665   3.916
 7654TIP3    H122926   6.738   2.745   3.957
 7654TIP3    H222927   6.674   2.694   3.830
 7655TIP3   OH222928   2.573   0.837   4.416
 7655TIP3    H122929   2.634   0.909   4.403
 7655TIP3    H222930   2.558   0.802   4.328
 7656TIP3   OH222931   1.326   0.751   2.707
 7656TIP3    H122932   1.412   0.784   2.731
 7656TIP3    H222933   1.333   0.731   2.614
 7657TIP3   OH222934   1.687   6.045   4.259
 7657TIP3    H122935   1.604   6.078   4.223
 7657TIP3    H222936   1.661   5.974   4.318
 7658TIP3   OH222937   4.709   1.913   4.760
 7658TIP3    H122938   4.731   1.862   4.682
 7658TIP3    H222939   4.615   1.927   4.754
 7659TIP3   OH222940   3.655   0.339   2.227
 7659TIP3    H122941   3.641   0.267   2.166
 7659TIP3    H222942   3.694   0.298   2.304
 7660TIP3   OH222943   4.685   0.366   2.245
 7660TIP3    H122944   4.710   0.329   2.330
 7660TIP3    H222945   4.664   0.290   2.191
 7661TIP3   OH222946   5.365   6.337   3.409
 7661TIP3    H122947   5.382   6.248   3.376
 7661TIP3    H222948   5.328   6.384   3.335
 7662TIP3   OH222949   5.892   5.793   2.247
 7662TIP3    H122950   5.825   5.847   2.206
 7662TIP3    H222951   5.911   5.724   2.183
 7663TIP3   OH222952   2.221   4.022   0.281
 7663TIP3    H122953   2.231   3.948   0.222
 7663TIP3    H222954   2.280   4.089   0.247
 7664TIP3   OH222955   7.077   4.425   1.704
 7664TIP3    H122956   7.100   4.398   1.614
 7664TIP3    H222957   7.160   4.455   1.741
 7665TIP3   OH222958   3.092   5.632   0.677
 7665TIP3    H122959   3.143   5.590   0.607
 7665TIP3    H222960   3.004   5.596   0.667
 7666TIP3   OH222961   6.967   5.322   3.353
 7666TIP3    H122962   7.031   5.356   3.416
 7666TIP3    H222963   6.984   5.373   3.274
 7667TIP3   OH222964   3.081   3.242   3.644
 7667TIP3    H122965   3.007   3.257   3.585
 7667TIP3    H222966   3.101   3.149   3.634
 7668TIP3   OH222967   0.043   4.548   3.988
 7668TIP3    H122968   0.105   4.609   4.027
 7668TIP3    H222969  -0.041   4.595   3.990
 7669TIP3   OH222970   5.825   1.557   5.071
 7669TIP3    H122971   5.851   1.488   5.011
 7669TIP3    H222972   5.843   1.521   5.158
 7670TIP3   OH222973   2.920   6.392   3.927
 7670TIP3    H122974   2.998   6.347   3.894
 7670TIP3    H222975   2.847   6.334   3.905
 7671TIP3   OH222976   1.638   0.736   5.879
 7671TIP3    H122977   1.707   0.673   5.859
 7671TIP3    H222978   1.602   0.760   5.793
 7672TIP3   OH222979   6.279   2.077   1.349
 7672TIP3    H122980   6.294   2.165   1.314
 7672TIP3    H222981   6.270   2.091   1.443
 7673TIP3   OH222982   3.933   4.678   3.161
 7673TIP3    H122983   3.892   4.622   3.094
 7673TIP3    H222984   3.925   4.767   3.125
 7674TIP3   OH222985   4.581   3.214   3.898
 7674TIP3    H122986   4.674   3.234   3.909
 7674TIP3    H222987   4.554   3.180   3.983
 7675TIP3   OH222988   4.527   2.002   2.450
 7675TIP3    H122989   4.461   2.049   2.398
 7675TIP3    H222990   4.500   1.910   2.446
 7676TIP3   OH222991   0.884   2.481   2.642
 7676TIP3    H122992   0.895   2.401   2.693
 7676TIP3    H222993   0.932   2.465   2.561
 7677TIP3   OH222994   2.538   2.671   3.508
 7677TIP3    H122995   2.459   2.639   3.463
 7677TIP3    H222996   2.557   2.604   3.574
 7678TIP3   OH222997   5.202   3.604   2.360
 7678TIP3    H122998   5.165   3.670   2.301
 7678TIP3    H222999   5.259   3.551   2.305
 7679TIP3   OH223000   0.727   0.603   1.852
 7679TIP3    H123001   0.820   0.614   1.832
 7679TIP3    H223002   0.711   0.662   1.926
 7680TIP3   OH223003   5.881   5.456   2.319
 7680TIP3    H123004   5.871   5.374   2.271
 7680TIP3    H223005   5.973   5.458   2.344
 7681TIP3   OH223006   0.501   1.438   1.355
 7681TIP3    H123007   0.532   1.350   1.337
 7681TIP3    H223008   0.554   1.494   1.297
 7682TIP3   OH223009   1.240   3.493   0.147
 7682TIP3    H123010   1.242   3.589   0.155
 7682TIP3    H223011   1.177   3.476   0.078
 7683TIP3   OH223012   6.338   4.029   3.844
 7683TIP3    H123013   6.269   3.962   3.839
 7683TIP3    H223014   6.363   4.031   3.936
 7684TIP3   OH223015   0.134   1.806   2.020
 7684TIP3    H123016   0.167   1.889   2.054
 7684TIP3    H223017   0.184   1.739   2.067
 7685TIP3   OH223018   1.144   3.733   1.052
 7685TIP3    H123019   1.218   3.740   0.992
 7685TIP3    H223020   1.089   3.663   1.015
 7686TIP3   OH223021   1.895   4.904   1.725
 7686TIP3    H123022   1.925   4.990   1.754
 7686TIP3    H223023   1.863   4.861   1.805
 7687TIP3   OH223024   6.221   6.555   0.110
 7687TIP3    H123025   6.221   6.525   0.201
 7687TIP3    H223026   6.275   6.491   0.064
 7688TIP3   OH223027   3.879   6.507   4.630
 7688TIP3    H123028   3.925   6.496   4.547
 7688TIP3    H223029   3.845   6.596   4.627
 7689TIP3   OH223030   0.862   3.795   1.881
 7689TIP3    H123031   0.824   3.747   1.954
 7689TIP3    H223032   0.955   3.770   1.882
 7690TIP3   OH223033   5.681   0.700   1.352
 7690TIP3    H123034   5.690   0.615   1.395
 7690TIP3    H223035   5.726   0.761   1.411
 7691TIP3   OH223036   1.289   3.186   1.668
 7691TIP3    H123037   1.271   3.160   1.577
 7691TIP3    H223038   1.207   3.226   1.698
 7692TIP3   OH223039   2.174   2.253   3.678
 7692TIP3    H123040   2.154   2.160   3.686
 7692TIP3    H223041   2.237   2.259   3.606
 7693TIP3   OH223042   6.611   4.849   1.660
 7693TIP3    H123043   6.526   4.809   1.677
 7693TIP3    H223044   6.610   4.931   1.710
 7694TIP3   OH223045   3.573   6.042   0.440
 7694TIP3    H123046   3.537   5.954   0.433
 7694TIP3    H223047   3.634   6.037   0.514
 7695TIP3   OH223048   0.652   0.213   5.621
 7695TIP3    H123049   0.654   0.280   5.553
 7695TIP3    H223050   0.743   0.184   5.630
 7696TIP3   OH223051   3.646   1.269   5.111
 7696TIP3    H123052   3.704   1.210   5.063
 7696TIP3    H223053   3.587   1.212   5.159
 7697TIP3   OH223054   4.499   4.136   4.273
 7697TIP3    H123055   4.590   4.131   4.302
 7697TIP3    H223056   4.500   4.202   4.203
 7698TIP3   OH223057   6.977   2.775   0.161
 7698TIP3    H123058   6.924   2.846   0.123
 7698TIP3    H223059   6.915   2.704   0.175
 7699TIP3   OH223060   2.708   5.688   3.500
 7699TIP3    H123061   2.668   5.705   3.415
 7699TIP3    H223062   2.759   5.767   3.518
 7700TIP3   OH223063   0.710   4.765   4.120
 7700TIP3    H123064   0.674   4.840   4.167
 7700TIP3    H223065   0.746   4.802   4.039
 7701TIP3   OH223066   2.540   2.856   5.202
 7701TIP3    H123067   2.505   2.805   5.275
 7701TIP3    H223068   2.634   2.860   5.218
 7702TIP3   OH223069   6.996   3.044   5.674
 7702TIP3    H123070   6.949   3.073   5.751
 7702TIP3    H223071   7.037   3.124   5.640
 7703TIP3   OH223072   2.146   5.152   1.820
 7703TIP3    H123073   2.202   5.078   1.843
 7703TIP3    H223074   2.075   5.149   1.884
 7704TIP3   OH223075   6.608   2.962   1.932
 7704TIP3    H123076   6.530   3.009   1.902
 7704TIP3    H223077   6.581   2.871   1.936
 7705TIP3   OH223078   2.973   6.558   0.429
 7705TIP3    H123079   2.953   6.651   0.438
 7705TIP3    H223080   3.040   6.554   0.360
 7706TIP3   OH223081   3.583   1.049   3.823
 7706TIP3    H123082   3.622   1.128   3.861
 7706TIP3    H223083   3.513   1.025   3.883
 7707TIP3   OH223084   4.451   2.067   5.522
 7707TIP3    H123085   4.543   2.063   5.547
 7707TIP3    H223086   4.453   2.085   5.428
 7708TIP3   OH223087   3.073   2.044   3.521
 7708TIP3    H123088   3.126   2.098   3.463
 7708TIP3    H223089   3.134   2.011   3.587
 7709TIP3   OH223090   4.219   0.035   4.425
 7709TIP3    H123091   4.258   0.054   4.339
 7709TIP3    H223092   4.259   0.099   4.483
 7710TIP3   OH223093   6.522   5.986   1.782
 7710TIP3    H123094   6.478   6.048   1.724
 7710TIP3    H223095   6.577   5.933   1.724
 7711TIP3   OH223096   0.583   2.677   1.178
 7711TIP3    H123097   0.676   2.700   1.178
 7711TIP3    H223098   0.559   2.673   1.086
 7712TIP3   OH223099   5.268   5.548   0.191
 7712TIP3    H123100   5.194   5.593   0.232
 7712TIP3    H223101   5.324   5.522   0.264
 7713TIP3   OH223102   4.507   1.454   2.002
 7713TIP3    H123103   4.560   1.376   2.018
 7713TIP3    H223104   4.492   1.455   1.908
 7714TIP3   OH223105   1.333   2.319   5.421
 7714TIP3    H123106   1.364   2.320   5.330
 7714TIP3    H223107   1.264   2.253   5.422
 7715TIP3   OH223108   5.900   0.572   4.882
 7715TIP3    H123109   5.814   0.567   4.839
 7715TIP3    H223110   5.962   0.576   4.809
 7716TIP3   OH223111   4.986   1.379   0.518
 7716TIP3    H123112   4.985   1.327   0.598
 7716TIP3    H223113   5.054   1.338   0.464
 7717TIP3   OH223114   6.956   6.428   3.635
 7717TIP3    H123115   6.995   6.385   3.711
 7717TIP3    H223116   6.947   6.520   3.662
 7718TIP3   OH223117   5.608   4.095   1.183
 7718TIP3    H123118   5.621   4.017   1.129
 7718TIP3    H223119   5.620   4.063   1.273
 7719TIP3   OH223120   5.769   3.538   5.725
 7719TIP3    H123121   5.803   3.624   5.702
 7719TIP3    H223122   5.796   3.524   5.816
 7720TIP3   OH223123   4.885   3.633   4.142
 7720TIP3    H123124   4.818   3.692   4.108
 7720TIP3    H223125   4.923   3.681   4.216
 7721TIP3   OH223126   3.052   1.660   5.331
 7721TIP3    H123127   3.044   1.685   5.423
 7721TIP3    H223128   2.964   1.672   5.294
 7722TIP3   OH223129   3.468   1.626   2.160
 7722TIP3    H123130   3.446   1.546   2.207
 7722TIP3    H223131   3.510   1.682   2.225
 7723TIP3   OH223132   1.851   5.112   5.487
 7723TIP3    H123133   1.807   5.197   5.491
 7723TIP3    H223134   1.794   5.058   5.432
 7724TIP3   OH223135   1.688   3.178   1.913
 7724TIP3    H123136   1.706   3.176   1.819
 7724TIP3    H223137   1.631   3.254   1.924
 7725TIP3   OH223138   6.408   2.544   2.357
 7725TIP3    H123139   6.356   2.497   2.422
 7725TIP3    H223140   6.491   2.497   2.354
 7726TIP3   OH223141   4.965   1.060   2.563
 7726TIP3    H123142   5.020   1.134   2.538
 7726TIP3    H223143   4.892   1.062   2.502
 7727TIP3   OH223144   0.025   0.757   3.869
 7727TIP3    H123145   0.067   0.786   3.788
 7727TIP3    H223146   0.022   0.661   3.860
 7728TIP3   OH223147   4.478   0.171   1.184
 7728TIP3    H123148   4.536   0.098   1.160
 7728TIP3    H223149   4.505   0.194   1.273
 7729TIP3   OH223150   0.974   0.849   0.208
 7729TIP3    H123151   1.021   0.777   0.166
 7729TIP3    H223152   1.030   0.925   0.197
 7730TIP3   OH223153   1.511   2.353   0.310
 7730TIP3    H123154   1.481   2.327   0.398
 7730TIP3    H223155   1.472   2.440   0.297
 7731TIP3   OH223156   5.878   5.882   1.694
 7731TIP3    H123157   5.955   5.827   1.705
 7731TIP3    H223158   5.849   5.864   1.604
 7732TIP3   OH223159   0.242   3.657   5.138
 7732TIP3    H123160   0.327   3.624   5.167
 7732TIP3    H223161   0.251   3.752   5.142
 7733TIP3   OH223162   1.849   6.347   0.150
 7733TIP3    H123163   1.795   6.324   0.225
 7733TIP3    H223164   1.887   6.264   0.121
 7734TIP3   OH223165   4.533   2.881   1.810
 7734TIP3    H123166   4.458   2.908   1.862
 7734TIP3    H223167   4.539   2.787   1.823
 7735TIP3   OH223168   6.825   4.768   1.513
 7735TIP3    H123169   6.794   4.688   1.470
 7735TIP3    H223170   6.753   4.796   1.569
 7736TIP3   OH223171   0.966   5.274   3.933
 7736TIP3    H123172   0.943   5.205   3.994
 7736TIP3    H223173   1.036   5.322   3.976
 7737TIP3   OH223174   1.170   1.143   1.863
 7737TIP3    H123175   1.261   1.165   1.846
 7737TIP3    H223176   1.169   1.048   1.869
 7738TIP3   OH223177   6.694   2.142   2.049
 7738TIP3    H123178   6.605   2.177   2.049
 7738TIP3    H223179   6.692   2.075   1.980
 7739TIP3   OH223180   6.324   3.083   3.803
 7739TIP3    H123181   6.359   3.013   3.858
 7739TIP3    H223182   6.329   3.162   3.857
 7740TIP3   OH223183   1.477   5.210   3.399
 7740TIP3    H123184   1.475   5.118   3.425
 7740TIP3    H223185   1.565   5.239   3.423
 7741TIP3   OH223186   3.721   6.149   2.946
 7741TIP3    H123187   3.688   6.060   2.962
 7741TIP3    H223188   3.802   6.153   2.997
 7742TIP3   OH223189   5.061   0.478   1.044
 7742TIP3    H123190   5.042   0.571   1.056
 7742TIP3    H223191   4.999   0.449   0.977
 7743TIP3   OH223192   7.024   5.617   0.739
 7743TIP3    H123193   6.945   5.565   0.721
 7743TIP3    H223194   7.061   5.635   0.653
 7744TIP3   OH223195   5.597   6.125   2.829
 7744TIP3    H123196   5.629   6.211   2.856
 7744TIP3    H223197   5.673   6.067   2.839
 7745TIP3   OH223198   4.181   1.243   3.211
 7745TIP3    H123199   4.150   1.191   3.137
 7745TIP3    H223200   4.272   1.215   3.223
 7746TIP3   OH223201   4.567   3.606   4.777
 7746TIP3    H123202   4.606   3.606   4.689
 7746TIP3    H223203   4.638   3.634   4.835
 7747TIP3   OH223204   6.271   0.423   2.667
 7747TIP3    H123205   6.189   0.399   2.624
 7747TIP3    H223206   6.275   0.366   2.744
 7748TIP3   OH223207   1.629   4.900   2.268
 7748TIP3    H123208   1.698   4.835   2.278
 7748TIP3    H223209   1.615   4.904   2.173
 7749TIP3   OH223210   4.274   5.999   1.135
 7749TIP3    H123211   4.328   6.006   1.214
 7749TIP3    H223212   4.274   5.905   1.115
 7750TIP3   OH223213   5.088   3.108   2.051
 7750TIP3    H123214   5.132   3.042   2.103
 7750TIP3    H223215   5.153   3.176   2.038
 7751TIP3   OH223216   0.024   0.401   5.372
 7751TIP3    H123217   0.018   0.372   5.281
 7751TIP3    H223218  -0.032   0.479   5.375
 7752TIP3   OH223219   5.537   4.450   2.978
 7752TIP3    H123220   5.548   4.495   3.062
 7752TIP3    H223221   5.465   4.389   2.993
 7753TIP3   OH223222   5.854   2.019   4.346
 7753TIP3    H123223   5.829   1.936   4.388
 7753TIP3    H223224   5.920   2.056   4.404
 7754TIP3   OH223225   5.270   3.317   2.061
 7754TIP3    H123226   5.304   3.379   2.125
 7754TIP3    H223227   5.293   3.355   1.976
 7755TIP3   OH223228   7.103   3.270   5.551
 7755TIP3    H123229   7.020   3.269   5.503
 7755TIP3    H223230   7.167   3.305   5.489
 7756TIP3   OH223231   4.102   6.280   2.600
 7756TIP3    H123232   4.161   6.241   2.665
 7756TIP3    H223233   4.149   6.358   2.570
 7757TIP3   OH223234   4.368   5.506   0.650
 7757TIP3    H123235   4.302   5.520   0.719
 7757TIP3    H223236   4.322   5.525   0.568
 7758TIP3   OH223237   5.178   5.833   2.722
 7758TIP3    H123238   5.273   5.820   2.724
 7758TIP3    H223239   5.159   5.882   2.802
 7759TIP3   OH223240   0.689   0.475   4.941
 7759TIP3    H123241   0.741   0.521   4.874
 7759TIP3    H223242   0.744   0.476   5.019
 7760TIP3   OH223243   0.681   4.008   5.190
 7760TIP3    H123244   0.658   3.980   5.102
 7760TIP3    H223245   0.671   3.929   5.244
 7761TIP3   OH223246   1.554   0.911   4.097
 7761TIP3    H123247   1.598   0.867   4.024
 7761TIP3    H223248   1.463   0.881   4.092
 7762TIP3   OH223249   4.204   0.647   4.506
 7762TIP3    H123250   4.250   0.718   4.551
 7762TIP3    H223251   4.147   0.691   4.443
 7763TIP3   OH223252   3.945   5.734   2.862
 7763TIP3    H123253   4.034   5.766   2.877
 7763TIP3    H223254   3.920   5.769   2.777
 7764TIP3   OH223255   5.702   0.392   0.088
 7764TIP3    H123256   5.610   0.401   0.114
 7764TIP3    H223257   5.747   0.463   0.135
 7765TIP3   OH223258   1.561   2.925   0.829
 7765TIP3    H123259   1.492   2.859   0.840
 7765TIP3    H223260   1.569   2.935   0.734
 7766TIP3   OH223261   1.766   2.581   0.620
 7766TIP3    H123262   1.801   2.623   0.541
 7766TIP3    H223263   1.673   2.605   0.620
 7767TIP3   OH223264   3.838   3.603   2.958
 7767TIP3    H123265   3.845   3.636   2.869
 7767TIP3    H223266   3.925   3.569   2.978
 7768TIP3   OH223267   0.130   4.088   2.068
 7768TIP3    H123268   0.195   4.028   2.033
 7768TIP3    H223269   0.059   4.088   2.004
 7769TIP3   OH223270   4.571   6.571   0.861
 7769TIP3    H123271   4.664   6.553   0.855
 7769TIP3    H223272   4.564   6.665   0.842
 7770TIP3   OH223273   0.526   1.684   5.032
 7770TIP3    H123274   0.538   1.630   4.954
 7770TIP3    H223275   0.447   1.649   5.074
 7771TIP3   OH223276   1.663   5.322   2.429
 7771TIP3    H123277   1.626   5.364   2.507
 7771TIP3    H223278   1.747   5.367   2.415
 7772TIP3   OH223279   6.191   4.909   4.487
 7772TIP3    H123280   6.250   4.874   4.554
 7772TIP3    H223281   6.106   4.870   4.507
 7773TIP3   OH223282   1.105   5.543   1.062
 7773TIP3    H123283   1.142   5.601   0.996
 7773TIP3    H223284   1.098   5.458   1.018
 7774TIP3   OH223285   4.546   5.505   3.422
 7774TIP3    H123286   4.596   5.582   3.451
 7774TIP3    H223287   4.609   5.455   3.370
 7775TIP3   OH223288   3.618   1.933   4.141
 7775TIP3    H123289   3.535   1.916   4.185
 7775TIP3    H223290   3.628   2.028   4.145
 7776TIP3   OH223291   2.288   1.691   3.200
 7776TIP3    H123292   2.348   1.670   3.129
 7776TIP3    H223293   2.333   1.760   3.250
 7777TIP3   OH223294   0.627   6.154   3.910
 7777TIP3    H123295   0.649   6.073   3.864
 7777TIP3    H223296   0.686   6.220   3.873
 7778TIP3   OH223297   2.168   5.545   4.805
 7778TIP3    H123298   2.109   5.565   4.878
 7778TIP3    H223299   2.189   5.631   4.767
 7779TIP3   OH223300   3.536   0.085   2.401
 7779TIP3    H123301   3.616   0.099   2.350
 7779TIP3    H223302   3.561   0.106   2.491
 7780TIP3   OH223303   1.956   1.986   1.808
 7780TIP3    H123304   1.969   1.952   1.720
 7780TIP3    H223305   1.921   1.912   1.857
 7781TIP3   OH223306   2.381   0.028   3.524
 7781TIP3    H123307   2.448   0.059   3.462
 7781TIP3    H223308   2.395   0.082   3.602
 7782TIP3   OH223309   6.388   4.347   3.228
 7782TIP3    H123310   6.375   4.361   3.134
 7782TIP3    H223311   6.475   4.307   3.234
 7783TIP3   OH223312   1.543   1.441   4.199
 7783TIP3    H123313   1.606   1.372   4.220
 7783TIP3    H223314   1.499   1.411   4.120
 7784TIP3   OH223315   1.522   2.904   0.537
 7784TIP3    H123316   1.526   2.990   0.497
 7784TIP3    H223317   1.462   2.854   0.482
 7785TIP3   OH223318   6.579   1.795   4.531
 7785TIP3    H123319   6.513   1.734   4.565
 7785TIP3    H223320   6.547   1.818   4.444
 7786TIP3   OH223321   2.815   4.183   4.906
 7786TIP3    H123322   2.786   4.115   4.844
 7786TIP3    H223323   2.871   4.136   4.968
 7787TIP3   OH223324   0.530   3.276   1.672
 7787TIP3    H123325   0.620   3.244   1.663
 7787TIP3    H223326   0.503   3.247   1.759
 7788TIP3   OH223327   6.973   5.592   4.468
 7788TIP3    H123328   7.060   5.586   4.429
 7788TIP3    H223329   6.920   5.634   4.401
 7789TIP3   OH223330   1.212   4.884   3.926
 7789TIP3    H123331   1.277   4.828   3.969
 7789TIP3    H223332   1.127   4.848   3.953
 7790TIP3   OH223333   6.338   2.617   1.570
 7790TIP3    H123334   6.313   2.531   1.534
 7790TIP3    H223335   6.356   2.599   1.662
 7791TIP3   OH223336   6.306   0.361   4.626
 7791TIP3    H123337   6.390   0.331   4.662
 7791TIP3    H223338   6.320   0.365   4.532
 7792TIP3   OH223339   3.312   0.936   5.803
 7792TIP3    H123340   3.342   0.874   5.870
 7792TIP3    H223341   3.376   0.927   5.732
 7793TIP3   OH223342   5.459   1.342   2.534
 7793TIP3    H123343   5.467   1.261   2.585
 7793TIP3    H223344   5.474   1.412   2.598
 7794TIP3   OH223345   3.021   6.534   4.897
 7794TIP3    H123346   3.093   6.570   4.948
 7794TIP3    H223347   3.053   6.534   4.807
 7795TIP3   OH223348   4.784   4.766   0.722
 7795TIP3    H123349   4.714   4.745   0.659
 7795TIP3    H223350   4.797   4.860   0.713
 7796TIP3   OH223351   5.741   1.780   3.436
 7796TIP3    H123352   5.761   1.715   3.369
 7796TIP3    H223353   5.766   1.864   3.397
 7797TIP3   OH223354   1.593   3.732   0.001
 7797TIP3    H123355   1.609   3.823   0.026
 7797TIP3    H223356   1.564   3.690   0.081
 7798TIP3   OH223357   0.257   6.231   3.438
 7798TIP3    H123358   0.281   6.212   3.348
 7798TIP3    H223359   0.173   6.186   3.450
 7799TIP3   OH223360   1.402   2.327   4.865
 7799TIP3    H123361   1.455   2.407   4.865
 7799TIP3    H223362   1.368   2.322   4.776
 7800TIP3   OH223363   5.956   5.682   4.207
 7800TIP3    H123364   5.934   5.731   4.128
 7800TIP3    H223365   5.990   5.747   4.267
 7801TIP3   OH223366   6.964   2.766   5.620
 7801TIP3    H123367   7.008   2.809   5.694
 7801TIP3    H223368   6.996   2.813   5.543
 7802TIP3   OH223369   0.605   1.928   1.101
 7802TIP3    H123370   0.519   1.969   1.087
 7802TIP3    H223371   0.596   1.840   1.064
 7803TIP3   OH223372   7.142   0.288   3.443
 7803TIP3    H123373   7.152   0.336   3.361
 7803TIP3    H223374   7.080   0.218   3.422
 7804TIP3   OH223375   6.683   0.983   2.117
 7804TIP3    H123376   6.721   0.905   2.076
 7804TIP3    H223377   6.670   1.044   2.044
 7805TIP3   OH223378   6.970   2.994   3.420
 7805TIP3    H123379   6.919   2.919   3.449
 7805TIP3    H223380   6.932   3.068   3.467
 7806TIP3   OH223381   3.302   5.376   2.513
 7806TIP3    H123382   3.340   5.462   2.533
 7806TIP3    H223383   3.222   5.396   2.465
 7807TIP3   OH223384   0.681   1.180   3.068
 7807TIP3    H123385   0.653   1.107   3.124
 7807TIP3    H223386   0.753   1.220   3.116
 7808TIP3   OH223387   5.645   6.601   0.295
 7808TIP3    H123388   5.644   6.622   0.388
 7808TIP3    H223389   5.670   6.683   0.252
 7809TIP3   OH223390   2.912   2.970   2.183
 7809TIP3    H123391   2.830   2.920   2.187
 7809TIP3    H223392   2.969   2.926   2.246
 7810TIP3   OH223393   6.358   3.433   5.670
 7810TIP3    H123394   6.269   3.470   5.663
 7810TIP3    H223395   6.347   3.355   5.724
 7811TIP3   OH223396   0.241   5.231   2.656
 7811TIP3    H123397   0.174   5.274   2.710
 7811TIP3    H223398   0.208   5.238   2.567
 7812TIP3   OH223399   1.236   1.463   0.335
 7812TIP3    H123400   1.244   1.401   0.407
 7812TIP3    H223401   1.205   1.544   0.375
 7813TIP3   OH223402   3.646   1.640   3.906
 7813TIP3    H123403   3.606   1.576   3.847
 7813TIP3    H223404   3.733   1.604   3.926
 7814TIP3   OH223405   1.866   5.076   0.548
 7814TIP3    H123406   1.852   5.114   0.461
 7814TIP3    H223407   1.928   5.004   0.532
 7815TIP3   OH223408   0.439   2.075   1.685
 7815TIP3    H123409   0.394   2.120   1.757
 7815TIP3    H223410   0.417   2.125   1.607
 7816TIP3   OH223411   3.614   0.128   0.458
 7816TIP3    H123412   3.640   0.147   0.548
 7816TIP3    H223413   3.668   0.053   0.433
 7817TIP3   OH223414   0.688   6.052   4.810
 7817TIP3    H123415   0.593   6.048   4.812
 7817TIP3    H223416   0.716   5.964   4.787
 7818TIP3   OH223417   0.455   4.556   2.219
 7818TIP3    H123418   0.419   4.519   2.300
 7818TIP3    H223419   0.549   4.565   2.237
 7819TIP3   OH223420   3.220   1.792   0.846
 7819TIP3    H123421   3.145   1.850   0.852
 7819TIP3    H223422   3.272   1.812   0.924
 7820TIP3   OH223423   5.037   4.727   4.761
 7820TIP3    H123424   5.057   4.694   4.673
 7820TIP3    H223425   5.112   4.781   4.785
 7821TIP3   OH223426   5.737   1.913   2.179
 7821TIP3    H123427   5.668   1.858   2.218
 7821TIP3    H223428   5.757   1.870   2.095
 7822TIP3   OH223429   4.012   5.669   0.525
 7822TIP3    H123430   4.081   5.614   0.489
 7822TIP3    H223431   3.931   5.626   0.498
 7823TIP3   OH223432   4.892   2.728   0.158
 7823TIP3    H123433   4.814   2.773   0.125
 7823TIP3    H223434   4.869   2.700   0.246
 7824TIP3   OH223435   1.590   5.758   0.197
 7824TIP3    H123436   1.509   5.802   0.170
 7824TIP3    H223437   1.659   5.811   0.158
 7825TIP3   OH223438   5.066   6.483   4.083
 7825TIP3    H123439   4.985   6.488   4.032
 7825TIP3    H223440   5.134   6.515   4.024
 7826TIP3   OH223441   3.983   5.469   1.812
 7826TIP3    H123442   4.015   5.382   1.789
 7826TIP3    H223443   4.028   5.529   1.752
 7827TIP3   OH223444   0.584   6.435   0.187
 7827TIP3    H123445   0.515   6.486   0.145
 7827TIP3    H223446   0.588   6.469   0.277
 7828TIP3   OH223447   0.278   2.903   1.980
 7828TIP3    H123448   0.187   2.905   2.009
 7828TIP3    H223449   0.293   2.991   1.945
 7829TIP3   OH223450   1.461   3.359   0.113
 7829TIP3    H123451   1.499   3.394   0.194
 7829TIP3    H223452   1.379   3.407   0.102
 7830TIP3   OH223453   4.116   3.874   4.053
 7830TIP3    H123454   4.158   3.903   4.135
 7830TIP3    H223455   4.083   3.955   4.014
 7831TIP3   OH223456   1.387   6.155   2.982
 7831TIP3    H123457   1.468   6.185   3.023
 7831TIP3    H223458   1.389   6.060   2.991
 7832TIP3   OH223459   5.352   5.709   4.580
 7832TIP3    H123460   5.386   5.799   4.573
 7832TIP3    H223461   5.426   5.658   4.612
 7833TIP3   OH223462   6.116   4.290   5.598
 7833TIP3    H123463   6.179   4.222   5.622
 7833TIP3    H223464   6.116   4.292   5.503
 7834TIP3   OH223465   1.173   1.741   2.375
 7834TIP3    H123466   1.140   1.774   2.291
 7834TIP3    H223467   1.195   1.649   2.358
 7835TIP3   OH223468   2.702   2.796   4.959
 7835TIP3    H123469   2.647   2.776   5.035
 7835TIP3    H223470   2.683   2.727   4.896
 7836TIP3   OH223471   4.384   2.803   0.338
 7836TIP3    H123472   4.437   2.755   0.274
 7836TIP3    H223473   4.447   2.847   0.394
 7837TIP3   OH223474   6.630   4.870   5.668
 7837TIP3    H123475   6.719   4.897   5.644
 7837TIP3    H223476   6.634   4.856   5.763
 7838TIP3   OH223477   2.661   6.257   3.248
 7838TIP3    H123478   2.627   6.253   3.337
 7838TIP3    H223479   2.629   6.341   3.214
 7839TIP3   OH223480   1.473   2.575   4.988
 7839TIP3    H123481   1.378   2.576   4.975
 7839TIP3    H223482   1.509   2.614   4.908
 7840TIP3   OH223483   5.793   4.614   2.652
 7840TIP3    H123484   5.862   4.587   2.592
 7840TIP3    H223485   5.750   4.532   2.676
 7841TIP3   OH223486   0.292   6.324   4.167
 7841TIP3    H123487   0.268   6.286   4.252
 7841TIP3    H223488   0.208   6.347   4.127
 7842TIP3   OH223489   5.735   5.545   4.104
 7842TIP3    H123490   5.815   5.589   4.076
 7842TIP3    H223491   5.700   5.601   4.173
 7843TIP3   OH223492   7.072   2.350   5.386
 7843TIP3    H123493   7.073   2.441   5.355
 7843TIP3    H223494   7.015   2.352   5.463
 7844TIP3   OH223495   4.467   4.168   5.852
 7844TIP3    H123496   4.532   4.227   5.890
 7844TIP3    H223497   4.483   4.172   5.758
 7845TIP3   OH223498   3.171   4.278   1.887
 7845TIP3    H123499   3.214   4.322   1.813
 7845TIP3    H223500   3.088   4.247   1.851
 7846TIP3   OH223501   4.313   0.535   3.071
 7846TIP3    H123502   4.220   0.534   3.049
 7846TIP3    H223503   4.316   0.505   3.162
 7847TIP3   OH223504   4.528   4.697   0.061
 7847TIP3    H123505   4.619   4.722   0.046
 7847TIP3    H223506   4.511   4.630  -0.006
 7848TIP3   OH223507   2.934   2.927   4.928
 7848TIP3    H123508   2.968   2.875   4.855
 7848TIP3    H223509   2.846   2.894   4.942
 7849TIP3   OH223510   0.416   1.058   2.811
 7849TIP3    H123511   0.419   1.038   2.717
 7849TIP3    H223512   0.447   0.978   2.854
 7850TIP3   OH223513   5.000   5.735   1.011
 7850TIP3    H123514   4.991   5.697   1.098
 7850TIP3    H223515   5.088   5.709   0.982
 7851TIP3   OH223516   3.247   3.629   5.802
 7851TIP3    H123517   3.319   3.692   5.807
 7851TIP3    H223518   3.282   3.556   5.751
 7852TIP3   OH223519   3.029   0.170   3.610
 7852TIP3    H123520   2.998   0.226   3.539
 7852TIP3    H223521   3.021   0.224   3.688
 7853TIP3   OH223522   2.926   4.253   2.362
 7853TIP3    H123523   2.962   4.195   2.429
 7853TIP3    H223524   2.890   4.193   2.295
 7854TIP3   OH223525   7.185   3.931   4.283
 7854TIP3    H123526   7.111   3.874   4.261
 7854TIP3    H223527   7.145   4.012   4.315
 7855TIP3   OH223528   1.761   4.997   4.516
 7855TIP3    H123529   1.801   5.084   4.514
 7855TIP3    H223530   1.829   4.940   4.552
 7856TIP3   OH223531   5.049   1.301   3.482
 7856TIP3    H123532   5.045   1.376   3.541
 7856TIP3    H223533   5.083   1.337   3.400
 7857TIP3   OH223534   5.050   2.328   1.101
 7857TIP3    H123535   5.018   2.399   1.156
 7857TIP3    H223536   5.145   2.336   1.103
 7858TIP3   OH223537   1.460   4.192   2.716
 7858TIP3    H123538   1.399   4.166   2.648
 7858TIP3    H223539   1.478   4.111   2.765
 7859TIP3   OH223540   2.166   3.739   3.232
 7859TIP3    H123541   2.108   3.701   3.298
 7859TIP3    H223542   2.132   3.827   3.217
 7860TIP3   OH223543   4.315   1.507   2.841
 7860TIP3    H123544   4.360   1.437   2.793
 7860TIP3    H223545   4.287   1.569   2.774
 7861TIP3   OH223546   3.673   3.880   2.174
 7861TIP3    H123547   3.760   3.853   2.144
 7861TIP3    H223548   3.630   3.798   2.197
 7862TIP3   OH223549   0.429   2.614   3.684
 7862TIP3    H123550   0.385   2.578   3.761
 7862TIP3    H223551   0.378   2.583   3.609
 7863TIP3   OH223552   1.898   5.568   3.785
 7863TIP3    H123553   1.812   5.526   3.790
 7863TIP3    H223554   1.959   5.498   3.808
 7864TIP3   OH223555   6.624   1.750   3.255
 7864TIP3    H123556   6.625   1.846   3.251
 7864TIP3    H223557   6.568   1.730   3.330
 7865TIP3   OH223558   5.056   5.010   4.577
 7865TIP3    H123559   5.021   4.993   4.489
 7865TIP3    H223560   4.979   5.030   4.630
 7866TIP3   OH223561   5.859   3.495   4.844
 7866TIP3    H123562   5.940   3.506   4.795
 7866TIP3    H223563   5.883   3.440   4.919
 7867TIP3   OH223564   4.813   3.031   4.488
 7867TIP3    H123565   4.889   3.016   4.545
 7867TIP3    H223566   4.848   3.022   4.399
 7868TIP3   OH223567   4.225   2.546   1.861
 7868TIP3    H123568   4.206   2.466   1.811
 7868TIP3    H223569   4.143   2.567   1.905
 7869TIP3   OH223570   1.926   1.053   3.531
 7869TIP3    H123571   1.880   0.986   3.582
 7869TIP3    H223572   1.981   1.098   3.595
 7870TIP3   OH223573   5.251   2.135  -0.043
 7870TIP3    H123574   5.200   2.101   0.030
 7870TIP3    H223575   5.341   2.136  -0.012
 7871TIP3   OH223576   2.217   2.677   4.504
 7871TIP3    H123577   2.209   2.701   4.596
 7871TIP3    H223578   2.246   2.757   4.460
 7872TIP3   OH223579   4.512   1.104   2.932
 7872TIP3    H123580   4.512   1.193   2.899
 7872TIP3    H223581   4.492   1.050   2.856
 7873TIP3   OH223582   4.873   0.365   5.614
 7873TIP3    H123583   4.959   0.399   5.587
 7873TIP3    H223584   4.856   0.293   5.552
 7874TIP3   OH223585   4.370   5.069   5.571
 7874TIP3    H123586   4.445   5.062   5.631
 7874TIP3    H223587   4.305   5.119   5.620
 7875TIP3   OH223588   3.111   4.935   0.263
 7875TIP3    H123589   3.106   4.854   0.213
 7875TIP3    H223590   3.150   4.998   0.203
 7876TIP3   OH223591   5.905   3.179   3.514
 7876TIP3    H123592   5.883   3.134   3.433
 7876TIP3    H223593   5.861   3.128   3.582
 7877TIP3   OH223594   6.627   3.050   3.514
 7877TIP3    H123595   6.696   3.116   3.518
 7877TIP3    H223596   6.633   3.014   3.425
 7878TIP3   OH223597   4.191   6.647   5.023
 7878TIP3    H123598   4.147   6.580   4.970
 7878TIP3    H223599   4.255   6.598   5.075
 7879TIP3   OH223600   3.001   0.997   4.087
 7879TIP3    H123601   3.079   0.947   4.112
 7879TIP3    H223602   3.036   1.071   4.038
 7880TIP3   OH223603   3.026   4.083   5.815
 7880TIP3    H123604   3.022   4.005   5.869
 7880TIP3    H223605   3.026   4.050   5.725
 7881TIP3   OH223606   0.439   1.542   4.493
 7881TIP3    H123607   0.380   1.601   4.539
 7881TIP3    H223608   0.455   1.471   4.555
 7882TIP3   OH223609   1.953   2.468   4.664
 7882TIP3    H123610   1.864   2.443   4.640
 7882TIP3    H223611   1.961   2.442   4.756
 7883TIP3   OH223612   2.016   1.601   4.161
 7883TIP3    H123613   1.978   1.526   4.115
 7883TIP3    H223614   2.033   1.665   4.091
 7884TIP3   OH223615   2.722   3.190   4.639
 7884TIP3    H123616   2.720   3.271   4.587
 7884TIP3    H223617   2.810   3.188   4.676
 7885TIP3   OH223618   4.192   6.476   2.420
 7885TIP3    H123619   4.273   6.524   2.407
 7885TIP3    H223620   4.175   6.433   2.336
 7886TIP3   OH223621   2.707   2.171   0.874
 7886TIP3    H123622   2.651   2.138   0.804
 7886TIP3    H223623   2.651   2.232   0.922
 7887TIP3   OH223624   4.942   6.242   1.951
 7887TIP3    H123625   5.017   6.183   1.957
 7887TIP3    H223626   4.883   6.201   1.888
 7888TIP3   OH223627   0.905   3.702   4.177
 7888TIP3    H123628   0.868   3.789   4.194
 7888TIP3    H223629   0.954   3.681   4.257
 7889TIP3   OH223630   0.600   1.400   4.247
 7889TIP3    H123631   0.692   1.426   4.258
 7889TIP3    H223632   0.556   1.437   4.323
 7890TIP3   OH223633   5.670   0.303   5.298
 7890TIP3    H123634   5.750   0.335   5.341
 7890TIP3    H223635   5.677   0.336   5.208
 7891TIP3   OH223636   3.747   5.145   1.908
 7891TIP3    H123637   3.720   5.233   1.882
 7891TIP3    H223638   3.835   5.135   1.871
 7892TIP3   OH223639   0.400   5.206   0.422
 7892TIP3    H123640   0.405   5.265   0.497
 7892TIP3    H223641   0.412   5.262   0.346
 7893TIP3   OH223642   4.178   4.793   2.139
 7893TIP3    H123643   4.140   4.878   2.161
 7893TIP3    H223644   4.113   4.751   2.082
 7894TIP3   OH223645   4.315   2.337   3.257
 7894TIP3    H123646   4.316   2.278   3.181
 7894TIP3    H223647   4.296   2.423   3.219
 7895TIP3   OH223648   5.656   5.167   3.539
 7895TIP3    H123649   5.598   5.233   3.501
 7895TIP3    H223650   5.682   5.112   3.466
 7896TIP3   OH223651   5.434   5.926   2.728
 7896TIP3    H123652   5.467   5.995   2.785
 7896TIP3    H223653   5.509   5.867   2.715
 7897TIP3   OH223654   0.097   4.312   3.853
 7897TIP3    H123655   0.071   4.309   3.761
 7897TIP3    H223656   0.076   4.401   3.880
 7898TIP3   OH223657   4.701   5.250   3.507
 7898TIP3    H123658   4.750   5.331   3.495
 7898TIP3    H223659   4.753   5.200   3.570
 7899TIP3   OH223660   1.875   3.120   2.724
 7899TIP3    H123661   1.948   3.170   2.687
 7899TIP3    H223662   1.798   3.175   2.706
 7900TIP3   OH223663   3.306   1.146   5.428
 7900TIP3    H123664   3.378   1.181   5.479
 7900TIP3    H223665   3.345   1.124   5.343
 7901TIP3   OH223666   7.082   4.387   2.854
 7901TIP3    H123667   7.074   4.449   2.926
 7901TIP3    H223668   7.031   4.425   2.783
 7902TIP3   OH223669   5.070   1.543   4.159
 7902TIP3    H123670   5.052   1.610   4.093
 7902TIP3    H223671   4.984   1.507   4.181
 7903TIP3   OH223672   3.973   4.728   1.915
 7903TIP3    H123673   3.989   4.635   1.934
 7903TIP3    H223674   3.977   4.733   1.819
 7904TIP3   OH223675   3.916   4.569   5.102
 7904TIP3    H123676   3.907   4.474   5.099
 7904TIP3    H223677   3.855   4.597   5.171
 7905TIP3   OH223678   4.293   3.357   2.767
 7905TIP3    H123679   4.319   3.307   2.690
 7905TIP3    H223680   4.333   3.310   2.840
 7906TIP3   OH223681   0.188   5.534   1.084
 7906TIP3    H123682   0.234   5.531   1.168
 7906TIP3    H223683   0.152   5.446   1.073
 7907TIP3   OH223684   1.732   6.211   5.383
 7907TIP3    H123685   1.653   6.195   5.331
 7907TIP3    H223686   1.764   6.296   5.354
 7908TIP3   OH223687   3.885   3.328   2.934
 7908TIP3    H123688   3.823   3.333   3.007
 7908TIP3    H223689   3.907   3.235   2.928
 7909TIP3   OH223690   2.087   6.144   2.445
 7909TIP3    H123691   2.155   6.188   2.393
 7909TIP3    H223692   2.005   6.183   2.416
 7910TIP3   OH223693   0.610   1.762   4.685
 7910TIP3    H123694   0.611   1.765   4.589
 7910TIP3    H223695   0.517   1.752   4.707
 7911TIP3   OH223696   2.997   6.751   2.711
 7911TIP3    H123697   3.048   6.764   2.631
 7911TIP3    H223698   3.016   6.661   2.737
 7912TIP3   OH223699   5.939   4.841   4.561
 7912TIP3    H123700   5.905   4.787   4.632
 7912TIP3    H223701   5.868   4.901   4.540
 7913TIP3   OH223702   6.183   1.649   5.288
 7913TIP3    H123703   6.272   1.616   5.303
 7913TIP3    H223704   6.190   1.744   5.298
 7914TIP3   OH223705   2.591   3.443   1.730
 7914TIP3    H123706   2.562   3.520   1.779
 7914TIP3    H223707   2.556   3.368   1.778
 7915TIP3   OH223708   1.321   4.720   3.537
 7915TIP3    H123709   1.336   4.677   3.622
 7915TIP3    H223710   1.225   4.723   3.529
 7916TIP3   OH223711   6.953   0.581   3.253
 7916TIP3    H123712   6.873   0.611   3.210
 7916TIP3    H223713   7.012   0.656   3.248
 7917TIP3   OH223714   1.595   1.985   0.619
 7917TIP3    H123715   1.593   1.928   0.696
 7917TIP3    H223716   1.687   2.011   0.611
 7918TIP3   OH223717   2.187   2.790   5.110
 7918TIP3    H123718   2.277   2.821   5.102
 7918TIP3    H223719   2.134   2.858   5.068
 7919TIP3   OH223720   4.670   2.730   3.753
 7919TIP3    H123721   4.595   2.768   3.706
 7919TIP3    H223722   4.701   2.802   3.808
 7920TIP3   OH223723   4.445   2.401   0.062
 7920TIP3    H123724   4.533   2.365   0.075
 7920TIP3    H223725   4.456   2.496   0.074
 7921TIP3   OH223726   3.861   1.973   4.717
 7921TIP3    H123727   3.940   1.997   4.668
 7921TIP3    H223728   3.814   2.055   4.728
 7922TIP3   OH223729   4.195   1.717   3.136
 7922TIP3    H123730   4.212   1.625   3.115
 7922TIP3    H223731   4.193   1.720   3.232
 7923TIP3   OH223732   5.441   2.113   1.687
 7923TIP3    H123733   5.384   2.084   1.758
 7923TIP3    H223734   5.512   2.049   1.685
 7924TIP3   OH223735   3.452   1.766   0.522
 7924TIP3    H123736   3.515   1.740   0.455
 7924TIP3    H223737   3.479   1.853   0.549
 7925TIP3   OH223738   3.020   1.555   2.016
 7925TIP3    H123739   3.007   1.578   2.108
 7925TIP3    H223740   3.045   1.463   2.017
 7926TIP3   OH223741   2.523   3.585   0.858
 7926TIP3    H123742   2.606   3.596   0.813
 7926TIP3    H223743   2.465   3.545   0.794
 7927TIP3   OH223744   4.691   2.185   1.704
 7927TIP3    H123745   4.661   2.098   1.732
 7927TIP3    H223746   4.682   2.184   1.609
 7928TIP3   OH223747   0.748   5.070   1.917
 7928TIP3    H123748   0.748   5.164   1.901
 7928TIP3    H223749   0.658   5.049   1.941
 7929TIP3   OH223750   5.952   1.363   0.098
 7929TIP3    H123751   6.003   1.400   0.170
 7929TIP3    H223752   5.863   1.397   0.112
 7930TIP3   OH223753   5.498   4.047   4.105
 7930TIP3    H123754   5.537   4.105   4.039
 7930TIP3    H223755   5.463   4.107   4.171
 7931TIP3   OH223756   5.695   0.656   2.223
 7931TIP3    H123757   5.738   0.604   2.291
 7931TIP3    H223758   5.669   0.591   2.157
 7932TIP3   OH223759   5.262   2.286   2.177
 7932TIP3    H123760   5.309   2.358   2.219
 7932TIP3    H223761   5.187   2.326   2.134
 7933TIP3   OH223762   6.620   2.481   3.553
 7933TIP3    H123763   6.555   2.550   3.544
 7933TIP3    H223764   6.704   2.523   3.535
 7934TIP3   OH223765   1.043   4.049   0.338
 7934TIP3    H123766   1.121   4.014   0.296
 7934TIP3    H223767   1.073   4.130   0.379
 7935TIP3   OH223768   1.112   6.340   2.008
 7935TIP3    H123769   1.138   6.432   2.003
 7935TIP3    H223770   1.145   6.302   1.926
 7936TIP3   OH223771   4.566   4.333   0.139
 7936TIP3    H123772   4.607   4.401   0.192
 7936TIP3    H223773   4.472   4.342   0.157
 7937TIP3   OH223774   0.417   3.419   0.268
 7937TIP3    H123775   0.365   3.339   0.280
 7937TIP3    H223776   0.379   3.481   0.330
 7938TIP3   OH223777   6.108   5.436   1.199
 7938TIP3    H123778   6.169   5.438   1.272
 7938TIP3    H223779   6.118   5.349   1.161
 7939TIP3   OH223780   4.651   4.586   3.449
 7939TIP3    H123781   4.723   4.619   3.503
 7939TIP3    H223782   4.694   4.530   3.384
 7940TIP3   OH223783   1.407   0.091   1.691
 7940TIP3    H123784   1.313   0.105   1.678
 7940TIP3    H223785   1.424   0.124   1.779
 7941TIP3   OH223786   4.038   6.466   1.389
 7941TIP3    H123787   4.113   6.431   1.439
 7941TIP3    H223788   4.006   6.539   1.443
 7942TIP3   OH223789   3.615   5.813   1.892
 7942TIP3    H123790   3.691   5.862   1.860
 7942TIP3    H223791   3.547   5.827   1.826
 7943TIP3   OH223792   0.952   4.856   1.916
 7943TIP3    H123793   1.010   4.915   1.869
 7943TIP3    H223794   0.867   4.901   1.917
 7944TIP3   OH223795   3.458   6.163   1.162
 7944TIP3    H123796   3.382   6.144   1.108
 7944TIP3    H223797   3.424   6.219   1.232
 7945TIP3   OH223798   4.313   6.321   5.222
 7945TIP3    H123799   4.249   6.260   5.260
 7945TIP3    H223800   4.305   6.309   5.127
 7946TIP3   OH223801   3.562   3.650   3.775
 7946TIP3    H123802   3.594   3.698   3.851
 7946TIP3    H223803   3.641   3.623   3.728
 7947TIP3   OH223804   3.017   4.865   1.280
 7947TIP3    H123805   3.032   4.797   1.345
 7947TIP3    H223806   3.017   4.819   1.196
 7948TIP3   OH223807   2.699   1.843   0.838
 7948TIP3    H123808   2.632   1.887   0.891
 7948TIP3    H223809   2.650   1.804   0.766
 7949TIP3   OH223810   2.738   2.110   0.576
 7949TIP3    H123811   2.662   2.081   0.627
 7949TIP3    H223812   2.710   2.100   0.485
 7950TIP3   OH223813   4.361   3.559   2.392
 7950TIP3    H123814   4.429   3.565   2.459
 7950TIP3    H223815   4.404   3.515   2.318
 7951TIP3   OH223816   4.788   5.038   2.587
 7951TIP3    H123817   4.875   5.000   2.580
 7951TIP3    H223818   4.767   5.067   2.499
 7952TIP3   OH223819   1.070   4.131   4.927
 7952TIP3    H123820   1.061   4.175   4.842
 7952TIP3    H223821   1.141   4.178   4.970
 7953TIP3   OH223822   6.431   6.051   3.749
 7953TIP3    H123823   6.395   5.990   3.684
 7953TIP3    H223824   6.453   6.129   3.698
 7954TIP3   OH223825   2.691   3.535   5.813
 7954TIP3    H123826   2.656   3.455   5.774
 7954TIP3    H223827   2.783   3.536   5.786
 7955TIP3   OH223828   3.140   6.348   2.212
 7955TIP3    H123829   3.083   6.420   2.187
 7955TIP3    H223830   3.184   6.322   2.131
 7956TIP3   OH223831   5.984   3.606   1.427
 7956TIP3    H123832   6.019   3.522   1.397
 7956TIP3    H223833   6.060   3.654   1.459
 7957TIP3   OH223834   0.995   3.861   3.598
 7957TIP3    H123835   1.000   3.952   3.568
 7957TIP3    H223836   1.051   3.813   3.537
 7958TIP3   OH223837   4.359   2.774   4.970
 7958TIP3    H123838   4.274   2.817   4.971
 7958TIP3    H223839   4.396   2.792   5.057
 7959TIP3   OH223840   2.080   4.172   4.137
 7959TIP3    H123841   2.042   4.084   4.135
 7959TIP3    H223842   2.138   4.175   4.061
 7960TIP3   OH223843   6.068   5.419   5.475
 7960TIP3    H123844   6.015   5.344   5.445
 7960TIP3    H223845   6.004   5.490   5.484
 7961TIP3   OH223846   6.751   5.097   1.798
 7961TIP3    H123847   6.765   5.046   1.878
 7961TIP3    H223848   6.834   5.143   1.784
 7962TIP3   OH223849   4.602   0.110   4.212
 7962TIP3    H123850   4.633   0.020   4.216
 7962TIP3    H223851   4.681   0.164   4.216
 7963TIP3   OH223852   5.473   4.569   1.493
 7963TIP3    H123853   5.552   4.579   1.439
 7963TIP3    H223854   5.433   4.655   1.492
 7964TIP3   OH223855   6.906   1.854   0.184
 7964TIP3    H123856   6.866   1.793   0.246
 7964TIP3    H223857   6.966   1.906   0.237
 7965TIP3   OH223858   2.654   5.738   5.596
 7965TIP3    H123859   2.631   5.711   5.507
 7965TIP3    H223860   2.579   5.711   5.649
 7966TIP3   OH223861   6.720   6.112   5.653
 7966TIP3    H123862   6.720   6.185   5.716
 7966TIP3    H223863   6.799   6.127   5.600
 7967TIP3   OH223864   1.755   2.064   1.051
 7967TIP3    H123865   1.756   2.095   0.961
 7967TIP3    H223866   1.848   2.052   1.073
 7968TIP3   OH223867   1.006   5.058   5.852
 7968TIP3    H123868   0.973   5.080   5.764
 7968TIP3    H223869   0.953   4.983   5.879
 7969TIP3   OH223870   6.413   3.832   5.203
 7969TIP3    H123871   6.358   3.772   5.254
 7969TIP3    H223872   6.433   3.903   5.264
 7970TIP3   OH223873   1.419   0.958   5.073
 7970TIP3    H123874   1.511   0.935   5.067
 7970TIP3    H223875   1.412   1.043   5.030
 7971TIP3   OH223876   4.188   5.850   2.842
 7971TIP3    H123877   4.280   5.853   2.868
 7971TIP3    H223878   4.153   5.935   2.868
 7972TIP3   OH223879   4.250   1.027   2.968
 7972TIP3    H123880   4.342   1.052   2.977
 7972TIP3    H223881   4.242   0.949   3.023
 7973TIP3   OH223882   1.373   6.313   3.585
 7973TIP3    H123883   1.307   6.300   3.654
 7973TIP3    H223884   1.343   6.258   3.513
 7974TIP3   OH223885   5.281   6.185   5.840
 7974TIP3    H123886   5.329   6.267   5.825
 7974TIP3    H223887   5.341   6.131   5.890
 7975TIP3   OH223888   2.085   0.231   5.174
 7975TIP3    H123889   2.095   0.170   5.248
 7975TIP3    H223890   2.165   0.220   5.123
 7976TIP3   OH223891   4.994   5.192   4.817
 7976TIP3    H123892   4.930   5.258   4.844
 7976TIP3    H223893   5.078   5.228   4.842
 7977TIP3   OH223894   0.833   5.208   3.031
 7977TIP3    H123895   0.776   5.147   3.078
 7977TIP3    H223896   0.846   5.280   3.092
 7978TIP3   OH223897   7.125   4.704   2.704
 7978TIP3    H123898   7.057   4.751   2.656
 7978TIP3    H223899   7.079   4.662   2.776
 7979TIP3   OH223900   5.801   6.386   5.328
 7979TIP3    H123901   5.888   6.383   5.289
 7979TIP3    H223902   5.743   6.405   5.254
 7980TIP3   OH223903   3.243   1.931   0.445
 7980TIP3    H123904   3.287   1.851   0.472
 7980TIP3    H223905   3.230   1.922   0.351
 7981TIP3   OH223906   4.178   0.250   0.486
 7981TIP3    H123907   4.212   0.332   0.452
 7981TIP3    H223908   4.249   0.187   0.474
 7982TIP3   OH223909   0.712   1.074   1.097
 7982TIP3    H123910   0.760   0.991   1.099
 7982TIP3    H223911   0.691   1.091   1.189
 7983TIP3   OH223912   5.172   4.100   5.568
 7983TIP3    H123913   5.242   4.117   5.631
 7983TIP3    H223914   5.216   4.089   5.484
 7984TIP3   OH223915   2.451   5.793   3.662
 7984TIP3    H123916   2.532   5.771   3.708
 7984TIP3    H223917   2.446   5.888   3.665
 7985TIP3   OH223918   4.194   5.762   5.337
 7985TIP3    H123919   4.194   5.812   5.419
 7985TIP3    H223920   4.112   5.786   5.294
 7986TIP3   OH223921   5.856   1.069   2.336
 7986TIP3    H123922   5.847   0.998   2.272
 7986TIP3    H223923   5.806   1.141   2.298
 7987TIP3   OH223924   5.248   6.189   5.034
 7987TIP3    H123925   5.253   6.284   5.037
 7987TIP3    H223926   5.162   6.168   5.070
 7988TIP3   OH223927   2.687   0.203   3.099
 7988TIP3    H123928   2.717   0.285   3.137
 7988TIP3    H223929   2.634   0.230   3.023
 7989TIP3   OH223930   0.488   2.550   1.432
 7989TIP3    H123931   0.542   2.597   1.496
 7989TIP3    H223932   0.495   2.602   1.352
 7990TIP3   OH223933   4.523   6.605   4.214
 7990TIP3    H123934   4.439   6.641   4.243
 7990TIP3    H223935   4.511   6.591   4.120
 7991TIP3   OH223936   5.171   5.621   5.482
 7991TIP3    H123937   5.169   5.692   5.546
 7991TIP3    H223938   5.086   5.578   5.492
 7992TIP3   OH223939   4.552   5.471   3.777
 7992TIP3    H123940   4.525   5.382   3.799
 7992TIP3    H223941   4.475   5.509   3.734
 7993TIP3   OH223942   5.788   1.183   1.438
 7993TIP3    H123943   5.805   1.262   1.387
 7993TIP3    H223944   5.852   1.185   1.509
 7994TIP3   OH223945   5.183   0.528   4.336
 7994TIP3    H123946   5.135   0.449   4.361
 7994TIP3    H223947   5.233   0.502   4.259
 7995TIP3   OH223948   5.042   1.667   3.179
 7995TIP3    H123949   5.004   1.580   3.169
 7995TIP3    H223950   4.987   1.710   3.244
 7996TIP3   OH223951   3.618   2.311   2.414
 7996TIP3    H123952   3.713   2.309   2.404
 7996TIP3    H223953   3.597   2.403   2.431
 7997TIP3   OH223954   6.690   3.543   3.547
 7997TIP3    H123955   6.699   3.581   3.459
 7997TIP3    H223956   6.686   3.619   3.605
 7998TIP3   OH223957   4.166   1.316   2.180
 7998TIP3    H123958   4.127   1.336   2.265
 7998TIP3    H223959   4.217   1.394   2.157
 7999TIP3   OH223960   0.380   4.884   2.415
 7999TIP3    H123961   0.319   4.922   2.479
 7999TIP3    H223962   0.407   4.958   2.361
 8000TIP3   OH223963   5.864   6.181   0.816
 8000TIP3    H123964   5.860   6.105   0.874
 8000TIP3    H223965   5.928   6.240   0.857
 8001TIP3   OH223966   6.542   4.108   3.018
 8001TIP3    H123967   6.513   4.021   2.989
 8001TIP3    H223968   6.601   4.137   2.948
 8002TIP3   OH223969   3.430   3.824   5.753
 8002TIP3    H123970   3.380   3.894   5.795
 8002TIP3    H223971   3.521   3.844   5.775
 8003TIP3   OH223972   7.026   1.855   1.158
 8003TIP3    H123973   7.025   1.773   1.109
 8003TIP3    H223974   7.037   1.828   1.249
 8004TIP3   OH223975   0.017   6.636   2.861
 8004TIP3    H123976   0.101   6.680   2.849
 8004TIP3    H223977  -0.045   6.707   2.875
 8005TIP3   OH223978   2.047   1.309   4.069
 8005TIP3    H123979   2.052   1.303   4.165
 8005TIP3    H223980   2.062   1.220   4.039
 8006TIP3   OH223981   6.584   2.017   3.264
 8006TIP3    H123982   6.661   2.074   3.274
 8006TIP3    H223983   6.524   2.045   3.333
 8007TIP3   OH223984   1.315   5.914   3.688
 8007TIP3    H123985   1.251   5.952   3.628
 8007TIP3    H223986   1.275   5.921   3.774
 8008TIP3   OH223987   0.037   5.322   1.374
 8008TIP3    H123988   0.011   5.271   1.450
 8008TIP3    H223989   0.061   5.408   1.409
 8009TIP3   OH223990   3.374   0.603   2.062
 8009TIP3    H123991   3.359   0.572   1.972
 8009TIP3    H223992   3.444   0.667   2.054
 8010TIP3   OH223993   4.238   5.693   2.159
 8010TIP3    H123994   4.160   5.640   2.144
 8010TIP3    H223995   4.206   5.771   2.203
 8011TIP3   OH223996   6.533   3.203   1.444
 8011TIP3    H123997   6.534   3.193   1.539
 8011TIP3    H223998   6.625   3.215   1.420
 8012TIP3   OH223999   6.782   2.742   1.367
 8012TIP3    H124000   6.873   2.715   1.359
 8012TIP3    H224001   6.757   2.721   1.457
 8013TIP3   OH224002   5.266   3.605   5.629
 8013TIP3    H124003   5.358   3.594   5.653
 8013TIP3    H224004   5.246   3.695   5.654
 8014TIP3   OH224005   3.770   3.498   4.163
 8014TIP3    H124006   3.786   3.434   4.232
 8014TIP3    H224007   3.857   3.522   4.132
 8015TIP3   OH224008   5.580   0.078   5.748
 8015TIP3    H124009   5.575   0.173   5.740
 8015TIP3    H224010   5.600   0.047   5.660
 8016TIP3   OH224011   5.295   5.812   1.906
 8016TIP3    H124012   5.358   5.845   1.969
 8016TIP3    H224013   5.341   5.812   1.822
 8017TIP3   OH224014   4.176   4.858   5.476
 8017TIP3    H124015   4.219   4.773   5.484
 8017TIP3    H224016   4.238   4.920   5.514
 8018TIP3   OH224017   1.199   5.485   4.411
 8018TIP3    H124018   1.254   5.455   4.484
 8018TIP3    H224019   1.109   5.475   4.443
 8019TIP3   OH224020   3.102   0.265   5.894
 8019TIP3    H124021   3.042   0.334   5.921
 8019TIP3    H224022   3.086   0.194   5.956
 8020TIP3   OH224023   2.405   5.817   1.419
 8020TIP3    H124024   2.473   5.769   1.467
 8020TIP3    H224025   2.422   5.796   1.327
 8021TIP3   OH224026   6.886   4.989   3.773
 8021TIP3    H124027   6.840   5.070   3.749
 8021TIP3    H224028   6.816   4.927   3.794
 8022TIP3   OH224029   3.233   4.105   3.452
 8022TIP3    H124030   3.324   4.133   3.444
 8022TIP3    H224031   3.211   4.122   3.543
 8023TIP3   OH224032   1.744   3.164   5.725
 8023TIP3    H124033   1.649   3.152   5.731
 8023TIP3    H224034   1.758   3.199   5.637
 8024TIP3   OH224035   0.588   6.623   3.695
 8024TIP3    H124036   0.509   6.571   3.709
 8024TIP3    H224037   0.576   6.701   3.749
 8025TIP3   OH224038   1.016   3.174   0.269
 8025TIP3    H124039   1.055   3.123   0.198
 8025TIP3    H224040   0.955   3.233   0.225
 8026TIP3   OH224041   2.543   3.476   4.438
 8026TIP3    H124042   2.484   3.404   4.456
 8026TIP3    H224043   2.631   3.437   4.442
 8027TIP3   OH224044   0.269   1.368   5.209
 8027TIP3    H124045   0.267   1.440   5.272
 8027TIP3    H224046   0.278   1.289   5.262
 8028TIP3   OH224047   2.476   0.088   1.383
 8028TIP3    H124048   2.569   0.072   1.403
 8028TIP3    H224049   2.433   0.006   1.408
 8029TIP3   OH224050   0.130   6.057   5.757
 8029TIP3    H124051   0.146   6.088   5.846
 8029TIP3    H224052   0.177   6.118   5.701
 8030TIP3   OH224053   4.735   1.600   4.878
 8030TIP3    H124054   4.762   1.556   4.959
 8030TIP3    H224055   4.739   1.533   4.811
 8031TIP3   OH224056   0.078   2.083   5.398
 8031TIP3    H124057  -0.011   2.106   5.372
 8031TIP3    H224058   0.131   2.158   5.370
 8032TIP3   OH224059   2.118   3.469   2.136
 8032TIP3    H124060   2.194   3.426   2.177
 8032TIP3    H224061   2.128   3.561   2.157
 8033TIP3   OH224062   0.329   2.007   1.036
 8033TIP3    H124063   0.313   2.093   0.997
 8033TIP3    H224064   0.272   2.004   1.113
 8034TIP3   OH224065   3.451   5.955   5.529
 8034TIP3    H124066   3.401   5.986   5.453
 8034TIP3    H224067   3.444   5.860   5.526
 8035TIP3   OH224068   4.969   1.311   1.939
 8035TIP3    H124069   4.980   1.333   1.846
 8035TIP3    H224070   5.002   1.387   1.986
 8036TIP3   OH224071   4.840   0.408   3.435
 8036TIP3    H124072   4.763   0.461   3.456
 8036TIP3    H224073   4.825   0.325   3.480
 8037TIP3   OH224074   3.429   0.228   3.960
 8037TIP3    H124075   3.347   0.273   3.981
 8037TIP3    H224076   3.476   0.290   3.903
 8038TIP3   OH224077   6.195   5.941   5.607
 8038TIP3    H124078   6.184   6.009   5.674
 8038TIP3    H224079   6.269   5.890   5.638
 8039TIP3   OH224080   5.484   6.000   3.773
 8039TIP3    H124081   5.498   5.912   3.807
 8039TIP3    H224082   5.471   5.988   3.679
 8040TIP3   OH224083   6.313   3.589   3.420
 8040TIP3    H124084   6.256   3.534   3.473
 8040TIP3    H224085   6.362   3.641   3.483
 8041TIP3   OH224086   2.482   6.747   3.978
 8041TIP3    H124087   2.519   6.668   3.938
 8041TIP3    H224088   2.400   6.761   3.930
 8042TIP3   OH224089   2.432   4.818   2.919
 8042TIP3    H124090   2.376   4.750   2.957
 8042TIP3    H224091   2.400   4.899   2.959
 8043TIP3   OH224092   6.877   5.449   3.980
 8043TIP3    H124093   6.808   5.496   4.027
 8043TIP3    H224094   6.857   5.356   3.997
 8044TIP3   OH224095   0.791   1.178   3.665
 8044TIP3    H124096   0.797   1.118   3.739
 8044TIP3    H224097   0.835   1.133   3.593
 8045TIP3   OH224098   1.155   5.370   5.660
 8045TIP3    H124099   1.178   5.298   5.719
 8045TIP3    H224100   1.149   5.329   5.573
 8046TIP3   OH224101   5.290   0.539   5.872
 8046TIP3    H124102   5.317   0.455   5.835
 8046TIP3    H224103   5.298   0.601   5.800
 8047TIP3   OH224104   7.135   1.859   1.846
 8047TIP3    H124105   7.194   1.807   1.900
 8047TIP3    H224106   7.171   1.948   1.851
 8048TIP3   OH224107   2.627   2.212   0.096
 8048TIP3    H124108   2.547   2.239   0.052
 8048TIP3    H224109   2.687   2.190   0.025
 8049TIP3   OH224110   6.613   3.428   0.231
 8049TIP3    H124111   6.702   3.419   0.265
 8049TIP3    H224112   6.593   3.342   0.193
 8050TIP3   OH224113   0.997   2.622   5.255
 8050TIP3    H124114   1.063   2.674   5.209
 8050TIP3    H224115   0.982   2.546   5.199
 8051TIP3   OH224116   4.156   6.357   3.851
 8051TIP3    H124117   4.214   6.314   3.788
 8051TIP3    H224118   4.215   6.406   3.908
 8052TIP3   OH224119   6.058   2.835   2.474
 8052TIP3    H124120   6.090   2.843   2.384
 8052TIP3    H224121   6.137   2.836   2.527
 8053TIP3   OH224122   5.320   6.652   3.994
 8053TIP3    H124123   5.368   6.579   4.034
 8053TIP3    H224124   5.361   6.664   3.909
 8054TIP3   OH224125   2.489   3.162   0.665
 8054TIP3    H124126   2.439   3.114   0.599
 8054TIP3    H224127   2.534   3.093   0.715
 8055TIP3   OH224128   0.462   0.490   1.876
 8055TIP3    H124129   0.411   0.568   1.854
 8055TIP3    H224130   0.553   0.519   1.877
 8056TIP3   OH224131   1.655   3.622   2.317
 8056TIP3    H124132   1.657   3.631   2.221
 8056TIP3    H224133   1.747   3.628   2.343
 8057TIP3   OH224134   1.237   1.438   4.900
 8057TIP3    H124135   1.284   1.480   4.971
 8057TIP3    H224136   1.175   1.504   4.870
 8058TIP3   OH224137   6.825   6.014   4.526
 8058TIP3    H124138   6.800   5.927   4.494
 8058TIP3    H224139   6.751   6.070   4.503
 8059TIP3   OH224140   0.732   4.905   3.871
 8059TIP3    H124141   0.692   4.991   3.860
 8059TIP3    H224142   0.803   4.903   3.806
 8060TIP3   OH224143   0.425   1.573   0.116
 8060TIP3    H124144   0.367   1.621   0.175
 8060TIP3    H224145   0.368   1.509   0.073
 8061TIP3   OH224146   6.212   5.924   0.491
 8061TIP3    H124147   6.263   5.950   0.567
 8061TIP3    H224148   6.160   6.002   0.470
 8062TIP3   OH224149   1.863   2.332   4.418
 8062TIP3    H124150   1.878   2.252   4.368
 8062TIP3    H224151   1.769   2.336   4.431
 8063TIP3   OH224152   6.765   5.101   3.098
 8063TIP3    H124153   6.729   5.178   3.054
 8063TIP3    H224154   6.847   5.083   3.051
 8064TIP3   OH224155   1.790   5.022   4.012
 8064TIP3    H124156   1.796   5.109   4.052
 8064TIP3    H224157   1.878   4.985   4.024
 8065TIP3   OH224158   3.648   5.028   2.717
 8065TIP3    H124159   3.662   5.106   2.771
 8065TIP3    H224160   3.734   4.985   2.715
 8066TIP3   OH224161   2.857   5.057   4.579
 8066TIP3    H124162   2.876   4.978   4.530
 8066TIP3    H224163   2.777   5.092   4.539
 8067TIP3   OH224164   6.611   6.209   5.250
 8067TIP3    H124165   6.586   6.175   5.165
 8067TIP3    H224166   6.549   6.169   5.311
 8068TIP3   OH224167   4.259   1.610   0.829
 8068TIP3    H124168   4.282   1.617   0.736
 8068TIP3    H224169   4.174   1.566   0.829
 8069TIP3   OH224170   1.583   0.843   1.403
 8069TIP3    H124171   1.654   0.799   1.356
 8069TIP3    H224172   1.523   0.872   1.334
 8070TIP3   OH224173   4.031   0.125   4.010
 8070TIP3    H124174   3.964   0.059   3.991
 8070TIP3    H224175   4.031   0.131   4.105
 8071TIP3   OH224176   3.770   1.337   0.749
 8071TIP3    H124177   3.723   1.256   0.769
 8071TIP3    H224178   3.713   1.384   0.688
 8072TIP3   OH224179   2.781   3.285   0.651
 8072TIP3    H124180   2.692   3.249   0.657
 8072TIP3    H224181   2.785   3.350   0.721
 8073TIP3   OH224182   5.699   2.357   0.203
 8073TIP3    H124183   5.769   2.421   0.213
 8073TIP3    H224184   5.688   2.319   0.289
 8074TIP3   OH224185   6.832   1.052   0.534
 8074TIP3    H124186   6.797   0.979   0.484
 8074TIP3    H224187   6.777   1.055   0.613
 8075TIP3   OH224188   0.243   4.931   3.008
 8075TIP3    H124189   0.311   4.906   3.072
 8075TIP3    H224190   0.192   4.998   3.053
 8076TIP3   OH224191   2.332   0.931   5.253
 8076TIP3    H124192   2.391   0.900   5.184
 8076TIP3    H224193   2.295   1.012   5.218
 8077TIP3   OH224194   3.502   4.464   5.546
 8077TIP3    H124195   3.464   4.443   5.631
 8077TIP3    H224196   3.568   4.531   5.565
 8078TIP3   OH224197   5.053   2.353   0.658
 8078TIP3    H124198   5.062   2.407   0.579
 8078TIP3    H224199   5.002   2.407   0.718
 8079TIP3   OH224200   3.531   2.375   3.549
 8079TIP3    H124201   3.495   2.371   3.638
 8079TIP3    H224202   3.486   2.449   3.509
 8080TIP3   OH224203   0.484   0.490   3.708
 8080TIP3    H124204   0.445   0.577   3.717
 8080TIP3    H224205   0.411   0.433   3.684
 8081TIP3   OH224206   1.439   1.164   2.112
 8081TIP3    H124207   1.429   1.088   2.055
 8081TIP3    H224208   1.453   1.237   2.052
 8082TIP3   OH224209   0.696   4.239   2.131
 8082TIP3    H124210   0.696   4.143   2.135
 8082TIP3    H224211   0.605   4.262   2.115
 8083TIP3   OH224212   4.513   3.563   0.578
 8083TIP3    H124213   4.578   3.562   0.649
 8083TIP3    H224214   4.546   3.501   0.514
 8084TIP3   OH224215   2.528   1.474   2.384
 8084TIP3    H124216   2.516   1.567   2.368
 8084TIP3    H224217   2.572   1.470   2.469
 8085TIP3   OH224218   6.371   3.093   4.713
 8085TIP3    H124219   6.328   3.176   4.691
 8085TIP3    H224220   6.366   3.089   4.809
 8086TIP3   OH224221   1.210   4.883   2.578
 8086TIP3    H124222   1.265   4.903   2.502
 8086TIP3    H224223   1.192   4.790   2.570
 8087TIP3   OH224224   1.421   2.290   3.452
 8087TIP3    H124225   1.380   2.232   3.387
 8087TIP3    H224226   1.426   2.237   3.531
 8088TIP3   OH224227   4.230   2.012   3.644
 8088TIP3    H124228   4.213   1.998   3.550
 8088TIP3    H224229   4.324   1.995   3.653
 8089TIP3   OH224230   6.821   5.182   4.034
 8089TIP3    H124231   6.769   5.132   4.097
 8089TIP3    H224232   6.898   5.127   4.019
 8090TIP3   OH224233   2.911   1.308   2.584
 8090TIP3    H124234   2.910   1.230   2.528
 8090TIP3    H224235   2.990   1.298   2.637
 8091TIP3   OH224236   4.606   3.657   5.426
 8091TIP3    H124237   4.659   3.736   5.417
 8091TIP3    H224238   4.643   3.612   5.502
 8092TIP3   OH224239   5.349   6.779   2.344
 8092TIP3    H124240   5.403   6.705   2.371
 8092TIP3    H224241   5.301   6.748   2.267
 8093TIP3   OH224242   6.130   4.003   4.217
 8093TIP3    H124243   6.088   3.995   4.131
 8093TIP3    H224244   6.104   4.089   4.249
 8094TIP3   OH224245   5.025   5.593   1.224
 8094TIP3    H124246   4.957   5.591   1.292
 8094TIP3    H224247   5.102   5.557   1.267
 8095TIP3   OH224248   6.733   2.386   3.972
 8095TIP3    H124249   6.711   2.480   3.970
 8095TIP3    H224250   6.720   2.361   4.064
 8096TIP3   OH224251   4.410   0.918   2.741
 8096TIP3    H124252   4.398   0.833   2.784
 8096TIP3    H224253   4.325   0.938   2.702
 8097TIP3   OH224254   7.196   1.919   5.133
 8097TIP3    H124255   7.168   2.010   5.124
 8097TIP3    H224256   7.277   1.925   5.185
 8098TIP3   OH224257   6.419   1.077   0.966
 8098TIP3    H124258   6.408   1.100   1.058
 8098TIP3    H224259   6.363   1.140   0.919
 8099TIP3   OH224260   0.583   1.042   5.133
 8099TIP3    H124261   0.605   0.958   5.093
 8099TIP3    H224262   0.555   1.097   5.060
 8100TIP3   OH224263   7.037   1.675   5.108
 8100TIP3    H124264   7.088   1.751   5.136
 8100TIP3    H224265   7.103   1.608   5.089
 8101TIP3   OH224266   7.001   1.879   1.593
 8101TIP3    H124267   6.937   1.941   1.627
 8101TIP3    H224268   7.060   1.862   1.667
 8102TIP3   OH224269   1.400  -0.013   0.858
 8102TIP3    H124270   1.417   0.077   0.831
 8102TIP3    H224271   1.413  -0.065   0.779
 8103TIP3   OH224272   3.103   5.113   2.345
 8103TIP3    H124273   3.076   5.062   2.421
 8103TIP3    H224274   3.077   5.059   2.270
 8104TIP3   OH224275   5.044   3.835   3.376
 8104TIP3    H124276   5.106   3.881   3.432
 8104TIP3    H224277   5.085   3.750   3.361
 8105TIP3   OH224278   6.305   6.816   4.856
 8105TIP3    H124279   6.288   6.722   4.864
 8105TIP3    H224280   6.248   6.857   4.921
 8106TIP3   OH224281   1.119   1.367   2.039
 8106TIP3    H124282   1.197   1.392   1.990
 8106TIP3    H224283   1.105   1.275   2.017
 8107TIP3   OH224284   4.718   1.866   2.027
 8107TIP3    H124285   4.780   1.917   1.974
 8107TIP3    H224286   4.725   1.904   2.115
 8108TIP3   OH224287   5.735   4.642   5.322
 8108TIP3    H124288   5.758   4.688   5.242
 8108TIP3    H224289   5.761   4.552   5.307
 8109TIP3   OH224290   3.776   3.247   0.853
 8109TIP3    H124291   3.848   3.303   0.882
 8109TIP3    H224292   3.776   3.175   0.916
 8110TIP3   OH224293   4.379   4.082   1.304
 8110TIP3    H124294   4.390   4.141   1.378
 8110TIP3    H224295   4.383   3.995   1.341
 8111TIP3   OH224296   0.111   4.325   0.556
 8111TIP3    H124297   0.199   4.344   0.586
 8111TIP3    H224298   0.103   4.229   0.562
 8112TIP3   OH224299   1.426   4.140   0.756
 8112TIP3    H124300   1.484   4.119   0.829
 8112TIP3    H224301   1.433   4.235   0.747
 8113TIP3   OH224302   7.134   1.803   2.948
 8113TIP3    H124303   7.220   1.811   2.991
 8113TIP3    H224304   7.114   1.892   2.919
 8114TIP3   OH224305   2.307   5.759   4.705
 8114TIP3    H124306   2.244   5.830   4.716
 8114TIP3    H224307   2.330   5.761   4.613
 8115TIP3   OH224308   3.173   2.928   0.411
 8115TIP3    H124309   3.137   2.904   0.496
 8115TIP3    H224310   3.268   2.919   0.422
 8116TIP3   OH224311   5.346   6.533   5.363
 8116TIP3    H124312   5.379   6.610   5.409
 8116TIP3    H224313   5.317   6.474   5.433
 8117TIP3   OH224314   6.798   3.292   1.401
 8117TIP3    H124315   6.835   3.373   1.367
 8117TIP3    H224316   6.815   3.296   1.495
 8118TIP3   OH224317   5.806   2.263   2.690
 8118TIP3    H124318   5.722   2.307   2.683
 8118TIP3    H224319   5.812   2.236   2.782
 8119TIP3   OH224320   0.575   1.526   0.593
 8119TIP3    H124321   0.622   1.442   0.599
 8119TIP3    H224322   0.530   1.522   0.508
 8120TIP3   OH224323   6.991   1.427   2.608
 8120TIP3    H124324   7.077   1.435   2.648
 8120TIP3    H224325   6.931   1.467   2.671
 8121TIP3   OH224326   5.239   3.096   3.214
 8121TIP3    H124327   5.266   3.078   3.124
 8121TIP3    H224328   5.239   3.010   3.256
 8122TIP3   OH224329   0.250   3.187   1.594
 8122TIP3    H124330   0.223   3.128   1.524
 8122TIP3    H224331   0.195   3.163   1.668
 8123TIP3   OH224332   5.353   4.169   0.666
 8123TIP3    H124333   5.362   4.144   0.758
 8123TIP3    H224334   5.357   4.086   0.619
 8124TIP3   OH224335   5.484   0.530   1.861
 8124TIP3    H124336   5.517   0.620   1.857
 8124TIP3    H224337   5.521   0.495   1.942
 8125TIP3   OH224338   2.283   4.457   4.831
 8125TIP3    H124339   2.313   4.376   4.872
 8125TIP3    H224340   2.319   4.527   4.886
 8126TIP3   OH224341   5.265   1.597   0.331
 8126TIP3    H124342   5.248   1.626   0.241
 8126TIP3    H224343   5.309   1.513   0.321
 8127TIP3   OH224344   3.909   5.323   3.556
 8127TIP3    H124345   3.820   5.287   3.560
 8127TIP3    H224346   3.953   5.286   3.633
 8128TIP3   OH224347   4.073   1.441   3.391
 8128TIP3    H124348   4.119   1.398   3.319
 8128TIP3    H224349   4.091   1.534   3.379
 8129TIP3   OH224350   2.420   0.444   3.162
 8129TIP3    H124351   2.372   0.493   3.229
 8129TIP3    H224352   2.357   0.435   3.090
 8130TIP3   OH224353   0.459   0.167   1.335
 8130TIP3    H124354   0.548   0.141   1.310
 8130TIP3    H224355   0.432   0.228   1.266
 8131TIP3   OH224356   4.344   1.608   4.372
 8131TIP3    H124357   4.343   1.694   4.414
 8131TIP3    H224358   4.300   1.621   4.289
 8132TIP3   OH224359   6.805   4.967   2.038
 8132TIP3    H124360   6.785   5.018   2.117
 8132TIP3    H224361   6.756   4.885   2.049
 8133TIP3   OH224362   5.099   1.836   1.558
 8133TIP3    H124363   5.115   1.830   1.652
 8133TIP3    H224364   5.120   1.928   1.537
 8134TIP3   OH224365   1.478   2.367   5.193
 8134TIP3    H124366   1.501   2.410   5.111
 8134TIP3    H224367   1.549   2.390   5.253
 8135TIP3   OH224368   3.671   0.454   4.827
 8135TIP3    H124369   3.686   0.444   4.921
 8135TIP3    H224370   3.678   0.365   4.792
 8136TIP3   OH224371   5.036   5.573   4.296
 8136TIP3    H124372   4.985   5.531   4.366
 8136TIP3    H224373   4.978   5.642   4.263
 8137TIP3   OH224374   6.814   5.258   4.668
 8137TIP3    H124375   6.888   5.316   4.687
 8137TIP3    H224376   6.805   5.205   4.747
 8138TIP3   OH224377   2.654   2.782   3.753
 8138TIP3    H124378   2.705   2.856   3.719
 8138TIP3    H224379   2.588   2.766   3.686
 8139TIP3   OH224380   0.039   5.959   5.391
 8139TIP3    H124381   0.011   5.879   5.435
 8139TIP3    H224382   0.129   5.973   5.421
 8140TIP3   OH224383  -0.024   2.437   2.308
 8140TIP3    H124384   0.019   2.521   2.290
 8140TIP3    H224385   0.027   2.373   2.258
 8141TIP3   OH224386   1.109   5.122   4.603
 8141TIP3    H124387   1.016   5.105   4.617
 8141TIP3    H224388   1.111   5.184   4.530
 8142TIP3   OH224389   2.700   5.776   3.209
 8142TIP3    H124390   2.723   5.865   3.183
 8142TIP3    H224391   2.733   5.722   3.137
 8143TIP3   OH224392   4.081   1.428   2.979
 8143TIP3    H124393   4.163   1.473   2.961
 8143TIP3    H224394   4.090   1.343   2.935
 8144TIP3   OH224395   0.617   4.759   2.037
 8144TIP3    H124396   0.702   4.797   2.062
 8144TIP3    H224397   0.554   4.829   2.053
 8145TIP3   OH224398   0.922   5.529   5.687
 8145TIP3    H124399   0.991   5.463   5.680
 8145TIP3    H224400   0.967   5.608   5.715
 8146TIP3   OH224401   5.252   1.738   5.680
 8146TIP3    H124402   5.310   1.754   5.606
 8146TIP3    H224403   5.233   1.825   5.715
 8147TIP3   OH224404   6.029   4.687   2.420
 8147TIP3    H124405   5.947   4.673   2.373
 8147TIP3    H224406   6.084   4.737   2.360
 8148TIP3   OH224407   3.114   1.727   2.250
 8148TIP3    H124408   3.051   1.674   2.299
 8148TIP3    H224409   3.188   1.669   2.234
 8149TIP3   OH224410   2.678   2.462   2.578
 8149TIP3    H124411   2.710   2.541   2.534
 8149TIP3    H224412   2.690   2.392   2.513
 8150TIP3   OH224413   0.602   3.310   2.690
 8150TIP3    H124414   0.533   3.330   2.754
 8150TIP3    H224415   0.644   3.395   2.673
 8151TIP3   OH224416   0.190   2.156  -0.024
 8151TIP3    H124417   0.216   2.240   0.014
 8151TIP3    H224418   0.124   2.122   0.036
 8152TIP3   OH224419   4.919   4.883   1.516
 8152TIP3    H124420   4.844   4.826   1.498
 8152TIP3    H224421   4.955   4.903   1.429
 8153TIP3   OH224422   4.957   0.221   1.524
 8153TIP3    H124423   4.872   0.242   1.485
 8153TIP3    H224424   5.003   0.172   1.456
 8154TIP3   OH224425   6.759   0.933   1.572
 8154TIP3    H124426   6.773   0.839   1.555
 8154TIP3    H224427   6.819   0.955   1.642
 8155TIP3   OH224428   6.711   0.135   3.566
 8155TIP3    H124429   6.661   0.169   3.639
 8155TIP3    H224430   6.757   0.211   3.529
 8156TIP3   OH224431   5.334   2.010   4.410
 8156TIP3    H124432   5.328   1.942   4.476
 8156TIP3    H224433   5.300   1.968   4.330
 8157TIP3   OH224434   2.318   4.971   1.898
 8157TIP3    H124435   2.255   4.899   1.905
 8157TIP3    H224436   2.389   4.946   1.957
 8158TIP3   OH224437   3.539   2.562   0.301
 8158TIP3    H124438   3.618   2.537   0.253
 8158TIP3    H224439   3.525   2.491   0.364
 8159TIP3   OH224440   2.050   4.220   5.370
 8159TIP3    H124441   1.962   4.252   5.352
 8159TIP3    H224442   2.038   4.130   5.401
 8160TIP3   OH224443   4.107   6.533   3.577
 8160TIP3    H124444   4.125   6.605   3.516
 8160TIP3    H224445   4.073   6.576   3.656
 8161TIP3   OH224446   4.287   3.702   2.926
 8161TIP3    H124447   4.225   3.632   2.947
 8161TIP3    H224448   4.283   3.709   2.830
 8162TIP3   OH224449   2.878   3.010   3.041
 8162TIP3    H124450   2.920   2.986   3.124
 8162TIP3    H224451   2.819   3.082   3.064
 8163TIP3   OH224452   1.686   5.447   0.224
 8163TIP3    H124453   1.749   5.515   0.246
 8163TIP3    H224454   1.701   5.428   0.132
 8164TIP3   OH224455   4.659   3.164   2.904
 8164TIP3    H124456   4.709   3.223   2.848
 8164TIP3    H224457   4.645   3.213   2.985
 8165TIP3   OH224458   3.071   4.778   4.853
 8165TIP3    H124459   3.144   4.818   4.807
 8165TIP3    H224460   3.048   4.841   4.921
 8166TIP3   OH224461   4.662   2.543   0.669
 8166TIP3    H124462   4.579   2.495   0.668
 8166TIP3    H224463   4.704   2.516   0.750
 8167TIP3   OH224464   0.548   0.124   3.769
 8167TIP3    H124465   0.631   0.155   3.805
 8167TIP3    H224466   0.482   0.182   3.806
 8168TIP3   OH224467   6.868   6.630   0.610
 8168TIP3    H124468   6.894   6.587   0.528
 8168TIP3    H224469   6.950   6.642   0.658
 8169TIP3   OH224470   3.769   3.898   3.102
 8169TIP3    H124471   3.728   3.972   3.058
 8169TIP3    H224472   3.795   3.933   3.188
 8170TIP3   OH224473   0.164   2.106   4.884
 8170TIP3    H124474   0.226   2.177   4.895
 8170TIP3    H224475   0.175   2.052   4.962
 8171TIP3   OH224476   6.661   5.167   2.210
 8171TIP3    H124477   6.670   5.245   2.156
 8171TIP3    H224478   6.580   5.180   2.259
 8172TIP3   OH224479   1.523   5.018   2.676
 8172TIP3    H124480   1.577   5.022   2.597
 8172TIP3    H224481   1.435   4.997   2.645
 8173TIP3   OH224482   2.566   6.759   2.035
 8173TIP3    H124483   2.482   6.785   1.997
 8173TIP3    H224484   2.630   6.777   1.966
 8174TIP3   OH224485   4.129   5.874   5.591
 8174TIP3    H124486   4.036   5.867   5.566
 8174TIP3    H224487   4.139   5.813   5.664
 8175TIP3   OH224488   0.126   4.052   4.730
 8175TIP3    H124489   0.175   4.070   4.649
 8175TIP3    H224490   0.141   4.130   4.784
 8176TIP3   OH224491   4.398   4.161   2.035
 8176TIP3    H124492   4.363   4.075   2.056
 8176TIP3    H224493   4.347   4.222   2.089
 8177TIP3   OH224494   6.118   1.322   1.621
 8177TIP3    H124495   6.122   1.275   1.538
 8177TIP3    H224496   6.091   1.410   1.597
 8178TIP3   OH224497   2.631   4.496   2.529
 8178TIP3    H124498   2.725   4.513   2.537
 8178TIP3    H224499   2.590   4.580   2.551
 8179TIP3   OH224500   6.932   3.169   2.660
 8179TIP3    H124501   6.911   3.232   2.729
 8179TIP3    H224502   7.026   3.157   2.666
 8180TIP3   OH224503   6.083   1.731   1.698
 8180TIP3    H124504   6.039   1.686   1.626
 8180TIP3    H224505   6.031   1.809   1.713
 8181TIP3   OH224506   1.564   1.440   0.216
 8181TIP3    H124507   1.545   1.382   0.289
 8181TIP3    H224508   1.659   1.453   0.219
 8182TIP3   OH224509   3.526   6.274   5.326
 8182TIP3    H124510   3.439   6.266   5.289
 8182TIP3    H224511   3.571   6.194   5.302
 8183TIP3   OH224512   0.421   6.194   5.420
 8183TIP3    H124513   0.354   6.130   5.441
 8183TIP3    H224514   0.415   6.259   5.490
 8184TIP3   OH224515   3.296   1.681   2.615
 8184TIP3    H124516   3.354   1.635   2.677
 8184TIP3    H224517   3.211   1.638   2.626
 8185TIP3   OH224518   1.294   0.381   3.536
 8185TIP3    H124519   1.365   0.444   3.526
 8185TIP3    H224520   1.271   0.357   3.447
 8186TIP3   OH224521   4.102   5.680   1.484
 8186TIP3    H124522   4.107   5.704   1.576
 8186TIP3    H224523   4.045   5.746   1.445
 8187TIP3   OH224524   0.162   5.035   1.990
 8187TIP3    H124525   0.123   5.109   1.944
 8187TIP3    H224526   0.121   4.958   1.951
 8188TIP3   OH224527   1.901   0.109   4.525
 8188TIP3    H124528   1.995   0.112   4.505
 8188TIP3    H224529   1.890   0.029   4.576
 8189TIP3   OH224530   5.192   2.877   1.531
 8189TIP3    H124531   5.277   2.922   1.531
 8189TIP3    H224532   5.143   2.919   1.601
 8190TIP3   OH224533   0.413   3.216   2.489
 8190TIP3    H124534   0.488   3.259   2.530
 8190TIP3    H224535   0.401   3.136   2.540
 8191TIP3   OH224536   0.575   3.019   4.857
 8191TIP3    H124537   0.632   3.017   4.780
 8191TIP3    H224538   0.488   3.002   4.822
 8192TIP3   OH224539   3.291   0.735   0.094
 8192TIP3    H124540   3.206   0.691   0.091
 8192TIP3    H224541   3.272   0.824   0.063
 8193TIP3   OH224542   3.937   0.800   4.742
 8193TIP3    H124543   3.929   0.825   4.834
 8193TIP3    H224544   4.001   0.862   4.706
 8194TIP3   OH224545   6.441   5.872   2.656
 8194TIP3    H124546   6.348   5.861   2.672
 8194TIP3    H224547   6.464   5.801   2.596
 8195TIP3   OH224548   1.986   5.709   5.899
 8195TIP3    H124549   1.928   5.768   5.852
 8195TIP3    H224550   1.941   5.624   5.896
 8196TIP3   OH224551   2.489   2.322   5.736
 8196TIP3    H124552   2.559   2.271   5.695
 8196TIP3    H224553   2.496   2.409   5.695
 8197TIP3   OH224554   4.105   1.006   4.668
 8197TIP3    H124555   4.164   1.038   4.600
 8197TIP3    H224556   4.107   1.074   4.735
 8198TIP3   OH224557   0.520   3.466   2.444
 8198TIP3    H124558   0.591   3.410   2.415
 8198TIP3    H224559   0.560   3.553   2.453
 8199TIP3   OH224560   5.926   3.178   4.201
 8199TIP3    H124561   5.834   3.193   4.221
 8199TIP3    H224562   5.956   3.260   4.162
 8200TIP3   OH224563   2.870   3.210   4.095
 8200TIP3    H124564   2.836   3.290   4.054
 8200TIP3    H224565   2.824   3.140   4.050
 8201TIP3   OH224566   2.397   2.949   5.461
 8201TIP3    H124567   2.451   2.870   5.453
 8201TIP3    H224568   2.397   2.968   5.555
 8202TIP3   OH224569   5.145   5.261   2.705
 8202TIP3    H124570   5.219   5.203   2.724
 8202TIP3    H224571   5.083   5.243   2.775
 8203TIP3   OH224572   2.423   5.133   2.266
 8203TIP3    H124573   2.451   5.114   2.356
 8203TIP3    H224574   2.467   5.215   2.245
 8204TIP3   OH224575   6.134   1.086   2.415
 8204TIP3    H124576   6.043   1.087   2.386
 8204TIP3    H224577   6.185   1.099   2.335
 8205TIP3   OH224578   0.579   6.489   0.616
 8205TIP3    H124579   0.555   6.406   0.573
 8205TIP3    H224580   0.536   6.556   0.564
 8206TIP3   OH224581   0.033   3.771   0.099
 8206TIP3    H124582   0.017   3.833   0.170
 8206TIP3    H224583   0.098   3.813   0.044
 8207TIP3   OH224584   6.719   0.868   0.369
 8207TIP3    H124585   6.632   0.902   0.392
 8207TIP3    H224586   6.721   0.870   0.273
 8208TIP3   OH224587   2.644   4.668   3.246
 8208TIP3    H124588   2.553   4.668   3.217
 8208TIP3    H224589   2.651   4.590   3.301
 8209TIP3   OH224590   2.802   5.424   4.867
 8209TIP3    H124591   2.855   5.499   4.895
 8209TIP3    H224592   2.746   5.459   4.798
 8210TIP3   OH224593   6.856   0.101   2.263
 8210TIP3    H124594   6.761   0.111   2.274
 8210TIP3    H224595   6.890   0.190   2.272
 8211TIP3   OH224596   2.770   6.557   4.809
 8211TIP3    H124597   2.856   6.561   4.851
 8211TIP3    H224598   2.745   6.465   4.815
 8212TIP3   OH224599   6.898   0.437   2.597
 8212TIP3    H124600   6.942   0.374   2.541
 8212TIP3    H224601   6.834   0.479   2.540
 8213TIP3   OH224602   5.625   6.649   5.544
 8213TIP3    H124603   5.544   6.700   5.546
 8213TIP3    H224604   5.681   6.690   5.610
 8214TIP3   OH224605   4.890   5.674   2.301
 8214TIP3    H124606   4.807   5.628   2.309
 8214TIP3    H224607   4.928   5.671   2.389
 8215TIP3   OH224608   1.515   5.186   1.405
 8215TIP3    H124609   1.582   5.134   1.362
 8215TIP3    H224610   1.561   5.265   1.434
 8216TIP3   OH224611   2.489   5.953   0.539
 8216TIP3    H124612   2.571   5.963   0.587
 8216TIP3    H224613   2.486   5.860   0.515
 8217TIP3   OH224614   5.079   3.843   0.697
 8217TIP3    H124615   5.008   3.781   0.681
 8217TIP3    H224616   5.053   3.891   0.776
 8218TIP3   OH224617   7.224   3.722   1.308
 8218TIP3    H124618   7.136   3.750   1.333
 8218TIP3    H224619   7.223   3.720   1.212
 8219TIP3   OH224620   0.957   1.701   1.188
 8219TIP3    H124621   0.956   1.772   1.252
 8219TIP3    H224622   1.045   1.706   1.150
 8220TIP3   OH224623   2.319   3.483   5.614
 8220TIP3    H124624   2.232   3.478   5.655
 8220TIP3    H224625   2.323   3.407   5.557
 8221TIP3   OH224626   3.833   5.258   1.319
 8221TIP3    H124627   3.915   5.226   1.281
 8221TIP3    H224628   3.844   5.353   1.324
 8222TIP3   OH224629   2.512   3.477   4.915
 8222TIP3    H124630   2.602   3.460   4.942
 8222TIP3    H224631   2.508   3.572   4.901
 8223TIP3   OH224632   5.598   5.032   4.236
 8223TIP3    H124633   5.592   4.936   4.242
 8223TIP3    H224634   5.597   5.050   4.142
 8224TIP3   OH224635   3.952   5.623   3.337
 8224TIP3    H124636   3.935   5.531   3.313
 8224TIP3    H224637   4.019   5.617   3.405
 8225TIP3   OH224638   2.203   3.391   0.947
 8225TIP3    H124639   2.123   3.374   0.897
 8225TIP3    H224640   2.180   3.369   1.037
 8226TIP3   OH224641   5.532   2.982   3.557
 8226TIP3    H124642   5.476   2.927   3.612
 8226TIP3    H224643   5.518   2.950   3.468
 8227TIP3   OH224644   6.834   4.243   2.557
 8227TIP3    H124645   6.806   4.151   2.550
 8227TIP3    H224646   6.929   4.240   2.547
 8228TIP3   OH224647   3.994   6.519   0.134
 8228TIP3    H124648   3.949   6.440   0.164
 8228TIP3    H224649   4.063   6.533   0.198
 8229TIP3   OH224650   2.502   1.702   4.868
 8229TIP3    H124651   2.569   1.753   4.824
 8229TIP3    H224652   2.440   1.679   4.800
 8230TIP3   OH224653   5.770   1.944   2.789
 8230TIP3    H124654   5.689   1.988   2.761
 8230TIP3    H224655   5.814   2.009   2.845
 8231TIP3   OH224656   1.818   0.933   5.356
 8231TIP3    H124657   1.725   0.951   5.367
 8231TIP3    H224658   1.834   0.948   5.262
 8232TIP3   OH224659   1.552   4.587   5.158
 8232TIP3    H124660   1.616   4.527   5.120
 8232TIP3    H224661   1.514   4.633   5.083
 8233TIP3   OH224662   2.434   1.560   4.108
 8233TIP3    H124663   2.356   1.523   4.066
 8233TIP3    H224664   2.491   1.484   4.123
 8234TIP3   OH224665   2.645   0.865   0.640
 8234TIP3    H124666   2.604   0.947   0.667
 8234TIP3    H224667   2.717   0.852   0.703
 8235TIP3   OH224668   2.474   4.010   4.137
 8235TIP3    H124669   2.384   3.998   4.107
 8235TIP3    H224670   2.488   3.939   4.200
 8236TIP3   OH224671   6.708   0.475   1.418
 8236TIP3    H124672   6.637   0.437   1.470
 8236TIP3    H224673   6.683   0.458   1.327
 8237TIP3   OH224674   0.198   3.143   5.069
 8237TIP3    H124675   0.286   3.106   5.075
 8237TIP3    H224676   0.192   3.178   4.980
 8238TIP3   OH224677   4.738   4.328   5.141
 8238TIP3    H124678   4.747   4.252   5.084
 8238TIP3    H224679   4.693   4.393   5.086
 8239TIP3   OH224680   1.656   0.842   2.153
 8239TIP3    H124681   1.574   0.795   2.137
 8239TIP3    H224682   1.649   0.873   2.243
 8240TIP3   OH224683   1.100   3.632   4.881
 8240TIP3    H124684   1.039   3.604   4.812
 8240TIP3    H224685   1.046   3.687   4.938
 8241TIP3   OH224686   6.193   4.880   2.274
 8241TIP3    H124687   6.272   4.879   2.327
 8241TIP3    H224688   6.224   4.894   2.185
 8242TIP3   OH224689   1.075   2.851   2.592
 8242TIP3    H124690   1.013   2.846   2.519
 8242TIP3    H224691   1.160   2.859   2.550
 8243TIP3   OH224692   3.879   4.190   5.593
 8243TIP3    H124693   3.863   4.242   5.672
 8243TIP3    H224694   3.836   4.107   5.611
 8244TIP3   OH224695   0.118   4.778   0.358
 8244TIP3    H124696   0.035   4.766   0.311
 8244TIP3    H224697   0.184   4.742   0.299
 8245TIP3   OH224698   5.542   0.724   0.380
 8245TIP3    H124699   5.522   0.645   0.329
 8245TIP3    H224700   5.507   0.796   0.326
 8246TIP3   OH224701   5.018   1.281   0.119
 8246TIP3    H124702   5.077   1.206   0.109
 8246TIP3    H224703   5.051   1.346   0.056
 8247TIP3   OH224704   2.182   5.927   2.589
 8247TIP3    H124705   2.113   5.897   2.648
 8247TIP3    H224706   2.137   5.987   2.529
 8248TIP3   OH224707   1.003   4.579   4.650
 8248TIP3    H124708   0.927   4.523   4.660
 8248TIP3    H224709   0.975   4.648   4.590
 8249TIP3   OH224710   0.238   2.224   5.644
 8249TIP3    H124711   0.278   2.311   5.649
 8249TIP3    H224712   0.144   2.241   5.653
 8250TIP3   OH224713   3.040   4.734   3.632
 8250TIP3    H124714   3.080   4.651   3.659
 8250TIP3    H224715   3.075   4.751   3.545
 8251TIP3   OH224716   4.278   6.315   2.845
 8251TIP3    H124717   4.328   6.243   2.884
 8251TIP3    H224718   4.339   6.354   2.782
 8252TIP3   OH224719   0.985   2.419   3.256
 8252TIP3    H124720   0.937   2.344   3.292
 8252TIP3    H224721   1.050   2.380   3.198
 8253TIP3   OH224722   3.357   2.056   2.009
 8253TIP3    H124723   3.384   2.114   1.938
 8253TIP3    H224724   3.432   2.055   2.069
 8254TIP3   OH224725   6.694   2.010   4.211
 8254TIP3    H124726   6.695   1.915   4.199
 8254TIP3    H224727   6.607   2.037   4.182
 8255TIP3   OH224728   1.771   5.501   1.811
 8255TIP3    H124729   1.716   5.456   1.875
 8255TIP3    H224730   1.835   5.548   1.864
 8256TIP3   OH224731   2.068   5.132   5.059
 8256TIP3    H124732   2.072   5.206   5.120
 8256TIP3    H224733   1.975   5.114   5.049
 8257TIP3   OH224734   0.209   6.047   2.882
 8257TIP3    H124735   0.219   6.133   2.843
 8257TIP3    H224736   0.276   5.993   2.839
 8258TIP3   OH224737   3.615   4.013   1.469
 8258TIP3    H124738   3.707   3.994   1.452
 8258TIP3    H224739   3.573   4.004   1.383
 8259TIP3   OH224740   1.420   0.279   5.620
 8259TIP3    H124741   1.416   0.375   5.626
 8259TIP3    H224742   1.395   0.260   5.529
 8260TIP3   OH224743   2.076   4.846   4.594
 8260TIP3    H124744   2.104   4.877   4.680
 8260TIP3    H224745   2.158   4.823   4.550
 8261TIP3   OH224746   4.226   2.555   3.084
 8261TIP3    H124747   4.199   2.623   3.145
 8261TIP3    H224748   4.277   2.601   3.017
 8262TIP3   OH224749   4.559   0.447   2.757
 8262TIP3    H124750   4.597   0.393   2.826
 8262TIP3    H224751   4.587   0.405   2.676
 8263TIP3   OH224752   2.240   0.877   5.591
 8263TIP3    H124753   2.215   0.815   5.523
 8263TIP3    H224754   2.330   0.902   5.569
 8264TIP3   OH224755   3.092   2.976   3.575
 8264TIP3    H124756   3.176   2.932   3.582
 8264TIP3    H224757   3.028   2.906   3.564
 8265TIP3   OH224758   3.864  -0.026   1.930
 8265TIP3    H124759   3.858  -0.001   1.838
 8265TIP3    H224760   3.958  -0.025   1.949
 8266TIP3   OH224761   1.634   0.562   4.213
 8266TIP3    H124762   1.619   0.644   4.260
 8266TIP3    H224763   1.547   0.533   4.186
 8267TIP3   OH224764   5.303   1.448   4.300
 8267TIP3    H124765   5.367   1.479   4.236
 8267TIP3    H224766   5.218   1.472   4.262
 8268TIP3   OH224767   1.771   5.826   0.424
 8268TIP3    H124768   1.751   5.866   0.340
 8268TIP3    H224769   1.797   5.737   0.404
 8269TIP3   OH224770   5.534   5.374   1.185
 8269TIP3    H124771   5.622   5.387   1.149
 8269TIP3    H224772   5.540   5.293   1.235
 8270TIP3   OH224773   6.585   6.094   0.908
 8270TIP3    H124774   6.515   6.159   0.918
 8270TIP3    H224775   6.554   6.036   0.838
 8271TIP3   OH224776   0.424   5.945   5.205
 8271TIP3    H124777   0.346   5.998   5.188
 8271TIP3    H224778   0.406   5.861   5.163
 8272TIP3   OH224779   4.272   0.756   3.691
 8272TIP3    H124780   4.179   0.734   3.702
 8272TIP3    H224781   4.314   0.672   3.673
 8273TIP3   OH224782   4.911   5.382   1.098
 8273TIP3    H124783   4.833   5.411   1.145
 8273TIP3    H224784   4.977   5.448   1.118
 8274TIP3   OH224785   4.689   0.085   1.635
 8274TIP3    H124786   4.636   0.012   1.603
 8274TIP3    H224787   4.677   0.154   1.569
 8275TIP3   OH224788   5.695   6.846   1.708
 8275TIP3    H124789   5.659   6.918   1.658
 8275TIP3    H224790   5.621   6.787   1.723
 8276TIP3   OH224791   0.152   2.150   4.398
 8276TIP3    H124792   0.084   2.218   4.400
 8276TIP3    H224793   0.228   2.194   4.362
 8277TIP3   OH224794   2.416   1.682   3.863
 8277TIP3    H124795   2.429   1.598   3.819
 8277TIP3    H224796   2.459   1.672   3.948
 8278TIP3   OH224797   4.902   2.983   2.318
 8278TIP3    H124798   4.874   2.894   2.340
 8278TIP3    H224799   4.953   2.973   2.238
 8279TIP3   OH224800   2.810   5.500   5.236
 8279TIP3    H124801   2.815   5.463   5.324
 8279TIP3    H224802   2.724   5.472   5.203
 8280TIP3   OH224803   6.617   6.463   4.093
 8280TIP3    H124804   6.537   6.506   4.124
 8280TIP3    H224805   6.679   6.535   4.081
 8281TIP3   OH224806   7.182   4.451   2.337
 8281TIP3    H124807   7.196   4.546   2.336
 8281TIP3    H224808   7.163   4.430   2.428
 8282TIP3   OH224809   6.465   4.311   1.200
 8282TIP3    H124810   6.509   4.247   1.145
 8282TIP3    H224811   6.444   4.383   1.140
 8283TIP3   OH224812   3.391   5.396   3.331
 8283TIP3    H124813   3.364   5.314   3.373
 8283TIP3    H224814   3.435   5.445   3.400
 8284TIP3   OH224815   2.466   1.044   4.720
 8284TIP3    H124816   2.486   0.952   4.706
 8284TIP3    H224817   2.538   1.092   4.679
 8285TIP3   OH224818   5.107   3.641   4.972
 8285TIP3    H124819   5.103   3.715   5.033
 8285TIP3    H224820   5.192   3.600   4.990
 8286TIP3   OH224821   1.948   0.352   2.123
 8286TIP3    H124822   1.889   0.426   2.138
 8286TIP3    H224823   1.955   0.310   2.208
 8287TIP3   OH224824   4.504   3.774   4.339
 8287TIP3    H124825   4.443   3.773   4.412
 8287TIP3    H224826   4.587   3.800   4.377
 8288TIP3   OH224827   4.122   3.567   0.195
 8288TIP3    H124828   4.101   3.646   0.144
 8288TIP3    H224829   4.204   3.589   0.239
 8289TIP3   OH224830   0.240   0.309   3.143
 8289TIP3    H124831   0.304   0.332   3.210
 8289TIP3    H224832   0.215   0.393   3.103
 8290TIP3   OH224833   5.892   1.260   1.933
 8290TIP3    H124834   5.914   1.338   1.983
 8290TIP3    H224835   5.851   1.201   1.997
 8291TIP3   OH224836   1.942   0.719   5.535
 8291TIP3    H124837   1.877   0.773   5.489
 8291TIP3    H224838   2.018   0.720   5.478
 8292TIP3   OH224839   6.923   4.663   4.668
 8292TIP3    H124840   6.948   4.613   4.590
 8292TIP3    H224841   6.870   4.735   4.634
 8293TIP3   OH224842   0.702   4.760   3.449
 8293TIP3    H124843   0.766   4.821   3.413
 8293TIP3    H224844   0.740   4.731   3.531
 8294TIP3   OH224845   5.645   4.564   0.851
 8294TIP3    H124846   5.667   4.472   0.863
 8294TIP3    H224847   5.640   4.600   0.940
 8295TIP3   OH224848   1.279   2.851   0.440
 8295TIP3    H124849   1.263   2.778   0.381
 8295TIP3    H224850   1.281   2.929   0.384
 8296TIP3   OH224851   0.270   1.524   5.435
 8296TIP3    H124852   0.327   1.503   5.510
 8296TIP3    H224853   0.196   1.570   5.474
 8297TIP3   OH224854   0.680   4.547   1.879
 8297TIP3    H124855   0.774   4.559   1.889
 8297TIP3    H224856   0.642   4.630   1.908
 8298TIP3   OH224857   4.590   2.731   3.174
 8298TIP3    H124858   4.620   2.787   3.245
 8298TIP3    H224859   4.647   2.654   3.177
 8299TIP3   OH224860   5.111   3.543   3.869
 8299TIP3    H124861   5.059   3.527   3.947
 8299TIP3    H224862   5.080   3.478   3.806
 8300TIP3   OH224863   5.787   6.379   1.953
 8300TIP3    H124864   5.702   6.410   1.922
 8300TIP3    H224865   5.850   6.433   1.906
 8301TIP3   OH224866   3.934   1.043   0.912
 8301TIP3    H124867   3.945   1.106   0.984
 8301TIP3    H224868   3.886   0.970   0.951
 8302TIP3   OH224869   1.841   3.745   1.770
 8302TIP3    H124870   1.887   3.738   1.686
 8302TIP3    H224871   1.902   3.792   1.827
 8303TIP3   OH224872   3.344   3.381   1.672
 8303TIP3    H124873   3.405   3.414   1.606
 8303TIP3    H224874   3.347   3.446   1.742
 8304TIP3   OH224875   5.657   3.204   0.951
 8304TIP3    H124876   5.571   3.216   0.911
 8304TIP3    H224877   5.700   3.138   0.896
 8305TIP3   OH224878   0.166   5.465   0.458
 8305TIP3    H124879   0.182   5.407   0.532
 8305TIP3    H224880   0.250   5.507   0.441
 8306TIP3   OH224881   0.370   4.565   2.707
 8306TIP3    H124882   0.310   4.629   2.745
 8306TIP3    H224883   0.440   4.618   2.668
 8307TIP3   OH224884   1.261   0.863   3.650
 8307TIP3    H124885   1.298   0.869   3.562
 8307TIP3    H224886   1.313   0.794   3.693
 8308TIP3   OH224887   2.120   2.876   3.558
 8308TIP3    H124888   2.193   2.817   3.541
 8308TIP3    H224889   2.063   2.827   3.618
 8309TIP3   OH224890   3.913   6.462   5.354
 8309TIP3    H124891   3.821   6.466   5.329
 8309TIP3    H224892   3.940   6.554   5.363
 8310TIP3   OH224893   7.146   6.721   0.205
 8310TIP3    H124894   7.198   6.799   0.185
 8310TIP3    H224895   7.100   6.744   0.286
 8311TIP3   OH224896   4.401   3.193   0.885
 8311TIP3    H124897   4.335   3.224   0.823
 8311TIP3    H224898   4.352   3.177   0.966
 8312TIP3   OH224899   3.900   5.431   0.527
 8312TIP3    H124900   3.806   5.413   0.517
 8312TIP3    H224901   3.940   5.393   0.448
 8313TIP3   OH224902   7.229   5.007   3.108
 8313TIP3    H124903   7.211   5.079   3.048
 8313TIP3    H224904   7.148   4.997   3.159
 8314TIP3   OH224905   3.451   6.512   0.623
 8314TIP3    H124906   3.537   6.502   0.665
 8314TIP3    H224907   3.450   6.443   0.556
 8315TIP3   OH224908   4.386   2.821   4.520
 8315TIP3    H124909   4.322   2.848   4.454
 8315TIP3    H224910   4.363   2.730   4.539
 8316TIP3   OH224911   6.490   2.643   4.071
 8316TIP3    H124912   6.576   2.631   4.031
 8316TIP3    H224913   6.505   2.701   4.145
 8317TIP3   OH224914   6.175   0.802   5.133
 8317TIP3    H124915   6.149   0.822   5.043
 8317TIP3    H224916   6.099   0.759   5.171
 8318TIP3   OH224917   7.011   1.465   1.307
 8318TIP3    H124918   7.047   1.553   1.315
 8318TIP3    H224919   6.944   1.460   1.375
 8319TIP3   OH224920   4.812   5.289   4.197
 8319TIP3    H124921   4.876   5.317   4.131
 8319TIP3    H224922   4.752   5.363   4.205
 8320TIP3   OH224923   1.849   3.938   3.191
 8320TIP3    H124924   1.782   3.895   3.244
 8320TIP3    H224925   1.924   3.948   3.250
 8321TIP3   OH224926   1.758   4.858   0.266
 8321TIP3    H124927   1.774   4.773   0.309
 8321TIP3    H224928   1.770   4.840   0.173
 8322TIP3   OH224929   7.098   6.448   4.056
 8322TIP3    H124930   7.177   6.401   4.031
 8322TIP3    H224931   7.035   6.380   4.081
 8323TIP3   OH224932   4.075   6.439   2.160
 8323TIP3    H124933   4.057   6.527   2.193
 8323TIP3    H224934   4.124   6.454   2.079
 8324TIP3   OH224935   2.084   1.587   3.484
 8324TIP3    H124936   2.056   1.654   3.421
 8324TIP3    H224937   2.093   1.507   3.431
 8325TIP3   OH224938   5.499   5.225   3.330
 8325TIP3    H124939   5.415   5.182   3.344
 8325TIP3    H224940   5.494   5.259   3.240
 8326TIP3   OH224941   2.813   5.538   3.723
 8326TIP3    H124942   2.781   5.607   3.665
 8326TIP3    H224943   2.776   5.458   3.687
 8327TIP3   OH224944   4.028   0.240   1.786
 8327TIP3    H124945   4.048   0.286   1.867
 8327TIP3    H224946   3.944   0.276   1.758
 8328TIP3   OH224947   1.758   0.519   1.787
 8328TIP3    H124948   1.778   0.457   1.717
 8328TIP3    H224949   1.782   0.604   1.752
 8329TIP3   OH224950   6.190   1.626   1.927
 8329TIP3    H124951   6.175   1.670   1.844
 8329TIP3    H224952   6.123   1.661   1.986
 8330TIP3   OH224953   0.497   1.487   4.014
 8330TIP3    H124954   0.507   1.427   3.940
 8330TIP3    H224955   0.535   1.440   4.088
 8331TIP3   OH224956   1.356   6.102   1.413
 8331TIP3    H124957   1.443   6.092   1.374
 8331TIP3    H224958   1.300   6.127   1.339
 8332TIP3   OH224959   3.264   0.107   2.133
 8332TIP3    H124960   3.294   0.021   2.105
 8332TIP3    H224961   3.318   0.169   2.083
 8333TIP3   OH224962   1.649   4.508   0.014
 8333TIP3    H124963   1.650   4.497  -0.081
 8333TIP3    H224964   1.716   4.448   0.046
 8334TIP3   OH224965   5.026   2.024   3.147
 8334TIP3    H124966   4.990   1.966   3.081
 8334TIP3    H224967   5.046   1.966   3.221
 8335TIP3   OH224968   1.320   1.657   5.091
 8335TIP3    H124969   1.380   1.644   5.164
 8335TIP3    H224970   1.375   1.683   5.018
 8336TIP3   OH224971   0.629   3.533   4.599
 8336TIP3    H124972   0.587   3.610   4.561
 8336TIP3    H224973   0.582   3.458   4.561
 8337TIP3   OH224974   0.152   3.244   4.814
 8337TIP3    H124975   0.193   3.326   4.840
 8337TIP3    H224976   0.180   3.229   4.724
 8338TIP3   OH224977   1.485   5.129   5.712
 8338TIP3    H124978   1.541   5.197   5.672
 8338TIP3    H224979   1.493   5.054   5.653
 8339TIP3   OH224980   5.753   2.916   0.412
 8339TIP3    H124981   5.693   2.842   0.424
 8339TIP3    H224982   5.701   2.981   0.365
 8340TIP3   OH224983   0.246   1.824   5.805
 8340TIP3    H124984   0.187   1.775   5.747
 8340TIP3    H224985   0.289   1.756   5.857
 8341TIP3   OH224986   3.632   1.833   0.798
 8341TIP3    H124987   3.584   1.876   0.869
 8341TIP3    H224988   3.627   1.894   0.725
 8342TIP3   OH224989   0.734   2.614   5.377
 8342TIP3    H124990   0.811   2.604   5.322
 8342TIP3    H224991   0.730   2.708   5.396
 8343TIP3   OH224992   4.563   4.169   0.863
 8343TIP3    H124993   4.600   4.102   0.921
 8343TIP3    H224994   4.576   4.251   0.910
 8344TIP3   OH224995   2.200   1.104   5.046
 8344TIP3    H124996   2.190   1.096   4.951
 8344TIP3    H224997   2.156   1.186   5.068
 8345TIP3   OH224998   6.536   5.332   4.183
 8345TIP3    H124999   6.497   5.253   4.221
 8345TIP3    H225000   6.598   5.361   4.249
 8346TIP3   OH225001   4.683   0.155   4.941
 8346TIP3    H125002   4.686   0.124   4.851
 8346TIP3    H225003   4.775   0.172   4.964
 8347TIP3   OH225004   2.849   1.959   5.443
 8347TIP3    H125005   2.762   1.999   5.443
 8347TIP3    H225006   2.900   2.013   5.383
 8348TIP3   OH225007   0.330   2.658   4.952
 8348TIP3    H125008   0.291   2.727   4.898
 8348TIP3    H225009   0.417   2.690   4.974
 8349TIP3   OH225010   5.410   3.111   4.899
 8349TIP3    H125011   5.413   3.189   4.954
 8349TIP3    H225012   5.391   3.040   4.960
 8350TIP3   OH225013   4.506   1.305   2.746
 8350TIP3    H125014   4.490   1.242   2.675
 8350TIP3    H225015   4.589   1.346   2.722
 8351TIP3   OH225016   6.652   1.324   2.550
 8351TIP3    H125017   6.690   1.286   2.471
 8351TIP3    H225018   6.687   1.271   2.621
 8352TIP3   OH225019   2.608   3.219   0.398
 8352TIP3    H125020   2.543   3.247   0.334
 8352TIP3    H225021   2.583   3.263   0.479
 8353TIP3   OH225022   3.888   2.498   0.417
 8353TIP3    H125023   3.802   2.500   0.458
 8353TIP3    H225024   3.947   2.537   0.481
 8354TIP3   OH225025   7.088   4.594   4.462
 8354TIP3    H125026   7.164   4.651   4.454
 8354TIP3    H225027   7.121   4.515   4.506
 8355TIP3   OH225028   6.079   3.044   1.361
 8355TIP3    H125029   6.099   2.995   1.282
 8355TIP3    H225030   5.985   3.058   1.358
 8356TIP3   OH225031   5.335   5.020   1.644
 8356TIP3    H125032   5.271   5.018   1.715
 8356TIP3    H225033   5.402   5.082   1.673
 8357TIP3   OH225034   7.197   4.805   2.102
 8357TIP3    H125035   7.164   4.808   2.192
 8357TIP3    H225036   7.286   4.771   2.110
 8358TIP3   OH225037   4.120   1.979   3.965
 8358TIP3    H125038   4.195   1.938   3.923
 8358TIP3    H225039   4.047   1.919   3.948
 8359TIP3   OH225040   0.493   0.732   3.338
 8359TIP3    H125041   0.563   0.765   3.394
 8359TIP3    H225042   0.502   0.637   3.342
 8360TIP3   OH225043   6.631   0.916   3.568
 8360TIP3    H125044   6.596   0.868   3.643
 8360TIP3    H225045   6.722   0.887   3.562
 8361TIP3   OH225046   3.500   5.940   1.462
 8361TIP3    H125047   3.558   6.012   1.436
 8361TIP3    H225048   3.486   5.891   1.380
 8362TIP3   OH225049   5.278   6.731   4.770
 8362TIP3    H125050   5.239   6.656   4.815
 8362TIP3    H225051   5.354   6.753   4.824
 8363TIP3   OH225052   1.297   2.821   3.277
 8363TIP3    H125053   1.329   2.731   3.268
 8363TIP3    H225054   1.321   2.863   3.195
 8364TIP3   OH225055   5.826   5.047   4.893
 8364TIP3    H125056   5.915   5.037   4.927
 8364TIP3    H225057   5.823   5.137   4.862
 8365TIP3   OH225058   6.406   2.136   5.370
 8365TIP3    H125059   6.414   2.176   5.283
 8365TIP3    H225060   6.316   2.155   5.396
 8366TIP3   OH225061   0.560   4.523   0.991
 8366TIP3    H125062   0.538   4.592   0.929
 8366TIP3    H225063   0.542   4.441   0.945
 8367TIP3   OH225064   5.731   0.453   1.458
 8367TIP3    H125065   5.821   0.422   1.449
 8367TIP3    H225066   5.713   0.446   1.552
 8368TIP3   OH225067   0.340   4.676   1.132
 8368TIP3    H125068   0.349   4.752   1.074
 8368TIP3    H225069   0.418   4.623   1.114
 8369TIP3   OH225070   1.681   5.715   4.909
 8369TIP3    H125071   1.742   5.754   4.971
 8369TIP3    H225072   1.626   5.788   4.880
 8370TIP3   OH225073   4.433   0.117   0.470
 8370TIP3    H125074   4.413   0.080   0.383
 8370TIP3    H225075   4.458   0.041   0.523
 8371TIP3   OH225076   1.714   6.635   3.302
 8371TIP3    H125077   1.753   6.689   3.372
 8371TIP3    H225078   1.639   6.592   3.344
 8372TIP3   OH225079   2.536   0.067   3.889
 8372TIP3    H125080   2.523  -0.019   3.850
 8372TIP3    H225081   2.463   0.119   3.856
 8373TIP3   OH225082   5.007   2.070   4.530
 8373TIP3    H125083   5.017   1.985   4.487
 8373TIP3    H225084   4.965   2.126   4.464
 8374TIP3   OH225085   4.585   4.594   0.623
 8374TIP3    H125086   4.511   4.561   0.675
 8374TIP3    H225087   4.573   4.556   0.536
 8375TIP3   OH225088   0.534   4.650   0.446
 8375TIP3    H125089   0.472   4.700   0.392
 8375TIP3    H225090   0.607   4.711   0.461
 8376TIP3   OH225091   0.900   0.712   4.217
 8376TIP3    H125092   0.938   0.793   4.252
 8376TIP3    H225093   0.959   0.643   4.247
 8377TIP3   OH225094   2.630   6.317   4.165
 8377TIP3    H125095   2.656   6.229   4.136
 8377TIP3    H225096   2.535   6.320   4.150
 8378TIP3   OH225097   1.260   2.357   2.080
 8378TIP3    H125098   1.327   2.399   2.135
 8378TIP3    H225099   1.280   2.388   1.992
 8379TIP3   OH225100   5.602   1.002   2.881
 8379TIP3    H125101   5.526   1.049   2.915
 8379TIP3    H225102   5.671   1.067   2.877
 8380TIP3   OH225103   1.039   0.878   5.469
 8380TIP3    H125104   1.111   0.930   5.434
 8380TIP3    H225105   1.018   0.919   5.553
 8381TIP3   OH225106   4.148   6.096   3.925
 8381TIP3    H125107   4.139   6.191   3.913
 8381TIP3    H225108   4.239   6.084   3.950
 8382TIP3   OH225109   0.532   6.768   2.358
 8382TIP3    H125110   0.536   6.858   2.389
 8382TIP3    H225111   0.465   6.769   2.289
 8383TIP3   OH225112   0.225   3.257   2.309
 8383TIP3    H125113   0.173   3.178   2.325
 8383TIP3    H225114   0.293   3.256   2.377
 8384TIP3   OH225115   6.931   0.135   3.328
 8384TIP3    H125116   6.991   0.185   3.274
 8384TIP3    H225117   6.934   0.046   3.291
 8385TIP3   OH225118   2.059   1.792   3.058
 8385TIP3    H125119   2.075   1.768   2.967
 8385TIP3    H225120   2.122   1.741   3.108
 8386TIP3   OH225121   3.916   1.728   3.573
 8386TIP3    H125122   3.900   1.822   3.585
 8386TIP3    H225123   3.986   1.724   3.508
 8387TIP3   OH225124   6.669   6.604   3.755
 8387TIP3    H125125   6.657   6.596   3.660
 8387TIP3    H225126   6.676   6.513   3.786
 8388TIP3   OH225127   3.327   5.554   1.538
 8388TIP3    H125128   3.396   5.513   1.590
 8388TIP3    H225129   3.255   5.565   1.599
 8389TIP3   OH225130   1.525   6.592   5.185
 8389TIP3    H125131   1.442   6.585   5.140
 8389TIP3    H225132   1.573   6.513   5.161
 8390TIP3   OH225133   3.283   4.939   3.649
 8390TIP3    H125134   3.248   4.922   3.736
 8390TIP3    H225135   3.367   4.894   3.646
 8391TIP3   OH225136   0.619   0.639   4.294
 8391TIP3    H125137   0.702   0.684   4.281
 8391TIP3    H225138   0.574   0.646   4.211
 8392TIP3   OH225139   6.722   3.979   4.212
 8392TIP3    H125140   6.699   4.071   4.205
 8392TIP3    H225141   6.768   3.958   4.131
 8393TIP3   OH225142   3.771   2.800   5.495
 8393TIP3    H125143   3.781   2.847   5.578
 8393TIP3    H225144   3.822   2.851   5.432
 8394TIP3   OH225145   5.552   5.408   4.977
 8394TIP3    H125146   5.619   5.448   4.923
 8394TIP3    H225147   5.484   5.380   4.916
 8395TIP3   OH225148   3.505   2.603   3.741
 8395TIP3    H125149   3.548   2.686   3.762
 8395TIP3    H225150   3.575   2.547   3.708
 8396TIP3   OH225151   2.026   2.799   1.516
 8396TIP3    H125152   1.999   2.746   1.441
 8396TIP3    H225153   1.988   2.886   1.499
 8397TIP3   OH225154   5.431   2.443   3.926
 8397TIP3    H125155   5.485   2.373   3.962
 8397TIP3    H225156   5.399   2.491   4.003
 8398TIP3   OH225157   0.322   1.439   3.694
 8398TIP3    H125158   0.344   1.362   3.746
 8398TIP3    H225159   0.231   1.425   3.668
 8399TIP3   OH225160   1.483   0.619   5.642
 8399TIP3    H125161   1.427   0.693   5.616
 8399TIP3    H225162   1.530   0.595   5.562
 8400TIP3   OH225163   2.408   0.636   1.246
 8400TIP3    H125164   2.360   0.696   1.190
 8400TIP3    H225165   2.350   0.561   1.257
 8401TIP3   OH225166   6.062  -0.011   3.072
 8401TIP3    H125167   5.998  -0.045   3.134
 8401TIP3    H225168   6.012   0.043   3.011
 8402TIP3   OH225169   4.817   4.830   2.339
 8402TIP3    H125170   4.890   4.839   2.400
 8402TIP3    H225171   4.822   4.908   2.283
 8403TIP3   OH225172   2.383   4.649   0.409
 8403TIP3    H125173   2.470   4.610   0.401
 8403TIP3    H225174   2.390   4.733   0.364
 8404TIP3   OH225175   5.833   4.769   0.816
 8404TIP3    H125176   5.777   4.692   0.820
 8404TIP3    H225177   5.785   4.831   0.762
 8405TIP3   OH225178   1.154   1.195   3.518
 8405TIP3    H125179   1.243   1.187   3.484
 8405TIP3    H225180   1.165   1.224   3.609
 8406TIP3   OH225181   4.774   0.964   2.027
 8406TIP3    H125182   4.772   0.924   1.941
 8406TIP3    H225183   4.690   0.941   2.066
 8407TIP3   OH225184   0.085   2.438   4.618
 8407TIP3    H125185   0.029   2.442   4.696
 8407TIP3    H225186   0.025   2.452   4.545
 8408TIP3   OH225187   3.463   6.342   5.621
 8408TIP3    H125188   3.504   6.278   5.563
 8408TIP3    H225189   3.459   6.422   5.570
 8409TIP3   OH225190   5.226   4.494   0.746
 8409TIP3    H125191   5.272   4.474   0.664
 8409TIP3    H225192   5.158   4.557   0.721
 8410TIP3   OH225193   1.035   4.498   0.043
 8410TIP3    H125194   1.033   4.512   0.138
 8410TIP3    H225195   1.100   4.561   0.012
 8411TIP3   OH225196   3.341   1.343   3.572
 8411TIP3    H125197   3.263   1.380   3.530
 8411TIP3    H225198   3.413   1.363   3.512
 8412TIP3   OH225199   1.220   3.412   3.420
 8412TIP3    H125200   1.157   3.356   3.465
 8412TIP3    H225201   1.248   3.360   3.344
 8413TIP3   OH225202   0.089   3.439   0.744
 8413TIP3    H125203   0.139   3.415   0.822
 8413TIP3    H225204   0.101   3.365   0.684
 8414TIP3   OH225205   3.787   6.604   4.190
 8414TIP3    H125206   3.792   6.671   4.123
 8414TIP3    H225207   3.706   6.623   4.237
 8415TIP3   OH225208   4.958   3.636   2.175
 8415TIP3    H125209   4.971   3.649   2.081
 8415TIP3    H225210   4.911   3.714   2.203
 8416TIP3   OH225211   2.149   1.055   1.469
 8416TIP3    H125212   2.174   1.056   1.376
 8416TIP3    H225213   2.215   1.108   1.513
 8417TIP3   OH225214   3.921   4.190   4.580
 8417TIP3    H125215   3.844   4.137   4.604
 8417TIP3    H225216   3.884   4.273   4.551
 8418TIP3   OH225217   6.950   2.414   1.103
 8418TIP3    H125218   6.967   2.387   1.193
 8418TIP3    H225219   7.009   2.488   1.088
 8419TIP3   OH225220   2.665   0.062   4.140
 8419TIP3    H125221   2.644   0.063   4.047
 8419TIP3    H225222   2.638  -0.026   4.169
 8420TIP3   OH225223   2.647   2.790   1.888
 8420TIP3    H125224   2.714   2.721   1.893
 8420TIP3    H225225   2.640   2.809   1.795
 8421TIP3   OH225226   4.759   2.227   4.489
 8421TIP3    H125227   4.670   2.235   4.454
 8421TIP3    H225228   4.813   2.275   4.426
 8422TIP3   OH225229   2.923   3.047   2.645
 8422TIP3    H125230   2.850   3.037   2.706
 8422TIP3    H225231   2.968   3.126   2.674
 8423TIP3   OH225232   3.027   6.371   1.341
 8423TIP3    H125233   3.034   6.431   1.266
 8423TIP3    H225234   2.953   6.404   1.391
 8424TIP3   OH225235   5.310   6.106   0.446
 8424TIP3    H125236   5.355   6.094   0.362
 8424TIP3    H225237   5.267   6.022   0.462
 8425TIP3   OH225238   2.268   3.910   5.344
 8425TIP3    H125239   2.250   3.817   5.332
 8425TIP3    H225240   2.241   3.951   5.262
 8426TIP3   OH225241   2.056   2.778   1.118
 8426TIP3    H125242   2.039   2.850   1.179
 8426TIP3    H225243   1.990   2.712   1.140
 8427TIP3   OH225244   2.206   3.900   4.023
 8427TIP3    H125245   2.118   3.898   4.062
 8427TIP3    H225246   2.191   3.891   3.929
 8428TIP3   OH225247   6.635   5.415   1.757
 8428TIP3    H125248   6.676   5.330   1.770
 8428TIP3    H225249   6.552   5.409   1.802
 8429TIP3   OH225250   6.077   0.250   2.014
 8429TIP3    H125251   6.051   0.263   1.922
 8429TIP3    H225252   6.022   0.178   2.044
 8430TIP3   OH225253   3.150   5.854   0.822
 8430TIP3    H125254   3.160   5.892   0.735
 8430TIP3    H225255   3.191   5.768   0.816
 8431TIP3   OH225256   4.204   5.241   0.040
 8431TIP3    H125257   4.175   5.221  -0.049
 8431TIP3    H225258   4.197   5.336   0.046
 8432TIP3   OH225259   0.867   3.599   0.771
 8432TIP3    H125260   0.776   3.581   0.748
 8432TIP3    H225261   0.918   3.536   0.719
 8433TIP3   OH225262   0.156   0.168   1.738
 8433TIP3    H125263   0.185   0.196   1.651
 8433TIP3    H225264   0.236   0.168   1.791
 8434TIP3   OH225265   4.524   2.640   2.161
 8434TIP3    H125266   4.469   2.715   2.184
 8434TIP3    H225267   4.528   2.642   2.065
 8435TIP3   OH225268   0.465   0.277   2.976
 8435TIP3    H125269   0.387   0.270   3.031
 8435TIP3    H225270   0.532   0.229   3.024
 8436TIP3   OH225271   0.689   2.053   2.570
 8436TIP3    H125272   0.690   2.145   2.597
 8436TIP3    H225273   0.743   2.009   2.636
 8437TIP3   OH225274   1.579   5.334   5.264
 8437TIP3    H125275   1.489   5.367   5.270
 8437TIP3    H225276   1.572   5.256   5.209
 8438TIP3   OH225277   1.473   5.774   3.891
 8438TIP3    H125278   1.424   5.802   3.968
 8438TIP3    H225279   1.436   5.825   3.819
 8439TIP3   OH225280   4.281   2.007   0.554
 8439TIP3    H125281   4.260   2.018   0.646
 8439TIP3    H225282   4.328   2.087   0.530
 8440TIP3   OH225283   0.898   5.773   4.453
 8440TIP3    H125284   0.968   5.758   4.390
 8440TIP3    H225285   0.942   5.807   4.531
 8441TIP3   OH225286   1.934   3.459  -0.026
 8441TIP3    H125287   1.978   3.544  -0.033
 8441TIP3    H225288   1.937   3.438   0.068
 8442TIP3   OH225289   2.238   1.712   0.262
 8442TIP3    H125290   2.322   1.752   0.243
 8442TIP3    H225291   2.195   1.705   0.176
 8443TIP3   OH225292   6.396   4.376   2.351
 8443TIP3    H125293   6.489   4.364   2.332
 8443TIP3    H225294   6.393   4.450   2.412
 8444TIP3   OH225295   5.239   5.621   0.943
 8444TIP3    H125296   5.334   5.631   0.948
 8444TIP3    H225297   5.219   5.626   0.849
 8445TIP3   OH225298   1.736   5.059   2.484
 8445TIP3    H125299   1.710   5.146   2.455
 8445TIP3    H225300   1.703   5.000   2.415
 8446TIP3   OH225301   2.291   6.123   3.489
 8446TIP3    H125302   2.203   6.092   3.511
 8446TIP3    H225303   2.278   6.210   3.452
 8447TIP3   OH225304   3.796   1.316   5.383
 8447TIP3    H125305   3.871   1.257   5.375
 8447TIP3    H225306   3.815   1.388   5.322
 8448TIP3   OH225307   4.106   3.323   4.457
 8448TIP3    H125308   4.199   3.305   4.444
 8448TIP3    H225309   4.094   3.319   4.552
 8449TIP3   OH225310   4.397   0.998   0.626
 8449TIP3    H125311   4.311   0.959   0.609
 8449TIP3    H225312   4.378   1.091   0.637
 8450TIP3   OH225313   0.943   1.194   4.752
 8450TIP3    H125314   0.948   1.178   4.658
 8450TIP3    H225315   0.946   1.289   4.761
 8451TIP3   OH225316   0.161   5.470   1.756
 8451TIP3    H125317   0.237   5.517   1.722
 8451TIP3    H225318   0.118   5.533   1.814
 8452TIP3   OH225319   6.193   0.592   3.418
 8452TIP3    H125320   6.188   0.586   3.322
 8452TIP3    H225321   6.222   0.505   3.446
 8453TIP3   OH225322   6.123   6.443   1.938
 8453TIP3    H125323   6.119   6.396   1.855
 8453TIP3    H225324   6.072   6.523   1.922
 8454TIP3   OH225325   1.003   3.653   4.432
 8454TIP3    H125326   1.063   3.694   4.495
 8454TIP3    H225327   0.977   3.571   4.474
 8455TIP3   OH225328   3.557   5.980   0.045
 8455TIP3    H125329   3.565   6.075   0.048
 8455TIP3    H225330   3.463   5.963   0.045
 8456TIP3   OH225331   4.999   1.574   5.396
 8456TIP3    H125332   4.973   1.633   5.466
 8456TIP3    H225333   4.966   1.615   5.316
 8457TIP3   OH225334   4.373   2.866   5.263
 8457TIP3    H125335   4.281   2.846   5.278
 8457TIP3    H225336   4.375   2.960   5.246
 8458TIP3   OH225337   5.933   4.953   1.025
 8458TIP3    H125338   5.931   4.883   0.960
 8458TIP3    H225339   5.841   4.979   1.035
 8459TIP3   OH225340   2.116   1.582   3.763
 8459TIP3    H125341   2.038   1.536   3.794
 8459TIP3    H225342   2.097   1.604   3.672
 8460TIP3   OH225343   4.975   2.090   2.046
 8460TIP3    H125344   4.953   2.151   2.116
 8460TIP3    H225345   5.003   2.146   1.973
 8461TIP3   OH225346   2.197   4.681   3.704
 8461TIP3    H125347   2.118   4.685   3.651
 8461TIP3    H225348   2.178   4.616   3.771
 8462TIP3   OH225349   3.023   2.850   4.690
 8462TIP3    H125350   3.052   2.911   4.622
 8462TIP3    H225351   3.041   2.763   4.653
 8463TIP3   OH225352   4.209   0.176   3.111
 8463TIP3    H125353   4.171   0.188   3.198
 8463TIP3    H225354   4.282   0.115   3.125
 8464TIP3   OH225355   3.480   1.528   4.711
 8464TIP3    H125356   3.541   1.459   4.685
 8464TIP3    H225357   3.445   1.562   4.629
 8465TIP3   OH225358   1.430   3.809   5.713
 8465TIP3    H125359   1.502   3.792   5.773
 8465TIP3    H225360   1.352   3.776   5.757
 8466TIP3   OH225361   0.642   1.479   0.259
 8466TIP3    H125362   0.549   1.488   0.237
 8466TIP3    H225363   0.682   1.561   0.232
 8467TIP3   OH225364   5.293   2.367   1.372
 8467TIP3    H125365   5.220   2.378   1.432
 8467TIP3    H225366   5.308   2.272   1.370
 8468TIP3   OH225367   3.089   5.487   3.851
 8468TIP3    H125368   3.105   5.579   3.830
 8468TIP3    H225369   3.003   5.468   3.813
 8469TIP3   OH225370   2.583   3.562   2.276
 8469TIP3    H125371   2.498   3.532   2.244
 8469TIP3    H225372   2.633   3.582   2.196
 8470TIP3   OH225373   1.229   3.415   4.996
 8470TIP3    H125374   1.191   3.490   4.949
 8470TIP3    H225375   1.164   3.394   5.063
 8471TIP3   OH225376   3.830   3.656   5.700
 8471TIP3    H125377   3.833   3.562   5.712
 8471TIP3    H225378   3.918   3.687   5.720
 8472TIP3   OH225379   3.215   1.187   0.359
 8472TIP3    H125380   3.183   1.276   0.373
 8472TIP3    H225381   3.241   1.157   0.447
 8473TIP3   OH225382   6.686   1.398   4.541
 8473TIP3    H125383   6.742   1.414   4.617
 8473TIP3    H225384   6.711   1.466   4.478
 8474TIP3   OH225385   6.165   5.299   1.467
 8474TIP3    H125386   6.145   5.215   1.425
 8474TIP3    H225387   6.229   5.277   1.535
 8475TIP3   OH225388   0.296   4.142   4.541
 8475TIP3    H125389   0.293   4.238   4.540
 8475TIP3    H225390   0.385   4.121   4.568
 8476TIP3   OH225391   2.862   6.373   5.725
 8476TIP3    H125392   2.820   6.289   5.703
 8476TIP3    H225393   2.945   6.371   5.677
 8477TIP3   OH225394   4.359   0.883   2.464
 8477TIP3    H125395   4.393   0.938   2.394
 8477TIP3    H225396   4.421   0.811   2.472
 8478TIP3   OH225397   5.385   0.222   2.451
 8478TIP3    H125398   5.309   0.253   2.500
 8478TIP3    H225399   5.382   0.272   2.369
 8479TIP3   OH225400   6.611   5.862   0.751
 8479TIP3    H125401   6.576   5.832   0.667
 8479TIP3    H225402   6.575   5.800   0.815
 8480TIP3   OH225403   4.522   5.195   3.816
 8480TIP3    H125404   4.446   5.141   3.835
 8480TIP3    H225405   4.596   5.148   3.856
 8481TIP3   OH225406   3.901   3.671   2.022
 8481TIP3    H125407   3.853   3.589   2.027
 8481TIP3    H225408   3.972   3.662   2.087
 8482TIP3   OH225409   5.761   1.915   0.104
 8482TIP3    H125410   5.685   1.871   0.068
 8482TIP3    H225411   5.836   1.878   0.057
 8483TIP3   OH225412   5.461   6.172   4.738
 8483TIP3    H125413   5.532   6.230   4.709
 8483TIP3    H225414   5.386   6.230   4.751
 8484TIP3   OH225415   1.611   5.352   2.001
 8484TIP3    H125416   1.662   5.341   2.081
 8484TIP3    H225417   1.549   5.278   2.002
 8485TIP3   OH225418   5.516   4.526   1.825
 8485TIP3    H125419   5.600   4.482   1.811
 8485TIP3    H225420   5.507   4.584   1.749
 8486TIP3   OH225421   4.467   4.937   5.854
 8486TIP3    H125422   4.393   4.882   5.829
 8486TIP3    H225423   4.540   4.876   5.864
 8487TIP3   OH225424   0.918   0.545   0.523
 8487TIP3    H125425   0.972   0.509   0.593
 8487TIP3    H225426   0.909   0.473   0.461
 8488TIP3   OH225427   1.885   3.830   5.608
 8488TIP3    H125428   1.936   3.850   5.686
 8488TIP3    H225429   1.794   3.836   5.637
 8489TIP3   OH225430   0.411   4.224   2.101
 8489TIP3    H125431   0.334   4.275   2.127
 8489TIP3    H225432   0.406   4.220   2.005
 8490TIP3   OH225433   0.364   1.275   4.975
 8490TIP3    H125434   0.353   1.353   4.921
 8490TIP3    H225435   0.324   1.298   5.059
 8491TIP3   OH225436   0.940   1.855   1.723
 8491TIP3    H125437   1.035   1.863   1.716
 8491TIP3    H225438   0.906   1.912   1.654
 8492TIP3   OH225439   1.045   4.765  -0.054
 8492TIP3    H125440   0.971   4.799  -0.004
 8492TIP3    H225441   1.122   4.791  -0.003
 8493TIP3   OH225442   3.364   6.537   3.512
 8493TIP3    H125443   3.351   6.482   3.435
 8493TIP3    H225444   3.327   6.622   3.487
 8494TIP3   OH225445   6.942   0.948   5.118
 8494TIP3    H125446   6.939   1.041   5.138
 8494TIP3    H225447   6.987   0.909   5.193
 8495TIP3   OH225448   7.137   1.331   2.880
 8495TIP3    H125449   7.194   1.257   2.902
 8495TIP3    H225450   7.185   1.380   2.813
 8496TIP3   OH225451   0.874   1.983   5.577
 8496TIP3    H125452   0.902   2.057   5.631
 8496TIP3    H225453   0.789   2.009   5.542
 8497TIP3   OH225454   2.496   1.571   4.412
 8497TIP3    H125455   2.437   1.605   4.346
 8497TIP3    H225456   2.462   1.604   4.495
 8498TIP3   OH225457   4.128   1.656   5.047
 8498TIP3    H125458   4.105   1.589   5.112
 8498TIP3    H225459   4.044   1.682   5.009
 8499TIP3   OH225460   0.726   6.563   2.217
 8499TIP3    H125461   0.656   6.629   2.209
 8499TIP3    H225462   0.792   6.606   2.272
 8500TIP3   OH225463   0.507   2.937   4.177
 8500TIP3    H125464   0.532   2.985   4.098
 8500TIP3    H225465   0.590   2.920   4.222
 8501TIP3   OH225466   5.435   5.143   0.253
 8501TIP3    H125467   5.502   5.122   0.319
 8501TIP3    H225468   5.481   5.138   0.170
 8502TIP3   OH225469   3.854   2.429   0.819
 8502TIP3    H125470   3.789   2.424   0.890
 8502TIP3    H225471   3.923   2.485   0.854
 8503TIP3   OH225472   4.552   5.978   3.896
 8503TIP3    H125473   4.641   5.943   3.900
 8503TIP3    H225474   4.533   6.004   3.986
 8504TIP3   OH225475   6.312   2.666   0.092
 8504TIP3    H125476   6.388   2.710   0.054
 8504TIP3    H225477   6.330   2.572   0.081
 8505TIP3   OH225478   3.098   6.029   3.322
 8505TIP3    H125479   3.193   6.020   3.325
 8505TIP3    H225480   3.084   6.117   3.286
 8506TIP3   OH225481   4.886   2.654   2.614
 8506TIP3    H125482   4.961   2.632   2.670
 8506TIP3    H225483   4.822   2.586   2.633
 8507TIP3   OH225484   3.611   5.504   2.864
 8507TIP3    H125485   3.702   5.533   2.874
 8507TIP3    H225486   3.615   5.435   2.797
 8508TIP3   OH225487   2.302   2.514   2.009
 8508TIP3    H125488   2.219   2.471   1.986
 8508TIP3    H225489   2.354   2.511   1.929
 8509TIP3   OH225490   4.526   0.700   0.753
 8509TIP3    H125491   4.567   0.629   0.803
 8509TIP3    H225492   4.516   0.771   0.817
 8510TIP3   OH225493   5.652   1.149   2.048
 8510TIP3    H125494   5.608   1.227   2.015
 8510TIP3    H225495   5.671   1.097   1.969
 8511TIP3   OH225496   3.237   5.660   1.314
 8511TIP3    H125497   3.143   5.644   1.314
 8511TIP3    H225498   3.269   5.616   1.393
 8512TIP3   OH225499   3.210   6.034   1.534
 8512TIP3    H125500   3.189   6.120   1.497
 8512TIP3    H225501   3.304   6.025   1.523
 8513TIP3   OH225502   3.811   1.845   1.137
 8513TIP3    H125503   3.819   1.852   1.042
 8513TIP3    H225504   3.844   1.928   1.170
 8514TIP3   OH225505   4.947   6.551   3.058
 8514TIP3    H125506   5.000   6.630   3.056
 8514TIP3    H225507   4.896   6.554   2.976
 8515TIP3   OH225508   0.866   5.134   5.574
 8515TIP3    H125509   0.808   5.197   5.616
 8515TIP3    H225510   0.900   5.181   5.497
 8516TIP3   OH225511   4.442   3.896   4.769
 8516TIP3    H125512   4.505   3.968   4.773
 8516TIP3    H225513   4.494   3.821   4.741
 8517TIP3   OH225514   6.382   6.581   4.181
 8517TIP3    H125515   6.414   6.657   4.133
 8517TIP3    H225516   6.325   6.618   4.249
 8518TIP3   OH225517   3.064   4.238   2.774
 8518TIP3    H125518   3.008   4.289   2.833
 8518TIP3    H225519   3.128   4.302   2.741
 8519TIP3   OH225520   0.849   0.979   3.844
 8519TIP3    H125521   0.875   0.899   3.799
 8519TIP3    H225522   0.931   1.017   3.875
 8520TIP3   OH225523   2.338   0.738   0.970
 8520TIP3    H125524   2.429   0.767   0.980
 8520TIP3    H225525   2.296   0.808   0.921
 8521TIP3   OH225526   5.729   4.367   1.835
 8521TIP3    H125527   5.754   4.351   1.926
 8521TIP3    H225528   5.799   4.420   1.799
 8522TIP3   OH225529   2.093   1.242   2.500
 8522TIP3    H125530   2.118   1.160   2.541
 8522TIP3    H225531   2.174   1.276   2.463
 8523TIP3   OH225532   1.564   4.854   2.911
 8523TIP3    H125533   1.567   4.922   2.844
 8523TIP3    H225534   1.472   4.849   2.937
 8524TIP3   OH225535   4.681   4.765   5.860
 8524TIP3    H125536   4.700   4.706   5.787
 8524TIP3    H225537   4.682   4.708   5.937
 8525TIP3   OH225538   2.824   2.858   4.131
 8525TIP3    H125539   2.789   2.780   4.087
 8525TIP3    H225540   2.786   2.931   4.083
 8526TIP3   OH225541   5.780   3.407   1.731
 8526TIP3    H125542   5.712   3.446   1.786
 8526TIP3    H225543   5.861   3.445   1.764
 8527TIP3   OH225544   5.127   4.428   4.339
 8527TIP3    H125545   5.154   4.426   4.247
 8527TIP3    H225546   5.127   4.521   4.362
 8528TIP3   OH225547   5.819   2.168   2.238
 8528TIP3    H125548   5.804   2.231   2.167
 8528TIP3    H225549   5.810   2.082   2.196
 8529TIP3   OH225550   4.781   5.052   5.145
 8529TIP3    H125551   4.747   4.984   5.202
 8529TIP3    H225552   4.805   5.007   5.064
 8530TIP3   OH225553   3.667   1.310   4.684
 8530TIP3    H125554   3.676   1.244   4.753
 8530TIP3    H225555   3.646   1.260   4.605
 8531TIP3   OH225556   5.716   2.303   1.466
 8531TIP3    H125557   5.791   2.266   1.420
 8531TIP3    H225558   5.656   2.229   1.479
 8532TIP3   OH225559   4.021   0.568   1.637
 8532TIP3    H125560   4.061   0.580   1.723
 8532TIP3    H225561   3.952   0.503   1.651
 8533TIP3   OH225562   4.075   2.233   0.576
 8533TIP3    H125563   4.027   2.284   0.511
 8533TIP3    H225564   4.093   2.149   0.532
 8534TIP3   OH225565   4.786   6.054   1.367
 8534TIP3    H125566   4.788   6.060   1.272
 8534TIP3    H225567   4.843   6.125   1.397
 8535TIP3   OH225568   3.093   3.863   4.075
 8535TIP3    H125569   3.068   3.813   3.997
 8535TIP3    H225570   3.155   3.807   4.121
 8536TIP3   OH225571   1.332   0.206   1.048
 8536TIP3    H125572   1.424   0.200   1.072
 8536TIP3    H225573   1.286   0.217   1.131
 8537TIP3   OH225574   7.215   5.350   2.768
 8537TIP3    H125575   7.197   5.260   2.794
 8537TIP3    H225576   7.206   5.401   2.848
 8538TIP3   OH225577   6.286   2.585   1.185
 8538TIP3    H125578   6.377   2.588   1.155
 8538TIP3    H225579   6.282   2.654   1.252
 8539TIP3   OH225580   4.813   6.650   5.480
 8539TIP3    H125581   4.887   6.590   5.476
 8539TIP3    H225582   4.814   6.695   5.396
 8540TIP3   OH225583   2.232   6.484   0.265
 8540TIP3    H125584   2.267   6.558   0.316
 8540TIP3    H225585   2.273   6.492   0.180
 8541TIP3   OH225586   2.211   1.062   4.172
 8541TIP3    H125587   2.293   1.048   4.124
 8541TIP3    H225588   2.226   1.019   4.256
 8542TIP3   OH225589   4.608   1.385   3.069
 8542TIP3    H125590   4.656   1.305   3.050
 8542TIP3    H225591   4.665   1.456   3.038
 8543TIP3   OH225592   2.543   5.184   0.615
 8543TIP3    H125593   2.571   5.208   0.526
 8543TIP3    H225594   2.469   5.125   0.601
 8544TIP3   OH225595   1.735   2.528   1.802
 8544TIP3    H125596   1.743   2.438   1.770
 8544TIP3    H225597   1.825   2.560   1.803
 8545TIP3   OH225598   6.128   4.535   3.812
 8545TIP3    H125599   6.137   4.580   3.728
 8545TIP3    H225600   6.183   4.457   3.803
 8546TIP3   OH225601   6.135   5.695   2.355
 8546TIP3    H125602   6.185   5.773   2.375
 8546TIP3    H225603   6.044   5.721   2.367
 8547TIP3   OH225604   3.555   0.549   3.356
 8547TIP3    H125605   3.506   0.574   3.435
 8547TIP3    H225606   3.552   0.627   3.301
 8548TIP3   OH225607   5.488   5.961   4.561
 8548TIP3    H125608   5.438   6.031   4.603
 8548TIP3    H225609   5.471   5.971   4.468
 8549TIP3   OH225610   1.974   2.449   1.030
 8549TIP3    H125611   1.890   2.494   1.044
 8549TIP3    H225612   1.998   2.472   0.940
 8550TIP3   OH225613   1.969   6.747   3.170
 8550TIP3    H125614   2.059   6.716   3.186
 8550TIP3    H225615   1.915   6.691   3.226
 8551TIP3   OH225616   5.419   4.486   5.485
 8551TIP3    H125617   5.407   4.522   5.397
 8551TIP3    H225618   5.471   4.552   5.531
 8552TIP3   OH225619   1.380   4.368   3.722
 8552TIP3    H125620   1.447   4.358   3.655
 8552TIP3    H225621   1.373   4.282   3.763
 8553TIP3   OH225622   6.138   2.982   1.961
 8553TIP3    H125623   6.087   3.063   1.960
 8553TIP3    H225624   6.193   2.987   1.882
 8554TIP3   OH225625   1.445   3.058   1.062
 8554TIP3    H125626   1.453   3.022   0.974
 8554TIP3    H225627   1.517   3.017   1.111
 8555TIP3   OH225628   5.989   2.578   4.931
 8555TIP3    H125629   5.991   2.669   4.901
 8555TIP3    H225630   6.017   2.582   5.022
 8556TIP3   OH225631   2.931   5.118   4.820
 8556TIP3    H125632   2.916   5.092   4.729
 8556TIP3    H225633   2.918   5.212   4.820
 8557TIP3   OH225634   1.547   0.154   2.729
 8557TIP3    H125635   1.489   0.193   2.664
 8557TIP3    H225636   1.541   0.060   2.714
 8558TIP3   OH225637   4.927   6.491   1.186
 8558TIP3    H125638   4.973   6.430   1.129
 8558TIP3    H225639   4.981   6.496   1.265
 8559TIP3   OH225640   5.064   1.363   3.891
 8559TIP3    H125641   4.985   1.417   3.883
 8559TIP3    H225642   5.040   1.279   3.851
 8560TIP3   OH225643   5.903   0.268   0.660
 8560TIP3    H125644   5.888   0.304   0.747
 8560TIP3    H225645   5.816   0.263   0.621
 8561TIP3   OH225646   6.206   2.572   4.677
 8561TIP3    H125647   6.215   2.664   4.654
 8561TIP3    H225648   6.177   2.530   4.597
 8562TIP3   OH225649   4.761   4.351   2.988
 8562TIP3    H125650   4.720   4.265   2.983
 8562TIP3    H225651   4.838   4.338   3.043
 8563TIP3   OH225652   6.748   3.805   3.625
 8563TIP3    H125653   6.818   3.806   3.690
 8563TIP3    H225654   6.699   3.885   3.642
 8564TIP3   OH225655   5.726   5.486   1.996
 8564TIP3    H125656   5.697   5.405   1.953
 8564TIP3    H225657   5.693   5.556   1.941
 8565TIP3   OH225658   3.783   2.545   5.369
 8565TIP3    H125659   3.804   2.632   5.403
 8565TIP3    H225660   3.688   2.541   5.370
 8566TIP3   OH225661   5.874   3.092   3.786
 8566TIP3    H125662   5.824   3.017   3.818
 8566TIP3    H225663   5.847   3.165   3.841
 8567TIP3   OH225664   5.597   1.827   2.439
 8567TIP3    H125665   5.636   1.741   2.456
 8567TIP3    H225666   5.521   1.830   2.497
 8568TIP3   OH225667   4.658   3.351   1.693
 8568TIP3    H125668   4.744   3.331   1.656
 8568TIP3    H225669   4.650   3.447   1.684
 8569TIP3   OH225670   1.023   5.818   3.190
 8569TIP3    H125671   1.101   5.802   3.137
 8569TIP3    H225672   0.982   5.732   3.199
 8570TIP3   OH225673   4.896   5.998   4.838
 8570TIP3    H125674   4.909   6.081   4.885
 8570TIP3    H225675   4.974   5.990   4.782
 8571TIP3   OH225676   5.845   2.753   3.625
 8571TIP3    H125677   5.764   2.801   3.609
 8571TIP3    H225678   5.882   2.792   3.705
 8572TIP3   OH225679   4.462   5.585   1.216
 8572TIP3    H125680   4.493   5.667   1.254
 8572TIP3    H225681   4.398   5.611   1.150
 8573TIP3   OH225682   6.413   5.285   1.178
 8573TIP3    H125683   6.385   5.345   1.109
 8573TIP3    H225684   6.409   5.337   1.258
 8574TIP3   OH225685   6.601   6.688   1.997
 8574TIP3    H125686   6.527   6.628   2.010
 8574TIP3    H225687   6.628   6.711   2.086
 8575TIP3   OH225688   3.608   0.653   5.703
 8575TIP3    H125689   3.619   0.638   5.609
 8575TIP3    H225690   3.605   0.565   5.740
 8576TIP3   OH225691   5.292   0.260   1.151
 8576TIP3    H125692   5.308   0.337   1.205
 8576TIP3    H225693   5.208   0.277   1.109
 8577TIP3   OH225694   5.074   1.902   0.969
 8577TIP3    H125695   5.030   1.977   0.930
 8577TIP3    H225696   5.094   1.930   1.059
 8578TIP3   OH225697   0.975   3.453   2.838
 8578TIP3    H125698   0.971   3.360   2.858
 8578TIP3    H225699   0.902   3.468   2.778
 8579TIP3   OH225700   6.919   3.544   3.788
 8579TIP3    H125701   6.912   3.493   3.707
 8579TIP3    H225702   6.952   3.629   3.759
 8580TIP3   OH225703   1.371   1.395   1.904
 8580TIP3    H125704   1.402   1.478   1.941
 8580TIP3    H225705   1.410   1.392   1.817
 8581TIP3   OH225706   0.260   3.689   4.647
 8581TIP3    H125707   0.181   3.691   4.593
 8581TIP3    H225708   0.332   3.689   4.585
 8582TIP3   OH225709   6.134   4.740   5.095
 8582TIP3    H125710   6.189   4.719   5.019
 8582TIP3    H225711   6.147   4.667   5.155
 8583TIP3   OH225712   2.419   5.760   1.157
 8583TIP3    H125713   2.370   5.734   1.078
 8583TIP3    H225714   2.479   5.687   1.173
 8584TIP3   OH225715   5.876   5.548   5.717
 8584TIP3    H125716   5.963   5.536   5.679
 8584TIP3    H225717   5.821   5.483   5.672
 8585TIP3   OH225718   3.423   2.748   3.168
 8585TIP3    H125719   3.382   2.810   3.228
 8585TIP3    H225720   3.414   2.663   3.211
 8586TIP3   OH225721   2.880   5.948   3.931
 8586TIP3    H125722   2.803   5.940   3.875
 8586TIP3    H225723   2.888   5.864   3.975
 8587TIP3   OH225724   2.471   1.056   0.712
 8587TIP3    H125725   2.406   1.103   0.660
 8587TIP3    H225726   2.427   1.035   0.794
 8588TIP3   OH225727   3.534   6.479   5.917
 8588TIP3    H125728   3.562   6.397   5.877
 8588TIP3    H225729   3.459   6.507   5.864
 8589TIP3   OH225730   2.527   0.686   5.346
 8589TIP3    H125731   2.530   0.780   5.327
 8589TIP3    H225732   2.615   0.665   5.376
 8590TIP3   OH225733   4.012   2.431   0.124
 8590TIP3    H125734   4.090   2.379   0.143
 8590TIP3    H225735   4.022   2.510   0.177
 8591TIP3   OH225736   4.131   2.344   0.862
 8591TIP3    H125737   4.203   2.281   0.872
 8591TIP3    H225738   4.090   2.321   0.779
 8592TIP3   OH225739   4.925   3.911   5.007
 8592TIP3    H125740   4.978   3.885   5.083
 8592TIP3    H225741   4.983   3.965   4.954
 8593TIP3   OH225742   4.728   1.329   2.445
 8593TIP3    H125743   4.773   1.400   2.399
 8593TIP3    H225744   4.771   1.249   2.415
 8594TIP3   OH225745   2.346   0.035   4.794
 8594TIP3    H125746   2.404   0.111   4.804
 8594TIP3    H225747   2.405  -0.037   4.770
 8595TIP3   OH225748   5.324   2.303   4.469
 8595TIP3    H125749   5.276   2.319   4.550
 8595TIP3    H225750   5.324   2.208   4.459
 8596TIP3   OH225751   3.321   5.641   2.341
 8596TIP3    H125752   3.388   5.604   2.397
 8596TIP3    H225753   3.370   5.678   2.267
 8597TIP3   OH225754   1.222   4.184   4.457
 8597TIP3    H125755   1.250   4.265   4.415
 8597TIP3    H225756   1.297   4.125   4.448
 8598TIP3   OH225757   2.799   2.181   5.156
 8598TIP3    H125758   2.873   2.168   5.216
 8598TIP3    H225759   2.835   2.159   5.070
 8599TIP3   OH225760   4.095   6.026   3.650
 8599TIP3    H125761   4.076   6.044   3.742
 8599TIP3    H225762   4.152   5.949   3.652
 8600TIP3   OH225763   6.398   6.440   1.693
 8600TIP3    H125764   6.381   6.507   1.627
 8600TIP3    H225765   6.452   6.485   1.758
 8601TIP3   OH225766   6.022   3.987   3.899
 8601TIP3    H125767   5.952   4.045   3.929
 8601TIP3    H225768   5.981   3.933   3.832
 8602TIP3   OH225769   3.510   6.273   2.851
 8602TIP3    H125770   3.487   6.268   2.758
 8602TIP3    H225771   3.563   6.196   2.867
 8603TIP3   OH225772   3.949   4.768   1.651
 8603TIP3    H125773   3.948   4.860   1.624
 8603TIP3    H225774   3.964   4.720   1.569
 8604TIP3   OH225775   6.377   6.316   0.076
 8604TIP3    H125776   6.356   6.233   0.119
 8604TIP3    H225777   6.337   6.309  -0.011
 8605TIP3   OH225778   1.046   6.736   1.435
 8605TIP3    H125779   1.012   6.819   1.401
 8605TIP3    H225780   0.968   6.682   1.448
 8606TIP3   OH225781   2.815   4.877   3.363
 8606TIP3    H125782   2.764   4.797   3.354
 8606TIP3    H225783   2.885   4.868   3.298
 8607TIP3   OH225784   0.155   4.359   2.122
 8607TIP3    H125785   0.097   4.377   2.196
 8607TIP3    H225786   0.128   4.273   2.090
 8608TIP3   OH225787   2.085   5.934   4.425
 8608TIP3    H125788   2.064   5.965   4.513
 8608TIP3    H225789   2.171   5.971   4.407
 8609TIP3   OH225790   5.229   0.907   0.464
 8609TIP3    H125791   5.282   0.875   0.392
 8609TIP3    H225792   5.250   0.848   0.537
 8610TIP3   OH225793   4.407   0.624   1.075
 8610TIP3    H125794   4.347   0.667   1.014
 8610TIP3    H225795   4.474   0.584   1.020
 8611TIP3   OH225796   2.261   0.838   3.063
 8611TIP3    H125797   2.218   0.754   3.049
 8611TIP3    H225798   2.232   0.866   3.150
 8612TIP3   OH225799   4.432   2.418   1.162
 8612TIP3    H125800   4.470   2.376   1.084
 8612TIP3    H225801   4.459   2.510   1.155
 8613TIP3   OH225802   6.667   6.084   0.436
 8613TIP3    H125803   6.748   6.033   0.427
 8613TIP3    H225804   6.693   6.162   0.484
 8614TIP3   OH225805   6.117   5.322   0.041
 8614TIP3    H125806   6.122   5.357  -0.048
 8614TIP3    H225807   6.159   5.389   0.095
 8615TIP3   OH225808   2.245   5.554   0.015
 8615TIP3    H125809   2.338   5.552   0.037
 8615TIP3    H225810   2.219   5.645   0.030
 8616TIP3   OH225811   6.547   3.886   4.703
 8616TIP3    H125812   6.613   3.854   4.642
 8616TIP3    H225813   6.490   3.941   4.650
 8617TIP3   OH225814   6.194   6.318   2.170
 8617TIP3    H125815   6.217   6.363   2.089
 8617TIP3    H225816   6.099   6.304   2.164
 8618TIP3   OH225817   6.648   6.470   0.650
 8618TIP3    H125818   6.712   6.540   0.658
 8618TIP3    H225819   6.677   6.419   0.574
 8619TIP3   OH225820   4.126   3.066   1.660
 8619TIP3    H125821   4.043   3.048   1.704
 8619TIP3    H225822   4.178   3.114   1.725
 8620TIP3   OH225823   4.551   3.851   4.052
 8620TIP3    H125824   4.517   3.879   4.137
 8620TIP3    H225825   4.645   3.868   4.057
 8621TIP3   OH225826   2.015   5.550   5.022
 8621TIP3    H125827   1.956   5.625   5.037
 8621TIP3    H225828   1.965   5.474   5.053
 8622TIP3   OH225829   6.191   4.624   1.156
 8622TIP3    H125830   6.169   4.538   1.120
 8622TIP3    H225831   6.112   4.652   1.202
 8623TIP3   OH225832   6.699   2.451   5.171
 8623TIP3    H125833   6.752   2.469   5.093
 8623TIP3    H225834   6.751   2.484   5.244
 8624TIP3   OH225835   2.682   2.486   2.921
 8624TIP3    H125836   2.704   2.578   2.915
 8624TIP3    H225837   2.756   2.441   2.880
 8625TIP3   OH225838   4.696   3.068   5.451
 8625TIP3    H125839   4.721   3.144   5.397
 8625TIP3    H225840   4.601   3.062   5.441
 8626TIP3   OH225841   4.670   3.857   0.851
 8626TIP3    H125842   4.694   3.777   0.805
 8626TIP3    H225843   4.685   3.837   0.944
 8627TIP3   OH225844   5.646   4.034   3.447
 8627TIP3    H125845   5.741   4.047   3.440
 8627TIP3    H225846   5.634   3.940   3.438
 8628TIP3   OH225847   2.803   5.982   0.102
 8628TIP3    H125848   2.776   5.904   0.053
 8628TIP3    H225849   2.843   6.039   0.036
 8629TIP3   OH225850   6.091   2.758   3.065
 8629TIP3    H125851   6.034   2.811   3.010
 8629TIP3    H225852   6.082   2.797   3.152
 8630TIP3   OH225853   2.887   3.967   4.219
 8630TIP3    H125854   2.849   4.024   4.152
 8630TIP3    H225855   2.947   3.911   4.171
 8631TIP3   OH225856   3.179   2.232   3.295
 8631TIP3    H125857   3.163   2.324   3.278
 8631TIP3    H225858   3.118   2.186   3.237
 8632TIP3   OH225859   1.853   0.617   5.232
 8632TIP3    H125860   1.766   0.597   5.264
 8632TIP3    H225861   1.871   0.550   5.166
 8633TIP3   OH225862   6.341   1.964   2.868
 8633TIP3    H125863   6.295   1.889   2.831
 8633TIP3    H225864   6.413   1.924   2.918
 8634TIP3   OH225865   4.369   4.215   3.370
 8634TIP3    H125866   4.397   4.140   3.317
 8634TIP3    H225867   4.448   4.242   3.416
 8635TIP3   OH225868   5.386   4.533   1.027
 8635TIP3    H125869   5.325   4.524   0.954
 8635TIP3    H225870   5.432   4.449   1.032
 8636TIP3   OH225871   5.858   4.575   3.348
 8636TIP3    H125872   5.873   4.491   3.303
 8636TIP3    H225873   5.832   4.635   3.278
 8637TIP3   OH225874   3.940   5.215   4.883
 8637TIP3    H125875   4.000   5.265   4.827
 8637TIP3    H225876   3.902   5.281   4.941
 8638TIP3   OH225877   0.758   2.286   3.928
 8638TIP3    H125878   0.695   2.270   3.858
 8638TIP3    H225879   0.727   2.233   4.001
 8639TIP3   OH225880   2.916   6.274   4.206
 8639TIP3    H125881   2.889   6.298   4.118
 8639TIP3    H225882   2.953   6.354   4.243
 8640TIP3   OH225883   3.884   1.641   2.221
 8640TIP3    H125884   3.912   1.602   2.138
 8640TIP3    H225885   3.832   1.573   2.263
 8641TIP3   OH225886   2.777   2.695   2.354
 8641TIP3    H125887   2.702   2.701   2.414
 8641TIP3    H225888   2.750   2.746   2.277
 8642TIP3   OH225889   6.656   4.889   3.255
 8642TIP3    H125890   6.616   4.907   3.340
 8642TIP3    H225891   6.677   4.975   3.219
 8643TIP3   OH225892   1.510   6.309   2.434
 8643TIP3    H125893   1.455   6.234   2.411
 8643TIP3    H225894   1.539   6.290   2.524
 8644TIP3   OH225895   3.284   0.161   1.595
 8644TIP3    H125896   3.224   0.231   1.622
 8644TIP3    H225897   3.307   0.183   1.504
 8645TIP3   OH225898   5.228   0.216   0.486
 8645TIP3    H125899   5.139   0.182   0.486
 8645TIP3    H225900   5.277   0.156   0.542
 8646TIP3   OH225901   1.330   2.993   0.187
 8646TIP3    H125902   1.345   2.916   0.132
 8646TIP3    H225903   1.255   3.037   0.147
 8647TIP3   OH225904   5.858   1.970   1.126
 8647TIP3    H125905   5.880   1.927   1.043
 8647TIP3    H225906   5.936   1.958   1.181
 8648TIP3   OH225907   3.214   5.491   5.567
 8648TIP3    H125908   3.308   5.498   5.583
 8648TIP3    H225909   3.208   5.456   5.477
 8649TIP3   OH225910   0.726   6.159   4.538
 8649TIP3    H125911   0.719   6.152   4.633
 8649TIP3    H225912   0.635   6.151   4.507
 8650TIP3   OH225913   3.031   2.310   4.128
 8650TIP3    H125914   3.088   2.259   4.070
 8650TIP3    H225915   3.023   2.395   4.084
 8651TIP3   OH225916   0.901   2.812   0.371
 8651TIP3    H125917   0.821   2.772   0.405
 8651TIP3    H225918   0.871   2.883   0.314
 8652TIP3   OH225919   6.887   3.649   2.974
 8652TIP3    H125920   6.798   3.663   3.008
 8652TIP3    H225921   6.905   3.727   2.922
 8653TIP3   OH225922   0.764   6.584   2.583
 8653TIP3    H125923   0.783   6.491   2.577
 8653TIP3    H225924   0.813   6.624   2.511
 8654TIP3   OH225925   4.546   2.122   1.400
 8654TIP3    H125926   4.630   2.111   1.356
 8654TIP3    H225927   4.512   2.033   1.411
 8655TIP3   OH225928   5.811   1.772   4.444
 8655TIP3    H125929   5.841   1.728   4.524
 8655TIP3    H225930   5.745   1.714   4.408
 8656TIP3   OH225931   0.090   0.491   3.857
 8656TIP3    H125932   0.177   0.502   3.895
 8656TIP3    H225933   0.067   0.400   3.874
 8657TIP3   OH225934   0.048   0.151   0.059
 8657TIP3    H125935   0.130   0.176   0.018
 8657TIP3    H225936   0.073   0.089   0.128
 8658TIP3   OH225937   1.321   1.654   4.268
 8658TIP3    H125938   1.363   1.655   4.182
 8658TIP3    H225939   1.259   1.728   4.265
 8659TIP3   OH225940   0.921   1.497   0.815
 8659TIP3    H125941   0.847   1.437   0.807
 8659TIP3    H225942   0.902   1.549   0.893
 8660TIP3   OH225943   0.246   2.879   3.998
 8660TIP3    H125944   0.329   2.914   4.030
 8660TIP3    H225945   0.268   2.837   3.915
 8661TIP3   OH225946   5.611   0.729   1.081
 8661TIP3    H125947   5.648   0.705   1.166
 8661TIP3    H225948   5.553   0.803   1.100
 8662TIP3   OH225949   2.703   0.050   4.940
 8662TIP3    H125950   2.734  -0.012   5.005
 8662TIP3    H225951   2.620   0.013   4.909
 8663TIP3   OH225952   1.646   0.545   0.406
 8663TIP3    H125953   1.716   0.480   0.412
 8663TIP3    H225954   1.642   0.567   0.313
 8664TIP3   OH225955   6.246   5.642   1.508
 8664TIP3    H125956   6.281   5.640   1.598
 8664TIP3    H225957   6.165   5.693   1.515
 8665TIP3   OH225958   2.087   4.848   3.069
 8665TIP3    H125959   2.153   4.914   3.087
 8665TIP3    H225960   2.007   4.898   3.052
 8666TIP3   OH225961   5.246   3.013   5.322
 8666TIP3    H125962   5.184   3.077   5.285
 8666TIP3    H225963   5.193   2.959   5.380
 8667TIP3   OH225964   4.338   3.283   3.033
 8667TIP3    H125965   4.304   3.194   3.043
 8667TIP3    H225966   4.427   3.279   3.067
 8668TIP3   OH225967   0.907   1.443   4.084
 8668TIP3    H125968   0.894   1.510   4.150
 8668TIP3    H225969   0.849   1.469   4.012
 8669TIP3   OH225970   1.998   3.337   0.784
 8669TIP3    H125971   1.934   3.400   0.752
 8669TIP3    H225972   1.946   3.266   0.821
 8670TIP3   OH225973   6.718   2.421   2.725
 8670TIP3    H125974   6.675   2.404   2.640
 8670TIP3    H225975   6.796   2.366   2.724
 8671TIP3   OH225976   5.281   3.662   1.741
 8671TIP3    H125977   5.319   3.747   1.718
 8671TIP3    H225978   5.257   3.623   1.657
 8672TIP3   OH225979   0.747   2.064   3.163
 8672TIP3    H125980   0.721   1.986   3.211
 8672TIP3    H225981   0.766   2.129   3.231
 8673TIP3   OH225982   6.179   5.413   3.527
 8673TIP3    H125983   6.182   5.490   3.582
 8673TIP3    H225984   6.087   5.402   3.505
 8674TIP3   OH225985   5.734   1.615   1.713
 8674TIP3    H125986   5.680   1.665   1.651
 8674TIP3    H225987   5.724   1.524   1.683
 8675TIP3   OH225988   5.887   5.232   0.369
 8675TIP3    H125989   5.937   5.168   0.318
 8675TIP3    H225990   5.818   5.262   0.309
 8676TIP3   OH225991   3.199   4.383   3.285
 8676TIP3    H125992   3.103   4.384   3.289
 8676TIP3    H225993   3.225   4.327   3.358
 8677TIP3   OH225994   0.114   2.288   2.906
 8677TIP3    H125995   0.058   2.361   2.879
 8677TIP3    H225996   0.061   2.241   2.971
 8678TIP3   OH225997   6.427   1.258   2.228
 8678TIP3    H125998   6.374   1.301   2.296
 8678TIP3    H225999   6.493   1.209   2.277
 8679TIP3   OH226000   2.643   5.524   1.931
 8679TIP3    H126001   2.562   5.564   1.898
 8679TIP3    H226002   2.652   5.444   1.880
 8680TIP3   OH226003   6.693   1.790   4.766
 8680TIP3    H126004   6.664   1.804   4.676
 8680TIP3    H226005   6.780   1.750   4.757
 8681TIP3   OH226006   5.884   0.629   2.977
 8681TIP3    H126007   5.949   0.658   3.041
 8681TIP3    H226008   5.799   0.646   3.019
 8682TIP3   OH226009   5.007   3.571   2.814
 8682TIP3    H126010   5.026   3.517   2.738
 8682TIP3    H226011   5.016   3.661   2.782
 8683TIP3   OH226012   1.919   4.164   1.625
 8683TIP3    H126013   1.963   4.092   1.671
 8683TIP3    H226014   1.959   4.243   1.660
 8684TIP3   OH226015   6.391   0.856   1.680
 8684TIP3    H126016   6.413   0.812   1.598
 8684TIP3    H226017   6.381   0.784   1.743
 8685TIP3   OH226018   2.357   4.922   5.275
 8685TIP3    H126019   2.401   4.988   5.222
 8685TIP3    H226020   2.399   4.840   5.250
 8686TIP3   OH226021   6.295   0.612   2.149
 8686TIP3    H126022   6.212   0.596   2.104
 8686TIP3    H226023   6.287   0.563   2.231
 8687TIP3   OH226024   3.348   3.628   4.889
 8687TIP3    H126025   3.329   3.664   4.802
 8687TIP3    H226026   3.307   3.690   4.949
 8688TIP3   OH226027   3.868   0.440   1.122
 8688TIP3    H126028   3.930   0.490   1.069
 8688TIP3    H226029   3.922   0.396   1.188
 8689TIP3   OH226030   4.527   3.897   2.458
 8689TIP3    H126031   4.454   3.856   2.413
 8689TIP3    H226032   4.501   3.989   2.466
 8690TIP3   OH226033   3.780   5.123   0.593
 8690TIP3    H126034   3.703   5.096   0.542
 8690TIP3    H226035   3.771   5.077   0.676
 8691TIP3   OH226036   3.214   3.174   1.555
 8691TIP3    H126037   3.276   3.247   1.566
 8691TIP3    H226038   3.196   3.172   1.461
 8692TIP3   OH226039   3.273   4.704   3.107
 8692TIP3    H126040   3.350   4.757   3.127
 8692TIP3    H226041   3.297   4.657   3.027
 8693TIP3   OH226042   0.540   5.287   2.033
 8693TIP3    H126043   0.595   5.299   2.110
 8693TIP3    H226044   0.489   5.209   2.051
 8694TIP3   OH226045   5.540   3.527   4.486
 8694TIP3    H126046   5.474   3.595   4.499
 8694TIP3    H226047   5.550   3.521   4.391
 8695TIP3   OH226048   3.471   0.364   0.017
 8695TIP3    H126049   3.551   0.343   0.065
 8695TIP3    H226050   3.500   0.375  -0.074
 8696TIP3   OH226051   2.033   5.912   4.146
 8696TIP3    H126052   2.122   5.939   4.123
 8696TIP3    H226053   2.031   5.915   4.242
 8697TIP3   OH226054   6.874   5.719   2.211
 8697TIP3    H126055   6.885   5.640   2.264
 8697TIP3    H226056   6.882   5.689   2.121
 8698TIP3   OH226057   2.731   2.049   1.344
 8698TIP3    H126058   2.781   1.978   1.383
 8698TIP3    H226059   2.665   2.070   1.410
 8699TIP3   OH226060   7.140   5.829   0.318
 8699TIP3    H126061   7.184   5.778   0.386
 8699TIP3    H226062   7.210   5.884   0.281
 8700TIP3   OH226063   5.298   5.102   3.963
 8700TIP3    H126064   5.373   5.044   3.948
 8700TIP3    H226065   5.335   5.178   4.007
 8701TIP3   OH226066   0.299   5.923   5.463
 8701TIP3    H126067   0.370   5.914   5.399
 8701TIP3    H226068   0.327   5.871   5.538
 8702TIP3   OH226069   6.763   3.867   4.485
 8702TIP3    H126070   6.739   3.926   4.413
 8702TIP3    H226071   6.843   3.905   4.522
 8703TIP3   OH226072   4.902   6.776   5.045
 8703TIP3    H126073   4.836   6.723   4.998
 8703TIP3    H226074   4.851   6.846   5.087
 8704TIP3   OH226075   0.632   1.738   4.049
 8704TIP3    H126076   0.579   1.662   4.074
 8704TIP3    H226077   0.569   1.804   4.020
 8705TIP3   OH226078   2.996   4.952   2.533
 8705TIP3    H126079   2.943   4.878   2.502
 8705TIP3    H226080   3.073   4.911   2.571
 8706TIP3   OH226081   6.208   0.610   5.335
 8706TIP3    H126082   6.219   0.519   5.306
 8706TIP3    H226083   6.234   0.663   5.260
 8707TIP3   OH226084   0.957   6.557   1.736
 8707TIP3    H126085   1.025   6.524   1.678
 8707TIP3    H226086   0.916   6.628   1.686
 8708TIP3   OH226087   2.159   4.307   1.740
 8708TIP3    H126088   2.152   4.230   1.797
 8708TIP3    H226089   2.104   4.373   1.782
 8709TIP3   OH226090   1.161   3.442   1.305
 8709TIP3    H126091   1.106   3.519   1.291
 8709TIP3    H226092   1.223   3.468   1.372
 8710TIP3   OH226093   1.416   2.955   4.105
 8710TIP3    H126094   1.483   2.984   4.042
 8710TIP3    H226095   1.461   2.889   4.158
 8711TIP3   OH226096   1.584   3.359   2.117
 8711TIP3    H126097   1.645   3.432   2.107
 8711TIP3    H226098   1.626   3.301   2.181
 8712TIP3   OH226099   2.541   2.846   4.360
 8712TIP3    H126100   2.504   2.857   4.272
 8712TIP3    H226101   2.626   2.804   4.345
 8713TIP3   OH226102   3.075   1.556   0.875
 8713TIP3    H126103   3.092   1.637   0.922
 8713TIP3    H226104   3.111   1.571   0.787
 8714TIP3   OH226105   0.138   0.956   2.567
 8714TIP3    H126106   0.061   0.905   2.543
 8714TIP3    H226107   0.110   1.047   2.560
 8715TIP3   OH226108   0.644   3.058   4.537
 8715TIP3    H126109   0.739   3.065   4.534
 8715TIP3    H226110   0.612   3.131   4.484
 8716TIP3   OH226111   3.609   4.134   2.996
 8716TIP3    H126112   3.523   4.100   2.974
 8716TIP3    H226113   3.624   4.204   2.932
 8717TIP3   OH226114   3.049   4.693   0.121
 8717TIP3    H126115   3.073   4.668   0.032
 8717TIP3    H226116   2.965   4.650   0.136
 8718TIP3   OH226117   7.047   0.162   1.368
 8718TIP3    H126118   7.096   0.238   1.338
 8718TIP3    H226119   7.114   0.098   1.393
 8719TIP3   OH226120   5.903   1.886   2.421
 8719TIP3    H126121   5.820   1.852   2.388
 8719TIP3    H226122   5.923   1.961   2.366
 8720TIP3   OH226123   3.717   5.237   2.923
 8720TIP3    H126124   3.797   5.289   2.925
 8720TIP3    H226125   3.648   5.298   2.948
 8721TIP3   OH226126   5.065   6.043   1.602
 8721TIP3    H126127   5.108   6.035   1.687
 8721TIP3    H226128   4.993   6.105   1.617
 8722TIP3   OH226129   6.095   0.765   0.176
 8722TIP3    H126130   6.043   0.794   0.101
 8722TIP3    H226131   6.182   0.801   0.161
 8723TIP3   OH226132   1.561   1.969   1.976
 8723TIP3    H126133   1.569   2.025   2.053
 8723TIP3    H226134   1.502   1.899   2.003
 8724TIP3   OH226135   3.067   2.639   0.601
 8724TIP3    H126136   3.006   2.708   0.623
 8724TIP3    H226137   3.028   2.594   0.526
 8725TIP3   OH226138   6.078   4.606   1.528
 8725TIP3    H126139   6.113   4.661   1.458
 8725TIP3    H226140   6.156   4.572   1.573
 8726TIP3   OH226141   7.236   1.430   2.396
 8726TIP3    H126142   7.268   1.405   2.309
 8726TIP3    H226143   7.145   1.456   2.381
 8727TIP3   OH226144   1.535   4.443   2.141
 8727TIP3    H126145   1.495   4.382   2.203
 8727TIP3    H226146   1.464   4.463   2.079
 8728TIP3   OH226147   3.897   1.747   0.779
 8728TIP3    H126148   3.917   1.766   0.687
 8728TIP3    H226149   3.806   1.717   0.778
 8729TIP3   OH226150   1.103   4.625   5.406
 8729TIP3    H126151   1.183   4.599   5.360
 8729TIP3    H226152   1.132   4.648   5.494
 8730TIP3   OH226153   0.671   3.306   1.056
 8730TIP3    H126154   0.650   3.383   1.003
 8730TIP3    H226155   0.700   3.342   1.140
 8731TIP3   OH226156   4.245   5.879   4.191
 8731TIP3    H126157   4.218   5.948   4.251
 8731TIP3    H226158   4.325   5.913   4.150
 8732TIP3   OH226159   6.313   0.375   1.138
 8732TIP3    H126160   6.264   0.447   1.177
 8732TIP3    H226161   6.362   0.338   1.212
 8733TIP3   OH226162   2.080   4.186   4.437
 8733TIP3    H126163   2.106   4.275   4.461
 8733TIP3    H226164   2.066   4.191   4.342
 8734TIP3   OH226165   3.921   4.283   5.096
 8734TIP3    H126166   3.945   4.217   5.160
 8734TIP3    H226167   3.936   4.241   5.011
 8735TIP3   OH226168   2.975   6.684   5.151
 8735TIP3    H126169   2.900   6.641   5.192
 8735TIP3    H226170   3.050   6.655   5.203
 8736TIP3   OH226171   7.076   2.291  -0.013
 8736TIP3    H126172   7.088   2.337  -0.096
 8736TIP3    H226173   6.982   2.296   0.004
 8737TIP3   OH226174   2.076   6.237   4.570
 8737TIP3    H126175   1.991   6.241   4.527
 8737TIP3    H226176   2.069   6.164   4.632
 8738TIP3   OH226177   5.144   0.581   1.949
 8738TIP3    H126178   5.160   0.560   2.041
 8738TIP3    H226179   5.231   0.600   1.913
 8739TIP3   OH226180   7.023   4.694   0.435
 8739TIP3    H126181   7.037   4.788   0.423
 8739TIP3    H226182   7.065   4.675   0.520
 8740TIP3   OH226183   4.216   4.299   3.893
 8740TIP3    H126184   4.143   4.246   3.861
 8740TIP3    H226185   4.175   4.378   3.928
 8741TIP3   OH226186   6.177   6.687   4.581
 8741TIP3    H126187   6.264   6.717   4.605
 8741TIP3    H226188   6.161   6.725   4.495
 8742TIP3   OH226189   7.186   0.052   3.107
 8742TIP3    H126190   7.154   0.130   3.062
 8742TIP3    H226191   7.280   0.049   3.088
 8743TIP3   OH226192   4.708   5.222   0.534
 8743TIP3    H126193   4.624   5.197   0.496
 8743TIP3    H226194   4.773   5.184   0.476
 8744TIP3   OH226195   3.676   5.845   4.163
 8744TIP3    H126196   3.601   5.902   4.177
 8744TIP3    H226197   3.752   5.902   4.174
 8745TIP3   OH226198   2.378   1.542   1.063
 8745TIP3    H126199   2.289   1.515   1.041
 8745TIP3    H226200   2.393   1.507   1.150
 8746TIP3   OH226201   4.381   2.159   2.668
 8746TIP3    H126202   4.303   2.121   2.627
 8746TIP3    H226203   4.431   2.084   2.698
 8747TIP3   OH226204   0.024   6.070   1.271
 8747TIP3    H126205  -0.012   6.127   1.203
 8747TIP3    H226206   0.118   6.089   1.270
 8748TIP3   OH226207   4.209   2.463   4.269
 8748TIP3    H126208   4.259   2.419   4.200
 8748TIP3    H226209   4.175   2.392   4.323
 8749TIP3   OH226210   3.691   6.500   1.367
 8749TIP3    H126211   3.726   6.507   1.278
 8749TIP3    H226212   3.682   6.590   1.397
 8750TIP3   OH226213   5.771   4.026   4.631
 8750TIP3    H126214   5.681   4.010   4.603
 8750TIP3    H226215   5.806   3.940   4.652
 8751TIP3   OH226216   4.780   2.490   4.979
 8751TIP3    H126217   4.775   2.567   5.035
 8751TIP3    H226218   4.781   2.525   4.890
 8752TIP3   OH226219   6.539   1.041   1.870
 8752TIP3    H126220   6.490   0.986   1.810
 8752TIP3    H226221   6.481   1.053   1.945
 8753TIP3   OH226222   3.593   3.131   2.143
 8753TIP3    H126223   3.550   3.149   2.059
 8753TIP3    H226224   3.547   3.054   2.177
 8754TIP3   OH226225   6.546   5.915   5.284
 8754TIP3    H126226   6.634   5.877   5.289
 8754TIP3    H226227   6.501   5.864   5.217
 8755TIP3   OH226228   3.259   6.730   0.491
 8755TIP3    H126229   3.240   6.642   0.524
 8755TIP3    H226230   3.353   6.730   0.474
 8756TIP3   OH226231   6.673   1.188   5.295
 8756TIP3    H126232   6.763   1.219   5.280
 8756TIP3    H226233   6.681   1.093   5.300
 8757TIP3   OH226234   1.488   1.483  -0.058
 8757TIP3    H126235   1.428   1.411  -0.079
 8757TIP3    H226236   1.498   1.478   0.037
 8758TIP3   OH226237   0.918   0.230   4.669
 8758TIP3    H126238   1.000   0.198   4.631
 8758TIP3    H226239   0.916   0.192   4.757
 8759TIP3   OH226240   1.533   3.487   4.216
 8759TIP3    H126241   1.526   3.541   4.137
 8759TIP3    H226242   1.452   3.504   4.264
 8760TIP3   OH226243   7.012   4.894   1.360
 8760TIP3    H126244   6.979   4.979   1.333
 8760TIP3    H226245   6.950   4.864   1.427
 8761TIP3   OH226246   0.856   0.801   0.556
 8761TIP3    H126247   0.909   0.721   0.563
 8761TIP3    H226248   0.890   0.858   0.624
 8762TIP3   OH226249   4.413   2.855   0.933
 8762TIP3    H126250   4.335   2.800   0.935
 8762TIP3    H226251   4.380   2.944   0.943
 8763TIP3   OH226252   1.255   0.154   2.428
 8763TIP3    H126253   1.165   0.173   2.451
 8763TIP3    H226254   1.253   0.137   2.334
 8764TIP3   OH226255   6.377   3.845   0.460
 8764TIP3    H126256   6.383   3.907   0.387
 8764TIP3    H226257   6.443   3.779   0.441
 8765TIP3   OH226258   6.154   3.565   2.089
 8765TIP3    H126259   6.117   3.492   2.139
 8765TIP3    H226260   6.152   3.639   2.149
 8766TIP3   OH226261   0.908   0.614   0.000
 8766TIP3    H126262   0.836   0.635   0.059
 8766TIP3    H226263   0.920   0.694  -0.052
 8767TIP3   OH226264   4.407   4.329   2.684
 8767TIP3    H126265   4.494   4.364   2.665
 8767TIP3    H226266   4.357   4.405   2.714
 8768TIP3   OH226267   5.810   2.550   2.845
 8768TIP3    H126268   5.735   2.571   2.790
 8768TIP3    H226269   5.877   2.518   2.784
 8769TIP3   OH226270   4.517   5.665   3.165
 8769TIP3    H126271   4.599   5.633   3.127
 8769TIP3    H226272   4.524   5.643   3.258
 8770TIP3   OH226273   2.047   5.761   1.307
 8770TIP3    H126274   1.957   5.783   1.331
 8770TIP3    H226275   2.080   5.713   1.383
 8771TIP3   OH226276   5.621   2.819   3.279
 8771TIP3    H126277   5.654   2.734   3.248
 8771TIP3    H226278   5.544   2.836   3.225
 8772TIP3   OH226279   4.132   5.025   4.488
 8772TIP3    H126280   4.138   4.937   4.450
 8772TIP3    H226281   4.220   5.061   4.480
 8773TIP3   OH226282   5.975   6.092   3.724
 8773TIP3    H126283   5.883   6.103   3.701
 8773TIP3    H226284   5.994   6.164   3.784
 8774TIP3   OH226285   6.445   4.807   3.052
 8774TIP3    H126286   6.531   4.804   3.095
 8774TIP3    H226287   6.456   4.871   2.982
 8775TIP3   OH226288   5.322   2.553   4.158
 8775TIP3    H126289   5.314   2.555   4.253
 8775TIP3    H226290   5.235   2.529   4.127
 8776TIP3   OH226291   1.543   6.733   4.693
 8776TIP3    H126292   1.571   6.780   4.772
 8776TIP3    H226293   1.613   6.670   4.676
 8777TIP3   OH226294   4.121   3.380   4.714
 8777TIP3    H126295   4.193   3.429   4.753
 8777TIP3    H226296   4.042   3.425   4.744
 8778TIP3   OH226297   5.607   4.164   2.942
 8778TIP3    H126298   5.697   4.159   2.910
 8778TIP3    H226299   5.563   4.221   2.880
 8779TIP3   OH226300   1.831   0.652   2.442
 8779TIP3    H126301   1.906   0.621   2.493
 8779TIP3    H226302   1.791   0.719   2.498
 8780TIP3   OH226303   1.797   5.713   2.557
 8780TIP3    H126304   1.819   5.624   2.532
 8780TIP3    H226305   1.740   5.745   2.487
 8781TIP3   OH226306   7.172   1.829   4.029
 8781TIP3    H126307   7.165   1.738   4.056
 8781TIP3    H226308   7.225   1.826   3.949
 8782TIP3   OH226309   4.208   5.392   3.934
 8782TIP3    H126310   4.155   5.471   3.924
 8782TIP3    H226311   4.184   5.338   3.858
 8783TIP3   OH226312   4.286   6.592   0.944
 8783TIP3    H126313   4.278   6.617   1.036
 8783TIP3    H226314   4.379   6.575   0.931
 8784TIP3   OH226315   3.456   4.042   4.005
 8784TIP3    H126316   3.474   3.971   4.067
 8784TIP3    H226317   3.368   4.072   4.027
 8785TIP3   OH226318   5.542   3.678   2.391
 8785TIP3    H126319   5.636   3.664   2.388
 8785TIP3    H226320   5.531   3.760   2.438
 8786TIP3   OH226321   1.793   2.949   3.884
 8786TIP3    H126322   1.716   2.899   3.860
 8786TIP3    H226323   1.760   3.019   3.941
 8787TIP3   OH226324   6.266   3.882   2.193
 8787TIP3    H126325   6.356   3.854   2.208
 8787TIP3    H226326   6.213   3.823   2.246
 8788TIP3   OH226327   3.437   6.183   3.534
 8788TIP3    H126328   3.524   6.221   3.545
 8788TIP3    H226329   3.399   6.182   3.622
 8789TIP3   OH226330   2.606   0.083   3.356
 8789TIP3    H126331   2.634  -0.007   3.339
 8789TIP3    H226332   2.642   0.133   3.283
 8790TIP3   OH226333   6.752   2.879   4.099
 8790TIP3    H126334   6.697   2.892   4.176
 8790TIP3    H226335   6.724   2.948   4.038
 8791TIP3   OH226336   6.078   5.082   4.963
 8791TIP3    H126337   6.161   5.063   4.918
 8791TIP3    H226338   6.102   5.085   5.056
 8792TIP3   OH226339   5.236   4.357   4.095
 8792TIP3    H126340   5.296   4.397   4.032
 8792TIP3    H226341   5.179   4.301   4.042
 8793TIP3   OH226342   3.755   0.571   5.087
 8793TIP3    H126343   3.701   0.634   5.135
 8793TIP3    H226344   3.754   0.492   5.142
 8794TIP3   OH226345   1.165   2.588   0.791
 8794TIP3    H126346   1.101   2.594   0.720
 8794TIP3    H226347   1.151   2.501   0.829
 8795TIP3   OH226348   5.481   5.225   1.959
 8795TIP3    H126349   5.387   5.235   1.973
 8795TIP3    H226350   5.505   5.148   2.011
 8796TIP3   OH226351   1.883   3.716   4.833
 8796TIP3    H126352   1.888   3.650   4.763
 8796TIP3    H226353   1.804   3.766   4.813
 8797TIP3   OH226354   4.002   0.121   1.541
 8797TIP3    H126355   4.004   0.157   1.629
 8797TIP3    H226356   3.986   0.196   1.484
 8798TIP3   OH226357   6.718   0.321   3.330
 8798TIP3    H126358   6.760   0.407   3.335
 8798TIP3    H226359   6.790   0.259   3.318
 8799TIP3   OH226360   2.750   5.008   1.260
 8799TIP3    H126361   2.838   4.987   1.291
 8799TIP3    H226362   2.710   4.923   1.242
 8800TIP3   OH226363   5.183   2.326   3.353
 8800TIP3    H126364   5.199   2.256   3.291
 8800TIP3    H226365   5.255   2.387   3.340
 8801TIP3   OH226366   6.190   6.652   3.192
 8801TIP3    H126367   6.232   6.690   3.115
 8801TIP3    H226368   6.136   6.723   3.228
 8802TIP3   OH226369   4.077   6.699   1.737
 8802TIP3    H126370   4.040   6.708   1.650
 8802TIP3    H226371   4.035   6.621   1.773
 8803TIP3   OH226372   1.422   6.225   3.326
 8803TIP3    H126373   1.488   6.200   3.261
 8803TIP3    H226374   1.382   6.142   3.352
 8804TIP3   OH226375   0.518   5.797   4.488
 8804TIP3    H126376   0.551   5.708   4.485
 8804TIP3    H226377   0.581   5.848   4.438
 8805TIP3   OH226378   1.785   4.484   3.117
 8805TIP3    H126379   1.807   4.547   3.186
 8805TIP3    H226380   1.776   4.536   3.038
 8806TIP3   OH226381   4.156   2.955   3.675
 8806TIP3    H126382   4.126   3.042   3.701
 8806TIP3    H226383   4.250   2.955   3.696
 8807TIP3   OH226384   2.218   0.451   2.135
 8807TIP3    H126385   2.128   0.437   2.107
 8807TIP3    H226386   2.211   0.513   2.208
 8808TIP3   OH226387   2.284   3.513   3.119
 8808TIP3    H126388   2.273   3.438   3.177
 8808TIP3    H226389   2.252   3.587   3.171
 8809TIP3   OH226390   6.767   3.302   3.812
 8809TIP3    H126391   6.689   3.355   3.798
 8809TIP3    H226392   6.834   3.365   3.838
 8810TIP3   OH226393   3.550   1.555   0.872
 8810TIP3    H126394   3.542   1.643   0.836
 8810TIP3    H226395   3.618   1.514   0.819
 8811TIP3   OH226396   0.542   5.146   4.471
 8811TIP3    H126397   0.637   5.159   4.469
 8811TIP3    H226398   0.506   5.232   4.490
 8812TIP3   OH226399   6.981   6.660   2.366
 8812TIP3    H126400   7.009   6.750   2.377
 8812TIP3    H226401   6.984   6.623   2.455
 8813TIP3   OH226402   2.057   0.810   4.516
 8813TIP3    H126403   2.100   0.726   4.506
 8813TIP3    H226404   2.041   0.818   4.611
 8814TIP3   OH226405   3.043   1.128   5.470
 8814TIP3    H126406   2.997   1.211   5.463
 8814TIP3    H226407   3.128   1.144   5.429
 8815TIP3   OH226408   5.096   5.376   3.762
 8815TIP3    H126409   5.008   5.389   3.798
 8815TIP3    H226410   5.133   5.304   3.814
 8816TIP3   OH226411   0.158   4.296   2.501
 8816TIP3    H126412   0.073   4.296   2.458
 8816TIP3    H226413   0.147   4.356   2.575
 8817TIP3   OH226414   4.274   0.389   2.570
 8817TIP3    H126415   4.292   0.345   2.653
 8817TIP3    H226416   4.216   0.462   2.592
 8818TIP3   OH226417   2.790   5.060   0.075
 8818TIP3    H126418   2.835   5.087   0.155
 8818TIP3    H226419   2.736   4.986   0.102
 8819TIP3   OH226420   6.192   6.073   5.833
 8819TIP3    H126421   6.256   6.144   5.828
 8819TIP3    H226422   6.191   6.047   5.925
 8820TIP3   OH226423   4.255   0.379   4.472
 8820TIP3    H126424   4.325   0.410   4.415
 8820TIP3    H226425   4.203   0.457   4.490
 8821TIP3   OH226426   5.108   2.996   4.713
 8821TIP3    H126427   5.180   3.039   4.666
 8821TIP3    H226428   5.104   3.040   4.797
 8822TIP3   OH226429   5.295   4.154   3.778
 8822TIP3    H126430   5.293   4.231   3.720
 8822TIP3    H226431   5.339   4.087   3.726
 8823TIP3   OH226432   6.211   1.868   3.721
 8823TIP3    H126433   6.224   1.962   3.733
 8823TIP3    H226434   6.214   1.855   3.627
 8824TIP3   OH226435   2.151   4.604   5.416
 8824TIP3    H126436   2.096   4.548   5.472
 8824TIP3    H226437   2.105   4.688   5.414
 8825TIP3   OH226438   1.942   1.851   3.608
 8825TIP3    H126439   1.912   1.851   3.517
 8825TIP3    H226440   1.866   1.826   3.659
 8826TIP3   OH226441   5.339   0.074   0.901
 8826TIP3    H126442   5.279   0.147   0.916
 8826TIP3    H226443   5.284  -0.004   0.906
 8827TIP3   OH226444   4.598   2.810   0.738
 8827TIP3    H126445   4.628   2.720   0.726
 8827TIP3    H226446   4.526   2.803   0.801
 8828TIP3   OH226447   2.275   0.436   2.888
 8828TIP3    H126448   2.314   0.353   2.859
 8828TIP3    H226449   2.181   0.420   2.886
 8829TIP3   OH226450   3.288   3.155   2.071
 8829TIP3    H126451   3.245   3.229   2.028
 8829TIP3    H226452   3.277   3.083   2.010
 8830TIP3   OH226453   2.552   3.946   3.635
 8830TIP3    H126454   2.528   3.862   3.675
 8830TIP3    H226455   2.646   3.937   3.616
 8831TIP3   OH226456   2.428   5.161   4.014
 8831TIP3    H126457   2.333   5.150   4.025
 8831TIP3    H226458   2.466   5.106   4.082
 8832TIP3   OH226459   7.010   5.219   1.792
 8832TIP3    H126460   7.078   5.194   1.854
 8832TIP3    H226461   7.023   5.313   1.778
 8833TIP3   OH226462   5.542   3.608   1.271
 8833TIP3    H126463   5.599   3.576   1.341
 8833TIP3    H226464   5.580   3.571   1.191
 8834TIP3   OH226465   4.167   0.510   1.207
 8834TIP3    H126466   4.149   0.539   1.117
 8834TIP3    H226467   4.262   0.521   1.216
 8835TIP3   OH226468   4.273   3.059   0.592
 8835TIP3    H126469   4.270   3.133   0.653
 8835TIP3    H226470   4.232   3.093   0.512
 8836TIP3   OH226471   0.983   2.738   1.292
 8836TIP3    H126472   0.940   2.702   1.369
 8836TIP3    H226473   0.935   2.819   1.274
 8837TIP3   OH226474   6.440   1.542   5.346
 8837TIP3    H126475   6.491   1.554   5.266
 8837TIP3    H226476   6.495   1.581   5.414
 8838TIP3   OH226477   1.790   3.118   2.341
 8838TIP3    H126478   1.873   3.081   2.374
 8838TIP3    H226479   1.812   3.208   2.317
 8839TIP3   OH226480   4.491   2.988   5.807
 8839TIP3    H126481   4.538   3.071   5.797
 8839TIP3    H226482   4.438   3.000   5.886
 8840TIP3   OH226483   5.517   2.375   0.672
 8840TIP3    H126484   5.580   2.302   0.667
 8840TIP3    H226485   5.435   2.338   0.640
 8841TIP3   OH226486   1.445   5.253   1.750
 8841TIP3    H126487   1.413   5.256   1.660
 8841TIP3    H226488   1.376   5.294   1.801
 8842TIP3   OH226489   5.374   1.158   3.020
 8842TIP3    H126490   5.293   1.114   2.994
 8842TIP3    H226491   5.382   1.140   3.113
 8843TIP3   OH226492   2.412   3.156   3.962
 8843TIP3    H126493   2.349   3.214   4.005
 8843TIP3    H226494   2.393   3.165   3.869
 8844TIP3   OH226495   2.538   1.762   0.191
 8844TIP3    H126496   2.562   1.853   0.207
 8844TIP3    H226497   2.538   1.754   0.095
 8845TIP3   OH226498   0.746   4.491   4.200
 8845TIP3    H126499   0.660   4.462   4.232
 8845TIP3    H226500   0.748   4.585   4.221
 8846TIP3   OH226501   1.715   4.342   0.330
 8846TIP3    H126502   1.640   4.318   0.276
 8846TIP3    H226503   1.697   4.302   0.415
 8847TIP3   OH226504   5.080   6.773   2.922
 8847TIP3    H126505   5.009   6.766   2.859
 8847TIP3    H226506   5.148   6.823   2.876
 8848TIP3   OH226507   6.068   1.668   1.231
 8848TIP3    H126508   6.057   1.760   1.255
 8848TIP3    H226509   5.985   1.643   1.191
 8849TIP3   OH226510   5.372   6.189   0.722
 8849TIP3    H126511   5.325   6.243   0.658
 8849TIP3    H226512   5.371   6.101   0.684
 8850TIP3   OH226513   0.474   4.951   3.623
 8850TIP3    H126514   0.496   4.895   3.548
 8850TIP3    H226515   0.447   5.034   3.583
 8851TIP3   OH226516   4.410   5.034   2.133
 8851TIP3    H126517   4.335   5.088   2.108
 8851TIP3    H226518   4.485   5.078   2.092
 8852TIP3   OH226519   6.854   4.238   0.036
 8852TIP3    H126520   6.797   4.213  -0.037
 8852TIP3    H226521   6.818   4.321   0.067
 8853TIP3   OH226522   3.382   2.389   0.488
 8853TIP3    H126523   3.335   2.309   0.466
 8853TIP3    H226524   3.314   2.450   0.515
 8854TIP3   OH226525   2.480   6.588   5.331
 8854TIP3    H126526   2.385   6.579   5.318
 8854TIP3    H226527   2.497   6.681   5.325
 8855TIP3   OH226528   4.799   3.751   4.659
 8855TIP3    H126529   4.886   3.721   4.684
 8855TIP3    H226530   4.772   3.693   4.588
 8856TIP3   OH226531   2.425   5.681   0.506
 8856TIP3    H126532   2.346   5.662   0.557
 8856TIP3    H226533   2.392   5.709   0.420
 8857TIP3   OH226534   6.779   6.483   2.709
 8857TIP3    H126535   6.699   6.431   2.723
 8857TIP3    H226536   6.747   6.568   2.679
 8858TIP3   OH226537   3.597   5.003   2.372
 8858TIP3    H126538   3.511   5.024   2.335
 8858TIP3    H226539   3.579   4.941   2.442
 8859TIP3   OH226540   4.343   0.116   1.539
 8859TIP3    H126541   4.283   0.056   1.495
 8859TIP3    H226542   4.430   0.080   1.523
 8860TIP3   OH226543   5.291   3.665   3.716
 8860TIP3    H126544   5.249   3.612   3.783
 8860TIP3    H226545   5.353   3.720   3.764
 8861TIP3   OH226546   2.113   4.474   3.925
 8861TIP3    H126547   2.167   4.398   3.902
 8861TIP3    H226548   2.111   4.474   4.021
 8862TIP3   OH226549   5.886   0.103   2.127
 8862TIP3    H126550   5.843   0.158   2.192
 8862TIP3    H226551   5.818   0.043   2.097
 8863TIP3   OH226552   4.403   1.470   2.467
 8863TIP3    H126553   4.404   1.374   2.468
 8863TIP3    H226554   4.362   1.493   2.384
 8864TIP3   OH226555   1.339   4.044   3.821
 8864TIP3    H126556   1.326   4.015   3.731
 8864TIP3    H226557   1.373   3.967   3.866
 8865TIP3   OH226558   4.326   5.751   0.961
 8865TIP3    H126559   4.277   5.669   0.974
 8865TIP3    H226560   4.406   5.724   0.917
 8866TIP3   OH226561   5.905   1.924   4.710
 8866TIP3    H126562   5.967   1.852   4.701
 8866TIP3    H226563   5.937   1.990   4.649
 8867TIP3   OH226564   5.587   0.726   4.842
 8867TIP3    H126565   5.613   0.672   4.767
 8867TIP3    H226566   5.542   0.801   4.803
 8868TIP3   OH226567   2.940   0.065   4.695
 8868TIP3    H126568   2.926   0.159   4.690
 8868TIP3    H226569   2.882   0.028   4.628
 8869TIP3   OH226570   6.430   3.092   2.211
 8869TIP3    H126571   6.447   3.185   2.225
 8869TIP3    H226572   6.492   3.065   2.144
 8870TIP3   OH226573   1.115   2.964   1.421
 8870TIP3    H126574   1.028   2.960   1.460
 8870TIP3    H226575   1.174   2.932   1.489
 8871TIP3   OH226576   5.347   0.979   1.413
 8871TIP3    H126577   5.415   1.010   1.473
 8871TIP3    H226578   5.393   0.954   1.333
 8872TIP3   OH226579   3.865   1.070   5.754
 8872TIP3    H126580   3.802   1.028   5.813
 8872TIP3    H226581   3.838   1.162   5.751
 8873TIP3   OH226582   5.551   1.616   5.874
 8873TIP3    H126583   5.576   1.531   5.911
 8873TIP3    H226584   5.499   1.593   5.797
 8874TIP3   OH226585   3.677   0.096   5.614
 8874TIP3    H126586   3.762   0.114   5.655
 8874TIP3    H226587   3.621   0.068   5.686
 8875TIP3   OH226588   0.203   2.332   2.180
 8875TIP3    H126589   0.228   2.293   2.263
 8875TIP3    H226590   0.234   2.423   2.186
 8876TIP3   OH226591   4.103   3.486   2.938
 8876TIP3    H126592   4.024   3.436   2.920
 8876TIP3    H226593   4.173   3.436   2.897
 8877TIP3   OH226594   3.373   5.699   5.335
 8877TIP3    H126595   3.349   5.609   5.316
 8877TIP3    H226596   3.308   5.729   5.398
 8878TIP3   OH226597   4.617   2.329   3.198
 8878TIP3    H126598   4.528   2.308   3.224
 8878TIP3    H226599   4.661   2.244   3.189
 8879TIP3   OH226600   2.839   0.781   4.143
 8879TIP3    H126601   2.869   0.734   4.221
 8879TIP3    H226602   2.904   0.849   4.129
 8880TIP3   OH226603   6.143   0.594   1.177
 8880TIP3    H126604   6.062   0.566   1.134
 8880TIP3    H226605   6.121   0.679   1.217
 8881TIP3   OH226606   6.132   5.330   0.453
 8881TIP3    H126607   6.045   5.336   0.415
 8881TIP3    H226608   6.141   5.409   0.507
 8882TIP3   OH226609   1.147   3.666   0.497
 8882TIP3    H126610   1.136   3.571   0.490
 8882TIP3    H226611   1.167   3.695   0.408
 8883TIP3   OH226612   2.634   2.194   3.390
 8883TIP3    H126613   2.578   2.127   3.350
 8883TIP3    H226614   2.705   2.206   3.327
 8884TIP3   OH226615   2.245   6.574   4.053
 8884TIP3    H126616   2.263   6.630   3.977
 8884TIP3    H226617   2.295   6.614   4.125
 8885TIP3   OH226618   6.394   1.995   2.140
 8885TIP3    H126619   6.419   1.925   2.200
 8885TIP3    H226620   6.360   2.064   2.198
 8886TIP3   OH226621   4.075   5.124   5.425
 8886TIP3    H126622   4.098   5.032   5.437
 8886TIP3    H226623   3.980   5.127   5.434
 8887TIP3   OH226624   5.722   4.612   0.128
 8887TIP3    H126625   5.677   4.600   0.044
 8887TIP3    H226626   5.800   4.556   0.121
 8888TIP3   OH226627   1.297   1.990   1.826
 8888TIP3    H126628   1.362   2.060   1.825
 8888TIP3    H226629   1.234   2.016   1.892
 8889TIP3   OH226630   0.948   0.567   1.514
 8889TIP3    H126631   0.881   0.520   1.563
 8889TIP3    H226632   0.914   0.656   1.505
 8890TIP3   OH226633   5.129   4.145   1.547
 8890TIP3    H126634   5.106   4.108   1.462
 8890TIP3    H226635   5.179   4.224   1.526
 8891TIP3   OH226636   6.682   2.294   4.204
 8891TIP3    H126637   6.707   2.202   4.200
 8891TIP3    H226638   6.734   2.329   4.277
 8892TIP3   OH226639   3.978   3.934   1.485
 8892TIP3    H126640   3.968   3.852   1.438
 8892TIP3    H226641   4.005   3.909   1.573
 8893TIP3   OH226642   5.197   3.526   5.367
 8893TIP3    H126643   5.224   3.564   5.451
 8893TIP3    H226644   5.270   3.471   5.340
 8894TIP3   OH226645   2.448   2.057   4.544
 8894TIP3    H126646   2.398   2.131   4.577
 8894TIP3    H226647   2.468   2.080   4.453
 8895TIP3   OH226648   2.217   3.394   4.960
 8895TIP3    H126649   2.305   3.429   4.968
 8895TIP3    H226650   2.215   3.320   5.020
 8896TIP3   OH226651   3.555   5.034   0.498
 8896TIP3    H126652   3.478   5.072   0.540
 8896TIP3    H226653   3.521   4.990   0.420
 8897TIP3   OH226654   3.770   4.940   3.758
 8897TIP3    H126655   3.732   5.026   3.777
 8897TIP3    H226656   3.860   4.958   3.733
 8898TIP3   OH226657   2.760   3.028   3.649
 8898TIP3    H126658   2.790   3.117   3.634
 8898TIP3    H226659   2.743   2.993   3.562
 8899TIP3   OH226660   3.753   5.985   0.670
 8899TIP3    H126661   3.781   6.069   0.632
 8899TIP3    H226662   3.768   5.921   0.600
 8900TIP3   OH226663   5.686   0.392   1.187
 8900TIP3    H126664   5.672   0.297   1.194
 8900TIP3    H226665   5.678   0.423   1.277
 8901TIP3   OH226666   6.443   6.808   1.541
 8901TIP3    H126667   6.431   6.713   1.542
 8901TIP3    H226668   6.375   6.842   1.599
 8902TIP3   OH226669   0.846   0.653   1.122
 8902TIP3    H126670   0.883   0.738   1.099
 8902TIP3    H226671   0.856   0.601   1.042
 8903TIP3   OH226672   4.230   0.487   5.128
 8903TIP3    H126673   4.273   0.548   5.068
 8903TIP3    H226674   4.188   0.423   5.071
 8904TIP3   OH226675   5.983   0.054   3.829
 8904TIP3    H126676   5.887   0.049   3.823
 8904TIP3    H226677   6.003   0.147   3.816
 8905TIP3   OH226678   6.312   5.253   1.722
 8905TIP3    H126679   6.402   5.234   1.693
 8905TIP3    H226680   6.264   5.173   1.703
 8906TIP3   OH226681   0.674   0.755   5.256
 8906TIP3    H126682   0.620   0.748   5.178
 8906TIP3    H226683   0.760   0.724   5.229
 8907TIP3   OH226684   6.625   1.328   0.792
 8907TIP3    H126685   6.535   1.360   0.792
 8907TIP3    H226686   6.654   1.339   0.883
 8908TIP3   OH226687   7.110   3.961   4.873
 8908TIP3    H126688   7.170   3.983   4.802
 8908TIP3    H226689   7.134   4.020   4.944
 8909TIP3   OH226690   5.537   2.996   4.075
 8909TIP3    H126691   5.524   3.091   4.068
 8909TIP3    H226692   5.628   2.983   4.050
 8910TIP3   OH226693   5.366   1.506   1.158
 8910TIP3    H126694   5.398   1.456   1.083
 8910TIP3    H226695   5.392   1.455   1.234
 8911TIP3   OH226696   3.513   5.491   0.927
 8911TIP3    H126697   3.458   5.413   0.914
 8911TIP3    H226698   3.568   5.468   1.002
 8912TIP3   OH226699   0.621   0.049   1.612
 8912TIP3    H126700   0.585   0.130   1.576
 8912TIP3    H226701   0.556   0.019   1.675
 8913TIP3   OH226702   0.887   2.295   1.248
 8913TIP3    H126703   0.899   2.277   1.341
 8913TIP3    H226704   0.922   2.383   1.235
 8914TIP3   OH226705   1.284   2.494   1.277
 8914TIP3    H126706   1.243   2.427   1.223
 8914TIP3    H226707   1.259   2.473   1.366
 8915TIP3   OH226708   0.166   5.551   3.565
 8915TIP3    H126709   0.260   5.533   3.559
 8915TIP3    H226710   0.155   5.639   3.530
 8916TIP3   OH226711   1.083   5.970   1.329
 8916TIP3    H126712   1.034   5.891   1.352
 8916TIP3    H226713   1.159   5.938   1.281
 8917TIP3   OH226714   4.712   3.553   0.766
 8917TIP3    H126715   4.762   3.607   0.706
 8917TIP3    H226716   4.774   3.527   0.834
 8918TIP3   OH226717   6.538   0.983   2.356
 8918TIP3    H126718   6.449   0.950   2.344
 8918TIP3    H226719   6.586   0.953   2.279
 8919TIP3   OH226720   4.819   4.787   0.070
 8919TIP3    H126721   4.855   4.793   0.159
 8919TIP3    H226722   4.890   4.747   0.019
 8920TIP3   OH226723   2.231   0.947   2.382
 8920TIP3    H126724   2.270   0.860   2.388
 8920TIP3    H226725   2.286   0.994   2.319
 8921TIP3   OH226726   6.824   2.927   0.609
 8921TIP3    H126727   6.817   2.834   0.588
 8921TIP3    H226728   6.736   2.961   0.595
 8922TIP3   OH226729   2.548   5.419   4.470
 8922TIP3    H126730   2.471   5.430   4.526
 8922TIP3    H226731   2.519   5.450   4.384
 8923TIP3   OH226732   5.939   6.729   5.117
 8923TIP3    H126733   5.926   6.710   5.210
 8923TIP3    H226734   5.938   6.643   5.075
 8924TIP3   OH226735   2.132   3.877   4.881
 8924TIP3    H126736   2.110   3.968   4.864
 8924TIP3    H226737   2.048   3.832   4.888
 8925TIP3   OH226738   0.588   5.951   5.642
 8925TIP3    H126739   0.608   5.936   5.550
 8925TIP3    H226740   0.671   5.938   5.688
 8926TIP3   OH226741   3.268   5.475   1.082
 8926TIP3    H126742   3.338   5.533   1.052
 8926TIP3    H226743   3.233   5.517   1.160
 8927TIP3   OH226744   6.568   3.214   0.042
 8927TIP3    H126745   6.547   3.161  -0.035
 8927TIP3    H226746   6.483   3.241   0.076
 8928TIP3   OH226747   2.500   6.545   2.194
 8928TIP3    H126748   2.584   6.505   2.170
 8928TIP3    H226749   2.510   6.637   2.170
 8929TIP3   OH226750   1.355   6.587   4.964
 8929TIP3    H126751   1.344   6.548   4.877
 8929TIP3    H226752   1.285   6.547   5.016
 8930TIP3   OH226753   3.899   4.936   4.840
 8930TIP3    H126754   3.932   5.026   4.850
 8930TIP3    H226755   3.929   4.891   4.919
 8931TIP3   OH226756   3.281   4.876   3.975
 8931TIP3    H126757   3.189   4.872   3.951
 8931TIP3    H226758   3.320   4.797   3.937
 8932TIP3   OH226759   3.380   2.219   1.466
 8932TIP3    H126760   3.474   2.201   1.469
 8932TIP3    H226761   3.340   2.152   1.521
 8933TIP3   OH226762   6.710   0.951   2.565
 8933TIP3    H126763   6.691   1.017   2.632
 8933TIP3    H226764   6.654   0.975   2.492
 8934TIP3   OH226765   5.455   2.030   5.640
 8934TIP3    H126766   5.364   2.047   5.617
 8934TIP3    H226767   5.476   1.947   5.597
 8935TIP3   OH226768   5.386   6.300   4.318
 8935TIP3    H126769   5.343   6.247   4.251
 8935TIP3    H226770   5.387   6.389   4.282
 8936TIP3   OH226771   3.519   5.681   0.328
 8936TIP3    H126772   3.493   5.617   0.261
 8936TIP3    H226773   3.452   5.750   0.321
 8937TIP3   OH226774   6.747   4.239   1.788
 8937TIP3    H126775   6.736   4.214   1.879
 8937TIP3    H226776   6.842   4.241   1.775
 8938TIP3   OH226777   0.797   5.893   0.478
 8938TIP3    H126778   0.814   5.887   0.384
 8938TIP3    H226779   0.872   5.942   0.513
 8939TIP3   OH226780   5.513   5.663   1.451
 8939TIP3    H126781   5.439   5.669   1.390
 8939TIP3    H226782   5.483   5.604   1.520
 8940TIP3   OH226783   4.454   1.052   5.556
 8940TIP3    H126784   4.486   1.005   5.479
 8940TIP3    H226785   4.528   1.105   5.584
 8941TIP3   OH226786   3.035   4.171   0.048
 8941TIP3    H126787   3.095   4.226   0.098
 8941TIP3    H226788   3.090   4.104   0.009
 8942TIP3   OH226789   6.746   2.062   1.308
 8942TIP3    H126790   6.813   2.097   1.249
 8942TIP3    H226791   6.663   2.091   1.269
 8943TIP3   OH226792   6.463   5.759   0.553
 8943TIP3    H126793   6.492   5.671   0.575
 8943TIP3    H226794   6.375   5.747   0.516
 8944TIP3   OH226795   0.338   1.099   4.514
 8944TIP3    H126796   0.276   1.138   4.575
 8944TIP3    H226797   0.286   1.035   4.465
 8945TIP3   OH226798   1.503   4.391   3.245
 8945TIP3    H126799   1.461   4.465   3.201
 8945TIP3    H226800   1.595   4.397   3.221
 8946TIP3   OH226801   2.483   2.993   0.019
 8946TIP3    H126802   2.393   3.024   0.029
 8946TIP3    H226803   2.480   2.931  -0.054
 8947TIP3   OH226804   6.647   2.734   0.414
 8947TIP3    H126805   6.606   2.811   0.453
 8947TIP3    H226806   6.594   2.660   0.444
 8948TIP3   OH226807   6.122   2.727   3.402
 8948TIP3    H126808   6.083   2.806   3.366
 8948TIP3    H226809   6.117   2.739   3.497
 8949TIP3   OH226810   4.239   3.284   1.898
 8949TIP3    H126811   4.197   3.351   1.951
 8949TIP3    H226812   4.191   3.203   1.919
 8950TIP3   OH226813   5.659   6.248   5.729
 8950TIP3    H126814   5.598   6.176   5.723
 8950TIP3    H226815   5.665   6.282   5.640
 8951TIP3   OH226816   6.734   6.162   2.876
 8951TIP3    H126817   6.814   6.214   2.868
 8951TIP3    H226818   6.689   6.199   2.952
 8952TIP3   OH226819   0.574   1.436   5.351
 8952TIP3    H126820   0.531   1.520   5.336
 8952TIP3    H226821   0.621   1.419   5.269
 8953TIP3   OH226822   0.584   5.150   1.544
 8953TIP3    H126823   0.561   5.212   1.614
 8953TIP3    H226824   0.499   5.121   1.509
 8954TIP3   OH226825   5.422   3.397   0.094
 8954TIP3    H126826   5.339   3.443   0.109
 8954TIP3    H226827   5.396   3.306   0.077
 8955TIP3   OH226828   6.827   4.173   3.095
 8955TIP3    H126829   6.836   4.079   3.104
 8955TIP3    H226830   6.881   4.209   3.166
 8956TIP3   OH226831   6.061   1.018   3.008
 8956TIP3    H126832   5.973   1.010   3.044
 8956TIP3    H226833   6.047   1.035   2.915
 8957TIP3   OH226834   6.090   2.328   3.893
 8957TIP3    H126835   6.160   2.363   3.949
 8957TIP3    H226836   6.025   2.294   3.955
 8958TIP3   OH226837   5.349   0.897   5.187
 8958TIP3    H126838   5.352   0.985   5.148
 8958TIP3    H226839   5.259   0.868   5.173
 8959TIP3   OH226840   2.976   3.628   1.885
 8959TIP3    H126841   2.958   3.562   1.818
 8959TIP3    H226842   3.007   3.704   1.835
 8960TIP3   OH226843   5.949   5.578   0.154
 8960TIP3    H126844   6.020   5.623   0.108
 8960TIP3    H226845   5.973   5.585   0.247
 8961TIP3   OH226846   6.560   2.995   0.475
 8961TIP3    H126847   6.481   3.034   0.512
 8961TIP3    H226848   6.589   3.058   0.409
 8962TIP3   OH226849   1.120   1.271   5.597
 8962TIP3    H126850   1.140   1.350   5.647
 8962TIP3    H226851   1.024   1.267   5.596
 8963TIP3   OH226852   2.551   1.786   5.558
 8963TIP3    H126853   2.497   1.819   5.630
 8963TIP3    H226854   2.612   1.724   5.599
 8964TIP3   OH226855   5.289   3.646   4.286
 8964TIP3    H126856   5.301   3.626   4.379
 8964TIP3    H226857   5.253   3.566   4.248
 8965TIP3   OH226858   5.681   0.343   3.824
 8965TIP3    H126859   5.668   0.415   3.885
 8965TIP3    H226860   5.691   0.266   3.879
 8966TIP3   OH226861   3.189   4.338   0.198
 8966TIP3    H126862   3.179   4.385   0.281
 8966TIP3    H226863   3.274   4.366   0.164
 8967TIP3   OH226864   3.348   1.331   1.905
 8967TIP3    H126865   3.272   1.324   1.847
 8967TIP3    H226866   3.421   1.350   1.846
 8968TIP3   OH226867   6.255   3.728   5.697
 8968TIP3    H126868   6.224   3.673   5.768
 8968TIP3    H226869   6.216   3.813   5.714
 8969TIP3   OH226870   6.748   0.199   0.423
 8969TIP3    H126871   6.678   0.261   0.405
 8969TIP3    H226872   6.718   0.148   0.498
 8970TIP3   OH226873   3.977   5.418   0.271
 8970TIP3    H126874   4.013   5.480   0.209
 8970TIP3    H226875   3.995   5.332   0.233
 8971TIP3   OH226876   3.134   1.891   5.505
 8971TIP3    H126877   3.145   1.947   5.582
 8971TIP3    H226878   3.054   1.923   5.463
 8972TIP3   OH226879   2.371   1.498   1.340
 8972TIP3    H126880   2.457   1.537   1.357
 8972TIP3    H226881   2.318   1.523   1.416
 8973TIP3   OH226882   0.509   4.318   0.461
 8973TIP3    H126883   0.453   4.306   0.538
 8973TIP3    H226884   0.526   4.412   0.459
 8974TIP3   OH226885   3.383   6.104   5.855
 8974TIP3    H126886   3.307   6.045   5.856
 8974TIP3    H226887   3.349   6.185   5.817
 8975TIP3   OH226888   0.714   2.833   2.171
 8975TIP3    H126889   0.766   2.776   2.114
 8975TIP3    H226890   0.746   2.815   2.259
 8976TIP3   OH226891   6.661   0.624   0.555
 8976TIP3    H126892   6.684   0.629   0.648
 8976TIP3    H226893   6.709   0.697   0.515
 8977TIP3   OH226894   2.922   6.718   3.208
 8977TIP3    H126895   2.930   6.650   3.141
 8977TIP3    H226896   2.836   6.757   3.192
 8978TIP3   OH226897   6.993   5.859   3.415
 8978TIP3    H126898   6.936   5.883   3.342
 8978TIP3    H226899   6.971   5.921   3.484
 8979TIP3   OH226900   7.073   6.129   5.243
 8979TIP3    H126901   7.069   6.089   5.156
 8979TIP3    H226902   7.138   6.077   5.290
 8980TIP3   OH226903   4.980   1.346   1.669
 8980TIP3    H126904   5.058   1.400   1.657
 8980TIP3    H226905   4.985   1.282   1.598
 8981TIP3   OH226906   1.405   0.803   0.967
 8981TIP3    H126907   1.353   0.749   0.908
 8981TIP3    H226908   1.488   0.816   0.921
 8982TIP3   OH226909   1.712   4.192   3.129
 8982TIP3    H126910   1.775   4.121   3.140
 8982TIP3    H226911   1.757   4.255   3.072
 8983TIP3   OH226912   6.561   3.794   1.361
 8983TIP3    H126913   6.576   3.729   1.429
 8983TIP3    H226914   6.471   3.778   1.331
 8984TIP3   OH226915   4.056   6.462   4.887
 8984TIP3    H126916   4.091   6.374   4.885
 8984TIP3    H226917   3.992   6.464   4.816
 8985TIP3   OH226918   5.432   1.530   5.645
 8985TIP3    H126919   5.477   1.546   5.563
 8985TIP3    H226920   5.350   1.487   5.619
 8986TIP3   OH226921   3.532   2.294   0.920
 8986TIP3    H126922   3.594   2.345   0.972
 8986TIP3    H226923   3.446   2.330   0.943
 8987TIP3   OH226924   1.731   6.053   3.207
 8987TIP3    H126925   1.825   6.035   3.205
 8987TIP3    H226926   1.718   6.123   3.143
 8988TIP3   OH226927   0.613   3.982   1.265
 8988TIP3    H126928   0.530   3.934   1.275
 8988TIP3    H226929   0.660   3.935   1.196
 8989TIP3   OH226930   3.347   0.160   2.732
 8989TIP3    H126931   3.294   0.136   2.808
 8989TIP3    H226932   3.315   0.248   2.708
 8990TIP3   OH226933   2.745   0.756   4.820
 8990TIP3    H126934   2.754   0.848   4.845
 8990TIP3    H226935   2.651   0.742   4.812
 8991TIP3   OH226936   6.008   3.578   0.601
 8991TIP3    H126937   6.024   3.631   0.522
 8991TIP3    H226938   5.975   3.640   0.665
 8992TIP3   OH226939   6.088   2.970   3.620
 8992TIP3    H126940   6.010   3.018   3.647
 8992TIP3    H226941   6.151   3.038   3.595
 8993TIP3   OH226942   3.584   3.726   2.928
 8993TIP3    H126943   3.603   3.632   2.923
 8993TIP3    H226944   3.662   3.765   2.967
 8994TIP3   OH226945   1.608   4.136   4.905
 8994TIP3    H126946   1.658   4.112   4.827
 8994TIP3    H226947   1.596   4.053   4.951
 8995TIP3   OH226948   0.383   0.756   4.751
 8995TIP3    H126949   0.459   0.795   4.708
 8995TIP3    H226950   0.388   0.787   4.841
 8996TIP3   OH226951   1.843   4.395   3.854
 8996TIP3    H126952   1.926   4.440   3.874
 8996TIP3    H226953   1.803   4.450   3.787
 8997TIP3   OH226954   4.258   0.787   0.907
 8997TIP3    H126955   4.244   0.816   0.817
 8997TIP3    H226956   4.268   0.868   0.957
 8998TIP3   OH226957   7.002   1.251   5.638
 8998TIP3    H126958   6.969   1.331   5.596
 8998TIP3    H226959   7.097   1.263   5.639
 8999TIP3   OH226960   6.326   1.862   1.219
 8999TIP3    H126961   6.325   1.947   1.263
 8999TIP3    H226962   6.288   1.880   1.133
 9000TIP3   OH226963   0.020   6.591   1.437
 9000TIP3    H126964  -0.063   6.543   1.437
 9000TIP3    H226965   0.056   6.575   1.350
 9001TIP3   OH226966   1.881   2.605   1.316
 9001TIP3    H126967   1.802   2.609   1.262
 9001TIP3    H226968   1.875   2.522   1.363
 9002TIP3   OH226969   2.491   1.738   0.652
 9002TIP3    H126970   2.499   1.670   0.719
 9002TIP3    H226971   2.412   1.715   0.603
 9003TIP3   OH226972   1.049   2.402   5.026
 9003TIP3    H126973   0.988   2.359   5.086
 9003TIP3    H226974   1.091   2.329   4.979
 9004TIP3   OH226975   3.869   1.653   5.808
 9004TIP3    H126976   3.906   1.670   5.722
 9004TIP3    H226977   3.860   1.739   5.849
 9005TIP3   OH226978   4.541   5.697   2.695
 9005TIP3    H126979   4.496   5.614   2.714
 9005TIP3    H226980   4.504   5.724   2.611
 9006TIP3   OH226981   2.812   4.475   2.245
 9006TIP3    H126982   2.817   4.421   2.324
 9006TIP3    H226983   2.889   4.449   2.194
 9007TIP3   OH226984   5.452   0.917   5.680
 9007TIP3    H126985   5.479   0.938   5.591
 9007TIP3    H226986   5.407   0.995   5.712
 9008TIP3   OH226987   1.136   2.743   0.194
 9008TIP3    H126988   1.102   2.694   0.120
 9008TIP3    H226989   1.059   2.758   0.250
 9009TIP3   OH226990   6.351   4.549   1.811
 9009TIP3    H126991   6.423   4.486   1.818
 9009TIP3    H226992   6.352   4.577   1.720
 9010TIP3   OH226993   3.325   4.273   2.398
 9010TIP3    H126994   3.370   4.315   2.324
 9010TIP3    H226995   3.248   4.327   2.413
 9011TIP3   OH226996   0.698   1.431   5.111
 9011TIP3    H126997   0.673   1.398   5.025
 9011TIP3    H226998   0.682   1.525   5.106
 9012TIP3   OH226999   5.136   6.257   2.154
 9012TIP3    H127000   5.154   6.331   2.096
 9012TIP3    H227001   5.090   6.296   2.229
 9013TIP3   OH227002   3.983   4.471   5.447
 9013TIP3    H127003   3.967   4.564   5.458
 9013TIP3    H227004   3.912   4.441   5.389
 9014TIP3   OH227005   6.710   3.818   5.259
 9014TIP3    H127006   6.697   3.726   5.233
 9014TIP3    H227007   6.627   3.842   5.301
 9015TIP3   OH227008   0.594   0.910   3.885
 9015TIP3    H127009   0.544   0.963   3.947
 9015TIP3    H227010   0.683   0.945   3.889
 9016TIP3   OH227011   2.584   5.680   1.594
 9016TIP3    H127012   2.654   5.728   1.637
 9016TIP3    H227013   2.522   5.660   1.664
 9017TIP3   OH227014   6.121   0.419   4.173
 9017TIP3    H127015   6.031   0.393   4.155
 9017TIP3    H227016   6.121   0.443   4.266
 9018TIP3   OH227017   0.051   2.546   4.084
 9018TIP3    H127018   0.091   2.611   4.141
 9018TIP3    H227019  -0.016   2.594   4.036
 9019TIP3   OH227020   5.594   1.055   4.158
 9019TIP3    H127021   5.566   1.111   4.086
 9019TIP3    H227022   5.534   0.981   4.156
 9020TIP3   OH227023   0.943   6.305   3.744
 9020TIP3    H127024   0.923   6.368   3.813
 9020TIP3    H227025   0.858   6.283   3.705
 9021TIP3   OH227026   3.947   5.942   2.539
 9021TIP3    H127027   3.917   5.962   2.627
 9021TIP3    H227028   3.896   6.000   2.483
 9022TIP3   OH227029   5.276   6.288   1.739
 9022TIP3    H127030   5.249   6.271   1.829
 9022TIP3    H227031   5.246   6.378   1.722
 9023TIP3   OH227032   5.564   2.205   3.089
 9023TIP3    H127033   5.563   2.269   3.160
 9023TIP3    H227034   5.489   2.148   3.106
 9024TIP3   OH227035   1.913   6.844   5.818
 9024TIP3    H127036   1.943   6.802   5.737
 9024TIP3    H227037   1.844   6.786   5.851
 9025TIP3   OH227038   6.826   3.966   2.572
 9025TIP3    H127039   6.797   3.907   2.642
 9025TIP3    H227040   6.809   3.917   2.492
 9026TIP3   OH227041   2.910   4.132   3.414
 9026TIP3    H127042   2.941   4.186   3.341
 9026TIP3    H227043   2.984   4.076   3.436
 9027TIP3   OH227044   2.262   1.012   4.432
 9027TIP3    H127045   2.215   0.954   4.492
 9027TIP3    H227046   2.324   1.059   4.488
 9028TIP3   OH227047   4.243   3.609   1.944
 9028TIP3    H127048   4.203   3.676   2.000
 9028TIP3    H227049   4.172   3.577   1.890
 9029TIP3   OH227050   7.095   3.493   3.002
 9029TIP3    H127051   7.083   3.434   2.928
 9029TIP3    H227052   7.014   3.544   3.006
 9030TIP3   OH227053   7.135   0.011   4.278
 9030TIP3    H127054   7.072  -0.058   4.299
 9030TIP3    H227055   7.086   0.092   4.287
 9031TIP3   OH227056   1.046   5.084   3.226
 9031TIP3    H127057   0.987   5.106   3.154
 9031TIP3    H227058   1.131   5.117   3.198
 9032TIP3   OH227059   5.030   2.639   3.393
 9032TIP3    H127060   4.938   2.658   3.409
 9032TIP3    H227061   5.029   2.555   3.346
 9033TIP3   OH227062   3.926   2.055   3.622
 9033TIP3    H127063   3.903   2.054   3.530
 9033TIP3    H227064   4.013   2.014   3.626
 9034TIP3   OH227065   7.133   4.178   5.082
 9034TIP3    H127066   7.209   4.214   5.035
 9034TIP3    H227067   7.069   4.249   5.082
 9035TIP3   OH227068   2.869   5.703   4.069
 9035TIP3    H127069   2.929   5.633   4.092
 9035TIP3    H227070   2.817   5.718   4.148
 9036TIP3   OH227071   5.239   5.751   4.338
 9036TIP3    H127072   5.167   5.691   4.317
 9036TIP3    H227073   5.271   5.721   4.423
 9037TIP3   OH227074   0.304  -0.030   1.425
 9037TIP3    H127075   0.228   0.028   1.434
 9037TIP3    H227076   0.378   0.030   1.415
 9038TIP3   OH227077   0.716   1.896   2.324
 9038TIP3    H127078   0.656   1.932   2.259
 9038TIP3    H227079   0.716   1.960   2.395
 9039TIP3   OH227080   5.022   1.504   1.254
 9039TIP3    H127081   5.053   1.548   1.332
 9039TIP3    H227082   5.059   1.554   1.181
 9040TIP3   OH227083   5.102   1.569   5.103
 9040TIP3    H127084   5.050   1.645   5.075
 9040TIP3    H227085   5.103   1.512   5.026
 9041TIP3   OH227086   2.136   2.369   4.243
 9041TIP3    H127087   2.065   2.324   4.196
 9041TIP3    H227088   2.091   2.438   4.292
 9042TIP3   OH227089   1.628   5.837   0.868
 9042TIP3    H127090   1.693   5.844   0.797
 9042TIP3    H227091   1.568   5.769   0.838
 9043TIP3   OH227092   5.653   3.465   5.477
 9043TIP3    H127093   5.676   3.382   5.518
 9043TIP3    H227094   5.668   3.531   5.545
 9044TIP3   OH227095   0.385   1.102   0.155
 9044TIP3    H127096   0.308   1.049   0.135
 9044TIP3    H227097   0.458   1.041   0.149
 9045TIP3   OH227098   0.719   1.744   5.224
 9045TIP3    H127099   0.677   1.773   5.305
 9045TIP3    H227100   0.647   1.738   5.161
 9046TIP3   OH227101   3.326   2.548   5.810
 9046TIP3    H127102   3.351   2.619   5.751
 9046TIP3    H227103   3.323   2.470   5.755
 9047TIP3   OH227104   4.115   5.729   5.838
 9047TIP3    H127105   4.100   5.639   5.810
 9047TIP3    H227106   4.173   5.721   5.914
 9048TIP3   OH227107   1.232   4.252   5.473
 9048TIP3    H127108   1.165   4.261   5.541
 9048TIP3    H227109   1.277   4.170   5.494
 9049TIP3   OH227110   6.749   6.283   5.883
 9049TIP3    H127111   6.701   6.319   5.958
 9049TIP3    H227112   6.819   6.346   5.867
 9050TIP3   OH227113   3.243   6.385   1.953
 9050TIP3    H127114   3.315   6.359   1.897
 9050TIP3    H227115   3.164   6.364   1.902
 9051TIP3   OH227116   0.458   4.537   3.052
 9051TIP3    H127117   0.503   4.503   3.130
 9051TIP3    H227118   0.502   4.494   2.979
 9052TIP3   OH227119   2.317   2.180   0.317
 9052TIP3    H127120   2.284   2.159   0.230
 9052TIP3    H227121   2.347   2.271   0.310
 9053TIP3   OH227122   0.977   6.699   2.735
 9053TIP3    H127123   0.895   6.650   2.737
 9053TIP3    H227124   0.952   6.788   2.708
 9054TIP3   OH227125   5.268   3.061   2.941
 9054TIP3    H127126   5.363   3.068   2.927
 9054TIP3    H227127   5.237   3.152   2.939
 9055TIP3   OH227128   0.758   6.158   1.243
 9055TIP3    H127129   0.709   6.186   1.320
 9055TIP3    H227130   0.840   6.207   1.248
 9056TIP3   OH227131   3.820   0.815   1.071
 9056TIP3    H127132   3.873   0.866   1.132
 9056TIP3    H227133   3.773   0.753   1.127
 9057TIP3   OH227134   1.755   3.451   5.678
 9057TIP3    H127135   1.729   3.368   5.717
 9057TIP3    H227136   1.845   3.465   5.707
 9058TIP3   OH227137  -0.059   4.918   4.972
 9058TIP3    H127138  -0.086   4.863   4.899
 9058TIP3    H227139   0.035   4.929   4.960
 9059TIP3   OH227140   6.674   1.790   1.316
 9059TIP3    H127141   6.584   1.804   1.285
 9059TIP3    H227142   6.721   1.869   1.289
 9060TIP3   OH227143   3.862   6.272   1.334
 9060TIP3    H127144   3.927   6.337   1.362
 9060TIP3    H227145   3.782   6.323   1.319
 9061TIP3   OH227146   1.774   3.443   0.613
 9061TIP3    H127147   1.684   3.431   0.643
 9061TIP3    H227148   1.807   3.355   0.600
 9062TIP3   OH227149   6.777   3.466   2.001
 9062TIP3    H127150   6.729   3.458   1.919
 9062TIP3    H227151   6.868   3.481   1.976
 9063TIP3   OH227152   5.620   4.376   5.882
 9063TIP3    H127153   5.666   4.425   5.814
 9063TIP3    H227154   5.558   4.439   5.919
 9064TIP3   OH227155   5.962   2.750   4.482
 9064TIP3    H127156   5.905   2.760   4.406
 9064TIP3    H227157   5.999   2.837   4.496
 9065TIP3   OH227158   2.707   6.009   5.323
 9065TIP3    H127159   2.707   5.984   5.415
 9065TIP3    H227160   2.709   5.926   5.276
 9066TIP3   OH227161   0.334   3.320   5.248
 9066TIP3    H127162   0.278   3.261   5.198
 9066TIP3    H227163   0.390   3.261   5.299
 9067TIP3   OH227164   2.935   4.720   2.082
 9067TIP3    H127165   2.965   4.736   1.993
 9067TIP3    H227166   2.924   4.625   2.087
 9068TIP3   OH227167   4.243   0.562   1.864
 9068TIP3    H127168   4.283   0.647   1.884
 9068TIP3    H227169   4.316   0.507   1.837
 9069TIP3   OH227170   1.461   4.722   4.925
 9069TIP3    H127171   1.392   4.765   4.975
 9069TIP3    H227172   1.416   4.678   4.853
 9070TIP3   OH227173   2.349   2.474   4.074
 9070TIP3    H127174   2.333   2.403   4.012
 9070TIP3    H227175   2.291   2.454   4.148
 9071TIP3   OH227176   2.130   0.089   3.915
 9071TIP3    H127177   2.037   0.108   3.898
 9071TIP3    H227178   2.143   0.115   4.006
 9072TIP3   OH227179   3.974   1.652   1.942
 9072TIP3    H127180   3.935   1.565   1.933
 9072TIP3    H227181   4.019   1.667   1.859
 9073TIP3   OH227182   6.141   3.924   0.786
 9073TIP3    H127183   6.119   3.831   0.793
 9073TIP3    H227184   6.188   3.944   0.866
 9074TIP3   OH227185   3.663   5.747   1.583
 9074TIP3    H127186   3.635   5.831   1.546
 9074TIP3    H227187   3.702   5.769   1.667
 9075TIP3   OH227188   4.146   5.641   1.201
 9075TIP3    H127189   4.154   5.673   1.291
 9075TIP3    H227190   4.053   5.651   1.181
 9076TIP3   OH227191   2.396   4.017   4.943
 9076TIP3    H127192   2.305   4.032   4.968
 9076TIP3    H227193   2.432   4.105   4.933
 9077TIP3   OH227194   6.424   3.582   5.087
 9077TIP3    H127195   6.447   3.514   5.149
 9077TIP3    H227196   6.458   3.663   5.126
 9078TIP3   OH227197   4.383   2.658   2.472
 9078TIP3    H127198   4.421   2.582   2.517
 9078TIP3    H227199   4.458   2.717   2.458
 9079TIP3   OH227200   2.648   6.244   2.168
 9079TIP3    H127201   2.717   6.183   2.193
 9079TIP3    H227202   2.589   6.192   2.114
 9080TIP3   OH227203   6.608   5.289   5.578
 9080TIP3    H127204   6.624   5.199   5.604
 9080TIP3    H227205   6.695   5.325   5.561
 9081TIP3   OH227206   6.173   3.426   3.996
 9081TIP3    H127207   6.239   3.453   4.059
 9081TIP3    H227208   6.091   3.429   4.045
 9082TIP3   OH227209   2.933   1.096   2.402
 9082TIP3    H127210   3.013   1.056   2.437
 9082TIP3    H227211   2.914   1.045   2.322
 9083TIP3   OH227212   0.369   3.480   2.160
 9083TIP3    H127213   0.429   3.476   2.235
 9083TIP3    H227214   0.297   3.535   2.190
 9084TIP3   OH227215   1.889   5.781   5.124
 9084TIP3    H127216   1.814   5.747   5.173
 9084TIP3    H227217   1.861   5.867   5.094
 9085TIP3   OH227218   1.876   4.913   2.668
 9085TIP3    H127219   1.868   4.819   2.649
 9085TIP3    H227220   1.835   4.955   2.592
 9086TIP3   OH227221   1.118   4.054   5.260
 9086TIP3    H127222   1.100   4.135   5.212
 9086TIP3    H227223   1.095   4.075   5.351
 9087TIP3   OH227224   0.330   6.654   0.609
 9087TIP3    H127225   0.296   6.743   0.604
 9087TIP3    H227226   0.259   6.599   0.574
 9088TIP3   OH227227   1.427   2.695   0.846
 9088TIP3    H127228   1.457   2.674   0.757
 9088TIP3    H227229   1.332   2.680   0.843
 9089TIP3   OH227230   3.379   5.623   2.957
 9089TIP3    H127231   3.460   5.575   2.938
 9089TIP3    H227232   3.375   5.626   3.052
 9090TIP3   OH227233   1.559   6.082   5.585
 9090TIP3    H127234   1.618   6.126   5.524
 9090TIP3    H227235   1.562   6.136   5.664
 9091TIP3   OH227236   1.655   3.863   4.740
 9091TIP3    H127237   1.589   3.824   4.798
 9091TIP3    H227238   1.607   3.928   4.689
 9092TIP3   OH227239   2.391   0.574   4.334
 9092TIP3    H127240   2.335   0.630   4.279
 9092TIP3    H227241   2.360   0.590   4.423
 9093TIP3   OH227242   4.608   1.755   5.852
 9093TIP3    H127243   4.576   1.665   5.851
 9093TIP3    H227244   4.703   1.746   5.862
 9094TIP3   OH227245   2.792   0.603   1.758
 9094TIP3    H127246   2.762   0.689   1.731
 9094TIP3    H227247   2.762   0.594   1.848
 9095TIP3   OH227248   3.233   4.444   3.890
 9095TIP3    H127249   3.176   4.473   3.819
 9095TIP3    H227250   3.300   4.512   3.895
 9096TIP3   OH227251   7.128   4.910   0.987
 9096TIP3    H127252   7.088   4.995   1.005
 9096TIP3    H227253   7.059   4.846   1.004
 9097TIP3   OH227254   3.128   6.108   5.015
 9097TIP3    H127255   3.085   6.114   5.101
 9097TIP3    H227256   3.170   6.022   5.015
 9098TIP3   OH227257   6.032   1.091   5.076
 9098TIP3    H127258   6.120   1.127   5.089
 9098TIP3    H227259   6.041   1.032   5.002
 9099TIP3   OH227260   3.826   1.878   1.929
 9099TIP3    H127261   3.819   1.922   2.014
 9099TIP3    H227262   3.870   1.796   1.949
 9100TIP3   OH227263   4.157   2.880   5.635
 9100TIP3    H127264   4.070   2.883   5.674
 9100TIP3    H227265   4.206   2.948   5.680
 9101TIP3   OH227266   0.492   3.007   0.140
 9101TIP3    H127267   0.541   3.084   0.170
 9101TIP3    H227268   0.443   3.038   0.064
 9102TIP3   OH227269   6.952   6.449   4.733
 9102TIP3    H127270   6.922   6.479   4.819
 9102TIP3    H227271   6.879   6.398   4.699
 9103TIP3   OH227272   2.614   1.344   3.258
 9103TIP3    H127273   2.589   1.367   3.169
 9103TIP3    H227274   2.659   1.422   3.291
 9104TIP3   OH227275   3.246   4.312   5.451
 9104TIP3    H127276   3.176   4.373   5.425
 9104TIP3    H227277   3.309   4.367   5.497
 9105TIP3   OH227278   7.181   6.658   2.023
 9105TIP3    H127279   7.227   6.686   2.102
 9105TIP3    H227280   7.124   6.731   2.001
 9106TIP3   OH227281   6.433   3.150   4.091
 9106TIP3    H127282   6.408   3.232   4.133
 9106TIP3    H227283   6.369   3.087   4.122
 9107TIP3   OH227284   1.449   6.416   0.442
 9107TIP3    H127285   1.406   6.377   0.518
 9107TIP3    H227286   1.523   6.358   0.425
 9108TIP3   OH227287   1.391   1.817   3.162
 9108TIP3    H127288   1.337   1.792   3.237
 9108TIP3    H227289   1.356   1.765   3.090
 9109TIP3   OH227290   3.276   3.526   4.429
 9109TIP3    H127291   3.245   3.436   4.441
 9109TIP3    H227292   3.371   3.520   4.439
 9110TIP3   OH227293   6.412   2.856   3.923
 9110TIP3    H127294   6.424   2.778   3.977
 9110TIP3    H227295   6.494   2.861   3.873
 9111TIP3   OH227296   3.808   2.657   0.224
 9111TIP3    H127297   3.826   2.577   0.273
 9111TIP3    H227298   3.892   2.702   0.218
 9112TIP3   OH227299   6.005   4.865   3.884
 9112TIP3    H127300   6.046   4.904   3.806
 9112TIP3    H227301   5.944   4.933   3.915
 9113TIP3   OH227302   1.883   0.355   4.343
 9113TIP3    H127303   1.898   0.268   4.380
 9113TIP3    H227304   1.818   0.395   4.401
 9114TIP3   OH227305   4.420   5.727   1.609
 9114TIP3    H127306   4.448   5.675   1.534
 9114TIP3    H227307   4.433   5.670   1.684
 9115TIP3   OH227308   4.044   0.238   2.353
 9115TIP3    H127309   4.110   0.212   2.289
 9115TIP3    H227310   3.968   0.184   2.333
 9116TIP3   OH227311   3.785   6.715   5.498
 9116TIP3    H127312   3.773   6.809   5.513
 9116TIP3    H227313   3.774   6.675   5.585
 9117TIP3   OH227314   3.087   0.075   1.789
 9117TIP3    H127315   3.140   0.090   1.711
 9117TIP3    H227316   3.090  -0.019   1.803
 9118TIP3   OH227317   4.835   4.640   5.638
 9118TIP3    H127318   4.923   4.678   5.645
 9118TIP3    H227319   4.845   4.552   5.672
 9119TIP3   OH227320   2.077   6.488   5.122
 9119TIP3    H127321   2.054   6.398   5.144
 9119TIP3    H227322   2.156   6.506   5.174
 9120TIP3   OH227323   2.596   4.754   0.650
 9120TIP3    H127324   2.512   4.761   0.697
 9120TIP3    H227325   2.591   4.823   0.584
 9121TIP3   OH227326   4.144   0.555   3.381
 9121TIP3    H127327   4.061   0.506   3.383
 9121TIP3    H227328   4.118   0.646   3.365
 9122TIP3   OH227329   6.334  -0.003   3.116
 9122TIP3    H127330   6.327   0.041   3.201
 9122TIP3    H227331   6.243  -0.021   3.091
 9123TIP3   OH227332   1.775   0.634   1.245
 9123TIP3    H127333   1.816   0.565   1.298
 9123TIP3    H227334   1.688   0.599   1.225
 9124TIP3   OH227335   5.985   0.394   5.095
 9124TIP3    H127336   5.942   0.325   5.044
 9124TIP3    H227337   5.963   0.475   5.049
 9125TIP3   OH227338   3.244   2.338   3.780
 9125TIP3    H127339   3.218   2.256   3.823
 9125TIP3    H227340   3.327   2.361   3.821
 9126TIP3   OH227341   2.236   3.046   2.855
 9126TIP3    H127342   2.312   3.089   2.894
 9126TIP3    H227343   2.244   3.064   2.761
 9127TIP3   OH227344   1.780   0.286   1.636
 9127TIP3    H127345   1.816   0.229   1.704
 9127TIP3    H227346   1.779   0.231   1.557
 9128TIP3   OH227347   6.352   4.328   3.718
 9128TIP3    H127348   6.315   4.252   3.673
 9128TIP3    H227349   6.409   4.290   3.785
 9129TIP3   OH227350   1.793   5.465   0.583
 9129TIP3    H127351   1.823   5.382   0.620
 9129TIP3    H227352   1.698   5.455   0.578
 9130TIP3   OH227353   0.783   6.536   4.121
 9130TIP3    H127354   0.710   6.499   4.170
 9130TIP3    H227355   0.832   6.588   4.185
 9131TIP3   OH227356   3.487   5.864   1.197
 9131TIP3    H127357   3.426   5.800   1.162
 9131TIP3    H227358   3.442   5.948   1.188
 9132TIP3   OH227359   0.205   4.566   0.916
 9132TIP3    H127360   0.132   4.514   0.950
 9132TIP3    H227361   0.278   4.547   0.976
 9133TIP3   OH227362   2.889   3.462   3.036
 9133TIP3    H127363   2.849   3.389   3.083
 9133TIP3    H227364   2.831   3.477   2.961
 9134TIP3   OH227365   0.086   2.314   5.066
 9134TIP3    H127366   0.170   2.323   5.020
 9134TIP3    H227367   0.110   2.311   5.159
 9135TIP3   OH227368   1.363   6.740   4.438
 9135TIP3    H127369   1.415   6.734   4.519
 9135TIP3    H227370   1.335   6.832   4.435
 9136TIP3   OH227371   2.400   5.282   0.951
 9136TIP3    H127372   2.427   5.193   0.974
 9136TIP3    H227373   2.306   5.282   0.963
 9137TIP3   OH227374   2.987   0.649   2.417
 9137TIP3    H127375   3.018   0.560   2.400
 9137TIP3    H227376   2.892   0.644   2.408
 9138TIP3   OH227377   3.537   3.217   1.863
 9138TIP3    H127378   3.450   3.178   1.856
 9138TIP3    H227379   3.574   3.209   1.775
 9139TIP3   OH227380   0.113   2.614   0.398
 9139TIP3    H127381   0.086   2.606   0.489
 9139TIP3    H227382   0.077   2.535   0.356
 9140TIP3   OH227383   6.392   3.009   5.244
 9140TIP3    H127384   6.359   3.099   5.240
 9140TIP3    H227385   6.363   2.977   5.329
 9141TIP3   OH227386   1.612   0.210   1.053
 9141TIP3    H127387   1.599   0.199   0.959
 9141TIP3    H227388   1.702   0.243   1.061
 9142TIP3   OH227389   1.489   1.631   5.315
 9142TIP3    H127390   1.514   1.723   5.305
 9142TIP3    H227391   1.509   1.611   5.407
 9143TIP3   OH227392   5.329   6.522   2.886
 9143TIP3    H127393   5.379   6.568   2.819
 9143TIP3    H227394   5.329   6.430   2.858
 9144TIP3   OH227395   6.462   3.606   2.836
 9144TIP3    H127396   6.449   3.512   2.823
 9144TIP3    H227397   6.373   3.642   2.841
 9145TIP3   OH227398   2.427   4.309   5.141
 9145TIP3    H127399   2.435   4.250   5.216
 9145TIP3    H227400   2.343   4.352   5.153
 9146TIP3   OH227401   3.586   1.982   5.221
 9146TIP3    H127402   3.514   1.934   5.263
 9146TIP3    H227403   3.629   1.917   5.165
 9147TIP3   OH227404   0.832   5.352   1.858
 9147TIP3    H127405   0.855   5.434   1.814
 9147TIP3    H227406   0.901   5.291   1.832
 9148TIP3   OH227407   1.617   6.117   1.280
 9148TIP3    H127408   1.659   6.196   1.315
 9148TIP3    H227409   1.552   6.151   1.218
 9149TIP3   OH227410   5.735   3.354   3.361
 9149TIP3    H127411   5.720   3.319   3.274
 9149TIP3    H227412   5.830   3.348   3.373
 9150TIP3   OH227413   3.190   3.128   2.981
 9150TIP3    H127414   3.137   3.077   3.041
 9150TIP3    H227415   3.233   3.194   3.036
 9151TIP3   OH227416   2.592   2.348   5.178
 9151TIP3    H127417   2.671   2.294   5.174
 9151TIP3    H227418   2.598   2.404   5.101
 9152TIP3   OH227419   5.805   2.232   3.477
 9152TIP3    H127420   5.802   2.215   3.572
 9152TIP3    H227421   5.835   2.149   3.439
 9153TIP3   OH227422   3.807   1.749   5.562
 9153TIP3    H127423   3.715   1.724   5.554
 9153TIP3    H227424   3.813   1.834   5.518
 9154TIP3   OH227425   4.122   4.524   3.968
 9154TIP3    H127426   4.033   4.552   3.949
 9154TIP3    H227427   4.177   4.594   3.934
 9155TIP3   OH227428   3.497   0.521   2.648
 9155TIP3    H127429   3.566   0.577   2.612
 9155TIP3    H227430   3.537   0.434   2.655
 9156TIP3   OH227431   2.335   6.072   4.475
 9156TIP3    H127432   2.393   6.067   4.551
 9156TIP3    H227433   2.277   6.146   4.494
 9157TIP3   OH227434   2.295   4.764   0.649
 9157TIP3    H127435   2.317   4.729   0.563
 9157TIP3    H227436   2.298   4.859   0.638
 9158TIP3   OH227437   2.842   2.856   0.638
 9158TIP3    H127438   2.809   2.914   0.570
 9158TIP3    H227439   2.782   2.781   0.638
 9159TIP3   OH227440   5.224   2.835   3.312
 9159TIP3    H127441   5.140   2.788   3.314
 9159TIP3    H227442   5.282   2.778   3.262
 9160TIP3   OH227443   4.445   2.068   0.138
 9160TIP3    H127444   4.480   1.982   0.161
 9160TIP3    H227445   4.494   2.095   0.061
 9161TIP3   OH227446   4.501   2.989   1.543
 9161TIP3    H127447   4.429   3.049   1.521
 9161TIP3    H227448   4.490   2.973   1.637
 9162TIP3   OH227449   2.237   1.442   4.571
 9162TIP3    H127450   2.229   1.456   4.477
 9162TIP3    H227451   2.233   1.529   4.609
 9163TIP3   OH227452   3.888   6.719   0.319
 9163TIP3    H127453   3.898   6.639   0.269
 9163TIP3    H227454   3.887   6.789   0.254
 9164TIP3   OH227455   3.392   5.654   3.230
 9164TIP3    H127456   3.309   5.681   3.268
 9164TIP3    H227457   3.411   5.569   3.271
 9165TIP3   OH227458   1.399   4.152   3.114
 9165TIP3    H127459   1.406   4.226   3.054
 9165TIP3    H227460   1.474   4.160   3.173
 9166TIP3   OH227461   2.558   6.576   2.799
 9166TIP3    H127462   2.635   6.562   2.853
 9166TIP3    H227463   2.543   6.671   2.802
 9167TIP3   OH227464   6.184   5.965   2.421
 9167TIP3    H127465   6.242   6.014   2.363
 9167TIP3    H227466   6.137   6.032   2.471
 9168TIP3   OH227467   0.974   4.584   1.501
 9168TIP3    H127468   1.024   4.555   1.424
 9168TIP3    H227469   1.041   4.607   1.565
 9169TIP3   OH227470   3.940   3.468   1.548
 9169TIP3    H127471   4.015   3.427   1.590
 9169TIP3    H227472   3.880   3.488   1.620
 9170TIP3   OH227473   2.563   1.793   1.910
 9170TIP3    H127474   2.505   1.859   1.948
 9170TIP3    H227475   2.637   1.789   1.971
 9171TIP3   OH227476   5.129   4.827   2.103
 9171TIP3    H127477   5.207   4.818   2.048
 9171TIP3    H227478   5.098   4.738   2.115
 9172TIP3   OH227479   2.835   6.099   1.345
 9172TIP3    H127480   2.913   6.125   1.394
 9172TIP3    H227481   2.839   6.152   1.265
 9173TIP3   OH227482   4.464   2.366   3.593
 9173TIP3    H127483   4.432   2.322   3.671
 9173TIP3    H227484   4.392   2.423   3.565
 9174TIP3   OH227485   1.899   2.108   3.388
 9174TIP3    H127486   1.826   2.155   3.428
 9174TIP3    H227487   1.866   2.077   3.304
 9175TIP3   OH227488   5.442   2.118   0.354
 9175TIP3    H127489   5.360   2.073   0.332
 9175TIP3    H227490   5.490   2.056   0.408
 9176TIP3   OH227491   3.977   3.862   4.691
 9176TIP3    H127492   3.904   3.802   4.704
 9176TIP3    H227493   4.026   3.860   4.773
 9177TIP3   OH227494   6.379   5.619   3.450
 9177TIP3    H127495   6.334   5.692   3.407
 9177TIP3    H227496   6.311   5.572   3.496
 9178TIP3   OH227497   4.777   2.539   3.205
 9178TIP3    H127498   4.707   2.482   3.174
 9178TIP3    H227499   4.829   2.484   3.264
 9179TIP3   OH227500   2.007   0.674   0.213
 9179TIP3    H127501   1.988   0.672   0.120
 9179TIP3    H227502   1.992   0.585   0.243
 9180TIP3   OH227503   0.256   3.656   1.407
 9180TIP3    H127504   0.284   3.615   1.489
 9180TIP3    H227505   0.161   3.664   1.414
 9181TIP3   OH227506   5.061   2.713   0.558
 9181TIP3    H127507   5.018   2.740   0.639
 9181TIP3    H227508   5.101   2.793   0.524
 9182TIP3   OH227509   6.735   5.110   4.907
 9182TIP3    H127510   6.826   5.104   4.935
 9182TIP3    H227511   6.686   5.128   4.987
 9183TIP3   OH227512   6.685   0.079   0.886
 9183TIP3    H127513   6.652  -0.002   0.926
 9183TIP3    H227514   6.780   0.066   0.881
 9184TIP3   OH227515   4.740   0.149   5.777
 9184TIP3    H127516   4.831   0.172   5.755
 9184TIP3    H227517   4.714   0.214   5.842
 9185TIP3   OH227518   5.070   0.364   1.737
 9185TIP3    H127519   5.040   0.318   1.659
 9185TIP3    H227520   5.038   0.454   1.726
 9186TIP3   OH227521   2.359   2.145   1.652
 9186TIP3    H127522   2.291   2.188   1.704
 9186TIP3    H227523   2.313   2.114   1.574
 9187TIP3   OH227524   3.597   4.890   4.854
 9187TIP3    H127525   3.543   4.964   4.828
 9187TIP3    H227526   3.686   4.914   4.827
 9188TIP3   OH227527   3.920   6.115   3.116
 9188TIP3    H127528   3.938   6.148   3.204
 9188TIP3    H227529   3.885   6.027   3.130
 9189TIP3   OH227530   1.431   0.673   1.716
 9189TIP3    H127531   1.409   0.765   1.698
 9189TIP3    H227532   1.457   0.673   1.808
 9190TIP3   OH227533   2.608   2.200   1.901
 9190TIP3    H127534   2.634   2.292   1.891
 9190TIP3    H227535   2.679   2.160   1.951
 9191TIP3   OH227536   2.727   1.687   3.707
 9191TIP3    H127537   2.730   1.627   3.782
 9191TIP3    H227538   2.801   1.660   3.652
 9192TIP3   OH227539   4.430   6.434   2.188
 9192TIP3    H127540   4.475   6.518   2.194
 9192TIP3    H227541   4.395   6.419   2.275
 9193TIP3   OH227542   2.284   4.378   3.622
 9193TIP3    H127543   2.341   4.316   3.668
 9193TIP3    H227544   2.337   4.458   3.614
 9194TIP3   OH227545   4.706   1.493   1.232
 9194TIP3    H127546   4.627   1.504   1.180
 9194TIP3    H227547   4.723   1.579   1.269
 9195TIP3   OH227548   1.480   6.677   1.524
 9195TIP3    H127549   1.514   6.763   1.499
 9195TIP3    H227550   1.552   6.636   1.572
 9196TIP3   OH227551   5.681   6.729   4.231
 9196TIP3    H127552   5.704   6.811   4.276
 9196TIP3    H227553   5.596   6.746   4.192
 9197TIP3   OH227554   2.044   1.387   3.310
 9197TIP3    H127555   2.022   1.296   3.289
 9197TIP3    H227556   2.039   1.433   3.226
 9198TIP3   OH227557   3.051   3.347   5.369
 9198TIP3    H127558   3.080   3.385   5.286
 9198TIP3    H227559   3.001   3.417   5.411
 9199TIP3   OH227560   2.701   5.326   0.827
 9199TIP3    H127561   2.623   5.301   0.777
 9199TIP3    H227562   2.712   5.257   0.891
 9200TIP3   OH227563   3.263   6.070   2.401
 9200TIP3    H127564   3.205   6.142   2.378
 9200TIP3    H227565   3.326   6.066   2.329
 9201TIP3   OH227566   6.717   2.899   5.616
 9201TIP3    H127567   6.766   2.980   5.601
 9201TIP3    H227568   6.782   2.837   5.649
 9202TIP3   OH227569   4.800   1.920   4.048
 9202TIP3    H127570   4.797   1.974   3.968
 9202TIP3    H227571   4.785   1.983   4.119
 9203TIP3   OH227572   5.228   2.954   4.278
 9203TIP3    H127573   5.275   2.938   4.196
 9203TIP3    H227574   5.201   2.867   4.307
 9204TIP3   OH227575   0.328   2.532   4.250
 9204TIP3    H127576   0.259   2.598   4.249
 9204TIP3    H227577   0.407   2.580   4.276
 9205TIP3   OH227578   4.215   0.178   2.160
 9205TIP3    H127579   4.189   0.103   2.105
 9205TIP3    H227580   4.166   0.252   2.123
 9206TIP3   OH227581   6.830   3.723   4.849
 9206TIP3    H127582   6.824   3.817   4.829
 9206TIP3    H227583   6.754   3.685   4.805
 9207TIP3   OH227584   5.439   1.221   1.248
 9207TIP3    H127585   5.508   1.208   1.183
 9207TIP3    H227586   5.376   1.150   1.232
 9208TIP3   OH227587   0.469   2.474   5.301
 9208TIP3    H127588   0.437   2.552   5.346
 9208TIP3    H227589   0.553   2.500   5.265
 9209TIP3   OH227590   6.798   1.219   2.321
 9209TIP3    H127591   6.884   1.211   2.280
 9209TIP3    H227592   6.752   1.138   2.298
 9210TIP3   OH227593   2.327   3.484   0.643
 9210TIP3    H127594   2.251   3.541   0.655
 9210TIP3    H227595   2.292   3.395   0.647
 9211TIP3   OH227596   2.236   6.724   2.652
 9211TIP3    H127597   2.212   6.632   2.660
 9211TIP3    H227598   2.166   6.762   2.597
 9212TIP3   OH227599   4.461   4.945   3.605
 9212TIP3    H127600   4.534   4.928   3.664
 9212TIP3    H227601   4.428   5.031   3.631
 9213TIP3   OH227602   1.178   3.384   0.387
 9213TIP3    H127603   1.214   3.440   0.318
 9213TIP3    H227604   1.112   3.331   0.343
 9214TIP3   OH227605   3.658   3.462   2.419
 9214TIP3    H127606   3.622   3.389   2.369
 9214TIP3    H227607   3.731   3.494   2.367
 9215TIP3   OH227608   3.165   0.403   2.166
 9215TIP3    H127609   3.231   0.469   2.142
 9215TIP3    H227610   3.203   0.320   2.138
 9216TIP3   OH227611   3.181   0.774   2.149
 9216TIP3    H127612   3.248   0.714   2.117
 9216TIP3    H227613   3.098   0.732   2.126
 9217TIP3   OH227614   6.498   0.985   4.029
 9217TIP3    H127615   6.562   0.997   3.959
 9217TIP3    H227616   6.551   0.971   4.107
 9218TIP3   OH227617   2.300   5.640   3.168
 9218TIP3    H127618   2.236   5.634   3.239
 9218TIP3    H227619   2.352   5.717   3.190
 9219TIP3   OH227620   1.911   1.935   0.299
 9219TIP3    H127621   1.829   1.968   0.336
 9219TIP3    H227622   1.885   1.856   0.251
 9220TIP3   OH227623   0.926   0.619   2.821
 9220TIP3    H127624   0.841   0.575   2.812
 9220TIP3    H227625   0.917   0.674   2.898
 9221TIP3   OH227626   2.773   6.270   2.446
 9221TIP3    H127627   2.700   6.251   2.504
 9221TIP3    H227628   2.736   6.330   2.380
 9222TIP3   OH227629   2.906   3.264   2.102
 9222TIP3    H127630   2.877   3.192   2.158
 9222TIP3    H227631   2.992   3.237   2.071
 9223TIP3   OH227632   3.384   3.779   3.391
 9223TIP3    H127633   3.418   3.700   3.350
 9223TIP3    H227634   3.413   3.773   3.482
 9224TIP3   OH227635   2.330   5.300   3.168
 9224TIP3    H127636   2.344   5.308   3.074
 9224TIP3    H227637   2.318   5.390   3.198
 9225TIP3   OH227638   2.573   4.914   0.431
 9225TIP3    H127639   2.639   4.975   0.398
 9225TIP3    H227640   2.507   4.911   0.362
 9226TIP3   OH227641   4.254   4.001   2.238
 9226TIP3    H127642   4.269   4.094   2.258
 9226TIP3    H227643   4.159   3.993   2.234
 9227TIP3   OH227644   5.224   0.510   4.624
 9227TIP3    H127645   5.142   0.470   4.596
 9227TIP3    H227646   5.278   0.513   4.545
 9228TIP3   OH227647   5.549   4.994   3.940
 9228TIP3    H127648   5.536   4.928   3.872
 9228TIP3    H227649   5.626   5.044   3.911
 9229TIP3   OH227650   5.719   3.234   3.116
 9229TIP3    H127651   5.804   3.222   3.074
 9229TIP3    H227652   5.656   3.235   3.044
 9230TIP3   OH227653   4.768   4.546   1.768
 9230TIP3    H127654   4.734   4.605   1.836
 9230TIP3    H227655   4.863   4.556   1.772
 9231TIP3   OH227656   7.225   5.754   1.728
 9231TIP3    H127657   7.146   5.807   1.719
 9231TIP3    H227658   7.256   5.771   1.817
 9232TIP3   OH227659   4.288   0.854   3.190
 9232TIP3    H127660   4.231   0.830   3.262
 9232TIP3    H227661   4.376   0.851   3.226
 9233TIP3   OH227662   2.816   0.465   5.112
 9233TIP3    H127663   2.853   0.530   5.052
 9233TIP3    H227664   2.845   0.380   5.077
 9234TIP3   OH227665   3.168   3.228   4.548
 9234TIP3    H127666   3.096   3.232   4.485
 9234TIP3    H227667   3.138   3.166   4.615
 9235TIP3   OH227668   0.802   1.436   4.797
 9235TIP3    H127669   0.805   1.506   4.863
 9235TIP3    H227670   0.737   1.375   4.830
 9236TIP3   OH227671   5.978   3.786   5.471
 9236TIP3    H127672   5.922   3.781   5.393
 9236TIP3    H227673   5.917   3.776   5.544
 9237TIP3   OH227674   6.675   3.769   1.070
 9237TIP3    H127675   6.649   3.749   1.160
 9237TIP3    H227676   6.669   3.864   1.064
 9238TIP3   OH227677   0.514   2.392   4.054
 9238TIP3    H127678   0.554   2.476   4.078
 9238TIP3    H227679   0.473   2.408   3.970
 9239TIP3   OH227680   3.438   0.256   1.943
 9239TIP3    H127681   3.416   0.245   1.850
 9239TIP3    H227682   3.476   0.344   1.948
 9240TIP3   OH227683   3.043   0.742   3.387
 9240TIP3    H127684   3.013   0.760   3.476
 9240TIP3    H227685   3.052   0.828   3.346
 9241TIP3   OH227686   4.499   2.672   0.047
 9241TIP3    H127687   4.442   2.743   0.018
 9241TIP3    H227688   4.588   2.705   0.034
 9242TIP3   OH227689   0.565   3.011   3.176
 9242TIP3    H127690   0.608   3.074   3.117
 9242TIP3    H227691   0.634   2.948   3.197
 9243TIP3   OH227692   1.886   2.104   1.411
 9243TIP3    H127693   1.834   2.027   1.432
 9243TIP3    H227694   1.886   2.108   1.315
 9244TIP3   OH227695   5.952   1.509   5.322
 9244TIP3    H127696   6.003   1.434   5.353
 9244TIP3    H227697   6.018   1.571   5.291
 9245TIP3   OH227698   2.583   6.351   5.072
 9245TIP3    H127699   2.511   6.288   5.077
 9245TIP3    H227700   2.658   6.299   5.044
 9246TIP3   OH227701   4.896   5.454   2.049
 9246TIP3    H127702   4.858   5.422   1.967
 9246TIP3    H227703   4.876   5.548   2.049
 9247TIP3   OH227704   0.973   2.068   3.906
 9247TIP3    H127705   0.973   2.141   3.844
 9247TIP3    H227706   0.892   2.079   3.957
 9248TIP3   OH227707   6.949   3.580   1.674
 9248TIP3    H127708   6.915   3.491   1.679
 9248TIP3    H227709   6.948   3.611   1.765
 9249TIP3   OH227710   6.346   4.824   4.730
 9249TIP3    H127711   6.437   4.813   4.702
 9249TIP3    H227712   6.347   4.902   4.786
 9250TIP3   OH227713   0.089   4.332   3.263
 9250TIP3    H127714   0.143   4.272   3.314
 9250TIP3    H227715   0.152   4.379   3.207
 9251TIP3   OH227716   0.944   5.324   5.290
 9251TIP3    H127717   0.853   5.339   5.267
 9251TIP3    H227718   0.993   5.344   5.210
 9252TIP3   OH227719   3.080   0.381   2.412
 9252TIP3    H127720   3.106   0.369   2.320
 9252TIP3    H227721   3.005   0.322   2.423
 9253TIP3   OH227722   2.665   4.022   3.320
 9253TIP3    H127723   2.731   4.062   3.378
 9253TIP3    H227724   2.655   3.933   3.353
 9254TIP3   OH227725   6.159   3.685   2.347
 9254TIP3    H127726   6.164   3.590   2.359
 9254TIP3    H227727   6.154   3.720   2.436
 9255TIP3   OH227728   6.673   6.488   5.233
 9255TIP3    H127729   6.648   6.508   5.323
 9255TIP3    H227730   6.683   6.393   5.232
 9256TIP3   OH227731   0.837   3.267   4.287
 9256TIP3    H127732   0.773   3.264   4.215
 9256TIP3    H227733   0.820   3.352   4.329
 9257TIP3   OH227734   0.400   2.698   1.831
 9257TIP3    H127735   0.371   2.770   1.887
 9257TIP3    H227736   0.326   2.682   1.773
 9258TIP3   OH227737   4.264   4.721   1.595
 9258TIP3    H127738   4.324   4.746   1.665
 9258TIP3    H227739   4.259   4.799   1.539
 9259TIP3   OH227740   5.350   6.377   3.686
 9259TIP3    H127741   5.267   6.333   3.701
 9259TIP3    H227742   5.367   6.366   3.592
 9260TIP3   OH227743   1.719   0.210   5.545
 9260TIP3    H127744   1.685   0.232   5.632
 9260TIP3    H227745   1.754   0.292   5.511
 9261TIP3   OH227746   3.461   3.493   2.622
 9261TIP3    H127747   3.536   3.478   2.680
 9261TIP3    H227748   3.498   3.490   2.534
 9262TIP3   OH227749   5.547   1.510   5.395
 9262TIP3    H127750   5.558   1.541   5.306
 9262TIP3    H227751   5.494   1.430   5.386
 9263TIP3   OH227752   3.506   2.520   1.796
 9263TIP3    H127753   3.556   2.594   1.830
 9263TIP3    H227754   3.537   2.509   1.706
 9264TIP3   OH227755   0.014   2.577   1.454
 9264TIP3    H127756  -0.038   2.655   1.435
 9264TIP3    H227757   0.104   2.601   1.431
 9265TIP3   OH227758   2.887   5.128   3.453
 9265TIP3    H127759   2.896   5.178   3.372
 9265TIP3    H227760   2.861   5.041   3.424
 9266TIP3   OH227761   0.144   6.019   5.158
 9266TIP3    H127762   0.124   5.973   5.076
 9266TIP3    H227763   0.089   5.976   5.224
 9267TIP3   OH227764   7.110   3.628   0.654
 9267TIP3    H127765   7.026   3.589   0.676
 9267TIP3    H227766   7.175   3.560   0.677
 9268TIP3   OH227767   0.729   3.734   3.286
 9268TIP3    H127768   0.732   3.642   3.314
 9268TIP3    H227769   0.816   3.751   3.250
 9269TIP3   OH227770   6.381   2.461   1.784
 9269TIP3    H127771   6.418   2.388   1.734
 9269TIP3    H227772   6.356   2.424   1.868
 9270TIP3   OH227773   7.200   1.034   1.751
 9270TIP3    H127774   7.152   0.969   1.803
 9270TIP3    H227775   7.143   1.053   1.677
 9271TIP3   OH227776   6.597   5.704   1.282
 9271TIP3    H127777   6.608   5.773   1.217
 9271TIP3    H227778   6.643   5.629   1.246
 9272TIP3   OH227779   6.676   4.890   3.544
 9272TIP3    H127780   6.735   4.828   3.501
 9272TIP3    H227781   6.635   4.840   3.614
 9273TIP3   OH227782   0.293   1.717   4.634
 9273TIP3    H127783   0.255   1.668   4.707
 9273TIP3    H227784   0.284   1.809   4.660
 9274TIP3   OH227785   5.207   3.347   0.685
 9274TIP3    H127786   5.247   3.379   0.604
 9274TIP3    H227787   5.129   3.301   0.656
 9275TIP3   OH227788   2.245   3.195   5.162
 9275TIP3    H127789   2.308   3.249   5.210
 9275TIP3    H227790   2.181   3.169   5.229
 9276TIP3   OH227791   5.663   0.143   4.381
 9276TIP3    H127792   5.613   0.072   4.421
 9276TIP3    H227793   5.687   0.110   4.294
 9277TIP3   OH227794   2.039   5.749   2.719
 9277TIP3    H127795   2.076   5.668   2.754
 9277TIP3    H227796   1.946   5.729   2.707
 9278TIP3   OH227797   5.431   3.048   1.184
 9278TIP3    H127798   5.511   3.017   1.228
 9278TIP3    H227799   5.376   3.079   1.256
 9279TIP3   OH227800   0.691   5.664   4.177
 9279TIP3    H127801   0.699   5.752   4.213
 9279TIP3    H227802   0.765   5.616   4.214
 9280TIP3   OH227803   6.052   3.537   4.675
 9280TIP3    H127804   6.147   3.525   4.672
 9280TIP3    H227805   6.017   3.476   4.610
 9281TIP3   OH227806   0.992   1.743   0.166
 9281TIP3    H127807   0.900   1.725   0.185
 9281TIP3    H227808   1.040   1.706   0.241
 9282TIP3   OH227809   3.934   3.904   4.328
 9282TIP3    H127810   3.966   3.991   4.304
 9282TIP3    H227811   3.963   3.891   4.418
 9283TIP3   OH227812   2.351   5.097   1.577
 9283TIP3    H127813   2.439   5.077   1.610
 9283TIP3    H227814   2.302   5.120   1.656
 9284TIP3   OH227815   3.885   0.692   2.724
 9284TIP3    H127816   3.918   0.606   2.748
 9284TIP3    H227817   3.820   0.674   2.656
 9285TIP3   OH227818   0.657   4.892   4.551
 9285TIP3    H127819   0.580   4.941   4.522
 9285TIP3    H227820   0.621   4.809   4.584
 9286TIP3   OH227821   6.664   1.774   3.960
 9286TIP3    H127822   6.720   1.815   3.895
 9286TIP3    H227823   6.576   1.804   3.938
 9287TIP3   OH227824   3.914   2.411   5.585
 9287TIP3    H127825   3.862   2.438   5.510
 9287TIP3    H227826   3.851   2.402   5.657
 9288TIP3   OH227827   1.294   5.413   5.273
 9288TIP3    H127828   1.287   5.500   5.312
 9288TIP3    H227829   1.265   5.353   5.341
 9289TIP3   OH227830   2.946   4.027   3.826
 9289TIP3    H127831   2.896   3.979   3.760
 9289TIP3    H227832   2.885   4.040   3.898
 9290TIP3   OH227833   5.168   0.273   1.990
 9290TIP3    H127834   5.095   0.240   2.043
 9290TIP3    H227835   5.127   0.333   1.928
 9291TIP3   OH227836   3.678   4.412   2.475
 9291TIP3    H127837   3.640   4.384   2.392
 9291TIP3    H227838   3.772   4.412   2.460
 9292TIP3   OH227839   6.286   3.988   1.009
 9292TIP3    H127840   6.342   4.063   1.027
 9292TIP3    H227841   6.257   3.959   1.095
 9293TIP3   OH227842   0.013   5.184   0.416
 9293TIP3    H127843   0.041   5.273   0.439
 9293TIP3    H227844   0.092   5.142   0.381
 9294TIP3   OH227845   0.157   4.661   2.338
 9294TIP3    H127846   0.180   4.752   2.317
 9294TIP3    H227847   0.235   4.626   2.380
 9295TIP3   OH227848   3.132   2.869   0.948
 9295TIP3    H127849   3.085   2.849   1.030
 9295TIP3    H227850   3.204   2.807   0.946
 9296TIP3   OH227851   3.668   4.576   1.486
 9296TIP3    H127852   3.664   4.661   1.531
 9296TIP3    H227853   3.698   4.597   1.398
 9297TIP3   OH227854   1.193   2.362   3.999
 9297TIP3    H127855   1.201   2.358   3.904
 9297TIP3    H227856   1.271   2.319   4.033
 9298TIP3   OH227857   0.403   2.730   5.385
 9298TIP3    H127858   0.313   2.723   5.416
 9298TIP3    H227859   0.436   2.811   5.424
 9299TIP3   OH227860   5.330   2.161   5.126
 9299TIP3    H127861   5.352   2.209   5.047
 9299TIP3    H227862   5.306   2.229   5.190
 9300TIP3   OH227863   2.444   3.532   0.263
 9300TIP3    H127864   2.424   3.557   0.173
 9300TIP3    H227865   2.399   3.598   0.317
 9301TIP3   OH227866   7.024   1.054   3.443
 9301TIP3    H127867   7.012   1.147   3.462
 9301TIP3    H227868   7.099   1.028   3.498
 9302TIP3   OH227869   5.248   6.721   1.785
 9302TIP3    H127870   5.231   6.755   1.873
 9302TIP3    H227871   5.203   6.637   1.782
 9303TIP3   OH227872   2.715   3.064   5.592
 9303TIP3    H127873   2.690   3.152   5.619
 9303TIP3    H227874   2.646   3.008   5.628
 9304TIP3   OH227875   2.652   6.795   5.235
 9304TIP3    H127876   2.635   6.768   5.145
 9304TIP3    H227877   2.735   6.843   5.229
 9305TIP3   OH227878   2.092   5.925   2.960
 9305TIP3    H127879   2.020   5.959   2.906
 9305TIP3    H227880   2.161   5.903   2.897
 9306TIP3   OH227881   6.519   6.097   4.934
 9306TIP3    H127882   6.438   6.127   4.976
 9306TIP3    H227883   6.525   6.149   4.854
 9307TIP3   OH227884   1.146   0.760   0.439
 9307TIP3    H127885   1.191   0.714   0.368
 9307TIP3    H227886   1.057   0.774   0.407
 9308TIP3   OH227887   2.793   0.599   3.393
 9308TIP3    H127888   2.817   0.660   3.323
 9308TIP3    H227889   2.874   0.584   3.441
 9309TIP3   OH227890   5.206   5.885   3.292
 9309TIP3    H127891   5.185   5.903   3.384
 9309TIP3    H227892   5.136   5.827   3.263
 9310TIP3   OH227893   4.688   0.674   5.157
 9310TIP3    H127894   4.714   0.656   5.067
 9310TIP3    H227895   4.628   0.748   5.151
 9311TIP3   OH227896   6.457   1.562   2.586
 9311TIP3    H127897   6.521   1.491   2.591
 9311TIP3    H227898   6.505   1.635   2.545
 9312TIP3   OH227899   2.258   4.569   1.403
 9312TIP3    H127900   2.253   4.635   1.334
 9312TIP3    H227901   2.242   4.618   1.484
 9313TIP3   OH227902   0.978   1.987   2.813
 9313TIP3    H127903   1.042   1.934   2.861
 9313TIP3    H227904   0.969   1.943   2.728
 9314TIP3   OH227905   1.208   6.565   2.840
 9314TIP3    H127906   1.253   6.591   2.920
 9314TIP3    H227907   1.136   6.628   2.830
 9315TIP3   OH227908   5.615   5.776   4.730
 9315TIP3    H127909   5.588   5.842   4.666
 9315TIP3    H227910   5.571   5.801   4.811
 9316TIP3   OH227911   2.541   6.732   3.379
 9316TIP3    H127912   2.470   6.739   3.442
 9316TIP3    H227913   2.611   6.785   3.416
 9317TIP3   OH227914   2.636   0.795   0.377
 9317TIP3    H127915   2.652   0.816   0.469
 9317TIP3    H227916   2.613   0.880   0.337
 9318TIP3   OH227917   5.797   1.689   2.659
 9318TIP3    H127918   5.825   1.763   2.713
 9318TIP3    H227919   5.866   1.679   2.593
 9319TIP3   OH227920   4.581   5.684   0.499
 9319TIP3    H127921   4.604   5.632   0.422
 9319TIP3    H227922   4.533   5.623   0.555
 9320TIP3   OH227923   4.865   5.700   4.761
 9320TIP3    H127924   4.851   5.773   4.821
 9320TIP3    H227925   4.958   5.680   4.767
 9321TIP3   OH227926   1.580   3.600   1.580
 9321TIP3    H127927   1.608   3.685   1.545
 9321TIP3    H227928   1.612   3.600   1.670
 9322TIP3   OH227929   0.116   0.450   2.026
 9322TIP3    H127930   0.050   0.396   1.983
 9322TIP3    H227931   0.179   0.471   1.957
 9323TIP3   OH227932   3.876   5.377   0.804
 9323TIP3    H127933   3.947   5.313   0.811
 9323TIP3    H227934   3.881   5.409   0.714
 9324TIP3   OH227935   3.566   0.573   0.871
 9324TIP3    H127936   3.636   0.516   0.904
 9324TIP3    H227937   3.518   0.518   0.809
 9325TIP3   OH227938   2.164   6.654   0.603
 9325TIP3    H127939   2.210   6.611   0.676
 9325TIP3    H227940   2.221   6.727   0.579
 9326TIP3   OH227941   3.071   2.644   4.506
 9326TIP3    H127942   2.999   2.582   4.519
 9326TIP3    H227943   3.147   2.601   4.543
 9327TIP3   OH227944   2.751   6.126   5.075
 9327TIP3    H127945   2.720   6.038   5.053
 9327TIP3    H227946   2.750   6.128   5.171
 9328TIP3   OH227947   3.972   4.849   5.075
 9328TIP3    H127948   4.065   4.864   5.092
 9328TIP3    H227949   3.965   4.755   5.061
 9329TIP3   OH227950   1.287   5.880   1.596
 9329TIP3    H127951   1.366   5.828   1.583
 9329TIP3    H227952   1.284   5.938   1.520
 9330TIP3   OH227953   3.882   5.142   4.478
 9330TIP3    H127954   3.965   5.104   4.507
 9330TIP3    H227955   3.852   5.083   4.409
 9331TIP3   OH227956   3.382   4.258   5.796
 9331TIP3    H127957   3.292   4.289   5.789
 9331TIP3    H227958   3.434   4.336   5.815
 9332TIP3   OH227959   5.691   4.819   2.489
 9332TIP3    H127960   5.622   4.782   2.435
 9332TIP3    H227961   5.725   4.746   2.539
 9333TIP3   OH227962   0.116   5.307   0.673
 9333TIP3    H127963   0.156   5.239   0.727
 9333TIP3    H227964   0.041   5.338   0.724
 9334TIP3   OH227965   6.777   2.598   0.206
 9334TIP3    H127966   6.721   2.630   0.276
 9334TIP3    H227967   6.736   2.516   0.178
 9335TIP3   OH227968   3.437   6.306   0.437
 9335TIP3    H127969   3.455   6.355   0.357
 9335TIP3    H227970   3.490   6.227   0.430
 9336TIP3   OH227971   3.888   6.085   5.045
 9336TIP3    H127972   3.888   6.041   4.960
 9336TIP3    H227973   3.939   6.165   5.032
 9337TIP3   OH227974   0.524   0.685   1.475
 9337TIP3    H127975   0.527   0.715   1.566
 9337TIP3    H227976   0.445   0.632   1.470
 9338TIP3   OH227977   2.134   0.662   1.458
 9338TIP3    H127978   2.174   0.651   1.544
 9338TIP3    H227979   2.186   0.731   1.416
 9339TIP3   OH227980   1.159   0.977   2.536
 9339TIP3    H127981   1.124   0.891   2.510
 9339TIP3    H227982   1.172   1.023   2.453
 9340TIP3   OH227983   2.835   5.347   0.113
 9340TIP3    H127984   2.811   5.283   0.047
 9340TIP3    H227985   2.867   5.423   0.064
 9341TIP3   OH227986   3.774   0.075   5.325
 9341TIP3    H127987   3.821  -0.004   5.352
 9341TIP3    H227988   3.740   0.112   5.406
 9342TIP3   OH227989   1.025   6.165   2.264
 9342TIP3    H127990   1.064   6.123   2.188
 9342TIP3    H227991   1.044   6.258   2.253
 9343TIP3   OH227992   5.885   1.152   4.766
 9343TIP3    H127993   5.795   1.174   4.741
 9343TIP3    H227994   5.879   1.064   4.801
 9344TIP3   OH227995   3.204   6.558   0.760
 9344TIP3    H127996   3.280   6.515   0.722
 9344TIP3    H227997   3.241   6.620   0.823
 9345TIP3   OH227998   4.936   6.184   5.093
 9345TIP3    H127999   4.950   6.267   5.048
 9345TIP3    H228000   4.947   6.205   5.186
 9346TIP3   OH228001   3.196   2.821   3.328
 9346TIP3    H128002   3.138   2.892   3.300
 9346TIP3    H228003   3.158   2.790   3.410
 9347TIP3   OH228004   4.133   2.242   2.079
 9347TIP3    H128005   4.104   2.164   2.031
 9347TIP3    H228006   4.067   2.308   2.059
 9348TIP3   OH228007   6.878   4.920   5.555
 9348TIP3    H128008   6.899   4.988   5.491
 9348TIP3    H228009   6.925   4.843   5.523
 9349TIP3   OH228010   0.289   3.526   3.845
 9349TIP3    H128011   0.346   3.496   3.916
 9349TIP3    H228012   0.337   3.598   3.804
 9350TIP3   OH228013   5.663   5.683   1.814
 9350TIP3    H128014   5.573   5.701   1.785
 9350TIP3    H228015   5.716   5.752   1.773
 9351TIP3   OH228016   2.596   6.089   1.477
 9351TIP3    H128017   2.677   6.113   1.431
 9351TIP3    H228018   2.526   6.107   1.414
 9352TIP3   OH228019   5.592   5.211   3.016
 9352TIP3    H128020   5.655   5.140   3.004
 9352TIP3    H228021   5.586   5.253   2.930
 9353TIP3   OH228022   1.847   1.206   1.629
 9353TIP3    H128023   1.779   1.225   1.694
 9353TIP3    H228024   1.928   1.231   1.672
 9354TIP3   OH228025   4.797   2.891   3.917
 9354TIP3    H128026   4.867   2.914   3.857
 9354TIP3    H228027   4.841   2.870   3.999
 9355TIP3   OH228028   0.877   5.106   4.138
 9355TIP3    H128029   0.880   5.196   4.169
 9355TIP3    H228030   0.784   5.082   4.141
 9356TIP3   OH228031   2.410   5.835   5.158
 9356TIP3    H128032   2.429   5.768   5.092
 9356TIP3    H228033   2.321   5.864   5.138
 9357TIP3   OH228034   5.706   5.369   5.619
 9357TIP3    H128035   5.617   5.379   5.652
 9357TIP3    H228036   5.734   5.283   5.651
 9358TIP3   OH228037   4.425   5.894   0.437
 9358TIP3    H128038   4.357   5.867   0.375
 9358TIP3    H228039   4.490   5.824   0.435
 9359TIP3   OH228040   7.094   2.936   3.002
 9359TIP3    H128041   7.076   2.895   3.087
 9359TIP3    H228042   7.158   3.004   3.022
 9360TIP3   OH228043   0.569   0.993   3.557
 9360TIP3    H128044   0.623   0.916   3.573
 9360TIP3    H228045   0.487   0.976   3.603
 9361TIP3   OH228046   5.336   2.121   1.019
 9361TIP3    H128047   5.268   2.090   1.080
 9361TIP3    H228048   5.397   2.169   1.075
 9362TIP3   OH228049   5.196   1.317   5.868
 9362TIP3    H128050   5.124   1.301   5.807
 9362TIP3    H228051   5.243   1.234   5.871
 9363TIP3   OH228052  -0.001   1.324   0.305
 9363TIP3    H128053  -0.080   1.332   0.359
 9363TIP3    H228054   0.009   1.410   0.263
 9364TIP3   OH228055   5.273   3.148   3.612
 9364TIP3    H128056   5.329   3.218   3.579
 9364TIP3    H228057   5.224   3.188   3.684
 9365TIP3   OH228058   0.892   4.512   5.760
 9365TIP3    H128059   0.943   4.445   5.716
 9365TIP3    H228060   0.938   4.526   5.843
 9366TIP3   OH228061   2.744   5.080   0.949
 9366TIP3    H128062   2.804   5.040   1.012
 9366TIP3    H228063   2.657   5.065   0.986
 9367TIP3   OH228064   5.620   4.334   4.035
 9367TIP3    H128065   5.661   4.397   4.093
 9367TIP3    H228066   5.535   4.372   4.014
 9368TIP3   OH228067   6.325   5.796   4.511
 9368TIP3    H128068   6.245   5.825   4.468
 9368TIP3    H228069   6.312   5.702   4.526
 9369TIP3   OH228070   4.737   5.939   2.995
 9369TIP3    H128071   4.720   5.854   2.954
 9369TIP3    H228072   4.766   5.917   3.084
 9370TIP3   OH228073   6.619   3.694   3.052
 9370TIP3    H128074   6.585   3.665   2.967
 9370TIP3    H228075   6.554   3.664   3.116
 9371TIP3   OH228076   6.719   6.448   3.472
 9371TIP3    H128077   6.800   6.432   3.522
 9371TIP3    H228078   6.747   6.449   3.381
 9372TIP3   OH228079   2.824   3.423   4.511
 9372TIP3    H128080   2.807   3.483   4.583
 9372TIP3    H228081   2.905   3.456   4.471
 9373TIP3   OH228082   1.229   2.179   2.314
 9373TIP3    H128083   1.143   2.167   2.275
 9373TIP3    H228084   1.267   2.091   2.317
 9374TIP3   OH228085   2.474   6.210   5.354
 9374TIP3    H128086   2.524   6.284   5.318
 9374TIP3    H228087   2.539   6.142   5.370
 9375TIP3   OH228088   2.886   5.069   0.334
 9375TIP3    H128089   2.933   5.125   0.396
 9375TIP3    H228090   2.956   5.026   0.284
 9376TIP3   OH228091   0.192   1.289   3.107
 9376TIP3    H128092   0.145   1.253   3.032
 9376TIP3    H228093   0.216   1.213   3.159
 9377TIP3   OH228094   5.817   4.936   3.625
 9377TIP3    H128095   5.754   5.003   3.597
 9377TIP3    H228096   5.764   4.856   3.633
 9378TIP3   OH228097   4.605   3.274   3.131
 9378TIP3    H128098   4.642   3.341   3.189
 9378TIP3    H228099   4.650   3.194   3.156
 9379TIP3   OH228100   0.500   6.469   2.814
 9379TIP3    H128101   0.509   6.475   2.718
 9379TIP3    H228102   0.589   6.453   2.846
 9380TIP3   OH228103   3.590   1.636   4.257
 9380TIP3    H128104   3.566   1.567   4.196
 9380TIP3    H228105   3.585   1.717   4.205
 9381TIP3   OH228106   2.683   3.024   3.957
 9381TIP3    H128107   2.689   3.015   3.862
 9381TIP3    H228108   2.599   3.067   3.973
 9382TIP3   OH228109   2.883   2.107   1.933
 9382TIP3    H128110   2.895   2.075   1.843
 9382TIP3    H228111   2.951   2.064   1.983
 9383TIP3   OH228112   5.222   2.372   1.740
 9383TIP3    H128113   5.199   2.462   1.717
 9383TIP3    H228114   5.317   2.368   1.729
 9384TIP3   OH228115   2.454   5.738   3.969
 9384TIP3    H128116   2.426   5.648   3.952
 9384TIP3    H228117   2.432   5.786   3.889
 9385TIP3   OH228118   6.278   0.094   3.677
 9385TIP3    H128119   6.334   0.097   3.599
 9385TIP3    H228120   6.222   0.017   3.663
 9386TIP3   OH228121   2.715   2.987   3.368
 9386TIP3    H128122   2.719   3.056   3.303
 9386TIP3    H228123   2.643   2.931   3.340
 9387TIP3   OH228124   6.649   1.238   0.264
 9387TIP3    H128125   6.675   1.229   0.355
 9387TIP3    H228126   6.722   1.283   0.222
 9388TIP3   OH228127   6.783   5.842   4.955
 9388TIP3    H128128   6.800   5.799   4.871
 9388TIP3    H228129   6.735   5.777   5.006
 9389TIP3   OH228130   1.339   1.276   4.718
 9389TIP3    H128131   1.289   1.338   4.770
 9389TIP3    H228132   1.292   1.271   4.635
 9390TIP3   OH228133   5.422   1.833   2.674
 9390TIP3    H128134   5.471   1.915   2.685
 9390TIP3    H228135   5.337   1.850   2.715
 9391TIP3   OH228136   4.078   1.132   1.551
 9391TIP3    H128137   4.104   1.050   1.593
 9391TIP3    H228138   3.992   1.114   1.514
 9392TIP3   OH228139   2.441   5.113   5.085
 9392TIP3    H128140   2.379   5.186   5.088
 9392TIP3    H228141   2.523   5.152   5.055
 9393TIP3   OH228142   0.536   6.369   1.766
 9393TIP3    H128143   0.594   6.311   1.815
 9393TIP3    H228144   0.478   6.310   1.718
 9394TIP3   OH228145   6.987   5.043   3.312
 9394TIP3    H128146   6.994   5.132   3.347
 9394TIP3    H228147   6.895   5.035   3.285
 9395TIP3   OH228148   3.704   0.783   4.552
 9395TIP3    H128149   3.646   0.741   4.616
 9395TIP3    H228150   3.792   0.761   4.581
 9396TIP3   OH228151   1.135   2.786   4.439
 9396TIP3    H128152   1.074   2.799   4.511
 9396TIP3    H228153   1.211   2.839   4.461
 9397TIP3   OH228154   3.152   4.654   2.277
 9397TIP3    H128155   3.208   4.723   2.241
 9397TIP3    H228156   3.066   4.670   2.238
 9398TIP3   OH228157   5.022   2.983   3.798
 9398TIP3    H128158   5.112   2.954   3.784
 9398TIP3    H228159   4.997   3.028   3.718
 9399TIP3   OH228160   4.942   6.044   3.396
 9399TIP3    H128161   4.900   5.981   3.336
 9399TIP3    H228162   4.993   5.989   3.456
 9400TIP3   OH228163   3.184   3.944   2.032
 9400TIP3    H128164   3.262   3.999   2.029
 9400TIP3    H228165   3.113   4.003   2.056
 9401TIP3   OH228166   5.973   0.305   1.450
 9401TIP3    H128167   6.056   0.331   1.491
 9401TIP3    H228168   5.970   0.210   1.460
 9402TIP3   OH228169   6.576   6.525   5.504
 9402TIP3    H128170   6.542   6.516   5.593
 9402TIP3    H228171   6.529   6.600   5.467
 9403TIP3   OH228172   0.160   6.554   0.406
 9403TIP3    H128173   0.109   6.474   0.392
 9403TIP3    H228174   0.095   6.621   0.428
 9404TIP3   OH228175   6.823   3.505   5.768
 9404TIP3    H128176   6.796   3.414   5.760
 9404TIP3    H228177   6.845   3.532   5.679
 9405TIP3   OH228178   4.215   0.042   0.845
 9405TIP3    H128179   4.147   0.108   0.857
 9405TIP3    H228180   4.297   0.088   0.863
 9406TIP3   OH228181   5.752   0.563   3.408
 9406TIP3    H128182   5.803   0.629   3.455
 9406TIP3    H228183   5.813   0.529   3.342
 9407TIP3   OH228184   2.105   0.753   4.790
 9407TIP3    H128185   2.082   0.738   4.882
 9407TIP3    H228186   2.127   0.666   4.757
 9408TIP3   OH228187   2.885   1.894   5.700
 9408TIP3    H128188   2.900   1.918   5.609
 9408TIP3    H228189   2.850   1.805   5.697
 9409TIP3   OH228190   2.788   4.071   1.645
 9409TIP3    H128191   2.853   4.045   1.580
 9409TIP3    H228192   2.819   4.154   1.679
 9410TIP3   OH228193   1.283   6.232   4.898
 9410TIP3    H128194   1.235   6.307   4.933
 9410TIP3    H228195   1.233   6.155   4.928
 9411TIP3   OH228196   7.186   0.017   4.007
 9411TIP3    H128197   7.205   0.030   4.099
 9411TIP3    H228198   7.091   0.004   4.004
 9412TIP3   OH228199   1.684   3.270   3.666
 9412TIP3    H128200   1.677   3.365   3.667
 9412TIP3    H228201   1.596   3.239   3.646
 9413TIP3   OH228202   3.815   0.418   3.955
 9413TIP3    H128203   3.909   0.403   3.958
 9413TIP3    H228204   3.791   0.445   4.043
 9414TIP3   OH228205   4.832   4.978   2.883
 9414TIP3    H128206   4.781   5.009   2.958
 9414TIP3    H228207   4.809   5.038   2.812
 9415TIP3   OH228208   5.390   0.663   1.339
 9415TIP3    H128209   5.403   0.573   1.310
 9415TIP3    H228210   5.475   0.705   1.325
 9416TIP3   OH228211   3.116   0.401   3.053
 9416TIP3    H128212   3.155   0.332   3.107
 9416TIP3    H228213   3.191   0.442   3.010
 9417TIP3   OH228214   6.970   6.747   3.219
 9417TIP3    H128215   6.916   6.791   3.285
 9417TIP3    H228216   6.909   6.691   3.172
 9418TIP3   OH228217   1.529   0.957   5.343
 9418TIP3    H128218   1.469   0.957   5.268
 9418TIP3    H228219   1.472   0.964   5.419
 9419TIP3   OH228220   7.146   5.415   3.532
 9419TIP3    H128221   7.236   5.448   3.535
 9419TIP3    H228222   7.115   5.420   3.622
 9420TIP3   OH228223   1.187   2.037   1.503
 9420TIP3    H128224   1.217   2.126   1.523
 9420TIP3    H228225   1.261   1.981   1.527
 9421TIP3   OH228226   2.971   4.969   5.057
 9421TIP3    H128227   2.968   5.028   4.982
 9421TIP3    H228228   2.941   5.023   5.131
 9422TIP3   OH228229   2.454   1.101   2.552
 9422TIP3    H128230   2.425   1.103   2.461
 9422TIP3    H228231   2.431   1.013   2.582
 9423TIP3   OH228232   4.455   5.318   2.053
 9423TIP3    H128233   4.431   5.349   2.140
 9423TIP3    H228234   4.384   5.259   2.028
 9424TIP3   OH228235   6.594   5.207   0.783
 9424TIP3    H128236   6.671   5.198   0.726
 9424TIP3    H228237   6.575   5.117   0.810
 9425TIP3   OH228238   5.620   6.636   1.416
 9425TIP3    H128239   5.562   6.708   1.441
 9425TIP3    H228240   5.567   6.582   1.357
 9426TIP3   OH228241   3.035   5.715   4.386
 9426TIP3    H128242   2.950   5.724   4.343
 9426TIP3    H228243   3.097   5.753   4.324
 9427TIP3   OH228244   2.825   0.083   4.414
 9427TIP3    H128245   2.776   0.023   4.470
 9427TIP3    H228246   2.866   0.027   4.348
 9428TIP3   OH228247   2.178   2.036   5.797
 9428TIP3    H128248   2.224   1.959   5.765
 9428TIP3    H228249   2.164   2.091   5.720
 9429TIP3   OH228250   0.200   4.021   0.026
 9429TIP3    H128251   0.281   4.017  -0.023
 9429TIP3    H228252   0.222   4.069   0.106
 9430TIP3   OH228253   6.684   0.266   2.783
 9430TIP3    H128254   6.699   0.172   2.799
 9430TIP3    H228255   6.745   0.310   2.842
 9431TIP3   OH228256   1.259   1.321   2.877
 9431TIP3    H128257   1.291   1.303   2.965
 9431TIP3    H228258   1.280   1.413   2.863
 9432TIP3   OH228259   1.870   5.361   2.092
 9432TIP3    H128260   1.946   5.326   2.138
 9432TIP3    H228261   1.871   5.317   2.008
 9433TIP3   OH228262   2.178   5.338   5.271
 9433TIP3    H128263   2.200   5.422   5.311
 9433TIP3    H228264   2.210   5.346   5.181
 9434TIP3   OH228265   7.053   3.848   2.814
 9434TIP3    H128266   6.963   3.841   2.783
 9434TIP3    H228267   7.065   3.940   2.835
 9435TIP3   OH228268   5.502   5.443   5.800
 9435TIP3    H128269   5.435   5.461   5.866
 9435TIP3    H228270   5.574   5.502   5.822
 9436TIP3   OH228271   3.296   1.691   5.625
 9436TIP3    H128272   3.356   1.698   5.551
 9436TIP3    H228273   3.226   1.753   5.605
 9437TIP3   OH228274   4.113   4.812   4.295
 9437TIP3    H128275   4.203   4.822   4.262
 9437TIP3    H228276   4.078   4.739   4.245
 9438TIP3   OH228277   4.219   1.883   1.570
 9438TIP3    H128278   4.312   1.860   1.568
 9438TIP3    H228279   4.173   1.802   1.548
 9439TIP3   OH228280   5.686   3.613   1.878
 9439TIP3    H128281   5.646   3.694   1.910
 9439TIP3    H228282   5.739   3.640   1.803
 9440TIP3   OH228283   6.233   6.468   0.352
 9440TIP3    H128284   6.300   6.406   0.326
 9440TIP3    H228285   6.202   6.436   0.437
 9441TIP3   OH228286   0.757   4.152   3.927
 9441TIP3    H128287   0.821   4.102   3.977
 9441TIP3    H228288   0.782   4.243   3.939
 9442TIP3   OH228289   4.701   1.025   4.671
 9442TIP3    H128290   4.691   1.044   4.578
 9442TIP3    H228291   4.741   1.104   4.708
 9443TIP3   OH228292   0.584   4.146   2.765
 9443TIP3    H128293   0.547   4.096   2.692
 9443TIP3    H228294   0.571   4.091   2.842
 9444TIP3   OH228295   4.840   0.817   3.395
 9444TIP3    H128296   4.858   0.909   3.375
 9444TIP3    H228297   4.922   0.772   3.374
 9445TIP3   OH228298   2.497   6.385   0.948
 9445TIP3    H128299   2.512   6.301   0.905
 9445TIP3    H228300   2.405   6.383   0.975
 9446TIP3   OH228301   1.989   4.571   4.820
 9446TIP3    H128302   2.065   4.629   4.825
 9446TIP3    H228303   2.019   4.489   4.858
 9447TIP3   OH228304   5.226   4.701   3.787
 9447TIP3    H128305   5.271   4.746   3.859
 9447TIP3    H228306   5.142   4.674   3.824
 9448TIP3   OH228307   0.448   2.417   1.671
 9448TIP3    H128308   0.372   2.359   1.670
 9448TIP3    H228309   0.463   2.440   1.580
 9449TIP3   OH228310   5.669   2.904   1.276
 9449TIP3    H128311   5.680   2.863   1.190
 9449TIP3    H228312   5.664   2.831   1.337
 9450TIP3   OH228313   5.844   1.658   1.061
 9450TIP3    H128314   5.752   1.684   1.066
 9450TIP3    H228315   5.848   1.595   0.990
 9451TIP3   OH228316   4.411   4.868   4.484
 9451TIP3    H128317   4.367   4.838   4.564
 9451TIP3    H228318   4.418   4.963   4.495
 9452TIP3   OH228319   6.078   5.198   2.895
 9452TIP3    H128320   6.001   5.236   2.939
 9452TIP3    H228321   6.122   5.273   2.856
 9453TIP3   OH228322   1.642   2.523   5.612
 9453TIP3    H128323   1.700   2.590   5.649
 9453TIP3    H228324   1.666   2.442   5.659
 9454TIP3   OH228325   4.824   2.122   2.671
 9454TIP3    H128326   4.783   2.168   2.598
 9454TIP3    H228327   4.759   2.123   2.741
 9455TIP3   OH228328   1.512   5.516   2.583
 9455TIP3    H128329   1.518   5.605   2.617
 9455TIP3    H228330   1.443   5.520   2.517
 9456TIP3   OH228331   6.764   1.107   3.851
 9456TIP3    H128332   6.821   1.115   3.928
 9456TIP3    H228333   6.797   1.029   3.806
 9457TIP3   OH228334   2.577   4.417   3.643
 9457TIP3    H128335   2.651   4.419   3.703
 9457TIP3    H228336   2.565   4.508   3.617
 9458TIP3   OH228337   5.976   0.111   4.439
 9458TIP3    H128338   5.961   0.079   4.351
 9458TIP3    H228339   5.973   0.207   4.431
 9459TIP3   OH228340   4.306   5.839   3.819
 9459TIP3    H128341   4.374   5.883   3.871
 9459TIP3    H228342   4.332   5.855   3.728
 9460TIP3   OH228343   5.444   1.464   4.959
 9460TIP3    H128344   5.487   1.379   4.966
 9460TIP3    H228345   5.472   1.512   5.037
 9461TIP3   OH228346   5.721   0.875   4.531
 9461TIP3    H128347   5.626   0.878   4.516
 9461TIP3    H228348   5.735   0.792   4.577
 9462TIP3   OH228349   1.333   2.880   1.577
 9462TIP3    H128350   1.403   2.816   1.584
 9462TIP3    H228351   1.345   2.939   1.652
 9463TIP3   OH228352   4.544   2.138   3.894
 9463TIP3    H128353   4.479   2.206   3.878
 9463TIP3    H228354   4.533   2.076   3.822
 9464TIP3   OH228355   2.912   1.257   5.143
 9464TIP3    H128356   2.849   1.327   5.157
 9464TIP3    H228357   2.994   1.302   5.124
 9465TIP3   OH228358   5.660   2.626   3.074
 9465TIP3    H128359   5.580   2.589   3.038
 9465TIP3    H228360   5.725   2.615   3.005
 9466TIP3   OH228361   4.029   2.372   3.007
 9466TIP3    H128362   4.039   2.466   3.024
 9466TIP3    H228363   4.090   2.331   3.067
 9467TIP3   OH228364   1.516   3.117   2.451
 9467TIP3    H128365   1.599   3.082   2.419
 9467TIP3    H228366   1.506   3.200   2.404
 9468TIP3   OH228367   2.186   2.768   2.786
 9468TIP3    H128368   2.184   2.853   2.829
 9468TIP3    H228369   2.275   2.736   2.801
 9469TIP3   OH228370   1.538   2.736   2.642
 9469TIP3    H128371   1.608   2.694   2.593
 9469TIP3    H228372   1.571   2.824   2.662
 9470TIP3   OH228373   1.724   4.690   4.807
 9470TIP3    H128374   1.789   4.702   4.876
 9470TIP3    H228375   1.647   4.738   4.837
 9471TIP3   OH228376   6.347   4.078   5.742
 9471TIP3    H128377   6.264   4.042   5.710
 9471TIP3    H228378   6.328   4.103   5.833
 9472TIP3   OH228379   1.617   1.197   3.669
 9472TIP3    H128380   1.655   1.173   3.584
 9472TIP3    H228381   1.692   1.206   3.727
 9473TIP3   OH228382   3.358   6.595   5.752
 9473TIP3    H128383   3.270   6.620   5.722
 9473TIP3    H228384   3.404   6.569   5.672
 9474TIP3   OH228385   1.284   2.572   4.561
 9474TIP3    H128386   1.236   2.642   4.516
 9474TIP3    H228387   1.322   2.520   4.491
 9475TIP3   OH228388   1.379   0.949   1.627
 9475TIP3    H128389   1.335   0.975   1.546
 9475TIP3    H228390   1.468   0.982   1.618
 9476TIP3   OH228391   4.019   5.140   0.756
 9476TIP3    H128392   3.953   5.073   0.775
 9476TIP3    H228393   4.028   5.137   0.661
 9477TIP3   OH228394   5.294   4.340   3.050
 9477TIP3    H128395   5.229   4.389   3.000
 9477TIP3    H228396   5.296   4.383   3.135
 9478TIP3   OH228397   2.459   4.580   5.061
 9478TIP3    H128398   2.516   4.644   5.104
 9478TIP3    H228399   2.485   4.496   5.098
 9479TIP3   OH228400   0.336   6.733   1.448
 9479TIP3    H128401   0.363   6.815   1.488
 9479TIP3    H228402   0.342   6.668   1.518
 9480TIP3   OH228403   4.409   4.792   1.935
 9480TIP3    H128404   4.494   4.748   1.944
 9480TIP3    H228405   4.391   4.829   2.021
 9481TIP3   OH228406   0.682   4.474   2.600
 9481TIP3    H128407   0.659   4.553   2.550
 9481TIP3    H228408   0.653   4.402   2.544
 9482TIP3   OH228409   6.708   1.820   0.778
 9482TIP3    H128410   6.684   1.886   0.843
 9482TIP3    H228411   6.797   1.795   0.802
 9483TIP3   OH228412   1.280   5.645   3.013
 9483TIP3    H128413   1.268   5.695   3.093
 9483TIP3    H228414   1.319   5.706   2.951
 9484TIP3   OH228415   5.200   3.552   0.864
 9484TIP3    H128416   5.203   3.474   0.808
 9484TIP3    H228417   5.128   3.537   0.924
 9485TIP3   OH228418   2.514   0.545   2.163
 9485TIP3    H128419   2.423   0.545   2.134
 9485TIP3    H228420   2.531   0.635   2.190
 9486TIP3   OH228421   5.282   0.733   2.435
 9486TIP3    H128422   5.225   0.800   2.397
 9486TIP3    H228423   5.370   0.761   2.412
 9487TIP3   OH228424   4.696   1.246   4.247
 9487TIP3    H128425   4.603   1.267   4.258
 9487TIP3    H228426   4.704   1.156   4.279
 9488TIP3   OH228427   3.979   2.142   0.324
 9488TIP3    H128428   3.884   2.150   0.319
 9488TIP3    H228429   4.013   2.224   0.289
 9489TIP3   OH228430   6.514   1.890   5.465
 9489TIP3    H128431   6.505   1.972   5.417
 9489TIP3    H228432   6.426   1.873   5.500
 9490TIP3   OH228433   5.147   1.950   1.821
 9490TIP3    H128434   5.173   2.037   1.850
 9490TIP3    H228435   5.132   1.901   1.902
 9491TIP3   OH228436   2.461   3.077   2.234
 9491TIP3    H128437   2.488   3.128   2.311
 9491TIP3    H228438   2.443   3.144   2.167
 9492TIP3   OH228439   4.313   6.799   2.762
 9492TIP3    H128440   4.241   6.748   2.798
 9492TIP3    H228441   4.392   6.750   2.786
 9493TIP3   OH228442   1.950   3.991   5.816
 9493TIP3    H128443   2.007   3.964   5.888
 9493TIP3    H228444   1.991   4.070   5.781
 9494TIP3   OH228445   3.041   1.218   3.879
 9494TIP3    H128446   3.022   1.296   3.827
 9494TIP3    H228447   3.085   1.158   3.818
 9495TIP3   OH228448   5.421   0.786   3.030
 9495TIP3    H128449   5.461   0.852   2.973
 9495TIP3    H228450   5.494   0.752   3.082
 9496TIP3   OH228451   6.874   5.433   0.421
 9496TIP3    H128452   6.968   5.455   0.421
 9496TIP3    H228453   6.836   5.490   0.354
 9497TIP3   OH228454   6.704   0.379   5.565
 9497TIP3    H128455   6.747   0.348   5.485
 9497TIP3    H228456   6.688   0.472   5.550
 9498TIP3   OH228457   2.949   1.603   3.476
 9498TIP3    H128458   3.028   1.574   3.431
 9498TIP3    H228459   2.943   1.697   3.456
 9499TIP3   OH228460   0.952   0.100   1.084
 9499TIP3    H128461   0.993   0.014   1.076
 9499TIP3    H228462   1.015   0.153   1.133
 9500TIP3   OH228463   2.728   2.279   5.592
 9500TIP3    H128464   2.768   2.226   5.661
 9500TIP3    H228465   2.721   2.220   5.517
 9501TIP3   OH228466   3.235   6.571   4.614
 9501TIP3    H128467   3.244   6.485   4.574
 9501TIP3    H228468   3.325   6.601   4.627
 9502TIP3   OH228469   6.910   5.570   5.716
 9502TIP3    H128470   6.911   5.618   5.799
 9502TIP3    H228471   6.852   5.620   5.660
 9503TIP3   OH228472   6.301   0.497   5.037
 9503TIP3    H128473   6.212   0.464   5.024
 9503TIP3    H228474   6.357   0.419   5.035
 9504TIP3   OH228475   5.011   1.538   4.510
 9504TIP3    H128476   4.952   1.514   4.581
 9504TIP3    H228477   4.958   1.529   4.431
 9505TIP3   OH228478   1.066   3.535   3.687
 9505TIP3    H128479   1.025   3.471   3.629
 9505TIP3    H228480   0.992   3.578   3.731
 9506TIP3   OH228481   1.028   6.333   2.788
 9506TIP3    H128482   1.090   6.403   2.808
 9506TIP3    H228483   1.055   6.302   2.702
 9507TIP3   OH228484   4.779   5.574   0.050
 9507TIP3    H128485   4.813   5.642  -0.008
 9507TIP3    H228486   4.715   5.527  -0.004
 9508TIP3   OH228487   3.254   2.053   5.174
 9508TIP3    H128488   3.294   2.052   5.261
 9508TIP3    H228489   3.273   2.141   5.140
 9509TIP3   OH228490   4.475   6.522   5.322
 9509TIP3    H128491   4.418   6.451   5.293
 9509TIP3    H228492   4.545   6.525   5.256
 9510TIP3   OH228493   5.900   4.705   1.996
 9510TIP3    H128494   5.904   4.670   2.085
 9510TIP3    H228495   5.815   4.749   1.991
 9511TIP3   OH228496   0.058   5.767   4.092
 9511TIP3    H128497   0.024   5.694   4.041
 9511TIP3    H228498  -0.019   5.816   4.120
 9512TIP3   OH228499   3.902   6.554   3.397
 9512TIP3    H128500   3.828   6.494   3.396
 9512TIP3    H228501   3.967   6.511   3.453
 9513TIP3   OH228502   2.328   1.081   1.909
 9513TIP3    H128503   2.372   1.041   1.985
 9513TIP3    H228504   2.237   1.091   1.938
 9514TIP3   OH228505   1.435   3.842   3.990
 9514TIP3    H128506   1.475   3.764   3.951
 9514TIP3    H228507   1.485   3.855   4.071
 9515TIP3   OH228508   3.316   3.652   0.920
 9515TIP3    H128509   3.350   3.711   0.853
 9515TIP3    H228510   3.302   3.569   0.874
 9516TIP3   OH228511   5.311   1.522   2.051
 9516TIP3    H128512   5.317   1.533   1.956
 9516TIP3    H228513   5.347   1.603   2.087
 9517TIP3   OH228514   4.098   2.184   5.094
 9517TIP3    H128515   4.073   2.264   5.048
 9517TIP3    H228516   4.107   2.209   5.185
 9518TIP3   OH228517   5.200   6.737   2.073
 9518TIP3    H128518   5.228   6.654   2.033
 9518TIP3    H228519   5.105   6.730   2.077
 9519TIP3   OH228520   6.357   6.104   2.284
 9519TIP3    H128521   6.431   6.074   2.232
 9519TIP3    H228522   6.317   6.173   2.231
 9520TIP3   OH228523   4.370   5.561   5.319
 9520TIP3    H128524   4.324   5.644   5.333
 9520TIP3    H228525   4.324   5.521   5.245
 9521TIP3   OH228526   6.508   4.244   3.933
 9521TIP3    H128527   6.465   4.159   3.940
 9521TIP3    H228528   6.570   4.245   4.006
 9522TIP3   OH228529   2.566   1.216   2.254
 9522TIP3    H128530   2.662   1.218   2.246
 9522TIP3    H228531   2.542   1.306   2.275
 9523TIP3   OH228532   2.997   2.390   3.009
 9523TIP3    H128533   3.002   2.442   2.929
 9523TIP3    H228534   3.085   2.398   3.048
 9524TIP3   OH228535   4.928   4.001   2.695
 9524TIP3    H128536   4.834   4.013   2.679
 9524TIP3    H228537   4.958   4.087   2.725
 9525TIP3   OH228538   3.388   0.507   1.806
 9525TIP3    H128539   3.452   0.507   1.735
 9525TIP3    H228540   3.305   0.483   1.763
 9526TIP3   OH228541   5.291   3.726   2.592
 9526TIP3    H128542   5.271   3.669   2.519
 9526TIP3    H228543   5.225   3.706   2.659
 9527TIP3   OH228544   4.062   6.192   2.299
 9527TIP3    H128545   4.066   6.271   2.246
 9527TIP3    H228546   3.972   6.190   2.333
 9528TIP3   OH228547   2.236   1.893   4.466
 9528TIP3    H128548   2.144   1.907   4.491
 9528TIP3    H228549   2.285   1.953   4.521
 9529TIP3   OH228550   6.813   0.313   0.728
 9529TIP3    H128551   6.771   0.291   0.811
 9529TIP3    H228552   6.784   0.403   0.710
 9530TIP3   OH228553   2.168   5.671   4.427
 9530TIP3    H128554   2.111   5.749   4.432
 9530TIP3    H228555   2.243   5.700   4.376
 9531TIP3   OH228556   1.764   0.822   0.030
 9531TIP3    H128557   1.734   0.890   0.091
 9531TIP3    H228558   1.850   0.852   0.002
 9532TIP3   OH228559   5.057   4.873   1.263
 9532TIP3    H128560   5.120   4.808   1.232
 9532TIP3    H228561   4.977   4.854   1.214
 9533TIP3   OH228562   2.124   6.041   5.752
 9533TIP3    H128563   2.101   6.107   5.817
 9533TIP3    H228564   2.194   6.082   5.700
 9534TIP3   OH228565   4.697   5.530   0.300
 9534TIP3    H128566   4.652   5.446   0.297
 9534TIP3    H228567   4.730   5.543   0.211
 9535TIP3   OH228568   2.125   5.186   5.471
 9535TIP3    H128569   2.054   5.125   5.448
 9535TIP3    H228570   2.142   5.233   5.389
 9536TIP3   OH228571   1.247   3.376   5.744
 9536TIP3    H128572   1.188   3.343   5.676
 9536TIP3    H228573   1.206   3.457   5.774
 9537TIP3   OH228574   5.196   1.337   2.357
 9537TIP3    H128575   5.215   1.284   2.435
 9537TIP3    H228576   5.258   1.306   2.291
 9538TIP3   OH228577   1.028   0.329   2.975
 9538TIP3    H128578   0.976   0.385   2.916
 9538TIP3    H228579   0.991   0.346   3.062
 9539TIP3   OH228580   1.425   3.605   5.123
 9539TIP3    H128581   1.447   3.602   5.216
 9539TIP3    H228582   1.372   3.526   5.108
 9540TIP3   OH228583   2.752   3.654   4.672
 9540TIP3    H128584   2.661   3.682   4.672
 9540TIP3    H228585   2.793   3.708   4.604
 9541TIP3   OH228586   6.807   3.250   5.470
 9541TIP3    H128587   6.790   3.341   5.444
 9541TIP3    H228588   6.737   3.230   5.532
 9542TIP3   OH228589   3.477   5.043   4.081
 9542TIP3    H128590   3.451   5.099   4.154
 9542TIP3    H228591   3.404   4.984   4.068
 9543TIP3   OH228592   2.265   2.514   3.683
 9543TIP3    H128593   2.250   2.420   3.686
 9543TIP3    H228594   2.255   2.537   3.590
 9544TIP3   OH228595   4.151   4.052   4.554
 9544TIP3    H128596   4.091   4.126   4.548
 9544TIP3    H228597   4.099   3.982   4.594
 9545TIP3   OH228598   1.727   2.352   5.866
 9545TIP3    H128599   1.675   2.273   5.852
 9545TIP3    H228600   1.818   2.322   5.860
 9546TIP3   OH228601   5.810   0.882   1.537
 9546TIP3    H128602   5.858   0.958   1.502
 9546TIP3    H228603   5.877   0.815   1.548
 9547TIP3   OH228604   6.210   2.913   2.228
 9547TIP3    H128605   6.302   2.938   2.241
 9547TIP3    H228606   6.190   2.942   2.139
 9548TIP3   OH228607   3.613   1.181   0.336
 9548TIP3    H128608   3.675   1.122   0.379
 9548TIP3    H228609   3.593   1.247   0.403
 9549TIP3   OH228610   6.135   0.051   2.265
 9549TIP3    H128611   6.138   0.034   2.171
 9549TIP3    H228612   6.045   0.031   2.290
 9550TIP3   OH228613   0.133   5.789   2.792
 9550TIP3    H128614   0.176   5.744   2.865
 9550TIP3    H228615   0.122   5.880   2.823
 9551TIP3   OH228616   5.842   1.649   3.211
 9551TIP3    H128617   5.792   1.672   3.132
 9551TIP3    H228618   5.881   1.564   3.190
 9552TIP3   OH228619   4.799   2.168   4.770
 9552TIP3    H128620   4.771   2.217   4.693
 9552TIP3    H228621   4.781   2.076   4.749
 9553TIP3   OH228622   0.717   1.861   3.341
 9553TIP3    H128623   0.729   1.829   3.430
 9553TIP3    H228624   0.641   1.814   3.308
 9554TIP3   OH228625   5.186   0.795   1.257
 9554TIP3    H128626   5.242   0.719   1.275
 9554TIP3    H228627   5.207   0.857   1.327
 9555TIP3   OH228628   2.238   3.856   2.539
 9555TIP3    H128629   2.163   3.886   2.590
 9555TIP3    H228630   2.303   3.926   2.548
 9556TIP3   OH228631   5.457   6.481   1.228
 9556TIP3    H128632   5.516   6.485   1.152
 9556TIP3    H228633   5.378   6.438   1.194
 9557TIP3   OH228634   0.771   5.771   4.811
 9557TIP3    H128635   0.859   5.800   4.786
 9557TIP3    H228636   0.765   5.789   4.905
 9558TIP3   OH228637   0.735   3.453   3.398
 9558TIP3    H128638   0.671   3.415   3.458
 9558TIP3    H228639   0.798   3.382   3.383
 9559TIP3   OH228640   2.862   5.633   2.727
 9559TIP3    H128641   2.870   5.728   2.740
 9559TIP3    H228642   2.951   5.599   2.738
 9560TIP3   OH228643   6.608   0.432   2.566
 9560TIP3    H128644   6.635   0.398   2.651
 9560TIP3    H228645   6.575   0.356   2.518
 9561TIP3   OH228646   0.698   5.346   2.247
 9561TIP3    H128647   0.771   5.331   2.308
 9561TIP3    H228648   0.655   5.424   2.280
 9562TIP3   OH228649   2.300   3.364   3.752
 9562TIP3    H128650   2.280   3.283   3.705
 9562TIP3    H228651   2.300   3.431   3.684
 9563TIP3   OH228652   3.685   4.154   2.151
 9563TIP3    H128653   3.697   4.065   2.185
 9563TIP3    H228654   3.647   4.203   2.225
 9564TIP3   OH228655   2.009   0.451   0.588
 9564TIP3    H128656   2.009   0.384   0.656
 9564TIP3    H228657   1.967   0.527   0.627
 9565TIP3   OH228658   5.259   1.172   4.357
 9565TIP3    H128659   5.220   1.146   4.273
 9565TIP3    H228660   5.289   1.262   4.342
 9566TIP3   OH228661   3.332   3.155   5.769
 9566TIP3    H128662   3.262   3.149   5.705
 9566TIP3    H228663   3.287   3.156   5.854
 9567TIP3   OH228664   6.178   0.397   5.731
 9567TIP3    H128665   6.087   0.381   5.755
 9567TIP3    H228666   6.229   0.338   5.787
 9568TIP3   OH228667   0.800   1.637   4.237
 9568TIP3    H128668   0.753   1.693   4.175
 9568TIP3    H228669   0.805   1.689   4.317
 9569TIP3   OH228670   5.875   1.421   2.462
 9569TIP3    H128671   5.810   1.490   2.455
 9569TIP3    H228672   5.830   1.350   2.508
 9570TIP3   OH228673   0.297   3.454   2.598
 9570TIP3    H128674   0.328   3.478   2.686
 9570TIP3    H228675   0.377   3.442   2.547
 9571TIP3   OH228676   7.090   0.961   2.747
 9571TIP3    H128677   7.083   1.025   2.676
 9571TIP3    H228678   7.013   0.977   2.801
 9572TIP3   OH228679   3.108   5.353   2.043
 9572TIP3    H128680   3.086   5.431   2.096
 9572TIP3    H228681   3.065   5.369   1.959
 9573TIP3   OH228682   6.625   4.980   0.503
 9573TIP3    H128683   6.568   4.998   0.428
 9573TIP3    H228684   6.564   4.956   0.573
 9574TIP3   OH228685   5.713   3.708   5.033
 9574TIP3    H128686   5.671   3.734   4.952
 9574TIP3    H228687   5.739   3.617   5.018
 9575TIP3   OH228688   5.529   4.810   3.233
 9575TIP3    H128689   5.454   4.870   3.226
 9575TIP3    H228690   5.490   4.725   3.251
 9576TIP3   OH228691   2.363   2.713   0.658
 9576TIP3    H128692   2.420   2.732   0.733
 9576TIP3    H228693   2.424   2.694   0.586
 9577TIP3   OH228694   2.070   5.187   2.126
 9577TIP3    H128695   2.142   5.243   2.155
 9577TIP3    H228696   2.064   5.119   2.194
 9578TIP3   OH228697   6.577   0.492   2.092
 9578TIP3    H128698   6.511   0.432   2.128
 9578TIP3    H228699   6.599   0.550   2.165
 9579TIP3   OH228700   1.622   2.688   5.209
 9579TIP3    H128701   1.580   2.634   5.142
 9579TIP3    H228702   1.659   2.626   5.271
 9580TIP3   OH228703   4.835   3.051   1.179
 9580TIP3    H128704   4.809   2.959   1.170
 9580TIP3    H228705   4.775   3.099   1.121
 9581TIP3   OH228706   0.243   0.889   3.668
 9581TIP3    H128707   0.171   0.930   3.620
 9581TIP3    H228708   0.284   0.830   3.605
 9582TIP3   OH228709   1.717   6.813   4.906
 9582TIP3    H128710   1.710   6.835   4.998
 9582TIP3    H228711   1.778   6.739   4.904
 9583TIP3   OH228712   2.522   5.805   4.509
 9583TIP3    H128713   2.480   5.737   4.457
 9583TIP3    H228714   2.558   5.866   4.445
 9584TIP3   OH228715   6.472   3.347   5.238
 9584TIP3    H128716   6.517   3.275   5.194
 9584TIP3    H228717   6.454   3.313   5.326
 9585TIP3   OH228718   1.751   5.775   2.858
 9585TIP3    H128719   1.727   5.701   2.913
 9585TIP3    H228720   1.730   5.746   2.769
 9586TIP3   OH228721   6.441   1.888   3.872
 9586TIP3    H128722   6.449   1.933   3.789
 9586TIP3    H228723   6.350   1.860   3.876
 9587TIP3   OH228724   1.198   6.472   5.528
 9587TIP3    H128725   1.161   6.439   5.610
 9587TIP3    H228726   1.223   6.393   5.480
 9588TIP3   OH228727   1.582   1.959  -0.014
 9588TIP3    H128728   1.546   1.870  -0.017
 9588TIP3    H228729   1.536   1.999   0.060
 9589TIP3   OH228730   1.454   2.595   2.115
 9589TIP3    H128731   1.461   2.517   2.170
 9589TIP3    H228732   1.490   2.665   2.169
 9590TIP3   OH228733   2.914   3.548   5.484
 9590TIP3    H128734   2.954   3.634   5.500
 9590TIP3    H228735   2.824   3.557   5.516
 9591TIP3   OH228736   3.097   5.095   1.144
 9591TIP3    H128737   3.057   5.044   1.214
 9591TIP3    H228738   3.051   5.179   1.146
 9592TIP3   OH228739   3.663   2.791   3.049
 9592TIP3    H128740   3.579   2.780   3.094
 9592TIP3    H228741   3.646   2.856   2.982
 9593TIP3   OH228742   2.630   6.815   2.303
 9593TIP3    H128743   2.628   6.809   2.207
 9593TIP3    H228744   2.715   6.778   2.327
 9594TIP3   OH228745   1.801   3.307   5.348
 9594TIP3    H128746   1.780   3.398   5.370
 9594TIP3    H228747   1.836   3.312   5.259
 9595TIP3   OH228748   5.084   5.335   2.249
 9595TIP3    H128749   5.023   5.387   2.196
 9595TIP3    H228750   5.066   5.363   2.339
 9596TIP3   OH228751   0.057   6.744   1.662
 9596TIP3    H128752   0.057   6.704   1.576
 9596TIP3    H228753  -0.005   6.693   1.713
 9597TIP3   OH228754   7.011   1.351   3.128
 9597TIP3    H128755   6.983   1.442   3.136
 9597TIP3    H228756   7.065   1.350   3.049
 9598TIP3   OH228757   5.672   1.093   3.633
 9598TIP3    H128758   5.730   1.079   3.708
 9598TIP3    H228759   5.611   1.019   3.636
 9599TIP3   OH228760   5.815   2.925   5.903
 9599TIP3    H128761   5.906   2.918   5.931
 9599TIP3    H228762   5.813   2.885   5.816
 9600TIP3   OH228763   3.552   0.490   1.588
 9600TIP3    H128764   3.548   0.395   1.597
 9600TIP3    H228765   3.584   0.505   1.499
 9601TIP3   OH228766   4.059   4.124   1.315
 9601TIP3    H128767   4.121   4.072   1.263
 9601TIP3    H228768   4.027   4.063   1.382
 9602TIP3   OH228769   7.022   5.442   0.964
 9602TIP3    H128770   7.053   5.491   0.888
 9602TIP3    H228771   6.926   5.440   0.954
 9603TIP3   OH228772   0.783   6.517   4.635
 9603TIP3    H128773   0.727   6.516   4.558
 9603TIP3    H228774   0.751   6.445   4.690
 9604TIP3   OH228775   7.114   0.580   4.820
 9604TIP3    H128776   7.184   0.645   4.824
 9604TIP3    H228777   7.035   0.629   4.842
 9605TIP3   OH228778   3.818   0.413   1.725
 9605TIP3    H128779   3.729   0.436   1.699
 9605TIP3    H228780   3.823   0.436   1.818
 9606TIP3   OH228781   6.176   0.169   5.142
 9606TIP3    H128782   6.101   0.227   5.128
 9606TIP3    H228783   6.227   0.213   5.210
 9607TIP3   OH228784   6.820   1.575   1.767
 9607TIP3    H128785   6.854   1.633   1.835
 9607TIP3    H228786   6.725   1.574   1.782
 9608TIP3   OH228787   1.759   4.300   2.733
 9608TIP3    H128788   1.808   4.230   2.691
 9608TIP3    H228789   1.669   4.288   2.704
 9609TIP3   OH228790   3.808   5.421   1.055
 9609TIP3    H128791   3.893   5.394   1.090
 9609TIP3    H228792   3.820   5.418   0.960
 9610TIP3   OH228793   2.515   3.849   0.063
 9610TIP3    H128794   2.420   3.840   0.071
 9610TIP3    H228795   2.527   3.934   0.021
 9611TIP3   OH228796   4.067   1.906   0.231
 9611TIP3    H128797   4.038   1.995   0.253
 9611TIP3    H228798   4.120   1.879   0.306
 9612TIP3   OH228799   5.731   0.942   2.558
 9612TIP3    H128800   5.786   0.869   2.588
 9612TIP3    H228801   5.759   0.957   2.468
 9613TIP3   OH228802   1.964   0.859   3.332
 9613TIP3    H128803   2.038   0.815   3.291
 9613TIP3    H228804   2.003   0.910   3.403
 9614TIP3   OH228805   4.292   5.002   1.408
 9614TIP3    H128806   4.344   5.030   1.333
 9614TIP3    H228807   4.201   5.017   1.382
 9615TIP3   OH228808   6.542   5.876   0.310
 9615TIP3    H128809   6.579   5.953   0.354
 9615TIP3    H228810   6.525   5.815   0.382
 9616TIP3   OH228811   4.769   2.105   3.230
 9616TIP3    H128812   4.739   2.032   3.284
 9616TIP3    H228813   4.840   2.068   3.178
 9617TIP3   OH228814   0.274   5.608   2.977
 9617TIP3    H128815   0.298   5.517   2.959
 9617TIP3    H228816   0.356   5.656   2.975
 9618TIP3   OH228817   4.908   5.493   5.457
 9618TIP3    H128818   4.817   5.517   5.440
 9618TIP3    H228819   4.918   5.407   5.417
 9619TIP3   OH228820   6.193   4.151   3.545
 9619TIP3    H128821   6.221   4.060   3.537
 9619TIP3    H228822   6.106   4.153   3.505
 9620TIP3   OH228823   1.627   1.842   5.121
 9620TIP3    H128824   1.582   1.792   5.052
 9620TIP3    H228825   1.608   1.933   5.101
 9621TIP3   OH228826   4.046   5.712   4.197
 9621TIP3    H128827   4.112   5.778   4.176
 9621TIP3    H228828   3.992   5.753   4.265
 9622TIP3   OH228829   0.252   1.627   4.141
 9622TIP3    H128830   0.337   1.582   4.133
 9622TIP3    H228831   0.240   1.639   4.235
 9623TIP3   OH228832   5.417   1.787   2.164
 9623TIP3    H128833   5.398   1.868   2.212
 9623TIP3    H228834   5.445   1.725   2.231
 9624TIP3   OH228835   2.833   0.946   1.907
 9624TIP3    H128836   2.768   0.920   1.843
 9624TIP3    H228837   2.916   0.912   1.872
 9625TIP3   OH228838   4.896   4.334   1.504
 9625TIP3    H128839   4.979   4.289   1.522
 9625TIP3    H228840   4.893   4.405   1.568
 9626TIP3   OH228841   4.667   3.697   3.483
 9626TIP3    H128842   4.676   3.792   3.481
 9626TIP3    H228843   4.598   3.681   3.547
 9627TIP3   OH228844   2.388   0.308   4.151
 9627TIP3    H128845   2.406   0.385   4.205
 9627TIP3    H228846   2.380   0.342   4.062
 9628TIP3   OH228847   4.062   0.586   0.973
 9628TIP3    H128848   4.135   0.637   0.936
 9628TIP3    H228849   3.986   0.644   0.965
 9629TIP3   OH228850   1.987   1.665   2.831
 9629TIP3    H128851   1.943   1.711   2.759
 9629TIP3    H228852   2.044   1.602   2.788
 9630TIP3   OH228853   2.080   4.593   2.365
 9630TIP3    H128854   2.126   4.564   2.286
 9630TIP3    H228855   2.139   4.570   2.437
 9631TIP3   OH228856   1.630   2.070   5.628
 9631TIP3    H128857   1.644   2.062   5.534
 9631TIP3    H228858   1.568   2.143   5.637
 9632TIP3   OH228859   3.862   3.725   0.394
 9632TIP3    H128860   3.936   3.672   0.365
 9632TIP3    H228861   3.856   3.796   0.330
 9633TIP3   OH228862   2.861   2.372   1.969
 9633TIP3    H128863   2.900   2.285   1.962
 9633TIP3    H228864   2.880   2.400   2.059
 9634TIP3   OH228865   5.915   5.181   1.267
 9634TIP3    H128866   5.995   5.179   1.214
 9634TIP3    H228867   5.855   5.236   1.217
 9635TIP3   OH228868   6.788   2.108   3.745
 9635TIP3    H128869   6.779   2.122   3.839
 9635TIP3    H228870   6.719   2.162   3.706
 9636TIP3   OH228871   0.081   3.418   5.363
 9636TIP3    H128872   0.167   3.379   5.378
 9636TIP3    H228873   0.057   3.389   5.274
 9637TIP3   OH228874   4.334   3.881   5.887
 9637TIP3    H128875   4.387   3.840   5.818
 9637TIP3    H228876   4.264   3.927   5.840
 9638TIP3   OH228877   6.781   5.919   1.981
 9638TIP3    H128878   6.775   5.977   1.905
 9638TIP3    H228879   6.873   5.891   1.982
 9639TIP3   OH228880   6.326   2.633   3.162
 9639TIP3    H128881   6.384   2.651   3.087
 9639TIP3    H228882   6.240   2.664   3.133
 9640TIP3   OH228883   1.104   4.953   0.581
 9640TIP3    H128884   1.176   5.005   0.615
 9640TIP3    H228885   1.038   5.017   0.553
 9641TIP3   OH228886   0.549   1.302   2.818
 9641TIP3    H128887   0.615   1.363   2.852
 9641TIP3    H228888   0.546   1.231   2.883
 9642TIP3   OH228889   6.014   3.018   4.447
 9642TIP3    H128890   5.971   3.042   4.365
 9642TIP3    H228891   6.070   3.094   4.468
 9643TIP3   OH228892   1.579   3.122   4.473
 9643TIP3    H128893   1.510   3.138   4.408
 9643TIP3    H228894   1.643   3.068   4.427
 9644TIP3   OH228895   2.376   0.277   1.215
 9644TIP3    H128896   2.437   0.219   1.262
 9644TIP3    H228897   2.292   0.263   1.258
 9645TIP3   OH228898   1.230   1.914   1.207
 9645TIP3    H128899   1.299   1.882   1.265
 9645TIP3    H228900   1.149   1.884   1.248
 9646TIP3   OH228901   4.406   6.655   2.457
 9646TIP3    H128902   4.404   6.742   2.496
 9646TIP3    H228903   4.494   6.647   2.421
 9647TIP3   OH228904   3.277   3.675   2.642
 9647TIP3    H128905   3.351   3.616   2.629
 9647TIP3    H228906   3.221   3.661   2.565
 9648TIP3   OH228907   6.888   4.549   2.731
 9648TIP3    H128908   6.799   4.521   2.711
 9648TIP3    H228909   6.900   4.628   2.679
 9649TIP3   OH228910   3.813   1.031   4.519
 9649TIP3    H128911   3.867   0.986   4.584
 9649TIP3    H228912   3.725   1.028   4.554
 9650TIP3   OH228913   0.178   4.237   1.449
 9650TIP3    H128914   0.115   4.308   1.444
 9650TIP3    H228915   0.263   4.280   1.448
 9651TIP3   OH228916   6.347   5.737   2.050
 9651TIP3    H128917   6.271   5.792   2.033
 9651TIP3    H228918   6.321   5.682   2.123
 9652TIP3   OH228919   0.653   6.458   5.555
 9652TIP3    H128920   0.562   6.461   5.524
 9652TIP3    H228921   0.683   6.370   5.532
 9653TIP3   OH228922   5.909   2.404   4.710
 9653TIP3    H128923   5.967   2.457   4.765
 9653TIP3    H228924   5.851   2.360   4.773
 9654TIP3   OH228925   2.350   1.195   0.161
 9654TIP3    H128926   2.436   1.154   0.175
 9654TIP3    H228927   2.313   1.203   0.249
 9655TIP3   OH228928   2.935   1.808   4.035
 9655TIP3    H128929   2.970   1.756   3.962
 9655TIP3    H228930   3.004   1.872   4.053
 9656TIP3   OH228931   0.718   0.991   1.856
 9656TIP3    H128932   0.668   0.963   1.779
 9656TIP3    H228933   0.683   1.077   1.878
 9657TIP3   OH228934   2.061   4.655   0.283
 9657TIP3    H128935   2.100   4.710   0.215
 9657TIP3    H228936   2.113   4.575   0.281
 9658TIP3   OH228937   1.107   0.831   2.834
 9658TIP3    H128938   1.070   0.743   2.824
 9658TIP3    H228939   1.180   0.833   2.772
 9659TIP3   OH228940   6.685   5.925   2.728
 9659TIP3    H128941   6.711   5.991   2.792
 9659TIP3    H228942   6.589   5.930   2.726
 9660TIP3   OH228943   0.731   6.565   5.323
 9660TIP3    H128944   0.672   6.539   5.394
 9660TIP3    H228945   0.818   6.565   5.362
 9661TIP3   OH228946   6.918  -0.025   3.949
 9661TIP3    H128947   6.890   0.063   3.928
 9661TIP3    H228948   6.864  -0.082   3.894
 9662TIP3   OH228949   5.767   3.845   3.800
 9662TIP3    H128950   5.728   3.776   3.746
 9662TIP3    H228951   5.767   3.810   3.889
 9663TIP3   OH228952   2.909   3.613   5.169
 9663TIP3    H128953   2.864   3.682   5.217
 9663TIP3    H228954   2.911   3.644   5.079
 9664TIP3   OH228955   0.520   5.010   4.830
 9664TIP3    H128956   0.518   4.943   4.899
 9664TIP3    H228957   0.609   5.003   4.794
 9665TIP3   OH228958   2.593   2.926   1.145
 9665TIP3    H128959   2.643   2.845   1.141
 9665TIP3    H228960   2.505   2.898   1.170
 9666TIP3   OH228961   6.565   6.312   3.682
 9666TIP3    H128962   6.622   6.267   3.744
 9666TIP3    H228963   6.623   6.336   3.609
 9667TIP3   OH228964   4.856   4.153   4.631
 9667TIP3    H128965   4.888   4.214   4.697
 9667TIP3    H228966   4.878   4.194   4.547
 9668TIP3   OH228967   0.189   5.170   1.620
 9668TIP3    H128968   0.215   5.236   1.684
 9668TIP3    H228969   0.259   5.173   1.554
 9669TIP3   OH228970   2.042   3.390   5.707
 9669TIP3    H128971   2.023   3.346   5.790
 9669TIP3    H228972   2.024   3.324   5.640
 9670TIP3   OH228973   3.659   1.755   5.067
 9670TIP3    H128974   3.566   1.745   5.048
 9670TIP3    H228975   3.684   1.672   5.108
 9671TIP3   OH228976   5.265   0.758   0.224
 9671TIP3    H128977   5.181   0.804   0.237
 9671TIP3    H228978   5.272   0.747   0.129
 9672TIP3   OH228979   4.100   2.530   5.360
 9672TIP3    H128980   4.182   2.482   5.352
 9672TIP3    H228981   4.032   2.462   5.360
 9673TIP3   OH228982   1.481   2.250   1.881
 9673TIP3    H128983   1.495   2.245   1.976
 9673TIP3    H228984   1.569   2.257   1.844
 9674TIP3   OH228985   5.786   4.489   4.173
 9674TIP3    H128986   5.840   4.509   4.097
 9674TIP3    H228987   5.835   4.524   4.247
 9675TIP3   OH228988   3.052   6.397   3.567
 9675TIP3    H128989   3.133   6.398   3.516
 9675TIP3    H228990   3.081   6.378   3.657
 9676TIP3   OH228991   0.400   1.199   5.663
 9676TIP3    H128992   0.352   1.157   5.592
 9676TIP3    H228993   0.488   1.160   5.660
 9677TIP3   OH228994   4.275   5.542   0.386
 9677TIP3    H128995   4.328   5.571   0.312
 9677TIP3    H228996   4.254   5.450   0.365
 9678TIP3   OH228997   5.355   4.948   0.567
 9678TIP3    H128998   5.270   4.911   0.544
 9678TIP3    H228999   5.413   4.872   0.571
 9679TIP3   OH229000   3.612   1.333   1.050
 9679TIP3    H129001   3.632   1.417   1.008
 9679TIP3    H229002   3.675   1.326   1.121
 9680TIP3   OH229003   0.097   1.810   3.750
 9680TIP3    H129004   0.179   1.804   3.799
 9680TIP3    H229005   0.109   1.887   3.694
 9681TIP3   OH229006   2.322   3.268   2.093
 9681TIP3    H129007   2.364   3.235   2.014
 9681TIP3    H229008   2.237   3.224   2.096
 9682TIP3   OH229009   4.589   5.266   5.134
 9682TIP3    H129010   4.551   5.254   5.221
 9682TIP3    H229011   4.644   5.188   5.121
 9683TIP3   OH229012   5.596   2.638   4.928
 9683TIP3    H129013   5.635   2.647   4.841
 9683TIP3    H229014   5.516   2.587   4.914
 9684TIP3   OH229015   7.234   1.889   4.432
 9684TIP3    H129016   7.226   1.947   4.356
 9684TIP3    H229017   7.177   1.929   4.498
 9685TIP3   OH229018   6.235   3.746   3.191
 9685TIP3    H129019   6.257   3.835   3.220
 9685TIP3    H229020   6.255   3.691   3.267
 9686TIP3   OH229021   6.688   6.230   4.170
 9686TIP3    H129022   6.670   6.323   4.156
 9686TIP3    H229023   6.660   6.188   4.089
 9687TIP3   OH229024   2.111   4.148   4.795
 9687TIP3    H129025   2.113   4.217   4.862
 9687TIP3    H229026   2.020   4.148   4.764
 9688TIP3   OH229027   2.398   6.678   4.277
 9688TIP3    H129028   2.471   6.739   4.279
 9688TIP3    H229029   2.413   6.621   4.353
 9689TIP3   OH229030   3.234   6.340   4.486
 9689TIP3    H129031   3.318   6.317   4.525
 9689TIP3    H229032   3.177   6.266   4.509
 9690TIP3   OH229033   6.927   1.564   3.618
 9690TIP3    H129034   6.910   1.581   3.525
 9690TIP3    H229035   6.891   1.476   3.633
 9691TIP3   OH229036   1.689   1.813   5.682
 9691TIP3    H129037   1.691   1.907   5.664
 9691TIP3    H229038   1.757   1.776   5.625
 9692TIP3   OH229039   1.430   6.640   5.435
 9692TIP3    H129040   1.442   6.607   5.346
 9692TIP3    H229041   1.358   6.587   5.470
 9693TIP3   OH229042   5.854   3.113   4.675
 9693TIP3    H129043   5.771   3.081   4.711
 9693TIP3    H229044   5.884   3.041   4.619
 9694TIP3   OH229045   1.352   3.690   4.454
 9694TIP3    H129046   1.320   3.625   4.391
 9694TIP3    H229047   1.446   3.671   4.461
 9695TIP3   OH229048   4.347   0.686   4.951
 9695TIP3    H129049   4.326   0.752   5.016
 9695TIP3    H229050   4.443   0.691   4.943
 9696TIP3   OH229051   5.211   4.440   4.658
 9696TIP3    H129052   5.170   4.427   4.572
 9696TIP3    H229053   5.288   4.494   4.639
 9697TIP3   OH229054   4.702   1.245   1.998
 9697TIP3    H129055   4.723   1.152   2.005
 9697TIP3    H229056   4.786   1.287   1.983
 9698TIP3   OH229057   2.231   0.205   5.714
 9698TIP3    H129058   2.176   0.141   5.759
 9698TIP3    H229059   2.171   0.256   5.661
 9699TIP3   OH229060   4.708   4.107   2.932
 9699TIP3    H129061   4.701   4.018   2.965
 9699TIP3    H229062   4.694   4.098   2.837
 9700TIP3   OH229063   7.177   2.944   3.607
 9700TIP3    H129064   7.245   2.976   3.548
 9700TIP3    H229065   7.097   2.947   3.555
 9701TIP3   OH229066   4.794   5.955   5.154
 9701TIP3    H129067   4.868   5.899   5.179
 9701TIP3    H229068   4.834   6.038   5.130
 9702TIP3   OH229069   4.791   0.419   3.162
 9702TIP3    H129070   4.795   0.335   3.117
 9702TIP3    H229071   4.820   0.400   3.251
 9703TIP3   OH229072   0.026   1.001   4.999
 9703TIP3    H129073   0.030   0.909   4.973
 9703TIP3    H229074  -0.019   1.000   5.083
 9704TIP3   OH229075   3.922   5.439   2.920
 9704TIP3    H129076   4.005   5.453   2.964
 9704TIP3    H229077   3.903   5.523   2.877
 9705TIP3   OH229078   0.360   4.066   0.791
 9705TIP3    H129079   0.286   4.027   0.838
 9705TIP3    H229080   0.404   3.992   0.749
 9706TIP3   OH229081   1.504   5.718   1.525
 9706TIP3    H129082   1.581   5.681   1.568
 9706TIP3    H229083   1.536   5.751   1.442
 9707TIP3   OH229084   0.815   5.613   1.425
 9707TIP3    H129085   0.752   5.551   1.389
 9707TIP3    H229086   0.764   5.690   1.448
 9708TIP3   OH229087   2.171   5.875   3.716
 9708TIP3    H129088   2.259   5.837   3.720
 9708TIP3    H229089   2.123   5.817   3.656
 9709TIP3   OH229090   1.357   6.468   4.632
 9709TIP3    H129091   1.375   6.380   4.666
 9709TIP3    H229092   1.427   6.484   4.568
 9710TIP3   OH229093   4.206   0.879   1.687
 9710TIP3    H129094   4.200   0.900   1.780
 9710TIP3    H229095   4.168   0.792   1.679
 9711TIP3   OH229096   3.515   5.638   5.599
 9711TIP3    H129097   3.552   5.568   5.654
 9711TIP3    H229098   3.549   5.719   5.637
 9712TIP3   OH229099   0.242   0.653   5.123
 9712TIP3    H129100   0.273   0.710   5.193
 9712TIP3    H229101   0.299   0.576   5.127
 9713TIP3   OH229102   1.968   0.956   2.514
 9713TIP3    H129103   1.890   1.001   2.484
 9713TIP3    H229104   2.022   0.945   2.435
 9714TIP3   OH229105   4.175   6.061   4.390
 9714TIP3    H129106   4.147   6.151   4.409
 9714TIP3    H229107   4.251   6.048   4.447
 9715TIP3   OH229108   5.010   1.231   5.693
 9715TIP3    H129109   4.943   1.287   5.732
 9715TIP3    H229110   4.968   1.145   5.686
 9716TIP3   OH229111   2.166   3.238   4.059
 9716TIP3    H129112   2.089   3.275   4.015
 9716TIP3    H229113   2.198   3.309   4.114
 9717TIP3   OH229114   5.331   6.745   3.206
 9717TIP3    H129115   5.366   6.662   3.239
 9717TIP3    H229116   5.241   6.747   3.240
 9718TIP3   OH229117   4.303   4.700   3.856
 9718TIP3    H129118   4.378   4.676   3.801
 9718TIP3    H229119   4.343   4.728   3.939
 9719TIP3   OH229120   1.058   0.382   5.110
 9719TIP3    H129121   1.101   0.317   5.054
 9719TIP3    H229122   1.122   0.453   5.117
 9720TIP3   OH229123   6.441   0.933   5.137
 9720TIP3    H129124   6.424   0.983   5.056
 9720TIP3    H229125   6.375   0.863   5.136
 9721TIP3   OH229126   3.889   5.570   2.097
 9721TIP3    H129127   3.945   5.503   2.138
 9721TIP3    H229128   3.914   5.569   2.004
 9722TIP3   OH229129   3.013   2.006   1.202
 9722TIP3    H129130   2.918   2.010   1.210
 9722TIP3    H229131   3.031   1.919   1.166
 9723TIP3   OH229132   1.521   1.531   3.549
 9723TIP3    H129133   1.534   1.618   3.513
 9723TIP3    H229134   1.604   1.486   3.534
 9724TIP3   OH229135   0.442   3.192   3.386
 9724TIP3    H129136   0.458   3.276   3.428
 9724TIP3    H229137   0.524   3.170   3.342
 9725TIP3   OH229138   0.105   0.594   3.262
 9725TIP3    H129139   0.035   0.658   3.249
 9725TIP3    H229140   0.152   0.592   3.179
 9726TIP3   OH229141   5.100   0.951   1.681
 9726TIP3    H129142   5.095   0.926   1.774
 9726TIP3    H229143   5.158   0.885   1.642
 9727TIP3   OH229144   1.970   3.084   1.564
 9727TIP3    H129145   2.027   3.157   1.539
 9727TIP3    H229146   2.025   3.031   1.622
 9728TIP3   OH229147   3.628   2.156   5.634
 9728TIP3    H129148   3.654   2.188   5.548
 9728TIP3    H229149   3.649   2.062   5.631
 9729TIP3   OH229150   4.548   5.281   5.746
 9729TIP3    H129151   4.476   5.302   5.805
 9729TIP3    H229152   4.599   5.362   5.740
 9730TIP3   OH229153   3.121   4.690   3.334
 9730TIP3    H129154   3.124   4.595   3.346
 9730TIP3    H229155   3.169   4.706   3.253
 9731TIP3   OH229156   1.009   0.322   2.279
 9731TIP3    H129157   1.066   0.287   2.211
 9731TIP3    H229158   0.924   0.282   2.261
 9732TIP3   OH229159   3.535   0.786   3.209
 9732TIP3    H129160   3.518   0.740   3.127
 9732TIP3    H229161   3.473   0.859   3.210
 9733TIP3   OH229162   5.331   0.911   3.660
 9733TIP3    H129163   5.261   0.967   3.625
 9733TIP3    H229164   5.385   0.889   3.584
 9734TIP3   OH229165   3.667   4.656   0.220
 9734TIP3    H129166   3.611   4.591   0.264
 9734TIP3    H229167   3.706   4.608   0.148
 9735TIP3   OH229168   6.414   5.495   1.347
 9735TIP3    H129169   6.471   5.573   1.350
 9735TIP3    H229170   6.345   5.514   1.410
 9736TIP3   OH229171   4.041   2.580   4.823
 9736TIP3    H129172   4.062   2.563   4.915
 9736TIP3    H229173   3.994   2.664   4.824
 9737TIP3   OH229174   4.376   4.481   1.819
 9737TIP3    H129175   4.385   4.577   1.818
 9737TIP3    H229176   4.307   4.463   1.755
 9738TIP3   OH229177   5.524   0.052   1.744
 9738TIP3    H129178   5.566  -0.033   1.734
 9738TIP3    H229179   5.539   0.096   1.660
 9739TIP3   OH229180   0.619   2.847   0.338
 9739TIP3    H129181   0.612   2.934   0.378
 9739TIP3    H229182   0.644   2.865   0.247
 9740TIP3   OH229183   3.392   5.169   5.308
 9740TIP3    H129184   3.324   5.102   5.305
 9740TIP3    H229185   3.421   5.170   5.400
 9741TIP3   OH229186   6.658   1.932   2.975
 9741TIP3    H129187   6.647   1.969   3.062
 9741TIP3    H229188   6.646   1.838   2.988
 9742TIP3   OH229189   2.741   4.150   2.625
 9742TIP3    H129190   2.725   4.194   2.542
 9742TIP3    H229191   2.659   4.107   2.647
 9743TIP3   OH229192   3.831   2.162   0.841
 9743TIP3    H129193   3.864   2.249   0.820
 9743TIP3    H229194   3.786   2.133   0.762
 9744TIP3   OH229195   0.827   2.083   1.007
 9744TIP3    H129196   0.812   2.163   1.059
 9744TIP3    H229197   0.773   2.017   1.050
 9745TIP3   OH229198   0.169   3.326   1.305
 9745TIP3    H129199   0.094   3.359   1.354
 9745TIP3    H229200   0.192   3.397   1.245
 9746TIP3   OH229201   7.127   3.973   1.124
 9746TIP3    H129202   7.145   3.883   1.097
 9746TIP3    H229203   7.042   3.993   1.085
 9747TIP3   OH229204   6.184   2.106   3.089
 9747TIP3    H129205   6.212   2.083   3.178
 9747TIP3    H229206   6.097   2.144   3.100
 9748TIP3   OH229207   3.271   4.741   5.598
 9748TIP3    H129208   3.192   4.740   5.652
 9748TIP3    H229209   3.317   4.660   5.621
 9749TIP3   OH229210   6.087   4.462   4.993
 9749TIP3    H129211   6.123   4.522   4.927
 9749TIP3    H229212   6.127   4.377   4.972
   7.21460   6.80199   5.89068   0.00000   0.00000  -2.40487   0.00000  -2.40487  -3.40099
