Title t= 354.00000 step= 177000
19927
    1ASP      N    1   0.995   0.804   2.039
    1ASP    HT1    2   1.013   0.788   2.140
    1ASP    HT2    3   0.895   0.809   2.009
    1ASP    HT3    4   1.044   0.889   2.003
    1ASP     CA    5   1.050   0.686   1.972
    1ASP     HA    6   0.987   0.603   2.000
    1ASP     CB    7   1.013   0.698   1.814
    1ASP    HB1    8   1.074   0.774   1.762
    1ASP    HB2    9   0.906   0.729   1.812
    1ASP     CG   10   1.027   0.558   1.747
    1ASP    OD1   11   1.041   0.451   1.818
    1ASP    OD2   12   1.017   0.555   1.619
    1ASP      C   13   1.197   0.658   1.987
    1ASP      O   14   1.245   0.607   2.086
    2ALA      N   15   1.275   0.705   1.894
    2ALA     HN   16   1.244   0.765   1.820
    2ALA     CA   17   1.424   0.690   1.903
    2ALA     HA   18   1.449   0.589   1.930
    2ALA     CB   19   1.480   0.699   1.756
    2ALA    HB1   20   1.435   0.624   1.686
    2ALA    HB2   21   1.591   0.688   1.759
    2ALA    HB3   22   1.459   0.798   1.711
    2ALA      C   23   1.482   0.787   1.996
    2ALA      O   24   1.418   0.877   2.046
    3ASP      N   25   1.610   0.766   2.039
    3ASP     HN   26   1.656   0.683   2.008
    3ASP     CA   27   1.673   0.836   2.150
    3ASP     HA   28   1.594   0.874   2.214
    3ASP     CB   29   1.770   0.750   2.240
    3ASP    HB1   30   1.818   0.805   2.323
    3ASP    HB2   31   1.851   0.720   2.170
    3ASP     CG   32   1.697   0.628   2.292
    3ASP    OD1   33   1.570   0.615   2.288
    3ASP    OD2   34   1.764   0.542   2.355
    3ASP      C   35   1.739   0.959   2.109
    3ASP      O   36   1.809   0.974   2.011
    4GLY      N   37   1.710   1.064   2.188
    4GLY     HN   38   1.647   1.045   2.263
    4GLY     CA   39   1.774   1.194   2.159
    4GLY    HA1   40   1.705   1.242   2.092
    4GLY    HA2   41   1.874   1.188   2.119
    4GLY      C   42   1.793   1.264   2.294
    4GLY      O   43   1.772   1.210   2.399
    5PRO      N   44   1.843   1.388   2.283
    5PRO     CD   45   1.865   1.454   2.154
    5PRO    HD1   46   1.781   1.437   2.083
    5PRO    HD2   47   1.964   1.416   2.122
    5PRO     CA   48   1.873   1.475   2.392
    5PRO     HA   49   1.940   1.417   2.454
    5PRO     CB   50   1.938   1.598   2.333
    5PRO    HB1   51   2.046   1.576   2.320
    5PRO    HB2   52   1.927   1.698   2.379
    5PRO     CG   53   1.889   1.600   2.187
    5PRO    HG1   54   1.795   1.659   2.195
    5PRO    HG2   55   1.958   1.651   2.117
    5PRO      C   56   1.755   1.518   2.470
    5PRO      O   57   1.777   1.573   2.579
    6GLY      N   58   1.624   1.489   2.424
    6GLY     HN   59   1.596   1.440   2.342
    6GLY     CA   60   1.512   1.530   2.508
    6GLY    HA1   61   1.534   1.512   2.612
    6GLY    HA2   62   1.428   1.472   2.470
    6GLY      C   63   1.470   1.677   2.485
    6GLY      O   64   1.537   1.755   2.419
    7ASP      N   65   1.351   1.712   2.535
    7ASP     HN   66   1.291   1.647   2.581
    7ASP     CA   67   1.308   1.850   2.514
    7ASP     HA   68   1.314   1.881   2.411
    7ASP     CB   69   1.157   1.857   2.544
    7ASP    HB1   70   1.123   1.963   2.554
    7ASP    HB2   71   1.144   1.809   2.643
    7ASP     CG   72   1.076   1.783   2.448
    7ASP    OD1   73   1.115   1.774   2.331
    7ASP    OD2   74   0.960   1.746   2.487
    7ASP      C   75   1.377   1.945   2.606
    7ASP      O   76   1.373   1.908   2.723
    8PRO      N   77   1.425   2.067   2.565
    8PRO     CD   78   1.444   2.103   2.421
    8PRO    HD1   79   1.350   2.141   2.376
    8PRO    HD2   80   1.469   2.010   2.366
    8PRO     CA   81   1.482   2.168   2.661
    8PRO     HA   82   1.557   2.116   2.719
    8PRO     CB   83   1.546   2.273   2.568
    8PRO    HB1   84   1.643   2.309   2.608
    8PRO    HB2   85   1.471   2.354   2.561
    8PRO     CG   86   1.560   2.200   2.435
    8PRO    HG1   87   1.550   2.271   2.350
    8PRO    HG2   88   1.661   2.155   2.436
    8PRO      C   89   1.389   2.231   2.768
    8PRO      O   90   1.273   2.237   2.742
    9ASP      N   91   1.445   2.269   2.884
    9ASP     HN   92   1.538   2.237   2.898
    9ASP     CA   93   1.365   2.325   2.994
    9ASP     HA   94   1.288   2.251   3.011
    9ASP     CB   95   1.450   2.358   3.122
    9ASP    HB1   96   1.396   2.399   3.210
    9ASP    HB2   97   1.539   2.419   3.094
    9ASP     CG   98   1.501   2.226   3.176
    9ASP    OD1   99   1.421   2.128   3.179
    9ASP    OD2  100   1.613   2.215   3.233
    9ASP      C  101   1.294   2.458   2.959
    9ASP      O  102   1.329   2.529   2.867
   10ALA      N  103   1.193   2.508   3.037
   10ALA     HN  104   1.153   2.450   3.108
   10ALA     CA  105   1.151   2.650   3.032
   10ALA     HA  106   1.126   2.660   2.927
   10ALA     CB  107   1.018   2.682   3.103
   10ALA    HB1  108   1.023   2.647   3.208
   10ALA    HB2  109   0.931   2.629   3.058
   10ALA    HB3  110   1.003   2.791   3.092
   10ALA      C  111   1.265   2.739   3.078
   10ALA      O  112   1.307   2.729   3.190
   11GLY      N  113   1.322   2.828   2.994
   11GLY     HN  114   1.295   2.822   2.898
   11GLY     CA  115   1.439   2.920   3.027
   11GLY    HA1  116   1.480   2.943   2.930
   11GLY    HA2  117   1.504   2.866   3.095
   11GLY      C  118   1.397   3.051   3.091
   11GLY    OT1  119   1.287   3.103   3.054
   11GLY    OT2  120   1.467   3.100   3.181
   12SOD    SOD  121   4.942   3.151   3.427
   13SOD    SOD  122   4.842   3.123   5.066
   14SOD    SOD  123   4.333   4.075   1.841
   15SOD    SOD  124   1.529   4.749   5.172
   16SOD    SOD  125   6.317   3.438   2.817
   17SOD    SOD  126   2.566   2.356   4.490
   18SOD    SOD  127   0.518   3.333   0.260
   19SOD    SOD  128   2.462   1.897   0.743
   20SOD    SOD  129   2.387   4.473   3.188
   21SOD    SOD  130   3.502   3.525   2.089
   22SOD    SOD  131   5.606   3.570   2.691
   23SOD    SOD  132   1.916   3.542   3.082
   24SOD    SOD  133   2.997   0.414   2.721
   25SOD    SOD  134   4.117   5.587   2.133
   26SOD    SOD  135   0.984   4.224   2.526
   27SOD    SOD  136   5.882   3.060   1.711
   28SOD    SOD  137   4.994   4.137   0.931
   29SOD    SOD  138   5.351   0.858   4.441
   30SOD    SOD  139   3.447   3.292   4.974
   31SOD    SOD  140   2.985   3.952   1.341
   32SOD    SOD  141   1.074   4.633   4.461
   33SOD    SOD  142   6.088   1.471   2.936
   34CLA    CLA  143   5.024   1.695   0.580
   35CLA    CLA  144   0.680   4.023   3.939
   36CLA    CLA  145   1.110   0.199   2.134
   37CLA    CLA  146   2.811   4.845   2.480
   38CLA    CLA  147   4.491   2.389   4.668
   39CLA    CLA  148   4.338   0.461   1.858
   40CLA    CLA  149   2.849   2.884   0.756
   41CLA    CLA  150   5.949   4.818   1.610
   42CLA    CLA  151   2.863   1.781   4.399
   43CLA    CLA  152   3.757   3.496   2.499
   44CLA    CLA  153   0.410   4.608   2.932
   45CLA    CLA  154   6.022   2.200   1.575
   46CLA    CLA  155   4.924   3.691   4.565
   47CLA    CLA  156   2.402   1.085   1.449
   48CLA    CLA  157   2.473   1.361   3.578
   49CLA    CLA  158   1.707   3.777   2.020
   50CLA    CLA  159   0.428   0.751   3.768
   51CLA    CLA  160   0.983   1.022   0.771
   52TIP3   OH2  161   0.162   4.940   1.009
   52TIP3    H1  162   0.150   4.845   1.013
   52TIP3    H2  163   0.100   4.976   1.072
   53TIP3   OH2  164   0.710   1.936   4.072
   53TIP3    H1  165   0.668   1.877   4.135
   53TIP3    H2  166   0.800   1.903   4.064
   54TIP3   OH2  167   6.061   4.454   3.097
   54TIP3    H1  168   5.971   4.482   3.079
   54TIP3    H2  169   6.054   4.401   3.177
   55TIP3   OH2  170   4.774   5.104   0.063
   55TIP3    H1  171   4.776   5.197   0.086
   55TIP3    H2  172   4.777   5.103  -0.032
   56TIP3   OH2  173   4.056   4.918   0.586
   56TIP3    H1  174   4.051   4.829   0.619
   56TIP3    H2  175   4.009   4.971   0.651
   57TIP3   OH2  176   3.076   2.017   0.693
   57TIP3    H1  177   3.139   2.017   0.766
   57TIP3    H2  178   2.993   2.044   0.733
   58TIP3   OH2  179   5.653   1.105   2.515
   58TIP3    H1  180   5.558   1.102   2.503
   58TIP3    H2  181   5.670   1.188   2.559
   59TIP3   OH2  182   4.829   0.224   2.202
   59TIP3    H1  183   4.821   0.140   2.158
   59TIP3    H2  184   4.904   0.267   2.160
   60TIP3   OH2  185   0.452   2.412   1.093
   60TIP3    H1  186   0.391   2.450   1.157
   60TIP3    H2  187   0.493   2.340   1.140
   61TIP3   OH2  188   1.414   5.555   1.549
   61TIP3    H1  189   1.340   5.606   1.582
   61TIP3    H2  190   1.377   5.501   1.479
   62TIP3   OH2  191   1.197   4.723   3.365
   62TIP3    H1  192   1.127   4.684   3.313
   62TIP3    H2  193   1.239   4.648   3.408
   63TIP3   OH2  194   3.170   4.863   1.854
   63TIP3    H1  195   3.252   4.909   1.835
   63TIP3    H2  196   3.197   4.787   1.905
   64TIP3   OH2  197   1.195   3.339   2.200
   64TIP3    H1  198   1.208   3.415   2.144
   64TIP3    H2  199   1.118   3.360   2.253
   65TIP3   OH2  200   4.602   5.665   3.764
   65TIP3    H1  201   4.612   5.573   3.788
   65TIP3    H2  202   4.510   5.684   3.781
   66TIP3   OH2  203   4.850   3.571   4.291
   66TIP3    H1  204   4.882   3.600   4.377
   66TIP3    H2  205   4.755   3.563   4.303
   67TIP3   OH2  206   3.598   1.699   2.745
   67TIP3    H1  207   3.634   1.621   2.703
   67TIP3    H2  208   3.564   1.752   2.673
   68TIP3   OH2  209   2.680   3.014   4.521
   68TIP3    H1  210   2.638   3.067   4.453
   68TIP3    H2  211   2.668   3.064   4.601
   69TIP3   OH2  212   2.460   0.366   0.235
   69TIP3    H1  213   2.509   0.324   0.306
   69TIP3    H2  214   2.516   0.358   0.158
   70TIP3   OH2  215   1.975   3.285   4.150
   70TIP3    H1  216   2.035   3.232   4.097
   70TIP3    H2  217   1.986   3.252   4.239
   71TIP3   OH2  218   1.905   4.624   4.870
   71TIP3    H1  219   1.980   4.683   4.885
   71TIP3    H2  220   1.945   4.539   4.854
   72TIP3   OH2  221   3.315   0.582   4.045
   72TIP3    H1  222   3.383   0.620   4.101
   72TIP3    H2  223   3.305   0.645   3.974
   73TIP3   OH2  224   6.293   3.129   0.186
   73TIP3    H1  225   6.388   3.133   0.193
   73TIP3    H2  226   6.274   3.149   0.095
   74TIP3   OH2  227   2.246   5.329   3.811
   74TIP3    H1  228   2.221   5.347   3.720
   74TIP3    H2  229   2.217   5.407   3.859
   75TIP3   OH2  230   2.499   2.931   4.823
   75TIP3    H1  231   2.438   2.953   4.753
   75TIP3    H2  232   2.582   2.913   4.779
   76TIP3   OH2  233   4.387   2.606   1.156
   76TIP3    H1  234   4.303   2.653   1.154
   76TIP3    H2  235   4.444   2.663   1.208
   77TIP3   OH2  236   0.947   5.673   3.984
   77TIP3    H1  237   0.912   5.606   4.043
   77TIP3    H2  238   1.018   5.628   3.937
   78TIP3   OH2  239   5.077   3.886   2.911
   78TIP3    H1  240   5.133   3.868   2.835
   78TIP3    H2  241   5.037   3.802   2.932
   79TIP3   OH2  242   0.467   5.825   1.907
   79TIP3    H1  243   0.405   5.790   1.971
   79TIP3    H2  244   0.507   5.900   1.951
   80TIP3   OH2  245   2.046   2.420   1.316
   80TIP3    H1  246   2.004   2.441   1.233
   80TIP3    H2  247   2.060   2.505   1.358
   81TIP3   OH2  248   0.377   0.265   1.433
   81TIP3    H1  249   0.415   0.296   1.516
   81TIP3    H2  250   0.435   0.300   1.366
   82TIP3   OH2  251   1.519   4.871   2.572
   82TIP3    H1  252   1.603   4.850   2.533
   82TIP3    H2  253   1.457   4.867   2.498
   83TIP3   OH2  254   2.453   3.239   3.946
   83TIP3    H1  255   2.386   3.276   3.888
   83TIP3    H2  256   2.535   3.255   3.902
   84TIP3   OH2  257   3.405   0.673   1.654
   84TIP3    H1  258   3.405   0.613   1.728
   84TIP3    H2  259   3.319   0.660   1.613
   85TIP3   OH2  260   2.403   0.992   4.963
   85TIP3    H1  261   2.456   0.941   4.902
   85TIP3    H2  262   2.331   1.025   4.910
   86TIP3   OH2  263   5.638   2.883   4.994
   86TIP3    H1  264   5.576   2.875   5.066
   86TIP3    H2  265   5.590   2.849   4.918
   87TIP3   OH2  266   0.709   0.895   3.676
   87TIP3    H1  267   0.628   0.854   3.646
   87TIP3    H2  268   0.712   0.876   3.769
   88TIP3   OH2  269   3.460   5.345   5.044
   88TIP3    H1  270   3.492   5.329   5.133
   88TIP3    H2  271   3.503   5.426   5.017
   89TIP3   OH2  272   1.884   3.709   4.276
   89TIP3    H1  273   1.880   3.645   4.347
   89TIP3    H2  274   1.838   3.668   4.203
   90TIP3   OH2  275   4.678   4.758   0.718
   90TIP3    H1  276   4.659   4.700   0.644
   90TIP3    H2  277   4.761   4.725   0.753
   91TIP3   OH2  278   3.377   0.720   4.652
   91TIP3    H1  279   3.388   0.627   4.669
   91TIP3    H2  280   3.289   0.728   4.616
   92TIP3   OH2  281   3.943   1.510   4.522
   92TIP3    H1  282   3.871   1.571   4.507
   92TIP3    H2  283   4.003   1.525   4.449
   93TIP3   OH2  284   0.615   5.947   1.366
   93TIP3    H1  285   0.702   5.936   1.405
   93TIP3    H2  286   0.571   5.865   1.383
   94TIP3   OH2  287   5.771   5.476   3.944
   94TIP3    H1  288   5.713   5.547   3.972
   94TIP3    H2  289   5.759   5.471   3.849
   95TIP3   OH2  290   1.503   4.004   0.574
   95TIP3    H1  291   1.587   3.970   0.604
   95TIP3    H2  292   1.438   3.954   0.623
   96TIP3   OH2  293   3.356   4.047   0.139
   96TIP3    H1  294   3.296   4.047   0.213
   96TIP3    H2  295   3.316   3.987   0.076
   97TIP3   OH2  296   1.073   2.909   4.073
   97TIP3    H1  297   1.116   2.848   4.132
   97TIP3    H2  298   1.145   2.959   4.034
   98TIP3   OH2  299   5.337   0.732   5.023
   98TIP3    H1  300   5.245   0.733   5.049
   98TIP3    H2  301   5.338   0.692   4.936
   99TIP3   OH2  302   6.236   2.302   0.787
   99TIP3    H1  303   6.290   2.366   0.739
   99TIP3    H2  304   6.294   2.269   0.855
  100TIP3   OH2  305   2.367   4.854   0.719
  100TIP3    H1  306   2.357   4.887   0.809
  100TIP3    H2  307   2.343   4.929   0.664
  101TIP3   OH2  308   3.849   1.802   1.830
  101TIP3    H1  309   3.932   1.756   1.817
  101TIP3    H2  310   3.785   1.733   1.843
  102TIP3   OH2  311   1.490   0.690   1.169
  102TIP3    H1  312   1.520   0.710   1.081
  102TIP3    H2  313   1.434   0.764   1.193
  103TIP3   OH2  314   0.211   4.978   4.614
  103TIP3    H1  315   0.211   4.904   4.676
  103TIP3    H2  316   0.238   4.939   4.531
  104TIP3   OH2  317   3.412   4.728   1.710
  104TIP3    H1  318   3.368   4.676   1.777
  104TIP3    H2  319   3.371   4.700   1.627
  105TIP3   OH2  320   0.295   0.180   2.043
  105TIP3    H1  321   0.254   0.218   2.120
  105TIP3    H2  322   0.380   0.223   2.036
  106TIP3   OH2  323   1.820   4.954   1.802
  106TIP3    H1  324   1.727   4.974   1.796
  106TIP3    H2  325   1.858   5.032   1.843
  107TIP3   OH2  326   5.534   3.663   0.041
  107TIP3    H1  327   5.499   3.695  -0.042
  107TIP3    H2  328   5.457   3.631   0.089
  108TIP3   OH2  329   3.822   3.899   3.354
  108TIP3    H1  330   3.816   3.971   3.292
  108TIP3    H2  331   3.913   3.870   3.348
  109TIP3   OH2  332   2.765   1.636   2.787
  109TIP3    H1  333   2.821   1.682   2.725
  109TIP3    H2  334   2.751   1.699   2.858
  110TIP3   OH2  335   1.053   2.773   3.785
  110TIP3    H1  336   1.117   2.844   3.795
  110TIP3    H2  337   1.029   2.775   3.692
  111TIP3   OH2  338   2.590   1.298   0.224
  111TIP3    H1  339   2.555   1.375   0.269
  111TIP3    H2  340   2.685   1.307   0.233
  112TIP3   OH2  341   5.419   2.875   1.998
  112TIP3    H1  342   5.507   2.840   2.009
  112TIP3    H2  343   5.363   2.797   1.989
  113TIP3   OH2  344   3.148   2.394   4.492
  113TIP3    H1  345   3.167   2.466   4.552
  113TIP3    H2  346   3.169   2.315   4.543
  114TIP3   OH2  347   0.394   1.625   1.708
  114TIP3    H1  348   0.299   1.611   1.697
  114TIP3    H2  349   0.421   1.668   1.627
  115TIP3   OH2  350   4.502   2.243   2.198
  115TIP3    H1  351   4.502   2.169   2.138
  115TIP3    H2  352   4.595   2.261   2.215
  116TIP3   OH2  353   3.259   5.634   4.850
  116TIP3    H1  354   3.251   5.584   4.769
  116TIP3    H2  355   3.260   5.568   4.919
  117TIP3   OH2  356   0.788   3.799   3.729
  117TIP3    H1  357   0.815   3.834   3.813
  117TIP3    H2  358   0.694   3.780   3.740
  118TIP3   OH2  359   1.872   0.848   4.772
  118TIP3    H1  360   1.787   0.875   4.805
  118TIP3    H2  361   1.924   0.929   4.771
  119TIP3   OH2  362   4.387   4.293   4.347
  119TIP3    H1  363   4.463   4.282   4.404
  119TIP3    H2  364   4.402   4.376   4.302
  120TIP3   OH2  365   3.600   0.747   3.206
  120TIP3    H1  366   3.651   0.683   3.254
  120TIP3    H2  367   3.576   0.813   3.271
  121TIP3   OH2  368   3.371   1.332   4.805
  121TIP3    H1  369   3.308   1.324   4.733
  121TIP3    H2  370   3.422   1.251   4.801
  122TIP3   OH2  371   0.477   1.417   3.003
  122TIP3    H1  372   0.556   1.435   2.952
  122TIP3    H2  373   0.507   1.411   3.093
  123TIP3   OH2  374   2.507   4.256   4.924
  123TIP3    H1  375   2.564   4.324   4.960
  123TIP3    H2  376   2.444   4.238   4.994
  124TIP3   OH2  377   4.067   5.323   1.424
  124TIP3    H1  378   4.103   5.238   1.399
  124TIP3    H2  379   4.139   5.385   1.410
  125TIP3   OH2  380   3.861   3.220   2.410
  125TIP3    H1  381   3.890   3.200   2.321
  125TIP3    H2  382   3.816   3.305   2.402
  126TIP3   OH2  383   2.070   4.170   1.311
  126TIP3    H1  384   2.005   4.137   1.248
  126TIP3    H2  385   2.072   4.264   1.296
  127TIP3   OH2  386   3.384   4.010   3.426
  127TIP3    H1  387   3.289   4.007   3.415
  127TIP3    H2  388   3.417   3.949   3.359
  128TIP3   OH2  389   0.865   1.861   0.847
  128TIP3    H1  390   0.823   1.818   0.922
  128TIP3    H2  391   0.958   1.856   0.866
  129TIP3   OH2  392   2.741   3.483   3.667
  129TIP3    H1  393   2.718   3.465   3.576
  129TIP3    H2  394   2.824   3.531   3.662
  130TIP3   OH2  395   2.764   3.482   3.386
  130TIP3    H1  396   2.840   3.530   3.352
  130TIP3    H2  397   2.698   3.490   3.318
  131TIP3   OH2  398   1.547   2.055   3.994
  131TIP3    H1  399   1.490   2.096   4.059
  131TIP3    H2  400   1.586   1.981   4.040
  132TIP3   OH2  401   0.144   0.108   4.092
  132TIP3    H1  402   0.229   0.080   4.123
  132TIP3    H2  403   0.153   0.203   4.081
  133TIP3   OH2  404   5.342   1.693   0.122
  133TIP3    H1  405   5.254   1.656   0.129
  133TIP3    H2  406   5.328   1.784   0.096
  134TIP3   OH2  407   1.743   3.127   3.448
  134TIP3    H1  408   1.651   3.103   3.445
  134TIP3    H2  409   1.743   3.223   3.444
  135TIP3   OH2  410   5.042   5.735   3.377
  135TIP3    H1  411   5.002   5.760   3.459
  135TIP3    H2  412   5.123   5.786   3.372
  136TIP3   OH2  413   0.987   0.700   1.197
  136TIP3    H1  414   1.060   0.712   1.135
  136TIP3    H2  415   0.914   0.747   1.157
  137TIP3   OH2  416   4.833   2.846   1.181
  137TIP3    H1  417   4.816   2.771   1.124
  137TIP3    H2  418   4.924   2.869   1.164
  138TIP3   OH2  419   3.862   3.168   1.345
  138TIP3    H1  420   3.814   3.247   1.323
  138TIP3    H2  421   3.814   3.097   1.302
  139TIP3   OH2  422   3.205   4.079   2.501
  139TIP3    H1  423   3.147   4.015   2.459
  139TIP3    H2  424   3.195   4.062   2.595
  140TIP3   OH2  425   5.662   3.197   1.104
  140TIP3    H1  426   5.742   3.218   1.152
  140TIP3    H2  427   5.668   3.249   1.024
  141TIP3   OH2  428   4.707   3.017   4.888
  141TIP3    H1  429   4.698   2.927   4.921
  141TIP3    H2  430   4.729   3.006   4.795
  142TIP3   OH2  431   4.928   3.745   0.289
  142TIP3    H1  432   4.930   3.667   0.345
  142TIP3    H2  433   5.019   3.777   0.290
  143TIP3   OH2  434   3.229   3.941   2.129
  143TIP3    H1  435   3.299   4.006   2.123
  143TIP3    H2  436   3.149   3.992   2.143
  144TIP3   OH2  437   6.045   2.764   3.837
  144TIP3    H1  438   5.993   2.697   3.791
  144TIP3    H2  439   6.112   2.714   3.883
  145TIP3   OH2  440   3.654   0.161   2.688
  145TIP3    H1  441   3.641   0.066   2.689
  145TIP3    H2  442   3.743   0.174   2.720
  146TIP3   OH2  443   1.061   0.674   5.060
  146TIP3    H1  444   1.010   0.707   4.986
  146TIP3    H2  445   1.022   0.589   5.079
  147TIP3   OH2  446   3.101   2.495   3.704
  147TIP3    H1  447   3.108   2.494   3.799
  147TIP3    H2  448   3.007   2.485   3.687
  148TIP3   OH2  449   4.127   2.387   0.201
  148TIP3    H1  450   4.186   2.328   0.247
  148TIP3    H2  451   4.144   2.473   0.238
  149TIP3   OH2  452   5.157   5.793   0.815
  149TIP3    H1  453   5.183   5.702   0.830
  149TIP3    H2  454   5.211   5.843   0.876
  150TIP3   OH2  455   5.159   5.810   2.662
  150TIP3    H1  456   5.230   5.771   2.712
  150TIP3    H2  457   5.082   5.760   2.687
  151TIP3   OH2  458   2.010   4.761   0.370
  151TIP3    H1  459   2.062   4.680   0.379
  151TIP3    H2  460   1.934   4.735   0.318
  152TIP3   OH2  461   1.336   1.267   2.888
  152TIP3    H1  462   1.402   1.211   2.847
  152TIP3    H2  463   1.388   1.335   2.933
  153TIP3   OH2  464   0.408   5.560   2.973
  153TIP3    H1  465   0.424   5.652   2.948
  153TIP3    H2  466   0.327   5.537   2.928
  154TIP3   OH2  467   4.206   4.779   5.184
  154TIP3    H1  468   4.293   4.763   5.147
  154TIP3    H2  469   4.221   4.837   5.258
  155TIP3   OH2  470   4.140   3.267   1.376
  155TIP3    H1  471   4.195   3.200   1.418
  155TIP3    H2  472   4.060   3.221   1.351
  156TIP3   OH2  473   3.361   3.543   2.655
  156TIP3    H1  474   3.322   3.487   2.588
  156TIP3    H2  475   3.452   3.512   2.662
  157TIP3   OH2  476   3.317   2.442   1.649
  157TIP3    H1  477   3.242   2.496   1.623
  157TIP3    H2  478   3.279   2.376   1.708
  158TIP3   OH2  479   4.528   2.650   3.717
  158TIP3    H1  480   4.461   2.594   3.677
  158TIP3    H2  481   4.544   2.612   3.803
  159TIP3   OH2  482   6.195   4.181   4.936
  159TIP3    H1  483   6.238   4.110   4.983
  159TIP3    H2  484   6.266   4.225   4.889
  160TIP3   OH2  485   0.628   2.306   1.972
  160TIP3    H1  486   0.545   2.337   2.009
  160TIP3    H2  487   0.626   2.211   1.985
  161TIP3   OH2  488   2.206   3.331   2.470
  161TIP3    H1  489   2.300   3.328   2.490
  161TIP3    H2  490   2.200   3.390   2.394
  162TIP3   OH2  491   2.770   5.121   1.821
  162TIP3    H1  492   2.764   5.130   1.917
  162TIP3    H2  493   2.857   5.152   1.799
  163TIP3   OH2  494   4.216   0.506   2.903
  163TIP3    H1  495   4.282   0.491   2.836
  163TIP3    H2  496   4.211   0.601   2.911
  164TIP3   OH2  497   6.216   0.243   2.135
  164TIP3    H1  498   6.266   0.305   2.083
  164TIP3    H2  499   6.202   0.168   2.076
  165TIP3   OH2  500   1.959   2.076   5.158
  165TIP3    H1  501   1.967   2.045   5.068
  165TIP3    H2  502   1.984   2.001   5.212
  166TIP3   OH2  503   1.089   5.392   3.195
  166TIP3    H1  504   1.153   5.420   3.261
  166TIP3    H2  505   1.098   5.297   3.192
  167TIP3   OH2  506   5.277   4.066   2.116
  167TIP3    H1  507   5.322   4.088   2.035
  167TIP3    H2  508   5.185   4.088   2.100
  168TIP3   OH2  509   0.003   5.241   4.377
  168TIP3    H1  510   0.065   5.188   4.327
  168TIP3    H2  511   0.041   5.329   4.376
  169TIP3   OH2  512   3.718   4.910   0.654
  169TIP3    H1  513   3.751   4.845   0.717
  169TIP3    H2  514   3.636   4.941   0.692
  170TIP3   OH2  515   6.259   1.970   1.642
  170TIP3    H1  516   6.194   2.015   1.588
  170TIP3    H2  517   6.324   1.937   1.580
  171TIP3   OH2  518   2.063   3.954   0.662
  171TIP3    H1  519   2.062   3.878   0.720
  171TIP3    H2  520   2.112   3.925   0.585
  172TIP3   OH2  521   5.795   5.473   1.700
  172TIP3    H1  522   5.737   5.405   1.735
  172TIP3    H2  523   5.883   5.447   1.728
  173TIP3   OH2  524   4.078   5.514   0.402
  173TIP3    H1  525   4.028   5.438   0.371
  173TIP3    H2  526   4.106   5.559   0.322
  174TIP3   OH2  527   0.374   2.939   4.261
  174TIP3    H1  528   0.322   2.880   4.206
  174TIP3    H2  529   0.454   2.955   4.210
  175TIP3   OH2  530   6.268   4.872   1.744
  175TIP3    H1  531   6.179   4.890   1.714
  175TIP3    H2  532   6.318   4.952   1.722
  176TIP3   OH2  533   1.271   0.356   1.903
  176TIP3    H1  534   1.237   0.312   1.981
  176TIP3    H2  535   1.194   0.396   1.863
  177TIP3   OH2  536   5.665   4.392   3.367
  177TIP3    H1  537   5.761   4.397   3.359
  177TIP3    H2  538   5.639   4.478   3.400
  178TIP3   OH2  539   5.461   1.497   1.768
  178TIP3    H1  540   5.452   1.559   1.696
  178TIP3    H2  541   5.474   1.552   1.845
  179TIP3   OH2  542   0.285   0.544   3.088
  179TIP3    H1  543   0.369   0.520   3.051
  179TIP3    H2  544   0.306   0.583   3.172
  180TIP3   OH2  545   0.742   4.370   0.413
  180TIP3    H1  546   0.757   4.459   0.381
  180TIP3    H2  547   0.679   4.332   0.352
  181TIP3   OH2  548   4.271   0.544   4.699
  181TIP3    H1  549   4.246   0.625   4.744
  181TIP3    H2  550   4.291   0.483   4.770
  182TIP3   OH2  551   0.229   2.923   5.022
  182TIP3    H1  552   0.184   3.006   5.010
  182TIP3    H2  553   0.159   2.857   5.023
  183TIP3   OH2  554   5.014   3.415   1.178
  183TIP3    H1  555   5.039   3.498   1.138
  183TIP3    H2  556   4.919   3.418   1.182
  184TIP3   OH2  557   5.182   4.040   1.048
  184TIP3    H1  558   5.235   3.967   1.016
  184TIP3    H2  559   5.143   4.008   1.129
  185TIP3   OH2  560   0.344   3.364   0.843
  185TIP3    H1  561   0.253   3.339   0.853
  185TIP3    H2  562   0.348   3.454   0.873
  186TIP3   OH2  563   5.037   4.458   1.527
  186TIP3    H1  564   5.060   4.550   1.540
  186TIP3    H2  565   4.952   4.449   1.570
  187TIP3   OH2  566   2.348   2.953   3.566
  187TIP3    H1  567   2.383   3.041   3.573
  187TIP3    H2  568   2.398   2.902   3.629
  188TIP3   OH2  569   5.322   4.120   1.851
  188TIP3    H1  570   5.414   4.136   1.832
  188TIP3    H2  571   5.275   4.186   1.798
  189TIP3   OH2  572   0.837   5.838   2.894
  189TIP3    H1  573   0.863   5.746   2.889
  189TIP3    H2  574   0.915   5.886   2.867
  190TIP3   OH2  575   4.913   1.450   0.421
  190TIP3    H1  576   5.008   1.437   0.409
  190TIP3    H2  577   4.906   1.536   0.464
  191TIP3   OH2  578   5.895   1.579   3.418
  191TIP3    H1  579   5.987   1.607   3.410
  191TIP3    H2  580   5.885   1.559   3.511
  192TIP3   OH2  581   3.559   2.552   0.152
  192TIP3    H1  582   3.556   2.482   0.218
  192TIP3    H2  583   3.602   2.512   0.077
  193TIP3   OH2  584   2.079   3.198   0.647
  193TIP3    H1  585   2.057   3.118   0.696
  193TIP3    H2  586   2.062   3.269   0.708
  194TIP3   OH2  587   0.479   5.768   1.137
  194TIP3    H1  588   0.394   5.810   1.125
  194TIP3    H2  589   0.481   5.743   1.229
  195TIP3   OH2  590   3.668   2.149   1.053
  195TIP3    H1  591   3.620   2.066   1.061
  195TIP3    H2  592   3.749   2.134   1.101
  196TIP3   OH2  593   1.237   5.116   0.117
  196TIP3    H1  594   1.330   5.126   0.097
  196TIP3    H2  595   1.227   5.024   0.141
  197TIP3   OH2  596   3.096   3.294   3.685
  197TIP3    H1  597   3.068   3.386   3.681
  197TIP3    H2  598   3.191   3.298   3.685
  198TIP3   OH2  599   3.931   3.236   1.619
  198TIP3    H1  600   4.014   3.194   1.643
  198TIP3    H2  601   3.917   3.213   1.527
  199TIP3   OH2  602   1.146   4.833   4.967
  199TIP3    H1  603   1.148   4.862   4.876
  199TIP3    H2  604   1.059   4.796   4.979
  200TIP3   OH2  605   0.181   1.551   0.161
  200TIP3    H1  606   0.163   1.546   0.255
  200TIP3    H2  607   0.262   1.501   0.150
  201TIP3   OH2  608   4.823   3.160   0.214
  201TIP3    H1  609   4.901   3.172   0.268
  201TIP3    H2  610   4.749   3.172   0.274
  202TIP3   OH2  611   3.899   4.931   4.662
  202TIP3    H1  612   3.806   4.913   4.656
  202TIP3    H2  613   3.905   5.026   4.672
  203TIP3   OH2  614   0.687   0.246   1.357
  203TIP3    H1  615   0.640   0.328   1.343
  203TIP3    H2  616   0.742   0.262   1.434
  204TIP3   OH2  617   3.216   2.251   3.449
  204TIP3    H1  618   3.127   2.231   3.477
  204TIP3    H2  619   3.209   2.337   3.408
  205TIP3   OH2  620   0.113   2.381   2.441
  205TIP3    H1  621   0.160   2.318   2.496
  205TIP3    H2  622   0.182   2.432   2.399
  206TIP3   OH2  623   4.023   5.624   3.462
  206TIP3    H1  624   4.053   5.699   3.410
  206TIP3    H2  625   4.072   5.632   3.544
  207TIP3   OH2  626   4.083   2.513   2.125
  207TIP3    H1  627   3.990   2.520   2.105
  207TIP3    H2  628   4.125   2.494   2.042
  208TIP3   OH2  629   2.273   1.336   1.298
  208TIP3    H1  630   2.313   1.263   1.345
  208TIP3    H2  631   2.345   1.397   1.282
  209TIP3   OH2  632   3.469   5.720   4.201
  209TIP3    H1  633   3.561   5.729   4.177
  209TIP3    H2  634   3.454   5.625   4.202
  210TIP3   OH2  635   0.094   4.052   2.232
  210TIP3    H1  636   0.127   4.065   2.321
  210TIP3    H2  637   0.120   3.963   2.209
  211TIP3   OH2  638   0.513   3.671   3.717
  211TIP3    H1  639   0.470   3.603   3.769
  211TIP3    H2  640   0.510   3.639   3.627
  212TIP3   OH2  641   4.384   3.044   3.120
  212TIP3    H1  642   4.345   2.976   3.064
  212TIP3    H2  643   4.404   3.116   3.061
  213TIP3   OH2  644   1.419   5.022   4.013
  213TIP3    H1  645   1.332   4.991   4.038
  213TIP3    H2  646   1.404   5.074   3.934
  214TIP3   OH2  647   0.825   1.355   4.787
  214TIP3    H1  648   0.834   1.436   4.736
  214TIP3    H2  649   0.867   1.375   4.871
  215TIP3   OH2  650   2.075   4.422   1.207
  215TIP3    H1  651   2.044   4.395   1.120
  215TIP3    H2  652   2.170   4.421   1.199
  216TIP3   OH2  653   4.285   0.619   4.009
  216TIP3    H1  654   4.379   0.601   4.000
  216TIP3    H2  655   4.244   0.533   4.012
  217TIP3   OH2  656   5.662   4.277   0.224
  217TIP3    H1  657   5.681   4.366   0.195
  217TIP3    H2  658   5.672   4.280   0.319
  218TIP3   OH2  659   5.964   1.261   2.962
  218TIP3    H1  660   5.941   1.233   2.873
  218TIP3    H2  661   5.993   1.180   3.005
  219TIP3   OH2  662   3.664   5.159   4.061
  219TIP3    H1  663   3.610   5.087   4.027
  219TIP3    H2  664   3.617   5.188   4.140
  220TIP3   OH2  665   1.735   4.396   1.083
  220TIP3    H1  666   1.735   4.401   1.179
  220TIP3    H2  667   1.780   4.314   1.064
  221TIP3   OH2  668   4.394   0.927   3.591
  221TIP3    H1  669   4.447   0.953   3.515
  221TIP3    H2  670   4.371   1.009   3.634
  222TIP3   OH2  671   2.623   2.928   0.231
  222TIP3    H1  672   2.630   2.886   0.146
  222TIP3    H2  673   2.530   2.923   0.253
  223TIP3   OH2  674   3.103   4.008   3.379
  223TIP3    H1  675   3.106   3.921   3.338
  223TIP3    H2  676   3.025   4.006   3.434
  224TIP3   OH2  677   3.096   0.559   3.619
  224TIP3    H1  678   3.099   0.507   3.539
  224TIP3    H2  679   3.004   0.556   3.646
  225TIP3   OH2  680   0.444   3.288   2.323
  225TIP3    H1  681   0.490   3.325   2.247
  225TIP3    H2  682   0.374   3.235   2.285
  226TIP3   OH2  683   3.350   5.379   3.738
  226TIP3    H1  684   3.431   5.398   3.785
  226TIP3    H2  685   3.377   5.323   3.665
  227TIP3   OH2  686   5.231   5.715   0.424
  227TIP3    H1  687   5.145   5.719   0.464
  227TIP3    H2  688   5.222   5.764   0.342
  228TIP3   OH2  689   5.162   2.267   0.145
  228TIP3    H1  690   5.156   2.223   0.230
  228TIP3    H2  691   5.080   2.247   0.102
  229TIP3   OH2  692   4.843   0.079   2.840
  229TIP3    H1  693   4.790   0.028   2.901
  229TIP3    H2  694   4.819   0.045   2.753
  230TIP3   OH2  695   4.668   5.327   3.563
  230TIP3    H1  696   4.722   5.248   3.570
  230TIP3    H2  697   4.599   5.314   3.629
  231TIP3   OH2  698   1.325   2.876   0.306
  231TIP3    H1  699   1.362   2.955   0.345
  231TIP3    H2  700   1.232   2.895   0.296
  232TIP3   OH2  701   3.988   2.955   4.469
  232TIP3    H1  702   3.939   3.028   4.507
  232TIP3    H2  703   4.039   2.920   4.542
  233TIP3   OH2  704   6.311   5.953   4.406
  233TIP3    H1  705   6.247   5.883   4.392
  233TIP3    H2  706   6.309   6.004   4.325
  234TIP3   OH2  707   5.240   1.679   1.041
  234TIP3    H1  708   5.198   1.609   0.991
  234TIP3    H2  709   5.270   1.741   0.975
  235TIP3   OH2  710   5.213   2.878   4.945
  235TIP3    H1  711   5.238   2.796   4.902
  235TIP3    H2  712   5.275   2.885   5.018
  236TIP3   OH2  713   0.083   3.190   3.153
  236TIP3    H1  714  -0.002   3.203   3.110
  236TIP3    H2  715   0.103   3.097   3.139
  237TIP3   OH2  716   3.953   1.261   3.405
  237TIP3    H1  717   3.979   1.230   3.492
  237TIP3    H2  718   3.984   1.351   3.401
  238TIP3   OH2  719   0.529   2.531   4.907
  238TIP3    H1  720   0.473   2.551   4.982
  238TIP3    H2  721   0.495   2.448   4.873
  239TIP3   OH2  722   6.372   5.879   2.731
  239TIP3    H1  723   6.377   5.792   2.771
  239TIP3    H2  724   6.281   5.906   2.743
  240TIP3   OH2  725   5.002   1.347   3.584
  240TIP3    H1  726   4.945   1.367   3.658
  240TIP3    H2  727   5.041   1.262   3.606
  241TIP3   OH2  728   5.997   2.787   4.907
  241TIP3    H1  729   6.012   2.707   4.957
  241TIP3    H2  730   6.075   2.796   4.853
  242TIP3   OH2  731   4.380   5.775   4.002
  242TIP3    H1  732   4.320   5.843   4.032
  242TIP3    H2  733   4.375   5.778   3.907
  243TIP3   OH2  734   1.859   5.798   3.424
  243TIP3    H1  735   1.769   5.782   3.394
  243TIP3    H2  736   1.911   5.798   3.344
  244TIP3   OH2  737   3.447   4.946   4.082
  244TIP3    H1  738   3.403   5.020   4.040
  244TIP3    H2  739   3.414   4.870   4.035
  245TIP3   OH2  740   5.308   0.781   1.653
  245TIP3    H1  741   5.348   0.717   1.593
  245TIP3    H2  742   5.234   0.734   1.692
  246TIP3   OH2  743   0.970   5.912   3.858
  246TIP3    H1  744   0.983   5.846   3.926
  246TIP3    H2  745   0.980   5.996   3.903
  247TIP3   OH2  746   4.246   5.250   3.011
  247TIP3    H1  747   4.189   5.325   3.030
  247TIP3    H2  748   4.327   5.290   2.979
  248TIP3   OH2  749   3.387   0.848   2.808
  248TIP3    H1  750   3.464   0.830   2.862
  248TIP3    H2  751   3.416   0.915   2.746
  249TIP3   OH2  752   1.445   1.707   0.912
  249TIP3    H1  753   1.428   1.626   0.959
  249TIP3    H2  754   1.511   1.752   0.966
  250TIP3   OH2  755   0.116   4.525   2.849
  250TIP3    H1  756   0.077   4.540   2.935
  250TIP3    H2  757   0.210   4.535   2.863
  251TIP3   OH2  758   2.682   2.130   3.923
  251TIP3    H1  759   2.761   2.076   3.933
  251TIP3    H2  760   2.612   2.067   3.904
  252TIP3   OH2  761   0.185   3.599   4.244
  252TIP3    H1  762   0.147   3.601   4.156
  252TIP3    H2  763   0.142   3.524   4.287
  253TIP3   OH2  764   1.533   0.488   3.705
  253TIP3    H1  765   1.486   0.543   3.642
  253TIP3    H2  766   1.598   0.547   3.743
  254TIP3   OH2  767   1.255   3.639   1.487
  254TIP3    H1  768   1.333   3.638   1.431
  254TIP3    H2  769   1.225   3.730   1.485
  255TIP3   OH2  770   2.104   4.501   0.321
  255TIP3    H1  771   2.143   4.456   0.396
  255TIP3    H2  772   2.179   4.537   0.273
  256TIP3   OH2  773   3.358   5.107   4.999
  256TIP3    H1  774   3.393   5.191   5.027
  256TIP3    H2  775   3.282   5.093   5.056
  257TIP3   OH2  776   3.343   1.972   0.356
  257TIP3    H1  777   3.370   1.983   0.265
  257TIP3    H2  778   3.252   1.945   0.352
  258TIP3   OH2  779   1.075   4.179   0.070
  258TIP3    H1  780   1.086   4.244   0.139
  258TIP3    H2  781   1.147   4.117   0.084
  259TIP3   OH2  782   0.048   4.331   4.782
  259TIP3    H1  783   0.085   4.328   4.870
  259TIP3    H2  784   0.087   4.410   4.743
  260TIP3   OH2  785   2.264   4.320   3.079
  260TIP3    H1  786   2.173   4.307   3.049
  260TIP3    H2  787   2.307   4.237   3.059
  261TIP3   OH2  788   3.501   3.892   3.010
  261TIP3    H1  789   3.526   3.883   3.102
  261TIP3    H2  790   3.475   3.803   2.984
  262TIP3   OH2  791   3.742   4.722   0.881
  262TIP3    H1  792   3.789   4.776   0.945
  262TIP3    H2  793   3.652   4.754   0.884
  263TIP3   OH2  794   6.168   2.676  -0.018
  263TIP3    H1  795   6.076   2.679  -0.044
  263TIP3    H2  796   6.167   2.684   0.077
  264TIP3   OH2  797   0.406   5.201   4.683
  264TIP3    H1  798   0.341   5.131   4.686
  264TIP3    H2  799   0.357   5.279   4.657
  265TIP3   OH2  800   5.819   5.712   5.067
  265TIP3    H1  801   5.730   5.739   5.044
  265TIP3    H2  802   5.861   5.791   5.100
  266TIP3   OH2  803   5.889   2.622   0.248
  266TIP3    H1  804   5.834   2.691   0.210
  266TIP3    H2  805   5.828   2.571   0.303
  267TIP3   OH2  806   0.414   5.031   0.105
  267TIP3    H1  807   0.448   5.109   0.059
  267TIP3    H2  808   0.363   5.067   0.177
  268TIP3   OH2  809   0.814   5.451   3.150
  268TIP3    H1  810   0.902   5.448   3.188
  268TIP3    H2  811   0.781   5.538   3.172
  269TIP3   OH2  812   0.620   1.424   2.103
  269TIP3    H1  813   0.602   1.413   2.196
  269TIP3    H2  814   0.712   1.402   2.093
  270TIP3   OH2  815   1.255   4.806   2.408
  270TIP3    H1  816   1.216   4.884   2.448
  270TIP3    H2  817   1.262   4.828   2.315
  271TIP3   OH2  818   0.825   3.456   2.566
  271TIP3    H1  819   0.736   3.483   2.543
  271TIP3    H2  820   0.817   3.417   2.653
  272TIP3   OH2  821   2.016   0.416   0.501
  272TIP3    H1  822   2.110   0.410   0.520
  272TIP3    H2  823   1.992   0.506   0.524
  273TIP3   OH2  824   6.044   4.618   0.424
  273TIP3    H1  825   6.137   4.594   0.426
  273TIP3    H2  826   6.023   4.625   0.331
  274TIP3   OH2  827   2.153   3.118   2.109
  274TIP3    H1  828   2.239   3.146   2.142
  274TIP3    H2  829   2.090   3.174   2.154
  275TIP3   OH2  830   1.911   2.094   2.583
  275TIP3    H1  831   1.851   2.024   2.609
  275TIP3    H2  832   1.998   2.057   2.596
  276TIP3   OH2  833   1.057   0.180   1.840
  276TIP3    H1  834   1.080   0.181   1.933
  276TIP3    H2  835   1.056   0.273   1.815
  277TIP3   OH2  836   1.488   0.102   3.510
  277TIP3    H1  837   1.528   0.179   3.551
  277TIP3    H2  838   1.541   0.029   3.541
  278TIP3   OH2  839   6.276   4.253   2.967
  278TIP3    H1  840   6.199   4.253   3.024
  278TIP3    H2  841   6.266   4.332   2.914
  279TIP3   OH2  842   2.720   1.188   1.746
  279TIP3    H1  843   2.802   1.226   1.775
  279TIP3    H2  844   2.652   1.240   1.790
  280TIP3   OH2  845   1.833   0.158   3.396
  280TIP3    H1  846   1.763   0.220   3.416
  280TIP3    H2  847   1.788   0.074   3.383
  281TIP3   OH2  848   0.772   1.188   3.030
  281TIP3    H1  849   0.683   1.177   3.064
  281TIP3    H2  850   0.775   1.133   2.952
  282TIP3   OH2  851   4.798   5.925   2.110
  282TIP3    H1  852   4.828   5.883   2.029
  282TIP3    H2  853   4.858   5.999   2.122
  283TIP3   OH2  854   0.446   1.816   0.120
  283TIP3    H1  855   0.431   1.764   0.041
  283TIP3    H2  856   0.538   1.844   0.113
  284TIP3   OH2  857   6.241   0.159   4.872
  284TIP3    H1  858   6.196   0.186   4.952
  284TIP3    H2  859   6.333   0.176   4.889
  285TIP3   OH2  860   2.394   0.339   2.428
  285TIP3    H1  861   2.342   0.307   2.354
  285TIP3    H2  862   2.354   0.299   2.505
  286TIP3   OH2  863   2.835   0.583   3.718
  286TIP3    H1  864   2.796   0.655   3.668
  286TIP3    H2  865   2.807   0.599   3.808
  287TIP3   OH2  866   6.236   1.616   1.342
  287TIP3    H1  867   6.267   1.574   1.261
  287TIP3    H2  868   6.185   1.549   1.386
  288TIP3   OH2  869   2.591   5.582   4.802
  288TIP3    H1  870   2.627   5.667   4.827
  288TIP3    H2  871   2.595   5.530   4.883
  289TIP3   OH2  872   5.048   4.222   3.403
  289TIP3    H1  873   5.024   4.217   3.310
  289TIP3    H2  874   5.143   4.232   3.403
  290TIP3   OH2  875   3.624   4.318   2.690
  290TIP3    H1  876   3.590   4.247   2.744
  290TIP3    H2  877   3.547   4.364   2.659
  291TIP3   OH2  878   2.609   2.938   2.641
  291TIP3    H1  879   2.591   2.914   2.550
  291TIP3    H2  880   2.699   2.971   2.639
  292TIP3   OH2  881   4.595   5.651   2.992
  292TIP3    H1  882   4.570   5.697   3.072
  292TIP3    H2  883   4.675   5.604   3.015
  293TIP3   OH2  884   5.920   2.442   2.056
  293TIP3    H1  885   5.857   2.384   2.098
  293TIP3    H2  886   5.952   2.393   1.981
  294TIP3   OH2  887   5.481   5.933   0.038
  294TIP3    H1  888   5.460   5.901  -0.050
  294TIP3    H2  889   5.576   5.940   0.039
  295TIP3   OH2  890   5.137   4.274  -0.055
  295TIP3    H1  891   5.168   4.237   0.027
  295TIP3    H2  892   5.042   4.263  -0.052
  296TIP3   OH2  893   4.054   1.589   1.244
  296TIP3    H1  894   3.978   1.580   1.186
  296TIP3    H2  895   4.129   1.576   1.186
  297TIP3   OH2  896   6.279   4.453   3.768
  297TIP3    H1  897   6.342   4.425   3.835
  297TIP3    H2  898   6.237   4.530   3.806
  298TIP3   OH2  899   2.997   3.023   1.708
  298TIP3    H1  900   3.005   2.931   1.731
  298TIP3    H2  901   2.970   3.023   1.616
  299TIP3   OH2  902   3.798   0.844   1.225
  299TIP3    H1  903   3.786   0.896   1.304
  299TIP3    H2  904   3.759   0.896   1.155
  300TIP3   OH2  905   5.702   3.430   2.849
  300TIP3    H1  906   5.755   3.380   2.787
  300TIP3    H2  907   5.765   3.466   2.912
  301TIP3   OH2  908   5.435   0.315   3.677
  301TIP3    H1  909   5.443   0.375   3.603
  301TIP3    H2  910   5.358   0.262   3.657
  302TIP3   OH2  911   0.662   2.031   4.573
  302TIP3    H1  912   0.719   1.969   4.619
  302TIP3    H2  913   0.588   1.977   4.545
  303TIP3   OH2  914   0.691   1.651   0.381
  303TIP3    H1  915   0.645   1.591   0.439
  303TIP3    H2  916   0.751   1.596   0.331
  304TIP3   OH2  917   2.153   5.047   1.473
  304TIP3    H1  918   2.226   5.097   1.438
  304TIP3    H2  919   2.149   5.070   1.566
  305TIP3   OH2  920   5.979   1.617   3.095
  305TIP3    H1  921   5.885   1.629   3.105
  305TIP3    H2  922   6.017   1.661   3.171
  306TIP3   OH2  923   6.043   0.167   2.915
  306TIP3    H1  924   6.062   0.245   2.968
  306TIP3    H2  925   5.983   0.198   2.848
  307TIP3   OH2  926   1.033   5.377   0.840
  307TIP3    H1  927   1.052   5.338   0.755
  307TIP3    H2  928   0.967   5.320   0.878
  308TIP3   OH2  929  -0.001   1.175   3.016
  308TIP3    H1  930  -0.028   1.257   3.057
  308TIP3    H2  931   0.094   1.173   3.028
  309TIP3   OH2  932   1.181   3.422   3.915
  309TIP3    H1  933   1.209   3.334   3.890
  309TIP3    H2  934   1.107   3.440   3.857
  310TIP3   OH2  935   0.249   4.706   3.653
  310TIP3    H1  936   0.302   4.744   3.723
  310TIP3    H2  937   0.223   4.620   3.687
  311TIP3   OH2  938   2.337   0.969   3.718
  311TIP3    H1  939   2.431   0.978   3.731
  311TIP3    H2  940   2.312   0.894   3.771
  312TIP3   OH2  941   2.214   0.769   3.866
  312TIP3    H1  942   2.125   0.760   3.901
  312TIP3    H2  943   2.262   0.695   3.904
  313TIP3   OH2  944   1.828   1.581   0.516
  313TIP3    H1  945   1.837   1.497   0.560
  313TIP3    H2  946   1.886   1.575   0.440
  314TIP3   OH2  947   5.038   5.691   4.688
  314TIP3    H1  948   4.949   5.657   4.676
  314TIP3    H2  949   5.028   5.760   4.754
  315TIP3   OH2  950   1.425   4.267   4.488
  315TIP3    H1  951   1.475   4.348   4.478
  315TIP3    H2  952   1.374   4.259   4.408
  316TIP3   OH2  953   0.263   5.542   3.398
  316TIP3    H1  954   0.299   5.537   3.487
  316TIP3    H2  955   0.326   5.496   3.344
  317TIP3   OH2  956   1.560   4.208   2.601
  317TIP3    H1  957   1.523   4.205   2.513
  317TIP3    H2  958   1.509   4.146   2.652
  318TIP3   OH2  959   5.809   1.641   1.295
  318TIP3    H1  960   5.855   1.721   1.270
  318TIP3    H2  961   5.717   1.659   1.277
  319TIP3   OH2  962   2.862   2.745   3.133
  319TIP3    H1  963   2.929   2.680   3.152
  319TIP3    H2  964   2.855   2.745   3.037
  320TIP3   OH2  965   3.437   5.896   3.628
  320TIP3    H1  966   3.410   5.978   3.671
  320TIP3    H2  967   3.480   5.846   3.698
  321TIP3   OH2  968   5.823   0.166   4.049
  321TIP3    H1  969   5.733   0.181   4.078
  321TIP3    H2  970   5.861   0.253   4.040
  322TIP3   OH2  971   4.798   0.093   4.801
  322TIP3    H1  972   4.830   0.120   4.715
  322TIP3    H2  973   4.763   0.173   4.841
  323TIP3   OH2  974   2.837   4.732   0.304
  323TIP3    H1  975   2.774   4.716   0.375
  323TIP3    H2  976   2.835   4.827   0.291
  324TIP3   OH2  977   1.039   3.584   5.155
  324TIP3    H1  978   0.972   3.578   5.086
  324TIP3    H2  979   1.113   3.627   5.112
  325TIP3   OH2  980   2.848   2.696   3.913
  325TIP3    H1  981   2.932   2.701   3.959
  325TIP3    H2  982   2.868   2.648   3.832
  326TIP3   OH2  983   4.227   0.353   3.932
  326TIP3    H1  984   4.133   0.343   3.916
  326TIP3    H2  985   4.253   0.271   3.975
  327TIP3   OH2  986   1.624   0.233   3.735
  327TIP3    H1  987   1.699   0.262   3.684
  327TIP3    H2  988   1.563   0.306   3.733
  328TIP3   OH2  989   2.019   0.051   1.160
  328TIP3    H1  990   2.047  -0.023   1.214
  328TIP3    H2  991   2.015   0.124   1.221
  329TIP3   OH2  992   1.329   1.927   3.336
  329TIP3    H1  993   1.357   1.999   3.279
  329TIP3    H2  994   1.367   1.849   3.295
  330TIP3   OH2  995   5.991   1.434   1.311
  330TIP3    H1  996   5.913   1.488   1.303
  330TIP3    H2  997   6.022   1.451   1.400
  331TIP3   OH2  998   2.363   4.465   1.271
  331TIP3    H1  999   2.380   4.393   1.331
  331TIP3    H2 1000   2.435   4.460   1.207
  332TIP3   OH2 1001   4.142   1.340   4.581
  332TIP3    H1 1002   4.108   1.266   4.632
  332TIP3    H2 1003   4.071   1.405   4.582
  333TIP3   OH2 1004   2.404   4.174   4.679
  333TIP3    H1 1005   2.327   4.121   4.699
  333TIP3    H2 1006   2.447   4.188   4.763
  334TIP3   OH2 1007   0.036   1.307   2.553
  334TIP3    H1 1008   0.025   1.214   2.534
  334TIP3    H2 1009   0.002   1.352   2.476
  335TIP3   OH2 1010   5.569   4.266   4.884
  335TIP3    H1 1011   5.537   4.190   4.933
  335TIP3    H2 1012   5.657   4.281   4.918
  336TIP3   OH2 1013   4.253   2.723   1.939
  336TIP3    H1 1014   4.263   2.816   1.959
  336TIP3    H2 1015   4.317   2.678   1.995
  337TIP3   OH2 1016   2.394   3.351   4.191
  337TIP3    H1 1017   2.424   3.305   4.113
  337TIP3    H2 1018   2.367   3.437   4.160
  338TIP3   OH2 1019   3.012   5.126   4.246
  338TIP3    H1 1020   2.971   5.159   4.166
  338TIP3    H2 1021   3.021   5.202   4.303
  339TIP3   OH2 1022   4.918   2.953   4.364
  339TIP3    H1 1023   5.011   2.959   4.384
  339TIP3    H2 1024   4.892   2.866   4.397
  340TIP3   OH2 1025   2.012   3.928   2.411
  340TIP3    H1 1026   1.969   3.925   2.496
  340TIP3    H2 1027   2.074   3.855   2.413
  341TIP3   OH2 1028   3.101   1.816   4.574
  341TIP3    H1 1029   3.040   1.764   4.523
  341TIP3    H2 1030   3.080   1.795   4.665
  342TIP3   OH2 1031   2.465   5.041   2.907
  342TIP3    H1 1032   2.422   5.126   2.919
  342TIP3    H2 1033   2.454   5.022   2.814
  343TIP3   OH2 1034   1.090   0.355   5.015
  343TIP3    H1 1035   1.083   0.425   4.950
  343TIP3    H2 1036   1.167   0.304   4.988
  344TIP3   OH2 1037   2.751   4.974   4.241
  344TIP3    H1 1038   2.736   4.999   4.150
  344TIP3    H2 1039   2.819   4.907   4.237
  345TIP3   OH2 1040   1.881   4.313   5.185
  345TIP3    H1 1041   1.842   4.325   5.099
  345TIP3    H2 1042   1.864   4.396   5.231
  346TIP3   OH2 1043   0.474   3.569   5.070
  346TIP3    H1 1044   0.555   3.580   5.118
  346TIP3    H2 1045   0.492   3.604   4.983
  347TIP3   OH2 1046   1.071   4.920   4.711
  347TIP3    H1 1047   1.039   4.839   4.671
  347TIP3    H2 1048   1.069   4.984   4.639
  348TIP3   OH2 1049   4.832   2.976   1.490
  348TIP3    H1 1050   4.800   3.060   1.520
  348TIP3    H2 1051   4.894   2.997   1.420
  349TIP3   OH2 1052   4.362   5.005   2.604
  349TIP3    H1 1053   4.328   4.957   2.680
  349TIP3    H2 1054   4.448   4.967   2.587
  350TIP3   OH2 1055   2.150   3.125   5.046
  350TIP3    H1 1056   2.109   3.189   5.104
  350TIP3    H2 1057   2.185   3.058   5.105
  351TIP3   OH2 1058   0.397   3.690   1.118
  351TIP3    H1 1059   0.466   3.627   1.096
  351TIP3    H2 1060   0.329   3.675   1.052
  352TIP3   OH2 1061   3.475   0.029   1.477
  352TIP3    H1 1062   3.548   0.029   1.539
  352TIP3    H2 1063   3.490   0.105   1.422
  353TIP3   OH2 1064   5.758   3.698   4.586
  353TIP3    H1 1065   5.767   3.604   4.601
  353TIP3    H2 1066   5.768   3.738   4.673
  354TIP3   OH2 1067   3.086   3.162   1.198
  354TIP3    H1 1068   3.161   3.215   1.170
  354TIP3    H2 1069   3.010   3.212   1.169
  355TIP3   OH2 1070   3.356   3.305   2.868
  355TIP3    H1 1071   3.422   3.346   2.813
  355TIP3    H2 1072   3.403   3.237   2.916
  356TIP3   OH2 1073   0.966   3.817   4.892
  356TIP3    H1 1074   1.048   3.771   4.906
  356TIP3    H2 1075   0.912   3.756   4.841
  357TIP3   OH2 1076   1.629   5.561   2.080
  357TIP3    H1 1077   1.564   5.501   2.116
  357TIP3    H2 1078   1.650   5.525   1.993
  358TIP3   OH2 1079   0.835   2.309   2.363
  358TIP3    H1 1080   0.797   2.394   2.341
  358TIP3    H2 1081   0.818   2.299   2.457
  359TIP3   OH2 1082   0.347   2.118   1.120
  359TIP3    H1 1083   0.311   2.035   1.151
  359TIP3    H2 1084   0.353   2.108   1.025
  360TIP3   OH2 1085   4.428   4.582   4.319
  360TIP3    H1 1086   4.501   4.616   4.267
  360TIP3    H2 1087   4.370   4.658   4.331
  361TIP3   OH2 1088   0.103   4.640   4.036
  361TIP3    H1 1089   0.040   4.701   4.074
  361TIP3    H2 1090   0.144   4.598   4.112
  362TIP3   OH2 1091   3.026   5.382   1.668
  362TIP3    H1 1092   3.108   5.431   1.655
  362TIP3    H2 1093   2.985   5.424   1.744
  363TIP3   OH2 1094   1.552   1.343   1.242
  363TIP3    H1 1095   1.630   1.288   1.243
  363TIP3    H2 1096   1.518   1.339   1.331
  364TIP3   OH2 1097   0.070   1.285   1.525
  364TIP3    H1 1098   0.030   1.254   1.606
  364TIP3    H2 1099   0.000   1.282   1.460
  365TIP3   OH2 1100   1.061   3.629   2.816
  365TIP3    H1 1101   1.069   3.668   2.729
  365TIP3    H2 1102   1.093   3.540   2.805
  366TIP3   OH2 1103   1.455   0.313   4.411
  366TIP3    H1 1104   1.548   0.332   4.415
  366TIP3    H2 1105   1.421   0.371   4.343
  367TIP3   OH2 1106   5.269   4.148   2.658
  367TIP3    H1 1107   5.312   4.223   2.616
  367TIP3    H2 1108   5.280   4.162   2.752
  368TIP3   OH2 1109   4.078   5.420   0.664
  368TIP3    H1 1110   4.097   5.331   0.633
  368TIP3    H2 1111   4.074   5.473   0.585
  369TIP3   OH2 1112   5.664   4.313   3.115
  369TIP3    H1 1113   5.606   4.388   3.128
  369TIP3    H2 1114   5.706   4.301   3.200
  370TIP3   OH2 1115   6.231   5.459   4.055
  370TIP3    H1 1116   6.252   5.505   3.974
  370TIP3    H2 1117   6.157   5.508   4.092
  371TIP3   OH2 1118   3.841   3.428   4.550
  371TIP3    H1 1119   3.917   3.438   4.493
  371TIP3    H2 1120   3.795   3.511   4.544
  372TIP3   OH2 1121   5.651   3.025   1.709
  372TIP3    H1 1122   5.582   3.090   1.726
  372TIP3    H2 1123   5.604   2.945   1.686
  373TIP3   OH2 1124   2.846   1.430   3.160
  373TIP3    H1 1125   2.903   1.495   3.200
  373TIP3    H2 1126   2.889   1.346   3.177
  374TIP3   OH2 1127   3.543   0.316   3.015
  374TIP3    H1 1128   3.486   0.313   2.938
  374TIP3    H2 1129   3.596   0.395   3.003
  375TIP3   OH2 1130   4.952   0.389   4.812
  375TIP3    H1 1131   4.864   0.369   4.843
  375TIP3    H2 1132   4.940   0.414   4.720
  376TIP3   OH2 1133   3.540   1.250   4.064
  376TIP3    H1 1134   3.497   1.186   4.009
  376TIP3    H2 1135   3.499   1.240   4.150
  377TIP3   OH2 1136   3.728   3.829   4.334
  377TIP3    H1 1137   3.813   3.809   4.372
  377TIP3    H2 1138   3.683   3.745   4.328
  378TIP3   OH2 1139   5.917   0.658   4.634
  378TIP3    H1 1140   5.907   0.564   4.619
  378TIP3    H2 1141   5.947   0.665   4.725
  379TIP3   OH2 1142   6.114   3.804   0.406
  379TIP3    H1 1143   6.113   3.896   0.382
  379TIP3    H2 1144   6.040   3.794   0.466
  380TIP3   OH2 1145   0.746   0.190   2.251
  380TIP3    H1 1146   0.804   0.258   2.215
  380TIP3    H2 1147   0.676   0.239   2.293
  381TIP3   OH2 1148   4.523   5.853   4.466
  381TIP3    H1 1149   4.450   5.861   4.528
  381TIP3    H2 1150   4.508   5.769   4.423
  382TIP3   OH2 1151   0.064   1.825   0.722
  382TIP3    H1 1152   0.102   1.845   0.807
  382TIP3    H2 1153   0.023   1.739   0.732
  383TIP3   OH2 1154   3.889   2.675   0.197
  383TIP3    H1 1155   3.811   2.730   0.205
  383TIP3    H2 1156   3.868   2.596   0.247
  384TIP3   OH2 1157   3.882   3.219   4.978
  384TIP3    H1 1158   3.955   3.158   4.977
  384TIP3    H2 1159   3.901   3.281   4.908
  385TIP3   OH2 1160   1.301   1.646   3.378
  385TIP3    H1 1161   1.284   1.555   3.351
  385TIP3    H2 1162   1.360   1.680   3.311
  386TIP3   OH2 1163   1.486   0.648   0.394
  386TIP3    H1 1164   1.466   0.561   0.428
  386TIP3    H2 1165   1.578   0.663   0.416
  387TIP3   OH2 1166  -0.023   1.172   4.040
  387TIP3    H1 1167   0.001   1.250   3.990
  387TIP3    H2 1168   0.008   1.099   3.987
  388TIP3   OH2 1169   5.178   1.665   3.706
  388TIP3    H1 1170   5.212   1.577   3.689
  388TIP3    H2 1171   5.204   1.716   3.629
  389TIP3   OH2 1172   4.542   1.865   2.905
  389TIP3    H1 1173   4.553   1.862   3.000
  389TIP3    H2 1174   4.458   1.910   2.892
  390TIP3   OH2 1175   4.152   2.955   4.709
  390TIP3    H1 1176   4.143   3.003   4.791
  390TIP3    H2 1177   4.227   2.898   4.722
  391TIP3   OH2 1178   5.731   2.526   0.952
  391TIP3    H1 1179   5.745   2.471   1.029
  391TIP3    H2 1180   5.683   2.602   0.985
  392TIP3   OH2 1181   2.375   0.989   1.763
  392TIP3    H1 1182   2.331   1.063   1.804
  392TIP3    H2 1183   2.419   1.027   1.686
  393TIP3   OH2 1184   1.091   1.483   4.745
  393TIP3    H1 1185   1.117   1.480   4.653
  393TIP3    H2 1186   1.014   1.540   4.746
  394TIP3   OH2 1187   3.660   4.910   5.079
  394TIP3    H1 1188   3.624   4.900   5.166
  394TIP3    H2 1189   3.737   4.853   5.078
  395TIP3   OH2 1190   2.574   4.525   2.988
  395TIP3    H1 1191   2.629   4.447   2.990
  395TIP3    H2 1192   2.548   4.534   2.897
  396TIP3   OH2 1193   1.613   4.078   1.557
  396TIP3    H1 1194   1.649   4.012   1.617
  396TIP3    H2 1195   1.654   4.160   1.584
  397TIP3   OH2 1196   1.802   3.341   1.223
  397TIP3    H1 1197   1.795   3.297   1.308
  397TIP3    H2 1198   1.752   3.422   1.235
  398TIP3   OH2 1199   5.042   4.085   0.487
  398TIP3    H1 1200   5.125   4.113   0.526
  398TIP3    H2 1201   4.996   4.038   0.557
  399TIP3   OH2 1202   4.139   0.959   0.120
  399TIP3    H1 1203   4.128   0.910   0.201
  399TIP3    H2 1204   4.064   1.019   0.118
  400TIP3   OH2 1205   0.292   1.856   3.213
  400TIP3    H1 1206   0.280   1.828   3.123
  400TIP3    H2 1207   0.385   1.843   3.231
  401TIP3   OH2 1208   4.071   5.771   0.712
  401TIP3    H1 1209   4.118   5.752   0.793
  401TIP3    H2 1210   3.990   5.721   0.720
  402TIP3   OH2 1211   2.481   0.592   5.152
  402TIP3    H1 1212   2.529   0.674   5.159
  402TIP3    H2 1213   2.533   0.529   5.203
  403TIP3   OH2 1214   5.322   2.377   0.431
  403TIP3    H1 1215   5.366   2.460   0.416
  403TIP3    H2 1216   5.229   2.397   0.423
  404TIP3   OH2 1217   4.822   1.411   0.793
  404TIP3    H1 1218   4.753   1.466   0.756
  404TIP3    H2 1219   4.802   1.323   0.758
  405TIP3   OH2 1220   4.159   2.665   0.232
  405TIP3    H1 1221   4.065   2.678   0.220
  405TIP3    H2 1222   4.191   2.749   0.265
  406TIP3   OH2 1223   0.398   4.321   3.498
  406TIP3    H1 1224   0.443   4.237   3.500
  406TIP3    H2 1225   0.388   4.340   3.405
  407TIP3   OH2 1226   1.808   1.549   1.089
  407TIP3    H1 1227   1.810   1.488   1.162
  407TIP3    H2 1228   1.791   1.634   1.130
  408TIP3   OH2 1229   1.109   1.974   0.982
  408TIP3    H1 1230   1.125   1.893   0.932
  408TIP3    H2 1231   1.193   1.992   1.024
  409TIP3   OH2 1232   0.111   5.672   2.319
  409TIP3    H1 1233   0.029   5.621   2.314
  409TIP3    H2 1234   0.155   5.639   2.397
  410TIP3   OH2 1235   3.445   2.947   1.008
  410TIP3    H1 1236   3.376   3.005   0.978
  410TIP3    H2 1237   3.407   2.901   1.083
  411TIP3   OH2 1238   1.039   2.195   4.851
  411TIP3    H1 1239   0.947   2.209   4.828
  411TIP3    H2 1240   1.084   2.193   4.766
  412TIP3   OH2 1241   4.947   3.533   2.429
  412TIP3    H1 1242   4.948   3.529   2.333
  412TIP3    H2 1243   5.037   3.553   2.454
  413TIP3   OH2 1244   5.088   3.283   2.927
  413TIP3    H1 1245   5.089   3.334   3.007
  413TIP3    H2 1246   5.180   3.277   2.900
  414TIP3   OH2 1247   3.945   5.846   2.591
  414TIP3    H1 1248   3.923   5.922   2.537
  414TIP3    H2 1249   3.967   5.778   2.528
  415TIP3   OH2 1250   4.819   5.746   1.095
  415TIP3    H1 1251   4.786   5.771   1.008
  415TIP3    H2 1252   4.849   5.829   1.133
  416TIP3   OH2 1253   5.586   5.322   2.426
  416TIP3    H1 1254   5.678   5.296   2.432
  416TIP3    H2 1255   5.579   5.363   2.339
  417TIP3   OH2 1256   4.396   5.682   1.797
  417TIP3    H1 1257   4.386   5.614   1.730
  417TIP3    H2 1258   4.475   5.729   1.772
  418TIP3   OH2 1259   4.318   2.284   0.368
  418TIP3    H1 1260   4.397   2.233   0.384
  418TIP3    H2 1261   4.262   2.265   0.443
  419TIP3   OH2 1262   5.870   3.467   3.552
  419TIP3    H1 1263   5.849   3.509   3.468
  419TIP3    H2 1264   5.912   3.537   3.603
  420TIP3   OH2 1265   0.337   1.090   4.514
  420TIP3    H1 1266   0.413   1.141   4.540
  420TIP3    H2 1267   0.339   1.091   4.418
  421TIP3   OH2 1268   2.797   2.302   4.508
  421TIP3    H1 1269   2.826   2.359   4.579
  421TIP3    H2 1270   2.848   2.222   4.518
  422TIP3   OH2 1271   6.179   3.746   4.374
  422TIP3    H1 1272   6.234   3.737   4.452
  422TIP3    H2 1273   6.194   3.666   4.324
  423TIP3   OH2 1274   5.958   4.849   0.248
  423TIP3    H1 1275   5.921   4.859   0.160
  423TIP3    H2 1276   5.885   4.870   0.307
  424TIP3   OH2 1277   1.080   1.188   4.684
  424TIP3    H1 1278   1.041   1.264   4.726
  424TIP3    H2 1279   1.160   1.171   4.735
  425TIP3   OH2 1280   0.305   1.520   0.542
  425TIP3    H1 1281   0.288   1.596   0.486
  425TIP3    H2 1282   0.249   1.451   0.506
  426TIP3   OH2 1283   3.325   5.365   0.477
  426TIP3    H1 1284   3.415   5.332   0.481
  426TIP3    H2 1285   3.332   5.449   0.432
  427TIP3   OH2 1286   6.261   3.963   4.198
  427TIP3    H1 1287   6.240   4.047   4.238
  427TIP3    H2 1288   6.227   3.897   4.259
  428TIP3   OH2 1289   5.340   5.576   2.372
  428TIP3    H1 1290   5.390   5.630   2.310
  428TIP3    H2 1291   5.269   5.539   2.319
  429TIP3   OH2 1292   1.078   5.801   3.234
  429TIP3    H1 1293   1.108   5.822   3.146
  429TIP3    H2 1294   1.063   5.887   3.275
  430TIP3   OH2 1295   2.303   4.878   2.377
  430TIP3    H1 1296   2.379   4.831   2.341
  430TIP3    H2 1297   2.306   4.963   2.335
  431TIP3   OH2 1298   4.759   1.264   0.193
  431TIP3    H1 1299   4.675   1.302   0.220
  431TIP3    H2 1300   4.753   1.173   0.220
  432TIP3   OH2 1301   1.826   5.203   0.954
  432TIP3    H1 1302   1.752   5.188   1.012
  432TIP3    H2 1303   1.851   5.115   0.924
  433TIP3   OH2 1304   5.510   2.567   2.669
  433TIP3    H1 1305   5.477   2.560   2.580
  433TIP3    H2 1306   5.550   2.654   2.674
  434TIP3   OH2 1307   4.128   5.212   0.238
  434TIP3    H1 1308   4.089   5.167   0.162
  434TIP3    H2 1309   4.222   5.199   0.228
  435TIP3   OH2 1310   2.716   0.389   2.082
  435TIP3    H1 1311   2.626   0.416   2.064
  435TIP3    H2 1312   2.749   0.359   1.997
  436TIP3   OH2 1313   6.216   1.050   0.676
  436TIP3    H1 1314   6.221   0.999   0.595
  436TIP3    H2 1315   6.130   1.029   0.712
  437TIP3   OH2 1316   2.846   5.719   0.318
  437TIP3    H1 1317   2.939   5.729   0.341
  437TIP3    H2 1318   2.826   5.796   0.264
  438TIP3   OH2 1319   1.797   4.194   0.027
  438TIP3    H1 1320   1.814   4.103   0.048
  438TIP3    H2 1321   1.766   4.233   0.109
  439TIP3   OH2 1322   2.681   5.393   1.758
  439TIP3    H1 1323   2.725   5.473   1.786
  439TIP3    H2 1324   2.657   5.349   1.840
  440TIP3   OH2 1325   0.430   1.592   4.466
  440TIP3    H1 1326   0.402   1.520   4.522
  440TIP3    H2 1327   0.407   1.563   4.378
  441TIP3   OH2 1328   1.326   2.318   1.804
  441TIP3    H1 1329   1.271   2.345   1.730
  441TIP3    H2 1330   1.310   2.224   1.812
  442TIP3   OH2 1331   2.572   1.028   2.279
  442TIP3    H1 1332   2.530   0.961   2.333
  442TIP3    H2 1333   2.622   0.978   2.214
  443TIP3   OH2 1334   5.612   5.279   3.032
  443TIP3    H1 1335   5.626   5.256   3.124
  443TIP3    H2 1336   5.518   5.272   3.019
  444TIP3   OH2 1337   3.961   0.215   3.140
  444TIP3    H1 1338   3.961   0.292   3.082
  444TIP3    H2 1339   3.887   0.228   3.199
  445TIP3   OH2 1340   2.079   4.420   0.023
  445TIP3    H1 1341   2.060   4.455   0.110
  445TIP3    H2 1342   2.113   4.331   0.040
  446TIP3   OH2 1343   5.247   1.467   2.176
  446TIP3    H1 1344   5.256   1.500   2.265
  446TIP3    H2 1345   5.242   1.372   2.186
  447TIP3   OH2 1346   2.961   5.143   3.991
  447TIP3    H1 1347   2.929   5.052   3.989
  447TIP3    H2 1348   2.928   5.181   3.910
  448TIP3   OH2 1349   1.394   0.829   0.581
  448TIP3    H1 1350   1.420   0.742   0.550
  448TIP3    H2 1351   1.466   0.856   0.638
  449TIP3   OH2 1352   2.830   5.200   2.496
  449TIP3    H1 1353   2.755   5.179   2.439
  449TIP3    H2 1354   2.820   5.141   2.570
  450TIP3   OH2 1355   1.265   5.972   2.345
  450TIP3    H1 1356   1.170   5.969   2.331
  450TIP3    H2 1357   1.297   5.889   2.311
  451TIP3   OH2 1358   5.168   5.889   1.435
  451TIP3    H1 1359   5.092   5.833   1.449
  451TIP3    H2 1360   5.241   5.839   1.471
  452TIP3   OH2 1361   3.456   0.666   2.330
  452TIP3    H1 1362   3.473   0.572   2.338
  452TIP3    H2 1363   3.542   0.707   2.334
  453TIP3   OH2 1364   1.831   2.869   1.255
  453TIP3    H1 1365   1.895   2.937   1.232
  453TIP3    H2 1366   1.882   2.804   1.303
  454TIP3   OH2 1367   3.197   3.810   3.622
  454TIP3    H1 1368   3.273   3.760   3.593
  454TIP3    H2 1369   3.231   3.866   3.692
  455TIP3   OH2 1370   4.636   2.940   3.169
  455TIP3    H1 1371   4.663   2.960   3.079
  455TIP3    H2 1372   4.548   2.979   3.176
  456TIP3   OH2 1373   2.985   0.761   1.787
  456TIP3    H1 1374   2.932   0.729   1.860
  456TIP3    H2 1375   3.005   0.852   1.810
  457TIP3   OH2 1376   6.331   1.832   1.867
  457TIP3    H1 1377   6.321   1.739   1.844
  457TIP3    H2 1378   6.301   1.879   1.790
  458TIP3   OH2 1379   5.472   3.246   1.735
  458TIP3    H1 1380   5.490   3.272   1.826
  458TIP3    H2 1381   5.535   3.298   1.684
  459TIP3   OH2 1382   1.624   1.355   4.963
  459TIP3    H1 1383   1.553   1.381   5.021
  459TIP3    H2 1384   1.599   1.269   4.931
  460TIP3   OH2 1385   4.199   4.162   4.505
  460TIP3    H1 1386   4.267   4.156   4.573
  460TIP3    H2 1387   4.238   4.219   4.438
  461TIP3   OH2 1388   1.277   4.193   1.921
  461TIP3    H1 1389   1.208   4.196   1.854
  461TIP3    H2 1390   1.342   4.257   1.891
  462TIP3   OH2 1391   1.800   4.315   1.563
  462TIP3    H1 1392   1.826   4.367   1.639
  462TIP3    H2 1393   1.787   4.379   1.493
  463TIP3   OH2 1394   4.051   4.511   4.646
  463TIP3    H1 1395   4.125   4.570   4.644
  463TIP3    H2 1396   4.059   4.458   4.567
  464TIP3   OH2 1397   3.473   4.112   2.381
  464TIP3    H1 1398   3.496   4.192   2.428
  464TIP3    H2 1399   3.393   4.081   2.424
  465TIP3   OH2 1400   6.099   1.082   3.136
  465TIP3    H1 1401   6.095   1.139   3.213
  465TIP3    H2 1402   6.187   1.095   3.102
  466TIP3   OH2 1403   6.274   4.308   2.485
  466TIP3    H1 1404   6.218   4.346   2.552
  466TIP3    H2 1405   6.336   4.377   2.462
  467TIP3   OH2 1406   5.438   5.233   0.451
  467TIP3    H1 1407   5.391   5.315   0.463
  467TIP3    H2 1408   5.393   5.171   0.508
  468TIP3   OH2 1409   5.243   2.963   0.689
  468TIP3    H1 1410   5.295   2.891   0.655
  468TIP3    H2 1411   5.293   2.995   0.764
  469TIP3   OH2 1412   5.828   0.243   2.772
  469TIP3    H1 1413   5.775   0.166   2.794
  469TIP3    H2 1414   5.776   0.291   2.708
  470TIP3   OH2 1415   3.665   4.129   1.475
  470TIP3    H1 1416   3.605   4.081   1.531
  470TIP3    H2 1417   3.693   4.065   1.410
  471TIP3   OH2 1418   1.710   4.762   4.381
  471TIP3    H1 1419   1.706   4.782   4.475
  471TIP3    H2 1420   1.682   4.671   4.374
  472TIP3   OH2 1421   4.412   4.594   3.769
  472TIP3    H1 1422   4.437   4.555   3.685
  472TIP3    H2 1423   4.407   4.520   3.830
  473TIP3   OH2 1424   5.264   5.852   0.188
  473TIP3    H1 1425   5.234   5.935   0.225
  473TIP3    H2 1426   5.336   5.878   0.129
  474TIP3   OH2 1427   1.635   2.204   1.096
  474TIP3    H1 1428   1.563   2.251   1.054
  474TIP3    H2 1429   1.654   2.255   1.175
  475TIP3   OH2 1430   2.235   0.724   2.174
  475TIP3    H1 1431   2.266   0.663   2.241
  475TIP3    H2 1432   2.302   0.719   2.105
  476TIP3   OH2 1433   4.692   2.090   2.855
  476TIP3    H1 1434   4.716   2.081   2.947
  476TIP3    H2 1435   4.647   2.008   2.834
  477TIP3   OH2 1436   0.553   3.679   0.090
  477TIP3    H1 1437   0.536   3.675   0.184
  477TIP3    H2 1438   0.537   3.771   0.066
  478TIP3   OH2 1439   2.974   4.409   0.534
  478TIP3    H1 1440   3.052   4.407   0.590
  478TIP3    H2 1441   3.003   4.369   0.452
  479TIP3   OH2 1442   1.286   5.779   2.753
  479TIP3    H1 1443   1.261   5.694   2.716
  479TIP3    H2 1444   1.359   5.808   2.698
  480TIP3   OH2 1445   3.301   0.909   0.551
  480TIP3    H1 1446   3.357   0.929   0.626
  480TIP3    H2 1447   3.344   0.951   0.476
  481TIP3   OH2 1448   2.685   3.211   5.138
  481TIP3    H1 1449   2.688   3.306   5.147
  481TIP3    H2 1450   2.595   3.191   5.113
  482TIP3   OH2 1451   0.346   0.621   3.348
  482TIP3    H1 1452   0.408   0.693   3.352
  482TIP3    H2 1453   0.294   0.629   3.429
  483TIP3   OH2 1454   3.901   3.622   3.865
  483TIP3    H1 1455   3.993   3.613   3.841
  483TIP3    H2 1456   3.874   3.533   3.890
  484TIP3   OH2 1457   4.596   2.234   2.499
  484TIP3    H1 1458   4.685   2.213   2.471
  484TIP3    H2 1459   4.552   2.149   2.504
  485TIP3   OH2 1460   2.176   4.037   4.789
  485TIP3    H1 1461   2.156   4.005   4.877
  485TIP3    H2 1462   2.158   3.962   4.732
  486TIP3   OH2 1463   0.709   5.871   2.156
  486TIP3    H1 1464   0.706   5.873   2.251
  486TIP3    H2 1465   0.682   5.959   2.129
  487TIP3   OH2 1466   0.904   3.346   3.082
  487TIP3    H1 1467   0.865   3.374   3.165
  487TIP3    H2 1468   0.996   3.370   3.088
  488TIP3   OH2 1469   2.110   5.423   1.419
  488TIP3    H1 1470   2.120   5.500   1.363
  488TIP3    H2 1471   2.198   5.403   1.450
  489TIP3   OH2 1472   1.281   2.130   4.162
  489TIP3    H1 1473   1.239   2.105   4.245
  489TIP3    H2 1474   1.218   2.187   4.119
  490TIP3   OH2 1475   3.561   3.838   3.297
  490TIP3    H1 1476   3.638   3.870   3.344
  490TIP3    H2 1477   3.557   3.745   3.317
  491TIP3   OH2 1478   5.849   3.440   4.612
  491TIP3    H1 1479   5.862   3.457   4.519
  491TIP3    H2 1480   5.818   3.350   4.616
  492TIP3   OH2 1481   4.201   1.580   4.091
  492TIP3    H1 1482   4.289   1.541   4.098
  492TIP3    H2 1483   4.210   1.647   4.024
  493TIP3   OH2 1484   4.435   2.867   2.645
  493TIP3    H1 1485   4.358   2.902   2.600
  493TIP3    H2 1486   4.492   2.835   2.575
  494TIP3   OH2 1487   0.330   2.301   4.238
  494TIP3    H1 1488   0.249   2.285   4.286
  494TIP3    H2 1489   0.326   2.393   4.214
  495TIP3   OH2 1490   5.793   3.724   2.699
  495TIP3    H1 1491   5.765   3.811   2.726
  495TIP3    H2 1492   5.858   3.739   2.630
  496TIP3   OH2 1493   0.654   3.336   0.451
  496TIP3    H1 1494   0.609   3.386   0.520
  496TIP3    H2 1495   0.743   3.370   0.453
  497TIP3   OH2 1496   0.281   0.368   2.576
  497TIP3    H1 1497   0.342   0.442   2.584
  497TIP3    H2 1498   0.199   0.400   2.613
  498TIP3   OH2 1499   6.242   2.693   3.268
  498TIP3    H1 1500   6.233   2.597   3.271
  498TIP3    H2 1501   6.158   2.725   3.300
  499TIP3   OH2 1502   1.647   4.573   2.641
  499TIP3    H1 1503   1.658   4.513   2.566
  499TIP3    H2 1504   1.565   4.547   2.681
  500TIP3   OH2 1505   0.634   0.653   3.373
  500TIP3    H1 1506   0.616   0.577   3.318
  500TIP3    H2 1507   0.640   0.617   3.462
  501TIP3   OH2 1508   0.041   3.179   2.835
  501TIP3    H1 1509   0.136   3.179   2.820
  501TIP3    H2 1510   0.018   3.086   2.838
  502TIP3   OH2 1511   0.117   0.041   2.251
  502TIP3    H1 1512   0.073   0.121   2.279
  502TIP3    H2 1513   0.109   0.042   2.155
  503TIP3   OH2 1514   3.177   1.451   3.741
  503TIP3    H1 1515   3.182   1.532   3.689
  503TIP3    H2 1516   3.143   1.386   3.679
  504TIP3   OH2 1517   4.317   2.067   1.794
  504TIP3    H1 1518   4.407   2.092   1.773
  504TIP3    H2 1519   4.299   1.993   1.736
  505TIP3   OH2 1520   5.070   0.333   3.492
  505TIP3    H1 1521   5.139   0.366   3.434
  505TIP3    H2 1522   5.032   0.259   3.445
  506TIP3   OH2 1523   1.982   4.292   2.088
  506TIP3    H1 1524   2.030   4.306   2.169
  506TIP3    H2 1525   1.931   4.212   2.103
  507TIP3   OH2 1526   4.129   5.919   4.006
  507TIP3    H1 1527   4.175   5.981   4.063
  507TIP3    H2 1528   4.037   5.941   4.017
  508TIP3   OH2 1529   5.013   1.847   5.090
  508TIP3    H1 1530   5.101   1.844   5.052
  508TIP3    H2 1531   4.969   1.917   5.041
  509TIP3   OH2 1532   2.623   4.758   0.533
  509TIP3    H1 1533   2.627   4.743   0.628
  509TIP3    H2 1534   2.562   4.691   0.501
  510TIP3   OH2 1535   4.368   0.352   1.545
  510TIP3    H1 1536   4.373   0.381   1.636
  510TIP3    H2 1537   4.395   0.260   1.548
  511TIP3   OH2 1538   5.594   0.261   2.215
  511TIP3    H1 1539   5.659   0.194   2.194
  511TIP3    H2 1540   5.586   0.312   2.135
  512TIP3   OH2 1541   0.509   2.420   0.809
  512TIP3    H1 1542   0.588   2.470   0.791
  512TIP3    H2 1543   0.497   2.427   0.904
  513TIP3   OH2 1544   0.207   1.746   3.556
  513TIP3    H1 1545   0.171   1.714   3.474
  513TIP3    H2 1546   0.196   1.841   3.552
  514TIP3   OH2 1547   2.412   0.981   0.838
  514TIP3    H1 1548   2.390   0.888   0.828
  514TIP3    H2 1549   2.500   0.989   0.802
  515TIP3   OH2 1550   1.092   3.388   0.709
  515TIP3    H1 1551   1.175   3.351   0.679
  515TIP3    H2 1552   1.032   3.375   0.636
  516TIP3   OH2 1553   4.126   3.590   1.781
  516TIP3    H1 1554   4.209   3.602   1.828
  516TIP3    H2 1555   4.077   3.670   1.799
  517TIP3   OH2 1556   5.294   3.744   0.174
  517TIP3    H1 1557   5.217   3.800   0.169
  517TIP3    H2 1558   5.261   3.656   0.154
  518TIP3   OH2 1559   1.857   1.425   1.311
  518TIP3    H1 1560   1.873   1.489   1.380
  518TIP3    H2 1561   1.827   1.347   1.357
  519TIP3   OH2 1562   3.566   4.597   1.194
  519TIP3    H1 1563   3.609   4.580   1.110
  519TIP3    H2 1564   3.584   4.519   1.246
  520TIP3   OH2 1565   4.689   0.355   4.886
  520TIP3    H1 1566   4.637   0.328   4.962
  520TIP3    H2 1567   4.683   0.451   4.886
  521TIP3   OH2 1568   4.794   3.446   0.861
  521TIP3    H1 1569   4.763   3.428   0.950
  521TIP3    H2 1570   4.718   3.479   0.815
  522TIP3   OH2 1571   2.094   0.099   0.806
  522TIP3    H1 1572   2.003   0.087   0.833
  522TIP3    H2 1573   2.139   0.022   0.841
  523TIP3   OH2 1574   3.879   1.245   1.663
  523TIP3    H1 1575   3.862   1.291   1.745
  523TIP3    H2 1576   3.920   1.310   1.607
  524TIP3   OH2 1577   4.477   1.164   4.122
  524TIP3    H1 1578   4.555   1.177   4.068
  524TIP3    H2 1579   4.437   1.084   4.087
  525TIP3   OH2 1580   0.056   4.687   2.651
  525TIP3    H1 1581   0.025   4.767   2.693
  525TIP3    H2 1582   0.093   4.635   2.722
  526TIP3   OH2 1583   2.484   1.167   4.344
  526TIP3    H1 1584   2.401   1.125   4.366
  526TIP3    H2 1585   2.475   1.256   4.377
  527TIP3   OH2 1586   4.846   5.048   1.210
  527TIP3    H1 1587   4.888   5.023   1.127
  527TIP3    H2 1588   4.765   4.997   1.212
  528TIP3   OH2 1589   3.448   4.080   5.063
  528TIP3    H1 1590   3.361   4.119   5.069
  528TIP3    H2 1591   3.507   4.155   5.055
  529TIP3   OH2 1592   4.284   2.521   3.720
  529TIP3    H1 1593   4.221   2.516   3.791
  529TIP3    H2 1594   4.231   2.522   3.640
  530TIP3   OH2 1595   5.517   3.925   2.866
  530TIP3    H1 1596   5.494   3.927   2.773
  530TIP3    H2 1597   5.566   4.006   2.880
  531TIP3   OH2 1598   2.953   3.289   1.460
  531TIP3    H1 1599   3.048   3.296   1.474
  531TIP3    H2 1600   2.945   3.232   1.383
  532TIP3   OH2 1601   5.662   1.748   3.621
  532TIP3    H1 1602   5.743   1.772   3.666
  532TIP3    H2 1603   5.600   1.731   3.691
  533TIP3   OH2 1604   5.316   1.982   3.760
  533TIP3    H1 1605   5.280   2.045   3.698
  533TIP3    H2 1606   5.408   2.007   3.770
  534TIP3   OH2 1607   5.121   2.548   1.408
  534TIP3    H1 1608   5.029   2.530   1.387
  534TIP3    H2 1609   5.158   2.461   1.425
  535TIP3   OH2 1610   0.287   4.961   0.464
  535TIP3    H1 1611   0.241   4.972   0.380
  535TIP3    H2 1612   0.343   5.038   0.471
  536TIP3   OH2 1613   3.508   5.917   3.363
  536TIP3    H1 1614   3.504   5.922   3.459
  536TIP3    H2 1615   3.484   6.005   3.334
  537TIP3   OH2 1616   3.627   4.754   2.905
  537TIP3    H1 1617   3.693   4.818   2.878
  537TIP3    H2 1618   3.674   4.671   2.912
  538TIP3   OH2 1619   1.982   1.970   3.349
  538TIP3    H1 1620   1.940   2.055   3.337
  538TIP3    H2 1621   2.007   1.943   3.260
  539TIP3   OH2 1622   3.492   0.966   0.763
  539TIP3    H1 1623   3.471   0.941   0.853
  539TIP3    H2 1624   3.547   0.894   0.731
  540TIP3   OH2 1625   5.734   2.134   3.072
  540TIP3    H1 1626   5.667   2.074   3.038
  540TIP3    H2 1627   5.755   2.191   2.998
  541TIP3   OH2 1628   1.119   4.427   5.133
  541TIP3    H1 1629   1.165   4.498   5.177
  541TIP3    H2 1630   1.184   4.388   5.074
  542TIP3   OH2 1631   0.233   4.350   0.624
  542TIP3    H1 1632   0.210   4.440   0.602
  542TIP3    H2 1633   0.259   4.311   0.540
  543TIP3   OH2 1634   4.281   4.004   3.448
  543TIP3    H1 1635   4.218   4.074   3.436
  543TIP3    H2 1636   4.244   3.950   3.518
  544TIP3   OH2 1637   1.149   3.249   1.461
  544TIP3    H1 1638   1.084   3.313   1.492
  544TIP3    H2 1639   1.138   3.249   1.366
  545TIP3   OH2 1640   4.926   3.176   1.731
  545TIP3    H1 1641   4.977   3.234   1.675
  545TIP3    H2 1642   4.851   3.229   1.758
  546TIP3   OH2 1643   3.223   1.008   0.310
  546TIP3    H1 1644   3.167   0.998   0.233
  546TIP3    H2 1645   3.167   0.986   0.384
  547TIP3   OH2 1646   5.311   1.592   4.156
  547TIP3    H1 1647   5.343   1.544   4.080
  547TIP3    H2 1648   5.384   1.650   4.180
  548TIP3   OH2 1649   4.889   2.783   2.675
  548TIP3    H1 1650   4.910   2.864   2.628
  548TIP3    H2 1651   4.853   2.812   2.759
  549TIP3   OH2 1652   5.886   1.622   0.936
  549TIP3    H1 1653   5.955   1.566   0.973
  549TIP3    H2 1654   5.806   1.571   0.947
  550TIP3   OH2 1655   4.663   2.330   1.402
  550TIP3    H1 1656   4.680   2.392   1.473
  550TIP3    H2 1657   4.748   2.313   1.364
  551TIP3   OH2 1658   1.631   0.357   3.452
  551TIP3    H1 1659   1.650   0.426   3.517
  551TIP3    H2 1660   1.550   0.384   3.411
  552TIP3   OH2 1661   3.890   1.022   3.285
  552TIP3    H1 1662   3.840   0.982   3.355
  552TIP3    H2 1663   3.906   1.111   3.314
  553TIP3   OH2 1664   1.883   4.337   2.460
  553TIP3    H1 1665   1.942   4.264   2.438
  553TIP3    H2 1666   1.936   4.394   2.516
  554TIP3   OH2 1667   0.624  -0.028   1.306
  554TIP3    H1 1668   0.533  -0.032   1.337
  554TIP3    H2 1669   0.646   0.065   1.307
  555TIP3   OH2 1670   2.841   4.184   2.588
  555TIP3    H1 1671   2.923   4.187   2.637
  555TIP3    H2 1672   2.831   4.093   2.561
  556TIP3   OH2 1673   5.921   4.536   1.736
  556TIP3    H1 1674   5.923   4.619   1.688
  556TIP3    H2 1675   5.879   4.558   1.819
  557TIP3   OH2 1676   5.058   1.907   3.447
  557TIP3    H1 1677   5.092   1.973   3.387
  557TIP3    H2 1678   5.133   1.849   3.463
  558TIP3   OH2 1679   1.242   4.783   4.517
  558TIP3    H1 1680   1.275   4.812   4.602
  558TIP3    H2 1681   1.287   4.840   4.454
  559TIP3   OH2 1682   5.258   5.063   1.550
  559TIP3    H1 1683   5.220   5.041   1.635
  559TIP3    H2 1684   5.351   5.080   1.570
  560TIP3   OH2 1685   4.295   1.941   3.098
  560TIP3    H1 1686   4.360   2.005   3.127
  560TIP3    H2 1687   4.289   1.954   3.003
  561TIP3   OH2 1688   4.918   0.544   5.062
  561TIP3    H1 1689   4.933   0.626   5.108
  561TIP3    H2 1690   4.950   0.559   4.974
  562TIP3   OH2 1691   3.975   1.118   4.154
  562TIP3    H1 1692   3.941   1.168   4.229
  562TIP3    H2 1693   4.050   1.070   4.190
  563TIP3   OH2 1694   3.099   3.872   2.394
  563TIP3    H1 1695   3.160   3.873   2.321
  563TIP3    H2 1696   3.064   3.783   2.395
  564TIP3   OH2 1697   4.125   4.486   1.925
  564TIP3    H1 1698   4.194   4.500   1.991
  564TIP3    H2 1699   4.054   4.545   1.952
  565TIP3   OH2 1700   3.689   4.456   0.985
  565TIP3    H1 1701   3.703   4.515   0.911
  565TIP3    H2 1702   3.777   4.438   1.018
  566TIP3   OH2 1703   3.089   5.677   4.354
  566TIP3    H1 1704   3.030   5.676   4.279
  566TIP3    H2 1705   3.043   5.627   4.422
  567TIP3   OH2 1706   2.984   0.677   0.632
  567TIP3    H1 1707   3.071   0.658   0.667
  567TIP3    H2 1708   2.933   0.598   0.651
  568TIP3   OH2 1709   2.362   1.209   5.147
  568TIP3    H1 1710   2.422   1.161   5.090
  568TIP3    H2 1711   2.365   1.299   5.114
  569TIP3   OH2 1712   4.693   3.429   2.095
  569TIP3    H1 1713   4.777   3.450   2.137
  569TIP3    H2 1714   4.638   3.506   2.110
  570TIP3   OH2 1715   0.516   0.591   1.020
  570TIP3    H1 1716   0.495   0.662   1.080
  570TIP3    H2 1717   0.436   0.580   0.968
  571TIP3   OH2 1718   2.331   5.808   4.905
  571TIP3    H1 1719   2.401   5.832   4.844
  571TIP3    H2 1720   2.370   5.739   4.959
  572TIP3   OH2 1721   5.264   5.708   3.645
  572TIP3    H1 1722   5.172   5.715   3.672
  572TIP3    H2 1723   5.273   5.771   3.574
  573TIP3   OH2 1724   0.783   3.890   2.327
  573TIP3    H1 1725   0.767   3.859   2.416
  573TIP3    H2 1726   0.711   3.854   2.275
  574TIP3   OH2 1727   0.593   4.318   1.191
  574TIP3    H1 1728   0.588   4.410   1.165
  574TIP3    H2 1729   0.502   4.291   1.203
  575TIP3   OH2 1730   3.805   4.347   4.593
  575TIP3    H1 1731   3.789   4.283   4.523
  575TIP3    H2 1732   3.890   4.385   4.573
  576TIP3   OH2 1733   1.719   0.770   0.992
  576TIP3    H1 1734   1.784   0.701   1.004
  576TIP3    H2 1735   1.762   0.850   1.022
  577TIP3   OH2 1736   4.884   5.243   2.158
  577TIP3    H1 1737   4.960   5.186   2.146
  577TIP3    H2 1738   4.891   5.274   2.248
  578TIP3   OH2 1739   1.258   3.057   3.936
  578TIP3    H1 1740   1.325   3.125   3.940
  578TIP3    H2 1741   1.307   2.977   3.917
  579TIP3   OH2 1742   4.660   5.852   1.718
  579TIP3    H1 1743   4.686   5.779   1.774
  579TIP3    H2 1744   4.743   5.890   1.689
  580TIP3   OH2 1745   3.964   4.186   3.177
  580TIP3    H1 1746   3.889   4.158   3.125
  580TIP3    H2 1747   3.953   4.281   3.185
  581TIP3   OH2 1748   0.473   3.859   0.807
  581TIP3    H1 1749   0.523   3.940   0.818
  581TIP3    H2 1750   0.422   3.873   0.727
  582TIP3   OH2 1751   3.225   0.541   0.458
  582TIP3    H1 1752   3.315   0.538   0.427
  582TIP3    H2 1753   3.196   0.630   0.438
  583TIP3   OH2 1754   4.954   3.106   4.577
  583TIP3    H1 1755   4.988   3.031   4.627
  583TIP3    H2 1756   4.924   3.068   4.495
  584TIP3   OH2 1757   1.278   3.021   1.538
  584TIP3    H1 1758   1.245   3.091   1.481
  584TIP3    H2 1759   1.372   3.036   1.542
  585TIP3   OH2 1760   1.791   0.911   2.725
  585TIP3    H1 1761   1.751   0.839   2.677
  585TIP3    H2 1762   1.859   0.944   2.667
  586TIP3   OH2 1763   5.188   5.767   3.113
  586TIP3    H1 1764   5.179   5.698   3.179
  586TIP3    H2 1765   5.099   5.803   3.105
  587TIP3   OH2 1766   3.607   5.492   0.142
  587TIP3    H1 1767   3.664   5.553   0.189
  587TIP3    H2 1768   3.612   5.411   0.193
  588TIP3   OH2 1769   0.880   3.566   0.504
  588TIP3    H1 1770   0.927   3.560   0.421
  588TIP3    H2 1771   0.891   3.657   0.532
  589TIP3   OH2 1772   0.635   0.398   3.206
  589TIP3    H1 1773   0.721   0.358   3.194
  589TIP3    H2 1774   0.615   0.438   3.121
  590TIP3   OH2 1775   2.556   3.893   1.314
  590TIP3    H1 1776   2.553   3.822   1.250
  590TIP3    H2 1777   2.567   3.972   1.261
  591TIP3   OH2 1778   2.774   0.169   4.201
  591TIP3    H1 1779   2.788   0.145   4.293
  591TIP3    H2 1780   2.832   0.244   4.187
  592TIP3   OH2 1781   0.824   3.616   4.731
  592TIP3    H1 1782   0.754   3.640   4.670
  592TIP3    H2 1783   0.884   3.562   4.680
  593TIP3   OH2 1784   3.016   3.139   0.737
  593TIP3    H1 1785   2.945   3.077   0.756
  593TIP3    H2 1786   2.974   3.225   0.744
  594TIP3   OH2 1787   2.225   2.222   3.360
  594TIP3    H1 1788   2.218   2.201   3.267
  594TIP3    H2 1789   2.138   2.253   3.385
  595TIP3   OH2 1790   5.039   4.203   4.702
  595TIP3    H1 1791   4.979   4.276   4.687
  595TIP3    H2 1792   4.982   4.130   4.726
  596TIP3   OH2 1793   5.733   5.722   2.317
  596TIP3    H1 1794   5.756   5.633   2.343
  596TIP3    H2 1795   5.653   5.712   2.265
  597TIP3   OH2 1796   2.681   4.995   3.935
  597TIP3    H1 1797   2.617   5.064   3.917
  597TIP3    H2 1798   2.629   4.923   3.971
  598TIP3   OH2 1799   2.686   3.940   3.172
  598TIP3    H1 1800   2.752   3.872   3.181
  598TIP3    H2 1801   2.696   3.972   3.082
  599TIP3   OH2 1802   1.128   5.760   0.349
  599TIP3    H1 1803   1.112   5.820   0.422
  599TIP3    H2 1804   1.041   5.745   0.311
  600TIP3   OH2 1805   5.004   4.797   2.040
  600TIP3    H1 1806   4.984   4.737   1.968
  600TIP3    H2 1807   4.982   4.748   2.119
  601TIP3   OH2 1808   4.529   1.282   1.081
  601TIP3    H1 1809   4.564   1.225   1.150
  601TIP3    H2 1810   4.598   1.282   1.014
  602TIP3   OH2 1811   2.113   4.439   4.779
  602TIP3    H1 1812   2.163   4.426   4.860
  602TIP3    H2 1813   2.178   4.466   4.715
  603TIP3   OH2 1814   1.712   4.090   4.419
  603TIP3    H1 1815   1.687   4.129   4.502
  603TIP3    H2 1816   1.766   4.015   4.443
  604TIP3   OH2 1817   0.764   5.012   1.354
  604TIP3    H1 1818   0.842   4.959   1.336
  604TIP3    H2 1819   0.738   5.046   1.269
  605TIP3   OH2 1820   5.905   3.466   4.354
  605TIP3    H1 1821   5.819   3.474   4.312
  605TIP3    H2 1822   5.964   3.513   4.295
  606TIP3   OH2 1823   4.007   4.619   2.933
  606TIP3    H1 1824   3.968   4.619   2.846
  606TIP3    H2 1825   3.958   4.553   2.982
  607TIP3   OH2 1826   4.182   0.864   2.593
  607TIP3    H1 1827   4.261   0.915   2.611
  607TIP3    H2 1828   4.212   0.773   2.588
  608TIP3   OH2 1829   6.139   2.184   0.146
  608TIP3    H1 1830   6.141   2.091   0.168
  608TIP3    H2 1831   6.170   2.227   0.225
  609TIP3   OH2 1832   6.117   5.444   4.836
  609TIP3    H1 1833   6.187   5.391   4.873
  609TIP3    H2 1834   6.047   5.439   4.901
  610TIP3   OH2 1835   2.188   1.381   3.810
  610TIP3    H1 1836   2.122   1.379   3.740
  610TIP3    H2 1837   2.272   1.378   3.764
  611TIP3   OH2 1838   2.451   0.126   3.684
  611TIP3    H1 1839   2.492   0.154   3.766
  611TIP3    H2 1840   2.493   0.043   3.663
  612TIP3   OH2 1841   3.134   4.093   1.471
  612TIP3    H1 1842   3.219   4.055   1.490
  612TIP3    H2 1843   3.153   4.176   1.428
  613TIP3   OH2 1844   5.796   2.076   2.411
  613TIP3    H1 1845   5.731   2.141   2.439
  613TIP3    H2 1846   5.879   2.110   2.445
  614TIP3   OH2 1847   4.345   1.949   0.358
  614TIP3    H1 1848   4.405   2.010   0.400
  614TIP3    H2 1849   4.343   1.977   0.266
  615TIP3   OH2 1850   4.171   5.083   1.389
  615TIP3    H1 1851   4.215   5.023   1.450
  615TIP3    H2 1852   4.235   5.098   1.319
  616TIP3   OH2 1853   5.636   1.118   1.008
  616TIP3    H1 1854   5.576   1.163   1.068
  616TIP3    H2 1855   5.723   1.146   1.036
  617TIP3   OH2 1856   1.796   1.229   3.523
  617TIP3    H1 1857   1.869   1.266   3.573
  617TIP3    H2 1858   1.827   1.226   3.433
  618TIP3   OH2 1859   6.167   4.704   3.868
  618TIP3    H1 1860   6.108   4.745   3.931
  618TIP3    H2 1861   6.209   4.778   3.823
  619TIP3   OH2 1862   0.196   0.134   3.765
  619TIP3    H1 1863   0.263   0.123   3.697
  619TIP3    H2 1864   0.161   0.046   3.778
  620TIP3   OH2 1865   5.456   2.437   2.893
  620TIP3    H1 1866   5.408   2.379   2.834
  620TIP3    H2 1867   5.495   2.503   2.836
  621TIP3   OH2 1868   6.216   2.806   4.739
  621TIP3    H1 1869   6.169   2.748   4.679
  621TIP3    H2 1870   6.296   2.758   4.760
  622TIP3   OH2 1871   0.695   5.030   2.081
  622TIP3    H1 1872   0.744   5.004   2.159
  622TIP3    H2 1873   0.709   4.958   2.019
  623TIP3   OH2 1874   0.703   1.249   1.341
  623TIP3    H1 1875   0.748   1.179   1.293
  623TIP3    H2 1876   0.770   1.315   1.356
  624TIP3   OH2 1877   1.333   0.462   1.184
  624TIP3    H1 1878   1.271   0.521   1.142
  624TIP3    H2 1879   1.408   0.518   1.207
  625TIP3   OH2 1880   3.235   4.403   3.560
  625TIP3    H1 1881   3.171   4.420   3.629
  625TIP3    H2 1882   3.221   4.473   3.496
  626TIP3   OH2 1883   1.205   2.518   4.235
  626TIP3    H1 1884   1.158   2.514   4.152
  626TIP3    H2 1885   1.183   2.604   4.271
  627TIP3   OH2 1886   3.637   2.813   1.392
  627TIP3    H1 1887   3.637   2.784   1.301
  627TIP3    H2 1888   3.582   2.748   1.437
  628TIP3   OH2 1889   0.274   4.151   1.671
  628TIP3    H1 1890   0.274   4.241   1.638
  628TIP3    H2 1891   0.188   4.116   1.647
  629TIP3   OH2 1892   0.081   1.003   3.375
  629TIP3    H1 1893   0.122   0.982   3.459
  629TIP3    H2 1894  -0.003   0.956   3.377
  630TIP3   OH2 1895   3.980   1.595   3.884
  630TIP3    H1 1896   4.067   1.625   3.912
  630TIP3    H2 1897   3.971   1.627   3.794
  631TIP3   OH2 1898   0.071   1.995   2.706
  631TIP3    H1 1899   0.160   1.983   2.740
  631TIP3    H2 1900   0.037   1.906   2.694
  632TIP3   OH2 1901   0.056   1.139   4.589
  632TIP3    H1 1902  -0.006   1.066   4.596
  632TIP3    H2 1903   0.117   1.112   4.521
  633TIP3   OH2 1904   3.791   3.067   2.776
  633TIP3    H1 1905   3.862   3.074   2.712
  633TIP3    H2 1906   3.835   3.067   2.861
  634TIP3   OH2 1907   4.556   3.812   0.471
  634TIP3    H1 1908   4.552   3.820   0.376
  634TIP3    H2 1909   4.473   3.771   0.495
  635TIP3   OH2 1910   3.300   2.067   0.859
  635TIP3    H1 1911   3.304   2.088   0.952
  635TIP3    H2 1912   3.371   2.004   0.846
  636TIP3   OH2 1913   2.738   4.166   4.803
  636TIP3    H1 1914   2.769   4.197   4.718
  636TIP3    H2 1915   2.654   4.210   4.815
  637TIP3   OH2 1916   0.268   4.505   3.861
  637TIP3    H1 1917   0.207   4.565   3.904
  637TIP3    H2 1918   0.287   4.439   3.928
  638TIP3   OH2 1919   4.535   2.712   0.795
  638TIP3    H1 1920   4.482   2.751   0.726
  638TIP3    H2 1921   4.620   2.756   0.788
  639TIP3   OH2 1922   1.566   4.718   1.077
  639TIP3    H1 1923   1.504   4.647   1.091
  639TIP3    H2 1924   1.543   4.783   1.143
  640TIP3   OH2 1925   0.334   1.745   0.391
  640TIP3    H1 1926   0.394   1.785   0.329
  640TIP3    H2 1927   0.332   1.805   0.465
  641TIP3   OH2 1928   3.021   5.652   2.439
  641TIP3    H1 1929   3.033   5.560   2.461
  641TIP3    H2 1930   3.001   5.694   2.523
  642TIP3   OH2 1931   0.414   5.699   0.261
  642TIP3    H1 1932   0.470   5.728   0.333
  642TIP3    H2 1933   0.369   5.779   0.233
  643TIP3   OH2 1934   2.142   1.906   1.162
  643TIP3    H1 1935   2.230   1.878   1.188
  643TIP3    H2 1936   2.148   2.002   1.160
  644TIP3   OH2 1937   2.232   4.261   0.719
  644TIP3    H1 1938   2.213   4.235   0.629
  644TIP3    H2 1939   2.292   4.194   0.752
  645TIP3   OH2 1940   3.842   0.856   4.784
  645TIP3    H1 1941   3.762   0.827   4.827
  645TIP3    H2 1942   3.899   0.883   4.855
  646TIP3   OH2 1943   6.008   1.621   4.541
  646TIP3    H1 1944   5.996   1.569   4.462
  646TIP3    H2 1945   6.068   1.569   4.595
  647TIP3   OH2 1946   3.098   3.944   0.267
  647TIP3    H1 1947   3.075   3.965   0.357
  647TIP3    H2 1948   3.112   3.849   0.268
  648TIP3   OH2 1949   5.098   3.488   4.738
  648TIP3    H1 1950   5.036   3.537   4.685
  648TIP3    H2 1951   5.147   3.555   4.786
  649TIP3   OH2 1952   2.916   1.920   3.749
  649TIP3    H1 1953   2.947   2.001   3.790
  649TIP3    H2 1954   2.981   1.855   3.775
  650TIP3   OH2 1955   6.081   3.666   0.799
  650TIP3    H1 1956   6.045   3.630   0.718
  650TIP3    H2 1957   6.131   3.594   0.837
  651TIP3   OH2 1958   0.468   5.145   2.990
  651TIP3    H1 1959   0.542   5.200   3.018
  651TIP3    H2 1960   0.414   5.137   3.069
  652TIP3   OH2 1961   4.600   1.813   3.181
  652TIP3    H1 1962   4.594   1.736   3.237
  652TIP3    H2 1963   4.684   1.853   3.204
  653TIP3   OH2 1964   5.323   5.436   0.624
  653TIP3    H1 1965   5.228   5.431   0.608
  653TIP3    H2 1966   5.333   5.509   0.685
  654TIP3   OH2 1967   5.556   1.013   3.693
  654TIP3    H1 1968   5.541   1.007   3.788
  654TIP3    H2 1969   5.576   1.105   3.677
  655TIP3   OH2 1970   4.920   5.536   4.926
  655TIP3    H1 1971   4.929   5.445   4.955
  655TIP3    H2 1972   5.009   5.563   4.903
  656TIP3   OH2 1973   1.436  -0.024   4.829
  656TIP3    H1 1974   1.392  -0.097   4.785
  656TIP3    H2 1975   1.388   0.054   4.802
  657TIP3   OH2 1976   0.548   1.405   1.756
  657TIP3    H1 1977   0.495   1.477   1.723
  657TIP3    H2 1978   0.584   1.438   1.839
  658TIP3   OH2 1979   5.480   2.634   4.484
  658TIP3    H1 1980   5.491   2.539   4.485
  658TIP3    H2 1981   5.569   2.668   4.473
  659TIP3   OH2 1982   4.067   0.469   2.019
  659TIP3    H1 1983   4.007   0.516   1.960
  659TIP3    H2 1984   4.146   0.457   1.967
  660TIP3   OH2 1985   3.638   1.347   1.315
  660TIP3    H1 1986   3.721   1.340   1.269
  660TIP3    H2 1987   3.649   1.293   1.393
  661TIP3   OH2 1988   2.840   0.140   1.152
  661TIP3    H1 1989   2.933   0.145   1.176
  661TIP3    H2 1990   2.804   0.071   1.208
  662TIP3   OH2 1991   3.087   0.155   2.023
  662TIP3    H1 1992   3.182   0.159   2.012
  662TIP3    H2 1993   3.068   0.062   2.033
  663TIP3   OH2 1994   1.640   4.311   1.872
  663TIP3    H1 1995   1.721   4.355   1.846
  663TIP3    H2 1996   1.653   4.220   1.845
  664TIP3   OH2 1997   3.557   2.095   1.501
  664TIP3    H1 1998   3.531   2.142   1.580
  664TIP3    H2 1999   3.533   2.154   1.429
  665TIP3   OH2 2000   0.457   2.995   3.942
  665TIP3    H1 2001   0.395   3.043   3.887
  665TIP3    H2 2002   0.472   2.913   3.895
  666TIP3   OH2 2003   6.020   3.015   4.152
  666TIP3    H1 2004   6.107   3.055   4.164
  666TIP3    H2 2005   5.967   3.053   4.222
  667TIP3   OH2 2006   0.098   0.052   1.285
  667TIP3    H1 2007   0.092   0.092   1.371
  667TIP3    H2 2008   0.023  -0.007   1.280
  668TIP3   OH2 2009   1.044   2.495   4.741
  668TIP3    H1 2010   1.117   2.542   4.781
  668TIP3    H2 2011   0.968   2.520   4.793
  669TIP3   OH2 2012   0.505   0.573   0.259
  669TIP3    H1 2013   0.532   0.593   0.349
  669TIP3    H2 2014   0.496   0.478   0.258
  670TIP3   OH2 2015   1.811   5.244   0.406
  670TIP3    H1 2016   1.891   5.288   0.376
  670TIP3    H2 2017   1.839   5.155   0.427
  671TIP3   OH2 2018   1.341   0.280   4.946
  671TIP3    H1 2019   1.385   0.300   5.029
  671TIP3    H2 2020   1.408   0.293   4.880
  672TIP3   OH2 2021   2.212   3.455   0.293
  672TIP3    H1 2022   2.117   3.457   0.298
  672TIP3    H2 2023   2.239   3.547   0.302
  673TIP3   OH2 2024   4.720   5.770   3.207
  673TIP3    H1 2025   4.770   5.723   3.274
  673TIP3    H2 2026   4.629   5.755   3.231
  674TIP3   OH2 2027   6.323   5.789   1.344
  674TIP3    H1 2028   6.260   5.816   1.411
  674TIP3    H2 2029   6.406   5.785   1.392
  675TIP3   OH2 2030   3.476   2.956   0.360
  675TIP3    H1 2031   3.407   2.913   0.410
  675TIP3    H2 2032   3.549   2.964   0.421
  676TIP3   OH2 2033   5.477   1.297   2.007
  676TIP3    H1 2034   5.486   1.256   1.921
  676TIP3    H2 2035   5.382   1.301   2.022
  677TIP3   OH2 2036   5.621   1.687   0.707
  677TIP3    H1 2037   5.530   1.683   0.678
  677TIP3    H2 2038   5.665   1.618   0.658
  678TIP3   OH2 2039   0.128   5.100   4.171
  678TIP3    H1 2040   0.180   5.125   4.094
  678TIP3    H2 2041   0.037   5.106   4.142
  679TIP3   OH2 2042   5.709   0.864   1.117
  679TIP3    H1 2043   5.694   0.950   1.077
  679TIP3    H2 2044   5.683   0.801   1.050
  680TIP3   OH2 2045   5.208   3.584   2.586
  680TIP3    H1 2046   5.257   3.503   2.597
  680TIP3    H2 2047   5.141   3.581   2.654
  681TIP3   OH2 2048   0.821   2.865   1.620
  681TIP3    H1 2049   0.832   2.771   1.606
  681TIP3    H2 2050   0.907   2.902   1.603
  682TIP3   OH2 2051   5.103   0.155   0.565
  682TIP3    H1 2052   5.151   0.222   0.614
  682TIP3    H2 2053   5.128   0.073   0.608
  683TIP3   OH2 2054   0.516   1.843   3.878
  683TIP3    H1 2055   0.456   1.801   3.940
  683TIP3    H2 2056   0.592   1.867   3.931
  684TIP3   OH2 2057   1.117   4.584   2.282
  684TIP3    H1 2058   1.124   4.612   2.191
  684TIP3    H2 2059   1.159   4.654   2.332
  685TIP3   OH2 2060   3.437   2.604   4.942
  685TIP3    H1 2061   3.515   2.603   4.997
  685TIP3    H2 2062   3.454   2.537   4.876
  686TIP3   OH2 2063   3.399   1.692   0.907
  686TIP3    H1 2064   3.308   1.715   0.926
  686TIP3    H2 2065   3.450   1.765   0.942
  687TIP3   OH2 2066   4.443   2.656   2.121
  687TIP3    H1 2067   4.475   2.597   2.189
  687TIP3    H2 2068   4.522   2.680   2.072
  688TIP3   OH2 2069   5.284   0.450   0.411
  688TIP3    H1 2070   5.229   0.518   0.450
  688TIP3    H2 2071   5.313   0.487   0.328
  689TIP3   OH2 2072   2.415   2.109   0.608
  689TIP3    H1 2073   2.383   2.198   0.623
  689TIP3    H2 2074   2.448   2.110   0.518
  690TIP3   OH2 2075   5.898   4.704   0.641
  690TIP3    H1 2076   5.940   4.709   0.727
  690TIP3    H2 2077   5.968   4.676   0.582
  691TIP3   OH2 2078   1.218   5.760   0.839
  691TIP3    H1 2079   1.173   5.699   0.898
  691TIP3    H2 2080   1.270   5.705   0.782
  692TIP3   OH2 2081   0.005   2.073   4.066
  692TIP3    H1 2082  -0.029   2.063   3.977
  692TIP3    H2 2083  -0.058   2.130   4.110
  693TIP3   OH2 2084   1.606   3.493   2.036
  693TIP3    H1 2085   1.624   3.587   2.042
  693TIP3    H2 2086   1.574   3.469   2.123
  694TIP3   OH2 2087   1.734   3.086   3.123
  694TIP3    H1 2088   1.706   3.131   3.043
  694TIP3    H2 2089   1.652   3.057   3.164
  695TIP3   OH2 2090   3.284   2.650   4.235
  695TIP3    H1 2091   3.372   2.674   4.263
  695TIP3    H2 2092   3.226   2.709   4.285
  696TIP3   OH2 2093   1.447   3.010   0.602
  696TIP3    H1 2094   1.378   2.944   0.605
  696TIP3    H2 2095   1.521   2.970   0.649
  697TIP3   OH2 2096   0.855   3.756   3.260
  697TIP3    H1 2097   0.839   3.667   3.230
  697TIP3    H2 2098   0.936   3.782   3.217
  698TIP3   OH2 2099   3.858   1.734   4.116
  698TIP3    H1 2100   3.814   1.656   4.150
  698TIP3    H2 2101   3.921   1.699   4.052
  699TIP3   OH2 2102   2.180   2.760   2.807
  699TIP3    H1 2103   2.131   2.685   2.840
  699TIP3    H2 2104   2.272   2.732   2.809
  700TIP3   OH2 2105   0.611   3.262   3.486
  700TIP3    H1 2106   0.560   3.188   3.452
  700TIP3    H2 2107   0.690   3.222   3.523
  701TIP3   OH2 2108   2.160   5.915   1.377
  701TIP3    H1 2109   2.183   5.962   1.297
  701TIP3    H2 2110   2.101   5.845   1.348
  702TIP3   OH2 2111   1.015   2.363   1.190
  702TIP3    H1 2112   0.943   2.311   1.224
  702TIP3    H2 2113   1.004   2.360   1.095
  703TIP3   OH2 2114   3.671   2.679   4.215
  703TIP3    H1 2115   3.681   2.691   4.120
  703TIP3    H2 2116   3.746   2.625   4.240
  704TIP3   OH2 2117   1.643   2.183   0.051
  704TIP3    H1 2118   1.579   2.224   0.110
  704TIP3    H2 2119   1.600   2.103   0.021
  705TIP3   OH2 2120   5.677   3.247   4.807
  705TIP3    H1 2121   5.597   3.195   4.805
  705TIP3    H2 2122   5.748   3.183   4.814
  706TIP3   OH2 2123   0.652   1.152   3.595
  706TIP3    H1 2124   0.731   1.201   3.618
  706TIP3    H2 2125   0.679   1.060   3.603
  707TIP3   OH2 2126   4.304   0.663   1.633
  707TIP3    H1 2127   4.357   0.636   1.558
  707TIP3    H2 2128   4.312   0.591   1.695
  708TIP3   OH2 2129   1.393   5.394   0.350
  708TIP3    H1 2130   1.417   5.485   0.332
  708TIP3    H2 2131   1.444   5.343   0.287
  709TIP3   OH2 2132   3.422   2.821   1.666
  709TIP3    H1 2133   3.444   2.889   1.602
  709TIP3    H2 2134   3.366   2.760   1.619
  710TIP3   OH2 2135   1.327   2.130   0.294
  710TIP3    H1 2136   1.243   2.086   0.308
  710TIP3    H2 2137   1.348   2.169   0.379
  711TIP3   OH2 2138   5.370   0.492   1.547
  711TIP3    H1 2139   5.445   0.445   1.510
  711TIP3    H2 2140   5.296   0.465   1.494
  712TIP3   OH2 2141   2.663   2.858   3.393
  712TIP3    H1 2142   2.665   2.934   3.451
  712TIP3    H2 2143   2.646   2.895   3.306
  713TIP3   OH2 2144   1.586   1.236   4.062
  713TIP3    H1 2145   1.536   1.209   4.140
  713TIP3    H2 2146   1.524   1.225   3.990
  714TIP3   OH2 2147   4.032   4.586   1.366
  714TIP3    H1 2148   4.068   4.629   1.288
  714TIP3    H2 2149   3.942   4.618   1.371
  715TIP3   OH2 2150   0.151   3.738   1.516
  715TIP3    H1 2151   0.114   3.799   1.579
  715TIP3    H2 2152   0.159   3.790   1.435
  716TIP3   OH2 2153   1.571   3.713   1.465
  716TIP3    H1 2154   1.524   3.759   1.534
  716TIP3    H2 2155   1.635   3.776   1.432
  717TIP3   OH2 2156   0.134   5.509   4.771
  717TIP3    H1 2157   0.104   5.593   4.735
  717TIP3    H2 2158   0.179   5.467   4.698
  718TIP3   OH2 2159   2.823   2.990   3.883
  718TIP3    H1 2160   2.763   2.955   3.949
  718TIP3    H2 2161   2.767   3.007   3.807
  719TIP3   OH2 2162   0.424   3.854   3.358
  719TIP3    H1 2163   0.405   3.853   3.265
  719TIP3    H2 2164   0.365   3.788   3.395
  720TIP3   OH2 2165   1.365   1.079   3.800
  720TIP3    H1 2166   1.289   1.127   3.769
  720TIP3    H2 2167   1.440   1.119   3.756
  721TIP3   OH2 2168   2.958   0.762   0.370
  721TIP3    H1 2169   3.025   0.716   0.320
  721TIP3    H2 2170   2.981   0.747   0.462
  722TIP3   OH2 2171   4.670   2.612   3.975
  722TIP3    H1 2172   4.636   2.550   4.039
  722TIP3    H2 2173   4.723   2.673   4.027
  723TIP3   OH2 2174   6.193   3.825   3.479
  723TIP3    H1 2175   6.127   3.889   3.454
  723TIP3    H2 2176   6.262   3.877   3.521
  724TIP3   OH2 2177   2.225   1.070   0.100
  724TIP3    H1 2178   2.153   1.101   0.045
  724TIP3    H2 2179   2.215   1.118   0.182
  725TIP3   OH2 2180   1.099   0.942   5.127
  725TIP3    H1 2181   1.069   0.852   5.113
  725TIP3    H2 2182   1.035   0.995   5.080
  726TIP3   OH2 2183   2.894   5.640   3.804
  726TIP3    H1 2184   2.982   5.604   3.799
  726TIP3    H2 2185   2.906   5.729   3.839
  727TIP3   OH2 2186   0.324   4.020   4.254
  727TIP3    H1 2187   0.268   4.093   4.229
  727TIP3    H2 2188   0.357   3.985   4.171
  728TIP3   OH2 2189   4.715   0.494   2.095
  728TIP3    H1 2190   4.636   0.546   2.082
  728TIP3    H2 2191   4.688   0.404   2.078
  729TIP3   OH2 2192   3.870   4.332   4.883
  729TIP3    H1 2193   3.882   4.414   4.834
  729TIP3    H2 2194   3.933   4.272   4.843
  730TIP3   OH2 2195   1.811   0.138   0.102
  730TIP3    H1 2196   1.794   0.065   0.161
  730TIP3    H2 2197   1.873   0.194   0.148
  731TIP3   OH2 2198   1.748   2.143   1.469
  731TIP3    H1 2199   1.745   2.212   1.403
  731TIP3    H2 2200   1.842   2.126   1.482
  732TIP3   OH2 2201   5.874   2.071   2.149
  732TIP3    H1 2202   5.792   2.092   2.193
  732TIP3    H2 2203   5.925   2.024   2.214
  733TIP3   OH2 2204   5.014   4.219   1.325
  733TIP3    H1 2205   5.075   4.164   1.374
  733TIP3    H2 2206   5.015   4.303   1.370
  734TIP3   OH2 2207   1.349   0.787   3.266
  734TIP3    H1 2208   1.338   0.814   3.175
  734TIP3    H2 2209   1.423   0.839   3.298
  735TIP3   OH2 2210   0.202   4.669   0.263
  735TIP3    H1 2211   0.280   4.687   0.209
  735TIP3    H2 2212   0.130   4.708   0.214
  736TIP3   OH2 2213   3.899   5.977   2.298
  736TIP3    H1 2214   3.877   6.062   2.336
  736TIP3    H2 2215   3.814   5.938   2.278
  737TIP3   OH2 2216   0.532   0.363   3.453
  737TIP3    H1 2217   0.450   0.411   3.466
  737TIP3    H2 2218   0.542   0.357   3.358
  738TIP3   OH2 2219   5.527   5.715   4.979
  738TIP3    H1 2220   5.515   5.728   4.885
  738TIP3    H2 2221   5.495   5.627   4.996
  739TIP3   OH2 2222   5.927   0.732   3.358
  739TIP3    H1 2223   5.849   0.774   3.396
  739TIP3    H2 2224   5.933   0.768   3.270
  740TIP3   OH2 2225   4.069   5.641   4.033
  740TIP3    H1 2226   4.097   5.731   4.017
  740TIP3    H2 2227   3.983   5.635   3.993
  741TIP3   OH2 2228   2.535   4.139   2.656
  741TIP3    H1 2229   2.613   4.195   2.658
  741TIP3    H2 2230   2.550   4.074   2.724
  742TIP3   OH2 2231  -0.012   4.647   0.063
  742TIP3    H1 2232   0.005   4.562   0.022
  742TIP3    H2 2233  -0.057   4.698  -0.005
  743TIP3   OH2 2234   5.120   0.833   3.281
  743TIP3    H1 2235   5.210   0.858   3.263
  743TIP3    H2 2236   5.091   0.789   3.201
  744TIP3   OH2 2237   4.020   4.286   0.831
  744TIP3    H1 2238   3.982   4.276   0.744
  744TIP3    H2 2239   4.108   4.249   0.824
  745TIP3   OH2 2240   1.712   0.635   0.581
  745TIP3    H1 2241   1.797   0.612   0.616
  745TIP3    H2 2242   1.649   0.601   0.644
  746TIP3   OH2 2243   5.688   5.322   0.601
  746TIP3    H1 2244   5.614   5.276   0.561
  746TIP3    H2 2245   5.677   5.413   0.574
  747TIP3   OH2 2246   1.313   0.602   2.637
  747TIP3    H1 2247   1.341   0.580   2.548
  747TIP3    H2 2248   1.384   0.572   2.693
  748TIP3   OH2 2249   3.392   2.723   3.159
  748TIP3    H1 2250   3.426   2.761   3.240
  748TIP3    H2 2251   3.437   2.639   3.152
  749TIP3   OH2 2252   0.940   4.684   0.620
  749TIP3    H1 2253   0.941   4.596   0.657
  749TIP3    H2 2254   0.848   4.711   0.625
  750TIP3   OH2 2255   4.929   1.805   3.667
  750TIP3    H1 2256   4.943   1.847   3.582
  750TIP3    H2 2257   5.010   1.757   3.684
  751TIP3   OH2 2258   3.097   0.399   1.505
  751TIP3    H1 2259   3.192   0.390   1.511
  751TIP3    H2 2260   3.067   0.401   1.595
  752TIP3   OH2 2261   5.044   5.249   4.483
  752TIP3    H1 2262   4.994   5.167   4.482
  752TIP3    H2 2263   5.052   5.274   4.391
  753TIP3   OH2 2264   2.173   2.422   2.569
  753TIP3    H1 2265   2.172   2.517   2.557
  753TIP3    H2 2266   2.224   2.408   2.649
  754TIP3   OH2 2267   2.369   4.449   4.638
  754TIP3    H1 2268   2.407   4.363   4.657
  754TIP3    H2 2269   2.429   4.487   4.573
  755TIP3   OH2 2270   0.657   2.442   1.738
  755TIP3    H1 2271   0.620   2.384   1.671
  755TIP3    H2 2272   0.651   2.392   1.819
  756TIP3   OH2 2273   2.663   5.390   3.063
  756TIP3    H1 2274   2.688   5.304   3.029
  756TIP3    H2 2275   2.743   5.441   3.060
  757TIP3   OH2 2276   1.749   4.030   1.822
  757TIP3    H1 2277   1.825   4.018   1.765
  757TIP3    H2 2278   1.743   3.949   1.872
  758TIP3   OH2 2279   0.335   5.389   0.564
  758TIP3    H1 2280   0.305   5.369   0.475
  758TIP3    H2 2281   0.261   5.364   0.620
  759TIP3   OH2 2282   4.193   4.221   1.993
  759TIP3    H1 2283   4.223   4.256   2.076
  759TIP3    H2 2284   4.181   4.298   1.937
  760TIP3   OH2 2285   1.920   3.978   4.203
  760TIP3    H1 2286   1.965   4.030   4.270
  760TIP3    H2 2287   1.868   3.915   4.252
  761TIP3   OH2 2288   5.544   2.737   3.578
  761TIP3    H1 2289   5.547   2.833   3.576
  761TIP3    H2 2290   5.599   2.710   3.504
  762TIP3   OH2 2291   5.561   1.798   5.044
  762TIP3    H1 2292   5.594   1.741   5.113
  762TIP3    H2 2293   5.640   1.824   4.995
  763TIP3   OH2 2294   5.937   5.463   5.018
  763TIP3    H1 2295   5.902   5.552   5.022
  763TIP3    H2 2296   5.863   5.407   5.041
  764TIP3   OH2 2297   6.136   0.949   4.394
  764TIP3    H1 2298   6.062   0.889   4.385
  764TIP3    H2 2299   6.168   0.933   4.483
  765TIP3   OH2 2300   2.885   5.301   3.759
  765TIP3    H1 2301   2.974   5.336   3.753
  765TIP3    H2 2302   2.868   5.264   3.672
  766TIP3   OH2 2303   4.564   2.512   2.345
  766TIP3    H1 2304   4.638   2.560   2.383
  766TIP3    H2 2305   4.586   2.420   2.358
  767TIP3   OH2 2306   4.233   2.333   4.836
  767TIP3    H1 2307   4.293   2.364   4.769
  767TIP3    H2 2308   4.277   2.352   4.919
  768TIP3   OH2 2309   3.951   5.148   5.013
  768TIP3    H1 2310   3.961   5.053   5.018
  768TIP3    H2 2311   3.894   5.170   5.086
  769TIP3   OH2 2312   2.689   2.561   2.290
  769TIP3    H1 2313   2.668   2.491   2.351
  769TIP3    H2 2314   2.604   2.593   2.259
  770TIP3   OH2 2315   0.599   2.938   1.752
  770TIP3    H1 2316   0.676   2.933   1.695
  770TIP3    H2 2317   0.575   2.847   1.767
  771TIP3   OH2 2318   0.291   4.445   4.158
  771TIP3    H1 2319   0.356   4.511   4.183
  771TIP3    H2 2320   0.256   4.413   4.240
  772TIP3   OH2 2321   3.745   2.542   3.017
  772TIP3    H1 2322   3.833   2.555   3.052
  772TIP3    H2 2323   3.686   2.561   3.089
  773TIP3   OH2 2324   1.250   5.070   1.004
  773TIP3    H1 2325   1.308   5.024   1.064
  773TIP3    H2 2326   1.162   5.046   1.033
  774TIP3   OH2 2327   0.335   1.085   0.529
  774TIP3    H1 2328   0.366   1.018   0.469
  774TIP3    H2 2329   0.408   1.099   0.590
  775TIP3   OH2 2330   6.341   2.583   1.086
  775TIP3    H1 2331   6.401   2.631   1.029
  775TIP3    H2 2332   6.267   2.561   1.029
  776TIP3   OH2 2333   5.033   2.293   5.007
  776TIP3    H1 2334   5.123   2.289   4.975
  776TIP3    H2 2335   4.998   2.206   4.989
  777TIP3   OH2 2336   3.039   5.838   1.807
  777TIP3    H1 2337   3.070   5.900   1.872
  777TIP3    H2 2338   2.959   5.877   1.773
  778TIP3   OH2 2339   4.877   4.877   2.497
  778TIP3    H1 2340   4.926   4.818   2.440
  778TIP3    H2 2341   4.928   4.881   2.577
  779TIP3   OH2 2342   3.588   0.579   0.215
  779TIP3    H1 2343   3.641   0.632   0.155
  779TIP3    H2 2344   3.625   0.491   0.208
  780TIP3   OH2 2345   5.276   2.940   0.364
  780TIP3    H1 2346   5.181   2.937   0.355
  780TIP3    H2 2347   5.309   2.961   0.277
  781TIP3   OH2 2348   1.222   3.696   3.870
  781TIP3    H1 2349   1.221   3.610   3.912
  781TIP3    H2 2350   1.181   3.681   3.785
  782TIP3   OH2 2351   3.338   1.462   2.543
  782TIP3    H1 2352   3.281   1.394   2.507
  782TIP3    H2 2353   3.415   1.462   2.486
  783TIP3   OH2 2354   2.011   4.567   4.022
  783TIP3    H1 2355   1.946   4.616   3.972
  783TIP3    H2 2356   2.068   4.634   4.060
  784TIP3   OH2 2357   2.684   3.260   2.011
  784TIP3    H1 2358   2.730   3.344   2.002
  784TIP3    H2 2359   2.751   3.200   2.044
  785TIP3   OH2 2360   6.153   0.583   2.774
  785TIP3    H1 2361   6.149   0.670   2.816
  785TIP3    H2 2362   6.062   0.563   2.754
  786TIP3   OH2 2363   0.252   4.197   3.172
  786TIP3    H1 2364   0.211   4.194   3.086
  786TIP3    H2 2365   0.343   4.169   3.157
  787TIP3   OH2 2366   0.043   1.057   2.494
  787TIP3    H1 2367  -0.011   1.016   2.426
  787TIP3    H2 2368   0.117   0.997   2.504
  788TIP3   OH2 2369   3.788   0.414   0.087
  788TIP3    H1 2370   3.866   0.392   0.138
  788TIP3    H2 2371   3.814   0.399  -0.004
  789TIP3   OH2 2372   2.749   0.712   3.964
  789TIP3    H1 2373   2.728   0.804   3.949
  789TIP3    H2 2374   2.787   0.711   4.052
  790TIP3   OH2 2375   0.189   3.488   2.304
  790TIP3    H1 2376   0.176   3.554   2.372
  790TIP3    H2 2377   0.161   3.406   2.344
  791TIP3   OH2 2378   2.118   0.524   0.842
  791TIP3    H1 2379   2.162   0.506   0.758
  791TIP3    H2 2380   2.161   0.603   0.874
  792TIP3   OH2 2381   2.695   2.338   1.273
  792TIP3    H1 2382   2.665   2.426   1.248
  792TIP3    H2 2383   2.702   2.342   1.369
  793TIP3   OH2 2384   3.541   3.698   0.680
  793TIP3    H1 2385   3.605   3.646   0.727
  793TIP3    H2 2386   3.493   3.746   0.748
  794TIP3   OH2 2387   3.999   5.683   4.729
  794TIP3    H1 2388   3.929   5.622   4.750
  794TIP3    H2 2389   3.955   5.767   4.718
  795TIP3   OH2 2390   3.179   3.403   4.355
  795TIP3    H1 2391   3.142   3.330   4.404
  795TIP3    H2 2392   3.175   3.477   4.415
  796TIP3   OH2 2393   2.432   5.055   3.498
  796TIP3    H1 2394   2.388   5.089   3.420
  796TIP3    H2 2395   2.452   4.964   3.476
  797TIP3   OH2 2396   6.112   4.192   4.314
  797TIP3    H1 2397   6.115   4.266   4.374
  797TIP3    H2 2398   6.089   4.230   4.229
  798TIP3   OH2 2399   4.789   2.891   0.453
  798TIP3    H1 2400   4.855   2.930   0.511
  798TIP3    H2 2401   4.839   2.862   0.376
  799TIP3   OH2 2402   5.581   2.823   2.669
  799TIP3    H1 2403   5.647   2.856   2.609
  799TIP3    H2 2404   5.625   2.818   2.754
  800TIP3   OH2 2405   5.332   0.498   0.871
  800TIP3    H1 2406   5.241   0.470   0.862
  800TIP3    H2 2407   5.329   0.593   0.866
  801TIP3   OH2 2408   1.383   4.500   1.310
  801TIP3    H1 2409   1.447   4.429   1.308
  801TIP3    H2 2410   1.321   4.475   1.378
  802TIP3   OH2 2411   3.106   0.724   4.680
  802TIP3    H1 2412   3.048   0.749   4.752
  802TIP3    H2 2413   3.107   0.628   4.682
  803TIP3   OH2 2414   1.268   5.151   4.470
  803TIP3    H1 2415   1.239   5.096   4.398
  803TIP3    H2 2416   1.362   5.136   4.475
  804TIP3   OH2 2417   3.612   0.858   0.216
  804TIP3    H1 2418   3.565   0.776   0.224
  804TIP3    H2 2419   3.592   0.905   0.297
  805TIP3   OH2 2420   1.084   0.280   0.956
  805TIP3    H1 2421   1.133   0.200   0.939
  805TIP3    H2 2422   1.022   0.257   1.025
  806TIP3   OH2 2423   2.969   5.558   2.067
  806TIP3    H1 2424   2.974   5.645   2.106
  806TIP3    H2 2425   3.007   5.500   2.132
  807TIP3   OH2 2426   5.612   4.865   1.239
  807TIP3    H1 2427   5.524   4.829   1.232
  807TIP3    H2 2428   5.618   4.896   1.330
  808TIP3   OH2 2429   0.368   3.929   2.425
  808TIP3    H1 2430   0.371   4.024   2.412
  808TIP3    H2 2431   0.451   3.897   2.392
  809TIP3   OH2 2432   0.763   1.352   0.151
  809TIP3    H1 2433   0.843   1.404   0.160
  809TIP3    H2 2434   0.775   1.303   0.070
  810TIP3   OH2 2435   2.192   4.183   0.072
  810TIP3    H1 2436   2.220   4.099   0.036
  810TIP3    H2 2437   2.272   4.236   0.076
  811TIP3   OH2 2438   0.192   0.323   1.243
  811TIP3    H1 2439   0.258   0.315   1.312
  811TIP3    H2 2440   0.168   0.233   1.222
  812TIP3   OH2 2441   1.899   5.751   2.071
  812TIP3    H1 2442   1.812   5.759   2.031
  812TIP3    H2 2443   1.959   5.747   1.996
  813TIP3   OH2 2444   2.168   0.176   3.694
  813TIP3    H1 2445   2.116   0.104   3.729
  813TIP3    H2 2446   2.259   0.148   3.702
  814TIP3   OH2 2447   6.279   0.529   0.301
  814TIP3    H1 2448   6.303   0.590   0.231
  814TIP3    H2 2449   6.184   0.517   0.290
  815TIP3   OH2 2450   1.821   4.404   2.887
  815TIP3    H1 2451   1.915   4.423   2.884
  815TIP3    H2 2452   1.779   4.490   2.890
  816TIP3   OH2 2453   4.493   5.170   4.692
  816TIP3    H1 2454   4.400   5.174   4.668
  816TIP3    H2 2455   4.533   5.243   4.647
  817TIP3   OH2 2456   4.836   2.505   0.336
  817TIP3    H1 2457   4.765   2.447   0.364
  817TIP3    H2 2458   4.794   2.566   0.275
  818TIP3   OH2 2459   4.637   5.882   0.870
  818TIP3    H1 2460   4.563   5.824   0.887
  818TIP3    H2 2461   4.603   5.970   0.888
  819TIP3   OH2 2462   5.032   0.356   2.020
  819TIP3    H1 2463   5.010   0.444   2.050
  819TIP3    H2 2464   5.113   0.367   1.971
  820TIP3   OH2 2465   1.243   1.370   1.277
  820TIP3    H1 2466   1.275   1.311   1.209
  820TIP3    H2 2467   1.186   1.432   1.231
  821TIP3   OH2 2468   4.753   4.824   0.166
  821TIP3    H1 2469   4.685   4.778   0.117
  821TIP3    H2 2470   4.755   4.912   0.127
  822TIP3   OH2 2471   1.520   3.835   1.721
  822TIP3    H1 2472   1.442   3.866   1.766
  822TIP3    H2 2473   1.589   3.839   1.788
  823TIP3   OH2 2474   6.178   1.902   4.898
  823TIP3    H1 2475   6.228   1.860   4.828
  823TIP3    H2 2476   6.116   1.959   4.852
  824TIP3   OH2 2477   6.188   5.905   4.918
  824TIP3    H1 2478   6.165   5.988   4.877
  824TIP3    H2 2479   6.187   5.841   4.847
  825TIP3   OH2 2480   3.551   2.398   4.758
  825TIP3    H1 2481   3.645   2.387   4.744
  825TIP3    H2 2482   3.525   2.321   4.809
  826TIP3   OH2 2483   5.169   2.027   4.551
  826TIP3    H1 2484   5.208   1.986   4.474
  826TIP3    H2 2485   5.195   1.971   4.624
  827TIP3   OH2 2486   0.953   0.282   2.568
  827TIP3    H1 2487   0.951   0.257   2.660
  827TIP3    H2 2488   0.980   0.203   2.522
  828TIP3   OH2 2489   3.631   3.132   5.000
  828TIP3    H1 2490   3.642   3.112   5.094
  828TIP3    H2 2491   3.721   3.139   4.967
  829TIP3   OH2 2492   4.016   2.815   2.795
  829TIP3    H1 2493   4.068   2.870   2.853
  829TIP3    H2 2494   4.079   2.779   2.733
  830TIP3   OH2 2495   3.567   3.834   0.964
  830TIP3    H1 2496   3.613   3.807   1.044
  830TIP3    H2 2497   3.571   3.929   0.965
  831TIP3   OH2 2498   1.574   5.621   0.887
  831TIP3    H1 2499   1.654   5.591   0.930
  831TIP3    H2 2500   1.539   5.543   0.844
  832TIP3   OH2 2501   4.862   0.016   0.603
  832TIP3    H1 2502   4.944   0.060   0.582
  832TIP3    H2 2503   4.799   0.051   0.539
  833TIP3   OH2 2504   1.743   2.945   0.299
  833TIP3    H1 2505   1.742   2.879   0.369
  833TIP3    H2 2506   1.679   3.011   0.327
  834TIP3   OH2 2507   2.740   0.807   0.771
  834TIP3    H1 2508   2.667   0.811   0.709
  834TIP3    H2 2509   2.815   0.781   0.718
  835TIP3   OH2 2510   5.512   4.316   4.610
  835TIP3    H1 2511   5.434   4.262   4.597
  835TIP3    H2 2512   5.532   4.307   4.703
  836TIP3   OH2 2513   6.292   5.501   1.735
  836TIP3    H1 2514   6.340   5.494   1.652
  836TIP3    H2 2515   6.250   5.586   1.732
  837TIP3   OH2 2516   1.409   1.447   5.132
  837TIP3    H1 2517   1.360   1.438   5.050
  837TIP3    H2 2518   1.351   1.410   5.199
  838TIP3   OH2 2519   1.754   0.634   3.461
  838TIP3    H1 2520   1.747   0.677   3.375
  838TIP3    H2 2521   1.674   0.660   3.507
  839TIP3   OH2 2522   2.679   4.556   3.889
  839TIP3    H1 2523   2.748   4.555   3.956
  839TIP3    H2 2524   2.607   4.603   3.930
  840TIP3   OH2 2525   1.111   4.375   3.523
  840TIP3    H1 2526   1.087   4.402   3.612
  840TIP3    H2 2527   1.033   4.330   3.490
  841TIP3   OH2 2528   3.196   5.394   4.116
  841TIP3    H1 2529   3.147   5.395   4.034
  841TIP3    H2 2530   3.129   5.375   4.183
  842TIP3   OH2 2531   5.316   4.920   2.557
  842TIP3    H1 2532   5.233   4.919   2.603
  842TIP3    H2 2533   5.337   5.013   2.547
  843TIP3   OH2 2534   0.860   3.262   0.962
  843TIP3    H1 2535   0.868   3.205   1.038
  843TIP3    H2 2536   0.765   3.275   0.952
  844TIP3   OH2 2537   4.936   2.146   4.537
  844TIP3    H1 2538   4.941   2.154   4.442
  844TIP3    H2 2539   5.006   2.086   4.560
  845TIP3   OH2 2540   2.206   5.425   4.478
  845TIP3    H1 2541   2.172   5.442   4.390
  845TIP3    H2 2542   2.221   5.512   4.515
  846TIP3   OH2 2543   0.160   2.667   4.692
  846TIP3    H1 2544   0.187   2.650   4.602
  846TIP3    H2 2545   0.154   2.580   4.731
  847TIP3   OH2 2546   4.358   2.225   4.123
  847TIP3    H1 2547   4.377   2.216   4.029
  847TIP3    H2 2548   4.343   2.136   4.153
  848TIP3   OH2 2549   1.050   2.671   0.485
  848TIP3    H1 2550   1.065   2.623   0.566
  848TIP3    H2 2551   0.969   2.721   0.501
  849TIP3   OH2 2552   0.110   3.799   5.120
  849TIP3    H1 2553   0.036   3.810   5.179
  849TIP3    H2 2554   0.073   3.755   5.043
  850TIP3   OH2 2555   1.148   4.382   0.730
  850TIP3    H1 2556   1.066   4.362   0.774
  850TIP3    H2 2557   1.194   4.441   0.790
  851TIP3   OH2 2558   2.287   4.229   2.620
  851TIP3    H1 2559   2.225   4.180   2.674
  851TIP3    H2 2560   2.373   4.197   2.647
  852TIP3   OH2 2561   0.359   1.137   4.798
  852TIP3    H1 2562   0.299   1.102   4.732
  852TIP3    H2 2563   0.302   1.164   4.870
  853TIP3   OH2 2564   4.353   0.121   4.088
  853TIP3    H1 2565   4.360   0.085   4.177
  853TIP3    H2 2566   4.333   0.045   4.033
  854TIP3   OH2 2567   3.090   3.595   2.429
  854TIP3    H1 2568   3.173   3.549   2.419
  854TIP3    H2 2569   3.041   3.574   2.349
  855TIP3   OH2 2570   2.891   5.816   2.095
  855TIP3    H1 2571   2.961   5.881   2.097
  855TIP3    H2 2572   2.849   5.829   2.011
  856TIP3   OH2 2573   1.899   5.926   0.572
  856TIP3    H1 2574   1.916   5.984   0.497
  856TIP3    H2 2575   1.901   5.984   0.648
  857TIP3   OH2 2576   4.005   3.707   4.530
  857TIP3    H1 2577   3.949   3.715   4.607
  857TIP3    H2 2578   4.040   3.795   4.517
  858TIP3   OH2 2579   2.565   5.887   2.976
  858TIP3    H1 2580   2.507   5.858   2.905
  858TIP3    H2 2581   2.508   5.898   3.051
  859TIP3   OH2 2582   1.515   0.904   0.179
  859TIP3    H1 2583   1.430   0.861   0.172
  859TIP3    H2 2584   1.576   0.833   0.201
  860TIP3   OH2 2585   6.013   5.888   0.288
  860TIP3    H1 2586   6.053   5.802   0.281
  860TIP3    H2 2587   5.962   5.884   0.370
  861TIP3   OH2 2588   2.940   5.090   1.408
  861TIP3    H1 2589   2.979   5.058   1.489
  861TIP3    H2 2590   2.881   5.160   1.436
  862TIP3   OH2 2591   2.804   3.474   0.213
  862TIP3    H1 2592   2.755   3.396   0.239
  862TIP3    H2 2593   2.896   3.447   0.216
  863TIP3   OH2 2594   1.470   3.855   0.332
  863TIP3    H1 2595   1.522   3.931   0.360
  863TIP3    H2 2596   1.388   3.864   0.380
  864TIP3   OH2 2597   3.235   3.304   1.505
  864TIP3    H1 2598   3.246   3.262   1.590
  864TIP3    H2 2599   3.304   3.266   1.451
  865TIP3   OH2 2600   4.251   0.593   2.576
  865TIP3    H1 2601   4.239   0.531   2.504
  865TIP3    H2 2602   4.321   0.554   2.629
  866TIP3   OH2 2603   5.473   4.688   2.136
  866TIP3    H1 2604   5.423   4.650   2.064
  866TIP3    H2 2605   5.497   4.614   2.191
  867TIP3   OH2 2606   0.324   2.214   3.725
  867TIP3    H1 2607   0.332   2.234   3.632
  867TIP3    H2 2608   0.403   2.163   3.745
  868TIP3   OH2 2609   2.292   0.432   0.500
  868TIP3    H1 2610   2.355   0.398   0.437
  868TIP3    H2 2611   2.337   0.426   0.584
  869TIP3   OH2 2612   0.246   1.881   1.221
  869TIP3    H1 2613   0.282   1.907   1.306
  869TIP3    H2 2614   0.310   1.818   1.187
  870TIP3   OH2 2615   2.107   3.861   3.162
  870TIP3    H1 2616   2.184   3.891   3.211
  870TIP3    H2 2617   2.037   3.920   3.190
  871TIP3   OH2 2618   6.228  -0.018   2.759
  871TIP3    H1 2619   6.180   0.032   2.825
  871TIP3    H2 2620   6.160  -0.061   2.707
  872TIP3   OH2 2621   2.129   0.343   2.116
  872TIP3    H1 2622   2.041   0.337   2.154
  872TIP3    H2 2623   2.124   0.418   2.056
  873TIP3   OH2 2624   4.977   2.064   2.387
  873TIP3    H1 2625   5.048   2.120   2.355
  873TIP3    H2 2626   5.015   1.977   2.393
  874TIP3   OH2 2627   3.215   0.157   1.717
  874TIP3    H1 2628   3.234   0.227   1.655
  874TIP3    H2 2629   3.254   0.186   1.799
  875TIP3   OH2 2630   0.333   4.279   0.397
  875TIP3    H1 2631   0.415   4.280   0.348
  875TIP3    H2 2632   0.268   4.249   0.334
  876TIP3   OH2 2633   0.220   2.488   1.232
  876TIP3    H1 2634   0.157   2.523   1.169
  876TIP3    H2 2635   0.166   2.462   1.308
  877TIP3   OH2 2636   0.698   4.445   1.922
  877TIP3    H1 2637   0.755   4.369   1.911
  877TIP3    H2 2638   0.732   4.510   1.861
  878TIP3   OH2 2639   3.756   4.583   0.062
  878TIP3    H1 2640   3.801   4.632  -0.008
  878TIP3    H2 2641   3.683   4.541   0.017
  879TIP3   OH2 2642   3.721   1.318   3.236
  879TIP3    H1 2643   3.771   1.317   3.155
  879TIP3    H2 2644   3.780   1.278   3.301
  880TIP3   OH2 2645   6.156   1.488   4.760
  880TIP3    H1 2646   6.219   1.419   4.743
  880TIP3    H2 2647   6.105   1.457   4.835
  881TIP3   OH2 2648   0.987   1.231   1.819
  881TIP3    H1 2649   0.922   1.263   1.756
  881TIP3    H2 2650   1.071   1.263   1.785
  882TIP3   OH2 2651   0.360   0.981   2.341
  882TIP3    H1 2652   0.319   1.063   2.314
  882TIP3    H2 2653   0.308   0.951   2.416
  883TIP3   OH2 2654   3.780   0.349   2.026
  883TIP3    H1 2655   3.740   0.358   2.112
  883TIP3    H2 2656   3.867   0.314   2.043
  884TIP3   OH2 2657   4.076   1.805   4.646
  884TIP3    H1 2658   4.115   1.876   4.596
  884TIP3    H2 2659   4.055   1.738   4.581
  885TIP3   OH2 2660   2.875   0.561   4.867
  885TIP3    H1 2661   2.870   0.527   4.956
  885TIP3    H2 2662   2.962   0.535   4.836
  886TIP3   OH2 2663   3.643   0.063   0.738
  886TIP3    H1 2664   3.603   0.119   0.671
  886TIP3    H2 2665   3.667   0.123   0.809
  887TIP3   OH2 2666   0.265   1.795   1.917
  887TIP3    H1 2667   0.183   1.810   1.871
  887TIP3    H2 2668   0.253   1.710   1.961
  888TIP3   OH2 2669   3.588   5.388   3.903
  888TIP3    H1 2670   3.543   5.409   3.985
  888TIP3    H2 2671   3.662   5.334   3.930
  889TIP3   OH2 2672   5.336   5.841   1.709
  889TIP3    H1 2673   5.264   5.900   1.730
  889TIP3    H2 2674   5.409   5.899   1.686
  890TIP3   OH2 2675   0.537   4.072   2.234
  890TIP3    H1 2676   0.590   4.145   2.202
  890TIP3    H2 2677   0.447   4.099   2.218
  891TIP3   OH2 2678   4.172   1.115   3.049
  891TIP3    H1 2679   4.108   1.044   3.043
  891TIP3    H2 2680   4.257   1.072   3.057
  892TIP3   OH2 2681   2.379   0.190   3.386
  892TIP3    H1 2682   2.305   0.130   3.379
  892TIP3    H2 2683   2.402   0.190   3.479
  893TIP3   OH2 2684   1.371   1.805   3.767
  893TIP3    H1 2685   1.301   1.841   3.821
  893TIP3    H2 2686   1.405   1.880   3.718
  894TIP3   OH2 2687   1.106   5.594   2.993
  894TIP3    H1 2688   1.073   5.524   3.049
  894TIP3    H2 2689   1.040   5.602   2.923
  895TIP3   OH2 2690   1.326   5.497   3.347
  895TIP3    H1 2691   1.306   5.585   3.317
  895TIP3    H2 2692   1.362   5.453   3.270
  896TIP3   OH2 2693   1.725   3.900   1.346
  896TIP3    H1 2694   1.691   3.979   1.388
  896TIP3    H2 2695   1.696   3.907   1.255
  897TIP3   OH2 2696   2.369   2.115   2.527
  897TIP3    H1 2697   2.397   2.177   2.595
  897TIP3    H2 2698   2.286   2.080   2.559
  898TIP3   OH2 2699   0.067   5.780   4.599
  898TIP3    H1 2700   0.046   5.843   4.531
  898TIP3    H2 2701  -0.018   5.753   4.634
  899TIP3   OH2 2702   4.162   3.097   1.720
  899TIP3    H1 2703   4.109   3.025   1.755
  899TIP3    H2 2704   4.252   3.064   1.723
  900TIP3   OH2 2705   5.409   0.279   4.835
  900TIP3    H1 2706   5.412   0.225   4.757
  900TIP3    H2 2707   5.493   0.325   4.836
  901TIP3   OH2 2708   1.218   3.192   4.851
  901TIP3    H1 2709   1.209   3.113   4.905
  901TIP3    H2 2710   1.220   3.159   4.761
  902TIP3   OH2 2711   1.761   1.533   3.081
  902TIP3    H1 2712   1.800   1.588   3.013
  902TIP3    H2 2713   1.771   1.583   3.162
  903TIP3   OH2 2714   3.667   4.200   4.778
  903TIP3    H1 2715   3.575   4.225   4.769
  903TIP3    H2 2716   3.716   4.276   4.748
  904TIP3   OH2 2717   2.353   3.588   4.070
  904TIP3    H1 2718   2.265   3.620   4.051
  904TIP3    H2 2719   2.395   3.581   3.984
  905TIP3   OH2 2720   4.908   1.360   1.710
  905TIP3    H1 2721   5.004   1.356   1.707
  905TIP3    H2 2722   4.881   1.268   1.708
  906TIP3   OH2 2723   3.995   3.192   2.176
  906TIP3    H1 2724   4.066   3.128   2.169
  906TIP3    H2 2725   3.937   3.173   2.103
  907TIP3   OH2 2726   4.354   3.061   4.477
  907TIP3    H1 2727   4.327   3.022   4.394
  907TIP3    H2 2728   4.275   3.103   4.511
  908TIP3   OH2 2729   4.491   5.576   4.330
  908TIP3    H1 2730   4.418   5.555   4.272
  908TIP3    H2 2731   4.471   5.530   4.411
  909TIP3   OH2 2732   1.010   5.072   2.238
  909TIP3    H1 2733   0.993   5.134   2.167
  909TIP3    H2 2734   1.058   5.001   2.196
  910TIP3   OH2 2735   5.512   2.371   5.081
  910TIP3    H1 2736   5.478   2.415   5.158
  910TIP3    H2 2737   5.558   2.439   5.033
  911TIP3   OH2 2738   3.646   4.842   4.724
  911TIP3    H1 2739   3.605   4.783   4.660
  911TIP3    H2 2740   3.583   4.846   4.796
  912TIP3   OH2 2741   4.190   3.899   3.710
  912TIP3    H1 2742   4.127   3.906   3.782
  912TIP3    H2 2743   4.255   3.836   3.740
  913TIP3   OH2 2744   1.156   4.583   1.083
  913TIP3    H1 2745   1.199   4.501   1.106
  913TIP3    H2 2746   1.181   4.644   1.152
  914TIP3   OH2 2747   4.511   3.896   3.397
  914TIP3    H1 2748   4.443   3.950   3.437
  914TIP3    H2 2749   4.545   3.949   3.325
  915TIP3   OH2 2750   0.257   5.427   0.292
  915TIP3    H1 2751   0.318   5.500   0.280
  915TIP3    H2 2752   0.174   5.458   0.254
  916TIP3   OH2 2753   1.151   4.013   2.168
  916TIP3    H1 2754   1.196   4.006   2.083
  916TIP3    H2 2755   1.174   4.100   2.200
  917TIP3   OH2 2756   2.376   4.038   0.743
  917TIP3    H1 2757   2.335   3.963   0.786
  917TIP3    H2 2758   2.462   4.005   0.715
  918TIP3   OH2 2759   3.076   5.122   0.182
  918TIP3    H1 2760   3.118   5.114   0.097
  918TIP3    H2 2761   3.149   5.126   0.244
  919TIP3   OH2 2762   0.094   5.268   2.435
  919TIP3    H1 2763   0.021   5.302   2.384
  919TIP3    H2 2764   0.171   5.282   2.380
  920TIP3   OH2 2765   2.178   2.908   3.158
  920TIP3    H1 2766   2.168   3.002   3.172
  920TIP3    H2 2767   2.101   2.869   3.201
  921TIP3   OH2 2768   5.161   5.475   1.217
  921TIP3    H1 2769   5.076   5.443   1.187
  921TIP3    H2 2770   5.199   5.518   1.140
  922TIP3   OH2 2771   3.952   3.262   3.371
  922TIP3    H1 2772   4.041   3.296   3.367
  922TIP3    H2 2773   3.898   3.334   3.339
  923TIP3   OH2 2774   5.268   2.327   2.058
  923TIP3    H1 2775   5.338   2.386   2.087
  923TIP3    H2 2776   5.256   2.349   1.965
  924TIP3   OH2 2777   4.145   2.892   3.491
  924TIP3    H1 2778   4.238   2.887   3.512
  924TIP3    H2 2779   4.141   2.940   3.408
  925TIP3   OH2 2780   5.401   1.074   0.583
  925TIP3    H1 2781   5.354   1.135   0.527
  925TIP3    H2 2782   5.395   0.990   0.537
  926TIP3   OH2 2783   3.635   0.762   4.914
  926TIP3    H1 2784   3.545   0.794   4.914
  926TIP3    H2 2785   3.637   0.697   4.984
  927TIP3   OH2 2786   4.172   4.662   2.636
  927TIP3    H1 2787   4.076   4.664   2.644
  927TIP3    H2 2788   4.202   4.618   2.715
  928TIP3   OH2 2789   5.497   3.521   3.970
  928TIP3    H1 2790   5.470   3.539   4.061
  928TIP3    H2 2791   5.424   3.471   3.934
  929TIP3   OH2 2792   0.231   4.850   4.339
  929TIP3    H1 2793   0.205   4.912   4.271
  929TIP3    H2 2794   0.187   4.768   4.316
  930TIP3   OH2 2795   6.210   3.567   3.421
  930TIP3    H1 2796   6.264   3.545   3.496
  930TIP3    H2 2797   6.184   3.658   3.436
  931TIP3   OH2 2798   1.635   1.026   1.800
  931TIP3    H1 2799   1.668   0.952   1.749
  931TIP3    H2 2800   1.691   1.030   1.877
  932TIP3   OH2 2801   1.440   3.767   2.643
  932TIP3    H1 2802   1.424   3.841   2.701
  932TIP3    H2 2803   1.419   3.799   2.556
  933TIP3   OH2 2804   0.854   5.230   1.474
  933TIP3    H1 2805   0.787   5.282   1.519
  933TIP3    H2 2806   0.814   5.143   1.465
  934TIP3   OH2 2807   4.436   0.415   3.771
  934TIP3    H1 2808   4.353   0.393   3.813
  934TIP3    H2 2809   4.413   0.482   3.706
  935TIP3   OH2 2810   3.031   4.563   0.766
  935TIP3    H1 2811   3.021   4.601   0.679
  935TIP3    H2 2812   3.115   4.597   0.798
  936TIP3   OH2 2813   5.116   3.203   1.067
  936TIP3    H1 2814   5.077   3.285   1.098
  936TIP3    H2 2815   5.207   3.207   1.098
  937TIP3   OH2 2816   5.294   4.997   3.428
  937TIP3    H1 2817   5.320   5.087   3.411
  937TIP3    H2 2818   5.208   5.004   3.470
  938TIP3   OH2 2819   6.147   5.883   1.522
  938TIP3    H1 2820   6.150   5.934   1.603
  938TIP3    H2 2821   6.077   5.820   1.536
  939TIP3   OH2 2822   6.182   3.820   5.012
  939TIP3    H1 2823   6.177   3.729   5.041
  939TIP3    H2 2824   6.144   3.870   5.084
  940TIP3   OH2 2825   2.758   1.090   4.272
  940TIP3    H1 2826   2.695   1.124   4.335
  940TIP3    H2 2827   2.746   1.145   4.194
  941TIP3   OH2 2828   3.790   1.961   4.003
  941TIP3    H1 2829   3.834   1.882   4.035
  941TIP3    H2 2830   3.839   2.033   4.043
  942TIP3   OH2 2831   4.898   0.380   2.874
  942TIP3    H1 2832   4.975   0.356   2.822
  942TIP3    H2 2833   4.841   0.303   2.870
  943TIP3   OH2 2834   4.284   2.781   0.895
  943TIP3    H1 2835   4.253   2.773   0.985
  943TIP3    H2 2836   4.353   2.715   0.887
  944TIP3   OH2 2837   3.583   5.384   1.201
  944TIP3    H1 2838   3.622   5.429   1.276
  944TIP3    H2 2839   3.655   5.372   1.140
  945TIP3   OH2 2840   2.468   2.076   0.906
  945TIP3    H1 2841   2.429   2.070   0.993
  945TIP3    H2 2842   2.470   2.170   0.886
  946TIP3   OH2 2843   0.594   0.614   3.993
  946TIP3    H1 2844   0.534   0.646   3.926
  946TIP3    H2 2845   0.571   0.664   4.071
  947TIP3   OH2 2846   0.071   0.893   1.512
  947TIP3    H1 2847   0.072   0.883   1.417
  947TIP3    H2 2848   0.034   0.811   1.544
  948TIP3   OH2 2849   6.218   3.062   2.542
  948TIP3    H1 2850   6.205   3.021   2.457
  948TIP3    H2 2851   6.303   3.030   2.572
  949TIP3   OH2 2852   1.281   3.318   0.297
  949TIP3    H1 2853   1.339   3.382   0.339
  949TIP3    H2 2854   1.206   3.369   0.267
  950TIP3   OH2 2855   3.996   4.443   4.387
  950TIP3    H1 2856   4.006   4.510   4.320
  950TIP3    H2 2857   3.915   4.398   4.365
  951TIP3   OH2 2858   2.472   5.574   3.157
  951TIP3    H1 2859   2.537   5.506   3.138
  951TIP3    H2 2860   2.522   5.645   3.198
  952TIP3   OH2 2861   3.901   4.985   0.233
  952TIP3    H1 2862   3.931   4.895   0.241
  952TIP3    H2 2863   3.836   4.984   0.163
  953TIP3   OH2 2864   3.082   4.451   1.669
  953TIP3    H1 2865   3.172   4.427   1.649
  953TIP3    H2 2866   3.080   4.546   1.661
  954TIP3   OH2 2867   6.086   1.468   0.246
  954TIP3    H1 2868   6.121   1.557   0.242
  954TIP3    H2 2869   6.149   1.420   0.301
  955TIP3   OH2 2870   2.956   2.877   3.596
  955TIP3    H1 2871   2.923   2.911   3.679
  955TIP3    H2 2872   3.039   2.835   3.618
  956TIP3   OH2 2873   5.402   5.589   1.742
  956TIP3    H1 2874   5.393   5.553   1.654
  956TIP3    H2 2875   5.380   5.682   1.732
  957TIP3   OH2 2876   5.506   1.763   2.722
  957TIP3    H1 2877   5.447   1.813   2.666
  957TIP3    H2 2878   5.544   1.698   2.663
  958TIP3   OH2 2879   6.059   5.023   3.379
  958TIP3    H1 2880   6.107   5.066   3.308
  958TIP3    H2 2881   6.053   4.932   3.352
  959TIP3   OH2 2882   5.967   4.367   0.568
  959TIP3    H1 2883   6.017   4.349   0.647
  959TIP3    H2 2884   5.977   4.461   0.553
  960TIP3   OH2 2885   6.001   3.828   1.338
  960TIP3    H1 2886   5.999   3.875   1.255
  960TIP3    H2 2887   6.091   3.839   1.369
  961TIP3   OH2 2888   1.778   2.402   4.043
  961TIP3    H1 2889   1.771   2.464   3.971
  961TIP3    H2 2890   1.722   2.329   4.017
  962TIP3   OH2 2891   1.890   3.710   2.897
  962TIP3    H1 2892   1.800   3.739   2.910
  962TIP3    H2 2893   1.928   3.774   2.838
  963TIP3   OH2 2894   0.386   1.316   3.327
  963TIP3    H1 2895   0.353   1.262   3.399
  963TIP3    H2 2896   0.479   1.296   3.322
  964TIP3   OH2 2897   2.806   4.144   0.614
  964TIP3    H1 2898   2.733   4.200   0.586
  964TIP3    H2 2899   2.866   4.202   0.660
  965TIP3   OH2 2900   3.917   5.480   4.975
  965TIP3    H1 2901   3.844   5.482   4.912
  965TIP3    H2 2902   3.948   5.390   4.973
  966TIP3   OH2 2903   1.822   4.732   0.181
  966TIP3    H1 2904   1.777   4.649   0.162
  966TIP3    H2 2905   1.884   4.742   0.109
  967TIP3   OH2 2906   5.842   3.613   3.324
  967TIP3    H1 2907   5.784   3.656   3.261
  967TIP3    H2 2908   5.887   3.684   3.368
  968TIP3   OH2 2909   4.237   2.964   4.202
  968TIP3    H1 2910   4.308   2.899   4.192
  968TIP3    H2 2911   4.157   2.913   4.191
  969TIP3   OH2 2912   3.525   2.319   1.352
  969TIP3    H1 2913   3.442   2.365   1.358
  969TIP3    H2 2914   3.558   2.339   1.265
  970TIP3   OH2 2915   2.327   1.468   5.037
  970TIP3    H1 2916   2.338   1.543   4.978
  970TIP3    H2 2917   2.242   1.431   5.013
  971TIP3   OH2 2918   5.480   5.787   0.538
  971TIP3    H1 2919   5.399   5.753   0.500
  971TIP3    H2 2920   5.452   5.833   0.617
  972TIP3   OH2 2921   6.022   5.217   2.723
  972TIP3    H1 2922   6.033   5.145   2.660
  972TIP3    H2 2923   6.100   5.271   2.711
  973TIP3   OH2 2924   4.862   2.040   4.947
  973TIP3    H1 2925   4.767   2.047   4.946
  973TIP3    H2 2926   4.883   1.985   4.871
  974TIP3   OH2 2927   3.669   0.661   2.012
  974TIP3    H1 2928   3.754   0.661   1.968
  974TIP3    H2 2929   3.643   0.569   2.014
  975TIP3   OH2 2930   2.547   0.718   2.922
  975TIP3    H1 2931   2.502   0.672   2.993
  975TIP3    H2 2932   2.623   0.759   2.964
  976TIP3   OH2 2933   1.939   5.799   4.048
  976TIP3    H1 2934   1.883   5.869   4.014
  976TIP3    H2 2935   2.002   5.844   4.104
  977TIP3   OH2 2936   1.362   5.067   1.979
  977TIP3    H1 2937   1.415   5.123   2.035
  977TIP3    H2 2938   1.296   5.125   1.941
  978TIP3   OH2 2939   4.533   3.841   4.675
  978TIP3    H1 2940   4.600   3.804   4.617
  978TIP3    H2 2941   4.464   3.775   4.677
  979TIP3   OH2 2942   0.864   4.102   2.102
  979TIP3    H1 2943   0.851   4.081   2.195
  979TIP3    H2 2944   0.830   4.025   2.055
  980TIP3   OH2 2945   6.283   5.382   0.244
  980TIP3    H1 2946   6.271   5.465   0.199
  980TIP3    H2 2947   6.240   5.318   0.188
  981TIP3   OH2 2948   5.267   2.452   3.526
  981TIP3    H1 2949   5.277   2.514   3.598
  981TIP3    H2 2950   5.184   2.477   3.484
  982TIP3   OH2 2951   2.416   3.868   4.173
  982TIP3    H1 2952   2.342   3.923   4.148
  982TIP3    H2 2953   2.396   3.782   4.134
  983TIP3   OH2 2954   0.080   2.439   5.128
  983TIP3    H1 2955   0.046   2.469   5.043
  983TIP3    H2 2956   0.163   2.486   5.138
  984TIP3   OH2 2957   0.505   3.158   4.416
  984TIP3    H1 2958   0.501   3.164   4.512
  984TIP3    H2 2959   0.444   3.088   4.393
  985TIP3   OH2 2960   5.900   3.843   4.407
  985TIP3    H1 2961   5.868   3.776   4.467
  985TIP3    H2 2962   5.994   3.827   4.401
  986TIP3   OH2 2963   5.248   0.841   2.442
  986TIP3    H1 2964   5.338   0.808   2.434
  986TIP3    H2 2965   5.248   0.892   2.522
  987TIP3   OH2 2966   5.826   2.764   4.703
  987TIP3    H1 2967   5.871   2.784   4.785
  987TIP3    H2 2968   5.741   2.729   4.730
  988TIP3   OH2 2969   4.437   3.306   3.585
  988TIP3    H1 2970   4.375   3.288   3.656
  988TIP3    H2 2971   4.415   3.241   3.518
  989TIP3   OH2 2972   1.988   1.574   0.862
  989TIP3    H1 2973   1.931   1.551   0.935
  989TIP3    H2 2974   2.010   1.666   0.876
  990TIP3   OH2 2975   4.734   1.593   3.506
  990TIP3    H1 2976   4.675   1.606   3.579
  990TIP3    H2 2977   4.807   1.653   3.522
  991TIP3   OH2 2978   1.025   2.298   4.009
  991TIP3    H1 2979   0.956   2.305   3.944
  991TIP3    H2 2980   0.985   2.249   4.081
  992TIP3   OH2 2981   5.313   4.724   3.817
  992TIP3    H1 2982   5.376   4.682   3.875
  992TIP3    H2 2983   5.264   4.784   3.874
  993TIP3   OH2 2984   4.560   5.915   1.391
  993TIP3    H1 2985   4.562   5.992   1.447
  993TIP3    H2 2986   4.475   5.920   1.347
  994TIP3   OH2 2987   5.303   3.026   2.499
  994TIP3    H1 2988   5.327   2.942   2.458
  994TIP3    H2 2989   5.383   3.078   2.495
  995TIP3   OH2 2990   4.515   2.478   3.417
  995TIP3    H1 2991   4.455   2.538   3.372
  995TIP3    H2 2992   4.463   2.398   3.429
  996TIP3   OH2 2993   3.274   5.625   0.904
  996TIP3    H1 2994   3.335   5.658   0.838
  996TIP3    H2 2995   3.300   5.534   0.918
  997TIP3   OH2 2996   1.633   5.267   1.368
  997TIP3    H1 2997   1.677   5.352   1.369
  997TIP3    H2 2998   1.620   5.247   1.275
  998TIP3   OH2 2999   1.850   1.174   3.844
  998TIP3    H1 3000   1.909   1.102   3.823
  998TIP3    H2 3001   1.907   1.241   3.883
  999TIP3   OH2 3002   0.974   4.789   1.351
  999TIP3    H1 3003   0.975   4.694   1.363
  999TIP3    H2 3004   1.061   4.810   1.318
 1000TIP3   OH2 3005   4.578   3.426   1.385
 1000TIP3    H1 3006   4.563   3.376   1.465
 1000TIP3    H2 3007   4.654   3.386   1.345
 1001TIP3   OH2 3008   2.687   1.528   0.964
 1001TIP3    H1 3009   2.628   1.471   0.914
 1001TIP3    H2 3010   2.719   1.473   1.035
 1002TIP3   OH2 3011   3.136   0.101   4.476
 1002TIP3    H1 3012   3.094   0.187   4.478
 1002TIP3    H2 3013   3.206   0.109   4.411
 1003TIP3   OH2 3014   1.290   0.053   1.585
 1003TIP3    H1 3015   1.269   0.145   1.602
 1003TIP3    H2 3016   1.383   0.045   1.607
 1004TIP3   OH2 3017   4.669   4.589   4.812
 1004TIP3    H1 3018   4.601   4.563   4.875
 1004TIP3    H2 3019   4.642   4.548   4.730
 1005TIP3   OH2 3020   1.076   4.579   3.166
 1005TIP3    H1 3021   0.988   4.583   3.204
 1005TIP3    H2 3022   1.066   4.618   3.079
 1006TIP3   OH2 3023   6.098   2.579   5.064
 1006TIP3    H1 3024   6.126   2.495   5.026
 1006TIP3    H2 3025   6.034   2.555   5.131
 1007TIP3   OH2 3026   2.364   0.454   1.081
 1007TIP3    H1 3027   2.280   0.413   1.059
 1007TIP3    H2 3028   2.351   0.486   1.171
 1008TIP3   OH2 3029   5.917   3.978   2.289
 1008TIP3    H1 3030   5.968   4.009   2.214
 1008TIP3    H2 3031   5.860   4.052   2.310
 1009TIP3   OH2 3032   5.277   1.280   1.441
 1009TIP3    H1 3033   5.245   1.207   1.495
 1009TIP3    H2 3034   5.198   1.329   1.417
 1010TIP3   OH2 3035   4.696   4.491   3.297
 1010TIP3    H1 3036   4.687   4.557   3.228
 1010TIP3    H2 3037   4.767   4.523   3.352
 1011TIP3   OH2 3038   3.989   5.060   3.766
 1011TIP3    H1 3039   4.032   5.001   3.704
 1011TIP3    H2 3040   3.970   5.139   3.714
 1012TIP3   OH2 3041   0.657   4.417   2.907
 1012TIP3    H1 3042   0.581   4.468   2.937
 1012TIP3    H2 3043   0.636   4.327   2.932
 1013TIP3   OH2 3044   1.626   5.112   3.401
 1013TIP3    H1 3045   1.597   5.036   3.451
 1013TIP3    H2 3046   1.586   5.186   3.445
 1014TIP3   OH2 3047   5.421   0.108   5.063
 1014TIP3    H1 3048   5.422   0.168   4.988
 1014TIP3    H2 3049   5.501   0.056   5.054
 1015TIP3   OH2 3050   2.286   2.604   0.516
 1015TIP3    H1 3051   2.204   2.619   0.468
 1015TIP3    H2 3052   2.347   2.574   0.450
 1016TIP3   OH2 3053   5.283   0.168   4.127
 1016TIP3    H1 3054   5.245   0.093   4.081
 1016TIP3    H2 3055   5.278   0.144   4.220
 1017TIP3   OH2 3056   3.587   3.155   1.160
 1017TIP3    H1 3057   3.562   3.182   1.072
 1017TIP3    H2 3058   3.573   3.060   1.160
 1018TIP3   OH2 3059   5.339   1.704   0.613
 1018TIP3    H1 3060   5.378   1.734   0.531
 1018TIP3    H2 3061   5.245   1.718   0.602
 1019TIP3   OH2 3062   0.232   5.589   4.155
 1019TIP3    H1 3063   0.222   5.512   4.099
 1019TIP3    H2 3064   0.174   5.573   4.229
 1020TIP3   OH2 3065   2.186   3.656   1.813
 1020TIP3    H1 3066   2.124   3.709   1.862
 1020TIP3    H2 3067   2.133   3.616   1.744
 1021TIP3   OH2 3068   3.536   1.865   4.356
 1021TIP3    H1 3069   3.596   1.798   4.387
 1021TIP3    H2 3070   3.451   1.821   4.351
 1022TIP3   OH2 3071   6.093   1.853   1.323
 1022TIP3    H1 3072   6.129   1.767   1.342
 1022TIP3    H2 3073   6.163   1.914   1.343
 1023TIP3   OH2 3074   0.419   1.945   4.437
 1023TIP3    H1 3075   0.343   1.886   4.440
 1023TIP3    H2 3076   0.405   1.998   4.359
 1024TIP3   OH2 3077   0.611   5.048   3.285
 1024TIP3    H1 3078   0.631   5.140   3.301
 1024TIP3    H2 3079   0.687   5.014   3.238
 1025TIP3   OH2 3080   2.888   1.773   2.032
 1025TIP3    H1 3081   2.870   1.702   2.092
 1025TIP3    H2 3082   2.828   1.843   2.058
 1026TIP3   OH2 3083   4.614  -0.004   1.300
 1026TIP3    H1 3084   4.630  -0.021   1.393
 1026TIP3    H2 3085   4.693   0.039   1.269
 1027TIP3   OH2 3086   4.864   4.696   5.185
 1027TIP3    H1 3087   4.905   4.610   5.197
 1027TIP3    H2 3088   4.897   4.748   5.258
 1028TIP3   OH2 3089   5.029   5.919   4.852
 1028TIP3    H1 3090   5.068   5.915   4.939
 1028TIP3    H2 3091   4.969   5.994   4.857
 1029TIP3   OH2 3092   6.349   5.524   4.326
 1029TIP3    H1 3093   6.293   5.479   4.262
 1029TIP3    H2 3094   6.311   5.611   4.333
 1030TIP3   OH2 3095   2.706   5.771   4.278
 1030TIP3    H1 3096   2.739   5.698   4.329
 1030TIP3    H2 3097   2.753   5.766   4.194
 1031TIP3   OH2 3098   5.925   2.893   1.535
 1031TIP3    H1 3099   5.890   2.805   1.550
 1031TIP3    H2 3100   5.920   2.905   1.440
 1032TIP3   OH2 3101   4.110   2.320   4.256
 1032TIP3    H1 3102   4.159   2.378   4.315
 1032TIP3    H2 3103   4.175   2.257   4.224
 1033TIP3   OH2 3104   2.879   5.525   3.006
 1033TIP3    H1 3105   2.889   5.620   3.003
 1033TIP3    H2 3106   2.883   5.497   2.915
 1034TIP3   OH2 3107   2.595   5.915   2.179
 1034TIP3    H1 3108   2.537   5.889   2.251
 1034TIP3    H2 3109   2.681   5.881   2.204
 1035TIP3   OH2 3110   0.737   5.745   1.708
 1035TIP3    H1 3111   0.784   5.746   1.625
 1035TIP3    H2 3112   0.699   5.833   1.715
 1036TIP3   OH2 3113   1.162   3.855   4.545
 1036TIP3    H1 3114   1.125   3.831   4.460
 1036TIP3    H2 3115   1.216   3.932   4.527
 1037TIP3   OH2 3116   2.681   0.304   0.552
 1037TIP3    H1 3117   2.686   0.399   0.564
 1037TIP3    H2 3118   2.761   0.271   0.592
 1038TIP3   OH2 3119   6.105   3.102   5.054
 1038TIP3    H1 3120   6.055   3.184   5.055
 1038TIP3    H2 3121   6.129   3.091   4.962
 1039TIP3   OH2 3122   2.166   3.559   3.068
 1039TIP3    H1 3123   2.230   3.628   3.086
 1039TIP3    H2 3124   2.216   3.491   3.023
 1040TIP3   OH2 3125   2.623   1.770   1.141
 1040TIP3    H1 3126   2.708   1.810   1.122
 1040TIP3    H2 3127   2.642   1.678   1.154
 1041TIP3   OH2 3128   3.959   0.851   2.022
 1041TIP3    H1 3129   3.908   0.932   2.026
 1041TIP3    H2 3130   3.964   0.822   2.113
 1042TIP3   OH2 3131   3.859   4.728   4.898
 1042TIP3    H1 3132   3.950   4.756   4.903
 1042TIP3    H2 3133   3.815   4.798   4.849
 1043TIP3   OH2 3134   0.512   2.508   3.743
 1043TIP3    H1 3135   0.511   2.430   3.798
 1043TIP3    H2 3136   0.513   2.475   3.653
 1044TIP3   OH2 3137   5.264   0.106   3.553
 1044TIP3    H1 3138   5.339   0.131   3.500
 1044TIP3    H2 3139   5.192   0.097   3.490
 1045TIP3   OH2 3140   0.525   5.752   5.096
 1045TIP3    H1 3141   0.447   5.768   5.044
 1045TIP3    H2 3142   0.572   5.683   5.049
 1046TIP3   OH2 3143   3.039   2.812   2.305
 1046TIP3    H1 3144   3.120   2.773   2.338
 1046TIP3    H2 3145   3.013   2.873   2.374
 1047TIP3   OH2 3146   2.433   1.383   2.713
 1047TIP3    H1 3147   2.387   1.370   2.630
 1047TIP3    H2 3148   2.511   1.329   2.706
 1048TIP3   OH2 3149   4.058   3.941   3.074
 1048TIP3    H1 3150   4.090   4.019   3.119
 1048TIP3    H2 3151   3.987   3.972   3.018
 1049TIP3   OH2 3152   1.903   5.449   1.607
 1049TIP3    H1 3153   1.976   5.446   1.545
 1049TIP3    H2 3154   1.828   5.478   1.554
 1050TIP3   OH2 3155   2.554   3.160   2.407
 1050TIP3    H1 3156   2.525   3.069   2.412
 1050TIP3    H2 3157   2.525   3.189   2.320
 1051TIP3   OH2 3158   5.954   1.542   2.773
 1051TIP3    H1 3159   5.862   1.560   2.793
 1051TIP3    H2 3160   5.966   1.573   2.683
 1052TIP3   OH2 3161   2.763   0.089   3.482
 1052TIP3    H1 3162   2.819   0.151   3.529
 1052TIP3    H2 3163   2.744   0.020   3.545
 1053TIP3   OH2 3164   2.428   1.166   2.079
 1053TIP3    H1 3165   2.493   1.129   2.139
 1053TIP3    H2 3166   2.458   1.256   2.064
 1054TIP3   OH2 3167   3.407   2.932   2.644
 1054TIP3    H1 3168   3.433   2.873   2.714
 1054TIP3    H2 3169   3.481   2.933   2.583
 1055TIP3   OH2 3170   4.584   3.001   1.966
 1055TIP3    H1 3171   4.663   3.005   1.912
 1055TIP3    H2 3172   4.616   3.016   2.056
 1056TIP3   OH2 3173   2.154   5.182   1.087
 1056TIP3    H1 3174   2.186   5.113   1.028
 1056TIP3    H2 3175   2.227   5.243   1.093
 1057TIP3   OH2 3176   4.360   2.078   4.746
 1057TIP3    H1 3177   4.337   2.150   4.805
 1057TIP3    H2 3178   4.364   2.118   4.659
 1058TIP3   OH2 3179   2.856   2.014   0.518
 1058TIP3    H1 3180   2.936   1.993   0.564
 1058TIP3    H2 3181   2.882   2.076   0.450
 1059TIP3   OH2 3182   3.688   1.261   0.203
 1059TIP3    H1 3183   3.671   1.355   0.194
 1059TIP3    H2 3184   3.603   1.224   0.229
 1060TIP3   OH2 3185   2.633   2.402   0.335
 1060TIP3    H1 3186   2.667   2.326   0.287
 1060TIP3    H2 3187   2.538   2.394   0.329
 1061TIP3   OH2 3188   1.673   3.238   4.172
 1061TIP3    H1 3189   1.769   3.241   4.168
 1061TIP3    H2 3190   1.651   3.151   4.139
 1062TIP3   OH2 3191   0.345   4.448   3.225
 1062TIP3    H1 3192   0.343   4.483   3.136
 1062TIP3    H2 3193   0.381   4.359   3.215
 1063TIP3   OH2 3194   2.112   2.028   3.614
 1063TIP3    H1 3195   2.104   1.986   3.528
 1063TIP3    H2 3196   2.205   2.046   3.624
 1064TIP3   OH2 3197   0.818   3.532   2.149
 1064TIP3    H1 3198   0.868   3.565   2.074
 1064TIP3    H2 3199   0.884   3.523   2.218
 1065TIP3   OH2 3200   4.675   1.912   3.772
 1065TIP3    H1 3201   4.748   1.886   3.716
 1065TIP3    H2 3202   4.694   1.872   3.857
 1066TIP3   OH2 3203   0.781   0.341   0.125
 1066TIP3    H1 3204   0.830   0.372   0.201
 1066TIP3    H2 3205   0.689   0.355   0.149
 1067TIP3   OH2 3206   2.536   3.297   0.024
 1067TIP3    H1 3207   2.596   3.291   0.098
 1067TIP3    H2 3208   2.563   3.226  -0.035
 1068TIP3   OH2 3209   3.909   5.864   4.514
 1068TIP3    H1 3210   3.913   5.924   4.440
 1068TIP3    H2 3211   3.826   5.819   4.504
 1069TIP3   OH2 3212   3.871   2.095   2.897
 1069TIP3    H1 3213   3.913   2.083   2.812
 1069TIP3    H2 3214   3.824   2.178   2.890
 1070TIP3   OH2 3215   3.158   3.801   1.364
 1070TIP3    H1 3216   3.253   3.809   1.372
 1070TIP3    H2 3217   3.137   3.719   1.409
 1071TIP3   OH2 3218   4.084   1.500   0.784
 1071TIP3    H1 3219   4.165   1.547   0.804
 1071TIP3    H2 3220   4.111   1.409   0.774
 1072TIP3   OH2 3221   6.217   1.619   0.805
 1072TIP3    H1 3222   6.231   1.539   0.755
 1072TIP3    H2 3223   6.153   1.595   0.872
 1073TIP3   OH2 3224   1.759   2.006   3.541
 1073TIP3    H1 3225   1.841   1.970   3.508
 1073TIP3    H2 3226   1.785   2.066   3.611
 1074TIP3   OH2 3227   2.087   0.552   5.083
 1074TIP3    H1 3228   2.004   0.507   5.095
 1074TIP3    H2 3229   2.134   0.539   5.165
 1075TIP3   OH2 3230   6.252   0.509   4.760
 1075TIP3    H1 3231   6.315   0.523   4.830
 1075TIP3    H2 3232   6.180   0.569   4.781
 1076TIP3   OH2 3233   3.269   3.622   5.153
 1076TIP3    H1 3234   3.274   3.624   5.057
 1076TIP3    H2 3235   3.353   3.584   5.180
 1077TIP3   OH2 3236   4.501   2.328   2.877
 1077TIP3    H1 3237   4.472   2.351   2.789
 1077TIP3    H2 3238   4.585   2.283   2.864
 1078TIP3   OH2 3239   3.313   1.353   3.417
 1078TIP3    H1 3240   3.251   1.292   3.456
 1078TIP3    H2 3241   3.397   1.330   3.455
 1079TIP3   OH2 3242   5.679   1.199   2.233
 1079TIP3    H1 3243   5.643   1.160   2.313
 1079TIP3    H2 3244   5.605   1.244   2.193
 1080TIP3   OH2 3245   0.515   0.601   4.795
 1080TIP3    H1 3246   0.453   0.656   4.748
 1080TIP3    H2 3247   0.600   0.617   4.753
 1081TIP3   OH2 3248   4.345   5.422   4.760
 1081TIP3    H1 3249   4.315   5.512   4.742
 1081TIP3    H2 3250   4.436   5.432   4.785
 1082TIP3   OH2 3251   3.016   0.624   2.568
 1082TIP3    H1 3252   3.112   0.628   2.566
 1082TIP3    H2 3253   2.990   0.701   2.619
 1083TIP3   OH2 3254   6.124   1.341   5.005
 1083TIP3    H1 3255   6.057   1.301   5.061
 1083TIP3    H2 3256   6.178   1.393   5.066
 1084TIP3   OH2 3257   0.296   3.650   0.503
 1084TIP3    H1 3258   0.274   3.620   0.415
 1084TIP3    H2 3259   0.237   3.724   0.519
 1085TIP3   OH2 3260   2.816   0.776   1.042
 1085TIP3    H1 3261   2.779   0.762   0.955
 1085TIP3    H2 3262   2.805   0.869   1.059
 1086TIP3   OH2 3263   3.134   4.660   4.001
 1086TIP3    H1 3264   3.100   4.703   3.922
 1086TIP3    H2 3265   3.228   4.674   3.997
 1087TIP3   OH2 3266   3.437   1.901   2.224
 1087TIP3    H1 3267   3.507   1.944   2.175
 1087TIP3    H2 3268   3.461   1.914   2.316
 1088TIP3   OH2 3269   1.508   4.480   2.052
 1088TIP3    H1 3270   1.567   4.442   1.987
 1088TIP3    H2 3271   1.454   4.406   2.082
 1089TIP3   OH2 3272   3.656   1.170   1.530
 1089TIP3    H1 3273   3.738   1.196   1.572
 1089TIP3    H2 3274   3.671   1.080   1.503
 1090TIP3   OH2 3275   2.012   0.276   0.261
 1090TIP3    H1 3276   2.048   0.357   0.225
 1090TIP3    H2 3277   2.000   0.294   0.354
 1091TIP3   OH2 3278   1.750   1.377   0.107
 1091TIP3    H1 3279   1.723   1.426   0.185
 1091TIP3    H2 3280   1.800   1.440   0.055
 1092TIP3   OH2 3281   4.298   0.007   4.569
 1092TIP3    H1 3282   4.240   0.080   4.548
 1092TIP3    H2 3283   4.376   0.022   4.516
 1093TIP3   OH2 3284   2.457   0.919   0.275
 1093TIP3    H1 3285   2.461   0.823   0.275
 1093TIP3    H2 3286   2.535   0.947   0.227
 1094TIP3   OH2 3287   1.127   4.068   3.323
 1094TIP3    H1 3288   1.109   4.074   3.417
 1094TIP3    H2 3289   1.221   4.050   3.317
 1095TIP3   OH2 3290   0.405   2.270   4.879
 1095TIP3    H1 3291   0.387   2.300   4.968
 1095TIP3    H2 3292   0.422   2.176   4.888
 1096TIP3   OH2 3293   5.388   3.180   1.165
 1096TIP3    H1 3294   5.477   3.207   1.146
 1096TIP3    H2 3295   5.384   3.173   1.260
 1097TIP3   OH2 3296   0.861   0.347   1.559
 1097TIP3    H1 3297   0.930   0.404   1.592
 1097TIP3    H2 3298   0.862   0.271   1.617
 1098TIP3   OH2 3299   2.505   0.200   1.793
 1098TIP3    H1 3300   2.482   0.205   1.701
 1098TIP3    H2 3301   2.458   0.272   1.834
 1099TIP3   OH2 3302   3.735   3.677   4.944
 1099TIP3    H1 3303   3.688   3.739   5.000
 1099TIP3    H2 3304   3.716   3.591   4.982
 1100TIP3   OH2 3305   4.328   0.293   3.189
 1100TIP3    H1 3306   4.411   0.330   3.221
 1100TIP3    H2 3307   4.353   0.239   3.114
 1101TIP3   OH2 3308   1.350   1.681   4.495
 1101TIP3    H1 3309   1.409   1.744   4.454
 1101TIP3    H2 3310   1.336   1.614   4.428
 1102TIP3   OH2 3311   0.503   5.142   0.540
 1102TIP3    H1 3312   0.588   5.100   0.528
 1102TIP3    H2 3313   0.502   5.213   0.475
 1103TIP3   OH2 3314   0.391   1.122   4.242
 1103TIP3    H1 3315   0.482   1.152   4.236
 1103TIP3    H2 3316   0.375   1.078   4.158
 1104TIP3   OH2 3317   2.084   5.132   2.105
 1104TIP3    H1 3318   2.124   5.060   2.055
 1104TIP3    H2 3319   2.027   5.087   2.167
 1105TIP3   OH2 3320   5.465   0.135   1.484
 1105TIP3    H1 3321   5.419   0.092   1.412
 1105TIP3    H2 3322   5.491   0.220   1.448
 1106TIP3   OH2 3323   2.572   4.310   3.493
 1106TIP3    H1 3324   2.555   4.321   3.399
 1106TIP3    H2 3325   2.614   4.225   3.500
 1107TIP3   OH2 3326   3.739   2.274   0.532
 1107TIP3    H1 3327   3.687   2.335   0.585
 1107TIP3    H2 3328   3.686   2.195   0.527
 1108TIP3   OH2 3329   5.362   4.456   1.089
 1108TIP3    H1 3330   5.332   4.546   1.074
 1108TIP3    H2 3331   5.354   4.444   1.184
 1109TIP3   OH2 3332   3.134   1.460   4.756
 1109TIP3    H1 3333   3.214   1.449   4.806
 1109TIP3    H2 3334   3.136   1.389   4.691
 1110TIP3   OH2 3335   1.298   5.320   1.120
 1110TIP3    H1 3336   1.283   5.225   1.123
 1110TIP3    H2 3337   1.390   5.330   1.096
 1111TIP3   OH2 3338   3.673   4.265   5.059
 1111TIP3    H1 3339   3.737   4.283   5.128
 1111TIP3    H2 3340   3.720   4.282   4.977
 1112TIP3   OH2 3341   3.204   0.523   2.804
 1112TIP3    H1 3342   3.219   0.614   2.782
 1112TIP3    H2 3343   3.275   0.475   2.760
 1113TIP3   OH2 3344   5.795   5.928   1.691
 1113TIP3    H1 3345   5.860   5.985   1.650
 1113TIP3    H2 3346   5.817   5.930   1.784
 1114TIP3   OH2 3347   0.769   4.260   1.454
 1114TIP3    H1 3348   0.752   4.189   1.393
 1114TIP3    H2 3349   0.696   4.258   1.516
 1115TIP3   OH2 3350   4.007   5.593   1.172
 1115TIP3    H1 3351   3.972   5.542   1.098
 1115TIP3    H2 3352   3.957   5.674   1.171
 1116TIP3   OH2 3353   1.295   1.377   3.241
 1116TIP3    H1 3354   1.383   1.402   3.211
 1116TIP3    H2 3355   1.308   1.292   3.284
 1117TIP3   OH2 3356   4.192   3.027   2.124
 1117TIP3    H1 3357   4.166   2.948   2.171
 1117TIP3    H2 3358   4.272   3.056   2.169
 1118TIP3   OH2 3359   2.462   4.542   3.575
 1118TIP3    H1 3360   2.444   4.544   3.669
 1118TIP3    H2 3361   2.515   4.464   3.563
 1119TIP3   OH2 3362   2.386   4.869   1.207
 1119TIP3    H1 3363   2.414   4.947   1.255
 1119TIP3    H2 3364   2.338   4.817   1.272
 1120TIP3   OH2 3365   3.972   3.374   0.110
 1120TIP3    H1 3366   3.877   3.383   0.123
 1120TIP3    H2 3367   3.981   3.322   0.031
 1121TIP3   OH2 3368   5.711   5.872   2.982
 1121TIP3    H1 3369   5.782   5.935   2.977
 1121TIP3    H2 3370   5.631   5.925   2.982
 1122TIP3   OH2 3371   1.436   1.384   3.862
 1122TIP3    H1 3372   1.481   1.339   3.790
 1122TIP3    H2 3373   1.345   1.358   3.854
 1123TIP3   OH2 3374   4.875   5.810   5.148
 1123TIP3    H1 3375   4.964   5.844   5.159
 1123TIP3    H2 3376   4.887   5.719   5.119
 1124TIP3   OH2 3377   4.437   5.128   3.179
 1124TIP3    H1 3378   4.432   5.112   3.273
 1124TIP3    H2 3379   4.354   5.172   3.158
 1125TIP3   OH2 3380   4.086   5.046   2.921
 1125TIP3    H1 3381   4.163   5.098   2.943
 1125TIP3    H2 3382   4.119   4.956   2.914
 1126TIP3   OH2 3383   4.188   1.589   3.655
 1126TIP3    H1 3384   4.270   1.546   3.679
 1126TIP3    H2 3385   4.157   1.539   3.579
 1127TIP3   OH2 3386   2.392   1.378   4.061
 1127TIP3    H1 3387   2.374   1.285   4.049
 1127TIP3    H2 3388   2.392   1.414   3.972
 1128TIP3   OH2 3389   6.139   4.342   4.068
 1128TIP3    H1 3390   6.209   4.405   4.056
 1128TIP3    H2 3391   6.177   4.258   4.041
 1129TIP3   OH2 3392   5.893   5.252   2.030
 1129TIP3    H1 3393   5.921   5.257   2.121
 1129TIP3    H2 3394   5.974   5.238   1.981
 1130TIP3   OH2 3395   0.282   5.315   4.285
 1130TIP3    H1 3396   0.298   5.365   4.205
 1130TIP3    H2 3397   0.253   5.229   4.255
 1131TIP3   OH2 3398   0.396   0.986   2.812
 1131TIP3    H1 3399   0.462   0.916   2.821
 1131TIP3    H2 3400   0.410   1.041   2.888
 1132TIP3   OH2 3401   0.825   3.931   3.501
 1132TIP3    H1 3402   0.849   3.869   3.432
 1132TIP3    H2 3403   0.814   3.876   3.579
 1133TIP3   OH2 3404   5.871   1.931   3.234
 1133TIP3    H1 3405   5.823   1.994   3.179
 1133TIP3    H2 3406   5.962   1.960   3.229
 1134TIP3   OH2 3407   5.445   3.455   0.336
 1134TIP3    H1 3408   5.478   3.366   0.319
 1134TIP3    H2 3409   5.379   3.470   0.268
 1135TIP3   OH2 3410   4.332   3.301   2.664
 1135TIP3    H1 3411   4.333   3.332   2.754
 1135TIP3    H2 3412   4.392   3.359   2.617
 1136TIP3   OH2 3413   0.080   3.271   2.492
 1136TIP3    H1 3414   0.120   3.190   2.525
 1136TIP3    H2 3415  -0.014   3.259   2.506
 1137TIP3   OH2 3416   3.812   0.379   4.744
 1137TIP3    H1 3417   3.825   0.456   4.800
 1137TIP3    H2 3418   3.795   0.308   4.805
 1138TIP3   OH2 3419   1.533   4.882   3.557
 1138TIP3    H1 3420   1.522   4.845   3.644
 1138TIP3    H2 3421   1.586   4.817   3.510
 1139TIP3   OH2 3422   1.720   1.668   0.146
 1139TIP3    H1 3423   1.812   1.645   0.156
 1139TIP3    H2 3424   1.691   1.691   0.234
 1140TIP3   OH2 3425   0.940   4.473   4.103
 1140TIP3    H1 3426   0.955   4.484   4.197
 1140TIP3    H2 3427   0.862   4.417   4.098
 1141TIP3   OH2 3428   2.064   2.850   2.134
 1141TIP3    H1 3429   2.036   2.942   2.137
 1141TIP3    H2 3430   1.983   2.800   2.146
 1142TIP3   OH2 3431   1.121   5.183   1.528
 1142TIP3    H1 3432   1.102   5.099   1.570
 1142TIP3    H2 3433   1.039   5.207   1.484
 1143TIP3   OH2 3434   4.198   0.313   1.233
 1143TIP3    H1 3435   4.249   0.233   1.242
 1143TIP3    H2 3436   4.142   0.314   1.310
 1144TIP3   OH2 3437   1.403   3.693   4.248
 1144TIP3    H1 3438   1.463   3.767   4.245
 1144TIP3    H2 3439   1.316   3.732   4.245
 1145TIP3   OH2 3440   1.308   3.584   0.797
 1145TIP3    H1 3441   1.381   3.538   0.838
 1145TIP3    H2 3442   1.249   3.603   0.869
 1146TIP3   OH2 3443   0.608   5.363   2.797
 1146TIP3    H1 3444   0.516   5.340   2.786
 1146TIP3    H2 3445   0.636   5.316   2.875
 1147TIP3   OH2 3446   0.471   4.830   2.365
 1147TIP3    H1 3447   0.480   4.791   2.452
 1147TIP3    H2 3448   0.384   4.869   2.365
 1148TIP3   OH2 3449   6.194   5.665   0.709
 1148TIP3    H1 3450   6.248   5.587   0.721
 1148TIP3    H2 3451   6.166   5.689   0.798
 1149TIP3   OH2 3452   3.051   2.843   4.124
 1149TIP3    H1 3453   3.040   2.887   4.208
 1149TIP3    H2 3454   3.006   2.899   4.061
 1150TIP3   OH2 3455   5.641   1.987   4.279
 1150TIP3    H1 3456   5.727   2.007   4.241
 1150TIP3    H2 3457   5.598   2.072   4.289
 1151TIP3   OH2 3458   0.339   2.863   0.334
 1151TIP3    H1 3459   0.332   2.826   0.422
 1151TIP3    H2 3460   0.359   2.788   0.278
 1152TIP3   OH2 3461   3.414   5.613   0.647
 1152TIP3    H1 3462   3.489   5.672   0.632
 1152TIP3    H2 3463   3.450   5.526   0.634
 1153TIP3   OH2 3464   5.639   4.169   0.853
 1153TIP3    H1 3465   5.556   4.178   0.900
 1153TIP3    H2 3466   5.692   4.244   0.881
 1154TIP3   OH2 3467   3.689   3.883   3.627
 1154TIP3    H1 3468   3.746   3.912   3.556
 1154TIP3    H2 3469   3.706   3.789   3.635
 1155TIP3   OH2 3470   1.406   3.569   3.554
 1155TIP3    H1 3471   1.438   3.652   3.518
 1155TIP3    H2 3472   1.335   3.543   3.495
 1156TIP3   OH2 3473   3.104   1.229   2.752
 1156TIP3    H1 3474   3.176   1.233   2.814
 1156TIP3    H2 3475   3.031   1.192   2.803
 1157TIP3   OH2 3476   1.187   3.111   4.600
 1157TIP3    H1 3477   1.103   3.067   4.593
 1157TIP3    H2 3478   1.208   3.136   4.510
 1158TIP3   OH2 3479   5.609   2.796   0.944
 1158TIP3    H1 3480   5.538   2.852   0.977
 1158TIP3    H2 3481   5.689   2.844   0.966
 1159TIP3   OH2 3482   5.838   1.429   4.899
 1159TIP3    H1 3483   5.891   1.351   4.917
 1159TIP3    H2 3484   5.882   1.500   4.945
 1160TIP3   OH2 3485   4.869   0.751   2.886
 1160TIP3    H1 3486   4.936   0.709   2.939
 1160TIP3    H2 3487   4.820   0.679   2.847
 1161TIP3   OH2 3488   1.867   0.669   1.771
 1161TIP3    H1 3489   1.799   0.637   1.831
 1161TIP3    H2 3490   1.908   0.590   1.737
 1162TIP3   OH2 3491   3.637   4.668   3.373
 1162TIP3    H1 3492   3.648   4.723   3.296
 1162TIP3    H2 3493   3.560   4.704   3.418
 1163TIP3   OH2 3494   2.509   5.845   0.207
 1163TIP3    H1 3495   2.534   5.753   0.214
 1163TIP3    H2 3496   2.584   5.887   0.166
 1164TIP3   OH2 3497   3.465   0.807   0.995
 1164TIP3    H1 3498   3.537   0.763   1.040
 1164TIP3    H2 3499   3.386   0.773   1.038
 1165TIP3   OH2 3500   3.144   2.560   4.021
 1165TIP3    H1 3501   3.069   2.517   4.061
 1165TIP3    H2 3502   3.184   2.610   4.092
 1166TIP3   OH2 3503   2.227   1.530   3.501
 1166TIP3    H1 3504   2.259   1.599   3.443
 1166TIP3    H2 3505   2.306   1.486   3.532
 1167TIP3   OH2 3506   2.940   1.717   1.311
 1167TIP3    H1 3507   3.004   1.659   1.270
 1167TIP3    H2 3508   2.918   1.781   1.244
 1168TIP3   OH2 3509   5.622   1.514   1.015
 1168TIP3    H1 3510   5.566   1.464   1.074
 1168TIP3    H2 3511   5.582   1.601   1.013
 1169TIP3   OH2 3512   2.099   0.448   1.274
 1169TIP3    H1 3513   2.072   0.382   1.209
 1169TIP3    H2 3514   2.020   0.464   1.326
 1170TIP3   OH2 3515   1.906   5.357   1.247
 1170TIP3    H1 3516   1.986   5.378   1.296
 1170TIP3    H2 3517   1.907   5.262   1.241
 1171TIP3   OH2 3518   2.483   1.687   5.183
 1171TIP3    H1 3519   2.439   1.626   5.243
 1171TIP3    H2 3520   2.543   1.631   5.133
 1172TIP3   OH2 3521   0.059   4.603   2.071
 1172TIP3    H1 3522   0.129   4.539   2.082
 1172TIP3    H2 3523   0.103   4.688   2.078
 1173TIP3   OH2 3524   2.459   3.497   1.815
 1173TIP3    H1 3525   2.493   3.541   1.893
 1173TIP3    H2 3526   2.536   3.456   1.775
 1174TIP3   OH2 3527   3.397   0.019   3.848
 1174TIP3    H1 3528   3.312   0.055   3.873
 1174TIP3    H2 3529   3.426  -0.031   3.924
 1175TIP3   OH2 3530   4.382   3.972   0.095
 1175TIP3    H1 3531   4.329   3.912   0.042
 1175TIP3    H2 3532   4.399   4.047   0.038
 1176TIP3   OH2 3533   3.636   1.551   4.731
 1176TIP3    H1 3534   3.611   1.463   4.704
 1176TIP3    H2 3535   3.568   1.577   4.794
 1177TIP3   OH2 3536   0.793   4.939   3.111
 1177TIP3    H1 3537   0.726   4.915   3.047
 1177TIP3    H2 3538   0.870   4.889   3.085
 1178TIP3   OH2 3539   1.701   4.730   3.035
 1178TIP3    H1 3540   1.673   4.813   2.995
 1178TIP3    H2 3541   1.634   4.712   3.102
 1179TIP3   OH2 3542   5.087   3.737   1.461
 1179TIP3    H1 3543   5.133   3.665   1.419
 1179TIP3    H2 3544   5.115   3.815   1.413
 1180TIP3   OH2 3545   5.884   1.279   0.575
 1180TIP3    H1 3546   5.834   1.201   0.549
 1180TIP3    H2 3547   5.900   1.326   0.493
 1181TIP3   OH2 3548   6.251   4.002   3.243
 1181TIP3    H1 3549   6.277   3.966   3.158
 1181TIP3    H2 3550   6.333   4.008   3.292
 1182TIP3   OH2 3551   1.846   2.712   2.147
 1182TIP3    H1 3552   1.750   2.711   2.153
 1182TIP3    H2 3553   1.868   2.629   2.105
 1183TIP3   OH2 3554   5.745   3.516   2.516
 1183TIP3    H1 3555   5.806   3.581   2.483
 1183TIP3    H2 3556   5.754   3.442   2.457
 1184TIP3   OH2 3557   4.409   2.986   1.730
 1184TIP3    H1 3558   4.444   3.007   1.817
 1184TIP3    H2 3559   4.473   2.924   1.694
 1185TIP3   OH2 3560   3.809   4.389   2.512
 1185TIP3    H1 3561   3.756   4.336   2.572
 1185TIP3    H2 3562   3.745   4.433   2.456
 1186TIP3   OH2 3563   1.682   1.892   2.896
 1186TIP3    H1 3564   1.733   1.811   2.887
 1186TIP3    H2 3565   1.709   1.946   2.822
 1187TIP3   OH2 3566   0.487   3.985   1.598
 1187TIP3    H1 3567   0.413   4.021   1.648
 1187TIP3    H2 3568   0.483   4.032   1.514
 1188TIP3   OH2 3569   4.371   5.445   3.710
 1188TIP3    H1 3570   4.413   5.383   3.769
 1188TIP3    H2 3571   4.324   5.389   3.647
 1189TIP3   OH2 3572   1.336   2.375   0.872
 1189TIP3    H1 3573   1.409   2.389   0.933
 1189TIP3    H2 3574   1.266   2.432   0.904
 1190TIP3   OH2 3575   0.597   3.222   2.731
 1190TIP3    H1 3576   0.579   3.313   2.754
 1190TIP3    H2 3577   0.670   3.196   2.787
 1191TIP3   OH2 3578   3.281   0.171   0.158
 1191TIP3    H1 3579   3.331   0.147   0.080
 1191TIP3    H2 3580   3.190   0.164   0.132
 1192TIP3   OH2 3581   6.166   5.695   4.750
 1192TIP3    H1 3582   6.164   5.608   4.790
 1192TIP3    H2 3583   6.103   5.690   4.678
 1193TIP3   OH2 3584   5.635   5.617   2.900
 1193TIP3    H1 3585   5.657   5.703   2.934
 1193TIP3    H2 3586   5.547   5.627   2.864
 1194TIP3   OH2 3587   0.782   5.604   4.610
 1194TIP3    H1 3588   0.787   5.699   4.599
 1194TIP3    H2 3589   0.712   5.592   4.675
 1195TIP3   OH2 3590   0.179   0.637   0.627
 1195TIP3    H1 3591   0.215   0.678   0.548
 1195TIP3    H2 3592   0.085   0.635   0.612
 1196TIP3   OH2 3593   0.889   4.525   1.699
 1196TIP3    H1 3594   0.853   4.614   1.702
 1196TIP3    H2 3595   0.882   4.500   1.607
 1197TIP3   OH2 3596   3.270   1.466   4.508
 1197TIP3    H1 3597   3.208   1.475   4.436
 1197TIP3    H2 3598   3.272   1.553   4.549
 1198TIP3   OH2 3599   6.028   4.383   2.327
 1198TIP3    H1 3600   6.101   4.379   2.389
 1198TIP3    H2 3601   6.041   4.308   2.269
 1199TIP3   OH2 3602   1.950   3.044   1.766
 1199TIP3    H1 3603   1.977   3.115   1.824
 1199TIP3    H2 3604   1.866   3.015   1.801
 1200TIP3   OH2 3605   0.772   5.116   2.490
 1200TIP3    H1 3606   0.775   5.206   2.458
 1200TIP3    H2 3607   0.783   5.062   2.412
 1201TIP3   OH2 3608   4.401   4.371   3.935
 1201TIP3    H1 3609   4.380   4.326   3.853
 1201TIP3    H2 3610   4.331   4.344   3.995
 1202TIP3   OH2 3611   1.445   1.165   0.168
 1202TIP3    H1 3612   1.468   1.176   0.075
 1202TIP3    H2 3613   1.478   1.079   0.190
 1203TIP3   OH2 3614   3.325   0.446   0.181
 1203TIP3    H1 3615   3.415   0.477   0.192
 1203TIP3    H2 3616   3.329   0.353   0.205
 1204TIP3   OH2 3617   1.930   1.597   4.009
 1204TIP3    H1 3618   1.925   1.558   3.922
 1204TIP3    H2 3619   1.882   1.535   4.065
 1205TIP3   OH2 3620   5.237   0.445   4.236
 1205TIP3    H1 3621   5.145   0.442   4.262
 1205TIP3    H2 3622   5.255   0.355   4.206
 1206TIP3   OH2 3623   5.816   4.384   2.746
 1206TIP3    H1 3624   5.794   4.461   2.798
 1206TIP3    H2 3625   5.910   4.389   2.733
 1207TIP3   OH2 3626   6.000   3.808   3.075
 1207TIP3    H1 3627   5.952   3.838   3.152
 1207TIP3    H2 3628   6.091   3.803   3.104
 1208TIP3   OH2 3629   2.324   1.440   0.843
 1208TIP3    H1 3630   2.405   1.393   0.863
 1208TIP3    H2 3631   2.317   1.506   0.912
 1209TIP3   OH2 3632   3.487   5.496   3.187
 1209TIP3    H1 3633   3.517   5.408   3.208
 1209TIP3    H2 3634   3.564   5.551   3.197
 1210TIP3   OH2 3635   0.408   1.529   4.189
 1210TIP3    H1 3636   0.467   1.509   4.116
 1210TIP3    H2 3637   0.327   1.483   4.167
 1211TIP3   OH2 3638   1.305   1.100   4.874
 1211TIP3    H1 3639   1.331   1.038   4.942
 1211TIP3    H2 3640   1.388   1.136   4.842
 1212TIP3   OH2 3641   5.785   5.700   4.676
 1212TIP3    H1 3642   5.734   5.685   4.756
 1212TIP3    H2 3643   5.725   5.681   4.605
 1213TIP3   OH2 3644   3.856   2.053   1.954
 1213TIP3    H1 3645   3.861   1.983   1.888
 1213TIP3    H2 3646   3.840   2.132   1.904
 1214TIP3   OH2 3647   5.393   0.925   0.214
 1214TIP3    H1 3648   5.401   1.000   0.155
 1214TIP3    H2 3649   5.469   0.871   0.193
 1215TIP3   OH2 3650   2.009   2.636   3.729
 1215TIP3    H1 3651   2.031   2.543   3.738
 1215TIP3    H2 3652   2.062   2.666   3.655
 1216TIP3   OH2 3653   0.921   3.412   3.761
 1216TIP3    H1 3654   0.986   3.376   3.702
 1216TIP3    H2 3655   0.884   3.336   3.806
 1217TIP3   OH2 3656   4.369   1.895   4.957
 1217TIP3    H1 3657   4.330   1.807   4.949
 1217TIP3    H2 3658   4.342   1.940   4.877
 1218TIP3   OH2 3659   3.742   1.204   2.617
 1218TIP3    H1 3660   3.722   1.134   2.679
 1218TIP3    H2 3661   3.740   1.161   2.532
 1219TIP3   OH2 3662   1.004   5.488   4.989
 1219TIP3    H1 3663   1.040   5.576   4.999
 1219TIP3    H2 3664   1.062   5.433   5.042
 1220TIP3   OH2 3665   5.386   0.832   3.518
 1220TIP3    H1 3666   5.429   0.871   3.594
 1220TIP3    H2 3667   5.440   0.860   3.444
 1221TIP3   OH2 3668   0.468   1.984   1.495
 1221TIP3    H1 3669   0.402   2.045   1.464
 1221TIP3    H2 3670   0.424   1.900   1.497
 1222TIP3   OH2 3671   3.986   1.383   2.131
 1222TIP3    H1 3672   3.947   1.470   2.130
 1222TIP3    H2 3673   3.980   1.355   2.222
 1223TIP3   OH2 3674   4.772   3.395   2.574
 1223TIP3    H1 3675   4.821   3.464   2.528
 1223TIP3    H2 3676   4.758   3.327   2.508
 1224TIP3   OH2 3677   1.460   1.542   0.105
 1224TIP3    H1 3678   1.535   1.521   0.161
 1224TIP3    H2 3679   1.499   1.577   0.025
 1225TIP3   OH2 3680   0.537   3.536   1.757
 1225TIP3    H1 3681   0.500   3.472   1.696
 1225TIP3    H2 3682   0.609   3.489   1.800
 1226TIP3   OH2 3683   3.429   1.086   2.636
 1226TIP3    H1 3684   3.449   1.123   2.722
 1226TIP3    H2 3685   3.493   1.127   2.578
 1227TIP3   OH2 3686   3.822   0.252   0.946
 1227TIP3    H1 3687   3.737   0.228   0.983
 1227TIP3    H2 3688   3.809   0.339   0.910
 1228TIP3   OH2 3689   5.346   3.831   1.031
 1228TIP3    H1 3690   5.434   3.858   1.055
 1228TIP3    H2 3691   5.358   3.767   0.961
 1229TIP3   OH2 3692   1.675   3.109   3.764
 1229TIP3    H1 3693   1.724   3.029   3.783
 1229TIP3    H2 3694   1.742   3.178   3.758
 1230TIP3   OH2 3695   0.483   2.146   0.892
 1230TIP3    H1 3696   0.517   2.086   0.825
 1230TIP3    H2 3697   0.479   2.231   0.849
 1231TIP3   OH2 3698   4.122   0.078   0.263
 1231TIP3    H1 3699   4.179   0.007   0.293
 1231TIP3    H2 3700   4.116   0.138   0.337
 1232TIP3   OH2 3701   2.222   3.731   2.447
 1232TIP3    H1 3702   2.230   3.644   2.409
 1232TIP3    H2 3703   2.302   3.777   2.421
 1233TIP3   OH2 3704   2.615   2.554   4.019
 1233TIP3    H1 3705   2.684   2.594   3.966
 1233TIP3    H2 3706   2.569   2.628   4.058
 1234TIP3   OH2 3707   2.691   1.187   4.865
 1234TIP3    H1 3708   2.764   1.225   4.816
 1234TIP3    H2 3709   2.626   1.166   4.798
 1235TIP3   OH2 3710   4.476   3.956   1.685
 1235TIP3    H1 3711   4.431   3.914   1.612
 1235TIP3    H2 3712   4.557   3.990   1.646
 1236TIP3   OH2 3713   4.587   1.778   1.975
 1236TIP3    H1 3714   4.547   1.715   1.914
 1236TIP3    H2 3715   4.632   1.724   2.039
 1237TIP3   OH2 3716   1.204   0.977   0.429
 1237TIP3    H1 3717   1.292   0.947   0.454
 1237TIP3    H2 3718   1.173   1.026   0.505
 1238TIP3   OH2 3719   3.692   2.448   2.349
 1238TIP3    H1 3720   3.688   2.517   2.281
 1238TIP3    H2 3721   3.743   2.487   2.419
 1239TIP3   OH2 3722   3.510   0.932   2.324
 1239TIP3    H1 3723   3.601   0.909   2.309
 1239TIP3    H2 3724   3.461   0.851   2.311
 1240TIP3   OH2 3725   4.879   1.778   1.852
 1240TIP3    H1 3726   4.828   1.698   1.846
 1240TIP3    H2 3727   4.840   1.826   1.925
 1241TIP3   OH2 3728   1.293   1.726   2.137
 1241TIP3    H1 3729   1.224   1.751   2.075
 1241TIP3    H2 3730   1.253   1.736   2.223
 1242TIP3   OH2 3731   1.158   1.568   1.480
 1242TIP3    H1 3732   1.243   1.608   1.499
 1242TIP3    H2 3733   1.168   1.530   1.393
 1243TIP3   OH2 3734   3.621   4.015   0.134
 1243TIP3    H1 3735   3.537   4.055   0.156
 1243TIP3    H2 3736   3.610   3.922   0.154
 1244TIP3   OH2 3737   1.416   2.437   2.043
 1244TIP3    H1 3738   1.371   2.405   1.965
 1244TIP3    H2 3739   1.346   2.472   2.098
 1245TIP3   OH2 3740   5.024   4.737   4.642
 1245TIP3    H1 3741   5.116   4.766   4.641
 1245TIP3    H2 3742   5.025   4.658   4.696
 1246TIP3   OH2 3743   0.608   0.312   3.714
 1246TIP3    H1 3744   0.565   0.311   3.628
 1246TIP3    H2 3745   0.536   0.302   3.776
 1247TIP3   OH2 3746   3.272   5.087   0.588
 1247TIP3    H1 3747   3.243   4.999   0.611
 1247TIP3    H2 3748   3.224   5.145   0.647
 1248TIP3   OH2 3749   2.352   4.834   2.088
 1248TIP3    H1 3750   2.282   4.777   2.120
 1248TIP3    H2 3751   2.428   4.813   2.143
 1249TIP3   OH2 3752   1.069   4.534   0.442
 1249TIP3    H1 3753   1.162   4.556   0.434
 1249TIP3    H2 3754   1.046   4.559   0.532
 1250TIP3   OH2 3755   5.716   5.106   4.454
 1250TIP3    H1 3756   5.657   5.175   4.486
 1250TIP3    H2 3757   5.758   5.144   4.377
 1251TIP3   OH2 3758   2.493   1.084   3.384
 1251TIP3    H1 3759   2.495   1.153   3.451
 1251TIP3    H2 3760   2.409   1.096   3.340
 1252TIP3   OH2 3761   4.456   0.111   3.026
 1252TIP3    H1 3762   4.489   0.076   2.944
 1252TIP3    H2 3763   4.509   0.068   3.094
 1253TIP3   OH2 3764   3.966   0.974   1.676
 1253TIP3    H1 3765   3.915   1.051   1.700
 1253TIP3    H2 3766   4.046   0.981   1.728
 1254TIP3   OH2 3767   1.295   2.063   1.806
 1254TIP3    H1 3768   1.347   2.004   1.750
 1254TIP3    H2 3769   1.319   2.038   1.895
 1255TIP3   OH2 3770   1.217   3.152   4.328
 1255TIP3    H1 3771   1.249   3.067   4.298
 1255TIP3    H2 3772   1.279   3.215   4.291
 1256TIP3   OH2 3773   1.829   5.311   2.725
 1256TIP3    H1 3774   1.825   5.240   2.661
 1256TIP3    H2 3775   1.771   5.282   2.795
 1257TIP3   OH2 3776   1.260   4.261   4.252
 1257TIP3    H1 3777   1.285   4.218   4.169
 1257TIP3    H2 3778   1.170   4.234   4.266
 1258TIP3   OH2 3779   3.292   0.701   2.578
 1258TIP3    H1 3780   3.334   0.684   2.494
 1258TIP3    H2 3781   3.352   0.760   2.623
 1259TIP3   OH2 3782   0.592   0.791   2.844
 1259TIP3    H1 3783   0.630   0.760   2.926
 1259TIP3    H2 3784   0.662   0.842   2.803
 1260TIP3   OH2 3785   2.960   3.952   0.841
 1260TIP3    H1 3786   2.961   4.046   0.822
 1260TIP3    H2 3787   3.040   3.937   0.891
 1261TIP3   OH2 3788   1.283   0.257   2.405
 1261TIP3    H1 3789   1.340   0.334   2.399
 1261TIP3    H2 3790   1.241   0.251   2.319
 1262TIP3   OH2 3791   3.337   4.398   2.201
 1262TIP3    H1 3792   3.258   4.351   2.227
 1262TIP3    H2 3793   3.332   4.481   2.249
 1263TIP3   OH2 3794   0.950   1.153   3.823
 1263TIP3    H1 3795   0.955   1.097   3.746
 1263TIP3    H2 3796   1.034   1.197   3.826
 1264TIP3   OH2 3797   0.923   3.669   1.922
 1264TIP3    H1 3798   0.950   3.726   1.850
 1264TIP3    H2 3799   0.917   3.727   1.998
 1265TIP3   OH2 3800   5.900   1.871   4.289
 1265TIP3    H1 3801   5.876   1.796   4.235
 1265TIP3    H2 3802   5.993   1.883   4.275
 1266TIP3   OH2 3803   5.246   1.449   0.642
 1266TIP3    H1 3804   5.261   1.541   0.620
 1266TIP3    H2 3805   5.334   1.414   0.655
 1267TIP3   OH2 3806   1.136   3.705   1.016
 1267TIP3    H1 3807   1.161   3.666   1.100
 1267TIP3    H2 3808   1.153   3.798   1.027
 1268TIP3   OH2 3809   5.218   5.343   2.648
 1268TIP3    H1 3810   5.226   5.408   2.718
 1268TIP3    H2 3811   5.155   5.381   2.587
 1269TIP3   OH2 3812   4.178   2.802   1.143
 1269TIP3    H1 3813   4.170   2.893   1.171
 1269TIP3    H2 3814   4.097   2.760   1.173
 1270TIP3   OH2 3815   3.262   5.859   0.620
 1270TIP3    H1 3816   3.295   5.770   0.610
 1270TIP3    H2 3817   3.168   5.849   0.635
 1271TIP3   OH2 3818   2.497   0.235   4.245
 1271TIP3    H1 3819   2.496   0.324   4.280
 1271TIP3    H2 3820   2.590   0.217   4.229
 1272TIP3   OH2 3821   5.301   4.825   0.370
 1272TIP3    H1 3822   5.269   4.878   0.298
 1272TIP3    H2 3823   5.391   4.855   0.385
 1273TIP3   OH2 3824   1.797   0.272   0.545
 1273TIP3    H1 3825   1.854   0.339   0.508
 1273TIP3    H2 3826   1.799   0.288   0.640
 1274TIP3   OH2 3827   0.058   2.298   2.720
 1274TIP3    H1 3828   0.148   2.324   2.739
 1274TIP3    H2 3829   0.057   2.203   2.729
 1275TIP3   OH2 3830   1.788   0.930   3.501
 1275TIP3    H1 3831   1.808   1.023   3.500
 1275TIP3    H2 3832   1.868   0.887   3.470
 1276TIP3   OH2 3833   4.208   3.115   4.931
 1276TIP3    H1 3834   4.207   3.210   4.941
 1276TIP3    H2 3835   4.294   3.088   4.964
 1277TIP3   OH2 3836   2.300   1.035   4.506
 1277TIP3    H1 3837   2.228   1.000   4.453
 1277TIP3    H2 3838   2.341   0.958   4.545
 1278TIP3   OH2 3839   4.916   3.159   3.209
 1278TIP3    H1 3840   4.944   3.117   3.128
 1278TIP3    H2 3841   4.876   3.241   3.181
 1279TIP3   OH2 3842   5.431   3.752   0.405
 1279TIP3    H1 3843   5.388   3.776   0.323
 1279TIP3    H2 3844   5.398   3.665   0.425
 1280TIP3   OH2 3845   1.535   5.769   0.666
 1280TIP3    H1 3846   1.541   5.719   0.747
 1280TIP3    H2 3847   1.571   5.854   0.687
 1281TIP3   OH2 3848   1.886   3.695   5.152
 1281TIP3    H1 3849   1.941   3.735   5.220
 1281TIP3    H2 3850   1.948   3.659   5.089
 1282TIP3   OH2 3851   4.520   4.446   0.193
 1282TIP3    H1 3852   4.553   4.358   0.174
 1282TIP3    H2 3853   4.462   4.434   0.268
 1283TIP3   OH2 3854   5.746   0.608   2.507
 1283TIP3    H1 3855   5.824   0.593   2.453
 1283TIP3    H2 3856   5.684   0.541   2.478
 1284TIP3   OH2 3857   5.731   4.045   2.040
 1284TIP3    H1 3858   5.789   3.976   2.008
 1284TIP3    H2 3859   5.657   3.998   2.077
 1285TIP3   OH2 3860   3.246   0.169   3.597
 1285TIP3    H1 3861   3.268   0.085   3.635
 1285TIP3    H2 3862   3.318   0.188   3.536
 1286TIP3   OH2 3863   0.026   5.186   2.998
 1286TIP3    H1 3864   0.049   5.126   3.069
 1286TIP3    H2 3865   0.029   5.132   2.919
 1287TIP3   OH2 3866   3.390   0.635   3.081
 1287TIP3    H1 3867   3.434   0.589   3.010
 1287TIP3    H2 3868   3.461   0.680   3.128
 1288TIP3   OH2 3869   4.305   5.932   2.962
 1288TIP3    H1 3870   4.330   5.840   2.951
 1288TIP3    H2 3871   4.234   5.945   2.899
 1289TIP3   OH2 3872   1.982   4.284   4.028
 1289TIP3    H1 3873   1.955   4.286   3.936
 1289TIP3    H2 3874   1.992   4.376   4.052
 1290TIP3   OH2 3875   0.311   5.840   4.946
 1290TIP3    H1 3876   0.229   5.801   4.978
 1290TIP3    H2 3877   0.316   5.924   4.990
 1291TIP3   OH2 3878   3.790   5.856   4.933
 1291TIP3    H1 3879   3.695   5.846   4.924
 1291TIP3    H2 3880   3.814   5.920   4.866
 1292TIP3   OH2 3881   4.860   5.230   2.643
 1292TIP3    H1 3882   4.854   5.316   2.683
 1292TIP3    H2 3883   4.780   5.185   2.673
 1293TIP3   OH2 3884   5.930   5.728   0.534
 1293TIP3    H1 3885   5.896   5.816   0.552
 1293TIP3    H2 3886   6.010   5.722   0.586
 1294TIP3   OH2 3887   4.308   4.479   2.134
 1294TIP3    H1 3888   4.348   4.436   2.210
 1294TIP3    H2 3889   4.261   4.554   2.171
 1295TIP3   OH2 3890   1.367   4.859   1.637
 1295TIP3    H1 3891   1.394   4.767   1.642
 1295TIP3    H2 3892   1.425   4.904   1.698
 1296TIP3   OH2 3893   3.212   4.625   4.867
 1296TIP3    H1 3894   3.189   4.550   4.922
 1296TIP3    H2 3895   3.293   4.659   4.906
 1297TIP3   OH2 3896   5.911   3.185   1.237
 1297TIP3    H1 3897   5.897   3.092   1.222
 1297TIP3    H2 3898   5.950   3.217   1.156
 1298TIP3   OH2 3899   2.045   5.055   3.657
 1298TIP3    H1 3900   2.058   5.115   3.584
 1298TIP3    H2 3901   2.027   5.112   3.732
 1299TIP3   OH2 3902   6.309   3.865   3.016
 1299TIP3    H1 3903   6.390   3.904   2.982
 1299TIP3    H2 3904   6.320   3.771   3.004
 1300TIP3   OH2 3905   3.175   5.154   0.850
 1300TIP3    H1 3906   3.095   5.116   0.814
 1300TIP3    H2 3907   3.187   5.110   0.934
 1301TIP3   OH2 3908   6.197   5.117   2.254
 1301TIP3    H1 3909   6.270   5.144   2.199
 1301TIP3    H2 3910   6.238   5.076   2.330
 1302TIP3   OH2 3911   0.107   3.315   3.642
 1302TIP3    H1 3912   0.120   3.409   3.654
 1302TIP3    H2 3913   0.020   3.298   3.680
 1303TIP3   OH2 3914   1.158   2.766   4.337
 1303TIP3    H1 3915   1.066   2.765   4.364
 1303TIP3    H2 3916   1.206   2.786   4.417
 1304TIP3   OH2 3917   2.113   1.113   1.586
 1304TIP3    H1 3918   2.195   1.096   1.539
 1304TIP3    H2 3919   2.077   1.026   1.603
 1305TIP3   OH2 3920   4.125   3.685   3.137
 1305TIP3    H1 3921   4.100   3.776   3.121
 1305TIP3    H2 3922   4.127   3.644   3.051
 1306TIP3   OH2 3923   4.977   5.772   3.675
 1306TIP3    H1 3924   4.981   5.805   3.765
 1306TIP3    H2 3925   4.884   5.775   3.653
 1307TIP3   OH2 3926   1.873   5.519   2.246
 1307TIP3    H1 3927   1.895   5.607   2.215
 1307TIP3    H2 3928   1.866   5.466   2.167
 1308TIP3   OH2 3929   2.090   3.870   1.209
 1308TIP3    H1 3930   2.002   3.860   1.244
 1308TIP3    H2 3931   2.142   3.805   1.256
 1309TIP3   OH2 3932   0.713   3.752   2.572
 1309TIP3    H1 3933   0.674   3.668   2.551
 1309TIP3    H2 3934   0.781   3.732   2.637
 1310TIP3   OH2 3935   3.534   0.598   3.834
 1310TIP3    H1 3936   3.507   0.544   3.908
 1310TIP3    H2 3937   3.453   0.637   3.802
 1311TIP3   OH2 3938   5.878   5.661   3.425
 1311TIP3    H1 3939   5.875   5.593   3.358
 1311TIP3    H2 3940   5.788   5.690   3.434
 1312TIP3   OH2 3941   2.050   1.280   0.886
 1312TIP3    H1 3942   2.032   1.368   0.853
 1312TIP3    H2 3943   2.135   1.287   0.929
 1313TIP3   OH2 3944   0.044   2.902   0.902
 1313TIP3    H1 3945   0.064   2.924   0.993
 1313TIP3    H2 3946  -0.032   2.956   0.880
 1314TIP3   OH2 3947   6.101   2.156   2.727
 1314TIP3    H1 3948   6.044   2.085   2.698
 1314TIP3    H2 3949   6.179   2.147   2.673
 1315TIP3   OH2 3950   5.761   1.245   3.772
 1315TIP3    H1 3951   5.816   1.191   3.715
 1315TIP3    H2 3952   5.774   1.208   3.859
 1316TIP3   OH2 3953   0.140   1.960   4.964
 1316TIP3    H1 3954   0.130   2.042   5.013
 1316TIP3    H2 3955   0.217   1.918   5.003
 1317TIP3   OH2 3956   2.352   0.537   3.943
 1317TIP3    H1 3957   2.309   0.482   3.878
 1317TIP3    H2 3958   2.409   0.595   3.892
 1318TIP3   OH2 3959   3.827   4.651   4.625
 1318TIP3    H1 3960   3.866   4.738   4.631
 1318TIP3    H2 3961   3.898   4.591   4.647
 1319TIP3   OH2 3962   6.027   2.987   2.723
 1319TIP3    H1 3963   6.074   3.031   2.653
 1319TIP3    H2 3964   6.046   2.894   2.711
 1320TIP3   OH2 3965   3.534   0.254   4.981
 1320TIP3    H1 3966   3.597   0.182   4.968
 1320TIP3    H2 3967   3.516   0.286   4.893
 1321TIP3   OH2 3968   4.065   4.103   2.307
 1321TIP3    H1 3969   4.075   4.184   2.357
 1321TIP3    H2 3970   3.981   4.067   2.335
 1322TIP3   OH2 3971   3.145   0.634   1.371
 1322TIP3    H1 3972   3.146   0.546   1.407
 1322TIP3    H2 3973   3.055   0.648   1.342
 1323TIP3   OH2 3974   3.443   3.583   0.921
 1323TIP3    H1 3975   3.348   3.583   0.930
 1323TIP3    H2 3976   3.471   3.665   0.961
 1324TIP3   OH2 3977   2.057   3.363   4.642
 1324TIP3    H1 3978   2.148   3.376   4.670
 1324TIP3    H2 3979   2.006   3.377   4.722
 1325TIP3   OH2 3980   6.132   4.101   1.334
 1325TIP3    H1 3981   6.162   4.054   1.256
 1325TIP3    H2 3982   6.062   4.159   1.302
 1326TIP3   OH2 3983   3.082   0.442   4.682
 1326TIP3    H1 3984   3.034   0.409   4.605
 1326TIP3    H2 3985   3.069   0.375   4.748
 1327TIP3   OH2 3986   0.700   1.627   4.463
 1327TIP3    H1 3987   0.605   1.625   4.449
 1327TIP3    H2 3988   0.734   1.560   4.404
 1328TIP3   OH2 3989   4.238   5.628   3.023
 1328TIP3    H1 3990   4.206   5.619   2.933
 1328TIP3    H2 3991   4.165   5.597   3.077
 1329TIP3   OH2 3992   1.380   4.135   0.839
 1329TIP3    H1 3993   1.414   4.218   0.873
 1329TIP3    H2 3994   1.456   4.078   0.834
 1330TIP3   OH2 3995   5.110   1.583   4.340
 1330TIP3    H1 3996   5.061   1.504   4.319
 1330TIP3    H2 3997   5.188   1.580   4.285
 1331TIP3   OH2 3998   6.040   1.942   0.221
 1331TIP3    H1 3999   5.964   1.936   0.163
 1331TIP3    H2 4000   6.006   1.918   0.307
 1332TIP3   OH2 4001   2.515   5.939   1.590
 1332TIP3    H1 4002   2.573   6.014   1.595
 1332TIP3    H2 4003   2.433   5.969   1.628
 1333TIP3   OH2 4004   1.701   5.608   1.486
 1333TIP3    H1 4005   1.749   5.690   1.498
 1333TIP3    H2 4006   1.611   5.635   1.467
 1334TIP3   OH2 4007   0.876   5.429   4.109
 1334TIP3    H1 4008   0.829   5.359   4.153
 1334TIP3    H2 4009   0.960   5.435   4.154
 1335TIP3   OH2 4010   0.581   1.752   1.904
 1335TIP3    H1 4011   0.533   1.831   1.928
 1335TIP3    H2 4012   0.530   1.714   1.833
 1336TIP3   OH2 4013   4.544   0.313   4.032
 1336TIP3    H1 4014   4.469   0.263   4.063
 1336TIP3    H2 4015   4.511   0.362   3.956
 1337TIP3   OH2 4016   2.100   0.084   5.124
 1337TIP3    H1 4017   2.067   0.026   5.055
 1337TIP3    H2 4018   2.037   0.155   5.128
 1338TIP3   OH2 4019   0.145   0.907   3.120
 1338TIP3    H1 4020   0.199   0.973   3.077
 1338TIP3    H2 4021   0.131   0.941   3.209
 1339TIP3   OH2 4022   1.628   1.011   1.261
 1339TIP3    H1 4023   1.720   0.995   1.237
 1339TIP3    H2 4024   1.579   0.993   1.181
 1340TIP3   OH2 4025   4.966   0.415   3.158
 1340TIP3    H1 4026   4.924   0.360   3.225
 1340TIP3    H2 4027   4.920   0.392   3.077
 1341TIP3   OH2 4028   5.580   2.772   1.586
 1341TIP3    H1 4029   5.517   2.707   1.554
 1341TIP3    H2 4030   5.664   2.726   1.587
 1342TIP3   OH2 4031   0.535   0.261   1.715
 1342TIP3    H1 4032   0.552   0.171   1.685
 1342TIP3    H2 4033   0.511   0.251   1.807
 1343TIP3   OH2 4034   1.165   1.205   3.585
 1343TIP3    H1 4035   1.208   1.247   3.511
 1343TIP3    H2 4036   1.173   1.268   3.656
 1344TIP3   OH2 4037   2.481   1.914   3.813
 1344TIP3    H1 4038   2.543   1.860   3.862
 1344TIP3    H2 4039   2.466   1.866   3.732
 1345TIP3   OH2 4040   2.837   1.105   2.523
 1345TIP3    H1 4041   2.788   1.023   2.537
 1345TIP3    H2 4042   2.922   1.077   2.490
 1346TIP3   OH2 4043   2.005   3.480   3.965
 1346TIP3    H1 4044   1.962   3.439   4.040
 1346TIP3    H2 4045   1.980   3.426   3.890
 1347TIP3   OH2 4046   2.297   1.625   0.084
 1347TIP3    H1 4047   2.338   1.613   0.169
 1347TIP3    H2 4048   2.236   1.697   0.097
 1348TIP3   OH2 4049   5.052   4.347   1.025
 1348TIP3    H1 4050   5.047   4.383   1.114
 1348TIP3    H2 4051   5.060   4.425   0.969
 1349TIP3   OH2 4052   2.181   4.949   1.908
 1349TIP3    H1 4053   2.176   4.887   1.835
 1349TIP3    H2 4054   2.254   4.917   1.961
 1350TIP3   OH2 4055   3.792   3.050   0.850
 1350TIP3    H1 4056   3.819   3.082   0.764
 1350TIP3    H2 4057   3.741   2.971   0.831
 1351TIP3   OH2 4058   4.878   3.980   4.653
 1351TIP3    H1 4059   4.878   4.008   4.561
 1351TIP3    H2 4060   4.863   3.886   4.650
 1352TIP3   OH2 4061   3.757   5.663   0.282
 1352TIP3    H1 4062   3.742   5.626   0.369
 1352TIP3    H2 4063   3.832   5.721   0.294
 1353TIP3   OH2 4064   4.616   1.272   3.164
 1353TIP3    H1 4065   4.576   1.345   3.211
 1353TIP3    H2 4066   4.550   1.245   3.101
 1354TIP3   OH2 4067   0.348   2.669   4.503
 1354TIP3    H1 4068   0.419   2.666   4.439
 1354TIP3    H2 4069   0.391   2.650   4.587
 1355TIP3   OH2 4070   1.146   5.239   1.933
 1355TIP3    H1 4071   1.154   5.288   2.014
 1355TIP3    H2 4072   1.128   5.306   1.866
 1356TIP3   OH2 4073   5.689   4.977   3.492
 1356TIP3    H1 4074   5.624   4.971   3.561
 1356TIP3    H2 4075   5.761   4.921   3.521
 1357TIP3   OH2 4076   5.301   3.786   3.906
 1357TIP3    H1 4077   5.325   3.844   3.835
 1357TIP3    H2 4078   5.384   3.755   3.942
 1358TIP3   OH2 4079   2.375   2.836   3.311
 1358TIP3    H1 4080   2.374   2.906   3.376
 1358TIP3    H2 4081   2.298   2.853   3.256
 1359TIP3   OH2 4082   5.585   1.436   0.511
 1359TIP3    H1 4083   5.676   1.464   0.501
 1359TIP3    H2 4084   5.585   1.380   0.588
 1360TIP3   OH2 4085   5.994   3.172   0.533
 1360TIP3    H1 4086   5.953   3.097   0.577
 1360TIP3    H2 4087   6.085   3.147   0.522
 1361TIP3   OH2 4088   5.339   0.203  -0.027
 1361TIP3    H1 4089   5.304   0.263   0.039
 1361TIP3    H2 4090   5.378   0.132   0.023
 1362TIP3   OH2 4091   1.848   3.910   4.548
 1362TIP3    H1 4092   1.808   3.829   4.580
 1362TIP3    H2 4093   1.942   3.896   4.559
 1363TIP3   OH2 4094   1.150   5.555   0.998
 1363TIP3    H1 4095   1.119   5.499   0.927
 1363TIP3    H2 4096   1.203   5.498   1.052
 1364TIP3   OH2 4097   2.947   3.278   1.813
 1364TIP3    H1 4098   2.971   3.207   1.753
 1364TIP3    H2 4099   2.951   3.238   1.900
 1365TIP3   OH2 4100   4.640   4.365   0.978
 1365TIP3    H1 4101   4.719   4.351   1.030
 1365TIP3    H2 4102   4.671   4.366   0.888
 1366TIP3   OH2 4103   2.432   1.881   1.284
 1366TIP3    H1 4104   2.487   1.938   1.337
 1366TIP3    H2 4105   2.490   1.844   1.218
 1367TIP3   OH2 4106   5.867   2.179   3.995
 1367TIP3    H1 4107   5.850   2.087   3.974
 1367TIP3    H2 4108   5.846   2.226   3.914
 1368TIP3   OH2 4109   1.032   0.068   2.435
 1368TIP3    H1 4110   1.108   0.010   2.431
 1368TIP3    H2 4111   1.014   0.091   2.344
 1369TIP3   OH2 4112   5.028   2.515   5.153
 1369TIP3    H1 4113   5.111   2.559   5.169
 1369TIP3    H2 4114   5.049   2.446   5.090
 1370TIP3   OH2 4115   1.354   5.339   3.540
 1370TIP3    H1 4116   1.337   5.387   3.459
 1370TIP3    H2 4117   1.388   5.406   3.600
 1371TIP3   OH2 4118   1.818   1.904   0.031
 1371TIP3    H1 4119   1.897   1.861  -0.001
 1371TIP3    H2 4120   1.760   1.833   0.058
 1372TIP3   OH2 4121   2.195   2.143   3.113
 1372TIP3    H1 4122   2.181   2.206   3.042
 1372TIP3    H2 4123   2.137   2.070   3.092
 1373TIP3   OH2 4124   2.588   5.142   2.360
 1373TIP3    H1 4125   2.495   5.137   2.338
 1373TIP3    H2 4126   2.630   5.079   2.302
 1374TIP3   OH2 4127   3.498   4.917   1.366
 1374TIP3    H1 4128   3.592   4.915   1.385
 1374TIP3    H2 4129   3.468   4.828   1.385
 1375TIP3   OH2 4130   0.900   0.127   1.192
 1375TIP3    H1 4131   0.893   0.055   1.254
 1375TIP3    H2 4132   0.892   0.206   1.246
 1376TIP3   OH2 4133   0.026   3.380   4.344
 1376TIP3    H1 4134  -0.014   3.293   4.333
 1376TIP3    H2 4135   0.020   3.397   4.438
 1377TIP3   OH2 4136   2.390   1.980   3.494
 1377TIP3    H1 4137   2.374   2.074   3.498
 1377TIP3    H2 4138   2.475   1.968   3.536
 1378TIP3   OH2 4139   5.019   3.204   0.439
 1378TIP3    H1 4140   5.101   3.178   0.482
 1378TIP3    H2 4141   4.964   3.236   0.511
 1379TIP3   OH2 4142   3.184   1.874   2.558
 1379TIP3    H1 4143   3.206   1.863   2.650
 1379TIP3    H2 4144   3.094   1.844   2.551
 1380TIP3   OH2 4145   4.103   0.266   1.753
 1380TIP3    H1 4146   4.173   0.328   1.772
 1380TIP3    H2 4147   4.135   0.182   1.786
 1381TIP3   OH2 4148   4.826   2.699   4.436
 1381TIP3    H1 4149   4.851   2.647   4.360
 1381TIP3    H2 4150   4.742   2.663   4.464
 1382TIP3   OH2 4151   4.080   3.516   0.374
 1382TIP3    H1 4152   3.998   3.550   0.338
 1382TIP3    H2 4153   4.073   3.530   0.468
 1383TIP3   OH2 4154   4.866   1.445   3.299
 1383TIP3    H1 4155   4.812   1.428   3.222
 1383TIP3    H2 4156   4.806   1.482   3.364
 1384TIP3   OH2 4157   5.342   4.265   3.358
 1384TIP3    H1 4158   5.404   4.309   3.300
 1384TIP3    H2 4159   5.340   4.319   3.437
 1385TIP3   OH2 4160   4.125   0.975   3.823
 1385TIP3    H1 4161   4.087   0.887   3.818
 1385TIP3    H2 4162   4.051   1.033   3.835
 1386TIP3   OH2 4163   3.973   3.470   2.076
 1386TIP3    H1 4164   4.006   3.391   2.118
 1386TIP3    H2 4165   3.946   3.441   1.989
 1387TIP3   OH2 4166   3.337   1.726   4.220
 1387TIP3    H1 4167   3.362   1.692   4.135
 1387TIP3    H2 4168   3.296   1.652   4.265
 1388TIP3   OH2 4169   1.375   5.673   0.370
 1388TIP3    H1 4170   1.440   5.725   0.417
 1388TIP3    H2 4171   1.292   5.717   0.387
 1389TIP3   OH2 4172   2.205   3.636   1.340
 1389TIP3    H1 4173   2.205   3.542   1.319
 1389TIP3    H2 4174   2.253   3.642   1.422
 1390TIP3   OH2 4175   2.384   4.193   2.361
 1390TIP3    H1 4176   2.452   4.260   2.353
 1390TIP3    H2 4177   2.351   4.204   2.450
 1391TIP3   OH2 4178   4.271   1.412   5.103
 1391TIP3    H1 4179   4.326   1.347   5.059
 1391TIP3    H2 4180   4.197   1.362   5.137
 1392TIP3   OH2 4181   5.867   0.066   3.257
 1392TIP3    H1 4182   5.932   0.120   3.302
 1392TIP3    H2 4183   5.800   0.128   3.229
 1393TIP3   OH2 4184   2.295   4.707   4.735
 1393TIP3    H1 4185   2.326   4.764   4.665
 1393TIP3    H2 4186   2.324   4.619   4.709
 1394TIP3   OH2 4187   4.870   3.613   1.369
 1394TIP3    H1 4188   4.812   3.607   1.445
 1394TIP3    H2 4189   4.940   3.672   1.397
 1395TIP3   OH2 4190   4.257   1.973   2.309
 1395TIP3    H1 4191   4.235   1.951   2.218
 1395TIP3    H2 4192   4.229   1.897   2.359
 1396TIP3   OH2 4193   0.528   4.758   4.742
 1396TIP3    H1 4194   0.603   4.817   4.735
 1396TIP3    H2 4195   0.510   4.753   4.836
 1397TIP3   OH2 4196   3.867   4.269   4.054
 1397TIP3    H1 4197   3.845   4.302   4.142
 1397TIP3    H2 4198   3.940   4.209   4.069
 1398TIP3   OH2 4199   4.319   0.404   1.008
 1398TIP3    H1 4200   4.286   0.494   1.007
 1398TIP3    H2 4201   4.265   0.360   1.074
 1399TIP3   OH2 4202   3.584   3.892   2.312
 1399TIP3    H1 4203   3.552   3.979   2.336
 1399TIP3    H2 4204   3.553   3.835   2.383
 1400TIP3   OH2 4205   5.068   4.566   3.710
 1400TIP3    H1 4206   5.150   4.612   3.721
 1400TIP3    H2 4207   5.040   4.544   3.799
 1401TIP3   OH2 4208   2.446   2.120   1.436
 1401TIP3    H1 4209   2.420   2.147   1.348
 1401TIP3    H2 4210   2.364   2.104   1.481
 1402TIP3   OH2 4211   5.069   5.331   0.628
 1402TIP3    H1 4212   4.990   5.330   0.683
 1402TIP3    H2 4213   5.112   5.248   0.646
 1403TIP3   OH2 4214   4.995   3.817   1.710
 1403TIP3    H1 4215   4.900   3.816   1.694
 1403TIP3    H2 4216   5.033   3.782   1.629
 1404TIP3   OH2 4217   4.258   1.123   1.041
 1404TIP3    H1 4218   4.336   1.178   1.043
 1404TIP3    H2 4219   4.204   1.154   1.114
 1405TIP3   OH2 4220   5.210   2.671   0.607
 1405TIP3    H1 4221   5.256   2.590   0.627
 1405TIP3    H2 4222   5.239   2.693   0.519
 1406TIP3   OH2 4223   0.832   4.136   2.678
 1406TIP3    H1 4224   0.867   4.092   2.755
 1406TIP3    H2 4225   0.737   4.137   2.692
 1407TIP3   OH2 4226   1.694   3.791   3.830
 1407TIP3    H1 4227   1.767   3.811   3.771
 1407TIP3    H2 4228   1.653   3.714   3.792
 1408TIP3   OH2 4229   3.460   1.362   0.046
 1408TIP3    H1 4230   3.400   1.378   0.119
 1408TIP3    H2 4231   3.492   1.273   0.062
 1409TIP3   OH2 4232   2.454   4.794   4.023
 1409TIP3    H1 4233   2.457   4.750   4.108
 1409TIP3    H2 4234   2.381   4.856   4.031
 1410TIP3   OH2 4235   0.663   2.650   0.696
 1410TIP3    H1 4236   0.742   2.701   0.680
 1410TIP3    H2 4237   0.592   2.714   0.692
 1411TIP3   OH2 4238   0.227   3.193   0.142
 1411TIP3    H1 4239   0.258   3.265   0.197
 1411TIP3    H2 4240   0.307   3.149   0.113
 1412TIP3   OH2 4241   3.898   5.535   0.846
 1412TIP3    H1 4242   3.946   5.500   0.771
 1412TIP3    H2 4243   3.830   5.470   0.863
 1413TIP3   OH2 4244   2.007   1.196   5.105
 1413TIP3    H1 4245   2.054   1.122   5.068
 1413TIP3    H2 4246   1.969   1.162   5.186
 1414TIP3   OH2 4247   0.233   0.112   0.948
 1414TIP3    H1 4248   0.164   0.075   1.002
 1414TIP3    H2 4249   0.190   0.137   0.866
 1415TIP3   OH2 4250   2.576   0.369   3.723
 1415TIP3    H1 4251   2.485   0.340   3.715
 1415TIP3    H2 4252   2.613   0.311   3.790
 1416TIP3   OH2 4253   2.726   2.663   4.262
 1416TIP3    H1 4254   2.801   2.606   4.247
 1416TIP3    H2 4255   2.666   2.612   4.316
 1417TIP3   OH2 4256   3.653   5.724   4.504
 1417TIP3    H1 4257   3.574   5.756   4.548
 1417TIP3    H2 4258   3.621   5.684   4.423
 1418TIP3   OH2 4259   1.602   1.200   3.737
 1418TIP3    H1 4260   1.672   1.209   3.801
 1418TIP3    H2 4261   1.647   1.173   3.657
 1419TIP3   OH2 4262   3.856   5.362   0.327
 1419TIP3    H1 4263   3.832   5.278   0.367
 1419TIP3    H2 4264   3.887   5.339   0.240
 1420TIP3   OH2 4265   0.845   5.798   1.436
 1420TIP3    H1 4266   0.805   5.719   1.399
 1420TIP3    H2 4267   0.938   5.790   1.416
 1421TIP3   OH2 4268   5.216   2.656   1.954
 1421TIP3    H1 4269   5.211   2.583   1.893
 1421TIP3    H2 4270   5.130   2.657   1.997
 1422TIP3   OH2 4271   0.818   0.975   2.778
 1422TIP3    H1 4272   0.822   0.991   2.684
 1422TIP3    H2 4273   0.905   0.944   2.802
 1423TIP3   OH2 4274   5.293   0.851   0.461
 1423TIP3    H1 4275   5.322   0.869   0.371
 1423TIP3    H2 4276   5.346   0.776   0.488
 1424TIP3   OH2 4277   1.455   1.005   4.573
 1424TIP3    H1 4278   1.410   0.969   4.496
 1424TIP3    H2 4279   1.548   0.992   4.553
 1425TIP3   OH2 4280   6.319   2.733   0.702
 1425TIP3    H1 4281   6.254   2.773   0.644
 1425TIP3    H2 4282   6.357   2.806   0.750
 1426TIP3   OH2 4283   1.775   0.358   2.540
 1426TIP3    H1 4284   1.797   0.423   2.473
 1426TIP3    H2 4285   1.831   0.381   2.614
 1427TIP3   OH2 4286   2.480   1.378   0.545
 1427TIP3    H1 4287   2.437   1.314   0.601
 1427TIP3    H2 4288   2.568   1.343   0.532
 1428TIP3   OH2 4289   5.630   4.604   1.898
 1428TIP3    H1 4290   5.549   4.562   1.929
 1428TIP3    H2 4291   5.603   4.653   1.820
 1429TIP3   OH2 4292   6.035   1.294   2.032
 1429TIP3    H1 4293   5.942   1.294   2.011
 1429TIP3    H2 4294   6.050   1.209   2.074
 1430TIP3   OH2 4295   0.617   3.573   1.030
 1430TIP3    H1 4296   0.707   3.595   1.010
 1430TIP3    H2 4297   0.622   3.525   1.113
 1431TIP3   OH2 4298   4.739   5.478   1.109
 1431TIP3    H1 4299   4.779   5.565   1.114
 1431TIP3    H2 4300   4.810   5.417   1.126
 1432TIP3   OH2 4301   6.023   3.669   3.649
 1432TIP3    H1 4302   6.088   3.736   3.624
 1432TIP3    H2 4303   6.068   3.616   3.715
 1433TIP3   OH2 4304   5.113   2.467   4.733
 1433TIP3    H1 4305   5.158   2.424   4.661
 1433TIP3    H2 4306   5.021   2.447   4.720
 1434TIP3   OH2 4307   5.155   4.849   0.844
 1434TIP3    H1 4308   5.125   4.848   0.753
 1434TIP3    H2 4309   5.247   4.825   0.839
 1435TIP3   OH2 4310   0.975   5.332   1.241
 1435TIP3    H1 4311   0.936   5.283   1.314
 1435TIP3    H2 4312   0.902   5.346   1.180
 1436TIP3   OH2 4313   0.051   2.374   3.051
 1436TIP3    H1 4314   0.015   2.407   3.133
 1436TIP3    H2 4315   0.131   2.425   3.037
 1437TIP3   OH2 4316   1.512   2.136   4.284
 1437TIP3    H1 4317   1.438   2.157   4.227
 1437TIP3    H2 4318   1.504   2.197   4.357
 1438TIP3   OH2 4319   1.128   1.411   3.023
 1438TIP3    H1 4320   1.162   1.343   2.965
 1438TIP3    H2 4321   1.174   1.398   3.106
 1439TIP3   OH2 4322   2.373   5.926   3.678
 1439TIP3    H1 4323   2.311   5.994   3.650
 1439TIP3    H2 4324   2.454   5.974   3.698
 1440TIP3   OH2 4325   1.285   4.683   0.606
 1440TIP3    H1 4326   1.281   4.665   0.700
 1440TIP3    H2 4327   1.284   4.778   0.600
 1441TIP3   OH2 4328   0.880   1.029   1.258
 1441TIP3    H1 4329   0.880   1.000   1.349
 1441TIP3    H2 4330   0.831   0.961   1.211
 1442TIP3   OH2 4331   5.711   1.422   1.467
 1442TIP3    H1 4332   5.778   1.481   1.433
 1442TIP3    H2 4333   5.633   1.442   1.416
 1443TIP3   OH2 4334   2.594   5.135   0.675
 1443TIP3    H1 4335   2.575   5.208   0.616
 1443TIP3    H2 4336   2.687   5.118   0.664
 1444TIP3   OH2 4337   5.432   0.040   0.423
 1444TIP3    H1 4338   5.410  -0.024   0.490
 1444TIP3    H2 4339   5.527   0.035   0.414
 1445TIP3   OH2 4340   3.095   3.504   1.931
 1445TIP3    H1 4341   3.070   3.550   1.851
 1445TIP3    H2 4342   3.069   3.414   1.916
 1446TIP3   OH2 4343   5.214   2.752   2.395
 1446TIP3    H1 4344   5.128   2.735   2.357
 1446TIP3    H2 4345   5.204   2.728   2.487
 1447TIP3   OH2 4346   2.181   3.873   5.005
 1447TIP3    H1 4347   2.200   3.915   5.089
 1447TIP3    H2 4348   2.267   3.850   4.969
 1448TIP3   OH2 4349   1.044   4.394   3.799
 1448TIP3    H1 4350   0.962   4.362   3.762
 1448TIP3    H2 4351   1.022   4.419   3.889
 1449TIP3   OH2 4352   5.757   1.356   2.650
 1449TIP3    H1 4353   5.827   1.299   2.681
 1449TIP3    H2 4354   5.733   1.409   2.726
 1450TIP3   OH2 4355   1.347   1.986   1.113
 1450TIP3    H1 4356   1.437   1.968   1.138
 1450TIP3    H2 4357   1.317   2.052   1.176
 1451TIP3   OH2 4358   5.027   2.258   1.288
 1451TIP3    H1 4359   5.035   2.204   1.210
 1451TIP3    H2 4360   5.027   2.195   1.360
 1452TIP3   OH2 4361   2.008   0.071   2.465
 1452TIP3    H1 4362   1.990   0.018   2.543
 1452TIP3    H2 4363   2.083   0.028   2.424
 1453TIP3   OH2 4364   1.498   5.455   4.068
 1453TIP3    H1 4365   1.500   5.478   4.161
 1453TIP3    H2 4366   1.564   5.512   4.028
 1454TIP3   OH2 4367   0.274   0.460   4.822
 1454TIP3    H1 4368   0.358   0.495   4.853
 1454TIP3    H2 4369   0.239   0.528   4.765
 1455TIP3   OH2 4370   5.637   1.136   0.282
 1455TIP3    H1 4371   5.659   1.052   0.240
 1455TIP3    H2 4372   5.694   1.140   0.358
 1456TIP3   OH2 4373   4.700   2.300   5.147
 1456TIP3    H1 4374   4.704   2.303   5.052
 1456TIP3    H2 4375   4.755   2.373   5.176
 1457TIP3   OH2 4376   4.661   1.784   2.503
 1457TIP3    H1 4377   4.600   1.849   2.469
 1457TIP3    H2 4378   4.730   1.835   2.546
 1458TIP3   OH2 4379   0.607   5.493   0.545
 1458TIP3    H1 4380   0.664   5.495   0.468
 1458TIP3    H2 4381   0.527   5.451   0.515
 1459TIP3   OH2 4382   3.331   1.076   2.011
 1459TIP3    H1 4383   3.283   1.060   2.092
 1459TIP3    H2 4384   3.374   0.992   1.991
 1460TIP3   OH2 4385   3.036   1.673   3.847
 1460TIP3    H1 4386   3.088   1.592   3.854
 1460TIP3    H2 4387   3.044   1.713   3.933
 1461TIP3   OH2 4388   4.386   0.553   1.363
 1461TIP3    H1 4389   4.361   0.476   1.415
 1461TIP3    H2 4390   4.304   0.581   1.322
 1462TIP3   OH2 4391   5.167   2.137   2.616
 1462TIP3    H1 4392   5.112   2.148   2.694
 1462TIP3    H2 4393   5.115   2.171   2.544
 1463TIP3   OH2 4394   3.899   2.881   4.825
 1463TIP3    H1 4395   3.969   2.938   4.792
 1463TIP3    H2 4396   3.907   2.886   4.920
 1464TIP3   OH2 4397   5.319   4.420   3.833
 1464TIP3    H1 4398   5.389   4.410   3.897
 1464TIP3    H2 4399   5.250   4.467   3.881
 1465TIP3   OH2 4400   6.094   4.787   3.264
 1465TIP3    H1 4401   6.172   4.794   3.209
 1465TIP3    H2 4402   6.123   4.736   3.340
 1466TIP3   OH2 4403   6.107   5.149   3.135
 1466TIP3    H1 4404   6.025   5.166   3.089
 1466TIP3    H2 4405   6.175   5.160   3.068
 1467TIP3   OH2 4406   1.810   1.403   4.142
 1467TIP3    H1 4407   1.742   1.365   4.086
 1467TIP3    H2 4408   1.873   1.332   4.155
 1468TIP3   OH2 4409   1.359   4.336   5.017
 1468TIP3    H1 4410   1.396   4.318   5.104
 1468TIP3    H2 4411   1.400   4.272   4.959
 1469TIP3   OH2 4412   1.066   5.952   4.180
 1469TIP3    H1 4413   0.993   5.935   4.239
 1469TIP3    H2 4414   1.139   5.975   4.237
 1470TIP3   OH2 4415   2.839   0.220   0.114
 1470TIP3    H1 4416   2.806   0.136   0.147
 1470TIP3    H2 4417   2.916   0.238   0.168
 1471TIP3   OH2 4418   4.357   0.157   4.806
 1471TIP3    H1 4419   4.358   0.103   4.727
 1471TIP3    H2 4420   4.284   0.124   4.858
 1472TIP3   OH2 4421   0.774   5.022   0.925
 1472TIP3    H1 4422   0.828   4.955   0.884
 1472TIP3    H2 4423   0.705   4.972   0.970
 1473TIP3   OH2 4424   5.903   1.840   4.645
 1473TIP3    H1 4425   5.918   1.916   4.588
 1473TIP3    H2 4426   5.955   1.770   4.606
 1474TIP3   OH2 4427   1.214   1.558   0.277
 1474TIP3    H1 4428   1.191   1.466   0.264
 1474TIP3    H2 4429   1.286   1.573   0.215
 1475TIP3   OH2 4430   2.090   5.266   3.467
 1475TIP3    H1 4431   2.059   5.346   3.510
 1475TIP3    H2 4432   2.156   5.296   3.405
 1476TIP3   OH2 4433   5.553   0.458   2.414
 1476TIP3    H1 4434   5.555   0.390   2.347
 1476TIP3    H2 4435   5.478   0.513   2.390
 1477TIP3   OH2 4436   1.175   2.833   1.054
 1477TIP3    H1 4437   1.138   2.772   1.118
 1477TIP3    H2 4438   1.110   2.903   1.048
 1478TIP3   OH2 4439   2.029   1.954   0.392
 1478TIP3    H1 4440   1.964   2.012   0.351
 1478TIP3    H2 4441   1.989   1.928   0.474
 1479TIP3   OH2 4442   5.628   0.736   1.550
 1479TIP3    H1 4443   5.635   0.643   1.528
 1479TIP3    H2 4444   5.558   0.769   1.493
 1480TIP3   OH2 4445   4.891   3.664   3.219
 1480TIP3    H1 4446   4.945   3.727   3.268
 1480TIP3    H2 4447   4.808   3.663   3.265
 1481TIP3   OH2 4448   4.362   2.237   3.427
 1481TIP3    H1 4449   4.305   2.220   3.502
 1481TIP3    H2 4450   4.387   2.150   3.396
 1482TIP3   OH2 4451   0.038   5.997   0.185
 1482TIP3    H1 4452  -0.007   6.067   0.233
 1482TIP3    H2 4453  -0.030   5.959   0.129
 1483TIP3   OH2 4454   2.180   1.356   4.309
 1483TIP3    H1 4455   2.160   1.342   4.216
 1483TIP3    H2 4456   2.275   1.366   4.312
 1484TIP3   OH2 4457   1.797   5.988   1.486
 1484TIP3    H1 4458   1.852   5.942   1.550
 1484TIP3    H2 4459   1.715   6.005   1.534
 1485TIP3   OH2 4460   0.158   5.924   2.466
 1485TIP3    H1 4461   0.192   5.838   2.441
 1485TIP3    H2 4462   0.157   5.924   2.561
 1486TIP3   OH2 4463   4.034   0.620   4.111
 1486TIP3    H1 4464   4.115   0.646   4.067
 1486TIP3    H2 4465   4.024   0.683   4.182
 1487TIP3   OH2 4466   3.055   2.952   2.938
 1487TIP3    H1 4467   3.055   3.018   2.869
 1487TIP3    H2 4468   3.118   2.985   3.002
 1488TIP3   OH2 4469   5.597   4.655   2.679
 1488TIP3    H1 4470   5.634   4.667   2.767
 1488TIP3    H2 4471   5.645   4.717   2.625
 1489TIP3   OH2 4472   0.266   4.623   0.536
 1489TIP3    H1 4473   0.203   4.693   0.550
 1489TIP3    H2 4474   0.275   4.616   0.441
 1490TIP3   OH2 4475   4.914   1.378   2.896
 1490TIP3    H1 4476   4.864   1.443   2.946
 1490TIP3    H2 4477   5.006   1.399   2.914
 1491TIP3   OH2 4478   0.862   4.194   1.849
 1491TIP3    H1 4479   0.956   4.196   1.830
 1491TIP3    H2 4480   0.857   4.168   1.941
 1492TIP3   OH2 4481   2.797   5.159   3.062
 1492TIP3    H1 4482   2.828   5.173   3.151
 1492TIP3    H2 4483   2.877   5.155   3.009
 1493TIP3   OH2 4484   1.765   0.471   2.807
 1493TIP3    H1 4485   1.685   0.424   2.829
 1493TIP3    H2 4486   1.832   0.431   2.863
 1494TIP3   OH2 4487   1.141   5.714   4.972
 1494TIP3    H1 4488   1.184   5.727   4.887
 1494TIP3    H2 4489   1.066   5.773   4.970
 1495TIP3   OH2 4490   4.205   1.675   2.358
 1495TIP3    H1 4491   4.286   1.647   2.400
 1495TIP3    H2 4492   4.142   1.683   2.429
 1496TIP3   OH2 4493   5.539   2.909   0.429
 1496TIP3    H1 4494   5.444   2.911   0.429
 1496TIP3    H2 4495   5.564   2.911   0.337
 1497TIP3   OH2 4496   4.069   1.725   0.071
 1497TIP3    H1 4497   4.023   1.805   0.097
 1497TIP3    H2 4498   4.147   1.723   0.127
 1498TIP3   OH2 4499   2.310   1.653   3.896
 1498TIP3    H1 4500   2.322   1.682   3.987
 1498TIP3    H2 4501   2.215   1.652   3.884
 1499TIP3   OH2 4502   4.268   3.092   2.498
 1499TIP3    H1 4503   4.286   3.171   2.549
 1499TIP3    H2 4504   4.173   3.092   2.486
 1500TIP3   OH2 4505   3.525   4.001   3.796
 1500TIP3    H1 4506   3.576   3.950   3.733
 1500TIP3    H2 4507   3.576   4.080   3.810
 1501TIP3   OH2 4508   5.670   2.264   1.875
 1501TIP3    H1 4509   5.680   2.170   1.887
 1501TIP3    H2 4510   5.599   2.273   1.812
 1502TIP3   OH2 4511   6.006   4.480   3.522
 1502TIP3    H1 4512   6.085   4.433   3.497
 1502TIP3    H2 4513   6.007   4.480   3.617
 1503TIP3   OH2 4514   5.650   0.551   0.103
 1503TIP3    H1 4515   5.742   0.566   0.079
 1503TIP3    H2 4516   5.623   0.478   0.047
 1504TIP3   OH2 4517   0.450   5.724   1.400
 1504TIP3    H1 4518   0.367   5.758   1.432
 1504TIP3    H2 4519   0.470   5.650   1.457
 1505TIP3   OH2 4520   3.607   1.618   1.840
 1505TIP3    H1 4521   3.608   1.536   1.791
 1505TIP3    H2 4522   3.579   1.593   1.928
 1506TIP3   OH2 4523   4.688   0.535   2.516
 1506TIP3    H1 4524   4.621   0.569   2.457
 1506TIP3    H2 4525   4.743   0.481   2.460
 1507TIP3   OH2 4526   4.767   4.615   1.093
 1507TIP3    H1 4527   4.712   4.586   1.020
 1507TIP3    H2 4528   4.764   4.542   1.155
 1508TIP3   OH2 4529   5.589   0.895   3.327
 1508TIP3    H1 4530   5.654   0.850   3.273
 1508TIP3    H2 4531   5.632   0.976   3.354
 1509TIP3   OH2 4532   0.958   0.814   4.840
 1509TIP3    H1 4533   1.001   0.858   4.766
 1509TIP3    H2 4534   0.942   0.725   4.808
 1510TIP3   OH2 4535   3.897   4.110   1.196
 1510TIP3    H1 4536   3.957   4.178   1.225
 1510TIP3    H2 4537   3.899   4.045   1.267
 1511TIP3   OH2 4538   2.600   0.671   0.226
 1511TIP3    H1 4539   2.686   0.694   0.260
 1511TIP3    H2 4540   2.569   0.601   0.283
 1512TIP3   OH2 4541   4.575   4.802   3.376
 1512TIP3    H1 4542   4.593   4.802   3.470
 1512TIP3    H2 4543   4.570   4.894   3.352
 1513TIP3   OH2 4544   0.689   2.131   2.204
 1513TIP3    H1 4545   0.760   2.111   2.143
 1513TIP3    H2 4546   0.729   2.190   2.269
 1514TIP3   OH2 4547   3.292   2.728   0.876
 1514TIP3    H1 4548   3.368   2.777   0.908
 1514TIP3    H2 4549   3.309   2.716   0.783
 1515TIP3   OH2 4550   2.434   5.921   2.731
 1515TIP3    H1 4551   2.452   5.831   2.705
 1515TIP3    H2 4552   2.366   5.950   2.671
 1516TIP3   OH2 4553   3.712   2.814   1.100
 1516TIP3    H1 4554   3.673   2.878   1.041
 1516TIP3    H2 4555   3.807   2.828   1.091
 1517TIP3   OH2 4556   5.075   0.646   3.059
 1517TIP3    H1 4557   5.034   0.576   3.109
 1517TIP3    H2 4558   5.117   0.602   2.985
 1518TIP3   OH2 4559   5.514   5.691   2.170
 1518TIP3    H1 4560   5.511   5.637   2.091
 1518TIP3    H2 4561   5.503   5.781   2.137
 1519TIP3   OH2 4562   5.081   1.738   2.834
 1519TIP3    H1 4563   5.083   1.833   2.841
 1519TIP3    H2 4564   5.056   1.708   2.922
 1520TIP3   OH2 4565   3.541   5.120   4.680
 1520TIP3    H1 4566   3.587   5.036   4.680
 1520TIP3    H2 4567   3.577   5.167   4.756
 1521TIP3   OH2 4568   5.548   0.372   1.357
 1521TIP3    H1 4569   5.612   0.437   1.385
 1521TIP3    H2 4570   5.551   0.375   1.261
 1522TIP3   OH2 4571   0.473   0.045   0.382
 1522TIP3    H1 4572   0.503   0.067   0.471
 1522TIP3    H2 4573   0.534  -0.023   0.352
 1523TIP3   OH2 4574   0.429   1.896   2.512
 1523TIP3    H1 4575   0.473   1.814   2.489
 1523TIP3    H2 4576   0.455   1.957   2.443
 1524TIP3   OH2 4577   1.811   3.920   0.184
 1524TIP3    H1 4578   1.865   3.841   0.180
 1524TIP3    H2 4579   1.723   3.888   0.203
 1525TIP3   OH2 4580   4.527   3.151   4.753
 1525TIP3    H1 4581   4.548   3.116   4.839
 1525TIP3    H2 4582   4.492   3.076   4.705
 1526TIP3   OH2 4583   2.470   2.260   2.326
 1526TIP3    H1 4584   2.421   2.212   2.393
 1526TIP3    H2 4585   2.541   2.303   2.374
 1527TIP3   OH2 4586   5.767   5.725   1.053
 1527TIP3    H1 4587   5.815   5.648   1.024
 1527TIP3    H2 4588   5.778   5.725   1.148
 1528TIP3   OH2 4589  -0.013   0.179   4.429
 1528TIP3    H1 4590   0.076   0.199   4.457
 1528TIP3    H2 4591  -0.068   0.204   4.504
 1529TIP3   OH2 4592   0.262   1.193   3.060
 1529TIP3    H1 4593   0.334   1.151   3.108
 1529TIP3    H2 4594   0.288   1.285   3.053
 1530TIP3   OH2 4595   1.289   3.389   5.068
 1530TIP3    H1 4596   1.329   3.354   4.989
 1530TIP3    H2 4597   1.227   3.322   5.096
 1531TIP3   OH2 4598   4.769   2.103   3.117
 1531TIP3    H1 4599   4.745   2.191   3.145
 1531TIP3    H2 4600   4.851   2.085   3.164
 1532TIP3   OH2 4601   4.587   1.512   3.270
 1532TIP3    H1 4602   4.497   1.525   3.243
 1532TIP3    H2 4603   4.587   1.526   3.364
 1533TIP3   OH2 4604   4.770   4.354   4.285
 1533TIP3    H1 4605   4.862   4.377   4.273
 1533TIP3    H2 4606   4.725   4.393   4.210
 1534TIP3   OH2 4607   1.805   1.177   1.409
 1534TIP3    H1 4608   1.757   1.106   1.366
 1534TIP3    H2 4609   1.895   1.167   1.379
 1535TIP3   OH2 4610   4.387   4.810   5.000
 1535TIP3    H1 4611   4.393   4.902   4.974
 1535TIP3    H2 4612   4.462   4.768   4.958
 1536TIP3   OH2 4613   0.407   0.292   0.231
 1536TIP3    H1 4614   0.312   0.302   0.236
 1536TIP3    H2 4615   0.422   0.201   0.255
 1537TIP3   OH2 4616   6.065   3.920   0.692
 1537TIP3    H1 4617   5.978   3.889   0.668
 1537TIP3    H2 4618   6.115   3.840   0.709
 1538TIP3   OH2 4619   1.385   0.403   0.479
 1538TIP3    H1 4620   1.425   0.396   0.565
 1538TIP3    H2 4621   1.291   0.402   0.496
 1539TIP3   OH2 4622   3.656   0.814   2.656
 1539TIP3    H1 4623   3.741   0.856   2.643
 1539TIP3    H2 4624   3.633   0.833   2.747
 1540TIP3   OH2 4625   4.282   5.600   5.056
 1540TIP3    H1 4626   4.199   5.648   5.051
 1540TIP3    H2 4627   4.347   5.660   5.020
 1541TIP3   OH2 4628   5.839   5.466   2.392
 1541TIP3    H1 4629   5.838   5.460   2.487
 1541TIP3    H2 4630   5.858   5.377   2.363
 1542TIP3   OH2 4631   1.668   0.011   0.554
 1542TIP3    H1 4632   1.593   0.033   0.498
 1542TIP3    H2 4633   1.731   0.082   0.537
 1543TIP3   OH2 4634   3.152   5.745   2.721
 1543TIP3    H1 4635   3.057   5.746   2.736
 1543TIP3    H2 4636   3.177   5.653   2.732
 1544TIP3   OH2 4637   0.186   5.531   2.561
 1544TIP3    H1 4638   0.180   5.451   2.509
 1544TIP3    H2 4639   0.277   5.533   2.592
 1545TIP3   OH2 4640   4.388   0.136   1.214
 1545TIP3    H1 4641   4.384   0.103   1.124
 1545TIP3    H2 4642   4.464   0.092   1.252
 1546TIP3   OH2 4643   3.508   5.773   0.192
 1546TIP3    H1 4644   3.594   5.769   0.234
 1546TIP3    H2 4645   3.465   5.691   0.219
 1547TIP3   OH2 4646   5.640   4.629   3.492
 1547TIP3    H1 4647   5.548   4.651   3.478
 1547TIP3    H2 4648   5.648   4.620   3.587
 1548TIP3   OH2 4649   4.260   5.169   0.785
 1548TIP3    H1 4650   4.277   5.174   0.691
 1548TIP3    H2 4651   4.337   5.207   0.826
 1549TIP3   OH2 4652   0.641   1.237   5.010
 1549TIP3    H1 4653   0.723   1.245   4.962
 1549TIP3    H2 4654   0.641   1.148   5.044
 1550TIP3   OH2 4655   3.260   5.632   3.107
 1550TIP3    H1 4656   3.324   5.571   3.145
 1550TIP3    H2 4657   3.242   5.694   3.178
 1551TIP3   OH2 4658   3.506   4.366   1.933
 1551TIP3    H1 4659   3.483   4.377   2.025
 1551TIP3    H2 4660   3.428   4.394   1.885
 1552TIP3   OH2 4661   2.699   4.012   2.196
 1552TIP3    H1 4662   2.687   4.107   2.198
 1552TIP3    H2 4663   2.653   3.984   2.116
 1553TIP3   OH2 4664   0.108   0.274   2.880
 1553TIP3    H1 4665   0.055   0.201   2.912
 1553TIP3    H2 4666   0.198   0.246   2.892
 1554TIP3   OH2 4667   3.210   0.360   4.198
 1554TIP3    H1 4668   3.273   0.353   4.269
 1554TIP3    H2 4669   3.249   0.422   4.137
 1555TIP3   OH2 4670   4.047   4.044   0.155
 1555TIP3    H1 4671   4.034   3.949   0.154
 1555TIP3    H2 4672   4.124   4.058   0.209
 1556TIP3   OH2 4673   1.148   2.236   3.291
 1556TIP3    H1 4674   1.072   2.203   3.242
 1556TIP3    H2 4675   1.223   2.193   3.250
 1557TIP3   OH2 4676   5.503   0.753   2.528
 1557TIP3    H1 4677   5.514   0.767   2.622
 1557TIP3    H2 4678   5.570   0.689   2.504
 1558TIP3   OH2 4679   2.647   2.670   0.372
 1558TIP3    H1 4680   2.648   2.575   0.360
 1558TIP3    H2 4681   2.561   2.697   0.339
 1559TIP3   OH2 4682   4.365   2.100   5.154
 1559TIP3    H1 4683   4.440   2.077   5.209
 1559TIP3    H2 4684   4.358   2.027   5.092
 1560TIP3   OH2 4685   4.506   0.638   3.004
 1560TIP3    H1 4686   4.564   0.595   2.940
 1560TIP3    H2 4687   4.419   0.634   2.964
 1561TIP3   OH2 4688   0.749   4.711   2.854
 1561TIP3    H1 4689   0.684   4.782   2.855
 1561TIP3    H2 4690   0.696   4.631   2.854
 1562TIP3   OH2 4691   0.984   3.966   2.906
 1562TIP3    H1 4692   0.953   3.881   2.875
 1562TIP3    H2 4693   0.961   3.968   2.999
 1563TIP3   OH2 4694   4.133   0.242   2.890
 1563TIP3    H1 4695   4.144   0.223   2.983
 1563TIP3    H2 4696   4.164   0.332   2.880
 1564TIP3   OH2 4697   4.869   0.918   3.427
 1564TIP3    H1 4698   4.831   0.996   3.387
 1564TIP3    H2 4699   4.949   0.901   3.377
 1565TIP3   OH2 4700   6.174   2.103   1.969
 1565TIP3    H1 4701   6.153   2.196   1.963
 1565TIP3    H2 4702   6.108   2.060   1.915
 1566TIP3   OH2 4703   1.413   4.766   3.806
 1566TIP3    H1 4704   1.321   4.792   3.798
 1566TIP3    H2 4705   1.410   4.673   3.827
 1567TIP3   OH2 4706   3.369   2.007   2.760
 1567TIP3    H1 4707   3.457   2.010   2.799
 1567TIP3    H2 4708   3.321   2.077   2.806
 1568TIP3   OH2 4709   0.612   0.066   0.620
 1568TIP3    H1 4710   0.696   0.088   0.661
 1568TIP3    H2 4711   0.581  -0.010   0.668
 1569TIP3   OH2 4712   4.727   3.686   1.592
 1569TIP3    H1 4713   4.694   3.768   1.554
 1569TIP3    H2 4714   4.648   3.638   1.616
 1570TIP3   OH2 4715   6.047   3.289   1.005
 1570TIP3    H1 4716   6.124   3.338   1.033
 1570TIP3    H2 4717   6.081   3.205   0.976
 1571TIP3   OH2 4718   3.622   0.226   1.350
 1571TIP3    H1 4719   3.675   0.275   1.413
 1571TIP3    H2 4720   3.682   0.160   1.314
 1572TIP3   OH2 4721   1.478   4.386   2.781
 1572TIP3    H1 4722   1.534   4.340   2.843
 1572TIP3    H2 4723   1.483   4.335   2.700
 1573TIP3   OH2 4724   5.553   3.615   2.317
 1573TIP3    H1 4725   5.589   3.596   2.404
 1573TIP3    H2 4726   5.608   3.565   2.257
 1574TIP3   OH2 4727   0.163   2.238   0.425
 1574TIP3    H1 4728   0.120   2.303   0.369
 1574TIP3    H2 4729   0.103   2.164   0.426
 1575TIP3   OH2 4730   2.711   0.440   3.133
 1575TIP3    H1 4731   2.694   0.513   3.192
 1575TIP3    H2 4732   2.671   0.365   3.175
 1576TIP3   OH2 4733   2.163   3.037   2.809
 1576TIP3    H1 4734   2.171   3.078   2.895
 1576TIP3    H2 4735   2.152   2.944   2.828
 1577TIP3   OH2 4736   3.176   2.902   3.361
 1577TIP3    H1 4737   3.154   2.838   3.429
 1577TIP3    H2 4738   3.092   2.921   3.318
 1578TIP3   OH2 4739   3.273   2.959   3.096
 1578TIP3    H1 4740   3.255   3.009   3.175
 1578TIP3    H2 4741   3.296   2.872   3.127
 1579TIP3   OH2 4742   6.186   1.208   0.929
 1579TIP3    H1 4743   6.278   1.208   0.953
 1579TIP3    H2 4744   6.174   1.130   0.875
 1580TIP3   OH2 4745   0.915   3.981   4.681
 1580TIP3    H1 4746   0.988   3.949   4.627
 1580TIP3    H2 4747   0.927   3.937   4.765
 1581TIP3   OH2 4748   1.206   1.841   0.158
 1581TIP3    H1 4749   1.294   1.849   0.195
 1581TIP3    H2 4750   1.149   1.878   0.225
 1582TIP3   OH2 4751   1.283   2.788   0.607
 1582TIP3    H1 4752   1.337   2.714   0.581
 1582TIP3    H2 4753   1.201   2.777   0.559
 1583TIP3   OH2 4754   4.417   1.056   0.642
 1583TIP3    H1 4755   4.488   1.038   0.703
 1583TIP3    H2 4756   4.461   1.081   0.560
 1584TIP3   OH2 4757   2.992   3.476   4.700
 1584TIP3    H1 4758   2.957   3.482   4.788
 1584TIP3    H2 4759   2.926   3.517   4.644
 1585TIP3   OH2 4760   4.887   1.533   1.193
 1585TIP3    H1 4761   4.831   1.527   1.115
 1585TIP3    H2 4762   4.920   1.623   1.193
 1586TIP3   OH2 4763   4.580   2.840   1.539
 1586TIP3    H1 4764   4.667   2.878   1.545
 1586TIP3    H2 4765   4.583   2.786   1.461
 1587TIP3   OH2 4766   0.970   1.847   0.588
 1587TIP3    H1 4767   0.942   1.833   0.679
 1587TIP3    H2 4768   1.028   1.774   0.569
 1588TIP3   OH2 4769   4.658   3.299   3.821
 1588TIP3    H1 4770   4.644   3.367   3.888
 1588TIP3    H2 4771   4.599   3.324   3.749
 1589TIP3   OH2 4772   5.931   4.711   0.911
 1589TIP3    H1 4773   5.837   4.722   0.896
 1589TIP3    H2 4774   5.952   4.773   0.980
 1590TIP3   OH2 4775   5.203   1.359   1.759
 1590TIP3    H1 4776   5.226   1.339   1.668
 1590TIP3    H2 4777   5.284   1.394   1.796
 1591TIP3   OH2 4778   5.638   1.863   1.509
 1591TIP3    H1 4779   5.612   1.819   1.427
 1591TIP3    H2 4780   5.700   1.930   1.482
 1592TIP3   OH2 4781   2.279   3.570   4.712
 1592TIP3    H1 4782   2.329   3.515   4.773
 1592TIP3    H2 4783   2.338   3.641   4.689
 1593TIP3   OH2 4784   0.940   2.634   1.223
 1593TIP3    H1 4785   0.955   2.543   1.201
 1593TIP3    H2 4786   0.862   2.659   1.173
 1594TIP3   OH2 4787   1.835   4.476   1.335
 1594TIP3    H1 4788   1.919   4.472   1.288
 1594TIP3    H2 4789   1.811   4.568   1.334
 1595TIP3   OH2 4790   1.768   5.397   0.091
 1595TIP3    H1 4791   1.718   5.471   0.126
 1595TIP3    H2 4792   1.708   5.323   0.096
 1596TIP3   OH2 4793   0.557   4.308   4.333
 1596TIP3    H1 4794   0.595   4.226   4.366
 1596TIP3    H2 4795   0.591   4.315   4.243
 1597TIP3   OH2 4796   2.647   4.760   3.680
 1597TIP3    H1 4797   2.696   4.708   3.744
 1597TIP3    H2 4798   2.558   4.763   3.715
 1598TIP3   OH2 4799   2.749   3.799   4.624
 1598TIP3    H1 4800   2.821   3.854   4.592
 1598TIP3    H2 4801   2.676   3.819   4.565
 1599TIP3   OH2 4802   4.156   5.025   4.237
 1599TIP3    H1 4803   4.173   5.058   4.148
 1599TIP3    H2 4804   4.060   5.029   4.246
 1600TIP3   OH2 4805   6.003   2.638   2.247
 1600TIP3    H1 4806   6.003   2.561   2.189
 1600TIP3    H2 4807   5.949   2.612   2.321
 1601TIP3   OH2 4808   6.076   4.281   2.712
 1601TIP3    H1 4809   6.017   4.238   2.649
 1601TIP3    H2 4810   6.092   4.213   2.778
 1602TIP3   OH2 4811   1.452   4.948   1.178
 1602TIP3    H1 4812   1.545   4.970   1.165
 1602TIP3    H2 4813   1.430   4.985   1.264
 1603TIP3   OH2 4814   0.776   2.651   1.003
 1603TIP3    H1 4815   0.849   2.693   0.957
 1603TIP3    H2 4816   0.773   2.562   0.968
 1604TIP3   OH2 4817   1.306   2.866   3.700
 1604TIP3    H1 4818   1.375   2.814   3.742
 1604TIP3    H2 4819   1.283   2.815   3.622
 1605TIP3   OH2 4820   5.057   1.873   0.849
 1605TIP3    H1 4821   5.036   1.818   0.773
 1605TIP3    H2 4822   4.986   1.937   0.853
 1606TIP3   OH2 4823   0.956   5.826   4.525
 1606TIP3    H1 4824   0.880   5.854   4.575
 1606TIP3    H2 4825   0.999   5.907   4.499
 1607TIP3   OH2 4826   0.640   4.420   0.853
 1607TIP3    H1 4827   0.706   4.453   0.914
 1607TIP3    H2 4828   0.574   4.489   0.849
 1608TIP3   OH2 4829   1.537   0.287   1.856
 1608TIP3    H1 4830   1.442   0.292   1.848
 1608TIP3    H2 4831   1.562   0.367   1.902
 1609TIP3   OH2 4832   2.654   3.088   1.203
 1609TIP3    H1 4833   2.675   3.054   1.117
 1609TIP3    H2 4834   2.668   3.015   1.263
 1610TIP3   OH2 4835   5.913   5.264   3.476
 1610TIP3    H1 4836   5.994   5.311   3.453
 1610TIP3    H2 4837   5.929   5.174   3.451
 1611TIP3   OH2 4838   2.390   2.611   4.760
 1611TIP3    H1 4839   2.435   2.646   4.683
 1611TIP3    H2 4840   2.457   2.605   4.828
 1612TIP3   OH2 4841   3.980   3.542   1.441
 1612TIP3    H1 4842   3.952   3.535   1.350
 1612TIP3    H2 4843   3.996   3.452   1.469
 1613TIP3   OH2 4844   5.887   0.310   2.300
 1613TIP3    H1 4845   5.892   0.320   2.205
 1613TIP3    H2 4846   5.914   0.395   2.335
 1614TIP3   OH2 4847   4.915   5.843   0.334
 1614TIP3    H1 4848   4.858   5.802   0.269
 1614TIP3    H2 4849   4.922   5.780   0.405
 1615TIP3   OH2 4850   1.364   1.703   4.074
 1615TIP3    H1 4851   1.393   1.768   4.137
 1615TIP3    H2 4852   1.291   1.745   4.028
 1616TIP3   OH2 4853   3.954   2.734   1.258
 1616TIP3    H1 4854   3.959   2.730   1.353
 1616TIP3    H2 4855   3.883   2.674   1.234
 1617TIP3   OH2 4856   0.616   2.267   4.696
 1617TIP3    H1 4857   0.615   2.192   4.637
 1617TIP3    H2 4858   0.538   2.257   4.750
 1618TIP3   OH2 4859   2.351   2.205   1.895
 1618TIP3    H1 4860   2.376   2.115   1.918
 1618TIP3    H2 4861   2.255   2.204   1.897
 1619TIP3   OH2 4862   0.868   5.499   2.165
 1619TIP3    H1 4863   0.931   5.567   2.190
 1619TIP3    H2 4864   0.823   5.536   2.088
 1620TIP3   OH2 4865   0.538   3.956   0.037
 1620TIP3    H1 4866   0.465   3.970  -0.024
 1620TIP3    H2 4867   0.599   4.027   0.018
 1621TIP3   OH2 4868   1.446   0.658   4.372
 1621TIP3    H1 4869   1.541   0.655   4.384
 1621TIP3    H2 4870   1.429   0.593   4.303
 1622TIP3   OH2 4871   1.530   2.584   4.467
 1622TIP3    H1 4872   1.480   2.504   4.452
 1622TIP3    H2 4873   1.591   2.588   4.393
 1623TIP3   OH2 4874   5.270   3.565   2.970
 1623TIP3    H1 4875   5.234   3.516   3.045
 1623TIP3    H2 4876   5.200   3.564   2.905
 1624TIP3   OH2 4877   5.929   4.201   4.710
 1624TIP3    H1 4878   5.867   4.162   4.648
 1624TIP3    H2 4879   5.994   4.132   4.724
 1625TIP3   OH2 4880   0.182   0.402   4.085
 1625TIP3    H1 4881   0.098   0.416   4.129
 1625TIP3    H2 4882   0.248   0.429   4.150
 1626TIP3   OH2 4883   3.456   4.870   1.980
 1626TIP3    H1 4884   3.474   4.964   1.982
 1626TIP3    H2 4885   3.511   4.833   2.049
 1627TIP3   OH2 4886   5.789   2.606   2.789
 1627TIP3    H1 4887   5.786   2.515   2.819
 1627TIP3    H2 4888   5.723   2.651   2.842
 1628TIP3   OH2 4889   3.690   1.359   5.094
 1628TIP3    H1 4890   3.682   1.412   5.173
 1628TIP3    H2 4891   3.600   1.343   5.067
 1629TIP3   OH2 4892   2.627   4.252   2.926
 1629TIP3    H1 4893   2.703   4.194   2.920
 1629TIP3    H2 4894   2.553   4.193   2.938
 1630TIP3   OH2 4895   0.208   1.411   0.950
 1630TIP3    H1 4896   0.194   1.395   0.857
 1630TIP3    H2 4897   0.304   1.413   0.960
 1631TIP3   OH2 4898   0.823   1.337   2.633
 1631TIP3    H1 4899   0.886   1.295   2.692
 1631TIP3    H2 4900   0.872   1.352   2.552
 1632TIP3   OH2 4901   1.595   0.885   4.786
 1632TIP3    H1 4902   1.567   0.934   4.863
 1632TIP3    H2 4903   1.517   0.883   4.730
 1633TIP3   OH2 4904   3.212   5.763   2.281
 1633TIP3    H1 4905   3.136   5.712   2.309
 1633TIP3    H2 4906   3.280   5.743   2.346
 1634TIP3   OH2 4907   4.949   3.447   1.605
 1634TIP3    H1 4908   5.033   3.491   1.591
 1634TIP3    H2 4909   4.884   3.516   1.593
 1635TIP3   OH2 4910   0.379   2.182   1.750
 1635TIP3    H1 4911   0.350   2.270   1.726
 1635TIP3    H2 4912   0.454   2.165   1.693
 1636TIP3   OH2 4913   5.151   1.718   4.578
 1636TIP3    H1 4914   5.134   1.690   4.488
 1636TIP3    H2 4915   5.233   1.767   4.573
 1637TIP3   OH2 4916   2.161   0.801   0.141
 1637TIP3    H1 4917   2.082   0.849   0.116
 1637TIP3    H2 4918   2.232   0.853   0.104
 1638TIP3   OH2 4919   3.977   2.704   3.645
 1638TIP3    H1 4920   4.033   2.757   3.588
 1638TIP3    H2 4921   3.998   2.734   3.734
 1639TIP3   OH2 4922   5.764   4.385   5.026
 1639TIP3    H1 4923   5.825   4.326   5.070
 1639TIP3    H2 4924   5.695   4.401   5.090
 1640TIP3   OH2 4925   5.159   0.412   3.758
 1640TIP3    H1 4926   5.142   0.358   3.835
 1640TIP3    H2 4927   5.117   0.365   3.686
 1641TIP3   OH2 4928   3.048   5.870   4.808
 1641TIP3    H1 4929   3.087   5.783   4.795
 1641TIP3    H2 4930   3.056   5.886   4.902
 1642TIP3   OH2 4931   4.397   5.442   3.367
 1642TIP3    H1 4932   4.459   5.421   3.437
 1642TIP3    H2 4933   4.436   5.405   3.288
 1643TIP3   OH2 4934   2.124   0.872   0.757
 1643TIP3    H1 4935   2.157   0.847   0.843
 1643TIP3    H2 4936   2.200   0.902   0.709
 1644TIP3   OH2 4937   4.072   4.355   2.475
 1644TIP3    H1 4938   3.983   4.389   2.486
 1644TIP3    H2 4939   4.120   4.425   2.431
 1645TIP3   OH2 4940   0.360   3.490   3.971
 1645TIP3    H1 4941   0.429   3.427   3.951
 1645TIP3    H2 4942   0.328   3.462   4.057
 1646TIP3   OH2 4943   5.052   0.654   1.299
 1646TIP3    H1 4944   4.997   0.664   1.222
 1646TIP3    H2 4945   5.064   0.743   1.333
 1647TIP3   OH2 4946   3.019   5.833   0.759
 1647TIP3    H1 4947   2.955   5.764   0.739
 1647TIP3    H2 4948   3.052   5.810   0.846
 1648TIP3   OH2 4949   3.964   3.904   3.871
 1648TIP3    H1 4950   3.944   3.812   3.855
 1648TIP3    H2 4951   3.902   3.931   3.939
 1649TIP3   OH2 4952   3.441   3.497   1.676
 1649TIP3    H1 4953   3.442   3.407   1.709
 1649TIP3    H2 4954   3.428   3.550   1.754
 1650TIP3   OH2 4955   0.808   3.575   3.562
 1650TIP3    H1 4956   0.811   3.510   3.632
 1650TIP3    H2 4957   0.733   3.630   3.585
 1651TIP3   OH2 4958   2.132   3.959   3.469
 1651TIP3    H1 4959   2.137   4.049   3.436
 1651TIP3    H2 4960   2.221   3.940   3.499
 1652TIP3   OH2 4961   3.585   0.187   2.385
 1652TIP3    H1 4962   3.646   0.174   2.458
 1652TIP3    H2 4963   3.523   0.114   2.392
 1653TIP3   OH2 4964   5.118   3.668   5.092
 1653TIP3    H1 4965   5.048   3.642   5.152
 1653TIP3    H2 4966   5.156   3.586   5.061
 1654TIP3   OH2 4967   5.285   3.918   3.642
 1654TIP3    H1 4968   5.310   3.926   3.550
 1654TIP3    H2 4969   5.266   4.007   3.670
 1655TIP3   OH2 4970   4.972   0.463   4.296
 1655TIP3    H1 4971   4.967   0.539   4.355
 1655TIP3    H2 4972   4.896   0.409   4.320
 1656TIP3   OH2 4973   5.939   3.621   4.099
 1656TIP3    H1 4974   5.914   3.570   4.023
 1656TIP3    H2 4975   6.033   3.636   4.088
 1657TIP3   OH2 4976   0.797   1.541   0.919
 1657TIP3    H1 4977   0.887   1.516   0.899
 1657TIP3    H2 4978   0.758   1.562   0.834
 1658TIP3   OH2 4979   5.747   1.015   0.518
 1658TIP3    H1 4980   5.803   0.943   0.490
 1658TIP3    H2 4981   5.705   0.984   0.598
 1659TIP3   OH2 4982   1.596   2.995   1.360
 1659TIP3    H1 4983   1.594   2.993   1.456
 1659TIP3    H2 4984   1.673   2.944   1.336
 1660TIP3   OH2 4985   1.907   2.416   1.799
 1660TIP3    H1 4986   1.813   2.409   1.787
 1660TIP3    H2 4987   1.917   2.472   1.876
 1661TIP3   OH2 4988   5.405   3.592   1.666
 1661TIP3    H1 4989   5.399   3.668   1.609
 1661TIP3    H2 4990   5.423   3.519   1.607
 1662TIP3   OH2 4991   1.063   2.934   0.254
 1662TIP3    H1 4992   1.062   3.016   0.205
 1662TIP3    H2 4993   0.972   2.904   0.252
 1663TIP3   OH2 4994   1.647   0.087   2.882
 1663TIP3    H1 4995   1.658   0.144   2.958
 1663TIP3    H2 4996   1.569   0.120   2.838
 1664TIP3   OH2 4997   0.796   4.162   0.036
 1664TIP3    H1 4998   0.888   4.156   0.059
 1664TIP3    H2 4999   0.792   4.231  -0.030
 1665TIP3   OH2 5000   0.948   1.408   0.555
 1665TIP3    H1 5001   0.980   1.497   0.573
 1665TIP3    H2 5002   0.952   1.400   0.460
 1666TIP3   OH2 5003   2.392   5.353   1.804
 1666TIP3    H1 5004   2.456   5.333   1.873
 1666TIP3    H2 5005   2.368   5.444   1.819
 1667TIP3   OH2 5006   4.554   4.100   1.103
 1667TIP3    H1 5007   4.548   4.083   1.008
 1667TIP3    H2 5008   4.647   4.117   1.118
 1668TIP3   OH2 5009   5.428   5.775   2.727
 1668TIP3    H1 5010   5.471   5.704   2.680
 1668TIP3    H2 5011   5.418   5.845   2.661
 1669TIP3   OH2 5012   4.355   1.957   1.094
 1669TIP3    H1 5013   4.439   1.961   1.050
 1669TIP3    H2 5014   4.297   2.014   1.043
 1670TIP3   OH2 5015   1.345   3.410   4.769
 1670TIP3    H1 5016   1.287   3.334   4.769
 1670TIP3    H2 5017   1.300   3.475   4.716
 1671TIP3   OH2 5018   5.503   5.096   1.686
 1671TIP3    H1 5019   5.571   5.036   1.654
 1671TIP3    H2 5020   5.516   5.099   1.780
 1672TIP3   OH2 5021   0.142   5.037   1.576
 1672TIP3    H1 5022   0.067   5.076   1.530
 1672TIP3    H2 5023   0.197   5.112   1.601
 1673TIP3   OH2 5024   4.691   4.895   1.855
 1673TIP3    H1 5025   4.655   4.984   1.854
 1673TIP3    H2 5026   4.646   4.851   1.927
 1674TIP3   OH2 5027   3.433   4.867   4.887
 1674TIP3    H1 5028   3.482   4.847   4.967
 1674TIP3    H2 5029   3.378   4.942   4.910
 1675TIP3   OH2 5030   5.362   4.361   2.495
 1675TIP3    H1 5031   5.320   4.440   2.527
 1675TIP3    H2 5032   5.456   4.375   2.509
 1676TIP3   OH2 5033   3.426   5.675   2.458
 1676TIP3    H1 5034   3.483   5.600   2.473
 1676TIP3    H2 5035   3.452   5.739   2.525
 1677TIP3   OH2 5036   3.701   3.333   2.970
 1677TIP3    H1 5037   3.714   3.256   3.026
 1677TIP3    H2 5038   3.629   3.381   3.011
 1678TIP3   OH2 5039   5.530   5.615   3.736
 1678TIP3    H1 5040   5.554   5.707   3.744
 1678TIP3    H2 5041   5.450   5.616   3.684
 1679TIP3   OH2 5042   5.061   2.518   3.964
 1679TIP3    H1 5043   5.047   2.501   3.871
 1679TIP3    H2 5044   5.113   2.444   3.995
 1680TIP3   OH2 5045   1.525   1.062   2.780
 1680TIP3    H1 5046   1.524   0.974   2.742
 1680TIP3    H2 5047   1.612   1.096   2.757
 1681TIP3   OH2 5048   0.099   0.726   2.777
 1681TIP3    H1 5049   0.141   0.676   2.847
 1681TIP3    H2 5050   0.070   0.659   2.714
 1682TIP3   OH2 5051   1.234   3.185   0.547
 1682TIP3    H1 5052   1.327   3.189   0.570
 1682TIP3    H2 5053   1.230   3.209   0.455
 1683TIP3   OH2 5054   5.460   2.611   0.427
 1683TIP3    H1 5055   5.502   2.662   0.496
 1683TIP3    H2 5056   5.496   2.647   0.346
 1684TIP3   OH2 5057   5.828   2.034   1.385
 1684TIP3    H1 5058   5.872   1.958   1.347
 1684TIP3    H2 5059   5.894   2.074   1.442
 1685TIP3   OH2 5060   5.315   4.139   0.580
 1685TIP3    H1 5061   5.397   4.132   0.629
 1685TIP3    H2 5062   5.342   4.157   0.490
 1686TIP3   OH2 5063   5.647   4.622   0.540
 1686TIP3    H1 5064   5.732   4.660   0.563
 1686TIP3    H2 5065   5.629   4.657   0.452
 1687TIP3   OH2 5066   3.255   5.085   3.413
 1687TIP3    H1 5067   3.168   5.058   3.442
 1687TIP3    H2 5068   3.303   5.004   3.400
 1688TIP3   OH2 5069   2.537   5.370   0.870
 1688TIP3    H1 5070   2.560   5.277   0.879
 1688TIP3    H2 5071   2.589   5.400   0.796
 1689TIP3   OH2 5072   5.052   0.778   5.138
 1689TIP3    H1 5073   5.058   0.808   5.229
 1689TIP3    H2 5074   4.974   0.822   5.104
 1690TIP3   OH2 5075   2.969   4.486   2.556
 1690TIP3    H1 5076   2.907   4.447   2.617
 1690TIP3    H2 5077   2.915   4.538   2.496
 1691TIP3   OH2 5078   5.323   5.102   0.659
 1691TIP3    H1 5079   5.369   5.176   0.699
 1691TIP3    H2 5080   5.279   5.059   0.732
 1692TIP3   OH2 5081   5.524   2.123   4.932
 1692TIP3    H1 5082   5.448   2.065   4.925
 1692TIP3    H2 5083   5.499   2.187   4.998
 1693TIP3   OH2 5084   3.911   5.448   2.848
 1693TIP3    H1 5085   3.866   5.530   2.826
 1693TIP3    H2 5086   3.983   5.443   2.786
 1694TIP3   OH2 5087   3.968   0.636   3.215
 1694TIP3    H1 5088   3.943   0.579   3.142
 1694TIP3    H2 5089   4.004   0.576   3.280
 1695TIP3   OH2 5090   4.460   5.374   1.071
 1695TIP3    H1 5091   4.553   5.396   1.073
 1695TIP3    H2 5092   4.427   5.419   0.994
 1696TIP3   OH2 5093   4.526   3.749   4.290
 1696TIP3    H1 5094   4.551   3.692   4.363
 1696TIP3    H2 5095   4.477   3.821   4.331
 1697TIP3   OH2 5096   5.524   1.338   0.750
 1697TIP3    H1 5097   5.598   1.361   0.806
 1697TIP3    H2 5098   5.495   1.253   0.783
 1698TIP3   OH2 5099   6.012   4.731   1.915
 1698TIP3    H1 5100   6.082   4.668   1.903
 1698TIP3    H2 5101   5.974   4.742   1.828
 1699TIP3   OH2 5102   0.980   4.179   4.277
 1699TIP3    H1 5103   0.936   4.260   4.304
 1699TIP3    H2 5104   0.911   4.113   4.277
 1700TIP3   OH2 5105   3.584   3.879   0.450
 1700TIP3    H1 5106   3.580   3.829   0.368
 1700TIP3    H2 5107   3.567   3.815   0.518
 1701TIP3   OH2 5108   1.581   1.963   1.678
 1701TIP3    H1 5109   1.638   1.933   1.750
 1701TIP3    H2 5110   1.639   2.015   1.622
 1702TIP3   OH2 5111   4.590   5.235   0.826
 1702TIP3    H1 5112   4.615   5.148   0.857
 1702TIP3    H2 5113   4.573   5.224   0.733
 1703TIP3   OH2 5114   3.374   5.173   1.337
 1703TIP3    H1 5115   3.298   5.174   1.278
 1703TIP3    H2 5116   3.404   5.082   1.334
 1704TIP3   OH2 5117   3.403   4.612   3.212
 1704TIP3    H1 5118   3.448   4.559   3.279
 1704TIP3    H2 5119   3.435   4.577   3.129
 1705TIP3   OH2 5120   4.076   0.578  -0.030
 1705TIP3    H1 5121   4.008   0.561   0.035
 1705TIP3    H2 5122   4.138   0.506  -0.018
 1706TIP3   OH2 5123   0.507   0.329   2.353
 1706TIP3    H1 5124   0.418   0.298   2.336
 1706TIP3    H2 5125   0.500   0.424   2.353
 1707TIP3   OH2 5126   3.077   0.178   0.839
 1707TIP3    H1 5127   3.142   0.137   0.897
 1707TIP3    H2 5128   3.124   0.192   0.756
 1708TIP3   OH2 5129   5.749   2.006   1.929
 1708TIP3    H1 5130   5.795   2.049   2.001
 1708TIP3    H2 5131   5.714   1.926   1.967
 1709TIP3   OH2 5132   3.073   1.277   0.109
 1709TIP3    H1 5133   3.096   1.225   0.031
 1709TIP3    H2 5134   3.158   1.304   0.145
 1710TIP3   OH2 5135   5.112   0.371   0.760
 1710TIP3    H1 5136   5.047   0.379   0.830
 1710TIP3    H2 5137   5.086   0.436   0.695
 1711TIP3   OH2 5138   0.974   4.189   4.981
 1711TIP3    H1 5139   0.999   4.281   4.996
 1711TIP3    H2 5140   1.053   4.139   5.003
 1712TIP3   OH2 5141   0.511   5.554   4.797
 1712TIP3    H1 5142   0.451   5.575   4.726
 1712TIP3    H2 5143   0.454   5.550   4.875
 1713TIP3   OH2 5144   6.053   4.938   1.319
 1713TIP3    H1 5145   5.998   5.016   1.315
 1713TIP3    H2 5146   6.031   4.898   1.404
 1714TIP3   OH2 5147   1.953   4.914   2.233
 1714TIP3    H1 5148   1.939   4.862   2.154
 1714TIP3    H2 5149   1.978   4.851   2.300
 1715TIP3   OH2 5150   3.405   2.891   1.945
 1715TIP3    H1 5151   3.323   2.941   1.945
 1715TIP3    H2 5152   3.399   2.836   1.867
 1716TIP3   OH2 5153   2.708   3.196   0.238
 1716TIP3    H1 5154   2.692   3.102   0.246
 1716TIP3    H2 5155   2.771   3.214   0.308
 1717TIP3   OH2 5156   4.127   3.979   0.546
 1717TIP3    H1 5157   4.177   3.899   0.561
 1717TIP3    H2 5158   4.168   4.018   0.469
 1718TIP3   OH2 5159   1.516   4.827   0.849
 1718TIP3    H1 5160   1.433   4.784   0.831
 1718TIP3    H2 5161   1.543   4.792   0.934
 1719TIP3   OH2 5162   0.401   0.138   3.556
 1719TIP3    H1 5163   0.434   0.050   3.538
 1719TIP3    H2 5164   0.415   0.187   3.474
 1720TIP3   OH2 5165   1.728   2.246   5.167
 1720TIP3    H1 5166   1.807   2.192   5.171
 1720TIP3    H2 5167   1.656   2.183   5.175
 1721TIP3   OH2 5168   0.733   0.093   3.220
 1721TIP3    H1 5169   0.746   0.106   3.314
 1721TIP3    H2 5170   0.796   0.152   3.179
 1722TIP3   OH2 5171   2.610   1.620   2.529
 1722TIP3    H1 5172   2.641   1.557   2.594
 1722TIP3    H2 5173   2.677   1.688   2.528
 1723TIP3   OH2 5174   1.706   2.961   1.850
 1723TIP3    H1 5175   1.695   2.996   1.939
 1723TIP3    H2 5176   1.663   2.876   1.853
 1724TIP3   OH2 5177   2.321   2.903   0.651
 1724TIP3    H1 5178   2.290   2.824   0.605
 1724TIP3    H2 5179   2.400   2.928   0.604
 1725TIP3   OH2 5180   1.815   1.706   5.034
 1725TIP3    H1 5181   1.891   1.648   5.034
 1725TIP3    H2 5182   1.846   1.786   5.075
 1726TIP3   OH2 5183   6.232   4.670   1.500
 1726TIP3    H1 5184   6.304   4.730   1.518
 1726TIP3    H2 5185   6.154   4.713   1.536
 1727TIP3   OH2 5186   5.566   2.125   2.141
 1727TIP3    H1 5187   5.568   2.032   2.123
 1727TIP3    H2 5188   5.517   2.163   2.069
 1728TIP3   OH2 5189   3.436   3.697   3.540
 1728TIP3    H1 5190   3.507   3.633   3.547
 1728TIP3    H2 5191   3.481   3.782   3.539
 1729TIP3   OH2 5192   4.927   4.423   0.207
 1729TIP3    H1 5193   4.975   4.490   0.256
 1729TIP3    H2 5194   4.971   4.418   0.123
 1730TIP3   OH2 5195   2.106   1.532   1.232
 1730TIP3    H1 5196   2.017   1.497   1.237
 1730TIP3    H2 5197   2.162   1.456   1.247
 1731TIP3   OH2 5198   5.043   2.399   2.428
 1731TIP3    H1 5199   5.138   2.412   2.424
 1731TIP3    H2 5200   5.023   2.339   2.356
 1732TIP3   OH2 5201   0.494   0.237   1.011
 1732TIP3    H1 5202   0.478   0.274   0.924
 1732TIP3    H2 5203   0.417   0.183   1.029
 1733TIP3   OH2 5204   0.722   3.668   1.444
 1733TIP3    H1 5205   0.646   3.714   1.408
 1733TIP3    H2 5206   0.699   3.650   1.535
 1734TIP3   OH2 5207   4.494   0.959   5.147
 1734TIP3    H1 5208   4.511   0.974   5.054
 1734TIP3    H2 5209   4.446   0.876   5.149
 1735TIP3   OH2 5210   1.971   2.296   4.215
 1735TIP3    H1 5211   1.982   2.206   4.184
 1735TIP3    H2 5212   1.899   2.331   4.163
 1736TIP3   OH2 5213   2.836   3.869   1.500
 1736TIP3    H1 5214   2.826   3.850   1.593
 1736TIP3    H2 5215   2.752   3.907   1.474
 1737TIP3   OH2 5216   3.564   0.290   0.544
 1737TIP3    H1 5217   3.647   0.279   0.497
 1737TIP3    H2 5218   3.498   0.250   0.488
 1738TIP3   OH2 5219   3.408   1.108   0.133
 1738TIP3    H1 5220   3.370   1.078   0.215
 1738TIP3    H2 5221   3.380   1.043   0.069
 1739TIP3   OH2 5222   1.415   2.436   3.840
 1739TIP3    H1 5223   1.414   2.475   3.928
 1739TIP3    H2 5224   1.497   2.387   3.837
 1740TIP3   OH2 5225   2.838   3.226   2.406
 1740TIP3    H1 5226   2.905   3.245   2.340
 1740TIP3    H2 5227   2.770   3.178   2.358
 1741TIP3   OH2 5228   4.583   1.167   4.377
 1741TIP3    H1 5229   4.536   1.170   4.293
 1741TIP3    H2 5230   4.668   1.208   4.358
 1742TIP3   OH2 5231   2.293   4.677   1.406
 1742TIP3    H1 5232   2.351   4.671   1.482
 1742TIP3    H2 5233   2.294   4.589   1.368
 1743TIP3   OH2 5234   0.597   4.544   3.554
 1743TIP3    H1 5235   0.513   4.506   3.528
 1743TIP3    H2 5236   0.655   4.468   3.565
 1744TIP3   OH2 5237   4.475   1.299   2.920
 1744TIP3    H1 5238   4.442   1.388   2.936
 1744TIP3    H2 5239   4.546   1.312   2.856
 1745TIP3   OH2 5240   1.962   4.570   4.315
 1745TIP3    H1 5241   1.959   4.518   4.234
 1745TIP3    H2 5242   1.884   4.626   4.310
 1746TIP3   OH2 5243   3.653   3.419   1.921
 1746TIP3    H1 5244   3.593   3.364   1.871
 1746TIP3    H2 5245   3.726   3.436   1.862
 1747TIP3   OH2 5246   4.960   1.865   4.750
 1747TIP3    H1 5247   4.964   1.860   4.655
 1747TIP3    H2 5248   5.051   1.872   4.778
 1748TIP3   OH2 5249   1.896   4.718   2.606
 1748TIP3    H1 5250   1.932   4.764   2.682
 1748TIP3    H2 5251   1.822   4.669   2.641
 1749TIP3   OH2 5252   3.803   5.674   1.481
 1749TIP3    H1 5253   3.897   5.691   1.479
 1749TIP3    H2 5254   3.764   5.758   1.505
 1750TIP3   OH2 5255   5.267   5.018   0.161
 1750TIP3    H1 5256   5.200   5.013   0.092
 1750TIP3    H2 5257   5.271   5.110   0.185
 1751TIP3   OH2 5258   3.182   1.782   2.847
 1751TIP3    H1 5259   3.268   1.824   2.856
 1751TIP3    H2 5260   3.192   1.698   2.891
 1752TIP3   OH2 5261   2.255   0.117   4.159
 1752TIP3    H1 5262   2.339   0.155   4.184
 1752TIP3    H2 5263   2.277   0.042   4.105
 1753TIP3   OH2 5264   0.792   3.993   4.233
 1753TIP3    H1 5265   0.783   4.011   4.139
 1753TIP3    H2 5266   0.855   3.920   4.237
 1754TIP3   OH2 5267   1.044   1.188   2.504
 1754TIP3    H1 5268   1.123   1.158   2.458
 1754TIP3    H2 5269   1.002   1.108   2.534
 1755TIP3   OH2 5270   4.551   0.280   2.005
 1755TIP3    H1 5271   4.498   0.342   1.955
 1755TIP3    H2 5272   4.517   0.285   2.094
 1756TIP3   OH2 5273   2.591   4.263   0.861
 1756TIP3    H1 5274   2.536   4.218   0.797
 1756TIP3    H2 5275   2.618   4.343   0.817
 1757TIP3   OH2 5276   2.759   5.984   0.226
 1757TIP3    H1 5277   2.782   6.073   0.253
 1757TIP3    H2 5278   2.733   5.993   0.134
 1758TIP3   OH2 5279   4.531   3.901   2.308
 1758TIP3    H1 5280   4.453   3.939   2.268
 1758TIP3    H2 5281   4.585   3.977   2.333
 1759TIP3   OH2 5282   5.371   1.467   2.772
 1759TIP3    H1 5283   5.309   1.425   2.712
 1759TIP3    H2 5284   5.386   1.553   2.734
 1760TIP3   OH2 5285   5.846   0.233   3.496
 1760TIP3    H1 5286   5.867   0.320   3.461
 1760TIP3    H2 5287   5.796   0.250   3.575
 1761TIP3   OH2 5288   4.538   1.495   4.394
 1761TIP3    H1 5289   4.471   1.562   4.384
 1761TIP3    H2 5290   4.544   1.480   4.488
 1762TIP3   OH2 5291   1.735   0.852   1.586
 1762TIP3    H1 5292   1.817   0.812   1.614
 1762TIP3    H2 5293   1.698   0.789   1.523
 1763TIP3   OH2 5294   2.218   1.800   0.293
 1763TIP3    H1 5295   2.303   1.837   0.274
 1763TIP3    H2 5296   2.169   1.871   0.335
 1764TIP3   OH2 5297   5.954   4.113   2.520
 1764TIP3    H1 5298   6.000   4.042   2.475
 1764TIP3    H2 5299   5.882   4.136   2.463
 1765TIP3   OH2 5300   4.855   4.649   4.467
 1765TIP3    H1 5301   4.917   4.689   4.527
 1765TIP3    H2 5302   4.880   4.680   4.381
 1766TIP3   OH2 5303   5.846   4.489   4.732
 1766TIP3    H1 5304   5.851   4.519   4.823
 1766TIP3    H2 5305   5.856   4.394   4.738
 1767TIP3   OH2 5306   1.888   0.429   4.834
 1767TIP3    H1 5307   1.909   0.520   4.855
 1767TIP3    H2 5308   1.944   0.408   4.759
 1768TIP3   OH2 5309   5.273   3.178   0.545
 1768TIP3    H1 5310   5.324   3.146   0.470
 1768TIP3    H2 5311   5.259   3.100   0.599
 1769TIP3   OH2 5312   2.769   4.575   2.365
 1769TIP3    H1 5313   2.790   4.664   2.395
 1769TIP3    H2 5314   2.800   4.572   2.274
 1770TIP3   OH2 5315   1.627   1.627   3.539
 1770TIP3    H1 5316   1.605   1.644   3.630
 1770TIP3    H2 5317   1.602   1.536   3.525
 1771TIP3   OH2 5318   3.853   3.265   1.048
 1771TIP3    H1 5319   3.771   3.314   1.046
 1771TIP3    H2 5320   3.854   3.215   0.966
 1772TIP3   OH2 5321   3.419   1.301   2.112
 1772TIP3    H1 5322   3.380   1.372   2.062
 1772TIP3    H2 5323   3.391   1.221   2.067
 1773TIP3   OH2 5324   4.363   1.720   4.454
 1773TIP3    H1 5325   4.305   1.796   4.445
 1773TIP3    H2 5326   4.448   1.758   4.479
 1774TIP3   OH2 5327   4.513   4.489   1.593
 1774TIP3    H1 5328   4.472   4.563   1.638
 1774TIP3    H2 5329   4.479   4.492   1.504
 1775TIP3   OH2 5330   0.233   3.779   3.934
 1775TIP3    H1 5331   0.302   3.714   3.946
 1775TIP3    H2 5332   0.279   3.863   3.929
 1776TIP3   OH2 5333   6.010   0.153   5.115
 1776TIP3    H1 5334   6.086   0.107   5.150
 1776TIP3    H2 5335   5.953   0.083   5.082
 1777TIP3   OH2 5336   2.472   3.328   2.595
 1777TIP3    H1 5337   2.460   3.260   2.661
 1777TIP3    H2 5338   2.507   3.282   2.519
 1778TIP3   OH2 5339  -0.003   3.373   4.600
 1778TIP3    H1 5340   0.018   3.282   4.619
 1778TIP3    H2 5341   0.039   3.422   4.670
 1779TIP3   OH2 5342   3.464   1.328   3.123
 1779TIP3    H1 5343   3.422   1.370   3.197
 1779TIP3    H2 5344   3.555   1.315   3.151
 1780TIP3   OH2 5345   1.629   3.528   4.407
 1780TIP3    H1 5346   1.621   3.602   4.347
 1780TIP3    H2 5347   1.717   3.494   4.391
 1781TIP3   OH2 5348   5.530   5.961   2.170
 1781TIP3    H1 5349   5.466   6.009   2.116
 1781TIP3    H2 5350   5.598   6.026   2.189
 1782TIP3   OH2 5351   4.421   5.362   2.764
 1782TIP3    H1 5352   4.366   5.391   2.691
 1782TIP3    H2 5353   4.446   5.444   2.808
 1783TIP3   OH2 5354   1.963   3.691   0.154
 1783TIP3    H1 5355   1.915   3.657   0.078
 1783TIP3    H2 5356   1.972   3.617   0.213
 1784TIP3   OH2 5357   1.201   1.197   0.614
 1784TIP3    H1 5358   1.283   1.201   0.664
 1784TIP3    H2 5359   1.136   1.168   0.678
 1785TIP3   OH2 5360   5.400   1.905   3.193
 1785TIP3    H1 5361   5.477   1.866   3.235
 1785TIP3    H2 5362   5.340   1.832   3.180
 1786TIP3   OH2 5363   3.618   3.242   0.040
 1786TIP3    H1 5364   3.550   3.176   0.057
 1786TIP3    H2 5365   3.680   3.198  -0.017
 1787TIP3   OH2 5366   0.212   3.252   0.524
 1787TIP3    H1 5367   0.178   3.210   0.603
 1787TIP3    H2 5368   0.163   3.334   0.518
 1788TIP3   OH2 5369   3.125   2.319   1.453
 1788TIP3    H1 5370   3.197   2.287   1.506
 1788TIP3    H2 5371   3.056   2.254   1.465
 1789TIP3   OH2 5372   2.235   2.443   4.149
 1789TIP3    H1 5373   2.285   2.370   4.113
 1789TIP3    H2 5374   2.144   2.412   4.150
 1790TIP3   OH2 5375   4.388   0.600   3.571
 1790TIP3    H1 5376   4.320   0.661   3.599
 1790TIP3    H2 5377   4.421   0.636   3.489
 1791TIP3   OH2 5378   2.821   4.328   1.115
 1791TIP3    H1 5379   2.806   4.351   1.024
 1791TIP3    H2 5380   2.736   4.301   1.148
 1792TIP3   OH2 5381   3.729   5.319   0.888
 1792TIP3    H1 5382   3.803   5.277   0.931
 1792TIP3    H2 5383   3.652   5.279   0.928
 1793TIP3   OH2 5384   3.163   4.254   3.208
 1793TIP3    H1 5385   3.148   4.173   3.257
 1793TIP3    H2 5386   3.255   4.249   3.182
 1794TIP3   OH2 5387   2.694   5.712   1.593
 1794TIP3    H1 5388   2.618   5.770   1.600
 1794TIP3    H2 5389   2.734   5.716   1.680
 1795TIP3   OH2 5390   6.137   0.972   4.114
 1795TIP3    H1 5391   6.196   1.047   4.113
 1795TIP3    H2 5392   6.124   0.952   4.207
 1796TIP3   OH2 5393   5.036   0.303   1.554
 1796TIP3    H1 5394   5.051   0.329   1.463
 1796TIP3    H2 5395   5.103   0.236   1.571
 1797TIP3   OH2 5396   5.604   3.365   3.543
 1797TIP3    H1 5397   5.699   3.354   3.551
 1797TIP3    H2 5398   5.584   3.445   3.593
 1798TIP3   OH2 5399   4.675   1.302   0.507
 1798TIP3    H1 5400   4.736   1.359   0.460
 1798TIP3    H2 5401   4.615   1.269   0.439
 1799TIP3   OH2 5402   0.487   0.893   2.120
 1799TIP3    H1 5403   0.432   0.815   2.124
 1799TIP3    H2 5404   0.481   0.931   2.208
 1800TIP3   OH2 5405   2.475   5.376   2.822
 1800TIP3    H1 5406   2.386   5.357   2.851
 1800TIP3    H2 5407   2.527   5.379   2.903
 1801TIP3   OH2 5408   2.515   3.580   1.339
 1801TIP3    H1 5409   2.601   3.554   1.372
 1801TIP3    H2 5410   2.458   3.577   1.416
 1802TIP3   OH2 5411   4.662   1.391   3.985
 1802TIP3    H1 5412   4.585   1.426   4.029
 1802TIP3    H2 5413   4.709   1.468   3.953
 1803TIP3   OH2 5414   5.234   1.088   3.059
 1803TIP3    H1 5415   5.175   1.123   3.126
 1803TIP3    H2 5416   5.261   1.003   3.094
 1804TIP3   OH2 5417   4.685   0.623   4.954
 1804TIP3    H1 5418   4.728   0.687   4.898
 1804TIP3    H2 5419   4.738   0.620   5.034
 1805TIP3   OH2 5420   3.910   5.202   4.652
 1805TIP3    H1 5421   3.865   5.276   4.692
 1805TIP3    H2 5422   3.890   5.210   4.559
 1806TIP3   OH2 5423   4.001   4.166   3.459
 1806TIP3    H1 5424   3.910   4.175   3.487
 1806TIP3    H2 5425   3.996   4.160   3.364
 1807TIP3   OH2 5426   0.251   0.750   2.138
 1807TIP3    H1 5427   0.271   0.827   2.191
 1807TIP3    H2 5428   0.169   0.772   2.093
 1808TIP3   OH2 5429   5.911   3.586   2.949
 1808TIP3    H1 5430   5.890   3.659   2.891
 1808TIP3    H2 5431   5.965   3.626   3.018
 1809TIP3   OH2 5432   4.717   0.384   3.728
 1809TIP3    H1 5433   4.740   0.453   3.665
 1809TIP3    H2 5434   4.628   0.405   3.755
 1810TIP3   OH2 5435   1.716   1.141   4.361
 1810TIP3    H1 5436   1.761   1.120   4.278
 1810TIP3    H2 5437   1.778   1.196   4.408
 1811TIP3   OH2 5438   5.922   1.668   2.550
 1811TIP3    H1 5439   5.839   1.708   2.524
 1811TIP3    H2 5440   5.961   1.638   2.468
 1812TIP3   OH2 5441   1.887   5.953   5.032
 1812TIP3    H1 5442   1.949   5.935   4.961
 1812TIP3    H2 5443   1.880   5.871   5.080
 1813TIP3   OH2 5444   2.959   2.803   4.877
 1813TIP3    H1 5445   2.941   2.808   4.971
 1813TIP3    H2 5446   2.995   2.716   4.863
 1814TIP3   OH2 5447   3.133   3.626   3.877
 1814TIP3    H1 5448   3.116   3.572   3.954
 1814TIP3    H2 5449   3.220   3.663   3.893
 1815TIP3   OH2 5450   5.846   0.670   3.691
 1815TIP3    H1 5451   5.856   0.765   3.688
 1815TIP3    H2 5452   5.781   0.651   3.623
 1816TIP3   OH2 5453   1.582   3.464  -0.051
 1816TIP3    H1 5454   1.512   3.506  -0.002
 1816TIP3    H2 5455   1.606   3.388   0.001
 1817TIP3   OH2 5456   3.023   3.423   5.089
 1817TIP3    H1 5457   2.976   3.362   5.147
 1817TIP3    H2 5458   3.043   3.499   5.144
 1818TIP3   OH2 5459   4.440   1.282   4.955
 1818TIP3    H1 5460   4.505   1.258   5.020
 1818TIP3    H2 5461   4.470   1.240   4.874
 1819TIP3   OH2 5462   1.123   0.102   4.848
 1819TIP3    H1 5463   1.183   0.175   4.832
 1819TIP3    H2 5464   1.153   0.064   4.930
 1820TIP3   OH2 5465   2.753   2.765   1.186
 1820TIP3    H1 5466   2.747   2.697   1.253
 1820TIP3    H2 5467   2.742   2.718   1.103
 1821TIP3   OH2 5468   3.054   3.489   4.116
 1821TIP3    H1 5469   3.032   3.570   4.162
 1821TIP3    H2 5470   3.128   3.453   4.164
 1822TIP3   OH2 5471   1.261   4.002   0.156
 1822TIP3    H1 5472   1.336   4.022   0.211
 1822TIP3    H2 5473   1.198   3.961   0.216
 1823TIP3   OH2 5474   1.049   3.730   2.554
 1823TIP3    H1 5475   1.103   3.679   2.494
 1823TIP3    H2 5476   1.028   3.810   2.505
 1824TIP3   OH2 5477   4.741   2.308   0.991
 1824TIP3    H1 5478   4.679   2.379   0.972
 1824TIP3    H2 5479   4.801   2.346   1.055
 1825TIP3   OH2 5480   0.381   3.333   4.229
 1825TIP3    H1 5481   0.409   3.283   4.305
 1825TIP3    H2 5482   0.422   3.419   4.240
 1826TIP3   OH2 5483   0.110   1.170   3.749
 1826TIP3    H1 5484   0.084   1.081   3.774
 1826TIP3    H2 5485   0.205   1.166   3.741
 1827TIP3   OH2 5486   0.121   2.114   3.058
 1827TIP3    H1 5487   0.184   2.113   2.986
 1827TIP3    H2 5488   0.079   2.200   3.052
 1828TIP3   OH2 5489   2.828   3.005   0.441
 1828TIP3    H1 5490   2.828   2.966   0.529
 1828TIP3    H2 5491   2.780   2.943   0.387
 1829TIP3   OH2 5492   4.608   5.392   2.205
 1829TIP3    H1 5493   4.685   5.349   2.168
 1829TIP3    H2 5494   4.619   5.383   2.299
 1830TIP3   OH2 5495   3.592   0.779   4.363
 1830TIP3    H1 5496   3.647   0.701   4.370
 1830TIP3    H2 5497   3.631   0.829   4.291
 1831TIP3   OH2 5498   4.336   0.807   0.404
 1831TIP3    H1 5499   4.242   0.818   0.422
 1831TIP3    H2 5500   4.360   0.886   0.356
 1832TIP3   OH2 5501   4.977   1.088   1.175
 1832TIP3    H1 5502   4.953   1.075   1.083
 1832TIP3    H2 5503   5.024   1.171   1.175
 1833TIP3   OH2 5504   2.718   5.473   3.901
 1833TIP3    H1 5505   2.797   5.519   3.874
 1833TIP3    H2 5506   2.726   5.386   3.862
 1834TIP3   OH2 5507   4.280   5.931   0.602
 1834TIP3    H1 5508   4.352   5.884   0.561
 1834TIP3    H2 5509   4.222   5.863   0.636
 1835TIP3   OH2 5510   6.003   5.209   1.401
 1835TIP3    H1 5511   6.086   5.212   1.353
 1835TIP3    H2 5512   5.967   5.297   1.392
 1836TIP3   OH2 5513   0.886   5.806   0.787
 1836TIP3    H1 5514   0.950   5.847   0.846
 1836TIP3    H2 5515   0.822   5.766   0.845
 1837TIP3   OH2 5516   0.143   0.228   4.940
 1837TIP3    H1 5517   0.208   0.294   4.915
 1837TIP3    H2 5518   0.143   0.228   5.036
 1838TIP3   OH2 5519   3.709   5.768   1.996
 1838TIP3    H1 5520   3.712   5.709   1.921
 1838TIP3    H2 5521   3.647   5.837   1.970
 1839TIP3   OH2 5522   3.973   4.994   3.180
 1839TIP3    H1 5523   3.922   4.916   3.160
 1839TIP3    H2 5524   4.014   5.019   3.097
 1840TIP3   OH2 5525   5.507   5.001   4.971
 1840TIP3    H1 5526   5.479   5.053   5.046
 1840TIP3    H2 5527   5.580   4.949   5.004
 1841TIP3   OH2 5528   5.332   1.060   4.524
 1841TIP3    H1 5529   5.374   1.121   4.585
 1841TIP3    H2 5530   5.249   1.102   4.502
 1842TIP3   OH2 5531   2.679   1.893   0.682
 1842TIP3    H1 5532   2.754   1.905   0.739
 1842TIP3    H2 5533   2.712   1.912   0.594
 1843TIP3   OH2 5534   0.248   2.589   3.631
 1843TIP3    H1 5535   0.334   2.569   3.595
 1843TIP3    H2 5536   0.250   2.550   3.719
 1844TIP3   OH2 5537   2.653   0.452   3.479
 1844TIP3    H1 5538   2.569   0.415   3.454
 1844TIP3    H2 5539   2.656   0.445   3.574
 1845TIP3   OH2 5540   1.806   1.976   2.315
 1845TIP3    H1 5541   1.845   2.059   2.288
 1845TIP3    H2 5542   1.830   1.967   2.408
 1846TIP3   OH2 5543   5.660   1.490   3.804
 1846TIP3    H1 5544   5.691   1.400   3.802
 1846TIP3    H2 5545   5.576   1.486   3.849
 1847TIP3   OH2 5546   0.604   2.621   2.362
 1847TIP3    H1 5547   0.603   2.548   2.425
 1847TIP3    H2 5548   0.690   2.616   2.321
 1848TIP3   OH2 5549   2.418   5.644   4.315
 1848TIP3    H1 5550   2.420   5.595   4.233
 1848TIP3    H2 5551   2.457   5.584   4.379
 1849TIP3   OH2 5552   2.325   0.741   1.882
 1849TIP3    H1 5553   2.377   0.820   1.868
 1849TIP3    H2 5554   2.238   0.764   1.850
 1850TIP3   OH2 5555   3.742   2.185   5.106
 1850TIP3    H1 5556   3.803   2.112   5.111
 1850TIP3    H2 5557   3.764   2.229   5.024
 1851TIP3   OH2 5558   5.829   4.551   2.359
 1851TIP3    H1 5559   5.833   4.572   2.266
 1851TIP3    H2 5560   5.899   4.488   2.373
 1852TIP3   OH2 5561   5.497   0.934   2.258
 1852TIP3    H1 5562   5.519   0.888   2.339
 1852TIP3    H2 5563   5.569   0.914   2.198
 1853TIP3   OH2 5564   1.183   5.871   1.853
 1853TIP3    H1 5565   1.164   5.885   1.946
 1853TIP3    H2 5566   1.129   5.936   1.807
 1854TIP3   OH2 5567   2.497   5.251   4.512
 1854TIP3    H1 5568   2.452   5.245   4.596
 1854TIP3    H2 5569   2.429   5.235   4.447
 1855TIP3   OH2 5570   2.356   2.557   2.384
 1855TIP3    H1 5571   2.364   2.605   2.302
 1855TIP3    H2 5572   2.306   2.615   2.441
 1856TIP3   OH2 5573   4.365   2.375   5.072
 1856TIP3    H1 5574   4.373   2.280   5.079
 1856TIP3    H2 5575   4.445   2.408   5.113
 1857TIP3   OH2 5576   5.278   0.498   2.457
 1857TIP3    H1 5577   5.187   0.472   2.445
 1857TIP3    H2 5578   5.276   0.593   2.458
 1858TIP3   OH2 5579   2.629   3.653   4.815
 1858TIP3    H1 5580   2.689   3.682   4.745
 1858TIP3    H2 5581   2.677   3.585   4.861
 1859TIP3   OH2 5582   0.808   1.728   5.005
 1859TIP3    H1 5583   0.819   1.633   5.006
 1859TIP3    H2 5584   0.896   1.762   4.988
 1860TIP3   OH2 5585   4.581   4.977   3.921
 1860TIP3    H1 5586   4.514   4.954   3.855
 1860TIP3    H2 5587   4.535   4.968   4.004
 1861TIP3   OH2 5588   1.430   5.402   2.208
 1861TIP3    H1 5589   1.434   5.417   2.303
 1861TIP3    H2 5590   1.470   5.316   2.196
 1862TIP3   OH2 5591   4.941   5.651   4.072
 1862TIP3    H1 5592   4.877   5.716   4.100
 1862TIP3    H2 5593   4.916   5.571   4.120
 1863TIP3   OH2 5594   2.391   0.437   1.615
 1863TIP3    H1 5595   2.468   0.488   1.639
 1863TIP3    H2 5596   2.374   0.460   1.524
 1864TIP3   OH2 5597   6.144   2.611   0.342
 1864TIP3    H1 5598   6.052   2.601   0.315
 1864TIP3    H2 5599   6.171   2.522   0.368
 1865TIP3   OH2 5600   6.080   3.601   1.491
 1865TIP3    H1 5601   6.118   3.678   1.447
 1865TIP3    H2 5602   5.987   3.623   1.500
 1866TIP3   OH2 5603   3.736   2.668   0.488
 1866TIP3    H1 5604   3.729   2.615   0.567
 1866TIP3    H2 5605   3.705   2.611   0.417
 1867TIP3   OH2 5606   3.223   1.064   3.912
 1867TIP3    H1 5607   3.275   1.112   3.847
 1867TIP3    H2 5608   3.139   1.049   3.869
 1868TIP3   OH2 5609   4.679   1.732   0.199
 1868TIP3    H1 5610   4.690   1.788   0.276
 1868TIP3    H2 5611   4.768   1.717   0.169
 1869TIP3   OH2 5612   3.454   5.978   4.347
 1869TIP3    H1 5613   3.452   5.899   4.293
 1869TIP3    H2 5614   3.381   5.967   4.408
 1870TIP3   OH2 5615   5.376   4.437   4.979
 1870TIP3    H1 5616   5.467   4.408   4.979
 1870TIP3    H2 5617   5.328   4.366   4.938
 1871TIP3   OH2 5618   1.846   4.006   3.191
 1871TIP3    H1 5619   1.796   3.924   3.187
 1871TIP3    H2 5620   1.824   4.044   3.276
 1872TIP3   OH2 5621   6.186   4.503   1.935
 1872TIP3    H1 5622   6.222   4.417   1.957
 1872TIP3    H2 5623   6.245   4.565   1.976
 1873TIP3   OH2 5624   1.920   4.375   3.183
 1873TIP3    H1 5625   1.951   4.460   3.154
 1873TIP3    H2 5626   1.856   4.394   3.252
 1874TIP3   OH2 5627   1.376   3.592   3.132
 1874TIP3    H1 5628   1.407   3.516   3.181
 1874TIP3    H2 5629   1.424   3.589   3.050
 1875TIP3   OH2 5630   1.038   5.679   2.298
 1875TIP3    H1 5631   0.986   5.687   2.377
 1875TIP3    H2 5632   1.129   5.690   2.327
 1876TIP3   OH2 5633   0.436   2.001   1.960
 1876TIP3    H1 5634   0.413   2.084   1.918
 1876TIP3    H2 5635   0.358   1.946   1.949
 1877TIP3   OH2 5636   4.987   3.230   4.918
 1877TIP3    H1 5637   5.080   3.234   4.895
 1877TIP3    H2 5638   4.943   3.270   4.843
 1878TIP3   OH2 5639   3.248   2.834   4.940
 1878TIP3    H1 5640   3.158   2.812   4.916
 1878TIP3    H2 5641   3.295   2.750   4.935
 1879TIP3   OH2 5642   4.626   1.011   3.887
 1879TIP3    H1 5643   4.608   0.932   3.835
 1879TIP3    H2 5644   4.714   0.996   3.923
 1880TIP3   OH2 5645   4.273   2.181   2.639
 1880TIP3    H1 5646   4.219   2.221   2.571
 1880TIP3    H2 5647   4.336   2.249   2.663
 1881TIP3   OH2 5648   5.906   1.551   3.689
 1881TIP3    H1 5649   5.986   1.528   3.736
 1881TIP3    H2 5650   5.836   1.514   3.743
 1882TIP3   OH2 5651   3.501   0.249   4.149
 1882TIP3    H1 5652   3.589   0.215   4.167
 1882TIP3    H2 5653   3.509   0.344   4.158
 1883TIP3   OH2 5654   2.753   2.618   0.950
 1883TIP3    H1 5655   2.782   2.697   0.905
 1883TIP3    H2 5656   2.823   2.554   0.935
 1884TIP3   OH2 5657   5.082   2.484   3.301
 1884TIP3    H1 5658   5.132   2.489   3.220
 1884TIP3    H2 5659   5.024   2.560   3.297
 1885TIP3   OH2 5660   2.491   1.777   1.525
 1885TIP3    H1 5661   2.467   1.777   1.433
 1885TIP3    H2 5662   2.581   1.812   1.526
 1886TIP3   OH2 5663   4.752   2.481   1.628
 1886TIP3    H1 5664   4.780   2.424   1.700
 1886TIP3    H2 5665   4.809   2.557   1.634
 1887TIP3   OH2 5666   2.374   0.388   0.747
 1887TIP3    H1 5667   2.361   0.293   0.741
 1887TIP3    H2 5668   2.400   0.403   0.838
 1888TIP3   OH2 5669   2.679   3.493   5.188
 1888TIP3    H1 5670   2.774   3.498   5.190
 1888TIP3    H2 5671   2.651   3.540   5.266
 1889TIP3   OH2 5672   2.636   1.202   2.682
 1889TIP3    H1 5673   2.663   1.244   2.764
 1889TIP3    H2 5674   2.678   1.116   2.684
 1890TIP3   OH2 5675   1.209   2.815   2.749
 1890TIP3    H1 5676   1.209   2.865   2.666
 1890TIP3    H2 5677   1.242   2.729   2.725
 1891TIP3   OH2 5678   5.862   4.436   4.061
 1891TIP3    H1 5679   5.825   4.348   4.062
 1891TIP3    H2 5680   5.955   4.423   4.080
 1892TIP3   OH2 5681   3.808   2.564   2.097
 1892TIP3    H1 5682   3.756   2.492   2.062
 1892TIP3    H2 5683   3.833   2.616   2.021
 1893TIP3   OH2 5684   4.794   1.594   4.429
 1893TIP3    H1 5685   4.850   1.518   4.445
 1893TIP3    H2 5686   4.718   1.559   4.383
 1894TIP3   OH2 5687   3.346   5.073   3.066
 1894TIP3    H1 5688   3.368   5.024   2.988
 1894TIP3    H2 5689   3.411   5.046   3.131
 1895TIP3   OH2 5690   5.815   4.943   3.235
 1895TIP3    H1 5691   5.769   4.955   3.319
 1895TIP3    H2 5692   5.898   4.990   3.246
 1896TIP3   OH2 5693   0.703   4.838   1.835
 1896TIP3    H1 5694   0.680   4.859   1.744
 1896TIP3    H2 5695   0.623   4.801   1.872
 1897TIP3   OH2 5696   5.456   3.017   4.497
 1897TIP3    H1 5697   5.505   2.993   4.418
 1897TIP3    H2 5698   5.365   3.024   4.468
 1898TIP3   OH2 5699   2.851   1.012   3.500
 1898TIP3    H1 5700   2.918   0.943   3.496
 1898TIP3    H2 5701   2.827   1.027   3.409
 1899TIP3   OH2 5702   1.454   0.535   3.009
 1899TIP3    H1 5703   1.451   0.445   2.976
 1899TIP3    H2 5704   1.385   0.581   2.961
 1900TIP3   OH2 5705   2.796   2.165   2.772
 1900TIP3    H1 5706   2.790   2.250   2.816
 1900TIP3    H2 5707   2.816   2.103   2.842
 1901TIP3   OH2 5708   4.090   5.458   2.536
 1901TIP3    H1 5709   4.171   5.408   2.534
 1901TIP3    H2 5710   4.098   5.519   2.463
 1902TIP3   OH2 5711   4.557   2.039   2.021
 1902TIP3    H1 5712   4.577   1.950   1.994
 1902TIP3    H2 5713   4.551   2.089   1.939
 1903TIP3   OH2 5714   0.017   5.301   4.888
 1903TIP3    H1 5715   0.066   5.382   4.875
 1903TIP3    H2 5716   0.032   5.251   4.808
 1904TIP3   OH2 5717   5.776   3.365   3.166
 1904TIP3    H1 5718   5.815   3.440   3.210
 1904TIP3    H2 5719   5.688   3.394   3.142
 1905TIP3   OH2 5720   6.121   5.090   0.383
 1905TIP3    H1 5721   6.084   5.156   0.326
 1905TIP3    H2 5722   6.149   5.020   0.324
 1906TIP3   OH2 5723   4.461   0.251   5.036
 1906TIP3    H1 5724   4.438   0.192   4.965
 1906TIP3    H2 5725   4.441   0.202   5.116
 1907TIP3   OH2 5726   0.935   0.865   3.478
 1907TIP3    H1 5727   0.913   0.786   3.429
 1907TIP3    H2 5728   0.878   0.863   3.554
 1908TIP3   OH2 5729   0.173   5.141   0.284
 1908TIP3    H1 5730   0.184   5.237   0.283
 1908TIP3    H2 5731   0.098   5.126   0.226
 1909TIP3   OH2 5732   0.269   5.924   1.160
 1909TIP3    H1 5733   0.298   6.008   1.123
 1909TIP3    H2 5734   0.215   5.949   1.235
 1910TIP3   OH2 5735   2.026   3.418   0.809
 1910TIP3    H1 5736   1.956   3.463   0.761
 1910TIP3    H2 5737   2.048   3.478   0.881
 1911TIP3   OH2 5738   2.504   4.939   5.026
 1911TIP3    H1 5739   2.531   4.849   5.006
 1911TIP3    H2 5740   2.441   4.961   4.958
 1912TIP3   OH2 5741   2.471   1.961   2.248
 1912TIP3    H1 5742   2.422   2.015   2.309
 1912TIP3    H2 5743   2.406   1.901   2.211
 1913TIP3   OH2 5744   5.677   1.565   5.138
 1913TIP3    H1 5745   5.737   1.569   5.213
 1913TIP3    H2 5746   5.655   1.472   5.131
 1914TIP3   OH2 5747   6.375   2.276   4.296
 1914TIP3    H1 5748   6.294   2.269   4.245
 1914TIP3    H2 5749   6.382   2.193   4.342
 1915TIP3   OH2 5750   5.406   5.879   2.972
 1915TIP3    H1 5751   5.416   5.854   2.880
 1915TIP3    H2 5752   5.327   5.833   3.000
 1916TIP3   OH2 5753   3.629   3.685   1.191
 1916TIP3    H1 5754   3.700   3.627   1.220
 1916TIP3    H2 5755   3.550   3.633   1.204
 1917TIP3   OH2 5756   0.991   3.384   2.370
 1917TIP3    H1 5757   1.052   3.454   2.393
 1917TIP3    H2 5758   0.921   3.389   2.435
 1918TIP3   OH2 5759   2.171   2.234   5.116
 1918TIP3    H1 5760   2.232   2.210   5.186
 1918TIP3    H2 5761   2.106   2.163   5.117
 1919TIP3   OH2 5762   4.955   2.746   2.301
 1919TIP3    H1 5763   4.902   2.695   2.362
 1919TIP3    H2 5764   4.934   2.837   2.321
 1920TIP3   OH2 5765   3.125   3.806   1.904
 1920TIP3    H1 5766   3.144   3.840   1.991
 1920TIP3    H2 5767   3.116   3.885   1.850
 1921TIP3   OH2 5768   1.730   2.085   0.524
 1921TIP3    H1 5769   1.774   2.001   0.527
 1921TIP3    H2 5770   1.733   2.111   0.431
 1922TIP3   OH2 5771   3.962   0.864   0.828
 1922TIP3    H1 5772   3.920   0.893   0.747
 1922TIP3    H2 5773   4.056   0.874   0.812
 1923TIP3   OH2 5774   3.185   2.060   1.328
 1923TIP3    H1 5775   3.233   2.094   1.403
 1923TIP3    H2 5776   3.092   2.069   1.352
 1924TIP3   OH2 5777   3.272   2.128   4.618
 1924TIP3    H1 5778   3.359   2.101   4.646
 1924TIP3    H2 5779   3.276   2.129   4.522
 1925TIP3   OH2 5780   0.573   0.980   4.917
 1925TIP3    H1 5781   0.523   1.035   4.856
 1925TIP3    H2 5782   0.513   0.908   4.937
 1926TIP3   OH2 5783   5.761   4.940   3.934
 1926TIP3    H1 5784   5.707   4.970   4.008
 1926TIP3    H2 5785   5.810   4.866   3.969
 1927TIP3   OH2 5786   5.378   3.798   1.501
 1927TIP3    H1 5787   5.441   3.863   1.469
 1927TIP3    H2 5788   5.334   3.841   1.574
 1928TIP3   OH2 5789   2.231   3.107   1.405
 1928TIP3    H1 5790   2.320   3.112   1.439
 1928TIP3    H2 5791   2.178   3.160   1.465
 1929TIP3   OH2 5792   1.018   3.810   4.308
 1929TIP3    H1 5793   0.961   3.734   4.298
 1929TIP3    H2 5794   1.047   3.830   4.219
 1930TIP3   OH2 5795   1.635   0.063   1.155
 1930TIP3    H1 5796   1.546   0.085   1.182
 1930TIP3    H2 5797   1.661  -0.009   1.213
 1931TIP3   OH2 5798   2.103   5.723   1.056
 1931TIP3    H1 5799   2.025   5.771   1.030
 1931TIP3    H2 5800   2.152   5.709   0.975
 1932TIP3   OH2 5801   3.539   1.463   4.407
 1932TIP3    H1 5802   3.546   1.378   4.449
 1932TIP3    H2 5803   3.450   1.492   4.426
 1933TIP3   OH2 5804   4.093   2.337   1.035
 1933TIP3    H1 5805   4.145   2.315   1.112
 1933TIP3    H2 5806   4.151   2.390   0.980
 1934TIP3   OH2 5807   0.725   5.228   4.206
 1934TIP3    H1 5808   0.668   5.229   4.283
 1934TIP3    H2 5809   0.668   5.254   4.134
 1935TIP3   OH2 5810   4.694   2.173   3.824
 1935TIP3    H1 5811   4.685   2.077   3.820
 1935TIP3    H2 5812   4.760   2.193   3.758
 1936TIP3   OH2 5813   3.285   2.814   1.200
 1936TIP3    H1 5814   3.278   2.733   1.150
 1936TIP3    H2 5815   3.195   2.833   1.227
 1937TIP3   OH2 5816   5.474   5.204   1.217
 1937TIP3    H1 5817   5.542   5.160   1.167
 1937TIP3    H2 5818   5.508   5.206   1.307
 1938TIP3   OH2 5819   0.298   3.734   2.869
 1938TIP3    H1 5820   0.288   3.654   2.819
 1938TIP3    H2 5821   0.293   3.804   2.804
 1939TIP3   OH2 5822   5.749   2.391   4.726
 1939TIP3    H1 5823   5.783   2.348   4.805
 1939TIP3    H2 5824   5.826   2.430   4.686
 1940TIP3   OH2 5825   3.619   1.840   0.671
 1940TIP3    H1 5826   3.663   1.800   0.746
 1940TIP3    H2 5827   3.624   1.774   0.602
 1941TIP3   OH2 5828   1.381   0.652   4.751
 1941TIP3    H1 5829   1.472   0.633   4.727
 1941TIP3    H2 5830   1.329   0.608   4.684
 1942TIP3   OH2 5831   3.311   1.383   0.305
 1942TIP3    H1 5832   3.385   1.419   0.354
 1942TIP3    H2 5833   3.287   1.303   0.352
 1943TIP3   OH2 5834   3.466   2.466   3.068
 1943TIP3    H1 5835   3.445   2.445   2.977
 1943TIP3    H2 5836   3.470   2.382   3.112
 1944TIP3   OH2 5837   4.567   2.769   1.269
 1944TIP3    H1 5838   4.646   2.776   1.215
 1944TIP3    H2 5839   4.521   2.852   1.256
 1945TIP3   OH2 5840   4.463   4.754   2.347
 1945TIP3    H1 5841   4.394   4.783   2.288
 1945TIP3    H2 5842   4.475   4.827   2.408
 1946TIP3   OH2 5843   4.318   3.866   1.937
 1946TIP3    H1 5844   4.323   3.896   2.028
 1946TIP3    H2 5845   4.382   3.795   1.932
 1947TIP3   OH2 5846   3.688   0.026   1.653
 1947TIP3    H1 5847   3.744   0.048   1.727
 1947TIP3    H2 5848   3.622  -0.033   1.690
 1948TIP3   OH2 5849   1.772   4.249   0.755
 1948TIP3    H1 5850   1.773   4.248   0.659
 1948TIP3    H2 5851   1.849   4.300   0.780
 1949TIP3   OH2 5852   1.171   4.556   0.155
 1949TIP3    H1 5853   1.098   4.533   0.212
 1949TIP3    H2 5854   1.247   4.511   0.192
 1950TIP3   OH2 5855   5.016   4.715   1.120
 1950TIP3    H1 5856   5.007   4.810   1.136
 1950TIP3    H2 5857   4.925   4.684   1.117
 1951TIP3   OH2 5858   2.494   5.768   0.687
 1951TIP3    H1 5859   2.565   5.728   0.637
 1951TIP3    H2 5860   2.452   5.695   0.732
 1952TIP3   OH2 5861   2.097   1.280   4.060
 1952TIP3    H1 5862   2.135   1.324   3.983
 1952TIP3    H2 5863   2.108   1.187   4.042
 1953TIP3   OH2 5864   3.750   0.925   1.486
 1953TIP3    H1 5865   3.709   0.844   1.518
 1953TIP3    H2 5866   3.805   0.954   1.558
 1954TIP3   OH2 5867   3.282   5.720   1.140
 1954TIP3    H1 5868   3.262   5.680   1.055
 1954TIP3    H2 5869   3.304   5.646   1.197
 1955TIP3   OH2 5870   2.405   5.299   1.113
 1955TIP3    H1 5871   2.445   5.308   1.027
 1955TIP3    H2 5872   2.463   5.241   1.162
 1956TIP3   OH2 5873   3.471   4.269   1.002
 1956TIP3    H1 5874   3.524   4.193   1.027
 1956TIP3    H2 5875   3.530   4.343   1.012
 1957TIP3   OH2 5876   5.562   2.042   3.875
 1957TIP3    H1 5877   5.642   1.989   3.878
 1957TIP3    H2 5878   5.591   2.130   3.899
 1958TIP3   OH2 5879   1.957   2.537   0.699
 1958TIP3    H1 5880   2.017   2.507   0.767
 1958TIP3    H2 5881   1.905   2.459   0.677
 1959TIP3   OH2 5882   2.639   2.214   1.848
 1959TIP3    H1 5883   2.646   2.179   1.937
 1959TIP3    H2 5884   2.547   2.204   1.826
 1960TIP3   OH2 5885   0.809   3.708   2.856
 1960TIP3    H1 5886   0.886   3.657   2.832
 1960TIP3    H2 5887   0.765   3.656   2.923
 1961TIP3   OH2 5888   1.460   3.995   3.489
 1961TIP3    H1 5889   1.397   3.960   3.553
 1961TIP3    H2 5890   1.456   3.934   3.415
 1962TIP3   OH2 5891   4.799   5.442   3.024
 1962TIP3    H1 5892   4.856   5.388   2.969
 1962TIP3    H2 5893   4.852   5.465   3.100
 1963TIP3   OH2 5894   3.084   4.870   4.833
 1963TIP3    H1 5895   3.028   4.842   4.905
 1963TIP3    H2 5896   3.156   4.806   4.831
 1964TIP3   OH2 5897   2.033   4.816   1.425
 1964TIP3    H1 5898   2.117   4.772   1.413
 1964TIP3    H2 5899   2.052   4.889   1.484
 1965TIP3   OH2 5900   5.841   5.080   5.081
 1965TIP3    H1 5901   5.930   5.097   5.112
 1965TIP3    H2 5902   5.836   4.985   5.074
 1966TIP3   OH2 5903   2.609   2.891   1.919
 1966TIP3    H1 5904   2.673   2.865   1.986
 1966TIP3    H2 5905   2.524   2.884   1.962
 1967TIP3   OH2 5906   1.240   2.175   1.262
 1967TIP3    H1 5907   1.156   2.221   1.258
 1967TIP3    H2 5908   1.287   2.216   1.334
 1968TIP3   OH2 5909   3.936   4.037   2.833
 1968TIP3    H1 5910   4.011   4.064   2.780
 1968TIP3    H2 5911   3.885   3.980   2.775
 1969TIP3   OH2 5912   1.430   4.580   4.560
 1969TIP3    H1 5913   1.379   4.550   4.636
 1969TIP3    H2 5914   1.364   4.617   4.501
 1970TIP3   OH2 5915   6.270   1.979   1.045
 1970TIP3    H1 5916   6.194   1.956   0.992
 1970TIP3    H2 5917   6.338   1.916   1.018
 1971TIP3   OH2 5918   5.547   1.530   2.199
 1971TIP3    H1 5919   5.470   1.527   2.256
 1971TIP3    H2 5920   5.530   1.464   2.132
 1972TIP3   OH2 5921   5.430   3.129   4.741
 1972TIP3    H1 5922   5.441   3.068   4.667
 1972TIP3    H2 5923   5.338   3.153   4.739
 1973TIP3   OH2 5924   3.912   4.043   4.965
 1973TIP3    H1 5925   3.877   4.044   5.054
 1973TIP3    H2 5926   3.865   4.114   4.920
 1974TIP3   OH2 5927   1.915   2.444   1.078
 1974TIP3    H1 5928   1.887   2.523   1.032
 1974TIP3    H2 5929   2.003   2.426   1.044
 1975TIP3   OH2 5930   5.764   5.105   2.515
 1975TIP3    H1 5931   5.777   5.019   2.555
 1975TIP3    H2 5932   5.693   5.145   2.567
 1976TIP3   OH2 5933   0.955   2.180   0.582
 1976TIP3    H1 5934   1.039   2.200   0.622
 1976TIP3    H2 5935   0.972   2.104   0.527
 1977TIP3   OH2 5936   5.970   2.899   2.327
 1977TIP3    H1 5937   5.943   2.809   2.306
 1977TIP3    H2 5938   6.064   2.900   2.313
 1978TIP3   OH2 5939   1.687   3.163   2.863
 1978TIP3    H1 5940   1.779   3.179   2.841
 1978TIP3    H2 5941   1.653   3.114   2.789
 1979TIP3   OH2 5942   2.556   2.342   3.794
 1979TIP3    H1 5943   2.540   2.414   3.855
 1979TIP3    H2 5944   2.599   2.275   3.847
 1980TIP3   OH2 5945   3.039   0.785   3.476
 1980TIP3    H1 5946   2.987   0.751   3.403
 1980TIP3    H2 5947   3.080   0.707   3.514
 1981TIP3   OH2 5948   2.924   3.484   0.736
 1981TIP3    H1 5949   2.995   3.452   0.793
 1981TIP3    H2 5950   2.961   3.482   0.648
 1982TIP3   OH2 5951   3.959   0.595   2.348
 1982TIP3    H1 5952   4.047   0.622   2.323
 1982TIP3    H2 5953   3.965   0.577   2.442
 1983TIP3   OH2 5954   4.102   4.414   3.851
 1983TIP3    H1 5955   4.106   4.393   3.944
 1983TIP3    H2 5956   4.071   4.334   3.809
 1984TIP3   OH2 5957   1.639   0.614   4.681
 1984TIP3    H1 5958   1.660   0.627   4.589
 1984TIP3    H2 5959   1.673   0.692   4.725
 1985TIP3   OH2 5960   2.978   4.479   4.820
 1985TIP3    H1 5961   2.945   4.515   4.902
 1985TIP3    H2 5962   3.064   4.519   4.809
 1986TIP3   OH2 5963   5.277   4.158   4.561
 1986TIP3    H1 5964   5.239   4.079   4.523
 1986TIP3    H2 5965   5.202   4.213   4.582
 1987TIP3   OH2 5966   1.265   0.898   0.833
 1987TIP3    H1 5967   1.298   0.869   0.748
 1987TIP3    H2 5968   1.181   0.938   0.813
 1988TIP3   OH2 5969   3.061   0.939   3.180
 1988TIP3    H1 5970   3.149   0.926   3.144
 1988TIP3    H2 5971   3.031   0.850   3.200
 1989TIP3   OH2 5972   3.289   3.613   4.600
 1989TIP3    H1 5973   3.233   3.537   4.584
 1989TIP3    H2 5974   3.270   3.672   4.527
 1990TIP3   OH2 5975   2.041   1.346   3.583
 1990TIP3    H1 5976   2.089   1.424   3.556
 1990TIP3    H2 5977   2.095   1.273   3.553
 1991TIP3   OH2 5978   2.335   2.474   3.422
 1991TIP3    H1 5979   2.385   2.486   3.341
 1991TIP3    H2 5980   2.284   2.395   3.408
 1992TIP3   OH2 5981   5.789   3.731   3.758
 1992TIP3    H1 5982   5.866   3.738   3.701
 1992TIP3    H2 5983   5.824   3.736   3.847
 1993TIP3   OH2 5984   3.077   3.329   3.393
 1993TIP3    H1 5985   3.040   3.310   3.479
 1993TIP3    H2 5986   3.163   3.366   3.411
 1994TIP3   OH2 5987   1.474   4.419   0.958
 1994TIP3    H1 5988   1.414   4.381   1.021
 1994TIP3    H2 5989   1.561   4.408   0.997
 1995TIP3   OH2 5990   2.823   4.356   3.747
 1995TIP3    H1 5991   2.747   4.415   3.751
 1995TIP3    H2 5992   2.809   4.295   3.820
 1996TIP3   OH2 5993   3.827   0.142   0.466
 1996TIP3    H1 5994   3.845   0.107   0.553
 1996TIP3    H2 5995   3.884   0.219   0.458
 1997TIP3   OH2 5996   1.299   4.597   0.855
 1997TIP3    H1 5997   1.366   4.532   0.878
 1997TIP3    H2 5998   1.243   4.602   0.933
 1998TIP3   OH2 5999   0.211   2.190   5.105
 1998TIP3    H1 6000   0.305   2.202   5.117
 1998TIP3    H2 6001   0.171   2.269   5.143
 1999TIP3   OH2 6002   3.603   3.454   5.064
 1999TIP3    H1 6003   3.681   3.398   5.063
 1999TIP3    H2 6004   3.602   3.494   5.151
 2000TIP3   OH2 6005   3.564   1.201   2.328
 2000TIP3    H1 6006   3.569   1.106   2.320
 2000TIP3    H2 6007   3.512   1.229   2.253
 2001TIP3   OH2 6008   2.839   2.649   3.469
 2001TIP3    H1 6009   2.765   2.691   3.424
 2001TIP3    H2 6010   2.907   2.716   3.472
 2002TIP3   OH2 6011   5.918   5.900   3.626
 2002TIP3    H1 6012   5.898   5.860   3.711
 2002TIP3    H2 6013   5.957   5.829   3.575
 2003TIP3   OH2 6014   5.703   2.031   1.115
 2003TIP3    H1 6015   5.784   1.985   1.141
 2003TIP3    H2 6016   5.729   2.123   1.108
 2004TIP3   OH2 6017   2.398   4.098   2.997
 2004TIP3    H1 6018   2.342   4.067   2.926
 2004TIP3    H2 6019   2.376   4.043   3.072
 2005TIP3   OH2 6020   2.839   5.789   2.967
 2005TIP3    H1 6021   2.747   5.813   2.982
 2005TIP3    H2 6022   2.888   5.843   3.029
 2006TIP3   OH2 6023   0.611   3.299   0.837
 2006TIP3    H1 6024   0.519   3.321   0.847
 2006TIP3    H2 6025   0.656   3.383   0.825
 2007TIP3   OH2 6026   5.554   2.034   0.334
 2007TIP3    H1 6027   5.578   2.109   0.388
 2007TIP3    H2 6028   5.517   2.072   0.254
 2008TIP3   OH2 6029   5.837   5.223   4.222
 2008TIP3    H1 6030   5.904   5.163   4.253
 2008TIP3    H2 6031   5.864   5.247   4.134
 2009TIP3   OH2 6032   0.977   3.797   1.648
 2009TIP3    H1 6033   0.915   3.870   1.645
 2009TIP3    H2 6034   0.971   3.758   1.561
 2010TIP3   OH2 6035   3.372   0.377   2.376
 2010TIP3    H1 6036   3.295   0.370   2.432
 2010TIP3    H2 6037   3.404   0.287   2.367
 2011TIP3   OH2 6038   2.945   0.596   2.093
 2011TIP3    H1 6039   2.863   0.569   2.051
 2011TIP3    H2 6040   2.934   0.569   2.184
 2012TIP3   OH2 6041   3.136   1.703   3.579
 2012TIP3    H1 6042   3.093   1.708   3.665
 2012TIP3    H2 6043   3.113   1.785   3.536
 2013TIP3   OH2 6044   3.267   5.212   1.655
 2013TIP3    H1 6045   3.255   5.237   1.563
 2013TIP3    H2 6046   3.361   5.194   1.663
 2014TIP3   OH2 6047   4.624   4.329   2.203
 2014TIP3    H1 6048   4.649   4.281   2.282
 2014TIP3    H2 6049   4.593   4.413   2.235
 2015TIP3   OH2 6050   3.215   3.162   2.502
 2015TIP3    H1 6051   3.172   3.125   2.579
 2015TIP3    H2 6052   3.307   3.140   2.513
 2016TIP3   OH2 6053   2.574   5.257  -0.020
 2016TIP3    H1 6054   2.540   5.265   0.069
 2016TIP3    H2 6055   2.669   5.258  -0.010
 2017TIP3   OH2 6056   2.639   4.001   1.022
 2017TIP3    H1 6057   2.670   4.019   0.933
 2017TIP3    H2 6058   2.627   4.088   1.061
 2018TIP3   OH2 6059   3.304   5.596   0.294
 2018TIP3    H1 6060   3.252   5.544   0.234
 2018TIP3    H2 6061   3.260   5.681   0.299
 2019TIP3   OH2 6062   2.537   3.711   2.930
 2019TIP3    H1 6063   2.455   3.752   2.900
 2019TIP3    H2 6064   2.572   3.668   2.852
 2020TIP3   OH2 6065   5.755   0.887   4.632
 2020TIP3    H1 6066   5.828   0.839   4.592
 2020TIP3    H2 6067   5.780   0.979   4.624
 2021TIP3   OH2 6068   5.182   2.323   1.557
 2021TIP3    H1 6069   5.102   2.274   1.537
 2021TIP3    H2 6070   5.251   2.272   1.515
 2022TIP3   OH2 6071   5.016   2.923   3.439
 2022TIP3    H1 6072   5.103   2.894   3.410
 2022TIP3    H2 6073   4.992   2.861   3.508
 2023TIP3   OH2 6074   4.806   0.504   1.431
 2023TIP3    H1 6075   4.881   0.532   1.379
 2023TIP3    H2 6076   4.742   0.475   1.366
 2024TIP3   OH2 6077   4.527   5.666   1.183
 2024TIP3    H1 6078   4.530   5.714   1.266
 2024TIP3    H2 6079   4.616   5.632   1.172
 2025TIP3   OH2 6080   3.188   0.287   0.592
 2025TIP3    H1 6081   3.193   0.368   0.543
 2025TIP3    H2 6082   3.243   0.226   0.543
 2026TIP3   OH2 6083   1.527   1.818   0.668
 2026TIP3    H1 6084   1.479   1.775   0.739
 2026TIP3    H2 6085   1.487   1.905   0.661
 2027TIP3   OH2 6086   5.951   1.940   2.668
 2027TIP3    H1 6087   5.930   1.888   2.745
 2027TIP3    H2 6088   5.997   1.879   2.610
 2028TIP3   OH2 6089   4.688   5.686   4.890
 2028TIP3    H1 6090   4.775   5.648   4.875
 2028TIP3    H2 6091   4.667   5.661   4.981
 2029TIP3   OH2 6092   0.516   4.241   3.224
 2029TIP3    H1 6093   0.562   4.197   3.295
 2029TIP3    H2 6094   0.560   4.212   3.144
 2030TIP3   OH2 6095   1.455   2.557   4.087
 2030TIP3    H1 6096   1.389   2.547   4.156
 2030TIP3    H2 6097   1.539   2.554   4.133
 2031TIP3   OH2 6098   3.090   4.297   1.973
 2031TIP3    H1 6099   3.020   4.311   1.909
 2031TIP3    H2 6100   3.164   4.266   1.921
 2032TIP3   OH2 6101   3.915   1.690   3.294
 2032TIP3    H1 6102   3.927   1.778   3.329
 2032TIP3    H2 6103   3.826   1.666   3.319
 2033TIP3   OH2 6104   1.360   1.487   4.274
 2033TIP3    H1 6105   1.360   1.535   4.191
 2033TIP3    H2 6106   1.388   1.399   4.250
 2034TIP3   OH2 6107   3.343   3.682   0.253
 2034TIP3    H1 6108   3.318   3.647   0.339
 2034TIP3    H2 6109   3.262   3.685   0.204
 2035TIP3   OH2 6110   1.221   0.894   3.594
 2035TIP3    H1 6111   1.244   0.985   3.577
 2035TIP3    H2 6112   1.137   0.882   3.551
 2036TIP3   OH2 6113   3.442   5.621   1.621
 2036TIP3    H1 6114   3.457   5.544   1.566
 2036TIP3    H2 6115   3.347   5.621   1.637
 2037TIP3   OH2 6116   2.356   2.711   3.822
 2037TIP3    H1 6117   2.389   2.795   3.852
 2037TIP3    H2 6118   2.409   2.692   3.744
 2038TIP3   OH2 6119   5.782   2.645   1.944
 2038TIP3    H1 6120   5.832   2.568   1.971
 2038TIP3    H2 6121   5.701   2.610   1.907
 2039TIP3   OH2 6122   2.520   3.307   4.661
 2039TIP3    H1 6123   2.614   3.314   4.650
 2039TIP3    H2 6124   2.483   3.338   4.578
 2040TIP3   OH2 6125   2.214   5.200   0.289
 2040TIP3    H1 6126   2.188   5.117   0.248
 2040TIP3    H2 6127   2.149   5.263   0.260
 2041TIP3   OH2 6128   6.195   1.728   2.335
 2041TIP3    H1 6129   6.289   1.712   2.324
 2041TIP3    H2 6130   6.153   1.675   2.267
 2042TIP3   OH2 6131   0.856   2.876   4.978
 2042TIP3    H1 6132   0.830   2.968   4.989
 2042TIP3    H2 6133   0.893   2.851   5.063
 2043TIP3   OH2 6134   1.557   1.368   3.462
 2043TIP3    H1 6135   1.488   1.308   3.436
 2043TIP3    H2 6136   1.623   1.313   3.504
 2044TIP3   OH2 6137   4.622   1.723   1.418
 2044TIP3    H1 6138   4.653   1.633   1.406
 2044TIP3    H2 6139   4.593   1.750   1.331
 2045TIP3   OH2 6140   4.808   1.889   3.325
 2045TIP3    H1 6141   4.759   1.967   3.353
 2045TIP3    H2 6142   4.891   1.896   3.371
 2046TIP3   OH2 6143   1.641   2.629   0.729
 2046TIP3    H1 6144   1.546   2.628   0.742
 2046TIP3    H2 6145   1.673   2.560   0.786
 2047TIP3   OH2 6146   4.547   2.686   1.764
 2047TIP3    H1 6147   4.531   2.596   1.733
 2047TIP3    H2 6148   4.555   2.738   1.684
 2048TIP3   OH2 6149   4.222   3.729   0.638
 2048TIP3    H1 6150   4.270   3.758   0.715
 2048TIP3    H2 6151   4.165   3.659   0.670
 2049TIP3   OH2 6152   2.906   2.442   0.832
 2049TIP3    H1 6153   2.880   2.357   0.795
 2049TIP3    H2 6154   2.986   2.465   0.784
 2050TIP3   OH2 6155   3.715   1.576   2.996
 2050TIP3    H1 6156   3.651   1.518   2.955
 2050TIP3    H2 6157   3.663   1.650   3.028
 2051TIP3   OH2 6158   1.654   5.619   1.159
 2051TIP3    H1 6159   1.608   5.701   1.177
 2051TIP3    H2 6160   1.667   5.580   1.245
 2052TIP3   OH2 6161   3.456   1.955   0.072
 2052TIP3    H1 6162   3.552   1.963   0.073
 2052TIP3    H2 6163   3.438   1.878   0.125
 2053TIP3   OH2 6164   3.081   3.096   5.039
 2053TIP3    H1 6165   3.007   3.150   5.067
 2053TIP3    H2 6166   3.158   3.141   5.075
 2054TIP3   OH2 6167   2.330   2.507   1.485
 2054TIP3    H1 6168   2.240   2.475   1.497
 2054TIP3    H2 6169   2.338   2.578   1.548
 2055TIP3   OH2 6170   1.447   5.444   5.010
 2055TIP3    H1 6171   1.435   5.469   4.919
 2055TIP3    H2 6172   1.365   5.402   5.035
 2056TIP3   OH2 6173   5.971   2.304   2.425
 2056TIP3    H1 6174   5.999   2.360   2.354
 2056TIP3    H2 6175   5.974   2.360   2.503
 2057TIP3   OH2 6176   3.442   5.705   5.052
 2057TIP3    H1 6177   3.452   5.800   5.053
 2057TIP3    H2 6178   3.348   5.691   5.060
 2058TIP3   OH2 6179   5.167   1.034   4.038
 2058TIP3    H1 6180   5.230   0.976   4.080
 2058TIP3    H2 6181   5.160   1.001   3.948
 2059TIP3   OH2 6182   0.993   4.051   2.374
 2059TIP3    H1 6183   1.056   4.027   2.306
 2059TIP3    H2 6184   0.921   3.988   2.363
 2060TIP3   OH2 6185   1.170   5.870  -0.025
 2060TIP3    H1 6186   1.097   5.927   0.000
 2060TIP3    H2 6187   1.230   5.874   0.049
 2061TIP3   OH2 6188   3.574   3.606   4.574
 2061TIP3    H1 6189   3.602   3.685   4.619
 2061TIP3    H2 6190   3.479   3.606   4.583
 2062TIP3   OH2 6191   4.464   0.639   2.086
 2062TIP3    H1 6192   4.487   0.727   2.058
 2062TIP3    H2 6193   4.434   0.595   2.007
 2063TIP3   OH2 6194   2.546   4.471   1.050
 2063TIP3    H1 6195   2.602   4.398   1.026
 2063TIP3    H2 6196   2.466   4.458   0.999
 2064TIP3   OH2 6197   5.537   2.590   1.837
 2064TIP3    H1 6198   5.535   2.512   1.782
 2064TIP3    H2 6199   5.544   2.663   1.775
 2065TIP3   OH2 6200   1.842   0.087   0.913
 2065TIP3    H1 6201   1.794   0.170   0.910
 2065TIP3    H2 6202   1.843   0.063   1.005
 2066TIP3   OH2 6203   0.907   2.704   4.240
 2066TIP3    H1 6204   0.973   2.690   4.173
 2066TIP3    H2 6205   0.878   2.616   4.265
 2067TIP3   OH2 6206   4.518   4.895   4.578
 2067TIP3    H1 6207   4.440   4.846   4.606
 2067TIP3    H2 6208   4.510   4.980   4.621
 2068TIP3   OH2 6209   2.781   3.942   3.796
 2068TIP3    H1 6210   2.725   3.987   3.860
 2068TIP3    H2 6211   2.848   3.899   3.849
 2069TIP3   OH2 6212   5.308   2.633   4.872
 2069TIP3    H1 6213   5.269   2.608   4.956
 2069TIP3    H2 6214   5.255   2.588   4.807
 2070TIP3   OH2 6215   3.928   1.624   2.736
 2070TIP3    H1 6216   3.912   1.670   2.819
 2070TIP3    H2 6217   3.852   1.567   2.726
 2071TIP3   OH2 6218   5.447   5.269   3.494
 2071TIP3    H1 6219   5.401   5.285   3.577
 2071TIP3    H2 6220   5.507   5.343   3.485
 2072TIP3   OH2 6221   0.412   3.152   0.374
 2072TIP3    H1 6222   0.351   3.171   0.445
 2072TIP3    H2 6223   0.384   3.067   0.340
 2073TIP3   OH2 6224   4.632   3.660   3.324
 2073TIP3    H1 6225   4.606   3.599   3.394
 2073TIP3    H2 6226   4.605   3.746   3.357
 2074TIP3   OH2 6227   2.616   0.585   1.667
 2074TIP3    H1 6228   2.571   0.653   1.618
 2074TIP3    H2 6229   2.659   0.631   1.739
 2075TIP3   OH2 6230   2.317   5.960   0.998
 2075TIP3    H1 6231   2.390   5.969   0.937
 2075TIP3    H2 6232   2.240   5.954   0.941
 2076TIP3   OH2 6233   0.656   4.487   4.579
 2076TIP3    H1 6234   0.587   4.501   4.514
 2076TIP3    H2 6235   0.610   4.472   4.661
 2077TIP3   OH2 6236   4.819   0.993   1.671
 2077TIP3    H1 6237   4.785   0.914   1.628
 2077TIP3    H2 6238   4.741   1.038   1.703
 2078TIP3   OH2 6239   3.413   3.705   2.193
 2078TIP3    H1 6240   3.484   3.748   2.241
 2078TIP3    H2 6241   3.355   3.776   2.166
 2079TIP3   OH2 6242   5.107   1.692   1.764
 2079TIP3    H1 6243   5.126   1.630   1.834
 2079TIP3    H2 6244   5.021   1.726   1.785
 2080TIP3   OH2 6245   3.206   2.840   0.443
 2080TIP3    H1 6246   3.156   2.781   0.499
 2080TIP3    H2 6247   3.237   2.784   0.372
 2081TIP3   OH2 6248   0.364   0.088   4.289
 2081TIP3    H1 6249   0.372   0.159   4.353
 2081TIP3    H2 6250   0.337   0.012   4.340
 2082TIP3   OH2 6251   4.911   5.360   2.406
 2082TIP3    H1 6252   4.959   5.435   2.441
 2082TIP3    H2 6253   4.888   5.308   2.483
 2083TIP3   OH2 6254   4.881   3.818   1.105
 2083TIP3    H1 6255   4.951   3.778   1.054
 2083TIP3    H2 6256   4.800   3.787   1.064
 2084TIP3   OH2 6257   1.833   1.864   0.604
 2084TIP3    H1 6258   1.831   1.769   0.588
 2084TIP3    H2 6259   1.777   1.876   0.681
 2085TIP3   OH2 6260   5.873   1.329   0.311
 2085TIP3    H1 6261   5.845   1.250   0.264
 2085TIP3    H2 6262   5.958   1.351   0.273
 2086TIP3   OH2 6263   3.722   3.578   3.634
 2086TIP3    H1 6264   3.801   3.558   3.683
 2086TIP3    H2 6265   3.686   3.492   3.611
 2087TIP3   OH2 6266   3.881   0.563   4.917
 2087TIP3    H1 6267   3.856   0.654   4.932
 2087TIP3    H2 6268   3.975   0.561   4.937
 2088TIP3   OH2 6269   3.822   0.369   1.483
 2088TIP3    H1 6270   3.790   0.458   1.468
 2088TIP3    H2 6271   3.915   0.373   1.462
 2089TIP3   OH2 6272   4.381   4.356   2.397
 2089TIP3    H1 6273   4.431   4.405   2.462
 2089TIP3    H2 6274   4.306   4.321   2.445
 2090TIP3   OH2 6275   2.423   4.704   4.290
 2090TIP3    H1 6276   2.356   4.637   4.306
 2090TIP3    H2 6277   2.398   4.776   4.349
 2091TIP3   OH2 6278   3.670   4.683   2.138
 2091TIP3    H1 6279   3.637   4.646   2.220
 2091TIP3    H2 6280   3.740   4.623   2.111
 2092TIP3   OH2 6281   2.488   5.990   0.470
 2092TIP3    H1 6282   2.464   5.961   0.382
 2092TIP3    H2 6283   2.514   5.910   0.515
 2093TIP3   OH2 6284   4.905   5.510   1.383
 2093TIP3    H1 6285   4.968   5.444   1.354
 2093TIP3    H2 6286   4.937   5.537   1.469
 2094TIP3   OH2 6287   4.696   0.115   3.731
 2094TIP3    H1 6288   4.682   0.207   3.753
 2094TIP3    H2 6289   4.786   0.097   3.760
 2095TIP3   OH2 6290   5.287   3.771   4.310
 2095TIP3    H1 6291   5.336   3.731   4.381
 2095TIP3    H2 6292   5.337   3.849   4.287
 2096TIP3   OH2 6293   1.386   3.559   4.504
 2096TIP3    H1 6294   1.468   3.510   4.501
 2096TIP3    H2 6295   1.389   3.617   4.428
 2097TIP3   OH2 6296   4.999   0.637   2.595
 2097TIP3    H1 6297   4.915   0.682   2.583
 2097TIP3    H2 6298   5.000   0.570   2.528
 2098TIP3   OH2 6299   3.212   3.900   2.961
 2098TIP3    H1 6300   3.212   3.828   2.897
 2098TIP3    H2 6301   3.299   3.939   2.953
 2099TIP3   OH2 6302   5.446   5.425   4.991
 2099TIP3    H1 6303   5.460   5.382   5.075
 2099TIP3    H2 6304   5.381   5.370   4.946
 2100TIP3   OH2 6305   2.542   2.263   3.470
 2100TIP3    H1 6306   2.487   2.319   3.415
 2100TIP3    H2 6307   2.515   2.284   3.560
 2101TIP3   OH2 6308   2.790   1.594   2.225
 2101TIP3    H1 6309   2.790   1.506   2.262
 2101TIP3    H2 6310   2.847   1.644   2.283
 2102TIP3   OH2 6311   2.292   5.146   2.341
 2102TIP3    H1 6312   2.240   5.176   2.266
 2102TIP3    H2 6313   2.266   5.204   2.413
 2103TIP3   OH2 6314   1.831   4.209   3.787
 2103TIP3    H1 6315   1.746   4.226   3.746
 2103TIP3    H2 6316   1.895   4.242   3.724
 2104TIP3   OH2 6317   1.100   2.603   5.168
 2104TIP3    H1 6318   1.072   2.528   5.116
 2104TIP3    H2 6319   1.193   2.614   5.147
 2105TIP3   OH2 6320   4.415   0.884   4.112
 2105TIP3    H1 6321   4.399   0.796   4.077
 2105TIP3    H2 6322   4.500   0.877   4.157
 2106TIP3   OH2 6323   5.600   1.331   0.105
 2106TIP3    H1 6324   5.641   1.246   0.117
 2106TIP3    H2 6325   5.551   1.346   0.186
 2107TIP3   OH2 6326   2.685   4.717   1.540
 2107TIP3    H1 6327   2.728   4.749   1.619
 2107TIP3    H2 6328   2.715   4.775   1.470
 2108TIP3   OH2 6329   6.181   4.357   1.705
 2108TIP3    H1 6330   6.113   4.346   1.639
 2108TIP3    H2 6331   6.147   4.425   1.763
 2109TIP3   OH2 6332   1.428   2.911   0.990
 2109TIP3    H1 6333   1.337   2.882   0.993
 2109TIP3    H2 6334   1.462   2.890   1.077
 2110TIP3   OH2 6335   1.763   0.412   4.402
 2110TIP3    H1 6336   1.760   0.507   4.415
 2110TIP3    H2 6337   1.784   0.377   4.489
 2111TIP3   OH2 6338   5.198   0.508   3.296
 2111TIP3    H1 6339   5.188   0.603   3.307
 2111TIP3    H2 6340   5.120   0.480   3.249
 2112TIP3   OH2 6341   4.406   3.091   3.399
 2112TIP3    H1 6342   4.346   3.073   3.328
 2112TIP3    H2 6343   4.394   3.018   3.460
 2113TIP3   OH2 6344   2.871   4.236   4.341
 2113TIP3    H1 6345   2.902   4.254   4.430
 2113TIP3    H2 6346   2.782   4.204   4.352
 2114TIP3   OH2 6347   5.711   0.475   1.596
 2114TIP3    H1 6348   5.662   0.509   1.671
 2114TIP3    H2 6349   5.800   0.464   1.630
 2115TIP3   OH2 6350   2.066   5.784   3.604
 2115TIP3    H1 6351   1.990   5.790   3.546
 2115TIP3    H2 6352   2.095   5.874   3.616
 2116TIP3   OH2 6353   4.933   3.423   4.074
 2116TIP3    H1 6354   4.972   3.342   4.108
 2116TIP3    H2 6355   4.915   3.476   4.151
 2117TIP3   OH2 6356   1.457   3.215   1.218
 2117TIP3    H1 6357   1.414   3.134   1.246
 2117TIP3    H2 6358   1.537   3.219   1.270
 2118TIP3   OH2 6359   5.704   0.937   0.798
 2118TIP3    H1 6360   5.705   0.845   0.825
 2118TIP3    H2 6361   5.638   0.978   0.853
 2119TIP3   OH2 6362   3.353   3.017   4.452
 2119TIP3    H1 6363   3.421   3.084   4.445
 2119TIP3    H2 6364   3.394   2.937   4.419
 2120TIP3   OH2 6365   5.304   1.458   4.610
 2120TIP3    H1 6366   5.238   1.525   4.628
 2120TIP3    H2 6367   5.376   1.506   4.569
 2121TIP3   OH2 6368   0.408   3.312   5.089
 2121TIP3    H1 6369   0.453   3.396   5.079
 2121TIP3    H2 6370   0.428   3.285   5.179
 2122TIP3   OH2 6371   1.727   4.905   0.676
 2122TIP3    H1 6372   1.667   4.905   0.602
 2122TIP3    H2 6373   1.669   4.907   0.753
 2123TIP3   OH2 6374   0.296   1.782   4.040
 2123TIP3    H1 6375   0.294   1.854   4.104
 2123TIP3    H2 6376   0.288   1.703   4.092
 2124TIP3   OH2 6377   4.346   1.933   0.748
 2124TIP3    H1 6378   4.296   1.968   0.821
 2124TIP3    H2 6379   4.432   1.974   0.755
 2125TIP3   OH2 6380   4.213   4.836   1.880
 2125TIP3    H1 6381   4.244   4.887   1.805
 2125TIP3    H2 6382   4.117   4.834   1.869
 2126TIP3   OH2 6383   3.366   0.262   4.633
 2126TIP3    H1 6384   3.447   0.279   4.586
 2126TIP3    H2 6385   3.301   0.320   4.593
 2127TIP3   OH2 6386   4.235   2.631   1.699
 2127TIP3    H1 6387   4.238   2.661   1.790
 2127TIP3    H2 6388   4.207   2.708   1.649
 2128TIP3   OH2 6389   5.821   1.472   2.236
 2128TIP3    H1 6390   5.807   1.377   2.232
 2128TIP3    H2 6391   5.734   1.509   2.244
 2129TIP3   OH2 6392   2.987   4.862   4.123
 2129TIP3    H1 6393   3.046   4.792   4.095
 2129TIP3    H2 6394   3.037   4.913   4.186
 2130TIP3   OH2 6395   4.638   1.098   0.830
 2130TIP3    H1 6396   4.669   1.016   0.868
 2130TIP3    H2 6397   4.718   1.145   0.805
 2131TIP3   OH2 6398   1.455   4.622   3.168
 2131TIP3    H1 6399   1.396   4.591   3.099
 2131TIP3    H2 6400   1.448   4.717   3.164
 2132TIP3   OH2 6401   2.584   1.765   0.390
 2132TIP3    H1 6402   2.518   1.705   0.354
 2132TIP3    H2 6403   2.594   1.737   0.481
 2133TIP3   OH2 6404   6.138   2.212   2.208
 2133TIP3    H1 6405   6.098   2.156   2.275
 2133TIP3    H2 6406   6.151   2.153   2.134
 2134TIP3   OH2 6407   4.327   1.146   1.838
 2134TIP3    H1 6408   4.280   1.222   1.804
 2134TIP3    H2 6409   4.258   1.080   1.851
 2135TIP3   OH2 6410   1.351   0.994   3.082
 2135TIP3    H1 6411   1.362   0.978   2.988
 2135TIP3    H2 6412   1.433   1.036   3.109
 2136TIP3   OH2 6413   1.039   5.261   0.237
 2136TIP3    H1 6414   1.096   5.199   0.191
 2136TIP3    H2 6415   1.091   5.341   0.243
 2137TIP3   OH2 6416   0.734   2.918   1.352
 2137TIP3    H1 6417   0.687   2.901   1.434
 2137TIP3    H2 6418   0.681   2.875   1.285
 2138TIP3   OH2 6419   4.593   5.050   1.385
 2138TIP3    H1 6420   4.641   5.109   1.442
 2138TIP3    H2 6421   4.617   4.962   1.415
 2139TIP3   OH2 6422   4.934   5.147   0.385
 2139TIP3    H1 6423   5.005   5.183   0.438
 2139TIP3    H2 6424   4.903   5.222   0.333
 2140TIP3   OH2 6425   5.850   5.475   0.941
 2140TIP3    H1 6426   5.913   5.445   0.876
 2140TIP3    H2 6427   5.771   5.423   0.924
 2141TIP3   OH2 6428   5.733   4.400   0.976
 2141TIP3    H1 6429   5.820   4.425   1.008
 2141TIP3    H2 6430   5.691   4.483   0.953
 2142TIP3   OH2 6431   4.983   1.575   1.534
 2142TIP3    H1 6432   4.922   1.517   1.580
 2142TIP3    H2 6433   5.034   1.615   1.604
 2143TIP3   OH2 6434   0.618   0.509   1.768
 2143TIP3    H1 6435   0.589   0.431   1.720
 2143TIP3    H2 6436   0.676   0.475   1.837
 2144TIP3   OH2 6437   5.191   1.255   0.134
 2144TIP3    H1 6438   5.231   1.319   0.075
 2144TIP3    H2 6439   5.169   1.305   0.213
 2145TIP3   OH2 6440   3.756   3.645   2.800
 2145TIP3    H1 6441   3.706   3.608   2.873
 2145TIP3    H2 6442   3.752   3.578   2.732
 2146TIP3   OH2 6443   5.688   1.024   1.579
 2146TIP3    H1 6444   5.631   1.083   1.530
 2146TIP3    H2 6445   5.665   0.936   1.548
 2147TIP3   OH2 6446   0.134   4.784   1.504
 2147TIP3    H1 6447   0.129   4.878   1.520
 2147TIP3    H2 6448   0.145   4.745   1.591
 2148TIP3   OH2 6449   0.166   2.414   4.767
 2148TIP3    H1 6450   0.087   2.361   4.772
 2148TIP3    H2 6451   0.237   2.353   4.790
 2149TIP3   OH2 6452   0.764   0.678   1.609
 2149TIP3    H1 6453   0.850   0.643   1.634
 2149TIP3    H2 6454   0.704   0.643   1.675
 2150TIP3   OH2 6455   0.205   1.948   0.091
 2150TIP3    H1 6456   0.222   2.039   0.071
 2150TIP3    H2 6457   0.291   1.905   0.087
 2151TIP3   OH2 6458   2.975   5.042   2.297
 2151TIP3    H1 6459   2.972   5.127   2.340
 2151TIP3    H2 6460   2.927   4.984   2.357
 2152TIP3   OH2 6461   3.811   4.714   4.331
 2152TIP3    H1 6462   3.796   4.664   4.411
 2152TIP3    H2 6463   3.902   4.696   4.307
 2153TIP3   OH2 6464   2.965   4.833   3.168
 2153TIP3    H1 6465   3.015   4.891   3.111
 2153TIP3    H2 6466   2.919   4.774   3.108
 2154TIP3   OH2 6467   5.640   2.401   0.116
 2154TIP3    H1 6468   5.654   2.457   0.039
 2154TIP3    H2 6469   5.724   2.358   0.130
 2155TIP3   OH2 6470   3.306   1.577   3.276
 2155TIP3    H1 6471   3.327   1.657   3.324
 2155TIP3    H2 6472   3.310   1.508   3.341
 2156TIP3   OH2 6473   4.004   4.710   0.725
 2156TIP3    H1 6474   4.061   4.635   0.706
 2156TIP3    H2 6475   3.926   4.671   0.764
 2157TIP3   OH2 6476   4.893   3.677   2.951
 2157TIP3    H1 6477   4.884   3.648   3.042
 2157TIP3    H2 6478   4.805   3.706   2.926
 2158TIP3   OH2 6479   1.928   0.057   3.062
 2158TIP3    H1 6480   1.930  -0.015   3.124
 2158TIP3    H2 6481   1.930   0.015   2.976
 2159TIP3   OH2 6482   5.992   3.282   2.419
 2159TIP3    H1 6483   6.047   3.221   2.370
 2159TIP3    H2 6484   5.903   3.260   2.392
 2160TIP3   OH2 6485   5.081   0.296   4.001
 2160TIP3    H1 6486   5.138   0.249   4.061
 2160TIP3    H2 6487   4.992   0.277   4.031
 2161TIP3   OH2 6488   5.133   5.901   5.113
 2161TIP3    H1 6489   5.139   5.921   5.207
 2161TIP3    H2 6490   5.224   5.902   5.083
 2162TIP3   OH2 6491   5.503   3.668   2.884
 2162TIP3    H1 6492   5.417   3.632   2.904
 2162TIP3    H2 6493   5.487   3.761   2.869
 2163TIP3   OH2 6494   2.561   0.177   3.916
 2163TIP3    H1 6495   2.641   0.127   3.929
 2163TIP3    H2 6496   2.499   0.140   3.979
 2164TIP3   OH2 6497   2.541   3.625   2.319
 2164TIP3    H1 6498   2.556   3.706   2.367
 2164TIP3    H2 6499   2.532   3.652   2.228
 2165TIP3   OH2 6500   0.894   4.428   2.628
 2165TIP3    H1 6501   0.921   4.517   2.605
 2165TIP3    H2 6502   0.923   4.417   2.719
 2166TIP3   OH2 6503   0.978   3.486   4.112
 2166TIP3    H1 6504   0.964   3.395   4.137
 2166TIP3    H2 6505   1.051   3.483   4.051
 2167TIP3   OH2 6506   5.598   3.956   1.707
 2167TIP3    H1 6507   5.573   4.025   1.646
 2167TIP3    H2 6508   5.660   3.902   1.658
 2168TIP3   OH2 6509   0.165   3.173   4.089
 2168TIP3    H1 6510   0.211   3.231   4.150
 2168TIP3    H2 6511   0.235   3.122   4.048
 2169TIP3   OH2 6512   2.835   2.168   1.085
 2169TIP3    H1 6513   2.924   2.195   1.108
 2169TIP3    H2 6514   2.779   2.213   1.149
 2170TIP3   OH2 6515   2.861   2.785   2.853
 2170TIP3    H1 6516   2.926   2.851   2.880
 2170TIP3    H2 6517   2.887   2.762   2.764
 2171TIP3   OH2 6518   1.795   2.957   4.883
 2171TIP3    H1 6519   1.760   2.868   4.873
 2171TIP3    H2 6520   1.719   3.014   4.879
 2172TIP3   OH2 6521   1.567   2.706   1.909
 2172TIP3    H1 6522   1.541   2.622   1.949
 2172TIP3    H2 6523   1.493   2.764   1.926
 2173TIP3   OH2 6524   1.852   5.798   1.025
 2173TIP3    H1 6525   1.797   5.873   1.005
 2173TIP3    H2 6526   1.798   5.744   1.082
 2174TIP3   OH2 6527   3.979   1.665   0.458
 2174TIP3    H1 6528   4.045   1.719   0.501
 2174TIP3    H2 6529   4.026   1.618   0.389
 2175TIP3   OH2 6530   4.268   5.379   2.174
 2175TIP3    H1 6531   4.324   5.347   2.245
 2175TIP3    H2 6532   4.317   5.357   2.094
 2176TIP3   OH2 6533   3.693   1.672   0.127
 2176TIP3    H1 6534   3.728   1.725   0.055
 2176TIP3    H2 6535   3.763   1.611   0.148
 2177TIP3   OH2 6536   4.240   1.646   1.054
 2177TIP3    H1 6537   4.195   1.728   1.075
 2177TIP3    H2 6538   4.290   1.666   0.975
 2178TIP3   OH2 6539   2.027   0.819   3.356
 2178TIP3    H1 6540   2.056   0.774   3.435
 2178TIP3    H2 6541   2.052   0.760   3.284
 2179TIP3   OH2 6542   5.592   5.337   4.515
 2179TIP3    H1 6543   5.622   5.382   4.594
 2179TIP3    H2 6544   5.534   5.400   4.472
 2180TIP3   OH2 6545   6.155   2.682   1.502
 2180TIP3    H1 6546   6.162   2.669   1.407
 2180TIP3    H2 6547   6.064   2.709   1.516
 2181TIP3   OH2 6548   0.417   3.482   1.489
 2181TIP3    H1 6549   0.480   3.448   1.425
 2181TIP3    H2 6550   0.399   3.571   1.460
 2182TIP3   OH2 6551   4.874   0.634   1.668
 2182TIP3    H1 6552   4.859   0.592   1.583
 2182TIP3    H2 6553   4.790   0.627   1.714
 2183TIP3   OH2 6554   2.152   0.132   1.940
 2183TIP3    H1 6555   2.090   0.063   1.965
 2183TIP3    H2 6556   2.145   0.197   2.010
 2184TIP3   OH2 6557   3.343   4.625   5.167
 2184TIP3    H1 6558   3.438   4.621   5.183
 2184TIP3    H2 6559   3.320   4.717   5.183
 2185TIP3   OH2 6560   0.228   1.556   2.957
 2185TIP3    H1 6561   0.285   1.506   3.016
 2185TIP3    H2 6562   0.200   1.492   2.891
 2186TIP3   OH2 6563   3.648   4.683   1.848
 2186TIP3    H1 6564   3.565   4.725   1.824
 2186TIP3    H2 6565   3.640   4.669   1.943
 2187TIP3   OH2 6566   0.292   5.737   2.079
 2187TIP3    H1 6567   0.226   5.670   2.061
 2187TIP3    H2 6568   0.262   5.779   2.160
 2188TIP3   OH2 6569   0.311   4.853   3.149
 2188TIP3    H1 6570   0.393   4.843   3.198
 2188TIP3    H2 6571   0.298   4.768   3.108
 2189TIP3   OH2 6572   0.442   5.804   0.850
 2189TIP3    H1 6573   0.494   5.824   0.928
 2189TIP3    H2 6574   0.438   5.887   0.803
 2190TIP3   OH2 6575   0.727   2.420   1.200
 2190TIP3    H1 6576   0.660   2.431   1.132
 2190TIP3    H2 6577   0.720   2.327   1.224
 2191TIP3   OH2 6578   2.190   2.877   1.759
 2191TIP3    H1 6579   2.104   2.902   1.793
 2191TIP3    H2 6580   2.235   2.960   1.742
 2192TIP3   OH2 6581   5.368   5.509   1.422
 2192TIP3    H1 6582   5.297   5.454   1.388
 2192TIP3    H2 6583   5.371   5.583   1.361
 2193TIP3   OH2 6584   0.548   5.304   0.315
 2193TIP3    H1 6585   0.484   5.347   0.259
 2193TIP3    H2 6586   0.624   5.289   0.258
 2194TIP3   OH2 6587   5.888   4.558   3.310
 2194TIP3    H1 6588   5.944   4.624   3.270
 2194TIP3    H2 6589   5.940   4.523   3.382
 2195TIP3   OH2 6590   3.089   5.238   4.583
 2195TIP3    H1 6591   3.028   5.227   4.656
 2195TIP3    H2 6592   3.150   5.165   4.591
 2196TIP3   OH2 6593   5.438   2.749   0.062
 2196TIP3    H1 6594   5.396   2.665   0.078
 2196TIP3    H2 6595   5.447   2.754  -0.034
 2197TIP3   OH2 6596   1.368   1.161   3.408
 2197TIP3    H1 6597   1.440   1.099   3.419
 2197TIP3    H2 6598   1.295   1.109   3.376
 2198TIP3   OH2 6599   5.353   3.188   2.897
 2198TIP3    H1 6600   5.430   3.166   2.950
 2198TIP3    H2 6601   5.320   3.103   2.866
 2199TIP3   OH2 6602   3.737   3.847   1.895
 2199TIP3    H1 6603   3.740   3.940   1.916
 2199TIP3    H2 6604   3.829   3.822   1.884
 2200TIP3   OH2 6605   3.478   2.320   0.659
 2200TIP3    H1 6606   3.466   2.318   0.754
 2200TIP3    H2 6607   3.415   2.256   0.625
 2201TIP3   OH2 6608   1.392   3.776   3.339
 2201TIP3    H1 6609   1.394   3.727   3.257
 2201TIP3    H2 6610   1.302   3.767   3.370
 2202TIP3   OH2 6611   6.263   4.052   0.541
 2202TIP3    H1 6612   6.181   4.026   0.584
 2202TIP3    H2 6613   6.239   4.130   0.490
 2203TIP3   OH2 6614   4.510   4.035   0.837
 2203TIP3    H1 6615   4.497   3.941   0.836
 2203TIP3    H2 6616   4.582   4.050   0.777
 2204TIP3   OH2 6617   1.243   4.628   2.042
 2204TIP3    H1 6618   1.326   4.580   2.035
 2204TIP3    H2 6619   1.182   4.577   1.988
 2205TIP3   OH2 6620   1.964   2.968   0.759
 2205TIP3    H1 6621   1.945   2.959   0.853
 2205TIP3    H2 6622   1.912   3.043   0.731
 2206TIP3   OH2 6623   6.034   0.878   3.852
 2206TIP3    H1 6624   6.012   0.942   3.784
 2206TIP3    H2 6625   6.059   0.931   3.928
 2207TIP3   OH2 6626   0.613   4.239   1.676
 2207TIP3    H1 6627   0.696   4.225   1.721
 2207TIP3    H2 6628   0.562   4.160   1.694
 2208TIP3   OH2 6629   2.801   5.654   4.514
 2208TIP3    H1 6630   2.842   5.634   4.598
 2208TIP3    H2 6631   2.715   5.612   4.519
 2209TIP3   OH2 6632   2.126   3.488   4.319
 2209TIP3    H1 6633   2.050   3.430   4.316
 2209TIP3    H2 6634   2.199   3.434   4.290
 2210TIP3   OH2 6635   2.070   5.486   4.236
 2210TIP3    H1 6636   2.047   5.573   4.267
 2210TIP3    H2 6637   1.987   5.448   4.208
 2211TIP3   OH2 6638   0.010   3.862   1.744
 2211TIP3    H1 6639   0.026   3.956   1.743
 2211TIP3    H2 6640  -0.042   3.847   1.823
 2212TIP3   OH2 6641   2.478   5.427   2.244
 2212TIP3    H1 6642   2.530   5.374   2.305
 2212TIP3    H2 6643   2.403   5.456   2.296
 2213TIP3   OH2 6644   1.251   5.766   4.066
 2213TIP3    H1 6645   1.212   5.687   4.027
 2213TIP3    H2 6646   1.176   5.821   4.087
 2214TIP3   OH2 6647   5.537   3.730   1.890
 2214TIP3    H1 6648   5.504   3.656   1.839
 2214TIP3    H2 6649   5.558   3.797   1.824
 2215TIP3   OH2 6650   5.184   2.746   1.618
 2215TIP3    H1 6651   5.093   2.720   1.606
 2215TIP3    H2 6652   5.184   2.796   1.700
 2216TIP3   OH2 6653   3.542   3.369   2.273
 2216TIP3    H1 6654   3.552   3.289   2.325
 2216TIP3    H2 6655   3.625   3.416   2.285
 2217TIP3   OH2 6656   0.427   1.703   1.392
 2217TIP3    H1 6657   0.335   1.693   1.370
 2217TIP3    H2 6658   0.469   1.624   1.355
 2218TIP3   OH2 6659   5.328   1.122   0.860
 2218TIP3    H1 6660   5.254   1.157   0.810
 2218TIP3    H2 6661   5.372   1.062   0.800
 2219TIP3   OH2 6662   1.548   5.297   2.509
 2219TIP3    H1 6663   1.627   5.345   2.483
 2219TIP3    H2 6664   1.581   5.211   2.536
 2220TIP3   OH2 6665   2.812   5.306   1.538
 2220TIP3    H1 6666   2.900   5.314   1.575
 2220TIP3    H2 6667   2.754   5.323   1.611
 2221TIP3   OH2 6668   3.012   2.975   0.223
 2221TIP3    H1 6669   3.078   2.948   0.287
 2221TIP3    H2 6670   2.934   2.993   0.276
 2222TIP3   OH2 6671   1.037   3.069   3.135
 2222TIP3    H1 6672   1.132   3.075   3.123
 2222TIP3    H2 6673   1.006   3.016   3.061
 2223TIP3   OH2 6674   4.280   0.286   4.484
 2223TIP3    H1 6675   4.325   0.323   4.560
 2223TIP3    H2 6676   4.346   0.234   4.439
 2224TIP3   OH2 6677   2.062   2.500   4.368
 2224TIP3    H1 6678   2.016   2.471   4.446
 2224TIP3    H2 6679   2.040   2.435   4.301
 2225TIP3   OH2 6680   4.889   0.565   0.389
 2225TIP3    H1 6681   4.933   0.600   0.311
 2225TIP3    H2 6682   4.801   0.602   0.386
 2226TIP3   OH2 6683   6.153   2.691   1.231
 2226TIP3    H1 6684   6.233   2.654   1.193
 2226TIP3    H2 6685   6.104   2.724   1.156
 2227TIP3   OH2 6686   3.158   4.329   3.956
 2227TIP3    H1 6687   3.094   4.263   3.929
 2227TIP3    H2 6688   3.135   4.407   3.905
 2228TIP3   OH2 6689   5.970   3.730   2.481
 2228TIP3    H1 6690   6.060   3.728   2.513
 2228TIP3    H2 6691   5.963   3.812   2.433
 2229TIP3   OH2 6692   4.559   1.566   3.726
 2229TIP3    H1 6693   4.627   1.520   3.776
 2229TIP3    H2 6694   4.481   1.511   3.737
 2230TIP3   OH2 6695   1.941   3.185   2.744
 2230TIP3    H1 6696   2.012   3.133   2.782
 2230TIP3    H2 6697   1.968   3.199   2.653
 2231TIP3   OH2 6698   0.550   2.970   2.628
 2231TIP3    H1 6699   0.555   3.056   2.669
 2231TIP3    H2 6700   0.573   2.986   2.537
 2232TIP3   OH2 6701   4.360   4.620   1.778
 2232TIP3    H1 6702   4.302   4.670   1.835
 2232TIP3    H2 6703   4.397   4.552   1.834
 2233TIP3   OH2 6704   5.739   0.634   0.371
 2233TIP3    H1 6705   5.709   0.607   0.284
 2233TIP3    H2 6706   5.658   0.650   0.419
 2234TIP3   OH2 6707   6.207   4.968   0.653
 2234TIP3    H1 6708   6.255   5.048   0.672
 2234TIP3    H2 6709   6.169   4.982   0.566
 2235TIP3   OH2 6710   5.350   4.619   2.548
 2235TIP3    H1 6711   5.298   4.686   2.504
 2235TIP3    H2 6712   5.439   4.654   2.548
 2236TIP3   OH2 6713   5.452   3.594   1.260
 2236TIP3    H1 6714   5.363   3.593   1.295
 2236TIP3    H2 6715   5.501   3.648   1.322
 2237TIP3   OH2 6716   0.752   5.634   4.956
 2237TIP3    H1 6717   0.679   5.589   4.913
 2237TIP3    H2 6718   0.825   5.573   4.948
 2238TIP3   OH2 6719   2.025   1.909   3.022
 2238TIP3    H1 6720   2.097   1.845   3.016
 2238TIP3    H2 6721   1.967   1.886   2.949
 2239TIP3   OH2 6722   1.343   0.917   4.354
 2239TIP3    H1 6723   1.394   0.838   4.339
 2239TIP3    H2 6724   1.252   0.886   4.359
 2240TIP3   OH2 6725   1.404   1.594   1.629
 2240TIP3    H1 6726   1.470   1.583   1.697
 2240TIP3    H2 6727   1.428   1.531   1.561
 2241TIP3   OH2 6728   4.404   0.661   0.624
 2241TIP3    H1 6729   4.493   0.651   0.658
 2241TIP3    H2 6730   4.412   0.726   0.554
 2242TIP3   OH2 6731   0.885   5.272   3.855
 2242TIP3    H1 6732   0.869   5.342   3.918
 2242TIP3    H2 6733   0.884   5.316   3.770
 2243TIP3   OH2 6734   2.866   5.764   1.224
 2243TIP3    H1 6735   2.865   5.669   1.212
 2243TIP3    H2 6736   2.774   5.788   1.237
 2244TIP3   OH2 6737   0.263   0.662   4.606
 2244TIP3    H1 6738   0.192   0.685   4.546
 2244TIP3    H2 6739   0.343   0.691   4.561
 2245TIP3   OH2 6740   4.362   3.274   4.073
 2245TIP3    H1 6741   4.315   3.240   3.997
 2245TIP3    H2 6742   4.342   3.212   4.143
 2246TIP3   OH2 6743   0.845   1.589   3.955
 2246TIP3    H1 6744   0.872   1.625   3.870
 2246TIP3    H2 6745   0.883   1.649   4.019
 2247TIP3   OH2 6746   2.548   1.841   4.747
 2247TIP3    H1 6747   2.492   1.866   4.673
 2247TIP3    H2 6748   2.623   1.799   4.707
 2248TIP3   OH2 6749   0.522   4.779   0.572
 2248TIP3    H1 6750   0.463   4.704   0.581
 2248TIP3    H2 6751   0.464   4.854   0.566
 2249TIP3   OH2 6752   0.405   5.757   2.406
 2249TIP3    H1 6753   0.445   5.757   2.493
 2249TIP3    H2 6754   0.408   5.848   2.378
 2250TIP3   OH2 6755   0.611   4.847   1.038
 2250TIP3    H1 6756   0.578   4.887   1.118
 2250TIP3    H2 6757   0.591   4.754   1.048
 2251TIP3   OH2 6758   4.523   3.919   4.929
 2251TIP3    H1 6759   4.465   3.855   4.971
 2251TIP3    H2 6760   4.532   3.887   4.839
 2252TIP3   OH2 6761   3.058   2.352   3.109
 2252TIP3    H1 6762   3.079   2.445   3.104
 2252TIP3    H2 6763   3.031   2.337   3.200
 2253TIP3   OH2 6764   0.891   1.052   2.224
 2253TIP3    H1 6765   0.961   1.117   2.214
 2253TIP3    H2 6766   0.848   1.050   2.139
 2254TIP3   OH2 6767   1.743   2.514   2.703
 2254TIP3    H1 6768   1.808   2.471   2.647
 2254TIP3    H2 6769   1.794   2.554   2.773
 2255TIP3   OH2 6770   5.627   4.641   0.915
 2255TIP3    H1 6771   5.614   4.673   0.825
 2255TIP3    H2 6772   5.538   4.627   0.948
 2256TIP3   OH2 6773   1.855   5.693   0.409
 2256TIP3    H1 6774   1.948   5.682   0.390
 2256TIP3    H2 6775   1.852   5.763   0.474
 2257TIP3   OH2 6776   2.920   3.266   0.398
 2257TIP3    H1 6777   2.903   3.191   0.455
 2257TIP3    H2 6778   2.962   3.330   0.455
 2258TIP3   OH2 6779   2.003   0.746   4.490
 2258TIP3    H1 6780   2.081   0.695   4.509
 2258TIP3    H2 6781   1.946   0.732   4.566
 2259TIP3   OH2 6782   3.146   2.296   1.836
 2259TIP3    H1 6783   3.140   2.209   1.874
 2259TIP3    H2 6784   3.058   2.333   1.846
 2260TIP3   OH2 6785   0.014   2.480   0.607
 2260TIP3    H1 6786  -0.035   2.551   0.649
 2260TIP3    H2 6787   0.102   2.487   0.643
 2261TIP3   OH2 6788   2.723   5.460   0.673
 2261TIP3    H1 6789   2.740   5.545   0.633
 2261TIP3    H2 6790   2.808   5.432   0.707
 2262TIP3   OH2 6791   1.946   2.468   0.284
 2262TIP3    H1 6792   1.978   2.430   0.203
 2262TIP3    H2 6793   1.858   2.500   0.263
 2263TIP3   OH2 6794   1.930   1.009   2.513
 2263TIP3    H1 6795   1.990   1.000   2.438
 2263TIP3    H2 6796   1.895   1.098   2.504
 2264TIP3   OH2 6797   3.638   4.605   5.024
 2264TIP3    H1 6798   3.720   4.644   4.993
 2264TIP3    H2 6799   3.602   4.560   4.948
 2265TIP3   OH2 6800   1.501   0.378   2.761
 2265TIP3    H1 6801   1.528   0.373   2.669
 2265TIP3    H2 6802   1.454   0.296   2.777
 2266TIP3   OH2 6803   0.662   5.216   1.828
 2266TIP3    H1 6804   0.722   5.289   1.844
 2266TIP3    H2 6805   0.713   5.139   1.852
 2267TIP3   OH2 6806   3.622   0.129   4.455
 2267TIP3    H1 6807   3.667   0.142   4.372
 2267TIP3    H2 6808   3.686   0.085   4.511
 2268TIP3   OH2 6809   2.887   1.083   4.532
 2268TIP3    H1 6810   2.897   1.093   4.438
 2268TIP3    H2 6811   2.844   1.164   4.560
 2269TIP3   OH2 6812   0.666   1.610   1.175
 2269TIP3    H1 6813   0.585   1.647   1.139
 2269TIP3    H2 6814   0.722   1.597   1.098
 2270TIP3   OH2 6815   0.577   0.890   1.703
 2270TIP3    H1 6816   0.510   0.822   1.712
 2270TIP3    H2 6817   0.572   0.939   1.785
 2271TIP3   OH2 6818   4.428   0.202   0.186
 2271TIP3    H1 6819   4.379   0.136   0.235
 2271TIP3    H2 6820   4.398   0.192   0.096
 2272TIP3   OH2 6821   2.581   2.838   2.888
 2272TIP3    H1 6822   2.571   2.893   2.810
 2272TIP3    H2 6823   2.676   2.830   2.898
 2273TIP3   OH2 6824   0.006   3.588   1.287
 2273TIP3    H1 6825   0.066   3.514   1.284
 2273TIP3    H2 6826   0.045   3.647   1.352
 2274TIP3   OH2 6827   6.271   1.328   0.369
 2274TIP3    H1 6828   6.365   1.315   0.382
 2274TIP3    H2 6829   6.234   1.328   0.458
 2275TIP3   OH2 6830   2.181   3.507   3.441
 2275TIP3    H1 6831   2.186   3.558   3.521
 2275TIP3    H2 6832   2.268   3.467   3.432
 2276TIP3   OH2 6833   5.356   3.429   2.008
 2276TIP3    H1 6834   5.316   3.419   1.922
 2276TIP3    H2 6835   5.321   3.511   2.043
 2277TIP3   OH2 6836   4.703   1.134   1.244
 2277TIP3    H1 6837   4.790   1.095   1.250
 2277TIP3    H2 6838   4.688   1.173   1.329
 2278TIP3   OH2 6839   4.851   2.855   4.716
 2278TIP3    H1 6840   4.908   2.834   4.642
 2278TIP3    H2 6841   4.876   2.792   4.784
 2279TIP3   OH2 6842   5.384   5.222   4.177
 2279TIP3    H1 6843   5.374   5.183   4.090
 2279TIP3    H2 6844   5.459   5.281   4.168
 2280TIP3   OH2 6845   4.878   2.736   1.629
 2280TIP3    H1 6846   4.845   2.762   1.716
 2280TIP3    H2 6847   4.881   2.818   1.580
 2281TIP3   OH2 6848   5.241   1.913   4.801
 2281TIP3    H1 6849   5.320   1.879   4.760
 2281TIP3    H2 6850   5.262   1.916   4.895
 2282TIP3   OH2 6851   1.564   3.520   1.275
 2282TIP3    H1 6852   1.500   3.467   1.324
 2282TIP3    H2 6853   1.598   3.582   1.339
 2283TIP3   OH2 6854   4.481   5.831   0.457
 2283TIP3    H1 6855   4.420   5.834   0.383
 2283TIP3    H2 6856   4.548   5.896   0.436
 2284TIP3   OH2 6857   4.421   3.310   0.181
 2284TIP3    H1 6858   4.406   3.398   0.147
 2284TIP3    H2 6859   4.335   3.281   0.213
 2285TIP3   OH2 6860   5.506   0.726   2.941
 2285TIP3    H1 6861   5.536   0.785   2.873
 2285TIP3    H2 6862   5.427   0.686   2.905
 2286TIP3   OH2 6863   5.698   1.147   3.373
 2286TIP3    H1 6864   5.784   1.173   3.407
 2286TIP3    H2 6865   5.705   1.159   3.279
 2287TIP3   OH2 6866   5.410   5.026   3.157
 2287TIP3    H1 6867   5.372   4.962   3.217
 2287TIP3    H2 6868   5.474   5.074   3.209
 2288TIP3   OH2 6869   3.593   1.238   0.940
 2288TIP3    H1 6870   3.576   1.295   0.866
 2288TIP3    H2 6871   3.515   1.245   0.995
 2289TIP3   OH2 6872   2.983   0.315   4.440
 2289TIP3    H1 6873   2.911   0.251   4.439
 2289TIP3    H2 6874   2.962   0.376   4.370
 2290TIP3   OH2 6875   6.183   3.161   2.238
 2290TIP3    H1 6876   6.235   3.205   2.171
 2290TIP3    H2 6877   6.238   3.089   2.268
 2291TIP3   OH2 6878   3.559   1.161   3.511
 2291TIP3    H1 6879   3.642   1.126   3.543
 2291TIP3    H2 6880   3.538   1.108   3.434
 2292TIP3   OH2 6881   0.988   4.839   0.853
 2292TIP3    H1 6882   0.973   4.802   0.766
 2292TIP3    H2 6883   1.083   4.841   0.863
 2293TIP3   OH2 6884   4.952   0.560   3.848
 2293TIP3    H1 6885   4.911   0.511   3.776
 2293TIP3    H2 6886   5.038   0.519   3.858
 2294TIP3   OH2 6887   1.287   0.565   0.700
 2294TIP3    H1 6888   1.232   0.513   0.759
 2294TIP3    H2 6889   1.232   0.638   0.673
 2295TIP3   OH2 6890   1.139   3.741   0.153
 2295TIP3    H1 6891   1.194   3.812   0.120
 2295TIP3    H2 6892   1.052   3.759   0.116
 2296TIP3   OH2 6893   1.784   2.381   2.164
 2296TIP3    H1 6894   1.734   2.330   2.100
 2296TIP3    H2 6895   1.732   2.461   2.177
 2297TIP3   OH2 6896   6.128   4.241   3.308
 2297TIP3    H1 6897   6.185   4.270   3.379
 2297TIP3    H2 6898   6.166   4.158   3.279
 2298TIP3   OH2 6899   3.737   4.089   0.497
 2298TIP3    H1 6900   3.712   4.007   0.456
 2298TIP3    H2 6901   3.698   4.157   0.442
 2299TIP3   OH2 6902   3.426   4.421   1.633
 2299TIP3    H1 6903   3.380   4.434   1.715
 2299TIP3    H2 6904   3.517   4.443   1.652
 2300TIP3   OH2 6905   4.173   4.175   5.102
 2300TIP3    H1 6906   4.100   4.218   5.057
 2300TIP3    H2 6907   4.251   4.216   5.065
 2301TIP3   OH2 6908   1.148   3.588   4.632
 2301TIP3    H1 6909   1.136   3.676   4.597
 2301TIP3    H2 6910   1.153   3.532   4.555
 2302TIP3   OH2 6911   3.165   4.127   4.978
 2302TIP3    H1 6912   3.190   4.122   4.886
 2302TIP3    H2 6913   3.144   4.037   5.003
 2303TIP3   OH2 6914   1.183   5.135   3.302
 2303TIP3    H1 6915   1.230   5.053   3.318
 2303TIP3    H2 6916   1.127   5.145   3.379
 2304TIP3   OH2 6917   4.026   3.828   1.890
 2304TIP3    H1 6918   4.100   3.889   1.892
 2304TIP3    H2 6919   4.018   3.797   1.980
 2305TIP3   OH2 6920   3.936   0.462   2.991
 2305TIP3    H1 6921   4.020   0.499   2.966
 2305TIP3    H2 6922   3.891   0.444   2.909
 2306TIP3   OH2 6923   0.580   1.512   3.909
 2306TIP3    H1 6924   0.598   1.545   3.821
 2306TIP3    H2 6925   0.664   1.521   3.955
 2307TIP3   OH2 6926   0.086   0.535   2.321
 2307TIP3    H1 6927   0.107   0.576   2.237
 2307TIP3    H2 6928   0.010   0.584   2.353
 2308TIP3   OH2 6929   4.258   1.372   0.151
 2308TIP3    H1 6930   4.327   1.426   0.191
 2308TIP3    H2 6931   4.261   1.395   0.058
 2309TIP3   OH2 6932   2.940   3.555   1.418
 2309TIP3    H1 6933   2.948   3.462   1.439
 2309TIP3    H2 6934   2.891   3.592   1.491
 2310TIP3   OH2 6935   2.468   0.409   2.967
 2310TIP3    H1 6936   2.556   0.443   2.952
 2310TIP3    H2 6937   2.423   0.481   3.012
 2311TIP3   OH2 6938   0.531   1.771   3.331
 2311TIP3    H1 6939   0.603   1.834   3.337
 2311TIP3    H2 6940   0.496   1.765   3.420
 2312TIP3   OH2 6941   1.639   5.151   4.765
 2312TIP3    H1 6942   1.721   5.200   4.754
 2312TIP3    H2 6943   1.608   5.136   4.676
 2313TIP3   OH2 6944   4.264   3.961   2.182
 2313TIP3    H1 6945   4.197   3.894   2.195
 2313TIP3    H2 6946   4.229   4.038   2.226
 2314TIP3   OH2 6947   4.026   5.818   0.067
 2314TIP3    H1 6948   3.955   5.851   0.012
 2314TIP3    H2 6949   4.105   5.853   0.026
 2315TIP3   OH2 6950   5.673   4.647   3.156
 2315TIP3    H1 6951   5.715   4.730   3.178
 2315TIP3    H2 6952   5.703   4.586   3.224
 2316TIP3   OH2 6953   5.779   2.289   3.765
 2316TIP3    H1 6954   5.775   2.232   3.688
 2316TIP3    H2 6955   5.728   2.366   3.739
 2317TIP3   OH2 6956   2.785   0.104   2.993
 2317TIP3    H1 6957   2.752   0.178   3.045
 2317TIP3    H2 6958   2.853   0.065   3.049
 2318TIP3   OH2 6959   0.502   3.777   4.904
 2318TIP3    H1 6960   0.466   3.833   4.835
 2318TIP3    H2 6961   0.562   3.834   4.952
 2319TIP3   OH2 6962   5.216   4.849   5.227
 2319TIP3    H1 6963   5.306   4.833   5.255
 2319TIP3    H2 6964   5.185   4.763   5.199
 2320TIP3   OH2 6965   0.053   2.761   3.504
 2320TIP3    H1 6966   0.107   2.683   3.520
 2320TIP3    H2 6967  -0.035   2.726   3.492
 2321TIP3   OH2 6968   1.153   5.108   3.872
 2321TIP3    H1 6969   1.088   5.061   3.819
 2321TIP3    H2 6970   1.106   5.184   3.905
 2322TIP3   OH2 6971   0.873   1.843   3.466
 2322TIP3    H1 6972   0.898   1.784   3.395
 2322TIP3    H2 6973   0.955   1.886   3.490
 2323TIP3   OH2 6974   3.696   0.539   3.375
 2323TIP3    H1 6975   3.708   0.464   3.316
 2323TIP3    H2 6976   3.777   0.542   3.426
 2324TIP3   OH2 6977   6.287   4.824   3.094
 2324TIP3    H1 6978   6.243   4.819   3.009
 2324TIP3    H2 6979   6.342   4.746   3.097
 2325TIP3   OH2 6980   0.738   5.785   0.219
 2325TIP3    H1 6981   0.727   5.847   0.291
 2325TIP3    H2 6982   0.762   5.702   0.262
 2326TIP3   OH2 6983   1.367   1.081   1.796
 2326TIP3    H1 6984   1.453   1.038   1.795
 2326TIP3    H2 6985   1.320   1.043   1.722
 2327TIP3   OH2 6986   1.874   4.930   0.917
 2327TIP3    H1 6987   1.918   4.850   0.948
 2327TIP3    H2 6988   1.846   4.908   0.828
 2328TIP3   OH2 6989   1.670   0.058   3.928
 2328TIP3    H1 6990   1.590   0.078   3.975
 2328TIP3    H2 6991   1.670   0.118   3.854
 2329TIP3   OH2 6992   6.356   5.533   1.997
 2329TIP3    H1 6993   6.301   5.605   2.029
 2329TIP3    H2 6994   6.321   5.514   1.910
 2330TIP3   OH2 6995   4.837   1.022   1.952
 2330TIP3    H1 6996   4.922   1.062   1.968
 2330TIP3    H2 6997   4.838   1.000   1.859
 2331TIP3   OH2 6998   5.839   1.079   4.276
 2331TIP3    H1 6999   5.854   1.154   4.332
 2331TIP3    H2 7000   5.859   1.003   4.331
 2332TIP3   OH2 7001   0.789   3.089   3.279
 2332TIP3    H1 7002   0.835   3.105   3.362
 2332TIP3    H2 7003   0.856   3.099   3.212
 2333TIP3   OH2 7004   1.518   0.860   3.887
 2333TIP3    H1 7005   1.448   0.843   3.950
 2333TIP3    H2 7006   1.487   0.936   3.838
 2334TIP3   OH2 7007   4.540   5.238   3.783
 2334TIP3    H1 7008   4.522   5.232   3.876
 2334TIP3    H2 7009   4.571   5.150   3.759
 2335TIP3   OH2 7010   2.139   5.583   3.987
 2335TIP3    H1 7011   2.118   5.531   4.064
 2335TIP3    H2 7012   2.085   5.662   3.996
 2336TIP3   OH2 7013   5.280   4.703   1.023
 2336TIP3    H1 7014   5.311   4.762   1.092
 2336TIP3    H2 7015   5.188   4.726   1.009
 2337TIP3   OH2 7016   3.613   5.387   0.617
 2337TIP3    H1 7017   3.662   5.419   0.692
 2337TIP3    H2 7018   3.608   5.292   0.631
 2338TIP3   OH2 7019   0.486   4.851   3.409
 2338TIP3    H1 7020   0.532   4.924   3.368
 2338TIP3    H2 7021   0.515   4.774   3.361
 2339TIP3   OH2 7022   2.544   4.286   3.220
 2339TIP3    H1 7023   2.515   4.195   3.213
 2339TIP3    H2 7024   2.632   4.286   3.183
 2340TIP3   OH2 7025   2.545   0.018   2.257
 2340TIP3    H1 7026   2.472   0.072   2.285
 2340TIP3    H2 7027   2.567   0.050   2.170
 2341TIP3   OH2 7028   4.075   2.352   4.609
 2341TIP3    H1 7029   4.112   2.352   4.698
 2341TIP3    H2 7030   4.128   2.416   4.562
 2342TIP3   OH2 7031   1.052   1.817   5.073
 2342TIP3    H1 7032   1.045   1.911   5.091
 2342TIP3    H2 7033   1.145   1.798   5.087
 2343TIP3   OH2 7034   1.441   2.059   0.560
 2343TIP3    H1 7035   1.533   2.039   0.543
 2343TIP3    H2 7036   1.435   2.154   0.550
 2344TIP3   OH2 7037   5.426   3.937   4.691
 2344TIP3    H1 7038   5.372   3.860   4.711
 2344TIP3    H2 7039   5.364   4.004   4.662
 2345TIP3   OH2 7040   6.276   3.614   2.193
 2345TIP3    H1 7041   6.367   3.609   2.224
 2345TIP3    H2 7042   6.226   3.639   2.271
 2346TIP3   OH2 7043   2.037   2.775   0.558
 2346TIP3    H1 7044   2.045   2.701   0.619
 2346TIP3    H2 7045   1.988   2.841   0.608
 2347TIP3   OH2 7046   2.474   5.080   1.362
 2347TIP3    H1 7047   2.482   5.055   1.454
 2347TIP3    H2 7048   2.552   5.132   1.345
 2348TIP3   OH2 7049   6.208   4.092   3.898
 2348TIP3    H1 7050   6.123   4.092   3.854
 2348TIP3    H2 7051   6.215   4.004   3.935
 2349TIP3   OH2 7052   5.819   0.929   2.366
 2349TIP3    H1 7053   5.746   0.978   2.403
 2349TIP3    H2 7054   5.781   0.847   2.337
 2350TIP3   OH2 7055   3.601   0.555   4.149
 2350TIP3    H1 7056   3.658   0.602   4.087
 2350TIP3    H2 7057   3.660   0.497   4.197
 2351TIP3   OH2 7058   2.262   1.153   2.291
 2351TIP3    H1 7059   2.306   1.158   2.206
 2351TIP3    H2 7060   2.178   1.112   2.272
 2352TIP3   OH2 7061   0.665   1.149   4.283
 2352TIP3    H1 7062   0.632   1.125   4.370
 2352TIP3    H2 7063   0.733   1.214   4.301
 2353TIP3   OH2 7064   2.667   6.008   3.478
 2353TIP3    H1 7065   2.630   6.072   3.540
 2353TIP3    H2 7066   2.678   5.928   3.530
 2354TIP3   OH2 7067   4.494   1.419   1.904
 2354TIP3    H1 7068   4.424   1.435   1.967
 2354TIP3    H2 7069   4.531   1.335   1.930
 2355TIP3   OH2 7070   0.573   3.137   4.936
 2355TIP3    H1 7071   0.514   3.183   4.996
 2355TIP3    H2 7072   0.660   3.146   4.975
 2356TIP3   OH2 7073   4.902   4.401   4.570
 2356TIP3    H1 7074   4.810   4.376   4.560
 2356TIP3    H2 7075   4.917   4.466   4.501
 2357TIP3   OH2 7076   5.579   4.201   3.586
 2357TIP3    H1 7077   5.591   4.246   3.502
 2357TIP3    H2 7078   5.598   4.266   3.652
 2358TIP3   OH2 7079   5.405   1.156   2.438
 2358TIP3    H1 7080   5.337   1.178   2.502
 2358TIP3    H2 7081   5.365   1.091   2.381
 2359TIP3   OH2 7082   1.951   5.081   1.275
 2359TIP3    H1 7083   2.025   5.110   1.223
 2359TIP3    H2 7084   1.982   5.002   1.320
 2360TIP3   OH2 7085   3.647   2.812   0.171
 2360TIP3    H1 7086   3.592   2.843   0.243
 2360TIP3    H2 7087   3.600   2.736   0.136
 2361TIP3   OH2 7088   1.344   4.077   4.056
 2361TIP3    H1 7089   1.333   3.983   4.045
 2361TIP3    H2 7090   1.435   4.094   4.031
 2362TIP3   OH2 7091   2.271   4.466   3.406
 2362TIP3    H1 7092   2.334   4.467   3.478
 2362TIP3    H2 7093   2.228   4.551   3.411
 2363TIP3   OH2 7094   1.140   1.019   1.932
 2363TIP3    H1 7095   1.077   1.085   1.900
 2363TIP3    H2 7096   1.215   1.027   1.874
 2364TIP3   OH2 7097   1.905   4.891   4.186
 2364TIP3    H1 7098   1.856   4.875   4.266
 2364TIP3    H2 7099   1.845   4.865   4.116
 2365TIP3   OH2 7100   1.819   2.828   3.050
 2365TIP3    H1 7101   1.792   2.919   3.039
 2365TIP3    H2 7102   1.852   2.824   3.140
 2366TIP3   OH2 7103   4.216   4.421   3.513
 2366TIP3    H1 7104   4.234   4.514   3.519
 2366TIP3    H2 7105   4.121   4.415   3.508
 2367TIP3   OH2 7106   1.374   2.902   4.974
 2367TIP3    H1 7107   1.447   2.879   5.032
 2367TIP3    H2 7108   1.417   2.936   4.896
 2368TIP3   OH2 7109   2.051   0.947   2.255
 2368TIP3    H1 7110   2.016   0.967   2.169
 2368TIP3    H2 7111   2.093   0.861   2.245
 2369TIP3   OH2 7112   5.294   0.225   3.140
 2369TIP3    H1 7113   5.348   0.250   3.065
 2369TIP3    H2 7114   5.214   0.190   3.102
 2370TIP3   OH2 7115   3.059   0.307   4.934
 2370TIP3    H1 7116   2.986   0.292   4.994
 2370TIP3    H2 7117   3.115   0.230   4.944
 2371TIP3   OH2 7118   1.550   2.360   4.953
 2371TIP3    H1 7119   1.580   2.293   5.014
 2371TIP3    H2 7120   1.616   2.429   4.959
 2372TIP3   OH2 7121   0.592   2.794   1.136
 2372TIP3    H1 7122   0.530   2.752   1.195
 2372TIP3    H2 7123   0.645   2.723   1.101
 2373TIP3   OH2 7124   5.044   2.797   0.322
 2373TIP3    H1 7125   5.054   2.707   0.291
 2373TIP3    H2 7126   5.005   2.843   0.248
 2374TIP3   OH2 7127   3.733   2.970   3.882
 2374TIP3    H1 7128   3.791   3.014   3.943
 2374TIP3    H2 7129   3.765   2.995   3.795
 2375TIP3   OH2 7130   0.209   5.906   0.518
 2375TIP3    H1 7131   0.120   5.885   0.491
 2375TIP3    H2 7132   0.249   5.821   0.538
 2376TIP3   OH2 7133   3.243   4.729   2.086
 2376TIP3    H1 7134   3.212   4.756   2.172
 2376TIP3    H2 7135   3.293   4.804   2.054
 2377TIP3   OH2 7136   0.264   4.992   1.911
 2377TIP3    H1 7137   0.315   5.007   1.832
 2377TIP3    H2 7138   0.312   5.037   1.980
 2378TIP3   OH2 7139   2.418   2.802   4.524
 2378TIP3    H1 7140   2.426   2.897   4.537
 2378TIP3    H2 7141   2.337   2.792   4.473
 2379TIP3   OH2 7142   1.242   5.552   2.587
 2379TIP3    H1 7143   1.289   5.469   2.580
 2379TIP3    H2 7144   1.153   5.527   2.611
 2380TIP3   OH2 7145   2.323   2.011   0.109
 2380TIP3    H1 7146   2.269   2.089   0.104
 2380TIP3    H2 7147   2.337   1.985   0.018
 2381TIP3   OH2 7148   1.235   0.227  -0.006
 2381TIP3    H1 7149   1.248   0.136   0.021
 2381TIP3    H2 7150   1.178   0.264   0.061
 2382TIP3   OH2 7151   3.511   3.298   0.902
 2382TIP3    H1 7152   3.490   3.392   0.905
 2382TIP3    H2 7153   3.501   3.275   0.809
 2383TIP3   OH2 7154   2.615   0.215   1.356
 2383TIP3    H1 7155   2.676   0.271   1.404
 2383TIP3    H2 7156   2.644   0.126   1.377
 2384TIP3   OH2 7157   2.612   3.911   0.735
 2384TIP3    H1 7158   2.649   3.964   0.664
 2384TIP3    H2 7159   2.655   3.826   0.727
 2385TIP3   OH2 7160   6.091   2.348   1.857
 2385TIP3    H1 7161   6.126   2.426   1.815
 2385TIP3    H2 7162   6.062   2.293   1.783
 2386TIP3   OH2 7163   2.926   4.092   0.101
 2386TIP3    H1 7164   2.946   4.067   0.011
 2386TIP3    H2 7165   2.983   4.038   0.155
 2387TIP3   OH2 7166   5.844   2.934   0.207
 2387TIP3    H1 7167   5.841   3.026   0.182
 2387TIP3    H2 7168   5.930   2.904   0.178
 2388TIP3   OH2 7169   0.339   0.483   4.300
 2388TIP3    H1 7170   0.307   0.419   4.364
 2388TIP3    H2 7171   0.434   0.479   4.308
 2389TIP3   OH2 7172   2.378   3.388   0.709
 2389TIP3    H1 7173   2.295   3.414   0.750
 2389TIP3    H2 7174   2.406   3.466   0.661
 2390TIP3   OH2 7175   6.102   5.127   5.131
 2390TIP3    H1 7176   6.155   5.179   5.070
 2390TIP3    H2 7177   6.094   5.182   5.209
 2391TIP3   OH2 7178   1.237   4.171   0.580
 2391TIP3    H1 7179   1.235   4.245   0.641
 2391TIP3    H2 7180   1.297   4.108   0.620
 2392TIP3   OH2 7181   5.760   2.236   4.240
 2392TIP3    H1 7182   5.818   2.221   4.166
 2392TIP3    H2 7183   5.771   2.329   4.261
 2393TIP3   OH2 7184   3.522   1.839   1.689
 2393TIP3    H1 7185   3.491   1.786   1.616
 2393TIP3    H2 7186   3.554   1.776   1.753
 2394TIP3   OH2 7187   4.067   2.847   2.272
 2394TIP3    H1 7188   4.107   2.797   2.344
 2394TIP3    H2 7189   3.983   2.877   2.307
 2395TIP3   OH2 7190   4.510   0.624   0.088
 2395TIP3    H1 7191   4.455   0.693   0.051
 2395TIP3    H2 7192   4.573   0.604   0.018
 2396TIP3   OH2 7193   4.752   2.970   2.912
 2396TIP3    H1 7194   4.830   3.014   2.945
 2396TIP3    H2 7195   4.720   3.027   2.842
 2397TIP3   OH2 7196   1.314   4.062   1.602
 2397TIP3    H1 7197   1.396   4.110   1.592
 2397TIP3    H2 7198   1.307   4.009   1.523
 2398TIP3   OH2 7199   5.499   0.705   3.834
 2398TIP3    H1 7200   5.405   0.689   3.830
 2398TIP3    H2 7201   5.508   0.799   3.820
 2399TIP3   OH2 7202   1.594   1.774   1.467
 2399TIP3    H1 7203   1.518   1.783   1.409
 2399TIP3    H2 7204   1.565   1.811   1.550
 2400TIP3   OH2 7205   6.193   1.659   2.877
 2400TIP3    H1 7206   6.217   1.741   2.921
 2400TIP3    H2 7207   6.216   1.673   2.786
 2401TIP3   OH2 7208   5.589   1.771   0.996
 2401TIP3    H1 7209   5.592   1.762   0.901
 2401TIP3    H2 7210   5.620   1.860   1.013
 2402TIP3   OH2 7211   1.456   3.432   0.998
 2402TIP3    H1 7212   1.404   3.357   1.026
 2402TIP3    H2 7213   1.490   3.470   1.079
 2403TIP3   OH2 7214   1.122   3.245   3.628
 2403TIP3    H1 7215   1.206   3.204   3.648
 2403TIP3    H2 7216   1.076   3.181   3.573
 2404TIP3   OH2 7217   2.050   2.593   1.597
 2404TIP3    H1 7218   2.106   2.646   1.653
 2404TIP3    H2 7219   2.006   2.533   1.657
 2405TIP3   OH2 7220   4.647   2.118   4.635
 2405TIP3    H1 7221   4.738   2.133   4.609
 2405TIP3    H2 7222   4.620   2.200   4.676
 2406TIP3   OH2 7223   5.279   0.201   2.527
 2406TIP3    H1 7224   5.306   0.164   2.443
 2406TIP3    H2 7225   5.297   0.295   2.518
 2407TIP3   OH2 7226   5.582   5.386   4.176
 2407TIP3    H1 7227   5.615   5.460   4.125
 2407TIP3    H2 7228   5.543   5.426   4.253
 2408TIP3   OH2 7229   2.033   1.863   0.916
 2408TIP3    H1 7230   2.069   1.869   1.005
 2408TIP3    H2 7231   1.971   1.936   0.910
 2409TIP3   OH2 7232   2.488   5.762   3.488
 2409TIP3    H1 7233   2.448   5.810   3.560
 2409TIP3    H2 7234   2.453   5.673   3.497
 2410TIP3   OH2 7235   2.552   0.589   2.693
 2410TIP3    H1 7236   2.563   0.619   2.784
 2410TIP3    H2 7237   2.463   0.555   2.689
 2411TIP3   OH2 7238   0.650   5.869   3.674
 2411TIP3    H1 7239   0.681   5.883   3.764
 2411TIP3    H2 7240   0.574   5.812   3.684
 2412TIP3   OH2 7241   6.328   3.612   0.518
 2412TIP3    H1 7242   6.277   3.683   0.479
 2412TIP3    H2 7243   6.370   3.652   0.595
 2413TIP3   OH2 7244   4.340   3.686   3.443
 2413TIP3    H1 7245   4.356   3.718   3.532
 2413TIP3    H2 7246   4.415   3.717   3.392
 2414TIP3   OH2 7247   3.574   4.533   4.759
 2414TIP3    H1 7248   3.663   4.557   4.736
 2414TIP3    H2 7249   3.519   4.603   4.723
 2415TIP3   OH2 7250   2.166   5.852   4.216
 2415TIP3    H1 7251   2.242   5.793   4.219
 2415TIP3    H2 7252   2.103   5.814   4.277
 2416TIP3   OH2 7253   5.146   3.245   3.433
 2416TIP3    H1 7254   5.233   3.246   3.395
 2416TIP3    H2 7255   5.145   3.320   3.492
 2417TIP3   OH2 7256   6.205   3.636   2.794
 2417TIP3    H1 7257   6.198   3.696   2.720
 2417TIP3    H2 7258   6.115   3.610   2.813
 2418TIP3   OH2 7259   1.762   5.456   3.442
 2418TIP3    H1 7260   1.824   5.386   3.462
 2418TIP3    H2 7261   1.768   5.516   3.516
 2419TIP3   OH2 7262   3.057   0.519   3.930
 2419TIP3    H1 7263   3.050   0.588   3.863
 2419TIP3    H2 7264   3.140   0.537   3.974
 2420TIP3   OH2 7265   5.575   1.848   2.111
 2420TIP3    H1 7266   5.500   1.793   2.090
 2420TIP3    H2 7267   5.616   1.804   2.186
 2421TIP3   OH2 7268   3.180   0.160   3.986
 2421TIP3    H1 7269   3.199   0.117   4.070
 2421TIP3    H2 7270   3.189   0.253   4.005
 2422TIP3   OH2 7271   1.762   2.463   3.594
 2422TIP3    H1 7272   1.736   2.539   3.541
 2422TIP3    H2 7273   1.720   2.389   3.552
 2423TIP3   OH2 7274   1.345   4.548   4.819
 2423TIP3    H1 7275   1.351   4.625   4.876
 2423TIP3    H2 7276   1.343   4.474   4.879
 2424TIP3   OH2 7277   0.220   4.359   2.626
 2424TIP3    H1 7278   0.213   4.409   2.544
 2424TIP3    H2 7279   0.163   4.406   2.687
 2425TIP3   OH2 7280   5.400   0.581   0.204
 2425TIP3    H1 7281   5.489   0.554   0.181
 2425TIP3    H2 7282   5.365   0.618   0.122
 2426TIP3   OH2 7283   1.838   4.662   3.603
 2426TIP3    H1 7284   1.840   4.705   3.517
 2426TIP3    H2 7285   1.757   4.610   3.602
 2427TIP3   OH2 7286   2.065   4.713   2.373
 2427TIP3    H1 7287   2.149   4.757   2.387
 2427TIP3    H2 7288   2.039   4.682   2.460
 2428TIP3   OH2 7289   1.905   5.560   3.091
 2428TIP3    H1 7290   1.929   5.636   3.144
 2428TIP3    H2 7291   1.984   5.506   3.090
 2429TIP3   OH2 7292   1.454   0.816   2.423
 2429TIP3    H1 7293   1.511   0.750   2.382
 2429TIP3    H2 7294   1.487   0.900   2.391
 2430TIP3   OH2 7295   4.211   5.858   1.667
 2430TIP3    H1 7296   4.272   5.791   1.697
 2430TIP3    H2 7297   4.131   5.844   1.717
 2431TIP3   OH2 7298   3.880   3.478   3.214
 2431TIP3    H1 7299   3.877   3.500   3.121
 2431TIP3    H2 7300   3.972   3.484   3.237
 2432TIP3   OH2 7301   4.327   3.566   2.213
 2432TIP3    H1 7302   4.319   3.632   2.282
 2432TIP3    H2 7303   4.297   3.485   2.255
 2433TIP3   OH2 7304   2.538   2.333   4.728
 2433TIP3    H1 7305   2.460   2.384   4.745
 2433TIP3    H2 7306   2.578   2.319   4.815
 2434TIP3   OH2 7307   1.436   2.331   0.141
 2434TIP3    H1 7308   1.393   2.268   0.199
 2434TIP3    H2 7309   1.453   2.407   0.196
 2435TIP3   OH2 7310   4.100   0.935   1.432
 2435TIP3    H1 7311   4.125   0.843   1.428
 2435TIP3    H2 7312   4.055   0.945   1.516
 2436TIP3   OH2 7313   1.819   4.641   0.993
 2436TIP3    H1 7314   1.739   4.675   1.034
 2436TIP3    H2 7315   1.800   4.549   0.975
 2437TIP3   OH2 7316   6.364   3.769   0.179
 2437TIP3    H1 7317   6.307   3.709   0.131
 2437TIP3    H2 7318   6.327   3.772   0.267
 2438TIP3   OH2 7319   1.554   3.721   4.921
 2438TIP3    H1 7320   1.499   3.750   4.848
 2438TIP3    H2 7321   1.523   3.633   4.941
 2439TIP3   OH2 7322   1.651   3.905   5.091
 2439TIP3    H1 7323   1.612   3.824   5.057
 2439TIP3    H2 7324   1.741   3.904   5.058
 2440TIP3   OH2 7325   3.893   3.905   1.390
 2440TIP3    H1 7326   3.822   3.842   1.400
 2440TIP3    H2 7327   3.969   3.852   1.367
 2441TIP3   OH2 7328   1.101   0.124   4.441
 2441TIP3    H1 7329   1.065   0.070   4.510
 2441TIP3    H2 7330   1.195   0.110   4.446
 2442TIP3   OH2 7331   3.931   4.712   1.859
 2442TIP3    H1 7332   3.983   4.681   1.784
 2442TIP3    H2 7333   3.842   4.682   1.840
 2443TIP3   OH2 7334   4.429   3.502   0.473
 2443TIP3    H1 7335   4.501   3.447   0.439
 2443TIP3    H2 7336   4.379   3.525   0.395
 2444TIP3   OH2 7337   0.613   3.092   2.400
 2444TIP3    H1 7338   0.686   3.110   2.340
 2444TIP3    H2 7339   0.550   3.162   2.383
 2445TIP3   OH2 7340   3.564   0.340   1.701
 2445TIP3    H1 7341   3.616   0.414   1.733
 2445TIP3    H2 7342   3.613   0.262   1.727
 2446TIP3   OH2 7343   2.691   3.752   1.720
 2446TIP3    H1 7344   2.710   3.658   1.713
 2446TIP3    H2 7345   2.596   3.756   1.732
 2447TIP3   OH2 7346   2.394   0.840   2.712
 2447TIP3    H1 7347   2.430   0.812   2.796
 2447TIP3    H2 7348   2.310   0.794   2.706
 2448TIP3   OH2 7349   1.848   1.115   0.100
 2448TIP3    H1 7350   1.920   1.144   0.045
 2448TIP3    H2 7351   1.813   1.196   0.139
 2449TIP3   OH2 7352   4.275   1.183   4.419
 2449TIP3    H1 7353   4.276   1.255   4.482
 2449TIP3    H2 7354   4.363   1.146   4.423
 2450TIP3   OH2 7355   3.924   5.865   0.400
 2450TIP3    H1 7356   4.009   5.858   0.443
 2450TIP3    H2 7357   3.873   5.925   0.455
 2451TIP3   OH2 7358   2.834   0.485   0.049
 2451TIP3    H1 7359   2.809   0.504   0.140
 2451TIP3    H2 7360   2.845   0.390   0.046
 2452TIP3   OH2 7361   4.533   3.593   4.497
 2452TIP3    H1 7362   4.495   3.622   4.580
 2452TIP3    H2 7363   4.532   3.498   4.501
 2453TIP3   OH2 7364   3.270   4.055   4.684
 2453TIP3    H1 7365   3.346   4.007   4.716
 2453TIP3    H2 7366   3.298   4.147   4.685
 2454TIP3   OH2 7367   4.871   5.583   2.223
 2454TIP3    H1 7368   4.883   5.656   2.283
 2454TIP3    H2 7369   4.881   5.505   2.278
 2455TIP3   OH2 7370   1.012   1.717   3.789
 2455TIP3    H1 7371   1.083   1.701   3.727
 2455TIP3    H2 7372   0.981   1.806   3.769
 2456TIP3   OH2 7373   1.387   0.649   0.139
 2456TIP3    H1 7374   1.483   0.649   0.137
 2456TIP3    H2 7375   1.365   0.646   0.232
 2457TIP3   OH2 7376   0.627   3.055   3.050
 2457TIP3    H1 7377   0.671   3.054   3.135
 2457TIP3    H2 7378   0.694   3.088   2.989
 2458TIP3   OH2 7379   2.226   4.530   4.353
 2458TIP3    H1 7380   2.247   4.440   4.380
 2458TIP3    H2 7381   2.131   4.535   4.359
 2459TIP3   OH2 7382   1.377   3.149   2.117
 2459TIP3    H1 7383   1.304   3.198   2.155
 2459TIP3    H2 7384   1.455   3.192   2.153
 2460TIP3   OH2 7385   2.781   4.976   0.538
 2460TIP3    H1 7386   2.744   4.893   0.508
 2460TIP3    H2 7387   2.809   5.020   0.458
 2461TIP3   OH2 7388   2.807   1.300   2.269
 2461TIP3    H1 7389   2.734   1.296   2.331
 2461TIP3    H2 7390   2.836   1.209   2.261
 2462TIP3   OH2 7391   4.585   4.134   3.603
 2462TIP3    H1 7392   4.633   4.058   3.637
 2462TIP3    H2 7393   4.497   4.125   3.639
 2463TIP3   OH2 7394   2.714   2.451   1.542
 2463TIP3    H1 7395   2.679   2.373   1.584
 2463TIP3    H2 7396   2.654   2.521   1.566
 2464TIP3   OH2 7397   5.210   2.973   2.746
 2464TIP3    H1 7398   5.185   2.885   2.719
 2464TIP3    H2 7399   5.260   3.008   2.673
 2465TIP3   OH2 7400   1.622   0.664   1.408
 2465TIP3    H1 7401   1.711   0.689   1.381
 2465TIP3    H2 7402   1.567   0.687   1.333
 2466TIP3   OH2 7403   6.303   5.770   0.485
 2466TIP3    H1 7404   6.247   5.847   0.490
 2466TIP3    H2 7405   6.286   5.722   0.566
 2467TIP3   OH2 7406   5.409   5.257   2.005
 2467TIP3    H1 7407   5.390   5.349   2.022
 2467TIP3    H2 7408   5.494   5.241   2.045
 2468TIP3   OH2 7409   0.567   4.032   4.392
 2468TIP3    H1 7410   0.639   3.999   4.337
 2468TIP3    H2 7411   0.488   4.000   4.349
 2469TIP3   OH2 7412   6.201   3.537   2.485
 2469TIP3    H1 7413   6.143   3.506   2.554
 2469TIP3    H2 7414   6.155   3.515   2.403
 2470TIP3   OH2 7415   5.123   1.021   0.241
 2470TIP3    H1 7416   5.133   1.109   0.205
 2470TIP3    H2 7417   5.213   0.993   0.261
 2471TIP3   OH2 7418   4.190   0.673   2.211
 2471TIP3    H1 7419   4.137   0.637   2.140
 2471TIP3    H2 7420   4.280   0.664   2.181
 2472TIP3   OH2 7421   4.535   0.356   0.655
 2472TIP3    H1 7422   4.520   0.340   0.562
 2472TIP3    H2 7423   4.630   0.360   0.664
 2473TIP3   OH2 7424   0.109   6.015   4.760
 2473TIP3    H1 7425   0.023   6.055   4.748
 2473TIP3    H2 7426   0.104   5.932   4.712
 2474TIP3   OH2 7427   6.328   0.675   4.085
 2474TIP3    H1 7428   6.257   0.733   4.058
 2474TIP3    H2 7429   6.404   0.704   4.035
 2475TIP3   OH2 7430   4.301   5.730   2.045
 2475TIP3    H1 7431   4.378   5.707   2.098
 2475TIP3    H2 7432   4.333   5.728   1.954
 2476TIP3   OH2 7433   2.716   1.852   4.987
 2476TIP3    H1 7434   2.650   1.826   4.923
 2476TIP3    H2 7435   2.740   1.942   4.962
 2477TIP3   OH2 7436   3.117   4.235   4.245
 2477TIP3    H1 7437   3.022   4.226   4.240
 2477TIP3    H2 7438   3.139   4.298   4.177
 2478TIP3   OH2 7439   0.547   1.459   3.599
 2478TIP3    H1 7440   0.608   1.533   3.599
 2478TIP3    H2 7441   0.602   1.383   3.579
 2479TIP3   OH2 7442   2.331   4.212   5.121
 2479TIP3    H1 7443   2.395   4.181   5.186
 2479TIP3    H2 7444   2.250   4.222   5.171
 2480TIP3   OH2 7445   2.087   3.248   1.868
 2480TIP3    H1 7446   2.032   3.323   1.889
 2480TIP3    H2 7447   2.117   3.215   1.953
 2481TIP3   OH2 7448   3.540   1.219   2.853
 2481TIP3    H1 7449   3.516   1.310   2.834
 2481TIP3    H2 7450   3.526   1.209   2.947
 2482TIP3   OH2 7451   0.612   4.374   2.602
 2482TIP3    H1 7452   0.703   4.393   2.627
 2482TIP3    H2 7453   0.562   4.389   2.682
 2483TIP3   OH2 7454   4.358   1.129   3.801
 2483TIP3    H1 7455   4.271   1.090   3.816
 2483TIP3    H2 7456   4.417   1.076   3.854
 2484TIP3   OH2 7457   4.624   0.565   4.384
 2484TIP3    H1 7458   4.692   0.618   4.342
 2484TIP3    H2 7459   4.641   0.574   4.478
 2485TIP3   OH2 7460   1.928   3.025   1.479
 2485TIP3    H1 7461   1.945   3.023   1.573
 2485TIP3    H2 7462   1.895   2.938   1.459
 2486TIP3   OH2 7463   0.625   1.385   2.428
 2486TIP3    H1 7464   0.657   1.326   2.496
 2486TIP3    H2 7465   0.700   1.441   2.406
 2487TIP3   OH2 7466   2.709   2.174   0.188
 2487TIP3    H1 7467   2.800   2.192   0.163
 2487TIP3    H2 7468   2.675   2.121   0.116
 2488TIP3   OH2 7469   5.455   0.158   3.364
 2488TIP3    H1 7470   5.535   0.195   3.325
 2488TIP3    H2 7471   5.384   0.192   3.309
 2489TIP3   OH2 7472   5.454   1.239   4.678
 2489TIP3    H1 7473   5.525   1.288   4.719
 2489TIP3    H2 7474   5.388   1.305   4.657
 2490TIP3   OH2 7475   0.188   1.573   1.331
 2490TIP3    H1 7476   0.101   1.592   1.368
 2490TIP3    H2 7477   0.176   1.491   1.282
 2491TIP3   OH2 7478   5.100   3.731   2.080
 2491TIP3    H1 7479   5.079   3.824   2.067
 2491TIP3    H2 7480   5.158   3.730   2.156
 2492TIP3   OH2 7481   1.189   2.510   2.188
 2492TIP3    H1 7482   1.159   2.542   2.273
 2492TIP3    H2 7483   1.155   2.420   2.183
 2493TIP3   OH2 7484   0.178   3.721   2.479
 2493TIP3    H1 7485   0.251   3.775   2.449
 2493TIP3    H2 7486   0.103   3.781   2.477
 2494TIP3   OH2 7487   3.186   3.172   4.175
 2494TIP3    H1 7488   3.254   3.108   4.193
 2494TIP3    H2 7489   3.208   3.206   4.088
 2495TIP3   OH2 7490   3.260   0.632   1.107
 2495TIP3    H1 7491   3.338   0.587   1.075
 2495TIP3    H2 7492   3.245   0.596   1.194
 2496TIP3   OH2 7493   0.993   3.097   1.659
 2496TIP3    H1 7494   1.061   3.117   1.723
 2496TIP3    H2 7495   1.024   3.137   1.578
 2497TIP3   OH2 7496   0.213   0.785   3.975
 2497TIP3    H1 7497   0.268   0.724   3.925
 2497TIP3    H2 7498   0.275   0.829   4.033
 2498TIP3   OH2 7499   3.193   0.955   4.538
 2498TIP3    H1 7500   3.166   0.901   4.613
 2498TIP3    H2 7501   3.126   0.940   4.472
 2499TIP3   OH2 7502   4.384   5.797   2.492
 2499TIP3    H1 7503   4.448   5.828   2.427
 2499TIP3    H2 7504   4.348   5.878   2.529
 2500TIP3   OH2 7505   3.390   5.156   1.945
 2500TIP3    H1 7506   3.426   5.240   1.973
 2500TIP3    H2 7507   3.378   5.165   1.850
 2501TIP3   OH2 7508   3.827   1.160   4.928
 2501TIP3    H1 7509   3.811   1.088   4.990
 2501TIP3    H2 7510   3.769   1.230   4.957
 2502TIP3   OH2 7511   0.121   4.523   2.418
 2502TIP3    H1 7512   0.170   4.565   2.348
 2502TIP3    H2 7513   0.086   4.595   2.471
 2503TIP3   OH2 7514   5.634   5.445   3.427
 2503TIP3    H1 7515   5.724   5.424   3.400
 2503TIP3    H2 7516   5.633   5.540   3.437
 2504TIP3   OH2 7517   1.248   2.163   4.623
 2504TIP3    H1 7518   1.291   2.090   4.667
 2504TIP3    H2 7519   1.266   2.239   4.679
 2505TIP3   OH2 7520   3.734   2.759   3.235
 2505TIP3    H1 7521   3.787   2.718   3.304
 2505TIP3    H2 7522   3.659   2.795   3.281
 2506TIP3   OH2 7523   6.141   3.261   3.313
 2506TIP3    H1 7524   6.114   3.207   3.387
 2506TIP3    H2 7525   6.182   3.338   3.353
 2507TIP3   OH2 7526   5.044   0.079   3.349
 2507TIP3    H1 7527   5.070   0.014   3.285
 2507TIP3    H2 7528   4.957   0.051   3.378
 2508TIP3   OH2 7529   4.558   2.198   1.786
 2508TIP3    H1 7530   4.513   2.283   1.781
 2508TIP3    H2 7531   4.646   2.220   1.815
 2509TIP3   OH2 7532   0.989   4.759   2.976
 2509TIP3    H1 7533   0.918   4.732   2.917
 2509TIP3    H2 7534   1.044   4.815   2.921
 2510TIP3   OH2 7535   4.501   3.474   2.566
 2510TIP3    H1 7536   4.513   3.569   2.561
 2510TIP3    H2 7537   4.590   3.440   2.578
 2511TIP3   OH2 7538   3.603   3.249   4.509
 2511TIP3    H1 7539   3.694   3.278   4.497
 2511TIP3    H2 7540   3.610   3.175   4.570
 2512TIP3   OH2 7541   1.637   3.890   1.074
 2512TIP3    H1 7542   1.635   3.933   0.988
 2512TIP3    H2 7543   1.706   3.823   1.065
 2513TIP3   OH2 7544   3.701   4.800   2.571
 2513TIP3    H1 7545   3.647   4.876   2.548
 2513TIP3    H2 7546   3.637   4.734   2.601
 2514TIP3   OH2 7547   6.175   4.059   4.564
 2514TIP3    H1 7548   6.145   3.980   4.607
 2514TIP3    H2 7549   6.107   4.078   4.499
 2515TIP3   OH2 7550   5.477   3.483   3.144
 2515TIP3    H1 7551   5.471   3.573   3.175
 2515TIP3    H2 7552   5.442   3.485   3.055
 2516TIP3   OH2 7553   1.695   4.346   4.946
 2516TIP3    H1 7554   1.684   4.401   4.869
 2516TIP3    H2 7555   1.731   4.264   4.913
 2517TIP3   OH2 7556   1.194   1.398   4.485
 2517TIP3    H1 7557   1.253   1.428   4.417
 2517TIP3    H2 7558   1.208   1.303   4.489
 2518TIP3   OH2 7559   0.061   2.018   3.559
 2518TIP3    H1 7560   0.104   2.049   3.479
 2518TIP3    H2 7561  -0.031   2.008   3.535
 2519TIP3   OH2 7562   6.248   1.248   3.334
 2519TIP3    H1 7563   6.320   1.186   3.335
 2519TIP3    H2 7564   6.232   1.269   3.427
 2520TIP3   OH2 7565   3.783   0.651   0.892
 2520TIP3    H1 7566   3.829   0.596   0.829
 2520TIP3    H2 7567   3.844   0.721   0.912
 2521TIP3   OH2 7568   0.788   2.146   3.681
 2521TIP3    H1 7569   0.811   2.239   3.680
 2521TIP3    H2 7570   0.713   2.141   3.740
 2522TIP3   OH2 7571   1.279   0.056   2.597
 2522TIP3    H1 7572   1.258  -0.017   2.538
 2522TIP3    H2 7573   1.276   0.134   2.541
 2523TIP3   OH2 7574   2.155   1.773   4.819
 2523TIP3    H1 7575   2.215   1.796   4.748
 2523TIP3    H2 7576   2.127   1.684   4.799
 2524TIP3   OH2 7577   0.260   4.039   5.107
 2524TIP3    H1 7578   0.220   3.955   5.085
 2524TIP3    H2 7579   0.353   4.028   5.087
 2525TIP3   OH2 7580   5.083   0.232   1.162
 2525TIP3    H1 7581   5.152   0.169   1.142
 2525TIP3    H2 7582   5.129   0.311   1.188
 2526TIP3   OH2 7583   2.371   0.131   5.108
 2526TIP3    H1 7584   2.390   0.189   5.182
 2526TIP3    H2 7585   2.275   0.132   5.102
 2527TIP3   OH2 7586   2.582   4.443   4.170
 2527TIP3    H1 7587   2.545   4.489   4.246
 2527TIP3    H2 7588   2.666   4.485   4.155
 2528TIP3   OH2 7589   5.314   1.913   5.058
 2528TIP3    H1 7590   5.302   1.964   5.138
 2528TIP3    H2 7591   5.406   1.887   5.059
 2529TIP3   OH2 7592   2.958   2.557   1.463
 2529TIP3    H1 7593   2.866   2.550   1.488
 2529TIP3    H2 7594   2.999   2.478   1.499
 2530TIP3   OH2 7595   5.112   0.655   1.809
 2530TIP3    H1 7596   5.110   0.731   1.867
 2530TIP3    H2 7597   5.024   0.651   1.772
 2531TIP3   OH2 7598   0.022   1.667   3.194
 2531TIP3    H1 7599   0.113   1.650   3.218
 2531TIP3    H2 7600   0.027   1.716   3.112
 2532TIP3   OH2 7601   2.213   3.749   0.261
 2532TIP3    H1 7602   2.266   3.800   0.200
 2532TIP3    H2 7603   2.132   3.731   0.213
 2533TIP3   OH2 7604   4.595   1.920   0.984
 2533TIP3    H1 7605   4.624   1.833   1.008
 2533TIP3    H2 7606   4.652   1.945   0.911
 2534TIP3   OH2 7607   1.413   0.139   3.258
 2534TIP3    H1 7608   1.427   0.125   3.352
 2534TIP3    H2 7609   1.358   0.065   3.231
 2535TIP3   OH2 7610   4.767   3.519   0.187
 2535TIP3    H1 7611   4.715   3.470   0.251
 2535TIP3    H2 7612   4.756   3.610   0.211
 2536TIP3   OH2 7613   4.541   1.761   0.513
 2536TIP3    H1 7614   4.491   1.841   0.529
 2536TIP3    H2 7615   4.628   1.792   0.489
 2537TIP3   OH2 7616   4.366   3.237   1.998
 2537TIP3    H1 7617   4.316   3.162   1.964
 2537TIP3    H2 7618   4.399   3.207   2.083
 2538TIP3   OH2 7619   2.059   2.993   1.186
 2538TIP3    H1 7620   2.087   3.042   1.264
 2538TIP3    H2 7621   2.082   3.050   1.113
 2539TIP3   OH2 7622   2.972   5.002   3.422
 2539TIP3    H1 7623   2.948   4.924   3.373
 2539TIP3    H2 7624   2.924   4.995   3.504
 2540TIP3   OH2 7625   2.837   3.749   1.953
 2540TIP3    H1 7626   2.931   3.757   1.939
 2540TIP3    H2 7627   2.798   3.766   1.867
 2541TIP3   OH2 7628   2.631   3.289   0.741
 2541TIP3    H1 7629   2.630   3.327   0.653
 2541TIP3    H2 7630   2.548   3.316   0.780
 2542TIP3   OH2 7631   3.665   2.251   4.463
 2542TIP3    H1 7632   3.638   2.191   4.533
 2542TIP3    H2 7633   3.659   2.338   4.502
 2543TIP3   OH2 7634   6.215   3.058   4.802
 2543TIP3    H1 7635   6.284   3.106   4.757
 2543TIP3    H2 7636   6.226   2.968   4.774
 2544TIP3   OH2 7637   4.129   5.582   3.708
 2544TIP3    H1 7638   4.215   5.541   3.708
 2544TIP3    H2 7639   4.115   5.610   3.798
 2545TIP3   OH2 7640   4.619   0.916   4.273
 2545TIP3    H1 7641   4.588   0.998   4.313
 2545TIP3    H2 7642   4.675   0.877   4.339
 2546TIP3   OH2 7643   5.605   3.009   3.591
 2546TIP3    H1 7644   5.673   2.984   3.654
 2546TIP3    H2 7645   5.550   3.071   3.639
 2547TIP3   OH2 7646   4.721   3.845   5.189
 2547TIP3    H1 7647   4.724   3.771   5.249
 2547TIP3    H2 7648   4.657   3.819   5.122
 2548TIP3   OH2 7649   2.996   2.177   0.187
 2548TIP3    H1 7650   3.038   2.149   0.105
 2548TIP3    H2 7651   3.030   2.116   0.253
 2549TIP3   OH2 7652   0.055   2.024   4.427
 2549TIP3    H1 7653   0.010   1.980   4.499
 2549TIP3    H2 7654   0.134   1.972   4.413
 2550TIP3   OH2 7655   3.885   1.094   3.883
 2550TIP3    H1 7656   3.869   1.188   3.883
 2550TIP3    H2 7657   3.901   1.073   3.975
 2551TIP3   OH2 7658   3.662   5.947   0.859
 2551TIP3    H1 7659   3.689   6.034   0.886
 2551TIP3    H2 7660   3.576   5.959   0.819
 2552TIP3   OH2 7661   1.363   3.782   1.167
 2552TIP3    H1 7662   1.357   3.687   1.163
 2552TIP3    H2 7663   1.455   3.800   1.188
 2553TIP3   OH2 7664   4.724   1.943   4.048
 2553TIP3    H1 7665   4.811   1.972   4.022
 2553TIP3    H2 7666   4.739   1.892   4.128
 2554TIP3   OH2 7667   3.164  -0.008   2.842
 2554TIP3    H1 7668   3.214   0.014   2.763
 2554TIP3    H2 7669   3.231  -0.029   2.907
 2555TIP3   OH2 7670   2.444   4.044   0.346
 2555TIP3    H1 7671   2.472   4.021   0.257
 2555TIP3    H2 7672   2.526   4.056   0.395
 2556TIP3   OH2 7673   2.403   3.637   3.164
 2556TIP3    H1 7674   2.470   3.673   3.222
 2556TIP3    H2 7675   2.430   3.664   3.076
 2557TIP3   OH2 7676   0.824   0.684   0.517
 2557TIP3    H1 7677   0.900   0.701   0.572
 2557TIP3    H2 7678   0.807   0.766   0.472
 2558TIP3   OH2 7679   3.087   3.180   2.773
 2558TIP3    H1 7680   3.025   3.237   2.819
 2558TIP3    H2 7681   3.172   3.223   2.783
 2559TIP3   OH2 7682   4.578   2.768   2.874
 2559TIP3    H1 7683   4.634   2.845   2.882
 2559TIP3    H2 7684   4.509   2.795   2.814
 2560TIP3   OH2 7685   4.915  -0.005   1.896
 2560TIP3    H1 7686   4.824   0.006   1.867
 2560TIP3    H2 7687   4.948   0.084   1.907
 2561TIP3   OH2 7688   3.855   3.160   4.588
 2561TIP3    H1 7689   3.846   3.252   4.610
 2561TIP3    H2 7690   3.801   3.114   4.653
 2562TIP3   OH2 7691   0.187   0.714   4.287
 2562TIP3    H1 7692   0.128   0.689   4.216
 2562TIP3    H2 7693   0.241   0.636   4.301
 2563TIP3   OH2 7694   2.190   0.719   3.580
 2563TIP3    H1 7695   2.281   0.691   3.568
 2563TIP3    H2 7696   2.167   0.687   3.668
 2564TIP3   OH2 7697   3.440   1.583   4.014
 2564TIP3    H1 7698   3.376   1.514   3.997
 2564TIP3    H2 7699   3.514   1.537   4.054
 2565TIP3   OH2 7700   3.201   4.454   4.571
 2565TIP3    H1 7701   3.172   4.545   4.568
 2565TIP3    H2 7702   3.247   4.441   4.488
 2566TIP3   OH2 7703   5.332   3.400   4.509
 2566TIP3    H1 7704   5.241   3.398   4.478
 2566TIP3    H2 7705   5.378   3.338   4.452
 2567TIP3   OH2 7706   4.942   0.642   2.137
 2567TIP3    H1 7707   4.892   0.708   2.186
 2567TIP3    H2 7708   4.875   0.591   2.091
 2568TIP3   OH2 7709   1.623   4.284   3.048
 2568TIP3    H1 7710   1.582   4.325   3.125
 2568TIP3    H2 7711   1.695   4.343   3.026
 2569TIP3   OH2 7712   2.221   1.833   0.700
 2569TIP3    H1 7713   2.172   1.752   0.681
 2569TIP3    H2 7714   2.197   1.855   0.790
 2570TIP3   OH2 7715   3.882   0.106   1.806
 2570TIP3    H1 7716   3.907   0.197   1.793
 2570TIP3    H2 7717   3.956   0.066   1.850
 2571TIP3   OH2 7718   2.547   1.271   0.920
 2571TIP3    H1 7719   2.560   1.250   1.012
 2571TIP3    H2 7720   2.601   1.207   0.873
 2572TIP3   OH2 7721   3.689   2.726   3.959
 2572TIP3    H1 7722   3.712   2.697   3.871
 2572TIP3    H2 7723   3.673   2.820   3.950
 2573TIP3   OH2 7724   1.411   1.530   1.101
 2573TIP3    H1 7725   1.375   1.447   1.070
 2573TIP3    H2 7726   1.463   1.507   1.178
 2574TIP3   OH2 7727   3.390   1.311   1.511
 2574TIP3    H1 7728   3.408   1.327   1.419
 2574TIP3    H2 7729   3.337   1.232   1.512
 2575TIP3   OH2 7730   2.559   1.715   2.106
 2575TIP3    H1 7731   2.567   1.700   2.012
 2575TIP3    H2 7732   2.646   1.699   2.141
 2576TIP3   OH2 7733   3.780   3.435   4.208
 2576TIP3    H1 7734   3.875   3.439   4.218
 2576TIP3    H2 7735   3.759   3.504   4.145
 2577TIP3   OH2 7736   6.037   0.822   2.506
 2577TIP3    H1 7737   6.035   0.860   2.593
 2577TIP3    H2 7738   5.960   0.857   2.462
 2578TIP3   OH2 7739   2.722   5.721   0.557
 2578TIP3    H1 7740   2.739   5.719   0.462
 2578TIP3    H2 7741   2.762   5.803   0.586
 2579TIP3   OH2 7742   0.918   1.864   0.165
 2579TIP3    H1 7743   0.832   1.906   0.162
 2579TIP3    H2 7744   0.973   1.915   0.105
 2580TIP3   OH2 7745   3.865   0.463   0.427
 2580TIP3    H1 7746   3.894   0.549   0.397
 2580TIP3    H2 7747   3.881   0.405   0.352
 2581TIP3   OH2 7748   2.792   1.043   0.447
 2581TIP3    H1 7749   2.807   1.046   0.353
 2581TIP3    H2 7750   2.880   1.045   0.486
 2582TIP3   OH2 7751   2.116   4.084   2.803
 2582TIP3    H1 7752   2.045   4.033   2.766
 2582TIP3    H2 7753   2.076   4.130   2.878
 2583TIP3   OH2 7754   0.522   3.813   4.133
 2583TIP3    H1 7755   0.555   3.893   4.091
 2583TIP3    H2 7756   0.580   3.744   4.100
 2584TIP3   OH2 7757   0.160   5.286   1.159
 2584TIP3    H1 7758   0.233   5.240   1.116
 2584TIP3    H2 7759   0.095   5.297   1.089
 2585TIP3   OH2 7760   3.851   2.003   2.462
 2585TIP3    H1 7761   3.857   2.096   2.438
 2585TIP3    H2 7762   3.766   1.995   2.505
 2586TIP3   OH2 7763   4.921   4.661   0.786
 2586TIP3    H1 7764   4.962   4.590   0.737
 2586TIP3    H2 7765   4.981   4.677   0.859
 2587TIP3   OH2 7766   0.065   2.408   0.228
 2587TIP3    H1 7767   0.092   2.497   0.250
 2587TIP3    H2 7768   0.062   2.406   0.132
 2588TIP3   OH2 7769   1.374   2.798   4.501
 2588TIP3    H1 7770   1.374   2.829   4.592
 2588TIP3    H2 7771   1.438   2.726   4.500
 2589TIP3   OH2 7772   1.483   2.465   1.119
 2589TIP3    H1 7773   1.414   2.508   1.169
 2589TIP3    H2 7774   1.563   2.511   1.143
 2590TIP3   OH2 7775   2.327   2.330   0.336
 2590TIP3    H1 7776   2.376   2.249   0.352
 2590TIP3    H2 7777   2.237   2.301   0.321
 2591TIP3   OH2 7778   0.049   0.529   5.002
 2591TIP3    H1 7779   0.106   0.593   4.961
 2591TIP3    H2 7780   0.108   0.469   5.047
 2592TIP3   OH2 7781   5.399   1.463   3.911
 2592TIP3    H1 7782   5.365   1.448   3.823
 2592TIP3    H2 7783   5.414   1.558   3.916
 2593TIP3   OH2 7784   5.807   2.096   0.595
 2593TIP3    H1 7785   5.895   2.099   0.634
 2593TIP3    H2 7786   5.815   2.147   0.514
 2594TIP3   OH2 7787   1.371   3.770   4.721
 2594TIP3    H1 7788   1.341   3.702   4.661
 2594TIP3    H2 7789   1.316   3.846   4.701
 2595TIP3   OH2 7790   6.245   1.553   1.857
 2595TIP3    H1 7791   6.178   1.496   1.819
 2595TIP3    H2 7792   6.235   1.542   1.952
 2596TIP3   OH2 7793   3.571   3.603   4.300
 2596TIP3    H1 7794   3.551   3.596   4.393
 2596TIP3    H2 7795   3.612   3.519   4.278
 2597TIP3   OH2 7796   4.195   3.017   2.883
 2597TIP3    H1 7797   4.240   2.938   2.914
 2597TIP3    H2 7798   4.262   3.066   2.836
 2598TIP3   OH2 7799   3.654   5.055   0.110
 2598TIP3    H1 7800   3.642   4.971   0.153
 2598TIP3    H2 7801   3.592   5.054   0.037
 2599TIP3   OH2 7802   0.261   3.978   2.727
 2599TIP3    H1 7803   0.315   4.053   2.753
 2599TIP3    H2 7804   0.304   3.943   2.649
 2600TIP3   OH2 7805   3.965   5.794   1.788
 2600TIP3    H1 7806   3.970   5.825   1.878
 2600TIP3    H2 7807   3.883   5.745   1.783
 2601TIP3   OH2 7808   1.693   3.099   2.395
 2601TIP3    H1 7809   1.786   3.088   2.418
 2601TIP3    H2 7810   1.681   3.193   2.387
 2602TIP3   OH2 7811   0.424   5.723   3.639
 2602TIP3    H1 7812   0.342   5.707   3.686
 2602TIP3    H2 7813   0.395   5.753   3.552
 2603TIP3   OH2 7814   4.144   0.842   3.488
 2603TIP3    H1 7815   4.175   0.926   3.453
 2603TIP3    H2 7816   4.172   0.842   3.579
 2604TIP3   OH2 7817   0.227   3.082   3.765
 2604TIP3    H1 7818   0.266   3.026   3.698
 2604TIP3    H2 7819   0.202   3.162   3.718
 2605TIP3   OH2 7820   1.213   4.099   5.166
 2605TIP3    H1 7821   1.243   4.181   5.204
 2605TIP3    H2 7822   1.272   4.083   5.093
 2606TIP3   OH2 7823   2.908   0.051   3.220
 2606TIP3    H1 7824   2.996   0.074   3.251
 2606TIP3    H2 7825   2.849   0.090   3.285
 2607TIP3   OH2 7826   5.304   2.634   3.711
 2607TIP3    H1 7827   5.332   2.646   3.802
 2607TIP3    H2 7828   5.371   2.678   3.659
 2608TIP3   OH2 7829   2.409   4.751   2.650
 2608TIP3    H1 7830   2.407   4.690   2.575
 2608TIP3    H2 7831   2.448   4.699   2.721
 2609TIP3   OH2 7832   1.594   1.727   0.417
 2609TIP3    H1 7833   1.569   1.762   0.503
 2609TIP3    H2 7834   1.674   1.677   0.434
 2610TIP3   OH2 7835   5.000   4.794   1.439
 2610TIP3    H1 7836   4.978   4.880   1.476
 2610TIP3    H2 7837   5.092   4.781   1.462
 2611TIP3   OH2 7838   0.494   1.388   4.676
 2611TIP3    H1 7839   0.459   1.318   4.730
 2611TIP3    H2 7840   0.533   1.449   4.738
 2612TIP3   OH2 7841   4.673   2.838   2.437
 2612TIP3    H1 7842   4.728   2.760   2.443
 2612TIP3    H2 7843   4.700   2.893   2.510
 2613TIP3   OH2 7844   3.680   3.213   0.346
 2613TIP3    H1 7845   3.744   3.151   0.308
 2613TIP3    H2 7846   3.626   3.239   0.272
 2614TIP3   OH2 7847   2.456   0.492   1.335
 2614TIP3    H1 7848   2.518   0.564   1.335
 2614TIP3    H2 7849   2.509   0.415   1.314
 2615TIP3   OH2 7850   5.402   4.535   1.681
 2615TIP3    H1 7851   5.375   4.538   1.772
 2615TIP3    H2 7852   5.388   4.624   1.648
 2616TIP3   OH2 7853   5.121   4.069   1.565
 2616TIP3    H1 7854   5.113   3.994   1.624
 2616TIP3    H2 7855   5.171   4.133   1.615
 2617TIP3   OH2 7856   0.398   2.637   0.136
 2617TIP3    H1 7857   0.316   2.592   0.157
 2617TIP3    H2 7858   0.406   2.628   0.041
 2618TIP3   OH2 7859   3.616   4.519   2.389
 2618TIP3    H1 7860   3.522   4.535   2.396
 2618TIP3    H2 7861   3.629   4.493   2.298
 2619TIP3   OH2 7862   3.982   4.207   0.569
 2619TIP3    H1 7863   3.895   4.175   0.545
 2619TIP3    H2 7864   4.034   4.128   0.585
 2620TIP3   OH2 7865   1.977   5.710   4.372
 2620TIP3    H1 7866   1.961   5.685   4.463
 2620TIP3    H2 7867   1.908   5.773   4.352
 2621TIP3   OH2 7868   0.236   2.027   4.725
 2621TIP3    H1 7869   0.325   2.022   4.760
 2621TIP3    H2 7870   0.180   2.000   4.797
 2622TIP3   OH2 7871   1.017   2.810   1.408
 2622TIP3    H1 7872   1.014   2.742   1.340
 2622TIP3    H2 7873   0.940   2.863   1.392
 2623TIP3   OH2 7874   4.388   3.072   1.453
 2623TIP3    H1 7875   4.456   3.005   1.448
 2623TIP3    H2 7876   4.411   3.125   1.529
 2624TIP3   OH2 7877   6.213   0.928   4.662
 2624TIP3    H1 7878   6.238   0.838   4.640
 2624TIP3    H2 7879   6.210   0.929   4.758
 2625TIP3   OH2 7880   6.239   0.362   0.855
 2625TIP3    H1 7881   6.262   0.356   0.948
 2625TIP3    H2 7882   6.321   0.387   0.812
 2626TIP3   OH2 7883   2.121   1.743   4.163
 2626TIP3    H1 7884   2.055   1.774   4.225
 2626TIP3    H2 7885   2.074   1.679   4.109
 2627TIP3   OH2 7886   1.138   5.067   2.470
 2627TIP3    H1 7887   1.091   5.087   2.389
 2627TIP3    H2 7888   1.182   5.149   2.492
 2628TIP3   OH2 7889   6.214   4.320   0.426
 2628TIP3    H1 7890   6.120   4.330   0.439
 2628TIP3    H2 7891   6.251   4.404   0.452
 2629TIP3   OH2 7892   6.192   4.265   0.075
 2629TIP3    H1 7893   6.121   4.270   0.139
 2629TIP3    H2 7894   6.215   4.172   0.073
 2630TIP3   OH2 7895   0.307   2.188   0.646
 2630TIP3    H1 7896   0.284   2.245   0.719
 2630TIP3    H2 7897   0.250   2.217   0.574
 2631TIP3   OH2 7898   4.879   4.951   3.314
 2631TIP3    H1 7899   4.872   5.011   3.389
 2631TIP3    H2 7900   4.881   4.864   3.353
 2632TIP3   OH2 7901   0.302   0.267   4.517
 2632TIP3    H1 7902   0.370   0.328   4.545
 2632TIP3    H2 7903   0.307   0.194   4.579
 2633TIP3   OH2 7904   1.562   0.916   3.372
 2633TIP3    H1 7905   1.597   0.965   3.298
 2633TIP3    H2 7906   1.636   0.902   3.431
 2634TIP3   OH2 7907   3.884   4.876   2.070
 2634TIP3    H1 7908   3.796   4.851   2.099
 2634TIP3    H2 7909   3.907   4.809   2.005
 2635TIP3   OH2 7910   0.895   3.531   1.075
 2635TIP3    H1 7911   0.956   3.593   1.035
 2635TIP3    H2 7912   0.888   3.461   1.010
 2636TIP3   OH2 7913   0.006   4.492   5.085
 2636TIP3    H1 7914   0.059   4.568   5.108
 2636TIP3    H2 7915   0.067   4.431   5.042
 2637TIP3   OH2 7916   3.754   0.967   5.096
 2637TIP3    H1 7917   3.770   0.879   5.128
 2637TIP3    H2 7918   3.683   1.001   5.151
 2638TIP3   OH2 7919   0.008   2.400   2.196
 2638TIP3    H1 7920   0.038   2.390   2.286
 2638TIP3    H2 7921  -0.064   2.338   2.188
 2639TIP3   OH2 7922   2.664   3.459   3.104
 2639TIP3    H1 7923   2.681   3.476   3.012
 2639TIP3    H2 7924   2.621   3.373   3.105
 2640TIP3   OH2 7925   5.882   5.189   2.983
 2640TIP3    H1 7926   5.903   5.177   2.890
 2640TIP3    H2 7927   5.788   5.206   2.984
 2641TIP3   OH2 7928   2.070   1.131   1.237
 2641TIP3    H1 7929   2.118   1.049   1.247
 2641TIP3    H2 7930   2.131   1.199   1.267
 2642TIP3   OH2 7931   5.590   2.312   0.782
 2642TIP3    H1 7932   5.662   2.353   0.829
 2642TIP3    H2 7933   5.561   2.242   0.840
 2643TIP3   OH2 7934   5.802   4.807   0.035
 2643TIP3    H1 7935   5.725   4.846   0.077
 2643TIP3    H2 7936   5.793   4.832  -0.057
 2644TIP3   OH2 7937   0.147   1.195   0.693
 2644TIP3    H1 7938   0.232   1.180   0.652
 2644TIP3    H2 7939   0.092   1.123   0.661
 2645TIP3   OH2 7940   5.013   1.203   2.680
 2645TIP3    H1 7941   4.940   1.235   2.734
 2645TIP3    H2 7942   4.985   1.116   2.652
 2646TIP3   OH2 7943   5.052   1.945   4.254
 2646TIP3    H1 7944   5.040   1.962   4.161
 2646TIP3    H2 7945   5.027   2.027   4.297
 2647TIP3   OH2 7946   2.042   5.591   1.804
 2647TIP3    H1 7947   2.135   5.574   1.789
 2647TIP3    H2 7948   1.999   5.509   1.778
 2648TIP3   OH2 7949   6.268   3.115   0.474
 2648TIP3    H1 7950   6.261   3.135   0.381
 2648TIP3    H2 7951   6.330   3.179   0.508
 2649TIP3   OH2 7952   3.636   4.320   0.364
 2649TIP3    H1 7953   3.693   4.299   0.290
 2649TIP3    H2 7954   3.564   4.371   0.326
 2650TIP3   OH2 7955   0.864   5.553   2.867
 2650TIP3    H1 7956   0.785   5.518   2.826
 2650TIP3    H2 7957   0.863   5.516   2.956
 2651TIP3   OH2 7958   4.307   4.166   1.445
 2651TIP3    H1 7959   4.254   4.122   1.511
 2651TIP3    H2 7960   4.325   4.099   1.379
 2652TIP3   OH2 7961   5.671   2.763   2.372
 2652TIP3    H1 7962   5.719   2.824   2.428
 2652TIP3    H2 7963   5.611   2.819   2.322
 2653TIP3   OH2 7964   0.854   0.933   4.206
 2653TIP3    H1 7965   0.800   1.007   4.234
 2653TIP3    H2 7966   0.814   0.857   4.246
 2654TIP3   OH2 7967   3.779   6.001   1.142
 2654TIP3    H1 7968   3.820   6.061   1.079
 2654TIP3    H2 7969   3.766   5.920   1.092
 2655TIP3   OH2 7970   4.061   5.834   3.306
 2655TIP3    H1 7971   4.041   5.843   3.213
 2655TIP3    H2 7972   4.111   5.913   3.327
 2656TIP3   OH2 7973   0.802   1.971   2.485
 2656TIP3    H1 7974   0.769   1.971   2.395
 2656TIP3    H2 7975   0.852   1.890   2.492
 2657TIP3   OH2 7976   3.426   2.557   1.992
 2657TIP3    H1 7977   3.399   2.610   2.068
 2657TIP3    H2 7978   3.473   2.483   2.031
 2658TIP3   OH2 7979   2.011   3.226   4.409
 2658TIP3    H1 7980   2.027   3.265   4.495
 2658TIP3    H2 7981   2.019   3.132   4.422
 2659TIP3   OH2 7982   0.274   2.024   4.201
 2659TIP3    H1 7983   0.192   2.043   4.156
 2659TIP3    H2 7984   0.322   2.107   4.199
 2660TIP3   OH2 7985   1.303   3.138   2.808
 2660TIP3    H1 7986   1.298   3.126   2.903
 2660TIP3    H2 7987   1.370   3.076   2.780
 2661TIP3   OH2 7988   5.149   1.583   4.848
 2661TIP3    H1 7989   5.229   1.575   4.899
 2661TIP3    H2 7990   5.160   1.664   4.798
 2662TIP3   OH2 7991   0.159   3.432   2.995
 2662TIP3    H1 7992   0.155   3.352   3.048
 2662TIP3    H2 7993   0.141   3.502   3.057
 2663TIP3   OH2 7994   0.858   3.605   4.369
 2663TIP3    H1 7995   0.804   3.543   4.320
 2663TIP3    H2 7996   0.796   3.670   4.401
 2664TIP3   OH2 7997   3.562   0.567   0.503
 2664TIP3    H1 7998   3.570   0.472   0.512
 2664TIP3    H2 7999   3.582   0.584   0.411
 2665TIP3   OH2 8000   4.860   5.991   1.621
 2665TIP3    H1 8001   4.882   5.972   1.529
 2665TIP3    H2 8002   4.932   5.952   1.670
 2666TIP3   OH2 8003   3.626   2.043   2.112
 2666TIP3    H1 8004   3.618   2.108   2.181
 2666TIP3    H2 8005   3.697   2.075   2.057
 2667TIP3   OH2 8006   5.694   1.218   3.080
 2667TIP3    H1 8007   5.746   1.291   3.047
 2667TIP3    H2 8008   5.611   1.224   3.031
 2668TIP3   OH2 8009   2.283   2.839   0.924
 2668TIP3    H1 8010   2.280   2.839   0.829
 2668TIP3    H2 8011   2.221   2.907   0.950
 2669TIP3   OH2 8012   6.286   0.366   4.233
 2669TIP3    H1 8013   6.293   0.300   4.302
 2669TIP3    H2 8014   6.214   0.336   4.178
 2670TIP3   OH2 8015   5.428   2.067   2.384
 2670TIP3    H1 8016   5.489   2.129   2.424
 2670TIP3    H2 8017   5.445   2.074   2.290
 2671TIP3   OH2 8018   3.362   5.954   0.044
 2671TIP3    H1 8019   3.393   5.935  -0.044
 2671TIP3    H2 8020   3.400   5.884   0.098
 2672TIP3   OH2 8021   5.998   5.614   4.540
 2672TIP3    H1 8022   5.908   5.628   4.570
 2672TIP3    H2 8023   6.017   5.523   4.564
 2673TIP3   OH2 8024   5.413   3.512   4.779
 2673TIP3    H1 8025   5.388   3.441   4.719
 2673TIP3    H2 8026   5.351   3.582   4.760
 2674TIP3   OH2 8027   3.394   1.443   1.222
 2674TIP3    H1 8028   3.389   1.358   1.178
 2674TIP3    H2 8029   3.487   1.458   1.235
 2675TIP3   OH2 8030   5.687   3.729   4.224
 2675TIP3    H1 8031   5.756   3.762   4.282
 2675TIP3    H2 8032   5.660   3.646   4.264
 2676TIP3   OH2 8033   1.206   1.903   3.964
 2676TIP3    H1 8034   1.136   1.938   3.909
 2676TIP3    H2 8035   1.264   1.977   3.979
 2677TIP3   OH2 8036   5.846   3.674  -0.016
 2677TIP3    H1 8037   5.766   3.660   0.033
 2677TIP3    H2 8038   5.916   3.669   0.049
 2678TIP3   OH2 8039   5.796   0.994   2.948
 2678TIP3    H1 8040   5.767   1.073   2.995
 2678TIP3    H2 8041   5.789   0.924   3.012
 2679TIP3   OH2 8042   1.341   4.801   2.787
 2679TIP3    H1 8043   1.260   4.842   2.758
 2679TIP3    H2 8044   1.406   4.827   2.722
 2680TIP3   OH2 8045   0.649   3.696   4.548
 2680TIP3    H1 8046   0.630   3.783   4.583
 2680TIP3    H2 8047   0.580   3.681   4.483
 2681TIP3   OH2 8048   5.773   4.622   4.230
 2681TIP3    H1 8049   5.815   4.618   4.316
 2681TIP3    H2 8050   5.791   4.537   4.190
 2682TIP3   OH2 8051   6.308   1.740   2.644
 2682TIP3    H1 8052   6.395   1.709   2.619
 2682TIP3    H2 8053   6.250   1.711   2.574
 2683TIP3   OH2 8054   1.876   2.433   3.146
 2683TIP3    H1 8055   1.797   2.485   3.165
 2683TIP3    H2 8056   1.860   2.397   3.059
 2684TIP3   OH2 8057   3.417   4.833   4.329
 2684TIP3    H1 8058   3.432   4.865   4.240
 2684TIP3    H2 8059   3.333   4.871   4.355
 2685TIP3   OH2 8060   2.604   3.930   0.139
 2685TIP3    H1 8061   2.597   3.869   0.213
 2685TIP3    H2 8062   2.689   3.911   0.100
 2686TIP3   OH2 8063   1.076   0.757   0.603
 2686TIP3    H1 8064   1.022   0.825   0.644
 2686TIP3    H2 8065   1.119   0.803   0.530
 2687TIP3   OH2 8066   6.085   4.847   2.152
 2687TIP3    H1 8067   6.108   4.940   2.158
 2687TIP3    H2 8068   6.053   4.837   2.063
 2688TIP3   OH2 8069   3.200   4.649   2.576
 2688TIP3    H1 8070   3.131   4.582   2.577
 2688TIP3    H2 8071   3.161   4.725   2.620
 2689TIP3   OH2 8072   5.952   4.216   1.167
 2689TIP3    H1 8073   5.860   4.189   1.163
 2689TIP3    H2 8074   5.955   4.301   1.123
 2690TIP3   OH2 8075   3.240   3.769   4.387
 2690TIP3    H1 8076   3.312   3.788   4.326
 2690TIP3    H2 8077   3.169   3.824   4.358
 2691TIP3   OH2 8078   1.889   3.679   1.387
 2691TIP3    H1 8079   1.849   3.636   1.463
 2691TIP3    H2 8080   1.823   3.742   1.358
 2692TIP3   OH2 8081   0.812   3.137   5.045
 2692TIP3    H1 8082   0.857   3.187   4.976
 2692TIP3    H2 8083   0.882   3.114   5.106
 2693TIP3   OH2 8084   0.603   5.137   3.768
 2693TIP3    H1 8085   0.670   5.069   3.757
 2693TIP3    H2 8086   0.530   5.107   3.714
 2694TIP3   OH2 8087   5.339   5.596   0.859
 2694TIP3    H1 8088   5.349   5.523   0.921
 2694TIP3    H2 8089   5.398   5.663   0.891
 2695TIP3   OH2 8090   2.977   4.278   4.641
 2695TIP3    H1 8091   3.044   4.331   4.600
 2695TIP3    H2 8092   2.956   4.324   4.723
 2696TIP3   OH2 8093   5.531   3.226   4.093
 2696TIP3    H1 8094   5.468   3.247   4.024
 2696TIP3    H2 8095   5.616   3.250   4.056
 2697TIP3   OH2 8096   3.878   0.951   0.582
 2697TIP3    H1 8097   3.832   1.034   0.573
 2697TIP3    H2 8098   3.808   0.887   0.598
 2698TIP3   OH2 8099   3.134   1.572   0.230
 2698TIP3    H1 8100   3.183   1.513   0.288
 2698TIP3    H2 8101   3.193   1.588   0.157
 2699TIP3   OH2 8102   1.317   5.190   2.859
 2699TIP3    H1 8103   1.264   5.139   2.920
 2699TIP3    H2 8104   1.313   5.279   2.893
 2700TIP3   OH2 8105   1.763   3.497   1.545
 2700TIP3    H1 8106   1.762   3.407   1.510
 2700TIP3    H2 8107   1.674   3.510   1.580
 2701TIP3   OH2 8108   0.799   3.066   3.569
 2701TIP3    H1 8109   0.777   2.974   3.554
 2701TIP3    H2 8110   0.894   3.070   3.554
 2702TIP3   OH2 8111   0.049   3.454   0.288
 2702TIP3    H1 8112   0.028   3.505   0.366
 2702TIP3    H2 8113  -0.034   3.414   0.262
 2703TIP3   OH2 8114   3.762   1.068   2.893
 2703TIP3    H1 8115   3.697   1.133   2.867
 2703TIP3    H2 8116   3.826   1.117   2.945
 2704TIP3   OH2 8117   4.619   0.039   0.817
 2704TIP3    H1 8118   4.706   0.079   0.825
 2704TIP3    H2 8119   4.625  -0.016   0.739
 2705TIP3   OH2 8120   1.132   4.687   3.727
 2705TIP3    H1 8121   1.104   4.665   3.816
 2705TIP3    H2 8122   1.063   4.653   3.671
 2706TIP3   OH2 8123   2.846   1.365   0.252
 2706TIP3    H1 8124   2.920   1.320   0.209
 2706TIP3    H2 8125   2.862   1.458   0.236
 2707TIP3   OH2 8126   2.914   4.234   1.745
 2707TIP3    H1 8127   2.829   4.250   1.704
 2707TIP3    H2 8128   2.970   4.303   1.710
 2708TIP3   OH2 8129   3.294   3.408   2.428
 2708TIP3    H1 8130   3.272   3.318   2.453
 2708TIP3    H2 8131   3.360   3.397   2.360
 2709TIP3   OH2 8132   3.968   0.418   3.453
 2709TIP3    H1 8133   4.052   0.435   3.410
 2709TIP3    H2 8134   3.970   0.325   3.473
 2710TIP3   OH2 8135   5.281   3.288   3.975
 2710TIP3    H1 8136   5.203   3.233   3.987
 2710TIP3    H2 8137   5.246   3.377   3.967
 2711TIP3   OH2 8138   1.715   5.947   3.937
 2711TIP3    H1 8139   1.723   5.903   3.852
 2711TIP3    H2 8140   1.651   6.016   3.922
 2712TIP3   OH2 8141   2.570   3.411   4.430
 2712TIP3    H1 8142   2.484   3.440   4.401
 2712TIP3    H2 8143   2.616   3.385   4.350
 2713TIP3   OH2 8144   3.140   1.485   1.651
 2713TIP3    H1 8145   3.077   1.540   1.699
 2713TIP3    H2 8146   3.183   1.545   1.591
 2714TIP3   OH2 8147   1.479   3.336   2.809
 2714TIP3    H1 8148   1.548   3.276   2.835
 2714TIP3    H2 8149   1.398   3.285   2.817
 2715TIP3   OH2 8150   5.667   1.487   2.884
 2715TIP3    H1 8151   5.579   1.457   2.903
 2715TIP3    H2 8152   5.693   1.537   2.961
 2716TIP3   OH2 8153   5.134   5.511   2.859
 2716TIP3    H1 8154   5.072   5.442   2.836
 2716TIP3    H2 8155   5.110   5.536   2.949
 2717TIP3   OH2 8156   4.041   0.348   4.361
 2717TIP3    H1 8157   4.115   0.321   4.415
 2717TIP3    H2 8158   4.077   0.412   4.300
 2718TIP3   OH2 8159   0.112   3.892   1.272
 2718TIP3    H1 8160   0.067   3.960   1.321
 2718TIP3    H2 8161   0.181   3.938   1.224
 2719TIP3   OH2 8162   3.181   0.866   2.333
 2719TIP3    H1 8163   3.243   0.829   2.397
 2719TIP3    H2 8164   3.097   0.827   2.356
 2720TIP3   OH2 8165   4.786   2.482   3.502
 2720TIP3    H1 8166   4.832   2.552   3.455
 2720TIP3    H2 8167   4.695   2.512   3.504
 2721TIP3   OH2 8168   4.863   2.639   0.999
 2721TIP3    H1 8169   4.917   2.652   0.922
 2721TIP3    H2 8170   4.909   2.572   1.050
 2722TIP3   OH2 8171   5.448   1.337   3.436
 2722TIP3    H1 8172   5.506   1.411   3.453
 2722TIP3    H2 8173   5.502   1.276   3.385
 2723TIP3   OH2 8174   0.583   3.761   0.380
 2723TIP3    H1 8175   0.538   3.755   0.464
 2723TIP3    H2 8176   0.575   3.853   0.355
 2724TIP3   OH2 8177   4.874   2.514   4.236
 2724TIP3    H1 8178   4.802   2.465   4.276
 2724TIP3    H2 8179   4.894   2.465   4.156
 2725TIP3   OH2 8180   6.251   4.315   3.556
 2725TIP3    H1 8181   6.315   4.352   3.496
 2725TIP3    H2 8182   6.265   4.361   3.639
 2726TIP3   OH2 8183   3.859   2.242   2.306
 2726TIP3    H1 8184   3.870   2.288   2.222
 2726TIP3    H2 8185   3.824   2.309   2.365
 2727TIP3   OH2 8186   5.809   1.925   3.866
 2727TIP3    H1 8187   5.859   1.854   3.907
 2727TIP3    H2 8188   5.844   1.929   3.777
 2728TIP3   OH2 8189   4.452   5.442   1.936
 2728TIP3    H1 8190   4.502   5.433   2.017
 2728TIP3    H2 8191   4.437   5.536   1.926
 2729TIP3   OH2 8192   0.062   0.086   2.533
 2729TIP3    H1 8193   0.033   0.063   2.621
 2729TIP3    H2 8194  -0.005   0.146   2.500
 2730TIP3   OH2 8195   5.774   1.102   4.018
 2730TIP3    H1 8196   5.862   1.082   3.986
 2730TIP3    H2 8197   5.776   1.072   4.109
 2731TIP3   OH2 8198   6.367   3.124   2.032
 2731TIP3    H1 8199   6.386   3.166   1.948
 2731TIP3    H2 8200   6.335   3.037   2.008
 2732TIP3   OH2 8201   2.648   1.798   3.982
 2732TIP3    H1 8202   2.715   1.830   4.042
 2732TIP3    H2 8203   2.640   1.705   4.002
 2733TIP3   OH2 8204   5.246   1.177   2.075
 2733TIP3    H1 8205   5.298   1.097   2.067
 2733TIP3    H2 8206   5.159   1.152   2.044
 2734TIP3   OH2 8207   6.161   1.085   3.609
 2734TIP3    H1 8208   6.251   1.096   3.639
 2734TIP3    H2 8209   6.164   1.010   3.550
 2735TIP3   OH2 8210   5.785   2.150   2.747
 2735TIP3    H1 8211   5.801   2.055   2.749
 2735TIP3    H2 8212   5.741   2.164   2.663
 2736TIP3   OH2 8213   5.551   3.603   3.684
 2736TIP3    H1 8214   5.531   3.582   3.775
 2736TIP3    H2 8215   5.630   3.656   3.688
 2737TIP3   OH2 8216   5.160   3.618   0.434
 2737TIP3    H1 8217   5.205   3.558   0.493
 2737TIP3    H2 8218   5.139   3.566   0.357
 2738TIP3   OH2 8219   5.365   2.998   0.957
 2738TIP3    H1 8220   5.377   3.069   1.021
 2738TIP3    H2 8221   5.279   2.961   0.979
 2739TIP3   OH2 8222   3.917   3.670   0.922
 2739TIP3    H1 8223   3.959   3.621   0.851
 2739TIP3    H2 8224   3.897   3.755   0.883
 2740TIP3   OH2 8225   6.032   0.144   2.604
 2740TIP3    H1 8226   6.076   0.189   2.533
 2740TIP3    H2 8227   5.945   0.184   2.609
 2741TIP3   OH2 8228   3.837   4.202   0.194
 2741TIP3    H1 8229   3.914   4.155   0.162
 2741TIP3    H2 8230   3.763   4.149   0.167
 2742TIP3   OH2 8231   2.730   5.223   4.423
 2742TIP3    H1 8232   2.738   5.147   4.366
 2742TIP3    H2 8233   2.637   5.224   4.448
 2743TIP3   OH2 8234   0.871   0.256   4.778
 2743TIP3    H1 8235   0.926   0.281   4.704
 2743TIP3    H2 8236   0.918   0.183   4.819
 2744TIP3   OH2 8237   0.071   5.675   5.039
 2744TIP3    H1 8238   0.012   5.623   5.093
 2744TIP3    H2 8239   0.013   5.722   4.979
 2745TIP3   OH2 8240   5.093   1.489   0.862
 2745TIP3    H1 8241   5.001   1.470   0.844
 2745TIP3    H2 8242   5.134   1.493   0.775
 2746TIP3   OH2 8243   1.246   5.272   5.066
 2746TIP3    H1 8244   1.188   5.216   5.016
 2746TIP3    H2 8245   1.282   5.215   5.134
 2747TIP3   OH2 8246   4.263   4.078   0.325
 2747TIP3    H1 8247   4.314   4.048   0.251
 2747TIP3    H2 8248   4.282   4.172   0.331
 2748TIP3   OH2 8249   3.196   5.135   2.493
 2748TIP3    H1 8250   3.226   5.162   2.580
 2748TIP3    H2 8251   3.159   5.048   2.506
 2749TIP3   OH2 8252   6.204   0.577   3.359
 2749TIP3    H1 8253   6.275   0.514   3.354
 2749TIP3    H2 8254   6.175   0.588   3.268
 2750TIP3   OH2 8255   2.724   1.309   4.535
 2750TIP3    H1 8256   2.761   1.331   4.621
 2750TIP3    H2 8257   2.634   1.282   4.554
 2751TIP3   OH2 8258   0.230   4.030   0.247
 2751TIP3    H1 8259   0.160   4.095   0.238
 2751TIP3    H2 8260   0.241   3.995   0.158
 2752TIP3   OH2 8261   0.862   1.085   0.237
 2752TIP3    H1 8262   0.861   1.052   0.327
 2752TIP3    H2 8263   0.778   1.131   0.227
 2753TIP3   OH2 8264   2.204   3.154   3.340
 2753TIP3    H1 8265   2.264   3.168   3.413
 2753TIP3    H2 8266   2.117   3.169   3.377
 2754TIP3   OH2 8267   4.946   0.586   0.034
 2754TIP3    H1 8268   5.007   0.603   0.106
 2754TIP3    H2 8269   5.003   0.567  -0.041
 2755TIP3   OH2 8270   1.225   1.334   0.076
 2755TIP3    H1 8271   1.284   1.408   0.060
 2755TIP3    H2 8272   1.284   1.260   0.092
 2756TIP3   OH2 8273   1.179   3.636   4.919
 2756TIP3    H1 8274   1.224   3.563   4.962
 2756TIP3    H2 8275   1.231   3.653   4.840
 2757TIP3   OH2 8276   0.112   5.470   1.514
 2757TIP3    H1 8277   0.042   5.473   1.449
 2757TIP3    H2 8278   0.189   5.442   1.464
 2758TIP3   OH2 8279   3.923   0.919   2.637
 2758TIP3    H1 8280   3.943   0.965   2.555
 2758TIP3    H2 8281   4.008   0.911   2.680
 2759TIP3   OH2 8282   2.189   5.489   5.145
 2759TIP3    H1 8283   2.131   5.565   5.136
 2759TIP3    H2 8284   2.133   5.414   5.122
 2760TIP3   OH2 8285   6.097   4.540   4.972
 2760TIP3    H1 8286   6.026   4.479   4.993
 2760TIP3    H2 8287   6.168   4.516   5.033
 2761TIP3   OH2 8288   4.503   4.854   2.944
 2761TIP3    H1 8289   4.466   4.918   3.005
 2761TIP3    H2 8290   4.427   4.813   2.903
 2762TIP3   OH2 8291   5.737   2.315   2.214
 2762TIP3    H1 8292   5.690   2.232   2.204
 2762TIP3    H2 8293   5.794   2.300   2.289
 2763TIP3   OH2 8294   2.860   0.229   5.101
 2763TIP3    H1 8295   2.855   0.155   5.161
 2763TIP3    H2 8296   2.784   0.219   5.043
 2764TIP3   OH2 8297   3.089   0.020   2.328
 2764TIP3    H1 8298   3.060   0.111   2.326
 2764TIP3    H2 8299   3.019  -0.026   2.374
 2765TIP3   OH2 8300   5.303   2.085   0.626
 2765TIP3    H1 8301   5.298   2.053   0.716
 2765TIP3    H2 8302   5.396   2.077   0.603
 2766TIP3   OH2 8303   2.245   2.842   2.340
 2766TIP3    H1 8304   2.222   2.854   2.248
 2766TIP3    H2 8305   2.167   2.802   2.380
 2767TIP3   OH2 8306   3.329   1.048   1.608
 2767TIP3    H1 8307   3.411   0.999   1.612
 2767TIP3    H2 8308   3.280   1.020   1.686
 2768TIP3   OH2 8309   2.148   2.505   0.951
 2768TIP3    H1 8310   2.239   2.518   0.978
 2768TIP3    H2 8311   2.101   2.577   0.993
 2769TIP3   OH2 8312   6.122   1.954   3.147
 2769TIP3    H1 8313   6.128   2.038   3.101
 2769TIP3    H2 8314   6.135   1.888   3.078
 2770TIP3   OH2 8315   0.883   4.672   3.580
 2770TIP3    H1 8316   0.895   4.730   3.505
 2770TIP3    H2 8317   0.799   4.629   3.564
 2771TIP3   OH2 8318   4.293   1.952   1.362
 2771TIP3    H1 8319   4.343   2.019   1.409
 2771TIP3    H2 8320   4.313   1.967   1.270
 2772TIP3   OH2 8321   2.956   2.328   5.099
 2772TIP3    H1 8322   2.965   2.333   5.195
 2772TIP3    H2 8323   2.971   2.236   5.079
 2773TIP3   OH2 8324   5.439   0.905   4.178
 2773TIP3    H1 8325   5.496   0.927   4.252
 2773TIP3    H2 8326   5.465   0.817   4.153
 2774TIP3   OH2 8327   5.045   3.564   0.817
 2774TIP3    H1 8328   5.048   3.610   0.733
 2774TIP3    H2 8329   4.959   3.521   0.817
 2775TIP3   OH2 8330   5.909   2.245   0.380
 2775TIP3    H1 8331   6.000   2.275   0.387
 2775TIP3    H2 8332   5.889   2.250   0.287
 2776TIP3   OH2 8333   2.511   0.078   4.515
 2776TIP3    H1 8334   2.436   0.088   4.572
 2776TIP3    H2 8335   2.499   0.145   4.448
 2777TIP3   OH2 8336   6.062   2.133   0.709
 2777TIP3    H1 8337   6.128   2.197   0.735
 2777TIP3    H2 8338   6.090   2.052   0.750
 2778TIP3   OH2 8339   0.685   1.190   4.578
 2778TIP3    H1 8340   0.758   1.190   4.640
 2778TIP3    H2 8341   0.638   1.272   4.596
 2779TIP3   OH2 8342   4.745   1.266   4.923
 2779TIP3    H1 8343   4.715   1.342   4.873
 2779TIP3    H2 8344   4.798   1.302   4.994
 2780TIP3   OH2 8345   1.627   0.416   4.880
 2780TIP3    H1 8346   1.715   0.383   4.895
 2780TIP3    H2 8347   1.635   0.475   4.805
 2781TIP3   OH2 8348   4.445   1.634   0.033
 2781TIP3    H1 8349   4.515   1.573   0.011
 2781TIP3    H2 8350   4.484   1.693   0.097
 2782TIP3   OH2 8351   2.149   4.211   3.353
 2782TIP3    H1 8352   2.224   4.270   3.362
 2782TIP3    H2 8353   2.103   4.244   3.276
 2783TIP3   OH2 8354   3.774   0.403   4.314
 2783TIP3    H1 8355   3.866   0.386   4.335
 2783TIP3    H2 8356   3.747   0.472   4.375
 2784TIP3   OH2 8357   1.431   1.194   4.296
 2784TIP3    H1 8358   1.520   1.171   4.321
 2784TIP3    H2 8359   1.389   1.111   4.277
 2785TIP3   OH2 8360   3.810   0.566   3.989
 2785TIP3    H1 8361   3.893   0.583   4.033
 2785TIP3    H2 8362   3.825   0.596   3.899
 2786TIP3   OH2 8363   3.522   5.179   1.017
 2786TIP3    H1 8364   3.549   5.228   1.095
 2786TIP3    H2 8365   3.444   5.130   1.045
 2787TIP3   OH2 8366   5.809   3.486   1.393
 2787TIP3    H1 8367   5.760   3.432   1.456
 2787TIP3    H2 8368   5.860   3.424   1.342
 2788TIP3   OH2 8369   5.505   4.389   4.031
 2788TIP3    H1 8370   5.577   4.351   3.981
 2788TIP3    H2 8371   5.497   4.333   4.108
 2789TIP3   OH2 8372   6.203   2.559   1.735
 2789TIP3    H1 8373   6.267   2.617   1.775
 2789TIP3    H2 8374   6.181   2.601   1.652
 2790TIP3   OH2 8375   2.002   1.159   1.839
 2790TIP3    H1 8376   2.059   1.146   1.763
 2790TIP3    H2 8377   1.923   1.200   1.804
 2791TIP3   OH2 8378   5.701   3.995   0.152
 2791TIP3    H1 8379   5.661   3.942   0.221
 2791TIP3    H2 8380   5.682   4.085   0.177
 2792TIP3   OH2 8381   3.806   1.014   3.555
 2792TIP3    H1 8382   3.827   1.020   3.648
 2792TIP3    H2 8383   3.831   0.925   3.531
 2793TIP3   OH2 8384   4.229   3.750   1.555
 2793TIP3    H1 8385   4.300   3.713   1.504
 2793TIP3    H2 8386   4.194   3.676   1.605
 2794TIP3   OH2 8387   3.703   3.798   4.708
 2794TIP3    H1 8388   3.715   3.742   4.785
 2794TIP3    H2 8389   3.777   3.860   4.712
 2795TIP3   OH2 8390   0.797   2.771   3.604
 2795TIP3    H1 8391   0.773   2.682   3.578
 2795TIP3    H2 8392   0.847   2.759   3.685
 2796TIP3   OH2 8393   3.502   4.976   3.665
 2796TIP3    H1 8394   3.555   4.909   3.708
 2796TIP3    H2 8395   3.561   5.051   3.658
 2797TIP3   OH2 8396   4.630   0.490   1.194
 2797TIP3    H1 8397   4.631   0.423   1.126
 2797TIP3    H2 8398   4.539   0.493   1.224
 2798TIP3   OH2 8399   6.211   5.965   3.766
 2798TIP3    H1 8400   6.137   6.021   3.747
 2798TIP3    H2 8401   6.204   5.946   3.860
 2799TIP3   OH2 8402   4.457   4.122   4.612
 2799TIP3    H1 8403   4.522   4.151   4.548
 2799TIP3    H2 8404   4.477   4.029   4.626
 2800TIP3   OH2 8405   2.590   4.199   4.484
 2800TIP3    H1 8406   2.596   4.148   4.403
 2800TIP3    H2 8407   2.579   4.133   4.553
 2801TIP3   OH2 8408   4.195   2.382   3.217
 2801TIP3    H1 8409   4.248   2.413   3.143
 2801TIP3    H2 8410   4.259   2.346   3.279
 2802TIP3   OH2 8411   3.515   2.822   3.387
 2802TIP3    H1 8412   3.483   2.885   3.452
 2802TIP3    H2 8413   3.519   2.739   3.434
 2803TIP3   OH2 8414   3.606   0.862   2.956
 2803TIP3    H1 8415   3.683   0.919   2.963
 2803TIP3    H2 8416   3.603   0.816   3.041
 2804TIP3   OH2 8417   5.255   3.451   5.012
 2804TIP3    H1 8418   5.322   3.460   4.944
 2804TIP3    H2 8419   5.269   3.363   5.049
 2805TIP3   OH2 8420   4.810   4.168   0.800
 2805TIP3    H1 8421   4.787   4.119   0.721
 2805TIP3    H2 8422   4.821   4.258   0.769
 2806TIP3   OH2 8423   5.309   4.175   0.251
 2806TIP3    H1 8424   5.378   4.147   0.192
 2806TIP3    H2 8425   5.339   4.259   0.286
 2807TIP3   OH2 8426   0.254   4.981   3.502
 2807TIP3    H1 8427   0.230   4.903   3.552
 2807TIP3    H2 8428   0.321   4.951   3.441
 2808TIP3   OH2 8429   0.822   2.444   4.273
 2808TIP3    H1 8430   0.826   2.406   4.361
 2808TIP3    H2 8431   0.788   2.374   4.218
 2809TIP3   OH2 8432   1.095   3.792   3.151
 2809TIP3    H1 8433   1.164   3.858   3.150
 2809TIP3    H2 8434   1.095   3.755   3.063
 2810TIP3   OH2 8435   6.256   2.150   2.458
 2810TIP3    H1 8436   6.326   2.104   2.412
 2810TIP3    H2 8437   6.293   2.235   2.481
 2811TIP3   OH2 8438   2.374   5.678   3.803
 2811TIP3    H1 8439   2.376   5.745   3.735
 2811TIP3    H2 8440   2.281   5.660   3.816
 2812TIP3   OH2 8441   5.110   0.152   2.220
 2812TIP3    H1 8442   5.132   0.211   2.149
 2812TIP3    H2 8443   5.190   0.100   2.233
 2813TIP3   OH2 8444   1.435   3.097   3.629
 2813TIP3    H1 8445   1.393   3.022   3.669
 2813TIP3    H2 8446   1.517   3.107   3.678
 2814TIP3   OH2 8447   0.244   4.452   1.767
 2814TIP3    H1 8448   0.199   4.536   1.774
 2814TIP3    H2 8449   0.277   4.435   1.855
 2815TIP3   OH2 8450   5.172   1.469   0.353
 2815TIP3    H1 8451   5.256   1.429   0.376
 2815TIP3    H2 8452   5.175   1.555   0.394
 2816TIP3   OH2 8453   3.972   4.453   3.190
 2816TIP3    H1 8454   3.945   4.504   3.267
 2816TIP3    H2 8455   4.067   4.459   3.189
 2817TIP3   OH2 8456   5.396   5.015   4.009
 2817TIP3    H1 8457   5.450   4.948   4.050
 2817TIP3    H2 8458   5.458   5.076   3.968
 2818TIP3   OH2 8459   0.743   5.753   1.027
 2818TIP3    H1 8460   0.659   5.784   1.061
 2818TIP3    H2 8461   0.777   5.695   1.096
 2819TIP3   OH2 8462   3.109   0.634   0.186
 2819TIP3    H1 8463   3.064   0.597   0.110
 2819TIP3    H2 8464   3.166   0.564   0.218
 2820TIP3   OH2 8465   3.039   4.722   1.652
 2820TIP3    H1 8466   2.955   4.768   1.645
 2820TIP3    H2 8467   3.097   4.785   1.697
 2821TIP3   OH2 8468   0.696   4.107   0.591
 2821TIP3    H1 8469   0.743   4.106   0.508
 2821TIP3    H2 8470   0.604   4.099   0.567
 2822TIP3   OH2 8471   0.605   4.385   2.155
 2822TIP3    H1 8472   0.618   4.393   2.060
 2822TIP3    H2 8473   0.675   4.437   2.193
 2823TIP3   OH2 8474   5.272   3.138   5.021
 2823TIP3    H1 8475   5.246   3.068   4.962
 2823TIP3    H2 8476   5.367   3.141   5.015
 2824TIP3   OH2 8477   3.569   3.934   1.287
 2824TIP3    H1 8478   3.570   3.844   1.255
 2824TIP3    H2 8479   3.623   3.982   1.224
 2825TIP3   OH2 8480   2.689   2.183   1.557
 2825TIP3    H1 8481   2.688   2.154   1.648
 2825TIP3    H2 8482   2.605   2.151   1.521
 2826TIP3   OH2 8483   1.558   2.264   3.490
 2826TIP3    H1 8484   1.589   2.177   3.518
 2826TIP3    H2 8485   1.551   2.257   3.395
 2827TIP3   OH2 8486   0.022   3.440   3.972
 2827TIP3    H1 8487   0.095   3.393   4.015
 2827TIP3    H2 8488  -0.013   3.377   3.909
 2828TIP3   OH2 8489   3.462   2.538   3.514
 2828TIP3    H1 8490   3.535   2.477   3.518
 2828TIP3    H2 8491   3.454   2.571   3.604
 2829TIP3   OH2 8492  -0.008   0.451   1.105
 2829TIP3    H1 8493   0.061   0.426   1.166
 2829TIP3    H2 8494   0.015   0.540   1.077
 2830TIP3   OH2 8495   6.093   5.633   2.379
 2830TIP3    H1 8496   6.001   5.610   2.371
 2830TIP3    H2 8497   6.093   5.726   2.403
 2831TIP3   OH2 8498   5.822   3.263   1.824
 2831TIP3    H1 8499   5.752   3.305   1.873
 2831TIP3    H2 8500   5.901   3.310   1.850
 2832TIP3   OH2 8501   2.009   1.232   2.679
 2832TIP3    H1 8502   2.069   1.167   2.641
 2832TIP3    H2 8503   2.062   1.278   2.744
 2833TIP3   OH2 8504   2.924   4.759   5.047
 2833TIP3    H1 8505   2.945   4.729   5.136
 2833TIP3    H2 8506   2.835   4.791   5.052
 2834TIP3   OH2 8507   2.783   1.794   1.514
 2834TIP3    H1 8508   2.836   1.837   1.582
 2834TIP3    H2 8509   2.846   1.771   1.446
 2835TIP3   OH2 8510   5.716   3.267   2.288
 2835TIP3    H1 8511   5.721   3.186   2.238
 2835TIP3    H2 8512   5.716   3.337   2.222
 2836TIP3   OH2 8513   4.919   5.230   3.742
 2836TIP3    H1 8514   4.926   5.298   3.676
 2836TIP3    H2 8515   4.877   5.273   3.817
 2837TIP3   OH2 8516   4.082   3.450   4.224
 2837TIP3    H1 8517   4.078   3.359   4.251
 2837TIP3    H2 8518   4.128   3.495   4.295
 2838TIP3   OH2 8519   4.964   4.513   3.441
 2838TIP3    H1 8520   4.964   4.423   3.407
 2838TIP3    H2 8521   5.035   4.515   3.504
 2839TIP3   OH2 8522   5.885   0.919   1.337
 2839TIP3    H1 8523   5.835   0.869   1.271
 2839TIP3    H2 8524   5.851   1.008   1.329
 2840TIP3   OH2 8525   4.491   1.687   4.004
 2840TIP3    H1 8526   4.520   1.668   3.914
 2840TIP3    H2 8527   4.468   1.601   4.040
 2841TIP3   OH2 8528   2.332   2.965   0.253
 2841TIP3    H1 8529   2.315   3.022   0.328
 2841TIP3    H2 8530   2.266   2.989   0.189
 2842TIP3   OH2 8531   5.064   5.065   3.557
 2842TIP3    H1 8532   5.043   5.124   3.629
 2842TIP3    H2 8533   5.028   4.981   3.585
 2843TIP3   OH2 8534   4.871   4.801   4.228
 2843TIP3    H1 8535   4.848   4.845   4.146
 2843TIP3    H2 8536   4.958   4.836   4.250
 2844TIP3   OH2 8537   4.989   5.254   2.915
 2844TIP3    H1 8538   4.928   5.185   2.893
 2844TIP3    H2 8539   5.071   5.209   2.934
 2845TIP3   OH2 8540   4.547   0.775   1.849
 2845TIP3    H1 8541   4.486   0.717   1.804
 2845TIP3    H2 8542   4.632   0.733   1.840
 2846TIP3   OH2 8543   4.022   0.137   3.513
 2846TIP3    H1 8544   3.939   0.102   3.544
 2846TIP3    H2 8545   4.040   0.089   3.433
 2847TIP3   OH2 8546   1.922   2.253   2.820
 2847TIP3    H1 8547   1.934   2.233   2.727
 2847TIP3    H2 8548   1.828   2.244   2.834
 2848TIP3   OH2 8549   3.479   0.594   3.520
 2848TIP3    H1 8550   3.495   0.651   3.595
 2848TIP3    H2 8551   3.564   0.586   3.478
 2849TIP3   OH2 8552  -0.016   1.380   3.587
 2849TIP3    H1 8553   0.065   1.422   3.557
 2849TIP3    H2 8554   0.013   1.312   3.647
 2850TIP3   OH2 8555   3.626   2.284   4.179
 2850TIP3    H1 8556   3.560   2.302   4.113
 2850TIP3    H2 8557   3.579   2.289   4.262
 2851TIP3   OH2 8558   0.593   0.558   5.122
 2851TIP3    H1 8559   0.585   0.480   5.067
 2851TIP3    H2 8560   0.634   0.527   5.203
 2852TIP3   OH2 8561   6.281   2.531   2.607
 2852TIP3    H1 8562   6.319   2.487   2.531
 2852TIP3    H2 8563   6.302   2.474   2.681
 2853TIP3   OH2 8564   0.855   5.325   0.629
 2853TIP3    H1 8565   0.928   5.386   0.619
 2853TIP3    H2 8566   0.784   5.379   0.663
 2854TIP3   OH2 8567   2.324   5.009   4.841
 2854TIP3    H1 8568   2.243   5.046   4.874
 2854TIP3    H2 8569   2.296   4.943   4.777
 2855TIP3   OH2 8570   5.278   2.382   3.091
 2855TIP3    H1 8571   5.342   2.404   3.024
 2855TIP3    H2 8572   5.330   2.367   3.170
 2856TIP3   OH2 8573   2.108   2.718   0.301
 2856TIP3    H1 8574   2.048   2.644   0.291
 2856TIP3    H2 8575   2.094   2.748   0.391
 2857TIP3   OH2 8576   5.628   1.522   3.485
 2857TIP3    H1 8577   5.635   1.602   3.537
 2857TIP3    H2 8578   5.691   1.535   3.414
 2858TIP3   OH2 8579   2.898   2.855   4.437
 2858TIP3    H1 8580   2.853   2.936   4.411
 2858TIP3    H2 8581   2.849   2.785   4.393
 2859TIP3   OH2 8582   5.955   5.250   3.965
 2859TIP3    H1 8583   5.958   5.189   3.890
 2859TIP3    H2 8584   5.887   5.313   3.942
 2860TIP3   OH2 8585   4.733   2.969   4.156
 2860TIP3    H1 8586   4.772   2.920   4.084
 2860TIP3    H2 8587   4.801   2.973   4.223
 2861TIP3   OH2 8588   3.414   3.459   1.248
 2861TIP3    H1 8589   3.331   3.460   1.297
 2861TIP3    H2 8590   3.388   3.439   1.158
 2862TIP3   OH2 8591   5.242   5.302   0.181
 2862TIP3    H1 8592   5.321   5.356   0.184
 2862TIP3    H2 8593   5.170   5.364   0.189
 2863TIP3   OH2 8594   4.320   3.814   0.889
 2863TIP3    H1 8595   4.352   3.736   0.936
 2863TIP3    H2 8596   4.239   3.837   0.934
 2864TIP3   OH2 8597   4.336   4.340   4.707
 2864TIP3    H1 8598   4.407   4.282   4.679
 2864TIP3    H2 8599   4.350   4.351   4.801
 2865TIP3   OH2 8600   3.466   4.248   3.534
 2865TIP3    H1 8601   3.446   4.158   3.506
 2865TIP3    H2 8602   3.382   4.293   3.533
 2866TIP3   OH2 8603   2.752   1.300   5.119
 2866TIP3    H1 8604   2.692   1.262   5.055
 2866TIP3    H2 8605   2.726   1.392   5.125
 2867TIP3   OH2 8606   5.859   3.699   4.959
 2867TIP3    H1 8607   5.829   3.609   4.948
 2867TIP3    H2 8608   5.803   3.750   4.900
 2868TIP3   OH2 8609   5.361   1.504   2.427
 2868TIP3    H1 8610   5.428   1.518   2.494
 2868TIP3    H2 8611   5.299   1.443   2.467
 2869TIP3   OH2 8612   5.427   3.992   4.233
 2869TIP3    H1 8613   5.479   3.963   4.158
 2869TIP3    H2 8614   5.392   4.077   4.207
 2870TIP3   OH2 8615   5.589   5.314   1.493
 2870TIP3    H1 8616   5.550   5.243   1.544
 2870TIP3    H2 8617   5.523   5.383   1.492
 2871TIP3   OH2 8618   4.160   1.832   0.584
 2871TIP3    H1 8619   4.196   1.865   0.502
 2871TIP3    H2 8620   4.227   1.853   0.650
 2872TIP3   OH2 8621   4.799   4.020   3.429
 2872TIP3    H1 8622   4.726   4.055   3.480
 2872TIP3    H2 8623   4.835   4.096   3.383
 2873TIP3   OH2 8624   1.643   4.514   4.282
 2873TIP3    H1 8625   1.651   4.423   4.253
 2873TIP3    H2 8626   1.592   4.557   4.213
 2874TIP3   OH2 8627   3.349   1.191   1.105
 2874TIP3    H1 8628   3.262   1.203   1.066
 2874TIP3    H2 8629   3.363   1.096   1.102
 2875TIP3   OH2 8630   1.283   3.157   3.369
 2875TIP3    H1 8631   1.353   3.155   3.435
 2875TIP3    H2 8632   1.328   3.142   3.286
 2876TIP3   OH2 8633   3.362   1.276   0.634
 2876TIP3    H1 8634   3.280   1.289   0.682
 2876TIP3    H2 8635   3.426   1.330   0.681
 2877TIP3   OH2 8636   5.104   2.852   4.579
 2877TIP3    H1 8637   5.143   2.812   4.502
 2877TIP3    H2 8638   5.169   2.839   4.648
 2878TIP3   OH2 8639   6.251   0.895   2.313
 2878TIP3    H1 8640   6.253   0.811   2.266
 2878TIP3    H2 8641   6.180   0.885   2.377
 2879TIP3   OH2 8642   1.124   1.668   0.513
 2879TIP3    H1 8643   1.200   1.624   0.551
 2879TIP3    H2 8644   1.128   1.646   0.420
 2880TIP3   OH2 8645   0.699   5.750   3.939
 2880TIP3    H1 8646   0.792   5.736   3.922
 2880TIP3    H2 8647   0.693   5.841   3.965
 2881TIP3   OH2 8648   1.041   1.533   4.284
 2881TIP3    H1 8649   1.054   1.508   4.375
 2881TIP3    H2 8650   1.082   1.619   4.275
 2882TIP3   OH2 8651   2.555   5.530   2.582
 2882TIP3    H1 8652   2.502   5.453   2.603
 2882TIP3    H2 8653   2.638   5.515   2.628
 2883TIP3   OH2 8654   3.968   2.920   1.839
 2883TIP3    H1 8655   3.886   2.964   1.860
 2883TIP3    H2 8656   3.950   2.827   1.854
 2884TIP3   OH2 8657   2.263   3.825   3.900
 2884TIP3    H1 8658   2.182   3.821   3.951
 2884TIP3    H2 8659   2.268   3.915   3.870
 2885TIP3   OH2 8660   5.815   5.512   4.275
 2885TIP3    H1 8661   5.885   5.525   4.211
 2885TIP3    H2 8662   5.804   5.417   4.280
 2886TIP3   OH2 8663   5.586   1.921   2.984
 2886TIP3    H1 8664   5.565   1.907   2.891
 2886TIP3    H2 8665   5.500   1.928   3.027
 2887TIP3   OH2 8666   1.488   2.632   0.457
 2887TIP3    H1 8667   1.568   2.684   0.457
 2887TIP3    H2 8668   1.452   2.643   0.369
 2888TIP3   OH2 8669   1.451   5.807   1.060
 2888TIP3    H1 8670   1.413   5.868   0.997
 2888TIP3    H2 8671   1.514   5.755   1.009
 2889TIP3   OH2 8672   4.370   0.111   0.596
 2889TIP3    H1 8673   4.404   0.185   0.646
 2889TIP3    H2 8674   4.448   0.071   0.557
 2890TIP3   OH2 8675   3.266   5.030   1.078
 2890TIP3    H1 8676   3.204   5.081   1.130
 2890TIP3    H2 8677   3.225   4.943   1.070
 2891TIP3   OH2 8678   5.464   1.515   3.204
 2891TIP3    H1 8679   5.443   1.461   3.280
 2891TIP3    H2 8680   5.386   1.568   3.189
 2892TIP3   OH2 8681   4.578   3.653   2.167
 2892TIP3    H1 8682   4.489   3.624   2.146
 2892TIP3    H2 8683   4.565   3.731   2.221
 2893TIP3   OH2 8684   4.832   4.311   2.039
 2893TIP3    H1 8685   4.795   4.291   1.953
 2893TIP3    H2 8686   4.756   4.320   2.097
 2894TIP3   OH2 8687   6.127   5.214   1.887
 2894TIP3    H1 8688   6.215   5.231   1.920
 2894TIP3    H2 8689   6.141   5.152   1.815
 2895TIP3   OH2 8690   5.200   0.689   2.205
 2895TIP3    H1 8691   5.193   0.722   2.295
 2895TIP3    H2 8692   5.110   0.671   2.179
 2896TIP3   OH2 8693   4.337   2.697   3.311
 2896TIP3    H1 8694   4.312   2.717   3.221
 2896TIP3    H2 8695   4.322   2.779   3.359
 2897TIP3   OH2 8696   5.609   0.443   2.729
 2897TIP3    H1 8697   5.649   0.524   2.696
 2897TIP3    H2 8698   5.520   0.443   2.693
 2898TIP3   OH2 8699   4.049   5.918   1.242
 2898TIP3    H1 8700   3.962   5.954   1.227
 2898TIP3    H2 8701   4.041   5.868   1.323
 2899TIP3   OH2 8702   0.748   5.886   4.702
 2899TIP3    H1 8703   0.771   5.968   4.745
 2899TIP3    H2 8704   0.654   5.878   4.716
 2900TIP3   OH2 8705   1.392   5.142   3.727
 2900TIP3    H1 8706   1.314   5.087   3.731
 2900TIP3    H2 8707   1.373   5.206   3.659
 2901TIP3   OH2 8708   2.298   3.500   2.294
 2901TIP3    H1 8709   2.281   3.492   2.200
 2901TIP3    H2 8710   2.394   3.499   2.301
 2902TIP3   OH2 8711   0.300   2.698   1.566
 2902TIP3    H1 8712   0.221   2.660   1.528
 2902TIP3    H2 8713   0.278   2.790   1.583
 2903TIP3   OH2 8714   0.342   5.288   2.779
 2903TIP3    H1 8715   0.260   5.253   2.743
 2903TIP3    H2 8716   0.355   5.239   2.860
 2904TIP3   OH2 8717   4.990   2.058   2.037
 2904TIP3    H1 8718   5.059   2.048   2.103
 2904TIP3    H2 8719   5.031   2.032   1.955
 2905TIP3   OH2 8720   1.997   3.119   2.452
 2905TIP3    H1 8721   2.074   3.175   2.452
 2905TIP3    H2 8722   2.022   3.043   2.505
 2906TIP3   OH2 8723   6.082   2.723   2.691
 2906TIP3    H1 8724   6.132   2.649   2.656
 2906TIP3    H2 8725   6.102   2.723   2.785
 2907TIP3   OH2 8726   5.382   2.576   1.525
 2907TIP3    H1 8727   5.302   2.626   1.542
 2907TIP3    H2 8728   5.374   2.500   1.583
 2908TIP3   OH2 8729   1.831   1.607   1.539
 2908TIP3    H1 8730   1.743   1.640   1.520
 2908TIP3    H2 8731   1.826   1.575   1.629
 2909TIP3   OH2 8732   3.050   1.091   0.560
 2909TIP3    H1 8733   3.018   1.041   0.635
 2909TIP3    H2 8734   3.141   1.111   0.582
 2910TIP3   OH2 8735   4.660   4.854   1.168
 2910TIP3    H1 8736   4.626   4.902   1.092
 2910TIP3    H2 8737   4.716   4.786   1.130
 2911TIP3   OH2 8738   5.134   2.417   1.826
 2911TIP3    H1 8739   5.137   2.409   1.731
 2911TIP3    H2 8740   5.040   2.415   1.847
 2912TIP3   OH2 8741   1.005   4.058   3.898
 2912TIP3    H1 8742   0.998   4.078   3.804
 2912TIP3    H2 8743   0.914   4.047   3.927
 2913TIP3   OH2 8744   0.726   1.896   0.475
 2913TIP3    H1 8745   0.819   1.881   0.485
 2913TIP3    H2 8746   0.694   1.820   0.427
 2914TIP3   OH2 8747   2.371   1.564   0.383
 2914TIP3    H1 8748   2.416   1.498   0.435
 2914TIP3    H2 8749   2.299   1.594   0.438
 2915TIP3   OH2 8750   0.769   5.743   3.169
 2915TIP3    H1 8751   0.833   5.789   3.224
 2915TIP3    H2 8752   0.781   5.781   3.082
 2916TIP3   OH2 8753   0.249   0.296   2.321
 2916TIP3    H1 8754   0.212   0.380   2.294
 2916TIP3    H2 8755   0.220   0.285   2.411
 2917TIP3   OH2 8756   2.793   2.799   2.174
 2917TIP3    H1 8757   2.768   2.706   2.174
 2917TIP3    H2 8758   2.886   2.799   2.197
 2918TIP3   OH2 8759   5.132   4.836   0.583
 2918TIP3    H1 8760   5.212   4.840   0.530
 2918TIP3    H2 8761   5.061   4.834   0.519
 2919TIP3   OH2 8762   4.031   3.198   2.647
 2919TIP3    H1 8763   3.962   3.223   2.585
 2919TIP3    H2 8764   4.083   3.278   2.656
 2920TIP3   OH2 8765   4.655   5.557   5.148
 2920TIP3    H1 8766   4.581   5.497   5.136
 2920TIP3    H2 8767   4.652   5.580   5.241
 2921TIP3   OH2 8768   1.212   3.913   0.410
 2921TIP3    H1 8769   1.256   3.871   0.484
 2921TIP3    H2 8770   1.119   3.896   0.426
 2922TIP3   OH2 8771   2.630   4.390   2.518
 2922TIP3    H1 8772   2.677   4.309   2.499
 2922TIP3    H2 8773   2.685   4.459   2.481
 2923TIP3   OH2 8774   1.191   4.879   2.133
 2923TIP3    H1 8775   1.225   4.948   2.075
 2923TIP3    H2 8776   1.210   4.798   2.086
 2924TIP3   OH2 8777   5.952   4.197   2.965
 2924TIP3    H1 8778   5.901   4.211   3.045
 2924TIP3    H2 8779   5.931   4.273   2.910
 2925TIP3   OH2 8780   1.031   0.688   0.219
 2925TIP3    H1 8781   1.081   0.691   0.138
 2925TIP3    H2 8782   1.037   0.776   0.255
 2926TIP3   OH2 8783   2.275   5.900   1.974
 2926TIP3    H1 8784   2.257   5.810   2.000
 2926TIP3    H2 8785   2.369   5.901   1.954
 2927TIP3   OH2 8786   0.668   2.182   1.584
 2927TIP3    H1 8787   0.761   2.174   1.565
 2927TIP3    H2 8788   0.629   2.102   1.548
 2928TIP3   OH2 8789   1.339   5.013   1.419
 2928TIP3    H1 8790   1.287   5.086   1.453
 2928TIP3    H2 8791   1.377   4.973   1.497
 2929TIP3   OH2 8792   4.753   5.903   4.631
 2929TIP3    H1 8793   4.675   5.918   4.578
 2929TIP3    H2 8794   4.743   5.814   4.665
 2930TIP3   OH2 8795   3.636   6.015   1.781
 2930TIP3    H1 8796   3.648   6.069   1.703
 2930TIP3    H2 8797   3.723   6.011   1.821
 2931TIP3   OH2 8798   6.199   2.339   4.952
 2931TIP3    H1 8799   6.235   2.291   4.878
 2931TIP3    H2 8800   6.190   2.274   5.021
 2932TIP3   OH2 8801   4.433   5.717   0.940
 2932TIP3    H1 8802   4.461   5.702   1.030
 2932TIP3    H2 8803   4.337   5.714   0.944
 2933TIP3   OH2 8804   1.665   2.044   4.658
 2933TIP3    H1 8805   1.650   2.001   4.574
 2933TIP3    H2 8806   1.755   2.021   4.682
 2934TIP3   OH2 8807   1.629   1.606   1.831
 2934TIP3    H1 8808   1.651   1.697   1.847
 2934TIP3    H2 8809   1.713   1.560   1.834
 2935TIP3   OH2 8810   6.039   2.896   1.053
 2935TIP3    H1 8811   6.058   2.855   0.969
 2935TIP3    H2 8812   5.951   2.933   1.044
 2936TIP3   OH2 8813   5.796   4.584   1.483
 2936TIP3    H1 8814   5.778   4.606   1.392
 2936TIP3    H2 8815   5.832   4.664   1.520
 2937TIP3   OH2 8816   5.690   3.886   4.808
 2937TIP3    H1 8817   5.626   3.924   4.749
 2937TIP3    H2 8818   5.663   3.915   4.895
 2938TIP3   OH2 8819   2.954   5.919   3.716
 2938TIP3    H1 8820   3.005   5.853   3.670
 2938TIP3    H2 8821   3.004   6.000   3.706
 2939TIP3   OH2 8822   2.773   1.478   4.336
 2939TIP3    H1 8823   2.748   1.425   4.412
 2939TIP3    H2 8824   2.766   1.568   4.367
 2940TIP3   OH2 8825   0.917   1.432   1.392
 2940TIP3    H1 8826   0.952   1.475   1.314
 2940TIP3    H2 8827   0.969   1.467   1.464
 2941TIP3   OH2 8828   2.968   2.049   2.237
 2941TIP3    H1 8829   2.943   2.060   2.329
 2941TIP3    H2 8830   2.906   1.987   2.201
 2942TIP3   OH2 8831   2.407   0.011   2.740
 2942TIP3    H1 8832   2.328  -0.042   2.754
 2942TIP3    H2 8833   2.376   0.101   2.740
 2943TIP3   OH2 8834   1.049   3.014   3.466
 2943TIP3    H1 8835   1.107   3.055   3.401
 2943TIP3    H2 8836   1.058   2.920   3.450
 2944TIP3   OH2 8837   3.660   3.603   1.523
 2944TIP3    H1 8838   3.584   3.570   1.571
 2944TIP3    H2 8839   3.735   3.584   1.580
 2945TIP3   OH2 8840   5.972   0.342   4.325
 2945TIP3    H1 8841   5.935   0.361   4.239
 2945TIP3    H2 8842   6.036   0.411   4.340
 2946TIP3   OH2 8843   4.470   3.328   0.891
 2946TIP3    H1 8844   4.454   3.402   0.951
 2946TIP3    H2 8845   4.407   3.261   0.918
 2947TIP3   OH2 8846   4.160   4.008   2.626
 2947TIP3    H1 8847   4.245   3.964   2.629
 2947TIP3    H2 8848   4.182   4.101   2.616
 2948TIP3   OH2 8849   2.368   3.890   1.506
 2948TIP3    H1 8850   2.307   3.963   1.492
 2948TIP3    H2 8851   2.411   3.879   1.422
 2949TIP3   OH2 8852   2.051   1.557   4.720
 2949TIP3    H1 8853   2.030   1.477   4.768
 2949TIP3    H2 8854   2.034   1.535   4.628
 2950TIP3   OH2 8855   4.567   5.621   2.637
 2950TIP3    H1 8856   4.506   5.690   2.610
 2950TIP3    H2 8857   4.569   5.627   2.733
 2951TIP3   OH2 8858   2.035   2.919   0.133
 2951TIP3    H1 8859   1.965   2.951   0.190
 2951TIP3    H2 8860   2.070   2.843   0.179
 2952TIP3   OH2 8861   5.940   0.813   0.328
 2952TIP3    H1 8862   6.001   0.758   0.378
 2952TIP3    H2 8863   5.856   0.768   0.335
 2953TIP3   OH2 8864   6.177   1.716   0.219
 2953TIP3    H1 8865   6.263   1.751   0.243
 2953TIP3    H2 8866   6.124   1.793   0.200
 2954TIP3   OH2 8867   2.435   4.273   4.023
 2954TIP3    H1 8868   2.461   4.350   4.075
 2954TIP3    H2 8869   2.359   4.303   3.973
 2955TIP3   OH2 8870   3.344   4.398   4.327
 2955TIP3    H1 8871   3.365   4.307   4.348
 2955TIP3    H2 8872   3.423   4.447   4.347
 2956TIP3   OH2 8873   0.002   0.954   3.869
 2956TIP3    H1 8874   0.078   0.899   3.889
 2956TIP3    H2 8875  -0.061   0.895   3.830
 2957TIP3   OH2 8876   2.505   3.621   1.070
 2957TIP3    H1 8877   2.505   3.594   1.161
 2957TIP3    H2 8878   2.562   3.558   1.026
 2958TIP3   OH2 8879   3.357   1.567   5.142
 2958TIP3    H1 8880   3.397   1.481   5.132
 2958TIP3    H2 8881   3.265   1.553   5.120
 2959TIP3   OH2 8882   2.046   6.012   1.850
 2959TIP3    H1 8883   2.116   5.969   1.899
 2959TIP3    H2 8884   2.032   5.957   1.773
 2960TIP3   OH2 8885   2.208   0.897   1.280
 2960TIP3    H1 8886   2.284   0.942   1.318
 2960TIP3    H2 8887   2.217   0.806   1.308
 2961TIP3   OH2 8888   1.561   3.063   1.623
 2961TIP3    H1 8889   1.513   3.135   1.665
 2961TIP3    H2 8890   1.598   3.014   1.696
 2962TIP3   OH2 8891   0.770   1.249   0.722
 2962TIP3    H1 8892   0.819   1.306   0.663
 2962TIP3    H2 8893   0.824   1.169   0.727
 2963TIP3   OH2 8894   3.692   3.466   0.143
 2963TIP3    H1 8895   3.649   3.382   0.127
 2963TIP3    H2 8896   3.693   3.509   0.058
 2964TIP3   OH2 8897   4.708   5.749   0.626
 2964TIP3    H1 8898   4.624   5.761   0.582
 2964TIP3    H2 8899   4.691   5.773   0.717
 2965TIP3   OH2 8900   4.799   5.333   1.918
 2965TIP3    H1 8901   4.874   5.390   1.901
 2965TIP3    H2 8902   4.823   5.286   1.998
 2966TIP3   OH2 8903   4.680   5.329   4.457
 2966TIP3    H1 8904   4.729   5.307   4.536
 2966TIP3    H2 8905   4.683   5.250   4.404
 2967TIP3   OH2 8906   3.174   1.561   2.163
 2967TIP3    H1 8907   3.259   1.568   2.207
 2967TIP3    H2 8908   3.120   1.512   2.224
 2968TIP3   OH2 8909   3.242   5.810   3.323
 2968TIP3    H1 8910   3.224   5.791   3.415
 2968TIP3    H2 8911   3.327   5.854   3.323
 2969TIP3   OH2 8912   1.051   1.809   1.189
 2969TIP3    H1 8913   1.107   1.863   1.134
 2969TIP3    H2 8914   0.979   1.867   1.215
 2970TIP3   OH2 8915   3.674   0.991   0.996
 2970TIP3    H1 8916   3.638   1.064   0.946
 2970TIP3    H2 8917   3.602   0.928   1.002
 2971TIP3   OH2 8918   2.813   4.058   2.907
 2971TIP3    H1 8919   2.834   3.976   2.863
 2971TIP3    H2 8920   2.898   4.092   2.936
 2972TIP3   OH2 8921   1.100   4.012   3.622
 2972TIP3    H1 8922   1.032   3.944   3.626
 2972TIP3    H2 8923   1.174   3.974   3.669
 2973TIP3   OH2 8924   2.679   4.933   4.505
 2973TIP3    H1 8925   2.760   4.950   4.554
 2973TIP3    H2 8926   2.703   4.949   4.413
 2974TIP3   OH2 8927   1.818   5.915   0.092
 2974TIP3    H1 8928   1.878   5.946   0.160
 2974TIP3    H2 8929   1.853   5.953   0.011
 2975TIP3   OH2 8930   5.068   0.575   0.600
 2975TIP3    H1 8931   5.021   0.562   0.518
 2975TIP3    H2 8932   5.063   0.669   0.617
 2976TIP3   OH2 8933   4.925   3.946   1.990
 2976TIP3    H1 8934   4.954   3.964   1.900
 2976TIP3    H2 8935   4.850   3.888   1.979
 2977TIP3   OH2 8936   3.090   3.405   2.987
 2977TIP3    H1 8937   3.182   3.380   2.983
 2977TIP3    H2 8938   3.055   3.354   3.061
 2978TIP3   OH2 8939   5.622   1.224   4.431
 2978TIP3    H1 8940   5.632   1.277   4.353
 2978TIP3    H2 8941   5.536   1.249   4.466
 2979TIP3   OH2 8942   5.064   5.749   0.002
 2979TIP3    H1 8943   4.996   5.810   0.033
 2979TIP3    H2 8944   5.136   5.761   0.063
 2980TIP3   OH2 8945   1.791   3.644   0.755
 2980TIP3    H1 8946   1.823   3.693   0.830
 2980TIP3    H2 8947   1.739   3.573   0.793
 2981TIP3   OH2 8948   4.182   5.614   0.176
 2981TIP3    H1 8949   4.153   5.704   0.158
 2981TIP3    H2 8950   4.187   5.573   0.090
 2982TIP3   OH2 8951   6.104   1.535   2.146
 2982TIP3    H1 8952   6.024   1.587   2.141
 2982TIP3    H2 8953   6.075   1.445   2.134
 2983TIP3   OH2 8954   4.974   1.858   1.414
 2983TIP3    H1 8955   4.883   1.877   1.388
 2983TIP3    H2 8956   4.974   1.765   1.437
 2984TIP3   OH2 8957   6.248   2.231   1.189
 2984TIP3    H1 8958   6.211   2.146   1.167
 2984TIP3    H2 8959   6.273   2.270   1.105
 2985TIP3   OH2 8960   1.891   4.987   0.477
 2985TIP3    H1 8961   1.941   4.914   0.441
 2985TIP3    H2 8962   1.839   4.948   0.547
 2986TIP3   OH2 8963   3.552   2.226   2.308
 2986TIP3    H1 8964   3.478   2.272   2.266
 2986TIP3    H2 8965   3.615   2.296   2.326
 2987TIP3   OH2 8966   2.803   5.000   0.260
 2987TIP3    H1 8967   2.742   5.074   0.255
 2987TIP3    H2 8968   2.888   5.039   0.238
 2988TIP3   OH2 8969   6.226   5.434   1.310
 2988TIP3    H1 8970   6.277   5.382   1.247
 2988TIP3    H2 8971   6.157   5.474   1.257
 2989TIP3   OH2 8972   2.983   2.086   4.644
 2989TIP3    H1 8973   2.976   2.009   4.588
 2989TIP3    H2 8974   3.076   2.109   4.642
 2990TIP3   OH2 8975   6.241   5.151   0.084
 2990TIP3    H1 8976   6.324   5.136   0.038
 2990TIP3    H2 8977   6.174   5.119   0.024
 2991TIP3   OH2 8978   1.893   4.155   1.094
 2991TIP3    H1 8979   1.892   4.061   1.075
 2991TIP3    H2 8980   1.940   4.193   1.020
 2992TIP3   OH2 8981   1.701   2.433   0.904
 2992TIP3    H1 8982   1.757   2.416   0.980
 2992TIP3    H2 8983   1.717   2.359   0.846
 2993TIP3   OH2 8984   2.489   2.894   5.165
 2993TIP3    H1 8985   2.492   2.836   5.089
 2993TIP3    H2 8986   2.466   2.980   5.128
 2994TIP3   OH2 8987   3.776   2.870   2.145
 2994TIP3    H1 8988   3.812   2.885   2.232
 2994TIP3    H2 8989   3.840   2.814   2.102
 2995TIP3   OH2 8990   0.379   0.657   1.723
 2995TIP3    H1 8991   0.331   0.613   1.654
 2995TIP3    H2 8992   0.439   0.590   1.758
 2996TIP3   OH2 8993   4.932   1.338  -0.005
 2996TIP3    H1 8994   4.884   1.310   0.073
 2996TIP3    H2 8995   5.011   1.284  -0.006
 2997TIP3   OH2 8996   3.792   1.653   3.642
 2997TIP3    H1 8997   3.764   1.564   3.665
 2997TIP3    H2 8998   3.745   1.673   3.562
 2998TIP3   OH2 8999   3.742   4.159   0.772
 2998TIP3    H1 9000   3.741   4.118   0.686
 2998TIP3    H2 9001   3.711   4.248   0.756
 2999TIP3   OH2 9002   0.607   1.527   3.228
 2999TIP3    H1 9003   0.681   1.496   3.280
 2999TIP3    H2 9004   0.581   1.609   3.271
 3000TIP3   OH2 9005   3.397   4.475   0.258
 3000TIP3    H1 9006   3.382   4.564   0.288
 3000TIP3    H2 9007   3.312   4.445   0.228
 3001TIP3   OH2 9008   6.073   1.427   1.040
 3001TIP3    H1 9009   6.015   1.407   1.114
 3001TIP3    H2 9010   6.091   1.342   1.000
 3002TIP3   OH2 9011   1.195   0.704   0.998
 3002TIP3    H1 9012   1.147   0.651   0.935
 3002TIP3    H2 9013   1.222   0.781   0.949
 3003TIP3   OH2 9014   2.021   4.166   3.036
 3003TIP3    H1 9015   1.977   4.093   3.079
 3003TIP3    H2 9016   1.975   4.244   3.069
 3004TIP3   OH2 9017   5.307   4.854   4.843
 3004TIP3    H1 9018   5.378   4.903   4.884
 3004TIP3    H2 9019   5.285   4.786   4.906
 3005TIP3   OH2 9020   2.846   2.628   2.529
 3005TIP3    H1 9021   2.797   2.616   2.448
 3005TIP3    H2 9022   2.938   2.623   2.502
 3006TIP3   OH2 9023   1.049   0.526   2.507
 3006TIP3    H1 9024   1.143   0.513   2.517
 3006TIP3    H2 9025   1.010   0.440   2.523
 3007TIP3   OH2 9026   3.373   2.250   2.000
 3007TIP3    H1 9027   3.305   2.276   1.937
 3007TIP3    H2 9028   3.419   2.177   1.958
 3008TIP3   OH2 9029   1.707   2.575   5.018
 3008TIP3    H1 9030   1.647   2.639   5.056
 3008TIP3    H2 9031   1.784   2.577   5.075
 3009TIP3   OH2 9032   3.978   4.832   2.330
 3009TIP3    H1 9033   3.946   4.870   2.248
 3009TIP3    H2 9034   3.907   4.849   2.393
 3010TIP3   OH2 9035   4.844   0.757   4.384
 3010TIP3    H1 9036   4.844   0.758   4.289
 3010TIP3    H2 9037   4.890   0.837   4.409
 3011TIP3   OH2 9038   0.010   3.229   1.771
 3011TIP3    H1 9039   0.102   3.253   1.757
 3011TIP3    H2 9040  -0.039   3.308   1.749
 3012TIP3   OH2 9041   3.639   4.096   4.296
 3012TIP3    H1 9042   3.546   4.073   4.293
 3012TIP3    H2 9043   3.682   4.018   4.332
 3013TIP3   OH2 9044   2.666   2.519   2.741
 3013TIP3    H1 9045   2.738   2.495   2.800
 3013TIP3    H2 9046   2.704   2.582   2.680
 3014TIP3   OH2 9047   5.925   3.358   4.993
 3014TIP3    H1 9048   5.835   3.372   4.964
 3014TIP3    H2 9049   5.976   3.421   4.942
 3015TIP3   OH2 9050   2.630   3.566   2.664
 3015TIP3    H1 9051   2.701   3.503   2.651
 3015TIP3    H2 9052   2.554   3.526   2.621
 3016TIP3   OH2 9053   0.688   3.447   0.150
 3016TIP3    H1 9054   0.647   3.524   0.110
 3016TIP3    H2 9055   0.768   3.433   0.099
 3017TIP3   OH2 9056   0.556   0.479   2.947
 3017TIP3    H1 9057   0.564   0.398   2.897
 3017TIP3    H2 9058   0.624   0.536   2.913
 3018TIP3   OH2 9059   6.120   2.412   2.828
 3018TIP3    H1 9060   6.215   2.410   2.844
 3018TIP3    H2 9061   6.100   2.325   2.794
 3019TIP3   OH2 9062   0.754   5.218   2.993
 3019TIP3    H1 9063   0.822   5.271   3.033
 3019TIP3    H2 9064   0.780   5.128   3.013
 3020TIP3   OH2 9065   5.964   0.633   1.345
 3020TIP3    H1 9066   5.978   0.674   1.260
 3020TIP3    H2 9067   5.946   0.705   1.405
 3021TIP3   OH2 9068   1.571   0.980   0.735
 3021TIP3    H1 9069   1.574   1.043   0.663
 3021TIP3    H2 9070   1.656   0.936   0.731
 3022TIP3   OH2 9071   4.359   1.501   4.669
 3022TIP3    H1 9072   4.361   1.582   4.618
 3022TIP3    H2 9073   4.284   1.452   4.634
 3023TIP3   OH2 9074   5.054   1.996   0.085
 3023TIP3    H1 9075   5.017   1.946   0.157
 3023TIP3    H2 9076   5.146   1.971   0.083
 3024TIP3   OH2 9077   3.373   4.617   2.370
 3024TIP3    H1 9078   3.306   4.627   2.438
 3024TIP3    H2 9079   3.403   4.706   2.353
 3025TIP3   OH2 9080   5.549   3.153   2.474
 3025TIP3    H1 9081   5.572   3.193   2.390
 3025TIP3    H2 9082   5.628   3.104   2.499
 3026TIP3   OH2 9083   3.279   4.223   1.790
 3026TIP3    H1 9084   3.211   4.159   1.771
 3026TIP3    H2 9085   3.357   4.172   1.810
 3027TIP3   OH2 9086   4.701   4.616   2.024
 3027TIP3    H1 9087   4.778   4.604   2.079
 3027TIP3    H2 9088   4.642   4.670   2.076
 3028TIP3   OH2 9089   6.323   5.857   3.348
 3028TIP3    H1 9090   6.233   5.838   3.322
 3028TIP3    H2 9091   6.373   5.851   3.266
 3029TIP3   OH2 9092   4.167   3.530   3.765
 3029TIP3    H1 9093   4.125   3.562   3.685
 3029TIP3    H2 9094   4.234   3.595   3.785
 3030TIP3   OH2 9095   5.524   2.246   4.689
 3030TIP3    H1 9096   5.508   2.185   4.761
 3030TIP3    H2 9097   5.591   2.306   4.723
 3031TIP3   OH2 9098   1.189   0.183   3.023
 3031TIP3    H1 9099   1.176   0.089   3.009
 3031TIP3    H2 9100   1.155   0.199   3.112
 3032TIP3   OH2 9101   4.384   5.140   1.979
 3032TIP3    H1 9102   4.343   5.065   1.937
 3032TIP3    H2 9103   4.461   5.159   1.925
 3033TIP3   OH2 9104   4.987   1.779   1.108
 3033TIP3    H1 9105   5.046   1.753   1.037
 3033TIP3    H2 9106   4.942   1.856   1.074
 3034TIP3   OH2 9107   4.407   5.955   5.128
 3034TIP3    H1 9108   4.406   5.910   5.043
 3034TIP3    H2 9109   4.319   5.944   5.162
 3035TIP3   OH2 9110   4.606   2.681   4.619
 3035TIP3    H1 9111   4.585   2.592   4.645
 3035TIP3    H2 9112   4.679   2.707   4.676
 3036TIP3   OH2 9113   5.917   1.904   3.611
 3036TIP3    H1 9114   5.890   1.832   3.553
 3036TIP3    H2 9115   5.996   1.940   3.570
 3037TIP3   OH2 9116   5.552   2.238   0.517
 3037TIP3    H1 9117   5.474   2.291   0.503
 3037TIP3    H2 9118   5.565   2.237   0.612
 3038TIP3   OH2 9119   5.845   2.719   0.575
 3038TIP3    H1 9120   5.753   2.742   0.584
 3038TIP3    H2 9121   5.844   2.625   0.555
 3039TIP3   OH2 9122   5.102   4.876   1.732
 3039TIP3    H1 9123   5.066   4.820   1.801
 3039TIP3    H2 9124   5.027   4.927   1.701
 3040TIP3   OH2 9125   0.554   5.223   0.809
 3040TIP3    H1 9126   0.514   5.220   0.722
 3040TIP3    H2 9127   0.618   5.151   0.808
 3041TIP3   OH2 9128   2.397   3.962   3.249
 3041TIP3    H1 9129   2.398   3.930   3.339
 3041TIP3    H2 9130   2.487   3.948   3.219
 3042TIP3   OH2 9131   5.819   4.281   1.712
 3042TIP3    H1 9132   5.852   4.371   1.711
 3042TIP3    H2 9133   5.869   4.238   1.782
 3043TIP3   OH2 9134   1.311   0.531   2.335
 3043TIP3    H1 9135   1.266   0.560   2.255
 3043TIP3    H2 9136   1.380   0.597   2.348
 3044TIP3   OH2 9137   6.218   3.368   1.556
 3044TIP3    H1 9138   6.175   3.449   1.531
 3044TIP3    H2 9139   6.312   3.385   1.544
 3045TIP3   OH2 9140   6.187   3.510   1.099
 3045TIP3    H1 9141   6.217   3.534   1.186
 3045TIP3    H2 9142   6.092   3.526   1.102
 3046TIP3   OH2 9143   6.106   2.867   0.193
 3046TIP3    H1 9144   6.083   2.851   0.284
 3046TIP3    H2 9145   6.198   2.895   0.195
 3047TIP3   OH2 9146   2.418   2.367   2.683
 3047TIP3    H1 9147   2.511   2.381   2.702
 3047TIP3    H2 9148   2.407   2.399   2.594
 3048TIP3   OH2 9149   6.232   3.149   1.408
 3048TIP3    H1 9150   6.242   3.087   1.480
 3048TIP3    H2 9151   6.214   3.233   1.450
 3049TIP3   OH2 9152   2.729   1.270   0.624
 3049TIP3    H1 9153   2.808   1.285   0.676
 3049TIP3    H2 9154   2.754   1.202   0.562
 3050TIP3   OH2 9155   3.184   4.965   4.397
 3050TIP3    H1 9156   3.124   5.032   4.364
 3050TIP3    H2 9157   3.228   5.006   4.471
 3051TIP3   OH2 9158   2.816   0.000   0.438
 3051TIP3    H1 9159   2.750  -0.068   0.455
 3051TIP3    H2 9160   2.807   0.060   0.512
 3052TIP3   OH2 9161   1.239   2.558   1.227
 3052TIP3    H1 9162   1.163   2.508   1.199
 3052TIP3    H2 9163   1.241   2.549   1.322
 3053TIP3   OH2 9164   4.330   5.801   3.722
 3053TIP3    H1 9165   4.352   5.803   3.629
 3053TIP3    H2 9166   4.238   5.826   3.725
 3054TIP3   OH2 9167   0.526   2.812   3.715
 3054TIP3    H1 9168   0.617   2.839   3.704
 3054TIP3    H2 9169   0.529   2.717   3.727
 3055TIP3   OH2 9170   0.461   0.066   3.214
 3055TIP3    H1 9171   0.552   0.096   3.212
 3055TIP3    H2 9172   0.467  -0.026   3.239
 3056TIP3   OH2 9173   4.683   5.161   3.081
 3056TIP3    H1 9174   4.625   5.132   3.151
 3056TIP3    H2 9175   4.737   5.230   3.120
 3057TIP3   OH2 9176   2.285   4.234   0.446
 3057TIP3    H1 9177   2.319   4.158   0.398
 3057TIP3    H2 9178   2.210   4.263   0.394
 3058TIP3   OH2 9179   5.136   5.783   3.926
 3058TIP3    H1 9180   5.212   5.730   3.948
 3058TIP3    H2 9181   5.087   5.791   4.008
 3059TIP3   OH2 9182   1.046   1.219   1.013
 3059TIP3    H1 9183   1.032   1.139   0.962
 3059TIP3    H2 9184   1.122   1.199   1.067
 3060TIP3   OH2 9185   5.133   4.746   2.367
 3060TIP3    H1 9186   5.197   4.798   2.319
 3060TIP3    H2 9187   5.138   4.659   2.327
 3061TIP3   OH2 9188   2.172   4.714   1.753
 3061TIP3    H1 9189   2.254   4.684   1.791
 3061TIP3    H2 9190   2.160   4.660   1.675
 3062TIP3   OH2 9191   4.148   2.965   1.376
 3062TIP3    H1 9192   4.101   2.899   1.427
 3062TIP3    H2 9193   4.232   2.974   1.420
 3063TIP3   OH2 9194   2.257   2.504   5.065
 3063TIP3    H1 9195   2.208   2.422   5.066
 3063TIP3    H2 9196   2.217   2.555   4.994
 3064TIP3   OH2 9197   2.387   5.510   3.551
 3064TIP3    H1 9198   2.321   5.539   3.614
 3064TIP3    H2 9199   2.337   5.480   3.475
 3065TIP3   OH2 9200   5.600   5.194   3.280
 3065TIP3    H1 9201   5.555   5.252   3.341
 3065TIP3    H2 9202   5.667   5.151   3.333
 3066TIP3   OH2 9203   0.956   2.987   1.019
 3066TIP3    H1 9204   0.977   3.006   0.928
 3066TIP3    H2 9205   0.873   2.941   1.015
 3067TIP3   OH2 9206   4.990   5.981   4.500
 3067TIP3    H1 9207   5.058   5.968   4.566
 3067TIP3    H2 9208   4.908   5.970   4.548
 3068TIP3   OH2 9209   5.983   3.137   4.628
 3068TIP3    H1 9210   5.959   3.075   4.696
 3068TIP3    H2 9211   6.078   3.147   4.637
 3069TIP3   OH2 9212   5.811   1.180   1.331
 3069TIP3    H1 9213   5.865   1.257   1.351
 3069TIP3    H2 9214   5.728   1.197   1.375
 3070TIP3   OH2 9215   0.589   1.778   4.748
 3070TIP3    H1 9216   0.585   1.725   4.668
 3070TIP3    H2 9217   0.635   1.723   4.811
 3071TIP3   OH2 9218   2.371   2.344   1.174
 3071TIP3    H1 9219   2.390   2.373   1.263
 3071TIP3    H2 9220   2.407   2.412   1.118
 3072TIP3   OH2 9221   4.539   2.440   4.139
 3072TIP3    H1 9222   4.462   2.383   4.143
 3072TIP3    H2 9223   4.536   2.490   4.220
 3073TIP3   OH2 9224   1.974   1.912   1.362
 3073TIP3    H1 9225   1.997   2.005   1.367
 3073TIP3    H2 9226   2.026   1.879   1.288
 3074TIP3   OH2 9227   2.299   4.518   1.934
 3074TIP3    H1 9228   2.247   4.442   1.907
 3074TIP3    H2 9229   2.242   4.566   1.994
 3075TIP3   OH2 9230   0.703   2.961   0.929
 3075TIP3    H1 9231   0.641   2.978   0.858
 3075TIP3    H2 9232   0.679   2.874   0.961
 3076TIP3   OH2 9233   0.082   0.797   5.148
 3076TIP3    H1 9234   0.145   0.727   5.132
 3076TIP3    H2 9235   0.004   0.751   5.181
 3077TIP3   OH2 9236   2.970   5.039   0.740
 3077TIP3    H1 9237   3.022   4.959   0.752
 3077TIP3    H2 9238   2.901   5.013   0.679
 3078TIP3   OH2 9239   5.534   3.994   2.558
 3078TIP3    H1 9240   5.518   4.066   2.496
 3078TIP3    H2 9241   5.625   4.005   2.585
 3079TIP3   OH2 9242   2.799   3.218   2.809
 3079TIP3    H1 9243   2.780   3.250   2.721
 3079TIP3    H2 9244   2.852   3.140   2.796
 3080TIP3   OH2 9245   2.819   1.026   5.084
 3080TIP3    H1 9246   2.776   1.036   5.000
 3080TIP3    H2 9247   2.790   1.101   5.136
 3081TIP3   OH2 9248   1.423   2.993   4.722
 3081TIP3    H1 9249   1.353   3.055   4.706
 3081TIP3    H2 9250   1.500   3.031   4.679
 3082TIP3   OH2 9251   0.223   5.324   0.813
 3082TIP3    H1 9252   0.247   5.406   0.856
 3082TIP3    H2 9253   0.257   5.256   0.871
 3083TIP3   OH2 9254   1.885   1.892   3.899
 3083TIP3    H1 9255   1.931   1.823   3.850
 3083TIP3    H2 9256   1.879   1.965   3.837
 3084TIP3   OH2 9257   6.096   2.792   0.524
 3084TIP3    H1 9258   6.127   2.726   0.462
 3084TIP3    H2 9259   6.001   2.781   0.526
 3085TIP3   OH2 9260   5.765   4.659   1.208
 3085TIP3    H1 9261   5.701   4.729   1.222
 3085TIP3    H2 9262   5.726   4.603   1.142
 3086TIP3   OH2 9263   4.940   4.882   0.357
 3086TIP3    H1 9264   4.938   4.978   0.361
 3086TIP3    H2 9265   4.872   4.860   0.294
 3087TIP3   OH2 9266   5.934   5.921   4.560
 3087TIP3    H1 9267   5.902   5.922   4.470
 3087TIP3    H2 9268   5.885   5.851   4.603
 3088TIP3   OH2 9269   4.035   2.423   1.767
 3088TIP3    H1 9270   4.089   2.356   1.725
 3088TIP3    H2 9271   4.083   2.504   1.755
 3089TIP3   OH2 9272   3.563   1.450   0.738
 3089TIP3    H1 9273   3.519   1.531   0.763
 3089TIP3    H2 9274   3.655   1.475   0.727
 3090TIP3   OH2 9275   0.572   5.748   2.625
 3090TIP3    H1 9276   0.621   5.819   2.667
 3090TIP3    H2 9277   0.576   5.676   2.688
 3091TIP3   OH2 9278   4.329   4.988   3.738
 3091TIP3    H1 9279   4.306   5.072   3.699
 3091TIP3    H2 9280   4.267   4.926   3.700
 3092TIP3   OH2 9281   6.268   1.374   4.463
 3092TIP3    H1 9282   6.307   1.313   4.526
 3092TIP3    H2 9283   6.313   1.457   4.479
 3093TIP3   OH2 9284   3.372   4.348   2.589
 3093TIP3    H1 9285   3.300   4.346   2.652
 3093TIP3    H2 9286   3.344   4.410   2.522
 3094TIP3   OH2 9287   3.421   1.657   3.015
 3094TIP3    H1 9288   3.455   1.738   3.055
 3094TIP3    H2 9289   3.360   1.623   3.079
 3095TIP3   OH2 9290   2.100   0.821   1.674
 3095TIP3    H1 9291   2.037   0.750   1.688
 3095TIP3    H2 9292   2.166   0.783   1.616
 3096TIP3   OH2 9293   4.565   4.416   2.592
 3096TIP3    H1 9294   4.542   4.467   2.670
 3096TIP3    H2 9295   4.540   4.326   2.614
 3097TIP3   OH2 9296   3.962   0.689   0.294
 3097TIP3    H1 9297   3.973   0.765   0.351
 3097TIP3    H2 9298   3.930   0.726   0.211
 3098TIP3   OH2 9299   1.586   1.636   3.840
 3098TIP3    H1 9300   1.521   1.707   3.844
 3098TIP3    H2 9301   1.543   1.562   3.884
 3099TIP3   OH2 9302   2.468   0.206   1.098
 3099TIP3    H1 9303   2.516   0.198   1.180
 3099TIP3    H2 9304   2.435   0.295   1.097
 3100TIP3   OH2 9305   0.575   4.619   1.401
 3100TIP3    H1 9306   0.546   4.600   1.312
 3100TIP3    H2 9307   0.520   4.564   1.456
 3101TIP3   OH2 9308   0.357   2.858   1.936
 3101TIP3    H1 9309   0.377   2.770   1.903
 3101TIP3    H2 9310   0.387   2.857   2.027
 3102TIP3   OH2 9311   2.354   5.376   1.502
 3102TIP3    H1 9312   2.343   5.401   1.594
 3102TIP3    H2 9313   2.449   5.370   1.490
 3103TIP3   OH2 9314   1.475   1.770   3.146
 3103TIP3    H1 9315   1.461   1.762   3.052
 3103TIP3    H2 9316   1.555   1.821   3.155
 3104TIP3   OH2 9317   4.733   5.033   2.263
 3104TIP3    H1 9318   4.778   4.994   2.338
 3104TIP3    H2 9319   4.800   5.085   2.220
 3105TIP3   OH2 9320   3.246   2.507   1.292
 3105TIP3    H1 9321   3.215   2.508   1.202
 3105TIP3    H2 9322   3.199   2.434   1.333
 3106TIP3   OH2 9323   2.248   1.728   3.080
 3106TIP3    H1 9324   2.203   1.689   3.154
 3106TIP3    H2 9325   2.278   1.653   3.028
 3107TIP3   OH2 9326   1.147   1.918   3.542
 3107TIP3    H1 9327   1.199   1.916   3.461
 3107TIP3    H2 9328   1.194   1.977   3.600
 3108TIP3   OH2 9329   3.640   5.787   0.629
 3108TIP3    H1 9330   3.656   5.848   0.701
 3108TIP3    H2 9331   3.715   5.728   0.631
 3109TIP3   OH2 9332   5.752   2.949   1.308
 3109TIP3    H1 9333   5.707   2.877   1.265
 3109TIP3    H2 9334   5.684   2.992   1.360
 3110TIP3   OH2 9335   1.658   5.593   4.756
 3110TIP3    H1 9336   1.577   5.543   4.745
 3110TIP3    H2 9337   1.631   5.684   4.758
 3111TIP3   OH2 9338   4.196   5.692   2.338
 3111TIP3    H1 9339   4.194   5.787   2.330
 3111TIP3    H2 9340   4.276   5.673   2.386
 3112TIP3   OH2 9341   1.453   4.378   1.636
 3112TIP3    H1 9342   1.493   4.449   1.585
 3112TIP3    H2 9343   1.527   4.338   1.683
 3113TIP3   OH2 9344   1.133   2.371   2.563
 3113TIP3    H1 9345   1.064   2.305   2.557
 3113TIP3    H2 9346   1.195   2.335   2.627
 3114TIP3   OH2 9347   6.130   5.093   1.639
 3114TIP3    H1 9348   6.130   5.167   1.579
 3114TIP3    H2 9349   6.049   5.046   1.620
 3115TIP3   OH2 9350   0.215   5.446   1.828
 3115TIP3    H1 9351   0.139   5.456   1.771
 3115TIP3    H2 9352   0.191   5.493   1.908
 3116TIP3   OH2 9353   0.068   0.901   0.469
 3116TIP3    H1 9354   0.064   0.806   0.479
 3116TIP3    H2 9355   0.146   0.916   0.416
 3117TIP3   OH2 9356   5.751   5.643  -0.073
 3117TIP3    H1 9357   5.746   5.707  -0.003
 3117TIP3    H2 9358   5.787   5.564  -0.031
 3118TIP3   OH2 9359   0.063   2.201   3.777
 3118TIP3    H1 9360   0.024   2.123   3.738
 3118TIP3    H2 9361   0.157   2.181   3.781
 3119TIP3   OH2 9362   5.342   4.883   2.272
 3119TIP3    H1 9363   5.392   4.909   2.349
 3119TIP3    H2 9364   5.403   4.832   2.218
 3120TIP3   OH2 9365   5.145   4.249   0.786
 3120TIP3    H1 9366   5.187   4.335   0.788
 3120TIP3    H2 9367   5.214   4.189   0.758
 3121TIP3   OH2 9368   3.446   4.718   4.565
 3121TIP3    H1 9369   3.353   4.714   4.585
 3121TIP3    H2 9370   3.450   4.750   4.475
 3122TIP3   OH2 9371   2.311   1.141   0.364
 3122TIP3    H1 9372   2.365   1.164   0.440
 3122TIP3    H2 9373   2.360   1.070   0.322
 3123TIP3   OH2 9374   1.786   5.431   4.179
 3123TIP3    H1 9375   1.725   5.388   4.119
 3123TIP3    H2 9376   1.741   5.511   4.206
 3124TIP3   OH2 9377   2.853   2.154   0.787
 3124TIP3    H1 9378   2.785   2.123   0.726
 3124TIP3    H2 9379   2.806   2.174   0.868
 3125TIP3   OH2 9380   5.321   2.448   2.454
 3125TIP3    H1 9381   5.349   2.388   2.384
 3125TIP3    H2 9382   5.304   2.531   2.410
 3126TIP3   OH2 9383   4.167   2.562   2.873
 3126TIP3    H1 9384   4.215   2.572   2.791
 3126TIP3    H2 9385   4.155   2.467   2.883
 3127TIP3   OH2 9386   1.908   5.296   2.383
 3127TIP3    H1 9387   1.877   5.369   2.330
 3127TIP3    H2 9388   1.994   5.324   2.415
 3128TIP3   OH2 9389   5.152   3.934   4.113
 3128TIP3    H1 9390   5.180   3.873   4.045
 3128TIP3    H2 9391   5.175   3.890   4.195
 3129TIP3   OH2 9392   2.272   3.876   0.483
 3129TIP3    H1 9393   2.249   3.825   0.405
 3129TIP3    H2 9394   2.321   3.951   0.449
 3130TIP3   OH2 9395   3.891   2.553   0.867
 3130TIP3    H1 9396   3.908   2.644   0.890
 3130TIP3    H2 9397   3.891   2.507   0.951
 3131TIP3   OH2 9398   3.113   1.389   2.371
 3131TIP3    H1 9399   3.028   1.392   2.416
 3131TIP3    H2 9400   3.127   1.297   2.351
 3132TIP3   OH2 9401   5.156   3.556   1.801
 3132TIP3    H1 9402   5.097   3.618   1.844
 3132TIP3    H2 9403   5.221   3.611   1.758
 3133TIP3   OH2 9404   2.410   3.965   3.540
 3133TIP3    H1 9405   2.472   4.031   3.507
 3133TIP3    H2 9406   2.461   3.912   3.600
 3134TIP3   OH2 9407   0.115   4.595   4.700
 3134TIP3    H1 9408   0.031   4.622   4.662
 3134TIP3    H2 9409   0.135   4.664   4.764
 3135TIP3   OH2 9410   1.799   3.653   4.698
 3135TIP3    H1 9411   1.743   3.577   4.683
 3135TIP3    H2 9412   1.745   3.713   4.748
 3136TIP3   OH2 9413   2.488   2.888   2.406
 3136TIP3    H1 9414   2.531   2.829   2.344
 3136TIP3    H2 9415   2.395   2.874   2.392
 3137TIP3   OH2 9416   5.124   3.573   3.410
 3137TIP3    H1 9417   5.169   3.582   3.494
 3137TIP3    H2 9418   5.092   3.661   3.390
 3138TIP3   OH2 9419   0.331   4.939   5.034
 3138TIP3    H1 9420   0.406   4.998   5.028
 3138TIP3    H2 9421   0.369   4.853   5.047
 3139TIP3   OH2 9422   5.191   4.644   4.993
 3139TIP3    H1 9423   5.109   4.618   4.952
 3139TIP3    H2 9424   5.234   4.561   5.016
 3140TIP3   OH2 9425   5.405   0.523   3.491
 3140TIP3    H1 9426   5.363   0.492   3.412
 3140TIP3    H2 9427   5.376   0.614   3.500
 3141TIP3   OH2 9428   4.016   0.818   5.055
 3141TIP3    H1 9429   4.033   0.897   5.106
 3141TIP3    H2 9430   4.031   0.746   5.116
 3142TIP3   OH2 9431   5.678   3.377   1.617
 3142TIP3    H1 9432   5.722   3.457   1.646
 3142TIP3    H2 9433   5.722   3.307   1.665
 3143TIP3   OH2 9434   0.168   3.340   1.284
 3143TIP3    H1 9435   0.243   3.328   1.225
 3143TIP3    H2 9436   0.196   3.302   1.367
 3144TIP3   OH2 9437   2.248   3.338   0.041
 3144TIP3    H1 9438   2.343   3.340   0.032
 3144TIP3    H2 9439   2.231   3.377   0.127
 3145TIP3   OH2 9440   0.494   0.764   4.210
 3145TIP3    H1 9441   0.488   0.835   4.147
 3145TIP3    H2 9442   0.446   0.795   4.287
 3146TIP3   OH2 9443   1.353   2.383   4.737
 3146TIP3    H1 9444   1.416   2.374   4.808
 3146TIP3    H2 9445   1.332   2.477   4.736
 3147TIP3   OH2 9446   2.140   3.582   4.962
 3147TIP3    H1 9447   2.210   3.549   5.018
 3147TIP3    H2 9448   2.177   3.659   4.920
 3148TIP3   OH2 9449   2.426   2.630   2.826
 3148TIP3    H1 9450   2.504   2.575   2.817
 3148TIP3    H2 9451   2.461   2.718   2.839
 3149TIP3   OH2 9452   3.355   0.050   0.933
 3149TIP3    H1 9453   3.284   0.028   0.993
 3149TIP3    H2 9454   3.357  -0.023   0.870
 3150TIP3   OH2 9455   5.498   5.776   0.992
 3150TIP3    H1 9456   5.449   5.752   1.071
 3150TIP3    H2 9457   5.589   5.758   1.014
 3151TIP3   OH2 9458   0.699   3.501   2.987
 3151TIP3    H1 9459   0.770   3.440   3.008
 3151TIP3    H2 9460   0.621   3.459   3.023
 3152TIP3   OH2 9461   1.869   2.045   1.025
 3152TIP3    H1 9462   1.949   2.097   1.033
 3152TIP3    H2 9463   1.799   2.106   1.044
 3153TIP3   OH2 9464   0.169   2.678   2.814
 3153TIP3    H1 9465   0.095   2.676   2.754
 3153TIP3    H2 9466   0.244   2.651   2.761
 3154TIP3   OH2 9467   4.707   2.371   4.405
 3154TIP3    H1 9468   4.621   2.403   4.433
 3154TIP3    H2 9469   4.691   2.280   4.379
 3155TIP3   OH2 9470   5.863   3.052   4.877
 3155TIP3    H1 9471   5.941   3.021   4.923
 3155TIP3    H2 9472   5.794   2.989   4.900
 3156TIP3   OH2 9473   1.952   4.193   4.843
 3156TIP3    H1 9474   2.044   4.175   4.822
 3156TIP3    H2 9475   1.948   4.288   4.854
 3157TIP3   OH2 9476   1.375   5.829   0.139
 3157TIP3    H1 9477   1.461   5.867   0.158
 3157TIP3    H2 9478   1.362   5.765   0.209
 3158TIP3   OH2 9479   1.391   4.503   0.336
 3158TIP3    H1 9480   1.443   4.483   0.414
 3158TIP3    H2 9481   1.416   4.592   0.312
 3159TIP3   OH2 9482   6.133   0.220   3.401
 3159TIP3    H1 9483   6.128   0.229   3.306
 3159TIP3    H2 9484   6.121   0.308   3.435
 3160TIP3   OH2 9485   6.075   4.532   0.107
 3160TIP3    H1 9486   6.093   4.624   0.089
 3160TIP3    H2 9487   6.160   4.488   0.100
 3161TIP3   OH2 9488   2.496   3.412   0.272
 3161TIP3    H1 9489   2.528   3.323   0.259
 3161TIP3    H2 9490   2.402   3.402   0.287
 3162TIP3   OH2 9491   5.847   5.980   4.278
 3162TIP3    H1 9492   5.892   6.028   4.208
 3162TIP3    H2 9493   5.762   6.024   4.286
 3163TIP3   OH2 9494   2.666   0.928   2.713
 3163TIP3    H1 9495   2.571   0.916   2.702
 3163TIP3    H2 9496   2.704   0.846   2.680
 3164TIP3   OH2 9497   1.038   5.375   2.681
 3164TIP3    H1 9498   1.045   5.286   2.646
 3164TIP3    H2 9499   0.962   5.412   2.637
 3165TIP3   OH2 9500   3.438   5.824   1.815
 3165TIP3    H1 9501   3.507   5.874   1.772
 3165TIP3    H2 9502   3.423   5.749   1.757
 3166TIP3   OH2 9503   5.817   3.186   0.184
 3166TIP3    H1 9504   5.793   3.269   0.143
 3166TIP3    H2 9505   5.869   3.212   0.261
 3167TIP3   OH2 9506   3.453   2.632   2.554
 3167TIP3    H1 9507   3.422   2.546   2.526
 3167TIP3    H2 9508   3.406   2.651   2.635
 3168TIP3   OH2 9509   3.101   3.414   0.079
 3168TIP3    H1 9510   3.126   3.336   0.129
 3168TIP3    H2 9511   3.135   3.397  -0.009
 3169TIP3   OH2 9512   2.505   5.917   5.103
 3169TIP3    H1 9513   2.425   5.878   5.067
 3169TIP3    H2 9514   2.539   5.852   5.164
 3170TIP3   OH2 9515   2.578   2.942   3.140
 3170TIP3    H1 9516   2.596   2.906   3.053
 3170TIP3    H2 9517   2.483   2.957   3.140
 3171TIP3   OH2 9518   2.677   4.739   2.042
 3171TIP3    H1 9519   2.661   4.755   1.949
 3171TIP3    H2 9520   2.772   4.728   2.048
 3172TIP3   OH2 9521   0.832   0.996   5.004
 3172TIP3    H1 9522   0.740   0.978   4.982
 3172TIP3    H2 9523   0.882   0.948   4.939
 3173TIP3   OH2 9524   1.362   1.264   1.017
 3173TIP3    H1 9525   1.383   1.249   0.925
 3173TIP3    H2 9526   1.355   1.177   1.055
 3174TIP3   OH2 9527   5.008   4.472   5.190
 3174TIP3    H1 9528   4.974   4.388   5.160
 3174TIP3    H2 9529   5.097   4.453   5.219
 3175TIP3   OH2 9530   5.747   5.749   0.198
 3175TIP3    H1 9531   5.832   5.734   0.239
 3175TIP3    H2 9532   5.713   5.828   0.241
 3176TIP3   OH2 9533   2.919   0.422   3.425
 3176TIP3    H1 9534   2.929   0.337   3.469
 3176TIP3    H2 9535   2.828   0.447   3.441
 3177TIP3   OH2 9536   6.272   0.042   1.000
 3177TIP3    H1 9537   6.205   0.107   1.022
 3177TIP3    H2 9538   6.300   0.007   1.085
 3178TIP3   OH2 9539   5.686   0.740   2.208
 3178TIP3    H1 9540   5.750   0.710   2.143
 3178TIP3    H2 9541   5.610   0.684   2.194
 3179TIP3   OH2 9542   3.514   3.132   2.434
 3179TIP3    H1 9543   3.588   3.108   2.490
 3179TIP3    H2 9544   3.527   3.080   2.355
 3180TIP3   OH2 9545   0.474   5.881   4.724
 3180TIP3    H1 9546   0.435   5.947   4.667
 3180TIP3    H2 9547   0.411   5.869   4.795
 3181TIP3   OH2 9548   1.491   5.763   4.196
 3181TIP3    H1 9549   1.408   5.750   4.149
 3181TIP3    H2 9550   1.485   5.705   4.272
 3182TIP3   OH2 9551   5.485   3.730   2.585
 3182TIP3    H1 9552   5.389   3.727   2.594
 3182TIP3    H2 9553   5.505   3.823   2.576
 3183TIP3   OH2 9554   2.103   0.591   3.167
 3183TIP3    H1 9555   2.090   0.603   3.073
 3183TIP3    H2 9556   2.039   0.524   3.193
 3184TIP3   OH2 9557   1.645   3.701   0.076
 3184TIP3    H1 9558   1.564   3.688   0.126
 3184TIP3    H2 9559   1.632   3.649  -0.004
 3185TIP3   OH2 9560   2.990   1.978   2.880
 3185TIP3    H1 9561   3.062   1.915   2.888
 3185TIP3    H2 9562   3.033   2.063   2.870
 3186TIP3   OH2 9563   5.537   3.187   0.288
 3186TIP3    H1 9564   5.614   3.204   0.233
 3186TIP3    H2 9565   5.486   3.124   0.238
 3187TIP3   OH2 9566   2.060   3.659   0.552
 3187TIP3    H1 9567   2.057   3.707   0.469
 3187TIP3    H2 9568   2.003   3.584   0.539
 3188TIP3   OH2 9569   3.014   2.069   5.048
 3188TIP3    H1 9570   2.928   2.069   5.006
 3188TIP3    H2 9571   3.034   1.976   5.060
 3189TIP3   OH2 9572   0.105   0.087   1.553
 3189TIP3    H1 9573   0.176   0.092   1.617
 3189TIP3    H2 9574   0.060   0.006   1.574
 3190TIP3   OH2 9575   0.288   1.581   3.264
 3190TIP3    H1 9576   0.361   1.636   3.291
 3190TIP3    H2 9577   0.327   1.494   3.252
 3191TIP3   OH2 9578   5.635   1.808   4.500
 3191TIP3    H1 9579   5.716   1.804   4.551
 3191TIP3    H2 9580   5.649   1.878   4.437
 3192TIP3   OH2 9581   0.875   1.719   2.191
 3192TIP3    H1 9582   0.794   1.745   2.236
 3192TIP3    H2 9583   0.941   1.718   2.260
 3193TIP3   OH2 9584   5.688   5.580   0.558
 3193TIP3    H1 9585   5.752   5.650   0.565
 3193TIP3    H2 9586   5.604   5.625   0.545
 3194TIP3   OH2 9587   1.486   4.793   0.219
 3194TIP3    H1 9588   1.406   4.834   0.188
 3194TIP3    H2 9589   1.515   4.848   0.292
 3195TIP3   OH2 9590   1.576   5.109   3.112
 3195TIP3    H1 9591   1.618   5.082   3.194
 3195TIP3    H2 9592   1.636   5.174   3.076
 3196TIP3   OH2 9593   1.743   5.846   4.328
 3196TIP3    H1 9594   1.734   5.932   4.286
 3196TIP3    H2 9595   1.679   5.791   4.282
 3197TIP3   OH2 9596   0.640   3.922   2.807
 3197TIP3    H1 9597   0.617   3.866   2.732
 3197TIP3    H2 9598   0.708   3.873   2.853
 3198TIP3   OH2 9599   3.108   3.425   0.501
 3198TIP3    H1 9600   3.143   3.503   0.458
 3198TIP3    H2 9601   3.186   3.377   0.530
 3199TIP3   OH2 9602   0.078   3.248   0.805
 3199TIP3    H1 9603   0.054   3.267   0.896
 3199TIP3    H2 9604   0.015   3.296   0.753
 3200TIP3   OH2 9605   0.939   5.973   0.059
 3200TIP3    H1 9606   0.875   5.910   0.091
 3200TIP3    H2 9607   0.910   5.993  -0.030
 3201TIP3   OH2 9608   1.256   0.062   0.947
 3201TIP3    H1 9609   1.264  -0.033   0.958
 3201TIP3    H2 9610   1.334   0.088   0.898
 3202TIP3   OH2 9611   2.093   1.923   1.921
 3202TIP3    H1 9612   2.012   1.968   1.898
 3202TIP3    H2 9613   2.075   1.831   1.904
 3203TIP3   OH2 9614   1.293   0.751   2.871
 3203TIP3    H1 9615   1.248   0.695   2.808
 3203TIP3    H2 9616   1.372   0.781   2.824
 3204TIP3   OH2 9617   4.741   3.902   4.364
 3204TIP3    H1 9618   4.806   3.842   4.400
 3204TIP3    H2 9619   4.682   3.846   4.314
 3205TIP3   OH2 9620   3.657   4.375   3.312
 3205TIP3    H1 9621   3.677   4.467   3.328
 3205TIP3    H2 9622   3.629   4.340   3.396
 3206TIP3   OH2 9623   4.254   4.268   2.653
 3206TIP3    H1 9624   4.255   4.311   2.738
 3206TIP3    H2 9625   4.182   4.310   2.605
 3207TIP3   OH2 9626   5.358   3.120   1.440
 3207TIP3    H1 9627   5.306   3.182   1.492
 3207TIP3    H2 9628   5.314   3.036   1.451
 3208TIP3   OH2 9629   3.717   3.887   2.673
 3208TIP3    H1 9630   3.707   3.819   2.739
 3208TIP3    H2 9631   3.684   3.847   2.593
 3209TIP3   OH2 9632   5.085   0.734   4.662
 3209TIP3    H1 9633   5.174   0.706   4.640
 3209TIP3    H2 9634   5.070   0.812   4.607
 3210TIP3   OH2 9635   2.097   3.179   1.007
 3210TIP3    H1 9636   2.174   3.204   0.955
 3210TIP3    H2 9637   2.058   3.262   1.034
 3211TIP3   OH2 9638   5.603   3.570   1.013
 3211TIP3    H1 9639   5.549   3.567   1.093
 3211TIP3    H2 9640   5.689   3.597   1.043
 3212TIP3   OH2 9641   5.420   5.554   4.367
 3212TIP3    H1 9642   5.379   5.608   4.299
 3212TIP3    H2 9643   5.356   5.551   4.438
 3213TIP3   OH2 9644   1.244   4.949   3.574
 3213TIP3    H1 9645   1.335   4.951   3.545
 3213TIP3    H2 9646   1.213   4.863   3.547
 3214TIP3   OH2 9647   5.075   5.887   4.264
 3214TIP3    H1 9648   4.985   5.886   4.231
 3214TIP3    H2 9649   5.069   5.934   4.347
 3215TIP3   OH2 9650   0.346   1.370   3.924
 3215TIP3    H1 9651   0.426   1.422   3.922
 3215TIP3    H2 9652   0.357   1.306   3.854
 3216TIP3   OH2 9653   1.207   0.600   4.517
 3216TIP3    H1 9654   1.283   0.648   4.486
 3216TIP3    H2 9655   1.144   0.606   4.445
 3217TIP3   OH2 9656   0.995   5.897   3.568
 3217TIP3    H1 9657   0.975   5.916   3.660
 3217TIP3    H2 9658   0.927   5.836   3.540
 3218TIP3   OH2 9659   3.285   5.052   4.626
 3218TIP3    H1 9660   3.369   5.091   4.647
 3218TIP3    H2 9661   3.262   5.001   4.703
 3219TIP3   OH2 9662   4.936   4.989   0.970
 3219TIP3    H1 9663   5.028   4.969   0.950
 3219TIP3    H2 9664   4.899   5.018   0.886
 3220TIP3   OH2 9665   0.778   4.898   3.801
 3220TIP3    H1 9666   0.851   4.858   3.754
 3220TIP3    H2 9667   0.701   4.852   3.767
 3221TIP3   OH2 9668   3.730   4.515   3.037
 3221TIP3    H1 9669   3.654   4.461   3.017
 3221TIP3    H2 9670   3.785   4.460   3.094
 3222TIP3   OH2 9671   0.567   1.521   4.973
 3222TIP3    H1 9672   0.610   1.440   4.999
 3222TIP3    H2 9673   0.559   1.571   5.055
 3223TIP3   OH2 9674   4.693   2.114   3.408
 3223TIP3    H1 9675   4.710   2.132   3.500
 3223TIP3    H2 9676   4.717   2.196   3.363
 3224TIP3   OH2 9677   0.901   5.675   2.529
 3224TIP3    H1 9678   0.899   5.728   2.609
 3224TIP3    H2 9679   0.852   5.596   2.552
 3225TIP3   OH2 9680   3.409   2.368   3.976
 3225TIP3    H1 9681   3.380   2.318   3.900
 3225TIP3    H2 9682   3.334   2.422   4.000
 3226TIP3   OH2 9683   4.038   2.246   2.528
 3226TIP3    H1 9684   3.995   2.235   2.444
 3226TIP3    H2 9685   3.996   2.323   2.567
 3227TIP3   OH2 9686   1.268   5.461   1.333
 3227TIP3    H1 9687   1.306   5.423   1.254
 3227TIP3    H2 9688   1.175   5.437   1.329
 3228TIP3   OH2 9689   0.297   0.122   2.994
 3228TIP3    H1 9690   0.334   0.109   3.081
 3228TIP3    H2 9691   0.224   0.060   2.988
 3229TIP3   OH2 9692   1.633   4.030   0.861
 3229TIP3    H1 9693   1.663   4.120   0.858
 3229TIP3    H2 9694   1.689   3.983   0.799
 3230TIP3   OH2 9695   1.856   1.291   0.561
 3230TIP3    H1 9696   1.914   1.282   0.485
 3230TIP3    H2 9697   1.778   1.241   0.538
 3231TIP3   OH2 9698   0.271   3.145   2.151
 3231TIP3    H1 9699   0.319   3.143   2.069
 3231TIP3    H2 9700   0.182   3.120   2.127
 3232TIP3   OH2 9701   1.381   5.713   3.199
 3232TIP3    H1 9702   1.471   5.681   3.204
 3232TIP3    H2 9703   1.382   5.794   3.248
 3233TIP3   OH2 9704   0.569   2.219   1.283
 3233TIP3    H1 9705   0.503   2.169   1.235
 3233TIP3    H2 9706   0.581   2.170   1.365
 3234TIP3   OH2 9707   0.652   3.380   1.239
 3234TIP3    H1 9708   0.740   3.388   1.274
 3234TIP3    H2 9709   0.646   3.289   1.210
 3235TIP3   OH2 9710   6.013   0.897   2.763
 3235TIP3    H1 9711   5.957   0.935   2.830
 3235TIP3    H2 9712   6.102   0.918   2.789
 3236TIP3   OH2 9713   2.708   4.697   3.425
 3236TIP3    H1 9714   2.697   4.728   3.515
 3236TIP3    H2 9715   2.622   4.707   3.385
 3237TIP3   OH2 9716   4.711   5.044   3.628
 3237TIP3    H1 9717   4.674   4.956   3.632
 3237TIP3    H2 9718   4.751   5.058   3.714
 3238TIP3   OH2 9719   5.679   0.580   3.499
 3238TIP3    H1 9720   5.587   0.569   3.524
 3238TIP3    H2 9721   5.689   0.530   3.419
 3239TIP3   OH2 9722   2.241   0.789   4.167
 3239TIP3    H1 9723   2.235   0.785   4.072
 3239TIP3    H2 9724   2.231   0.698   4.195
 3240TIP3   OH2 9725   3.421   1.615   2.284
 3240TIP3    H1 9726   3.442   1.703   2.253
 3240TIP3    H2 9727   3.506   1.571   2.288
 3241TIP3   OH2 9728   3.880   2.289   3.729
 3241TIP3    H1 9729   3.867   2.379   3.759
 3241TIP3    H2 9730   3.799   2.244   3.752
 3242TIP3   OH2 9731   2.202   4.949   2.655
 3242TIP3    H1 9732   2.276   4.896   2.686
 3242TIP3    H2 9733   2.197   4.932   2.562
 3243TIP3   OH2 9734   5.990   2.734   3.345
 3243TIP3    H1 9735   5.946   2.735   3.260
 3243TIP3    H2 9736   5.968   2.818   3.385
 3244TIP3   OH2 9737   2.641   3.254   1.414
 3244TIP3    H1 9738   2.649   3.234   1.320
 3244TIP3    H2 9739   2.730   3.244   1.448
 3245TIP3   OH2 9740   5.664   0.142   4.578
 3245TIP3    H1 9741   5.684   0.195   4.500
 3245TIP3    H2 9742   5.662   0.052   4.546
 3246TIP3   OH2 9743   4.240   1.437   2.527
 3246TIP3    H1 9744   4.313   1.468   2.473
 3246TIP3    H2 9745   4.243   1.494   2.604
 3247TIP3   OH2 9746   1.289   5.884   0.575
 3247TIP3    H1 9747   1.235   5.850   0.646
 3247TIP3    H2 9748   1.378   5.860   0.599
 3248TIP3   OH2 9749   0.189   5.771   1.523
 3248TIP3    H1 9750   0.236   5.816   1.593
 3248TIP3    H2 9751   0.145   5.698   1.566
 3249TIP3   OH2 9752   1.392   2.915   1.924
 3249TIP3    H1 9753   1.392   3.009   1.943
 3249TIP3    H2 9754   1.337   2.877   1.992
 3250TIP3   OH2 9755   4.772   1.858   0.442
 3250TIP3    H1 9756   4.843   1.818   0.492
 3250TIP3    H2 9757   4.807   1.943   0.415
 3251TIP3   OH2 9758   6.174   4.852   2.837
 3251TIP3    H1 9759   6.157   4.899   2.755
 3251TIP3    H2 9760   6.087   4.839   2.875
 3252TIP3   OH2 9761   2.866   5.286   0.167
 3252TIP3    H1 9762   2.941   5.228   0.178
 3252TIP3    H2 9763   2.898   5.372   0.194
 3253TIP3   OH2 9764   2.586   4.753   1.079
 3253TIP3    H1 9765   2.561   4.660   1.087
 3253TIP3    H2 9766   2.515   4.800   1.124
 3254TIP3   OH2 9767   1.547   0.594   5.089
 3254TIP3    H1 9768   1.480   0.658   5.066
 3254TIP3    H2 9769   1.545   0.530   5.018
 3255TIP3   OH2 9770   5.050   2.170   0.736
 3255TIP3    H1 9771   5.121   2.123   0.693
 3255TIP3    H2 9772   5.075   2.172   0.829
 3256TIP3   OH2 9773   1.878   4.752   2.032
 3256TIP3    H1 9774   1.801   4.726   2.083
 3256TIP3    H2 9775   1.842   4.792   1.953
 3257TIP3   OH2 9776   5.386   4.427   3.065
 3257TIP3    H1 9777   5.332   4.368   3.012
 3257TIP3    H2 9778   5.427   4.486   3.001
 3258TIP3   OH2 9779   1.437   1.214   0.763
 3258TIP3    H1 9780   1.485   1.135   0.788
 3258TIP3    H2 9781   1.498   1.264   0.709
 3259TIP3   OH2 9782   0.774   4.780   4.080
 3259TIP3    H1 9783   0.787   4.856   4.024
 3259TIP3    H2 9784   0.698   4.735   4.043
 3260TIP3   OH2 9785   3.549   0.491   1.328
 3260TIP3    H1 9786   3.571   0.526   1.242
 3260TIP3    H2 9787   3.543   0.396   1.314
 3261TIP3   OH2 9788   3.113   2.552   4.957
 3261TIP3    H1 9789   3.197   2.512   4.935
 3261TIP3    H2 9790   3.056   2.478   4.978
 3262TIP3   OH2 9791   4.940   5.214   4.933
 3262TIP3    H1 9792   4.855   5.201   4.977
 3262TIP3    H2 9793   4.973   5.125   4.919
 3263TIP3   OH2 9794   5.483   0.803   1.855
 3263TIP3    H1 9795   5.425   0.805   1.779
 3263TIP3    H2 9796   5.423   0.807   1.930
 3264TIP3   OH2 9797   3.397   1.754   3.467
 3264TIP3    H1 9798   3.410   1.844   3.497
 3264TIP3    H2 9799   3.333   1.717   3.527
 3265TIP3   OH2 9800   0.633   3.022   4.137
 3265TIP3    H1 9801   0.560   3.022   4.076
 3265TIP3    H2 9802   0.711   3.013   4.082
 3266TIP3   OH2 9803   0.542   4.089   3.458
 3266TIP3    H1 9804   0.503   4.004   3.474
 3266TIP3    H2 9805   0.636   4.075   3.469
 3267TIP3   OH2 9806   1.373   5.140   0.770
 3267TIP3    H1 9807   1.442   5.077   0.749
 3267TIP3    H2 9808   1.340   5.112   0.855
 3268TIP3   OH2 9809   3.951   1.949   3.348
 3268TIP3    H1 9810   4.031   1.992   3.318
 3268TIP3    H2 9811   3.921   2.002   3.421
 3269TIP3   OH2 9812   1.508   1.081   2.388
 3269TIP3    H1 9813   1.480   1.152   2.330
 3269TIP3    H2 9814   1.514   1.122   2.474
 3270TIP3   OH2 9815   3.067   1.928   0.334
 3270TIP3    H1 9816   3.030   1.890   0.255
 3270TIP3    H2 9817   3.008   1.901   0.404
 3271TIP3   OH2 9818   5.697   2.835   2.102
 3271TIP3    H1 9819   5.742   2.825   2.186
 3271TIP3    H2 9820   5.740   2.772   2.044
 3272TIP3   OH2 9821   1.589   4.539   3.621
 3272TIP3    H1 9822   1.495   4.557   3.625
 3272TIP3    H2 9823   1.597   4.446   3.643
 3273TIP3   OH2 9824   0.749   4.843   0.410
 3273TIP3    H1 9825   0.661   4.815   0.437
 3273TIP3    H2 9826   0.751   4.936   0.431
 3274TIP3   OH2 9827   1.084   0.836   2.701
 3274TIP3    H1 9828   1.120   0.749   2.682
 3274TIP3    H2 9829   1.119   0.892   2.632
 3275TIP3   OH2 9830   1.304   4.536   2.916
 3275TIP3    H1 9831   1.356   4.469   2.873
 3275TIP3    H2 9832   1.335   4.619   2.879
 3276TIP3   OH2 9833   2.489   0.152   0.416
 3276TIP3    H1 9834   2.527   0.196   0.493
 3276TIP3    H2 9835   2.444   0.076   0.451
 3277TIP3   OH2 9836   3.070   5.443   0.524
 3277TIP3    H1 9837   3.152   5.402   0.498
 3277TIP3    H2 9838   3.024   5.460   0.441
 3278TIP3   OH2 9839   5.912   5.432   0.042
 3278TIP3    H1 9840   5.931   5.422   0.135
 3278TIP3    H2 9841   5.914   5.343   0.006
 3279TIP3   OH2 9842   4.673   2.595   3.070
 3279TIP3    H1 9843   4.747   2.587   3.009
 3279TIP3    H2 9844   4.631   2.678   3.046
 3280TIP3   OH2 9845   1.383   1.275   0.425
 3280TIP3    H1 9846   1.370   1.242   0.336
 3280TIP3    H2 9847   1.295   1.273   0.463
 3281TIP3   OH2 9848   5.494   0.645   4.192
 3281TIP3    H1 9849   5.445   0.569   4.162
 3281TIP3    H2 9850   5.584   0.613   4.201
 3282TIP3   OH2 9851   0.562   0.225   2.869
 3282TIP3    H1 9852   0.569   0.143   2.820
 3282TIP3    H2 9853   0.503   0.205   2.941
 3283TIP3   OH2 9854   3.601   5.247   3.219
 3283TIP3    H1 9855   3.640   5.219   3.137
 3283TIP3    H2 9856   3.629   5.181   3.283
 3284TIP3   OH2 9857   0.711   6.016   2.710
 3284TIP3    H1 9858   0.714   6.098   2.759
 3284TIP3    H2 9859   0.749   5.951   2.769
 3285TIP3   OH2 9860   4.934   3.166   3.669
 3285TIP3    H1 9861   4.916   3.238   3.730
 3285TIP3    H2 9862   4.870   3.099   3.692
 3286TIP3   OH2 9863   0.099   5.329   3.781
 3286TIP3    H1 9864   0.144   5.311   3.699
 3286TIP3    H2 9865   0.012   5.357   3.755
 3287TIP3   OH2 9866   2.683   1.019   1.356
 3287TIP3    H1 9867   2.732   1.003   1.436
 3287TIP3    H2 9868   2.593   1.030   1.385
 3288TIP3   OH2 9869   1.491   0.809   2.699
 3288TIP3    H1 9870   1.442   0.783   2.621
 3288TIP3    H2 9871   1.579   0.775   2.686
 3289TIP3   OH2 9872   5.782   3.993   2.722
 3289TIP3    H1 9873   5.772   4.056   2.793
 3289TIP3    H2 9874   5.861   4.020   2.677
 3290TIP3   OH2 9875   3.695   4.374   1.307
 3290TIP3    H1 9876   3.768   4.354   1.249
 3290TIP3    H2 9877   3.699   4.307   1.376
 3291TIP3   OH2 9878   0.183   3.859   3.636
 3291TIP3    H1 9879   0.118   3.929   3.639
 3291TIP3    H2 9880   0.253   3.887   3.695
 3292TIP3   OH2 9881   0.512   4.675   4.003
 3292TIP3    H1 9882   0.495   4.676   4.097
 3292TIP3    H2 9883   0.465   4.751   3.969
 3293TIP3   OH2 9884   1.042   0.428   3.859
 3293TIP3    H1 9885   1.021   0.505   3.912
 3293TIP3    H2 9886   0.988   0.358   3.894
 3294TIP3   OH2 9887   4.136   0.491   5.004
 3294TIP3    H1 9888   4.140   0.396   5.013
 3294TIP3    H2 9889   4.191   0.525   5.075
 3295TIP3   OH2 9890   4.812   0.363   4.015
 3295TIP3    H1 9891   4.721   0.337   4.025
 3295TIP3    H2 9892   4.815   0.406   3.929
 3296TIP3   OH2 9893   1.914   5.603   4.637
 3296TIP3    H1 9894   1.832   5.609   4.686
 3296TIP3    H2 9895   1.934   5.509   4.637
 3297TIP3   OH2 9896   5.290   1.254   4.988
 3297TIP3    H1 9897   5.381   1.284   4.977
 3297TIP3    H2 9898   5.287   1.221   5.077
 3298TIP3   OH2 9899   4.542   0.977   4.857
 3298TIP3    H1 9900   4.466   0.931   4.821
 3298TIP3    H2 9901   4.557   1.050   4.797
 3299TIP3   OH2 9902   0.532   5.551   3.848
 3299TIP3    H1 9903   0.476   5.607   3.794
 3299TIP3    H2 9904   0.601   5.609   3.879
 3300TIP3   OH2 9905   2.460   0.830   4.601
 3300TIP3    H1 9906   2.551   0.811   4.578
 3300TIP3    H2 9907   2.446   0.783   4.683
 3301TIP3   OH2 9908   4.498   5.256   4.051
 3301TIP3    H1 9909   4.419   5.224   4.096
 3301TIP3    H2 9910   4.494   5.351   4.064
 3302TIP3   OH2 9911   3.049   3.642   0.198
 3302TIP3    H1 9912   3.068   3.557   0.158
 3302TIP3    H2 9913   2.961   3.664   0.167
 3303TIP3   OH2 9914   5.584   2.924   3.955
 3303TIP3    H1 9915   5.676   2.909   3.935
 3303TIP3    H2 9916   5.560   3.003   3.906
 3304TIP3   OH2 9917   2.717   5.096   4.979
 3304TIP3    H1 9918   2.665   5.152   4.921
 3304TIP3    H2 9919   2.653   5.035   5.016
 3305TIP3   OH2 9920   6.145   0.294   3.972
 3305TIP3    H1 9921   6.122   0.214   3.925
 3305TIP3    H2 9922   6.159   0.359   3.904
 3306TIP3   OH2 9923   4.162   3.238   0.249
 3306TIP3    H1 9924   4.078   3.271   0.216
 3306TIP3    H2 9925   4.180   3.292   0.326
 3307TIP3   OH2 9926   1.658   4.670   2.158
 3307TIP3    H1 9927   1.605   4.595   2.130
 3307TIP3    H2 9928   1.692   4.644   2.244
 3308TIP3   OH2 9929   3.193   3.456   0.811
 3308TIP3    H1 9930   3.243   3.402   0.750
 3308TIP3    H2 9931   3.199   3.545   0.774
 3309TIP3   OH2 9932   5.886   2.282   0.107
 3309TIP3    H1 9933   5.976   2.250   0.116
 3309TIP3    H2 9934   5.852   2.238   0.029
 3310TIP3   OH2 9935   4.519   1.389   0.728
 3310TIP3    H1 9936   4.563   1.317   0.683
 3310TIP3    H2 9937   4.470   1.347   0.799
 3311TIP3   OH2 9938   4.092   4.885   0.980
 3311TIP3    H1 9939   4.065   4.939   0.906
 3311TIP3    H2 9940   4.011   4.866   1.027
 3312TIP3   OH2 9941   5.588   2.258   2.510
 3312TIP3    H1 9942   5.541   2.257   2.593
 3312TIP3    H2 9943   5.584   2.350   2.481
 3313TIP3   OH2 9944   5.529   5.262   0.195
 3313TIP3    H1 9945   5.487   5.226   0.274
 3313TIP3    H2 9946   5.598   5.319   0.229
 3314TIP3   OH2 9947   0.505   0.479   1.303
 3314TIP3    H1 9948   0.565   0.517   1.239
 3314TIP3    H2 9949   0.478   0.553   1.357
 3315TIP3   OH2 9950   5.818   1.370   4.114
 3315TIP3    H1 9951   5.821   1.279   4.085
 3315TIP3    H2 9952   5.733   1.378   4.158
 3316TIP3   OH2 9953   0.624   0.462   4.419
 3316TIP3    H1 9954   0.666   0.386   4.378
 3316TIP3    H2 9955   0.588   0.427   4.501
 3317TIP3   OH2 9956   0.442   3.737   1.391
 3317TIP3    H1 9957   0.445   3.829   1.415
 3317TIP3    H2 9958   0.412   3.736   1.301
 3318TIP3   OH2 9959   3.127   2.613   3.164
 3318TIP3    H1 9960   3.213   2.630   3.128
 3318TIP3    H2 9961   3.143   2.582   3.254
 3319TIP3   OH2 9962   0.482   4.021   0.332
 3319TIP3    H1 9963   0.396   4.054   0.304
 3319TIP3    H2 9964   0.542   4.050   0.263
 3320TIP3   OH2 9965   2.444   5.627   0.936
 3320TIP3    H1 9966   2.497   5.668   1.005
 3320TIP3    H2 9967   2.472   5.536   0.935
 3321TIP3   OH2 9968   4.521   4.176   2.684
 3321TIP3    H1 9969   4.533   4.156   2.776
 3321TIP3    H2 9970   4.490   4.094   2.645
 3322TIP3   OH2 9971   2.851   4.233   5.079
 3322TIP3    H1 9972   2.782   4.173   5.051
 3322TIP3    H2 9973   2.929   4.203   5.032
 3323TIP3   OH2 9974   1.960   2.627   2.889
 3323TIP3    H1 9975   1.911   2.659   2.964
 3323TIP3    H2 9976   1.944   2.692   2.820
 3324TIP3   OH2 9977   2.427   0.505   4.255
 3324TIP3    H1 9978   2.350   0.535   4.303
 3324TIP3    H2 9979   2.393   0.484   4.167
 3325TIP3   OH2 9980   5.923   5.484   0.364
 3325TIP3    H1 9981   5.928   5.571   0.404
 3325TIP3    H2 9982   5.835   5.480   0.328
 3326TIP3   OH2 9983   3.237   2.325   4.223
 3326TIP3    H1 9984   3.225   2.367   4.309
 3326TIP3    H2 9985   3.312   2.266   4.235
 3327TIP3   OH2 9986   5.084   1.181   4.454
 3327TIP3    H1 9987   5.075   1.221   4.367
 3327TIP3    H2 9988   5.058   1.250   4.515
 3328TIP3   OH2 9989   1.086   5.386   1.704
 3328TIP3    H1 9990   1.133   5.469   1.700
 3328TIP3    H2 9991   1.123   5.334   1.633
 3329TIP3   OH2 9992   2.551   3.192   3.258
 3329TIP3    H1 9993   2.629   3.185   3.313
 3329TIP3    H2 9994   2.564   3.126   3.190
 3330TIP3   OH2 9995   3.043   2.402   2.444
 3330TIP3    H1 9996   3.067   2.313   2.467
 3330TIP3    H2 9997   3.014   2.397   2.353
 3331TIP3   OH2 9998   1.718   2.589   3.853
 3331TIP3    H1 9999   1.813   2.598   3.849
 3331TIP3    H210000   1.693   2.557   3.766
 3332TIP3   OH210001   4.004   0.157   0.756
 3332TIP3    H110002   4.057   0.235   0.738
 3332TIP3    H210003   3.945   0.184   0.826
 3333TIP3   OH210004   1.320   3.944   3.058
 3333TIP3    H110005   1.412   3.964   3.046
 3333TIP3    H210006   1.278   4.030   3.070
 3334TIP3   OH210007   2.251   3.626   2.717
 3334TIP3    H110008   2.238   3.662   2.630
 3334TIP3    H210009   2.256   3.702   2.774
 3335TIP3   OH210010   3.900   2.014   1.624
 3335TIP3    H110011   3.913   1.959   1.547
 3335TIP3    H210012   3.853   1.959   1.686
 3336TIP3   OH210013   3.155   0.916   5.016
 3336TIP3    H110014   3.120   0.985   4.960
 3336TIP3    H210015   3.079   0.884   5.065
 3337TIP3   OH210016   3.922   2.303   3.313
 3337TIP3    H110017   3.942   2.233   3.375
 3337TIP3    H210018   3.993   2.301   3.250
 3338TIP3   OH210019   2.430   1.654   2.321
 3338TIP3    H110020   2.485   1.631   2.397
 3338TIP3    H210021   2.493   1.678   2.253
 3339TIP3   OH210022   0.278   1.292   1.364
 3339TIP3    H110023   0.228   1.272   1.443
 3339TIP3    H210024   0.331   1.368   1.389
 3340TIP3   OH210025   1.483   0.406   1.487
 3340TIP3    H110026   1.517   0.495   1.483
 3340TIP3    H210027   1.403   0.408   1.434
 3341TIP3   OH210028   6.007   4.171   0.769
 3341TIP3    H110029   6.044   4.196   0.854
 3341TIP3    H210030   6.029   4.078   0.760
 3342TIP3   OH210031   0.261   5.257   2.233
 3342TIP3    H110032   0.335   5.219   2.185
 3342TIP3    H210033   0.280   5.350   2.239
 3343TIP3   OH210034   2.074   4.092   0.890
 3343TIP3    H110035   2.159   4.064   0.921
 3343TIP3    H210036   2.082   4.096   0.795
 3344TIP3   OH210037   4.861   3.779   2.550
 3344TIP3    H110038   4.895   3.847   2.491
 3344TIP3    H210039   4.886   3.696   2.508
 3345TIP3   OH210040   5.967   5.829   2.551
 3345TIP3    H110041   5.967   5.883   2.472
 3345TIP3    H210042   5.875   5.812   2.569
 3346TIP3   OH210043   4.115   2.640   4.819
 3346TIP3    H110044   4.125   2.571   4.885
 3346TIP3    H210045   4.045   2.695   4.852
 3347TIP3   OH210046   4.382   1.479   1.213
 3347TIP3    H110047   4.335   1.538   1.155
 3347TIP3    H210048   4.437   1.427   1.155
 3348TIP3   OH210049   4.751   4.697   1.393
 3348TIP3    H110050   4.726   4.727   1.306
 3348TIP3    H210051   4.842   4.722   1.403
 3349TIP3   OH210052   3.179   3.836   1.072
 3349TIP3    H110053   3.129   3.785   1.136
 3349TIP3    H210054   3.171   3.926   1.102
 3350TIP3   OH210055   4.237   5.469   0.880
 3350TIP3    H110056   4.180   5.436   0.810
 3350TIP3    H210057   4.206   5.558   0.896
 3351TIP3   OH210058   1.269   3.574   0.522
 3351TIP3    H110059   1.176   3.584   0.504
 3351TIP3    H210060   1.276   3.582   0.617
 3352TIP3   OH210061   1.307   0.153   0.299
 3352TIP3    H110062   1.319   0.193   0.386
 3352TIP3    H210063   1.226   0.192   0.266
 3353TIP3   OH210064   0.780   1.432   4.270
 3353TIP3    H110065   0.783   1.380   4.190
 3353TIP3    H210066   0.860   1.484   4.269
 3354TIP3   OH210067   2.067   2.521   3.292
 3354TIP3    H110068   2.005   2.488   3.227
 3354TIP3    H210069   2.144   2.546   3.241
 3355TIP3   OH210070   1.900   3.927   2.676
 3355TIP3    H110071   1.827   3.885   2.630
 3355TIP3    H210072   1.863   4.009   2.709
 3356TIP3   OH210073   4.311   1.982   2.822
 3356TIP3    H110074   4.264   1.901   2.802
 3356TIP3    H210075   4.281   2.044   2.756
 3357TIP3   OH210076   4.984   4.533   4.817
 3357TIP3    H110077   4.898   4.566   4.845
 3357TIP3    H210078   4.963   4.463   4.756
 3358TIP3   OH210079   1.623   5.711   2.333
 3358TIP3    H110080   1.657   5.667   2.411
 3358TIP3    H210081   1.634   5.648   2.263
 3359TIP3   OH210082   3.777   5.117   0.463
 3359TIP3    H110083   3.779   5.056   0.537
 3359TIP3    H210084   3.822   5.071   0.392
 3360TIP3   OH210085   1.823   3.374   3.751
 3360TIP3    H110086   1.843   3.413   3.665
 3360TIP3    H210087   1.746   3.422   3.782
 3361TIP3   OH210088   0.128   1.663   4.715
 3361TIP3    H110089   0.182   1.703   4.647
 3361TIP3    H210090   0.137   1.569   4.701
 3362TIP3   OH210091   5.024   1.616   2.586
 3362TIP3    H110092   4.931   1.597   2.582
 3362TIP3    H210093   5.039   1.642   2.677
 3363TIP3   OH210094   3.030   1.742   4.854
 3363TIP3    H110095   3.082   1.667   4.826
 3363TIP3    H210096   3.078   1.778   4.929
 3364TIP3   OH210097   0.662   2.006   1.045
 3364TIP3    H110098   0.590   2.060   1.011
 3364TIP3    H210099   0.740   2.038   0.997
 3365TIP3   OH210100   0.023   4.008   2.517
 3365TIP3    H110101  -0.046   4.072   2.499
 3365TIP3    H210102   0.078   4.050   2.583
 3366TIP3   OH210103   0.048   4.276   2.020
 3366TIP3    H110104   0.128   4.327   2.030
 3366TIP3    H210105   0.039   4.228   2.102
 3367TIP3   OH210106   3.773   1.774   0.928
 3367TIP3    H110107   3.845   1.825   0.893
 3367TIP3    H210108   3.815   1.699   0.970
 3368TIP3   OH210109   0.382   1.172   3.711
 3368TIP3    H110110   0.466   1.133   3.736
 3368TIP3    H210111   0.385   1.179   3.616
 3369TIP3   OH210112   2.417   3.598   0.054
 3369TIP3    H110113   2.479   3.525   0.057
 3369TIP3    H210114   2.409   3.626   0.145
 3370TIP3   OH210115   1.161   1.591   2.786
 3370TIP3    H110116   1.156   1.495   2.784
 3370TIP3    H210117   1.075   1.620   2.758
 3371TIP3   OH210118   6.137   2.022   3.509
 3371TIP3    H110119   6.149   2.063   3.424
 3371TIP3    H210120   6.113   2.094   3.567
 3372TIP3   OH210121   4.652   4.031   0.589
 3372TIP3    H110122   4.605   4.074   0.517
 3372TIP3    H210123   4.644   3.938   0.570
 3373TIP3   OH210124   6.281   2.367   3.955
 3373TIP3    H110125   6.281   2.316   3.874
 3373TIP3    H210126   6.205   2.335   4.004
 3374TIP3   OH210127   2.254   0.638   4.540
 3374TIP3    H110128   2.297   0.554   4.554
 3374TIP3    H210129   2.323   0.703   4.549
 3375TIP3   OH210130   6.033   3.437   1.861
 3375TIP3    H110131   6.097   3.432   1.932
 3375TIP3    H210132   6.074   3.493   1.795
 3376TIP3   OH210133   0.599   2.712   2.733
 3376TIP3    H110134   0.603   2.801   2.698
 3376TIP3    H210135   0.518   2.676   2.697
 3377TIP3   OH210136   4.765   2.283   0.695
 3377TIP3    H110137   4.847   2.271   0.741
 3377TIP3    H210138   4.761   2.377   0.676
 3378TIP3   OH210139   2.221   5.369   2.486
 3378TIP3    H110140   2.193   5.338   2.572
 3378TIP3    H210141   2.244   5.461   2.500
 3379TIP3   OH210142   1.095   5.019   0.405
 3379TIP3    H110143   1.053   5.099   0.376
 3379TIP3    H210144   1.044   4.949   0.365
 3380TIP3   OH210145   0.259   1.456   3.563
 3380TIP3    H110146   0.282   1.542   3.528
 3380TIP3    H210147   0.339   1.424   3.605
 3381TIP3   OH210148   4.620   5.148   2.753
 3381TIP3    H110149   4.543   5.204   2.745
 3381TIP3    H210150   4.601   5.090   2.826
 3382TIP3   OH210151   5.092   5.657   1.604
 3382TIP3    H110152   5.184   5.657   1.632
 3382TIP3    H210153   5.044   5.625   1.680
 3383TIP3   OH210154   4.667   5.028   0.592
 3383TIP3    H110155   4.587   5.057   0.548
 3383TIP3    H210156   4.665   4.933   0.584
 3384TIP3   OH210157   1.095   4.186   1.715
 3384TIP3    H110158   1.033   4.230   1.657
 3384TIP3    H210159   1.162   4.151   1.656
 3385TIP3   OH210160   0.333   4.329   1.310
 3385TIP3    H110161   0.240   4.305   1.311
 3385TIP3    H210162   0.337   4.413   1.354
 3386TIP3   OH210163   4.506   2.120   1.456
 3386TIP3    H110164   4.552   2.197   1.422
 3386TIP3    H210165   4.454   2.155   1.528
 3387TIP3   OH210166   1.822   0.422   1.172
 3387TIP3    H110167   1.876   0.481   1.121
 3387TIP3    H210168   1.759   0.387   1.109
 3388TIP3   OH210169   5.126   3.942   0.280
 3388TIP3    H110170   5.200   3.998   0.254
 3388TIP3    H210171   5.100   3.977   0.366
 3389TIP3   OH210172   5.942   2.489   0.740
 3389TIP3    H110173   5.921   2.459   0.652
 3389TIP3    H210174   5.871   2.455   0.795
 3390TIP3   OH210175   2.957   0.979   4.791
 3390TIP3    H110176   2.947   1.013   4.702
 3390TIP3    H210177   2.975   1.057   4.844
 3391TIP3   OH210178   3.885   4.516   0.473
 3391TIP3    H110179   3.939   4.587   0.438
 3391TIP3    H210180   3.903   4.442   0.416
 3392TIP3   OH210181   1.693   1.673   4.309
 3392TIP3    H110182   1.688   1.582   4.280
 3392TIP3    H210183   1.711   1.723   4.230
 3393TIP3   OH210184   6.004   3.458   2.213
 3393TIP3    H110185   6.020   3.397   2.285
 3393TIP3    H210186   6.058   3.425   2.142
 3394TIP3   OH210187   4.152   1.697   1.833
 3394TIP3    H110188   4.133   1.733   1.920
 3394TIP3    H210189   4.214   1.759   1.795
 3395TIP3   OH210190   0.517   5.438   1.112
 3395TIP3    H110191   0.466   5.409   1.036
 3395TIP3    H210192   0.499   5.532   1.118
 3396TIP3   OH210193   5.108   1.830   2.459
 3396TIP3    H110194   5.084   1.739   2.476
 3396TIP3    H210195   5.186   1.844   2.512
 3397TIP3   OH210196   2.342   3.537   1.572
 3397TIP3    H110197   2.402   3.554   1.644
 3397TIP3    H210198   2.255   3.550   1.609
 3398TIP3   OH210199   5.636   5.494   0.291
 3398TIP3    H110200   5.557   5.538   0.258
 3398TIP3    H210201   5.660   5.542   0.370
 3399TIP3   OH210202   2.416   0.651   4.870
 3399TIP3    H110203   2.506   0.647   4.837
 3399TIP3    H210204   2.426   0.659   4.965
 3400TIP3   OH210205   1.452   4.849   4.732
 3400TIP3    H110206   1.495   4.920   4.684
 3400TIP3    H210207   1.521   4.785   4.748
 3401TIP3   OH210208   5.177   0.387   2.806
 3401TIP3    H110209   5.183   0.303   2.851
 3401TIP3    H210210   5.236   0.379   2.732
 3402TIP3   OH210211   4.411   4.270   1.756
 3402TIP3    H110212   4.452   4.307   1.678
 3402TIP3    H210213   4.458   4.310   1.829
 3403TIP3   OH210214   2.359   3.226   3.560
 3403TIP3    H110215   2.327   3.269   3.639
 3403TIP3    H210216   2.374   3.298   3.498
 3404TIP3   OH210217   2.351   4.317   1.510
 3404TIP3    H110218   2.284   4.378   1.542
 3404TIP3    H210219   2.306   4.232   1.505
 3405TIP3   OH210220   4.384   0.915   1.320
 3405TIP3    H110221   4.358   0.900   1.411
 3405TIP3    H210222   4.304   0.898   1.269
 3406TIP3   OH210223   0.441   4.013   1.074
 3406TIP3    H110224   0.491   3.932   1.067
 3406TIP3    H210225   0.452   4.056   0.990
 3407TIP3   OH210226   3.079   5.396   2.509
 3407TIP3    H110227   3.098   5.306   2.484
 3407TIP3    H210228   3.118   5.404   2.597
 3408TIP3   OH210229   1.871   2.762   1.509
 3408TIP3    H110230   1.928   2.687   1.526
 3408TIP3    H210231   1.790   2.742   1.557
 3409TIP3   OH210232   1.675   5.571   2.551
 3409TIP3    H110233   1.768   5.550   2.546
 3409TIP3    H210234   1.644   5.523   2.628
 3410TIP3   OH210235   6.058   2.724   0.838
 3410TIP3    H110236   6.150   2.712   0.815
 3410TIP3    H210237   6.012   2.659   0.785
 3411TIP3   OH210238   4.858   5.772   2.415
 3411TIP3    H110239   4.913   5.849   2.427
 3411TIP3    H210240   4.769   5.806   2.411
 3412TIP3   OH210241   0.252   3.029   1.257
 3412TIP3    H110242   0.283   3.087   1.327
 3412TIP3    H210243   0.157   3.040   1.257
 3413TIP3   OH210244   4.394   1.060   2.719
 3413TIP3    H110245   4.435   1.111   2.789
 3413TIP3    H210246   4.325   1.117   2.685
 3414TIP3   OH210247   1.976   3.433   0.014
 3414TIP3    H110248   2.052   3.439  -0.044
 3414TIP3    H210249   2.003   3.373   0.083
 3415TIP3   OH210250   4.147   5.738   0.968
 3415TIP3    H110251   4.133   5.832   0.983
 3415TIP3    H210252   4.132   5.698   1.054
 3416TIP3   OH210253   0.461   1.763   1.048
 3416TIP3    H110254   0.533   1.824   1.060
 3416TIP3    H210255   0.448   1.759   0.953
 3417TIP3   OH210256   0.321   2.573   5.156
 3417TIP3    H110257   0.338   2.663   5.184
 3417TIP3    H210258   0.384   2.520   5.206
 3418TIP3   OH210259   2.068   0.310   1.046
 3418TIP3    H110260   2.042   0.218   1.047
 3418TIP3    H210261   2.058   0.337   0.954
 3419TIP3   OH210262   2.498   4.991   0.386
 3419TIP3    H110263   2.558   5.000   0.460
 3419TIP3    H210264   2.413   5.020   0.420
 3420TIP3   OH210265   0.016   3.245   1.073
 3420TIP3    H110266  -0.008   3.160   1.110
 3420TIP3    H210267   0.063   3.290   1.143
 3421TIP3   OH210268   6.193   3.632   3.865
 3421TIP3    H110269   6.247   3.553   3.875
 3421TIP3    H210270   6.252   3.704   3.886
 3422TIP3   OH210271   4.279   2.496   4.439
 3422TIP3    H110272   4.347   2.550   4.398
 3422TIP3    H210273   4.328   2.427   4.484
 3423TIP3   OH210274   0.444   4.733   0.145
 3423TIP3    H110275   0.454   4.823   0.113
 3423TIP3    H210276   0.502   4.681   0.090
 3424TIP3   OH210277   1.017   4.341   2.097
 3424TIP3    H110278   0.964   4.263   2.106
 3424TIP3    H210279   0.958   4.414   2.117
 3425TIP3   OH210280   0.140   3.499   2.656
 3425TIP3    H110281   0.151   3.426   2.596
 3425TIP3    H210282   0.153   3.577   2.602
 3426TIP3   OH210283   3.114   5.493   3.815
 3426TIP3    H110284   3.191   5.443   3.788
 3426TIP3    H210285   3.149   5.578   3.843
 3427TIP3   OH210286   4.961   4.199   3.687
 3427TIP3    H110287   4.901   4.126   3.673
 3427TIP3    H210288   4.999   4.217   3.601
 3428TIP3   OH210289   4.827   0.635   1.132
 3428TIP3    H110290   4.805   0.712   1.080
 3428TIP3    H210291   4.742   0.600   1.160
 3429TIP3   OH210292   0.565   0.107   4.849
 3429TIP3    H110293   0.520   0.083   4.930
 3429TIP3    H210294   0.530   0.048   4.783
 3430TIP3   OH210295   2.337   0.131   0.692
 3430TIP3    H110296   2.257   0.133   0.745
 3430TIP3    H210297   2.334   0.046   0.648
 3431TIP3   OH210298   3.910   0.616   3.731
 3431TIP3    H110299   3.906   0.572   3.646
 3431TIP3    H210300   3.842   0.683   3.726
 3432TIP3   OH210301   0.339   1.338   2.373
 3432TIP3    H110302   0.309   1.372   2.458
 3432TIP3    H210303   0.429   1.369   2.365
 3433TIP3   OH210304   3.926   5.398   3.337
 3433TIP3    H110305   3.837   5.393   3.373
 3433TIP3    H210306   3.963   5.478   3.375
 3434TIP3   OH210307   4.905   1.686   2.153
 3434TIP3    H110308   4.843   1.618   2.180
 3434TIP3    H210309   4.952   1.648   2.079
 3435TIP3   OH210310   0.345   3.084   3.052
 3435TIP3    H110311   0.440   3.090   3.063
 3435TIP3    H210312   0.316   3.035   3.129
 3436TIP3   OH210313   0.919   2.131   1.471
 3436TIP3    H110314   0.958   2.058   1.520
 3436TIP3    H210315   0.893   2.092   1.387
 3437TIP3   OH210316   1.226   1.358   4.965
 3437TIP3    H110317   1.176   1.409   4.901
 3437TIP3    H210318   1.245   1.276   4.920
 3438TIP3   OH210319   0.980   0.243   3.637
 3438TIP3    H110320   0.967   0.172   3.700
 3438TIP3    H210321   1.000   0.320   3.690
 3439TIP3   OH210322   4.223   4.546   0.254
 3439TIP3    H110323   4.142   4.521   0.208
 3439TIP3    H210324   4.251   4.466   0.298
 3440TIP3   OH210325   4.090   1.640   4.341
 3440TIP3    H110326   4.061   1.728   4.318
 3440TIP3    H210327   4.138   1.610   4.264
 3441TIP3   OH210328   4.845   3.227   2.779
 3441TIP3    H110329   4.833   3.298   2.715
 3441TIP3    H210330   4.934   3.239   2.812
 3442TIP3   OH210331   3.341   5.087   0.333
 3442TIP3    H110332   3.380   5.172   0.310
 3442TIP3    H210333   3.318   5.096   0.426
 3443TIP3   OH210334   1.480   2.251   1.537
 3443TIP3    H110335   1.550   2.226   1.477
 3443TIP3    H210336   1.483   2.184   1.606
 3444TIP3   OH210337   3.583   5.194   4.320
 3444TIP3    H110338   3.675   5.208   4.341
 3444TIP3    H210339   3.560   5.112   4.364
 3445TIP3   OH210340   5.645   3.253   4.500
 3445TIP3    H110341   5.638   3.264   4.595
 3445TIP3    H210342   5.573   3.194   4.478
 3446TIP3   OH210343   4.565   2.085   0.475
 3446TIP3    H110344   4.657   2.080   0.450
 3446TIP3    H210345   4.567   2.105   0.569
 3447TIP3   OH210346   1.845   0.918   2.999
 3447TIP3    H110347   1.939   0.911   2.988
 3447TIP3    H210348   1.811   0.926   2.910
 3448TIP3   OH210349   1.771   0.568   4.009
 3448TIP3    H110350   1.762   0.609   3.923
 3448TIP3    H210351   1.713   0.619   4.065
 3449TIP3   OH210352   1.872   4.994   4.968
 3449TIP3    H110353   1.931   4.949   5.028
 3449TIP3    H210354   1.919   5.073   4.942
 3450TIP3   OH210355   1.643   4.480   4.702
 3450TIP3    H110356   1.700   4.556   4.698
 3450TIP3    H210357   1.563   4.507   4.657
 3451TIP3   OH210358   0.788   1.576   1.622
 3451TIP3    H110359   0.782   1.482   1.643
 3451TIP3    H210360   0.816   1.617   1.704
 3452TIP3   OH210361   1.601   1.885   2.158
 3452TIP3    H110362   1.591   1.806   2.210
 3452TIP3    H210363   1.676   1.931   2.196
 3453TIP3   OH210364   5.988   5.512   1.188
 3453TIP3    H110365   5.955   5.468   1.110
 3453TIP3    H210366   5.918   5.499   1.253
 3454TIP3   OH210367   0.129   5.643   2.797
 3454TIP3    H110368   0.125   5.608   2.709
 3454TIP3    H210369   0.080   5.580   2.850
 3455TIP3   OH210370   1.687   0.262   4.178
 3455TIP3    H110371   1.735   0.273   4.260
 3455TIP3    H210372   1.724   0.328   4.120
 3456TIP3   OH210373   6.039   5.867   5.136
 3456TIP3    H110374   6.053   5.782   5.178
 3456TIP3    H210375   6.092   5.862   5.056
 3457TIP3   OH210376   6.313   0.464   1.978
 3457TIP3    H110377   6.390   0.440   1.927
 3457TIP3    H210378   6.251   0.498   1.913
 3458TIP3   OH210379   4.456   5.078   4.932
 3458TIP3    H110380   4.373   5.125   4.930
 3458TIP3    H210381   4.508   5.118   4.862
 3459TIP3   OH210382   4.241   4.467   3.176
 3459TIP3    H110383   4.306   4.408   3.216
 3459TIP3    H210384   4.288   4.550   3.166
 3460TIP3   OH210385   1.876   4.337   4.466
 3460TIP3    H110386   1.896   4.427   4.439
 3460TIP3    H210387   1.781   4.338   4.482
 3461TIP3   OH210388   1.466   0.685   3.523
 3461TIP3    H110389   1.390   0.737   3.549
 3461TIP3    H210390   1.438   0.641   3.443
 3462TIP3   OH210391   6.097   0.364   3.121
 3462TIP3    H110392   6.180   0.411   3.122
 3462TIP3    H210393   6.033   0.429   3.094
 3463TIP3   OH210394   5.881   4.914   4.579
 3463TIP3    H110395   5.825   4.981   4.538
 3463TIP3    H210396   5.941   4.964   4.634
 3464TIP3   OH210397   1.635   4.623   5.008
 3464TIP3    H110398   1.701   4.651   4.944
 3464TIP3    H210399   1.643   4.528   5.011
 3465TIP3   OH210400   2.209   0.800   1.011
 3465TIP3    H110401   2.222   0.827   1.102
 3465TIP3    H210402   2.296   0.772   0.982
 3466TIP3   OH210403   0.026   5.555   3.261
 3466TIP3    H110404   0.116   5.553   3.294
 3466TIP3    H210405  -0.004   5.645   3.276
 3467TIP3   OH210406   4.172   5.182   0.511
 3467TIP3    H110407   4.140   5.214   0.427
 3467TIP3    H210408   4.132   5.095   0.520
 3468TIP3   OH210409   5.613   1.580   2.537
 3468TIP3    H110410   5.658   1.504   2.574
 3468TIP3    H210411   5.653   1.591   2.451
 3469TIP3   OH210412   0.987  -0.022   4.650
 3469TIP3    H110413   0.939  -0.084   4.705
 3469TIP3    H210414   1.051   0.018   4.709
 3470TIP3   OH210415   3.088   4.740   1.302
 3470TIP3    H110416   3.039   4.735   1.384
 3470TIP3    H210417   3.039   4.802   1.249
 3471TIP3   OH210418   4.986   3.861   3.724
 3471TIP3    H110419   5.007   3.787   3.668
 3471TIP3    H210420   5.064   3.873   3.778
 3472TIP3   OH210421   4.010   3.989   4.402
 3472TIP3    H110422   3.929   3.986   4.453
 3472TIP3    H210423   4.052   4.071   4.427
 3473TIP3   OH210424   4.771   5.544   3.419
 3473TIP3    H110425   4.853   5.497   3.401
 3473TIP3    H210426   4.722   5.486   3.477
 3474TIP3   OH210427   5.249   3.340   1.605
 3474TIP3    H110428   5.305   3.280   1.654
 3474TIP3    H210429   5.206   3.393   1.672
 3475TIP3   OH210430   4.615   4.968   0.902
 3475TIP3    H110431   4.523   4.979   0.926
 3475TIP3    H210432   4.614   4.901   0.833
 3476TIP3   OH210433   3.920   1.245   3.055
 3476TIP3    H110434   4.010   1.212   3.055
 3476TIP3    H210435   3.929   1.340   3.049
 3477TIP3   OH210436   1.998   1.621   0.274
 3477TIP3    H110437   2.072   1.681   0.277
 3477TIP3    H210438   2.037   1.535   0.261
 3478TIP3   OH210439   3.637   4.822   3.891
 3478TIP3    H110440   3.706   4.882   3.917
 3478TIP3    H210441   3.617   4.773   3.971
 3479TIP3   OH210442   6.084   5.670   0.103
 3479TIP3    H110443   6.166   5.625   0.086
 3479TIP3    H210444   6.016   5.604   0.087
 3480TIP3   OH210445   4.887   2.659   4.948
 3480TIP3    H110446   4.931   2.607   5.015
 3480TIP3    H210447   4.823   2.600   4.909
 3481TIP3   OH210448   3.182   5.619   1.684
 3481TIP3    H110449   3.174   5.696   1.741
 3481TIP3    H210450   3.113   5.631   1.618
 3482TIP3   OH210451   6.136   4.472   0.786
 3482TIP3    H110452   6.052   4.470   0.832
 3482TIP3    H210453   6.192   4.528   0.839
 3483TIP3   OH210454   0.219   5.638   3.781
 3483TIP3    H110455   0.208   5.549   3.814
 3483TIP3    H210456   0.171   5.693   3.843
 3484TIP3   OH210457   5.797   2.317   3.278
 3484TIP3    H110458   5.747   2.283   3.352
 3484TIP3    H210459   5.771   2.262   3.204
 3485TIP3   OH210460   6.105   2.277   4.133
 3485TIP3    H110461   6.076   2.340   4.198
 3485TIP3    H210462   6.024   2.237   4.100
 3486TIP3   OH210463   1.583   5.190   5.032
 3486TIP3    H110464   1.527   5.268   5.031
 3486TIP3    H210465   1.596   5.169   4.939
 3487TIP3   OH210466   1.689   5.720   2.845
 3487TIP3    H110467   1.778   5.683   2.843
 3487TIP3    H210468   1.693   5.786   2.915
 3488TIP3   OH210469   2.003   0.570   2.494
 3488TIP3    H110470   2.041   0.484   2.478
 3488TIP3    H210471   1.940   0.583   2.422
 3489TIP3   OH210472   2.931   2.953   3.309
 3489TIP3    H110473   2.900   2.878   3.257
 3489TIP3    H210474   2.879   2.949   3.389
 3490TIP3   OH210475   3.348   4.679   0.485
 3490TIP3    H110476   3.381   4.719   0.404
 3490TIP3    H210477   3.427   4.656   0.534
 3491TIP3   OH210478   6.081   5.151   4.410
 3491TIP3    H110479   6.174   5.154   4.389
 3491TIP3    H210480   6.064   5.232   4.458
 3492TIP3   OH210481   2.796   0.031   2.428
 3492TIP3    H110482   2.795   0.042   2.523
 3492TIP3    H210483   2.704   0.018   2.405
 3493TIP3   OH210484   4.258   5.715   4.679
 3493TIP3    H110485   4.173   5.706   4.722
 3493TIP3    H210486   4.238   5.742   4.589
 3494TIP3   OH210487   3.093   0.511   1.771
 3494TIP3    H110488   3.042   0.590   1.752
 3494TIP3    H210489   3.164   0.542   1.827
 3495TIP3   OH210490   3.842   3.946   2.239
 3495TIP3    H110491   3.879   3.860   2.260
 3495TIP3    H210492   3.747   3.932   2.240
 3496TIP3   OH210493   5.150   5.048   1.285
 3496TIP3    H110494   5.054   5.052   1.279
 3496TIP3    H210495   5.169   5.066   1.377
 3497TIP3   OH210496   5.987   1.987   1.796
 3497TIP3    H110497   5.992   2.041   1.717
 3497TIP3    H210498   5.894   1.990   1.821
 3498TIP3   OH210499   2.640   0.653   2.220
 3498TIP3    H110500   2.715   0.596   2.239
 3498TIP3    H210501   2.611   0.683   2.306
 3499TIP3   OH210502   2.665   1.910   2.572
 3499TIP3    H110503   2.669   1.963   2.651
 3499TIP3    H210504   2.571   1.893   2.559
 3500TIP3   OH210505   3.932   2.835   0.953
 3500TIP3    H110506   3.892   2.915   0.918
 3500TIP3    H210507   4.009   2.865   1.001
 3501TIP3   OH210508   5.561   5.206   3.936
 3501TIP3    H110509   5.641   5.194   3.885
 3501TIP3    H210510   5.585   5.271   4.003
 3502TIP3   OH210511   0.435   5.139   2.544
 3502TIP3    H110512   0.531   5.129   2.546
 3502TIP3    H210513   0.419   5.223   2.586
 3503TIP3   OH210514   3.906   5.201   1.620
 3503TIP3    H110515   3.974   5.264   1.595
 3503TIP3    H210516   3.868   5.173   1.537
 3504TIP3   OH210517   0.817   5.471   1.047
 3504TIP3    H110518   0.751   5.491   0.980
 3504TIP3    H210519   0.897   5.512   1.013
 3505TIP3   OH210520   1.912   1.444   4.974
 3505TIP3    H110521   1.821   1.414   4.968
 3505TIP3    H210522   1.952   1.385   5.037
 3506TIP3   OH210523   1.018   4.785   4.285
 3506TIP3    H110524   1.075   4.858   4.261
 3506TIP3    H210525   0.946   4.789   4.222
 3507TIP3   OH210526   4.845   3.293   1.405
 3507TIP3    H110527   4.926   3.247   1.383
 3507TIP3    H210528   4.866   3.343   1.484
 3508TIP3   OH210529   1.037   3.728   3.659
 3508TIP3    H110530   1.035   3.692   3.570
 3508TIP3    H210531   0.945   3.740   3.681
 3509TIP3   OH210532   3.359   3.091   4.875
 3509TIP3    H110533   3.273   3.120   4.844
 3509TIP3    H210534   3.348   2.996   4.887
 3510TIP3   OH210535   1.187   3.358   3.107
 3510TIP3    H110536   1.266   3.408   3.126
 3510TIP3    H210537   1.218   3.268   3.092
 3511TIP3   OH210538   0.773   5.291   0.165
 3511TIP3    H110539   0.773   5.321   0.075
 3511TIP3    H210540   0.866   5.287   0.188
 3512TIP3   OH210541   0.557   4.031   5.073
 3512TIP3    H110542   0.616   4.000   5.142
 3512TIP3    H210543   0.613   4.081   5.014
 3513TIP3   OH210544   5.417   0.195   2.892
 3513TIP3    H110545   5.414   0.112   2.939
 3513TIP3    H210546   5.376   0.176   2.808
 3514TIP3   OH210547   3.665   2.265   2.891
 3514TIP3    H110548   3.664   2.273   2.796
 3514TIP3    H210549   3.689   2.352   2.922
 3515TIP3   OH210550   4.723   3.068   3.415
 3515TIP3    H110551   4.629   3.083   3.429
 3515TIP3    H210552   4.729   3.044   3.322
 3516TIP3   OH210553   4.442   4.945   4.149
 3516TIP3    H110554   4.364   4.972   4.197
 3516TIP3    H210555   4.503   4.915   4.218
 3517TIP3   OH210556   2.031   4.123   4.439
 3517TIP3    H110557   2.111   4.158   4.399
 3517TIP3    H210558   1.983   4.200   4.468
 3518TIP3   OH210559   6.143   5.185   1.142
 3518TIP3    H110560   6.065   5.160   1.092
 3518TIP3    H210561   6.182   5.256   1.092
 3519TIP3   OH210562   0.728   4.903   2.331
 3519TIP3    H110563   0.637   4.874   2.331
 3519TIP3    H210564   0.775   4.835   2.379
 3520TIP3   OH210565   2.715   5.821   4.939
 3520TIP3    H110566   2.649   5.859   4.997
 3520TIP3    H210567   2.747   5.895   4.887
 3521TIP3   OH210568   3.354   0.139   0.435
 3521TIP3    H110569   3.342   0.110   0.344
 3521TIP3    H210570   3.382   0.059   0.481
 3522TIP3   OH210571   1.287   4.739   4.128
 3522TIP3    H110572   1.199   4.725   4.093
 3522TIP3    H210573   1.343   4.683   4.074
 3523TIP3   OH210574   2.720   0.658   3.306
 3523TIP3    H110575   2.656   0.629   3.371
 3523TIP3    H210576   2.718   0.754   3.313
 3524TIP3   OH210577   1.223   5.341   4.101
 3524TIP3    H110578   1.256   5.430   4.092
 3524TIP3    H210579   1.188   5.337   4.190
 3525TIP3   OH210580   0.807   4.494   1.090
 3525TIP3    H110581   0.855   4.572   1.063
 3525TIP3    H210582   0.845   4.471   1.175
 3526TIP3   OH210583   1.129   1.507   2.057
 3526TIP3    H110584   1.196   1.502   1.989
 3526TIP3    H210585   1.094   1.596   2.049
 3527TIP3   OH210586   1.305   4.300   2.184
 3527TIP3    H110587   1.241   4.367   2.205
 3527TIP3    H210588   1.278   4.268   2.098
 3528TIP3   OH210589   4.446   0.473   2.740
 3528TIP3    H110590   4.524   0.527   2.732
 3528TIP3    H210591   4.472   0.388   2.705
 3529TIP3   OH210592   6.175   3.538   4.199
 3529TIP3    H110593   6.212   3.458   4.238
 3529TIP3    H210594   6.191   3.529   4.105
 3530TIP3   OH210595   5.269   3.879   1.748
 3530TIP3    H110596   5.292   3.945   1.813
 3530TIP3    H210597   5.173   3.877   1.748
 3531TIP3   OH210598   0.105   0.429   3.807
 3531TIP3    H110599   0.103   0.418   3.902
 3531TIP3    H210600   0.118   0.340   3.773
 3532TIP3   OH210601   0.099   4.273   0.235
 3532TIP3    H110602   0.047   4.276   0.154
 3532TIP3    H210603   0.038   4.300   0.304
 3533TIP3   OH210604   3.132   0.996   1.819
 3533TIP3    H110605   3.073   1.059   1.777
 3533TIP3    H210606   3.187   1.050   1.876
 3534TIP3   OH210607   4.239   3.686   2.427
 3534TIP3    H110608   4.284   3.740   2.492
 3534TIP3    H210609   4.220   3.604   2.473
 3535TIP3   OH210610   4.137   0.572   0.529
 3535TIP3    H110611   4.103   0.642   0.584
 3535TIP3    H210612   4.230   0.565   0.552
 3536TIP3   OH210613   5.187   4.186   2.944
 3536TIP3    H110614   5.151   4.143   3.022
 3536TIP3    H210615   5.127   4.258   2.927
 3537TIP3   OH210616   0.575   4.434   3.854
 3537TIP3    H110617   0.555   4.496   3.924
 3537TIP3    H210618   0.493   4.389   3.837
 3538TIP3   OH210619   0.462   0.946   4.016
 3538TIP3    H110620   0.456   0.888   3.940
 3538TIP3    H210621   0.522   1.016   3.988
 3539TIP3   OH210622   1.598   1.902   1.042
 3539TIP3    H110623   1.661   1.953   0.991
 3539TIP3    H210624   1.650   1.868   1.115
 3540TIP3   OH210625   1.168   4.361   2.438
 3540TIP3    H110626   1.134   4.435   2.387
 3540TIP3    H210627   1.236   4.399   2.493
 3541TIP3   OH210628   3.035   1.353   0.472
 3541TIP3    H110629   2.999   1.334   0.386
 3541TIP3    H210630   3.059   1.267   0.508
 3542TIP3   OH210631   1.991   1.525   4.458
 3542TIP3    H110632   1.953   1.602   4.415
 3542TIP3    H210633   2.041   1.482   4.388
 3543TIP3   OH210634   0.376   1.178   1.718
 3543TIP3    H110635   0.454   1.134   1.752
 3543TIP3    H210636   0.394   1.271   1.731
 3544TIP3   OH210637   4.931   4.215   3.156
 3544TIP3    H110638   4.964   4.256   3.076
 3544TIP3    H210639   4.836   4.226   3.151
 3545TIP3   OH210640   4.810   0.422   0.721
 3545TIP3    H110641   4.794   0.506   0.678
 3545TIP3    H210642   4.854   0.445   0.803
 3546TIP3   OH210643   3.797   0.648   4.445
 3546TIP3    H110644   3.860   0.707   4.404
 3546TIP3    H210645   3.829   0.637   4.534
 3547TIP3   OH210646   2.305   2.968   4.168
 3547TIP3    H110647   2.395   3.001   4.172
 3547TIP3    H210648   2.315   2.874   4.152
 3548TIP3   OH210649   0.986   3.868   0.758
 3548TIP3    H110650   0.894   3.863   0.783
 3548TIP3    H210651   1.027   3.919   0.827
 3549TIP3   OH210652   2.518   5.075   0.929
 3549TIP3    H110653   2.427   5.046   0.925
 3549TIP3    H210654   2.547   5.074   0.838
 3550TIP3   OH210655   5.989   4.483   1.065
 3550TIP3    H110656   6.056   4.483   1.133
 3550TIP3    H210657   5.994   4.570   1.027
 3551TIP3   OH210658   0.374   4.553   0.841
 3551TIP3    H110659   0.353   4.550   0.748
 3551TIP3    H210660   0.309   4.611   0.879
 3552TIP3   OH210661   2.249   5.099   0.571
 3552TIP3    H110662   2.238   5.168   0.637
 3552TIP3    H210663   2.214   5.136   0.491
 3553TIP3   OH210664   2.235   1.203   2.900
 3553TIP3    H110665   2.172   1.255   2.949
 3553TIP3    H210666   2.320   1.237   2.927
 3554TIP3   OH210667   6.197   3.775   1.958
 3554TIP3    H110668   6.218   3.750   2.048
 3554TIP3    H210669   6.111   3.818   1.965
 3555TIP3   OH210670   1.435   4.106   1.163
 3555TIP3    H110671   1.521   4.068   1.145
 3555TIP3    H210672   1.373   4.035   1.145
 3556TIP3   OH210673   0.576   2.134   3.829
 3556TIP3    H110674   0.558   2.205   3.891
 3556TIP3    H210675   0.537   2.057   3.869
 3557TIP3   OH210676   2.883   1.353   4.776
 3557TIP3    H110677   2.833   1.424   4.815
 3557TIP3    H210678   2.973   1.385   4.772
 3558TIP3   OH210679   3.840   1.362   3.897
 3558TIP3    H110680   3.779   1.363   3.824
 3558TIP3    H210681   3.874   1.451   3.902
 3559TIP3   OH210682   5.633   5.087   4.737
 3559TIP3    H110683   5.559   5.083   4.797
 3559TIP3    H210684   5.596   5.065   4.651
 3560TIP3   OH210685   0.320   3.642   0.856
 3560TIP3    H110686   0.362   3.728   0.854
 3560TIP3    H210687   0.235   3.657   0.814
 3561TIP3   OH210688   3.655   4.674   4.121
 3561TIP3    H110689   3.709   4.616   4.067
 3561TIP3    H210690   3.701   4.678   4.205
 3562TIP3   OH210691   6.213   3.301   3.788
 3562TIP3    H110692   6.193   3.209   3.805
 3562TIP3    H210693   6.128   3.340   3.769
 3563TIP3   OH210694   0.117   1.520   1.683
 3563TIP3    H110695   0.108   1.438   1.636
 3563TIP3    H210696   0.033   1.532   1.727
 3564TIP3   OH210697   3.835   1.461   0.641
 3564TIP3    H110698   3.922   1.465   0.682
 3564TIP3    H210699   3.840   1.523   0.568
 3565TIP3   OH210700   5.774   4.188   4.081
 3565TIP3    H110701   5.734   4.151   4.159
 3565TIP3    H210702   5.763   4.121   4.014
 3566TIP3   OH210703   5.288   5.528   1.992
 3566TIP3    H110704   5.334   5.573   1.921
 3566TIP3    H210705   5.273   5.596   2.058
 3567TIP3   OH210706   4.077   0.952   0.387
 3567TIP3    H110707   4.116   1.039   0.388
 3567TIP3    H210708   4.012   0.954   0.457
 3568TIP3   OH210709   1.042   0.065   4.122
 3568TIP3    H110710   0.996   0.033   4.199
 3568TIP3    H210711   0.986   0.135   4.089
 3569TIP3   OH210712   2.409   1.031   4.118
 3569TIP3    H110713   2.457   1.091   4.175
 3569TIP3    H210714   2.374   0.965   4.178
 3570TIP3   OH210715   1.033   4.949   1.655
 3570TIP3    H110716   1.123   4.918   1.664
 3570TIP3    H210717   0.992   4.886   1.595
 3571TIP3   OH210718   4.230   5.231   4.933
 3571TIP3    H110719   4.241   5.309   4.880
 3571TIP3    H210720   4.149   5.191   4.903
 3572TIP3   OH210721   5.238   4.906   4.584
 3572TIP3    H110722   5.285   4.977   4.539
 3572TIP3    H210723   5.260   4.918   4.676
 3573TIP3   OH210724   5.751   1.801   2.371
 3573TIP3    H110725   5.809   1.776   2.299
 3573TIP3    H210726   5.761   1.896   2.377
 3574TIP3   OH210727   0.725   2.572   3.987
 3574TIP3    H110728   0.714   2.544   4.078
 3574TIP3    H210729   0.636   2.583   3.954
 3575TIP3   OH210730   3.225   1.468   0.826
 3575TIP3    H110731   3.144   1.510   0.797
 3575TIP3    H210732   3.288   1.540   0.832
 3576TIP3   OH210733   3.275   0.898   3.571
 3576TIP3    H110734   3.182   0.888   3.555
 3576TIP3    H210735   3.299   0.822   3.624
 3577TIP3   OH210736   0.761   1.284   1.655
 3577TIP3    H110737   0.672   1.312   1.675
 3577TIP3    H210738   0.753   1.236   1.573
 3578TIP3   OH210739   5.942   2.702   3.071
 3578TIP3    H110740   5.990   2.783   3.056
 3578TIP3    H210741   5.962   2.648   2.994
 3579TIP3   OH210742   5.667   4.874   2.003
 3579TIP3    H110743   5.656   4.781   1.988
 3579TIP3    H210744   5.578   4.909   2.006
 3580TIP3   OH210745   5.265   3.489   0.108
 3580TIP3    H110746   5.290   3.473   0.017
 3580TIP3    H210747   5.187   3.436   0.121
 3581TIP3   OH210748   3.841   0.047   1.224
 3581TIP3    H110749   3.859   0.025   1.316
 3581TIP3    H210750   3.890   0.127   1.209
 3582TIP3   OH210751   3.129   1.861   4.086
 3582TIP3    H110752   3.180   1.919   4.029
 3582TIP3    H210753   3.194   1.810   4.134
 3583TIP3   OH210754   4.415   4.178   4.958
 3583TIP3    H110755   4.475   4.105   4.945
 3583TIP3    H210756   4.453   4.228   5.030
 3584TIP3   OH210757   3.113   3.147   4.498
 3584TIP3    H110758   3.204   3.121   4.485
 3584TIP3    H210759   3.094   3.123   4.589
 3585TIP3   OH210760   0.563   1.075   1.917
 3585TIP3    H110761   0.522   1.159   1.935
 3585TIP3    H210762   0.536   1.018   1.989
 3586TIP3   OH210763   4.895   1.381   4.618
 3586TIP3    H110764   4.812   1.413   4.654
 3586TIP3    H210765   4.944   1.350   4.695
 3587TIP3   OH210766   1.231   4.395   3.284
 3587TIP3    H110767   1.194   4.471   3.240
 3587TIP3    H210768   1.171   4.379   3.358
 3588TIP3   OH210769   4.833   2.040   0.984
 3588TIP3    H110770   4.763   2.017   1.046
 3588TIP3    H210771   4.816   2.131   0.961
 3589TIP3   OH210772   3.047   1.272   3.511
 3589TIP3    H110773   3.012   1.193   3.552
 3589TIP3    H210774   2.970   1.327   3.496
 3590TIP3   OH210775   1.270   5.868   3.013
 3590TIP3    H110776   1.304   5.804   3.076
 3590TIP3    H210777   1.245   5.816   2.937
 3591TIP3   OH210778   1.613   3.457   4.739
 3591TIP3    H110779   1.519   3.464   4.725
 3591TIP3    H210780   1.634   3.367   4.716
 3592TIP3   OH210781   0.969   0.961   4.586
 3592TIP3    H110782   1.037   0.931   4.525
 3592TIP3    H210783   1.006   1.039   4.626
 3593TIP3   OH210784   4.385   2.143   4.473
 3593TIP3    H110785   4.413   2.227   4.510
 3593TIP3    H210786   4.463   2.109   4.429
 3594TIP3   OH210787   4.716   0.262   0.178
 3594TIP3    H110788   4.775   0.242   0.250
 3594TIP3    H210789   4.631   0.230   0.207
 3595TIP3   OH210790   5.398   4.789   1.812
 3595TIP3    H110791   5.460   4.841   1.761
 3595TIP3    H210792   5.363   4.850   1.876
 3596TIP3   OH210793   1.860   2.116   0.238
 3596TIP3    H110794   1.789   2.179   0.223
 3596TIP3    H210795   1.852   2.054   0.166
 3597TIP3   OH210796   0.932   0.647   4.030
 3597TIP3    H110797   0.842   0.619   4.018
 3597TIP3    H210798   0.944   0.718   3.966
 3598TIP3   OH210799   5.500   0.629   0.522
 3598TIP3    H110800   5.436   0.565   0.492
 3598TIP3    H210801   5.488   0.632   0.617
 3599TIP3   OH210802   4.970   1.760   3.133
 3599TIP3    H110803   4.921   1.788   3.210
 3599TIP3    H210804   4.923   1.683   3.101
 3600TIP3   OH210805   6.233   0.865   0.223
 3600TIP3    H110806   6.140   0.873   0.245
 3600TIP3    H210807   6.279   0.867   0.307
 3601TIP3   OH210808   1.471   4.279   3.443
 3601TIP3    H110809   1.468   4.184   3.429
 3601TIP3    H210810   1.402   4.313   3.386
 3602TIP3   OH210811   6.147   3.014   3.802
 3602TIP3    H110812   6.219   2.964   3.840
 3602TIP3    H210813   6.091   2.948   3.760
 3603TIP3   OH210814   4.783   4.409   1.635
 3603TIP3    H110815   4.705   4.455   1.603
 3603TIP3    H210816   4.749   4.346   1.699
 3604TIP3   OH210817   0.270   2.547   3.033
 3604TIP3    H110818   0.237   2.597   2.958
 3604TIP3    H210819   0.312   2.613   3.089
 3605TIP3   OH210820   2.523   5.022   2.636
 3605TIP3    H110821   2.536   5.074   2.557
 3605TIP3    H210822   2.482   4.942   2.606
 3606TIP3   OH210823   4.913   5.080   0.711
 3606TIP3    H110824   4.968   5.005   0.688
 3606TIP3    H210825   4.834   5.069   0.659
 3607TIP3   OH210826   1.606   4.926   2.113
 3607TIP3    H110827   1.521   4.901   2.077
 3607TIP3    H210828   1.649   4.843   2.133
 3608TIP3   OH210829   0.417   0.299   3.922
 3608TIP3    H110830   0.371   0.378   3.952
 3608TIP3    H210831   0.357   0.259   3.859
 3609TIP3   OH210832   4.158   4.616   2.344
 3609TIP3    H110833   4.107   4.692   2.317
 3609TIP3    H210834   4.182   4.634   2.435
 3610TIP3   OH210835   3.092   3.109   3.900
 3610TIP3    H110836   3.109   3.157   3.819
 3610TIP3    H210837   3.012   3.059   3.881
 3611TIP3   OH210838   3.913   5.197   1.050
 3611TIP3    H110839   3.996   5.232   1.081
 3611TIP3    H210840   3.867   5.170   1.129
 3612TIP3   OH210841   0.398   1.733   0.755
 3612TIP3    H110842   0.358   1.798   0.696
 3612TIP3    H210843   0.398   1.652   0.705
 3613TIP3   OH210844   5.682   1.823   0.207
 3613TIP3    H110845   5.651   1.900   0.254
 3613TIP3    H210846   5.745   1.782   0.267
 3614TIP3   OH210847   1.736   3.215   1.472
 3614TIP3    H110848   1.687   3.169   1.539
 3614TIP3    H210849   1.815   3.161   1.459
 3615TIP3   OH210850   0.167   3.000   2.565
 3615TIP3    H110851   0.210   2.991   2.650
 3615TIP3    H210852   0.232   2.967   2.502
 3616TIP3   OH210853   3.117   5.596   3.500
 3616TIP3    H110854   3.023   5.593   3.481
 3616TIP3    H210855   3.147   5.506   3.489
 3617TIP3   OH210856   0.820   5.427   1.802
 3617TIP3    H110857   0.902   5.423   1.754
 3617TIP3    H210858   0.824   5.509   1.850
 3618TIP3   OH210859   1.595   4.020   2.959
 3618TIP3    H110860   1.647   3.977   3.027
 3618TIP3    H210861   1.635   4.107   2.950
 3619TIP3   OH210862   0.275   0.085   1.769
 3619TIP3    H110863   0.334   0.010   1.760
 3619TIP3    H210864   0.272   0.102   1.863
 3620TIP3   OH210865   3.500   5.402   2.754
 3620TIP3    H110866   3.515   5.482   2.805
 3620TIP3    H210867   3.485   5.432   2.665
 3621TIP3   OH210868   4.559   3.424   4.137
 3621TIP3    H110869   4.483   3.377   4.101
 3621TIP3    H210870   4.537   3.516   4.127
 3622TIP3   OH210871   1.330   0.460   3.929
 3622TIP3    H110872   1.394   0.452   3.858
 3622TIP3    H210873   1.248   0.484   3.886
 3623TIP3   OH210874   4.701   0.552   2.801
 3623TIP3    H110875   4.712   0.535   2.708
 3623TIP3    H210876   4.747   0.481   2.845
 3624TIP3   OH210877   5.249   0.399   1.808
 3624TIP3    H110878   5.186   0.470   1.792
 3624TIP3    H210879   5.279   0.374   1.720
 3625TIP3   OH210880   3.252   4.647   3.438
 3625TIP3    H110881   3.231   4.611   3.352
 3625TIP3    H210882   3.167   4.673   3.474
 3626TIP3   OH210883   3.137   2.680   2.889
 3626TIP3    H110884   3.141   2.772   2.861
 3626TIP3    H210885   3.092   2.682   2.973
 3627TIP3   OH210886   3.816   2.193   0.168
 3627TIP3    H110887   3.886   2.174   0.230
 3627TIP3    H210888   3.763   2.114   0.165
 3628TIP3   OH210889   0.122   1.793   0.999
 3628TIP3    H110890   0.153   1.703   0.999
 3628TIP3    H210891   0.153   1.830   1.081
 3629TIP3   OH210892   5.947   0.093   0.581
 3629TIP3    H110893   5.892   0.139   0.644
 3629TIP3    H210894   6.034   0.095   0.619
 3630TIP3   OH210895   4.368   4.791   1.267
 3630TIP3    H110896   4.365   4.744   1.184
 3630TIP3    H210897   4.427   4.865   1.251
 3631TIP3   OH210898   0.667   2.128   0.296
 3631TIP3    H110899   0.596   2.183   0.331
 3631TIP3    H210900   0.685   2.066   0.366
 3632TIP3   OH210901   3.880   3.121   3.038
 3632TIP3    H110902   3.903   3.032   3.063
 3632TIP3    H210903   3.957   3.173   3.061
 3633TIP3   OH210904   4.999   5.513   3.208
 3633TIP3    H110905   5.002   5.550   3.296
 3633TIP3    H210906   5.091   5.503   3.184
 3634TIP3   OH210907   3.768   5.340   1.847
 3634TIP3    H110908   3.816   5.312   1.770
 3634TIP3    H210909   3.803   5.286   1.918
 3635TIP3   OH210910   4.030   2.589   3.102
 3635TIP3    H110911   4.065   2.532   3.170
 3635TIP3    H210912   4.082   2.569   3.024
 3636TIP3   OH210913   4.263   3.341   1.669
 3636TIP3    H110914   4.207   3.413   1.698
 3636TIP3    H210915   4.221   3.263   1.703
 3637TIP3   OH210916   4.733   4.463   3.725
 3637TIP3    H110917   4.770   4.479   3.812
 3637TIP3    H210918   4.795   4.402   3.684
 3638TIP3   OH210919   6.284   1.861   4.633
 3638TIP3    H110920   6.354   1.801   4.658
 3638TIP3    H210921   6.223   1.807   4.582
 3639TIP3   OH210922   0.517   5.525   2.154
 3639TIP3    H110923   0.491   5.616   2.141
 3639TIP3    H210924   0.503   5.483   2.069
 3640TIP3   OH210925   2.779   3.773   0.960
 3640TIP3    H110926   2.834   3.829   0.906
 3640TIP3    H210927   2.713   3.833   0.996
 3641TIP3   OH210928   3.060   3.615   1.677
 3641TIP3    H110929   3.065   3.706   1.705
 3641TIP3    H210930   3.122   3.608   1.605
 3642TIP3   OH210931   4.988   1.995   3.975
 3642TIP3    H110932   5.045   1.918   3.972
 3642TIP3    H210933   5.036   2.063   3.928
 3643TIP3   OH210934   0.726   1.678   3.668
 3643TIP3    H110935   0.669   1.753   3.648
 3643TIP3    H210936   0.800   1.688   3.608
 3644TIP3   OH210937   4.659   4.553   2.377
 3644TIP3    H110938   4.617   4.638   2.361
 3644TIP3    H210939   4.626   4.525   2.463
 3645TIP3   OH210940   5.174   0.173   4.399
 3645TIP3    H110941   5.161   0.179   4.494
 3645TIP3    H210942   5.131   0.092   4.374
 3646TIP3   OH210943   1.004   2.024   1.734
 3646TIP3    H110944   0.993   1.955   1.668
 3646TIP3    H210945   1.099   2.036   1.739
 3647TIP3   OH210946   3.095   4.549   4.255
 3647TIP3    H110947   3.134   4.592   4.179
 3647TIP3    H210948   3.164   4.492   4.289
 3648TIP3   OH210949   1.958   3.606   1.973
 3648TIP3    H110950   1.912   3.529   1.941
 3648TIP3    H210951   1.891   3.655   2.021
 3649TIP3   OH210952   5.124   0.732   3.561
 3649TIP3    H110953   5.083   0.793   3.500
 3649TIP3    H210954   5.217   0.755   3.560
 3650TIP3   OH210955   0.192   0.742   4.878
 3650TIP3    H110956   0.279   0.764   4.913
 3650TIP3    H210957   0.207   0.733   4.784
 3651TIP3   OH210958   2.810   4.888   1.710
 3651TIP3    H110959   2.869   4.964   1.710
 3651TIP3    H210960   2.727   4.923   1.742
 3652TIP3   OH210961   3.142   5.403   2.231
 3652TIP3    H110962   3.107   5.409   2.320
 3652TIP3    H210963   3.187   5.319   2.229
 3653TIP3   OH210964   1.975   5.056   4.510
 3653TIP3    H110965   1.980   4.961   4.526
 3653TIP3    H210966   2.055   5.076   4.463
 3654TIP3   OH210967   0.456   5.465   3.229
 3654TIP3    H110968   0.469   5.552   3.266
 3654TIP3    H210969   0.457   5.478   3.134
 3655TIP3   OH210970   1.132   3.687   3.400
 3655TIP3    H110971   1.160   3.596   3.395
 3655TIP3    H210972   1.088   3.703   3.316
 3656TIP3   OH210973   3.649   4.689   0.475
 3656TIP3    H110974   3.714   4.619   0.474
 3656TIP3    H210975   3.694   4.764   0.512
 3657TIP3   OH210976   5.244   0.134   1.656
 3657TIP3    H110977   5.334   0.143   1.625
 3657TIP3    H210978   5.204   0.070   1.597
 3658TIP3   OH210979   0.491   1.162   0.747
 3658TIP3    H110980   0.584   1.184   0.745
 3658TIP3    H210981   0.475   1.137   0.837
 3659TIP3   OH210982   2.154   2.752   4.454
 3659TIP3    H110983   2.117   2.683   4.399
 3659TIP3    H210984   2.117   2.736   4.541
 3660TIP3   OH210985   1.808   1.689   3.352
 3660TIP3    H110986   1.772   1.773   3.324
 3660TIP3    H210987   1.742   1.653   3.412
 3661TIP3   OH210988   2.498   3.375   4.929
 3661TIP3    H110989   2.517   3.374   4.835
 3661TIP3    H210990   2.466   3.287   4.948
 3662TIP3   OH210991   3.363   3.071   3.863
 3662TIP3    H110992   3.271   3.066   3.889
 3662TIP3    H210993   3.409   3.019   3.929
 3663TIP3   OH210994   2.602   2.624   4.912
 3663TIP3    H110995   2.685   2.594   4.947
 3663TIP3    H210996   2.626   2.695   4.852
 3664TIP3   OH210997   5.301   1.077   1.638
 3664TIP3    H110998   5.389   1.090   1.674
 3664TIP3    H210999   5.289   0.982   1.638
 3665TIP3   OH211000   3.785   3.401   0.636
 3665TIP3    H111001   3.829   3.317   0.628
 3665TIP3    H211002   3.711   3.384   0.694
 3666TIP3   OH211003   0.635   5.479   0.811
 3666TIP3    H111004   0.649   5.492   0.717
 3666TIP3    H211005   0.584   5.398   0.818
 3667TIP3   OH211006   2.335   2.662   1.699
 3667TIP3    H111007   2.419   2.708   1.690
 3667TIP3    H211008   2.276   2.728   1.735
 3668TIP3   OH211009   2.686   0.399   4.654
 3668TIP3    H111010   2.693   0.434   4.565
 3668TIP3    H211011   2.708   0.474   4.710
 3669TIP3   OH211012   3.419   4.141   2.124
 3669TIP3    H111013   3.404   4.236   2.121
 3669TIP3    H211014   3.467   4.127   2.205
 3670TIP3   OH211015   1.364   5.283   3.158
 3670TIP3    H111016   1.443   5.232   3.140
 3670TIP3    H211017   1.302   5.219   3.195
 3671TIP3   OH211018   3.230   0.064   4.774
 3671TIP3    H111019   3.277   0.133   4.727
 3671TIP3    H211020   3.139   0.073   4.746
 3672TIP3   OH211021   1.989   0.648   1.098
 3672TIP3    H111022   2.053   0.698   1.048
 3672TIP3    H211023   2.042   0.585   1.148
 3673TIP3   OH211024   0.663   5.306   3.340
 3673TIP3    H111025   0.712   5.329   3.261
 3673TIP3    H211026   0.580   5.354   3.332
 3674TIP3   OH211027   4.130   3.218   3.076
 3674TIP3    H111028   4.205   3.267   3.110
 3674TIP3    H211029   4.165   3.171   3.000
 3675TIP3   OH211030   0.313   5.539   4.984
 3675TIP3    H111031   0.234   5.548   5.037
 3675TIP3    H211032   0.280   5.522   4.896
 3676TIP3   OH211033   2.873   3.919   5.171
 3676TIP3    H111034   2.821   3.953   5.098
 3676TIP3    H211035   2.963   3.918   5.138
 3677TIP3   OH211036   2.383   5.291   5.036
 3677TIP3    H111037   2.302   5.341   5.049
 3677TIP3    H211038   2.396   5.244   5.118
 3678TIP3   OH211039   1.371   0.163   1.207
 3678TIP3    H111040   1.390   0.217   1.283
 3678TIP3    H211041   1.341   0.224   1.140
 3679TIP3   OH211042   5.271   5.480   3.161
 3679TIP3    H111043   5.341   5.540   3.136
 3679TIP3    H211044   5.311   5.420   3.224
 3680TIP3   OH211045   1.643   3.173   4.665
 3680TIP3    H111046   1.736   3.154   4.660
 3680TIP3    H211047   1.608   3.148   4.580
 3681TIP3   OH211048   4.546   1.440   0.228
 3681TIP3    H111049   4.504   1.454   0.313
 3681TIP3    H211050   4.612   1.509   0.223
 3682TIP3   OH211051   2.951   1.393   2.037
 3682TIP3    H111052   2.897   1.395   2.116
 3682TIP3    H211053   3.030   1.442   2.060
 3683TIP3   OH211054   3.362   4.814   0.253
 3683TIP3    H111055   3.447   4.835   0.214
 3683TIP3    H211056   3.327   4.897   0.284
 3684TIP3   OH211057   5.632   3.399   0.527
 3684TIP3    H111058   5.573   3.469   0.500
 3684TIP3    H211059   5.605   3.324   0.474
 3685TIP3   OH211060   2.266   4.350   3.826
 3685TIP3    H111061   2.209   4.368   3.751
 3685TIP3    H211062   2.294   4.437   3.856
 3686TIP3   OH211063   2.669   0.364   2.358
 3686TIP3    H111064   2.577   0.342   2.368
 3686TIP3    H211065   2.678   0.388   2.266
 3687TIP3   OH211066   4.809   1.296   3.769
 3687TIP3    H111067   4.844   1.208   3.754
 3687TIP3    H211068   4.753   1.286   3.846
 3688TIP3   OH211069   5.210   0.397   4.973
 3688TIP3    H111070   5.120   0.383   4.943
 3688TIP3    H211071   5.264   0.375   4.898
 3689TIP3   OH211072   4.887   0.538   3.538
 3689TIP3    H111073   4.929   0.456   3.511
 3689TIP3    H211074   4.960   0.595   3.563
 3690TIP3   OH211075   2.294   1.903   5.167
 3690TIP3    H111076   2.348   1.824   5.174
 3690TIP3    H211077   2.336   1.955   5.098
 3691TIP3   OH211078   1.068   3.722   2.192
 3691TIP3    H111079   1.160   3.699   2.205
 3691TIP3    H211080   1.067   3.818   2.193
 3692TIP3   OH211081   0.844   1.687   2.701
 3692TIP3    H111082   0.879   1.701   2.613
 3692TIP3    H211083   0.876   1.761   2.752
 3693TIP3   OH211084   3.453   2.581   1.476
 3693TIP3    H111085   3.374   2.604   1.427
 3693TIP3    H211086   3.423   2.517   1.541
 3694TIP3   OH211087   5.955   1.183   2.706
 3694TIP3    H111088   5.958   1.094   2.671
 3694TIP3    H211089   6.013   1.233   2.648
 3695TIP3   OH211090   6.312   4.968   1.189
 3695TIP3    H111091   6.273   5.054   1.195
 3695TIP3    H211092   6.277   4.920   1.264
 3696TIP3   OH211093   2.774   0.349   2.635
 3696TIP3    H111094   2.710   0.420   2.632
 3696TIP3    H211095   2.733   0.278   2.585
 3697TIP3   OH211096   5.568   1.982   0.716
 3697TIP3    H111097   5.582   1.889   0.700
 3697TIP3    H211098   5.635   2.025   0.662
 3698TIP3   OH211099   3.623   1.971   2.861
 3698TIP3    H111100   3.697   2.028   2.881
 3698TIP3    H211101   3.651   1.884   2.892
 3699TIP3   OH211102   2.257   4.632   0.581
 3699TIP3    H111103   2.331   4.591   0.537
 3699TIP3    H211104   2.295   4.703   0.632
 3700TIP3   OH211105   0.118   0.310   0.202
 3700TIP3    H111106   0.032   0.349   0.217
 3700TIP3    H211107   0.155   0.361   0.130
 3701TIP3   OH211108   0.413   2.689   1.294
 3701TIP3    H111109   0.408   2.716   1.385
 3701TIP3    H211110   0.344   2.623   1.285
 3702TIP3   OH211111   0.890   0.447   0.338
 3702TIP3    H111112   0.959   0.506   0.308
 3702TIP3    H211113   0.889   0.456   0.433
 3703TIP3   OH211114   4.261   3.266   3.807
 3703TIP3    H111115   4.218   3.351   3.794
 3703TIP3    H211116   4.189   3.203   3.810
 3704TIP3   OH211117   4.833   1.213   2.341
 3704TIP3    H111118   4.772   1.211   2.414
 3704TIP3    H211119   4.903   1.153   2.366
 3705TIP3   OH211120   0.394   0.723   1.405
 3705TIP3    H111121   0.391   0.805   1.456
 3705TIP3    H211122   0.324   0.669   1.444
 3706TIP3   OH211123   4.555   1.109   1.474
 3706TIP3    H111124   4.549   1.043   1.543
 3706TIP3    H211125   4.502   1.074   1.402
 3707TIP3   OH211126   2.106   1.649   1.877
 3707TIP3    H111127   2.158   1.684   1.805
 3707TIP3    H211128   2.139   1.560   1.889
 3708TIP3   OH211129   4.674   4.622   2.998
 3708TIP3    H111130   4.765   4.651   2.984
 3708TIP3    H211131   4.621   4.693   2.961
 3709TIP3   OH211132   4.370   4.333   0.389
 3709TIP3    H111133   4.386   4.359   0.479
 3709TIP3    H211134   4.445   4.279   0.365
 3710TIP3   OH211135   5.433   4.637   5.214
 3710TIP3    H111136   5.450   4.661   5.123
 3710TIP3    H211137   5.517   4.602   5.245
 3711TIP3   OH211138   4.681   1.384   2.749
 3711TIP3    H111139   4.665   1.472   2.713
 3711TIP3    H211140   4.767   1.392   2.791
 3712TIP3   OH211141   0.656   1.978   3.426
 3712TIP3    H111142   0.743   1.944   3.448
 3712TIP3    H211143   0.599   1.945   3.495
 3713TIP3   OH211144   0.830   0.077   0.255
 3713TIP3    H111145   0.758   0.026   0.291
 3713TIP3    H211146   0.799   0.106   0.169
 3714TIP3   OH211147   3.914   4.162   2.076
 3714TIP3    H111148   4.009   4.158   2.084
 3714TIP3    H211149   3.884   4.082   2.120
 3715TIP3   OH211150   5.959   4.807   3.017
 3715TIP3    H111151   6.004   4.795   3.100
 3715TIP3    H211152   5.913   4.890   3.026
 3716TIP3   OH211153   1.662   0.193   1.471
 3716TIP3    H111154   1.631   0.196   1.381
 3716TIP3    H211155   1.597   0.243   1.521
 3717TIP3   OH211156   0.922   4.713   2.585
 3717TIP3    H111157   0.854   4.725   2.652
 3717TIP3    H211158   1.001   4.751   2.623
 3718TIP3   OH211159   4.048   0.136   2.466
 3718TIP3    H111160   4.026   0.052   2.427
 3718TIP3    H211161   4.034   0.200   2.397
 3719TIP3   OH211162   1.801   4.164   2.769
 3719TIP3    H111163   1.814   4.233   2.835
 3719TIP3    H211164   1.726   4.195   2.717
 3720TIP3   OH211165   2.780   5.135   1.105
 3720TIP3    H111166   2.700   5.112   1.058
 3720TIP3    H211167   2.750   5.179   1.185
 3721TIP3   OH211168   5.682   0.245   3.741
 3721TIP3    H111169   5.589   0.265   3.735
 3721TIP3    H211170   5.689   0.185   3.815
 3722TIP3   OH211171   2.497   4.694   3.213
 3722TIP3    H111172   2.524   4.766   3.157
 3722TIP3    H211173   2.437   4.734   3.277
 3723TIP3   OH211174   4.850   2.061   1.748
 3723TIP3    H111175   4.774   2.015   1.711
 3723TIP3    H211176   4.919   1.994   1.750
 3724TIP3   OH211177   0.646   1.459   2.778
 3724TIP3    H111178   0.700   1.521   2.827
 3724TIP3    H211179   0.707   1.418   2.716
 3725TIP3   OH211180   5.116   3.907   4.959
 3725TIP3    H111181   5.114   3.821   5.002
 3725TIP3    H211182   5.024   3.926   4.939
 3726TIP3   OH211183   0.080   4.380   1.560
 3726TIP3    H111184  -0.007   4.402   1.592
 3726TIP3    H211185   0.139   4.410   1.629
 3727TIP3   OH211186   2.234   5.897   0.280
 3727TIP3    H111187   2.324   5.902   0.248
 3727TIP3    H211188   2.224   5.806   0.309
 3728TIP3   OH211189   2.854   5.399   2.766
 3728TIP3    H111190   2.884   5.398   2.675
 3728TIP3    H211191   2.790   5.328   2.770
 3729TIP3   OH211192   1.179   5.793   4.681
 3729TIP3    H111193   1.146   5.877   4.715
 3729TIP3    H211194   1.103   5.753   4.638
 3730TIP3   OH211195   0.685   0.795   3.114
 3730TIP3    H111196   0.735   0.722   3.079
 3730TIP3    H211197   0.685   0.782   3.208
 3731TIP3   OH211198   4.479   2.851   4.179
 3731TIP3    H111199   4.561   2.899   4.181
 3731TIP3    H211200   4.461   2.837   4.086
 3732TIP3   OH211201   3.749   4.219   3.576
 3732TIP3    H111202   3.656   4.209   3.554
 3732TIP3    H211203   3.752   4.204   3.671
 3733TIP3   OH211204   6.091   3.670   0.110
 3733TIP3    H111205   6.089   3.581   0.147
 3733TIP3    H211206   6.078   3.727   0.185
 3734TIP3   OH211207   3.453   0.355   2.703
 3734TIP3    H111208   3.483   0.417   2.636
 3734TIP3    H211209   3.519   0.285   2.701
 3735TIP3   OH211210   0.295   2.918   4.745
 3735TIP3    H111211   0.307   2.924   4.840
 3735TIP3    H211212   0.261   2.830   4.731
 3736TIP3   OH211213   1.401   3.861   3.722
 3736TIP3    H111214   1.496   3.867   3.734
 3736TIP3    H211215   1.374   3.789   3.780
 3737TIP3   OH211216   2.404   0.722   0.834
 3737TIP3    H111217   2.478   0.679   0.878
 3737TIP3    H211218   2.392   0.672   0.753
 3738TIP3   OH211219   2.096   4.179   2.355
 3738TIP3    H111220   2.066   4.090   2.339
 3738TIP3    H211221   2.191   4.172   2.363
 3739TIP3   OH211222   1.749   1.857   1.909
 3739TIP3    H111223   1.826   1.902   1.943
 3739TIP3    H211224   1.687   1.859   1.982
 3740TIP3   OH211225   4.773   2.553   0.637
 3740TIP3    H111226   4.814   2.599   0.564
 3740TIP3    H211227   4.715   2.618   0.676
 3741TIP3   OH211228   3.665   5.538   2.528
 3741TIP3    H111229   3.693   5.575   2.612
 3741TIP3    H211230   3.697   5.448   2.529
 3742TIP3   OH211231   0.771   0.042   2.487
 3742TIP3    H111232   0.867   0.036   2.490
 3742TIP3    H211233   0.753   0.101   2.413
 3743TIP3   OH211234   1.953   0.325   2.982
 3743TIP3    H111235   2.045   0.350   2.991
 3743TIP3    H211236   1.946   0.241   3.027
 3744TIP3   OH211237   4.840   0.651   4.122
 3744TIP3    H111238   4.880   0.572   4.158
 3744TIP3    H211239   4.869   0.655   4.031
 3745TIP3   OH211240   4.695   5.710   0.220
 3745TIP3    H111241   4.647   5.743   0.144
 3745TIP3    H211242   4.632   5.652   0.264
 3746TIP3   OH211243   2.049   4.511   2.836
 3746TIP3    H111244   2.016   4.600   2.820
 3746TIP3    H211245   2.120   4.501   2.772
 3747TIP3   OH211246   2.246   2.041   4.437
 3747TIP3    H111247   2.167   2.085   4.467
 3747TIP3    H211248   2.242   2.047   4.342
 3748TIP3   OH211249   0.373   4.206   4.696
 3748TIP3    H111250   0.360   4.111   4.692
 3748TIP3    H211251   0.325   4.240   4.620
 3749TIP3   OH211252   3.865   0.033   4.557
 3749TIP3    H111253   3.947   0.079   4.574
 3749TIP3    H211254   3.881  -0.016   4.476
 3750TIP3   OH211255   0.659   0.339   4.961
 3750TIP3    H111256   0.728   0.348   4.895
 3750TIP3    H211257   0.613   0.258   4.936
 3751TIP3   OH211258   3.807   2.671   2.773
 3751TIP3    H111259   3.790   2.621   2.853
 3751TIP3    H211260   3.862   2.744   2.801
 3752TIP3   OH211261   0.856   5.370   4.475
 3752TIP3    H111262   0.847   5.461   4.503
 3752TIP3    H211263   0.766   5.341   4.457
 3753TIP3   OH211264   2.468   2.942   3.907
 3753TIP3    H111265   2.450   3.034   3.926
 3753TIP3    H211266   2.512   2.910   3.986
 3754TIP3   OH211267   1.762   0.100   1.914
 3754TIP3    H111268   1.680   0.147   1.904
 3754TIP3    H211269   1.801   0.101   1.826
 3755TIP3   OH211270   0.552   5.522   0.099
 3755TIP3    H111271   0.644   5.527   0.074
 3755TIP3    H211272   0.546   5.572   0.180
 3756TIP3   OH211273   5.521   4.656   3.980
 3756TIP3    H111274   5.550   4.700   4.061
 3756TIP3    H211275   5.516   4.564   4.004
 3757TIP3   OH211276   2.092   4.659   0.897
 3757TIP3    H111277   2.058   4.673   0.809
 3757TIP3    H211278   2.015   4.646   0.951
 3758TIP3   OH211279   4.207   1.172   3.343
 3758TIP3    H111280   4.117   1.197   3.361
 3758TIP3    H211281   4.222   1.200   3.253
 3759TIP3   OH211282   6.333   2.766   5.007
 3759TIP3    H111283   6.282   2.699   5.054
 3759TIP3    H211284   6.268   2.812   4.954
 3760TIP3   OH211285   2.293   0.504   2.721
 3760TIP3    H111286   2.275   0.416   2.755
 3760TIP3    H211287   2.236   0.561   2.772
 3761TIP3   OH211288   2.818   0.766   3.004
 3761TIP3    H111289   2.850   0.743   3.091
 3761TIP3    H211290   2.814   0.861   3.004
 3762TIP3   OH211291   5.425   0.292   4.468
 3762TIP3    H111292   5.334   0.295   4.436
 3762TIP3    H211293   5.455   0.382   4.461
 3763TIP3   OH211294   1.416   1.333   1.476
 3763TIP3    H111295   1.414   1.241   1.502
 3763TIP3    H211296   1.342   1.343   1.415
 3764TIP3   OH211297   1.340   0.872   1.337
 3764TIP3    H111298   1.365   0.927   1.411
 3764TIP3    H211299   1.272   0.814   1.372
 3765TIP3   OH211300   2.631   4.075   4.246
 3765TIP3    H111301   2.578   4.015   4.193
 3765TIP3    H211302   2.666   4.138   4.184
 3766TIP3   OH211303   3.931   3.746   2.376
 3766TIP3    H111304   3.865   3.692   2.420
 3766TIP3    H211305   4.011   3.732   2.427
 3767TIP3   OH211306   1.097   0.345   0.521
 3767TIP3    H111307   1.045   0.279   0.474
 3767TIP3    H211308   1.038   0.380   0.587
 3768TIP3   OH211309  -0.048   2.750   4.210
 3768TIP3    H111310  -0.068   2.728   4.118
 3768TIP3    H211311   0.015   2.683   4.237
 3769TIP3   OH211312   3.998   5.088   0.831
 3769TIP3    H111313   4.087   5.122   0.846
 3769TIP3    H211314   3.946   5.127   0.902
 3770TIP3   OH211315   4.395   4.340   0.665
 3770TIP3    H111316   4.488   4.321   0.682
 3770TIP3    H211317   4.348   4.281   0.723
 3771TIP3   OH211318   0.520   1.450   1.375
 3771TIP3    H111319   0.583   1.395   1.422
 3771TIP3    H211320   0.568   1.484   1.300
 3772TIP3   OH211321   1.690   5.675   5.050
 3772TIP3    H111322   1.640   5.599   5.021
 3772TIP3    H211323   1.671   5.743   4.986
 3773TIP3   OH211324   4.189   1.999   2.026
 3773TIP3    H111325   4.103   2.029   1.998
 3773TIP3    H211326   4.249   2.035   1.961
 3774TIP3   OH211327   4.864   2.372   4.669
 3774TIP3    H111328   4.889   2.289   4.628
 3774TIP3    H211329   4.846   2.430   4.595
 3775TIP3   OH211330   0.540   0.756   0.672
 3775TIP3    H111331   0.487   0.730   0.746
 3775TIP3    H211332   0.617   0.799   0.710
 3776TIP3   OH211333   6.265   0.747   3.059
 3776TIP3    H111334   6.309   0.832   3.046
 3776TIP3    H211335   6.336   0.685   3.069
 3777TIP3   OH211336   2.658   3.117   1.706
 3777TIP3    H111337   2.563   3.112   1.714
 3777TIP3    H211338   2.692   3.072   1.784
 3778TIP3   OH211339   0.203   1.754   4.432
 3778TIP3    H111340   0.270   1.688   4.450
 3778TIP3    H211341   0.137   1.707   4.381
 3779TIP3   OH211342   0.708   0.062   3.855
 3779TIP3    H111343   0.676   0.137   3.804
 3779TIP3    H211344   0.628   0.024   3.893
 3780TIP3   OH211345   5.292   3.814   0.681
 3780TIP3    H111346   5.330   3.726   0.685
 3780TIP3    H211347   5.324   3.850   0.598
 3781TIP3   OH211348   0.590  -0.001   2.693
 3781TIP3    H111349   0.664   0.002   2.633
 3781TIP3    H211350   0.532   0.069   2.663
 3782TIP3   OH211351   5.084   5.029   2.149
 3782TIP3    H111352   5.056   4.947   2.108
 3782TIP3    H211353   5.152   5.004   2.211
 3783TIP3   OH211354   1.901   5.173   3.858
 3783TIP3    H111355   1.857   5.177   3.943
 3783TIP3    H211356   1.835   5.139   3.798
 3784TIP3   OH211357   1.163   0.353   4.657
 3784TIP3    H111358   1.225   0.280   4.661
 3784TIP3    H211359   1.203   0.415   4.596
 3785TIP3   OH211360   1.551   5.429   0.703
 3785TIP3    H111361   1.511   5.342   0.695
 3785TIP3    H211362   1.583   5.449   0.615
 3786TIP3   OH211363   5.923   0.743   1.651
 3786TIP3    H111364   5.902   0.808   1.584
 3786TIP3    H211365   5.839   0.703   1.672
 3787TIP3   OH211366   3.330   3.940   0.610
 3787TIP3    H111367   3.290   4.025   0.592
 3787TIP3    H211368   3.395   3.930   0.541
 3788TIP3   OH211369   4.464   0.134   4.359
 3788TIP3    H111370   4.530   0.193   4.323
 3788TIP3    H211371   4.513   0.059   4.391
 3789TIP3   OH211372   6.091   0.782   0.597
 3789TIP3    H111373   6.118   0.709   0.653
 3789TIP3    H211374   6.032   0.833   0.653
 3790TIP3   OH211375   2.485   4.503   2.736
 3790TIP3    H111376   2.433   4.423   2.743
 3790TIP3    H211377   2.556   4.480   2.675
 3791TIP3   OH211378   3.164   1.037   2.587
 3791TIP3    H111379   3.258   1.050   2.595
 3791TIP3    H211380   3.125   1.105   2.642
 3792TIP3   OH211381   3.095   0.977   0.801
 3792TIP3    H111382   3.071   0.947   0.889
 3792TIP3    H211383   3.179   0.935   0.783
 3793TIP3   OH211384   4.826   5.483   4.239
 3793TIP3    H111385   4.896   5.464   4.301
 3793TIP3    H211386   4.746   5.478   4.291
 3794TIP3   OH211387   2.692   4.224   0.158
 3794TIP3    H111388   2.650   4.138   0.164
 3794TIP3    H211389   2.783   4.205   0.133
 3795TIP3   OH211390   1.378   0.165   2.834
 3795TIP3    H111391   1.307   0.175   2.897
 3795TIP3    H211392   1.339   0.120   2.759
 3796TIP3   OH211393   5.413   2.885   3.091
 3796TIP3    H111394   5.449   2.961   3.045
 3796TIP3    H211395   5.420   2.908   3.184
 3797TIP3   OH211396   0.553   5.972   0.091
 3797TIP3    H111397   0.605   5.907   0.138
 3797TIP3    H211398   0.462   5.951   0.113
 3798TIP3   OH211399   4.937   3.753   4.071
 3798TIP3    H111400   4.962   3.834   4.115
 3798TIP3    H211401   4.913   3.693   4.141
 3799TIP3   OH211402   5.025   4.515   0.574
 3799TIP3    H111403   5.045   4.556   0.490
 3799TIP3    H211404   4.976   4.436   0.551
 3800TIP3   OH211405   0.212   2.426   3.870
 3800TIP3    H111406   0.251   2.346   3.836
 3800TIP3    H211407   0.119   2.404   3.881
 3801TIP3   OH211408   1.647   3.400   2.300
 3801TIP3    H111409   1.709   3.441   2.361
 3801TIP3    H211410   1.576   3.369   2.356
 3802TIP3   OH211411   3.343   1.704   4.622
 3802TIP3    H111412   3.380   1.716   4.709
 3802TIP3    H211413   3.280   1.776   4.613
 3803TIP3   OH211414   4.427   0.129   1.716
 3803TIP3    H111415   4.459   0.079   1.791
 3803TIP3    H211416   4.365   0.191   1.754
 3804TIP3   OH211417   1.756   3.914   0.646
 3804TIP3    H111418   1.849   3.931   0.632
 3804TIP3    H211419   1.752   3.822   0.674
 3805TIP3   OH211420   3.901   1.211   4.399
 3805TIP3    H111421   3.885   1.143   4.464
 3805TIP3    H211422   3.948   1.279   4.447
 3806TIP3   OH211423   6.132   3.933   1.109
 3806TIP3    H111424   6.202   3.880   1.069
 3806TIP3    H211425   6.139   4.018   1.065
 3807TIP3   OH211426   4.613   4.490   4.545
 3807TIP3    H111427   4.698   4.532   4.531
 3807TIP3    H211428   4.562   4.514   4.468
 3808TIP3   OH211429   2.207   5.516   3.087
 3808TIP3    H111430   2.232   5.444   3.029
 3808TIP3    H211431   2.290   5.551   3.119
 3809TIP3   OH211432   2.558   3.711   2.030
 3809TIP3    H111433   2.645   3.737   1.999
 3809TIP3    H211434   2.500   3.727   1.955
 3810TIP3   OH211435   2.638   4.913   3.120
 3810TIP3    H111436   2.622   4.930   3.027
 3810TIP3    H211437   2.713   4.969   3.142
 3811TIP3   OH211438   1.752   1.838   2.573
 3811TIP3    H111439   1.664   1.834   2.537
 3811TIP3    H211440   1.786   1.749   2.564
 3812TIP3   OH211441   5.854   1.818   2.916
 3812TIP3    H111442   5.773   1.850   2.954
 3812TIP3    H211443   5.897   1.771   2.988
 3813TIP3   OH211444   2.333   3.475   5.162
 3813TIP3    H111445   2.348   3.561   5.200
 3813TIP3    H211446   2.418   3.451   5.124
 3814TIP3   OH211447   2.780   4.477   0.866
 3814TIP3    H111448   2.713   4.542   0.847
 3814TIP3    H211449   2.855   4.503   0.813
 3815TIP3   OH211450   2.055   2.566   2.024
 3815TIP3    H111451   2.098   2.517   2.094
 3815TIP3    H211452   2.094   2.654   2.029
 3816TIP3   OH211453   5.093   3.296   2.598
 3816TIP3    H111454   5.026   3.362   2.617
 3816TIP3    H211455   5.125   3.319   2.511
 3817TIP3   OH211456   0.891   3.495   1.330
 3817TIP3    H111457   0.828   3.548   1.378
 3817TIP3    H211458   0.889   3.530   1.241
 3818TIP3   OH211459   1.333   0.750   5.017
 3818TIP3    H111460   1.239   0.740   5.034
 3818TIP3    H211461   1.345   0.718   4.928
 3819TIP3   OH211462   3.605   5.972   0.415
 3819TIP3    H111463   3.647   6.054   0.440
 3819TIP3    H211464   3.625   5.912   0.487
 3820TIP3   OH211465   5.943   2.070   4.826
 3820TIP3    H111466   5.973   2.134   4.761
 3820TIP3    H211467   5.887   2.010   4.776
 3821TIP3   OH211468   3.814   2.435   0.330
 3821TIP3    H111469   3.788   2.391   0.411
 3821TIP3    H211470   3.813   2.366   0.264
 3822TIP3   OH211471   5.828   1.012   4.902
 3822TIP3    H111472   5.823   1.043   4.812
 3822TIP3    H211473   5.766   1.066   4.950
 3823TIP3   OH211474  -0.032   4.013   0.042
 3823TIP3    H111475   0.049   4.028  -0.006
 3823TIP3    H211476  -0.016   3.934   0.093
 3824TIP3   OH211477   4.513   3.608   1.723
 3824TIP3    H111478   4.456   3.655   1.662
 3824TIP3    H211479   4.453   3.556   1.776
 3825TIP3   OH211480   5.138   4.539   3.136
 3825TIP3    H111481   5.145   4.605   3.205
 3825TIP3    H211482   5.223   4.496   3.135
 3826TIP3   OH211483   5.984   3.218   3.091
 3826TIP3    H111484   6.048   3.239   3.159
 3826TIP3    H211485   5.910   3.276   3.110
 3827TIP3   OH211486   0.990   1.907   2.815
 3827TIP3    H111487   1.078   1.937   2.839
 3827TIP3    H211488   0.936   1.985   2.819
 3828TIP3   OH211489   4.409   1.628   0.804
 3828TIP3    H111490   4.440   1.547   0.762
 3828TIP3    H211491   4.441   1.698   0.746
 3829TIP3   OH211492   2.536   3.997   3.954
 3829TIP3    H111493   2.467   4.000   3.887
 3829TIP3    H211494   2.491   3.966   4.033
 3830TIP3   OH211495   2.706   4.081   3.437
 3830TIP3    H111496   2.691   4.024   3.361
 3830TIP3    H211497   2.780   4.041   3.482
 3831TIP3   OH211498   3.954   3.377   2.843
 3831TIP3    H111499   3.890   3.362   2.913
 3831TIP3    H211500   3.963   3.292   2.800
 3832TIP3   OH211501   3.704   1.710   0.415
 3832TIP3    H111502   3.798   1.718   0.432
 3832TIP3    H211503   3.699   1.681   0.324
 3833TIP3   OH211504   2.260   4.099   4.137
 3833TIP3    H111505   2.185   4.122   4.082
 3833TIP3    H211506   2.331   4.155   4.104
 3834TIP3   OH211507   5.340   2.492   0.080
 3834TIP3    H111508   5.395   2.417   0.058
 3834TIP3    H211509   5.252   2.454   0.092
 3835TIP3   OH211510   5.760   3.420   3.920
 3835TIP3    H111511   5.683   3.459   3.961
 3835TIP3    H211512   5.796   3.361   3.986
 3836TIP3   OH211513   4.335   2.999   0.612
 3836TIP3    H111514   4.311   2.907   0.600
 3836TIP3    H211515   4.354   3.007   0.705
 3837TIP3   OH211516   2.988   1.508   0.689
 3837TIP3    H111517   2.952   1.457   0.761
 3837TIP3    H211518   2.939   1.479   0.612
 3838TIP3   OH211519   5.808   4.543   0.135
 3838TIP3    H111520   5.802   4.638   0.122
 3838TIP3    H211521   5.901   4.526   0.147
 3839TIP3   OH211522   3.390   0.488   4.384
 3839TIP3    H111523   3.454   0.472   4.454
 3839TIP3    H211524   3.440   0.534   4.316
 3840TIP3   OH211525   1.642   2.399   1.788
 3840TIP3    H111526   1.564   2.368   1.833
 3840TIP3    H211527   1.619   2.398   1.695
 3841TIP3   OH211528   1.264   2.120   3.679
 3841TIP3    H111529   1.356   2.145   3.671
 3841TIP3    H211530   1.217   2.203   3.688
 3842TIP3   OH211531   4.016   2.912   0.604
 3842TIP3    H111532   4.110   2.910   0.583
 3842TIP3    H211533   3.984   2.825   0.580
 3843TIP3   OH211534   5.294   3.643   3.633
 3843TIP3    H111535   5.293   3.739   3.636
 3843TIP3    H211536   5.385   3.619   3.648
 3844TIP3   OH211537   1.204   1.499   2.320
 3844TIP3    H111538   1.179   1.500   2.228
 3844TIP3    H211539   1.180   1.586   2.352
 3845TIP3   OH211540   5.693   4.054   4.288
 3845TIP3    H111541   5.731   4.020   4.369
 3845TIP3    H211542   5.604   4.018   4.286
 3846TIP3   OH211543   5.705   5.055   1.064
 3846TIP3    H111544   5.632   5.026   1.010
 3846TIP3    H211545   5.702   4.998   1.141
 3847TIP3   OH211546   1.158   2.369   3.747
 3847TIP3    H111547   1.129   2.415   3.826
 3847TIP3    H211548   1.254   2.376   3.751
 3848TIP3   OH211549   0.535   0.345   4.657
 3848TIP3    H111550   0.530   0.266   4.712
 3848TIP3    H211551   0.562   0.414   4.717
 3849TIP3   OH211552   0.680   5.398   1.554
 3849TIP3    H111553   0.584   5.399   1.548
 3849TIP3    H211554   0.698   5.432   1.642
 3850TIP3   OH211555   5.055   3.225   4.211
 3850TIP3    H111556   5.070   3.144   4.260
 3850TIP3    H211557   5.076   3.295   4.273
 3851TIP3   OH211558   3.531   3.369   4.753
 3851TIP3    H111559   3.562   3.454   4.723
 3851TIP3    H211560   3.502   3.324   4.673
 3852TIP3   OH211561   4.479   0.577   2.350
 3852TIP3    H111562   4.389   0.560   2.380
 3852TIP3    H211563   4.470   0.597   2.257
 3853TIP3   OH211564   0.319   1.901   2.217
 3853TIP3    H111565   0.353   1.913   2.128
 3853TIP3    H211566   0.393   1.920   2.274
 3854TIP3   OH211567   4.468   1.586   2.922
 3854TIP3    H111568   4.535   1.609   2.858
 3854TIP3    H211569   4.402   1.655   2.914
 3855TIP3   OH211570   3.388   3.111   0.106
 3855TIP3    H111571   3.410   3.046   0.174
 3855TIP3    H211572   3.318   3.163   0.145
 3856TIP3   OH211573   1.620   2.978   4.053
 3856TIP3    H111574   1.696   2.969   3.995
 3856TIP3    H211575   1.551   2.929   4.010
 3857TIP3   OH211576   1.395   4.045   2.756
 3857TIP3    H111577   1.312   4.077   2.790
 3857TIP3    H211578   1.451   4.039   2.834
 3858TIP3   OH211579   5.813   1.169   4.659
 3858TIP3    H111580   5.748   1.225   4.617
 3858TIP3    H211581   5.897   1.207   4.636
 3859TIP3   OH211582   5.842   1.738   2.132
 3859TIP3    H111583   5.834   1.647   2.106
 3859TIP3    H211584   5.915   1.771   2.079
 3860TIP3   OH211585   6.263   5.143   3.992
 3860TIP3    H111586   6.226   5.231   3.999
 3860TIP3    H211587   6.188   5.085   3.985
 3861TIP3   OH211588   1.949   4.644   3.133
 3861TIP3    H111589   1.961   4.703   3.208
 3861TIP3    H211590   1.864   4.667   3.097
 3862TIP3   OH211591   0.574   1.552   0.114
 3862TIP3    H111592   0.632   1.481   0.140
 3862TIP3    H211593   0.561   1.604   0.193
 3863TIP3   OH211594   4.373   2.842   3.903
 3863TIP3    H111595   4.282   2.811   3.904
 3863TIP3    H211596   4.419   2.776   3.850
 3864TIP3   OH211597   1.020   1.638   3.333
 3864TIP3    H111598   1.020   1.658   3.239
 3864TIP3    H211599   1.100   1.679   3.366
 3865TIP3   OH211600   5.240   2.697   1.218
 3865TIP3    H111601   5.333   2.673   1.216
 3865TIP3    H211602   5.200   2.634   1.278
 3866TIP3   OH211603   0.426   0.626   2.661
 3866TIP3    H111604   0.483   0.554   2.688
 3866TIP3    H211605   0.450   0.698   2.719
 3867TIP3   OH211606   2.309   3.128   1.756
 3867TIP3    H111607   2.237   3.184   1.783
 3867TIP3    H211608   2.357   3.180   1.691
 3868TIP3   OH211609   3.619   3.326   3.563
 3868TIP3    H111610   3.527   3.302   3.559
 3868TIP3    H211611   3.658   3.263   3.624
 3869TIP3   OH211612   5.272   5.850   3.402
 3869TIP3    H111613   5.316   5.848   3.317
 3869TIP3    H211614   5.302   5.931   3.443
 3870TIP3   OH211615   3.688   5.104   3.437
 3870TIP3    H111616   3.660   5.021   3.399
 3870TIP3    H211617   3.782   5.094   3.452
 3871TIP3   OH211618   2.797   1.902   0.210
 3871TIP3    H111619   2.721   1.865   0.253
 3871TIP3    H211620   2.778   1.996   0.203
 3872TIP3   OH211621   0.845   3.448   1.798
 3872TIP3    H111622   0.914   3.461   1.734
 3872TIP3    H211623   0.854   3.522   1.859
 3873TIP3   OH211624   6.166   1.949   4.279
 3873TIP3    H111625   6.239   1.963   4.340
 3873TIP3    H211626   6.204   1.968   4.193
 3874TIP3   OH211627   5.902   0.388   4.621
 3874TIP3    H111628   5.898   0.364   4.529
 3874TIP3    H211629   5.957   0.320   4.661
 3875TIP3   OH211630   3.798   4.765   3.147
 3875TIP3    H111631   3.789   4.694   3.084
 3875TIP3    H211632   3.755   4.840   3.105
 3876TIP3   OH211633   4.654   1.463   4.725
 3876TIP3    H111634   4.559   1.452   4.732
 3876TIP3    H211635   4.671   1.549   4.761
 3877TIP3   OH211636   4.122   5.635   2.773
 3877TIP3    H111637   4.131   5.726   2.745
 3877TIP3    H211638   4.121   5.585   2.691
 3878TIP3   OH211639   3.014   0.278   2.264
 3878TIP3    H111640   2.947   0.334   2.225
 3878TIP3    H211641   3.061   0.242   2.189
 3879TIP3   OH211642   3.231   5.894   4.464
 3879TIP3    H111643   3.198   5.823   4.409
 3879TIP3    H211644   3.152   5.941   4.492
 3880TIP3   OH211645   4.724   4.210   1.820
 3880TIP3    H111646   4.734   4.160   1.740
 3880TIP3    H211647   4.663   4.159   1.873
 3881TIP3   OH211648   0.750   2.905   4.356
 3881TIP3    H111649   0.801   2.850   4.297
 3881TIP3    H211650   0.709   2.970   4.300
 3882TIP3   OH211651   5.681   4.335   1.376
 3882TIP3    H111652   5.735   4.409   1.402
 3882TIP3    H211653   5.652   4.296   1.459
 3883TIP3   OH211654   0.384   3.268   1.104
 3883TIP3    H111655   0.469   3.236   1.133
 3883TIP3    H211656   0.382   3.250   1.010
 3884TIP3   OH211657   5.090   0.923   1.336
 3884TIP3    H111658   5.056   0.964   1.257
 3884TIP3    H211659   5.063   0.981   1.407
 3885TIP3   OH211660   2.185   2.067   4.168
 3885TIP3    H111661   2.255   2.046   4.106
 3885TIP3    H211662   2.105   2.035   4.126
 3886TIP3   OH211663   1.409   4.222   4.764
 3886TIP3    H111664   1.503   4.217   4.747
 3886TIP3    H211665   1.369   4.222   4.677
 3887TIP3   OH211666   3.702   0.660   1.588
 3887TIP3    H111667   3.720   0.588   1.649
 3887TIP3    H211668   3.609   0.651   1.568
 3888TIP3   OH211669   5.275   2.422   0.725
 3888TIP3    H111670   5.330   2.345   0.739
 3888TIP3    H211671   5.208   2.393   0.664
 3889TIP3   OH211672   1.881   3.923   4.928
 3889TIP3    H111673   1.965   3.896   4.967
 3889TIP3    H211674   1.901   4.005   4.883
 3890TIP3   OH211675   4.634   4.758   3.695
 3890TIP3    H111676   4.707   4.708   3.733
 3890TIP3    H211677   4.565   4.694   3.683
 3891TIP3   OH211678   2.743   2.806   4.704
 3891TIP3    H111679   2.827   2.789   4.748
 3891TIP3    H211680   2.763   2.874   4.640
 3892TIP3   OH211681   2.966   1.940   1.673
 3892TIP3    H111682   2.954   1.987   1.756
 3892TIP3    H211683   3.049   1.893   1.684
 3893TIP3   OH211684   1.419   1.976   4.789
 3893TIP3    H111685   1.511   1.992   4.767
 3893TIP3    H211686   1.404   1.885   4.763
 3894TIP3   OH211687   5.741   0.124   4.836
 3894TIP3    H111688   5.705   0.147   4.750
 3894TIP3    H211689   5.807   0.191   4.853
 3895TIP3   OH211690   4.159   0.748   1.216
 3895TIP3    H111691   4.173   0.720   1.126
 3895TIP3    H211692   4.065   0.741   1.229
 3896TIP3   OH211693   0.285   2.434   1.704
 3896TIP3    H111694   0.212   2.400   1.756
 3896TIP3    H211695   0.243   2.480   1.632
 3897TIP3   OH211696   5.708   1.620   3.141
 3897TIP3    H111697   5.699   1.697   3.198
 3897TIP3    H211698   5.621   1.579   3.142
 3898TIP3   OH211699   3.495   3.700   1.916
 3898TIP3    H111700   3.426   3.766   1.908
 3898TIP3    H211701   3.575   3.751   1.927
 3899TIP3   OH211702   5.252   4.149   3.785
 3899TIP3    H111703   5.165   4.167   3.820
 3899TIP3    H211704   5.284   4.234   3.755
 3900TIP3   OH211705   1.879   0.246   5.050
 3900TIP3    H111706   1.789   0.217   5.065
 3900TIP3    H211707   1.878   0.286   4.963
 3901TIP3   OH211708   0.467   4.591   1.117
 3901TIP3    H111709   0.396   4.637   1.163
 3901TIP3    H211710   0.428   4.566   1.033
 3902TIP3   OH211711   4.324   3.421   1.250
 3902TIP3    H111712   4.253   3.365   1.280
 3902TIP3    H211713   4.378   3.435   1.328
 3903TIP3   OH211714   4.076   3.719   2.152
 3903TIP3    H111715   4.067   3.633   2.113
 3903TIP3    H211716   4.052   3.707   2.244
 3904TIP3   OH211717   3.249   3.575   1.492
 3904TIP3    H111718   3.320   3.573   1.556
 3904TIP3    H211719   3.216   3.485   1.489
 3905TIP3   OH211720   3.192   4.859   0.706
 3905TIP3    H111721   3.258   4.796   0.735
 3905TIP3    H211722   3.144   4.813   0.637
 3906TIP3   OH211723   2.605   5.798   1.125
 3906TIP3    H111724   2.673   5.854   1.087
 3906TIP3    H211725   2.550   5.857   1.176
 3907TIP3   OH211726   4.786   1.618   3.888
 3907TIP3    H111727   4.848   1.616   3.960
 3907TIP3    H211728   4.836   1.648   3.813
 3908TIP3   OH211729   2.446   0.215   4.758
 3908TIP3    H111730   2.387   0.141   4.773
 3908TIP3    H211731   2.403   0.289   4.800
 3909TIP3   OH211732   3.147   5.836   0.305
 3909TIP3    H111733   3.126   5.844   0.212
 3909TIP3    H211734   3.195   5.916   0.326
 3910TIP3   OH211735   0.750   3.920   1.645
 3910TIP3    H111736   0.663   3.890   1.673
 3910TIP3    H211737   0.736   3.956   1.558
 3911TIP3   OH211738   5.716   2.622   5.094
 3911TIP3    H111739   5.697   2.695   5.036
 3911TIP3    H211740   5.734   2.662   5.179
 3912TIP3   OH211741   4.337   4.629   4.644
 3912TIP3    H111742   4.368   4.542   4.667
 3912TIP3    H211743   4.353   4.636   4.550
 3913TIP3   OH211744   5.511   4.818   4.427
 3913TIP3    H111745   5.544   4.760   4.496
 3913TIP3    H211746   5.490   4.759   4.354
 3914TIP3   OH211747   4.165   3.619   4.027
 3914TIP3    H111748   4.132   3.568   4.102
 3914TIP3    H211749   4.153   3.561   3.952
 3915TIP3   OH211750   2.654   0.766   2.494
 3915TIP3    H111751   2.571   0.814   2.502
 3915TIP3    H211752   2.636   0.681   2.534
 3916TIP3   OH211753   3.268   1.670   1.496
 3916TIP3    H111754   3.342   1.611   1.482
 3916TIP3    H211755   3.260   1.718   1.414
 3917TIP3   OH211756   2.405   0.329   2.101
 3917TIP3    H111757   2.433   0.384   2.028
 3917TIP3    H211758   2.309   0.333   2.099
 3918TIP3   OH211759   4.703   2.690   0.177
 3918TIP3    H111760   4.648   2.740   0.238
 3918TIP3    H211761   4.703   2.743   0.097
 3919TIP3   OH211762   3.142   4.325   2.724
 3919TIP3    H111763   3.144   4.237   2.763
 3919TIP3    H211764   3.101   4.379   2.791
 3920TIP3   OH211765   5.154   3.908   4.494
 3920TIP3    H111766   5.082   3.847   4.510
 3920TIP3    H211767   5.214   3.859   4.438
 3921TIP3   OH211768   2.634   4.296   1.625
 3921TIP3    H111769   2.690   4.335   1.557
 3921TIP3    H211770   2.546   4.327   1.603
 3922TIP3   OH211771   3.697   1.883   3.763
 3922TIP3    H111772   3.756   1.810   3.745
 3922TIP3    H211773   3.717   1.909   3.853
 3923TIP3   OH211774   5.266   2.769   4.391
 3923TIP3    H111775   5.323   2.715   4.446
 3923TIP3    H211776   5.230   2.708   4.326
 3924TIP3   OH211777   0.198   1.270   2.769
 3924TIP3    H111778   0.230   1.181   2.758
 3924TIP3    H211779   0.132   1.280   2.701
 3925TIP3   OH211780   0.079   1.416   3.928
 3925TIP3    H111781   0.096   1.503   3.890
 3925TIP3    H211782   0.166   1.382   3.950
 3926TIP3   OH211783   2.580   2.891   0.564
 3926TIP3    H111784   2.631   2.863   0.640
 3926TIP3    H211785   2.617   2.842   0.491
 3927TIP3   OH211786   6.204   1.997   3.792
 3927TIP3    H111787   6.112   1.977   3.807
 3927TIP3    H211788   6.232   1.934   3.726
 3928TIP3   OH211789   5.468   4.621   4.267
 3928TIP3    H111790   5.543   4.596   4.321
 3928TIP3    H211791   5.442   4.540   4.223
 3929TIP3   OH211792   1.293   3.849   0.666
 3929TIP3    H111793   1.306   3.762   0.704
 3929TIP3    H211794   1.232   3.893   0.725
 3930TIP3   OH211795   4.011   1.769   2.533
 3930TIP3    H111796   3.993   1.704   2.601
 3930TIP3    H211797   3.924   1.805   2.511
 3931TIP3   OH211798   0.719   4.749   0.770
 3931TIP3    H111799   0.710   4.785   0.858
 3931TIP3    H211800   0.630   4.752   0.734
 3932TIP3   OH211801   4.034   2.175   3.544
 3932TIP3    H111802   4.114   2.154   3.593
 3932TIP3    H211803   3.975   2.212   3.609
 3933TIP3   OH211804   3.900   2.562   1.511
 3933TIP3    H111805   3.980   2.514   1.492
 3933TIP3    H211806   3.835   2.495   1.528
 3934TIP3   OH211807   3.382   1.241   4.298
 3934TIP3    H111808   3.438   1.224   4.374
 3934TIP3    H211809   3.312   1.297   4.332
 3935TIP3   OH211810   1.105   0.952   0.162
 3935TIP3    H111811   1.029   1.008   0.175
 3935TIP3    H211812   1.159   0.966   0.240
 3936TIP3   OH211813   3.153   4.331   1.282
 3936TIP3    H111814   3.152   4.422   1.253
 3936TIP3    H211815   3.238   4.321   1.326
 3937TIP3   OH211816   1.635   5.487   1.805
 3937TIP3    H111817   1.624   5.402   1.763
 3937TIP3    H211818   1.667   5.544   1.736
 3938TIP3   OH211819   3.750   3.063   3.314
 3938TIP3    H111820   3.832   3.110   3.297
 3938TIP3    H211821   3.768   2.973   3.286
 3939TIP3   OH211822   3.403   0.351   3.423
 3939TIP3    H111823   3.314   0.359   3.391
 3939TIP3    H211824   3.429   0.441   3.445
 3940TIP3   OH211825   3.554   5.862   3.108
 3940TIP3    H111826   3.612   5.789   3.130
 3940TIP3    H211827   3.529   5.899   3.192
 3941TIP3   OH211828   3.938   2.912   5.108
 3941TIP3    H111829   3.938   2.840   5.171
 3941TIP3    H211830   3.938   2.991   5.162
 3942TIP3   OH211831   4.258   5.529   1.321
 3942TIP3    H111832   4.336   5.509   1.269
 3942TIP3    H211833   4.186   5.527   1.259
 3943TIP3   OH211834   5.584   0.388   3.006
 3943TIP3    H111835   5.535   0.312   2.973
 3943TIP3    H211836   5.600   0.441   2.928
 3944TIP3   OH211837   2.905   4.723   4.640
 3944TIP3    H111838   2.874   4.796   4.692
 3944TIP3    H211839   2.906   4.648   4.700
 3945TIP3   OH211840   3.751   4.351   4.307
 3945TIP3    H111841   3.695   4.279   4.277
 3945TIP3    H211842   3.690   4.424   4.322
 3946TIP3   OH211843   4.117   2.296   2.868
 3946TIP3    H111844   4.100   2.220   2.924
 3946TIP3    H211845   4.160   2.260   2.790
 3947TIP3   OH211846   2.722   0.956   3.259
 3947TIP3    H111847   2.658   1.012   3.304
 3947TIP3    H211848   2.716   0.982   3.167
 3948TIP3   OH211849   3.522   1.938   4.076
 3948TIP3    H111850   3.531   1.898   4.163
 3948TIP3    H211851   3.607   1.977   4.059
 3949TIP3   OH211852   0.287   3.205   1.486
 3949TIP3    H111853   0.258   3.159   1.564
 3949TIP3    H211854   0.352   3.268   1.517
 3950TIP3   OH211855   3.926   5.932   3.092
 3950TIP3    H111856   3.945   6.011   3.040
 3950TIP3    H211857   3.861   5.960   3.156
 3951TIP3   OH211858   2.457   2.463   1.953
 3951TIP3    H111859   2.502   2.379   1.958
 3951TIP3    H211860   2.387   2.449   1.889
 3952TIP3   OH211861   2.295   2.380   0.688
 3952TIP3    H111862   2.297   2.419   0.776
 3952TIP3    H211863   2.291   2.455   0.629
 3953TIP3   OH211864   5.828   1.883   5.149
 3953TIP3    H111865   5.820   1.974   5.122
 3953TIP3    H211866   5.835   1.886   5.245
 3954TIP3   OH211867   1.831   0.750   5.161
 3954TIP3    H111868   1.824   0.762   5.255
 3954TIP3    H211869   1.741   0.737   5.131
 3955TIP3   OH211870   1.048   5.200   2.950
 3955TIP3    H111871   1.079   5.285   2.918
 3955TIP3    H211872   0.966   5.185   2.902
 3956TIP3   OH211873   1.658   5.795   1.944
 3956TIP3    H111874   1.605   5.789   1.865
 3956TIP3    H211875   1.630   5.721   1.998
 3957TIP3   OH211876   5.006   1.017   2.421
 3957TIP3    H111877   5.079   0.968   2.382
 3957TIP3    H211878   4.988   0.972   2.503
 3958TIP3   OH211879   5.852   3.095   2.138
 3958TIP3    H111880   5.905   3.100   2.058
 3958TIP3    H211881   5.885   3.018   2.184
 3959TIP3   OH211882   3.185   1.973   4.358
 3959TIP3    H111883   3.136   1.933   4.286
 3959TIP3    H211884   3.169   1.915   4.433
 3960TIP3   OH211885   4.973   5.297   1.096
 3960TIP3    H111886   4.944   5.282   1.006
 3960TIP3    H211887   4.981   5.209   1.133
 3961TIP3   OH211888   4.168   5.383   5.183
 3961TIP3    H111889   4.182   5.325   5.108
 3961TIP3    H211890   4.203   5.467   5.155
 3962TIP3   OH211891   3.464   2.211   3.179
 3962TIP3    H111892   3.397   2.147   3.155
 3962TIP3    H211893   3.544   2.160   3.189
 3963TIP3   OH211894   5.170   1.520   1.312
 3963TIP3    H111895   5.114   1.568   1.374
 3963TIP3    H211896   5.192   1.585   1.245
 3964TIP3   OH211897   0.544   2.295   4.068
 3964TIP3    H111898   0.476   2.306   4.134
 3964TIP3    H211899   0.620   2.261   4.116
 3965TIP3   OH211900   5.576   2.688   3.316
 3965TIP3    H111901   5.590   2.623   3.247
 3965TIP3    H211902   5.606   2.771   3.277
 3966TIP3   OH211903   1.329   4.553   3.593
 3966TIP3    H111904   1.256   4.604   3.628
 3966TIP3    H211905   1.288   4.475   3.556
 3967TIP3   OH211906   0.131   3.159   4.709
 3967TIP3    H111907   0.204   3.219   4.722
 3967TIP3    H211908   0.170   3.081   4.671
 3968TIP3   OH211909   0.691   1.621   0.690
 3968TIP3    H111910   0.657   1.539   0.656
 3968TIP3    H211911   0.616   1.680   0.692
 3969TIP3   OH211912   1.300   3.613   1.765
 3969TIP3    H111913   1.296   3.708   1.777
 3969TIP3    H211914   1.304   3.601   1.670
 3970TIP3   OH211915   6.257   5.552   3.784
 3970TIP3    H111916   6.327   5.599   3.739
 3970TIP3    H211917   6.230   5.484   3.723
 3971TIP3   OH211918   2.276   1.204   3.230
 3971TIP3    H111919   2.306   1.294   3.242
 3971TIP3    H211920   2.196   1.211   3.179
 3972TIP3   OH211921   5.355   4.467   1.956
 3972TIP3    H111922   5.260   4.456   1.962
 3972TIP3    H211923   5.390   4.405   2.020
 3973TIP3   OH211924   4.091   4.077   4.132
 3973TIP3    H111925   4.095   4.032   4.217
 3973TIP3    H211926   4.138   4.019   4.072
 3974TIP3   OH211927   5.462   1.738   3.819
 3974TIP3    H111928   5.491   1.747   3.910
 3974TIP3    H211929   5.401   1.811   3.807
 3975TIP3   OH211930   1.653   3.815   3.203
 3975TIP3    H111931   1.657   3.727   3.168
 3975TIP3    H211932   1.584   3.812   3.270
 3976TIP3   OH211933   0.465   0.064   5.101
 3976TIP3    H111934   0.381   0.019   5.087
 3976TIP3    H211935   0.523  -0.005   5.133
 3977TIP3   OH211936   3.853   5.312   2.512
 3977TIP3    H111937   3.891   5.225   2.515
 3977TIP3    H211938   3.928   5.371   2.518
 3978TIP3   OH211939   6.246   1.424   3.130
 3978TIP3    H111940   6.310   1.495   3.139
 3978TIP3    H211941   6.247   1.381   3.216
 3979TIP3   OH211942   2.392   5.014   3.750
 3979TIP3    H111943   2.390   5.048   3.661
 3979TIP3    H211944   2.423   5.088   3.803
 3980TIP3   OH211945   3.384   4.914   2.864
 3980TIP3    H111946   3.310   4.854   2.878
 3980TIP3    H211947   3.461   4.861   2.882
 3981TIP3   OH211948   3.606   0.397   4.561
 3981TIP3    H111949   3.645   0.322   4.517
 3981TIP3    H211950   3.674   0.429   4.620
 3982TIP3   OH211951   1.060   2.629   4.025
 3982TIP3    H111952   1.096   2.676   3.951
 3982TIP3    H211953   0.999   2.567   3.987
 3983TIP3   OH211954   4.164   0.933   1.871
 3983TIP3    H111955   4.082   0.920   1.918
 3983TIP3    H211956   4.232   0.904   1.932
 3984TIP3   OH211957   6.206   4.631   4.461
 3984TIP3    H111958   6.148   4.556   4.448
 3984TIP3    H211959   6.171   4.674   4.539
 3985TIP3   OH211960   4.866   2.288   2.737
 3985TIP3    H111961   4.816   2.312   2.659
 3985TIP3    H211962   4.804   2.238   2.790
 3986TIP3   OH211963   5.521   5.903   4.049
 3986TIP3    H111964   5.437   5.933   4.084
 3986TIP3    H211965   5.586   5.958   4.092
 3987TIP3   OH211966   3.159   0.620   0.849
 3987TIP3    H111967   3.163   0.674   0.928
 3987TIP3    H211968   3.075   0.575   0.855
 3988TIP3   OH211969   4.587   3.713   2.501
 3988TIP3    H111970   4.583   3.774   2.427
 3988TIP3    H211971   4.679   3.712   2.527
 3989TIP3   OH211972   5.199   3.389   2.326
 3989TIP3    H111973   5.270   3.335   2.292
 3989TIP3    H211974   5.227   3.479   2.309
 3990TIP3   OH211975   4.875   0.322   1.771
 3990TIP3    H111976   4.918   0.338   1.855
 3990TIP3    H211977   4.946   0.324   1.706
 3991TIP3   OH211978   5.489   1.488   1.273
 3991TIP3    H111979   5.400   1.461   1.296
 3991TIP3    H211980   5.484   1.583   1.269
 3992TIP3   OH211981   0.989   2.586   0.217
 3992TIP3    H111982   1.007   2.621   0.305
 3992TIP3    H211983   0.908   2.628   0.191
 3993TIP3   OH211984   5.409   4.345   2.213
 3993TIP3    H111985   5.395   4.379   2.301
 3993TIP3    H211986   5.430   4.252   2.226
 3994TIP3   OH211987   6.074   1.979   2.353
 3994TIP3    H111988   6.117   2.050   2.400
 3994TIP3    H211989   6.136   1.906   2.357
 3995TIP3   OH211990   6.212   0.951   4.949
 3995TIP3    H111991   6.292   0.911   4.983
 3995TIP3    H211992   6.145   0.929   5.014
 3996TIP3   OH211993   0.219   3.677   3.445
 3996TIP3    H111994   0.189   3.744   3.506
 3996TIP3    H211995   0.272   3.617   3.498
 3997TIP3   OH211996   0.838   4.031   3.142
 3997TIP3    H111997   0.816   3.971   3.213
 3997TIP3    H211998   0.904   4.089   3.179
 3998TIP3   OH211999   5.962   1.024   0.805
 3998TIP3    H112000   5.951   1.051   0.896
 3998TIP3    H212001   5.874   1.003   0.775
 3999TIP3   OH212002   5.999   1.690   1.725
 3999TIP3    H112003   6.031   1.723   1.809
 3999TIP3    H212004   5.983   1.769   1.674
 4000TIP3   OH212005   1.518   3.357   3.204
 4000TIP3    H112006   1.481   3.272   3.180
 4000TIP3    H212007   1.559   3.343   3.289
 4001TIP3   OH212008   3.337   3.664   4.873
 4001TIP3    H112009   3.383   3.748   4.873
 4001TIP3    H212010   3.314   3.649   4.781
 4002TIP3   OH212011   5.262   0.663   2.801
 4002TIP3    H112012   5.209   0.716   2.742
 4002TIP3    H212013   5.207   0.587   2.821
 4003TIP3   OH212014   2.704   0.514   4.405
 4003TIP3    H112015   2.626   0.549   4.364
 4003TIP3    H212016   2.775   0.570   4.374
 4004TIP3   OH212017   5.422   5.403   1.019
 4004TIP3    H112018   5.418   5.392   1.114
 4004TIP3    H212019   5.511   5.375   0.996
 4005TIP3   OH212020   4.220   3.346   0.631
 4005TIP3    H112021   4.239   3.254   0.647
 4005TIP3    H212022   4.300   3.381   0.591
 4006TIP3   OH212023   2.676   0.679   4.766
 4006TIP3    H112024   2.708   0.722   4.687
 4006TIP3    H212025   2.753   0.638   4.805
 4007TIP3   OH212026   5.630   2.773   2.946
 4007TIP3    H112027   5.676   2.812   3.021
 4007TIP3    H212028   5.537   2.784   2.967
 4008TIP3   OH212029   3.068   4.094   1.156
 4008TIP3    H112030   3.117   4.175   1.174
 4008TIP3    H212031   2.985   4.124   1.118
 4009TIP3   OH212032   1.219   4.214   3.065
 4009TIP3    H112033   1.134   4.198   3.107
 4009TIP3    H212034   1.258   4.286   3.115
 4010TIP3   OH212035   0.979   3.187   4.195
 4010TIP3    H112036   0.947   3.167   4.283
 4010TIP3    H212037   1.070   3.157   4.196
 4011TIP3   OH212038   2.881   1.291   0.855
 4011TIP3    H112039   2.838   1.206   0.866
 4011TIP3    H212040   2.949   1.293   0.922
 4012TIP3   OH212041   0.463   2.258   0.405
 4012TIP3    H112042   0.390   2.253   0.466
 4012TIP3    H212043   0.503   2.343   0.423
 4013TIP3   OH212044   0.756   2.184   4.196
 4013TIP3    H112045   0.722   2.101   4.162
 4013TIP3    H212046   0.801   2.160   4.277
 4014TIP3   OH212047   5.441   4.765   0.695
 4014TIP3    H112048   5.445   4.832   0.627
 4014TIP3    H212049   5.493   4.692   0.662
 4015TIP3   OH212050   2.955   4.503   0.167
 4015TIP3    H112051   2.880   4.544   0.210
 4015TIP3    H212052   3.027   4.565   0.181
 4016TIP3   OH212053   5.294   3.970   3.086
 4016TIP3    H112054   5.231   3.951   3.017
 4016TIP3    H212055   5.375   3.990   3.039
 4017TIP3   OH212056   1.006   1.837   1.521
 4017TIP3    H112057   0.942   1.766   1.525
 4017TIP3    H212058   1.073   1.806   1.461
 4018TIP3   OH212059   4.548   4.394   2.947
 4018TIP3    H112060   4.604   4.321   2.972
 4018TIP3    H212061   4.598   4.472   2.971
 4019TIP3   OH212062   0.512   3.498   4.726
 4019TIP3    H112063   0.531   3.535   4.639
 4019TIP3    H212064   0.514   3.574   4.785
 4020TIP3   OH212065   3.128   2.897   2.615
 4020TIP3    H112066   3.217   2.920   2.641
 4020TIP3    H212067   3.126   2.802   2.618
 4021TIP3   OH212068   2.198   4.880   3.127
 4021TIP3    H112069   2.241   4.934   3.194
 4021TIP3    H212070   2.231   4.792   3.143
 4022TIP3   OH212071   4.104   0.900   2.332
 4022TIP3    H112072   4.136   0.824   2.284
 4022TIP3    H212073   4.139   0.890   2.420
 4023TIP3   OH212074   3.675   5.946   2.844
 4023TIP3    H112075   3.765   5.977   2.856
 4023TIP3    H212076   3.647   5.919   2.932
 4024TIP3   OH212077   0.911   1.492   2.397
 4024TIP3    H112078   0.995   1.466   2.360
 4024TIP3    H212079   0.925   1.581   2.430
 4025TIP3   OH212080   4.668   1.295   3.482
 4025TIP3    H112081   4.705   1.297   3.570
 4025TIP3    H212082   4.741   1.321   3.425
 4026TIP3   OH212083   2.747   2.020   3.345
 4026TIP3    H112084   2.736   2.115   3.349
 4026TIP3    H212085   2.713   1.995   3.259
 4027TIP3   OH212086   3.699   1.573   2.318
 4027TIP3    H112087   3.715   1.517   2.242
 4027TIP3    H212088   3.767   1.640   2.313
 4028TIP3   OH212089   6.109   3.484   4.737
 4028TIP3    H112090   6.025   3.442   4.720
 4028TIP3    H212091   6.170   3.440   4.677
 4029TIP3   OH212092   0.319   3.125   2.792
 4029TIP3    H112093   0.309   3.089   2.880
 4029TIP3    H212094   0.412   3.143   2.783
 4030TIP3   OH212095   1.540   4.230   3.720
 4030TIP3    H112096   1.457   4.250   3.764
 4030TIP3    H212097   1.527   4.258   3.630
 4031TIP3   OH212098   6.080   1.486   1.559
 4031TIP3    H112099   6.059   1.567   1.606
 4031TIP3    H212100   6.058   1.416   1.620
 4032TIP3   OH212101   0.624   4.123   2.992
 4032TIP3    H112102   0.613   4.059   2.921
 4032TIP3    H212103   0.699   4.090   3.042
 4033TIP3   OH212104   2.414   1.448   2.125
 4033TIP3    H112105   2.479   1.515   2.103
 4033TIP3    H212106   2.363   1.487   2.196
 4034TIP3   OH212107   3.865   4.821   1.094
 4034TIP3    H112108   3.884   4.740   1.140
 4034TIP3    H212109   3.885   4.890   1.157
 4035TIP3   OH212110   0.098   4.397   3.342
 4035TIP3    H112111   0.088   4.305   3.318
 4035TIP3    H212112   0.186   4.420   3.313
 4036TIP3   OH212113   5.421   1.312   0.356
 4036TIP3    H112114   5.477   1.235   0.357
 4036TIP3    H212115   5.461   1.372   0.419
 4037TIP3   OH212116   5.628   4.873   4.174
 4037TIP3    H112117   5.610   4.911   4.260
 4037TIP3    H212118   5.683   4.797   4.192
 4038TIP3   OH212119   2.527   3.715   0.311
 4038TIP3    H112120   2.488   3.750   0.391
 4038TIP3    H212121   2.513   3.620   0.317
 4039TIP3   OH212122   5.938   2.463   4.307
 4039TIP3    H112123   5.925   2.545   4.259
 4039TIP3    H212124   5.943   2.490   4.399
 4040TIP3   OH212125   1.776   0.876   0.477
 4040TIP3    H112126   1.755   0.797   0.526
 4040TIP3    H212127   1.812   0.936   0.542
 4041TIP3   OH212128   0.293   1.916   0.597
 4041TIP3    H112129   0.307   2.010   0.609
 4041TIP3    H212130   0.200   1.902   0.616
 4042TIP3   OH212131   3.466   0.965   4.597
 4042TIP3    H112132   3.469   0.869   4.604
 4042TIP3    H212133   3.380   0.984   4.561
 4043TIP3   OH212134   1.791   5.096   2.511
 4043TIP3    H112135   1.770   5.013   2.468
 4043TIP3    H212136   1.839   5.146   2.445
 4044TIP3   OH212137   4.741   3.658   0.572
 4044TIP3    H112138   4.684   3.609   0.630
 4044TIP3    H212139   4.682   3.702   0.511
 4045TIP3   OH212140   4.248   1.695   0.340
 4045TIP3    H112141   4.277   1.786   0.344
 4045TIP3    H212142   4.328   1.644   0.352
 4046TIP3   OH212143   0.928   3.273   4.855
 4046TIP3    H112144   0.923   3.315   4.769
 4046TIP3    H212145   1.010   3.224   4.853
 4047TIP3   OH212146   4.562   4.253   1.414
 4047TIP3    H112147   4.481   4.217   1.448
 4047TIP3    H212148   4.535   4.328   1.361
 4048TIP3   OH212149   2.598   3.811   3.648
 4048TIP3    H112150   2.556   3.741   3.699
 4048TIP3    H212151   2.656   3.854   3.711
 4049TIP3   OH212152   3.919   3.785   0.249
 4049TIP3    H112153   3.958   3.812   0.332
 4049TIP3    H212154   3.851   3.722   0.274
 4050TIP3   OH212155   5.977   1.840   0.463
 4050TIP3    H112156   5.964   1.856   0.557
 4050TIP3    H212157   6.017   1.754   0.459
 4051TIP3   OH212158   2.999   2.228   3.598
 4051TIP3    H112159   2.941   2.302   3.583
 4051TIP3    H212160   2.991   2.209   3.691
 4052TIP3   OH212161   4.637   1.204   2.531
 4052TIP3    H112162   4.579   1.136   2.565
 4052TIP3    H212163   4.651   1.263   2.605
 4053TIP3   OH212164   3.033   0.247   0.327
 4053TIP3    H112165   3.122   0.281   0.331
 4053TIP3    H212166   3.030   0.180   0.396
 4054TIP3   OH212167   2.147   4.488   2.570
 4054TIP3    H112168   2.208   4.540   2.517
 4054TIP3    H212169   2.173   4.397   2.554
 4055TIP3   OH212170   0.076   4.170   4.562
 4055TIP3    H112171  -0.013   4.137   4.554
 4055TIP3    H212172   0.078   4.216   4.646
 4056TIP3   OH212173   2.957   4.757   2.073
 4056TIP3    H112174   3.035   4.718   2.112
 4056TIP3    H212175   2.989   4.834   2.027
 4057TIP3   OH212176   4.148   2.460   3.978
 4057TIP3    H112177   4.160   2.408   4.057
 4057TIP3    H212178   4.054   2.461   3.963
 4058TIP3   OH212179   0.482   0.572   2.106
 4058TIP3    H112180   0.395   0.611   2.112
 4058TIP3    H212181   0.518   0.580   2.195
 4059TIP3   OH212182   2.242   2.114   1.615
 4059TIP3    H112183   2.220   2.026   1.646
 4059TIP3    H212184   2.279   2.157   1.692
 4060TIP3   OH212185   3.832   0.778   0.063
 4060TIP3    H112186   3.810   0.746  -0.024
 4060TIP3    H212187   3.759   0.835   0.087
 4061TIP3   OH212188   0.346   2.752   3.205
 4061TIP3    H112189   0.428   2.769   3.159
 4061TIP3    H212190   0.371   2.743   3.297
 4062TIP3   OH212191   0.759   2.500   3.526
 4062TIP3    H112192   0.850   2.482   3.504
 4062TIP3    H212193   0.717   2.518   3.441
 4063TIP3   OH212194   6.162   3.057   0.848
 4063TIP3    H112195   6.195   3.130   0.795
 4063TIP3    H212196   6.081   3.031   0.805
 4064TIP3   OH212197   2.219   0.160   3.084
 4064TIP3    H112198   2.247   0.197   3.167
 4064TIP3    H212199   2.126   0.140   3.096
 4065TIP3   OH212200   5.529   0.134   1.926
 4065TIP3    H112201   5.592   0.123   1.854
 4065TIP3    H212202   5.544   0.059   1.983
 4066TIP3   OH212203   0.519   0.628   2.398
 4066TIP3    H112204   0.609   0.656   2.413
 4066TIP3    H212205   0.479   0.629   2.485
 4067TIP3   OH212206   5.831   1.594   0.168
 4067TIP3    H112207   5.922   1.608   0.194
 4067TIP3    H212208   5.809   1.508   0.205
 4068TIP3   OH212209   6.342   0.706   3.740
 4068TIP3    H112210   6.386   0.622   3.732
 4068TIP3    H212211   6.260   0.686   3.785
 4069TIP3   OH212212   0.346   5.153   1.006
 4069TIP3    H112213   0.439   5.136   0.993
 4069TIP3    H212214   0.305   5.067   1.008
 4070TIP3   OH212215   2.978   2.460   4.244
 4070TIP3    H112216   2.972   2.456   4.339
 4070TIP3    H212217   3.071   2.446   4.225
 4071TIP3   OH212218   1.499   3.453   0.433
 4071TIP3    H112219   1.439   3.509   0.481
 4071TIP3    H212220   1.582   3.501   0.435
 4072TIP3   OH212221   1.510   2.760   3.889
 4072TIP3    H112222   1.478   2.701   3.956
 4072TIP3    H212223   1.603   2.740   3.880
 4073TIP3   OH212224   3.416   2.369   0.908
 4073TIP3    H112225   3.405   2.299   0.972
 4073TIP3    H212226   3.412   2.450   0.959
 4074TIP3   OH212227   1.412   3.878   2.401
 4074TIP3    H112228   1.384   3.858   2.312
 4074TIP3    H212229   1.412   3.973   2.405
 4075TIP3   OH212230   2.164   2.989   3.777
 4075TIP3    H112231   2.097   3.014   3.713
 4075TIP3    H212232   2.216   2.922   3.733
 4076TIP3   OH212233   2.046   4.363   0.929
 4076TIP3    H112234   2.080   4.441   0.886
 4076TIP3    H212235   2.097   4.291   0.893
 4077TIP3   OH212236  -0.025   4.578   0.443
 4077TIP3    H112237   0.047   4.604   0.386
 4077TIP3    H212238  -0.008   4.623   0.526
 4078TIP3   OH212239   4.426   5.242   0.556
 4078TIP3    H112240   4.344   5.238   0.507
 4078TIP3    H212241   4.476   5.312   0.513
 4079TIP3   OH212242   0.680   0.722   1.333
 4079TIP3    H112243   0.601   0.762   1.368
 4079TIP3    H212244   0.731   0.698   1.410
 4080TIP3   OH212245   0.563   5.332   4.005
 4080TIP3    H112246   0.562   5.270   3.932
 4080TIP3    H212247   0.562   5.418   3.962
 4081TIP3   OH212248   2.406   3.274   1.548
 4081TIP3    H112249   2.485   3.276   1.494
 4081TIP3    H212250   2.376   3.365   1.551
 4082TIP3   OH212251   1.686   1.321   3.213
 4082TIP3    H112252   1.703   1.390   3.149
 4082TIP3    H212253   1.627   1.360   3.277
 4083TIP3   OH212254   0.268   4.219   3.744
 4083TIP3    H112255   0.267   4.264   3.659
 4083TIP3    H212256   0.209   4.271   3.799
 4084TIP3   OH212257   5.852   0.669   2.764
 4084TIP3    H112258   5.805   0.676   2.681
 4084TIP3    H212259   5.884   0.758   2.781
 4085TIP3   OH212260   2.975   5.327   1.026
 4085TIP3    H112261   2.981   5.355   0.934
 4085TIP3    H212262   2.911   5.256   1.025
 4086TIP3   OH212263   1.408   4.532   3.973
 4086TIP3    H112264   1.495   4.491   3.969
 4086TIP3    H212265   1.347   4.459   3.965
 4087TIP3   OH212266   2.336   4.488   0.854
 4087TIP3    H112267   2.263   4.549   0.850
 4087TIP3    H212268   2.311   4.417   0.794
 4088TIP3   OH212269   3.251   3.331   1.052
 4088TIP3    H112270   3.200   3.365   0.979
 4088TIP3    H212271   3.298   3.256   1.016
 4089TIP3   OH212272   2.819   3.830   4.218
 4089TIP3    H112273   2.906   3.865   4.236
 4089TIP3    H212274   2.758   3.900   4.241
 4090TIP3   OH212275   6.244   4.717   0.929
 4090TIP3    H112276   6.211   4.749   0.845
 4090TIP3    H212277   6.192   4.763   0.994
 4091TIP3   OH212278   5.776   4.830   4.862
 4091TIP3    H112279   5.829   4.805   4.786
 4091TIP3    H212280   5.727   4.907   4.834
 4092TIP3   OH212281   1.799   0.541   3.736
 4092TIP3    H112282   1.842   0.458   3.716
 4092TIP3    H212283   1.797   0.587   3.652
 4093TIP3   OH212284   4.292   1.871   1.616
 4093TIP3    H112285   4.284   1.862   1.521
 4093TIP3    H212286   4.316   1.783   1.646
 4094TIP3   OH212287   0.119   4.594   4.345
 4094TIP3    H112288   0.192   4.574   4.404
 4094TIP3    H212289   0.041   4.587   4.400
 4095TIP3   OH212290   2.501   1.172   4.656
 4095TIP3    H112291   2.461   1.112   4.593
 4095TIP3    H212292   2.430   1.230   4.683
 4096TIP3   OH212293   0.954   3.374   0.076
 4096TIP3    H112294   1.006   3.299   0.103
 4096TIP3    H212295   0.961   3.376  -0.019
 4097TIP3   OH212296   6.117   1.877   0.843
 4097TIP3    H112297   6.053   1.847   0.779
 4097TIP3    H212298   6.183   1.808   0.844
 4098TIP3   OH212299   2.542   1.522   3.832
 4098TIP3    H112300   2.541   1.470   3.752
 4098TIP3    H212301   2.453   1.557   3.838
 4099TIP3   OH212302   0.227   4.686   1.265
 4099TIP3    H112303   0.199   4.695   1.356
 4099TIP3    H212304   0.265   4.771   1.243
 4100TIP3   OH212305   5.897   1.799   0.714
 4100TIP3    H112306   5.819   1.854   0.701
 4100TIP3    H212307   5.873   1.740   0.786
 4101TIP3   OH212308   3.232   3.366   4.904
 4101TIP3    H112309   3.198   3.372   4.814
 4101TIP3    H212310   3.155   3.382   4.959
 4102TIP3   OH212311   2.865   4.546   1.884
 4102TIP3    H112312   2.921   4.618   1.914
 4102TIP3    H212313   2.873   4.548   1.788
 4103TIP3   OH212314   4.993   0.092   2.456
 4103TIP3    H112315   5.018   0.101   2.364
 4103TIP3    H212316   5.075   0.071   2.501
 4104TIP3   OH212317   5.992   5.620   4.067
 4104TIP3    H112318   6.023   5.710   4.055
 4104TIP3    H212319   5.963   5.593   3.980
 4105TIP3   OH212320   6.274   0.488   0.576
 4105TIP3    H112321   6.270   0.519   0.486
 4105TIP3    H212322   6.322   0.406   0.571
 4106TIP3   OH212323   2.914   4.450   2.182
 4106TIP3    H112324   2.968   4.376   2.209
 4106TIP3    H212325   2.933   4.460   2.088
 4107TIP3   OH212326   4.351   4.948   0.444
 4107TIP3    H112327   4.290   4.965   0.516
 4107TIP3    H212328   4.346   5.027   0.390
 4108TIP3   OH212329   2.140   1.970   2.623
 4108TIP3    H112330   2.196   1.954   2.699
 4108TIP3    H212331   2.177   1.914   2.554
 4109TIP3   OH212332   4.271   3.052   0.951
 4109TIP3    H112333   4.185   3.064   0.991
 4109TIP3    H212334   4.277   2.959   0.933
 4110TIP3   OH212335   3.776   1.846   2.231
 4110TIP3    H112336   3.827   1.894   2.296
 4110TIP3    H212337   3.742   1.913   2.172
 4111TIP3   OH212338   1.750   5.354   2.989
 4111TIP3    H112339   1.791   5.437   3.012
 4111TIP3    H212340   1.673   5.378   2.938
 4112TIP3   OH212341   5.992   0.728   4.135
 4112TIP3    H112342   6.006   0.786   4.060
 4112TIP3    H212343   5.933   0.661   4.103
 4113TIP3   OH212344   5.077   2.932   1.817
 4113TIP3    H112345   5.042   2.926   1.906
 4113TIP3    H212346   5.032   3.008   1.779
 4114TIP3   OH212347   3.961   4.463   0.201
 4114TIP3    H112348   3.904   4.526   0.156
 4114TIP3    H212349   3.918   4.378   0.187
 4115TIP3   OH212350   4.717   1.006   0.286
 4115TIP3    H112351   4.640   0.964   0.323
 4115TIP3    H212352   4.759   0.937   0.234
 4116TIP3   OH212353   3.057   1.104   1.247
 4116TIP3    H112354   3.041   1.179   1.305
 4116TIP3    H212355   3.120   1.050   1.294
 4117TIP3   OH212356   4.038   1.807   4.919
 4117TIP3    H112357   3.962   1.749   4.921
 4117TIP3    H212358   4.054   1.822   4.825
 4118TIP3   OH212359   5.579   3.139   3.073
 4118TIP3    H112360   5.625   3.065   3.114
 4118TIP3    H212361   5.635   3.215   3.092
 4119TIP3   OH212362   0.950   4.652   5.001
 4119TIP3    H112363   0.908   4.607   4.928
 4119TIP3    H212364   1.016   4.590   5.033
 4120TIP3   OH212365   5.041   5.288   1.629
 4120TIP3    H112366   5.104   5.273   1.558
 4120TIP3    H212367   5.091   5.272   1.709
 4121TIP3   OH212368   3.718   1.825   3.152
 4121TIP3    H112369   3.628   1.811   3.182
 4121TIP3    H212370   3.747   1.902   3.200
 4122TIP3   OH212371   6.183   3.825   2.619
 4122TIP3    H112372   6.149   3.882   2.687
 4122TIP3    H212373   6.253   3.875   2.578
 4123TIP3   OH212374   4.221   0.944   0.799
 4123TIP3    H112375   4.253   0.972   0.884
 4123TIP3    H212376   4.293   0.963   0.739
 4124TIP3   OH212377   0.427   5.634   4.546
 4124TIP3    H112378   0.521   5.640   4.527
 4124TIP3    H212379   0.391   5.717   4.513
 4125TIP3   OH212380   5.789   2.593   1.505
 4125TIP3    H112381   5.738   2.530   1.454
 4125TIP3    H212382   5.832   2.540   1.572
 4126TIP3   OH212383   0.706   4.598   0.031
 4126TIP3    H112384   0.745   4.610   0.117
 4126TIP3    H212385   0.746   4.667  -0.023
 4127TIP3   OH212386   3.458   4.422   0.752
 4127TIP3    H112387   3.541   4.437   0.707
 4127TIP3    H212388   3.473   4.345   0.807
 4128TIP3   OH212389   4.091   0.227   4.954
 4128TIP3    H112390   4.057   0.212   4.866
 4128TIP3    H212391   4.058   0.154   5.006
 4129TIP3   OH212392   4.656   3.056   1.062
 4129TIP3    H112393   4.574   3.049   1.111
 4129TIP3    H212394   4.720   3.010   1.116
 4130TIP3   OH212395   2.636   5.288   1.305
 4130TIP3    H112396   2.594   5.369   1.275
 4130TIP3    H212397   2.697   5.317   1.373
 4131TIP3   OH212398   2.839   3.785   3.360
 4131TIP3    H112399   2.908   3.733   3.318
 4131TIP3    H212400   2.877   3.811   3.444
 4132TIP3   OH212401   0.801   5.571   0.375
 4132TIP3    H112402   0.846   5.499   0.331
 4132TIP3    H212403   0.855   5.590   0.452
 4133TIP3   OH212404   5.498   4.038   5.031
 4133TIP3    H112405   5.419   4.066   4.985
 4133TIP3    H212406   5.477   3.950   5.063
 4134TIP3   OH212407   4.824   2.599   2.473
 4134TIP3    H112408   4.860   2.646   2.549
 4134TIP3    H212409   4.887   2.529   2.456
 4135TIP3   OH212410   1.603   3.390   3.461
 4135TIP3    H112411   1.515   3.415   3.489
 4135TIP3    H212412   1.655   3.470   3.475
 4136TIP3   OH212413   2.894   0.815   2.369
 4136TIP3    H112414   2.912   0.727   2.335
 4136TIP3    H212415   2.805   0.810   2.403
 4137TIP3   OH212416   3.486   4.391   2.985
 4137TIP3    H112417   3.495   4.355   2.897
 4137TIP3    H212418   3.449   4.319   3.037
 4138TIP3   OH212419   3.338   1.433   1.851
 4138TIP3    H112420   3.302   1.433   1.762
 4138TIP3    H212421   3.330   1.524   1.880
 4139TIP3   OH212422   2.313   0.244   0.016
 4139TIP3    H112423   2.307   0.255   0.111
 4139TIP3    H212424   2.230   0.279  -0.017
 4140TIP3   OH212425   2.600   1.592   3.102
 4140TIP3    H112426   2.676   1.534   3.098
 4140TIP3    H212427   2.636   1.680   3.086
 4141TIP3   OH212428   0.990   5.579   3.403
 4141TIP3    H112429   1.024   5.654   3.353
 4141TIP3    H212430   0.910   5.613   3.445
 4142TIP3   OH212431   2.115   3.733   0.800
 4142TIP3    H112432   2.106   3.701   0.710
 4142TIP3    H212433   2.200   3.700   0.829
 4143TIP3   OH212434   0.981   0.541   4.791
 4143TIP3    H112435   0.894   0.514   4.761
 4143TIP3    H212436   1.040   0.511   4.722
 4144TIP3   OH212437   5.357   1.928   4.386
 4144TIP3    H112438   5.449   1.901   4.396
 4144TIP3    H212439   5.354   1.969   4.300
 4145TIP3   OH212440   4.901   4.618   2.236
 4145TIP3    H112441   4.974   4.576   2.281
 4145TIP3    H212442   4.825   4.602   2.292
 4146TIP3   OH212443   5.559   2.727   4.782
 4146TIP3    H112444   5.494   2.677   4.831
 4146TIP3    H212445   5.541   2.706   4.690
 4147TIP3   OH212446   4.173   5.370   3.975
 4147TIP3    H112447   4.089   5.377   4.020
 4147TIP3    H212448   4.173   5.283   3.936
 4148TIP3   OH212449   6.341   1.247   0.097
 4148TIP3    H112450   6.259   1.269   0.055
 4148TIP3    H212451   6.328   1.267   0.189
 4149TIP3   OH212452   1.494   3.314   2.513
 4149TIP3    H112453   1.400   3.299   2.527
 4149TIP3    H212454   1.531   3.314   2.601
 4150TIP3   OH212455   3.584   3.744   0.184
 4150TIP3    H112456   3.490   3.739   0.199
 4150TIP3    H212457   3.606   3.663   0.138
 4151TIP3   OH212458   0.857   0.002   2.096
 4151TIP3    H112459   0.830   0.064   2.164
 4151TIP3    H212460   0.948   0.025   2.078
 4152TIP3   OH212461   0.476   0.880   0.370
 4152TIP3    H112462   0.525   0.838   0.440
 4152TIP3    H212463   0.490   0.824   0.294
 4153TIP3   OH212464   5.131   2.497   4.379
 4153TIP3    H112465   5.040   2.499   4.350
 4153TIP3    H212466   5.141   2.413   4.424
 4154TIP3   OH212467   3.781   2.276   1.804
 4154TIP3    H112468   3.753   2.274   1.713
 4154TIP3    H212469   3.852   2.340   1.806
 4155TIP3   OH212470   3.508   2.017   4.600
 4155TIP3    H112471   3.513   1.960   4.523
 4155TIP3    H212472   3.572   1.981   4.661
 4156TIP3   OH212473   1.968   1.209   4.442
 4156TIP3    H112474   1.994   1.129   4.395
 4156TIP3    H212475   2.027   1.276   4.409
 4157TIP3   OH212476   2.852   0.149   0.680
 4157TIP3    H112477   2.783   0.136   0.745
 4157TIP3    H212478   2.932   0.158   0.731
 4158TIP3   OH212479   0.457   4.439   1.596
 4158TIP3    H112480   0.504   4.368   1.640
 4158TIP3    H212481   0.386   4.461   1.656
 4159TIP3   OH212482   1.630   1.408   0.925
 4159TIP3    H112483   1.558   1.383   0.983
 4159TIP3    H212484   1.701   1.432   0.983
 4160TIP3   OH212485   6.264   2.426   3.310
 4160TIP3    H112486   6.200   2.356   3.327
 4160TIP3    H212487   6.306   2.441   3.394
 4161TIP3   OH212488   0.585   4.339   4.798
 4161TIP3    H112489   0.507   4.304   4.755
 4161TIP3    H212490   0.621   4.265   4.847
 4162TIP3   OH212491   6.145   1.342   0.641
 4162TIP3    H112492   6.178   1.253   0.650
 4162TIP3    H212493   6.050   1.333   0.646
 4163TIP3   OH212494   5.313   2.481   1.001
 4163TIP3    H112495   5.400   2.487   1.041
 4163TIP3    H212496   5.329   2.496   0.908
 4164TIP3   OH212497   3.262   5.129   3.997
 4164TIP3    H112498   3.256   5.203   4.057
 4164TIP3    H212499   3.178   5.085   4.003
 4165TIP3   OH212500   5.482   2.366   1.687
 4165TIP3    H112501   5.502   2.321   1.605
 4165TIP3    H212502   5.398   2.328   1.716
 4166TIP3   OH212503   4.779   4.014   4.922
 4166TIP3    H112504   4.685   3.998   4.935
 4166TIP3    H212505   4.792   4.003   4.828
 4167TIP3   OH212506   2.402   3.774   0.871
 4167TIP3    H112507   2.488   3.810   0.850
 4167TIP3    H212508   2.420   3.706   0.937
 4168TIP3   OH212509   2.708   1.395   2.901
 4168TIP3    H112510   2.718   1.479   2.855
 4168TIP3    H212511   2.778   1.394   2.966
 4169TIP3   OH212512   1.167   1.390   3.769
 4169TIP3    H112513   1.157   1.413   3.862
 4169TIP3    H212514   1.194   1.472   3.727
 4170TIP3   OH212515   2.758   1.035   0.142
 4170TIP3    H112516   2.729   0.988   0.064
 4170TIP3    H212517   2.731   1.126   0.127
 4171TIP3   OH212518   0.719   2.281   0.670
 4171TIP3    H112519   0.806   2.251   0.646
 4171TIP3    H212520   0.660   2.214   0.637
 4172TIP3   OH212521   5.084   1.280   4.797
 4172TIP3    H112522   5.160   1.243   4.841
 4172TIP3    H212523   5.088   1.374   4.816
 4173TIP3   OH212524   3.228   4.723   2.985
 4173TIP3    H112525   3.239   4.677   3.068
 4173TIP3    H212526   3.197   4.656   2.925
 4174TIP3   OH212527   0.204   1.320   4.211
 4174TIP3    H112528   0.139   1.266   4.166
 4174TIP3    H212529   0.273   1.258   4.237
 4175TIP3   OH212530   2.439   2.548   0.972
 4175TIP3    H112531   2.534   2.540   0.969
 4175TIP3    H212532   2.421   2.638   0.946
 4176TIP3   OH212533   2.940   2.319   0.477
 4176TIP3    H112534   2.924   2.403   0.434
 4176TIP3    H212535   2.854   2.288   0.503
 4177TIP3   OH212536   5.677   3.425   0.012
 4177TIP3    H112537   5.641   3.362  -0.052
 4177TIP3    H212538   5.621   3.502   0.004
 4178TIP3   OH212539   2.572   4.637   0.795
 4178TIP3    H112540   2.565   4.702   0.864
 4178TIP3    H212541   2.487   4.593   0.794
 4179TIP3   OH212542   3.670   5.490   2.237
 4179TIP3    H112543   3.665   5.501   2.332
 4179TIP3    H212544   3.578   5.491   2.208
 4180TIP3   OH212545   0.709   0.904   4.581
 4180TIP3    H112546   0.687   0.997   4.576
 4180TIP3    H212547   0.805   0.903   4.583
 4181TIP3   OH212548   1.450   4.137   2.351
 4181TIP3    H112549   1.535   4.136   2.306
 4181TIP3    H212550   1.398   4.201   2.303
 4182TIP3   OH212551   2.800   0.183   4.758
 4182TIP3    H112552   2.751   0.247   4.708
 4182TIP3    H212553   2.755   0.179   4.843
 4183TIP3   OH212554   3.564   0.931   1.733
 4183TIP3    H112555   3.562   0.852   1.678
 4183TIP3    H212556   3.517   0.905   1.813
 4184TIP3   OH212557   3.641   2.890   0.650
 4184TIP3    H112558   3.561   2.853   0.688
 4184TIP3    H212559   3.678   2.818   0.599
 4185TIP3   OH212560   0.925   0.120   0.499
 4185TIP3    H112561   0.872   0.104   0.420
 4185TIP3    H212562   0.866   0.103   0.572
 4186TIP3   OH212563   3.838   1.095   2.097
 4186TIP3    H112564   3.901   1.167   2.099
 4186TIP3    H212565   3.778   1.117   2.025
 4187TIP3   OH212566   4.473   2.100   3.216
 4187TIP3    H112567   4.488   2.195   3.218
 4187TIP3    H212568   4.558   2.062   3.238
 4188TIP3   OH212569   5.545   4.790   2.969
 4188TIP3    H112570   5.617   4.752   3.021
 4188TIP3    H212571   5.532   4.877   3.007
 4189TIP3   OH212572   2.721   3.474   0.948
 4189TIP3    H112573   2.741   3.565   0.924
 4189TIP3    H212574   2.704   3.430   0.865
 4190TIP3   OH212575   5.877   3.771   0.548
 4190TIP3    H112576   5.802   3.797   0.494
 4190TIP3    H212577   5.838   3.728   0.624
 4191TIP3   OH212578   1.507   1.493   0.693
 4191TIP3    H112579   1.551   1.458   0.771
 4191TIP3    H212580   1.513   1.588   0.702
 4192TIP3   OH212581   1.632   4.376   4.001
 4192TIP3    H112582   1.694   4.339   4.064
 4192TIP3    H212583   1.649   4.328   3.920
 4193TIP3   OH212584   5.708   4.342   3.802
 4193TIP3    H112585   5.799   4.317   3.790
 4193TIP3    H212586   5.708   4.437   3.793
 4194TIP3   OH212587   3.471   4.817   1.033
 4194TIP3    H112588   3.487   4.747   1.097
 4194TIP3    H212589   3.459   4.896   1.086
 4195TIP3   OH212590   0.371   2.572   2.652
 4195TIP3    H112591   0.395   2.500   2.711
 4195TIP3    H212592   0.378   2.535   2.564
 4196TIP3   OH212593   0.111   2.886   3.191
 4196TIP3    H112594   0.044   2.823   3.218
 4196TIP3    H212595   0.194   2.840   3.202
 4197TIP3   OH212596   2.153   4.712   4.989
 4197TIP3    H112597   2.182   4.635   5.037
 4197TIP3    H212598   2.199   4.707   4.905
 4198TIP3   OH212599   0.080   2.849   1.963
 4198TIP3    H112600   0.166   2.863   2.004
 4198TIP3    H212601   0.079   2.757   1.940
 4199TIP3   OH212602   0.482   2.888   0.671
 4199TIP3    H112603   0.419   2.957   0.692
 4199TIP3    H212604   0.431   2.824   0.620
 4200TIP3   OH212605   4.980   2.619   2.047
 4200TIP3    H112606   4.902   2.651   2.001
 4200TIP3    H212607   4.983   2.670   2.128
 4201TIP3   OH212608   3.266   4.523   1.897
 4201TIP3    H112609   3.281   4.584   1.969
 4201TIP3    H212610   3.220   4.449   1.936
 4202TIP3   OH212611   5.312   1.876   0.836
 4202TIP3    H112612   5.323   1.821   0.759
 4202TIP3    H212613   5.218   1.897   0.838
 4203TIP3   OH212614   4.585   2.117   0.789
 4203TIP3    H112615   4.587   2.153   0.877
 4203TIP3    H212616   4.652   2.165   0.741
 4204TIP3   OH212617   2.462   4.556   0.421
 4204TIP3    H112618   2.419   4.560   0.335
 4204TIP3    H212619   2.550   4.524   0.402
 4205TIP3   OH212620   4.113   3.753   1.287
 4205TIP3    H112621   4.084   3.672   1.245
 4205TIP3    H212622   4.147   3.724   1.372
 4206TIP3   OH212623   4.839   3.900   1.396
 4206TIP3    H112624   4.819   3.854   1.314
 4206TIP3    H212625   4.929   3.875   1.416
 4207TIP3   OH212626   2.049   0.852   1.950
 4207TIP3    H112627   2.088   0.881   1.868
 4207TIP3    H212628   1.970   0.905   1.959
 4208TIP3   OH212629   1.845   5.473   0.923
 4208TIP3    H112630   1.833   5.385   0.958
 4208TIP3    H212631   1.888   5.521   0.994
 4209TIP3   OH212632   2.319   4.623   3.842
 4209TIP3    H112633   2.338   4.664   3.927
 4209TIP3    H212634   2.258   4.683   3.799
 4210TIP3   OH212635   2.143   2.355   2.952
 4210TIP3    H112636   2.090   2.345   2.873
 4210TIP3    H212637   2.129   2.446   2.979
 4211TIP3   OH212638   3.728   0.752   2.266
 4211TIP3    H112639   3.717   0.708   2.181
 4211TIP3    H212640   3.783   0.692   2.316
 4212TIP3   OH212641   5.903   4.820   5.095
 4212TIP3    H112642   5.989   4.806   5.054
 4212TIP3    H212643   5.840   4.808   5.023
 4213TIP3   OH212644   1.277   3.028   2.502
 4213TIP3    H112645   1.284   3.123   2.515
 4213TIP3    H212646   1.183   3.011   2.507
 4214TIP3   OH212647   4.142   1.126   2.179
 4214TIP3    H112648   4.235   1.124   2.158
 4214TIP3    H212649   4.124   1.039   2.216
 4215TIP3   OH212650   1.505   1.972   3.568
 4215TIP3    H112651   1.594   1.980   3.535
 4215TIP3    H212652   1.452   1.952   3.491
 4216TIP3   OH212653   3.549   3.231   1.744
 4216TIP3    H112654   3.620   3.199   1.687
 4216TIP3    H212655   3.536   3.160   1.807
 4217TIP3   OH212656   3.283   5.899   2.963
 4217TIP3    H112657   3.305   5.830   3.025
 4217TIP3    H212658   3.222   5.859   2.902
 4218TIP3   OH212659   1.713   0.679   4.442
 4218TIP3    H112660   1.790   0.686   4.386
 4218TIP3    H212661   1.690   0.770   4.462
 4219TIP3   OH212662   3.333   4.686   1.441
 4219TIP3    H112663   3.260   4.719   1.389
 4219TIP3    H212664   3.335   4.592   1.422
 4220TIP3   OH212665   1.007   0.587   4.297
 4220TIP3    H112666   0.940   0.529   4.332
 4220TIP3    H212667   0.983   0.597   4.205
 4221TIP3   OH212668   3.287   0.696   3.754
 4221TIP3    H112669   3.232   0.632   3.709
 4221TIP3    H212670   3.225   0.755   3.797
 4222TIP3   OH212671   3.514   4.063   1.874
 4222TIP3    H112672   3.571   4.140   1.873
 4222TIP3    H212673   3.466   4.070   1.956
 4223TIP3   OH212674   4.895   4.299   0.461
 4223TIP3    H112675   4.912   4.329   0.372
 4223TIP3    H212676   4.943   4.217   0.469
 4224TIP3   OH212677   0.560   1.834   2.858
 4224TIP3    H112678   0.586   1.811   2.769
 4224TIP3    H212679   0.587   1.759   2.911
 4225TIP3   OH212680   2.342   3.120   0.824
 4225TIP3    H112681   2.340   3.042   0.769
 4225TIP3    H212682   2.364   3.191   0.765
 4226TIP3   OH212683   3.858   4.478   3.588
 4226TIP3    H112684   3.782   4.528   3.617
 4226TIP3    H212685   3.833   4.387   3.604
 4227TIP3   OH212686   3.783   4.674   1.404
 4227TIP3    H112687   3.697   4.669   1.363
 4227TIP3    H212688   3.776   4.619   1.482
 4228TIP3   OH212689   4.822   4.036   2.906
 4228TIP3    H112690   4.906   3.990   2.905
 4228TIP3    H212691   4.845   4.129   2.902
 4229TIP3   OH212692   3.876   4.906   3.998
 4229TIP3    H112693   3.914   4.818   3.994
 4229TIP3    H212694   3.905   4.948   3.917
 4230TIP3   OH212695   0.073   0.715   1.050
 4230TIP3    H112696   0.086   0.766   1.130
 4230TIP3    H212697   0.112   0.768   0.980
 4231TIP3   OH212698   3.740   2.261   0.823
 4231TIP3    H112699   3.813   2.308   0.862
 4231TIP3    H212700   3.687   2.233   0.897
 4232TIP3   OH212701   4.906   3.268   0.669
 4232TIP3    H112702   4.923   3.341   0.729
 4232TIP3    H212703   4.842   3.214   0.715
 4233TIP3   OH212704   5.655   5.451   4.763
 4233TIP3    H112705   5.590   5.403   4.814
 4233TIP3    H212706   5.734   5.396   4.767
 4234TIP3   OH212707   5.834   5.403   2.658
 4234TIP3    H112708   5.755   5.365   2.697
 4234TIP3    H212709   5.904   5.344   2.684
 4235TIP3   OH212710   1.439   2.337   0.503
 4235TIP3    H112711   1.347   2.357   0.486
 4235TIP3    H212712   1.477   2.420   0.531
 4236TIP3   OH212713   0.878   5.397   3.610
 4236TIP3    H112714   0.795   5.372   3.569
 4236TIP3    H212715   0.921   5.453   3.545
 4237TIP3   OH212716   1.234   1.471   0.662
 4237TIP3    H112717   1.216   1.382   0.631
 4237TIP3    H212718   1.330   1.478   0.661
 4238TIP3   OH212719   0.196   0.348   1.787
 4238TIP3    H112720   0.114   0.299   1.785
 4238TIP3    H212721   0.263   0.280   1.799
 4239TIP3   OH212722   5.974   3.981   1.890
 4239TIP3    H112723   5.970   4.072   1.919
 4239TIP3    H212724   6.003   3.986   1.799
 4240TIP3   OH212725   3.848   2.163   4.824
 4240TIP3    H112726   3.868   2.100   4.755
 4240TIP3    H212727   3.834   2.245   4.778
 4241TIP3   OH212728   0.365   0.112   2.593
 4241TIP3    H112729   0.290   0.069   2.554
 4241TIP3    H212730   0.352   0.205   2.575
 4242TIP3   OH212731   3.826   0.964   4.549
 4242TIP3    H112732   3.744   0.929   4.514
 4242TIP3    H212733   3.843   0.910   4.626
 4243TIP3   OH212734   4.374   3.355   3.168
 4243TIP3    H112735   4.455   3.318   3.205
 4243TIP3    H212736   4.329   3.393   3.243
 4244TIP3   OH212737   0.846   3.945   5.153
 4244TIP3    H112738   0.895   3.976   5.229
 4244TIP3    H212739   0.914   3.919   5.090
 4245TIP3   OH212740   5.627   4.407   2.495
 4245TIP3    H112741   5.691   4.398   2.566
 4245TIP3    H212742   5.669   4.467   2.433
 4246TIP3   OH212743   6.329   1.463   1.137
 4246TIP3    H112744   6.395   1.415   1.088
 4246TIP3    H212745   6.246   1.443   1.094
 4247TIP3   OH212746   3.679   2.518   0.704
 4247TIP3    H112747   3.640   2.435   0.732
 4247TIP3    H212748   3.751   2.533   0.765
 4248TIP3   OH212749   3.768   5.714   4.187
 4248TIP3    H112750   3.748   5.667   4.106
 4248TIP3    H212751   3.822   5.788   4.159
 4249TIP3   OH212752   0.811   3.192   0.653
 4249TIP3    H112753   0.720   3.215   0.672
 4249TIP3    H212754   0.861   3.224   0.728
 4250TIP3   OH212755   2.358   5.705   1.413
 4250TIP3    H112756   2.306   5.649   1.356
 4250TIP3    H212757   2.359   5.790   1.368
 4251TIP3   OH212758   0.394   1.064   1.266
 4251TIP3    H112759   0.365   1.153   1.247
 4251TIP3    H212760   0.389   1.057   1.361
 4252TIP3   OH212761   5.451   4.065   0.031
 4252TIP3    H112762   5.398   4.007  -0.024
 4252TIP3    H212763   5.531   4.016   0.047
 4253TIP3   OH212764   5.957   3.451   0.353
 4253TIP3    H112765   5.928   3.383   0.414
 4253TIP3    H212766   5.930   3.533   0.394
 4254TIP3   OH212767   3.010   3.203   3.164
 4254TIP3    H112768   3.051   3.238   3.243
 4254TIP3    H212769   2.971   3.120   3.192
 4255TIP3   OH212770   3.258   4.294   0.038
 4255TIP3    H112771   3.304   4.212   0.057
 4255TIP3    H212772   3.292   4.321  -0.047
 4256TIP3   OH212773   1.908   5.099   3.334
 4256TIP3    H112774   1.823   5.114   3.374
 4256TIP3    H212775   1.971   5.138   3.394
 4257TIP3   OH212776   0.790   4.279   3.781
 4257TIP3    H112777   0.726   4.348   3.792
 4257TIP3    H212778   0.755   4.204   3.829
 4258TIP3   OH212779   4.708   4.398   0.671
 4258TIP3    H112780   4.758   4.357   0.600
 4258TIP3    H212781   4.675   4.479   0.633
 4259TIP3   OH212782   1.586   3.153   0.374
 4259TIP3    H112783   1.527   3.117   0.441
 4259TIP3    H212784   1.545   3.236   0.349
 4260TIP3   OH212785   4.191   3.357   2.326
 4260TIP3    H112786   4.153   3.293   2.267
 4260TIP3    H212787   4.134   3.358   2.402
 4261TIP3   OH212788   3.515   5.879   2.618
 4261TIP3    H112789   3.536   5.872   2.711
 4261TIP3    H212790   3.589   5.927   2.580
 4262TIP3   OH212791   3.973   5.767   2.103
 4262TIP3    H112792   3.968   5.843   2.161
 4262TIP3    H212793   3.885   5.759   2.067
 4263TIP3   OH212794   2.065   3.005   4.819
 4263TIP3    H112795   2.095   3.070   4.883
 4263TIP3    H212796   1.980   2.976   4.852
 4264TIP3   OH212797   1.551   5.181   0.516
 4264TIP3    H112798   1.638   5.202   0.480
 4264TIP3    H212799   1.492   5.242   0.471
 4265TIP3   OH212800   4.722   0.240   2.468
 4265TIP3    H112801   4.806   0.251   2.423
 4265TIP3    H212802   4.661   0.215   2.398
 4266TIP3   OH212803   3.366   2.289   3.734
 4266TIP3    H112804   3.311   2.350   3.685
 4266TIP3    H212805   3.321   2.205   3.727
 4267TIP3   OH212806   6.207   1.636   4.308
 4267TIP3    H112807   6.184   1.714   4.258
 4267TIP3    H212808   6.133   1.577   4.296
 4268TIP3   OH212809   0.357   1.450   2.682
 4268TIP3    H112810   0.402   1.461   2.765
 4268TIP3    H212811   0.280   1.396   2.703
 4269TIP3   OH212812   0.875   5.071   4.048
 4269TIP3    H112813   0.857   5.124   3.971
 4269TIP3    H212814   0.815   5.104   4.115
 4270TIP3   OH212815   1.554   5.478   2.809
 4270TIP3    H112816   1.482   5.469   2.871
 4270TIP3    H212817   1.595   5.561   2.831
 4271TIP3   OH212818   4.176   1.731   3.193
 4271TIP3    H112819   4.224   1.808   3.163
 4271TIP3    H212820   4.084   1.759   3.193
 4272TIP3   OH212821   4.265   2.108   3.684
 4272TIP3    H112822   4.290   2.154   3.764
 4272TIP3    H212823   4.313   2.025   3.689
 4273TIP3   OH212824   4.235   0.494   0.264
 4273TIP3    H112825   4.185   0.552   0.321
 4273TIP3    H212826   4.251   0.547   0.185
 4274TIP3   OH212827   3.539   3.023   3.661
 4274TIP3    H112828   3.455   3.046   3.622
 4274TIP3    H212829   3.519   3.006   3.753
 4275TIP3   OH212830   3.539   1.894   1.031
 4275TIP3    H112831   3.613   1.845   0.995
 4275TIP3    H212832   3.547   1.881   1.126
 4276TIP3   OH212833   3.178   3.106   0.491
 4276TIP3    H112834   3.199   3.016   0.468
 4276TIP3    H212835   3.103   3.099   0.551
 4277TIP3   OH212836   0.813   4.520   1.377
 4277TIP3    H112837   0.730   4.565   1.387
 4277TIP3    H212838   0.794   4.429   1.401
 4278TIP3   OH212839   2.652   1.903   3.589
 4278TIP3    H112840   2.706   1.899   3.668
 4278TIP3    H212841   2.706   1.949   3.525
 4279TIP3   OH212842  -0.005   4.919   2.409
 4279TIP3    H112843   0.085   4.935   2.382
 4279TIP3    H212844  -0.029   4.837   2.366
 4280TIP3   OH212845   2.106   0.150   3.366
 4280TIP3    H112846   2.123   0.058   3.386
 4280TIP3    H212847   2.013   0.152   3.343
 4281TIP3   OH212848   4.192   2.218   0.630
 4281TIP3    H112849   4.113   2.164   0.639
 4281TIP3    H212850   4.233   2.215   0.716
 4282TIP3   OH212851   2.287   0.262   2.835
 4282TIP3    H112852   2.264   0.203   2.906
 4282TIP3    H212853   2.351   0.322   2.873
 4283TIP3   OH212854   6.232   0.687   1.589
 4283TIP3    H112855   6.192   0.705   1.675
 4283TIP3    H212856   6.158   0.664   1.533
 4284TIP3   OH212857   4.072   0.236   1.476
 4284TIP3    H112858   4.017   0.160   1.495
 4284TIP3    H212859   4.101   0.266   1.562
 4285TIP3   OH212860   0.977   2.778   2.196
 4285TIP3    H112861   0.965   2.780   2.101
 4285TIP3    H212862   0.995   2.869   2.220
 4286TIP3   OH212863   5.160   0.863   4.317
 4286TIP3    H112864   5.152   0.803   4.243
 4286TIP3    H212865   5.092   0.929   4.301
 4287TIP3   OH212866   5.946   4.010   3.823
 4287TIP3    H112867   5.857   4.007   3.789
 4287TIP3    H212868   5.936   4.004   3.918
 4288TIP3   OH212869   0.124   2.253   0.909
 4288TIP3    H112870   0.133   2.188   0.980
 4288TIP3    H212871   0.161   2.333   0.946
 4289TIP3   OH212872   6.018   1.079   1.515
 4289TIP3    H112873   6.065   1.052   1.593
 4289TIP3    H212874   5.941   1.022   1.513
 4290TIP3   OH212875   4.169   4.339   4.112
 4290TIP3    H112876   4.173   4.244   4.109
 4290TIP3    H212877   4.179   4.361   4.205
 4291TIP3   OH212878   2.905   3.609   2.206
 4291TIP3    H112879   2.899   3.683   2.146
 4291TIP3    H212880   2.821   3.607   2.251
 4292TIP3   OH212881   3.869   2.476   2.562
 4292TIP3    H112882   3.845   2.511   2.648
 4292TIP3    H212883   3.927   2.542   2.525
 4293TIP3   OH212884   4.120   4.892   3.595
 4293TIP3    H112885   4.057   4.820   3.594
 4293TIP3    H212886   4.091   4.950   3.524
 4294TIP3   OH212887   3.870   2.586   3.369
 4294TIP3    H112888   3.864   2.504   3.321
 4294TIP3    H212889   3.942   2.573   3.430
 4295TIP3   OH212890   5.405   0.804   4.705
 4295TIP3    H112891   5.489   0.765   4.728
 4295TIP3    H212892   5.370   0.837   4.788
 4296TIP3   OH212893   2.007   0.693   0.570
 4296TIP3    H112894   2.053   0.742   0.639
 4296TIP3    H212895   1.992   0.757   0.501
 4297TIP3   OH212896   2.119   1.688   1.473
 4297TIP3    H112897   2.034   1.731   1.474
 4297TIP3    H212898   2.129   1.655   1.384
 4298TIP3   OH212899   3.366   3.966   1.465
 4298TIP3    H112900   3.426   3.972   1.390
 4298TIP3    H212901   3.413   3.912   1.529
 4299TIP3   OH212902   6.344   4.133   1.795
 4299TIP3    H112903   6.388   4.184   1.864
 4299TIP3    H212904   6.295   4.198   1.745
 4300TIP3   OH212905   4.178   1.370   1.767
 4300TIP3    H112906   4.121   1.369   1.690
 4300TIP3    H212907   4.198   1.462   1.781
 4301TIP3   OH212908   0.782   3.245   1.632
 4301TIP3    H112909   0.852   3.186   1.660
 4301TIP3    H212910   0.799   3.326   1.679
 4302TIP3   OH212911   0.728   1.976   5.011
 4302TIP3    H112912   0.633   1.984   5.007
 4302TIP3    H212913   0.747   1.890   4.974
 4303TIP3   OH212914   2.208   3.543   1.002
 4303TIP3    H112915   2.157   3.586   1.070
 4303TIP3    H212916   2.288   3.514   1.046
 4304TIP3   OH212917   5.985   3.429   0.646
 4304TIP3    H112918   5.905   3.454   0.693
 4304TIP3    H212919   5.966   3.343   0.610
 4305TIP3   OH212920   1.888   4.701   1.735
 4305TIP3    H112921   1.979   4.724   1.754
 4305TIP3    H212922   1.847   4.784   1.711
 4306TIP3   OH212923   5.171   3.236   4.711
 4306TIP3    H112924   5.110   3.218   4.639
 4306TIP3    H212925   5.146   3.323   4.742
 4307TIP3   OH212926   4.810   0.257   4.568
 4307TIP3    H112927   4.793   0.230   4.477
 4307TIP3    H212928   4.838   0.348   4.561
 4308TIP3   OH212929   0.948   2.678   1.955
 4308TIP3    H112930   0.889   2.622   2.005
 4308TIP3    H212931   0.946   2.642   1.866
 4309TIP3   OH212932   2.459   1.413   3.247
 4309TIP3    H112933   2.503   1.487   3.205
 4309TIP3    H212934   2.486   1.417   3.339
 4310TIP3   OH212935   5.147   5.254   1.885
 4310TIP3    H112936   5.173   5.170   1.923
 4310TIP3    H212937   5.216   5.315   1.911
 4311TIP3   OH212938   0.763   2.261   4.941
 4311TIP3    H112939   0.744   2.169   4.959
 4311TIP3    H212940   0.718   2.278   4.858
 4312TIP3   OH212941   5.278   3.648   2.254
 4312TIP3    H112942   5.360   3.655   2.302
 4312TIP3    H212943   5.213   3.690   2.310
 4313TIP3   OH212944   6.181   0.284   4.636
 4313TIP3    H112945   6.188   0.375   4.664
 4313TIP3    H212946   6.202   0.233   4.714
 4314TIP3   OH212947   4.362   4.956   0.998
 4314TIP3    H112948   4.267   4.945   0.988
 4314TIP3    H212949   4.371   5.017   1.072
 4315TIP3   OH212950   4.781   3.569   3.904
 4315TIP3    H112951   4.792   3.482   3.942
 4315TIP3    H212952   4.836   3.625   3.958
 4316TIP3   OH212953   4.835   5.319   4.711
 4316TIP3    H112954   4.920   5.338   4.672
 4316TIP3    H212955   4.849   5.241   4.764
 4317TIP3   OH212956   5.937   2.063   4.486
 4317TIP3    H112957   5.935   2.039   4.393
 4317TIP3    H212958   5.944   2.159   4.485
 4318TIP3   OH212959   6.027   1.234   4.439
 4318TIP3    H112960   6.063   1.146   4.444
 4318TIP3    H212961   6.102   1.289   4.417
 4319TIP3   OH212962   0.284   3.749   0.225
 4319TIP3    H112963   0.311   3.839   0.245
 4319TIP3    H212964   0.188   3.754   0.218
 4320TIP3   OH212965   1.143   2.998   0.751
 4320TIP3    H112966   1.211   2.931   0.746
 4320TIP3    H212967   1.168   3.062   0.685
 4321TIP3   OH212968   2.954   1.050   2.925
 4321TIP3    H112969   2.986   1.023   3.011
 4321TIP3    H212970   2.859   1.057   2.936
 4322TIP3   OH212971   2.388   0.648   3.126
 4322TIP3    H112972   2.380   0.741   3.147
 4322TIP3    H212973   2.312   0.607   3.167
 4323TIP3   OH212974   4.880   2.122   0.471
 4323TIP3    H112975   4.884   2.165   0.556
 4323TIP3    H212976   4.971   2.107   0.447
 4324TIP3   OH212977   2.756   5.152   2.776
 4324TIP3    H112978   2.697   5.100   2.721
 4324TIP3    H212979   2.735   5.124   2.865
 4325TIP3   OH212980   1.486   0.982   0.992
 4325TIP3    H112981   1.549   0.931   0.942
 4325TIP3    H212982   1.407   0.982   0.939
 4326TIP3   OH212983   1.751   2.743   0.487
 4326TIP3    H112984   1.847   2.750   0.488
 4326TIP3    H212985   1.729   2.712   0.575
 4327TIP3   OH212986   5.745   2.920   3.148
 4327TIP3    H112987   5.773   2.946   3.236
 4327TIP3    H212988   5.825   2.924   3.095
 4328TIP3   OH212989   0.936   4.277   4.644
 4328TIP3    H112990   0.899   4.188   4.647
 4328TIP3    H212991   0.900   4.320   4.722
 4329TIP3   OH212992   1.436   3.514   4.037
 4329TIP3    H112993   1.409   3.551   4.121
 4329TIP3    H212994   1.379   3.438   4.025
 4330TIP3   OH212995   1.247   4.741   1.272
 4330TIP3    H112996   1.286   4.827   1.289
 4330TIP3    H212997   1.296   4.681   1.329
 4331TIP3   OH212998   1.809   5.780   3.754
 4331TIP3    H112999   1.875   5.812   3.693
 4331TIP3    H213000   1.826   5.686   3.761
 4332TIP3   OH213001   0.025   4.127   1.478
 4332TIP3    H113002  -0.064   4.138   1.446
 4332TIP3    H213003   0.055   4.216   1.496
 4333TIP3   OH213004   4.210   5.868   4.447
 4333TIP3    H113005   4.115   5.858   4.454
 4333TIP3    H213006   4.223   5.962   4.437
 4334TIP3   OH213007   5.599   3.890   1.111
 4334TIP3    H113008   5.652   3.969   1.119
 4334TIP3    H213009   5.652   3.821   1.151
 4335TIP3   OH213010   3.737   5.960   1.423
 4335TIP3    H113011   3.643   5.973   1.410
 4335TIP3    H213012   3.775   5.970   1.336
 4336TIP3   OH213013   4.185   1.384   1.405
 4336TIP3    H113014   4.262   1.402   1.352
 4336TIP3    H213015   4.140   1.313   1.360
 4337TIP3   OH213016   2.149   0.908   0.410
 4337TIP3    H113017   2.194   0.992   0.413
 4337TIP3    H213018   2.138   0.891   0.316
 4338TIP3   OH213019   4.658   1.632   1.026
 4338TIP3    H113020   4.572   1.610   0.990
 4338TIP3    H213021   4.720   1.610   0.957
 4339TIP3   OH213022   2.464   2.651   2.152
 4339TIP3    H113023   2.425   2.725   2.104
 4339TIP3    H213024   2.479   2.584   2.085
 4340TIP3   OH213025   1.776   1.236   1.688
 4340TIP3    H113026   1.772   1.213   1.595
 4340TIP3    H213027   1.713   1.177   1.730
 4341TIP3   OH213028   5.711   3.716   3.109
 4341TIP3    H113029   5.754   3.793   3.072
 4341TIP3    H213030   5.654   3.685   3.039
 4342TIP3   OH213031   1.064   5.720   1.211
 4342TIP3    H113032   1.133   5.686   1.267
 4342TIP3    H213033   1.076   5.674   1.128
 4343TIP3   OH213034   0.715   5.574   1.308
 4343TIP3    H113035   0.718   5.516   1.232
 4343TIP3    H213036   0.753   5.522   1.379
 4344TIP3   OH213037   0.262   2.508   0.743
 4344TIP3    H113038   0.350   2.472   0.750
 4344TIP3    H213039   0.255   2.568   0.818
 4345TIP3   OH213040   5.620   3.367   2.001
 4345TIP3    H113041   5.539   3.417   1.991
 4345TIP3    H213042   5.592   3.278   2.023
 4346TIP3   OH213043   2.013   2.393   3.549
 4346TIP3    H113044   1.920   2.408   3.568
 4346TIP3    H213045   2.022   2.414   3.457
 4347TIP3   OH213046   3.565   2.063   0.492
 4347TIP3    H113047   3.485   2.036   0.447
 4347TIP3    H213048   3.566   2.012   0.573
 4348TIP3   OH213049   1.874   5.437   3.786
 4348TIP3    H113050   1.887   5.345   3.810
 4348TIP3    H213051   1.789   5.460   3.822
 4349TIP3   OH213052   3.551   3.897   1.661
 4349TIP3    H113053   3.530   3.960   1.730
 4349TIP3    H213054   3.613   3.837   1.703
 4350TIP3   OH213055   1.544   3.569   3.801
 4350TIP3    H113056   1.481   3.546   3.733
 4350TIP3    H213057   1.492   3.571   3.881
 4351TIP3   OH213058   2.725   0.439   1.458
 4351TIP3    H113059   2.685   0.466   1.541
 4351TIP3    H213060   2.805   0.491   1.452
 4352TIP3   OH213061   3.557   1.572   1.510
 4352TIP3    H113062   3.651   1.560   1.522
 4352TIP3    H213063   3.522   1.483   1.502
 4353TIP3   OH213064   1.282   5.273   2.584
 4353TIP3    H113065   1.372   5.301   2.567
 4353TIP3    H213066   1.279   5.259   2.679
 4354TIP3   OH213067   3.892   4.601   2.683
 4354TIP3    H113068   3.864   4.513   2.657
 4354TIP3    H213069   3.838   4.660   2.628
 4355TIP3   OH213070   3.950   4.367   1.697
 4355TIP3    H113071   3.995   4.302   1.642
 4355TIP3    H213072   4.021   4.412   1.743
 4356TIP3   OH213073   2.032   2.737   3.976
 4356TIP3    H113074   2.121   2.764   3.997
 4356TIP3    H213075   2.042   2.672   3.907
 4357TIP3   OH213076   5.408   1.194   1.167
 4357TIP3    H113077   5.360   1.262   1.213
 4357TIP3    H213078   5.371   1.194   1.078
 4358TIP3   OH213079   0.188   1.533   2.081
 4358TIP3    H113080   0.122   1.465   2.063
 4358TIP3    H213081   0.151   1.584   2.153
 4359TIP3   OH213082   3.436   0.484   1.881
 4359TIP3    H113083   3.412   0.477   1.973
 4359TIP3    H213084   3.451   0.394   1.853
 4360TIP3   OH213085   2.522   1.248   3.021
 4360TIP3    H113086   2.585   1.312   2.989
 4360TIP3    H213087   2.474   1.294   3.090
 4361TIP3   OH213088   0.679   5.370   2.317
 4361TIP3    H113089   0.769   5.385   2.286
 4361TIP3    H213090   0.625   5.418   2.254
 4362TIP3   OH213091   3.842   2.946   2.389
 4362TIP3    H113092   3.822   3.040   2.387
 4362TIP3    H213093   3.790   2.913   2.463
 4363TIP3   OH213094   4.790   5.315   3.970
 4363TIP3    H113095   4.697   5.295   3.959
 4363TIP3    H213096   4.794   5.368   4.049
 4364TIP3   OH213097   1.638   1.800   4.525
 4364TIP3    H113098   1.672   1.751   4.450
 4364TIP3    H213099   1.666   1.749   4.601
 4365TIP3   OH213100   2.687   0.983   2.027
 4365TIP3    H113101   2.775   1.001   2.060
 4365TIP3    H213102   2.678   1.038   1.949
 4366TIP3   OH213103   5.450   1.265   2.965
 4366TIP3    H113104   5.420   1.312   2.887
 4366TIP3    H213105   5.370   1.233   3.006
 4367TIP3   OH213106   2.205   2.401   2.220
 4367TIP3    H113107   2.226   2.418   2.311
 4367TIP3    H213108   2.281   2.355   2.185
 4368TIP3   OH213109   3.181   2.292   4.848
 4368TIP3    H113110   3.225   2.224   4.797
 4368TIP3    H213111   3.184   2.261   4.938
 4369TIP3   OH213112   2.060   3.735   4.064
 4369TIP3    H113113   2.052   3.646   4.032
 4369TIP3    H213114   2.007   3.738   4.144
 4370TIP3   OH213115   5.123   4.474   2.282
 4370TIP3    H113116   5.125   4.449   2.190
 4370TIP3    H213117   5.181   4.411   2.326
 4371TIP3   OH213118   2.505   0.713   3.798
 4371TIP3    H113119   2.568   0.697   3.728
 4371TIP3    H213120   2.558   0.736   3.874
 4372TIP3   OH213121   4.316   1.501   3.147
 4372TIP3    H113122   4.262   1.578   3.160
 4372TIP3    H213123   4.356   1.515   3.061
 4373TIP3   OH213124   1.231   1.979   2.979
 4373TIP3    H113125   1.287   1.927   2.921
 4373TIP3    H213126   1.290   2.043   3.018
 4374TIP3   OH213127   0.677   3.087   2.070
 4374TIP3    H113128   0.730   3.044   2.003
 4374TIP3    H213129   0.741   3.118   2.135
 4375TIP3   OH213130   0.961   5.611   0.612
 4375TIP3    H113131   1.056   5.622   0.614
 4375TIP3    H213132   0.928   5.673   0.677
 4376TIP3   OH213133   1.702   2.169   2.976
 4376TIP3    H113134   1.788   2.139   3.005
 4376TIP3    H213135   1.652   2.182   3.056
 4377TIP3   OH213136   2.168   2.438   4.745
 4377TIP3    H113137   2.090   2.493   4.736
 4377TIP3    H213138   2.241   2.500   4.751
 4378TIP3   OH213139   2.454   3.237   1.061
 4378TIP3    H113140   2.417   3.186   0.989
 4378TIP3    H213141   2.509   3.175   1.109
 4379TIP3   OH213142   0.101   2.483   1.496
 4379TIP3    H113143   0.020   2.532   1.513
 4379TIP3    H213144   0.077   2.391   1.505
 4380TIP3   OH213145   4.113   5.779   4.968
 4380TIP3    H113146   4.139   5.868   4.943
 4380TIP3    H213147   4.081   5.739   4.887
 4381TIP3   OH213148   0.553   2.402   2.499
 4381TIP3    H113149   0.598   2.404   2.584
 4381TIP3    H213150   0.532   2.309   2.486
 4382TIP3   OH213151   3.279   3.109   0.869
 4382TIP3    H113152   3.319   3.151   0.793
 4382TIP3    H213153   3.188   3.094   0.843
 4383TIP3   OH213154   1.268   4.319   1.120
 4383TIP3    H113155   1.333   4.258   1.157
 4383TIP3    H213156   1.186   4.270   1.122
 4384TIP3   OH213157   2.888   0.696   4.343
 4384TIP3    H113158   2.967   0.642   4.355
 4384TIP3    H213159   2.908   0.750   4.266
 4385TIP3   OH213160   3.450   2.749   2.849
 4385TIP3    H113161   3.536   2.716   2.873
 4385TIP3    H213162   3.389   2.684   2.883
 4386TIP3   OH213163   5.861   2.897   3.972
 4386TIP3    H113164   5.915   2.931   4.044
 4386TIP3    H213165   5.920   2.840   3.923
 4387TIP3   OH213166   6.013   4.283   5.125
 4387TIP3    H113167   6.080   4.278   5.057
 4387TIP3    H213168   6.033   4.210   5.184
 4388TIP3   OH213169   2.176   5.659   2.517
 4388TIP3    H113170   2.140   5.707   2.442
 4388TIP3    H213171   2.101   5.612   2.554
 4389TIP3   OH213172   5.604   4.101   0.586
 4389TIP3    H113173   5.645   4.184   0.560
 4389TIP3    H213174   5.620   4.095   0.680
 4390TIP3   OH213175   5.736   3.906   0.837
 4390TIP3    H113176   5.720   4.000   0.829
 4390TIP3    H213177   5.676   3.877   0.905
 4391TIP3   OH213178   5.773   2.457   0.470
 4391TIP3    H113179   5.679   2.438   0.468
 4391TIP3    H213180   5.815   2.373   0.455
 4392TIP3   OH213181   6.079   2.209   3.285
 4392TIP3    H113182   5.997   2.258   3.277
 4392TIP3    H213183   6.117   2.213   3.197
 4393TIP3   OH213184   1.300   2.587   2.601
 4393TIP3    H113185   1.247   2.516   2.564
 4393TIP3    H213186   1.330   2.554   2.685
 4394TIP3   OH213187   1.858   1.019   1.066
 4394TIP3    H113188   1.802   1.074   1.012
 4394TIP3    H213189   1.932   1.076   1.089
 4395TIP3   OH213190   5.175   2.213   0.985
 4395TIP3    H113191   5.197   2.306   0.975
 4395TIP3    H213192   5.260   2.169   0.990
 4396TIP3   OH213193   5.660   4.833   1.723
 4396TIP3    H113194   5.711   4.847   1.803
 4396TIP3    H213195   5.725   4.834   1.653
 4397TIP3   OH213196   1.174   5.513   0.212
 4397TIP3    H113197   1.239   5.469   0.267
 4397TIP3    H213198   1.173   5.603   0.244
 4398TIP3   OH213199   0.454   4.633   4.276
 4398TIP3    H113200   0.390   4.701   4.298
 4398TIP3    H213201   0.531   4.654   4.329
 4399TIP3   OH213202   5.220   2.674   4.144
 4399TIP3    H113203   5.167   2.642   4.071
 4399TIP3    H213204   5.251   2.595   4.188
 4400TIP3   OH213205   0.277   1.033   5.063
 4400TIP3    H113206   0.345   0.983   5.107
 4400TIP3    H213207   0.213   0.967   5.035
 4401TIP3   OH213208   5.565   1.229   1.752
 4401TIP3    H113209   5.582   1.317   1.785
 4401TIP3    H213210   5.621   1.221   1.674
 4402TIP3   OH213211   2.484   1.716   0.875
 4402TIP3    H113212   2.420   1.689   0.940
 4402TIP3    H213213   2.568   1.694   0.913
 4403TIP3   OH213214   0.053   0.470   2.688
 4403TIP3    H113215   0.090   0.443   2.772
 4403TIP3    H213216  -0.042   0.468   2.701
 4404TIP3   OH213217   4.928   4.709   2.887
 4404TIP3    H113218   4.886   4.794   2.874
 4404TIP3    H213219   5.003   4.727   2.944
 4405TIP3   OH213220   2.161   3.189   3.046
 4405TIP3    H113221   2.194   3.210   3.134
 4405TIP3    H213222   2.211   3.247   2.988
 4406TIP3   OH213223   5.385   2.407   4.210
 4406TIP3    H113224   5.399   2.378   4.300
 4406TIP3    H213225   5.464   2.457   4.188
 4407TIP3   OH213226   1.939   3.454   0.323
 4407TIP3    H113227   1.940   3.366   0.286
 4407TIP3    H213228   1.848   3.468   0.351
 4408TIP3   OH213229   1.653   2.309   4.691
 4408TIP3    H113230   1.640   2.215   4.682
 4408TIP3    H213231   1.612   2.331   4.775
 4409TIP3   OH213232   4.896   4.629   1.818
 4409TIP3    H113233   4.874   4.544   1.780
 4409TIP3    H213234   4.812   4.677   1.821
 4410TIP3   OH213235   0.821   4.510   4.807
 4410TIP3    H113236   0.818   4.522   4.712
 4410TIP3    H213237   0.733   4.481   4.830
 4411TIP3   OH213238   1.969   0.794   4.006
 4411TIP3    H113239   1.923   0.815   3.925
 4411TIP3    H213240   1.906   0.742   4.056
 4412TIP3   OH213241   4.719   3.077   2.607
 4412TIP3    H113242   4.697   3.128   2.529
 4412TIP3    H213243   4.776   3.134   2.658
 4413TIP3   OH213244   2.007   0.058   0.556
 4413TIP3    H113245   1.953   0.136   0.544
 4413TIP3    H213246   2.036   0.062   0.647
 4414TIP3   OH213247   2.683   4.450   5.016
 4414TIP3    H113248   2.749   4.381   5.025
 4414TIP3    H213249   2.670   4.482   5.106
 4415TIP3   OH213250   2.549   1.365   1.526
 4415TIP3    H113251   2.539   1.270   1.532
 4415TIP3    H213252   2.488   1.401   1.590
 4416TIP3   OH213253   1.538   0.150   2.217
 4416TIP3    H113254   1.543   0.232   2.169
 4416TIP3    H213255   1.513   0.176   2.306
 4417TIP3   OH213256   0.122   1.576   4.243
 4417TIP3    H113257   0.140   1.485   4.219
 4417TIP3    H213258   0.030   1.577   4.268
 4418TIP3   OH213259   2.250   3.388   3.797
 4418TIP3    H113260   2.235   3.482   3.789
 4418TIP3    H213261   2.224   3.367   3.887
 4419TIP3   OH213262   1.049   0.239   0.231
 4419TIP3    H113263   0.978   0.175   0.221
 4419TIP3    H213264   1.006   0.318   0.264
 4420TIP3   OH213265   0.380   1.315   2.027
 4420TIP3    H113266   0.291   1.346   2.045
 4420TIP3    H213267   0.436   1.390   2.045
 4421TIP3   OH213268   6.218   0.161   0.102
 4421TIP3    H113269   6.151   0.195   0.043
 4421TIP3    H213270   6.177   0.162   0.188
 4422TIP3   OH213271   5.741   5.090   0.161
 4422TIP3    H113272   5.792   5.123   0.087
 4422TIP3    H213273   5.656   5.134   0.154
 4423TIP3   OH213274   2.067   3.541   1.598
 4423TIP3    H113275   2.050   3.599   1.524
 4423TIP3    H213276   1.982   3.506   1.622
 4424TIP3   OH213277   3.846   2.645   1.827
 4424TIP3    H113278   3.880   2.573   1.773
 4424TIP3    H213279   3.754   2.651   1.803
 4425TIP3   OH213280   4.765   4.396   1.265
 4425TIP3    H113281   4.743   4.465   1.328
 4425TIP3    H213282   4.737   4.315   1.308
 4426TIP3   OH213283   2.592   4.225   1.253
 4426TIP3    H113284   2.504   4.215   1.218
 4426TIP3    H213285   2.579   4.270   1.337
 4427TIP3   OH213286   3.537   1.476   0.450
 4427TIP3    H113287   3.530   1.470   0.546
 4427TIP3    H213288   3.594   1.551   0.435
 4428TIP3   OH213289   4.638   0.656   0.360
 4428TIP3    H113290   4.561   0.606   0.386
 4428TIP3    H213291   4.624   0.675   0.267
 4429TIP3   OH213292   3.411   4.834   2.594
 4429TIP3    H113293   3.352   4.760   2.609
 4429TIP3    H213294   3.392   4.895   2.665
 4430TIP3   OH213295   5.245   1.003   2.748
 4430TIP3    H113296   5.262   0.988   2.841
 4430TIP3    H213297   5.174   1.066   2.746
 4431TIP3   OH213298   4.969   3.024   0.885
 4431TIP3    H113299   4.994   3.107   0.926
 4431TIP3    H213300   5.012   2.957   0.938
 4432TIP3   OH213301   1.693   2.554   4.230
 4432TIP3    H113302   1.759   2.623   4.240
 4432TIP3    H213303   1.732   2.493   4.167
 4433TIP3   OH213304   3.081   1.219   3.226
 4433TIP3    H113305   3.064   1.126   3.234
 4433TIP3    H213306   3.095   1.249   3.316
 4434TIP3   OH213307   4.394   2.559   0.354
 4434TIP3    H113308   4.363   2.469   0.361
 4434TIP3    H213309   4.365   2.588   0.268
 4435TIP3   OH213310   5.740   2.662   1.249
 4435TIP3    H113311   5.790   2.683   1.170
 4435TIP3    H213312   5.806   2.634   1.312
 4436TIP3   OH213313   0.563   1.385   0.561
 4436TIP3    H113314   0.554   1.320   0.630
 4436TIP3    H213315   0.473   1.415   0.545
 4437TIP3   OH213316   1.028   3.518   0.286
 4437TIP3    H113317   1.068   3.599   0.253
 4437TIP3    H213318   1.003   3.469   0.208
 4438TIP3   OH213319   4.349   2.762   2.384
 4438TIP3    H113320   4.343   2.677   2.341
 4438TIP3    H213321   4.398   2.817   2.324
 4439TIP3   OH213322   4.541   5.658   2.150
 4439TIP3    H113323   4.580   5.741   2.175
 4439TIP3    H213324   4.601   5.592   2.184
 4440TIP3   OH213325   0.090   0.981   0.102
 4440TIP3    H113326   0.072   1.074   0.097
 4440TIP3    H213327   0.027   0.947   0.165
 4441TIP3   OH213328   3.331   0.219   1.962
 4441TIP3    H113329   3.334   0.302   2.010
 4441TIP3    H213330   3.414   0.176   1.984
 4442TIP3   OH213331   2.238   1.303   4.591
 4442TIP3    H113332   2.256   1.217   4.554
 4442TIP3    H213333   2.202   1.353   4.517
 4443TIP3   OH213334   2.657   0.108   2.008
 4443TIP3    H113335   2.618   0.138   1.926
 4443TIP3    H213336   2.706   0.183   2.040
 4444TIP3   OH213337   6.216   2.699   4.472
 4444TIP3    H113338   6.211   2.721   4.379
 4444TIP3    H213339   6.289   2.638   4.479
 4445TIP3   OH213340   3.911   4.663   3.363
 4445TIP3    H113341   3.871   4.688   3.280
 4445TIP3    H213342   3.838   4.664   3.426
 4446TIP3   OH213343   3.184   3.712   2.767
 4446TIP3    H113344   3.241   3.668   2.704
 4446TIP3    H213345   3.112   3.651   2.780
 4447TIP3   OH213346   2.584   4.699   4.931
 4447TIP3    H113347   2.599   4.606   4.950
 4447TIP3    H213348   2.591   4.705   4.836
 4448TIP3   OH213349   1.000   2.993   2.546
 4448TIP3    H113350   0.945   2.915   2.546
 4448TIP3    H213351   0.943   3.062   2.512
 4449TIP3   OH213352   5.693   1.220   5.001
 4449TIP3    H113353   5.676   1.244   5.092
 4449TIP3    H213354   5.737   1.297   4.964
 4450TIP3   OH213355   4.009   2.813   4.202
 4450TIP3    H113356   3.999   2.869   4.279
 4450TIP3    H213357   3.957   2.735   4.223
 4451TIP3   OH213358   0.079   0.427   3.409
 4451TIP3    H113359   0.131   0.480   3.469
 4451TIP3    H213360   0.142   0.367   3.369
 4452TIP3   OH213361   1.969   5.517   2.635
 4452TIP3    H113362   1.966   5.585   2.702
 4452TIP3    H213363   1.932   5.440   2.679
 4453TIP3   OH213364   6.323   4.525   3.095
 4453TIP3    H113365   6.337   4.454   3.157
 4453TIP3    H213366   6.233   4.514   3.065
 4454TIP3   OH213367   2.068   4.807   0.676
 4454TIP3    H113368   2.096   4.897   0.661
 4454TIP3    H213369   2.114   4.755   0.611
 4455TIP3   OH213370   4.205   0.770   2.944
 4455TIP3    H113371   4.134   0.806   2.997
 4455TIP3    H213372   4.266   0.843   2.932
 4456TIP3   OH213373   0.217   1.407   4.885
 4456TIP3    H113374   0.139   1.355   4.908
 4456TIP3    H213375   0.269   1.409   4.966
 4457TIP3   OH213376   6.299   2.926   1.563
 4457TIP3    H113377   6.259   2.839   1.566
 4457TIP3    H213378   6.393   2.909   1.553
 4458TIP3   OH213379   4.998   2.384   2.143
 4458TIP3    H113380   5.011   2.460   2.086
 4458TIP3    H213381   5.076   2.330   2.128
 4459TIP3   OH213382   4.396   5.130   1.208
 4459TIP3    H113383   4.459   5.102   1.275
 4459TIP3    H213384   4.434   5.211   1.173
 4460TIP3   OH213385   1.695   0.382   0.061
 4460TIP3    H113386   1.658   0.345   0.141
 4460TIP3    H213387   1.740   0.309   0.019
 4461TIP3   OH213388   3.709   3.594   2.164
 4461TIP3    H113389   3.786   3.581   2.220
 4461TIP3    H213390   3.744   3.635   2.085
 4462TIP3   OH213391   5.507   5.005   0.895
 4462TIP3    H113392   5.422   5.048   0.899
 4462TIP3    H213393   5.494   4.930   0.836
 4463TIP3   OH213394   3.862   4.041   4.654
 4463TIP3    H113395   3.791   4.095   4.688
 4463TIP3    H213396   3.939   4.070   4.702
 4464TIP3   OH213397   5.069   1.523   1.979
 4464TIP3    H113398   5.133   1.507   2.049
 4464TIP3    H213399   5.068   1.442   1.928
 4465TIP3   OH213400   6.354   4.740   0.659
 4465TIP3    H113401   6.390   4.741   0.747
 4465TIP3    H213402   6.299   4.819   0.654
 4466TIP3   OH213403   5.335   4.866   1.233
 4466TIP3    H113404   5.288   4.949   1.236
 4466TIP3    H213405   5.276   4.803   1.275
 4467TIP3   OH213406   3.011   4.919   1.104
 4467TIP3    H113407   2.956   4.997   1.090
 4467TIP3    H213408   2.958   4.846   1.071
 4468TIP3   OH213409   6.199   2.328   0.432
 4468TIP3    H113410   6.275   2.374   0.466
 4468TIP3    H213411   6.189   2.252   0.489
 4469TIP3   OH213412   1.743   2.368   1.300
 4469TIP3    H113413   1.822   2.387   1.248
 4469TIP3    H213414   1.699   2.452   1.308
 4470TIP3   OH213415   4.177   5.066   3.981
 4470TIP3    H113416   4.098   5.063   3.926
 4470TIP3    H213417   4.236   5.001   3.943
 4471TIP3   OH213418   3.152   5.479   2.757
 4471TIP3    H113419   3.200   5.419   2.815
 4471TIP3    H213420   3.061   5.474   2.788
 4472TIP3   OH213421   2.638   2.340   5.002
 4472TIP3    H113422   2.569   2.367   5.062
 4472TIP3    H213423   2.702   2.411   5.003
 4473TIP3   OH213424   3.152   1.817   5.097
 4473TIP3    H113425   3.221   1.831   5.163
 4473TIP3    H213426   3.144   1.722   5.091
 4474TIP3   OH213427   4.066   4.665   4.250
 4474TIP3    H113428   4.139   4.726   4.263
 4474TIP3    H213429   4.050   4.666   4.156
 4475TIP3   OH213430   2.597   5.300   2.018
 4475TIP3    H113431   2.543   5.335   2.089
 4475TIP3    H213432   2.671   5.258   2.062
 4476TIP3   OH213433   4.632   3.649   3.683
 4476TIP3    H113434   4.653   3.741   3.669
 4476TIP3    H213435   4.681   3.626   3.762
 4477TIP3   OH213436   4.189   4.737   3.357
 4477TIP3    H113437   4.107   4.688   3.345
 4477TIP3    H213438   4.184   4.772   3.445
 4478TIP3   OH213439   0.576   4.731   2.066
 4478TIP3    H113440   0.619   4.647   2.082
 4478TIP3    H213441   0.570   4.772   2.152
 4479TIP3   OH213442   4.011   1.145   4.707
 4479TIP3    H113443   3.961   1.089   4.648
 4479TIP3    H213444   3.966   1.138   4.791
 4480TIP3   OH213445   4.494   3.730   3.079
 4480TIP3    H113446   4.534   3.808   3.117
 4480TIP3    H213447   4.510   3.660   3.142
 4481TIP3   OH213448   1.105   5.906   1.503
 4481TIP3    H113449   1.065   5.963   1.568
 4481TIP3    H213450   1.179   5.956   1.469
 4482TIP3   OH213451   2.547   1.646   1.840
 4482TIP3    H113452   2.590   1.685   1.764
 4482TIP3    H213453   2.478   1.592   1.803
 4483TIP3   OH213454   0.781   5.123   0.445
 4483TIP3    H113455   0.752   5.181   0.374
 4483TIP3    H213456   0.826   5.181   0.506
 4484TIP3   OH213457   0.867   1.453   3.048
 4484TIP3    H113458   0.963   1.446   3.042
 4484TIP3    H213459   0.836   1.363   3.044
 4485TIP3   OH213460   0.003   0.448   3.052
 4485TIP3    H113461   0.088   0.472   3.089
 4485TIP3    H213462   0.023   0.377   2.991
 4486TIP3   OH213463   4.950   3.051   2.267
 4486TIP3    H113464   5.010   3.118   2.235
 4486TIP3    H213465   4.977   3.035   2.357
 4487TIP3   OH213466   5.464   4.082   1.442
 4487TIP3    H113467   5.525   4.088   1.369
 4487TIP3    H213468   5.480   4.161   1.493
 4488TIP3   OH213469   1.679   3.561   3.085
 4488TIP3    H113470   1.632   3.494   3.136
 4488TIP3    H213471   1.650   3.547   2.995
 4489TIP3   OH213472   5.183   1.468   2.964
 4489TIP3    H113473   5.179   1.544   3.023
 4489TIP3    H213474   5.267   1.478   2.918
 4490TIP3   OH213475   0.406   4.425   2.323
 4490TIP3    H113476   0.438   4.430   2.413
 4490TIP3    H213477   0.485   4.435   2.269
 4491TIP3   OH213478   3.184   1.623   0.508
 4491TIP3    H113479   3.136   1.544   0.534
 4491TIP3    H213480   3.169   1.629   0.413
 4492TIP3   OH213481   4.737   2.904   0.759
 4492TIP3    H113482   4.821   2.925   0.798
 4492TIP3    H213483   4.697   2.989   0.740
 4493TIP3   OH213484   4.023   2.029   2.674
 4493TIP3    H113485   3.998   1.953   2.622
 4493TIP3    H213486   4.071   2.085   2.613
 4494TIP3   OH213487   5.186   5.089   3.015
 4494TIP3    H113488   5.155   4.999   3.028
 4494TIP3    H213489   5.269   5.092   3.063
 4495TIP3   OH213490   3.077   4.694   0.486
 4495TIP3    H113491   3.168   4.677   0.462
 4495TIP3    H213492   3.028   4.683   0.405
 4496TIP3   OH213493   2.871   0.259   1.877
 4496TIP3    H113494   2.947   0.224   1.924
 4496TIP3    H213495   2.875   0.217   1.791
 4497TIP3   OH213496   2.438   3.887   2.399
 4497TIP3    H113497   2.422   3.970   2.444
 4497TIP3    H213498   2.408   3.902   2.309
 4498TIP3   OH213499   3.210   1.948   3.767
 4498TIP3    H113500   3.227   2.007   3.839
 4498TIP3    H213501   3.282   1.885   3.770
 4499TIP3   OH213502   5.691   0.201   0.648
 4499TIP3    H113503   5.622   0.158   0.699
 4499TIP3    H213504   5.665   0.293   0.643
 4500TIP3   OH213505   2.198   4.103   1.566
 4500TIP3    H113506   2.144   4.049   1.623
 4500TIP3    H213507   2.141   4.126   1.493
 4501TIP3   OH213508   5.792   5.454   1.384
 4501TIP3    H113509   5.732   5.400   1.435
 4501TIP3    H213510   5.748   5.539   1.378
 4502TIP3   OH213511   5.251   5.240   4.902
 4502TIP3    H113512   5.159   5.259   4.922
 4502TIP3    H213513   5.250   5.211   4.811
 4503TIP3   OH213514   5.462   2.688   3.988
 4503TIP3    H113515   5.380   2.687   4.037
 4503TIP3    H213516   5.496   2.776   4.000
 4504TIP3   OH213517   4.620   0.883   1.121
 4504TIP3    H113518   4.668   0.960   1.153
 4504TIP3    H213519   4.547   0.874   1.183
 4505TIP3   OH213520   3.542   0.279   0.884
 4505TIP3    H113521   3.480   0.341   0.846
 4505TIP3    H213522   3.505   0.193   0.865
 4506TIP3   OH213523   1.632   1.060   3.161
 4506TIP3    H113524   1.688   1.026   3.091
 4506TIP3    H213525   1.663   1.149   3.176
 4507TIP3   OH213526   1.612   3.148   4.957
 4507TIP3    H113527   1.536   3.139   5.016
 4507TIP3    H213528   1.584   3.214   4.893
 4508TIP3   OH213529   0.142   4.718   1.768
 4508TIP3    H113530   0.179   4.786   1.825
 4508TIP3    H213531   0.049   4.739   1.763
 4509TIP3   OH213532   2.863   5.619   1.832
 4509TIP3    H113533   2.885   5.581   1.916
 4509TIP3    H213534   2.926   5.690   1.819
 4510TIP3   OH213535   2.289   0.405   4.881
 4510TIP3    H113536   2.217   0.444   4.931
 4510TIP3    H213537   2.343   0.480   4.855
 4511TIP3   OH213538   2.647   5.769   3.803
 4511TIP3    H113539   2.557   5.738   3.797
 4511TIP3    H213540   2.700   5.695   3.773
 4512TIP3   OH213541   2.920   2.355   4.741
 4512TIP3    H113542   3.000   2.305   4.753
 4512TIP3    H213543   2.950   2.444   4.721
 4513TIP3   OH213544   4.522   0.312   4.627
 4513TIP3    H113545   4.614   0.288   4.613
 4513TIP3    H213546   4.500   0.274   4.712
 4514TIP3   OH213547   3.147   1.060   4.196
 4514TIP3    H113548   3.220   1.026   4.249
 4514TIP3    H213549   3.190   1.100   4.120
 4515TIP3   OH213550   4.401   4.554   1.012
 4515TIP3    H113551   4.380   4.570   0.920
 4515TIP3    H213552   4.474   4.492   1.010
 4516TIP3   OH213553   2.928   3.112   4.291
 4516TIP3    H113554   2.994   3.117   4.361
 4516TIP3    H213555   2.969   3.156   4.217
 4517TIP3   OH213556   2.032   0.501   1.636
 4517TIP3    H113557   2.105   0.438   1.640
 4517TIP3    H213558   1.984   0.476   1.558
 4518TIP3   OH213559   5.324   1.811   3.489
 4518TIP3    H113560   5.397   1.855   3.533
 4518TIP3    H213561   5.365   1.750   3.428
 4519TIP3   OH213562   5.759   2.977  -0.063
 4519TIP3    H113563   5.756   2.907   0.003
 4519TIP3    H213564   5.696   3.042  -0.032
 4520TIP3   OH213565   4.561   0.457   3.238
 4520TIP3    H113566   4.506   0.502   3.174
 4520TIP3    H213567   4.597   0.527   3.292
 4521TIP3   OH213568   0.310   0.532   0.844
 4521TIP3    H113569   0.242   0.479   0.885
 4521TIP3    H213570   0.267   0.573   0.769
 4522TIP3   OH213571   4.275   0.115   3.620
 4522TIP3    H113572   4.318   0.188   3.575
 4522TIP3    H213573   4.182   0.132   3.610
 4523TIP3   OH213574   2.287   4.243   4.376
 4523TIP3    H113575   2.349   4.223   4.447
 4523TIP3    H213576   2.296   4.170   4.315
 4524TIP3   OH213577   1.356   2.342   4.407
 4524TIP3    H113578   1.301   2.294   4.470
 4524TIP3    H213579   1.296   2.403   4.364
 4525TIP3   OH213580   0.143   4.068   2.938
 4525TIP3    H113581   0.156   4.036   2.848
 4525TIP3    H213582   0.081   4.141   2.928
 4526TIP3   OH213583   5.051   5.598   4.377
 4526TIP3    H113584   5.058   5.638   4.290
 4526TIP3    H213585   5.137   5.611   4.416
 4527TIP3   OH213586   4.995   3.764   0.598
 4527TIP3    H113587   5.049   3.740   0.524
 4527TIP3    H213588   4.909   3.724   0.579
 4528TIP3   OH213589   1.138   1.176   2.153
 4528TIP3    H113590   1.213   1.234   2.162
 4528TIP3    H213591   1.139   1.149   2.061
 4529TIP3   OH213592   3.164   3.222   0.242
 4529TIP3    H113593   3.161   3.231   0.337
 4529TIP3    H213594   3.094   3.160   0.221
 4530TIP3   OH213595   1.571   5.294   1.078
 4530TIP3    H113596   1.592   5.292   0.984
 4530TIP3    H213597   1.599   5.381   1.106
 4531TIP3   OH213598   3.572   0.535   1.025
 4531TIP3    H113599   3.548   0.466   0.963
 4531TIP3    H213600   3.648   0.577   0.985
 4532TIP3   OH213601   5.510   5.902   1.349
 4532TIP3    H113602   5.535   5.969   1.285
 4532TIP3    H213603   5.511   5.948   1.433
 4533TIP3   OH213604   2.028   5.763   3.232
 4533TIP3    H113605   2.112   5.717   3.240
 4533TIP3    H213606   2.052   5.855   3.220
 4534TIP3   OH213607   5.004   0.402   2.415
 4534TIP3    H113608   4.971   0.404   2.325
 4534TIP3    H213609   5.022   0.309   2.432
 4535TIP3   OH213610   0.399   3.046   3.365
 4535TIP3    H113611   0.339   3.006   3.427
 4535TIP3    H213612   0.362   3.133   3.348
 4536TIP3   OH213613   1.755   2.646   4.758
 4536TIP3    H113614   1.690   2.624   4.692
 4536TIP3    H213615   1.712   2.625   4.841
 4537TIP3   OH213616   1.704   0.671   2.604
 4537TIP3    H113617   1.704   0.653   2.510
 4537TIP3    H213618   1.752   0.597   2.642
 4538TIP3   OH213619   3.087   2.320   1.020
 4538TIP3    H113620   3.020   2.387   1.011
 4538TIP3    H213621   3.152   2.341   0.954
 4539TIP3   OH213622   5.494   1.034   3.949
 4539TIP3    H113623   5.460   0.999   4.031
 4539TIP3    H213624   5.575   1.078   3.973
 4540TIP3   OH213625   0.827   3.858   1.093
 4540TIP3    H113626   0.817   3.820   1.005
 4540TIP3    H213627   0.848   3.950   1.077
 4541TIP3   OH213628   0.296   4.331   4.439
 4541TIP3    H113629   0.338   4.406   4.482
 4541TIP3    H213630   0.367   4.288   4.391
 4542TIP3   OH213631   6.053   5.590   2.771
 4542TIP3    H113632   6.140   5.551   2.781
 4542TIP3    H213633   6.002   5.522   2.728
 4543TIP3   OH213634   2.413   1.497   4.742
 4543TIP3    H113635   2.417   1.580   4.693
 4543TIP3    H213636   2.352   1.443   4.692
 4544TIP3   OH213637   3.332   5.165   2.724
 4544TIP3    H113638   3.379   5.247   2.739
 4544TIP3    H213639   3.345   5.115   2.805
 4545TIP3   OH213640   4.405   5.809   3.476
 4545TIP3    H113641   4.419   5.744   3.407
 4545TIP3    H213642   4.358   5.880   3.432
 4546TIP3   OH213643   1.928   3.448   4.866
 4546TIP3    H113644   2.006   3.488   4.906
 4546TIP3    H213645   1.881   3.521   4.827
 4547TIP3   OH213646   5.489   5.760   4.704
 4547TIP3    H113647   5.525   5.741   4.618
 4547TIP3    H213648   5.400   5.726   4.701
 4548TIP3   OH213649   2.401   1.739   2.693
 4548TIP3    H113650   2.338   1.667   2.688
 4548TIP3    H213651   2.486   1.699   2.675
 4549TIP3   OH213652   5.227   0.687   3.811
 4549TIP3    H113653   5.169   0.706   3.737
 4549TIP3    H213654   5.233   0.592   3.813
 4550TIP3   OH213655   1.619   2.717   1.630
 4550TIP3    H113656   1.596   2.693   1.720
 4550TIP3    H213657   1.551   2.677   1.576
 4551TIP3   OH213658   5.094   1.328   1.112
 4551TIP3    H113659   5.080   1.358   1.022
 4551TIP3    H213660   5.073   1.404   1.167
 4552TIP3   OH213661   5.839   3.905   3.323
 4552TIP3    H113662   5.797   3.916   3.408
 4552TIP3    H213663   5.769   3.922   3.260
 4553TIP3   OH213664   4.647   5.084   0.314
 4553TIP3    H113665   4.702   5.063   0.238
 4553TIP3    H213666   4.710   5.098   0.385
 4554TIP3   OH213667   4.033   0.225   4.650
 4554TIP3    H113668   4.091   0.293   4.617
 4554TIP3    H213669   3.946   0.264   4.645
 4555TIP3   OH213670   0.855   0.433   0.620
 4555TIP3    H113671   0.806   0.418   0.701
 4555TIP3    H213672   0.854   0.529   0.609
 4556TIP3   OH213673   2.688   1.016   2.987
 4556TIP3    H113674   2.659   0.979   2.904
 4556TIP3    H213675   2.618   1.077   3.011
 4557TIP3   OH213676   6.083   5.777   3.258
 4557TIP3    H113677   6.039   5.756   3.176
 4557TIP3    H213678   6.024   5.745   3.326
 4558TIP3   OH213679   3.946   5.686   5.171
 4558TIP3    H113680   3.939   5.604   5.121
 4558TIP3    H213681   3.999   5.743   5.115
 4559TIP3   OH213682   3.791   0.179   4.948
 4559TIP3    H113683   3.835   0.261   4.971
 4559TIP3    H213684   3.837   0.112   4.998
 4560TIP3   OH213685   1.833   5.895   2.307
 4560TIP3    H113686   1.757   5.841   2.331
 4560TIP3    H213687   1.842   5.882   2.212
 4561TIP3   OH213688   1.454   0.150   4.128
 4561TIP3    H113689   1.526   0.202   4.165
 4561TIP3    H213690   1.396   0.215   4.088
 4562TIP3   OH213691   2.241   2.597   3.101
 4562TIP3    H113692   2.336   2.586   3.095
 4562TIP3    H213693   2.228   2.692   3.099
 4563TIP3   OH213694   1.849   1.686   2.842
 4563TIP3    H113695   1.817   1.628   2.772
 4563TIP3    H213696   1.940   1.661   2.854
 4564TIP3   OH213697   3.762   4.931   1.498
 4564TIP3    H113698   3.750   4.839   1.475
 4564TIP3    H213699   3.731   4.938   1.588
 4565TIP3   OH213700   0.763   4.216   2.402
 4565TIP3    H113701   0.683   4.163   2.392
 4565TIP3    H213702   0.737   4.286   2.462
 4566TIP3   OH213703   1.711   3.379   0.766
 4566TIP3    H113704   1.690   3.350   0.855
 4566TIP3    H213705   1.750   3.303   0.724
 4567TIP3   OH213706   3.698   2.879   2.609
 4567TIP3    H113707   3.703   2.919   2.695
 4567TIP3    H213708   3.698   2.785   2.626
 4568TIP3   OH213709   2.720   0.011   1.717
 4568TIP3    H113710   2.714   0.085   1.777
 4568TIP3    H213711   2.636  -0.035   1.726
 4569TIP3   OH213712   2.034   3.484   2.631
 4569TIP3    H113713   2.092   3.541   2.681
 4569TIP3    H213714   2.092   3.429   2.579
 4570TIP3   OH213715   4.725   2.929   2.176
 4570TIP3    H113716   4.682   2.915   2.260
 4570TIP3    H213717   4.788   3.000   2.193
 4571TIP3   OH213718   5.645   2.312   1.456
 4571TIP3    H113719   5.609   2.235   1.411
 4571TIP3    H213720   5.727   2.280   1.495
 4572TIP3   OH213721   1.822   4.610   0.677
 4572TIP3    H113722   1.840   4.703   0.663
 4572TIP3    H213723   1.785   4.606   0.765
 4573TIP3   OH213724   6.067   4.867   1.063
 4573TIP3    H113725   6.068   4.905   1.151
 4573TIP3    H213726   6.079   4.941   1.005
 4574TIP3   OH213727   2.825   3.064   2.163
 4574TIP3    H113728   2.791   2.974   2.159
 4574TIP3    H213729   2.916   3.054   2.191
 4575TIP3   OH213730   2.941   0.880   4.138
 4575TIP3    H113731   2.862   0.931   4.157
 4575TIP3    H213732   3.013   0.941   4.155
 4576TIP3   OH213733   3.733   4.543   1.639
 4576TIP3    H113734   3.714   4.593   1.718
 4576TIP3    H213735   3.824   4.515   1.648
 4577TIP3   OH213736   5.604   2.641   0.676
 4577TIP3    H113737   5.628   2.562   0.723
 4577TIP3    H213738   5.610   2.711   0.741
 4578TIP3   OH213739   0.859   3.526   0.786
 4578TIP3    H113740   0.846   3.540   0.692
 4578TIP3    H213741   0.947   3.489   0.792
 4579TIP3   OH213742   5.438   2.370   3.313
 4579TIP3    H113743   5.496   2.444   3.296
 4579TIP3    H213744   5.390   2.395   3.392
 4580TIP3   OH213745   2.118   5.502   4.820
 4580TIP3    H113746   2.174   5.527   4.747
 4580TIP3    H213747   2.096   5.584   4.864
 4581TIP3   OH213748   2.406   0.431   4.582
 4581TIP3    H113749   2.485   0.485   4.586
 4581TIP3    H213750   2.421   0.362   4.647
 4582TIP3   OH213751   0.072   1.135   1.223
 4582TIP3    H113752  -0.012   1.165   1.258
 4582TIP3    H213753   0.135   1.202   1.251
 4583TIP3   OH213754   4.986   2.237   3.319
 4583TIP3    H113755   5.073   2.210   3.292
 4583TIP3    H213756   4.982   2.330   3.298
 4584TIP3   OH213757   4.729   1.704   4.769
 4584TIP3    H113758   4.706   1.778   4.825
 4584TIP3    H213759   4.823   1.714   4.753
 4585TIP3   OH213760   2.317   5.613   1.684
 4585TIP3    H113761   2.331   5.622   1.590
 4585TIP3    H213762   2.285   5.699   1.712
 4586TIP3   OH213763   2.986   4.078   2.130
 4586TIP3    H113764   2.975   4.146   2.064
 4586TIP3    H213765   2.897   4.057   2.158
 4587TIP3   OH213766   5.932   5.211   2.311
 4587TIP3    H113767   6.016   5.166   2.300
 4587TIP3    H213768   5.877   5.148   2.360
 4588TIP3   OH213769   3.230   5.473   4.622
 4588TIP3    H113770   3.189   5.392   4.594
 4588TIP3    H213771   3.324   5.456   4.616
 4589TIP3   OH213772   4.426   2.251   3.857
 4589TIP3    H113773   4.516   2.260   3.825
 4589TIP3    H213774   4.384   2.333   3.832
 4590TIP3   OH213775   4.344   0.700   3.305
 4590TIP3    H113776   4.390   0.762   3.248
 4590TIP3    H213777   4.290   0.755   3.362
 4591TIP3   OH213778   3.163   1.581   1.222
 4591TIP3    H113779   3.202   1.666   1.244
 4591TIP3    H213780   3.239   1.525   1.205
 4592TIP3   OH213781   5.722   2.791   4.450
 4592TIP3    H113782   5.697   2.876   4.414
 4592TIP3    H213783   5.755   2.810   4.537
 4593TIP3   OH213784   4.331   4.238   3.711
 4593TIP3    H113785   4.324   4.286   3.628
 4593TIP3    H213786   4.240   4.222   3.737
 4594TIP3   OH213787   2.508   5.875   4.706
 4594TIP3    H113788   2.512   5.877   4.611
 4594TIP3    H213789   2.571   5.941   4.735
 4595TIP3   OH213790   3.025   0.943   0.155
 4595TIP3    H113791   3.023   0.860   0.202
 4595TIP3    H213792   2.933   0.964   0.138
 4596TIP3   OH213793   1.118   2.491   0.667
 4596TIP3    H113794   1.036   2.462   0.708
 4596TIP3    H213795   1.173   2.519   0.740
 4597TIP3   OH213796   3.045   5.506   1.276
 4597TIP3    H113797   3.007   5.486   1.190
 4597TIP3    H213798   3.134   5.472   1.272
 4598TIP3   OH213799   2.058   1.574   3.233
 4598TIP3    H113800   1.983   1.618   3.271
 4598TIP3    H213801   2.103   1.532   3.307
 4599TIP3   OH213802   0.269   5.411   4.565
 4599TIP3    H113803   0.263   5.366   4.481
 4599TIP3    H213804   0.326   5.486   4.549
 4600TIP3   OH213805   0.374   2.984   1.027
 4600TIP3    H113806   0.448   2.934   1.062
 4600TIP3    H213807   0.347   3.040   1.100
 4601TIP3   OH213808   0.084   2.891   0.452
 4601TIP3    H113809   0.032   2.965   0.484
 4601TIP3    H213810   0.169   2.929   0.432
 4602TIP3   OH213811   5.825   3.230   4.088
 4602TIP3    H113812   5.875   3.156   4.053
 4602TIP3    H213813   5.813   3.209   4.180
 4603TIP3   OH213814   4.862   0.845   0.131
 4603TIP3    H113815   4.854   0.766   0.077
 4603TIP3    H213816   4.944   0.885   0.101
 4604TIP3   OH213817   1.445   5.784   1.750
 4604TIP3    H113818   1.364   5.809   1.794
 4604TIP3    H213819   1.418   5.721   1.683
 4605TIP3   OH213820   2.624   0.175   3.252
 4605TIP3    H113821   2.656   0.163   3.342
 4605TIP3    H213822   2.544   0.122   3.248
 4606TIP3   OH213823   3.775   4.200   1.847
 4606TIP3    H113824   3.828   4.198   1.926
 4606TIP3    H213825   3.825   4.254   1.785
 4607TIP3   OH213826   3.303   0.817   4.295
 4607TIP3    H113827   3.336   0.823   4.205
 4607TIP3    H213828   3.381   0.826   4.350
 4608TIP3   OH213829   4.511   3.735   0.196
 4608TIP3    H113830   4.523   3.668   0.128
 4608TIP3    H213831   4.511   3.818   0.148
 4609TIP3   OH213832   2.992   1.616   1.836
 4609TIP3    H113833   2.947   1.686   1.883
 4609TIP3    H213834   3.008   1.549   1.901
 4610TIP3   OH213835   3.990   5.057   2.629
 4610TIP3    H113836   3.927   4.997   2.669
 4610TIP3    H213837   4.057   5.070   2.697
 4611TIP3   OH213838   3.613   0.999   3.969
 4611TIP3    H113839   3.650   1.080   3.934
 4611TIP3    H213840   3.652   0.991   4.056
 4612TIP3   OH213841   5.242   4.531   0.774
 4612TIP3    H113842   5.182   4.566   0.708
 4612TIP3    H213843   5.303   4.602   0.792
 4613TIP3   OH213844   5.612   2.532   3.758
 4613TIP3    H113845   5.540   2.549   3.820
 4613TIP3    H213846   5.595   2.591   3.685
 4614TIP3   OH213847   0.953   0.681   2.297
 4614TIP3    H113848   0.880   0.685   2.359
 4614TIP3    H213849   1.030   0.664   2.351
 4615TIP3   OH213850   0.876   1.440   5.072
 4615TIP3    H113851   0.817   1.455   5.146
 4615TIP3    H213852   0.946   1.385   5.108
 4616TIP3   OH213853   1.065   1.838   4.720
 4616TIP3    H113854   1.150   1.807   4.689
 4616TIP3    H213855   1.078   1.855   4.814
 4617TIP3   OH213856   4.978   4.386   2.945
 4617TIP3    H113857   5.025   4.448   3.000
 4617TIP3    H213858   4.967   4.432   2.862
 4618TIP3   OH213859   1.534   3.100   4.413
 4618TIP3    H113860   1.554   3.180   4.364
 4618TIP3    H213861   1.511   3.036   4.346
 4619TIP3   OH213862   5.950   3.691   1.049
 4619TIP3    H113863   5.997   3.763   1.092
 4619TIP3    H213864   5.948   3.715   0.957
 4620TIP3   OH213865   5.156   1.066   3.568
 4620TIP3    H113866   5.238   1.078   3.616
 4620TIP3    H213867   5.183   1.030   3.483
 4621TIP3   OH213868   4.613   4.909   2.581
 4621TIP3    H113869   4.666   4.982   2.614
 4621TIP3    H213870   4.677   4.841   2.560
 4622TIP3   OH213871   5.156   3.519   3.921
 4622TIP3    H113872   5.183   3.610   3.931
 4622TIP3    H213873   5.083   3.509   3.982
 4623TIP3   OH213874   3.318   2.802   3.924
 4623TIP3    H113875   3.257   2.785   3.995
 4623TIP3    H213876   3.376   2.727   3.922
 4624TIP3   OH213877   0.766   5.425   2.591
 4624TIP3    H113878   0.737   5.415   2.501
 4624TIP3    H213879   0.693   5.394   2.644
 4625TIP3   OH213880   0.430   4.087   1.331
 4625TIP3    H113881   0.401   4.178   1.328
 4625TIP3    H213882   0.446   4.063   1.240
 4626TIP3   OH213883   4.378   5.109   0.191
 4626TIP3    H113884   4.458   5.127   0.240
 4626TIP3    H213885   4.396   5.027   0.145
 4627TIP3   OH213886   2.943   2.122   1.457
 4627TIP3    H113887   2.935   2.047   1.515
 4627TIP3    H213888   2.859   2.168   1.465
 4628TIP3   OH213889   4.224   2.649   2.612
 4628TIP3    H113890   4.282   2.701   2.556
 4628TIP3    H213891   4.216   2.565   2.566
 4629TIP3   OH213892   3.838   2.684   4.642
 4629TIP3    H113893   3.915   2.694   4.585
 4629TIP3    H213894   3.842   2.760   4.700
 4630TIP3   OH213895   0.739   3.762   0.852
 4630TIP3    H113896   0.644   3.746   0.849
 4630TIP3    H213897   0.778   3.684   0.813
 4631TIP3   OH213898   3.194   1.135   2.266
 4631TIP3    H113899   3.269   1.181   2.302
 4631TIP3    H213900   3.209   1.043   2.287
 4632TIP3   OH213901   0.626   1.721   4.213
 4632TIP3    H113902   0.561   1.654   4.193
 4632TIP3    H213903   0.658   1.699   4.300
 4633TIP3   OH213904   3.835   3.364   3.844
 4633TIP3    H113905   3.853   3.300   3.912
 4633TIP3    H213906   3.754   3.333   3.803
 4634TIP3   OH213907   1.802   1.185   0.860
 4634TIP3    H113908   1.886   1.210   0.899
 4634TIP3    H213909   1.758   1.269   0.842
 4635TIP3   OH213910   1.547   5.248   1.636
 4635TIP3    H113911   1.577   5.232   1.547
 4635TIP3    H213912   1.469   5.303   1.626
 4636TIP3   OH213913   6.359   0.216   0.517
 4636TIP3    H113914   6.355   0.220   0.422
 4636TIP3    H213915   6.368   0.122   0.537
 4637TIP3   OH213916   1.307   5.680   2.346
 4637TIP3    H113917   1.396   5.656   2.320
 4637TIP3    H213918   1.301   5.655   2.439
 4638TIP3   OH213919   4.077   1.293   3.645
 4638TIP3    H113920   4.156   1.276   3.696
 4638TIP3    H213921   4.025   1.351   3.700
 4639TIP3   OH213922   0.205   0.678   0.337
 4639TIP3    H113923   0.245   0.715   0.258
 4639TIP3    H213924   0.195   0.585   0.317
 4640TIP3   OH213925   0.884   1.393   2.047
 4640TIP3    H113926   0.972   1.417   2.074
 4640TIP3    H213927   0.895   1.326   1.980
 4641TIP3   OH213928   3.754   4.106   3.021
 4641TIP3    H113929   3.664   4.124   2.995
 4641TIP3    H213930   3.801   4.097   2.938
 4642TIP3   OH213931   0.153   2.539   4.150
 4642TIP3    H113932   0.194   2.517   4.066
 4642TIP3    H213933   0.086   2.473   4.163
 4643TIP3   OH213934   0.072   3.729   4.525
 4643TIP3    H113935   0.109   3.691   4.445
 4643TIP3    H213936   0.144   3.778   4.564
 4644TIP3   OH213937   1.853   3.220   0.180
 4644TIP3    H113938   1.815   3.208   0.093
 4644TIP3    H213939   1.784   3.196   0.241
 4645TIP3   OH213940   4.018   1.925   4.247
 4645TIP3    H113941   3.957   1.853   4.237
 4645TIP3    H213942   3.980   1.996   4.195
 4646TIP3   OH213943   2.108   1.444   1.632
 4646TIP3    H113944   2.061   1.381   1.579
 4646TIP3    H213945   2.097   1.527   1.586
 4647TIP3   OH213946   0.741   0.580   3.722
 4647TIP3    H113947   0.726   0.486   3.718
 4647TIP3    H213948   0.658   0.616   3.755
 4648TIP3   OH213949   5.153   2.101   0.344
 4648TIP3    H113950   5.147   2.006   0.339
 4648TIP3    H213951   5.225   2.118   0.406
 4649TIP3   OH213952   5.249   2.177   3.580
 4649TIP3    H113953   5.200   2.162   3.499
 4649TIP3    H213954   5.262   2.272   3.584
 4650TIP3   OH213955   5.579   5.912   4.448
 4650TIP3    H113956   5.510   5.889   4.386
 4650TIP3    H213957   5.631   5.832   4.457
 4651TIP3   OH213958   1.687   4.427   2.312
 4651TIP3    H113959   1.665   4.351   2.259
 4651TIP3    H213960   1.758   4.397   2.368
 4652TIP3   OH213961   0.605   2.763   3.053
 4652TIP3    H113962   0.598   2.857   3.066
 4652TIP3    H213963   0.639   2.753   2.964
 4653TIP3   OH213964   5.861   5.484   3.228
 4653TIP3    H113965   5.889   5.540   3.155
 4653TIP3    H213966   5.899   5.399   3.208
 4654TIP3   OH213967   0.239   5.930   1.754
 4654TIP3    H113968   0.189   5.998   1.799
 4654TIP3    H213969   0.307   5.905   1.817
 4655TIP3   OH213970   4.651   0.647   3.413
 4655TIP3    H113971   4.683   0.737   3.404
 4655TIP3    H213972   4.723   0.600   3.454
 4656TIP3   OH213973   0.275   0.548   3.604
 4656TIP3    H113974   0.315   0.621   3.649
 4656TIP3    H213975   0.222   0.504   3.671
 4657TIP3   OH213976   0.147   5.882   0.876
 4657TIP3    H113977   0.193   5.885   0.960
 4657TIP3    H213978   0.214   5.853   0.813
 4658TIP3   OH213979   2.572   0.530   0.943
 4658TIP3    H113980   2.655   0.495   0.975
 4658TIP3    H213981   2.505   0.489   0.998
 4659TIP3   OH213982   2.868   1.264   3.885
 4659TIP3    H113983   2.844   1.346   3.843
 4659TIP3    H213984   2.812   1.259   3.962
 4660TIP3   OH213985   2.814   1.509   3.812
 4660TIP3    H113986   2.878   1.578   3.799
 4660TIP3    H213987   2.732   1.554   3.833
 4661TIP3   OH213988   3.015   3.918   0.546
 4661TIP3    H113989   2.987   3.999   0.589
 4661TIP3    H213990   3.051   3.864   0.616
 4662TIP3   OH213991   0.204   3.808   2.122
 4662TIP3    H113992   0.277   3.748   2.141
 4662TIP3    H213993   0.158   3.766   2.049
 4663TIP3   OH213994   2.307   2.689   4.086
 4663TIP3    H113995   2.287   2.602   4.120
 4663TIP3    H213996   2.321   2.675   3.992
 4664TIP3   OH213997   5.399   5.942   5.079
 4664TIP3    H113998   5.448   5.994   5.142
 4664TIP3    H213999   5.450   5.862   5.068
 4665TIP3   OH214000   6.208   5.455   0.496
 4665TIP3    H114001   6.125   5.437   0.452
 4665TIP3    H214002   6.275   5.438   0.430
 4666TIP3   OH214003   0.474   1.088   1.014
 4666TIP3    H114004   0.564   1.118   1.020
 4666TIP3    H214005   0.447   1.074   1.105
 4667TIP3   OH214006   1.633   4.588   1.554
 4667TIP3    H114007   1.660   4.648   1.485
 4667TIP3    H214008   1.694   4.605   1.626
 4668TIP3   OH214009   1.442   0.182   0.647
 4668TIP3    H114010   1.359   0.136   0.634
 4668TIP3    H214011   1.494   0.122   0.701
 4669TIP3   OH214012   6.144   2.810   2.024
 4669TIP3    H114013   6.237   2.800   2.004
 4669TIP3    H214014   6.127   2.741   2.089
 4670TIP3   OH214015   4.421   0.975   3.105
 4670TIP3    H114016   4.427   1.019   3.190
 4670TIP3    H214017   4.511   0.948   3.086
 4671TIP3   OH214018   6.156   5.914   2.053
 4671TIP3    H114019   6.115   5.875   2.130
 4671TIP3    H214020   6.100   5.989   2.031
 4672TIP3   OH214021   6.103   0.624   3.818
 4672TIP3    H114022   6.034   0.559   3.811
 4672TIP3    H214023   6.056   0.708   3.820
 4673TIP3   OH214024   5.939   0.483   0.046
 4673TIP3    H114025   5.997   0.556   0.023
 4673TIP3    H214026   5.976   0.408  -0.001
 4674TIP3   OH214027   2.143   1.059   3.912
 4674TIP3    H114028   2.210   1.065   3.844
 4674TIP3    H214029   2.137   0.966   3.932
 4675TIP3   OH214030   2.259   5.535   1.219
 4675TIP3    H114031   2.234   5.566   1.132
 4675TIP3    H214032   2.331   5.475   1.203
 4676TIP3   OH214033   4.776   2.263   2.257
 4676TIP3    H114034   4.813   2.183   2.295
 4676TIP3    H214035   4.846   2.298   2.202
 4677TIP3   OH214036   4.220   0.756   4.859
 4677TIP3    H114037   4.133   0.787   4.884
 4677TIP3    H214038   4.278   0.786   4.929
 4678TIP3   OH214039   1.206   3.870   1.791
 4678TIP3    H114040   1.120   3.841   1.760
 4678TIP3    H214041   1.228   3.946   1.736
 4679TIP3   OH214042   1.130   0.730   1.448
 4679TIP3    H114043   1.087   0.715   1.363
 4679TIP3    H214044   1.100   0.657   1.502
 4680TIP3   OH214045   0.073   5.210   5.191
 4680TIP3    H114046   0.008   5.270   5.227
 4680TIP3    H214047   0.074   5.229   5.097
 4681TIP3   OH214048   1.050   2.266   0.944
 4681TIP3    H114049   1.066   2.202   1.013
 4681TIP3    H214050   1.108   2.241   0.872
 4682TIP3   OH214051   3.185   2.441   0.751
 4682TIP3    H114052   3.263   2.434   0.806
 4682TIP3    H214053   3.199   2.376   0.682
 4683TIP3   OH214054   4.982   1.408   5.051
 4683TIP3    H114055   4.951   1.462   5.124
 4683TIP3    H214056   5.043   1.464   5.003
 4684TIP3   OH214057   5.149   1.488   3.392
 4684TIP3    H114058   5.177   1.397   3.384
 4684TIP3    H214059   5.058   1.482   3.423
 4685TIP3   OH214060   4.168   5.310   1.090
 4685TIP3    H114061   4.150   5.366   1.014
 4685TIP3    H214062   4.261   5.288   1.083
 4686TIP3   OH214063   5.986  -0.036   4.111
 4686TIP3    H114064   6.032   0.024   4.170
 4686TIP3    H214065   5.918   0.018   4.070
 4687TIP3   OH214066   3.676   1.866   4.914
 4687TIP3    H114067   3.713   1.954   4.908
 4687TIP3    H214068   3.752   1.808   4.913
 4688TIP3   OH214069   5.956   5.344   0.678
 4688TIP3    H114070   5.991   5.421   0.634
 4688TIP3    H214071   5.874   5.325   0.632
 4689TIP3   OH214072   5.796   5.954   0.853
 4689TIP3    H114073   5.779   5.891   0.922
 4689TIP3    H214074   5.886   5.982   0.867
 4690TIP3   OH214075   0.782   0.415   1.957
 4690TIP3    H114076   0.854   0.436   1.899
 4690TIP3    H214077   0.818   0.427   2.045
 4691TIP3   OH214078   2.633   2.938   1.462
 4691TIP3    H114079   2.561   2.948   1.399
 4691TIP3    H214080   2.641   3.024   1.503
 4692TIP3   OH214081   5.756   1.579   1.860
 4692TIP3    H114082   5.715   1.661   1.833
 4692TIP3    H214083   5.846   1.585   1.829
 4693TIP3   OH214084   5.566   0.915   4.428
 4693TIP3    H114085   5.618   0.982   4.472
 4693TIP3    H214086   5.618   0.835   4.437
 4694TIP3   OH214087   1.098   3.042   2.114
 4694TIP3    H114088   1.048   3.028   2.033
 4694TIP3    H214089   1.170   2.979   2.108
 4695TIP3   OH214090   5.109   3.417   3.155
 4695TIP3    H114091   5.119   3.347   3.220
 4695TIP3    H214092   5.068   3.488   3.203
 4696TIP3   OH214093   5.653   5.277   0.885
 4696TIP3    H114094   5.633   5.186   0.909
 4696TIP3    H214095   5.674   5.272   0.791
 4697TIP3   OH214096   5.665   5.919   0.388
 4697TIP3    H114097   5.591   5.875   0.431
 4697TIP3    H214098   5.625   5.993   0.342
 4698TIP3   OH214099   5.641   2.507   2.412
 4698TIP3    H114100   5.662   2.600   2.403
 4698TIP3    H214101   5.654   2.471   2.324
 4699TIP3   OH214102   5.323   0.234   0.261
 4699TIP3    H114103   5.369   0.164   0.307
 4699TIP3    H214104   5.281   0.285   0.330
 4700TIP3   OH214105   1.535   5.847   2.637
 4700TIP3    H114106   1.580   5.793   2.702
 4700TIP3    H214107   1.564   5.812   2.553
 4701TIP3   OH214108   4.299   2.319   1.224
 4701TIP3    H114109   4.326   2.407   1.249
 4701TIP3    H214110   4.381   2.269   1.218
 4702TIP3   OH214111   1.008   1.123   3.184
 4702TIP3    H114112   1.052   1.108   3.100
 4702TIP3    H214113   0.929   1.172   3.160
 4703TIP3   OH214114   4.518   4.103   1.974
 4703TIP3    H114115   4.509   4.189   2.014
 4703TIP3    H214116   4.585   4.058   2.026
 4704TIP3   OH214117   4.434   3.004   5.058
 4704TIP3    H114118   4.441   3.081   5.114
 4704TIP3    H214119   4.522   2.967   5.056
 4705TIP3   OH214120   6.174   2.153   2.995
 4705TIP3    H114121   6.221   2.235   2.981
 4705TIP3    H214122   6.140   2.130   2.908
 4706TIP3   OH214123   2.930   3.365   1.131
 4706TIP3    H114124   3.003   3.424   1.116
 4706TIP3    H214125   2.862   3.395   1.071
 4707TIP3   OH214126   0.583   2.842   3.353
 4707TIP3    H114127   0.530   2.922   3.347
 4707TIP3    H214128   0.669   2.868   3.320
 4708TIP3   OH214129   4.365   0.937   1.623
 4708TIP3    H114130   4.331   1.011   1.674
 4708TIP3    H214131   4.305   0.865   1.643
 4709TIP3   OH214132   1.194   2.765   1.622
 4709TIP3    H114133   1.152   2.797   1.542
 4709TIP3    H214134   1.262   2.829   1.641
 4710TIP3   OH214135   5.376   0.879   3.154
 4710TIP3    H114136   5.415   0.829   3.083
 4710TIP3    H214137   5.450   0.906   3.208
 4711TIP3   OH214138   4.359   3.713   4.998
 4711TIP3    H114139   4.270   3.748   5.008
 4711TIP3    H214140   4.372   3.659   5.076
 4712TIP3   OH214141   0.117   3.587   3.721
 4712TIP3    H114142   0.147   3.674   3.694
 4712TIP3    H214143   0.125   3.587   3.816
 4713TIP3   OH214144   3.489   5.001   0.776
 4713TIP3    H114145   3.498   5.051   0.857
 4713TIP3    H214146   3.413   5.039   0.732
 4714TIP3   OH214147   0.532   3.067   4.674
 4714TIP3    H114148   0.520   3.127   4.747
 4714TIP3    H214149   0.473   2.994   4.692
 4715TIP3   OH214150   2.025   2.680   4.687
 4715TIP3    H114151   2.048   2.722   4.770
 4715TIP3    H214152   1.930   2.688   4.683
 4716TIP3   OH214153   0.593   1.220   0.336
 4716TIP3    H114154   0.605   1.262   0.421
 4716TIP3    H214155   0.641   1.275   0.275
 4717TIP3   OH214156   5.583   3.103   2.018
 4717TIP3    H114157   5.655   3.048   2.048
 4717TIP3    H214158   5.513   3.040   1.997
 4718TIP3   OH214159   5.049   2.737   3.671
 4718TIP3    H114160   5.137   2.719   3.705
 4718TIP3    H214161   4.991   2.681   3.723
 4719TIP3   OH214162   4.803   5.497   2.721
 4719TIP3    H114163   4.741   5.563   2.691
 4719TIP3    H214164   4.842   5.535   2.799
 4720TIP3   OH214165   2.109   5.514   3.657
 4720TIP3    H114166   2.025   5.477   3.684
 4720TIP3    H214167   2.092   5.607   3.645
 4721TIP3   OH214168   3.809   4.976   2.857
 4721TIP3    H114169   3.766   5.058   2.883
 4721TIP3    H214170   3.901   4.999   2.849
 4722TIP3   OH214171   3.764   5.595   1.775
 4722TIP3    H114172   3.754   5.595   1.680
 4722TIP3    H214173   3.737   5.507   1.802
 4723TIP3   OH214174   5.043   4.993   2.715
 4723TIP3    H114175   5.018   5.072   2.669
 4723TIP3    H214176   5.088   5.024   2.794
 4724TIP3   OH214177   0.491   2.891   2.176
 4724TIP3    H114178   0.544   2.834   2.231
 4724TIP3    H214179   0.543   2.971   2.167
 4725TIP3   OH214180   4.551   3.753   4.024
 4725TIP3    H114181   4.634   3.706   4.018
 4725TIP3    H214182   4.542   3.774   4.117
 4726TIP3   OH214183   5.919   2.971   0.721
 4726TIP3    H114184   5.833   2.980   0.680
 4726TIP3    H214185   5.946   2.882   0.699
 4727TIP3   OH214186   1.942   3.887   3.650
 4727TIP3    H114187   1.970   3.917   3.737
 4727TIP3    H214188   2.004   3.928   3.590
 4728TIP3   OH214189   1.754   0.515   1.976
 4728TIP3    H114190   1.711   0.472   2.051
 4728TIP3    H214191   1.846   0.520   2.001
 4729TIP3   OH214192   3.871   2.464   3.969
 4729TIP3    H114193   3.796   2.518   3.992
 4729TIP3    H214194   3.884   2.406   4.044
 4730TIP3   OH214195   5.355   1.804   1.817
 4730TIP3    H114196   5.277   1.767   1.774
 4730TIP3    H214197   5.347   1.775   1.908
 4731TIP3   OH214198   2.527   5.229   4.814
 4731TIP3    H114199   2.471   5.151   4.816
 4731TIP3    H214200   2.493   5.285   4.883
 4732TIP3   OH214201   5.140   2.988   3.680
 4732TIP3    H114202   5.077   3.059   3.670
 4732TIP3    H214203   5.091   2.909   3.656
 4733TIP3   OH214204   3.230   3.137   1.869
 4733TIP3    H114205   3.172   3.140   1.793
 4733TIP3    H214206   3.181   3.087   1.935
 4734TIP3   OH214207   1.566   3.494   1.768
 4734TIP3    H114208   1.585   3.499   1.861
 4734TIP3    H214209   1.497   3.559   1.754
 4735TIP3   OH214210   2.870   0.638   1.277
 4735TIP3    H114211   2.799   0.671   1.331
 4735TIP3    H214212   2.872   0.696   1.201
 4736TIP3   OH214213   3.799   5.899   3.509
 4736TIP3    H114214   3.809   5.827   3.446
 4736TIP3    H214215   3.768   5.972   3.456
 4737TIP3   OH214216   4.969   5.311   3.447
 4737TIP3    H114217   4.994   5.218   3.445
 4737TIP3    H214218   5.051   5.357   3.468
 4738TIP3   OH214219   2.928   1.060   2.234
 4738TIP3    H114220   2.934   0.973   2.273
 4738TIP3    H214221   3.018   1.084   2.213
 4739TIP3   OH214222   2.356   4.592   0.170
 4739TIP3    H114223   2.351   4.548   0.085
 4739TIP3    H214224   2.389   4.679   0.150
 4740TIP3   OH214225   0.626   2.472   0.478
 4740TIP3    H114226   0.641   2.550   0.531
 4740TIP3    H214227   0.634   2.399   0.539
 4741TIP3   OH214228   6.152   4.568   2.551
 4741TIP3    H114229   6.177   4.606   2.467
 4741TIP3    H214230   6.216   4.603   2.613
 4742TIP3   OH214231   0.885   0.236   3.982
 4742TIP3    H114232   0.832   0.168   3.940
 4742TIP3    H214233   0.825   0.278   4.043
 4743TIP3   OH214234   2.278   5.656   4.661
 4743TIP3    H114235   2.358   5.650   4.712
 4743TIP3    H214236   2.295   5.726   4.597
 4744TIP3   OH214237   6.086   0.197   3.679
 4744TIP3    H114238   6.061   0.288   3.695
 4744TIP3    H214239   6.066   0.183   3.586
 4745TIP3   OH214240   0.606   2.109   2.932
 4745TIP3    H114241   0.674   2.158   2.887
 4745TIP3    H214242   0.612   2.020   2.895
 4746TIP3   OH214243   0.999   2.970   2.859
 4746TIP3    H114244   0.940   2.932   2.793
 4746TIP3    H214245   1.086   2.956   2.823
 4747TIP3   OH214246   6.267   3.146   4.209
 4747TIP3    H114247   6.301   3.096   4.283
 4747TIP3    H214248   6.340   3.150   4.147
 4748TIP3   OH214249   5.687   0.909   0.145
 4748TIP3    H114250   5.676   0.944   0.057
 4748TIP3    H214251   5.771   0.863   0.142
 4749TIP3   OH214252   3.192   0.074   5.052
 4749TIP3    H114253   3.132   0.005   5.023
 4749TIP3    H214254   3.259   0.078   4.984
 4750TIP3   OH214255   4.549   2.614   5.142
 4750TIP3    H114256   4.627   2.559   5.144
 4750TIP3    H214257   4.550   2.661   5.226
 4751TIP3   OH214258   4.063   3.053   1.132
 4751TIP3    H114259   4.041   3.031   1.222
 4751TIP3    H214260   4.022   3.138   1.117
 4752TIP3   OH214261   5.134   1.877   2.207
 4752TIP3    H114262   5.109   1.840   2.292
 4752TIP3    H214263   5.058   1.861   2.150
 4753TIP3   OH214264   1.130   3.875   4.069
 4753TIP3    H114265   1.160   3.822   3.995
 4753TIP3    H214266   1.099   3.956   4.028
 4754TIP3   OH214267   4.685   4.625   0.470
 4754TIP3    H114268   4.740   4.625   0.391
 4754TIP3    H214269   4.597   4.644   0.437
 4755TIP3   OH214270   2.134   1.482   0.611
 4755TIP3    H114271   2.049   1.480   0.655
 4755TIP3    H214272   2.198   1.470   0.682
 4756TIP3   OH214273   4.123   2.941   0.173
 4756TIP3    H114274   4.145   3.006   0.239
 4756TIP3    H214275   4.138   2.986   0.089
 4757TIP3   OH214276   3.026   3.973   4.328
 4757TIP3    H114277   2.982   4.001   4.408
 4757TIP3    H214278   3.070   4.052   4.296
 4758TIP3   OH214279   3.389   1.736   4.903
 4758TIP3    H114280   3.369   1.692   4.986
 4758TIP3    H214281   3.444   1.810   4.928
 4759TIP3   OH214282   3.807   1.615   4.945
 4759TIP3    H114283   3.830   1.527   4.975
 4759TIP3    H214284   3.754   1.602   4.867
 4760TIP3   OH214285   6.373   1.210   4.921
 4760TIP3    H114286   6.320   1.245   4.992
 4760TIP3    H214287   6.316   1.146   4.878
 4761TIP3   OH214288   4.255   1.452   2.094
 4761TIP3    H114289   4.182   1.390   2.094
 4761TIP3    H214290   4.217   1.533   2.060
 4762TIP3   OH214291   0.998   2.190   2.866
 4762TIP3    H114292   1.093   2.186   2.872
 4762TIP3    H214293   0.967   2.173   2.956
 4763TIP3   OH214294   0.565   4.918   4.482
 4763TIP3    H114295   0.633   4.927   4.548
 4763TIP3    H214296   0.483   4.917   4.532
 4764TIP3   OH214297   3.548   5.626   3.534
 4764TIP3    H114298   3.576   5.700   3.479
 4764TIP3    H214299   3.467   5.596   3.494
 4765TIP3   OH214300   1.846   5.313   2.074
 4765TIP3    H114301   1.912   5.250   2.103
 4765TIP3    H214302   1.856   5.317   1.979
 4766TIP3   OH214303   2.412   0.840   2.392
 4766TIP3    H114304   2.371   0.779   2.454
 4766TIP3    H214305   2.364   0.828   2.311
 4767TIP3   OH214306   2.335   2.859   1.996
 4767TIP3    H114307   2.318   2.907   1.915
 4767TIP3    H214308   2.251   2.858   2.042
 4768TIP3   OH214309   5.246   3.879   2.413
 4768TIP3    H114310   5.305   3.953   2.426
 4768TIP3    H214311   5.164   3.918   2.384
 4769TIP3   OH214312   0.038   5.483   2.986
 4769TIP3    H114313   0.044   5.504   3.079
 4769TIP3    H214314   0.043   5.387   2.982
 4770TIP3   OH214315   1.542   3.923   4.269
 4770TIP3    H114316   1.558   3.943   4.177
 4770TIP3    H214317   1.602   3.981   4.317
 4771TIP3   OH214318   3.919   5.039   1.284
 4771TIP3    H114319   3.871   5.020   1.365
 4771TIP3    H214320   4.009   5.053   1.312
 4772TIP3   OH214321   1.146   0.321   4.248
 4772TIP3    H114322   1.118   0.406   4.282
 4772TIP3    H214323   1.122   0.258   4.315
 4773TIP3   OH214324   4.797   5.907   4.166
 4773TIP3    H114325   4.759   5.907   4.078
 4773TIP3    H214326   4.739   5.964   4.217
 4774TIP3   OH214327   1.066   1.184   1.463
 4774TIP3    H114328   1.111   1.241   1.400
 4774TIP3    H214329   0.974   1.191   1.439
 4775TIP3   OH214330   3.095   1.571   4.322
 4775TIP3    H114331   3.029   1.623   4.369
 4775TIP3    H214332   3.050   1.539   4.244
 4776TIP3   OH214333   1.693   5.660   0.130
 4776TIP3    H114334   1.709   5.677   0.223
 4776TIP3    H214335   1.752   5.720   0.085
 4777TIP3   OH214336   5.539   1.535   4.465
 4777TIP3    H114337   5.612   1.489   4.507
 4777TIP3    H214338   5.571   1.624   4.453
 4778TIP3   OH214339   4.665   1.933   1.592
 4778TIP3    H114340   4.661   1.851   1.543
 4778TIP3    H214341   4.604   1.991   1.547
 4779TIP3   OH214342   3.499   3.184   3.257
 4779TIP3    H114343   3.489   3.135   3.176
 4779TIP3    H214344   3.590   3.168   3.284
 4780TIP3   OH214345   2.701   2.075   3.086
 4780TIP3    H114346   2.723   2.152   3.139
 4780TIP3    H214347   2.606   2.083   3.071
 4781TIP3   OH214348   6.288   2.925   2.332
 4781TIP3    H114349   6.367   2.893   2.376
 4781TIP3    H214350   6.286   2.877   2.248
 4782TIP3   OH214351   0.258   5.364   4.009
 4782TIP3    H114352   0.195   5.349   3.938
 4782TIP3    H214353   0.344   5.363   3.966
 4783TIP3   OH214354   3.747   4.399   2.136
 4783TIP3    H114355   3.809   4.353   2.192
 4783TIP3    H214356   3.760   4.361   2.049
 4784TIP3   OH214357   3.432   4.866   3.435
 4784TIP3    H114358   3.390   4.783   3.454
 4784TIP3    H214359   3.448   4.905   3.521
 4785TIP3   OH214360   1.348   0.729   4.092
 4785TIP3    H114361   1.271   0.767   4.134
 4785TIP3    H214362   1.318   0.705   4.004
 4786TIP3   OH214363   3.016   5.336   3.147
 4786TIP3    H114364   2.962   5.407   3.114
 4786TIP3    H214365   3.098   5.344   3.098
 4787TIP3   OH214366   3.944   3.539   1.163
 4787TIP3    H114367   3.956   3.590   1.083
 4787TIP3    H214368   3.899   3.460   1.135
 4788TIP3   OH214369   4.817   2.292   1.904
 4788TIP3    H114370   4.836   2.213   1.852
 4788TIP3    H214371   4.839   2.267   1.994
 4789TIP3   OH214372   1.054   5.467   4.676
 4789TIP3    H114373   0.965   5.495   4.655
 4789TIP3    H214374   1.052   5.447   4.770
 4790TIP3   OH214375   4.606   5.412   4.836
 4790TIP3    H114376   4.626   5.505   4.841
 4790TIP3    H214377   4.691   5.370   4.822
 4791TIP3   OH214378   6.063   1.787   1.969
 4791TIP3    H114379   6.152   1.812   1.992
 4791TIP3    H214380   6.020   1.869   1.945
 4792TIP3   OH214381   2.681   5.464   5.066
 4792TIP3    H114382   2.706   5.402   5.136
 4792TIP3    H214383   2.764   5.500   5.035
 4793TIP3   OH214384   4.630   5.898   2.315
 4793TIP3    H114385   4.700   5.909   2.250
 4793TIP3    H214386   4.588   5.984   2.319
 4794TIP3   OH214387   4.191   1.955   4.452
 4794TIP3    H114388   4.253   2.028   4.455
 4794TIP3    H214389   4.130   1.978   4.383
 4795TIP3   OH214390   0.557   4.893   1.469
 4795TIP3    H114391   0.575   4.801   1.450
 4795TIP3    H214392   0.638   4.939   1.445
 4796TIP3   OH214393   5.903   0.320   4.911
 4796TIP3    H114394   5.969   0.268   4.956
 4796TIP3    H214395   5.873   0.383   4.976
 4797TIP3   OH214396   0.683   1.633   2.996
 4797TIP3    H114397   0.762   1.582   3.012
 4797TIP3    H214398   0.634   1.630   3.078
 4798TIP3   OH214399   1.253   2.820   2.136
 4798TIP3    H114400   1.313   2.835   2.210
 4798TIP3    H214401   1.187   2.761   2.171
 4799TIP3   OH214402   5.211   0.417   1.327
 4799TIP3    H114403   5.293   0.427   1.277
 4799TIP3    H214404   5.177   0.505   1.336
 4800TIP3   OH214405   5.366   5.168   2.476
 4800TIP3    H114406   5.329   5.214   2.551
 4800TIP3    H214407   5.438   5.223   2.446
 4801TIP3   OH214408   5.096   4.905   4.327
 4801TIP3    H114409   5.130   4.906   4.417
 4801TIP3    H214410   5.153   4.844   4.281
 4802TIP3   OH214411   5.925   1.081   1.108
 4802TIP3    H114412   6.002   1.043   1.152
 4802TIP3    H214413   5.876   1.122   1.179
 4803TIP3   OH214414   4.867   2.571   3.768
 4803TIP3    H114415   4.791   2.593   3.821
 4803TIP3    H214416   4.830   2.531   3.689
 4804TIP3   OH214417   5.653   4.668   3.756
 4804TIP3    H114418   5.718   4.736   3.776
 4804TIP3    H214419   5.588   4.676   3.825
 4805TIP3   OH214420   5.675   5.136   1.900
 4805TIP3    H114421   5.694   5.045   1.923
 4805TIP3    H214422   5.752   5.185   1.931
 4806TIP3   OH214423   6.243   5.367   2.763
 4806TIP3    H114424   6.313   5.320   2.717
 4806TIP3    H214425   6.282   5.395   2.846
 4807TIP3   OH214426   2.442   1.220   0.009
 4807TIP3    H114427   2.397   1.142   0.041
 4807TIP3    H214428   2.501   1.245   0.081
 4808TIP3   OH214429   2.711   3.642   0.641
 4808TIP3    H114430   2.782   3.593   0.682
 4808TIP3    H214431   2.722   3.629   0.547
 4809TIP3   OH214432   2.660   1.099   3.688
 4809TIP3    H114433   2.607   1.177   3.674
 4809TIP3    H214434   2.718   1.095   3.612
 4810TIP3   OH214435   3.085   4.525   3.196
 4810TIP3    H114436   2.993   4.519   3.223
 4810TIP3    H214437   3.117   4.435   3.199
 4811TIP3   OH214438   4.575   4.857   2.112
 4811TIP3    H114439   4.628   4.909   2.172
 4811TIP3    H214440   4.491   4.847   2.156
 4812TIP3   OH214441   3.697   2.411   1.561
 4812TIP3    H114442   3.655   2.360   1.492
 4812TIP3    H214443   3.633   2.479   1.583
 4813TIP3   OH214444   2.033   5.384   0.191
 4813TIP3    H114445   1.947   5.386   0.148
 4813TIP3    H214446   2.096   5.400   0.121
 4814TIP3   OH214447   0.582   3.377   2.116
 4814TIP3    H114448   0.648   3.445   2.108
 4814TIP3    H214449   0.615   3.305   2.062
 4815TIP3   OH214450   4.644   4.146   4.402
 4815TIP3    H114451   4.696   4.218   4.366
 4815TIP3    H214452   4.689   4.067   4.374
 4816TIP3   OH214453   4.911   0.528   4.575
 4816TIP3    H114454   4.829   0.576   4.581
 4816TIP3    H214455   4.979   0.594   4.581
 4817TIP3   OH214456   5.908   0.404   3.765
 4817TIP3    H114457   5.827   0.355   3.751
 4817TIP3    H214458   5.903   0.477   3.704
 4818TIP3   OH214459   6.117   0.381   1.286
 4818TIP3    H114460   6.103   0.473   1.311
 4818TIP3    H214461   6.197   0.382   1.234
 4819TIP3   OH214462   2.645   2.397   0.777
 4819TIP3    H114463   2.590   2.465   0.738
 4819TIP3    H214464   2.712   2.446   0.825
 4820TIP3   OH214465   3.027   5.501   0.187
 4820TIP3    H114466   3.082   5.498   0.109
 4820TIP3    H214467   2.973   5.579   0.176
 4821TIP3   OH214468   5.388   0.368   1.113
 4821TIP3    H114469   5.356   0.418   1.039
 4821TIP3    H214470   5.397   0.278   1.080
 4822TIP3   OH214471   2.684   3.957   0.470
 4822TIP3    H114472   2.689   3.870   0.431
 4822TIP3    H214473   2.775   3.979   0.491
 4823TIP3   OH214474   1.966   5.732   1.307
 4823TIP3    H114475   1.878   5.763   1.285
 4823TIP3    H214476   2.008   5.718   1.222
 4824TIP3   OH214477   0.010   2.681   2.210
 4824TIP3    H114478   0.034   2.633   2.289
 4824TIP3    H214479  -0.005   2.613   2.144
 4825TIP3   OH214480   3.204   2.250   0.521
 4825TIP3    H114481   3.166   2.164   0.537
 4825TIP3    H214482   3.131   2.305   0.493
 4826TIP3   OH214483   2.620   0.968   3.931
 4826TIP3    H114484   2.533   0.978   3.968
 4826TIP3    H214485   2.619   1.021   3.851
 4827TIP3   OH214486   3.358   0.255   1.169
 4827TIP3    H114487   3.428   0.218   1.223
 4827TIP3    H214488   3.396   0.257   1.081
 4828TIP3   OH214489   4.709   1.575   1.785
 4828TIP3    H114490   4.627   1.539   1.819
 4828TIP3    H214491   4.756   1.498   1.751
 4829TIP3   OH214492   3.317   1.680   1.963
 4829TIP3    H114493   3.322   1.773   1.985
 4829TIP3    H214494   3.255   1.644   2.027
 4830TIP3   OH214495   2.843   5.534   3.534
 4830TIP3    H114496   2.774   5.467   3.536
 4830TIP3    H214497   2.836   5.578   3.618
 4831TIP3   OH214498   2.325   4.016   2.162
 4831TIP3    H114499   2.345   4.093   2.215
 4831TIP3    H214500   2.380   4.025   2.084
 4832TIP3   OH214501   1.276   2.647   4.849
 4832TIP3    H114502   1.277   2.636   4.944
 4832TIP3    H214503   1.299   2.739   4.835
 4833TIP3   OH214504   2.977   0.226   3.597
 4833TIP3    H114505   3.072   0.218   3.595
 4833TIP3    H214506   2.956   0.242   3.689
 4834TIP3   OH214507   0.912   4.841   3.369
 4834TIP3    H114508   0.858   4.883   3.303
 4834TIP3    H214509   0.956   4.913   3.414
 4835TIP3   OH214510   0.585   5.275   4.460
 4835TIP3    H114511   0.585   5.188   4.500
 4835TIP3    H214512   0.495   5.305   4.466
 4836TIP3   OH214513   2.411   4.580   2.422
 4836TIP3    H114514   2.418   4.572   2.326
 4836TIP3    H214515   2.489   4.536   2.455
 4837TIP3   OH214516   5.074   2.238   2.998
 4837TIP3    H114517   5.155   2.287   3.011
 4837TIP3    H214518   5.006   2.294   3.036
 4838TIP3   OH214519   0.720   4.723   4.374
 4838TIP3    H114520   0.759   4.745   4.289
 4838TIP3    H214521   0.675   4.804   4.401
 4839TIP3   OH214522   4.621   1.939   4.876
 4839TIP3    H114523   4.606   1.979   4.790
 4839TIP3    H214524   4.533   1.930   4.913
 4840TIP3   OH214525   3.612   3.562   3.348
 4840TIP3    H114526   3.684   3.558   3.286
 4840TIP3    H214527   3.624   3.484   3.403
 4841TIP3   OH214528   4.841   0.077   1.129
 4841TIP3    H114529   4.928   0.105   1.157
 4841TIP3    H214530   4.837   0.098   1.036
 4842TIP3   OH214531   3.137   3.871   5.078
 4842TIP3    H114532   3.170   3.917   5.155
 4842TIP3    H214533   3.176   3.783   5.084
 4843TIP3   OH214534   2.751   3.901   4.924
 4843TIP3    H114535   2.761   3.969   4.857
 4843TIP3    H214536   2.722   3.824   4.875
 4844TIP3   OH214537   6.289   2.998   1.179
 4844TIP3    H114538   6.265   3.046   1.258
 4844TIP3    H214539   6.210   2.951   1.154
 4845TIP3   OH214540   2.381   2.877   1.243
 4845TIP3    H114541   2.365   2.855   1.152
 4845TIP3    H214542   2.317   2.944   1.264
 4846TIP3   OH214543   4.310   4.841   2.133
 4846TIP3    H114544   4.296   4.823   2.040
 4846TIP3    H214545   4.249   4.913   2.152
 4847TIP3   OH214546   6.114   0.567   4.313
 4847TIP3    H114547   6.207   0.558   4.295
 4847TIP3    H214548   6.076   0.602   4.232
 4848TIP3   OH214549   0.618   3.357   3.994
 4848TIP3    H114550   0.605   3.348   4.088
 4848TIP3    H214551   0.702   3.313   3.978
 4849TIP3   OH214552   2.600   4.483   4.447
 4849TIP3    H114553   2.594   4.387   4.454
 4849TIP3    H214554   2.692   4.500   4.429
 4850TIP3   OH214555   3.448   1.748   3.771
 4850TIP3    H114556   3.530   1.795   3.756
 4850TIP3    H214557   3.450   1.726   3.865
 4851TIP3   OH214558   3.631   2.024   2.596
 4851TIP3    H114559   3.574   1.956   2.559
 4851TIP3    H214560   3.620   2.014   2.691
 4852TIP3   OH214561   4.704   3.793   1.914
 4852TIP3    H114562   4.698   3.754   1.827
 4852TIP3    H214563   4.671   3.726   1.973
 4853TIP3   OH214564   3.947   1.507   3.093
 4853TIP3    H114565   3.967   1.572   3.161
 4853TIP3    H214566   3.866   1.538   3.053
 4854TIP3   OH214567   3.073   4.784   3.738
 4854TIP3    H114568   3.143   4.848   3.750
 4854TIP3    H214569   3.015   4.823   3.672
 4855TIP3   OH214570   0.652   0.186   4.341
 4855TIP3    H114571   0.669   0.105   4.389
 4855TIP3    H214572   0.636   0.157   4.251
 4856TIP3   OH214573   4.121   2.499   0.659
 4856TIP3    H114574   4.138   2.405   0.648
 4856TIP3    H214575   4.048   2.503   0.721
 4857TIP3   OH214576   0.002   2.182   4.772
 4857TIP3    H114577   0.065   2.126   4.726
 4857TIP3    H214578  -0.008   2.141   4.858
 4858TIP3   OH214579   3.864   5.148   2.019
 4858TIP3    H114580   3.911   5.180   2.096
 4858TIP3    H214581   3.866   5.053   2.027
 4859TIP3   OH214582   1.143   2.047   4.375
 4859TIP3    H114583   1.052   2.073   4.391
 4859TIP3    H214584   1.189   2.068   4.457
 4860TIP3   OH214585   0.456   2.420   3.236
 4860TIP3    H114586   0.477   2.327   3.235
 4860TIP3    H214587   0.398   2.432   3.161
 4861TIP3   OH214588   0.807   3.157   3.812
 4861TIP3    H114589   0.807   3.117   3.725
 4861TIP3    H214590   0.745   3.105   3.862
 4862TIP3   OH214591   1.715   1.209   2.659
 4862TIP3    H114592   1.730   1.228   2.567
 4862TIP3    H214593   1.799   1.230   2.702
 4863TIP3   OH214594   6.073   1.290   2.464
 4863TIP3    H114595   6.027   1.249   2.391
 4863TIP3    H214596   6.147   1.336   2.423
 4864TIP3   OH214597   2.331   1.194   0.676
 4864TIP3    H114598   2.354   1.140   0.752
 4864TIP3    H214599   2.288   1.271   0.714
 4865TIP3   OH214600   3.673   2.364   3.499
 4865TIP3    H114601   3.660   2.291   3.560
 4865TIP3    H214602   3.744   2.334   3.442
 4866TIP3   OH214603   5.614   5.230   2.776
 4866TIP3    H114604   5.531   5.254   2.735
 4866TIP3    H214605   5.603   5.253   2.868
 4867TIP3   OH214606   1.846   5.357   4.829
 4867TIP3    H114607   1.813   5.444   4.806
 4867TIP3    H214608   1.913   5.374   4.896
 4868TIP3   OH214609   6.028   5.452   1.829
 4868TIP3    H114610   6.116   5.489   1.817
 4868TIP3    H214611   6.043   5.365   1.866
 4869TIP3   OH214612   2.613   1.248   1.199
 4869TIP3    H114613   2.700   1.288   1.205
 4869TIP3    H214614   2.616   1.173   1.258
 4870TIP3   OH214615   6.288   1.410   2.322
 4870TIP3    H114616   6.225   1.460   2.270
 4870TIP3    H214617   6.341   1.364   2.257
 4871TIP3   OH214618   2.453   3.800   4.932
 4871TIP3    H114619   2.523   3.742   4.904
 4871TIP3    H214620   2.497   3.883   4.953
 4872TIP3   OH214621   4.604   5.401   2.492
 4872TIP3    H114622   4.608   5.494   2.516
 4872TIP3    H214623   4.681   5.363   2.534
 4873TIP3   OH214624   4.666   0.873   3.013
 4873TIP3    H114625   4.741   0.849   2.958
 4873TIP3    H214626   4.615   0.792   3.021
 4874TIP3   OH214627   2.031   2.193   4.475
 4874TIP3    H114628   2.008   2.259   4.540
 4874TIP3    H214629   2.006   2.232   4.392
 4875TIP3   OH214630   1.687   5.476   0.464
 4875TIP3    H114631   1.752   5.546   0.463
 4875TIP3    H214632   1.730   5.402   0.422
 4876TIP3   OH214633   1.421   2.002   5.060
 4876TIP3    H114634   1.425   2.004   4.964
 4876TIP3    H214635   1.386   1.915   5.081
 4877TIP3   OH214636   1.220   5.308   0.623
 4877TIP3    H114637   1.230   5.264   0.539
 4877TIP3    H214638   1.268   5.253   0.685
 4878TIP3   OH214639   0.534   5.756   0.493
 4878TIP3    H114640   0.584   5.678   0.517
 4878TIP3    H214641   0.446   5.739   0.525
 4879TIP3   OH214642   6.112   5.724   0.967
 4879TIP3    H114643   6.127   5.785   1.039
 4879TIP3    H214644   6.081   5.644   1.009
 4880TIP3   OH214645   2.863   3.031   2.610
 4880TIP3    H114646   2.956   3.009   2.614
 4880TIP3    H214647   2.860   3.111   2.557
 4881TIP3   OH214648   2.431   1.433   4.338
 4881TIP3    H114649   2.460   1.431   4.247
 4881TIP3    H214650   2.411   1.525   4.355
 4882TIP3   OH214651   5.229   2.764   3.358
 4882TIP3    H114652   5.321   2.737   3.360
 4882TIP3    H214653   5.203   2.755   3.266
 4883TIP3   OH214654   0.809   1.016   2.494
 4883TIP3    H114655   0.752   1.092   2.503
 4883TIP3    H214656   0.856   1.031   2.412
 4884TIP3   OH214657   2.226   5.866   1.648
 4884TIP3    H114658   2.233   5.959   1.668
 4884TIP3    H214659   2.206   5.863   1.555
 4885TIP3   OH214660   2.929   5.953   4.221
 4885TIP3    H114661   2.907   5.957   4.128
 4885TIP3    H214662   2.844   5.953   4.265
 4886TIP3   OH214663   4.372   3.610   4.715
 4886TIP3    H114664   4.397   3.521   4.741
 4886TIP3    H214665   4.346   3.652   4.797
 4887TIP3   OH214666   3.429   4.881   2.316
 4887TIP3    H114667   3.500   4.937   2.286
 4887TIP3    H214668   3.402   4.920   2.399
 4888TIP3   OH214669   2.697   3.074   3.621
 4888TIP3    H114670   2.676   3.144   3.683
 4888TIP3    H214671   2.735   3.119   3.546
 4889TIP3   OH214672   5.627   5.655   4.110
 4889TIP3    H114673   5.603   5.747   4.098
 4889TIP3    H214674   5.690   5.656   4.182
 4890TIP3   OH214675   3.016   4.483   2.904
 4890TIP3    H114676   3.025   4.487   2.999
 4890TIP3    H214677   2.959   4.557   2.882
 4891TIP3   OH214678   5.856   2.984   3.405
 4891TIP3    H114679   5.937   3.029   3.432
 4891TIP3    H214680   5.792   3.010   3.470
 4892TIP3   OH214681   4.053   3.741   2.673
 4892TIP3    H114682   4.101   3.820   2.647
 4892TIP3    H214683   3.961   3.767   2.672
 4893TIP3   OH214684   0.824   1.054   1.964
 4893TIP3    H114685   0.853   1.109   1.891
 4893TIP3    H214686   0.729   1.047   1.952
 4894TIP3   OH214687   2.736   2.587   1.901
 4894TIP3    H114688   2.749   2.629   1.816
 4894TIP3    H214689   2.648   2.550   1.896
 4895TIP3   OH214690   5.195   5.612   5.073
 4895TIP3    H114691   5.168   5.634   5.162
 4895TIP3    H214692   5.233   5.525   5.080
 4896TIP3   OH214693   5.911   2.890   1.877
 4896TIP3    H114694   5.869   2.807   1.900
 4896TIP3    H214695   6.001   2.882   1.910
 4897TIP3   OH214696   5.841   2.412   1.683
 4897TIP3    H114697   5.905   2.343   1.663
 4897TIP3    H214698   5.780   2.370   1.743
 4898TIP3   OH214699   3.439   0.827   1.981
 4898TIP3    H114700   3.386   0.750   2.001
 4898TIP3    H214701   3.527   0.793   1.968
 4899TIP3   OH214702   0.362   3.574   2.119
 4899TIP3    H114703   0.312   3.529   2.187
 4899TIP3    H214704   0.330   3.535   2.037
 4900TIP3   OH214705   0.823   2.888   0.617
 4900TIP3    H114706   0.749   2.928   0.572
 4900TIP3    H214707   0.892   2.955   0.616
 4901TIP3   OH214708   1.890   3.322   3.160
 4901TIP3    H114709   1.973   3.294   3.122
 4901TIP3    H214710   1.844   3.240   3.178
 4902TIP3   OH214711   3.764   0.447   2.729
 4902TIP3    H114712   3.790   0.356   2.715
 4902TIP3    H214713   3.840   0.498   2.700
 4903TIP3   OH214714   1.862   3.743   1.725
 4903TIP3    H114715   1.830   3.721   1.812
 4903TIP3    H214716   1.793   3.714   1.665
 4904TIP3   OH214717   5.032   3.124   1.312
 4904TIP3    H114718   5.056   3.124   1.219
 4904TIP3    H214719   5.098   3.068   1.354
 4905TIP3   OH214720   2.817   2.463   3.668
 4905TIP3    H114721   2.807   2.523   3.595
 4905TIP3    H214722   2.730   2.424   3.679
 4906TIP3   OH214723   2.921   5.611   5.008
 4906TIP3    H114724   2.876   5.694   4.998
 4906TIP3    H214725   2.938   5.582   4.918
 4907TIP3   OH214726   1.383   0.452   4.196
 4907TIP3    H114727   1.365   0.489   4.110
 4907TIP3    H214728   1.309   0.394   4.213
 4908TIP3   OH214729   3.473   1.507   3.644
 4908TIP3    H114730   3.471   1.595   3.682
 4908TIP3    H214731   3.398   1.463   3.685
 4909TIP3   OH214732   0.770   3.903   1.932
 4909TIP3    H114733   0.678   3.901   1.957
 4909TIP3    H214734   0.770   3.915   1.837
 4910TIP3   OH214735   2.053   1.503   2.847
 4910TIP3    H114736   2.115   1.459   2.904
 4910TIP3    H214737   2.102   1.523   2.768
 4911TIP3   OH214738   4.171   1.456   2.859
 4911TIP3    H114739   4.145   1.451   2.951
 4911TIP3    H214740   4.097   1.420   2.811
 4912TIP3   OH214741   6.273   4.779   4.219
 4912TIP3    H114742   6.306   4.731   4.295
 4912TIP3    H214743   6.197   4.828   4.252
 4913TIP3   OH214744   0.895   4.725   4.598
 4913TIP3    H114745   0.827   4.669   4.636
 4913TIP3    H214746   0.853   4.766   4.522
 4914TIP3   OH214747   4.299   4.473   2.857
 4914TIP3    H114748   4.382   4.433   2.884
 4914TIP3    H214749   4.246   4.476   2.937
 4915TIP3   OH214750   0.461   2.634   3.447
 4915TIP3    H114751   0.519   2.709   3.438
 4915TIP3    H214752   0.502   2.566   3.394
 4916TIP3   OH214753   5.523   5.550   3.151
 4916TIP3    H114754   5.553   5.483   3.212
 4916TIP3    H214755   5.583   5.544   3.077
 4917TIP3   OH214756   2.070   4.809   4.557
 4917TIP3    H114757   2.161   4.827   4.581
 4917TIP3    H214758   2.073   4.723   4.516
 4918TIP3   OH214759   4.009   4.523   5.114
 4918TIP3    H114760   4.052   4.609   5.115
 4918TIP3    H214761   3.923   4.539   5.075
 4919TIP3   OH214762   2.928   2.588   0.356
 4919TIP3    H114763   2.837   2.618   0.362
 4919TIP3    H214764   2.962   2.598   0.445
 4920TIP3   OH214765   0.912   4.754   1.995
 4920TIP3    H114766   0.949   4.836   2.027
 4920TIP3    H214767   0.838   4.781   1.940
 4921TIP3   OH214768   1.277   0.170   3.791
 4921TIP3    H114769   1.254   0.240   3.853
 4921TIP3    H214770   1.199   0.115   3.788
 4922TIP3   OH214771   2.495   0.957   1.132
 4922TIP3    H114772   2.476   0.971   1.039
 4922TIP3    H214773   2.462   1.036   1.175
 4923TIP3   OH214774   0.838   2.556   2.272
 4923TIP3    H114775   0.873   2.504   2.199
 4923TIP3    H214776   0.889   2.637   2.270
 4924TIP3   OH214777   1.158   1.003   1.632
 4924TIP3    H114778   1.137   0.928   1.576
 4924TIP3    H214779   1.126   1.079   1.583
 4925TIP3   OH214780   2.706   0.779   3.586
 4925TIP3    H114781   2.626   0.787   3.535
 4925TIP3    H214782   2.743   0.868   3.586
 4926TIP3   OH214783   6.008   2.537   4.585
 4926TIP3    H114784   6.090   2.564   4.543
 4926TIP3    H214785   5.967   2.619   4.614
 4927TIP3   OH214786   0.864   1.855   3.116
 4927TIP3    H114787   0.952   1.831   3.087
 4927TIP3    H214788   0.806   1.792   3.073
 4928TIP3   OH214789   2.535   2.453   4.254
 4928TIP3    H114790   2.554   2.490   4.168
 4928TIP3    H214791   2.477   2.379   4.236
 4929TIP3   OH214792   5.005   4.142   2.144
 4929TIP3    H114793   4.958   4.217   2.108
 4929TIP3    H214794   4.969   4.067   2.097
 4930TIP3   OH214795   2.640   2.379   3.124
 4930TIP3    H114796   2.565   2.350   3.071
 4930TIP3    H214797   2.612   2.461   3.164
 4931TIP3   OH214798   1.970   0.139   1.701
 4931TIP3    H114799   1.987   0.204   1.632
 4931TIP3    H214800   1.991   0.185   1.782
 4932TIP3   OH214801   3.398   5.539   2.137
 4932TIP3    H114802   3.303   5.527   2.139
 4932TIP3    H214803   3.425   5.499   2.054
 4933TIP3   OH214804   6.072   0.090   4.323
 4933TIP3    H114805   6.034   0.178   4.327
 4933TIP3    H214806   6.163   0.102   4.350
 4934TIP3   OH214807   4.701   4.064   1.580
 4934TIP3    H114808   4.677   4.135   1.521
 4934TIP3    H214809   4.768   4.014   1.533
 4935TIP3   OH214810   5.954   5.103   0.950
 4935TIP3    H114811   5.960   5.102   0.855
 4935TIP3    H214812   5.860   5.103   0.968
 4936TIP3   OH214813   0.897   3.096   4.473
 4936TIP3    H114814   0.849   3.028   4.426
 4936TIP3    H214815   0.877   3.081   4.565
 4937TIP3   OH214816   1.244   1.093   1.192
 4937TIP3    H114817   1.169   1.058   1.240
 4937TIP3    H214818   1.317   1.037   1.218
 4938TIP3   OH214819   5.604   0.011   3.921
 4938TIP3    H114820   5.680  -0.032   3.961
 4938TIP3    H214821   5.535   0.002   3.987
 4939TIP3   OH214822   3.720   1.117   1.849
 4939TIP3    H114823   3.703   1.040   1.795
 4939TIP3    H214824   3.673   1.188   1.805
 4940TIP3   OH214825   6.267   4.676   3.499
 4940TIP3    H114826   6.340   4.619   3.477
 4940TIP3    H214827   6.291   4.716   3.582
 4941TIP3   OH214828   4.192   2.093   0.934
 4941TIP3    H114829   4.126   2.032   0.900
 4941TIP3    H214830   4.143   2.169   0.963
 4942TIP3   OH214831   1.616   2.948   0.804
 4942TIP3    H114832   1.687   2.930   0.867
 4942TIP3    H214833   1.536   2.946   0.857
 4943TIP3   OH214834   0.993   0.289   2.836
 4943TIP3    H114835   1.086   0.277   2.859
 4943TIP3    H214836   0.953   0.204   2.852
 4944TIP3   OH214837   0.831   5.081   5.005
 4944TIP3    H114838   0.741   5.113   4.993
 4944TIP3    H214839   0.836   5.060   5.098
 4945TIP3   OH214840   4.161   2.553   5.141
 4945TIP3    H114841   4.237   2.495   5.138
 4945TIP3    H214842   4.194   2.638   5.113
 4946TIP3   OH214843   5.186   1.396   2.580
 4946TIP3    H114844   5.138   1.324   2.620
 4946TIP3    H214845   5.120   1.464   2.567
 4947TIP3   OH214846   0.495   5.699   4.163
 4947TIP3    H114847   0.550   5.676   4.088
 4947TIP3    H214848   0.420   5.641   4.157
 4948TIP3   OH214849   4.076   3.810   3.367
 4948TIP3    H114850   4.136   3.884   3.367
 4948TIP3    H214851   4.095   3.764   3.285
 4949TIP3   OH214852   2.526   4.066   1.963
 4949TIP3    H114853   2.550   4.158   1.962
 4949TIP3    H214854   2.504   4.046   1.872
 4950TIP3   OH214855   5.900   0.441   4.068
 4950TIP3    H114856   5.971   0.443   4.003
 4950TIP3    H214857   5.837   0.506   4.036
 4951TIP3   OH214858   3.650   0.162   3.889
 4951TIP3    H114859   3.558   0.139   3.881
 4951TIP3    H214860   3.674   0.196   3.803
 4952TIP3   OH214861   5.329   1.917   2.583
 4952TIP3    H114862   5.390   1.957   2.521
 4952TIP3    H214863   5.274   1.989   2.612
 4953TIP3   OH214864   4.562   3.180   4.270
 4953TIP3    H114865   4.555   3.254   4.210
 4953TIP3    H214866   4.627   3.123   4.229
 4954TIP3   OH214867   0.938   2.622   1.677
 4954TIP3    H114868   0.926   2.554   1.610
 4954TIP3    H214869   1.030   2.646   1.670
 4955TIP3   OH214870   5.590   1.415   4.240
 4955TIP3    H114871   5.518   1.429   4.179
 4955TIP3    H214872   5.557   1.447   4.324
 4956TIP3   OH214873   5.463   3.686   4.488
 4956TIP3    H114874   5.465   3.620   4.558
 4956TIP3    H214875   5.537   3.743   4.507
 4957TIP3   OH214876   4.918   4.982   4.544
 4957TIP3    H114877   4.857   5.007   4.613
 4957TIP3    H214878   4.951   4.896   4.571
 4958TIP3   OH214879   3.043   5.034   1.684
 4958TIP3    H114880   3.096   5.114   1.688
 4958TIP3    H214881   3.084   4.975   1.746
 4959TIP3   OH214882   0.025   5.632   0.259
 4959TIP3    H114883   0.043   5.719   0.224
 4959TIP3    H214884  -0.016   5.649   0.344
 4960TIP3   OH214885   0.484   3.943   1.908
 4960TIP3    H114886   0.440   3.884   1.846
 4960TIP3    H214887   0.434   3.933   1.990
 4961TIP3   OH214888   5.819   0.475   3.245
 4961TIP3    H114889   5.887   0.531   3.280
 4961TIP3    H214890   5.837   0.470   3.151
 4962TIP3   OH214891   2.970   5.669   1.509
 4962TIP3    H114892   2.970   5.634   1.420
 4962TIP3    H214893   2.881   5.654   1.540
 4963TIP3   OH214894   3.249   4.026   3.800
 4963TIP3    H114895   3.344   4.009   3.801
 4963TIP3    H214896   3.242   4.121   3.796
 4964TIP3   OH214897   4.602   4.698   3.981
 4964TIP3    H114898   4.536   4.685   3.912
 4964TIP3    H214899   4.612   4.792   3.988
 4965TIP3   OH214900   0.479   1.999   4.850
 4965TIP3    H114901   0.437   1.953   4.923
 4965TIP3    H214902   0.536   1.934   4.810
 4966TIP3   OH214903   5.941   1.197   3.519
 4966TIP3    H114904   5.949   1.285   3.483
 4966TIP3    H214905   6.028   1.176   3.552
 4967TIP3   OH214906   3.532   5.950   5.041
 4967TIP3    H114907   3.582   5.995   4.972
 4967TIP3    H214908   3.591   5.949   5.116
 4968TIP3   OH214909   4.331   5.323   2.499
 4968TIP3    H114910   4.326   5.227   2.497
 4968TIP3    H214911   4.424   5.342   2.502
 4969TIP3   OH214912   1.590   2.569   2.234
 4969TIP3    H114913   1.542   2.616   2.302
 4969TIP3    H214914   1.521   2.528   2.181
 4970TIP3   OH214915   1.411   4.032   4.986
 4970TIP3    H114916   1.416   4.087   4.908
 4970TIP3    H214917   1.476   3.964   4.971
 4971TIP3   OH214918   1.614   2.898   0.042
 4971TIP3    H114919   1.679   2.858  -0.017
 4971TIP3    H214920   1.663   2.920   0.121
 4972TIP3   OH214921   4.605   0.767   3.697
 4972TIP3    H114922   4.595   0.685   3.649
 4972TIP3    H214923   4.523   0.814   3.683
 4973TIP3   OH214924   0.509   1.043   3.124
 4973TIP3    H114925   0.544   1.086   3.202
 4973TIP3    H214926   0.562   0.963   3.114
 4974TIP3   OH214927   2.961   1.036   3.760
 4974TIP3    H114928   2.924   1.107   3.814
 4974TIP3    H214929   2.894   1.018   3.695
 4975TIP3   OH214930   3.145   5.914   3.946
 4975TIP3    H114931   3.156   5.822   3.969
 4975TIP3    H214932   3.172   5.919   3.854
 4976TIP3   OH214933   3.457   1.859   3.225
 4976TIP3    H114934   3.375   1.907   3.234
 4976TIP3    H214935   3.475   1.824   3.313
 4977TIP3   OH214936   5.212   3.388   3.693
 4977TIP3    H114937   5.184   3.412   3.781
 4977TIP3    H214938   5.245   3.469   3.654
 4978TIP3   OH214939   0.390   3.982   0.584
 4978TIP3    H114940   0.419   3.997   0.494
 4978TIP3    H214941   0.317   4.041   0.596
 4979TIP3   OH214942   5.244   4.179   4.917
 4979TIP3    H114943   5.209   4.096   4.950
 4979TIP3    H214944   5.189   4.199   4.841
 4980TIP3   OH214945   1.806   5.927   3.105
 4980TIP3    H114946   1.710   5.926   3.101
 4980TIP3    H214947   1.829   6.019   3.090
 4981TIP3   OH214948   4.271   3.878   4.033
 4981TIP3    H114949   4.363   3.857   4.048
 4981TIP3    H214950   4.228   3.792   4.023
 4982TIP3   OH214951   6.050   5.059   4.708
 4982TIP3    H114952   6.105   5.089   4.636
 4982TIP3    H214953   5.991   5.132   4.725
 4983TIP3   OH214954   1.947   3.369   3.472
 4983TIP3    H114955   1.943   3.347   3.379
 4983TIP3    H214956   2.023   3.426   3.480
 4984TIP3   OH214957   2.342   2.190   3.658
 4984TIP3    H114958   2.313   2.281   3.657
 4984TIP3    H214959   2.393   2.182   3.738
 4985TIP3   OH214960   0.563   2.179   3.204
 4985TIP3    H114961   0.582   2.139   3.119
 4985TIP3    H214962   0.586   2.112   3.268
 4986TIP3   OH214963   0.382   4.378   0.025
 4986TIP3    H114964   0.400   4.447  -0.038
 4986TIP3    H214965   0.303   4.408   0.071
 4987TIP3   OH214966   3.969   5.357   3.676
 4987TIP3    H114967   4.019   5.438   3.668
 4987TIP3    H214968   3.878   5.383   3.659
 4988TIP3   OH214969   4.117   1.302   4.004
 4988TIP3    H114970   4.037   1.262   4.039
 4988TIP3    H214971   4.118   1.390   4.041
 4989TIP3   OH214972   3.880   4.985   4.273
 4989TIP3    H114973   3.843   4.921   4.335
 4989TIP3    H214974   3.843   4.961   4.189
 4990TIP3   OH214975   6.010   0.817   3.109
 4990TIP3    H114976   6.096   0.788   3.079
 4990TIP3    H214977   6.022   0.909   3.130
 4991TIP3   OH214978   2.946   5.915   4.551
 4991TIP3    H114979   2.959   5.905   4.645
 4991TIP3    H214980   2.927   5.826   4.520
 4992TIP3   OH214981   3.031   3.870   3.913
 4992TIP3    H114982   3.057   3.783   3.883
 4992TIP3    H214983   3.083   3.931   3.860
 4993TIP3   OH214984   0.845   3.515   4.977
 4993TIP3    H114985   0.871   3.433   4.936
 4993TIP3    H214986   0.848   3.579   4.906
 4994TIP3   OH214987   1.888   3.520   4.488
 4994TIP3    H114988   1.860   3.578   4.559
 4994TIP3    H214989   1.959   3.468   4.527
 4995TIP3   OH214990   1.739   3.128   0.628
 4995TIP3    H114991   1.696   3.120   0.543
 4995TIP3    H214992   1.694   3.065   0.684
 4996TIP3   OH214993   5.917   3.181   4.371
 4996TIP3    H114994   5.942   3.160   4.461
 4996TIP3    H214995   5.907   3.276   4.370
 4997TIP3   OH214996   1.585   1.445   0.335
 4997TIP3    H114997   1.609   1.481   0.420
 4997TIP3    H214998   1.521   1.377   0.354
 4998TIP3   OH214999   4.829   1.345   1.417
 4998TIP3    H115000   4.742   1.384   1.427
 4998TIP3    H215001   4.865   1.386   1.339
 4999TIP3   OH215002   5.509   5.528   2.573
 4999TIP3    H115003   5.552   5.449   2.538
 4999TIP3    H215004   5.438   5.545   2.511
 5000TIP3   OH215005   0.079   4.020   0.758
 5000TIP3    H115006   0.090   4.096   0.815
 5000TIP3    H215007   0.030   4.053   0.683
 5001TIP3   OH215008  -0.021   1.070   2.126
 5001TIP3    H115009   0.064   1.104   2.152
 5001TIP3    H215010  -0.033   0.992   2.179
 5002TIP3   OH215011   3.790   5.396   1.406
 5002TIP3    H115012   3.801   5.489   1.429
 5002TIP3    H215013   3.879   5.361   1.405
 5003TIP3   OH215014   3.892   1.411   1.869
 5003TIP3    H115015   3.982   1.392   1.894
 5003TIP3    H215016   3.861   1.473   1.935
 5004TIP3   OH215017   3.676   5.241   4.891
 5004TIP3    H115018   3.751   5.223   4.947
 5004TIP3    H215019   3.609   5.275   4.951
 5005TIP3   OH215020   2.721   1.328   4.114
 5005TIP3    H115021   2.646   1.355   4.060
 5005TIP3    H215022   2.707   1.371   4.198
 5006TIP3   OH215023   3.159   5.354   4.925
 5006TIP3    H115024   3.133   5.278   4.977
 5006TIP3    H215025   3.255   5.351   4.924
 5007TIP3   OH215026   2.888   3.825   2.793
 5007TIP3    H115027   2.917   3.734   2.800
 5007TIP3    H215028   2.793   3.819   2.781
 5008TIP3   OH215029   3.792   3.936   4.083
 5008TIP3    H115030   3.794   3.904   4.173
 5008TIP3    H215031   3.713   3.989   4.077
 5009TIP3   OH215032   3.468   5.657   2.885
 5009TIP3    H115033   3.400   5.637   2.949
 5009TIP3    H215034   3.482   5.752   2.894
 5010TIP3   OH215035   4.402   1.866   3.690
 5010TIP3    H115036   4.496   1.872   3.705
 5010TIP3    H215037   4.395   1.850   3.595
 5011TIP3   OH215038   2.466   5.314   0.247
 5011TIP3    H115039   2.503   5.316   0.335
 5011TIP3    H215040   2.376   5.283   0.260
 5012TIP3   OH215041   1.888   3.786   0.978
 5012TIP3    H115042   1.967   3.805   0.928
 5012TIP3    H215043   1.914   3.718   1.040
 5013TIP3   OH215044   5.971   1.315   3.245
 5013TIP3    H115045   5.949   1.404   3.273
 5013TIP3    H215046   5.984   1.323   3.150
 5014TIP3   OH215047   1.202   3.431   3.433
 5014TIP3    H115048   1.200   3.361   3.367
 5014TIP3    H215049   1.182   3.386   3.515
 5015TIP3   OH215050   2.085   0.510   0.151
 5015TIP3    H115051   2.176   0.530   0.129
 5015TIP3    H215052   2.058   0.582   0.209
 5016TIP3   OH215053   1.348   2.528   5.078
 5016TIP3    H115054   1.400   2.462   5.031
 5016TIP3    H215055   1.386   2.530   5.166
 5017TIP3   OH215056   4.659   4.264   3.165
 5017TIP3    H115057   4.649   4.343   3.217
 5017TIP3    H215058   4.569   4.236   3.147
 5018TIP3   OH215059   4.196   3.526   4.452
 5018TIP3    H115060   4.140   3.595   4.487
 5018TIP3    H215061   4.283   3.547   4.484
 5019TIP3   OH215062   0.749   1.751   1.418
 5019TIP3    H115063   0.760   1.701   1.498
 5019TIP3    H215064   0.716   1.688   1.353
 5020TIP3   OH215065   5.854   4.186   3.272
 5020TIP3    H115066   5.848   4.094   3.297
 5020TIP3    H215067   5.948   4.203   3.268
 5021TIP3   OH215068   0.637   1.193   3.313
 5021TIP3    H115069   0.714   1.248   3.304
 5021TIP3    H215070   0.637   1.164   3.404
 5022TIP3   OH215071   2.866   5.720   2.696
 5022TIP3    H115072   2.798   5.771   2.652
 5022TIP3    H215073   2.847   5.730   2.789
 5023TIP3   OH215074   4.901   0.243   0.387
 5023TIP3    H115075   4.988   0.235   0.427
 5023TIP3    H215076   4.890   0.337   0.372
 5024TIP3   OH215077   5.702   4.336   0.500
 5024TIP3    H115078   5.652   4.415   0.521
 5024TIP3    H215079   5.791   4.355   0.529
 5025TIP3   OH215080   4.943   2.921   0.109
 5025TIP3    H115081   4.883   2.993   0.127
 5025TIP3    H215082   4.906   2.877   0.032
 5026TIP3   OH215083   0.229   2.964   1.699
 5026TIP3    H115084   0.271   2.912   1.768
 5026TIP3    H215085   0.152   3.002   1.742
 5027TIP3   OH215086   5.556   1.775   1.258
 5027TIP3    H115087   5.577   1.772   1.165
 5027TIP3    H215088   5.462   1.795   1.260
 5028TIP3   OH215089   6.117   5.904   4.038
 5028TIP3    H115090   6.028   5.920   4.007
 5028TIP3    H215091   6.137   5.979   4.094
 5029TIP3   OH215092   1.096   1.715   3.074
 5029TIP3    H115093   1.114   1.654   3.002
 5029TIP3    H215094   1.172   1.772   3.077
 5030TIP3   OH215095   4.984   2.968   0.610
 5030TIP3    H115096   5.073   2.951   0.578
 5030TIP3    H215097   4.997   3.001   0.699
 5031TIP3   OH215098   4.395   2.486   3.075
 5031TIP3    H115099   4.479   2.522   3.105
 5031TIP3    H215100   4.418   2.434   2.998
 5032TIP3   OH215101   4.677   1.676   2.769
 5032TIP3    H115102   4.714   1.692   2.682
 5032TIP3    H215103   4.647   1.763   2.798
 5033TIP3   OH215104   2.461   5.944   3.224
 5033TIP3    H115105   2.548   5.931   3.263
 5033TIP3    H215106   2.401   5.929   3.297
 5034TIP3   OH215107   0.812   1.981   1.280
 5034TIP3    H115108   0.745   2.002   1.215
 5034TIP3    H215109   0.782   1.898   1.318
 5035TIP3   OH215110   6.169   4.567   1.263
 5035TIP3    H115111   6.184   4.660   1.248
 5035TIP3    H215112   6.174   4.557   1.358
 5036TIP3   OH215113   3.917   2.178   4.125
 5036TIP3    H115114   3.843   2.229   4.158
 5036TIP3    H215115   3.992   2.207   4.177
 5037TIP3   OH215116   3.690   0.567   2.501
 5037TIP3    H115117   3.698   0.505   2.573
 5037TIP3    H215118   3.681   0.652   2.544
 5038TIP3   OH215119   4.728   3.330   1.151
 5038TIP3    H115120   4.690   3.258   1.101
 5038TIP3    H215121   4.757   3.289   1.233
 5039TIP3   OH215122   0.110   2.060   2.288
 5039TIP3    H115123   0.180   1.995   2.285
 5039TIP3    H215124   0.084   2.071   2.197
 5040TIP3   OH215125   1.700   3.664   4.092
 5040TIP3    H115126   1.634   3.602   4.062
 5040TIP3    H215127   1.721   3.716   4.015
 5041TIP3   OH215128   0.696   0.921   0.800
 5041TIP3    H115129   0.672   1.006   0.837
 5041TIP3    H215130   0.791   0.922   0.796
 5042TIP3   OH215131   2.398   2.690   0.229
 5042TIP3    H115132   2.327   2.629   0.210
 5042TIP3    H215133   2.354   2.765   0.270
 5043TIP3   OH215134   5.084   1.115   1.851
 5043TIP3    H115135   5.125   1.186   1.802
 5043TIP3    H215136   5.060   1.051   1.784
 5044TIP3   OH215137   4.586   1.171   4.666
 5044TIP3    H115138   4.657   1.220   4.707
 5044TIP3    H215139   4.606   1.174   4.572
 5045TIP3   OH215140   4.202   5.048   2.358
 5045TIP3    H115141   4.171   5.024   2.445
 5045TIP3    H215142   4.297   5.058   2.368
 5046TIP3   OH215143   4.454   1.597   2.441
 5046TIP3    H115144   4.511   1.570   2.369
 5046TIP3    H215145   4.509   1.654   2.495
 5047TIP3   OH215146   1.402   1.696   2.876
 5047TIP3    H115147   1.323   1.647   2.853
 5047TIP3    H215148   1.402   1.771   2.817
 5048TIP3   OH215149   5.636   5.656   1.410
 5048TIP3    H115150   5.614   5.733   1.358
 5048TIP3    H215151   5.585   5.667   1.490
 5049TIP3   OH215152   2.123   4.668   3.501
 5049TIP3    H115153   2.098   4.678   3.593
 5049TIP3    H215154   2.073   4.735   3.455
 5050TIP3   OH215155   1.425   1.326   2.255
 5050TIP3    H115156   1.376   1.381   2.316
 5050TIP3    H215157   1.437   1.381   2.177
 5051TIP3   OH215158   0.168   3.193   5.004
 5051TIP3    H115159   0.151   3.189   4.910
 5051TIP3    H215160   0.262   3.212   5.010
 5052TIP3   OH215161   4.213   4.786   2.939
 5052TIP3    H115162   4.252   4.791   3.026
 5052TIP3    H215163   4.149   4.715   2.945
 5053TIP3   OH215164   5.523   2.322   4.434
 5053TIP3    H115165   5.602   2.300   4.384
 5053TIP3    H215166   5.540   2.291   4.522
 5054TIP3   OH215167   0.122   3.456   0.003
 5054TIP3    H115168   0.178   3.382  -0.023
 5054TIP3    H215169   0.090   3.432   0.090
 5055TIP3   OH215170   3.995   0.311   2.235
 5055TIP3    H115171   3.911   0.356   2.234
 5055TIP3    H215172   4.041   0.343   2.157
 5056TIP3   OH215173   3.006   1.253   1.803
 5056TIP3    H115174   3.048   1.310   1.739
 5056TIP3    H215175   2.990   1.311   1.879
 5057TIP3   OH215176   3.799   3.212   1.994
 5057TIP3    H115177   3.743   3.148   1.950
 5057TIP3    H215178   3.746   3.291   2.000
 5058TIP3   OH215179   0.166   5.270   3.534
 5058TIP3    H115180   0.164   5.309   3.447
 5058TIP3    H215181   0.196   5.180   3.520
 5059TIP3   OH215182   1.319   1.719   5.042
 5059TIP3    H115183   1.354   1.696   4.956
 5059TIP3    H215184   1.332   1.641   5.095
 5060TIP3   OH215185   1.980   0.317   4.597
 5060TIP3    H115186   2.049   0.324   4.531
 5060TIP3    H215187   1.955   0.225   4.595
 5061TIP3   OH215188   3.828   3.141   3.625
 5061TIP3    H115189   3.883   3.192   3.565
 5061TIP3    H215190   3.760   3.104   3.570
 5062TIP3   OH215191   2.847   1.501   1.430
 5062TIP3    H115192   2.776   1.506   1.494
 5062TIP3    H215193   2.849   1.587   1.390
 5063TIP3   OH215194   2.294   5.381   0.690
 5063TIP3    H115195   2.256   5.465   0.666
 5063TIP3    H215196   2.227   5.339   0.743
 5064TIP3   OH215197   4.419   0.951   2.058
 5064TIP3    H115198   4.474   0.996   1.994
 5064TIP3    H215199   4.449   0.983   2.143
 5065TIP3   OH215200   4.911   1.076   4.798
 5065TIP3    H115201   4.984   1.138   4.804
 5065TIP3    H215202   4.836   1.123   4.835
 5066TIP3   OH215203   0.896   0.032   2.857
 5066TIP3    H115204   0.889  -0.034   2.788
 5066TIP3    H215205   0.836   0.002   2.925
 5067TIP3   OH215206   0.222   1.173   2.202
 5067TIP3    H115207   0.252   1.236   2.267
 5067TIP3    H215208   0.282   1.184   2.128
 5068TIP3   OH215209   3.741   5.584   4.765
 5068TIP3    H115210   3.684   5.593   4.688
 5068TIP3    H215211   3.680   5.575   4.839
 5069TIP3   OH215212   5.057   3.925   0.818
 5069TIP3    H115213   5.023   3.859   0.757
 5069TIP3    H215214   5.152   3.914   0.813
 5070TIP3   OH215215   1.041   4.268   0.366
 5070TIP3    H115216   1.018   4.361   0.368
 5070TIP3    H215217   1.083   4.251   0.450
 5071TIP3   OH215218   2.240   1.804   1.669
 5071TIP3    H115219   2.330   1.800   1.637
 5071TIP3    H215220   2.186   1.783   1.593
 5072TIP3   OH215221   4.845   5.037   3.995
 5072TIP3    H115222   4.752   5.047   3.976
 5072TIP3    H215223   4.880   5.126   3.996
 5073TIP3   OH215224   4.038   0.750   4.384
 5073TIP3    H115225   4.052   0.836   4.344
 5073TIP3    H215226   4.123   0.727   4.421
 5074TIP3   OH215227   4.920   5.761   2.791
 5074TIP3    H115228   4.945   5.780   2.882
 5074TIP3    H215229   4.864   5.834   2.766
 5075TIP3   OH215230   3.148   2.204   2.912
 5075TIP3    H115231   3.213   2.263   2.875
 5075TIP3    H215232   3.114   2.250   2.988
 5076TIP3   OH215233   2.780   0.421   1.106
 5076TIP3    H115234   2.795   0.338   1.151
 5076TIP3    H215235   2.811   0.487   1.167
 5077TIP3   OH215236   0.721   3.629   4.067
 5077TIP3    H115237   0.688   3.553   4.019
 5077TIP3    H215238   0.806   3.601   4.101
 5078TIP3   OH215239   5.856   4.529   2.064
 5078TIP3    H115240   5.901   4.609   2.034
 5078TIP3    H215241   5.789   4.514   1.997
 5079TIP3   OH215242   3.383   0.868   4.034
 5079TIP3    H115243   3.319   0.937   4.019
 5079TIP3    H215244   3.464   0.901   3.994
 5080TIP3   OH215245   4.377   1.016   0.204
 5080TIP3    H115246   4.287   1.015   0.172
 5080TIP3    H215247   4.430   1.031   0.125
 5081TIP3   OH215248   5.025   4.261   2.590
 5081TIP3    H115249   5.037   4.354   2.610
 5081TIP3    H215250   5.110   4.222   2.608
 5082TIP3   OH215251   2.093   0.949   2.898
 5082TIP3    H115252   2.137   1.034   2.900
 5082TIP3    H215253   2.080   0.931   2.805
 5083TIP3   OH215254   1.725   5.019   1.144
 5083TIP3    H115255   1.776   4.991   1.068
 5083TIP3    H215256   1.790   5.049   1.207
 5084TIP3   OH215257   6.224   3.862   1.493
 5084TIP3    H115258   6.273   3.944   1.490
 5084TIP3    H215259   6.229   3.834   1.585
 5085TIP3   OH215260   0.780   0.954   1.516
 5085TIP3    H115261   0.787   0.859   1.514
 5085TIP3    H215262   0.714   0.972   1.583
 5086TIP3   OH215263   5.755   2.319   1.157
 5086TIP3    H115264   5.839   2.346   1.194
 5086TIP3    H215265   5.699   2.302   1.234
 5087TIP3   OH215266   1.015   5.881   2.072
 5087TIP3    H115267   0.961   5.815   2.028
 5087TIP3    H215268   1.030   5.846   2.159
 5088TIP3   OH215269   6.293   4.162   1.034
 5088TIP3    H115270   6.258   4.242   1.074
 5088TIP3    H215271   6.367   4.192   0.982
 5089TIP3   OH215272   3.487   3.934   4.789
 5089TIP3    H115273   3.554   3.892   4.735
 5089TIP3    H215274   3.536   3.996   4.843
 5090TIP3   OH215275   5.472   0.392   1.966
 5090TIP3    H115276   5.393   0.397   1.912
 5090TIP3    H215277   5.500   0.301   1.958
 5091TIP3   OH215278   5.186   3.511   1.385
 5091TIP3    H115279   5.140   3.464   1.315
 5091TIP3    H215280   5.220   3.442   1.442
 5092TIP3   OH215281   0.902   4.214   3.526
 5092TIP3    H115282   0.900   4.124   3.495
 5092TIP3    H215283   0.893   4.207   3.621
 5093TIP3   OH215284   3.533   4.107   2.843
 5093TIP3    H115285   3.547   4.066   2.758
 5093TIP3    H215286   3.519   4.034   2.903
 5094TIP3   OH215287   0.907   0.324   4.413
 5094TIP3    H115288   0.826   0.274   4.401
 5094TIP3    H215289   0.970   0.261   4.446
 5095TIP3   OH215290   0.928   4.879   0.184
 5095TIP3    H115291   0.871   4.913   0.115
 5095TIP3    H215292   0.871   4.825   0.239
 5096TIP3   OH215293   3.952   3.654   4.790
 5096TIP3    H115294   4.028   3.698   4.828
 5096TIP3    H215295   3.882   3.669   4.853
 5097TIP3   OH215296   0.545   4.641   3.224
 5097TIP3    H115297   0.556   4.648   3.129
 5097TIP3    H215298   0.474   4.579   3.236
 5098TIP3   OH215299   3.362   4.092   4.185
 5098TIP3    H115300   3.353   3.998   4.166
 5098TIP3    H215301   3.275   4.119   4.213
 5099TIP3   OH215302   2.815   5.917   3.960
 5099TIP3    H115303   2.865   5.939   3.881
 5099TIP3    H215304   2.739   5.869   3.927
 5100TIP3   OH215305   5.757   3.532   2.172
 5100TIP3    H115306   5.852   3.535   2.187
 5100TIP3    H215307   5.747   3.477   2.095
 5101TIP3   OH215308   1.453   3.241   3.920
 5101TIP3    H115309   1.479   3.331   3.936
 5101TIP3    H215310   1.517   3.188   3.968
 5102TIP3   OH215311   0.369   4.599   4.574
 5102TIP3    H115312   0.428   4.643   4.635
 5102TIP3    H215313   0.284   4.598   4.620
 5103TIP3   OH215314   2.742   3.638   3.989
 5103TIP3    H115315   2.830   3.602   3.984
 5103TIP3    H215316   2.735   3.672   4.078
 5104TIP3   OH215317   5.302   1.710   2.064
 5104TIP3    H115318   5.276   1.622   2.090
 5104TIP3    H215319   5.244   1.767   2.115
 5105TIP3   OH215320   3.575   2.601   1.759
 5105TIP3    H115321   3.515   2.654   1.707
 5105TIP3    H215322   3.522   2.565   1.829
 5106TIP3   OH215323   3.567   2.546   1.151
 5106TIP3    H115324   3.612   2.630   1.149
 5106TIP3    H215325   3.482   2.564   1.189
 5107TIP3   OH215326   2.149   2.179   1.168
 5107TIP3    H115327   2.097   2.203   1.246
 5107TIP3    H215328   2.201   2.257   1.150
 5108TIP3   OH215329   1.582   0.302   0.988
 5108TIP3    H115330   1.621   0.253   1.061
 5108TIP3    H215331   1.516   0.244   0.952
 5109TIP3   OH215332   3.167   4.727   4.552
 5109TIP3    H115333   3.157   4.806   4.500
 5109TIP3    H215334   3.091   4.727   4.611
 5110TIP3   OH215335   2.193   3.649   3.688
 5110TIP3    H115336   2.130   3.710   3.651
 5110TIP3    H215337   2.225   3.692   3.768
 5111TIP3   OH215338   0.698   3.357   4.275
 5111TIP3    H115339   0.648   3.282   4.308
 5111TIP3    H215340   0.790   3.332   4.285
 5112TIP3   OH215341   5.225   4.655   4.394
 5112TIP3    H115342   5.303   4.635   4.342
 5112TIP3    H215343   5.254   4.720   4.457
 5113TIP3   OH215344   2.840   5.227   3.335
 5113TIP3    H115345   2.883   5.152   3.376
 5113TIP3    H215346   2.910   5.291   3.322
 5114TIP3   OH215347   1.858   0.487   3.227
 5114TIP3    H115348   1.817   0.562   3.184
 5114TIP3    H215349   1.806   0.474   3.306
 5115TIP3   OH215350   0.749   3.986   1.370
 5115TIP3    H115351   0.796   3.904   1.358
 5115TIP3    H215352   0.687   3.990   1.297
 5116TIP3   OH215353   2.153   1.996   2.193
 5116TIP3    H115354   2.126   1.976   2.103
 5116TIP3    H215355   2.079   2.045   2.230
 5117TIP3   OH215356   2.993   2.220   4.134
 5117TIP3    H115357   3.071   2.211   4.189
 5117TIP3    H215358   2.974   2.314   4.135
 5118TIP3   OH215359   6.088   5.870   2.815
 5118TIP3    H115360   6.064   5.812   2.743
 5118TIP3    H215361   6.009   5.921   2.833
 5119TIP3   OH215362   4.328   4.282   1.146
 5119TIP3    H115363   4.391   4.212   1.161
 5119TIP3    H215364   4.304   4.274   1.054
 5120TIP3   OH215365   4.377   3.708   3.769
 5120TIP3    H115366   4.422   3.716   3.853
 5120TIP3    H215367   4.438   3.659   3.714
 5121TIP3   OH215368   2.128   4.963   5.072
 5121TIP3    H115369   2.206   4.957   5.128
 5121TIP3    H215370   2.120   4.877   5.032
 5122TIP3   OH215371   1.684   1.941   3.186
 5122TIP3    H115372   1.694   1.955   3.092
 5122TIP3    H215373   1.652   2.025   3.220
 5123TIP3   OH215374   4.633   2.458   0.086
 5123TIP3    H115375   4.618   2.480  -0.006
 5123TIP3    H215376   4.654   2.541   0.128
 5124TIP3   OH215377   2.629   2.600   4.503
 5124TIP3    H115378   2.677   2.657   4.563
 5124TIP3    H215379   2.541   2.638   4.498
 5125TIP3   OH215380   2.456   0.798   1.569
 5125TIP3    H115381   2.414   0.871   1.523
 5125TIP3    H215382   2.447   0.821   1.662
 5126TIP3   OH215383   1.165   5.438   2.154
 5126TIP3    H115384   1.138   5.497   2.224
 5126TIP3    H215385   1.260   5.447   2.149
 5127TIP3   OH215386   1.710   0.937   4.520
 5127TIP3    H115387   1.707   1.013   4.462
 5127TIP3    H215388   1.743   0.971   4.603
 5128TIP3   OH215389   4.802   5.110   4.340
 5128TIP3    H115390   4.768   5.065   4.262
 5128TIP3    H215391   4.842   5.040   4.392
 5129TIP3   OH215392   5.108   0.894   0.707
 5129TIP3    H115393   5.134   0.888   0.615
 5129TIP3    H215394   5.125   0.986   0.730
 5130TIP3   OH215395   4.671   0.685   4.646
 5130TIP3    H115396   4.618   0.665   4.722
 5130TIP3    H215397   4.619   0.746   4.595
 5131TIP3   OH215398   6.229   1.028   1.694
 5131TIP3    H115399   6.283   0.971   1.641
 5131TIP3    H215400   6.290   1.073   1.753
 5132TIP3   OH215401   2.604   2.877   4.121
 5132TIP3    H115402   2.632   2.949   4.177
 5132TIP3    H215403   2.653   2.802   4.152
 5133TIP3   OH215404   6.279   0.231   1.742
 5133TIP3    H115405   6.187   0.254   1.732
 5133TIP3    H215406   6.301   0.182   1.663
 5134TIP3   OH215407   6.251   5.412   2.298
 5134TIP3    H115408   6.204   5.462   2.365
 5134TIP3    H215409   6.186   5.350   2.265
 5135TIP3   OH215410   2.388   0.472   3.373
 5135TIP3    H115411   2.300   0.448   3.402
 5135TIP3    H215412   2.423   0.394   3.331
 5136TIP3   OH215413   3.156   0.345   3.310
 5136TIP3    H115414   3.081   0.394   3.344
 5136TIP3    H215415   3.169   0.379   3.221
 5137TIP3   OH215416   3.229   2.101   1.603
 5137TIP3    H115417   3.275   2.020   1.628
 5137TIP3    H215418   3.160   2.110   1.669
 5138TIP3   OH215419   3.717   5.230   2.907
 5138TIP3    H115420   3.660   5.286   2.854
 5138TIP3    H215421   3.803   5.273   2.903
 5139TIP3   OH215422   3.701   0.274   3.247
 5139TIP3    H115423   3.635   0.244   3.310
 5139TIP3    H215424   3.652   0.287   3.165
 5140TIP3   OH215425   0.071   1.055   0.957
 5140TIP3    H115426   0.093   1.095   1.042
 5140TIP3    H215427   0.149   1.069   0.904
 5141TIP3   OH215428   3.516   4.918   3.184
 5141TIP3    H115429   3.517   4.927   3.280
 5141TIP3    H215430   3.463   4.839   3.168
 5142TIP3   OH215431   0.003   2.399   3.568
 5142TIP3    H115432   0.096   2.414   3.584
 5142TIP3    H215433  -0.023   2.333   3.633
 5143TIP3   OH215434   1.311   2.382   3.497
 5143TIP3    H115435   1.392   2.332   3.508
 5143TIP3    H215436   1.264   2.337   3.427
 5144TIP3   OH215437   0.992   0.424   1.300
 5144TIP3    H115438   0.996   0.510   1.258
 5144TIP3    H215439   0.904   0.419   1.336
 5145TIP3   OH215440   0.719   4.950   4.742
 5145TIP3    H115441   0.813   4.949   4.723
 5145TIP3    H215442   0.710   5.007   4.818
 5146TIP3   OH215443   2.754   0.514   0.709
 5146TIP3    H115444   2.815   0.483   0.777
 5146TIP3    H215445   2.677   0.543   0.758
 5147TIP3   OH215446   6.078   1.595   0.508
 5147TIP3    H115447   6.158   1.588   0.455
 5147TIP3    H215448   6.091   1.534   0.580
 5148TIP3   OH215449   5.687   4.016   3.800
 5148TIP3    H115450   5.655   4.076   3.733
 5148TIP3    H215451   5.644   3.933   3.782
 5149TIP3   OH215452   4.882   1.894   2.640
 5149TIP3    H115453   4.917   1.953   2.707
 5149TIP3    H215454   4.960   1.860   2.596
 5150TIP3   OH215455   3.993   0.626   2.642
 5150TIP3    H115456   4.088   0.613   2.637
 5150TIP3    H215457   3.982   0.721   2.643
 5151TIP3   OH215458   5.869   3.881   4.074
 5151TIP3    H115459   5.837   3.792   4.085
 5151TIP3    H215460   5.908   3.904   4.159
 5152TIP3   OH215461   3.570   4.491   4.462
 5152TIP3    H115462   3.512   4.566   4.479
 5152TIP3    H215463   3.638   4.497   4.529
 5153TIP3   OH215464   2.666   0.124   0.929
 5153TIP3    H115465   2.728   0.145   0.999
 5153TIP3    H215466   2.588   0.175   0.949
 5154TIP3   OH215467   1.853   4.272   0.498
 5154TIP3    H115468   1.916   4.330   0.541
 5154TIP3    H215469   1.907   4.206   0.455
 5155TIP3   OH215470   1.953   5.795   1.603
 5155TIP3    H115471   2.010   5.731   1.646
 5155TIP3    H215472   1.958   5.772   1.510
 5156TIP3   OH215473   2.555   3.244   2.954
 5156TIP3    H115474   2.509   3.179   2.900
 5156TIP3    H215475   2.645   3.242   2.922
 5157TIP3   OH215476   4.464   4.529   4.987
 5157TIP3    H115477   4.374   4.499   4.976
 5157TIP3    H215478   4.462   4.578   5.070
 5158TIP3   OH215479   3.024   4.273   0.294
 5158TIP3    H115480   3.020   4.357   0.248
 5158TIP3    H215481   2.975   4.213   0.238
 5159TIP3   OH215482   4.140   1.745   2.109
 5159TIP3    H115483   4.164   1.722   2.199
 5159TIP3    H215484   4.158   1.839   2.102
 5160TIP3   OH215485   2.801   3.940   2.437
 5160TIP3    H115486   2.775   3.963   2.348
 5160TIP3    H215487   2.894   3.918   2.430
 5161TIP3   OH215488   2.775   0.469   0.316
 5161TIP3    H115489   2.783   0.383   0.357
 5161TIP3    H215490   2.812   0.529   0.381
 5162TIP3   OH215491   2.571   0.829   0.567
 5162TIP3    H115492   2.620   0.882   0.504
 5162TIP3    H215493   2.497   0.795   0.517
 5163TIP3   OH215494   1.527   5.505   4.333
 5163TIP3    H115495   1.555   5.426   4.379
 5163TIP3    H215496   1.433   5.512   4.352
 5164TIP3   OH215497   4.032   5.229   2.227
 5164TIP3    H115498   4.073   5.174   2.294
 5164TIP3    H215499   4.101   5.289   2.200
 5165TIP3   OH215500   2.247   3.439   2.039
 5165TIP3    H115501   2.171   3.475   1.993
 5165TIP3    H215502   2.318   3.441   1.974
 5166TIP3   OH215503   6.191   0.917   1.094
 5166TIP3    H115504   6.200   0.998   1.043
 5166TIP3    H215505   6.263   0.862   1.065
 5167TIP3   OH215506   2.844   4.512   4.108
 5167TIP3    H115507   2.909   4.457   4.152
 5167TIP3    H215508   2.874   4.601   4.124
 5168TIP3   OH215509   2.240   0.652   1.388
 5168TIP3    H115510   2.170   0.588   1.374
 5168TIP3    H215511   2.321   0.603   1.373
 5169TIP3   OH215512   2.218   1.050   2.539
 5169TIP3    H115513   2.253   1.073   2.453
 5169TIP3    H215514   2.296   1.029   2.591
 5170TIP3   OH215515   0.292   5.576   0.956
 5170TIP3    H115516   0.339   5.658   0.970
 5170TIP3    H215517   0.216   5.582   1.015
 5171TIP3   OH215518   3.117   5.232   1.928
 5171TIP3    H115519   3.202   5.194   1.949
 5171TIP3    H215520   3.132   5.326   1.927
 5172TIP3   OH215521   1.176   0.123   3.485
 5172TIP3    H115522   1.119   0.163   3.550
 5172TIP3    H215523   1.265   0.134   3.520
 5173TIP3   OH215524   3.018   4.202   2.994
 5173TIP3    H115525   2.969   4.284   2.994
 5173TIP3    H215526   3.071   4.207   3.073
 5174TIP3   OH215527   3.104   1.168   4.883
 5174TIP3    H115528   3.056   1.227   4.941
 5174TIP3    H215529   3.181   1.218   4.855
 5175TIP3   OH215530   1.971   3.567   1.152
 5175TIP3    H115531   1.918   3.488   1.138
 5175TIP3    H215532   1.974   3.577   1.247
 5176TIP3   OH215533   5.665   0.251   3.242
 5176TIP3    H115534   5.620   0.290   3.167
 5176TIP3    H215535   5.734   0.315   3.264
 5177TIP3   OH215536   4.455   1.955   4.127
 5177TIP3    H115537   4.545   1.966   4.096
 5177TIP3    H215538   4.440   1.860   4.123
 5178TIP3   OH215539   3.648   0.760   0.662
 5178TIP3    H115540   3.675   0.697   0.729
 5178TIP3    H215541   3.597   0.708   0.600
 5179TIP3   OH215542   5.266   5.238   4.637
 5179TIP3    H115543   5.338   5.187   4.600
 5179TIP3    H215544   5.197   5.235   4.571
 5180TIP3   OH215545   3.101   0.215   1.284
 5180TIP3    H115546   3.078   0.273   1.356
 5180TIP3    H215547   3.187   0.245   1.254
 5181TIP3   OH215548   5.203   2.912   1.398
 5181TIP3    H115549   5.214   2.845   1.331
 5181TIP3    H215550   5.204   2.864   1.481
 5182TIP3   OH215551   6.209   1.329   2.792
 5182TIP3    H115552   6.233   1.331   2.700
 5182TIP3    H215553   6.207   1.236   2.814
 5183TIP3   OH215554   4.243   2.251   2.297
 5183TIP3    H115555   4.334   2.255   2.267
 5183TIP3    H215556   4.223   2.158   2.300
 5184TIP3   OH215557   5.739   5.329   5.120
 5184TIP3    H115558   5.649   5.304   5.144
 5184TIP3    H215559   5.785   5.246   5.112
 5185TIP3   OH215560   2.625   0.167   4.962
 5185TIP3    H115561   2.567   0.139   5.033
 5185TIP3    H215562   2.566   0.193   4.891
 5186TIP3   OH215563   0.825   2.403   3.802
 5186TIP3    H115564   0.775   2.444   3.873
 5186TIP3    H215565   0.798   2.451   3.724
 5187TIP3   OH215566   5.138   5.314   3.910
 5187TIP3    H115567   5.128   5.296   4.004
 5187TIP3    H215568   5.069   5.377   3.890
 5188TIP3   OH215569   1.134   3.352   2.826
 5188TIP3    H115570   1.169   3.269   2.792
 5188TIP3    H215571   1.157   3.352   2.919
 5189TIP3   OH215572   0.339   2.304   3.474
 5189TIP3    H115573   0.404   2.336   3.412
 5189TIP3    H215574   0.289   2.239   3.425
 5190TIP3   OH215575   5.677   3.503   4.867
 5190TIP3    H115576   5.676   3.410   4.845
 5190TIP3    H215577   5.585   3.528   4.869
 5191TIP3   OH215578   4.756   1.679   0.762
 5191TIP3    H115579   4.840   1.659   0.721
 5191TIP3    H215580   4.704   1.719   0.692
 5192TIP3   OH215581   2.477   2.659   3.586
 5192TIP3    H115582   2.536   2.709   3.529
 5192TIP3    H215583   2.450   2.585   3.532
 5193TIP3   OH215584   2.172   5.626   0.646
 5193TIP3    H115585   2.195   5.716   0.670
 5193TIP3    H215586   2.083   5.614   0.679
 5194TIP3   OH215587   2.045   3.948   1.706
 5194TIP3    H115588   2.005   3.864   1.686
 5194TIP3    H215589   2.047   3.952   1.801
 5195TIP3   OH215590   1.262   4.930   0.609
 5195TIP3    H115591   1.217   4.947   0.526
 5195TIP3    H215592   1.260   5.014   0.655
 5196TIP3   OH215593   3.297   2.607   0.301
 5196TIP3    H115594   3.379   2.601   0.252
 5196TIP3    H215595   3.252   2.525   0.284
 5197TIP3   OH215596   1.117   0.279   3.260
 5197TIP3    H115597   1.134   0.215   3.329
 5197TIP3    H215598   1.173   0.354   3.283
 5198TIP3   OH215599   4.649   5.648   1.533
 5198TIP3    H115600   4.699   5.658   1.452
 5198TIP3    H215601   4.657   5.732   1.577
 5199TIP3   OH215602   0.295   1.816   2.932
 5199TIP3    H115603   0.380   1.833   2.891
 5199TIP3    H215604   0.278   1.724   2.915
 5200TIP3   OH215605   0.913   5.666   4.286
 5200TIP3    H115606   0.830   5.630   4.318
 5200TIP3    H215607   0.934   5.737   4.347
 5201TIP3   OH215608   4.901   2.234   3.600
 5201TIP3    H115609   4.933   2.206   3.514
 5201TIP3    H215610   4.888   2.328   3.592
 5202TIP3   OH215611   0.546   3.949   4.652
 5202TIP3    H115612   0.606   4.021   4.672
 5202TIP3    H215613   0.533   3.953   4.558
 5203TIP3   OH215614   4.087   4.295   1.283
 5203TIP3    H115615   4.084   4.374   1.337
 5203TIP3    H215616   4.180   4.277   1.269
 5204TIP3   OH215617   2.493   5.876   4.436
 5204TIP3    H115618   2.557   5.888   4.367
 5204TIP3    H215619   2.449   5.794   4.415
 5205TIP3   OH215620   1.491   0.095   0.098
 5205TIP3    H115621   1.585   0.092   0.120
 5205TIP3    H215622   1.453   0.152   0.165
 5206TIP3   OH215623   0.441   3.140   1.943
 5206TIP3    H115624   0.523   3.111   1.982
 5206TIP3    H215625   0.396   3.058   1.918
 5207TIP3   OH215626   5.507   5.859   3.227
 5207TIP3    H115627   5.507   5.765   3.247
 5207TIP3    H215628   5.483   5.864   3.135
 5208TIP3   OH215629   4.198   0.706   3.745
 5208TIP3    H115630   4.108   0.674   3.756
 5208TIP3    H215631   4.235   0.702   3.833
 5209TIP3   OH215632   5.371   3.798   5.175
 5209TIP3    H115633   5.375   3.777   5.268
 5209TIP3    H215634   5.312   3.733   5.138
 5210TIP3   OH215635   2.961   5.186   5.044
 5210TIP3    H115636   2.933   5.260   5.098
 5210TIP3    H215637   2.879   5.151   5.008
 5211TIP3   OH215638   4.170   3.479   3.319
 5211TIP3    H115639   4.175   3.553   3.257
 5211TIP3    H215640   4.208   3.514   3.400
 5212TIP3   OH215641   2.843   0.748   1.549
 5212TIP3    H115642   2.892   0.741   1.631
 5212TIP3    H215643   2.821   0.841   1.543
 5213TIP3   OH215644   1.719   5.017   0.184
 5213TIP3    H115645   1.745   4.925   0.185
 5213TIP3    H215646   1.767   5.056   0.257
 5214TIP3   OH215647   5.072   1.296   4.124
 5214TIP3    H115648   5.116   1.359   4.068
 5214TIP3    H215649   5.090   1.211   4.084
 5215TIP3   OH215650   5.955   0.594   2.334
 5215TIP3    H115651   6.041   0.625   2.363
 5215TIP3    H215652   5.940   0.637   2.250
 5216TIP3   OH215653   0.467   2.605   4.143
 5216TIP3    H115654   0.492   2.637   4.229
 5216TIP3    H215655   0.386   2.652   4.122
 5217TIP3   OH215656   1.527   0.404   2.126
 5217TIP3    H115657   1.432   0.408   2.116
 5217TIP3    H215658   1.548   0.477   2.184
 5218TIP3   OH215659   2.118   0.324   2.406
 5218TIP3    H115660   2.066   0.258   2.452
 5218TIP3    H215661   2.115   0.297   2.314
 5219TIP3   OH215662   4.806   0.808   2.316
 5219TIP3    H115663   4.774   0.893   2.289
 5219TIP3    H215664   4.729   0.763   2.351
 5220TIP3   OH215665   5.389   4.427   0.383
 5220TIP3    H115666   5.346   4.432   0.468
 5220TIP3    H215667   5.452   4.499   0.384
 5221TIP3   OH215668   2.525   5.363   0.492
 5221TIP3    H115669   2.575   5.420   0.550
 5221TIP3    H215670   2.436   5.365   0.526
 5222TIP3   OH215671   4.693   3.282   5.105
 5222TIP3    H115672   4.686   3.371   5.071
 5222TIP3    H215673   4.607   3.265   5.143
 5223TIP3   OH215674   2.675   3.111   4.220
 5223TIP3    H115675   2.670   3.206   4.212
 5223TIP3    H215676   2.763   3.094   4.254
 5224TIP3   OH215677   3.046   3.599   3.376
 5224TIP3    H115678   3.089   3.654   3.310
 5224TIP3    H215679   3.070   3.510   3.351
 5225TIP3   OH215680   6.103   4.371   4.540
 5225TIP3    H115681   6.170   4.326   4.592
 5225TIP3    H215682   6.021   4.349   4.585
 5226TIP3   OH215683   0.114   5.185   2.708
 5226TIP3    H115684   0.120   5.164   2.615
 5226TIP3    H215685   0.140   5.104   2.753
 5227TIP3   OH215686   5.336   3.977   3.375
 5227TIP3    H115687   5.346   4.072   3.378
 5227TIP3    H215688   5.317   3.958   3.283
 5228TIP3   OH215689   4.737   5.244   1.596
 5228TIP3    H115690   4.832   5.251   1.591
 5228TIP3    H215691   4.706   5.334   1.585
 5229TIP3   OH215692   1.743   5.263   4.517
 5229TIP3    H115693   1.770   5.354   4.532
 5229TIP3    H215694   1.822   5.219   4.486
 5230TIP3   OH215695   3.256   4.420   0.545
 5230TIP3    H115696   3.255   4.512   0.519
 5230TIP3    H215697   3.339   4.409   0.591
 5231TIP3   OH215698   1.080   5.145   4.905
 5231TIP3    H115699   0.995   5.147   4.949
 5231TIP3    H215700   1.079   5.064   4.854
 5232TIP3   OH215701   4.915   2.454   2.953
 5232TIP3    H115702   4.990   2.505   2.921
 5232TIP3    H215703   4.889   2.401   2.877
 5233TIP3   OH215704   2.773   4.437   1.449
 5233TIP3    H115705   2.782   4.423   1.354
 5233TIP3    H215706   2.783   4.532   1.460
 5234TIP3   OH215707   5.862   5.086   3.728
 5234TIP3    H115708   5.815   5.046   3.801
 5234TIP3    H215709   5.796   5.137   3.681
 5235TIP3   OH215710   4.639   0.824   1.518
 5235TIP3    H115711   4.664   0.796   1.430
 5235TIP3    H215712   4.561   0.772   1.539
 5236TIP3   OH215713   3.507   5.409   1.923
 5236TIP3    H115714   3.493   5.450   1.838
 5236TIP3    H215715   3.589   5.360   1.912
 5237TIP3   OH215716   0.246   2.110   1.378
 5237TIP3    H115717   0.156   2.137   1.396
 5237TIP3    H215718   0.265   2.146   1.292
 5238TIP3   OH215719   1.584   2.195   2.018
 5238TIP3    H115720   1.511   2.252   2.041
 5238TIP3    H215721   1.544   2.107   2.013
 5239TIP3   OH215722   3.384   3.753   3.922
 5239TIP3    H115723   3.414   3.837   3.888
 5239TIP3    H215724   3.460   3.695   3.915
 5240TIP3   OH215725   2.178   5.184   1.753
 5240TIP3    H115726   2.229   5.261   1.779
 5240TIP3    H215727   2.200   5.117   1.817
 5241TIP3   OH215728   0.724   2.359   0.072
 5241TIP3    H115729   0.789   2.309   0.121
 5241TIP3    H215730   0.718   2.442   0.120
 5242TIP3   OH215731   2.440   4.089   1.713
 5242TIP3    H115732   2.458   4.018   1.652
 5242TIP3    H215733   2.361   4.130   1.679
 5243TIP3   OH215734   3.687   1.971   0.243
 5243TIP3    H115735   3.653   2.002   0.327
 5243TIP3    H215736   3.685   1.876   0.249
 5244TIP3   OH215737   0.792   2.616   4.878
 5244TIP3    H115738   0.814   2.706   4.903
 5244TIP3    H215739   0.711   2.598   4.926
 5245TIP3   OH215740   1.848   2.804   2.675
 5245TIP3    H115741   1.832   2.743   2.603
 5245TIP3    H215742   1.762   2.843   2.692
 5246TIP3   OH215743   2.237   5.291   2.917
 5246TIP3    H115744   2.191   5.289   2.833
 5246TIP3    H215745   2.185   5.234   2.974
 5247TIP3   OH215746   3.675   5.769  -0.026
 5247TIP3    H115747   3.719   5.839   0.022
 5247TIP3    H215748   3.621   5.726   0.040
 5248TIP3   OH215749   2.332   1.371   2.453
 5248TIP3    H115750   2.295   1.305   2.394
 5248TIP3    H215751   2.427   1.365   2.438
 5249TIP3   OH215752   0.391   4.614   2.602
 5249TIP3    H115753   0.370   4.563   2.680
 5249TIP3    H215754   0.362   4.703   2.623
 5250TIP3   OH215755   1.325   4.529   2.567
 5250TIP3    H115756   1.324   4.540   2.662
 5250TIP3    H215757   1.315   4.618   2.533
 5251TIP3   OH215758   5.932   1.660   5.001
 5251TIP3    H115759   5.874   1.704   5.063
 5251TIP3    H215760   6.006   1.719   4.991
 5252TIP3   OH215761   5.737   3.706   1.230
 5252TIP3    H115762   5.827   3.718   1.199
 5252TIP3    H215763   5.739   3.624   1.279
 5253TIP3   OH215764   6.368   2.010   0.495
 5253TIP3    H115765   6.369   1.954   0.417
 5253TIP3    H215766   6.319   1.960   0.560
 5254TIP3   OH215767   5.449   2.081   1.867
 5254TIP3    H115768   5.397   2.004   1.843
 5254TIP3    H215769   5.540   2.052   1.859
 5255TIP3   OH215770   1.699   5.652   3.997
 5255TIP3    H115771   1.663   5.738   4.021
 5255TIP3    H215772   1.792   5.669   3.980
 5256TIP3   OH215773   2.218   3.719   4.420
 5256TIP3    H115774   2.194   3.630   4.394
 5256TIP3    H215775   2.160   3.775   4.368
 5257TIP3   OH215776   1.173   0.097   0.608
 5257TIP3    H115777   1.087   0.058   0.589
 5257TIP3    H215778   1.164   0.189   0.583
 5258TIP3   OH215779   2.490   2.146   4.430
 5258TIP3    H115780   2.513   2.054   4.414
 5258TIP3    H215781   2.397   2.143   4.454
 5259TIP3   OH215782   2.144   2.998   4.378
 5259TIP3    H115783   2.202   2.993   4.302
 5259TIP3    H215784   2.140   2.908   4.411
 5260TIP3   OH215785   0.098   2.649   0.290
 5260TIP3    H115786   0.129   2.724   0.340
 5260TIP3    H215787   0.005   2.644   0.310
 5261TIP3   OH215788   0.832   3.803   0.248
 5261TIP3    H115789   0.755   3.751   0.270
 5261TIP3    H215790   0.882   3.807   0.330
 5262TIP3   OH215791   3.057   2.695   0.609
 5262TIP3    H115792   3.005   2.753   0.664
 5262TIP3    H215793   3.100   2.636   0.670
 5263TIP3   OH215794   2.896   2.366   1.932
 5263TIP3    H115795   2.851   2.450   1.938
 5263TIP3    H215796   2.826   2.302   1.918
 5264TIP3   OH215797   1.923   2.188   3.718
 5264TIP3    H115798   1.995   2.125   3.715
 5264TIP3    H215799   1.962   2.271   3.690
 5265TIP3   OH215800   4.184   5.377   4.339
 5265TIP3    H115801   4.092   5.401   4.342
 5265TIP3    H215802   4.224   5.442   4.281
 5266TIP3   OH215803   0.477   2.990   1.496
 5266TIP3    H115804   0.511   3.002   1.585
 5266TIP3    H215805   0.411   3.059   1.486
 5267TIP3   OH215806   1.981   1.098   3.351
 5267TIP3    H115807   1.970   1.015   3.304
 5267TIP3    H215808   2.067   1.091   3.392
 5268TIP3   OH215809   1.497   1.212   4.730
 5268TIP3    H115810   1.562   1.263   4.681
 5268TIP3    H215811   1.475   1.139   4.672
 5269TIP3   OH215812   6.219   0.294   2.392
 5269TIP3    H115813   6.208   0.288   2.297
 5269TIP3    H215814   6.274   0.372   2.405
 5270TIP3   OH215815   5.281   1.418   3.656
 5270TIP3    H115816   5.197   1.386   3.622
 5270TIP3    H215817   5.344   1.391   3.590
 5271TIP3   OH215818   1.918   3.256   2.230
 5271TIP3    H115819   1.954   3.220   2.311
 5271TIP3    H215820   1.843   3.308   2.258
 5272TIP3   OH215821   4.759   4.922   2.956
 5272TIP3    H115822   4.744   4.999   3.011
 5272TIP3    H215823   4.677   4.873   2.961
 5273TIP3   OH215824   4.920   0.982   0.903
 5273TIP3    H115825   4.923   1.033   0.822
 5273TIP3    H215826   4.974   0.905   0.885
 5274TIP3   OH215827   1.712   5.166   4.074
 5274TIP3    H115828   1.649   5.101   4.043
 5274TIP3    H215829   1.760   5.121   4.144
 5275TIP3   OH215830   1.696   4.136   4.710
 5275TIP3    H115831   1.777   4.185   4.699
 5275TIP3    H215832   1.724   4.047   4.731
 5276TIP3   OH215833   2.350   1.971   2.825
 5276TIP3    H115834   2.370   1.889   2.780
 5276TIP3    H215835   2.398   1.965   2.908
 5277TIP3   OH215836   1.478   1.475   3.027
 5277TIP3    H115837   1.566   1.508   3.012
 5277TIP3    H215838   1.423   1.553   3.030
 5278TIP3   OH215839   0.596   0.500   0.536
 5278TIP3    H115840   0.620   0.580   0.584
 5278TIP3    H215841   0.676   0.448   0.535
 5279TIP3   OH215842   0.463   5.007   1.712
 5279TIP3    H115843   0.482   4.974   1.624
 5279TIP3    H215844   0.509   5.092   1.716
 5280TIP3   OH215845   5.372   3.040   0.127
 5280TIP3    H115846   5.333   3.073   0.046
 5280TIP3    H215847   5.402   2.951   0.105
 5281TIP3   OH215848   4.173   4.530   0.599
 5281TIP3    H115849   4.256   4.493   0.629
 5281TIP3    H215850   4.121   4.454   0.574
 5282TIP3   OH215851   0.452   5.199   5.183
 5282TIP3    H115852   0.367   5.153   5.185
 5282TIP3    H215853   0.434   5.283   5.225
 5283TIP3   OH215854   4.378   3.973   1.262
 5283TIP3    H115855   4.303   3.948   1.207
 5283TIP3    H215856   4.442   4.009   1.200
 5284TIP3   OH215857   6.101   4.956   2.603
 5284TIP3    H115858   6.034   4.896   2.570
 5284TIP3    H215859   6.180   4.933   2.554
 5285TIP3   OH215860   3.695   1.678   4.486
 5285TIP3    H115861   3.674   1.686   4.579
 5285TIP3    H215862   3.644   1.603   4.455
 5286TIP3   OH215863   5.953   4.818   2.409
 5286TIP3    H115864   5.912   4.732   2.413
 5286TIP3    H215865   5.980   4.827   2.317
 5287TIP3   OH215866   3.150   2.904   2.069
 5287TIP3    H115867   3.108   2.838   2.013
 5287TIP3    H215868   3.150   2.865   2.156
 5288TIP3   OH215869   4.249  -0.035   2.871
 5288TIP3    H115870   4.161   0.003   2.868
 5288TIP3    H215871   4.308   0.041   2.873
 5289TIP3   OH215872   4.377   1.620   4.923
 5289TIP3    H115873   4.332   1.561   4.983
 5289TIP3    H215874   4.371   1.578   4.837
 5290TIP3   OH215875   0.591   1.175   3.918
 5290TIP3    H115876   0.561   1.261   3.948
 5290TIP3    H215877   0.685   1.186   3.903
 5291TIP3   OH215878   4.428   1.131   2.281
 5291TIP3    H115879   4.515   1.091   2.285
 5291TIP3    H215880   4.392   1.119   2.369
 5292TIP3   OH215881   0.578   3.521   2.438
 5292TIP3    H115882   0.577   3.563   2.352
 5292TIP3    H215883   0.515   3.449   2.431
 5293TIP3   OH215884   5.065   2.474   1.108
 5293TIP3    H115885   5.150   2.472   1.064
 5293TIP3    H215886   5.070   2.402   1.171
 5294TIP3   OH215887   5.041   3.521   2.789
 5294TIP3    H115888   5.034   3.430   2.819
 5294TIP3    H215889   4.977   3.569   2.842
 5295TIP3   OH215890   5.973   1.491   4.313
 5295TIP3    H115891   5.900   1.472   4.254
 5295TIP3    H215892   5.997   1.406   4.350
 5296TIP3   OH215893   4.440   4.648   0.746
 5296TIP3    H115894   4.516   4.705   0.757
 5296TIP3    H215895   4.430   4.641   0.651
 5297TIP3   OH215896   2.230   5.388   2.040
 5297TIP3    H115897   2.308   5.338   2.065
 5297TIP3    H215898   2.161   5.323   2.033
 5298TIP3   OH215899   4.144   3.578   2.871
 5298TIP3    H115900   4.119   3.642   2.805
 5298TIP3    H215901   4.087   3.503   2.855
 5299TIP3   OH215902   1.902   2.393   2.518
 5299TIP3    H115903   1.888   2.310   2.472
 5299TIP3    H215904   1.996   2.393   2.538
 5300TIP3   OH215905   1.571   5.195   2.114
 5300TIP3    H115906   1.648   5.249   2.095
 5300TIP3    H215907   1.600   5.105   2.102
 5301TIP3   OH215908   2.130   4.965   0.198
 5301TIP3    H115909   2.117   4.914   0.278
 5301TIP3    H215910   2.097   4.908   0.128
 5302TIP3   OH215911   0.240   0.897   2.596
 5302TIP3    H115912   0.316   0.935   2.639
 5302TIP3    H215913   0.215   0.823   2.652
 5303TIP3   OH215914   1.972   3.646   3.286
 5303TIP3    H115915   2.044   3.603   3.332
 5303TIP3    H215916   2.008   3.731   3.260
 5304TIP3   OH215917   6.168   1.514   3.757
 5304TIP3    H115918   6.226   1.495   3.831
 5304TIP3    H215919   6.217   1.486   3.680
 5305TIP3   OH215920   6.320   4.020   3.655
 5305TIP3    H115921   6.297   4.053   3.742
 5305TIP3    H215922   6.301   4.093   3.596
 5306TIP3   OH215923   0.818   2.407   0.884
 5306TIP3    H115924   0.902   2.365   0.902
 5306TIP3    H215925   0.790   2.371   0.800
 5307TIP3   OH215926   6.114   4.928   4.938
 5307TIP3    H115927   6.079   4.964   4.856
 5307TIP3    H215928   6.086   4.990   5.005
 5308TIP3   OH215929   5.024   3.013   2.516
 5308TIP3    H115930   5.031   3.106   2.538
 5308TIP3    H215931   5.114   2.987   2.498
 5309TIP3   OH215932   2.688   0.696   1.944
 5309TIP3    H115933   2.679   0.680   2.038
 5309TIP3    H215934   2.694   0.792   1.937
 5310TIP3   OH215935   4.456   5.087   2.259
 5310TIP3    H115936   4.548   5.061   2.268
 5310TIP3    H215937   4.445   5.104   2.166
 5311TIP3   OH215938   0.838   0.596   3.017
 5311TIP3    H115939   0.913   0.647   3.047
 5311TIP3    H215940   0.867   0.555   2.936
 5312TIP3   OH215941   2.156   5.939   3.888
 5312TIP3    H115942   2.068   5.904   3.881
 5312TIP3    H215943   2.172   5.981   3.804
 5313TIP3   OH215944   1.143   1.741   0.855
 5313TIP3    H115945   1.236   1.720   0.868
 5313TIP3    H215946   1.106   1.660   0.819
 5314TIP3   OH215947   1.904   0.310   3.621
 5314TIP3    H115948   1.869   0.263   3.546
 5314TIP3    H215949   1.997   0.286   3.623
 5315TIP3   OH215950   0.486   0.911   0.012
 5315TIP3    H115951   0.576   0.902   0.043
 5315TIP3    H215952   0.480   0.851  -0.063
 5316TIP3   OH215953   5.086   0.146   2.948
 5316TIP3    H115954   4.997   0.116   2.931
 5316TIP3    H215955   5.140   0.101   2.883
 5317TIP3   OH215956   5.434   3.581   0.803
 5317TIP3    H115957   5.474   3.558   0.886
 5317TIP3    H215958   5.389   3.501   0.775
 5318TIP3   OH215959   5.993   2.386   1.293
 5318TIP3    H115960   5.975   2.371   1.386
 5318TIP3    H215961   6.080   2.349   1.279
 5319TIP3   OH215962   2.413   4.866   0.134
 5319TIP3    H115963   2.345   4.927   0.106
 5319TIP3    H215964   2.453   4.909   0.209
 5320TIP3   OH215965   2.278   1.203   1.876
 5320TIP3    H115966   2.192   1.211   1.918
 5320TIP3    H215967   2.338   1.182   1.948
 5321TIP3   OH215968   5.222   2.235   4.077
 5321TIP3    H115969   5.277   2.157   4.066
 5321TIP3    H215970   5.279   2.297   4.123
 5322TIP3   OH215971   5.097   5.944   1.799
 5322TIP3    H115972   5.092   5.905   1.886
 5322TIP3    H215973   5.128   6.033   1.813
 5323TIP3   OH215974   2.912   3.765   1.227
 5323TIP3    H115975   2.850   3.735   1.160
 5323TIP3    H215976   2.914   3.695   1.292
 5324TIP3   OH215977   5.271   5.565   4.612
 5324TIP3    H115978   5.256   5.472   4.626
 5324TIP3    H215979   5.186   5.606   4.630
 5325TIP3   OH215980   6.188   1.252   1.359
 5325TIP3    H115981   6.132   1.326   1.339
 5325TIP3    H215982   6.134   1.193   1.412
 5326TIP3   OH215983   3.401   4.340   1.390
 5326TIP3    H115984   3.401   4.338   1.486
 5326TIP3    H215985   3.492   4.325   1.366
 5327TIP3   OH215986   0.154   1.629   5.074
 5327TIP3    H115987   0.177   1.609   4.984
 5327TIP3    H215988   0.091   1.561   5.098
 5328TIP3   OH215989   1.035   2.457   3.498
 5328TIP3    H115990   1.087   2.422   3.570
 5328TIP3    H215991   1.064   2.548   3.490
 5329TIP3   OH215992   3.331   5.185   2.260
 5329TIP3    H115993   3.292   5.141   2.336
 5329TIP3    H215994   3.333   5.117   2.192
 5330TIP3   OH215995   1.637   2.639   1.278
 5330TIP3    H115996   1.690   2.714   1.305
 5330TIP3    H215997   1.591   2.612   1.357
 5331TIP3   OH215998   3.260   4.974   3.783
 5331TIP3    H115999   3.342   4.993   3.737
 5331TIP3    H216000   3.256   5.038   3.854
 5332TIP3   OH216001   2.444   0.486   1.897
 5332TIP3    H116002   2.415   0.577   1.903
 5332TIP3    H216003   2.452   0.470   1.803
 5333TIP3   OH216004   3.483   4.299   4.010
 5333TIP3    H116005   3.395   4.293   4.047
 5333TIP3    H216006   3.529   4.223   4.046
 5334TIP3   OH216007   4.199   3.350   5.079
 5334TIP3    H116008   4.113   3.308   5.081
 5334TIP3    H216009   4.188   3.431   5.129
 5335TIP3   OH216010   3.241   4.167   0.392
 5335TIP3    H116011   3.273   4.252   0.422
 5335TIP3    H216012   3.159   4.187   0.347
 5336TIP3   OH216013   0.375   1.156   0.166
 5336TIP3    H116014   0.441   1.175   0.233
 5336TIP3    H216015   0.404   1.073   0.128
 5337TIP3   OH216016   4.497   1.388   2.222
 5337TIP3    H116017   4.461   1.304   2.251
 5337TIP3    H216018   4.424   1.431   2.179
 5338TIP3   OH216019   5.243   2.689   2.669
 5338TIP3    H116020   5.203   2.642   2.743
 5338TIP3    H216021   5.337   2.685   2.686
 5339TIP3   OH216022   4.553   3.099   0.479
 5339TIP3    H116023   4.488   3.070   0.542
 5339TIP3    H216024   4.604   3.020   0.459
 5340TIP3   OH216025   4.058   4.148   3.731
 5340TIP3    H116026   4.051   4.166   3.637
 5340TIP3    H216027   4.076   4.054   3.736
 5341TIP3   OH216028   0.890   2.389   3.058
 5341TIP3    H116029   0.879   2.460   3.120
 5341TIP3    H216030   0.862   2.311   3.105
 5342TIP3   OH216031   0.179   4.954   2.876
 5342TIP3    H116032   0.259   4.910   2.847
 5342TIP3    H216033   0.164   4.921   2.965
 5343TIP3   OH216034   5.988   0.879   5.066
 5343TIP3    H116035   5.932   0.886   5.143
 5343TIP3    H216036   5.938   0.921   4.996
 5344TIP3   OH216037   0.397   4.907   2.690
 5344TIP3    H116038   0.417   4.975   2.626
 5344TIP3    H216039   0.469   4.912   2.753
 5345TIP3   OH216040   5.808   3.839   1.539
 5345TIP3    H116041   5.857   3.915   1.570
 5345TIP3    H216042   5.845   3.820   1.453
 5346TIP3   OH216043   5.906   4.244   1.969
 5346TIP3    H116044   5.914   4.296   2.049
 5346TIP3    H216045   5.824   4.197   1.980
 5347TIP3   OH216046   1.372   1.995   2.061
 5347TIP3    H116047   1.435   1.942   2.111
 5347TIP3    H216048   1.298   2.006   2.120
 5348TIP3   OH216049   2.966   1.474   4.087
 5348TIP3    H116050   2.881   1.466   4.130
 5348TIP3    H216051   2.960   1.418   4.010
 5349TIP3   OH216052   2.348   0.704   0.461
 5349TIP3    H116053   2.282   0.771   0.445
 5349TIP3    H216054   2.301   0.621   0.453
 5350TIP3   OH216055   1.807   3.400   1.865
 5350TIP3    H116056   1.745   3.366   1.929
 5350TIP3    H216057   1.756   3.414   1.785
 5351TIP3   OH216058   5.864   2.361   2.925
 5351TIP3    H116059   5.846   2.309   2.846
 5351TIP3    H216060   5.959   2.359   2.933
 5352TIP3   OH216061   2.232   1.155   3.543
 5352TIP3    H116062   2.270   1.085   3.595
 5352TIP3    H216063   2.304   1.216   3.527
 5353TIP3   OH216064   0.231   1.734   2.591
 5353TIP3    H116065   0.302   1.672   2.606
 5353TIP3    H216066   0.276   1.817   2.571
 5354TIP3   OH216067   1.011   3.471   1.570
 5354TIP3    H116068   0.991   3.474   1.477
 5354TIP3    H216069   1.075   3.541   1.584
 5355TIP3   OH216070   2.328   2.262   3.968
 5355TIP3    H116071   2.283   2.189   3.926
 5355TIP3    H216072   2.319   2.335   3.906
 5356TIP3   OH216073   3.460   5.376   4.576
 5356TIP3    H116074   3.491   5.335   4.495
 5356TIP3    H216075   3.466   5.307   4.642
 5357TIP3   OH216076   2.609   1.636   3.432
 5357TIP3    H116077   2.608   1.563   3.494
 5357TIP3    H216078   2.606   1.714   3.488
 5358TIP3   OH216079   1.407   4.294   0.109
 5358TIP3    H116080   1.391   4.352   0.184
 5358TIP3    H216081   1.429   4.210   0.149
 5359TIP3   OH216082   2.068   1.309   3.103
 5359TIP3    H116083   2.070   1.400   3.133
 5359TIP3    H216084   1.989   1.273   3.144
 5360TIP3   OH216085   1.109   1.332   2.729
 5360TIP3    H116086   1.070   1.267   2.670
 5360TIP3    H216087   1.194   1.295   2.753
 5361TIP3   OH216088   1.635   2.961   2.110
 5361TIP3    H116089   1.542   2.936   2.114
 5361TIP3    H216090   1.645   3.027   2.178
 5362TIP3   OH216091   0.825   4.189   1.100
 5362TIP3    H116092   0.746   4.241   1.116
 5362TIP3    H216093   0.833   4.186   1.005
 5363TIP3   OH216094   5.833   0.956   3.631
 5363TIP3    H116095   5.740   0.978   3.627
 5363TIP3    H216096   5.876   1.027   3.585
 5364TIP3   OH216097   1.611   5.859   4.816
 5364TIP3    H116098   1.658   5.908   4.748
 5364TIP3    H216099   1.569   5.926   4.869
 5365TIP3   OH216100   3.952   1.059   1.051
 5365TIP3    H116101   4.036   1.037   1.011
 5365TIP3    H216102   3.892   0.991   1.020
 5366TIP3   OH216103   1.871   0.850   0.166
 5366TIP3    H116104   1.858   0.943   0.151
 5366TIP3    H216105   1.877   0.841   0.261
 5367TIP3   OH216106   0.651   0.337   4.082
 5367TIP3    H116107   0.565   0.315   4.044
 5367TIP3    H216108   0.660   0.431   4.067
 5368TIP3   OH216109   0.454   5.462   2.490
 5368TIP3    H116110   0.531   5.430   2.443
 5368TIP3    H216111   0.424   5.537   2.439
 5369TIP3   OH216112   4.821   1.055   3.181
 5369TIP3    H116113   4.760   1.129   3.175
 5369TIP3    H216114   4.791   0.994   3.113
 5370TIP3   OH216115   3.607   5.203   2.464
 5370TIP3    H116116   3.695   5.239   2.474
 5370TIP3    H216117   3.548   5.274   2.488
 5371TIP3   OH216118   2.438   2.005   3.095
 5371TIP3    H116119   2.352   2.047   3.093
 5371TIP3    H216120   2.419   1.911   3.098
 5372TIP3   OH216121   0.297   4.436   2.050
 5372TIP3    H116122   0.349   4.357   2.035
 5372TIP3    H216123   0.312   4.458   2.142
 5373TIP3   OH216124   5.761   0.608   0.690
 5373TIP3    H116125   5.755   0.618   0.595
 5373TIP3    H216126   5.831   0.544   0.703
 5374TIP3   OH216127   1.904   5.564   0.673
 5374TIP3    H116128   1.812   5.570   0.649
 5374TIP3    H216129   1.904   5.518   0.757
 5375TIP3   OH216130   1.367   5.911   3.608
 5375TIP3    H116131   1.321   5.827   3.609
 5375TIP3    H216132   1.357   5.946   3.696
 5376TIP3   OH216133   0.924   2.971   1.895
 5376TIP3    H116134   0.942   2.877   1.887
 5376TIP3    H216135   0.904   3.000   1.806
 5377TIP3   OH216136   0.477   5.601   1.650
 5377TIP3    H116137   0.421   5.652   1.709
 5377TIP3    H216138   0.566   5.624   1.675
 5378TIP3   OH216139   3.126   2.595   1.036
 5378TIP3    H116140   3.157   2.644   0.960
 5378TIP3    H216141   3.086   2.661   1.092
 5379TIP3   OH216142   3.102   3.041   4.765
 5379TIP3    H116143   3.094   3.041   4.860
 5379TIP3    H216144   3.044   2.970   4.736
 5380TIP3   OH216145   4.548   0.639   3.998
 5380TIP3    H116146   4.605   0.686   3.937
 5380TIP3    H216147   4.606   0.609   4.067
 5381TIP3   OH216148   6.017   4.850   4.339
 5381TIP3    H116149   6.028   4.908   4.414
 5381TIP3    H216150   6.022   4.762   4.375
 5382TIP3   OH216151   6.032   4.039   0.196
 5382TIP3    H116152   6.010   4.057   0.288
 5382TIP3    H216153   5.948   4.033   0.152
 5383TIP3   OH216154   0.420   3.459   3.490
 5383TIP3    H116155   0.357   3.415   3.434
 5383TIP3    H216156   0.492   3.397   3.499
 5384TIP3   OH216157   0.769   0.830   1.103
 5384TIP3    H116158   0.721   0.780   1.169
 5384TIP3    H216159   0.704   0.849   1.036
 5385TIP3   OH216160   5.222   4.318   1.692
 5385TIP3    H116161   5.167   4.348   1.620
 5385TIP3    H216162   5.291   4.384   1.698
 5386TIP3   OH216163   2.949   5.385   4.339
 5386TIP3    H116164   2.999   5.382   4.421
 5386TIP3    H216165   2.871   5.333   4.357
 5387TIP3   OH216166   5.013   4.025   2.406
 5387TIP3    H116167   5.023   4.081   2.328
 5387TIP3    H216168   5.014   4.087   2.479
 5388TIP3   OH216169   5.021   2.744   0.780
 5388TIP3    H116170   5.114   2.734   0.762
 5388TIP3    H216171   4.992   2.812   0.718
 5389TIP3   OH216172   1.402   3.245   1.741
 5389TIP3    H116173   1.322   3.247   1.794
 5389TIP3    H216174   1.451   3.322   1.769
 5390TIP3   OH216175   0.016   5.163   4.654
 5390TIP3    H116176   0.016   5.208   4.570
 5390TIP3    H216177   0.078   5.091   4.644
 5391TIP3   OH216178   4.562   1.380   1.412
 5391TIP3    H116179   4.531   1.303   1.460
 5391TIP3    H216180   4.500   1.390   1.340
 5392TIP3   OH216181   2.067   5.804   4.845
 5392TIP3    H116182   2.063   5.767   4.757
 5392TIP3    H216183   2.158   5.830   4.856
 5393TIP3   OH216184   1.869   0.348   2.210
 5393TIP3    H116185   1.836   0.415   2.271
 5393TIP3    H216186   1.819   0.269   2.232
 5394TIP3   OH216187   4.121   2.392   1.458
 5394TIP3    H116188   4.114   2.314   1.514
 5394TIP3    H216189   4.175   2.365   1.385
 5395TIP3   OH216190   4.911   3.381   3.440
 5395TIP3    H116191   4.953   3.467   3.437
 5395TIP3    H216192   4.818   3.400   3.449
 5396TIP3   OH216193   5.895   2.606   4.061
 5396TIP3    H116194   5.958   2.676   4.042
 5396TIP3    H216195   5.875   2.568   3.976
 5397TIP3   OH216196   3.088   4.040   2.745
 5397TIP3    H116197   3.111   4.014   2.834
 5397TIP3    H216198   3.043   3.964   2.709
 5398TIP3   OH216199   1.596   3.032   2.648
 5398TIP3    H116200   1.603   3.064   2.558
 5398TIP3    H216201   1.581   2.938   2.638
 5399TIP3   OH216202   1.128   4.495   4.631
 5399TIP3    H116203   1.192   4.518   4.698
 5399TIP3    H216204   1.126   4.399   4.631
 5400TIP3   OH216205   1.675   4.272   0.288
 5400TIP3    H116206   1.601   4.218   0.315
 5400TIP3    H216207   1.740   4.261   0.358
 5401TIP3   OH216208   5.834   3.178   2.800
 5401TIP3    H116209   5.866   3.094   2.765
 5401TIP3    H216210   5.800   3.156   2.887
 5402TIP3   OH216211   1.193   0.733   3.834
 5402TIP3    H116212   1.220   0.812   3.787
 5402TIP3    H216213   1.150   0.679   3.768
 5403TIP3   OH216214   0.287   0.100   4.742
 5403TIP3    H116215   0.215   0.051   4.782
 5403TIP3    H216216   0.285   0.185   4.784
 5404TIP3   OH216217   4.412   3.022   1.172
 5404TIP3    H116218   4.354   3.034   1.098
 5404TIP3    H216219   4.381   3.084   1.238
 5405TIP3   OH216220   4.261   5.234   4.578
 5405TIP3    H116221   4.230   5.254   4.490
 5405TIP3    H216222   4.256   5.317   4.625
 5406TIP3   OH216223   1.387   3.578   0.156
 5406TIP3    H116224   1.385   3.606   0.248
 5406TIP3    H216225   1.302   3.605   0.122
 5407TIP3   OH216226   3.836   5.588   0.542
 5407TIP3    H116227   3.820   5.498   0.515
 5407TIP3    H216228   3.926   5.606   0.514
 5408TIP3   OH216229   3.348   3.119   3.490
 5408TIP3    H116230   3.288   3.062   3.441
 5408TIP3    H216231   3.401   3.162   3.423
 5409TIP3   OH216232   0.543   3.518   0.625
 5409TIP3    H116233   0.498   3.457   0.683
 5409TIP3    H216234   0.478   3.585   0.604
 5410TIP3   OH216235   3.773   5.693   3.187
 5410TIP3    H116236   3.815   5.689   3.274
 5410TIP3    H216237   3.827   5.755   3.138
 5411TIP3   OH216238   4.849   4.028   0.232
 5411TIP3    H116239   4.928   4.064   0.273
 5411TIP3    H216240   4.863   3.934   0.232
 5412TIP3   OH216241   5.530   4.951   0.429
 5412TIP3    H116242   5.611   4.934   0.476
 5412TIP3    H216243   5.508   5.042   0.451
 5413TIP3   OH216244   1.046   2.128   0.022
 5413TIP3    H116245   1.041   2.205   0.080
 5413TIP3    H216246   0.965   2.131  -0.028
 5414TIP3   OH216247   1.754   1.688   4.742
 5414TIP3    H116248   1.836   1.649   4.711
 5414TIP3    H216249   1.774   1.717   4.831
 5415TIP3   OH216250   0.893   2.419   2.027
 5415TIP3    H116251   0.806   2.386   2.004
 5415TIP3    H216252   0.952   2.346   2.006
 5416TIP3   OH216253   2.026   4.133   0.313
 5416TIP3    H116254   2.066   4.146   0.227
 5416TIP3    H216255   1.983   4.048   0.307
 5417TIP3   OH216256   4.426   3.109   2.265
 5417TIP3    H116257   4.510   3.108   2.312
 5417TIP3    H216258   4.360   3.112   2.334
 5418TIP3   OH216259   4.582   5.511   4.068
 5418TIP3    H116260   4.577   5.514   4.163
 5418TIP3    H216261   4.535   5.590   4.039
 5419TIP3   OH216262   0.165   4.812   4.850
 5419TIP3    H116263   0.214   4.824   4.931
 5419TIP3    H216264   0.077   4.789   4.879
 5420TIP3   OH216265   3.642   4.589   3.731
 5420TIP3    H116266   3.652   4.668   3.784
 5420TIP3    H216267   3.550   4.564   3.743
 5421TIP3   OH216268   1.823   4.019   2.154
 5421TIP3    H116269   1.778   3.950   2.105
 5421TIP3    H216270   1.855   3.975   2.233
 5422TIP3   OH216271   4.588   5.455   0.495
 5422TIP3    H116272   4.678   5.470   0.465
 5422TIP3    H216273   4.585   5.493   0.583
 5423TIP3   OH216274   2.716   4.692   0.028
 5423TIP3    H116275   2.802   4.703  -0.013
 5423TIP3    H216276   2.725   4.728   0.116
 5424TIP3   OH216277   2.098   3.926   1.984
 5424TIP3    H116278   2.168   3.969   2.033
 5424TIP3    H216279   2.089   3.840   2.024
 5425TIP3   OH216280   0.807   0.902   3.940
 5425TIP3    H116281   0.836   0.903   4.032
 5425TIP3    H216282   0.841   0.983   3.903
 5426TIP3   OH216283   6.088   0.200   0.352
 5426TIP3    H116284   6.044   0.165   0.430
 5426TIP3    H216285   6.063   0.293   0.350
 5427TIP3   OH216286   0.997   5.150   4.526
 5427TIP3    H116287   1.091   5.167   4.517
 5427TIP3    H216288   0.955   5.234   4.509
 5428TIP3   OH216289   5.509   2.466   2.086
 5428TIP3    H116290   5.534   2.515   2.007
 5428TIP3    H216291   5.582   2.406   2.101
 5429TIP3   OH216292   4.692   1.957   2.249
 5429TIP3    H116293   4.665   1.980   2.160
 5429TIP3    H216294   4.772   1.906   2.237
 5430TIP3   OH216295   4.645   3.438   3.518
 5430TIP3    H116296   4.566   3.385   3.522
 5430TIP3    H216297   4.644   3.490   3.598
 5431TIP3   OH216298   3.402   2.123   4.276
 5431TIP3    H116299   3.337   2.068   4.318
 5431TIP3    H216300   3.483   2.071   4.279
 5432TIP3   OH216301   2.414   3.413   3.355
 5432TIP3    H116302   2.469   3.340   3.326
 5432TIP3    H216303   2.418   3.476   3.283
 5433TIP3   OH216304   2.327   1.601   1.060
 5433TIP3    H116305   2.243   1.589   1.104
 5433TIP3    H216306   2.393   1.590   1.129
 5434TIP3   OH216307   3.482   2.054   1.854
 5434TIP3    H116308   3.458   1.986   1.790
 5434TIP3    H216309   3.537   2.008   1.918
 5435TIP3   OH216310   2.688   5.670   3.310
 5435TIP3    H116311   2.755   5.618   3.354
 5435TIP3    H216312   2.639   5.711   3.381
 5436TIP3   OH216313   0.146   4.285   0.883
 5436TIP3    H116314   0.240   4.288   0.899
 5436TIP3    H216315   0.137   4.308   0.790
 5437TIP3   OH216316   0.233   3.265   3.364
 5437TIP3    H116317   0.164   3.243   3.301
 5437TIP3    H216318   0.186   3.285   3.445
 5438TIP3   OH216319   2.983   4.253   0.812
 5438TIP3    H116320   2.923   4.328   0.814
 5438TIP3    H216321   3.056   4.279   0.868
 5439TIP3   OH216322   2.297   3.396   1.254
 5439TIP3    H116323   2.305   3.315   1.204
 5439TIP3    H216324   2.377   3.400   1.307
 5440TIP3   OH216325   3.210   2.169   2.555
 5440TIP3    H116326   3.137   2.154   2.615
 5440TIP3    H216327   3.244   2.082   2.536
 5441TIP3   OH216328   4.553   0.781   0.862
 5441TIP3    H116329   4.554   0.685   0.866
 5441TIP3    H216330   4.581   0.810   0.949
 5442TIP3   OH216331   0.086   2.061   2.009
 5442TIP3    H116332   0.002   2.094   1.979
 5442TIP3    H216333   0.084   1.967   1.989
 5443TIP3   OH216334   0.631   0.377   2.632
 5443TIP3    H116335   0.621   0.306   2.696
 5443TIP3    H216336   0.634   0.332   2.547
 5444TIP3   OH216337   5.241   3.742   4.770
 5444TIP3    H116338   5.213   3.805   4.836
 5444TIP3    H216339   5.174   3.750   4.701
 5445TIP3   OH216340   5.153   2.775   3.081
 5445TIP3    H116341   5.087   2.843   3.098
 5445TIP3    H216342   5.234   2.823   3.067
 5446TIP3   OH216343   2.862   1.893   4.114
 5446TIP3    H116344   2.957   1.886   4.102
 5446TIP3    H216345   2.850   1.889   4.209
 5447TIP3   OH216346   2.831   2.405   2.946
 5447TIP3    H116347   2.761   2.391   3.010
 5447TIP3    H216348   2.911   2.405   2.998
 5448TIP3   OH216349   3.032   1.560   3.337
 5448TIP3    H116350   3.064   1.554   3.427
 5448TIP3    H216351   3.110   1.580   3.285
 5449TIP3   OH216352   2.945   3.945   3.588
 5449TIP3    H116353   2.894   3.950   3.669
 5449TIP3    H216354   3.029   3.909   3.615
 5450TIP3   OH216355   5.959   4.064   1.566
 5450TIP3    H116356   6.035   4.084   1.511
 5450TIP3    H216357   5.916   4.149   1.578
 5451TIP3   OH216358   4.297   5.545   4.155
 5451TIP3    H116359   4.303   5.636   4.124
 5451TIP3    H216360   4.274   5.495   4.077
 5452TIP3   OH216361   3.066   5.890   1.045
 5452TIP3    H116362   3.120   5.841   1.107
 5452TIP3    H216363   2.976   5.870   1.070
 5453TIP3   OH216364   4.050   3.537   0.714
 5453TIP3    H116365   3.982   3.509   0.653
 5453TIP3    H216366   4.112   3.464   0.716
 5454TIP3   OH216367   3.584   3.184   0.599
 5454TIP3    H116368   3.627   3.204   0.516
 5454TIP3    H216369   3.625   3.103   0.629
 5455TIP3   OH216370   3.814   2.413   4.660
 5455TIP3    H116371   3.906   2.392   4.644
 5455TIP3    H216372   3.811   2.509   4.662
 5456TIP3   OH216373   3.329   1.154   3.657
 5456TIP3    H116374   3.308   1.066   3.625
 5456TIP3    H216375   3.418   1.170   3.626
 5457TIP3   OH216376   0.451   5.150   2.070
 5457TIP3    H116377   0.503   5.208   2.014
 5457TIP3    H216378   0.514   5.085   2.102
 5458TIP3   OH216379   0.449   2.129   2.320
 5458TIP3    H116380   0.387   2.174   2.262
 5458TIP3    H216381   0.534   2.144   2.280
 5459TIP3   OH216382   5.659   5.352   2.105
 5459TIP3    H116383   5.741   5.309   2.083
 5459TIP3    H216384   5.642   5.411   2.032
 5460TIP3   OH216385   3.619   2.159   3.685
 5460TIP3    H116386   3.603   2.065   3.686
 5460TIP3    H216387   3.533   2.198   3.703
 5461TIP3   OH216388   2.972   4.714   3.404
 5461TIP3    H116389   2.877   4.702   3.410
 5461TIP3    H216390   2.986   4.752   3.318
 5462TIP3   OH216391   4.455   1.517   0.477
 5462TIP3    H116392   4.482   1.465   0.553
 5462TIP3    H216393   4.481   1.607   0.500
 5463TIP3   OH216394   2.039   1.737   3.731
 5463TIP3    H116395   1.988   1.705   3.657
 5463TIP3    H216396   2.119   1.771   3.692
 5464TIP3   OH216397   3.519   5.359   1.509
 5464TIP3    H116398   3.500   5.273   1.472
 5464TIP3    H216399   3.613   5.370   1.495
 5465TIP3   OH216400   4.640   5.894   3.935
 5465TIP3    H116401   4.636   5.852   3.850
 5465TIP3    H216402   4.549   5.908   3.960
 5466TIP3   OH216403   3.375   5.354   0.881
 5466TIP3    H116404   3.445   5.291   0.899
 5466TIP3    H216405   3.296   5.300   0.875
 5467TIP3   OH216406   3.152   0.495   3.071
 5467TIP3    H116407   3.155   0.476   2.977
 5467TIP3    H216408   3.232   0.545   3.087
 5468TIP3   OH216409   2.479   0.790   3.417
 5468TIP3    H116410   2.463   0.884   3.423
 5468TIP3    H216411   2.434   0.762   3.338
 5469TIP3   OH216412   2.693   3.403   4.160
 5469TIP3    H116413   2.771   3.379   4.110
 5469TIP3    H216414   2.626   3.418   4.093
 5470TIP3   OH216415   4.414   0.709   5.045
 5470TIP3    H116416   4.508   0.688   5.041
 5470TIP3    H216417   4.372   0.627   5.071
 5471TIP3   OH216418   2.879   0.530   2.887
 5471TIP3    H116419   2.822   0.496   2.957
 5471TIP3    H216420   2.883   0.624   2.903
 5472TIP3   OH216421   3.300   3.450   3.523
 5472TIP3    H116422   3.349   3.529   3.545
 5472TIP3    H216423   3.330   3.384   3.587
 5473TIP3   OH216424   0.297   2.720   0.570
 5473TIP3    H116425   0.206   2.749   0.574
 5473TIP3    H216426   0.295   2.631   0.605
 5474TIP3   OH216427   2.555   3.739   3.364
 5474TIP3    H116428   2.546   3.748   3.459
 5474TIP3    H216429   2.650   3.735   3.350
 5475TIP3   OH216430   5.563   3.126   5.104
 5475TIP3    H116431   5.622   3.051   5.092
 5475TIP3    H216432   5.621   3.202   5.102
 5476TIP3   OH216433   3.358   0.778   4.923
 5476TIP3    H116434   3.366   0.797   4.829
 5476TIP3    H216435   3.283   0.829   4.952
 5477TIP3   OH216436   2.988   5.932   1.469
 5477TIP3    H116437   2.902   5.954   1.434
 5477TIP3    H216438   2.985   5.838   1.485
 5478TIP3   OH216439   0.306   5.666   0.639
 5478TIP3    H116440   0.287   5.575   0.617
 5478TIP3    H216441   0.324   5.665   0.733
 5479TIP3   OH216442   1.410   0.510   3.294
 5479TIP3    H116443   1.458   0.498   3.212
 5479TIP3    H216444   1.373   0.599   3.288
 5480TIP3   OH216445   5.556   4.601   4.601
 5480TIP3    H116446   5.609   4.609   4.681
 5480TIP3    H216447   5.529   4.510   4.598
 5481TIP3   OH216448   2.548   3.584   3.827
 5481TIP3    H116449   2.619   3.615   3.883
 5481TIP3    H216450   2.592   3.532   3.760
 5482TIP3   OH216451   2.556   4.901   1.817
 5482TIP3    H116452   2.512   4.951   1.749
 5482TIP3    H216453   2.493   4.897   1.889
 5483TIP3   OH216454   2.227   2.193   4.860
 5483TIP3    H116455   2.196   2.261   4.801
 5483TIP3    H216456   2.232   2.236   4.945
 5484TIP3   OH216457   4.530   4.520   3.533
 5484TIP3    H116458   4.558   4.545   3.445
 5484TIP3    H216459   4.610   4.522   3.585
 5485TIP3   OH216460   4.866   4.979   1.654
 5485TIP3    H116461   4.819   5.061   1.641
 5485TIP3    H216462   4.806   4.925   1.707
 5486TIP3   OH216463   5.646   0.564   1.831
 5486TIP3    H116464   5.597   0.646   1.829
 5486TIP3    H216465   5.581   0.498   1.856
 5487TIP3   OH216466   1.030   4.404   2.937
 5487TIP3    H116467   0.957   4.426   2.995
 5487TIP3    H216468   1.108   4.439   2.982
 5488TIP3   OH216469   5.554   1.750   4.084
 5488TIP3    H116470   5.544   1.837   4.123
 5488TIP3    H216471   5.644   1.725   4.105
 5489TIP3   OH216472   5.660   2.568   4.223
 5489TIP3    H116473   5.703   2.583   4.138
 5489TIP3    H216474   5.679   2.647   4.274
 5490TIP3   OH216475   3.393   5.391   2.433
 5490TIP3    H116476   3.381   5.318   2.372
 5490TIP3    H216477   3.340   5.462   2.396
 5491TIP3   OH216478   2.039   4.465   0.616
 5491TIP3    H116479   2.117   4.521   0.607
 5491TIP3    H216480   1.965   4.525   0.606
 5492TIP3   OH216481   3.708   3.414   1.315
 5492TIP3    H116482   3.616   3.407   1.289
 5492TIP3    H216483   3.710   3.487   1.377
 5493TIP3   OH216484   1.978   0.402   4.029
 5493TIP3    H116485   2.024   0.427   3.949
 5493TIP3    H216486   1.892   0.443   4.022
 5494TIP3   OH216487   1.991   4.775   2.850
 5494TIP3    H116488   1.942   4.801   2.928
 5494TIP3    H216489   2.061   4.840   2.842
 5495TIP3   OH216490   5.921   5.686   3.026
 5495TIP3    H116491   5.954   5.680   2.936
 5495TIP3    H216492   5.843   5.741   3.019
 5496TIP3   OH216493   4.529   3.327   4.504
 5496TIP3    H116494   4.533   3.275   4.584
 5496TIP3    H216495   4.500   3.265   4.436
 5497TIP3   OH216496   5.822   4.564   2.933
 5497TIP3    H116497   5.762   4.590   3.002
 5497TIP3    H216498   5.903   4.612   2.952
 5498TIP3   OH216499   5.551   4.289   1.623
 5498TIP3    H116500   5.631   4.275   1.673
 5498TIP3    H216501   5.527   4.380   1.641
 5499TIP3   OH216502   0.718   4.298   4.078
 5499TIP3    H116503   0.675   4.337   4.002
 5499TIP3    H216504   0.723   4.205   4.057
 5500TIP3   OH216505   2.913   1.797   0.831
 5500TIP3    H116506   2.876   1.709   0.832
 5500TIP3    H216507   3.006   1.784   0.810
 5501TIP3   OH216508   1.679   1.807   4.063
 5501TIP3    H116509   1.745   1.834   3.999
 5501TIP3    H216510   1.631   1.736   4.019
 5502TIP3   OH216511   5.890   2.615   2.521
 5502TIP3    H116512   5.824   2.580   2.581
 5502TIP3    H216513   5.956   2.655   2.579
 5503TIP3   OH216514   2.017   0.582   2.030
 5503TIP3    H116515   2.012   0.649   1.962
 5503TIP3    H216516   2.077   0.619   2.095
 5504TIP3   OH216517   5.486   2.068   3.470
 5504TIP3    H116518   5.411   2.100   3.519
 5504TIP3    H216519   5.459   2.072   3.378
 5505TIP3   OH216520   3.378   4.480   3.785
 5505TIP3    H116521   3.415   4.404   3.831
 5505TIP3    H216522   3.325   4.442   3.715
 5506TIP3   OH216523   4.664   3.170   0.798
 5506TIP3    H116524   4.602   3.236   0.829
 5506TIP3    H216525   4.663   3.102   0.865
 5507TIP3   OH216526   5.633   5.770   3.477
 5507TIP3    H116527   5.620   5.850   3.427
 5507TIP3    H216528   5.606   5.792   3.566
 5508TIP3   OH216529   2.670   2.218   2.143
 5508TIP3    H116530   2.728   2.277   2.191
 5508TIP3    H216531   2.586   2.225   2.189
 5509TIP3   OH216532   3.734   0.390   2.271
 5509TIP3    H116533   3.686   0.320   2.313
 5509TIP3    H216534   3.739   0.459   2.337
 5510TIP3   OH216535   4.969   2.201   4.231
 5510TIP3    H116536   5.037   2.223   4.167
 5510TIP3    H216537   4.887   2.207   4.183
 5511TIP3   OH216538   2.526   5.222   3.885
 5511TIP3    H116539   2.548   5.301   3.835
 5511TIP3    H216540   2.459   5.249   3.946
 5512TIP3   OH216541   1.413   3.932   2.020
 5512TIP3    H116542   1.417   4.023   1.990
 5512TIP3    H216543   1.504   3.905   2.026
 5513TIP3   OH216544   1.859   2.692   0.946
 5513TIP3    H116545   1.860   2.675   0.852
 5513TIP3    H216546   1.813   2.775   0.955
 5514TIP3   OH216547   3.413   3.807   4.179
 5514TIP3    H116548   3.396   3.776   4.090
 5514TIP3    H216549   3.475   3.744   4.215
 5515TIP3   OH216550   2.974   0.678   3.223
 5515TIP3    H116551   2.904   0.620   3.253
 5515TIP3    H216552   3.032   0.621   3.171
 5516TIP3   OH216553   3.875   3.158   4.046
 5516TIP3    H116554   3.969   3.151   4.029
 5516TIP3    H216555   3.869   3.187   4.137
 5517TIP3   OH216556   0.329   0.969   1.519
 5517TIP3    H116557   0.360   1.033   1.583
 5517TIP3    H216558   0.234   0.973   1.526
 5518TIP3   OH216559   5.789   2.995   0.956
 5518TIP3    H116560   5.798   3.010   0.862
 5518TIP3    H216561   5.748   3.075   0.989
 5519TIP3   OH216562   0.578   1.663   2.579
 5519TIP3    H116563   0.671   1.650   2.601
 5519TIP3    H216564   0.533   1.590   2.623
 5520TIP3   OH216565   2.904   3.265   4.039
 5520TIP3    H116566   2.969   3.331   4.061
 5520TIP3    H216567   2.955   3.190   4.007
 5521TIP3   OH216568   0.991   0.798   3.162
 5521TIP3    H116569   0.932   0.860   3.203
 5521TIP3    H216570   1.038   0.849   3.096
 5522TIP3   OH216571   1.000   2.400   5.033
 5522TIP3    H116572   1.042   2.327   4.988
 5522TIP3    H216573   0.910   2.400   4.998
 5523TIP3   OH216574   5.236   0.127   1.930
 5523TIP3    H116575   5.248   0.149   1.837
 5523TIP3    H216576   5.322   0.098   1.959
 5524TIP3   OH216577   6.001   0.487   0.321
 5524TIP3    H116578   5.958   0.463   0.239
 5524TIP3    H216579   5.932   0.527   0.373
 5525TIP3   OH216580   2.850   1.882   1.078
 5525TIP3    H116581   2.854   1.976   1.092
 5525TIP3    H216582   2.865   1.871   0.984
 5526TIP3   OH216583   1.040   2.322   1.634
 5526TIP3    H116584   0.984   2.308   1.557
 5526TIP3    H216585   1.030   2.242   1.685
 5527TIP3   OH216586   3.865   3.029   0.248
 5527TIP3    H116587   3.946   2.978   0.250
 5527TIP3    H216588   3.818   2.996   0.171
 5528TIP3   OH216589   3.728   0.104   3.573
 5528TIP3    H116590   3.654   0.046   3.553
 5528TIP3    H216591   3.687   0.187   3.596
 5529TIP3   OH216592   4.921   0.984   4.223
 5529TIP3    H116593   4.914   0.957   4.131
 5529TIP3    H216594   4.846   1.043   4.236
 5530TIP3   OH216595   4.191   0.957   4.273
 5530TIP3    H116596   4.204   1.041   4.315
 5530TIP3    H216597   4.272   0.942   4.223
 5531TIP3   OH216598   3.737   2.595   3.711
 5531TIP3    H116599   3.733   2.551   3.626
 5531TIP3    H216600   3.824   2.634   3.713
 5532TIP3   OH216601   5.490   5.018   3.673
 5532TIP3    H116602   5.410   5.048   3.717
 5532TIP3    H216603   5.483   5.054   3.584
 5533TIP3   OH216604   6.196   0.888   1.962
 5533TIP3    H116605   6.181   0.933   1.879
 5533TIP3    H216606   6.238   0.954   2.017
 5534TIP3   OH216607   4.959   5.518   3.827
 5534TIP3    H116608   4.945   5.554   3.915
 5534TIP3    H216609   4.963   5.595   3.770
 5535TIP3   OH216610   3.343   0.424   2.120
 5535TIP3    H116611   3.286   0.501   2.124
 5535TIP3    H216612   3.365   0.405   2.211
 5536TIP3   OH216613   3.087   1.555   5.108
 5536TIP3    H116614   3.069   1.461   5.105
 5536TIP3    H216615   3.001   1.594   5.125
 5537TIP3   OH216616   4.928   4.850   3.783
 5537TIP3    H116617   4.995   4.914   3.807
 5537TIP3    H216618   4.860   4.862   3.850
 5538TIP3   OH216619   3.284   3.664   0.542
 5538TIP3    H116620   3.249   3.714   0.615
 5538TIP3    H216621   3.379   3.671   0.551
 5539TIP3   OH216622   1.510   5.786   1.357
 5539TIP3    H116623   1.445   5.839   1.403
 5539TIP3    H216624   1.499   5.808   1.265
 5540TIP3   OH216625   1.088   4.918   2.692
 5540TIP3    H116626   1.025   4.968   2.745
 5540TIP3    H216627   1.087   4.962   2.607
 5541TIP3   OH216628   4.125   1.230   0.347
 5541TIP3    H116629   4.167   1.269   0.271
 5541TIP3    H216630   4.033   1.257   0.340
 5542TIP3   OH216631   3.474   3.317   4.249
 5542TIP3    H116632   3.531   3.288   4.320
 5542TIP3    H216633   3.398   3.355   4.293
 5543TIP3   OH216634   0.109   0.023   0.233
 5543TIP3    H116635   0.018   0.014   0.205
 5543TIP3    H216636   0.129   0.116   0.220
 5544TIP3   OH216637   0.317   4.197   2.416
 5544TIP3    H116638   0.283   4.233   2.498
 5544TIP3    H216639   0.334   4.274   2.362
 5545TIP3   OH216640   0.016   5.244   2.056
 5545TIP3    H116641   0.011   5.334   2.087
 5545TIP3    H216642   0.099   5.239   2.008
 5546TIP3   OH216643   0.065   4.286   3.956
 5546TIP3    H116644   0.093   4.263   4.045
 5546TIP3    H216645   0.008   4.214   3.929
 5547TIP3   OH216646   5.291   4.314   4.274
 5547TIP3    H116647   5.351   4.258   4.323
 5547TIP3    H216648   5.267   4.262   4.197
 5548TIP3   OH216649   1.205   2.190   0.713
 5548TIP3    H116650   1.260   2.115   0.691
 5548TIP3    H216651   1.267   2.259   0.738
 5549TIP3   OH216652   0.251   2.217   0.128
 5549TIP3    H116653   0.197   2.277   0.179
 5549TIP3    H216654   0.293   2.161   0.193
 5550TIP3   OH216655   3.295   0.121   2.619
 5550TIP3    H116656   3.318   0.069   2.542
 5550TIP3    H216657   3.374   0.170   2.640
 5551TIP3   OH216658   0.722   2.888   4.620
 5551TIP3    H116659   0.706   2.872   4.527
 5551TIP3    H216660   0.655   2.952   4.645
 5552TIP3   OH216661   1.868   1.474   1.779
 5552TIP3    H116662   1.961   1.452   1.771
 5552TIP3    H216663   1.823   1.393   1.756
 5553TIP3   OH216664   3.349   4.669   0.841
 5553TIP3    H116665   3.399   4.587   0.835
 5553TIP3    H216666   3.401   4.725   0.899
 5554TIP3   OH216667   4.683   0.215   1.509
 5554TIP3    H116668   4.726   0.250   1.586
 5554TIP3    H216669   4.653   0.292   1.461
 5555TIP3   OH216670   0.168   2.817   4.027
 5555TIP3    H116671   0.144   2.814   3.934
 5555TIP3    H216672   0.095   2.862   4.069
 5556TIP3   OH216673   0.744   1.130   0.998
 5556TIP3    H116674   0.817   1.087   1.042
 5556TIP3    H216675   0.780   1.213   0.967
 5557TIP3   OH216676   0.320   5.289   1.613
 5557TIP3    H116677   0.337   5.338   1.533
 5557TIP3    H216678   0.284   5.354   1.674
 5558TIP3   OH216679   0.272   5.015   2.360
 5558TIP3    H116680   0.263   5.080   2.290
 5558TIP3    H216681   0.320   5.060   2.429
 5559TIP3   OH216682   0.349   3.732   1.728
 5559TIP3    H116683   0.407   3.656   1.733
 5559TIP3    H216684   0.357   3.763   1.637
 5560TIP3   OH216685   0.645   5.789   4.396
 5560TIP3    H116686   0.619   5.879   4.417
 5560TIP3    H216687   0.604   5.771   4.312
 5561TIP3   OH216688   0.622   1.868   2.236
 5561TIP3    H116689   0.609   1.957   2.203
 5561TIP3    H216690   0.641   1.816   2.157
 5562TIP3   OH216691   3.276   5.323   3.034
 5562TIP3    H116692   3.352   5.364   3.075
 5562TIP3    H216693   3.297   5.229   3.033
 5563TIP3   OH216694   6.175   3.400   2.997
 5563TIP3    H116695   6.155   3.466   3.064
 5563TIP3    H216696   6.089   3.365   2.972
 5564TIP3   OH216697   1.633   5.573   3.678
 5564TIP3    H116698   1.626   5.645   3.740
 5564TIP3    H216699   1.567   5.510   3.708
 5565TIP3   OH216700   4.709   3.578   5.082
 5565TIP3    H116701   4.709   3.570   4.987
 5565TIP3    H216702   4.800   3.563   5.108
 5566TIP3   OH216703   5.410   2.891   2.280
 5566TIP3    H116704   5.400   2.912   2.187
 5566TIP3    H216705   5.340   2.828   2.297
 5567TIP3   OH216706   4.727   3.235   2.329
 5567TIP3    H116707   4.802   3.192   2.289
 5567TIP3    H216708   4.685   3.283   2.258
 5568TIP3   OH216709   0.845   3.174   1.352
 5568TIP3    H116710   0.838   3.081   1.331
 5568TIP3    H216711   0.812   3.180   1.442
 5569TIP3   OH216712   3.201   2.776   3.654
 5569TIP3    H116713   3.240   2.827   3.726
 5569TIP3    H216714   3.224   2.685   3.674
 5570TIP3   OH216715   2.672   4.298   2.210
 5570TIP3    H116716   2.625   4.338   2.137
 5570TIP3    H216717   2.742   4.359   2.231
 5571TIP3   OH216718   3.976   5.063   3.438
 5571TIP3    H116719   4.013   5.151   3.448
 5571TIP3    H216720   3.992   5.040   3.347
 5572TIP3   OH216721   1.556   4.998   1.753
 5572TIP3    H116722   1.520   5.033   1.835
 5572TIP3    H216723   1.577   5.076   1.702
 5573TIP3   OH216724   4.463   2.863   0.161
 5573TIP3    H116725   4.425   2.943   0.197
 5573TIP3    H216726   4.402   2.838   0.091
 5574TIP3   OH216727   2.871   2.100   2.511
 5574TIP3    H116728   2.877   2.118   2.605
 5574TIP3    H216729   2.818   2.021   2.505
 5575TIP3   OH216730   3.887   1.089   0.143
 5575TIP3    H116731   3.819   1.153   0.166
 5575TIP3    H216732   3.864   1.011   0.194
 5576TIP3   OH216733   4.563   5.523   0.778
 5576TIP3    H116734   4.534   5.438   0.812
 5576TIP3    H216735   4.528   5.587   0.841
 5577TIP3   OH216736   0.359   4.014   3.911
 5577TIP3    H116737   0.452   4.005   3.929
 5577TIP3    H216738   0.350   4.100   3.870
 5578TIP3   OH216739   6.322   4.759   5.016
 5578TIP3    H116740   6.247   4.797   4.969
 5578TIP3    H216741   6.283   4.716   5.092
 5579TIP3   OH216742   2.946   1.358   2.585
 5579TIP3    H116743   3.009   1.323   2.647
 5579TIP3    H216744   2.885   1.286   2.569
 5580TIP3   OH216745   4.520   4.420   1.950
 5580TIP3    H116746   4.592   4.479   1.972
 5580TIP3    H216747   4.454   4.435   2.018
 5581TIP3   OH216748   5.446   2.997   3.334
 5581TIP3    H116749   5.395   3.078   3.328
 5581TIP3    H216750   5.484   2.999   3.422
 5582TIP3   OH216751   4.384   2.405   1.756
 5582TIP3    H116752   4.355   2.378   1.843
 5582TIP3    H216753   4.322   2.473   1.730
 5583TIP3   OH216754   2.786   2.104   4.869
 5583TIP3    H116755   2.799   2.127   4.777
 5583TIP3    H216756   2.750   2.183   4.909
 5584TIP3   OH216757   4.606   0.277   1.034
 5584TIP3    H116758   4.638   0.219   0.965
 5584TIP3    H216759   4.533   0.229   1.073
 5585TIP3   OH216760   0.421   4.219   2.702
 5585TIP3    H116761   0.352   4.282   2.678
 5585TIP3    H216762   0.495   4.242   2.647
 5586TIP3   OH216763   0.616   3.133   1.146
 5586TIP3    H116764   0.652   3.077   1.214
 5586TIP3    H216765   0.612   3.077   1.068
 5587TIP3   OH216766   0.855   1.634   4.683
 5587TIP3    H116767   0.791   1.628   4.613
 5587TIP3    H216768   0.899   1.718   4.669
 5588TIP3   OH216769   5.695   4.161   1.166
 5588TIP3    H116770   5.617   4.161   1.111
 5588TIP3    H216771   5.684   4.238   1.222
 5589TIP3   OH216772   2.083   5.245   5.118
 5589TIP3    H116773   2.086   5.163   5.068
 5589TIP3    H216774   2.036   5.222   5.198
 5590TIP3   OH216775   4.176   0.473   3.312
 5590TIP3    H116776   4.228   0.400   3.278
 5590TIP3    H216777   4.230   0.550   3.295
 5591TIP3   OH216778   4.221   1.766   3.868
 5591TIP3    H116779   4.295   1.812   3.829
 5591TIP3    H216780   4.193   1.705   3.800
 5592TIP3   OH216781   3.183   1.758   0.752
 5592TIP3    H116782   3.209   1.711   0.673
 5592TIP3    H216783   3.176   1.849   0.725
 5593TIP3   OH216784   5.300   5.175   0.955
 5593TIP3    H116785   5.334   5.262   0.975
 5593TIP3    H216786   5.266   5.143   1.039
 5594TIP3   OH216787   3.816   1.981   4.598
 5594TIP3    H116788   3.872   2.003   4.524
 5594TIP3    H216789   3.834   1.888   4.615
 5595TIP3   OH216790   1.849   1.031   4.158
 5595TIP3    H116791   1.915   0.964   4.140
 5595TIP3    H216792   1.809   1.050   4.073
 5596TIP3   OH216793   1.044   0.030   3.810
 5596TIP3    H116794   1.010   0.022   3.899
 5596TIP3    H216795   1.015  -0.051   3.767
 5597TIP3   OH216796   3.682   3.030   1.570
 5597TIP3    H116797   3.673   2.954   1.513
 5597TIP3    H216798   3.769   3.065   1.548
 5598TIP3   OH216799   0.087   1.165   1.858
 5598TIP3    H116800   0.124   1.086   1.896
 5598TIP3    H216801   0.162   1.216   1.830
 5599TIP3   OH216802   3.592   2.595   4.567
 5599TIP3    H116803   3.570   2.534   4.638
 5599TIP3    H216804   3.682   2.622   4.586
 5600TIP3   OH216805   1.143   2.563   0.934
 5600TIP3    H116806   1.096   2.644   0.916
 5600TIP3    H216807   1.182   2.575   1.020
 5601TIP3   OH216808   3.894   1.633   2.108
 5601TIP3    H116809   3.847   1.710   2.139
 5601TIP3    H216810   3.983   1.664   2.091
 5602TIP3   OH216811   4.481   3.037   3.758
 5602TIP3    H116812   4.436   2.990   3.828
 5602TIP3    H216813   4.536   3.101   3.803
 5603TIP3   OH216814   5.440   2.174   0.142
 5603TIP3    H116815   5.359   2.188   0.190
 5603TIP3    H216816   5.504   2.229   0.187
 5604TIP3   OH216817   5.910   0.459   2.936
 5604TIP3    H116818   5.897   0.539   2.884
 5604TIP3    H216819   5.895   0.388   2.874
 5605TIP3   OH216820   4.077   4.687   1.612
 5605TIP3    H116821   4.051   4.657   1.525
 5605TIP3    H216822   4.171   4.705   1.604
 5606TIP3   OH216823   4.902   0.795   4.863
 5606TIP3    H116824   4.963   0.759   4.799
 5606TIP3    H216825   4.885   0.884   4.832
 5607TIP3   OH216826   5.468   2.574   1.263
 5607TIP3    H116827   5.558   2.606   1.266
 5607TIP3    H216828   5.440   2.573   1.355
 5608TIP3   OH216829   5.916   5.806   1.295
 5608TIP3    H116830   5.902   5.820   1.388
 5608TIP3    H216831   5.986   5.741   1.290
 5609TIP3   OH216832   2.881   3.454   2.586
 5609TIP3    H116833   2.895   3.381   2.526
 5609TIP3    H216834   2.906   3.531   2.535
 5610TIP3   OH216835   3.760   0.117   4.182
 5610TIP3    H116836   3.806   0.200   4.165
 5610TIP3    H216837   3.759   0.072   4.097
 5611TIP3   OH216838   2.384   1.512   2.946
 5611TIP3    H116839   2.399   1.439   2.886
 5611TIP3    H216840   2.467   1.560   2.946
 5612TIP3   OH216841   5.015   3.437   0.273
 5612TIP3    H116842   4.923   3.451   0.250
 5612TIP3    H216843   5.016   3.351   0.316
 5613TIP3   OH216844   0.448   5.838   2.913
 5613TIP3    H116845   0.528   5.890   2.918
 5613TIP3    H216846   0.394   5.884   2.847
 5614TIP3   OH216847   2.343   4.897   4.511
 5614TIP3    H116848   2.431   4.926   4.489
 5614TIP3    H216849   2.287   4.973   4.494
 5615TIP3   OH216850   0.527   0.309   2.003
 5615TIP3    H116851   0.616   0.327   1.972
 5615TIP3    H216852   0.492   0.394   2.028
 5616TIP3   OH216853   5.023   1.651   0.099
 5616TIP3    H116854   5.008   1.561   0.128
 5616TIP3    H216855   5.037   1.644   0.005
 5617TIP3   OH216856   1.083   4.122   1.200
 5617TIP3    H116857   0.997   4.149   1.169
 5617TIP3    H216858   1.082   4.139   1.294
 5618TIP3   OH216859   3.158   2.808   4.458
 5618TIP3    H116860   3.065   2.829   4.467
 5618TIP3    H216861   3.201   2.893   4.451
 5619TIP3   OH216862   2.452  -0.030   3.184
 5619TIP3    H116863   2.365   0.004   3.162
 5619TIP3    H216864   2.477  -0.083   3.108
 5620TIP3   OH216865   5.578   0.201   4.146
 5620TIP3    H116866   5.485   0.201   4.126
 5620TIP3    H216867   5.589   0.132   4.211
 5621TIP3   OH216868   1.626   0.731   4.177
 5621TIP3    H116869   1.630   0.827   4.174
 5621TIP3    H216870   1.536   0.710   4.154
 5622TIP3   OH216871   4.107   3.833   4.934
 5622TIP3    H116872   4.045   3.879   4.991
 5622TIP3    H216873   4.161   3.903   4.897
 5623TIP3   OH216874   1.067   4.695   3.982
 5623TIP3    H116875   1.003   4.640   4.028
 5623TIP3    H216876   1.018   4.773   3.957
 5624TIP3   OH216877   2.867   0.331   3.819
 5624TIP3    H116878   2.814   0.395   3.773
 5624TIP3    H216879   2.950   0.375   3.836
 5625TIP3   OH216880   6.118   4.695   4.742
 5625TIP3    H116881   6.088   4.757   4.808
 5625TIP3    H216882   6.145   4.618   4.791
 5626TIP3   OH216883   4.529   2.625   4.352
 5626TIP3    H116884   4.551   2.669   4.434
 5626TIP3    H216885   4.496   2.695   4.295
 5627TIP3   OH216886   5.047   3.031   2.981
 5627TIP3    H116887   5.084   2.981   2.908
 5627TIP3    H216888   5.057   3.122   2.954
 5628TIP3   OH216889   4.428   1.637   1.670
 5628TIP3    H116890   4.504   1.675   1.626
 5628TIP3    H216891   4.435   1.543   1.650
 5629TIP3   OH216892   5.632   3.449   4.298
 5629TIP3    H116893   5.624   3.396   4.377
 5629TIP3    H216894   5.574   3.405   4.235
 5630TIP3   OH216895   1.415   4.883   3.058
 5630TIP3    H116896   1.365   4.909   2.981
 5630TIP3    H216897   1.473   4.958   3.075
 5631TIP3   OH216898   1.390   2.888   4.245
 5631TIP3    H116899   1.479   2.853   4.243
 5631TIP3    H216900   1.355   2.861   4.330
 5632TIP3   OH216901   5.223   3.432   0.631
 5632TIP3    H116902   5.229   3.340   0.607
 5632TIP3    H216903   5.170   3.433   0.711
 5633TIP3   OH216904   1.183   2.411   0.424
 5633TIP3    H116905   1.156   2.423   0.515
 5633TIP3    H216906   1.136   2.479   0.376
 5634TIP3   OH216907   6.214   5.346   3.608
 5634TIP3    H116908   6.260   5.325   3.526
 5634TIP3    H216909   6.165   5.266   3.629
 5635TIP3   OH216910   0.037   2.467   4.485
 5635TIP3    H116911   0.026   2.403   4.415
 5635TIP3    H216912   0.124   2.449   4.520
 5636TIP3   OH216913   4.243   1.260   0.741
 5636TIP3    H116914   4.225   1.188   0.803
 5636TIP3    H216915   4.285   1.217   0.666
 5637TIP3   OH216916   5.364   5.308   2.926
 5637TIP3    H116917   5.327   5.394   2.906
 5637TIP3    H216918   5.288   5.251   2.941
 5638TIP3   OH216919   2.115   4.456   1.611
 5638TIP3    H116920   2.111   4.407   1.693
 5638TIP3    H216921   2.039   4.425   1.561
 5639TIP3   OH216922   3.855   1.714   1.548
 5639TIP3    H116923   3.847   1.770   1.471
 5639TIP3    H216924   3.800   1.755   1.614
 5640TIP3   OH216925   6.134   5.085   3.620
 5640TIP3    H116926   6.046   5.096   3.657
 5640TIP3    H216927   6.119   5.052   3.531
 5641TIP3   OH216928   4.420   4.674   0.446
 5641TIP3    H116929   4.372   4.756   0.456
 5641TIP3    H216930   4.363   4.619   0.393
 5642TIP3   OH216931   5.479   2.067   1.275
 5642TIP3    H116932   5.557   2.028   1.236
 5642TIP3    H216933   5.408   2.006   1.251
 5643TIP3   OH216934   3.944   2.164   4.430
 5643TIP3    H116935   3.978   2.206   4.510
 5643TIP3    H216936   3.855   2.199   4.422
 5644TIP3   OH216937   3.892   0.773   3.466
 5644TIP3    H116938   3.889   0.725   3.384
 5644TIP3    H216939   3.982   0.803   3.474
 5645TIP3   OH216940   4.934   5.862   3.045
 5645TIP3    H116941   4.934   5.936   3.105
 5645TIP3    H216942   4.868   5.802   3.081
 5646TIP3   OH216943   5.355   5.570   0.209
 5646TIP3    H116944   5.328   5.647   0.160
 5646TIP3    H216945   5.325   5.586   0.299
 5647TIP3   OH216946   5.316   0.912   2.066
 5647TIP3    H116947   5.268   0.833   2.089
 5647TIP3    H216948   5.350   0.945   2.149
 5648TIP3   OH216949   3.129   4.717   0.155
 5648TIP3    H116950   3.136   4.729   0.060
 5648TIP3    H216951   3.193   4.778   0.191
 5649TIP3   OH216952   6.147   2.117   5.119
 5649TIP3    H116953   6.134   2.027   5.089
 5649TIP3    H216954   6.065   2.140   5.162
 5650TIP3   OH216955   4.676   3.927   3.144
 5650TIP3    H116956   4.734   3.934   3.221
 5650TIP3    H216957   4.723   3.974   3.075
 5651TIP3   OH216958   3.109   3.794   3.199
 5651TIP3    H116959   3.135   3.855   3.131
 5651TIP3    H216960   3.044   3.737   3.158
 5652TIP3   OH216961   4.451   1.196   0.389
 5652TIP3    H116962   4.432   1.131   0.321
 5652TIP3    H216963   4.367   1.240   0.404
 5653TIP3   OH216964   0.283   5.112   3.199
 5653TIP3    H116965   0.288   5.017   3.199
 5653TIP3    H216966   0.190   5.132   3.207
 5654TIP3   OH216967   5.395   4.730   3.527
 5654TIP3    H116968   5.377   4.817   3.493
 5654TIP3    H216969   5.366   4.734   3.618
 5655TIP3   OH216970   4.870   0.193   0.844
 5655TIP3    H116971   4.939   0.134   0.814
 5655TIP3    H216972   4.856   0.253   0.770
 5656TIP3   OH216973   5.107   5.567   2.500
 5656TIP3    H116974   5.200   5.586   2.501
 5656TIP3    H216975   5.065   5.653   2.511
 5657TIP3   OH216976   5.103   1.826   0.300
 5657TIP3    H116977   5.053   1.786   0.370
 5657TIP3    H216978   5.091   1.768   0.225
 5658TIP3   OH216979   3.635   2.358   2.020
 5658TIP3    H116980   3.663   2.327   1.934
 5658TIP3    H216981   3.570   2.293   2.049
 5659TIP3   OH216982   3.683   4.089   1.024
 5659TIP3    H116983   3.702   4.106   0.931
 5659TIP3    H216984   3.767   4.099   1.068
 5660TIP3   OH216985   4.798   3.298   4.434
 5660TIP3    H116986   4.719   3.338   4.470
 5660TIP3    H216987   4.765   3.234   4.370
 5661TIP3   OH216988   3.914   0.189   2.727
 5661TIP3    H116989   3.987   0.195   2.788
 5661TIP3    H216990   3.955   0.178   2.642
 5662TIP3   OH216991   3.199   1.972   2.102
 5662TIP3    H116992   3.138   2.002   2.169
 5662TIP3    H216993   3.280   1.952   2.151
 5663TIP3   OH216994   1.630   4.201   2.144
 5663TIP3    H116995   1.658   4.245   2.064
 5663TIP3    H216996   1.686   4.124   2.150
 5664TIP3   OH216997   4.597   4.151   0.284
 5664TIP3    H116998   4.683   4.108   0.290
 5664TIP3    H216999   4.559   4.116   0.203
 5665TIP3   OH217000   1.749   4.773   1.381
 5665TIP3    H117001   1.727   4.856   1.422
 5665TIP3    H217002   1.844   4.769   1.382
 5666TIP3   OH217003   1.970   1.789   4.392
 5666TIP3    H117004   2.035   1.851   4.425
 5666TIP3    H217005   1.886   1.825   4.421
 5667TIP3   OH217006   0.142   3.654   3.185
 5667TIP3    H117007   0.202   3.716   3.144
 5667TIP3    H217008   0.173   3.647   3.275
 5668TIP3   OH217009   3.208   3.756   0.799
 5668TIP3    H117010   3.238   3.834   0.752
 5668TIP3    H217011   3.190   3.787   0.888
 5669TIP3   OH217012   3.962   5.552   4.304
 5669TIP3    H117013   3.879   5.598   4.289
 5669TIP3    H217014   4.020   5.581   4.234
 5670TIP3   OH217015   3.145   4.314   2.364
 5670TIP3    H117016   3.200   4.242   2.397
 5670TIP3    H217017   3.087   4.334   2.437
 5671TIP3   OH217018   3.435   0.971   3.351
 5671TIP3    H117019   3.361   0.992   3.294
 5671TIP3    H217020   3.396   0.924   3.425
 5672TIP3   OH217021   2.974   5.541   4.703
 5672TIP3    H117022   2.954   5.448   4.706
 5672TIP3    H217023   3.069   5.545   4.694
 5673TIP3   OH217024   0.833   2.896   3.977
 5673TIP3    H117025   0.826   2.803   3.996
 5673TIP3    H217026   0.921   2.920   4.004
 5674TIP3   OH217027   2.117   0.441   3.469
 5674TIP3    H117028   2.077   0.499   3.404
 5674TIP3    H217029   2.076   0.356   3.453
 5675TIP3   OH217030   4.945   0.984   0.461
 5675TIP3    H117031   4.869   0.970   0.406
 5675TIP3    H217032   5.011   1.023   0.404
 5676TIP3   OH217033   0.122   3.872   0.464
 5676TIP3    H117034   0.150   3.943   0.406
 5676TIP3    H217035   0.049   3.910   0.514
 5677TIP3   OH217036   4.279   4.146   0.848
 5677TIP3    H117037   4.366   4.104   0.846
 5677TIP3    H217038   4.219   4.075   0.872
 5678TIP3   OH217039   0.662   5.173   1.137
 5678TIP3    H117040   0.651   5.267   1.153
 5678TIP3    H217041   0.709   5.169   1.053
 5679TIP3   OH217042   2.861   4.555   4.399
 5679TIP3    H117043   2.892   4.605   4.475
 5679TIP3    H217044   2.933   4.557   4.337
 5680TIP3   OH217045   2.424   3.122   2.752
 5680TIP3    H117046   2.337   3.088   2.767
 5680TIP3    H217047   2.473   3.049   2.713
 5681TIP3   OH217048   0.087   2.573   1.907
 5681TIP3    H117049   0.178   2.543   1.911
 5681TIP3    H217050   0.035   2.494   1.919
 5682TIP3   OH217051   0.046   5.662   1.093
 5682TIP3    H117052   0.031   5.702   1.179
 5682TIP3    H217053   0.057   5.737   1.034
 5683TIP3   OH217054   0.811   2.026   1.971
 5683TIP3    H117055   0.762   1.954   1.932
 5683TIP3    H217056   0.890   2.033   1.918
 5684TIP3   OH217057   5.704   0.758   3.119
 5684TIP3    H117058   5.631   0.735   3.061
 5684TIP3    H217059   5.740   0.674   3.146
 5685TIP3   OH217060   2.358   0.587   0.035
 5685TIP3    H117061   2.389   0.547   0.117
 5685TIP3    H217062   2.437   0.598  -0.018
 5686TIP3   OH217063   4.383   3.846   2.621
 5686TIP3    H117064   4.474   3.818   2.611
 5686TIP3    H217065   4.365   3.834   2.714
 5687TIP3   OH217066   4.139   4.809   0.049
 5687TIP3    H117067   4.130   4.722   0.088
 5687TIP3    H217068   4.229   4.811   0.017
 5688TIP3   OH217069   1.028   4.278   1.436
 5688TIP3    H117070   1.051   4.369   1.451
 5688TIP3    H217071   0.933   4.275   1.447
 5689TIP3   OH217072   2.203   1.797   2.401
 5689TIP3    H117073   2.279   1.743   2.380
 5689TIP3    H217074   2.194   1.856   2.326
 5690TIP3   OH217075   0.953   0.606   3.338
 5690TIP3    H117076   0.976   0.670   3.271
 5690TIP3    H217077   0.914   0.533   3.289
 5691TIP3   OH217078   2.756   2.971   5.235
 5691TIP3    H117079   2.746   3.059   5.197
 5691TIP3    H217080   2.667   2.937   5.240
 5692TIP3   OH217081   5.498   0.794   1.309
 5692TIP3    H117082   5.438   0.814   1.237
 5692TIP3    H217083   5.585   0.812   1.274
 5693TIP3   OH217084   2.832   4.128   1.357
 5693TIP3    H117085   2.877   4.213   1.359
 5693TIP3    H217086   2.743   4.149   1.329
 5694TIP3   OH217087   3.059   1.941   3.479
 5694TIP3    H117088   3.064   1.999   3.555
 5694TIP3    H217089   2.966   1.922   3.469
 5695TIP3   OH217090   0.337   5.396   1.357
 5695TIP3    H117091   0.414   5.412   1.302
 5695TIP3    H217092   0.268   5.373   1.296
 5696TIP3   OH217093   2.171   4.280   1.879
 5696TIP3    H117094   2.226   4.209   1.913
 5696TIP3    H217095   2.089   4.273   1.928
 5697TIP3   OH217096   6.161   5.339   3.326
 5697TIP3    H117097   6.145   5.291   3.245
 5697TIP3    H217098   6.216   5.413   3.300
 5698TIP3   OH217099   0.431   0.760   5.035
 5698TIP3    H117100   0.491   0.685   5.027
 5698TIP3    H217101   0.379   0.740   5.113
 5699TIP3   OH217102   1.079   2.270   2.254
 5699TIP3    H117103   1.077   2.178   2.228
 5699TIP3    H217104   0.989   2.290   2.279
 5700TIP3   OH217105   2.101   5.209   4.816
 5700TIP3    H117106   2.118   5.298   4.846
 5700TIP3    H217107   2.040   5.219   4.744
 5701TIP3   OH217108   3.502   1.105   0.458
 5701TIP3    H117109   3.583   1.151   0.478
 5701TIP3    H217110   3.435   1.150   0.509
 5702TIP3   OH217111   3.018   2.740   1.268
 5702TIP3    H117112   3.016   2.662   1.323
 5702TIP3    H217113   2.931   2.742   1.228
 5703TIP3   OH217114   4.753   5.027   4.759
 5703TIP3    H117115   4.771   4.987   4.844
 5703TIP3    H217116   4.662   5.006   4.740
 5704TIP3   OH217117   4.713   5.790   3.548
 5704TIP3    H117118   4.641   5.758   3.603
 5704TIP3    H217119   4.738   5.714   3.496
 5705TIP3   OH217120   4.370   4.712   3.178
 5705TIP3    H117121   4.291   4.716   3.233
 5705TIP3    H217122   4.442   4.720   3.239
 5706TIP3   OH217123   6.267   3.001   4.467
 5706TIP3    H117124   6.362   2.994   4.456
 5706TIP3    H217125   6.239   2.912   4.489
 5707TIP3   OH217126   5.991   0.286   1.740
 5707TIP3    H117127   6.018   0.375   1.763
 5707TIP3    H217128   5.969   0.290   1.647
 5708TIP3   OH217129   0.494   3.129   0.075
 5708TIP3    H117130   0.469   3.068   0.005
 5708TIP3    H217131   0.590   3.126   0.075
 5709TIP3   OH217132   3.199   1.511   2.933
 5709TIP3    H117133   3.286   1.521   2.895
 5709TIP3    H217134   3.197   1.421   2.965
 5710TIP3   OH217135   2.736   0.829   4.544
 5710TIP3    H117136   2.788   0.806   4.467
 5710TIP3    H217137   2.787   0.898   4.588
 5711TIP3   OH217138   2.996   3.553   3.660
 5711TIP3    H117139   3.058   3.580   3.728
 5711TIP3    H217140   3.025   3.598   3.581
 5712TIP3   OH217141   5.456   2.136   0.952
 5712TIP3    H117142   5.512   2.113   1.025
 5712TIP3    H217143   5.466   2.064   0.890
 5713TIP3   OH217144   5.611   5.889   3.768
 5713TIP3    H117145   5.578   5.970   3.728
 5713TIP3    H217146   5.586   5.895   3.860
 5714TIP3   OH217147   5.291   5.721   4.206
 5714TIP3    H117148   5.307   5.721   4.112
 5714TIP3    H217149   5.221   5.785   4.219
 5715TIP3   OH217150   3.941   0.330   3.855
 5715TIP3    H117151   3.904   0.380   3.783
 5715TIP3    H217152   3.894   0.362   3.932
 5716TIP3   OH217153   1.428   1.869   4.311
 5716TIP3    H117154   1.435   1.964   4.298
 5716TIP3    H217155   1.513   1.843   4.345
 5717TIP3   OH217156   1.230   1.613   3.649
 5717TIP3    H117157   1.242   1.640   3.558
 5717TIP3    H217158   1.289   1.669   3.699
 5718TIP3   OH217159   6.205   3.654   3.164
 5718TIP3    H117160   6.299   3.639   3.154
 5718TIP3    H217161   6.187   3.633   3.256
 5719TIP3   OH217162   3.416   1.318   5.071
 5719TIP3    H117163   3.389   1.296   4.982
 5719TIP3    H217164   3.378   1.249   5.125
 5720TIP3   OH217165   1.646   0.095   5.050
 5720TIP3    H117166   1.701   0.022   5.077
 5720TIP3    H217167   1.590   0.060   4.981
 5721TIP3   OH217168   2.151   5.628   0.350
 5721TIP3    H117169   2.138   5.546   0.304
 5721TIP3    H217170   2.176   5.602   0.439
 5722TIP3   OH217171   1.271   5.578   0.640
 5722TIP3    H117172   1.359   5.587   0.605
 5722TIP3    H217173   1.260   5.483   0.654
 5723TIP3   OH217174   3.621   5.046   2.202
 5723TIP3    H117175   3.670   5.106   2.147
 5723TIP3    H217176   3.611   5.092   2.286
 5724TIP3   OH217177   2.206   1.084   4.799
 5724TIP3    H117178   2.198   1.176   4.774
 5724TIP3    H217179   2.124   1.044   4.772
 5725TIP3   OH217180   4.314   3.330   4.754
 5725TIP3    H117181   4.262   3.306   4.677
 5725TIP3    H217182   4.375   3.257   4.766
 5726TIP3   OH217183   6.249   2.639   3.967
 5726TIP3    H117184   6.272   2.549   3.989
 5726TIP3    H217185   6.331   2.678   3.938
 5727TIP3   OH217186   5.491   4.056   2.274
 5727TIP3    H117187   5.530   3.972   2.249
 5727TIP3    H217188   5.408   4.059   2.226
 5728TIP3   OH217189   5.370   5.640   3.959
 5728TIP3    H117190   5.410   5.621   3.874
 5728TIP3    H217191   5.443   5.644   4.020
 5729TIP3   OH217192   1.602   0.281   0.317
 5729TIP3    H117193   1.665   0.293   0.388
 5729TIP3    H217194   1.517   0.292   0.358
 5730TIP3   OH217195   4.758   1.455   2.231
 5730TIP3    H117196   4.803   1.374   2.255
 5730TIP3    H217197   4.666   1.429   2.223
 5731TIP3   OH217198   3.651   3.703   3.986
 5731TIP3    H117199   3.680   3.775   4.042
 5731TIP3    H217200   3.729   3.679   3.936
 5732TIP3   OH217201   1.377   4.006   4.470
 5732TIP3    H117202   1.417   3.976   4.389
 5732TIP3    H217203   1.419   4.090   4.488
 5733TIP3   OH217204   4.507   5.397   3.070
 5733TIP3    H117205   4.508   5.481   3.023
 5733TIP3    H217206   4.588   5.354   3.044
 5734TIP3   OH217207   2.598   5.563   0.212
 5734TIP3    H117208   2.582   5.479   0.255
 5734TIP3    H217209   2.684   5.591   0.245
 5735TIP3   OH217210   5.083   4.636   0.340
 5735TIP3    H117211   5.176   4.660   0.339
 5735TIP3    H217212   5.037   4.720   0.342
 5736TIP3   OH217213   4.759   3.561   4.796
 5736TIP3    H117214   4.793   3.477   4.766
 5736TIP3    H217215   4.796   3.625   4.736
 5737TIP3   OH217216   2.804   4.670   2.950
 5737TIP3    H117217   2.814   4.740   2.886
 5737TIP3    H217218   2.717   4.633   2.933
 5738TIP3   OH217219   4.601   4.800   4.322
 5738TIP3    H117220   4.694   4.796   4.303
 5738TIP3    H217221   4.597   4.823   4.415
 5739TIP3   OH217222   4.053   3.496   2.532
 5739TIP3    H117223   3.957   3.503   2.527
 5739TIP3    H217224   4.078   3.564   2.595
 5740TIP3   OH217225   0.757   0.234   0.997
 5740TIP3    H117226   0.666   0.256   1.018
 5740TIP3    H217227   0.797   0.220   1.083
 5741TIP3   OH217228   3.093   5.036   2.985
 5741TIP3    H117229   3.136   5.121   2.994
 5741TIP3    H217230   3.160   4.972   3.010
 5742TIP3   OH217231   5.653   4.949   2.721
 5742TIP3    H117232   5.623   5.039   2.716
 5742TIP3    H217233   5.587   4.904   2.774
 5743TIP3   OH217234   1.037   1.293   0.289
 5743TIP3    H117235   1.095   1.301   0.214
 5743TIP3    H217236   0.991   1.210   0.275
 5744TIP3   OH217237   5.873   4.776   3.521
 5744TIP3    H117238   5.791   4.727   3.510
 5744TIP3    H217239   5.941   4.709   3.521
 5745TIP3   OH217240   6.278   3.367   0.609
 5745TIP3    H117241   6.273   3.463   0.605
 5745TIP3    H217242   6.187   3.339   0.619
 5746TIP3   OH217243   3.612   2.282   2.633
 5746TIP3    H117244   3.617   2.201   2.582
 5746TIP3    H217245   3.631   2.351   2.570
 5747TIP3   OH217246   2.737   4.906   1.359
 5747TIP3    H117247   2.801   4.977   1.367
 5747TIP3    H217248   2.696   4.921   1.274
 5748TIP3   OH217249   3.985   0.659   1.828
 5748TIP3    H117250   3.963   0.745   1.863
 5748TIP3    H217251   4.075   0.668   1.797
 5749TIP3   OH217252   1.370   1.747   1.291
 5749TIP3    H117253   1.334   1.680   1.233
 5749TIP3    H217254   1.338   1.829   1.255
 5750TIP3   OH217255   5.568   4.601   0.266
 5750TIP3    H117256   5.503   4.619   0.198
 5750TIP3    H217257   5.647   4.576   0.217
 5751TIP3   OH217258   6.083   2.496   1.005
 5751TIP3    H117259   6.044   2.411   0.989
 5751TIP3    H217260   6.033   2.556   0.949
 5752TIP3   OH217261   3.584   5.251   0.290
 5752TIP3    H117262   3.629   5.224   0.370
 5752TIP3    H217263   3.608   5.186   0.225
 5753TIP3   OH217264   0.807   3.196   2.883
 5753TIP3    H117265   0.877   3.136   2.856
 5753TIP3    H217266   0.847   3.249   2.952
 5754TIP3   OH217267   4.866   5.447   0.408
 5754TIP3    H117268   4.887   5.453   0.502
 5754TIP3    H217269   4.918   5.517   0.368
 5755TIP3   OH217270   4.015   1.918   0.805
 5755TIP3    H117271   4.066   1.855   0.753
 5755TIP3    H217272   3.984   1.982   0.741
 5756TIP3   OH217273   4.028   5.522   1.940
 5756TIP3    H117274   4.074   5.439   1.923
 5756TIP3    H217275   3.943   5.511   1.898
 5757TIP3   OH217276   1.699   3.621   0.451
 5757TIP3    H117277   1.716   3.640   0.544
 5757TIP3    H217278   1.631   3.683   0.426
 5758TIP3   OH217279   3.864   3.136   0.603
 5758TIP3    H117280   3.932   3.070   0.616
 5758TIP3    H217281   3.842   3.131   0.510
 5759TIP3   OH217282   2.546   1.626   0.631
 5759TIP3    H117283   2.517   1.641   0.721
 5759TIP3    H217284   2.514   1.538   0.610
 5760TIP3   OH217285   3.914   3.905   0.747
 5760TIP3    H117286   3.863   3.985   0.730
 5760TIP3    H217287   3.959   3.888   0.664
 5761TIP3   OH217288   5.381   4.570   2.842
 5761TIP3    H117289   5.430   4.650   2.864
 5761TIP3    H217290   5.370   4.575   2.747
 5762TIP3   OH217291   1.944   2.775   3.291
 5762TIP3    H117292   1.907   2.764   3.379
 5762TIP3    H217293   1.980   2.689   3.269
 5763TIP3   OH217294   2.081   0.857   5.127
 5763TIP3    H117295   2.126   0.781   5.091
 5763TIP3    H217296   1.989   0.829   5.134
 5764TIP3   OH217297   6.168   5.586   5.126
 5764TIP3    H117298   6.169   5.559   5.218
 5764TIP3    H217299   6.082   5.558   5.094
 5765TIP3   OH217300   3.358   3.327   3.763
 5765TIP3    H117301   3.406   3.390   3.816
 5765TIP3    H217302   3.389   3.242   3.792
 5766TIP3   OH217303   0.838   4.548   2.176
 5766TIP3    H117304   0.862   4.614   2.111
 5766TIP3    H217305   0.906   4.554   2.243
 5767TIP3   OH217306   0.674   2.613   0.204
 5767TIP3    H117307   0.587   2.619   0.165
 5767TIP3    H217308   0.657   2.585   0.295
 5768TIP3   OH217309   1.364   5.581   4.755
 5768TIP3    H117310   1.322   5.509   4.706
 5768TIP3    H217311   1.307   5.656   4.738
 5769TIP3   OH217312   1.075   5.457   4.323
 5769TIP3    H117313   1.054   5.550   4.321
 5769TIP3    H217314   1.011   5.419   4.384
 5770TIP3   OH217315   2.101   5.120   3.089
 5770TIP3    H117316   2.136   5.031   3.099
 5770TIP3    H217317   2.053   5.137   3.170
 5771TIP3   OH217318   2.622   5.362   3.610
 5771TIP3    H117319   2.606   5.282   3.560
 5771TIP3    H217320   2.555   5.423   3.579
 5772TIP3   OH217321   2.890   2.939   1.467
 5772TIP3    H117322   2.927   2.893   1.391
 5772TIP3    H217323   2.795   2.929   1.458
 5773TIP3   OH217324   2.724   1.953   2.147
 5773TIP3    H117325   2.703   2.036   2.188
 5773TIP3    H217326   2.639   1.911   2.133
 5774TIP3   OH217327   4.155   1.479   3.407
 5774TIP3    H117328   4.097   1.539   3.361
 5774TIP3    H217329   4.209   1.440   3.338
 5775TIP3   OH217330   0.469   3.261   1.693
 5775TIP3    H117331   0.556   3.236   1.661
 5775TIP3    H217332   0.464   3.222   1.780
 5776TIP3   OH217333   2.786   3.201   3.391
 5776TIP3    H117334   2.801   3.293   3.413
 5776TIP3    H217335   2.861   3.176   3.338
 5777TIP3   OH217336   3.753   5.031   1.773
 5777TIP3    H117337   3.822   5.090   1.746
 5777TIP3    H217338   3.770   5.015   1.866
 5778TIP3   OH217339   5.170   4.733   3.336
 5778TIP3    H117340   5.255   4.753   3.375
 5778TIP3    H217341   5.106   4.769   3.398
 5779TIP3   OH217342   4.668   3.641   1.172
 5779TIP3    H117343   4.679   3.549   1.195
 5779TIP3    H217344   4.740   3.685   1.217
 5780TIP3   OH217345   5.330   1.952   0.032
 5780TIP3    H117346   5.380   2.031   0.054
 5780TIP3    H217347   5.367   1.923  -0.051
 5781TIP3   OH217348   1.886   5.234   1.784
 5781TIP3    H117349   1.859   5.301   1.721
 5781TIP3    H217350   1.975   5.210   1.757
 5782TIP3   OH217351   5.896   2.486   3.489
 5782TIP3    H117352   5.884   2.438   3.407
 5782TIP3    H217353   5.926   2.573   3.462
 5783TIP3   OH217354   1.971   5.709   2.846
 5783TIP3    H117355   1.969   5.671   2.934
 5783TIP3    H217356   2.029   5.785   2.854
 5784TIP3   OH217357   2.831   1.026   1.126
 5784TIP3    H117358   2.919   1.063   1.128
 5784TIP3    H217359   2.806   1.020   1.218
 5785TIP3   OH217360   5.829   1.666   4.079
 5785TIP3    H117361   5.902   1.696   4.023
 5785TIP3    H217362   5.832   1.571   4.072
 5786TIP3   OH217363   4.162   5.287   3.383
 5786TIP3    H117364   4.088   5.333   3.345
 5786TIP3    H217365   4.237   5.346   3.368
 5787TIP3   OH217366   6.024   5.352   4.589
 5787TIP3    H117367   5.943   5.328   4.634
 5787TIP3    H217368   6.082   5.382   4.658
 5788TIP3   OH217369   0.555   4.891   2.913
 5788TIP3    H117370   0.525   4.978   2.939
 5788TIP3    H217371   0.479   4.835   2.927
 5789TIP3   OH217372   1.765   4.256   4.216
 5789TIP3    H117373   1.853   4.239   4.182
 5789TIP3    H217374   1.756   4.195   4.290
 5790TIP3   OH217375   4.632   1.636   5.062
 5790TIP3    H117376   4.661   1.726   5.073
 5790TIP3    H217377   4.545   1.644   5.023
 5791TIP3   OH217378   4.024   0.881   3.095
 5791TIP3    H117379   3.992   0.796   3.126
 5791TIP3    H217380   3.987   0.944   3.157
 5792TIP3   OH217381   0.146   1.653   3.834
 5792TIP3    H117382   0.223   1.699   3.867
 5792TIP3    H217383   0.153   1.659   3.739
 5793TIP3   OH217384   2.813   4.535   3.200
 5793TIP3    H117385   2.752   4.569   3.265
 5793TIP3    H217386   2.792   4.582   3.119
 5794TIP3   OH217387   2.471   5.750   2.418
 5794TIP3    H117388   2.379   5.749   2.445
 5794TIP3    H217389   2.512   5.681   2.470
 5795TIP3   OH217390   1.706   5.019   1.467
 5795TIP3    H117391   1.665   5.095   1.426
 5795TIP3    H217392   1.798   5.045   1.479
 5796TIP3   OH217393   4.168   2.502   2.398
 5796TIP3    H117394   4.135   2.545   2.319
 5796TIP3    H217395   4.161   2.408   2.379
 5797TIP3   OH217396   4.145   4.754   4.862
 5797TIP3    H117397   4.193   4.775   4.942
 5797TIP3    H217398   4.200   4.788   4.791
 5798TIP3   OH217399   0.196   1.306   0.390
 5798TIP3    H117400   0.251   1.274   0.319
 5798TIP3    H217401   0.203   1.239   0.458
 5799TIP3   OH217402   2.183   4.831   3.723
 5799TIP3    H117403   2.256   4.887   3.749
 5799TIP3    H217404   2.112   4.891   3.702
 5800TIP3   OH217405   4.069   4.206   4.764
 5800TIP3    H117406   4.120   4.262   4.705
 5800TIP3    H217407   4.133   4.143   4.798
 5801TIP3   OH217408   2.224   4.602   3.089
 5801TIP3    H117409   2.147   4.581   3.141
 5801TIP3    H217410   2.197   4.587   2.998
 5802TIP3   OH217411   5.403   3.100   3.747
 5802TIP3    H117412   5.331   3.045   3.718
 5802TIP3    H217413   5.360   3.178   3.784
 5803TIP3   OH217414   5.791   0.815   1.912
 5803TIP3    H117415   5.704   0.854   1.900
 5803TIP3    H217416   5.846   0.863   1.850
 5804TIP3   OH217417   5.311   4.457   3.553
 5804TIP3    H117418   5.286   4.456   3.645
 5804TIP3    H217419   5.345   4.545   3.538
 5805TIP3   OH217420   4.219   2.836   5.083
 5805TIP3    H117421   4.303   2.882   5.085
 5805TIP3    H217422   4.160   2.895   5.036
 5806TIP3   OH217423   1.870   2.108   1.947
 5806TIP3    H117424   1.955   2.153   1.939
 5806TIP3    H217425   1.807   2.179   1.962
 5807TIP3   OH217426   0.449   0.839   4.521
 5807TIP3    H117427   0.539   0.845   4.554
 5807TIP3    H217428   0.408   0.922   4.544
 5808TIP3   OH217429   4.266   2.717   0.540
 5808TIP3    H117430   4.214   2.647   0.578
 5808TIP3    H217431   4.325   2.673   0.479
 5809TIP3   OH217432   3.177   2.751   1.539
 5809TIP3    H117433   3.186   2.837   1.498
 5809TIP3    H217434   3.106   2.709   1.492
 5810TIP3   OH217435   0.510   4.656   5.028
 5810TIP3    H117436   0.581   4.689   5.083
 5810TIP3    H217437   0.486   4.572   5.067
 5811TIP3   OH217438   1.408   4.864   5.010
 5811TIP3    H117439   1.437   4.894   4.924
 5811TIP3    H217440   1.313   4.860   5.004
 5812TIP3   OH217441   2.371   1.943   1.949
 5812TIP3    H117442   2.275   1.933   1.950
 5812TIP3    H217443   2.405   1.855   1.960
 5813TIP3   OH217444   2.159   4.845   4.068
 5813TIP3    H117445   2.078   4.847   4.119
 5813TIP3    H217446   2.157   4.924   4.015
 5814TIP3   OH217447   2.852   3.798   0.030
 5814TIP3    H117448   2.919   3.835  -0.028
 5814TIP3    H217449   2.811   3.729  -0.022
 5815TIP3   OH217450   2.440   5.584   5.023
 5815TIP3    H117451   2.501   5.521   5.061
 5815TIP3    H217452   2.356   5.539   5.024
 5816TIP3   OH217453   2.302   3.375   2.900
 5816TIP3    H117454   2.391   3.340   2.893
 5816TIP3    H217455   2.295   3.436   2.826
 5817TIP3   OH217456   6.180   0.144   0.704
 5817TIP3    H117457   6.262   0.097   0.687
 5817TIP3    H217458   6.206   0.214   0.765
 5818TIP3   OH217459   2.796   0.085   4.479
 5818TIP3    H117460   2.855   0.054   4.547
 5818TIP3    H217461   2.714   0.103   4.525
 5819TIP3   OH217462   2.954   3.555   2.829
 5819TIP3    H117463   2.999   3.486   2.878
 5819TIP3    H217464   2.921   3.511   2.751
 5820TIP3   OH217465   1.922   0.765   1.358
 5820TIP3    H117466   1.997   0.767   1.417
 5820TIP3    H217467   1.960   0.771   1.271
 5821TIP3   OH217468   5.124   1.221   0.707
 5821TIP3    H117469   5.029   1.225   0.694
 5821TIP3    H217470   5.154   1.309   0.685
 5822TIP3   OH217471   6.140   4.143   2.165
 5822TIP3    H117472   6.226   4.127   2.205
 5822TIP3    H217473   6.154   4.128   2.072
 5823TIP3   OH217474   2.090   0.804   2.652
 5823TIP3    H117475   2.064   0.875   2.593
 5823TIP3    H217476   2.061   0.724   2.607
 5824TIP3   OH217477   5.593   3.934   3.513
 5824TIP3    H117478   5.595   4.029   3.525
 5824TIP3    H217479   5.511   3.918   3.466
 5825TIP3   OH217480   5.730   0.475   1.143
 5825TIP3    H117481   5.823   0.494   1.148
 5825TIP3    H217482   5.696   0.536   1.077
 5826TIP3   OH217483   1.129   4.473   1.843
 5826TIP3    H117484   1.055   4.504   1.790
 5826TIP3    H217485   1.096   4.395   1.887
 5827TIP3   OH217486   2.695   5.910   2.564
 5827TIP3    H117487   2.631   5.912   2.493
 5827TIP3    H217488   2.758   5.979   2.543
 5828TIP3   OH217489   2.995   1.687   2.379
 5828TIP3    H117490   2.994   1.667   2.472
 5828TIP3    H217491   3.087   1.678   2.354
 5829TIP3   OH217492   1.697   3.765   2.561
 5829TIP3    H117493   1.666   3.766   2.471
 5829TIP3    H217494   1.618   3.752   2.614
 5830TIP3   OH217495   4.932   4.323   3.935
 5830TIP3    H117496   4.872   4.258   3.970
 5830TIP3    H217497   4.957   4.288   3.849
 5831TIP3   OH217498   5.726   5.028   1.439
 5831TIP3    H117499   5.773   5.111   1.433
 5831TIP3    H217500   5.785   4.970   1.488
 5832TIP3   OH217501   0.310   2.075   2.860
 5832TIP3    H117502   0.312   1.980   2.873
 5832TIP3    H217503   0.397   2.104   2.888
 5833TIP3   OH217504   4.932   0.957   4.544
 5833TIP3    H117505   4.912   0.987   4.632
 5833TIP3    H217506   4.984   1.028   4.506
 5834TIP3   OH217507   0.302   3.343   4.787
 5834TIP3    H117508   0.388   3.376   4.762
 5834TIP3    H217509   0.259   3.418   4.828
 5835TIP3   OH217510   3.020   5.504   0.765
 5835TIP3    H117511   3.102   5.504   0.815
 5835TIP3    H217512   3.047   5.488   0.674
 5836TIP3   OH217513   1.453   5.184   4.245
 5836TIP3    H117514   1.502   5.266   4.236
 5836TIP3    H217515   1.435   5.158   4.155
 5837TIP3   OH217516   4.694   3.931   3.737
 5837TIP3    H117517   4.789   3.918   3.734
 5837TIP3    H217518   4.675   3.948   3.829
 5838TIP3   OH217519   4.105   3.022   3.268
 5838TIP3    H117520   4.059   2.959   3.212
 5838TIP3    H217521   4.099   3.105   3.220
 5839TIP3   OH217522   3.089   1.361   1.037
 5839TIP3    H117523   3.141   1.397   0.966
 5839TIP3    H217524   3.130   1.395   1.117
 5840TIP3   OH217525   6.151   0.639   0.904
 5840TIP3    H117526   6.181   0.553   0.877
 5840TIP3    H217527   6.226   0.677   0.950
 5841TIP3   OH217528   4.602   5.470   0.008
 5841TIP3    H117529   4.547   5.468   0.085
 5841TIP3    H217530   4.543   5.494  -0.064
 5842TIP3   OH217531   3.222   5.961   1.285
 5842TIP3    H117532   3.151   5.929   1.340
 5842TIP3    H217533   3.256   5.882   1.242
 5843TIP3   OH217534   5.818   0.255   0.900
 5843TIP3    H117535   5.761   0.316   0.948
 5843TIP3    H217536   5.775   0.244   0.815
 5844TIP3   OH217537   3.347   0.406   1.540
 5844TIP3    H117538   3.395   0.351   1.601
 5844TIP3    H217539   3.413   0.466   1.505
 5845TIP3   OH217540   2.512   3.810   4.438
 5845TIP3    H117541   2.434   3.786   4.488
 5845TIP3    H217542   2.478   3.850   4.358
 5846TIP3   OH217543   0.442   4.417   5.157
 5846TIP3    H117544   0.400   4.386   5.237
 5846TIP3    H217545   0.528   4.376   5.158
 5847TIP3   OH217546   2.769   3.245   4.693
 5847TIP3    H117547   2.854   3.279   4.666
 5847TIP3    H217548   2.761   3.270   4.786
 5848TIP3   OH217549   0.952   2.526   2.797
 5848TIP3    H117550   0.942   2.510   2.891
 5848TIP3    H217551   1.038   2.491   2.776
 5849TIP3   OH217552   4.630   0.525   1.780
 5849TIP3    H117553   4.675   0.441   1.780
 5849TIP3    H217554   4.539   0.504   1.803
 5850TIP3   OH217555   1.858   2.275   0.693
 5850TIP3    H117556   1.791   2.216   0.659
 5850TIP3    H217557   1.941   2.234   0.671
 5851TIP3   OH217558   1.560   0.944   5.053
 5851TIP3    H117559   1.499   0.872   5.070
 5851TIP3    H217560   1.571   0.987   5.138
 5852TIP3   OH217561   1.899   4.790   3.337
 5852TIP3    H117562   1.808   4.770   3.315
 5852TIP3    H217563   1.907   4.884   3.322
 5853TIP3   OH217564   3.918   4.060   1.628
 5853TIP3    H117565   3.896   3.988   1.569
 5853TIP3    H217566   3.835   4.083   1.670
 5854TIP3   OH217567   1.188   4.516   4.294
 5854TIP3    H117568   1.201   4.425   4.266
 5854TIP3    H217569   1.230   4.568   4.225
 5855TIP3   OH217570   6.317   1.346   2.042
 5855TIP3    H117571   6.224   1.321   2.044
 5855TIP3    H217572   6.358   1.279   1.987
 5856TIP3   OH217573   3.757   4.479   3.949
 5856TIP3    H117574   3.720   4.482   3.860
 5856TIP3    H217575   3.791   4.390   3.957
 5857TIP3   OH217576   2.240   4.479   5.085
 5857TIP3    H117577   2.276   4.391   5.093
 5857TIP3    H217578   2.243   4.514   5.174
 5858TIP3   OH217579   3.232   1.241   2.998
 5858TIP3    H117580   3.182   1.215   3.075
 5858TIP3    H217581   3.314   1.276   3.032
 5859TIP3   OH217582   2.835   4.983   3.674
 5859TIP3    H117583   2.765   4.919   3.658
 5859TIP3    H217584   2.831   4.999   3.769
 5860TIP3   OH217585   5.482   1.803   0.427
 5860TIP3    H117586   5.492   1.893   0.397
 5860TIP3    H217587   5.447   1.756   0.352
 5861TIP3   OH217588   5.861   1.160   0.067
 5861TIP3    H117589   5.918   1.226   0.030
 5861TIP3    H217590   5.862   1.088   0.004
 5862TIP3   OH217591   3.214   2.530   3.407
 5862TIP3    H117592   3.165   2.549   3.487
 5862TIP3    H217593   3.304   2.554   3.428
 5863TIP3   OH217594   5.535   1.160   1.405
 5863TIP3    H117595   5.452   1.202   1.429
 5863TIP3    H217596   5.524   1.136   1.313
 5864TIP3   OH217597   4.942   4.769   3.528
 5864TIP3    H117598   4.933   4.786   3.622
 5864TIP3    H217599   4.926   4.675   3.520
 5865TIP3   OH217600   6.092   3.081   3.520
 5865TIP3    H117601   6.086   3.083   3.615
 5865TIP3    H217602   6.179   3.046   3.502
 5866TIP3   OH217603   5.630   4.200   2.871
 5866TIP3    H117604   5.696   4.243   2.817
 5866TIP3    H217605   5.628   4.250   2.952
 5867TIP3   OH217606   1.812   2.959   0.984
 5867TIP3    H117607   1.765   3.041   0.995
 5867TIP3    H217608   1.866   2.950   1.062
 5868TIP3   OH217609   0.892   4.435   4.402
 5868TIP3    H117610   0.799   4.458   4.402
 5868TIP3    H217611   0.904   4.386   4.484
 5869TIP3   OH217612   0.130   1.668   2.318
 5869TIP3    H117613   0.164   1.757   2.309
 5869TIP3    H217614   0.170   1.634   2.398
 5870TIP3   OH217615   5.477   3.374   2.665
 5870TIP3    H117616   5.503   3.295   2.618
 5870TIP3    H217617   5.426   3.343   2.740
 5871TIP3   OH217618   1.848   2.764   4.196
 5871TIP3    H117619   1.863   2.857   4.175
 5871TIP3    H217620   1.924   2.719   4.160
 5872TIP3   OH217621   3.714   0.805   3.792
 5872TIP3    H117622   3.704   0.890   3.834
 5872TIP3    H217623   3.650   0.748   3.837
 5873TIP3   OH217624   3.999   3.368   4.786
 5873TIP3    H117625   3.982   3.445   4.732
 5873TIP3    H217626   4.077   3.391   4.837
 5874TIP3   OH217627   2.874   0.537   2.359
 5874TIP3    H117628   2.919   0.569   2.437
 5874TIP3    H217629   2.805   0.480   2.393
 5875TIP3   OH217630   5.126   5.046   3.827
 5875TIP3    H117631   5.083   5.128   3.852
 5875TIP3    H217632   5.209   5.047   3.874
 5876TIP3   OH217633   0.431   4.211   0.866
 5876TIP3    H117634   0.409   4.238   0.777
 5876TIP3    H217635   0.477   4.286   0.904
 5877TIP3   OH217636   4.341   3.407   2.914
 5877TIP3    H117637   4.346   3.392   3.008
 5877TIP3    H217638   4.289   3.486   2.904
 5878TIP3   OH217639   4.267   4.008   4.824
 5878TIP3    H117640   4.311   4.072   4.880
 5878TIP3    H217641   4.327   3.995   4.751
 5879TIP3   OH217642   3.808   2.401   1.060
 5879TIP3    H117643   3.857   2.329   1.101
 5879TIP3    H217644   3.716   2.380   1.077
 5880TIP3   OH217645   0.548   5.743   3.328
 5880TIP3    H117646   0.617   5.745   3.261
 5880TIP3    H217647   0.513   5.832   3.328
 5881TIP3   OH217648   5.620   0.667   0.935
 5881TIP3    H117649   5.665   0.633   0.858
 5881TIP3    H217650   5.527   0.654   0.916
 5882TIP3   OH217651   5.241   2.292   4.551
 5882TIP3    H117652   5.215   2.201   4.565
 5882TIP3    H217653   5.334   2.288   4.530
 5883TIP3   OH217654   2.123   5.822   2.305
 5883TIP3    H117655   2.029   5.828   2.287
 5883TIP3    H217656   2.160   5.780   2.227
 5884TIP3   OH217657   2.066   5.310   0.817
 5884TIP3    H117658   1.980   5.325   0.777
 5884TIP3    H217659   2.046   5.285   0.908
 5885TIP3   OH217660   4.691   5.099   5.081
 5885TIP3    H117661   4.681   5.014   5.038
 5885TIP3    H217662   4.612   5.147   5.057
 5886TIP3   OH217663   6.067   0.240   1.039
 5886TIP3    H117664   5.987   0.286   1.015
 5886TIP3    H217665   6.087   0.269   1.128
 5887TIP3   OH217666   0.091   5.166   0.615
 5887TIP3    H117667   0.108   5.135   0.526
 5887TIP3    H217668   0.176   5.163   0.658
 5888TIP3   OH217669   2.604   0.738   1.324
 5888TIP3    H117670   2.623   0.767   1.414
 5888TIP3    H217671   2.588   0.819   1.276
 5889TIP3   OH217672   4.424   2.859   3.550
 5889TIP3    H117673   4.458   2.910   3.624
 5889TIP3    H217674   4.465   2.773   3.559
 5890TIP3   OH217675   4.146   5.297   1.870
 5890TIP3    H117676   4.173   5.279   1.780
 5890TIP3    H217677   4.198   5.235   1.922
 5891TIP3   OH217678   4.630   2.107   4.320
 5891TIP3    H117679   4.673   2.021   4.328
 5891TIP3    H217680   4.656   2.139   4.234
 5892TIP3   OH217681   4.351   4.540   1.389
 5892TIP3    H117682   4.345   4.621   1.337
 5892TIP3    H217683   4.262   4.505   1.389
 5893TIP3   OH217684   5.759   2.135   5.050
 5893TIP3    H117685   5.675   2.118   5.008
 5893TIP3    H217686   5.822   2.135   4.977
 5894TIP3   OH217687   5.901   0.820   4.399
 5894TIP3    H117688   5.927   0.782   4.315
 5894TIP3    H217689   5.872   0.746   4.452
 5895TIP3   OH217690   2.620   4.695   4.641
 5895TIP3    H117691   2.637   4.765   4.578
 5895TIP3    H217692   2.619   4.615   4.589
 5896TIP3   OH217693   3.668   1.418   2.039
 5896TIP3    H117694   3.606   1.353   2.071
 5896TIP3    H217695   3.696   1.385   1.954
 5897TIP3   OH217696   3.632   0.548   2.942
 5897TIP3    H117697   3.673   0.634   2.930
 5897TIP3    H217698   3.670   0.494   2.873
 5898TIP3   OH217699   0.825   0.659   0.057
 5898TIP3    H117700   0.875   0.674   0.137
 5898TIP3    H217701   0.810   0.747   0.021
 5899TIP3   OH217702   2.036   2.174   1.441
 5899TIP3    H117703   1.997   2.260   1.454
 5899TIP3    H217704   2.114   2.175   1.496
 5900TIP3   OH217705   4.641   4.179   3.884
 5900TIP3    H117706   4.642   4.258   3.830
 5900TIP3    H217707   4.561   4.187   3.937
 5901TIP3   OH217708   5.647   1.803   3.346
 5901TIP3    H117709   5.651   1.789   3.441
 5901TIP3    H217710   5.727   1.853   3.326
 5902TIP3   OH217711   0.970   2.739   0.837
 5902TIP3    H117712   1.037   2.804   0.858
 5902TIP3    H217713   0.917   2.781   0.769
 5903TIP3   OH217714   3.977   4.637   3.980
 5903TIP3    H117715   3.887   4.606   3.972
 5903TIP3    H217716   4.028   4.572   3.932
 5904TIP3   OH217717   6.134   1.722   3.365
 5904TIP3    H117718   6.120   1.807   3.323
 5904TIP3    H217719   6.217   1.691   3.328
 5905TIP3   OH217720   6.169   0.841   3.491
 5905TIP3    H117721   6.220   0.778   3.543
 5905TIP3    H217722   6.095   0.791   3.457
 5906TIP3   OH217723   2.612   2.742   1.661
 5906TIP3    H117724   2.624   2.802   1.735
 5906TIP3    H217725   2.637   2.794   1.584
 5907TIP3   OH217726   5.694   0.751   4.844
 5907TIP3    H117727   5.668   0.814   4.911
 5907TIP3    H217728   5.728   0.805   4.772
 5908TIP3   OH217729   1.833   0.405   0.816
 5908TIP3    H117730   1.764   0.468   0.833
 5908TIP3    H217731   1.914   0.454   0.825
 5909TIP3   OH217732   3.749   1.210   0.541
 5909TIP3    H117733   3.804   1.287   0.528
 5909TIP3    H217734   3.673   1.243   0.588
 5910TIP3   OH217735   1.927   1.123   4.719
 5910TIP3    H117736   1.859   1.190   4.719
 5910TIP3    H217737   1.976   1.139   4.637
 5911TIP3   OH217738   4.333   1.393   3.804
 5911TIP3    H117739   4.278   1.400   3.882
 5911TIP3    H217740   4.346   1.299   3.793
 5912TIP3   OH217741   6.063   3.938   2.844
 5912TIP3    H117742   6.088   3.887   2.921
 5912TIP3    H217743   6.022   4.017   2.880
 5913TIP3   OH217744   0.703   0.739   2.015
 5913TIP3    H117745   0.651   0.662   2.034
 5913TIP3    H217746   0.664   0.808   2.068
 5914TIP3   OH217747   0.687   2.582   3.273
 5914TIP3    H117748   0.641   2.504   3.242
 5914TIP3    H217749   0.659   2.651   3.213
 5915TIP3   OH217750   0.951   5.930   0.540
 5915TIP3    H117751   0.875   5.949   0.486
 5915TIP3    H217752   0.915   5.901   0.624
 5916TIP3   OH217753   3.016   2.015   1.927
 5916TIP3    H117754   3.102   2.001   1.966
 5916TIP3    H217755   2.967   1.936   1.949
 5917TIP3   OH217756   6.003   4.410   1.475
 5917TIP3    H117757   5.999   4.484   1.415
 5917TIP3    H217758   5.953   4.438   1.552
 5918TIP3   OH217759   1.411   3.343   4.267
 5918TIP3    H117760   1.495   3.361   4.226
 5918TIP3    H217761   1.404   3.409   4.337
 5919TIP3   OH217762   4.008   3.067   3.829
 5919TIP3    H117763   4.032   2.982   3.792
 5919TIP3    H217764   3.950   3.106   3.763
 5920TIP3   OH217765   1.599   5.121   2.791
 5920TIP3    H117766   1.589   5.053   2.725
 5920TIP3    H217767   1.510   5.141   2.819
 5921TIP3   OH217768   6.047   3.402   2.661
 5921TIP3    H117769   6.010   3.363   2.582
 5921TIP3    H217770   5.983   3.382   2.729
 5922TIP3   OH217771   3.888   1.817   2.927
 5922TIP3    H117772   3.836   1.801   3.006
 5922TIP3    H217773   3.897   1.912   2.923
 5923TIP3   OH217774   3.144   4.437   5.063
 5923TIP3    H117775   3.189   4.476   5.137
 5923TIP3    H217776   3.164   4.344   5.068
 5924TIP3   OH217777   0.883   2.223   2.620
 5924TIP3    H117778   0.924   2.208   2.705
 5924TIP3    H217779   0.867   2.135   2.585
 5925TIP3   OH217780   5.929   1.833   1.113
 5925TIP3    H117781   5.934   1.781   1.032
 5925TIP3    H217782   6.013   1.819   1.156
 5926TIP3   OH217783   1.878   2.451   4.572
 5926TIP3    H117784   1.853   2.506   4.647
 5926TIP3    H217785   1.810   2.384   4.568
 5927TIP3   OH217786   4.314   0.690   4.443
 5927TIP3    H117787   4.374   0.652   4.379
 5927TIP3    H217788   4.298   0.620   4.506
 5928TIP3   OH217789   0.893   0.414   2.197
 5928TIP3    H117790   0.931   0.491   2.240
 5928TIP3    H217791   0.966   0.352   2.191
 5929TIP3   OH217792   4.675   2.345   3.235
 5929TIP3    H117793   4.623   2.372   3.310
 5929TIP3    H217794   4.679   2.423   3.179
 5930TIP3   OH217795   4.869   4.091   1.124
 5930TIP3    H117796   4.882   4.010   1.173
 5930TIP3    H217797   4.927   4.154   1.167
 5931TIP3   OH217798   1.082   2.014   0.379
 5931TIP3    H117799   1.063   1.946   0.444
 5931TIP3    H217800   1.019   1.998   0.309
 5932TIP3   OH217801   2.575   0.834   5.155
 5932TIP3    H117802   2.620   0.907   5.198
 5932TIP3    H217803   2.539   0.872   5.075
 5933TIP3   OH217804   2.183   1.578   2.621
 5933TIP3    H117805   2.248   1.528   2.573
 5933TIP3    H217806   2.149   1.641   2.558
 5934TIP3   OH217807   5.063   4.471   2.005
 5934TIP3    H117808   4.996   4.404   1.998
 5934TIP3    H217809   5.023   4.550   1.968
 5935TIP3   OH217810   1.797   1.378   4.636
 5935TIP3    H117811   1.862   1.418   4.579
 5935TIP3    H217812   1.740   1.450   4.663
 5936TIP3   OH217813   4.095   1.153   1.250
 5936TIP3    H117814   4.085   1.097   1.327
 5936TIP3    H217815   4.020   1.130   1.194
 5937TIP3   OH217816   1.075   0.982   2.938
 5937TIP3    H117817   1.073   0.936   2.854
 5937TIP3    H217818   1.168   0.988   2.961
 5938TIP3   OH217819   2.534   5.521   4.520
 5938TIP3    H117820   2.534   5.425   4.511
 5938TIP3    H217821   2.550   5.537   4.613
 5939TIP3   OH217822   6.019   0.445   0.693
 5939TIP3    H117823   6.069   0.394   0.756
 5939TIP3    H217824   6.081   0.465   0.623
 5940TIP3   OH217825   0.563   5.117   4.913
 5940TIP3    H117826   0.543   5.195   4.964
 5940TIP3    H217827   0.516   5.131   4.830
 5941TIP3   OH217828   2.940   0.387   4.164
 5941TIP3    H117829   2.938   0.445   4.088
 5941TIP3    H217830   3.031   0.358   4.171
 5942TIP3   OH217831   3.711  -0.035   0.239
 5942TIP3    H117832   3.788  -0.023   0.184
 5942TIP3    H217833   3.738  -0.003   0.325
 5943TIP3   OH217834   3.805   3.571   0.380
 5943TIP3    H117835   3.755   3.524   0.313
 5943TIP3    H217836   3.793   3.519   0.460
 5944TIP3   OH217837   3.348   3.377   1.964
 5944TIP3    H117838   3.316   3.288   1.950
 5944TIP3    H217839   3.274   3.433   1.938
 5945TIP3   OH217840   5.216   2.071   3.260
 5945TIP3    H117841   5.292   2.015   3.247
 5945TIP3    H217842   5.194   2.104   3.173
 5946TIP3   OH217843   4.616   5.157   1.830
 5946TIP3    H117844   4.641   5.184   1.742
 5946TIP3    H217845   4.675   5.205   1.888
 5947TIP3   OH217846   3.366   2.317   2.786
 5947TIP3    H117847   3.370   2.343   2.694
 5947TIP3    H217848   3.443   2.262   2.799
 5948TIP3   OH217849   5.121   5.222   4.171
 5948TIP3    H117850   5.132   5.126   4.172
 5948TIP3    H217851   5.206   5.255   4.201
 5949TIP3   OH217852   2.951   0.425   0.894
 5949TIP3    H117853   2.896   0.407   0.970
 5949TIP3    H217854   3.007   0.349   0.886
 5950TIP3   OH217855   4.621   3.345   0.349
 5950TIP3    H117856   4.560   3.313   0.282
 5950TIP3    H217857   4.622   3.276   0.415
 5951TIP3   OH217858   1.819   5.014   2.973
 5951TIP3    H117859   1.743   5.034   2.920
 5951TIP3    H217860   1.868   5.096   2.977
 5952TIP3   OH217861   3.018   2.324   2.181
 5952TIP3    H117862   3.004   2.230   2.171
 5952TIP3    H217863   3.002   2.360   2.093
 5953TIP3   OH217864   5.100   3.649   1.059
 5953TIP3    H117865   5.179   3.704   1.056
 5953TIP3    H217866   5.089   3.619   0.969
 5954TIP3   OH217867   4.451   2.895   4.674
 5954TIP3    H117868   4.492   2.815   4.641
 5954TIP3    H217869   4.433   2.947   4.596
 5955TIP3   OH217870   1.868   2.931   3.898
 5955TIP3    H117871   1.918   2.852   3.919
 5955TIP3    H217872   1.934   2.992   3.864
 5956TIP3   OH217873   2.712   3.414   1.681
 5956TIP3    H117874   2.679   3.340   1.631
 5956TIP3    H217875   2.775   3.375   1.742
 5957TIP3   OH217876   1.021  -0.055   1.032
 5957TIP3    H117877   1.111  -0.028   1.012
 5957TIP3    H217878   0.984   0.021   1.077
 5958TIP3   OH217879   2.949   2.187   3.858
 5958TIP3    H117880   2.998   2.190   3.940
 5958TIP3    H217881   2.873   2.244   3.874
 5959TIP3   OH217882   3.020   0.845   2.748
 5959TIP3    H117883   2.977   0.899   2.814
 5959TIP3    H217884   3.074   0.906   2.698
 5960TIP3   OH217885   3.918   2.539   4.303
 5960TIP3    H117886   3.899   2.447   4.320
 5960TIP3    H217887   3.969   2.567   4.379
 5961TIP3   OH217888   5.793   1.311   1.944
 5961TIP3    H117889   5.706   1.290   1.976
 5961TIP3    H217890   5.783   1.392   1.895
 5962TIP3   OH217891   1.444   5.407   3.820
 5962TIP3    H117892   1.465   5.421   3.912
 5962TIP3    H217893   1.456   5.313   3.807
 5963TIP3   OH217894   0.141   4.072   3.389
 5963TIP3    H117895   0.211   4.106   3.334
 5963TIP3    H217896   0.184   4.010   3.448
 5964TIP3   OH217897   4.523   3.258   1.634
 5964TIP3    H117898   4.576   3.256   1.714
 5964TIP3    H217899   4.440   3.296   1.661
 5965TIP3   OH217900   2.801   3.526   4.502
 5965TIP3    H117901   2.724   3.471   4.508
 5965TIP3    H217902   2.773   3.602   4.450
 5966TIP3   OH217903   0.581   4.281   0.214
 5966TIP3    H117904   0.524   4.313   0.144
 5966TIP3    H217905   0.660   4.250   0.168
 5967TIP3   OH217906   5.930   3.203   1.516
 5967TIP3    H117907   5.926   3.192   1.421
 5967TIP3    H217908   6.015   3.244   1.532
 5968TIP3   OH217909   3.063   4.497   3.742
 5968TIP3    H117910   3.037   4.587   3.763
 5968TIP3    H217911   2.981   4.449   3.736
 5969TIP3   OH217912   0.859   2.478   1.465
 5969TIP3    H117913   0.839   2.476   1.371
 5969TIP3    H217914   0.774   2.464   1.508
 5970TIP3   OH217915   5.996   0.083   1.926
 5970TIP3    H117916   6.085   0.048   1.927
 5970TIP3    H217917   6.000   0.154   1.862
 5971TIP3   OH217918   3.207   5.771   3.690
 5971TIP3    H117919   3.297   5.797   3.672
 5971TIP3    H217920   3.184   5.712   3.619
 5972TIP3   OH217921   3.633   5.537   5.029
 5972TIP3    H117922   3.581   5.617   5.042
 5972TIP3    H217923   3.709   5.549   5.087
 5973TIP3   OH217924   5.154   2.578   2.902
 5973TIP3    H117925   5.226   2.520   2.924
 5973TIP3    H217926   5.154   2.644   2.972
 5974TIP3   OH217927   0.774   5.731   3.479
 5974TIP3    H117928   0.694   5.714   3.429
 5974TIP3    H217929   0.748   5.798   3.543
 5975TIP3   OH217930   1.864   2.204   3.296
 5975TIP3    H117931   1.890   2.283   3.248
 5975TIP3    H217932   1.768   2.209   3.300
 5976TIP3   OH217933   3.271   2.078   3.987
 5976TIP3    H117934   3.255   2.151   4.047
 5976TIP3    H217935   3.350   2.036   4.021
 5977TIP3   OH217936   1.194   5.681   1.645
 5977TIP3    H117937   1.181   5.710   1.735
 5977TIP3    H217938   1.124   5.723   1.595
 5978TIP3   OH217939   0.040   3.737   0.755
 5978TIP3    H117940   0.041   3.725   0.850
 5978TIP3    H217941   0.058   3.831   0.743
 5979TIP3   OH217942   5.160   0.701   4.089
 5979TIP3    H117943   5.175   0.612   4.122
 5979TIP3    H217944   5.182   0.695   3.996
 5980TIP3   OH217945   5.538   0.416   0.714
 5980TIP3    H117946   5.493   0.454   0.789
 5980TIP3    H217947   5.471   0.363   0.669
 5981TIP3   OH217948   1.534   5.211   0.137
 5981TIP3    H117949   1.602   5.146   0.155
 5981TIP3    H217950   1.507   5.192   0.047
 5982TIP3   OH217951   4.817   1.255   4.213
 5982TIP3    H117952   4.779   1.319   4.152
 5982TIP3    H217953   4.910   1.252   4.189
 5983TIP3   OH217954   4.794   3.288   4.726
 5983TIP3    H117955   4.703   3.259   4.719
 5983TIP3    H217956   4.842   3.230   4.667
 5984TIP3   OH217957   4.062   5.746   1.455
 5984TIP3    H117958   4.109   5.784   1.529
 5984TIP3    H217959   4.127   5.690   1.412
 5985TIP3   OH217960   6.009   2.961   3.001
 5985TIP3    H117961   6.030   2.971   2.908
 5985TIP3    H217962   6.005   3.050   3.034
 5986TIP3   OH217963   4.948   2.915   5.002
 5986TIP3    H117964   4.910   2.828   4.987
 5986TIP3    H217965   5.023   2.919   4.943
 5987TIP3   OH217966   2.846   1.416   1.151
 5987TIP3    H117967   2.934   1.405   1.116
 5987TIP3    H217968   2.859   1.425   1.246
 5988TIP3   OH217969   0.300   2.843   2.377
 5988TIP3    H117970   0.300   2.850   2.282
 5988TIP3    H217971   0.392   2.828   2.400
 5989TIP3   OH217972   2.439   3.116   5.006
 5989TIP3    H117973   2.467   3.077   4.923
 5989TIP3    H217974   2.344   3.121   5.000
 5990TIP3   OH217975   3.334   3.270   0.638
 5990TIP3    H117976   3.280   3.214   0.581
 5990TIP3    H217977   3.424   3.252   0.611
 5991TIP3   OH217978   6.166   5.724   1.854
 5991TIP3    H117979   6.081   5.695   1.886
 5991TIP3    H217980   6.185   5.804   1.903
 5992TIP3   OH217981   0.897   2.123   3.161
 5992TIP3    H117982   0.864   2.134   3.250
 5992TIP3    H217983   0.893   2.029   3.145
 5993TIP3   OH217984   3.478   2.956   4.125
 5993TIP3    H117985   3.489   2.862   4.113
 5993TIP3    H217986   3.565   2.988   4.147
 5994TIP3   OH217987   2.701   4.863   2.776
 5994TIP3    H117988   2.618   4.906   2.758
 5994TIP3    H217989   2.747   4.862   2.692
 5995TIP3   OH217990   3.789   1.007   2.364
 5995TIP3    H117991   3.808   0.920   2.329
 5995TIP3    H217992   3.777   1.062   2.287
 5996TIP3   OH217993   2.902   2.403   3.356
 5996TIP3    H117994   2.886   2.489   3.395
 5996TIP3    H217995   2.821   2.354   3.373
 5997TIP3   OH217996   5.344   3.220   4.291
 5997TIP3    H117997   5.286   3.144   4.283
 5997TIP3    H217998   5.383   3.229   4.204
 5998TIP3   OH217999   1.732   2.325   0.366
 5998TIP3    H118000   1.662   2.371   0.414
 5998TIP3    H218001   1.811   2.375   0.386
 5999TIP3   OH218002   2.035   4.319   3.595
 5999TIP3    H118003   2.042   4.408   3.563
 5999TIP3    H218004   2.062   4.264   3.522
 6000TIP3   OH218005   1.631   4.485   0.509
 6000TIP3    H118006   1.660   4.549   0.575
 6000TIP3    H218007   1.697   4.416   0.513
 6001TIP3   OH218008   4.161   1.762   2.868
 6001TIP3    H118009   4.152   1.667   2.860
 6001TIP3    H218010   4.074   1.792   2.894
 6002TIP3   OH218011   3.290   1.821   1.263
 6002TIP3    H118012   3.377   1.842   1.228
 6002TIP3    H218013   3.247   1.906   1.272
 6003TIP3   OH218014   5.307   1.862   1.225
 6003TIP3    H118015   5.311   1.800   1.152
 6003TIP3    H218016   5.213   1.873   1.242
 6004TIP3   OH218017   3.842   5.260   4.354
 6004TIP3    H118018   3.876   5.338   4.310
 6004TIP3    H218019   3.860   5.188   4.295
 6005TIP3   OH218020   1.753   4.051   3.489
 6005TIP3    H118021   1.659   4.034   3.496
 6005TIP3    H218022   1.791   4.009   3.567
 6006TIP3   OH218023   3.696   4.418   0.637
 6006TIP3    H118024   3.785   4.448   0.621
 6006TIP3    H218025   3.668   4.380   0.554
 6007TIP3   OH218026   1.530   0.364   2.430
 6007TIP3    H118027   1.615   0.350   2.471
 6007TIP3    H218028   1.541   0.444   2.379
 6008TIP3   OH218029   2.095   2.715   2.532
 6008TIP3    H118030   2.088   2.752   2.620
 6008TIP3    H218031   2.004   2.700   2.505
 6009TIP3   OH218032   4.877   0.896   3.912
 6009TIP3    H118033   4.867   0.920   3.820
 6009TIP3    H218034   4.933   0.818   3.911
 6010TIP3   OH218035   3.808   1.299   1.095
 6010TIP3    H118036   3.733   1.249   1.062
 6010TIP3    H218037   3.880   1.236   1.095
 6011TIP3   OH218038   3.545   3.413   3.952
 6011TIP3    H118039   3.512   3.378   4.035
 6011TIP3    H218040   3.593   3.492   3.977
 6012TIP3   OH218041   4.463   3.771   1.429
 6012TIP3    H118042   4.520   3.722   1.369
 6012TIP3    H218043   4.434   3.846   1.378
 6013TIP3   OH218044   0.830   4.610   0.311
 6013TIP3    H118045   0.913   4.594   0.355
 6013TIP3    H218046   0.792   4.684   0.358
 6014TIP3   OH218047   1.356   0.162   4.603
 6014TIP3    H118048   1.402   0.220   4.543
 6014TIP3    H218049   1.386   0.074   4.580
 6015TIP3   OH218050   5.299   4.152   4.059
 6015TIP3    H118051   5.233   4.086   4.080
 6015TIP3    H218052   5.289   4.166   3.965
 6016TIP3   OH218053   2.569   4.877   2.262
 6016TIP3    H118054   2.600   4.834   2.342
 6016TIP3    H218055   2.623   4.839   2.193
 6017TIP3   OH218056   4.161   2.551   3.473
 6017TIP3    H118057   4.167   2.458   3.451
 6017TIP3    H218058   4.213   2.596   3.406
 6018TIP3   OH218059   2.125   2.189   0.183
 6018TIP3    H118060   2.042   2.150   0.209
 6018TIP3    H218061   2.101   2.266   0.132
 6019TIP3   OH218062   5.842   4.639   4.485
 6019TIP3    H118063   5.793   4.712   4.524
 6019TIP3    H218064   5.857   4.579   4.558
 6020TIP3   OH218065   0.762   0.149   3.491
 6020TIP3    H118066   0.693   0.213   3.505
 6020TIP3    H218067   0.840   0.188   3.530
 6021TIP3   OH218068   2.279   3.979   1.035
 6021TIP3    H118069   2.329   3.902   1.008
 6021TIP3    H218070   2.208   3.944   1.089
 6022TIP3   OH218071   4.377   0.885   4.659
 6022TIP3    H118072   4.341   0.832   4.730
 6022TIP3    H218073   4.328   0.858   4.582
 6023TIP3   OH218074   0.273   3.353   1.919
 6023TIP3    H118075   0.311   3.405   1.848
 6023TIP3    H218076   0.342   3.290   1.942
 6024TIP3   OH218077   2.428   2.011   4.964
 6024TIP3    H118078   2.462   1.949   4.900
 6024TIP3    H218079   2.390   2.081   4.912
 6025TIP3   OH218080   5.385   2.120   1.535
 6025TIP3    H118081   5.413   2.099   1.446
 6025TIP3    H218082   5.374   2.034   1.577
 6026TIP3   OH218083   3.413   5.887   2.090
 6026TIP3    H118084   3.383   5.818   2.149
 6026TIP3    H218085   3.387   5.856   2.003
 6027TIP3   OH218086   3.082   3.163   2.258
 6027TIP3    H118087   3.158   3.127   2.212
 6027TIP3    H218088   3.111   3.169   2.349
 6028TIP3   OH218089   2.294   4.063   3.776
 6028TIP3    H118090   2.283   4.158   3.784
 6028TIP3    H218091   2.337   4.051   3.692
 6029TIP3   OH218092   5.048   4.536   2.713
 6029TIP3    H118093   5.116   4.589   2.672
 6029TIP3    H218094   4.988   4.600   2.751
 6030TIP3   OH218095   5.192   5.457   3.529
 6030TIP3    H118096   5.194   5.552   3.518
 6030TIP3    H218097   5.217   5.442   3.620
 6031TIP3   OH218098   0.073   1.826   0.293
 6031TIP3    H118099   0.103   1.868   0.213
 6031TIP3    H218100   0.152   1.789   0.332
 6032TIP3   OH218101   0.103   0.954   4.378
 6032TIP3    H118102   0.153   0.873   4.370
 6032TIP3    H218103   0.012   0.927   4.373
 6033TIP3   OH218104   3.786   5.687   2.766
 6033TIP3    H118105   3.734   5.759   2.800
 6033TIP3    H218106   3.853   5.729   2.713
 6034TIP3   OH218107   6.214   2.699   2.946
 6034TIP3    H118108   6.308   2.693   2.930
 6034TIP3    H218109   6.208   2.724   3.038
 6035TIP3   OH218110   5.448   4.199   1.026
 6035TIP3    H118111   5.451   4.295   1.032
 6035TIP3    H218112   5.356   4.178   1.014
 6036TIP3   OH218113   3.407   4.647   4.009
 6036TIP3    H118114   3.413   4.572   3.951
 6036TIP3    H218115   3.493   4.651   4.052
 6037TIP3   OH218116   1.821   3.527   2.471
 6037TIP3    H118117   1.897   3.501   2.523
 6037TIP3    H218118   1.794   3.611   2.507
 6038TIP3   OH218119   3.661   0.002   3.043
 6038TIP3    H118120   3.585  -0.046   3.010
 6038TIP3    H218121   3.627   0.089   3.064
 6039TIP3   OH218122   1.624   1.146   0.524
 6039TIP3    H118123   1.640   1.070   0.469
 6039TIP3    H218124   1.554   1.193   0.480
 6040TIP3   OH218125   3.479   2.917   2.221
 6040TIP3    H118126   3.431   2.911   2.138
 6040TIP3    H218127   3.553   2.857   2.210
 6041TIP3   OH218128   5.268   3.871   2.702
 6041TIP3    H118129   5.225   3.841   2.622
 6041TIP3    H218130   5.277   3.966   2.690
 6042TIP3   OH218131   2.795   1.704   4.700
 6042TIP3    H118132   2.825   1.697   4.609
 6042TIP3    H218133   2.871   1.736   4.748
 6043TIP3   OH218134   1.067   1.476   0.885
 6043TIP3    H118135   1.061   1.390   0.927
 6043TIP3    H218136   1.114   1.460   0.804
 6044TIP3   OH218137   5.698   0.380   4.333
 6044TIP3    H118138   5.664   0.336   4.256
 6044TIP3    H218139   5.789   0.353   4.340
 6045TIP3   OH218140   4.332   5.338   1.655
 6045TIP3    H118141   4.347   5.422   1.612
 6045TIP3    H218142   4.361   5.351   1.745
 6046TIP3   OH218143   3.752   4.145   3.848
 6046TIP3    H118144   3.799   4.064   3.827
 6046TIP3    H218145   3.799   4.181   3.923
 6047TIP3   OH218146   0.295   2.570   2.364
 6047TIP3    H118147   0.388   2.588   2.364
 6047TIP3    H218148   0.253   2.656   2.354
 6048TIP3   OH218149   0.685   1.962   0.078
 6048TIP3    H118150   0.655   2.003  -0.004
 6048TIP3    H218151   0.661   2.026   0.146
 6049TIP3   OH218152   4.292   3.559   0.165
 6049TIP3    H118153   4.327   3.647   0.173
 6049TIP3    H218154   4.211   3.560   0.216
 6050TIP3   OH218155   4.755   1.539   2.529
 6050TIP3    H118156   4.753   1.465   2.468
 6050TIP3    H218157   4.736   1.615   2.475
 6051TIP3   OH218158   5.347   5.353   3.752
 6051TIP3    H118159   5.277   5.336   3.816
 6051TIP3    H218160   5.428   5.344   3.803
 6052TIP3   OH218161   3.476   5.284   3.516
 6052TIP3    H118162   3.457   5.245   3.431
 6052TIP3    H218163   3.571   5.281   3.524
 6053TIP3   OH218164   3.857   2.070   1.254
 6053TIP3    H118165   3.884   2.135   1.320
 6053TIP3    H218166   3.914   1.995   1.270
 6054TIP3   OH218167   3.129   5.200   1.222
 6054TIP3    H118168   3.075   5.255   1.164
 6054TIP3    H218169   3.072   5.183   1.297
 6055TIP3   OH218170   5.444   0.616   2.125
 6055TIP3    H118171   5.438   0.543   2.063
 6055TIP3    H218172   5.354   0.629   2.155
 6056TIP3   OH218173   0.110   4.196   4.270
 6056TIP3    H118174   0.112   4.198   4.366
 6056TIP3    H218175   0.063   4.116   4.248
 6057TIP3   OH218176   2.804   3.493   4.937
 6057TIP3    H118177   2.737   3.511   5.003
 6057TIP3    H218178   2.882   3.470   4.988
 6058TIP3   OH218179   1.214   0.938   2.472
 6058TIP3    H118180   1.307   0.916   2.481
 6058TIP3    H218181   1.198   0.932   2.378
 6059TIP3   OH218182   0.941   3.355   4.589
 6059TIP3    H118183   0.888   3.307   4.525
 6059TIP3    H218184   1.017   3.386   4.538
 6060TIP3   OH218185   0.608   3.689   2.186
 6060TIP3    H118186   0.529   3.635   2.185
 6060TIP3    H218187   0.680   3.626   2.179
 6061TIP3   OH218188   4.711   4.110   2.425
 6061TIP3    H118189   4.677   4.157   2.501
 6061TIP3    H218190   4.806   4.121   2.430
 6062TIP3   OH218191   4.966   0.463   0.977
 6062TIP3    H118192   4.887   0.503   1.014
 6062TIP3    H218193   5.003   0.412   1.049
 6063TIP3   OH218194   2.546   4.278   0.591
 6063TIP3    H118195   2.587   4.346   0.538
 6063TIP3    H218196   2.453   4.288   0.575
 6064TIP3   OH218197   2.230   5.140   4.435
 6064TIP3    H118198   2.264   5.147   4.346
 6064TIP3    H218199   2.237   5.228   4.471
 6065TIP3   OH218200   5.751   2.128   3.523
 6065TIP3    H118201   5.660   2.105   3.504
 6065TIP3    H218202   5.796   2.044   3.531
 6066TIP3   OH218203   6.003   0.467   3.498
 6066TIP3    H118204   5.946   0.538   3.528
 6066TIP3    H218205   6.083   0.512   3.469
 6067TIP3   OH218206   5.360   1.582   5.021
 6067TIP3    H118207   5.442   1.629   5.011
 6067TIP3    H218208   5.365   1.544   5.109
 6068TIP3   OH218209   2.092   2.263   1.914
 6068TIP3    H118210   2.133   2.337   1.959
 6068TIP3    H218211   2.022   2.303   1.862
 6069TIP3   OH218212   4.895   0.944   2.694
 6069TIP3    H118213   4.937   0.892   2.763
 6069TIP3    H218214   4.802   0.929   2.705
 6070TIP3   OH218215   0.964   1.847   4.114
 6070TIP3    H118216   1.014   1.820   4.191
 6070TIP3    H218217   1.029   1.882   4.053
 6071TIP3   OH218218   3.632   0.361   3.667
 6071TIP3    H118219   3.619   0.439   3.719
 6071TIP3    H218220   3.572   0.370   3.593
 6072TIP3   OH218221   4.783   0.307   3.342
 6072TIP3    H118222   4.710   0.350   3.297
 6072TIP3    H218223   4.746   0.225   3.375
 6073TIP3   OH218224   4.422   0.312   3.466
 6073TIP3    H118225   4.394   0.400   3.490
 6073TIP3    H218226   4.518   0.315   3.475
 6074TIP3   OH218227   1.004   3.774   1.316
 6074TIP3    H118228   0.980   3.683   1.332
 6074TIP3    H218229   0.970   3.793   1.229
 6075TIP3   OH218230   1.203   4.536   1.522
 6075TIP3    H118231   1.224   4.489   1.603
 6075TIP3    H218232   1.185   4.625   1.550
 6076TIP3   OH218233   2.162   3.150   3.994
 6076TIP3    H118234   2.171   3.105   3.910
 6076TIP3    H218235   2.195   3.086   4.058
 6077TIP3   OH218236   0.703   2.419   2.717
 6077TIP3    H118237   0.706   2.514   2.722
 6077TIP3    H218238   0.794   2.392   2.723
 6078TIP3   OH218239   2.854   4.987   4.720
 6078TIP3    H118240   2.795   5.023   4.787
 6078TIP3    H218241   2.941   4.992   4.759
 6079TIP3   OH218242   1.010   2.838   4.632
 6079TIP3    H118243   1.023   2.744   4.644
 6079TIP3    H218244   0.915   2.848   4.629
 6080TIP3   OH218245   4.975   5.566   1.955
 6080TIP3    H118246   5.051   5.510   1.973
 6080TIP3    H218247   4.940   5.587   2.042
 6081TIP3   OH218248   5.389   4.997   1.984
 6081TIP3    H118249   5.318   4.982   2.046
 6081TIP3    H218250   5.417   5.087   1.999
 6082TIP3   OH218251   4.229   0.426   2.369
 6082TIP3    H118252   4.149   0.379   2.346
 6082TIP3    H218253   4.300   0.374   2.329
 6083TIP3   OH218254   2.981   4.129   4.010
 6083TIP3    H118255   2.893   4.167   4.001
 6083TIP3    H218256   2.970   4.037   3.987
 6084TIP3   OH218257   0.989   1.993   3.767
 6084TIP3    H118258   0.911   2.048   3.757
 6084TIP3    H218259   1.037   2.005   3.685
 6085TIP3   OH218260   0.977   5.036   1.921
 6085TIP3    H118261   1.028   5.116   1.906
 6085TIP3    H218262   0.972   4.994   1.835
 6086TIP3   OH218263   0.145   3.624   1.945
 6086TIP3    H118264   0.167   3.656   1.857
 6086TIP3    H218265   0.151   3.529   1.938
 6087TIP3   OH218266   6.281   0.959   2.817
 6087TIP3    H118267   6.337   0.886   2.793
 6087TIP3    H218268   6.331   1.008   2.882
 6088TIP3   OH218269   4.110   0.276   0.498
 6088TIP3    H118270   4.139   0.367   0.484
 6088TIP3    H218271   4.175   0.240   0.558
 6089TIP3   OH218272   0.415   3.375   2.951
 6089TIP3    H118273   0.331   3.413   2.928
 6089TIP3    H218274   0.394   3.285   2.976
 6090TIP3   OH218275   1.640   5.600   3.227
 6090TIP3    H118276   1.654   5.547   3.306
 6090TIP3    H218277   1.715   5.579   3.171
 6091TIP3   OH218278   4.467   5.544   0.231
 6091TIP3    H118279   4.472   5.532   0.326
 6091TIP3    H218280   4.377   5.573   0.215
 6092TIP3   OH218281   6.278   1.672   4.014
 6092TIP3    H118282   6.331   1.620   4.075
 6092TIP3    H218283   6.333   1.682   3.937
 6093TIP3   OH218284   1.218   2.504   1.523
 6093TIP3    H118285   1.146   2.446   1.549
 6093TIP3    H218286   1.196   2.588   1.564
 6094TIP3   OH218287   4.477   0.420   0.380
 6094TIP3    H118288   4.529   0.393   0.305
 6094TIP3    H218289   4.387   0.424   0.346
 6095TIP3   OH218290   6.237   5.411   0.990
 6095TIP3    H118291   6.272   5.407   0.901
 6095TIP3    H218292   6.269   5.494   1.025
 6096TIP3   OH218293   1.478   2.541   1.484
 6096TIP3    H118294   1.387   2.565   1.501
 6096TIP3    H218295   1.478   2.445   1.487
 6097TIP3   OH218296   2.326   4.191   1.194
 6097TIP3    H118297   2.243   4.171   1.239
 6097TIP3    H218298   2.327   4.134   1.118
 6098TIP3   OH218299   0.718   0.481   0.858
 6098TIP3    H118300   0.646   0.526   0.902
 6098TIP3    H218301   0.727   0.398   0.905
 6099TIP3   OH218302   5.944   3.297   3.745
 6099TIP3    H118303   5.883   3.345   3.801
 6099TIP3    H218304   5.944   3.345   3.662
 6100TIP3   OH218305   1.663   0.656   0.093
 6100TIP3    H118306   1.706   0.571   0.090
 6100TIP3    H218307   1.732   0.717   0.121
 6101TIP3   OH218308   4.129   2.176   1.635
 6101TIP3    H118309   4.183   2.159   1.712
 6101TIP3    H218310   4.051   2.122   1.649
 6102TIP3   OH218311   0.618   2.613   4.637
 6102TIP3    H118312   0.620   2.577   4.725
 6102TIP3    H218313   0.650   2.702   4.647
 6103TIP3   OH218314   3.662   3.907   5.076
 6103TIP3    H118315   3.590   3.967   5.060
 6103TIP3    H218316   3.675   3.910   5.171
 6104TIP3   OH218317   1.780   0.858   3.780
 6104TIP3    H118318   1.688   0.842   3.804
 6104TIP3    H218319   1.776   0.886   3.688
 6105TIP3   OH218320   3.086   5.947   5.114
 6105TIP3    H118321   3.158   6.000   5.079
 6105TIP3    H218322   3.130   5.876   5.161
 6106TIP3   OH218323   4.208   4.443   4.934
 6106TIP3    H118324   4.149   4.484   4.997
 6106TIP3    H218325   4.174   4.469   4.848
 6107TIP3   OH218326   5.656   3.059   0.651
 6107TIP3    H118327   5.620   3.145   0.672
 6107TIP3    H218328   5.609   3.031   0.573
 6108TIP3   OH218329   1.146   1.782   4.335
 6108TIP3    H118330   1.242   1.784   4.337
 6108TIP3    H218331   1.120   1.869   4.363
 6109TIP3   OH218332   3.503   2.231   4.957
 6109TIP3    H118333   3.421   2.249   5.002
 6109TIP3    H218334   3.561   2.197   5.024
 6110TIP3   OH218335   3.362   2.402   2.492
 6110TIP3    H118336   3.330   2.312   2.500
 6110TIP3    H218337   3.343   2.427   2.402
 6111TIP3   OH218338   5.448   4.530   1.356
 6111TIP3    H118339   5.414   4.575   1.433
 6111TIP3    H218340   5.499   4.457   1.392
 6112TIP3   OH218341   0.908   1.591   0.216
 6112TIP3    H118342   1.001   1.567   0.226
 6112TIP3    H218343   0.906   1.686   0.227
 6113TIP3   OH218344   4.868   2.683   3.266
 6113TIP3    H118345   4.811   2.636   3.205
 6113TIP3    H218346   4.815   2.755   3.298
 6114TIP3   OH218347   6.298   5.406   0.734
 6114TIP3    H118348   6.324   5.315   0.722
 6114TIP3    H218349   6.245   5.426   0.657
 6115TIP3   OH218350   4.383   3.993   4.359
 6115TIP3    H118351   4.436   4.071   4.374
 6115TIP3    H218352   4.294   4.026   4.351
 6116TIP3   OH218353   1.432   4.151   0.352
 6116TIP3    H118354   1.439   4.089   0.425
 6116TIP3    H218355   1.365   4.213   0.380
 6117TIP3   OH218356   3.451   3.168   1.386
 6117TIP3    H118357   3.475   3.166   1.294
 6117TIP3    H218358   3.531   3.195   1.431
 6118TIP3   OH218359   2.763   1.814   2.995
 6118TIP3    H118360   2.858   1.803   2.999
 6118TIP3    H218361   2.749   1.908   3.009
 6119TIP3   OH218362   3.008   0.240   2.866
 6119TIP3    H118363   3.059   0.160   2.856
 6119TIP3    H218364   2.941   0.218   2.931
 6120TIP3   OH218365   6.229   4.676   2.294
 6120TIP3    H118366   6.272   4.617   2.233
 6120TIP3    H218367   6.162   4.720   2.242
 6121TIP3   OH218368   5.205   2.198   2.289
 6121TIP3    H118369   5.279   2.147   2.324
 6121TIP3    H218370   5.226   2.209   2.196
 6122TIP3   OH218371   1.681   2.593   0.212
 6122TIP3    H118372   1.733   2.643   0.149
 6122TIP3    H218373   1.590   2.610   0.187
 6123TIP3   OH218374   4.597   2.786   4.898
 6123TIP3    H118375   4.577   2.730   4.973
 6123TIP3    H218376   4.515   2.791   4.849
 6124TIP3   OH218377   0.964   2.305   0.197
 6124TIP3    H118378   1.009   2.292   0.281
 6124TIP3    H218379   0.975   2.398   0.179
 6125TIP3   OH218380   5.563   3.868   4.022
 6125TIP3    H118381   5.617   3.831   4.091
 6125TIP3    H218382   5.622   3.925   3.973
 6126TIP3   OH218383   2.111   2.153   0.633
 6126TIP3    H118384   2.168   2.091   0.588
 6126TIP3    H218385   2.165   2.231   0.647
 6127TIP3   OH218386   0.191   0.914   3.610
 6127TIP3    H118387   0.134   0.866   3.670
 6127TIP3    H218388   0.280   0.889   3.636
 6128TIP3   OH218389   0.044   5.822   3.087
 6128TIP3    H118390   0.059   5.735   3.049
 6128TIP3    H218391   0.037   5.880   3.011
 6129TIP3   OH218392   5.294   5.095   5.129
 6129TIP3    H118393   5.253   5.009   5.128
 6129TIP3    H218394   5.292   5.124   5.038
 6130TIP3   OH218395   6.032   1.748   3.905
 6130TIP3    H118396   6.115   1.725   3.947
 6130TIP3    H218397   6.034   1.704   3.820
 6131TIP3   OH218398   2.838   5.289   4.689
 6131TIP3    H118399   2.762   5.305   4.745
 6131TIP3    H218400   2.801   5.273   4.602
 6132TIP3   OH218401   5.793   2.952   2.533
 6132TIP3    H118402   5.854   2.949   2.460
 6132TIP3    H218403   5.849   2.954   2.611
 6133TIP3   OH218404   2.553   2.639   3.255
 6133TIP3    H118405   2.635   2.685   3.235
 6133TIP3    H218406   2.497   2.706   3.295
 6134TIP3   OH218407   5.043   5.517   0.179
 6134TIP3    H118408   4.967   5.483   0.132
 6134TIP3    H218409   5.042   5.611   0.161
 6135TIP3   OH218410   4.647   0.043   1.925
 6135TIP3    H118411   4.649   0.005   2.013
 6135TIP3    H218412   4.610   0.131   1.937
 6136TIP3   OH218413   3.592   0.087   1.925
 6136TIP3    H118414   3.564   0.015   1.982
 6136TIP3    H218415   3.686   0.074   1.913
 6137TIP3   OH218416   3.289   2.183   1.105
 6137TIP3    H118417   3.292   2.186   1.201
 6137TIP3    H218418   3.198   2.205   1.083
 6138TIP3   OH218419   2.903   5.571   4.129
 6138TIP3    H118420   2.884   5.492   4.179
 6138TIP3    H218421   2.857   5.559   4.046
 6139TIP3   OH218422   4.680   3.285   1.876
 6139TIP3    H118423   4.694   3.354   1.941
 6139TIP3    H218424   4.612   3.230   1.915
 6140TIP3   OH218425   1.429   2.663   0.142
 6140TIP3    H118426   1.373   2.673   0.065
 6140TIP3    H218427   1.396   2.729   0.204
 6141TIP3   OH218428   0.436   4.945   1.239
 6141TIP3    H118429   0.434   5.040   1.243
 6141TIP3    H218430   0.461   4.917   1.327
 6142TIP3   OH218431   0.011   1.858   2.979
 6142TIP3    H118432   0.103   1.841   2.958
 6142TIP3    H218433   0.009   1.949   3.007
 6143TIP3   OH218434   1.666   4.977   5.140
 6143TIP3    H118435   1.609   5.050   5.113
 6143TIP3    H218436   1.742   4.985   5.083
 6144TIP3   OH218437   2.413   3.810   1.793
 6144TIP3    H118438   2.391   3.843   1.706
 6144TIP3    H218439   2.332   3.767   1.822
 6145TIP3   OH218440   4.216   5.233   3.627
 6145TIP3    H118441   4.213   5.252   3.533
 6145TIP3    H218442   4.136   5.272   3.662
 6146TIP3   OH218443   1.105   3.445   4.387
 6146TIP3    H118444   1.114   3.360   4.344
 6146TIP3    H218445   1.052   3.498   4.326
 6147TIP3   OH218446   5.572   4.292   4.358
 6147TIP3    H118447   5.568   4.310   4.452
 6147TIP3    H218448   5.640   4.225   4.349
 6148TIP3   OH218449   1.477   1.922   0.192
 6148TIP3    H118450   1.504   1.864   0.263
 6148TIP3    H218451   1.457   2.005   0.235
 6149TIP3   OH218452   4.750   2.264   4.096
 6149TIP3    H118453   4.684   2.332   4.087
 6149TIP3    H218454   4.742   2.212   4.016
 6150TIP3   OH218455   2.285   1.801   4.567
 6150TIP3    H118456   2.271   1.887   4.527
 6150TIP3    H218457   2.280   1.740   4.493
 6151TIP3   OH218458   4.795   5.577   4.593
 6151TIP3    H118459   4.872   5.581   4.538
 6151TIP3    H218460   4.799   5.490   4.634
 6152TIP3   OH218461   4.606   3.485   2.918
 6152TIP3    H118462   4.594   3.574   2.883
 6152TIP3    H218463   4.517   3.451   2.927
 6153TIP3   OH218464   4.699   0.662   0.632
 6153TIP3    H118465   4.676   0.678   0.540
 6153TIP3    H218466   4.713   0.749   0.669
 6154TIP3   OH218467   2.726   1.056   0.883
 6154TIP3    H118468   2.735   0.969   0.844
 6154TIP3    H218469   2.747   1.043   0.975
 6155TIP3   OH218470   5.307   4.770   1.531
 6155TIP3    H118471   5.268   4.802   1.612
 6155TIP3    H218472   5.373   4.836   1.508
 6156TIP3   OH218473   2.325   2.451   4.501
 6156TIP3    H118474   2.257   2.479   4.440
 6156TIP3    H218475   2.277   2.428   4.581
 6157TIP3   OH218476   3.458   5.437   4.166
 6157TIP3    H118477   3.369   5.408   4.146
 6157TIP3    H218478   3.492   5.372   4.227
 6158TIP3   OH218479   2.308   5.373   3.323
 6158TIP3    H118480   2.286   5.430   3.249
 6158TIP3    H218481   2.384   5.323   3.293
 6159TIP3   OH218482   0.967   2.078   5.089
 6159TIP3    H118483   0.997   2.130   5.014
 6159TIP3    H218484   0.883   2.042   5.060
 6160TIP3   OH218485   3.444   2.307   0.328
 6160TIP3    H118486   3.360   2.285   0.368
 6160TIP3    H218487   3.510   2.277   0.390
 6161TIP3   OH218488   6.169   6.031   4.640
 6161TIP3    H118489   6.087   5.983   4.631
 6161TIP3    H218490   6.228   5.989   4.577
 6162TIP3   OH218491   0.023   0.083   3.417
 6162TIP3    H118492   0.095   0.122   3.467
 6162TIP3    H218493  -0.046   0.149   3.419
 6163TIP3   OH218494   3.526   3.716   2.499
 6163TIP3    H118495   3.572   3.632   2.493
 6163TIP3    H218496   3.472   3.709   2.577
 6164TIP3   OH218497   5.952   4.090   0.476
 6164TIP3    H118498   5.966   4.141   0.556
 6164TIP3    H218499   5.856   4.084   0.469
 6165TIP3   OH218500   4.195   4.954   4.642
 6165TIP3    H118501   4.228   5.041   4.622
 6165TIP3    H218502   4.104   4.968   4.669
 6166TIP3   OH218503   3.496   3.085   2.965
 6166TIP3    H118504   3.434   3.014   2.982
 6166TIP3    H218505   3.548   3.056   2.891
 6167TIP3   OH218506   3.945   1.457   1.520
 6167TIP3    H118507   3.914   1.547   1.524
 6167TIP3    H218508   4.026   1.462   1.470
 6168TIP3   OH218509   1.499   2.879   3.334
 6168TIP3    H118510   1.439   2.817   3.292
 6168TIP3    H218511   1.488   2.960   3.283
 6169TIP3   OH218512   2.440   4.583   1.613
 6169TIP3    H118513   2.505   4.616   1.551
 6169TIP3    H218514   2.477   4.604   1.699
 6170TIP3   OH218515   5.380   0.100   2.265
 6170TIP3    H118516   5.455   0.156   2.244
 6170TIP3    H218517   5.405   0.014   2.234
 6171TIP3   OH218518   1.358   3.715   2.164
 6171TIP3    H118519   1.351   3.786   2.101
 6171TIP3    H218520   1.445   3.677   2.148
 6172TIP3   OH218521   1.596   4.828   4.004
 6172TIP3    H118522   1.537   4.766   3.961
 6172TIP3    H218523   1.541   4.905   4.021
 6173TIP3   OH218524   1.743   4.846   2.399
 6173TIP3    H118525   1.817   4.805   2.445
 6173TIP3    H218526   1.779   4.872   2.314
 6174TIP3   OH218527   1.394   3.387   1.457
 6174TIP3    H118528   1.313   3.345   1.427
 6174TIP3    H218529   1.418   3.340   1.537
 6175TIP3   OH218530   4.197   0.076   3.278
 6175TIP3    H118531   4.123   0.117   3.232
 6175TIP3    H218532   4.267   0.143   3.275
 6176TIP3   OH218533   3.901   1.537   1.029
 6176TIP3    H118534   3.864   1.453   1.056
 6176TIP3    H218535   3.968   1.515   0.965
 6177TIP3   OH218536   1.670   2.618   3.233
 6177TIP3    H118537   1.711   2.684   3.176
 6177TIP3    H218538   1.599   2.664   3.276
 6178TIP3   OH218539   5.774   4.934   0.549
 6178TIP3    H118540   5.830   5.003   0.585
 6178TIP3    H218541   5.810   4.853   0.585
 6179TIP3   OH218542   3.695   1.521   4.186
 6179TIP3    H118543   3.676   1.483   4.272
 6179TIP3    H218544   3.732   1.449   4.135
 6180TIP3   OH218545   1.515   4.263   1.361
 6180TIP3    H118546   1.501   4.202   1.289
 6180TIP3    H218547   1.541   4.208   1.435
 6181TIP3   OH218548   0.560   4.803   3.664
 6181TIP3    H118549   0.581   4.713   3.639
 6181TIP3    H218550   0.516   4.840   3.587
 6182TIP3   OH218551   1.278   4.305   3.914
 6182TIP3    H118552   1.193   4.322   3.872
 6182TIP3    H218553   1.267   4.218   3.954
 6183TIP3   OH218554   5.833   3.047   3.742
 6183TIP3    H118555   5.862   3.138   3.740
 6183TIP3    H218556   5.889   3.004   3.806
 6184TIP3   OH218557   5.573   1.613   0.006
 6184TIP3    H118558   5.592   1.524   0.036
 6184TIP3    H218559   5.509   1.647   0.069
 6185TIP3   OH218560   6.051   3.851   4.751
 6185TIP3    H118561   6.093   3.850   4.837
 6185TIP3    H218562   6.047   3.759   4.725
 6186TIP3   OH218563   0.247   3.955   4.543
 6186TIP3    H118564   0.166   4.003   4.555
 6186TIP3    H218565   0.283   3.990   4.461
 6187TIP3   OH218566   2.551   1.880   4.352
 6187TIP3    H118567   2.553   1.908   4.260
 6187TIP3    H218568   2.643   1.873   4.377
 6188TIP3   OH218569   5.903   2.539   3.752
 6188TIP3    H118570   5.808   2.534   3.758
 6188TIP3    H218571   5.924   2.509   3.663
 6189TIP3   OH218572   5.738   5.404   3.684
 6189TIP3    H118573   5.765   5.368   3.600
 6189TIP3    H218574   5.653   5.446   3.666
 6190TIP3   OH218575   6.209   0.635   2.440
 6190TIP3    H118576   6.260   0.608   2.516
 6190TIP3    H218577   6.147   0.700   2.475
 6191TIP3   OH218578   0.280   2.177   2.554
 6191TIP3    H118579   0.241   2.093   2.582
 6191TIP3    H218580   0.347   2.152   2.491
 6192TIP3   OH218581   4.024   1.867   1.350
 6192TIP3    H118582   4.018   1.777   1.319
 6192TIP3    H218583   4.115   1.877   1.378
 6193TIP3   OH218584   1.700   3.189   1.023
 6193TIP3    H118585   1.749   3.248   1.079
 6193TIP3    H218586   1.609   3.197   1.054
 6194TIP3   OH218587   2.515   2.614   1.315
 6194TIP3    H118588   2.465   2.583   1.391
 6194TIP3    H218589   2.488   2.705   1.305
 6195TIP3   OH218590   3.585   3.374   2.720
 6195TIP3    H118591   3.640   3.387   2.643
 6195TIP3    H218592   3.641   3.327   2.782
 6196TIP3   OH218593   3.438   3.635   2.932
 6196TIP3    H118594   3.359   3.620   2.881
 6196TIP3    H218595   3.444   3.558   2.988
 6197TIP3   OH218596   0.857   4.158   0.839
 6197TIP3    H118597   0.908   4.203   0.771
 6197TIP3    H218598   0.788   4.113   0.791
 6198TIP3   OH218599   5.529   2.987   4.237
 6198TIP3    H118600   5.504   3.077   4.217
 6198TIP3    H218601   5.567   2.953   4.156
 6199TIP3   OH218602   1.092   1.983   2.176
 6199TIP3    H118603   1.062   1.936   2.099
 6199TIP3    H218604   1.095   1.918   2.246
 6200TIP3   OH218605   2.931   4.010   4.618
 6200TIP3    H118606   3.013   3.969   4.645
 6200TIP3    H218607   2.943   4.103   4.637
 6201TIP3   OH218608   6.321   3.841   3.965
 6201TIP3    H118609   6.415   3.833   3.951
 6201TIP3    H218610   6.313   3.869   4.056
 6202TIP3   OH218611   3.924   2.129   0.686
 6202TIP3    H118612   3.856   2.132   0.753
 6202TIP3    H218613   3.883   2.166   0.608
 6203TIP3   OH218614   2.360   1.695   4.293
 6203TIP3    H118615   2.288   1.735   4.244
 6203TIP3    H218616   2.431   1.758   4.289
 6204TIP3   OH218617   2.196   2.778   4.898
 6204TIP3    H118618   2.248   2.749   4.822
 6204TIP3    H218619   2.153   2.857   4.868
 6205TIP3   OH218620   5.174   3.944   1.327
 6205TIP3    H118621   5.197   3.993   1.406
 6205TIP3    H218622   5.257   3.924   1.285
 6206TIP3   OH218623   6.253   3.382   2.058
 6206TIP3    H118624   6.265   3.471   2.091
 6206TIP3    H218625   6.338   3.341   2.069
 6207TIP3   OH218626   0.168   4.641   0.986
 6207TIP3    H118627   0.075   4.647   0.967
 6207TIP3    H218628   0.173   4.636   1.082
 6208TIP3   OH218629   5.060   4.468   4.279
 6208TIP3    H118630   5.130   4.402   4.280
 6208TIP3    H218631   5.092   4.538   4.336
 6209TIP3   OH218632   4.146   4.633   1.115
 6209TIP3    H118633   4.125   4.709   1.060
 6209TIP3    H218634   4.232   4.604   1.085
 6210TIP3   OH218635   0.834   3.441   3.318
 6210TIP3    H118636   0.790   3.366   3.358
 6210TIP3    H218637   0.830   3.509   3.385
 6211TIP3   OH218638   2.848   1.021   1.567
 6211TIP3    H118639   2.931   1.065   1.550
 6211TIP3    H218640   2.800   1.081   1.624
 6212TIP3   OH218641   0.812   5.685   1.980
 6212TIP3    H118642   0.757   5.694   1.902
 6212TIP3    H218643   0.765   5.732   2.049
 6213TIP3   OH218644   2.654   4.368   1.899
 6213TIP3    H118645   2.720   4.438   1.896
 6213TIP3    H218646   2.653   4.333   1.810
 6214TIP3   OH218647   3.498   5.080   1.690
 6214TIP3    H118648   3.588   5.078   1.724
 6214TIP3    H218649   3.484   4.992   1.656
 6215TIP3   OH218650   4.253   4.821   4.376
 6215TIP3    H118651   4.221   4.901   4.334
 6215TIP3    H218652   4.232   4.833   4.468
 6216TIP3   OH218653   1.853   2.670   2.425
 6216TIP3    H118654   1.801   2.590   2.423
 6216TIP3    H218655   1.868   2.692   2.333
 6217TIP3   OH218656   5.003   2.017   2.856
 6217TIP3    H118657   4.938   1.998   2.924
 6217TIP3    H218658   5.052   2.092   2.890
 6218TIP3   OH218659   3.717   2.119   3.220
 6218TIP3    H118660   3.740   2.212   3.223
 6218TIP3    H218661   3.730   2.094   3.128
 6219TIP3   OH218662   4.940   3.495   2.168
 6219TIP3    H118663   4.967   3.576   2.125
 6219TIP3    H218664   4.964   3.426   2.106
 6220TIP3   OH218665   0.225   2.993   4.486
 6220TIP3    H118666   0.264   2.947   4.412
 6220TIP3    H218667   0.280   2.968   4.561
 6221TIP3   OH218668   5.206   2.993   4.254
 6221TIP3    H118669   5.188   2.979   4.161
 6221TIP3    H218670   5.250   2.913   4.282
 6222TIP3   OH218671   4.902   2.763   4.025
 6222TIP3    H118672   4.918   2.669   4.011
 6222TIP3    H218673   4.990   2.802   4.021
 6223TIP3   OH218674   0.744   0.722   2.509
 6223TIP3    H118675   0.776   0.811   2.522
 6223TIP3    H218676   0.776   0.674   2.585
 6224TIP3   OH218677   1.844   3.290   5.070
 6224TIP3    H118678   1.868   3.355   5.004
 6224TIP3    H218679   1.778   3.235   5.026
 6225TIP3   OH218680   0.243   2.664   0.979
 6225TIP3    H118681   0.229   2.756   0.959
 6225TIP3    H218682   0.330   2.660   1.018
 6226TIP3   OH218683   5.567   3.844   2.141
 6226TIP3    H118684   5.552   3.818   2.050
 6226TIP3    H218685   5.577   3.761   2.188
 6227TIP3   OH218686   3.712   5.434   3.651
 6227TIP3    H118687   3.672   5.503   3.597
 6227TIP3    H218688   3.682   5.453   3.740
 6228TIP3   OH218689   4.581   0.219   2.720
 6228TIP3    H118690   4.575   0.127   2.747
 6228TIP3    H218691   4.633   0.217   2.640
 6229TIP3   OH218692   0.501   1.838   3.607
 6229TIP3    H118693   0.415   1.880   3.603
 6229TIP3    H218694   0.513   1.816   3.700
 6230TIP3   OH218695   2.467   1.990   4.081
 6230TIP3    H118696   2.476   2.081   4.053
 6230TIP3    H218697   2.474   1.939   4.001
 6231TIP3   OH218698   0.046   1.842   1.415
 6231TIP3    H118699   0.104   1.864   1.343
 6231TIP3    H218700   0.017   1.752   1.398
 6232TIP3   OH218701   3.675   1.577   3.380
 6232TIP3    H118702   3.670   1.505   3.317
 6232TIP3    H218703   3.587   1.580   3.419
 6233TIP3   OH218704   3.561   1.224   4.512
 6233TIP3    H118705   3.647   1.236   4.552
 6233TIP3    H218706   3.531   1.139   4.544
 6234TIP3   OH218707   0.863   5.069   2.766
 6234TIP3    H118708   0.882   5.089   2.675
 6234TIP3    H218709   0.771   5.094   2.777
 6235TIP3   OH218710   0.307   3.849   3.110
 6235TIP3    H118711   0.326   3.800   3.030
 6235TIP3    H218712   0.301   3.940   3.082
 6236TIP3   OH218713   1.219   3.313   2.558
 6236TIP3    H118714   1.149   3.312   2.494
 6236TIP3    H218715   1.185   3.366   2.630
 6237TIP3   OH218716   5.175   5.719   2.162
 6237TIP3    H118717   5.120   5.698   2.237
 6237TIP3    H218718   5.156   5.812   2.144
 6238TIP3   OH218719   4.343   4.962   1.669
 6238TIP3    H118720   4.419   4.907   1.654
 6238TIP3    H218721   4.370   5.049   1.641
 6239TIP3   OH218722   4.170   4.017   1.689
 6239TIP3    H118723   4.086   4.041   1.652
 6239TIP3    H218724   4.180   3.924   1.668
 6240TIP3   OH218725   3.005   2.594   4.649
 6240TIP3    H118726   3.094   2.591   4.685
 6240TIP3    H218727   2.992   2.686   4.625
 6241TIP3   OH218728   0.103   2.279   1.821
 6241TIP3    H118729   0.117   2.208   1.883
 6241TIP3    H218730   0.026   2.253   1.771
 6242TIP3   OH218731   2.664   3.080   0.908
 6242TIP3    H118732   2.671   3.151   0.844
 6242TIP3    H218733   2.723   3.012   0.874
 6243TIP3   OH218734   2.087   3.800   4.643
 6243TIP3    H118735   2.041   3.731   4.692
 6243TIP3    H218736   2.154   3.754   4.593
 6244TIP3   OH218737   3.305   0.924   3.073
 6244TIP3    H118738   3.343   0.854   3.021
 6244TIP3    H218739   3.319   1.003   3.020
 6245TIP3   OH218740   0.014   3.044   3.413
 6245TIP3    H118741   0.065   3.068   3.336
 6245TIP3    H218742   0.058   2.966   3.447
 6246TIP3   OH218743   4.601   4.449   4.092
 6246TIP3    H118744   4.633   4.529   4.051
 6246TIP3    H218745   4.523   4.426   4.042
 6247TIP3   OH218746   6.315   0.699   4.565
 6247TIP3    H118747   6.267   0.649   4.499
 6247TIP3    H218748   6.329   0.637   4.637
 6248TIP3   OH218749   2.558   5.126   1.648
 6248TIP3    H118750   2.637   5.129   1.703
 6248TIP3    H218751   2.537   5.217   1.631
 6249TIP3   OH218752   2.900   3.600   3.143
 6249TIP3    H118753   2.817   3.554   3.144
 6249TIP3    H218754   2.953   3.554   3.078
 6250TIP3   OH218755   3.125   0.339   2.525
 6250TIP3    H118756   3.078   0.323   2.443
 6250TIP3    H218757   3.155   0.252   2.552
 6251TIP3   OH218758   4.697   0.295   4.301
 6251TIP3    H118759   4.692   0.297   4.206
 6251TIP3    H218760   4.681   0.386   4.327
 6252TIP3   OH218761   0.243   3.041   0.755
 6252TIP3    H118762   0.164   3.086   0.787
 6252TIP3    H218763   0.304   3.045   0.829
 6253TIP3   OH218764   4.418   4.303   3.334
 6253TIP3    H118765   4.437   4.347   3.417
 6253TIP3    H218766   4.452   4.214   3.346
 6254TIP3   OH218767   5.563   0.572   4.495
 6254TIP3    H118768   5.580   0.523   4.576
 6254TIP3    H218769   5.600   0.518   4.426
 6255TIP3   OH218770   3.366   2.650   0.617
 6255TIP3    H118771   3.391   2.558   0.614
 6255TIP3    H218772   3.310   2.662   0.540
 6256TIP3   OH218773   2.833   5.190   2.100
 6256TIP3    H118774   2.892   5.132   2.148
 6256TIP3    H218775   2.890   5.237   2.040
 6257TIP3   OH218776   4.311   0.416  -0.022
 6257TIP3    H118777   4.331   0.338  -0.075
 6257TIP3    H218778   4.380   0.417   0.045
 6258TIP3   OH218779   3.970   2.855   3.111
 6258TIP3    H118780   3.893   2.818   3.153
 6258TIP3    H218781   4.014   2.780   3.071
 6259TIP3   OH218782   1.863   0.955   0.699
 6259TIP3    H118783   1.853   1.043   0.733
 6259TIP3    H218784   1.940   0.920   0.744
 6260TIP3   OH218785   1.056   5.599  -0.023
 6260TIP3    H118786   1.111   5.678  -0.016
 6260TIP3    H218787   1.094   5.539   0.042
 6261TIP3   OH218788   0.008   5.035   3.257
 6261TIP3    H118789  -0.014   5.021   3.349
 6261TIP3    H218790  -0.026   4.957   3.213
 6262TIP3   OH218791   1.940   1.967   4.624
 6262TIP3    H118792   1.999   1.946   4.696
 6262TIP3    H218793   1.969   2.053   4.593
 6263TIP3   OH218794   4.441   3.100   2.795
 6263TIP3    H118795   4.458   3.026   2.736
 6263TIP3    H218796   4.431   3.175   2.738
 6264TIP3   OH218797   0.402   4.226   1.919
 6264TIP3    H118798   0.444   4.143   1.943
 6264TIP3    H218799   0.374   4.214   1.829
 6265TIP3   OH218800   3.206   4.320   0.988
 6265TIP3    H118801   3.294   4.284   0.979
 6265TIP3    H218802   3.218   4.399   1.042
 6266TIP3   OH218803   2.678   2.359   2.460
 6266TIP3    H118804   2.734   2.282   2.465
 6266TIP3    H218805   2.697   2.408   2.541
 6267TIP3   OH218806   6.153   5.728   4.365
 6267TIP3    H118807   6.119   5.659   4.421
 6267TIP3    H218808   6.078   5.754   4.311
 6268TIP3   OH218809   2.404   4.796   3.481
 6268TIP3    H118810   2.443   4.710   3.490
 6268TIP3    H218811   2.334   4.798   3.546
 6269TIP3   OH218812   3.289   2.603   4.620
 6269TIP3    H118813   3.384   2.598   4.607
 6269TIP3    H218814   3.259   2.664   4.553
 6270TIP3   OH218815   1.103   3.172   0.146
 6270TIP3    H118816   1.181   3.227   0.156
 6270TIP3    H218817   1.115   3.128   0.062
 6271TIP3   OH218818   5.959   1.120   2.226
 6271TIP3    H118819   5.965   1.040   2.280
 6271TIP3    H218820   5.866   1.127   2.204
 6272TIP3   OH218821   5.193   3.100   2.080
 6272TIP3    H118822   5.252   3.138   2.145
 6272TIP3    H218823   5.241   3.023   2.048
 6273TIP3   OH218824   2.103   0.954   4.332
 6273TIP3    H118825   2.142   0.915   4.254
 6273TIP3    H218826   2.049   0.885   4.370
 6274TIP3   OH218827   3.176   2.675   1.814
 6274TIP3    H118828   3.256   2.636   1.850
 6274TIP3    H218829   3.189   2.673   1.720
 6275TIP3   OH218830   1.030   0.642   3.640
 6275TIP3    H118831   1.029   0.607   3.551
 6275TIP3    H218832   0.949   0.610   3.679
 6276TIP3   OH218833   2.411   3.243   2.178
 6276TIP3    H118834   2.381   3.331   2.157
 6276TIP3    H218835   2.488   3.229   2.122
 6277TIP3   OH218836   2.697   3.266   3.827
 6277TIP3    H118837   2.726   3.327   3.758
 6277TIP3    H218838   2.770   3.264   3.888
 6278TIP3   OH218839   3.479   1.830   2.486
 6278TIP3    H118840   3.389   1.854   2.511
 6278TIP3    H218841   3.475   1.735   2.472
 6279TIP3   OH218842   2.812   0.519   5.134
 6279TIP3    H118843   2.827   0.425   5.148
 6279TIP3    H218844   2.771   0.548   5.215
 6280TIP3   OH218845   4.287   2.395   0.856
 6280TIP3    H118846   4.380   2.403   0.877
 6280TIP3    H218847   4.265   2.477   0.812
 6281TIP3   OH218848   5.478   5.844   2.402
 6281TIP3    H118849   5.500   5.892   2.321
 6281TIP3    H218850   5.562   5.809   2.433
 6282TIP3   OH218851   3.633   3.071   4.724
 6282TIP3    H118852   3.591   3.072   4.810
 6282TIP3    H218853   3.631   2.978   4.698
 6283TIP3   OH218854   2.209   0.303   4.427
 6283TIP3    H118855   2.250   0.273   4.346
 6283TIP3    H218856   2.277   0.352   4.473
 6284TIP3   OH218857   3.004   1.626   2.641
 6284TIP3    H118858   2.997   1.532   2.623
 6284TIP3    H218859   3.066   1.632   2.714
 6285TIP3   OH218860   3.917   5.246   4.052
 6285TIP3    H118861   3.930   5.247   3.957
 6285TIP3    H218862   3.831   5.206   4.064
 6286TIP3   OH218863   3.417   2.026   3.516
 6286TIP3    H118864   3.500   2.068   3.493
 6286TIP3    H218865   3.354   2.098   3.519
 6287TIP3   OH218866   5.737   0.627   3.955
 6287TIP3    H118867   5.787   0.620   3.873
 6287TIP3    H218868   5.651   0.659   3.927
 6288TIP3   OH218869   4.956   4.661   0.002
 6288TIP3    H118870   4.902   4.664   0.081
 6288TIP3    H218871   4.922   4.731  -0.054
 6289TIP3   OH218872   1.178   0.992   3.351
 6289TIP3    H118873   1.121   1.043   3.294
 6289TIP3    H218874   1.213   0.923   3.296
 6290TIP3   OH218875   3.776   6.012   0.194
 6290TIP3    H118876   3.716   5.980   0.261
 6290TIP3    H218877   3.862   6.009   0.236
 6291TIP3   OH218878   4.397   5.577   1.546
 6291TIP3    H118879   4.491   5.588   1.540
 6291TIP3    H218880   4.369   5.557   1.457
 6292TIP3   OH218881   5.659   3.896   0.425
 6292TIP3    H118882   5.586   3.835   0.418
 6292TIP3    H218883   5.622   3.975   0.465
 6293TIP3   OH218884   5.954   0.755   2.098
 6293TIP3    H118885   5.902   0.798   2.031
 6293TIP3    H218886   6.034   0.808   2.103
 6294TIP3   OH218887   4.085   2.758   3.912
 6294TIP3    H118888   4.097   2.667   3.941
 6294TIP3    H218889   4.067   2.806   3.993
 6295TIP3   OH218890   3.491   1.099   4.851
 6295TIP3    H118891   3.578   1.088   4.889
 6295TIP3    H218892   3.487   1.036   4.779
 6296TIP3   OH218893   5.731   3.591   0.719
 6296TIP3    H118894   5.711   3.536   0.643
 6296TIP3    H218895   5.646   3.616   0.753
 6297TIP3   OH218896   4.888   1.038   3.666
 6297TIP3    H118897   4.983   1.039   3.674
 6297TIP3    H218898   4.871   0.980   3.591
 6298TIP3   OH218899   5.053   4.866   3.124
 6298TIP3    H118900   5.103   4.822   3.192
 6298TIP3    H218901   4.976   4.901   3.168
 6299TIP3   OH218902   1.553   5.046   4.495
 6299TIP3    H118903   1.613   5.114   4.463
 6299TIP3    H218904   1.499   5.024   4.419
 6300TIP3   OH218905   5.384   2.300   2.674
 6300TIP3    H118906   5.376   2.373   2.613
 6300TIP3    H218907   5.307   2.246   2.657
 6301TIP3   OH218908   0.155   0.308   0.727
 6301TIP3    H118909   0.236   0.358   0.719
 6301TIP3    H218910   0.142   0.269   0.640
 6302TIP3   OH218911   3.276   2.220   5.122
 6302TIP3    H118912   3.186   2.189   5.132
 6302TIP3    H218913   3.295   2.266   5.204
 6303TIP3   OH218914   2.832   2.546   5.010
 6303TIP3    H118915   2.895   2.603   5.053
 6303TIP3    H218916   2.865   2.457   5.025
 6304TIP3   OH218917   1.196   4.851   0.150
 6304TIP3    H118918   1.104   4.869   0.171
 6304TIP3    H218919   1.197   4.757   0.132
 6305TIP3   OH218920   3.059   1.298   1.454
 6305TIP3    H118921   3.106   1.356   1.515
 6305TIP3    H218922   2.972   1.337   1.446
 6306TIP3   OH218923   1.018   5.968   1.079
 6306TIP3    H118924   0.975   5.885   1.103
 6306TIP3    H218925   1.035   6.011   1.162
 6307TIP3   OH218926   5.924   0.669   1.046
 6307TIP3    H118927   5.887   0.748   1.008
 6307TIP3    H218928   6.008   0.658   1.003
 6308TIP3   OH218929   4.081   2.644   4.553
 6308TIP3    H118930   4.160   2.633   4.499
 6308TIP3    H218931   4.113   2.644   4.643
 6309TIP3   OH218932   3.387   4.313   4.726
 6309TIP3    H118933   3.315   4.368   4.696
 6309TIP3    H218934   3.450   4.374   4.763
 6310TIP3   OH218935   2.053   0.649   2.888
 6310TIP3    H118936   2.073   0.742   2.873
 6310TIP3    H218937   1.958   0.644   2.884
 6311TIP3   OH218938   4.993   1.144   1.495
 6311TIP3    H118939   4.929   1.101   1.552
 6311TIP3    H218940   4.948   1.223   1.464
 6312TIP3   OH218941   1.828   1.499   3.786
 6312TIP3    H118942   1.810   1.482   3.694
 6312TIP3    H218943   1.758   1.557   3.815
 6313TIP3   OH218944   4.246   0.344   0.760
 6313TIP3    H118945   4.325   0.383   0.724
 6313TIP3    H218946   4.248   0.368   0.853
 6314TIP3   OH218947   0.018   3.743   1.034
 6314TIP3    H118948   0.055   3.788   1.110
 6314TIP3    H218949  -0.010   3.658   1.068
 6315TIP3   OH218950   1.564   2.719   2.610
 6315TIP3    H118951   1.622   2.655   2.651
 6315TIP3    H218952   1.487   2.668   2.583
 6316TIP3   OH218953   6.337   4.916   3.799
 6316TIP3    H118954   6.376   4.947   3.880
 6316TIP3    H218955   6.371   4.974   3.731
 6317TIP3   OH218956   1.387   4.910   4.318
 6317TIP3    H118957   1.408   4.962   4.240
 6317TIP3    H218958   1.371   4.822   4.285
 6318TIP3   OH218959   5.711   4.163   2.360
 6318TIP3    H118960   5.672   4.246   2.386
 6318TIP3    H218961   5.643   4.119   2.309
 6319TIP3   OH218962   5.061   3.391   4.434
 6319TIP3    H118963   5.033   3.468   4.483
 6319TIP3    H218964   4.996   3.324   4.455
 6320TIP3   OH218965   3.206   0.684   2.061
 6320TIP3    H118966   3.113   0.663   2.068
 6320TIP3    H218967   3.209   0.780   2.062
 6321TIP3   OH218968   4.554   4.817   1.539
 6321TIP3    H118969   4.476   4.771   1.506
 6321TIP3    H218970   4.627   4.765   1.506
 6322TIP3   OH218971   0.480   2.982   5.149
 6322TIP3    H118972   0.395   2.939   5.150
 6322TIP3    H218973   0.492   3.012   5.059
 6323TIP3   OH218974   5.145   0.239   4.674
 6323TIP3    H118975   5.068   0.262   4.726
 6323TIP3    H218976   5.173   0.155   4.709
 6324TIP3   OH218977   1.740   4.802   4.654
 6324TIP3    H118978   1.734   4.897   4.650
 6324TIP3    H218979   1.828   4.785   4.688
 6325TIP3   OH218980   4.544   0.523   0.885
 6325TIP3    H118981   4.548   0.477   0.801
 6325TIP3    H218982   4.498   0.462   0.943
 6326TIP3   OH218983   1.187   3.253   1.899
 6326TIP3    H118984   1.212   3.203   1.976
 6326TIP3    H218985   1.156   3.338   1.933
 6327TIP3   OH218986   3.211   3.015   1.425
 6327TIP3    H118987   3.152   3.056   1.362
 6327TIP3    H218988   3.292   3.066   1.418
 6328TIP3   OH218989   0.834   4.061   0.352
 6328TIP3    H118990   0.842   4.020   0.267
 6328TIP3    H218991   0.898   4.133   0.350
 6329TIP3   OH218992   0.876   0.307   3.130
 6329TIP3    H118993   0.956   0.298   3.182
 6329TIP3    H218994   0.906   0.296   3.039
 6330TIP3   OH218995   3.459   3.445   3.129
 6330TIP3    H118996   3.466   3.366   3.182
 6330TIP3    H218997   3.452   3.516   3.193
 6331TIP3   OH218998   6.286   1.812   5.171
 6331TIP3    H118999   6.363   1.757   5.154
 6331TIP3    H219000   6.259   1.842   5.084
 6332TIP3   OH219001   2.076   2.717   1.251
 6332TIP3    H119002   2.050   2.790   1.195
 6332TIP3    H219003   2.145   2.752   1.307
 6333TIP3   OH219004   4.040   2.815   1.563
 6333TIP3    H119005   4.000   2.728   1.572
 6333TIP3    H219006   3.993   2.869   1.626
 6334TIP3   OH219007   4.473   1.084   3.381
 6334TIP3    H119008   4.388   1.127   3.390
 6334TIP3    H219009   4.537   1.154   3.394
 6335TIP3   OH219010   4.016   3.626   3.572
 6335TIP3    H119011   3.948   3.579   3.524
 6335TIP3    H219012   4.063   3.675   3.505
 6336TIP3   OH219013   1.888   3.433   2.881
 6336TIP3    H119014   1.915   3.372   2.812
 6336TIP3    H219015   1.897   3.520   2.841
 6337TIP3   OH219016   3.340   0.433   0.802
 6337TIP3    H119017   3.291   0.389   0.733
 6337TIP3    H219018   3.300   0.520   0.808
 6338TIP3   OH219019   1.559   3.592   2.847
 6338TIP3    H119020   1.525   3.509   2.812
 6338TIP3    H219021   1.541   3.656   2.778
 6339TIP3   OH219022   2.728   4.231   4.004
 6339TIP3    H119023   2.636   4.209   3.993
 6339TIP3    H219024   2.728   4.319   4.039
 6340TIP3   OH219025   5.015   3.277   2.005
 6340TIP3    H119026   4.961   3.236   1.937
 6340TIP3    H219027   5.087   3.216   2.018
 6341TIP3   OH219028   5.697   4.017   3.107
 6341TIP3    H119029   5.651   4.023   3.023
 6341TIP3    H219030   5.698   4.106   3.140
 6342TIP3   OH219031   0.204   4.300   5.026
 6342TIP3    H119032   0.293   4.334   5.037
 6342TIP3    H219033   0.212   4.207   5.047
 6343TIP3   OH219034   4.868   1.152   0.654
 6343TIP3    H119035   4.808   1.188   0.589
 6343TIP3    H219036   4.904   1.073   0.612
 6344TIP3   OH219037   6.146   3.412   0.141
 6344TIP3    H119038   6.132   3.394   0.048
 6344TIP3    H219039   6.062   3.390   0.182
 6345TIP3   OH219040   1.138   5.048   4.156
 6345TIP3    H119041   1.180   5.124   4.116
 6345TIP3    H219042   1.049   5.049   4.121
 6346TIP3   OH219043   3.773   0.499   1.800
 6346TIP3    H119044   3.859   0.542   1.794
 6346TIP3    H219045   3.777   0.449   1.881
 6347TIP3   OH219046   2.641   1.573   4.905
 6347TIP3    H119047   2.692   1.637   4.855
 6347TIP3    H219048   2.577   1.538   4.843
 6348TIP3   OH219049   3.130   2.606   2.616
 6348TIP3    H119050   3.137   2.589   2.710
 6348TIP3    H219051   3.137   2.520   2.576
 6349TIP3   OH219052   4.149   3.266   4.532
 6349TIP3    H119053   4.074   3.256   4.591
 6349TIP3    H219054   4.140   3.354   4.496
 6350TIP3   OH219055   4.605   1.860   4.543
 6350TIP3    H119056   4.649   1.795   4.597
 6350TIP3    H219057   4.599   1.937   4.599
 6351TIP3   OH219058   1.103   0.838   4.281
 6351TIP3    H119059   1.069   0.749   4.290
 6351TIP3    H219060   1.032   0.887   4.240
 6352TIP3   OH219061   1.638   2.255   3.808
 6352TIP3    H119062   1.725   2.217   3.792
 6352TIP3    H219063   1.591   2.187   3.857
 6353TIP3   OH219064   0.875   3.142   2.247
 6353TIP3    H119065   0.942   3.117   2.183
 6353TIP3    H219066   0.909   3.223   2.286
 6354TIP3   OH219067   3.200   1.829   1.713
 6354TIP3    H119068   3.227   1.764   1.648
 6354TIP3    H219069   3.170   1.777   1.787
 6355TIP3   OH219070   5.128   4.495   3.989
 6355TIP3    H119071   5.063   4.426   3.975
 6355TIP3    H219072   5.127   4.511   4.083
 6356TIP3   OH219073   5.321   3.516   4.188
 6356TIP3    H119074   5.266   3.443   4.219
 6356TIP3    H219075   5.315   3.582   4.256
 6357TIP3   OH219076   0.374   2.609   2.095
 6357TIP3    H119077   0.443   2.594   2.030
 6357TIP3    H219078   0.405   2.564   2.174
 6358TIP3   OH219079   4.718   4.843   4.964
 6358TIP3    H119080   4.715   4.768   4.905
 6358TIP3    H219081   4.751   4.807   5.047
 6359TIP3   OH219082   1.147   4.013   0.938
 6359TIP3    H119083   1.107   4.068   1.006
 6359TIP3    H219084   1.229   4.057   0.917
 6360TIP3   OH219085   1.662   4.640   3.336
 6360TIP3    H119086   1.584   4.626   3.282
 6360TIP3    H219087   1.679   4.555   3.376
 6361TIP3   OH219088   2.095   5.244   2.688
 6361TIP3    H119089   2.002   5.265   2.702
 6361TIP3    H219090   2.094   5.153   2.659
 6362TIP3   OH219091   0.872   4.382   0.663
 6362TIP3    H119092   0.788   4.381   0.710
 6362TIP3    H219093   0.849   4.360   0.573
 6363TIP3   OH219094   1.819   4.689   3.892
 6363TIP3    H119095   1.752   4.755   3.911
 6363TIP3    H219096   1.795   4.655   3.806
 6364TIP3   OH219097   2.130   5.882   0.745
 6364TIP3    H119098   2.192   5.941   0.701
 6364TIP3    H219099   2.053   5.883   0.689
 6365TIP3   OH219100   0.220   0.852   1.848
 6365TIP3    H119101   0.308   0.859   1.886
 6365TIP3    H219102   0.227   0.780   1.785
 6366TIP3   OH219103   4.681   1.036   2.216
 6366TIP3    H119104   4.676   1.041   2.121
 6366TIP3    H219105   4.744   1.103   2.241
 6367TIP3   OH219106   2.428   2.303   2.967
 6367TIP3    H119107   2.338   2.317   2.995
 6367TIP3    H219108   2.424   2.307   2.871
 6368TIP3   OH219109   3.438   1.469   2.787
 6368TIP3    H119110   3.413   1.459   2.695
 6368TIP3    H219111   3.477   1.556   2.792
 6369TIP3   OH219112   0.285   2.884   3.567
 6369TIP3    H119113   0.224   2.812   3.580
 6369TIP3    H219114   0.370   2.848   3.595
 6370TIP3   OH219115   6.079   1.287   1.740
 6370TIP3    H119116   6.063   1.287   1.834
 6370TIP3    H219117   6.062   1.197   1.712
 6371TIP3   OH219118   4.691   3.824   2.771
 6371TIP3    H119119   4.735   3.880   2.836
 6371TIP3    H219120   4.754   3.816   2.700
 6372TIP3   OH219121   3.119   4.802   2.323
 6372TIP3    H119122   3.067   4.871   2.283
 6372TIP3    H219123   3.080   4.789   2.409
 6373TIP3   OH219124   3.212   0.897   1.364
 6373TIP3    H119125   3.203   0.802   1.365
 6373TIP3    H219126   3.288   0.915   1.419
 6374TIP3   OH219127   1.964   3.986   3.905
 6374TIP3    H119128   1.928   4.075   3.908
 6374TIP3    H219129   1.970   3.960   3.997
 6375TIP3   OH219130   4.333   3.535   1.954
 6375TIP3    H119131   4.350   3.441   1.961
 6375TIP3    H219132   4.300   3.561   2.040
 6376TIP3   OH219133   0.829   0.541   2.723
 6376TIP3    H119134   0.905   0.483   2.724
 6376TIP3    H219135   0.759   0.487   2.687
 6377TIP3   OH219136   0.653   2.012   0.702
 6377TIP3    H119137   0.717   1.971   0.760
 6377TIP3    H219138   0.670   1.972   0.616
 6378TIP3   OH219139   4.141   5.964   1.976
 6378TIP3    H119140   4.163   5.886   2.027
 6378TIP3    H219141   4.222   5.987   1.930
 6379TIP3   OH219142   1.519   4.911   0.476
 6379TIP3    H119143   1.440   4.882   0.521
 6379TIP3    H219144   1.510   5.006   0.470
 6380TIP3   OH219145   3.442   4.209   3.200
 6380TIP3    H119146   3.511   4.260   3.243
 6380TIP3    H219147   3.426   4.135   3.258
 6381TIP3   OH219148   3.066   0.799   3.892
 6381TIP3    H119149   3.027   0.870   3.841
 6381TIP3    H219150   3.047   0.822   3.983
 6382TIP3   OH219151   0.120   2.788   1.376
 6382TIP3    H119152   0.188   2.830   1.323
 6382TIP3    H219153   0.038   2.809   1.332
 6383TIP3   OH219154   2.237   2.433   3.752
 6383TIP3    H119155   2.268   2.521   3.772
 6383TIP3    H219156   2.180   2.445   3.676
 6384TIP3   OH219157   5.760   1.479   4.633
 6384TIP3    H119158   5.783   1.449   4.721
 6384TIP3    H219159   5.825   1.548   4.614
 6385TIP3   OH219160   3.380   0.077   4.332
 6385TIP3    H119161   3.430   0.129   4.269
 6385TIP3    H219162   3.429   0.083   4.413
 6386TIP3   OH219163   2.444   4.296  -0.032
 6386TIP3    H119164   2.536   4.320  -0.032
 6386TIP3    H219165   2.443   4.201  -0.017
 6387TIP3   OH219166   2.847   4.716   1.059
 6387TIP3    H119167   2.755   4.742   1.070
 6387TIP3    H219168   2.843   4.637   1.005
 6388TIP3   OH219169   1.005   5.058   3.523
 6388TIP3    H119170   0.950   5.117   3.575
 6388TIP3    H219171   1.088   5.054   3.571
 6389TIP3   OH219172   0.856   2.784   2.720
 6389TIP3    H119173   0.885   2.693   2.722
 6389TIP3    H219174   0.765   2.782   2.749
 6390TIP3   OH219175   2.560   5.277   3.278
 6390TIP3    H119176   2.645   5.250   3.312
 6390TIP3    H219177   2.580   5.328   3.200
 6391TIP3   OH219178   1.799   3.668   3.513
 6391TIP3    H119179   1.831   3.644   3.426
 6391TIP3    H219180   1.854   3.743   3.539
 6392TIP3   OH219181   2.328   5.189   4.181
 6392TIP3    H119182   2.319   5.137   4.101
 6392TIP3    H219183   2.284   5.271   4.161
 6393TIP3   OH219184   3.174   0.069   3.342
 6393TIP3    H119185   3.156   0.163   3.342
 6393TIP3    H219186   3.172   0.044   3.435
 6394TIP3   OH219187   3.933   4.397   1.074
 6394TIP3    H119188   3.941   4.343   0.995
 6394TIP3    H219189   4.017   4.385   1.119
 6395TIP3   OH219190   2.025   2.017   4.899
 6395TIP3    H119191   2.063   1.929   4.906
 6395TIP3    H219192   2.098   2.071   4.868
 6396TIP3   OH219193   5.350   0.792   0.828
 6396TIP3    H119194   5.345   0.844   0.908
 6396TIP3    H219195   5.287   0.833   0.769
 6397TIP3   OH219196   1.517   1.021   1.507
 6397TIP3    H119197   1.600   1.003   1.551
 6397TIP3    H219198   1.531   0.991   1.417
 6398TIP3   OH219199   5.236   1.679   3.200
 6398TIP3    H119200   5.213   1.638   3.283
 6398TIP3    H219201   5.151   1.699   3.159
 6399TIP3   OH219202   5.055   1.198   3.235
 6399TIP3    H119203   5.019   1.250   3.306
 6399TIP3    H219204   4.982   1.145   3.204
 6400TIP3   OH219205   5.519   0.045   0.789
 6400TIP3    H119206   5.449   0.001   0.740
 6400TIP3    H219207   5.476   0.075   0.869
 6401TIP3   OH219208   2.467   5.512   4.021
 6401TIP3    H119209   2.411   5.547   3.952
 6401TIP3    H219210   2.555   5.514   3.983
 6402TIP3   OH219211   5.738   0.207   2.502
 6402TIP3    H119212   5.801   0.256   2.450
 6402TIP3    H219213   5.653   0.228   2.464
 6403TIP3   OH219214   1.673   5.106   3.717
 6403TIP3    H119215   1.677   5.014   3.689
 6403TIP3    H219216   1.581   5.130   3.703
 6404TIP3   OH219217   5.095   2.830   1.021
 6404TIP3    H119218   5.130   2.779   1.094
 6404TIP3    H219219   5.033   2.772   0.978
 6405TIP3   OH219220   4.359   1.864   3.418
 6405TIP3    H119221   4.395   1.912   3.343
 6405TIP3    H219222   4.303   1.796   3.379
 6406TIP3   OH219223   0.654   3.040   0.453
 6406TIP3    H119224   0.708   3.117   0.471
 6406TIP3    H219225   0.567   3.076   0.435
 6407TIP3   OH219226   3.995   4.740   0.374
 6407TIP3    H119227   4.017   4.803   0.443
 6407TIP3    H219228   4.077   4.692   0.359
 6408TIP3   OH219229   5.619   5.563   1.927
 6408TIP3    H119230   5.691   5.581   1.867
 6408TIP3    H219231   5.542   5.552   1.871
 6409TIP3   OH219232   5.391   3.235   2.200
 6409TIP3    H119233   5.462   3.179   2.169
 6409TIP3    H219234   5.388   3.307   2.136
 6410TIP3   OH219235   2.579   5.543   1.389
 6410TIP3    H119236   2.620   5.574   1.470
 6410TIP3    H219237   2.503   5.601   1.377
 6411TIP3   OH219238   0.834   1.665   1.895
 6411TIP3    H119239   0.836   1.624   1.981
 6411TIP3    H219240   0.741   1.684   1.879
 6412TIP3   OH219241   0.730   4.127   4.860
 6412TIP3    H119242   0.803   4.160   4.913
 6412TIP3    H219243   0.769   4.059   4.806
 6413TIP3   OH219244   3.860   3.499   1.709
 6413TIP3    H119245   3.941   3.524   1.666
 6413TIP3    H219246   3.862   3.403   1.711
 6414TIP3   OH219247   3.215   4.586   1.127
 6414TIP3    H119248   3.225   4.653   1.060
 6414TIP3    H219249   3.180   4.633   1.203
 6415TIP3   OH219250   1.563   0.513   0.774
 6415TIP3    H119251   1.481   0.561   0.761
 6415TIP3    H219252   1.546   0.457   0.849
 6416TIP3   OH219253   5.655   5.649   4.462
 6416TIP3    H119254   5.583   5.610   4.414
 6416TIP3    H219255   5.733   5.624   4.413
 6417TIP3   OH219256   4.307   2.792   2.980
 6417TIP3    H119257   4.249   2.717   2.971
 6417TIP3    H219258   4.392   2.761   2.949
 6418TIP3   OH219259   1.641   4.534   0.166
 6418TIP3    H119260   1.585   4.599   0.209
 6418TIP3    H219261   1.628   4.454   0.217
 6419TIP3   OH219262   6.076   0.542   1.810
 6419TIP3    H119263   6.030   0.604   1.754
 6419TIP3    H219264   6.023   0.539   1.890
 6420TIP3   OH219265   4.977   1.631   4.079
 6420TIP3    H119266   5.063   1.671   4.067
 6420TIP3    H219267   4.939   1.676   4.154
 6421TIP3   OH219268   1.967   2.208   2.256
 6421TIP3    H119269   1.900   2.273   2.237
 6421TIP3    H219270   2.050   2.255   2.250
 6422TIP3   OH219271   4.845   5.367   0.827
 6422TIP3    H119272   4.825   5.427   0.899
 6422TIP3    H219273   4.761   5.326   0.807
 6423TIP3   OH219274   5.632   0.455   4.744
 6423TIP3    H119275   5.724   0.430   4.733
 6423TIP3    H219276   5.636   0.545   4.778
 6424TIP3   OH219277   6.106   3.110   1.764
 6424TIP3    H119278   6.090   3.198   1.799
 6424TIP3    H219279   6.198   3.110   1.739
 6425TIP3   OH219280   2.127   4.662   2.111
 6425TIP3    H119281   2.042   4.674   2.068
 6425TIP3    H219282   2.108   4.670   2.204
 6426TIP3   OH219283   4.245   1.163   2.479
 6426TIP3    H119284   4.190   1.150   2.402
 6426TIP3    H219285   4.232   1.255   2.502
 6427TIP3   OH219286   4.720   5.627   1.874
 6427TIP3    H119287   4.696   5.537   1.852
 6427TIP3    H219288   4.811   5.622   1.903
 6428TIP3   OH219289   1.463   1.534   2.054
 6428TIP3    H119290   1.493   1.558   1.966
 6428TIP3    H219291   1.410   1.609   2.082
 6429TIP3   OH219292   5.372   2.010   4.088
 6429TIP3    H119293   5.412   2.013   4.001
 6429TIP3    H219294   5.313   1.935   4.085
 6430TIP3   OH219295   0.817   1.321   4.003
 6430TIP3    H119296   0.870   1.263   3.948
 6430TIP3    H219297   0.837   1.409   3.971
 6431TIP3   OH219298   3.612   0.264   0.249
 6431TIP3    H119299   3.595   0.173   0.227
 6431TIP3    H219300   3.648   0.302   0.168
 6432TIP3   OH219301   6.151   2.246   4.569
 6432TIP3    H119302   6.209   2.322   4.571
 6432TIP3    H219303   6.192   2.182   4.626
 6433TIP3   OH219304   3.753   0.977   4.209
 6433TIP3    H119305   3.826   1.018   4.162
 6433TIP3    H219306   3.764   1.007   4.300
 6434TIP3   OH219307   1.185   1.481   4.026
 6434TIP3    H119308   1.240   1.559   4.021
 6434TIP3    H219309   1.134   1.492   4.107
 6435TIP3   OH219310   3.010   2.461   0.126
 6435TIP3    H119311   2.964   2.517   0.188
 6435TIP3    H219312   2.999   2.373   0.160
 6436TIP3   OH219313   0.943   3.852   0.494
 6436TIP3    H119314   0.977   3.852   0.583
 6436TIP3    H219315   0.885   3.927   0.490
 6437TIP3   OH219316   0.582   2.678   4.365
 6437TIP3    H119317   0.606   2.633   4.445
 6437TIP3    H219318   0.649   2.746   4.354
 6438TIP3   OH219319   2.398   5.043   3.217
 6438TIP3    H119320   2.472   5.098   3.242
 6438TIP3    H219321   2.415   5.019   3.126
 6439TIP3   OH219322   3.289   2.361   2.228
 6439TIP3    H119323   3.306   2.368   2.134
 6439TIP3    H219324   3.194   2.361   2.235
 6440TIP3   OH219325   4.814   5.348   0.178
 6440TIP3    H119326   4.840   5.390   0.260
 6440TIP3    H219327   4.731   5.389   0.155
 6441TIP3   OH219328   0.472   5.421   1.906
 6441TIP3    H119329   0.514   5.342   1.873
 6441TIP3    H219330   0.391   5.428   1.856
 6442TIP3   OH219331   2.479   4.557   2.164
 6442TIP3    H119332   2.530   4.622   2.115
 6442TIP3    H219333   2.421   4.517   2.099
 6443TIP3   OH219334   5.010   2.120   1.515
 6443TIP3    H119335   4.965   2.120   1.600
 6443TIP3    H219336   5.001   2.030   1.483
 6444TIP3   OH219337   1.263   3.517   1.216
 6444TIP3    H119338   1.248   3.536   1.309
 6444TIP3    H219339   1.202   3.446   1.196
 6445TIP3   OH219340   5.228   0.055   2.736
 6445TIP3    H119341   5.246   0.107   2.658
 6445TIP3    H219342   5.271  -0.029   2.719
 6446TIP3   OH219343   0.904   1.157   3.510
 6446TIP3    H119344   0.912   1.093   3.440
 6446TIP3    H219345   0.994   1.182   3.531
 6447TIP3   OH219346   1.782   1.796   1.219
 6447TIP3    H119347   1.859   1.840   1.256
 6447TIP3    H219348   1.730   1.771   1.295
 6448TIP3   OH219349   3.757   1.313   4.659
 6448TIP3    H119350   3.807   1.240   4.695
 6448TIP3    H219351   3.822   1.371   4.620
 6449TIP3   OH219352   2.142   0.520   4.219
 6449TIP3    H119353   2.096   0.504   4.137
 6449TIP3    H219354   2.084   0.486   4.287
 6450TIP3   OH219355   4.333   3.800   2.869
 6450TIP3    H119356   4.243   3.795   2.902
 6450TIP3    H219357   4.387   3.774   2.944
 6451TIP3   OH219358   3.490   2.801   4.392
 6451TIP3    H119359   3.542   2.775   4.316
 6451TIP3    H219360   3.518   2.743   4.463
 6452TIP3   OH219361   2.226   2.036   3.866
 6452TIP3    H119362   2.161   2.061   3.801
 6452TIP3    H219363   2.282   1.973   3.821
 6453TIP3   OH219364   5.795   3.599   1.701
 6453TIP3    H119365   5.832   3.621   1.787
 6453TIP3    H219366   5.791   3.682   1.654
 6454TIP3   OH219367   1.156   2.689   3.432
 6454TIP3    H119368   1.205   2.707   3.352
 6454TIP3    H219369   1.218   2.645   3.489
 6455TIP3   OH219370   6.027   0.649   4.888
 6455TIP3    H119371   5.936   0.648   4.918
 6455TIP3    H219372   6.068   0.719   4.938
 6456TIP3   OH219373   2.580   1.277   2.429
 6456TIP3    H119374   2.561   1.189   2.397
 6456TIP3    H219375   2.607   1.264   2.520
 6457TIP3   OH219376   5.961   4.530   3.804
 6457TIP3    H119377   5.896   4.514   3.873
 6457TIP3    H219378   6.019   4.596   3.841
 6458TIP3   OH219379   0.907   5.847   4.984
 6458TIP3    H119380   0.842   5.818   4.920
 6458TIP3    H219381   0.868   5.825   5.069
 6459TIP3   OH219382   4.230   0.668   0.927
 6459TIP3    H119383   4.322   0.689   0.912
 6459TIP3    H219384   4.182   0.716   0.859
 6460TIP3   OH219385   4.451   5.683   3.233
 6460TIP3    H119386   4.377   5.694   3.173
 6460TIP3    H219387   4.453   5.590   3.252
 6461TIP3   OH219388   5.604   1.795   1.760
 6461TIP3    H119389   5.510   1.804   1.773
 6461TIP3    H219390   5.621   1.834   1.674
 6462TIP3   OH219391   3.774   5.742   1.013
 6462TIP3    H119392   3.711   5.782   0.953
 6462TIP3    H219393   3.819   5.676   0.961
 6463TIP3   OH219394   5.965   5.080   0.671
 6463TIP3    H119395   6.051   5.044   0.693
 6463TIP3    H219396   5.981   5.173   0.654
 6464TIP3   OH219397   1.391   1.668   4.755
 6464TIP3    H119398   1.358   1.659   4.666
 6464TIP3    H219399   1.482   1.640   4.750
 6465TIP3   OH219400   3.888   0.651   1.368
 6465TIP3    H119401   3.827   0.701   1.314
 6465TIP3    H219402   3.852   0.658   1.457
 6466TIP3   OH219403   5.282   0.616   4.489
 6466TIP3    H119404   5.231   0.542   4.457
 6466TIP3    H219405   5.370   0.581   4.502
 6467TIP3   OH219406   0.274   2.295   2.179
 6467TIP3    H119407   0.196   2.242   2.194
 6467TIP3    H219408   0.242   2.385   2.187
 6468TIP3   OH219409   2.345   1.734   3.356
 6468TIP3    H119410   2.432   1.697   3.341
 6468TIP3    H219411   2.362   1.827   3.375
 6469TIP3   OH219412   6.052   1.162   3.910
 6469TIP3    H119413   6.112   1.167   3.836
 6469TIP3    H219414   6.108   1.169   3.988
 6470TIP3   OH219415   2.453   2.066   0.324
 6470TIP3    H119416   2.411   2.064   0.237
 6470TIP3    H219417   2.503   1.985   0.329
 6471TIP3   OH219418   5.443   5.058   4.531
 6471TIP3    H119419   5.469   4.966   4.523
 6471TIP3    H219420   5.448   5.091   4.441
 6472TIP3   OH219421   2.148   5.103   3.958
 6472TIP3    H119422   2.059   5.102   3.923
 6472TIP3    H219423   2.190   5.176   3.913
 6473TIP3   OH219424   1.885   4.435   1.803
 6473TIP3    H119425   1.935   4.420   1.883
 6473TIP3    H219426   1.885   4.530   1.792
 6474TIP3   OH219427   1.389   2.610   3.606
 6474TIP3    H119428   1.405   2.591   3.699
 6474TIP3    H219429   1.365   2.526   3.568
 6475TIP3   OH219430   2.176   2.879   5.167
 6475TIP3    H119431   2.267   2.861   5.190
 6475TIP3    H219432   2.159   2.823   5.091
 6476TIP3   OH219433   2.261   4.965   0.962
 6476TIP3    H119434   2.298   4.940   1.046
 6476TIP3    H219435   2.189   4.904   0.948
 6477TIP3   OH219436   4.026   5.419   3.092
 6477TIP3    H119437   3.966   5.414   3.166
 6477TIP3    H219438   3.972   5.452   3.020
 6478TIP3   OH219439   4.482   5.111   3.449
 6478TIP3    H119440   4.418   5.102   3.519
 6478TIP3    H219441   4.552   5.164   3.488
 6479TIP3   OH219442   4.604   1.101   1.809
 6479TIP3    H119443   4.522   1.140   1.780
 6479TIP3    H219444   4.585   1.007   1.816
 6480TIP3   OH219445   1.349   5.962   3.333
 6480TIP3    H119446   1.274   6.010   3.297
 6480TIP3    H219447   1.346   5.981   3.427
 6481TIP3   OH219448   2.262   3.190   0.423
 6481TIP3    H119449   2.194   3.186   0.490
 6481TIP3    H219450   2.247   3.273   0.378
 6482TIP3   OH219451   4.002   5.915   3.737
 6482TIP3    H119452   4.020   6.009   3.737
 6482TIP3    H219453   3.924   5.906   3.682
 6483TIP3   OH219454   1.973   0.142   4.182
 6483TIP3    H119455   2.069   0.141   4.184
 6483TIP3    H219456   1.951   0.228   4.145
 6484TIP3   OH219457   0.459   0.291   0.724
 6484TIP3    H119458   0.489   0.232   0.655
 6484TIP3    H219459   0.480   0.378   0.692
 6485TIP3   OH219460   1.972   3.123   3.609
 6485TIP3    H119461   1.962   3.217   3.623
 6485TIP3    H219462   1.908   3.102   3.541
 6486TIP3   OH219463   2.304   0.599   2.423
 6486TIP3    H119464   2.341   0.511   2.412
 6486TIP3    H219465   2.232   0.588   2.484
 6487TIP3   OH219466   6.054   2.257   3.640
 6487TIP3    H119467   6.033   2.336   3.589
 6487TIP3    H219468   5.992   2.259   3.713
 6488TIP3   OH219469   5.199   5.303   2.290
 6488TIP3    H119470   5.134   5.282   2.357
 6488TIP3    H219471   5.264   5.233   2.296
 6489TIP3   OH219472   4.439   1.432   4.144
 6489TIP3    H119473   4.490   1.437   4.225
 6489TIP3    H219474   4.417   1.339   4.136
 6490TIP3   OH219475   0.246   5.867   4.096
 6490TIP3    H119476   0.288   5.797   4.147
 6490TIP3    H219477   0.173   5.824   4.052
 6491TIP3   OH219478   0.755   3.152   0.068
 6491TIP3    H119479   0.811   3.227   0.048
 6491TIP3    H219480   0.797   3.078   0.024
 6492TIP3   OH219481   1.234   3.905   1.394
 6492TIP3    H119482   1.143   3.886   1.371
 6492TIP3    H219483   1.282   3.891   1.313
 6493TIP3   OH219484   4.422   5.785   4.895
 6493TIP3    H119485   4.389   5.778   4.806
 6493TIP3    H219486   4.514   5.759   4.889
 6494TIP3   OH219487   0.036   2.848   3.766
 6494TIP3    H119488   0.016   2.834   3.673
 6494TIP3    H219489   0.077   2.934   3.769
 6495TIP3   OH219490   0.269   5.850   3.445
 6495TIP3    H119491   0.303   5.857   3.356
 6495TIP3    H219492   0.176   5.830   3.434
 6496TIP3   OH219493   5.199   1.827   3.946
 6496TIP3    H119494   5.195   1.736   3.914
 6496TIP3    H219495   5.241   1.875   3.874
 6497TIP3   OH219496   2.816   3.690   0.402
 6497TIP3    H119497   2.905   3.726   0.397
 6497TIP3    H219498   2.794   3.666   0.312
 6498TIP3   OH219499   0.055   3.563   4.807
 6498TIP3    H119500   0.011   3.626   4.751
 6498TIP3    H219501  -0.015   3.508   4.842
 6499TIP3   OH219502   5.714   1.765   4.823
 6499TIP3    H119503   5.757   1.682   4.845
 6499TIP3    H219504   5.773   1.807   4.761
 6500TIP3   OH219505   5.748   3.361   0.892
 6500TIP3    H119506   5.842   3.378   0.896
 6500TIP3    H219507   5.708   3.446   0.872
 6501TIP3   OH219508   4.006   2.066   5.018
 6501TIP3    H119509   3.959   2.113   4.949
 6501TIP3    H219510   4.043   1.989   4.974
 6502TIP3   OH219511   0.467   2.611   1.824
 6502TIP3    H119512   0.410   2.586   1.751
 6502TIP3    H219513   0.546   2.558   1.812
 6503TIP3   OH219514   3.277   5.658   3.991
 6503TIP3    H119515   3.322   5.703   4.062
 6503TIP3    H219516   3.255   5.572   4.027
 6504TIP3   OH219517   5.890   0.490   2.001
 6504TIP3    H119518   5.807   0.503   1.955
 6504TIP3    H219519   5.899   0.569   2.055
 6505TIP3   OH219520   3.666   4.792   0.211
 6505TIP3    H119521   3.685   4.713   0.161
 6505TIP3    H219522   3.647   4.761   0.299
 6506TIP3   OH219523   2.303   3.035   4.651
 6506TIP3    H119524   2.218   3.050   4.692
 6506TIP3    H219525   2.311   3.105   4.586
 6507TIP3   OH219526   3.557   1.859   1.329
 6507TIP3    H119527   3.549   1.936   1.384
 6507TIP3    H219528   3.566   1.786   1.390
 6508TIP3   OH219529   3.908   1.516   0.143
 6508TIP3    H119530   3.975   1.582   0.125
 6508TIP3    H219531   3.932   1.441   0.089
 6509TIP3   OH219532   1.068   1.534   1.178
 6509TIP3    H119533   1.025   1.619   1.191
 6509TIP3    H219534   1.083   1.529   1.084
 6510TIP3   OH219535   0.837   0.072   0.770
 6510TIP3    H119536   0.836  -0.005   0.827
 6510TIP3    H219537   0.836   0.146   0.829
 6511TIP3   OH219538   1.235   1.361   1.759
 6511TIP3    H119539   1.262   1.418   1.687
 6511TIP3    H219540   1.307   1.299   1.769
 6512TIP3   OH219541   4.498   1.981   2.428
 6512TIP3    H119542   4.539   1.981   2.342
 6512TIP3    H219543   4.404   1.985   2.410
 6513TIP3   OH219544   0.827   4.578   3.253
 6513TIP3    H119545   0.737   4.547   3.247
 6513TIP3    H219546   0.823   4.651   3.315
 6514TIP3   OH219547   4.337   1.971   0.101
 6514TIP3    H119548   4.380   1.923   0.029
 6514TIP3    H219549   4.314   2.056   0.063
 6515TIP3   OH219550   5.927   0.312   1.477
 6515TIP3    H119551   5.993   0.337   1.413
 6515TIP3    H219552   5.843   0.325   1.433
 6516TIP3   OH219553   2.170   0.442   3.733
 6516TIP3    H119554   2.147   0.471   3.644
 6516TIP3    H219555   2.181   0.347   3.725
 6517TIP3   OH219556   5.270   0.889   1.115
 6517TIP3    H119557   5.273   0.984   1.122
 6517TIP3    H219558   5.219   0.861   1.191
 6518TIP3   OH219559   0.192   2.092   3.320
 6518TIP3    H119560   0.161   2.138   3.241
 6518TIP3    H219561   0.212   2.004   3.289
 6519TIP3   OH219562   0.131   0.878   1.253
 6519TIP3    H119563   0.227   0.882   1.263
 6519TIP3    H219564   0.105   0.969   1.237
 6520TIP3   OH219565   5.629   2.518   3.106
 6520TIP3    H119566   5.721   2.492   3.102
 6520TIP3    H219567   5.592   2.486   3.024
 6521TIP3   OH219568   4.739   1.850   4.304
 6521TIP3    H119569   4.677   1.853   4.377
 6521TIP3    H219570   4.792   1.772   4.321
 6522TIP3   OH219571   0.727   0.628   4.623
 6522TIP3    H119572   0.726   0.574   4.544
 6522TIP3    H219573   0.736   0.718   4.591
 6523TIP3   OH219574   4.145   3.947   1.082
 6523TIP3    H119575   4.061   3.992   1.073
 6523TIP3    H219576   4.131   3.883   1.152
 6524TIP3   OH219577   3.585   1.346   1.737
 6524TIP3    H119578   3.571   1.305   1.652
 6524TIP3    H219579   3.500   1.343   1.780
 6525TIP3   OH219580   1.187   5.661   3.586
 6525TIP3    H119581   1.126   5.734   3.572
 6525TIP3    H219582   1.173   5.604   3.510
 6526TIP3   OH219583   0.883   2.333   4.595
 6526TIP3    H119584   0.933   2.410   4.621
 6526TIP3    H219585   0.795   2.349   4.629
 6527TIP3   OH219586   2.415   3.662   0.573
 6527TIP3    H119587   2.355   3.735   0.562
 6527TIP3    H219588   2.497   3.702   0.601
 6528TIP3   OH219589   4.322   2.343   2.005
 6528TIP3    H119590   4.258   2.380   2.065
 6528TIP3    H219591   4.394   2.315   2.060
 6529TIP3   OH219592   4.010   0.324   0.199
 6529TIP3    H119593   4.090   0.374   0.212
 6529TIP3    H219594   4.040   0.233   0.190
 6530TIP3   OH219595   1.206   3.525   1.991
 6530TIP3    H119596   1.241   3.543   1.904
 6530TIP3    H219597   1.208   3.609   2.036
 6531TIP3   OH219598   3.132   5.328   3.391
 6531TIP3    H119599   3.163   5.237   3.395
 6531TIP3    H219600   3.106   5.341   3.300
 6532TIP3   OH219601   3.691   1.489   2.606
 6532TIP3    H119602   3.702   1.394   2.610
 6532TIP3    H219603   3.711   1.513   2.516
 6533TIP3   OH219604   1.203   0.891   2.219
 6533TIP3    H119605   1.182   0.984   2.210
 6533TIP3    H219606   1.268   0.874   2.151
 6534TIP3   OH219607   3.425   5.794   4.648
 6534TIP3    H119608   3.349   5.822   4.598
 6534TIP3    H219609   3.390   5.771   4.734
 6535TIP3   OH219610   0.817   0.967   0.490
 6535TIP3    H119611   0.739   1.019   0.508
 6535TIP3    H219612   0.868   0.970   0.572
 6536TIP3   OH219613   1.742   4.325   3.418
 6536TIP3    H119614   1.646   4.324   3.418
 6536TIP3    H219615   1.767   4.234   3.435
 6537TIP3   OH219616   0.382   1.842   5.062
 6537TIP3    H119617   0.394   1.859   5.155
 6537TIP3    H219618   0.393   1.747   5.054
 6538TIP3   OH219619   2.831   1.436   3.472
 6538TIP3    H119620   2.750   1.444   3.421
 6538TIP3    H219621   2.878   1.518   3.454
 6539TIP3   OH219622   3.706   1.383   3.658
 6539TIP3    H119623   3.623   1.422   3.629
 6539TIP3    H219624   3.735   1.331   3.583
 6540TIP3   OH219625   2.327   3.218   4.444
 6540TIP3    H119626   2.373   3.259   4.370
 6540TIP3    H219627   2.262   3.160   4.403
 6541TIP3   OH219628   5.510   4.891   0.128
 6541TIP3    H119629   5.522   4.912   0.221
 6541TIP3    H219630   5.423   4.926   0.107
 6542TIP3   OH219631   5.413   3.285   3.345
 6542TIP3    H119632   5.481   3.289   3.413
 6542TIP3    H219633   5.441   3.350   3.280
 6543TIP3   OH219634   3.078   4.914   2.656
 6543TIP3    H119635   2.989   4.911   2.621
 6543TIP3    H219636   3.071   4.966   2.737
 6544TIP3   OH219637   3.470   2.581   3.792
 6544TIP3    H119638   3.462   2.491   3.824
 6544TIP3    H219639   3.564   2.599   3.794
 6545TIP3   OH219640   0.209   1.429   4.581
 6545TIP3    H119641   0.155   1.351   4.566
 6545TIP3    H219642   0.260   1.409   4.659
 6546TIP3   OH219643   3.170   0.891   1.061
 6546TIP3    H119644   3.110   0.926   1.128
 6546TIP3    H219645   3.212   0.816   1.104
 6547TIP3   OH219646   2.419  -0.032   0.207
 6547TIP3    H119647   2.335   0.002   0.177
 6547TIP3    H219648   2.450   0.033   0.270
 6548TIP3   OH219649   5.932   4.770   4.073
 6548TIP3    H119650   5.966   4.812   4.152
 6548TIP3    H219651   5.880   4.696   4.105
 6549TIP3   OH219652   5.374   0.105   1.029
 6549TIP3    H119653   5.416   0.085   1.112
 6549TIP3    H219654   5.298   0.046   1.026
 6550TIP3   OH219655   5.131   0.645   0.245
 6550TIP3    H119656   5.197   0.605   0.188
 6550TIP3    H219657   5.155   0.738   0.247
 6551TIP3   OH219658   1.287   5.410   4.558
 6551TIP3    H119659   1.274   5.316   4.545
 6551TIP3    H219660   1.202   5.442   4.587
 6552TIP3   OH219661   4.716   2.446   4.888
 6552TIP3    H119662   4.643   2.430   4.829
 6552TIP3    H219663   4.794   2.425   4.836
 6553TIP3   OH219664   2.488   1.506   1.259
 6553TIP3    H119665   2.543   1.430   1.238
 6553TIP3    H219666   2.490   1.510   1.355
 6554TIP3   OH219667   5.940   5.871   2.240
 6554TIP3    H119668   5.899   5.956   2.227
 6554TIP3    H219669   5.867   5.812   2.262
 6555TIP3   OH219670   3.030   5.873   3.155
 6555TIP3    H119671   3.060   5.798   3.207
 6555TIP3    H219672   3.106   5.929   3.147
 6556TIP3   OH219673   0.227   4.817   2.139
 6556TIP3    H119674   0.244   4.871   2.061
 6556TIP3    H219675   0.292   4.847   2.203
 6557TIP3   OH219676   5.051   4.971   4.900
 6557TIP3    H119677   5.109   4.935   4.832
 6557TIP3    H219678   5.053   4.907   4.970
 6558TIP3   OH219679   5.767   0.090   2.105
 6558TIP3    H119680   5.775   0.011   2.158
 6558TIP3    H219681   5.853   0.100   2.064
 6559TIP3   OH219682   5.868   1.065   1.790
 6559TIP3    H119683   5.819   1.045   1.710
 6559TIP3    H219684   5.829   1.146   1.822
 6560TIP3   OH219685   3.108   5.827   0.041
 6560TIP3    H119686   3.134   5.735   0.045
 6560TIP3    H219687   3.189   5.873   0.019
 6561TIP3   OH219688   4.981   5.752   0.582
 6561TIP3    H119689   5.021   5.779   0.664
 6561TIP3    H219690   4.887   5.755   0.598
 6562TIP3   OH219691   2.953   0.801   5.143
 6562TIP3    H119692   2.904   0.719   5.133
 6562TIP3    H219693   2.891   0.868   5.114
 6563TIP3   OH219694   4.752   2.774   1.909
 6563TIP3    H119695   4.680   2.724   1.870
 6563TIP3    H219696   4.710   2.831   1.973
 6564TIP3   OH219697   4.861   4.220   5.081
 6564TIP3    H119698   4.870   4.137   5.034
 6564TIP3    H219699   4.767   4.230   5.095
 6565TIP3   OH219700   2.174   2.711   3.527
 6565TIP3    H119701   2.199   2.793   3.485
 6565TIP3    H219702   2.218   2.643   3.474
 6566TIP3   OH219703   6.352   5.756   3.970
 6566TIP3    H119704   6.278   5.816   3.979
 6566TIP3    H219705   6.313   5.672   3.946
 6567TIP3   OH219706   5.033   3.845   3.374
 6567TIP3    H119707   4.975   3.901   3.425
 6567TIP3    H219708   5.076   3.904   3.312
 6568TIP3   OH219709   0.831   1.422   3.392
 6568TIP3    H119710   0.878   1.347   3.431
 6568TIP3    H219711   0.901   1.479   3.359
 6569TIP3   OH219712   4.070   4.630   3.650
 6569TIP3    H119713   4.127   4.576   3.705
 6569TIP3    H219714   3.996   4.574   3.630
 6570TIP3   OH219715   4.341   0.168   2.288
 6570TIP3    H119716   4.335   0.127   2.202
 6570TIP3    H219717   4.353   0.095   2.349
 6571TIP3   OH219718   0.317   2.341   2.822
 6571TIP3    H119719   0.327   2.343   2.918
 6571TIP3    H219720   0.312   2.248   2.801
 6572TIP3   OH219721   4.074   3.190   4.271
 6572TIP3    H119722   4.085   3.188   4.366
 6572TIP3    H219723   4.126   3.116   4.239
 6573TIP3   OH219724   3.896   0.500   0.700
 6573TIP3    H119725   3.987   0.471   0.701
 6573TIP3    H219726   3.869   0.490   0.609
 6574TIP3   OH219727   3.299   2.742   2.344
 6574TIP3    H119728   3.340   2.718   2.427
 6574TIP3    H219729   3.370   2.782   2.293
 6575TIP3   OH219730   2.267   5.660   2.140
 6575TIP3    H119731   2.351   5.652   2.184
 6575TIP3    H219732   2.248   5.572   2.107
 6576TIP3   OH219733   3.075   4.019   1.743
 6576TIP3    H119734   3.002   4.078   1.763
 6576TIP3    H219735   3.074   4.011   1.648
 6577TIP3   OH219736   0.266   0.272   3.317
 6577TIP3    H119737   0.291   0.320   3.237
 6577TIP3    H219738   0.262   0.180   3.290
 6578TIP3   OH219739   2.241   3.856   2.898
 6578TIP3    H119740   2.218   3.938   2.853
 6578TIP3    H219741   2.189   3.859   2.979
 6579TIP3   OH219742   1.927   2.017   4.143
 6579TIP3    H119743   1.919   1.960   4.067
 6579TIP3    H219744   1.856   1.989   4.202
 6580TIP3   OH219745   5.218   2.977   3.970
 6580TIP3    H119746   5.310   3.005   3.977
 6580TIP3    H219747   5.198   2.983   3.877
 6581TIP3   OH219748   0.804   2.875   0.305
 6581TIP3    H119749   0.757   2.942   0.355
 6581TIP3    H219750   0.738   2.838   0.247
 6582TIP3   OH219751   4.520   2.483   0.970
 6582TIP3    H119752   4.547   2.546   0.903
 6582TIP3    H219753   4.469   2.534   1.032
 6583TIP3   OH219754   0.244   0.755   0.060
 6583TIP3    H119755   0.188   0.831   0.082
 6583TIP3    H219756   0.332   0.792   0.053
 6584TIP3   OH219757   5.435   1.775   4.694
 6584TIP3    H119758   5.502   1.774   4.762
 6584TIP3    H219759   5.484   1.776   4.612
 6585TIP3   OH219760   5.704   0.141   0.008
 6585TIP3    H119761   5.766   0.126   0.079
 6585TIP3    H219762   5.624   0.098   0.037
 6586TIP3   OH219763   1.092   3.243   1.196
 6586TIP3    H119764   1.089   3.252   1.101
 6586TIP3    H219765   1.000   3.236   1.222
 6587TIP3   OH219766   0.443   3.602   4.308
 6587TIP3    H119767   0.484   3.669   4.253
 6587TIP3    H219768   0.349   3.621   4.304
 6588TIP3   OH219769   1.078   4.183   2.763
 6588TIP3    H119770   1.061   4.104   2.814
 6588TIP3    H219771   1.086   4.253   2.828
 6589TIP3   OH219772   3.784   5.627   3.876
 6589TIP3    H119773   3.824   5.628   3.788
 6589TIP3    H219774   3.690   5.620   3.859
 6590TIP3   OH219775   5.071   2.436   0.542
 6590TIP3    H119776   5.060   2.521   0.586
 6590TIP3    H219777   4.997   2.431   0.481
 6591TIP3   OH219778   3.251   2.040   3.267
 6591TIP3    H119779   3.260   2.114   3.328
 6591TIP3    H219780   3.164   2.005   3.285
 6592TIP3   OH219781   0.837   2.197   3.403
 6592TIP3    H119782   0.913   2.240   3.444
 6592TIP3    H219783   0.788   2.161   3.477
 6593TIP3   OH219784   5.844   5.234   4.778
 6593TIP3    H119785   5.819   5.239   4.870
 6593TIP3    H219786   5.775   5.184   4.737
 6594TIP3   OH219787   3.183   5.660   5.140
 6594TIP3    H119788   3.102   5.630   5.100
 6594TIP3    H219789   3.175   5.637   5.232
 6595TIP3   OH219790   5.935   5.717   1.577
 6595TIP3    H119791   5.876   5.771   1.630
 6595TIP3    H219792   5.892   5.632   1.571
 6596TIP3   OH219793   1.205   0.364   1.465
 6596TIP3    H119794   1.162   0.425   1.525
 6596TIP3    H219795   1.136   0.341   1.401
 6597TIP3   OH219796   2.092   1.335   0.377
 6597TIP3    H119797   2.158   1.269   0.357
 6597TIP3    H219798   2.113   1.363   0.466
 6598TIP3   OH219799   1.329   5.464   2.951
 6598TIP3    H119800   1.249   5.515   2.965
 6598TIP3    H219801   1.354   5.434   3.038
 6599TIP3   OH219802   4.567   3.514   0.721
 6599TIP3    H119803   4.531   3.428   0.743
 6599TIP3    H219804   4.535   3.532   0.632
 6600TIP3   OH219805   1.201   5.577   3.849
 6600TIP3    H119806   1.200   5.598   3.755
 6600TIP3    H219807   1.254   5.498   3.855
 6601TIP3   OH219808   0.317   3.441   0.246
 6601TIP3    H119809   0.333   3.535   0.240
 6601TIP3    H219810   0.231   3.433   0.288
 6602TIP3   OH219811   5.331   5.747   1.213
 6602TIP3    H119812   5.377   5.800   1.279
 6602TIP3    H219813   5.272   5.809   1.170
 6603TIP3   OH219814   3.491   5.664   3.827
 6603TIP3    H119815   3.459   5.611   3.754
 6603TIP3    H219816   3.415   5.675   3.884
 6604TIP3   OH219817   3.654   2.992   1.924
 6604TIP3    H119818   3.681   2.941   2.000
 6604TIP3    H219819   3.575   2.948   1.892
 6605TIP3   OH219820   2.377   1.420   1.728
 6605TIP3    H119821   2.337   1.347   1.776
 6605TIP3    H219822   2.310   1.445   1.664
 6606TIP3   OH219823   3.658   5.849   2.292
 6606TIP3    H119824   3.670   5.773   2.235
 6606TIP3    H219825   3.569   5.839   2.326
 6607TIP3   OH219826   1.439   2.870   2.345
 6607TIP3    H119827   1.510   2.846   2.405
 6607TIP3    H219828   1.390   2.937   2.392
 6608TIP3   OH219829   3.390   2.258   0.039
 6608TIP3    H119830   3.407   2.266   0.132
 6608TIP3    H219831   3.313   2.202   0.033
 6609TIP3   OH219832   1.233   3.582   2.399
 6609TIP3    H119833   1.300   3.584   2.467
 6609TIP3    H219834   1.279   3.609   2.319
 6610TIP3   OH219835   0.212   0.528   1.547
 6610TIP3    H119836   0.203   0.461   1.614
 6610TIP3    H219837   0.151   0.501   1.478
 6611TIP3   OH219838   1.722   0.714   3.173
 6611TIP3    H119839   1.666   0.671   3.108
 6611TIP3    H219840   1.754   0.792   3.129
 6612TIP3   OH219841   3.078   1.262   4.376
 6612TIP3    H119842   3.094   1.217   4.294
 6612TIP3    H219843   2.996   1.310   4.362
 6613TIP3   OH219844   1.032   0.523   0.848
 6613TIP3    H119845   1.046   0.430   0.868
 6613TIP3    H219846   0.938   0.535   0.853
 6614TIP3   OH219847   5.626   0.888   2.752
 6614TIP3    H119848   5.658   0.926   2.670
 6614TIP3    H219849   5.662   0.945   2.820
 6615TIP3   OH219850   3.187   1.222   4.616
 6615TIP3    H119851   3.178   1.130   4.590
 6615TIP3    H219852   3.159   1.271   4.539
 6616TIP3   OH219853   4.787   1.584   3.031
 6616TIP3    H119854   4.702   1.560   3.068
 6616TIP3    H219855   4.767   1.647   2.962
 6617TIP3   OH219856   1.662   3.979   4.014
 6617TIP3    H119857   1.750   4.012   4.029
 6617TIP3    H219858   1.673   3.912   3.946
 6618TIP3   OH219859   4.382   3.622   1.064
 6618TIP3    H119860   4.347   3.572   1.138
 6618TIP3    H219861   4.474   3.633   1.084
 6619TIP3   OH219862   1.642   2.741   3.521
 6619TIP3    H119863   1.628   2.823   3.474
 6619TIP3    H219864   1.554   2.712   3.543
 6620TIP3   OH219865   6.277   0.684   2.135
 6620TIP3    H119866   6.283   0.597   2.096
 6620TIP3    H219867   6.232   0.737   2.069
 6621TIP3   OH219868   6.334   2.237   1.453
 6621TIP3    H119869   6.251   2.206   1.490
 6621TIP3    H219870   6.325   2.223   1.359
 6622TIP3   OH219871   2.828   0.059   3.948
 6622TIP3    H119872   2.840   0.064   4.043
 6622TIP3    H219873   2.870   0.138   3.914
 6623TIP3   OH219874   5.764   5.673   2.627
 6623TIP3    H119875   5.825   5.646   2.695
 6623TIP3    H219876   5.688   5.617   2.640
 6624TIP3   OH219877   1.090   1.754   1.934
 6624TIP3    H119878   1.113   1.771   1.842
 6624TIP3    H219879   0.995   1.739   1.933
 6625TIP3   OH219880   1.613   0.248   3.091
 6625TIP3    H119881   1.676   0.297   3.144
 6625TIP3    H219882   1.537   0.236   3.149
 6626TIP3   OH219883   5.578   0.858   5.085
 6626TIP3    H119884   5.492   0.818   5.074
 6626TIP3    H219885   5.564   0.927   5.150
 6627TIP3   OH219886   4.429   2.416   2.629
 6627TIP3    H119887   4.441   2.503   2.589
 6627TIP3    H219888   4.491   2.360   2.582
 6628TIP3   OH219889   3.827   0.388   5.112
 6628TIP3    H119890   3.843   0.475   5.075
 6628TIP3    H219891   3.736   0.391   5.142
 6629TIP3   OH219892   4.784   3.385   3.122
 6629TIP3    H119893   4.803   3.476   3.143
 6629TIP3    H219894   4.721   3.390   3.050
 6630TIP3   OH219895   3.937   5.476   2.243
 6630TIP3    H119896   3.844   5.487   2.224
 6630TIP3    H219897   3.952   5.381   2.234
 6631TIP3   OH219898   3.327   5.467   1.282
 6631TIP3    H119899   3.318   5.405   1.354
 6631TIP3    H219900   3.408   5.440   1.237
 6632TIP3   OH219901   2.363   0.907   3.132
 6632TIP3    H119902   2.303   0.952   3.072
 6632TIP3    H219903   2.376   0.968   3.204
 6633TIP3   OH219904   0.172   3.486   1.653
 6633TIP3    H119905   0.252   3.472   1.602
 6633TIP3    H219906   0.148   3.577   1.637
 6634TIP3   OH219907   2.628   3.848   2.685
 6634TIP3    H119908   2.660   3.887   2.604
 6634TIP3    H219909   2.611   3.756   2.663
 6635TIP3   OH219910   0.894   2.112   4.451
 6635TIP3    H119911   0.807   2.075   4.470
 6635TIP3    H219912   0.898   2.191   4.505
 6636TIP3   OH219913   1.853   0.399   1.436
 6636TIP3    H119914   1.805   0.322   1.467
 6636TIP3    H219915   1.798   0.434   1.366
 6637TIP3   OH219916   2.213   5.944   2.577
 6637TIP3    H119917   2.159   5.882   2.528
 6637TIP3    H219918   2.167   6.028   2.568
 6638TIP3   OH219919   2.697   4.388   0.374
 6638TIP3    H119920   2.789   4.400   0.397
 6638TIP3    H219921   2.698   4.333   0.296
 6639TIP3   OH219922   3.146   0.614   4.365
 6639TIP3    H119923   3.188   0.697   4.341
 6639TIP3    H219924   3.217   0.560   4.399
 6640TIP3   OH219925   3.543   2.817   4.797
 6640TIP3    H119926   3.611   2.808   4.865
 6640TIP3    H219927   3.479   2.749   4.819
   6.33968   5.97710   5.17633   0.00000   0.00000  -2.11323   0.00000  -2.11323  -2.98856
