Title
51106
    1GLY      N    1   6.685   4.772   3.838  0.1342 -0.5170  0.0707
    1GLY    HT1    2   6.612   4.844   3.857  0.8650 -0.0690  1.2285
    1GLY    HT2    3   6.690   4.747   3.737  0.7178  0.9168 -0.2698
    1GLY    HT3    4   6.776   4.817   3.861 -0.1344  0.6750 -1.1351
    1GLY     CA    5   6.658   4.648   3.914 -0.3471 -0.1626 -0.2934
    1GLY    HA1    6   6.676   4.673   4.017 -0.5464 -0.4477 -0.1878
    1GLY    HA2    7   6.726   4.574   3.874 -0.2510 -0.9082  1.2313
    1GLY      C    8   6.523   4.578   3.900  0.4293  0.6083  0.2368
    1GLY      O    9   6.476   4.582   3.788 -0.2988 -0.4173 -0.3781
    2PRO      N   10   6.463   4.519   4.006  0.3225  0.0766 -0.1866
    2PRO     CD   11   6.534   4.482   4.127 -0.2644 -0.3852 -1.3729
    2PRO    HD1   12   6.552   4.575   4.185  0.1494 -2.3573  1.7968
    2PRO    HD2   13   6.627   4.432   4.092  0.5982  0.7903 -0.7999
    2PRO     CA   14   6.323   4.477   4.008 -0.4449 -0.0459  1.3177
    2PRO     HA   15   6.332   4.390   3.944  0.3552  0.7872  0.2858
    2PRO     CB   16   6.298   4.435   4.152  0.0686 -0.2463  0.2804
    2PRO    HB1   17   6.217   4.359   4.154 -0.5081  0.3629  0.2217
    2PRO    HB2   18   6.266   4.520   4.216  0.6471 -0.7219  1.2045
    2PRO     CG   19   6.436   4.393   4.204 -0.0342 -0.1480  0.3179
    2PRO    HG1   20   6.439   4.423   4.311 -1.9288 -2.3307  1.0344
    2PRO    HG2   21   6.446   4.283   4.190  1.7619 -0.0411  0.6784
    2PRO      C   22   6.227   4.580   3.954 -0.3531  0.5234  0.2313
    2PRO      O   23   6.240   4.700   3.982  0.7877 -0.0911 -0.0055
    3GLY      N   24   6.127   4.535   3.876  0.2127  0.2347  0.7061
    3GLY     HN   25   6.115   4.437   3.868 -2.4370  0.4962  1.0464
    3GLY     CA   26   6.017   4.630   3.836 -0.2825  0.0825 -0.4822
    3GLY    HA1   27   5.959   4.573   3.765 -1.5242  0.9113 -0.1538
    3GLY    HA2   28   6.066   4.716   3.792  1.3462  0.0399  1.1775
    3GLY      C   29   5.925   4.676   3.947 -0.3064  0.1511 -0.0866
    3GLY      O   30   5.961   4.667   4.064  0.3337 -0.0594  0.4937
    4ASP      N   31   5.811   4.735   3.920  0.4152  0.0322  0.5060
    4ASP     HN   32   5.771   4.734   3.829  2.0475  2.1677 -0.2841
    4ASP     CA   33   5.726   4.803   4.017 -0.5945 -0.3661  0.1148
    4ASP     HA   34   5.789   4.851   4.091  0.4500 -0.3452 -0.7736
    4ASP     CB   35   5.640   4.914   3.949 -0.9751  0.0896 -0.5952
    4ASP    HB1   36   5.574   4.965   4.023 -0.3420  2.3513 -1.5493
    4ASP    HB2   37   5.577   4.874   3.866 -0.5216 -1.0388 -0.3971
    4ASP     CG   38   5.732   5.021   3.908 -0.0905 -0.2752  0.7179
    4ASP    OD1   39   5.854   5.029   3.934  0.3814  0.1709  0.1663
    4ASP    OD2   40   5.677   5.102   3.834 -0.5548 -0.0861 -0.2008
    4ASP      C   41   5.643   4.702   4.091 -0.1133  0.3489  0.0829
    4ASP      O   42   5.631   4.591   4.039 -0.0625 -1.0287  0.5196
    5PRO      N   43   5.579   4.727   4.205 -0.1725 -0.3955  0.2525
    5PRO     CD   44   5.614   4.836   4.296  0.0858  0.1288 -0.5455
    5PRO    HD1   45   5.562   4.928   4.261 -2.3310 -0.8760  0.2557
    5PRO    HD2   46   5.724   4.849   4.288  0.2238 -0.7242 -0.0497
    5PRO     CA   47   5.475   4.647   4.252 -0.2499  0.4896  0.6533
    5PRO     HA   48   5.513   4.546   4.256 -1.2508  0.1074  0.8267
    5PRO     CB   49   5.439   4.703   4.395 -0.2228  0.4146  0.3679
    5PRO    HB1   50   5.419   4.625   4.471  0.0367 -0.0397 -0.0203
    5PRO    HB2   51   5.348   4.766   4.396 -2.6378 -2.9128  0.8401
    5PRO     CG   52   5.559   4.788   4.426  0.6501  0.5433 -0.7345
    5PRO    HG1   53   5.532   4.875   4.490  0.8610  1.6360 -2.1060
    5PRO    HG2   54   5.628   4.722   4.483 -1.8213 -2.0439 -0.6309
    5PRO      C   55   5.348   4.636   4.167  0.3633  0.2985 -0.4134
    5PRO      O   56   5.317   4.743   4.107  0.1478 -0.1909  0.0398
    6GLY      N   57   5.287   4.518   4.151  0.6588 -0.4707 -0.1227
    6GLY     HN   58   5.329   4.429   4.164 -1.6330 -1.5713 -0.0095
    6GLY     CA   59   5.150   4.513   4.100 -1.0754  0.3778 -0.4421
    6GLY    HA1   60   5.114   4.411   4.092  1.5190 -0.6943  0.8662
    6GLY    HA2   61   5.156   4.553   4.000 -0.0562  1.8157  0.1723
    6GLY      C   62   5.040   4.585   4.178 -0.3008  0.2146  0.6409
    6GLY      O   63   5.036   4.572   4.296 -0.0976 -0.0251 -0.1590
    7SER      N   64   4.946   4.652   4.112  0.0839  0.1126 -0.5930
    7SER     HN   65   4.945   4.660   4.013  0.4518  1.1787 -0.5128
    7SER     CA   66   4.841   4.732   4.168  0.1286  0.1370 -0.1225
    7SER     HA   67   4.886   4.791   4.248 -0.7479 -2.5217  2.3996
    7SER     CB   68   4.763   4.837   4.078  0.1719 -0.1716 -0.2251
    7SER    HB1   69   4.678   4.885   4.132  1.6398 -0.0764  2.0810
    7SER    HB2   70   4.731   4.788   3.983  0.7777 -0.1669 -0.4297
    7SER     OG   71   4.851   4.946   4.039 -0.4044  0.2761  0.0118
    7SER    HG1   72   4.889   4.989   4.115  2.0560 -1.5960 -0.1140
    7SER      C   73   4.742   4.646   4.248 -0.5288  0.1146  0.3551
    7SER      O   74   4.726   4.529   4.216  0.1578 -0.0472 -0.0731
    8ASP      N   75   4.685   4.707   4.355  0.4604 -0.1084  0.5767
    8ASP     HN   76   4.701   4.804   4.373 -2.3750  0.7583 -1.1715
    8ASP     CA   77   4.584   4.637   4.431 -0.6752 -0.0102  0.0175
    8ASP     HA   78   4.634   4.554   4.480  1.5966 -0.0367 -2.2690
    8ASP     CB   79   4.532   4.737   4.536  0.1057 -0.4184  0.0074
    8ASP    HB1   80   4.454   4.679   4.590 -0.7226 -2.2291 -2.9764
    8ASP    HB2   81   4.501   4.835   4.494  2.5427 -0.0441 -1.0196
    8ASP     CG   82   4.628   4.769   4.645  1.2897 -0.1167 -0.2825
    8ASP    OD1   83   4.745   4.717   4.644  0.2584 -0.5282 -0.2238
    8ASP    OD2   84   4.584   4.848   4.739  0.4880 -0.1885  0.2073
    8ASP      C   85   4.465   4.579   4.352  0.5806 -0.2256  0.2864
    8ASP      O   86   4.412   4.641   4.261  0.1169  0.0724  0.2859
    9GLY      N   87   4.435   4.452   4.386  0.3896  0.2748  0.5418
    9GLY     HN   88   4.488   4.415   4.463  0.6284  1.1300  0.7895
    9GLY     CA   89   4.323   4.379   4.326  0.2066  0.2909  0.3735
    9GLY    HA1   90   4.326   4.277   4.364 -1.3683  0.1994  0.2864
    9GLY    HA2   91   4.342   4.388   4.220  0.1483 -3.6223 -0.0404
    9GLY      C   92   4.182   4.421   4.353  0.0085  0.9023  0.5804
    9GLY      O   93   4.155   4.508   4.433  0.0072 -0.4928  0.2306
   10PRO      N   94   4.078   4.357   4.304 -0.2032  0.5521  0.2710
   10PRO     CD   95   4.074   4.282   4.179 -0.3319  0.0866 -0.4659
   10PRO    HD1   96   4.112   4.179   4.191 -3.5556 -0.9906  0.9815
   10PRO    HD2   97   4.146   4.329   4.108  1.0186  0.8499  1.3583
   10PRO     CA   98   3.941   4.386   4.347 -0.3584  0.0555  0.1159
   10PRO     HA   99   3.916   4.482   4.304  0.4828 -0.9672 -2.7338
   10PRO     CB  100   3.865   4.267   4.284  0.4198 -0.5037  1.0497
   10PRO    HB1  101   3.756   4.288   4.291 -0.2454 -2.0170 -3.0799
   10PRO    HB2  102   3.910   4.183   4.342 -0.0929 -0.4832  1.4752
   10PRO     CG  103   3.923   4.278   4.145 -0.3525  0.9363 -0.1334
   10PRO    HG1  104   3.897   4.202   4.068  1.9881  0.6468 -0.6657
   10PRO    HG2  105   3.910   4.374   4.091  0.7519  0.7782 -0.6984
   10PRO      C  106   3.917   4.395   4.499 -0.0141 -0.6097  0.1254
   10PRO      O  107   3.977   4.318   4.568  0.0932  0.3157  0.0418
   11GLY      N  108   3.827   4.487   4.543  0.0467 -0.4038 -0.0060
   11GLY     HN  109   3.791   4.535   4.464 -1.0468 -1.0448  0.0926
   11GLY     CA  110   3.771   4.513   4.674 -0.3575  0.3570  0.0958
   11GLY    HA1  111   3.716   4.606   4.665  0.1560  0.5811 -0.8168
   11GLY    HA2  112   3.858   4.523   4.737  0.4229 -0.2354 -0.8718
   11GLY      C  113   3.683   4.395   4.721  0.3466  0.4414 -0.5012
   11GLY      O  114   3.645   4.310   4.647  0.0706  0.0498  0.3109
   12ASP      N  115   3.638   4.408   4.852  0.2518 -0.5870  0.4477
   12ASP     HN  116   3.675   4.481   4.910 -1.5243  1.6924 -1.1804
   12ASP     CA  117   3.540   4.314   4.899  0.2277  0.1740  0.0542
   12ASP     HA  118   3.589   4.219   4.891  1.3485  0.8448 -1.2138
   12ASP     CB  119   3.509   4.344   5.045 -0.2975  0.9237 -0.0375
   12ASP    HB1  120   3.436   4.265   5.073  1.1927  0.0994  1.5527
   12ASP    HB2  121   3.479   4.449   5.064 -1.3598  0.5401  0.4667
   12ASP     CG  122   3.627   4.307   5.142  0.6376  0.2670  0.0374
   12ASP    OD1  123   3.706   4.214   5.106  0.2732 -0.3239  0.7007
   12ASP    OD2  124   3.630   4.360   5.255 -0.1545 -0.1863  0.3638
   12ASP      C  125   3.404   4.322   4.824 -0.2496 -0.1178  0.2488
   12ASP      O  126   3.362   4.435   4.793  0.0377  0.3873 -0.3649
   13PRO      N  127   3.334   4.212   4.787  0.3027  0.3159 -0.2756
   13PRO     CD  128   3.390   4.076   4.780  0.0415  0.7506  0.3632
   13PRO    HD1  129   3.454   4.056   4.868 -1.3143  1.2705  1.4831
   13PRO    HD2  130   3.428   4.062   4.676  1.3874  0.2855  0.9114
   13PRO     CA  131   3.194   4.206   4.755 -0.1014  0.6036 -0.4257
   13PRO     HA  132   3.169   4.267   4.670 -0.6319  0.5539 -0.3106
   13PRO     CB  133   3.149   4.058   4.739 -0.2276 -0.5847 -0.2993
   13PRO    HB1  134   3.109   4.041   4.637 -1.6324 -1.7399  0.4242
   13PRO    HB2  135   3.067   4.027   4.807  0.2735 -0.4873  0.3572
   13PRO     CG  136   3.271   3.980   4.791  0.2183 -0.3217  0.3673
   13PRO    HG1  137   3.249   3.934   4.890  0.2839 -2.0644 -0.4088
   13PRO    HG2  138   3.294   3.893   4.726 -0.4227  0.0131 -0.3067
   13PRO      C  139   3.110   4.271   4.869  0.0122  0.0171  0.2874
   13PRO      O  140   3.136   4.253   4.986 -0.3686 -0.1929  0.1374
   14GLY      N  141   3.022   4.361   4.823  0.3414 -0.6774 -0.2162
   14GLY     HN  142   3.015   4.408   4.736 -1.5957 -3.4236 -1.6381
   14GLY     CA  143   2.919   4.413   4.915  0.0335  0.6405  0.1672
   14GLY    HA1  144   2.857   4.471   4.849 -0.8306  0.9364  1.2274
   14GLY    HA2  145   2.959   4.471   4.997 -1.4608 -0.8372  1.9844
   14GLY      C  146   2.817   4.312   4.970  0.9823  0.4423  0.2370
   14GLY      O  147   2.801   4.204   4.919  0.3806  0.1342 -0.4896
   15SER      N  148   2.754   4.346   5.087  0.1113 -0.3143 -0.0356
   15SER     HN  149   2.772   4.436   5.127 -2.0075  0.0992  0.0605
   15SER     CA  150   2.665   4.262   5.165  0.6871  0.4027 -0.7566
   15SER     HA  151   2.717   4.171   5.190  1.8400  1.1827 -0.2712
   15SER     CB  152   2.617   4.324   5.297  0.1739  0.1747 -0.1696
   15SER    HB1  153   2.551   4.254   5.352  0.5309 -0.2001 -0.2210
   15SER    HB2  154   2.569   4.424   5.284 -2.2118 -0.9347 -0.1501
   15SER     OG  155   2.730   4.349   5.384  0.2052  0.0377 -0.2593
   15SER    HG1  156   2.758   4.263   5.414 -0.6414  0.2287  1.1747
   15SER      C  157   2.546   4.221   5.092 -0.2210  0.0323  0.1353
   15SER      O  158   2.487   4.303   5.009  0.0219 -0.0543 -0.5486
   16ASP      N  159   2.508   4.097   5.117 -0.7090  0.0642  0.4644
   16ASP     HN  160   2.567   4.040   5.175 -0.2349  1.3239  1.2393
   16ASP     CA  161   2.385   4.039   5.060 -0.0916 -0.4606  0.2780
   16ASP     HA  162   2.368   4.066   4.956 -0.6042 -0.2713  0.4064
   16ASP     CB  163   2.396   3.884   5.069 -0.1050  0.5983  0.6152
   16ASP    HB1  164   2.305   3.837   5.027 -0.3748  1.2508  0.4586
   16ASP    HB2  165   2.407   3.861   5.177  1.9004  2.1476  0.7761
   16ASP     CG  166   2.515   3.832   4.991  0.1395  0.3442  0.1397
   16ASP    OD1  167   2.536   3.852   4.865 -0.0564  0.0576 -0.2578
   16ASP    OD2  168   2.591   3.756   5.056 -0.6501 -1.2488  0.8505
   16ASP      C  169   2.263   4.087   5.141  0.1629  0.0426  0.0237
   16ASP    OT1  170   2.145   4.072   5.097 -0.3073 -0.7179  0.0481
   16ASP    OT2  171   2.279   4.145   5.253  0.5390  1.2659  0.5619
   17SOD    SOD  172   5.790   5.707   5.952 -0.6047 -0.0415  0.2505
   18SOD    SOD  173   4.269   1.716   4.604  0.2529  0.2467  0.2641
   19SOD    SOD  174   4.708   7.089   5.175 -0.1878  0.3922  0.6175
   20SOD    SOD  175   4.417   5.108   1.540 -0.1724 -0.1580  0.8007
   21SOD    SOD  176   1.464   2.428   0.462 -0.3568  0.0906 -0.5208
   22SOD    SOD  177   2.794   0.707   2.795 -0.8544  0.1431  0.0545
   23SOD    SOD  178   4.367   3.744   3.021 -0.1033  0.2965 -0.6172
   24SOD    SOD  179   4.911   3.650   6.786  0.0527  0.1079  0.1046
   25SOD    SOD  180   1.981   7.074   4.664  0.3517 -0.0633 -0.0535
   26SOD    SOD  181   4.987   1.363   0.257  0.2002 -0.1590 -0.3765
   27SOD    SOD  182   2.342   4.438   4.890 -0.5198 -0.1555  0.2637
   28SOD    SOD  183   2.131   0.167   2.992 -0.0938 -0.0501 -0.3904
   29SOD    SOD  184   5.998   4.547   0.851 -0.1142  0.0258 -0.1381
   30SOD    SOD  185   4.360   0.621   5.086 -0.2243 -0.3175 -0.0175
   31SOD    SOD  186   8.003   2.249   0.089 -0.2727  0.3997  0.0111
   32SOD    SOD  187   5.221   1.630   4.999  0.1148 -0.3227  0.7001
   33SOD    SOD  188   6.974   7.377   3.267 -0.0066  0.2173  0.2342
   34SOD    SOD  189   0.571   0.107   4.311  0.2099  0.5142 -0.0582
   35SOD    SOD  190   7.949   1.166   1.078 -0.2609 -0.4183 -0.5605
   36SOD    SOD  191   8.406   5.271   5.449  0.1007 -0.0204 -0.1208
   37SOD    SOD  192   8.397   5.212   4.170 -0.1882 -0.7378  0.5048
   38SOD    SOD  193   4.388   5.151   4.842 -0.0696 -0.0419 -0.0299
   39SOD    SOD  194   4.299   6.467   3.695 -0.3165  0.0258 -0.0001
   40SOD    SOD  195   5.923   0.550   4.890  0.7409 -0.0565  0.1929
   41SOD    SOD  196   4.903   2.167   5.695  0.0142  0.6160  0.2287
   42SOD    SOD  197   1.993   8.023   5.726  0.2810 -0.8102 -0.2780
   43SOD    SOD  198   3.651   6.771   3.979  0.4216 -0.4275 -0.1437
   44SOD    SOD  199   0.259   0.223   2.369  0.0017  0.0194  0.3348
   45SOD    SOD  200   5.501   4.861   5.262 -0.6704  0.2041  0.0124
   46SOD    SOD  201   4.417   4.787   3.347  0.4832 -0.1776 -0.4736
   47SOD    SOD  202   0.419   1.760   3.867  0.2358 -0.1190  0.0120
   48SOD    SOD  203   2.532   1.465   0.590  0.1800  0.2945 -0.2672
   49SOD    SOD  204   6.470   8.293   6.970 -0.1144  0.0296 -0.2683
   50SOD    SOD  205   5.147   4.598   0.448 -0.3584  0.0405  0.2745
   51SOD    SOD  206   4.544   4.431   4.929 -0.2489 -0.2095  0.4266
   52SOD    SOD  207   2.022   1.234   2.680  0.0091 -0.3611  0.1591
   53SOD    SOD  208   0.436   4.234   5.113  0.4017 -0.2255 -0.4582
   54SOD    SOD  209   1.110   4.412   0.297 -0.3973 -0.1139  0.3638
   55SOD    SOD  210   3.126   1.367   2.173  0.2473 -0.1491  0.3250
   56SOD    SOD  211   8.172   4.104   4.847  0.7380  0.3546  0.0976
   57SOD    SOD  212   7.257   5.470   1.528  0.5805 -0.2035  0.1332
   58SOD    SOD  213   0.094   1.655   7.264  0.1245  0.3219  0.7994
   59SOD    SOD  214   6.429   0.614   7.085 -0.3491  0.5936  0.8236
   60SOD    SOD  215   4.322   0.809   6.953  0.0716 -0.7791  0.1454
   61SOD    SOD  216   2.250   4.008   1.258  0.5135 -0.3899  0.2258
   62SOD    SOD  217   1.478   2.367   1.615 -0.0879 -0.2885  0.0789
   63SOD    SOD  218   1.262   6.230   5.862  0.3285  0.2789 -0.5113
   64SOD    SOD  219   8.527   4.516   4.941 -0.0065 -0.1113 -0.2724
   65SOD    SOD  220   1.516   0.488   0.304  0.4674  0.0788  0.1694
   66SOD    SOD  221   2.601   7.805   4.919 -0.0932  0.0711 -0.1632
   67SOD    SOD  222   3.850   2.466   1.764  0.5820  0.4256  0.0935
   68SOD    SOD  223   8.546   3.233   1.878  0.3179 -0.0363 -0.0938
   69CLA    CLA  224   1.963   4.937   3.361 -0.0679  0.3837 -0.3790
   70CLA    CLA  225   5.113   5.124   0.555 -0.1199 -0.1105  0.2270
   71CLA    CLA  226   5.202   1.483   5.416  0.2707 -0.1082 -0.1224
   72CLA    CLA  227   3.148   3.576   0.734 -0.1224 -0.3936 -0.0554
   73CLA    CLA  228   7.669   3.595   4.517 -0.0127 -0.2938 -0.0308
   74CLA    CLA  229   2.554   0.374   1.471 -0.1888 -0.1420 -0.6437
   75CLA    CLA  230   7.818   5.751   5.099 -0.1291  0.1554 -0.2758
   76CLA    CLA  231   1.884   2.718   0.513 -0.1449 -0.3685  0.3547
   77CLA    CLA  232   8.267   4.011   5.585 -0.2469 -0.0282 -0.2734
   78CLA    CLA  233   7.953   4.696   5.676  0.2879  0.5914  0.4666
   79CLA    CLA  234   1.611   7.699   5.030  0.0894  0.1270  0.4162
   80CLA    CLA  235   8.359   0.633   0.906  0.4933  0.5204  0.1537
   81CLA    CLA  236   4.574   0.560   2.986 -0.2123 -0.2811 -0.0501
   82CLA    CLA  237   3.919   6.335   3.964  0.3644  0.2117 -0.2682
   83CLA    CLA  238   0.370   4.202   6.798  0.2466 -0.2771 -0.3200
   84CLA    CLA  239   5.709   3.186   2.585  0.0564 -0.0335  0.1120
   85CLA    CLA  240   2.824   2.149   5.856  0.0148  0.1800 -0.2184
   86CLA    CLA  241   4.565   6.094   6.306 -0.0202 -0.1175 -0.4260
   87CLA    CLA  242   3.033   2.436   3.215  0.0906  0.1403 -0.1461
   88CLA    CLA  243   8.081   1.925   1.534 -0.3832  0.4016  0.5871
   89CLA    CLA  244   1.133   1.044   3.644  0.3467 -0.2848 -0.3294
   90CLA    CLA  245   1.870   4.514   3.405 -0.1504  0.0699 -0.2045
   91CLA    CLA  246   0.734   0.344   6.783  0.1594  0.0686 -0.1597
   92CLA    CLA  247   7.383   1.115   4.409  0.0331 -0.1105 -0.2807
   93CLA    CLA  248   4.678   6.427   3.455 -0.1924 -0.5957  0.2648
   94CLA    CLA  249   6.525   1.183   1.921  0.3587 -0.2825  0.3934
   95CLA    CLA  250   2.437   8.258   3.840  0.1049  0.1006 -0.1044
   96CLA    CLA  251   4.143   3.393   1.872  0.0447 -0.1235  0.3978
   97CLA    CLA  252   0.525   6.717   6.851  0.4859  0.0026  0.1368
   98CLA    CLA  253   3.776   7.184   4.334 -0.0739 -0.0242  0.2866
   99CLA    CLA  254   1.420   1.610   2.189 -0.2031 -0.3057 -0.0782
  100CLA    CLA  255   0.151   3.079   1.372 -0.0252  0.4138 -0.0837
  101CLA    CLA  256   6.709   4.990   2.775 -0.2935  0.6863  0.1952
  102CLA    CLA  257   0.742   4.605   0.184  0.2701 -0.5886  0.0554
  103CLA    CLA  258   7.926   5.287   3.770  0.3434  0.5684  0.5237
  104CLA    CLA  259   1.759   2.227   2.852  0.0291 -0.5994 -0.3890
  105CLA    CLA  260   3.162   1.775   4.610  0.1500 -0.1624  0.7275
  106CLA    CLA  261   5.116   4.620   1.346  0.3641  0.2682  0.2635
  107CLA    CLA  262   0.306   0.014   1.590  0.1455  0.0909 -0.0375
  108CLA    CLA  263   6.136   7.144   2.347  0.2074 -0.3596 -0.1219
  109CLA    CLA  264   8.632   4.362   2.427 -0.0164  0.4306  0.1392
  110CLA    CLA  265   5.844   5.188   5.243  0.2139  0.1407  0.1384
  111CLA    CLA  266   0.233   2.561   0.109 -0.1322 -0.3335 -0.4413
  112CLA    CLA  267   4.920   4.441   5.119  0.1143 -0.0537  0.0240
  113CLA    CLA  268   0.809   1.901   5.166  0.1916  0.4494 -0.2742
  114CLA    CLA  269   5.697   3.050   4.183  0.0307 -0.5318 -0.0792
  115CLA    CLA  270   4.436   7.203   5.135  0.3376 -0.0461  0.0178
  116CLA    CLA  271   4.279   5.821   4.831  0.1237  0.2057  0.0365
  117TIP3   OH2  272   0.177   6.714   1.156 -0.0238  0.2441 -0.6563
  117TIP3    H1  273   0.269   6.711   1.181 -0.4209 -0.3113  0.7590
  117TIP3    H2  274   0.130   6.679   1.231 -1.2959 -0.7722 -1.8985
  118TIP3   OH2  275   0.543   6.620   2.720 -0.2920  0.0356  0.1631
  118TIP3    H1  276   0.560   6.714   2.709  0.1412  0.3148  2.7147
  118TIP3    H2  277   0.475   6.599   2.657  1.2056  1.5767 -2.0080
  119TIP3   OH2  278   1.609   8.041   2.722  0.7844 -0.2568  0.1556
  119TIP3    H1  279   1.534   7.992   2.755  2.5450 -0.9898  3.3526
  119TIP3    H2  280   1.684   7.984   2.738  2.3895  1.7525  0.1154
  120TIP3   OH2  281   1.127   8.228   3.599  0.0152  0.5245  0.0830
  120TIP3    H1  282   1.154   8.157   3.657 -0.8139  1.2265  1.3270
  120TIP3    H2  283   1.121   8.186   3.512  1.3723 -0.4861  0.4634
  121TIP3   OH2  284   7.369   5.223   7.205  0.0817  0.3549 -0.4139
  121TIP3    H1  285   7.397   5.311   7.231 -0.0415  0.5568 -0.9771
  121TIP3    H2  286   7.373   5.173   7.287 -1.8556  1.3848  0.3410
  122TIP3   OH2  287   3.386   0.956   3.713  0.1934 -0.7050  0.3265
  122TIP3    H1  288   3.345   1.042   3.700  0.4758 -0.4831  0.9183
  122TIP3    H2  289   3.312   0.895   3.718 -0.0365 -0.3848  0.7713
  123TIP3   OH2  290   4.966   0.770   2.550  0.1450 -0.6709  0.0422
  123TIP3    H1  291   4.945   0.829   2.478 -2.2011  1.6641  2.5191
  123TIP3    H2  292   4.975   0.684   2.509 -1.1712  0.5898 -3.0170
  124TIP3   OH2  293   2.980   0.192   1.355 -0.8828  0.1266 -0.1216
  124TIP3    H1  294   2.920   0.249   1.305 -0.8476  0.8296  0.6325
  124TIP3    H2  295   3.067   0.224   1.333 -0.8078 -0.5330 -0.7788
  125TIP3   OH2  296   5.400   0.172   1.634  0.4742 -0.0967  0.3837
  125TIP3    H1  297   5.335   0.114   1.674 -1.2329  0.6725 -1.1924
  125TIP3    H2  298   5.390   0.158   1.540  0.8538  1.8653  0.0350
  126TIP3   OH2  299   6.907   0.992   1.321  0.1804  0.1786 -0.0920
  126TIP3    H1  300   6.841   1.029   1.263  0.5774  1.5994  0.3428
  126TIP3    H2  301   6.875   0.905   1.342 -1.6688  0.9518  0.3164
  127TIP3   OH2  302   2.827   0.074   1.855 -0.0163 -0.0639 -0.6099
  127TIP3    H1  303   2.881   0.104   1.929 -1.2486  0.0214  0.2711
  127TIP3    H2  304   2.771   0.006   1.893  0.3266 -1.0132 -1.8004
  128TIP3   OH2  305   4.375   1.773   0.834 -0.3778 -0.0401  0.0618
  128TIP3    H1  306   4.366   1.866   0.816 -0.6861  0.0561  0.7056
  128TIP3    H2  307   4.363   1.765   0.929 -0.8277 -0.7938 -0.0493
  129TIP3   OH2  308   0.701   8.125   3.175  0.2156 -0.2525  0.8687
  129TIP3    H1  309   0.609   8.150   3.166  0.3283  0.7030  2.1502
  129TIP3    H2  310   0.745   8.206   3.203  1.6022 -0.4648 -0.6570
  130TIP3   OH2  311   7.086   2.632   1.461  0.3498 -0.2727  0.1170
  130TIP3    H1  312   7.020   2.566   1.438  1.2484 -0.9029 -0.6732
  130TIP3    H2  313   7.106   2.675   1.378  0.3762  0.4474  0.4914
  131TIP3   OH2  314   3.175   3.516   1.522 -0.3840  0.1758  0.1900
  131TIP3    H1  315   3.135   3.536   1.607 -3.2008 -1.0118 -0.8052
  131TIP3    H2  316   3.128   3.570   1.459 -2.2184 -3.0387 -1.3354
  132TIP3   OH2  317   1.543   7.807   4.260  0.2994  0.7721  0.4360
  132TIP3    H1  318   1.601   7.868   4.306  0.5963  0.8545 -0.0433
  132TIP3    H2  319   1.473   7.790   4.322  0.7616  0.7881  0.9671
  133TIP3   OH2  320   4.857   2.841   0.760 -0.3481 -0.0240 -0.5472
  133TIP3    H1  321   4.818   2.817   0.844  1.7416  1.6494  0.9694
  133TIP3    H2  322   4.830   2.932   0.746  0.0176 -0.0160 -1.2387
  134TIP3   OH2  323   1.243   7.327   3.820 -0.1543  0.5011 -0.3303
  134TIP3    H1  324   1.222   7.416   3.792 -0.6293  0.2858 -0.6572
  134TIP3    H2  325   1.181   7.272   3.773 -0.7742  0.1144  0.9177
  135TIP3   OH2  326   1.741   7.138   3.998  0.8844  0.3406 -0.2513
  135TIP3    H1  327   1.688   7.208   3.960 -0.2785  0.0279  0.7600
  135TIP3    H2  328   1.777   7.091   3.923 -1.5091 -0.3755 -0.9748
  136TIP3   OH2  329   3.996   0.805   2.346 -0.0229 -0.4682  0.2380
  136TIP3    H1  330   3.968   0.835   2.260 -1.1884 -0.1295  0.7216
  136TIP3    H2  331   4.067   0.744   2.328  1.9220  2.0233 -0.7864
  137TIP3   OH2  332   1.033   0.270   3.644 -0.1978 -0.1146  0.2182
  137TIP3    H1  333   1.090   0.335   3.604 -0.7784 -0.6703 -1.5614
  137TIP3    H2  334   1.087   0.229   3.712  1.1104  0.2009 -0.6247
  138TIP3   OH2  335   4.995   0.914   0.727 -0.3992  0.2376  0.0561
  138TIP3    H1  336   5.072   0.922   0.783 -0.4911  0.1999  0.1893
  138TIP3    H2  337   4.957   1.002   0.725 -0.5940  0.1622  0.3400
  139TIP3   OH2  338   3.921   0.410   1.605 -0.1157 -0.8220 -0.5334
  139TIP3    H1  339   3.893   0.459   1.681 -1.8670 -1.1020 -0.9630
  139TIP3    H2  340   4.014   0.395   1.618 -0.1979 -0.0046  1.0513
  140TIP3   OH2  341   1.963   6.875   2.997 -0.0928 -0.1935  0.9198
  140TIP3    H1  342   2.052   6.909   2.985 -0.2935 -0.0535 -0.2781
  140TIP3    H2  343   1.907   6.941   2.955 -0.5174 -1.7361 -1.0221
  141TIP3   OH2  344   2.699   5.940   3.298 -0.3857  0.2315 -0.2047
  141TIP3    H1  345   2.668   5.873   3.359  1.0647  0.0916  0.4140
  141TIP3    H2  346   2.642   5.932   3.222 -0.5656 -1.3646  0.0797
  142TIP3   OH2  347   1.422   6.901   2.318  0.2417  0.3098  0.7189
  142TIP3    H1  348   1.480   6.962   2.271  0.4477 -0.4340  0.0116
  142TIP3    H2  349   1.461   6.815   2.305 -1.3024 -0.2795 -0.2150
  143TIP3   OH2  350   5.991  -0.028   1.896  0.1414 -0.4487 -0.4369
  143TIP3    H1  351   5.992   0.005   1.806 -0.6030  0.0352 -0.2785
  143TIP3    H2  352   6.056   0.025   1.942  0.2601 -0.4450 -0.6130
  144TIP3   OH2  353   8.755   5.924   7.177  0.3737  0.3455 -0.3297
  144TIP3    H1  354   8.694   5.971   7.120 -0.9145 -0.7748  0.0914
  144TIP3    H2  355   8.728   5.948   7.265 -0.6008 -1.5237 -0.1002
  145TIP3   OH2  356   4.157   0.135   3.548 -0.1041  0.7511 -0.1161
  145TIP3    H1  357   4.106   0.177   3.617  0.4415 -0.7664  1.2451
  145TIP3    H2  358   4.141   0.041   3.560  1.4875  0.3690 -0.8480
  146TIP3   OH2  359   8.108   7.292   2.191 -0.5639 -0.2693 -0.3062
  146TIP3    H1  360   8.084   7.373   2.237 -1.3483 -1.7476  1.9643
  146TIP3    H2  361   8.202   7.299   2.177 -0.1745 -0.1064  2.2296
  147TIP3   OH2  362   6.826   3.211   6.573 -0.1584 -0.4066 -0.2068
  147TIP3    H1  363   6.779   3.137   6.536  1.0175 -1.3978  0.2617
  147TIP3    H2  364   6.907   3.216   6.522 -0.0201  0.2588  0.0711
  148TIP3   OH2  365   4.402   1.636   1.625  0.5369 -0.3098 -0.4035
  148TIP3    H1  366   4.390   1.687   1.545 -0.0217 -0.4169 -0.3866
  148TIP3    H2  367   4.497   1.632   1.636  0.5655  3.1088  1.1155
  149TIP3   OH2  368   3.560   0.333   1.973 -0.3871 -0.1979  0.3324
  149TIP3    H1  369   3.586   0.389   2.046 -0.3892 -1.1751  1.1037
  149TIP3    H2  370   3.595   0.247   1.996  0.3717 -0.3305 -1.2461
  150TIP3   OH2  371   2.451   7.647   1.456  0.3964 -0.2870 -0.0270
  150TIP3    H1  372   2.391   7.604   1.517 -0.3092  2.1286  1.0435
  150TIP3    H2  373   2.535   7.646   1.501  0.6869 -1.7510 -0.5939
  151TIP3   OH2  374   8.283   7.820   1.681 -0.0469 -0.6306 -0.2411
  151TIP3    H1  375   8.322   7.821   1.594  0.0020 -0.6536 -0.2193
  151TIP3    H2  376   8.267   7.728   1.699  0.3055 -0.6577 -0.0641
  152TIP3   OH2  377   3.886   1.041   2.652 -0.3370 -0.7006  0.4132
  152TIP3    H1  378   3.828   1.118   2.655  0.1375 -0.3462  0.4177
  152TIP3    H2  379   3.846   0.980   2.713  0.1468  0.1450  1.5966
  153TIP3   OH2  380   5.932   0.527   2.364  0.4601  0.4824 -0.7340
  153TIP3    H1  381   5.913   0.576   2.284 -1.9827 -1.2654 -1.3033
  153TIP3    H2  382   5.850   0.529   2.413  0.8484 -1.4336  0.0498
  154TIP3   OH2  383   0.126   8.366   3.700  0.1929  0.0804  0.8248
  154TIP3    H1  384   0.145   8.375   3.606 -1.3591  0.9927  0.5719
  154TIP3    H2  385   0.073   8.287   3.706 -2.3630  1.6964  0.4752
  155TIP3   OH2  386   1.248   7.933   1.003  0.0566  0.2085  0.4243
  155TIP3    H1  387   1.232   7.841   0.987  1.2149 -0.0705  0.8264
  155TIP3    H2  388   1.295   7.935   1.087  0.1376  1.1455  0.3639
  156TIP3   OH2  389   6.182   0.064   2.040 -0.1047 -0.2954 -0.3445
  156TIP3    H1  390   6.161   0.152   2.070  0.1370 -1.0617  2.2544
  156TIP3    H2  391   6.261   0.074   1.988 -0.0956  1.0263 -0.0911
  157TIP3   OH2  392   3.590   0.215   3.017  0.2137 -0.4949 -0.2402
  157TIP3    H1  393   3.517   0.180   2.966  0.5955 -2.5250  0.5365
  157TIP3    H2  394   3.549   0.276   3.079 -0.7417 -1.0735 -0.2908
  158TIP3   OH2  395   2.415   0.148   4.614  0.4820  0.2511  0.2657
  158TIP3    H1  396   2.381   0.230   4.650  2.1306  0.9720  0.1995
  158TIP3    H2  397   2.337   0.095   4.599 -0.6482  1.9360 -0.0189
  159TIP3   OH2  398   0.884   7.945   3.257 -0.3040 -0.1707  1.4056
  159TIP3    H1  399   0.802   7.993   3.248  0.9769  2.1303  1.4029
  159TIP3    H2  400   0.943   7.985   3.193  1.2556 -0.7115  2.4488
  160TIP3   OH2  401   2.855   8.183   2.567 -0.2479  0.1084  0.2612
  160TIP3    H1  402   2.939   8.181   2.521  0.0073 -0.4352  0.7307
  160TIP3    H2  403   2.862   8.111   2.630 -0.8206  0.4664  0.7329
  161TIP3   OH2  404   4.991   3.745   7.019  0.3372  0.5816  0.1714
  161TIP3    H1  405   5.033   3.717   7.099 -0.1970 -0.3541  0.1324
  161TIP3    H2  406   5.036   3.826   6.994 -0.4948  1.7155  2.2281
  162TIP3   OH2  407   0.195   7.781   2.456 -1.2660 -0.3118  0.4259
  162TIP3    H1  408   0.274   7.792   2.508 -0.3323 -1.8560 -0.6129
  162TIP3    H2  409   0.222   7.799   2.366 -2.3107  0.0696  0.1782
  163TIP3   OH2  410   6.410   1.559   0.682  0.3458  0.1134  0.5540
  163TIP3    H1  411   6.379   1.613   0.609  1.1815 -0.2857 -0.1113
  163TIP3    H2  412   6.332   1.539   0.732 -0.8160 -2.4959 -2.1470
  164TIP3   OH2  413   1.060   7.203   3.659 -0.2582  0.6011 -0.4572
  164TIP3    H1  414   1.028   7.154   3.583  0.2558  0.8889 -0.8650
  164TIP3    H2  415   0.992   7.268   3.675 -1.3444 -0.7836  0.6145
  165TIP3   OH2  416   3.417   7.078   4.033  0.1085  0.0701  0.2866
  165TIP3    H1  417   3.457   7.004   4.077 -0.2230 -0.1928  0.1464
  165TIP3    H2  418   3.407   7.144   4.102  0.7257  0.1207  0.3345
  166TIP3   OH2  419   2.943   8.189   0.345  0.2806 -0.6951 -0.2372
  166TIP3    H1  420   3.037   8.197   0.330  0.0246  1.6672 -0.8969
  166TIP3    H2  421   2.908   8.161   0.260  0.0973  1.3644 -0.8773
  167TIP3   OH2  422   2.775   8.146   1.252  0.0779  0.3788  0.1612
  167TIP3    H1  423   2.736   8.117   1.169  0.6747  1.1702 -0.4010
  167TIP3    H2  424   2.729   8.095   1.319  0.6250 -1.3543 -0.7619
  168TIP3   OH2  425   4.818   0.589   1.996 -0.2553  0.7954 -0.0902
  168TIP3    H1  426   4.751   0.565   1.932  0.1772  2.0574 -1.0481
  168TIP3    H2  427   4.838   0.508   2.042 -2.4706  0.4032  0.2480
  169TIP3   OH2  428   8.745   3.417   7.087 -0.2600  0.5440 -0.1599
  169TIP3    H1  429   8.658   3.440   7.054  0.1504  0.5820 -1.2484
  169TIP3    H2  430   8.789   3.501   7.101 -1.6811  0.6864  4.0511
  170TIP3   OH2  431   4.370   0.873   1.976 -0.0354 -0.6680 -1.1006
  170TIP3    H1  432   4.450   0.906   1.934 -1.1067 -0.8341 -3.3424
  170TIP3    H2  433   4.378   0.901   2.068  2.3964 -0.3521 -1.3766
  171TIP3   OH2  434   2.015   7.973   1.208  0.3738 -0.1663 -0.2966
  171TIP3    H1  435   2.032   8.060   1.171  2.4436 -0.9127 -1.1189
  171TIP3    H2  436   1.971   7.925   1.138 -2.5113  0.7756  0.7915
  172TIP3   OH2  437   5.116   0.720   2.975 -0.2701 -0.4384 -0.0979
  172TIP3    H1  438   5.033   0.699   2.934 -0.3934  0.3495 -0.2673
  172TIP3    H2  439   5.156   0.784   2.916  0.1314 -0.2721  0.3510
  173TIP3   OH2  440   0.371   0.641   0.170  0.0132  0.0399 -0.1284
  173TIP3    H1  441   0.310   0.581   0.127  0.0339 -0.4712  0.5630
  173TIP3    H2  442   0.315   0.696   0.225  0.0854  0.1004 -0.1151
  174TIP3   OH2  443   6.686   6.540   6.690 -0.3239 -0.3322  0.3711
  174TIP3    H1  444   6.728   6.557   6.605  1.1073 -0.7558  0.9775
  174TIP3    H2  445   6.599   6.579   6.682  0.7157  1.9104 -0.3830
  175TIP3   OH2  446   3.740   1.316   2.183  0.5357  0.3559  0.1440
  175TIP3    H1  447   3.814   1.332   2.241 -0.4537 -2.2886  2.3128
  175TIP3    H2  448   3.670   1.371   2.219  0.3913 -0.0453  0.4893
  176TIP3   OH2  449   4.606   3.153   2.765  0.1616  0.0372  0.0993
  176TIP3    H1  450   4.638   3.108   2.843 -0.1600  1.3935  1.0397
  176TIP3    H2  451   4.685   3.179   2.717  0.3764 -0.1529  0.3538
  177TIP3   OH2  452   4.983   0.813   1.901  0.0605  0.4287 -0.2273
  177TIP3    H1  453   4.956   0.724   1.923  0.7524  0.0214 -0.9906
  177TIP3    H2  454   4.934   0.832   1.820  0.1476  0.6283 -0.2315
  178TIP3   OH2  455   3.200   0.005   1.866  0.0567  0.1419 -0.4600
  178TIP3    H1  456   3.152   0.061   1.928  0.5184  0.4601 -0.3850
  178TIP3    H2  457   3.252  -0.053   1.922 -0.6200 -0.5433 -0.5342
  179TIP3   OH2  458   2.966   0.852   1.683  0.2118  0.1119  0.1892
  179TIP3    H1  459   3.043   0.803   1.653  1.1499 -0.0417  2.7586
  179TIP3    H2  460   2.925   0.794   1.747 -2.0418  0.2131 -1.1347
  180TIP3   OH2  461   4.530   0.490   2.175  0.3267 -0.2222 -0.1551
  180TIP3    H1  462   4.585   0.461   2.247 -0.3649 -1.0637  0.0504
  180TIP3    H2  463   4.441   0.470   2.203  0.0274 -0.2475 -1.0886
  181TIP3   OH2  464   4.710   0.453   2.387 -0.0563  0.0444  0.0473
  181TIP3    H1  465   4.731   0.361   2.403  1.5010  0.4833  0.5800
  181TIP3    H2  466   4.791   0.500   2.405 -0.7606  1.5006 -0.4987
  182TIP3   OH2  467   6.502   1.255   2.593 -0.2063 -0.2443  0.2915
  182TIP3    H1  468   6.478   1.253   2.500 -1.2469  0.1924  0.5452
  182TIP3    H2  469   6.595   1.280   2.592 -0.1954 -0.2759 -0.6295
  183TIP3   OH2  470   4.145   1.601   1.759  0.0795 -0.1307 -0.2219
  183TIP3    H1  471   4.191   1.672   1.803  1.6513 -1.0040 -0.4294
  183TIP3    H2  472   4.205   1.571   1.691 -0.4049 -1.8892  0.0937
  184TIP3   OH2  473   5.461   3.806   6.799  0.4890  0.1863 -0.4937
  184TIP3    H1  474   5.386   3.746   6.792 -1.1583  2.3606 -1.8831
  184TIP3    H2  475   5.533   3.757   6.759 -0.4603 -1.4457 -0.2818
  185TIP3   OH2  476   5.953   0.845   2.547  0.6648 -0.1258  0.3385
  185TIP3    H1  477   5.983   0.764   2.589  1.3038  1.3386  2.8875
  185TIP3    H2  478   6.021   0.865   2.483 -0.6649 -2.7851 -2.0004
  186TIP3   OH2  479   4.882   2.116   2.142  0.2730 -0.1863  0.1919
  186TIP3    H1  480   4.976   2.101   2.148  0.4952  0.9909 -0.2712
  186TIP3    H2  481   4.850   2.099   2.230  1.0267  0.1459  0.5352
  187TIP3   OH2  482   5.647   0.869   1.949 -0.3095 -0.0320 -0.1747
  187TIP3    H1  483   5.671   0.946   1.898 -3.0295  1.5317  0.7820
  187TIP3    H2  484   5.603   0.811   1.887 -0.8372  0.4874 -0.2922
  188TIP3   OH2  485   3.272   6.376   2.388  0.5092 -0.1912  0.3078
  188TIP3    H1  486   3.200   6.353   2.330  1.0193  0.3189 -0.5458
  188TIP3    H2  487   3.230   6.397   2.471 -0.3798  0.7396 -0.3669
  189TIP3   OH2  488   1.459   7.627   0.676 -0.0410 -0.4511 -0.0035
  189TIP3    H1  489   1.472   7.716   0.708  1.8903 -0.0388 -1.7837
  189TIP3    H2  490   1.402   7.637   0.600  0.5346 -0.6535 -0.4720
  190TIP3   OH2  491   1.974   7.032   0.894 -0.1734 -0.0658 -0.1307
  190TIP3    H1  492   2.002   7.123   0.904 -1.9839  0.5741 -0.7428
  190TIP3    H2  493   2.043   6.991   0.842  2.2128  0.1469  2.7062
  191TIP3   OH2  494   2.634   8.267   2.775 -0.5231  0.4016 -0.0816
  191TIP3    H1  495   2.719   8.277   2.731 -0.6320 -2.5705 -1.1137
  191TIP3    H2  496   2.656   8.257   2.868  0.5740 -3.3783 -0.6679
  192TIP3   OH2  497   0.796   7.186   0.598 -0.3041 -0.0354  0.1612
  192TIP3    H1  498   0.865   7.231   0.548 -0.6339  0.1120 -0.1629
  192TIP3    H2  499   0.715   7.211   0.554 -0.5390 -0.4715  0.3483
  193TIP3   OH2  500   0.559   4.631   6.814 -0.3362 -0.5168 -0.0047
  193TIP3    H1  501   0.467   4.649   6.800 -0.2225  0.5013  0.5261
  193TIP3    H2  502   0.599   4.636   6.727 -0.2162  2.3628  0.1899
  194TIP3   OH2  503   4.950   0.490   2.477  0.0409 -0.2877 -0.0290
  194TIP3    H1  504   5.011   0.490   2.550  1.8778 -0.1148 -1.5280
  194TIP3    H2  505   4.940   0.398   2.454  1.2678 -0.2043 -0.9893
  195TIP3   OH2  506   2.751   7.283   0.228 -0.7315  0.1985  0.0631
  195TIP3    H1  507   2.732   7.367   0.187 -1.4439 -0.3037 -0.6708
  195TIP3    H2  508   2.694   7.279   0.305 -1.6193 -0.1315 -0.5969
  196TIP3   OH2  509   0.587   7.314   0.492  0.1619  0.1007 -0.1687
  196TIP3    H1  510   0.601   7.352   0.578 -0.8628 -0.0580  0.0723
  196TIP3    H2  511   0.610   7.384   0.431  0.7496  0.2594  0.2342
  197TIP3   OH2  512   0.952   8.337   1.494  0.2861 -0.0057 -0.2766
  197TIP3    H1  513   0.950   8.362   1.586  1.0545  0.2735 -0.3287
  197TIP3    H2  514   1.042   8.308   1.479  0.4275  0.8271 -1.1589
  198TIP3   OH2  515   5.057   2.699   1.077 -0.5613 -0.7611 -0.0988
  198TIP3    H1  516   4.969   2.702   1.041 -0.6467 -1.1189  0.0755
  198TIP3    H2  517   5.096   2.783   1.052 -1.3596 -0.0891  0.8819
  199TIP3   OH2  518   6.110   1.000   0.582 -0.6249 -0.0871  0.7169
  199TIP3    H1  519   6.058   0.990   0.503  0.9384  0.5005 -0.4117
  199TIP3    H2  520   6.126   1.095   0.588  1.3069 -0.3709  0.3762
  200TIP3   OH2  521   1.493   7.763   7.189  0.0722  0.2096  0.0362
  200TIP3    H1  522   1.417   7.821   7.186  0.4313  0.7494  1.2831
  200TIP3    H2  523   1.551   7.802   7.254  0.3256 -1.5478  0.8822
  201TIP3   OH2  524   8.543   3.512   6.923  0.3647  0.0761  0.5797
  201TIP3    H1  525   8.447   3.516   6.920  0.2253 -3.5023 -1.9082
  201TIP3    H2  526   8.572   3.577   6.858 -0.2526  2.3272  2.4748
  202TIP3   OH2  527   5.375   0.862   0.530  0.2327 -0.0898  0.0170
  202TIP3    H1  528   5.402   0.934   0.472 -1.0802 -1.5678 -2.4935
  202TIP3    H2  529   5.281   0.855   0.518  0.1588 -1.3860  1.2397
  203TIP3   OH2  530   5.841   0.035   0.200  0.7107  0.0868  0.0363
  203TIP3    H1  531   5.868  -0.021   0.272  0.2000 -0.8989 -0.5166
  203TIP3    H2  532   5.913   0.031   0.137  0.5209 -0.2304 -0.1602
  204TIP3   OH2  533   4.129   0.378   2.851  0.4195  0.9739 -0.1831
  204TIP3    H1  534   4.160   0.317   2.918 -0.6548  0.7430  0.1057
  204TIP3    H2  535   4.202   0.439   2.839  0.1479  1.7707  2.0920
  205TIP3   OH2  536   7.646   4.174   6.727 -0.0311  0.4511 -0.2860
  205TIP3    H1  537   7.714   4.197   6.664  0.1867 -0.5539 -0.4135
  205TIP3    H2  538   7.578   4.132   6.675  0.6727 -1.4784  0.3028
  206TIP3   OH2  539   1.331   8.253   1.845  0.1570  0.6788  0.6385
  206TIP3    H1  540   1.254   8.265   1.788  2.0800  0.3832 -2.1132
  206TIP3    H2  541   1.300   8.279   1.932 -3.2920 -0.2570 -0.2334
  207TIP3   OH2  542   1.704   6.714   0.655 -0.1595  0.2370  0.1623
  207TIP3    H1  543   1.637   6.677   0.712  0.4876 -1.8777 -0.3881
  207TIP3    H2  544   1.694   6.666   0.573  1.9799 -0.0856  0.0613
  208TIP3   OH2  545   4.665   1.649   1.632 -0.5417 -0.2382  0.1564
  208TIP3    H1  546   4.697   1.665   1.543 -0.6842 -0.6872  0.0221
  208TIP3    H2  547   4.688   1.558   1.650 -1.0119 -0.3194  0.3678
  209TIP3   OH2  548   7.254   1.503   1.720 -0.5159 -0.0137 -0.2625
  209TIP3    H1  549   7.317   1.552   1.668  0.5357  0.8117  1.7613
  209TIP3    H2  550   7.287   1.413   1.719  0.0120  0.1794 -0.2116
  210TIP3   OH2  551   5.917   1.118   0.152 -0.9833  0.1145  0.0512
  210TIP3    H1  552   5.879   1.202   0.129  1.4372  0.9524 -1.1395
  210TIP3    H2  553   5.885   1.057   0.085  0.6652  1.0820 -1.6863
  211TIP3   OH2  554   7.502   4.059   7.032  0.0780 -0.3772 -0.3526
  211TIP3    H1  555   7.435   4.019   6.976  0.8987  0.3036 -1.8377
  211TIP3    H2  556   7.476   4.151   7.037  0.4235 -0.2864 -0.2263
  212TIP3   OH2  557   8.504   4.428   5.927 -0.6719 -0.0369  0.1017
  212TIP3    H1  558   8.460   4.464   5.850 -0.1830 -0.8832 -0.5898
  212TIP3    H2  559   8.459   4.344   5.943 -0.2274 -0.2511  0.2330
  213TIP3   OH2  560   4.196   0.412   3.876  0.0149  0.1646 -0.0429
  213TIP3    H1  561   4.107   0.380   3.893  0.4354 -1.4032 -0.6866
  213TIP3    H2  562   4.245   0.390   3.955  0.8799 -3.0545 -1.3710
  214TIP3   OH2  563   6.941   0.384   1.175  0.5208 -0.6550 -0.1563
  214TIP3    H1  564   6.873   0.451   1.182 -0.1460 -1.3662  0.1036
  214TIP3    H2  565   6.944   0.343   1.261  3.3537  1.3756  0.7860
  215TIP3   OH2  566   4.822   0.549   4.438  0.0968  0.2723  0.0962
  215TIP3    H1  567   4.840   0.596   4.357 -2.6058 -0.8795 -1.2490
  215TIP3    H2  568   4.857   0.606   4.507  4.1540  0.3763 -1.9262
  216TIP3   OH2  569   2.532   2.074   2.743  0.0210  0.1969 -0.4886
  216TIP3    H1  570   2.452   2.055   2.693  0.2120 -0.8950 -0.3945
  216TIP3    H2  571   2.509   2.053   2.833  0.3537  0.0595 -0.4347
  217TIP3   OH2  572   0.834   2.992   1.145  0.7906 -0.0695  0.4726
  217TIP3    H1  573   0.836   2.999   1.050 -0.6755 -0.4191  0.4018
  217TIP3    H2  574   0.920   2.956   1.168 -0.0842 -3.3923 -1.0534
  218TIP3   OH2  575   7.711   5.528   6.658 -0.3402 -0.1438 -0.1802
  218TIP3    H1  576   7.700   5.616   6.694 -0.0347 -0.4176  0.6044
  218TIP3    H2  577   7.788   5.493   6.704 -1.3211 -1.3556  0.5788
  219TIP3   OH2  578   0.435   7.231   1.368 -0.1108 -0.3588 -0.4186
  219TIP3    H1  579   0.343   7.239   1.344 -0.1933  1.3670  0.4440
  219TIP3    H2  580   0.479   7.301   1.320  0.3978  0.2555  0.9211
  220TIP3   OH2  581   1.033   2.057   0.896 -0.4713  0.1637  0.1509
  220TIP3    H1  582   1.127   2.064   0.876 -0.3096 -0.3334  0.7385
  220TIP3    H2  583   0.997   2.141   0.868 -0.2026 -0.3911 -2.0333
  221TIP3   OH2  584   8.711   3.227   2.737  0.4419  0.1990  0.0030
  221TIP3    H1  585   8.634   3.242   2.682 -0.0018  2.3729  1.1845
  221TIP3    H2  586   8.781   3.275   2.692  0.3532  0.9490  0.6532
  222TIP3   OH2  587   1.977   3.108   2.745 -0.2638 -0.1294 -1.0344
  222TIP3    H1  588   2.016   3.024   2.723 -1.0808 -0.4840 -1.1361
  222TIP3    H2  589   1.904   3.087   2.802 -2.4156  0.2309 -3.5540
  223TIP3   OH2  590   3.393   1.693   0.817 -0.2211 -0.5177  0.2042
  223TIP3    H1  591   3.448   1.760   0.776 -1.0420 -0.9318 -1.6414
  223TIP3    H2  592   3.304   1.717   0.792 -0.7644 -0.6583  1.9688
  224TIP3   OH2  593   2.611   1.240   0.282 -0.1046  0.2103 -0.3531
  224TIP3    H1  594   2.554   1.296   0.334 -1.2710  0.7952 -2.2236
  224TIP3    H2  595   2.609   1.278   0.194  1.4662 -1.0269 -0.9585
  225TIP3   OH2  596   3.019   0.107   2.804 -0.5098 -0.2514  0.1646
  225TIP3    H1  597   3.033   0.151   2.887  0.4595 -0.9088  0.3526
  225TIP3    H2  598   3.067   0.025   2.811 -0.6252 -0.4283 -0.9453
  226TIP3   OH2  599   1.869   0.730   3.802 -0.4358 -0.0280  0.3922
  226TIP3    H1  600   1.817   0.700   3.877 -1.5430  1.0882  0.0917
  226TIP3    H2  601   1.893   0.650   3.756 -1.7109 -0.5930  0.6736
  227TIP3   OH2  602   4.832   0.532   1.679 -0.7664 -0.2945 -0.2879
  227TIP3    H1  603   4.783   0.452   1.698 -0.7461 -0.1725  0.2728
  227TIP3    H2  604   4.921   0.514   1.709 -0.4557 -0.5263 -1.3352
  228TIP3   OH2  605   3.532   2.953   4.603 -0.5808 -0.1578  0.3732
  228TIP3    H1  606   3.624   2.938   4.624 -0.0298 -0.3297 -2.0199
  228TIP3    H2  607   3.489   2.870   4.622  0.2765 -0.9694 -1.1563
  229TIP3   OH2  608   8.854   7.151   2.474  0.1024  0.1342  0.2388
  229TIP3    H1  609   8.765   7.166   2.442  0.6057  2.3667 -0.1617
  229TIP3    H2  610   8.864   7.211   2.548  0.7805 -1.1724  1.2354
  230TIP3   OH2  611   4.546   0.497   3.302  0.3274 -0.9601 -0.0396
  230TIP3    H1  612   4.614   0.557   3.330 -1.2533  1.4543 -1.2382
  230TIP3    H2  613   4.544   0.504   3.207  0.3728 -3.2340 -0.2537
  231TIP3   OH2  614   1.385   0.360   3.603 -0.0844  0.0042 -0.2241
  231TIP3    H1  615   1.335   0.375   3.523 -0.8462  0.7066  0.3666
  231TIP3    H2  616   1.343   0.417   3.668 -0.3314 -1.5500  1.0174
  232TIP3   OH2  617   2.413   1.922   3.273  0.0294  0.1322  0.7697
  232TIP3    H1  618   2.327   1.884   3.287 -0.5344  0.4064 -1.7251
  232TIP3    H2  619   2.405   2.012   3.306 -1.4394  0.9518 -1.6234
  233TIP3   OH2  620   1.813   3.232   3.574  0.2212  0.1616 -0.6280
  233TIP3    H1  621   1.805   3.201   3.483  0.3996  1.6059 -1.1501
  233TIP3    H2  622   1.905   3.258   3.581  0.2398 -0.0822  0.0222
  234TIP3   OH2  623   0.485   2.009  -0.011  0.1953  0.0218  0.3278
  234TIP3    H1  624   0.431   2.088  -0.022  1.2732  0.4853 -2.0847
  234TIP3    H2  625   0.446   1.964   0.064 -0.8743  2.4895  1.3311
  235TIP3   OH2  626   4.868   1.935   2.377 -0.5521  0.3007 -0.1820
  235TIP3    H1  627   4.868   1.843   2.406 -0.3477  0.1673 -0.6041
  235TIP3    H2  628   4.775   1.959   2.376 -0.6241  0.0249 -0.3066
  236TIP3   OH2  629   2.040   4.179   2.870 -0.2112  0.5930  0.2243
  236TIP3    H1  630   2.102   4.252   2.860  0.1850  0.4928  1.6998
  236TIP3    H2  631   2.083   4.121   2.932 -0.6333 -0.7995 -0.7821
  237TIP3   OH2  632   3.233   0.383   3.227 -0.3075 -0.2370  0.5065
  237TIP3    H1  633   3.219   0.437   3.305  0.6553  0.3919  0.2424
  237TIP3    H2  634   3.327   0.388   3.210 -0.5563 -0.0546 -0.9109
  238TIP3   OH2  635   3.121   1.742   0.808  0.7579 -0.6457 -0.6779
  238TIP3    H1  636   3.121   1.828   0.769 -0.0631 -0.4436 -0.2588
  238TIP3    H2  637   3.065   1.689   0.751 -0.2267 -0.4174  0.0560
  239TIP3   OH2  638   8.318   1.823   3.251 -0.3458  0.1988 -0.5287
  239TIP3    H1  639   8.246   1.788   3.303  0.3460 -0.3822  0.0473
  239TIP3    H2  640   8.395   1.811   3.306  0.4939 -1.0042 -1.9410
  240TIP3   OH2  641   2.471   2.354   0.231  0.1273  0.0377  0.0194
  240TIP3    H1  642   2.385   2.312   0.240 -0.4392  1.1026 -0.4267
  240TIP3    H2  643   2.490   2.350   0.137 -0.5937  2.0752 -0.2320
  241TIP3   OH2  644   1.785   0.368   3.697 -0.4706  0.0336  0.3013
  241TIP3    H1  645   1.768   0.385   3.790  1.1010  1.0936  0.4353
  241TIP3    H2  646   1.700   0.377   3.655 -1.3158 -1.0442  1.7139
  242TIP3   OH2  647   1.503   3.742   2.362  0.0101  0.0027 -0.2488
  242TIP3    H1  648   1.522   3.686   2.286 -0.6180  1.6089 -1.6386
  242TIP3    H2  649   1.469   3.822   2.323  1.4709  1.5884  1.6605
  243TIP3   OH2  650   7.807   8.090   3.673 -0.0041  0.2811  0.5570
  243TIP3    H1  651   7.842   8.002   3.659  0.4760  0.3471  1.2780
  243TIP3    H2  652   7.884   8.147   3.669 -0.5126  0.8769 -1.5296
  244TIP3   OH2  653   0.633   0.279   3.462 -0.1018  0.0447 -0.2656
  244TIP3    H1  654   0.713   0.290   3.410  1.1930 -0.1063  1.6538
  244TIP3    H2  655   0.579   0.354   3.439  0.0671 -0.4474 -2.4521
  245TIP3   OH2  656   6.801   8.171   1.797 -0.2488  0.3182  0.0103
  245TIP3    H1  657   6.737   8.105   1.826 -0.5858  0.8674  0.5305
  245TIP3    H2  658   6.765   8.204   1.714 -1.6166  1.9252  1.1920
  246TIP3   OH2  659   1.071   1.073   1.840 -0.0650 -0.6532  0.2727
  246TIP3    H1  660   1.026   0.990   1.860 -0.6028 -0.1945  0.9941
  246TIP3    H2  661   1.010   1.120   1.784  1.1759 -1.6641 -1.9720
  247TIP3   OH2  662   2.491   0.873   3.672 -0.1416 -0.1034 -0.0126
  247TIP3    H1  663   2.497   0.965   3.643 -0.8067  0.1924  0.7702
  247TIP3    H2  664   2.533   0.824   3.601  0.6004  0.8348 -0.2525
  248TIP3   OH2  665   0.611   2.809   1.585 -0.5120  0.0835  1.0493
  248TIP3    H1  666   0.552   2.824   1.510  2.2317  1.3981 -0.9162
  248TIP3    H2  667   0.580   2.870   1.652 -0.8795  1.3953 -0.2823
  249TIP3   OH2  668   2.596   1.181   3.767  0.0064  0.3605  0.1596
  249TIP3    H1  669   2.506   1.208   3.755 -0.8512 -1.8567  1.1921
  249TIP3    H2  670   2.613   1.193   3.861  0.6879  0.5418  0.0170
  250TIP3   OH2  671   1.815   1.350   2.697  0.1330 -0.4242  0.5648
  250TIP3    H1  672   1.738   1.293   2.688 -0.3829  0.1223  1.4297
  250TIP3    H2  673   1.792   1.410   2.769  1.1238  0.1355  0.4208
  251TIP3   OH2  674   2.546   3.105   1.873 -0.2619  0.1606  1.1394
  251TIP3    H1  675   2.587   3.183   1.910 -1.5273  1.0331  0.7364
  251TIP3    H2  676   2.619   3.046   1.855  0.6349  0.9002  2.2513
  252TIP3   OH2  677   2.546   3.486   3.401  0.4845  0.1143  0.8825
  252TIP3    H1  678   2.622   3.490   3.343  0.8219 -1.9804  1.1437
  252TIP3    H2  679   2.529   3.578   3.425 -0.5113  1.2040 -3.5260
  253TIP3   OH2  680   5.826   3.148   0.484  0.1211  0.2638 -0.1680
  253TIP3    H1  681   5.855   3.215   0.546 -1.0494  0.5671  0.0617
  253TIP3    H2  682   5.905   3.126   0.435  0.6894  1.2675  0.2660
  254TIP3   OH2  683   1.110   1.894   0.331  0.2785 -0.6334 -0.2931
  254TIP3    H1  684   1.053   1.958   0.373  0.4152 -0.7502  0.0743
  254TIP3    H2  685   1.049   1.834   0.286 -0.0060 -1.9630  1.8065
  255TIP3   OH2  686   2.544   0.984   0.712 -0.5071 -0.0539 -0.8454
  255TIP3    H1  687   2.475   1.019   0.656 -2.3462  0.4138  1.6051
  255TIP3    H2  688   2.507   0.904   0.749 -0.2885  0.8597  1.4795
  256TIP3   OH2  689   1.933   3.146   4.535  0.2374  0.0440 -0.3393
  256TIP3    H1  690   1.981   3.139   4.617 -0.6177  0.6370  0.2218
  256TIP3    H2  691   1.862   3.083   4.543  1.3779 -1.4162 -1.5011
  257TIP3   OH2  692   3.608   0.079   2.054 -0.5252 -0.0778  0.2754
  257TIP3    H1  693   3.520   0.050   2.076 -0.9383  2.1433  1.7074
  257TIP3    H2  694   3.665   0.034   2.117 -0.4799 -2.2912 -1.2870
  258TIP3   OH2  695   1.404   0.876   2.120 -0.5515  0.3569  0.4506
  258TIP3    H1  696   1.375   0.911   2.204 -0.5509 -0.1492  0.6639
  258TIP3    H2  697   1.500   0.884   2.123 -0.7033  3.3841 -0.8492
  259TIP3   OH2  698   2.101   1.829   1.190 -0.3263 -0.1739 -0.0410
  259TIP3    H1  699   2.187   1.864   1.165 -0.1077 -0.4415  0.3387
  259TIP3    H2  700   2.089   1.753   1.134 -1.1382  0.9364 -1.4083
  260TIP3   OH2  701   1.738   1.673   2.516 -0.2052 -0.2306 -0.0118
  260TIP3    H1  702   1.834   1.673   2.511 -0.2382  1.2365 -1.1483
  260TIP3    H2  703   1.709   1.693   2.427 -1.6455 -3.0437 -0.2334
  261TIP3   OH2  704   1.517   1.778   4.003  0.6653  0.7456  0.3399
  261TIP3    H1  705   1.612   1.769   4.003  0.7456  1.5920  0.8783
  261TIP3    H2  706   1.487   1.713   3.939  1.5192 -0.3570  1.0457
  262TIP3   OH2  707   2.211   2.789   2.772 -0.1207  0.3306  0.0786
  262TIP3    H1  708   2.128   2.758   2.808 -1.0661 -2.3899 -4.0495
  262TIP3    H2  709   2.278   2.746   2.825 -1.4115 -0.6593  0.9331
  263TIP3   OH2  710   1.042   2.338   2.333  0.0867  0.4733 -0.1204
  263TIP3    H1  711   1.032   2.285   2.412 -0.3301 -0.3241 -0.7007
  263TIP3    H2  712   0.952   2.358   2.307  0.1955  0.0465 -0.8460
  264TIP3   OH2  713   0.772   1.409   0.043  0.2107  0.1825  0.3353
  264TIP3    H1  714   0.844   1.469   0.067 -0.2364  1.2569 -0.9113
  264TIP3    H2  715   0.697   1.467   0.030  0.0823 -0.4872 -2.1702
  265TIP3   OH2  716   1.065   0.932   2.377 -0.1146 -0.1288 -0.0309
  265TIP3    H1  717   1.048   0.941   2.283  0.1155  1.6405  0.0829
  265TIP3    H2  718   1.150   0.889   2.381  0.0613  0.1498 -0.6372
  266TIP3   OH2  719   2.779   0.986   3.646 -0.5109  0.6301  0.3427
  266TIP3    H1  720   2.715   1.026   3.705 -1.7784  0.0414 -0.5953
  266TIP3    H2  721   2.800   1.055   3.583  0.3044  1.0319  1.0319
  267TIP3   OH2  722   0.694   1.051   0.687  0.1431  0.0266  0.1813
  267TIP3    H1  723   0.666   1.077   0.599  0.9696 -0.3187 -0.1842
  267TIP3    H2  724   0.694   1.132   0.737 -1.0983  0.1006  0.0731
  268TIP3   OH2  725   2.955   1.593   0.603 -0.0981 -0.4070 -0.0733
  268TIP3    H1  726   2.945   1.639   0.520 -1.4136  2.3092  1.5194
  268TIP3    H2  727   3.010   1.517   0.582 -0.2636  0.3099 -3.3528
  269TIP3   OH2  728   1.669   8.230   2.073 -0.7304 -0.8190  0.3478
  269TIP3    H1  729   1.647   8.167   2.004  1.9498 -2.7400  1.1572
  269TIP3    H2  730   1.605   8.211   2.143 -1.0337 -1.4887 -0.1016
  270TIP3   OH2  731   3.302   0.498   2.624 -0.1518 -0.2472 -0.2019
  270TIP3    H1  732   3.369   0.440   2.588 -2.2887 -1.7850 -1.7693
  270TIP3    H2  733   3.305   0.575   2.568 -0.2663 -0.6543 -0.7668
  271TIP3   OH2  734   6.353   1.048   0.803  0.1392  0.4327  0.5880
  271TIP3    H1  735   6.385   0.998   0.878  1.0732 -1.3017 -0.9346
  271TIP3    H2  736   6.402   1.131   0.807  2.2083 -0.7451  0.3775
  272TIP3   OH2  737   2.777   1.340   2.043 -0.7292  0.5263 -0.3180
  272TIP3    H1  738   2.809   1.429   2.030 -0.5830  0.2950 -1.6689
  272TIP3    H2  739   2.856   1.286   2.045 -0.7975  0.4757  0.8870
  273TIP3   OH2  740   2.587   3.427   2.577 -0.2656 -0.3929  0.4294
  273TIP3    H1  741   2.654   3.409   2.643 -0.5952 -0.2770  0.7962
  273TIP3    H2  742   2.548   3.510   2.604 -0.9595 -0.7547  0.5408
  274TIP3   OH2  743   4.400   0.381   3.502  0.3753  0.0553 -0.5077
  274TIP3    H1  744   4.331   0.342   3.448  0.1358  0.1117 -0.2438
  274TIP3    H2  745   4.474   0.390   3.443  1.1794 -2.8408 -0.0465
  275TIP3   OH2  746   5.940   2.293   2.253  0.2514  0.2573 -0.6795
  275TIP3    H1  747   5.949   2.241   2.332  1.5918 -0.0111 -0.9885
  275TIP3    H2  748   5.876   2.360   2.275 -0.5373 -0.7534  0.1227
  276TIP3   OH2  749   7.061   6.573   7.237 -0.6158 -0.7077  0.6274
  276TIP3    H1  750   7.034   6.649   7.185  0.5140  1.2651  2.8327
  276TIP3    H2  751   7.145   6.548   7.200  0.2559  0.7862  1.5237
  277TIP3   OH2  752   7.219   5.581   7.170 -0.1821  0.5218  0.4882
  277TIP3    H1  753   7.302   5.533   7.176  0.2682  1.2842  0.3726
  277TIP3    H2  754   7.190   5.589   7.260  0.1631  0.7711  0.5765
  278TIP3   OH2  755   4.274   1.899   1.324  0.4410 -0.6871  0.1267
  278TIP3    H1  756   4.223   1.877   1.401  0.6579 -1.4218  0.0608
  278TIP3    H2  757   4.258   1.993   1.311  0.6159 -0.4942  1.2175
  279TIP3   OH2  758   3.899   0.051   0.615  0.1980 -0.4518 -0.1941
  279TIP3    H1  759   3.977   0.093   0.578  0.3970 -1.3095 -0.7832
  279TIP3    H2  760   3.910   0.058   0.710  1.6402 -1.6835 -0.2364
  280TIP3   OH2  761   4.633  -0.011   0.620 -0.3341 -0.0043  0.4274
  280TIP3    H1  762   4.551   0.038   0.622  0.0371  0.6949 -1.0412
  280TIP3    H2  763   4.700   0.053   0.643  0.1157  0.1039 -1.1608
  281TIP3   OH2  764   3.742   2.329   2.301 -0.9195  0.2302  0.2498
  281TIP3    H1  765   3.770   2.268   2.233 -0.3726  2.2249 -1.3239
  281TIP3    H2  766   3.821   2.346   2.353 -0.2961  2.0944 -1.2714
  282TIP3   OH2  767   5.666   2.022   3.194 -0.0502 -0.5200 -0.4590
  282TIP3    H1  768   5.648   2.085   3.124  0.5869  0.9223  0.6503
  282TIP3    H2  769   5.760   2.027   3.208 -0.1241 -1.0488  0.2617
  283TIP3   OH2  770   8.237   7.722   0.962 -0.0572 -0.2119  0.0248
  283TIP3    H1  771   8.244   7.633   0.930  0.9523 -0.0766 -0.1602
  283TIP3    H2  772   8.164   7.760   0.914 -0.5177 -0.9474  0.1367
  284TIP3   OH2  773   6.866   4.853   6.277  0.0538  0.2821  0.5313
  284TIP3    H1  774   6.912   4.818   6.353  1.2952  0.0878 -0.2950
  284TIP3    H2  775   6.775   4.827   6.290 -0.1881  2.2890  3.1123
  285TIP3   OH2  776   4.214   1.249   0.542  0.5526  0.6632 -0.1543
  285TIP3    H1  777   4.205   1.338   0.577  0.4925  0.9139 -0.7860
  285TIP3    H2  778   4.128   1.228   0.506  0.1554 -0.2244  1.2797
  286TIP3   OH2  779   3.967   1.180   0.470 -0.0362  0.0340 -0.1449
  286TIP3    H1  780   3.875   1.190   0.443 -0.5129  0.3619  1.5600
  286TIP3    H2  781   3.962   1.144   0.558  1.4778  0.9091  0.3089
  287TIP3   OH2  782   4.118   0.341   0.782  0.1387  0.0063 -0.4242
  287TIP3    H1  783   4.156   0.367   0.699  1.3312 -0.2092  0.0410
  287TIP3    H2  784   4.039   0.395   0.791  1.4836  1.9986 -0.3988
  288TIP3   OH2  785   2.258   1.656   2.453  0.2593 -0.0715 -0.5914
  288TIP3    H1  786   2.334   1.661   2.510 -0.3258 -2.1747  0.4269
  288TIP3    H2  787   2.278   1.584   2.392 -1.2806 -1.2931  0.3023
  289TIP3   OH2  788   8.370   5.954   5.710 -0.3664  0.0026 -0.0649
  289TIP3    H1  789   8.418   5.957   5.627  0.6810  1.7994  0.5925
  289TIP3    H2  790   8.337   5.864   5.715  0.4121 -0.4104 -1.9406
  290TIP3   OH2  791   8.372   8.254   0.088  0.1369 -0.0712 -0.2829
  290TIP3    H1  792   8.401   8.218   0.171  0.5971  0.0248 -0.3998
  290TIP3    H2  793   8.399   8.189   0.023  1.1175  0.5485 -0.5121
  291TIP3   OH2  794   6.979   0.521   6.586 -0.7657  0.4978  0.2429
  291TIP3    H1  795   7.062   0.549   6.626  0.3139 -0.1014 -1.5470
  291TIP3    H2  796   6.994   0.430   6.562 -1.9313  0.4158 -0.1798
  292TIP3   OH2  797   6.556   3.872   6.607 -0.6971  0.1042 -0.0317
  292TIP3    H1  798   6.597   3.911   6.684  0.3698  0.4168 -0.7491
  292TIP3    H2  799   6.462   3.875   6.626 -0.5252  1.4090  0.6729
  293TIP3   OH2  800   2.983   3.098   2.164  0.1122  0.0068 -0.0137
  293TIP3    H1  801   2.967   3.099   2.070 -0.1597 -0.9327  0.0175
  293TIP3    H2  802   3.068   3.140   2.174 -0.0363  0.4683 -0.6380
  294TIP3   OH2  803   4.227   1.492   2.285 -0.7554  0.2203  0.0409
  294TIP3    H1  804   4.184   1.564   2.331 -1.2362 -0.3561  0.4945
  294TIP3    H2  805   4.266   1.533   2.208 -2.1463  0.7444 -0.3909
  295TIP3   OH2  806   3.240   2.601   2.156 -0.1705 -0.3486 -0.6972
  295TIP3    H1  807   3.334   2.605   2.172 -0.2665 -0.8395  0.0141
  295TIP3    H2  808   3.209   2.530   2.213 -1.4824  2.0157  1.6071
  296TIP3   OH2  809   5.390   2.147   1.923  0.0539 -0.1524 -0.0484
  296TIP3    H1  810   5.342   2.158   1.841 -0.2423  1.7980  0.3622
  296TIP3    H2  811   5.457   2.081   1.904  0.3129  0.6590 -1.9823
  297TIP3   OH2  812   3.933   0.704   0.796 -0.2074  0.0417  0.3399
  297TIP3    H1  813   3.878   0.725   0.871  0.2296 -0.9545  0.9476
  297TIP3    H2  814   4.022   0.719   0.827 -0.0199 -0.4664  0.0540
  298TIP3   OH2  815   1.930   8.251   2.184  0.4337  0.1815 -0.2616
  298TIP3    H1  816   1.984   8.288   2.114  1.3619  1.2748  1.0034
  298TIP3    H2  817   1.845   8.235   2.143  1.1799  0.1291 -1.8192
  299TIP3   OH2  818   1.865   7.546   0.140 -0.3381  0.2880 -0.1211
  299TIP3    H1  819   1.782   7.519   0.179 -0.2389 -2.0505 -1.4198
  299TIP3    H2  820   1.879   7.635   0.172 -1.2695 -0.7939  3.4714
  300TIP3   OH2  821   2.457   0.100   1.594 -0.1061  0.6509  0.0595
  300TIP3    H1  822   2.480   0.087   1.502  2.5857  0.4398  0.7209
  300TIP3    H2  823   2.494   0.186   1.616 -0.4521  0.5646  1.0277
  301TIP3   OH2  824   5.107   0.675   0.949 -0.0563 -0.3735 -0.0026
  301TIP3    H1  825   5.151   0.656   1.031  1.4575 -0.1973 -0.7575
  301TIP3    H2  826   5.166   0.735   0.903 -0.1258 -1.6883 -1.8940
  302TIP3   OH2  827   2.613   2.672   2.638  0.3136 -0.2050  0.4001
  302TIP3    H1  828   2.594   2.758   2.601 -1.3452 -1.1948 -1.0875
  302TIP3    H2  829   2.571   2.673   2.724 -0.1245  0.2926  0.1810
  303TIP3   OH2  830   0.809   8.312   0.942 -0.2938  0.3691  0.0936
  303TIP3    H1  831   0.888   8.364   0.927 -0.1940  0.1633 -0.1092
  303TIP3    H2  832   0.827   8.229   0.898 -1.2940  0.9308 -1.4356
  304TIP3   OH2  833   2.592   3.128   3.374 -0.7252  0.0705 -0.4240
  304TIP3    H1  834   2.634   3.057   3.325  0.3727  0.2822  0.2109
  304TIP3    H2  835   2.558   3.186   3.306 -2.4756 -1.5259 -0.9635
  305TIP3   OH2  836   1.623   2.773   3.101  0.3093  0.0518 -0.1288
  305TIP3    H1  837   1.698   2.738   3.149  0.3046 -0.1646 -0.2782
  305TIP3    H2  838   1.557   2.789   3.169 -0.1748 -1.5034 -0.2238
  306TIP3   OH2  839   5.285   2.416   2.072 -0.2694  0.3404  0.0385
  306TIP3    H1  840   5.245   2.338   2.110  1.8867 -0.8270 -0.0443
  306TIP3    H2  841   5.348   2.382   2.008  1.3709  2.1145  0.6727
  307TIP3   OH2  842   4.213   1.039   1.182  0.9527  0.4260  0.3484
  307TIP3    H1  843   4.222   1.083   1.098 -0.1505  1.5035  0.7607
  307TIP3    H2  844   4.193   1.110   1.243  0.9968 -0.4346  1.3789
  308TIP3   OH2  845   3.356   0.369   1.034  0.3264  0.1048 -0.6844
  308TIP3    H1  846   3.418   0.427   1.077  0.2083 -0.7489  0.6783
  308TIP3    H2  847   3.335   0.412   0.951  0.8948  1.5593 -0.0762
  309TIP3   OH2  848   3.024   2.239   1.777  0.3244 -0.6294 -0.4153
  309TIP3    H1  849   2.978   2.159   1.755 -0.5089 -0.3984  0.4902
  309TIP3    H2  850   3.001   2.257   1.868 -0.2295  1.1364 -0.8899
  310TIP3   OH2  851   3.760   1.563   1.230  0.0946  0.1855 -0.8576
  310TIP3    H1  852   3.706   1.519   1.165 -0.5403  1.6279 -1.3028
  310TIP3    H2  853   3.843   1.581   1.184  1.8160 -3.8697  0.4138
  311TIP3   OH2  854   5.672   1.120   0.570  0.6923  0.1071  0.6643
  311TIP3    H1  855   5.665   1.091   0.479  0.4193  1.1271  0.3597
  311TIP3    H2  856   5.677   1.039   0.621 -0.1204 -0.4679 -0.1762
  312TIP3   OH2  857   2.564   0.797   1.523  0.1954  0.0632 -0.0693
  312TIP3    H1  858   2.628   0.735   1.489 -1.7911 -2.3587  0.4574
  312TIP3    H2  859   2.592   0.814   1.612  3.1510  3.3058 -1.5378
  313TIP3   OH2  860   3.829   2.440   2.707  0.1666  0.0027 -0.1447
  313TIP3    H1  861   3.901   2.488   2.747 -0.7893  0.2787  1.2773
  313TIP3    H2  862   3.781   2.506   2.657  0.5108 -0.0485 -0.5440
  314TIP3   OH2  863   2.007   0.611   2.529  0.2371 -0.1237 -0.4103
  314TIP3    H1  864   1.931   0.584   2.582 -0.1734  0.1859 -0.8394
  314TIP3    H2  865   1.994   0.567   2.445  1.4366 -1.4727  0.0869
  315TIP3   OH2  866   2.279   8.225   2.074  0.0867  0.3993 -0.2283
  315TIP3    H1  867   2.369   8.192   2.068 -0.3762 -1.2118  1.2613
  315TIP3    H2  868   2.227   8.163   2.023 -0.6080 -0.4878  1.5201
  316TIP3   OH2  869   4.060   0.794   2.694  0.5633  0.2616 -0.2551
  316TIP3    H1  870   4.128   0.749   2.644 -1.1292 -1.1022 -1.4039
  316TIP3    H2  871   4.029   0.863   2.635  0.8768  0.8195  0.2279
  317TIP3   OH2  872   4.037   1.877   0.382  0.8062  0.1541  0.2487
  317TIP3    H1  873   4.095   1.867   0.307  3.0045 -0.1910  1.9532
  317TIP3    H2  874   4.016   1.970   0.384  1.0146  0.2223 -0.5793
  318TIP3   OH2  875   2.942   2.067   3.214  0.1403 -0.1313 -0.0900
  318TIP3    H1  876   2.854   2.100   3.233 -0.1298 -0.5026 -0.6850
  318TIP3    H2  877   2.998   2.108   3.281 -0.2749  1.0966 -0.4712
  319TIP3   OH2  878   8.817   7.991   0.064  0.3158 -0.1697 -0.1898
  319TIP3    H1  879   8.817   7.976  -0.031  1.0140 -0.8169 -0.0891
  319TIP3    H2  880   8.892   8.049   0.080  0.4079 -0.3447  0.0109
  320TIP3   OH2  881   3.410   1.585   2.696 -0.1512  0.4683  0.2498
  320TIP3    H1  882   3.348   1.607   2.765 -0.5981  0.6326 -0.2035
  320TIP3    H2  883   3.494   1.576   2.741 -0.3336  1.1447  0.7217
  321TIP3   OH2  884   6.815   6.001   5.915 -0.0186  0.5148  0.1859
  321TIP3    H1  885   6.775   6.017   6.000  0.5635 -1.5859  0.8982
  321TIP3    H2  886   6.784   5.913   5.891 -1.4191  1.6903 -2.4987
  322TIP3   OH2  887   5.260   1.967   0.229 -0.3753  0.1354  0.2513
  322TIP3    H1  888   5.282   2.014   0.310  2.2283  0.0576 -0.3695
  322TIP3    H2  889   5.335   1.910   0.213  0.0293  1.5087 -3.1973
  323TIP3   OH2  890   8.829   6.436   0.670 -0.5539 -0.6649  0.4698
  323TIP3    H1  891   8.882   6.510   0.641 -1.5487 -0.4686 -0.8787
  323TIP3    H2  892   8.864   6.414   0.756 -1.0244  2.1796  1.4456
  324TIP3   OH2  893   3.364   1.847   3.338  0.0449  0.2153 -0.5267
  324TIP3    H1  894   3.297   1.839   3.406  0.6323 -1.5219 -0.1384
  324TIP3    H2  895   3.333   1.789   3.268  1.7971 -1.6521  0.2064
  325TIP3   OH2  896   3.769   2.483   3.784 -0.8800 -0.8381  0.4222
  325TIP3    H1  897   3.687   2.502   3.738 -0.6760 -0.1886  0.3294
  325TIP3    H2  898   3.746   2.490   3.877 -0.4740  1.3326  0.3900
  326TIP3   OH2  899   3.546   1.860   1.996 -0.0572  0.0792  0.2090
  326TIP3    H1  900   3.552   1.833   1.904 -2.1070 -1.2444  0.4504
  326TIP3    H2  901   3.503   1.946   1.992 -0.1442  0.0256 -0.0725
  327TIP3   OH2  902   6.715   5.788   5.791 -0.0389  0.2361 -0.1496
  327TIP3    H1  903   6.669   5.810   5.710  1.4936  1.7997 -0.6097
  327TIP3    H2  904   6.790   5.736   5.763  0.9782  1.5170  0.1807
  328TIP3   OH2  905   4.474   3.336   0.579  0.1866  0.1887  0.2205
  328TIP3    H1  906   4.529   3.321   0.656  0.8428  2.2799  0.1789
  328TIP3    H2  907   4.477   3.431   0.564 -0.8285 -0.0437 -1.7210
  329TIP3   OH2  908   4.552   0.203   0.906  0.4329 -0.0097 -0.3390
  329TIP3    H1  909   4.510   0.228   0.989  1.1935 -0.7551  0.2752
  329TIP3    H2  910   4.497   0.133   0.871  1.6740 -1.6875  0.9601
  330TIP3   OH2  911   3.758   1.849   2.417  0.3102 -0.4675 -0.2222
  330TIP3    H1  912   3.664   1.838   2.431  0.2352 -0.5206 -0.7434
  330TIP3    H2  913   3.798   1.774   2.462  0.1791  0.1239  0.8903
  331TIP3   OH2  914   6.652   0.472   2.328  0.0154  0.3191  0.3615
  331TIP3    H1  915   6.567   0.463   2.286 -0.1186 -1.1367  0.8952
  331TIP3    H2  916   6.712   0.494   2.256  0.1426 -4.0298 -1.0138
  332TIP3   OH2  917   7.202   4.828   6.691 -0.5440 -0.3831 -0.0339
  332TIP3    H1  918   7.253   4.895   6.646 -0.1118  0.2221  1.3206
  332TIP3    H2  919   7.263   4.755   6.701  0.4818  0.7754  2.6353
  333TIP3   OH2  920   2.397   3.466   0.347 -0.2587 -0.7510  0.6754
  333TIP3    H1  921   2.406   3.552   0.387 -0.1287  0.6319 -2.1743
  333TIP3    H2  922   2.416   3.404   0.418  2.1898  1.5798  2.1632
  334TIP3   OH2  923   3.579   1.449   2.370  0.2236 -0.3229  0.3292
  334TIP3    H1  924   3.548   1.514   2.308 -0.8840  0.0146  1.2042
  334TIP3    H2  925   3.662   1.484   2.403  0.6552 -0.3556 -0.7120
  335TIP3   OH2  926   4.732   0.766   2.185  0.5632  0.2013 -0.2196
  335TIP3    H1  927   4.769   0.706   2.120 -0.3713  0.0287 -0.6004
  335TIP3    H2  928   4.644   0.731   2.203  0.3499  0.9531  0.2114
  336TIP3   OH2  929   4.386   0.776   0.532  0.7129  0.6382 -0.2934
  336TIP3    H1  930   4.475   0.742   0.541  0.5139  0.1376 -0.2029
  336TIP3    H2  931   4.330   0.699   0.544  0.3071  0.6910 -1.8051
  337TIP3   OH2  932   8.057   4.113   6.478 -0.3599 -0.3854 -0.4425
  337TIP3    H1  933   8.148   4.097   6.502 -0.7043  0.1793  1.2590
  337TIP3    H2  934   8.036   4.043   6.417  1.5940  0.1951 -1.8551
  338TIP3   OH2  935   4.099   2.072   2.355 -0.0057  0.2708 -0.0936
  338TIP3    H1  936   4.098   2.072   2.450  1.1732  0.8332 -0.0693
  338TIP3    H2  937   4.187   2.039   2.332  0.2519  1.5350 -0.9562
  339TIP3   OH2  938   3.912   3.244   0.544  0.0289  0.7587  0.5115
  339TIP3    H1  939   3.892   3.155   0.572  0.6102  0.4525 -0.0220
  339TIP3    H2  940   4.007   3.254   0.559 -0.1434  1.5037  1.1607
  340TIP3   OH2  941   7.442   6.955   7.009  0.3101  0.3466 -0.2532
  340TIP3    H1  942   7.494   7.004   7.072  1.6600  1.9989 -2.5566
  340TIP3    H2  943   7.505   6.896   6.967 -0.3319  0.0761 -0.8426
  341TIP3   OH2  944   7.431   8.315   7.131  0.2087  0.3822 -0.8088
  341TIP3    H1  945   7.355   8.257   7.141 -0.1992  1.0467 -0.0549
  341TIP3    H2  946   7.504   8.265   7.167 -0.0157  0.0594 -0.8016
  342TIP3   OH2  947   2.492   1.597   2.658  0.0911  0.0780  1.0458
  342TIP3    H1  948   2.481   1.502   2.648 -0.2221  0.1439  0.7349
  342TIP3    H2  949   2.546   1.607   2.736 -1.4502 -0.2965  2.1976
  343TIP3   OH2  950   2.770   2.974   2.301 -0.5379 -0.2701  0.0146
  343TIP3    H1  951   2.835   2.999   2.235  0.7708 -0.4711  1.1916
  343TIP3    H2  952   2.703   2.926   2.253  0.1147  0.0751 -1.2497
  344TIP3   OH2  953   7.128   6.153   6.416 -0.0823  0.5367  0.4627
  344TIP3    H1  954   7.149   6.225   6.475  1.5530  1.1834 -0.8757
  344TIP3    H2  955   7.064   6.101   6.464  1.2947  0.9713  2.8436
  345TIP3   OH2  956   0.551   8.010   1.103 -0.0909  0.1038 -0.0967
  345TIP3    H1  957   0.527   8.100   1.125 -0.3574 -0.1694  0.7476
  345TIP3    H2  958   0.541   8.005   1.007 -1.3205  0.6013 -0.0051
  346TIP3   OH2  959   3.456   3.196   0.524 -0.3238 -0.0842 -0.5490
  346TIP3    H1  960   3.438   3.239   0.440  0.5203 -0.5186 -0.9601
  346TIP3    H2  961   3.376   3.207   0.574 -0.9615 -0.1216 -1.5460
  347TIP3   OH2  962   4.196   2.831   0.090 -0.0466 -0.0894 -0.2675
  347TIP3    H1  963   4.281   2.817   0.133 -0.2514  0.7443  0.4175
  347TIP3    H2  964   4.219   2.853  -0.000  0.5071  0.8184  0.0835
  348TIP3   OH2  965   7.299   2.488   4.617  0.5290 -0.3039  0.4530
  348TIP3    H1  966   7.373   2.541   4.648  0.6831  1.2597 -2.3483
  348TIP3    H2  967   7.320   2.399   4.645  2.6454  0.3758  1.1857
  349TIP3   OH2  968   2.952   1.397   2.308  0.3861 -0.6316 -0.3640
  349TIP3    H1  969   2.945   1.488   2.338 -0.2549  0.0075 -2.3951
  349TIP3    H2  970   2.875   1.354   2.346  0.8171 -0.4052  0.7998
  350TIP3   OH2  971   3.755   1.277   1.639  0.1904 -1.2171  0.2454
  350TIP3    H1  972   3.680   1.221   1.619  0.9732 -2.3146  0.3218
  350TIP3    H2  973   3.765   1.272   1.734 -1.4108  1.2605  0.5930
  351TIP3   OH2  974   2.741   1.969   0.747  0.3798 -0.0101 -0.4400
  351TIP3    H1  975   2.713   2.052   0.710 -0.0552  0.3355  0.6519
  351TIP3    H2  976   2.819   1.945   0.697  1.0406  1.5006 -0.1423
  352TIP3   OH2  977   3.503   0.405   0.508 -0.6943  0.1931 -0.2841
  352TIP3    H1  978   3.542   0.320   0.487  0.5753  0.0509  2.4159
  352TIP3    H2  979   3.558   0.468   0.462  1.1646 -0.1814  1.3773
  353TIP3   OH2  980   2.345   3.329   2.986  0.3183  0.0887 -0.1313
  353TIP3    H1  981   2.311   3.300   2.901 -0.6335  2.7058 -0.6929
  353TIP3    H2  982   2.433   3.360   2.967  1.0478 -1.6489  0.3274
  354TIP3   OH2  983   4.190   0.881   0.771  0.0064  0.4629  0.2504
  354TIP3    H1  984   4.223   0.847   0.688 -0.8843  1.2366 -0.4444
  354TIP3    H2  985   4.268   0.909   0.819  0.5848 -0.7648  0.0232
  355TIP3   OH2  986   6.384   4.793   6.501 -0.0437 -0.1902  0.7195
  355TIP3    H1  987   6.401   4.869   6.557 -0.4412 -0.0392  0.6368
  355TIP3    H2  988   6.314   4.746   6.546  1.9062 -1.8828  2.1118
  356TIP3   OH2  989   3.098   7.666   1.435  0.0959 -0.3113  0.0593
  356TIP3    H1  990   3.020   7.692   1.484  0.8124 -1.2460  1.7323
  356TIP3    H2  991   3.065   7.637   1.350 -1.1367  1.6881 -0.1903
  357TIP3   OH2  992   6.993   4.758   7.000  0.3915  0.7721 -0.1104
  357TIP3    H1  993   7.069   4.803   7.035 -0.3463  0.2248  2.2749
  357TIP3    H2  994   6.924   4.825   6.997  0.5657  0.9186 -0.9195
  358TIP3   OH2  995   6.982   4.998   6.695  0.1553 -0.0503  0.0167
  358TIP3    H1  996   7.017   5.087   6.684 -0.1801  0.2307  1.1896
  358TIP3    H2  997   7.052   4.950   6.739  0.1962 -0.2759 -0.2919
  359TIP3   OH2  998   4.050   2.694   4.798 -0.0750 -0.1821 -0.7424
  359TIP3    H1  999   4.049   2.755   4.872  2.3919 -1.1616  0.1686
  359TIP3    H2 1000   4.001   2.618   4.828  1.3654 -0.7930  0.1226
  360TIP3   OH2 1001   6.750   5.888   6.963 -0.6719  0.0891 -0.4975
  360TIP3    H1 1002   6.825   5.852   7.009 -0.6352 -0.5522 -1.0541
  360TIP3    H2 1003   6.784   5.964   6.917 -0.6265  0.5121  0.2256
  361TIP3   OH2 1004   6.109   2.455   2.077  0.6620  0.2751  0.3424
  361TIP3    H1 1005   6.200   2.464   2.106  0.6030 -3.3737  1.8863
  361TIP3    H2 1006   6.069   2.398   2.143 -1.8017 -1.0647 -2.2469
  362TIP3   OH2 1007   4.338   0.469   0.274  0.5131 -0.5139  0.0371
  362TIP3    H1 1008   4.426   0.433   0.266 -0.2465 -3.5883  4.0195
  362TIP3    H2 1009   4.292   0.438   0.195  1.6051 -3.2667  0.4201
  363TIP3   OH2 1010   2.392   2.156   3.728 -0.0344  0.2278 -0.0405
  363TIP3    H1 1011   2.444   2.198   3.797  0.0306 -0.6352  0.4462
  363TIP3    H2 1012   2.367   2.071   3.766 -0.9242  0.2138 -0.6661
  364TIP3   OH2 1013   1.598   5.262   3.587  0.6127  0.2925 -0.1292
  364TIP3    H1 1014   1.684   5.218   3.593  0.0860 -0.7868 -0.3760
  364TIP3    H2 1015   1.559   5.227   3.507 -0.0203  0.8693 -0.0760
  365TIP3   OH2 1016   1.961   0.659   1.546  0.1617  0.2392  0.2717
  365TIP3    H1 1017   1.872   0.690   1.560 -0.0064 -0.2254  0.2176
  365TIP3    H2 1018   1.986   0.697   1.461  1.2763  3.2581  1.8573
  366TIP3   OH2 1019   4.264   0.976   1.536 -0.0217 -0.6975 -0.6982
  366TIP3    H1 1020   4.329   0.918   1.575  0.8378  0.3594 -0.5353
  366TIP3    H2 1021   4.304   1.063   1.538 -1.0672 -0.1746 -1.4342
  367TIP3   OH2 1022   4.027   0.634   2.914  0.4330 -0.0530  0.8346
  367TIP3    H1 1023   4.035   0.540   2.895  1.3184 -0.0581  1.2010
  367TIP3    H2 1024   4.077   0.676   2.844 -0.9140  0.2169  0.0098
  368TIP3   OH2 1025   6.066   1.737   1.156  0.2271  0.1962 -0.0174
  368TIP3    H1 1026   5.996   1.688   1.199  0.6134  0.3524  0.7978
  368TIP3    H2 1027   6.137   1.740   1.221  1.0165 -0.0167 -0.8543
  369TIP3   OH2 1028   8.325   4.970   6.834 -0.3887 -0.4896 -0.4697
  369TIP3    H1 1029   8.240   4.971   6.879 -0.4843 -1.3701 -0.6154
  369TIP3    H2 1030   8.358   4.881   6.848  0.7005 -0.0314 -0.0646
  370TIP3   OH2 1031   2.942   2.605   3.469 -0.7806 -0.2409  0.2534
  370TIP3    H1 1032   3.024   2.622   3.423 -1.3336  2.1192  0.0883
  370TIP3    H2 1033   2.884   2.570   3.402 -0.7074  0.5369 -0.2278
  371TIP3   OH2 1034   5.103   0.810   0.481  0.0353  0.1352  0.3775
  371TIP3    H1 1035   5.089   0.814   0.575 -1.1322  1.8883  0.1602
  371TIP3    H2 1036   5.049   0.737   0.451 -1.9667  1.4322  0.7101
  372TIP3   OH2 1037   5.222   0.314   0.226  0.0048 -0.3810  0.5380
  372TIP3    H1 1038   5.310   0.325   0.188  0.2530 -4.2268 -0.2008
  372TIP3    H2 1039   5.236   0.324   0.320  1.3653 -1.3519  0.4623
  373TIP3   OH2 1040   6.189   1.336   4.275 -0.2572  0.1474 -0.0978
  373TIP3    H1 1041   6.177   1.271   4.206 -1.8141  1.1977 -0.8323
  373TIP3    H2 1042   6.150   1.295   4.353  0.0944 -0.3863 -0.1959
  374TIP3   OH2 1043   4.227   0.872   4.354 -0.1573  0.2923  0.2912
  374TIP3    H1 1044   4.248   0.829   4.271 -0.5402  1.4851 -0.4465
  374TIP3    H2 1045   4.237   0.966   4.336 -0.7826  0.5969  1.4392
  375TIP3   OH2 1046   3.146   3.089   3.082  0.2642 -0.4134 -0.3679
  375TIP3    H1 1047   3.182   3.053   3.163  1.1051  0.4691 -0.3349
  375TIP3    H2 1048   3.069   3.138   3.110 -0.5854 -1.7323 -0.3520
  376TIP3   OH2 1049   5.170   3.168   1.868  0.7746 -0.3014  0.5084
  376TIP3    H1 1050   5.238   3.223   1.828  0.1568  0.1119  0.0133
  376TIP3    H2 1051   5.088   3.211   1.845  0.1814 -2.2986 -1.2488
  377TIP3   OH2 1052   2.032   1.536   3.572  0.4101 -0.2060 -0.0081
  377TIP3    H1 1053   1.954   1.546   3.626  1.2820  2.8854  0.7527
  377TIP3    H2 1054   2.024   1.603   3.505  2.5016  0.3397  0.2393
  378TIP3   OH2 1055   5.159   1.195   1.346  0.3421  0.4220  0.5467
  378TIP3    H1 1056   5.150   1.177   1.440 -0.0509 -0.6917  0.3025
  378TIP3    H2 1057   5.114   1.123   1.303 -1.1478  1.9167 -0.4816
  379TIP3   OH2 1058   1.971   7.376   2.880 -0.3095  0.5274  0.1925
  379TIP3    H1 1059   1.918   7.427   2.940  1.6415  1.8029  0.8511
  379TIP3    H2 1060   1.949   7.411   2.793 -2.1353 -0.4292  0.2359
  380TIP3   OH2 1061   3.595   0.805   1.917  0.0068  0.0099 -0.3105
  380TIP3    H1 1062   3.523   0.751   1.884 -0.5375  0.5948 -0.1028
  380TIP3    H2 1063   3.652   0.819   1.842 -1.0770  1.1019 -0.9580
  381TIP3   OH2 1064   3.764   0.837   1.698  0.5222  1.0072  0.0587
  381TIP3    H1 1065   3.796   0.759   1.654  0.1117  0.9003 -0.0528
  381TIP3    H2 1066   3.839   0.897   1.699  1.5739 -0.3072  2.3534
  382TIP3   OH2 1067   2.952   1.273   2.653  0.1246  0.4671 -0.0629
  382TIP3    H1 1068   2.866   1.247   2.687  0.1510 -0.0249 -0.3576
  382TIP3    H2 1069   2.976   1.351   2.703  0.5691 -0.7635  1.6910
  383TIP3   OH2 1070   4.248   4.135   1.861  0.7437  0.0842 -0.0055
  383TIP3    H1 1071   4.271   4.135   1.768  2.1859 -1.7341  0.3213
  383TIP3    H2 1072   4.168   4.082   1.866 -1.4880  3.2463 -0.6445
  384TIP3   OH2 1073   2.846   0.354   2.475  0.1545 -0.0933  0.0012
  384TIP3    H1 1074   2.837   0.428   2.415 -0.6390  0.4790  0.8223
  384TIP3    H2 1075   2.757   0.331   2.499  0.4618 -0.3352  0.9468
  385TIP3   OH2 1076   1.233   2.470   2.175  0.3769 -0.3653 -0.6467
  385TIP3    H1 1077   1.173   2.444   2.245  1.8723 -0.7351  0.5148
  385TIP3    H2 1078   1.289   2.394   2.162  2.2721  0.8636  0.0943
  386TIP3   OH2 1079   7.592   5.546   5.860  0.3323  0.3554 -0.2125
  386TIP3    H1 1080   7.524   5.478   5.862  1.5269 -0.9948 -3.0574
  386TIP3    H2 1081   7.669   5.504   5.896  0.1219  1.3590  1.4225
  387TIP3   OH2 1082   3.320   3.993   0.917 -0.0896 -0.1057  0.4675
  387TIP3    H1 1083   3.389   4.055   0.893  1.5820 -1.9138  0.4641
  387TIP3    H2 1084   3.256   3.999   0.847  0.6599  0.7419 -0.1416
  388TIP3   OH2 1085   4.078   0.628   4.446  0.1244 -0.5227  0.3112
  388TIP3    H1 1086   4.086   0.654   4.354 -0.3399  1.2957  0.7646
  388TIP3    H2 1087   3.986   0.644   4.467  0.1409 -1.3077  0.9879
  389TIP3   OH2 1088   4.650   1.556   0.402  0.1449  0.3192 -0.3389
  389TIP3    H1 1089   4.590   1.494   0.360  0.4781  0.6342 -1.2781
  389TIP3    H2 1090   4.596   1.599   0.469 -0.0053 -1.2170  0.5547
  390TIP3   OH2 1091   7.345   1.593   0.410  0.0437  0.2181  0.1762
  390TIP3    H1 1092   7.393   1.675   0.395 -0.9346  0.9356  0.8825
  390TIP3    H2 1093   7.254   1.614   0.386  0.1354 -1.2378 -1.5265
  391TIP3   OH2 1094   5.867   2.922   1.537 -0.3457  0.7312  0.3972
  391TIP3    H1 1095   5.945   2.918   1.592 -0.9333 -1.2339  1.1398
  391TIP3    H2 1096   5.802   2.869   1.583 -1.0944 -0.3170 -1.7778
  392TIP3   OH2 1097   2.939   2.246   2.035 -0.5489  0.6522  0.8623
  392TIP3    H1 1098   2.903   2.329   2.068  0.5719  1.9992 -1.2264
  392TIP3    H2 1099   2.919   2.183   2.104 -2.7841  2.3317  1.8169
  393TIP3   OH2 1100   7.013   1.282   1.135 -0.0820  0.2210  0.1968
  393TIP3    H1 1101   7.057   1.338   1.070  0.1625  0.4821  0.5859
  393TIP3    H2 1102   7.074   1.210   1.150 -0.5117 -0.2976 -0.5027
  394TIP3   OH2 1103   4.275   1.745   1.089 -0.4936 -0.4491 -0.6987
  394TIP3    H1 1104   4.311   1.667   1.132  0.3530 -0.7381 -1.8877
  394TIP3    H2 1105   4.266   1.810   1.158 -0.9909 -1.5311  0.2672
  395TIP3   OH2 1106   3.505   1.134   1.245  0.2493 -0.0031  0.7918
  395TIP3    H1 1107   3.512   1.220   1.287 -0.0973  0.9271 -1.0138
  395TIP3    H2 1108   3.415   1.130   1.214  1.5674  1.1564 -3.5931
  396TIP3   OH2 1109   8.496   3.706   7.157  0.4439 -0.7770  0.0667
  396TIP3    H1 1110   8.500   3.759   7.237 -0.8134  0.7305 -0.8576
  396TIP3    H2 1111   8.403   3.701   7.136  0.6156 -2.6412 -0.3503
  397TIP3   OH2 1112   5.164   1.940   2.274  0.0816  0.4580  0.4414
  397TIP3    H1 1113   5.081   1.896   2.296  0.3415  0.4577  1.4497
  397TIP3    H2 1114   5.185   1.991   2.353  1.2155  0.1793  0.3179
  398TIP3   OH2 1115   8.270   5.413   7.161  0.4464  0.2166 -0.0373
  398TIP3    H1 1116   8.294   5.323   7.140  0.3637  0.5098 -1.4716
  398TIP3    H2 1117   8.311   5.466   7.092 -0.7357  1.1310 -0.0613
  399TIP3   OH2 1118   5.039   2.245   1.357  0.6110  0.4579  0.1588
  399TIP3    H1 1119   4.968   2.221   1.416  1.5105  0.7067  1.3451
  399TIP3    H2 1120   5.085   2.163   1.341  0.7775  0.5148  0.3483
  400TIP3   OH2 1121   6.098   1.207   1.427  0.5734 -0.1541 -0.3922
  400TIP3    H1 1122   6.037   1.236   1.359 -1.4224 -0.5277  1.1882
  400TIP3    H2 1123   6.176   1.180   1.379 -0.4653  0.4263 -2.4661
  401TIP3   OH2 1124   5.135   2.002   1.614  0.1681 -0.0444  0.4841
  401TIP3    H1 1125   5.173   2.079   1.570 -0.0251 -0.1011  0.2148
  401TIP3    H2 1126   5.171   1.927   1.566 -0.1301 -0.1032  0.3516
  402TIP3   OH2 1127   4.859   2.088   1.714 -0.1185 -0.2780  0.0373
  402TIP3    H1 1128   4.790   2.120   1.657  2.1569  2.0298 -1.5837
  402TIP3    H2 1129   4.923   2.049   1.655  0.2320 -1.8863  1.4488
  403TIP3   OH2 1130   4.936   2.473   1.449 -0.4305 -0.2755 -0.4031
  403TIP3    H1 1131   4.975   2.408   1.390  0.2163 -0.2188 -0.0471
  403TIP3    H2 1132   4.846   2.443   1.462  0.4301 -2.1790  1.2910
  404TIP3   OH2 1133   2.757   0.126   2.707  0.6628 -0.5372  0.3725
  404TIP3    H1 1134   2.833   0.114   2.764  1.2821  0.1680 -0.2938
  404TIP3    H2 1135   2.790   0.106   2.619  0.1403 -0.0007  0.0499
  405TIP3   OH2 1136   2.702   8.411   1.291 -0.2214 -0.3586 -0.3877
  405TIP3    H1 1137   2.730   8.326   1.257  0.2331  0.1758 -1.3811
  405TIP3    H2 1138   2.710   8.403   1.386  1.7840 -0.7466 -0.5699
  406TIP3   OH2 1139   3.257   2.004   1.974 -0.2067 -0.3083 -0.4643
  406TIP3    H1 1140   3.230   2.093   1.995  0.7926 -0.2819  0.7716
  406TIP3    H2 1141   3.324   2.014   1.907  1.0045 -0.0447  0.7849
  407TIP3   OH2 1142   4.683   3.235   3.961  0.1690  0.2325  0.0352
  407TIP3    H1 1143   4.608   3.176   3.948  0.4194 -0.5326  2.0022
  407TIP3    H2 1144   4.643   3.318   3.989  0.0705 -0.2363  1.2840
  408TIP3   OH2 1145   5.334   1.200   1.117  0.6737 -0.1210 -0.7315
  408TIP3    H1 1146   5.314   1.292   1.134  1.5961  0.1648 -1.1504
  408TIP3    H2 1147   5.369   1.167   1.200 -0.3484 -0.3053 -0.3584
  409TIP3   OH2 1148   2.960   3.668   3.952  0.0130 -0.0735  0.0443
  409TIP3    H1 1149   2.889   3.604   3.941 -2.8555  2.9276  0.2765
  409TIP3    H2 1150   2.958   3.689   4.046  0.7111  0.5787 -0.0862
  410TIP3   OH2 1151   2.845   2.020   1.689 -0.2915 -0.6369  0.0948
  410TIP3    H1 1152   2.784   2.035   1.617  0.9481  1.3973 -0.5647
  410TIP3    H2 1153   2.798   1.962   1.749 -0.9244 -3.3534 -2.8791
  411TIP3   OH2 1154   4.061   2.147   0.311 -0.6912 -0.2100 -0.2657
  411TIP3    H1 1155   4.133   2.123   0.370 -0.6925 -0.8824 -0.5305
  411TIP3    H2 1156   4.070   2.241   0.300 -1.9105  0.2827  2.4551
  412TIP3   OH2 1157   2.416   1.296   2.452 -0.2036 -0.0004  0.0204
  412TIP3    H1 1158   2.394   1.209   2.418  0.0525 -0.0179 -0.1034
  412TIP3    H2 1159   2.375   1.356   2.390 -0.8478 -0.0356  0.4178
  413TIP3   OH2 1160   2.549   1.586   3.633 -0.9705 -0.4349  0.4266
  413TIP3    H1 1161   2.591   1.662   3.672 -1.0101 -0.6604  0.9087
  413TIP3    H2 1162   2.617   1.519   3.631 -1.1736 -0.6515  0.7711
  414TIP3   OH2 1163   3.410   3.647   2.179  0.6265  0.0000 -0.2629
  414TIP3    H1 1164   3.410   3.552   2.168  3.0579  0.1901 -2.1547
  414TIP3    H2 1165   3.489   3.666   2.229  0.3229  1.0712 -0.1652
  415TIP3   OH2 1166   2.243   2.721   2.472  0.2450  0.1916  0.1835
  415TIP3    H1 1167   2.234   2.717   2.567 -1.1913  0.8592  0.0821
  415TIP3    H2 1168   2.177   2.661   2.438 -0.1305  0.9497 -0.4320
  416TIP3   OH2 1169   3.448   2.307   1.722  0.1581 -0.0139  0.5393
  416TIP3    H1 1170   3.455   2.368   1.795  0.4934  0.1857  0.3435
  416TIP3    H2 1171   3.363   2.327   1.682 -1.1375 -1.7462  2.3094
  417TIP3   OH2 1172   1.144   0.091   1.724 -0.1736  0.6811  0.5878
  417TIP3    H1 1173   1.193   0.136   1.655  0.0654 -1.1158 -0.4632
  417TIP3    H2 1174   1.053   0.117   1.708 -0.2905 -0.6984 -1.2489
  418TIP3   OH2 1175   3.553   0.898   1.101  0.1993  0.0522 -0.0284
  418TIP3    H1 1176   3.545   0.981   1.147 -0.3147 -0.4630  0.8418
  418TIP3    H2 1177   3.544   0.920   1.009  0.6284  1.0323  0.1580
  419TIP3   OH2 1178   4.258   4.044   6.084 -0.4151  0.0370  0.0394
  419TIP3    H1 1179   4.254   4.081   6.172 -0.6944  0.8930 -0.3305
  419TIP3    H2 1180   4.253   3.949   6.098  2.0709  0.0057  1.1235
  420TIP3   OH2 1181   4.977   1.195   0.991 -0.1505  0.3563 -0.2771
  420TIP3    H1 1182   4.949   1.172   0.903  1.5552  0.5504 -0.8902
  420TIP3    H2 1183   5.019   1.115   1.024 -2.7625 -0.4469  1.2239
  421TIP3   OH2 1184   4.338   0.620   1.062  0.2232 -0.1248 -0.1522
  421TIP3    H1 1185   4.392   0.694   1.034  1.1835 -0.1057  1.6980
  421TIP3    H2 1186   4.323   0.635   1.156 -0.1977 -1.8902  0.0821
  422TIP3   OH2 1187   8.006   6.337   5.797 -0.3304 -0.1866 -0.4935
  422TIP3    H1 1188   7.960   6.281   5.859 -1.8895  0.4373 -1.0444
  422TIP3    H2 1189   8.027   6.416   5.848 -0.2912 -0.2838 -0.3592
  423TIP3   OH2 1190   5.595   2.495   6.716 -0.0572  0.3658 -0.2632
  423TIP3    H1 1191   5.522   2.435   6.705 -0.0790  0.2532  0.4953
  423TIP3    H2 1192   5.666   2.458   6.663  0.0103 -0.4629  0.4010
  424TIP3   OH2 1193   2.347   1.607  -0.020 -0.3134  0.8959 -0.3190
  424TIP3    H1 1194   2.263   1.614   0.026  0.2245 -0.9202  1.0306
  424TIP3    H2 1195   2.401   1.675   0.019 -0.5457  0.7884  0.1944
  425TIP3   OH2 1196   3.948   0.135   2.038 -0.0178  0.1066 -0.2709
  425TIP3    H1 1197   3.959   0.204   2.105 -1.5045  2.5791 -2.4584
  425TIP3    H2 1198   3.854   0.123   2.032  0.0003  0.8110 -2.7193
  426TIP3   OH2 1199   8.862   7.246   3.249 -0.1055 -0.5601 -0.0177
  426TIP3    H1 1200   8.778   7.206   3.224 -0.2373 -0.8652  0.8860
  426TIP3    H2 1201   8.885   7.202   3.331  0.2104  0.5643  0.5002
  427TIP3   OH2 1202   1.789   0.483   1.669  0.0327  0.1324 -0.6035
  427TIP3    H1 1203   1.820   0.563   1.626  0.1595  0.4132  0.0069
  427TIP3    H2 1204   1.836   0.412   1.625  1.5576  0.5515  0.3025
  428TIP3   OH2 1205   2.962   1.159   1.521 -0.1254 -0.3282 -0.6424
  428TIP3    H1 1206   2.904   1.145   1.596 -1.2741  0.0262 -1.4384
  428TIP3    H2 1207   3.050   1.166   1.558 -0.9470  2.2720  0.9140
  429TIP3   OH2 1208   5.595   1.977   1.888  0.3319  0.2499 -0.4602
  429TIP3    H1 1209   5.625   1.938   1.806  0.9719  0.1972 -0.1985
  429TIP3    H2 1210   5.666   1.963   1.950 -0.0267  0.5518  0.0309
  430TIP3   OH2 1211   5.004   0.805   2.276 -0.7298 -0.4899 -0.4285
  430TIP3    H1 1212   5.051   0.724   2.254 -1.0244 -1.0064  0.8044
  430TIP3    H2 1213   4.920   0.797   2.232 -0.3175 -0.3220 -1.2627
  431TIP3   OH2 1214   3.760   8.037   1.905 -0.3263 -0.2517 -0.0596
  431TIP3    H1 1215   3.713   8.116   1.933 -0.1640 -0.8170  1.9292
  431TIP3    H2 1216   3.800   8.061   1.822  0.1899  1.9696  0.7873
  432TIP3   OH2 1217   6.049   1.500   0.120  0.0233 -0.1045 -0.4634
  432TIP3    H1 1218   6.093   1.443   0.183 -1.5132 -1.2357 -0.3716
  432TIP3    H2 1219   5.981   1.444   0.081 -0.2000  1.0950 -1.8312
  433TIP3   OH2 1220   4.869   0.874   0.053  0.2355 -0.4062 -0.1150
  433TIP3    H1 1221   4.794   0.842   0.104  0.3251  0.5702  0.6313
  433TIP3    H2 1222   4.923   0.796   0.039 -0.4128 -0.9216  0.2162
  434TIP3   OH2 1223   3.542   2.218   0.186 -0.2459 -0.2695 -0.4150
  434TIP3    H1 1224   3.486   2.240   0.112  0.8960  0.7161 -1.0095
  434TIP3    H2 1225   3.610   2.285   0.185 -0.6673  0.2574  2.0253
  435TIP3   OH2 1226   8.833   6.503   7.250 -0.8274 -0.7465  1.0763
  435TIP3    H1 1227   8.749   6.498   7.204  0.3640  0.8200 -1.3651
  435TIP3    H2 1228   8.873   6.417   7.237 -0.8893 -0.6022 -0.0781
  436TIP3   OH2 1229   6.269   2.118   0.598 -0.4744  0.0646  0.0268
  436TIP3    H1 1230   6.327   2.057   0.642  0.3255  0.5707 -0.3088
  436TIP3    H2 1231   6.249   2.185   0.664 -1.1232 -0.4089  0.3088
  437TIP3   OH2 1232   6.555   0.292   1.295 -0.4466  0.7007  0.5931
  437TIP3    H1 1233   6.594   0.298   1.382 -0.5170  0.8488  0.6149
  437TIP3    H2 1234   6.498   0.369   1.288 -0.3044  0.7853  0.3493
  438TIP3   OH2 1235   0.659   3.758   5.945 -0.1434  0.4133 -0.5476
  438TIP3    H1 1236   0.700   3.809   6.015 -1.5744  1.4504 -0.4468
  438TIP3    H2 1237   0.589   3.710   5.989 -1.1775  1.2212 -1.2874
  439TIP3   OH2 1238   6.610   1.986   2.149 -0.1129  0.1593  0.7500
  439TIP3    H1 1239   6.654   1.937   2.219  1.4908 -2.4169 -1.9047
  439TIP3    H2 1240   6.564   1.919   2.098  0.0073  1.7195 -1.5141
  440TIP3   OH2 1241   4.087   8.034   0.704 -0.1957 -0.4932 -0.3312
  440TIP3    H1 1242   4.120   8.120   0.729 -1.1425 -0.5573  1.2576
  440TIP3    H2 1243   3.992   8.046   0.698 -0.2928 -1.3293 -0.5072
  441TIP3   OH2 1244   4.871   1.913   0.509 -0.1518 -0.1847 -0.5303
  441TIP3    H1 1245   4.839   1.968   0.581 -0.4704 -2.3813  1.0789
  441TIP3    H2 1246   4.963   1.939   0.498 -0.3694  0.8461  0.0057
  442TIP3   OH2 1247   6.629   3.032   0.403  0.1654  0.8430  0.0033
  442TIP3    H1 1248   6.662   2.944   0.419  0.9756  0.8758 -1.5045
  442TIP3    H2 1249   6.694   3.090   0.442  2.1576  0.9211 -3.2810
  443TIP3   OH2 1250   5.304   0.578   1.661  0.1395 -0.4074 -0.2717
  443TIP3    H1 1251   5.255   0.570   1.743 -0.8798  2.3168 -0.5400
  443TIP3    H2 1252   5.237   0.598   1.595  1.4379  2.1204 -0.8763
  444TIP3   OH2 1253   6.027   0.800   1.667  0.0800 -0.6336  0.2952
  444TIP3    H1 1254   5.987   0.835   1.746 -0.8514 -0.9473 -0.0349
  444TIP3    H2 1255   6.101   0.857   1.650  0.8132 -1.0754  1.8904
  445TIP3   OH2 1256   3.708   5.071   2.021  0.0246 -0.1056 -0.6143
  445TIP3    H1 1257   3.794   5.115   2.017 -0.2188  0.5223  0.6339
  445TIP3    H2 1258   3.661   5.103   1.944  0.0160  1.5023  0.0384
  446TIP3   OH2 1259   4.994   1.635   0.561  0.2497  0.0435  0.3883
  446TIP3    H1 1260   4.997   1.729   0.543 -0.9426 -0.1117 -0.6344
  446TIP3    H2 1261   4.944   1.629   0.642 -0.3116  0.2280  0.0541
  447TIP3   OH2 1262   6.730   2.029   0.593  0.1191 -0.3411 -0.6026
  447TIP3    H1 1263   6.668   2.035   0.521  0.1015 -0.2877 -0.5835
  447TIP3    H2 1264   6.683   1.981   0.662 -1.4467  3.3263  1.0396
  448TIP3   OH2 1265   3.858   2.677   2.154  0.0723 -0.1371 -0.3885
  448TIP3    H1 1266   3.814   2.751   2.113 -0.1211 -1.0849 -1.9565
  448TIP3    H2 1267   3.931   2.657   2.095 -0.3670 -1.7041 -0.4308
  449TIP3   OH2 1268   4.885   1.556   0.222 -0.8417  0.1040 -0.0848
  449TIP3    H1 1269   4.945   1.622   0.258 -1.8230 -0.4273  2.7078
  449TIP3    H2 1270   4.799   1.583   0.255 -1.5594 -1.4003 -0.7001
  450TIP3   OH2 1271   1.185   8.083   7.008 -0.0217  0.3130 -0.3368
  450TIP3    H1 1272   1.206   7.993   7.034 -1.4584  0.3166  0.9213
  450TIP3    H2 1273   1.237   8.098   6.929  1.7493 -0.9396  0.5431
  451TIP3   OH2 1274   0.074   5.139   7.025  0.3101  0.2623  0.2066
  451TIP3    H1 1275   0.070   5.234   7.013  0.7887  0.2186 -0.3022
  451TIP3    H2 1276   0.163   5.115   6.997  0.5942 -0.1711  1.4592
  452TIP3   OH2 1277   6.144   1.282   0.541 -0.0207  0.0312 -0.1439
  452TIP3    H1 1278   6.176   1.306   0.455  0.7777 -0.2388  0.0750
  452TIP3    H2 1279   6.053   1.313   0.543  0.7921  2.4396 -0.0811
  453TIP3   OH2 1280   4.610   2.805   1.900 -0.4076  0.6636 -0.1528
  453TIP3    H1 1281   4.576   2.717   1.885  0.4899  0.3064 -0.1481
  453TIP3    H2 1282   4.593   2.852   1.818 -0.2287  0.2674 -0.4183
  454TIP3   OH2 1283   6.871   3.134   0.510 -0.5492  0.2156 -0.1968
  454TIP3    H1 1284   6.843   3.207   0.566  1.7682 -0.4115  1.8607
  454TIP3    H2 1285   6.966   3.139   0.510 -0.4217 -1.8619 -1.3784
  455TIP3   OH2 1286   6.198   1.530   1.397 -0.1290 -0.0756 -0.0629
  455TIP3    H1 1287   6.130   1.583   1.440 -0.1981 -0.5164  0.3812
  455TIP3    H2 1288   6.156   1.445   1.382 -0.2572  0.2210 -1.4533
  456TIP3   OH2 1289   5.908   2.135   1.332 -0.0230  0.0864 -0.1360
  456TIP3    H1 1290   5.943   2.218   1.366  1.9842 -0.0226 -1.8749
  456TIP3    H2 1291   5.957   2.067   1.378  0.4812 -0.0978 -0.9422
  457TIP3   OH2 1292   6.558   3.685   0.421 -0.9219  0.0618 -0.0633
  457TIP3    H1 1293   6.498   3.625   0.466  1.5593 -1.9696  0.6154
  457TIP3    H2 1294   6.572   3.644   0.336 -0.9066  0.8221 -0.4262
  458TIP3   OH2 1295   5.301   8.148   1.557 -0.6797 -0.5064  0.3369
  458TIP3    H1 1296   5.368   8.192   1.504  0.6827 -1.4653  1.2065
  458TIP3    H2 1297   5.352   8.099   1.622 -2.2687 -0.8545  1.3236
  459TIP3   OH2 1298   4.980   2.268   0.041 -0.0364 -0.3924  0.0613
  459TIP3    H1 1299   4.945   2.185   0.072 -1.4836 -0.0443 -0.6359
  459TIP3    H2 1300   5.039   2.244  -0.031  1.3945 -0.9862  1.3852
  460TIP3   OH2 1301   5.817   2.261   0.469 -0.0571 -0.1953  0.5137
  460TIP3    H1 1302   5.804   2.314   0.390  2.9195  2.6002  1.8159
  460TIP3    H2 1303   5.905   2.223   0.458 -0.6130 -1.8017  1.3896
  461TIP3   OH2 1304   6.420   2.866   0.360 -0.0408  0.4993  0.6533
  461TIP3    H1 1305   6.494   2.927   0.363 -0.6299  1.1919  1.7148
  461TIP3    H2 1306   6.399   2.849   0.452 -0.5155 -0.5365  0.3658
  462TIP3   OH2 1307   4.616   2.824  -0.033  0.6384 -0.4462 -0.5463
  462TIP3    H1 1308   4.552   2.791   0.031  0.7366 -2.1291 -1.2847
  462TIP3    H2 1309   4.687   2.860   0.021 -1.0109  1.6686  0.2874
  463TIP3   OH2 1310   5.376   1.571   2.288  0.1310  0.2020 -0.1299
  463TIP3    H1 1311   5.426   1.616   2.220  1.1804 -0.1670  0.3981
  463TIP3    H2 1312   5.350   1.488   2.249  0.6261  0.0447 -0.1219
  464TIP3   OH2 1313   6.518   2.666   2.516 -0.3722  0.0083  0.2432
  464TIP3    H1 1314   6.582   2.691   2.583  1.6308 -0.2611 -1.5266
  464TIP3    H2 1315   6.468   2.746   2.500  0.2706  0.5369  0.8475
  465TIP3   OH2 1316   6.161   0.692   0.282 -0.0995  0.0584  0.1600
  465TIP3    H1 1317   6.201   0.749   0.347  0.0499 -2.1460  2.0525
  465TIP3    H2 1318   6.089   0.650   0.328  1.4348 -3.3045 -0.3542
  466TIP3   OH2 1319   7.944   5.071   6.262  0.1079 -0.0946 -0.1924
  466TIP3    H1 1320   7.932   4.987   6.306  1.0670  0.0837  0.4209
  466TIP3    H2 1321   7.860   5.089   6.220 -1.5055  0.7690  3.2870
  467TIP3   OH2 1322   5.964   0.448   0.712  0.6659 -0.1643  0.6312
  467TIP3    H1 1323   5.893   0.424   0.771 -0.8394  0.8076 -0.7462
  467TIP3    H2 1324   5.961   0.382   0.643 -0.5451  1.3108 -0.7550
  468TIP3   OH2 1325   6.787   5.456   6.089 -0.0262 -0.4252 -0.5842
  468TIP3    H1 1326   6.851   5.446   6.159 -0.9340  0.4492  0.3741
  468TIP3    H2 1327   6.821   5.401   6.018 -0.0847 -2.8345  1.1999
  469TIP3   OH2 1328   7.004   2.651   2.173 -0.6688 -0.1975  0.0030
  469TIP3    H1 1329   7.008   2.630   2.267 -2.5789  1.6145  0.5257
  469TIP3    H2 1330   7.071   2.719   2.161  0.0226 -0.8884 -0.0900
  470TIP3   OH2 1331   4.270   1.924   1.647  0.3912  0.0917  0.4986
  470TIP3    H1 1332   4.359   1.897   1.626  0.5236  1.4054 -0.6230
  470TIP3    H2 1333   4.269   2.018   1.633 -1.4813 -0.0783 -0.5789
  471TIP3   OH2 1334   3.149   0.253   0.747 -0.6068  0.0412 -0.0151
  471TIP3    H1 1335   3.093   0.279   0.674  2.7406 -2.0925 -3.5078
  471TIP3    H2 1336   3.227   0.308   0.740  0.3030 -1.0544  1.1977
  472TIP3   OH2 1337   4.170   1.398   0.172 -0.5421 -0.0742 -0.2911
  472TIP3    H1 1338   4.199   1.445   0.251 -2.1061  0.6333 -0.1191
  472TIP3    H2 1339   4.079   1.425   0.161 -0.0872  0.5081 -2.8506
  473TIP3   OH2 1340   7.561   5.760   6.021  0.4677 -0.1079 -0.1214
  473TIP3    H1 1341   7.528   5.710   5.947 -0.3414  1.2471 -0.7059
  473TIP3    H2 1342   7.511   5.727   6.096 -1.1579  0.8457 -0.7493
  474TIP3   OH2 1343   6.185   3.822   1.591 -0.0002  0.3984 -0.0616
  474TIP3    H1 1344   6.257   3.788   1.643  0.7628 -0.1584 -1.4630
  474TIP3    H2 1345   6.108   3.774   1.622  0.4411  0.0790  0.5444
  475TIP3   OH2 1346   1.067   6.952   6.836 -0.6482 -0.0492 -0.6025
  475TIP3    H1 1347   1.101   7.005   6.764 -0.9253 -0.2013 -0.8491
  475TIP3    H2 1348   1.145   6.927   6.886 -0.5618  0.9440 -0.2358
  476TIP3   OH2 1349   5.783   5.369   6.693  0.3164 -0.0523 -0.0867
  476TIP3    H1 1350   5.876   5.391   6.695 -0.2770  2.6054  0.6009
  476TIP3    H2 1351   5.744   5.435   6.636 -0.9777 -1.9437 -1.4433
  477TIP3   OH2 1352   4.920   2.062   0.731  0.7484 -0.0985  0.5290
  477TIP3    H1 1353   4.930   1.973   0.766  0.5328 -0.5073 -0.4427
  477TIP3    H2 1354   5.005   2.082   0.691 -0.1933 -1.1059 -2.0611
  478TIP3   OH2 1355   7.146   3.415   2.361  0.0400  0.3428  0.0083
  478TIP3    H1 1356   7.230   3.408   2.406  0.7840  0.0981 -1.3806
  478TIP3    H2 1357   7.080   3.399   2.429  1.0853  1.3344  1.2743
  479TIP3   OH2 1358   5.950   1.603   1.944  0.3949 -0.1439 -0.1677
  479TIP3    H1 1359   5.990   1.540   2.004  2.2660 -0.3262 -1.5636
  479TIP3    H2 1360   6.022   1.659   1.916 -0.8308  1.2156 -0.7035
  480TIP3   OH2 1361   4.890   2.758   1.444  0.1450  0.0057  0.7569
  480TIP3    H1 1362   4.932   2.673   1.456 -0.3221 -0.0927  1.7230
  480TIP3    H2 1363   4.956   2.811   1.399  0.3905 -0.8962  0.0269
  481TIP3   OH2 1364   6.991   6.768   7.071  0.1275 -0.3319  0.2833
  481TIP3    H1 1365   6.914   6.811   7.035 -0.3306  0.2900  1.9681
  481TIP3    H2 1366   7.061   6.833   7.061 -0.2601  0.2983  1.5651
  482TIP3   OH2 1367   6.150   2.012   1.404  0.4429 -0.0987  0.1417
  482TIP3    H1 1368   6.174   1.998   1.496  0.7937  0.5084  0.1503
  482TIP3    H2 1369   6.140   1.925   1.367  2.3070 -0.3621  0.2363
  483TIP3   OH2 1370   6.469   0.117   1.603 -0.3373  0.5332  0.1410
  483TIP3    H1 1371   6.380   0.138   1.576  0.6364  2.5834 -1.5452
  483TIP3    H2 1372   6.519   0.111   1.522  1.2275  0.0619  1.1006
  484TIP3   OH2 1373   6.984   2.913   1.039 -0.6576  0.3309  0.2285
  484TIP3    H1 1374   6.942   2.927   0.954 -0.5134 -3.9829 -0.6805
  484TIP3    H2 1375   7.078   2.917   1.019 -0.6204 -1.3799  0.0224
  485TIP3   OH2 1376   7.366   3.866   6.606 -0.3760 -0.0302 -0.2193
  485TIP3    H1 1377   7.421   3.797   6.643 -1.1970  0.0811  1.2762
  485TIP3    H2 1378   7.296   3.819   6.561 -0.5252 -0.1822  0.1649
  486TIP3   OH2 1379   0.468   6.180   6.957 -0.4635 -0.4994  0.3652
  486TIP3    H1 1380   0.441   6.203   6.868 -1.1915 -0.2026  0.6643
  486TIP3    H2 1381   0.486   6.264   6.999  0.5839 -0.6729  0.2845
  487TIP3   OH2 1382   5.133   2.014   0.568 -0.0292 -0.0202 -0.0689
  487TIP3    H1 1383   5.179   1.939   0.606  0.7795  0.3582 -0.3015
  487TIP3    H2 1384   5.201   2.065   0.524 -0.7718  0.1926 -0.9863
  488TIP3   OH2 1385   8.060   3.507   7.235  0.2045 -0.8638  0.1640
  488TIP3    H1 1386   7.996   3.545   7.294 -0.6055  0.1893 -1.3627
  488TIP3    H2 1387   8.022   3.423   7.208  0.0199 -0.7953  0.2121
  489TIP3   OH2 1388   8.140   3.745   6.685  0.1039 -0.3230 -0.1824
  489TIP3    H1 1389   8.129   3.707   6.598 -1.3926 -2.0756  0.7466
  489TIP3    H2 1390   8.109   3.678   6.745  0.9016  0.9545  1.7098
  490TIP3   OH2 1391   1.652   3.804   6.309  0.4701  0.0535  0.0568
  490TIP3    H1 1392   1.603   3.728   6.276  0.4298  0.5088 -0.9591
  490TIP3    H2 1393   1.672   3.782   6.400 -0.1057 -0.8945 -0.0363
  491TIP3   OH2 1394   6.172   2.327   0.752  0.8872  0.1124 -0.4704
  491TIP3    H1 1395   6.141   2.321   0.842  3.2140 -0.5792  0.3274
  491TIP3    H2 1396   6.095   2.353   0.701 -0.9661 -1.6320  1.3837
  492TIP3   OH2 1397   6.793   8.162   6.810  0.0761  0.6104 -0.2954
  492TIP3    H1 1398   6.697   8.155   6.810  0.1183 -0.6151  1.5955
  492TIP3    H2 1399   6.812   8.249   6.776 -1.7606  1.2528  0.2962
  493TIP3   OH2 1400   8.836   2.637   6.882 -0.3967  0.2156  0.0680
  493TIP3    H1 1401   8.827   2.718   6.931 -0.5258  1.2265 -1.5824
  493TIP3    H2 1402   8.844   2.569   6.949  0.5497  1.6753  1.4793
  494TIP3   OH2 1403   6.033   2.052   0.475 -0.4375 -0.0214 -0.1279
  494TIP3    H1 1404   6.115   2.090   0.507 -1.0911  0.9352  0.4225
  494TIP3    H2 1405   6.056   2.014   0.390  0.7910 -0.5940  0.4457
  495TIP3   OH2 1406   1.172   7.583   5.772 -0.2453  0.1098  0.1988
  495TIP3    H1 1407   1.098   7.542   5.816 -0.7273  1.3964  0.6008
  495TIP3    H2 1408   1.139   7.605   5.685 -0.0270 -0.2144  0.0308
  496TIP3   OH2 1409   8.279   2.276   1.149 -0.0206  0.6857  0.5267
  496TIP3    H1 1410   8.290   2.275   1.054  0.9382 -2.1742  0.6186
  496TIP3    H2 1411   8.367   2.294   1.183 -0.2722  1.2382  0.9000
  497TIP3   OH2 1412   7.345   2.663   0.121  0.1422 -0.0727  0.3535
  497TIP3    H1 1413   7.331   2.728   0.052 -1.4075 -0.1925  0.5367
  497TIP3    H2 1414   7.368   2.583   0.074 -0.0581  0.0688  0.0105
  498TIP3   OH2 1415   6.172   1.416   3.183  0.5397  0.0070 -0.2045
  498TIP3    H1 1416   6.161   1.348   3.250 -1.9015  1.5890  1.0504
  498TIP3    H2 1417   6.193   1.367   3.104  2.0160 -1.9970  1.3651
  499TIP3   OH2 1418   7.864   0.799   0.723 -0.1636  0.1068  0.7512
  499TIP3    H1 1419   7.936   0.836   0.673  0.3069 -2.3854 -0.5472
  499TIP3    H2 1420   7.845   0.863   0.791  2.4542  1.3443  0.3549
  500TIP3   OH2 1421   3.757   3.484   0.425 -0.2538  0.3703 -0.1084
  500TIP3    H1 1422   3.714   3.541   0.489 -1.0828 -1.1535  0.7539
  500TIP3    H2 1423   3.782   3.406   0.477  0.9163 -0.0106 -1.2215
  501TIP3   OH2 1424   6.189   1.207   2.563  0.1545  0.2731 -0.5388
  501TIP3    H1 1425   6.215   1.116   2.569  0.5394  0.4155 -0.0100
  501TIP3    H2 1426   6.270   1.254   2.541 -0.2577  0.3543 -1.8784
  502TIP3   OH2 1427   6.848   1.194   0.002  0.3247  0.1332  0.1189
  502TIP3    H1 1428   6.941   1.194  -0.020  0.5824  0.3282  1.1773
  502TIP3    H2 1429   6.833   1.108   0.041  0.2416  0.3809  0.6436
  503TIP3   OH2 1430   3.606   1.736   1.746 -0.1432  0.0690  0.8018
  503TIP3    H1 1431   3.692   1.705   1.774  0.7006  1.7974  0.1759
  503TIP3    H2 1432   3.592   1.693   1.661  0.4505  0.3874  0.5401
  504TIP3   OH2 1433   7.921   1.835   0.692 -0.3700 -0.3193  0.2830
  504TIP3    H1 1434   7.915   1.894   0.767 -0.0196 -0.2538  0.2580
  504TIP3    H2 1435   8.013   1.836   0.667 -0.8661  1.4219 -1.5774
  505TIP3   OH2 1436   5.828   1.357   0.033  1.0692  0.0888 -0.2524
  505TIP3    H1 1437   5.754   1.382   0.089  0.8016 -0.1842 -0.4882
  505TIP3    H2 1438   5.790   1.342  -0.053  1.3728 -0.2231 -0.3349
  506TIP3   OH2 1439   1.939   8.035   0.900  0.4591 -0.0340  0.0799
  506TIP3    H1 1440   1.860   8.074   0.863 -0.3462  0.2603  2.0193
  506TIP3    H2 1441   1.991   8.110   0.929  0.1584 -0.2895  1.3233
  507TIP3   OH2 1442   8.248   5.189   6.187 -0.2384 -0.1156  0.1581
  507TIP3    H1 1443   8.247   5.129   6.262 -0.2519  0.8794  0.9746
  507TIP3    H2 1444   8.171   5.245   6.200 -0.2541  0.0452 -0.6103
  508TIP3   OH2 1445   4.459   2.328   0.467  0.3674  0.0838  0.4834
  508TIP3    H1 1446   4.479   2.242   0.504  3.2157 -0.0008 -1.1440
  508TIP3    H2 1447   4.540   2.355   0.424 -1.4767  2.1843 -1.7777
  509TIP3   OH2 1448   3.331   2.438   2.804  0.0094 -0.2923  0.2320
  509TIP3    H1 1449   3.264   2.397   2.859 -1.3251  0.5209 -0.7637
  509TIP3    H2 1450   3.375   2.500   2.862  0.9541 -1.9329  1.3127
  510TIP3   OH2 1451   8.423   1.025   3.821 -0.6043  0.1304  0.1713
  510TIP3    H1 1452   8.333   1.026   3.788 -0.6738 -0.6475  0.3150
  510TIP3    H2 1453   8.424   1.089   3.892 -1.3242 -0.5904  0.8543
  511TIP3   OH2 1454   8.754   5.877   6.472 -0.1770  0.0928  0.4908
  511TIP3    H1 1455   8.797   5.859   6.389 -0.9145  2.8131 -0.5570
  511TIP3    H2 1456   8.726   5.792   6.505 -0.1461 -0.9711 -2.1911
  512TIP3   OH2 1457   7.881   3.820   6.784 -0.8435  0.0548  0.3139
  512TIP3    H1 1458   7.974   3.834   6.769 -1.1661  0.8016 -1.0738
  512TIP3    H2 1459   7.852   3.767   6.710 -1.8432  1.2098 -0.1427
  513TIP3   OH2 1460   4.950   3.498   1.348 -0.2839  0.2953  0.2733
  513TIP3    H1 1461   5.019   3.564   1.341 -0.2251  0.3323  1.0834
  513TIP3    H2 1462   4.891   3.533   1.415 -0.1305 -0.5777  0.8742
  514TIP3   OH2 1463   4.420   1.401   0.710 -0.3324  0.3384 -0.3389
  514TIP3    H1 1464   4.472   1.357   0.777 -0.4527 -0.8687 -1.0215
  514TIP3    H2 1465   4.390   1.331   0.653  0.8016  1.4519 -2.3880
  515TIP3   OH2 1466   0.362   5.454   6.516  0.2265  0.0200  0.1709
  515TIP3    H1 1467   0.395   5.407   6.439  2.0799 -0.3090  1.1307
  515TIP3    H2 1468   0.441   5.473   6.567 -0.7973  1.8442  1.0904
  516TIP3   OH2 1469   7.947   5.264   5.507 -0.4276  0.4238  0.0056
  516TIP3    H1 1470   7.887   5.200   5.469 -1.2093 -0.7153  3.0257
  516TIP3    H2 1471   7.893   5.342   5.521 -0.8423 -0.0736  1.2568
  517TIP3   OH2 1472   5.184   1.321   0.146  0.1083  0.2315  0.6151
  517TIP3    H1 1473   5.230   1.299   0.065 -1.2407 -0.8628  0.1140
  517TIP3    H2 1474   5.241   1.383   0.191  2.3418 -1.5345  0.3111
  518TIP3   OH2 1475  -0.001   4.137   6.361 -0.4432 -0.1929 -0.8817
  518TIP3    H1 1476   0.002   4.054   6.313  1.0003 -0.6363 -0.0718
  518TIP3    H2 1477   0.085   4.144   6.402 -0.7683  1.4095 -0.4207
  519TIP3   OH2 1478   6.569   4.455   6.661 -0.1176  0.2686 -0.1414
  519TIP3    H1 1479   6.656   4.468   6.699 -0.5105 -1.1613  1.2922
  519TIP3    H2 1480   6.512   4.513   6.710 -0.5554 -1.2935  1.2425
  520TIP3   OH2 1481   5.556   0.556   0.395 -0.3087  0.4066  0.7957
  520TIP3    H1 1482   5.477   0.602   0.424  0.1438  2.2376 -0.8249
  520TIP3    H2 1483   5.589   0.514   0.475 -2.7146 -0.1420  1.5716
  521TIP3   OH2 1484   7.624   3.191   1.631 -0.1484 -0.3209  0.4820
  521TIP3    H1 1485   7.552   3.128   1.631  0.9245 -1.5773  0.7129
  521TIP3    H2 1486   7.607   3.247   1.556 -1.0698 -0.9678  0.2016
  522TIP3   OH2 1487   8.482   4.215   6.837 -0.2478  0.0653 -0.1447
  522TIP3    H1 1488   8.429   4.139   6.859  1.2781 -0.6445  1.1877
  522TIP3    H2 1489   8.570   4.180   6.823  0.0250  1.2933 -1.7145
  523TIP3   OH2 1490   1.211   6.726   6.290 -0.5194 -0.3101  0.3908
  523TIP3    H1 1491   1.249   6.722   6.378  0.9750 -0.6165 -0.2484
  523TIP3    H2 1492   1.169   6.812   6.286  1.9417  0.9476  0.4085
  524TIP3   OH2 1493   8.600   3.170   5.405 -0.1666  0.2263  0.2812
  524TIP3    H1 1494   8.547   3.130   5.474  0.5374 -0.2875  0.5307
  524TIP3    H2 1495   8.690   3.159   5.436  0.2265 -1.0510 -1.2647
  525TIP3   OH2 1496   4.282   0.407   2.299 -0.1800  0.0916  0.5770
  525TIP3    H1 1497   4.346   0.358   2.350  0.2139  0.6031  0.5804
  525TIP3    H2 1498   4.268   0.488   2.349 -1.4206 -0.3600  0.9795
  526TIP3   OH2 1499   1.724   7.228   0.866 -0.7795 -0.5618  0.5378
  526TIP3    H1 1500   1.801   7.207   0.918  0.1777  1.5171  0.0294
  526TIP3    H2 1501   1.669   7.280   0.924 -0.1298  0.9790 -0.1783
  527TIP3   OH2 1502   5.600   1.729   1.628 -0.1219  0.3082 -0.1023
  527TIP3    H1 1503   5.518   1.685   1.608  0.0815  0.3430 -1.0232
  527TIP3    H2 1504   5.652   1.663   1.675  0.1388 -0.4114 -1.3699
  528TIP3   OH2 1505   7.966   5.874   7.226 -0.3409 -0.2499  0.0841
  528TIP3    H1 1506   7.978   5.896   7.319  2.3468  0.3586 -0.3748
  528TIP3    H2 1507   7.950   5.779   7.226 -0.9672 -0.1571  1.2044
  529TIP3   OH2 1508   5.873   2.968   1.243  0.2831 -0.7148 -0.2197
  529TIP3    H1 1509   5.862   2.960   1.338 -0.8896 -2.3092 -0.4657
  529TIP3    H2 1510   5.957   2.927   1.224  0.9159  0.3718  0.2304
  530TIP3   OH2 1511   6.925   5.728   7.128  0.6498  0.3117  0.0766
  530TIP3    H1 1512   6.916   5.641   7.168  0.8096 -0.0343 -0.6380
  530TIP3    H2 1513   6.996   5.769   7.177  0.4084  0.1362  0.5815
  531TIP3   OH2 1514   0.068   6.130   6.057  0.8062  0.3315 -0.2408
  531TIP3    H1 1515   0.088   6.155   6.147  0.5197  0.1156 -0.1175
  531TIP3    H2 1516   0.102   6.203   6.004 -1.2325  1.6729  0.2169
  532TIP3   OH2 1517   7.572   1.830   1.346 -0.1301 -0.2171  0.6709
  532TIP3    H1 1518   7.489   1.787   1.368 -0.3185 -0.0861  0.2237
  532TIP3    H2 1519   7.546   1.914   1.308  0.2448  0.5543  2.0780
  533TIP3   OH2 1520   6.507   0.527   0.723  0.2693  0.4450  0.7900
  533TIP3    H1 1521   6.413   0.530   0.740  0.4949  1.3878  1.8931
  533TIP3    H2 1522   6.529   0.614   0.689  0.2689 -0.6399 -2.1239
  534TIP3   OH2 1523   2.955   1.043   0.109  0.3537 -0.0461 -0.4154
  534TIP3    H1 1524   2.993   1.131   0.121 -0.7108  0.2922  0.5543
  534TIP3    H2 1525   2.990   0.993   0.183 -3.3971  1.0779  2.2609
  535TIP3   OH2 1526   6.172   0.820   0.047  0.1180 -0.2737 -0.0363
  535TIP3    H1 1527   6.085   0.830   0.008  0.2212  0.6011 -0.0510
  535TIP3    H2 1528   6.156   0.776   0.130 -0.4380  0.6976  0.3731
  536TIP3   OH2 1529   6.129   1.271   0.249 -0.1973 -0.0782  0.1272
  536TIP3    H1 1530   6.206   1.215   0.248  0.7244  1.1889 -1.5330
  536TIP3    H2 1531   6.059   1.218   0.211 -0.0531 -1.0877  1.2570
  537TIP3   OH2 1532   5.615   1.606   2.134 -0.2030  0.0290  0.1567
  537TIP3    H1 1533   5.669   1.670   2.090 -0.3846 -0.7392 -1.2061
  537TIP3    H2 1534   5.674   1.532   2.151 -0.5338 -0.3453 -0.3030
  538TIP3   OH2 1535   3.554   0.514   0.147  0.0439 -0.4408  0.2875
  538TIP3    H1 1536   3.622   0.447   0.150  0.7623  0.3028  1.3071
  538TIP3    H2 1537   3.577   0.575   0.218 -0.9982  0.4812 -0.1378
  539TIP3   OH2 1538   5.423   2.139   2.248  0.0865  0.1132  0.3501
  539TIP3    H1 1539   5.403   2.188   2.169  0.4347  0.1676  0.2964
  539TIP3    H2 1540   5.446   2.051   2.217  1.3109  0.4377  0.3027
  540TIP3   OH2 1541   5.039   3.044   2.362 -0.2933 -0.3537  0.3380
  540TIP3    H1 1542   5.048   3.006   2.275 -1.0647 -0.5019  0.3162
  540TIP3    H2 1543   5.127   3.076   2.383  0.1131 -1.1607 -0.0928
  541TIP3   OH2 1544   6.718   0.281   0.145 -0.4639 -0.1885 -0.1824
  541TIP3    H1 1545   6.687   0.194   0.171 -0.1878 -0.2180  0.0459
  541TIP3    H2 1546   6.801   0.266   0.101 -0.4078 -0.0376 -0.1307
  542TIP3   OH2 1547   4.433   0.221   2.441  0.3748  0.0989  0.7541
  542TIP3    H1 1548   4.514   0.171   2.432  1.4435  1.8293  0.6191
  542TIP3    H2 1549   4.449   0.279   2.515 -0.6722  0.5940  0.6020
  543TIP3   OH2 1550   6.382   1.981   1.573 -0.0911  0.3228 -0.2892
  543TIP3    H1 1551   6.409   2.072   1.584  0.1843  0.1394  0.6283
  543TIP3    H2 1552   6.354   1.975   1.482  2.0982  0.7390 -1.0151
  544TIP3   OH2 1553   7.806   1.856   0.173 -0.0796  0.1832 -0.1902
  544TIP3    H1 1554   7.817   1.817   0.260 -0.2277  0.9423  0.1723
  544TIP3    H2 1555   7.713   1.842   0.152 -0.4480  1.5365  0.5230
  545TIP3   OH2 1556   7.655   2.540   1.820 -0.3381  0.0090  0.4460
  545TIP3    H1 1557   7.733   2.595   1.813  0.4276 -1.0194  0.8567
  545TIP3    H2 1558   7.688   2.450   1.821 -1.5304 -0.4436  0.5496
  546TIP3   OH2 1559   3.748   3.088   0.830  0.1463 -0.0210 -0.3202
  546TIP3    H1 1560   3.843   3.079   0.832  0.0384 -1.2398 -0.3942
  546TIP3    H2 1561   3.732   3.179   0.856  1.3256  0.1932 -0.3191
  547TIP3   OH2 1562   7.139   0.438   1.408  0.1303  0.2713  0.3142
  547TIP3    H1 1563   7.175   0.350   1.413  0.2742  0.2129 -1.2692
  547TIP3    H2 1564   7.193   0.482   1.342  1.3833  2.2038  2.5595
  548TIP3   OH2 1565  -0.010   6.683   6.825  0.3318 -0.7660  0.1580
  548TIP3    H1 1566   0.036   6.716   6.747 -0.8521  1.0824  0.2164
  548TIP3    H2 1567   0.056   6.686   6.894  0.9664 -0.9945 -0.4319
  549TIP3   OH2 1568   4.122   1.692  -0.019  0.4306  0.4319 -0.4468
  549TIP3    H1 1569   4.080   1.766   0.024 -0.4249 -1.1553  1.5673
  549TIP3    H2 1570   4.185   1.660   0.045 -0.5740 -1.7353 -0.5010
  550TIP3   OH2 1571   6.676   1.940   1.242  0.4362  0.7186  0.5083
  550TIP3    H1 1572   6.689   1.865   1.184  0.7033  1.3244 -0.2206
  550TIP3    H2 1573   6.662   1.901   1.328 -0.0214 -0.1869  0.0310
  551TIP3   OH2 1574   6.912   5.476   6.602  0.1351 -0.0854  0.5372
  551TIP3    H1 1575   6.904   5.543   6.669 -1.4683  0.6963 -0.4199
  551TIP3    H2 1576   6.925   5.394   6.651  0.6551  0.6931  1.7302
  552TIP3   OH2 1577   5.390   3.125   1.433  0.5374 -0.2345  0.1754
  552TIP3    H1 1578   5.484   3.118   1.420  0.2570 -0.6278 -1.7738
  552TIP3    H2 1579   5.362   3.195   1.375 -0.7353 -1.8740 -1.2655
  553TIP3   OH2 1580   8.042   2.493   2.443  0.1975  0.0221  0.8595
  553TIP3    H1 1581   7.984   2.488   2.519 -0.5495 -0.0687  0.2894
  553TIP3    H2 1582   8.014   2.571   2.396 -0.7834 -1.0932 -0.4682
  554TIP3   OH2 1583   4.077   0.868   0.048  0.0146 -0.0777  0.7307
  554TIP3    H1 1584   4.145   0.894   0.110  0.3517  2.1546 -0.4922
  554TIP3    H2 1585   4.033   0.950   0.026 -0.4445 -0.9083 -1.5558
  555TIP3   OH2 1586   5.162   1.811   2.608  0.2133  0.1273 -0.1850
  555TIP3    H1 1587   5.226   1.852   2.666  2.7520 -0.4214 -2.5506
  555TIP3    H2 1588   5.169   1.717   2.627 -0.1781  0.0967 -0.1806
  556TIP3   OH2 1589   6.452   2.000   0.790 -0.1510 -0.0554  0.6425
  556TIP3    H1 1590   6.504   2.047   0.855 -0.3531  0.0973  0.6932
  556TIP3    H2 1591   6.428   1.918   0.833  0.4175 -0.3231  0.4627
  557TIP3   OH2 1592   5.058   3.356   1.560 -0.5571 -0.3172 -0.4573
  557TIP3    H1 1593   4.996   3.362   1.632 -0.2621  0.4641 -0.2628
  557TIP3    H2 1594   5.008   3.381   1.482 -0.6876 -0.4730 -0.4250
  558TIP3   OH2 1595   6.335   1.601   1.162 -0.2278  0.2359 -0.0781
  558TIP3    H1 1596   6.274   1.562   1.099  1.1066  0.0173 -1.2847
  558TIP3    H2 1597   6.303   1.574   1.248 -1.8515  0.1933 -0.6803
  559TIP3   OH2 1598   5.745   2.593   1.589  0.1950  0.0510 -0.3045
  559TIP3    H1 1599   5.780   2.646   1.660 -1.6554 -0.4018  0.9828
  559TIP3    H2 1600   5.740   2.505   1.625  0.2113 -0.3738 -1.3425
  560TIP3   OH2 1601   5.775   1.069   1.159  0.3745 -0.7184  0.0346
  560TIP3    H1 1602   5.813   1.157   1.155  0.8514 -0.7536  2.7831
  560TIP3    H2 1603   5.840   1.017   1.206 -0.3201 -2.3208 -0.7489
  561TIP3   OH2 1604   7.669   2.783   1.113  0.3767 -0.0206  0.4335
  561TIP3    H1 1605   7.682   2.720   1.183  0.9715 -0.1480  0.2130
  561TIP3    H2 1606   7.725   2.752   1.042  0.4418  0.5866  0.2115
  562TIP3   OH2 1607   4.995   4.318   1.659  0.4296 -0.5359 -0.2015
  562TIP3    H1 1608   4.944   4.334   1.739  0.5449 -0.9805 -0.0370
  562TIP3    H2 1609   5.027   4.405   1.633 -1.1726 -0.1032 -0.8267
  563TIP3   OH2 1610   3.267   7.108   2.148  0.0461  0.6601  0.1290
  563TIP3    H1 1611   3.207   7.035   2.132 -1.1058  1.9525 -1.7341
  563TIP3    H2 1612   3.316   7.117   2.066  0.3406  1.8133  0.4238
  564TIP3   OH2 1613   5.969   2.453   0.611 -0.2100 -0.2540 -0.3780
  564TIP3    H1 1614   5.892   2.401   0.588 -0.0532 -0.9340  0.5764
  564TIP3    H2 1615   6.013   2.470   0.528 -0.2655 -1.6631 -0.7088
  565TIP3   OH2 1616   5.395   1.051   0.191  0.3275  0.1850 -0.2101
  565TIP3    H1 1617   5.311   1.008   0.206  0.6313 -0.2658  0.2096
  565TIP3    H2 1618   5.375   1.121   0.128 -0.7856  1.4800  1.5176
  566TIP3   OH2 1619   6.410   0.143   2.297 -0.5093  0.1777 -0.3000
  566TIP3    H1 1620   6.479   0.126   2.232 -0.9488  0.3178 -0.8058
  566TIP3    H2 1621   6.365   0.059   2.305  0.4683 -0.2465  0.9241
  567TIP3   OH2 1622   4.105   0.183   0.499 -0.1071  0.1356 -0.4710
  567TIP3    H1 1623   4.111   0.278   0.509  2.4515 -0.2590  2.6976
  567TIP3    H2 1624   4.191   0.156   0.466  0.2137 -1.3355  1.4601
  568TIP3   OH2 1625   5.725   2.008   0.575 -0.1668  0.2356  0.3292
  568TIP3    H1 1626   5.713   2.042   0.664  3.2518  0.2087  0.8645
  568TIP3    H2 1627   5.769   2.079   0.529 -0.0719 -0.5335 -0.7664
  569TIP3   OH2 1628   6.219   0.228   0.683 -0.0399 -0.0208 -0.0461
  569TIP3    H1 1629   6.184   0.293   0.622 -0.2198 -0.1919 -0.1272
  569TIP3    H2 1630   6.312   0.222   0.662  0.1045  0.6661  0.3750
  570TIP3   OH2 1631   6.211   5.637   6.524  0.4756  0.5381 -0.0396
  570TIP3    H1 1632   6.242   5.662   6.437 -1.3351  0.9681 -0.5769
  570TIP3    H2 1633   6.262   5.691   6.585  0.4997  1.5005 -0.9161
  571TIP3   OH2 1634   5.818   4.543   7.229  0.1752  0.2646  0.4266
  571TIP3    H1 1635   5.912   4.526   7.228  0.3956  1.3544  0.7371
  571TIP3    H2 1636   5.786   4.495   7.305  0.8240  1.4468  1.4749
  572TIP3   OH2 1637   5.759   2.577   1.327  0.1147  0.0922  0.1651
  572TIP3    H1 1638   5.792   2.600   1.413 -0.6989 -0.7862  0.7189
  572TIP3    H2 1639   5.836   2.578   1.270  0.3239  2.6681  0.4701
  573TIP3   OH2 1640   5.478   4.946   2.730 -0.2923 -0.0250 -0.2826
  573TIP3    H1 1641   5.501   4.951   2.637 -0.9338 -0.3017 -0.4571
  573TIP3    H2 1642   5.454   4.855   2.744 -1.4280  0.2891 -0.1457
  574TIP3   OH2 1643   7.533   0.717   0.432  0.3346  0.2787 -0.2002
  574TIP3    H1 1644   7.488   0.801   0.434  0.1909  0.1743  2.1248
  574TIP3    H2 1645   7.470   0.657   0.395 -0.3277  0.7809  0.1019
  575TIP3   OH2 1646   4.789   1.609   0.791  0.1466 -0.0517  0.3637
  575TIP3    H1 1647   4.721   1.661   0.749  0.2009 -0.8964 -0.8047
  575TIP3    H2 1648   4.771   1.519   0.764 -0.0424 -0.6894  2.4817
  576TIP3   OH2 1649   3.320   0.474   0.769  0.5643 -0.8390 -0.0702
  576TIP3    H1 1650   3.415   0.484   0.772  0.6001 -1.1245 -0.2110
  576TIP3    H2 1651   3.286   0.563   0.779  0.8858 -0.5356 -1.4740
  577TIP3   OH2 1652   5.760   2.680   2.336  0.2730 -0.1823  0.2862
  577TIP3    H1 1653   5.786   2.716   2.420 -1.3153 -3.0115  2.0719
  577TIP3    H2 1654   5.667   2.702   2.327  0.4227  0.0866 -0.7101
  578TIP3   OH2 1655   6.479   2.776   0.684  0.4257  0.5471  0.1599
  578TIP3    H1 1656   6.506   2.758   0.774  1.0585  0.0704 -0.1184
  578TIP3    H2 1657   6.553   2.748   0.630 -0.3070 -0.0377 -0.5664
  579TIP3   OH2 1658   7.548   1.614   1.721  0.2951  0.3533  0.3043
  579TIP3    H1 1659   7.488   1.671   1.769 -0.4929 -1.2034  1.2211
  579TIP3    H2 1660   7.634   1.634   1.757  0.0700  1.1912  0.3842
  580TIP3   OH2 1661   3.007   3.921   0.466  0.0755 -0.0875 -0.3820
  580TIP3    H1 1662   2.928   3.945   0.417  1.2912 -0.2652 -2.4576
  580TIP3    H2 1663   3.016   3.826   0.452  0.5254 -0.1067  0.0371
  581TIP3   OH2 1664   6.959   1.943   0.428  0.4250  0.0825  0.4224
  581TIP3    H1 1665   6.906   1.864   0.417 -1.1091  1.2434 -0.6515
  581TIP3    H2 1666   6.916   1.991   0.499 -0.4774  1.4371 -1.0292
  582TIP3   OH2 1667   4.715   4.507   0.636  0.3973 -0.1589 -0.1769
  582TIP3    H1 1668   4.705   4.419   0.600  2.2658  0.7142 -2.9536
  582TIP3    H2 1669   4.627   4.530   0.666 -0.4698 -2.3081 -0.9768
  583TIP3   OH2 1670   5.946   0.516   1.739  0.5194 -0.3752  1.1587
  583TIP3    H1 1671   5.951   0.602   1.697 -0.4338 -0.8806 -0.0408
  583TIP3    H2 1672   5.895   0.531   1.819 -0.7844 -0.0518  0.2918
  584TIP3   OH2 1673   7.558   3.530   6.994  0.4529  0.4456 -0.3492
  584TIP3    H1 1674   7.505   3.522   7.073  0.0719  1.1038 -0.5261
  584TIP3    H2 1675   7.645   3.554   7.024  0.5588 -0.2990 -0.0720
  585TIP3   OH2 1676   7.650   6.480   7.074  0.1421 -0.2941  0.0567
  585TIP3    H1 1677   7.627   6.571   7.056 -0.7736 -0.4103  0.6335
  585TIP3    H2 1678   7.709   6.484   7.150 -1.5670 -0.3320  1.4064
  586TIP3   OH2 1679   4.326   2.500   2.158  0.0692  0.0531  0.0533
  586TIP3    H1 1680   4.257   2.434   2.166  0.4911 -0.4268 -0.2520
  586TIP3    H2 1681   4.297   2.557   2.086 -0.0065 -0.1548 -0.0810
  587TIP3   OH2 1682   1.813   8.331   3.683 -0.1389 -0.1980 -0.1170
  587TIP3    H1 1683   1.853   8.347   3.768  1.7142  0.3027 -1.0573
  587TIP3    H2 1684   1.790   8.418   3.651 -1.5121 -0.4440  0.1814
  588TIP3   OH2 1685   7.499   2.234   0.755 -0.4892 -0.0128  0.8947
  588TIP3    H1 1686   7.434   2.207   0.691 -0.3256 -3.2495  2.0083
  588TIP3    H2 1687   7.448   2.262   0.831 -0.6419 -1.2605  1.2685
  589TIP3   OH2 1688   5.647   5.547   6.911  0.0480  0.2064 -0.4063
  589TIP3    H1 1689   5.724   5.603   6.911  0.6507 -0.5794  1.6979
  589TIP3    H2 1690   5.662   5.486   6.839 -0.0415  1.9216 -1.9129
  590TIP3   OH2 1691   6.249   0.574   0.824 -0.4027 -0.4642 -0.3439
  590TIP3    H1 1692   6.219   0.664   0.842 -1.7908 -0.5817 -1.9118
  590TIP3    H2 1693   6.170   0.521   0.829  0.5023 -1.7028  1.1091
  591TIP3   OH2 1694   7.186   4.563   0.268  0.0286 -0.6472  0.4511
  591TIP3    H1 1695   7.090   4.557   0.266 -0.0436 -0.2012  1.8971
  591TIP3    H2 1696   7.210   4.594   0.181 -1.1326 -0.9215  0.0205
  592TIP3   OH2 1697   0.224   4.823   6.273 -0.0655 -0.1359  0.1412
  592TIP3    H1 1698   0.162   4.877   6.224  2.1968  1.7713 -0.7321
  592TIP3    H2 1699   0.208   4.845   6.365  0.2755  1.4228 -0.1597
  593TIP3   OH2 1700   8.709   1.026   0.887  0.7557  0.1586 -0.2055
  593TIP3    H1 1701   8.645   1.087   0.925  0.9264 -0.3908  0.9953
  593TIP3    H2 1702   8.673   0.939   0.906  1.4301 -0.1413 -0.2883
  594TIP3   OH2 1703   0.615   1.717   2.243 -0.2436  0.4423 -0.0078
  594TIP3    H1 1704   0.536   1.737   2.193 -0.0105 -0.0917 -0.5992
  594TIP3    H2 1705   0.662   1.653   2.189  0.0140 -0.1329  0.9047
  595TIP3   OH2 1706   0.993   3.258   0.168 -0.0252 -0.0260 -0.6240
  595TIP3    H1 1707   1.035   3.327   0.117 -0.2714 -0.1293 -0.9685
  595TIP3    H2 1708   1.044   3.179   0.149  0.6054  0.1727  0.2148
  596TIP3   OH2 1709   6.379   4.184   0.179  0.3270  0.0512 -0.3420
  596TIP3    H1 1710   6.426   4.111   0.220  1.8896  1.1958 -0.0577
  596TIP3    H2 1711   6.403   4.180   0.087 -1.5948 -1.2971 -0.8242
  597TIP3   OH2 1712   0.552   1.831   0.765 -0.7086  0.3246  0.1891
  597TIP3    H1 1713   0.523   1.918   0.792 -0.7910  0.7130 -1.1212
  597TIP3    H2 1714   0.595   1.795   0.843 -2.0967  0.8980  1.2473
  598TIP3   OH2 1715   1.656   8.326   7.185  0.1397  0.0996  0.0915
  598TIP3    H1 1716   1.697   8.398   7.138  1.8156 -0.4439  0.7135
  598TIP3    H2 1717   1.689   8.247   7.141 -1.9249 -0.3135 -0.7998
  599TIP3   OH2 1718   7.000   2.221   0.865 -0.7350  0.6812  0.5429
  599TIP3    H1 1719   6.962   2.203   0.950  1.1327 -0.7082  1.1340
  599TIP3    H2 1720   6.926   2.220   0.804 -1.7805 -0.8309  1.8038
  600TIP3   OH2 1721   7.669   3.811   1.147 -0.2862 -0.8777 -1.0617
  600TIP3    H1 1722   7.717   3.860   1.080  0.0470 -1.7729 -1.4729
  600TIP3    H2 1723   7.591   3.865   1.164 -0.5793 -0.8483 -2.4663
  601TIP3   OH2 1724   3.379   3.315   0.292  0.7011  0.3324  0.1487
  601TIP3    H1 1725   3.386   3.346   0.202 -3.6403 -1.7932 -1.0454
  601TIP3    H2 1726   3.333   3.385   0.338 -0.5407 -0.2265 -0.2347
  602TIP3   OH2 1727   6.687   4.359   0.044 -0.0266  0.2483 -0.0316
  602TIP3    H1 1728   6.701   4.265   0.029 -1.8310 -0.1572  0.7566
  602TIP3    H2 1729   6.631   4.387  -0.028  0.7305  0.7905 -0.4155
  603TIP3   OH2 1730   8.442   3.716   1.922 -0.0236 -0.6060  0.3483
  603TIP3    H1 1731   8.364   3.669   1.893 -0.6027 -1.3409  3.0293
  603TIP3    H2 1732   8.480   3.661   1.990  1.2609  1.1091  1.0509
  604TIP3   OH2 1733   6.967   0.032   1.339 -0.3116  0.4352  0.3566
  604TIP3    H1 1734   6.985   0.126   1.348  2.8221  0.1823 -2.5259
  604TIP3    H2 1735   7.025  -0.009   1.403  0.8290  0.2635 -0.7926
  605TIP3   OH2 1736   0.539   3.349   1.026 -0.4667 -0.1780  0.6058
  605TIP3    H1 1737   0.566   3.355   1.118 -0.1414 -0.6871  0.5456
  605TIP3    H2 1738   0.445   3.332   1.030 -0.2884 -1.1602  0.8663
  606TIP3   OH2 1739   5.225   2.118   0.988 -0.0029 -0.4789 -0.0810
  606TIP3    H1 1740   5.313   2.148   0.966 -0.3143 -0.6736 -1.6442
  606TIP3    H2 1741   5.235   2.024   1.002  0.3372 -0.2348  1.4418
  607TIP3   OH2 1742   7.227   1.505   0.647 -0.0794 -0.3548 -0.4443
  607TIP3    H1 1743   7.265   1.561   0.579  0.5464 -1.1802 -0.7893
  607TIP3    H2 1744   7.283   1.519   0.723 -0.0908 -0.2949 -0.4472
  608TIP3   OH2 1745   2.796   7.623   7.136 -0.2909 -0.2397  0.0764
  608TIP3    H1 1746   2.879   7.631   7.088  0.6215 -1.1164  1.4624
  608TIP3    H2 1747   2.823   7.605   7.226 -1.9686  1.7243  1.0097
  609TIP3   OH2 1748   4.118   0.161   6.718 -0.4175  0.3993  0.1568
  609TIP3    H1 1749   4.114   0.105   6.640 -0.9256  0.7065 -0.0420
  609TIP3    H2 1750   4.180   0.230   6.695  1.5822 -1.0712  1.0602
  610TIP3   OH2 1751   8.868   2.240   2.375  0.1261  0.2821 -0.7515
  610TIP3    H1 1752   8.797   2.182   2.405 -0.1121  0.7194 -0.4712
  610TIP3    H2 1753   8.838   2.272   2.290 -1.3603  2.7710  0.6552
  611TIP3   OH2 1754   6.760   1.587   2.608 -0.7714  0.3696 -0.2406
  611TIP3    H1 1755   6.808   1.629   2.680  0.1013 -2.6415  0.9997
  611TIP3    H2 1756   6.750   1.496   2.636 -0.2305 -0.9429 -4.0597
  612TIP3   OH2 1757   8.774   0.472   1.437 -0.3992  0.0616 -0.5328
  612TIP3    H1 1758   8.709   0.528   1.479 -1.1863 -2.1088  1.2449
  612TIP3    H2 1759   8.734   0.385   1.434  2.1539 -1.2150  0.0871
  613TIP3   OH2 1760   8.331   3.028   1.141  0.2103  0.0352 -0.0189
  613TIP3    H1 1761   8.404   3.084   1.167 -0.2849  1.0558 -0.7725
  613TIP3    H2 1762   8.319   3.046   1.048 -2.7176  1.9273  0.6639
  614TIP3   OH2 1763   7.930   3.226   0.195 -0.1387 -0.2102 -0.0726
  614TIP3    H1 1764   8.008   3.172   0.209 -0.3381 -0.3274  0.5846
  614TIP3    H2 1765   7.887   3.188   0.119  0.6951  0.1394 -0.7308
  615TIP3   OH2 1766   6.756   0.943   0.133 -0.2147 -0.5772  0.1547
  615TIP3    H1 1767   6.826   0.880   0.149 -0.5056 -0.8730  0.2711
  615TIP3    H2 1768   6.750   0.994   0.213 -0.1958 -0.6139  0.1791
  616TIP3   OH2 1769   5.760   3.661   2.231  0.0709  0.2965 -0.3908
  616TIP3    H1 1770   5.838   3.692   2.276 -0.7085  1.1725  0.3951
  616TIP3    H2 1771   5.694   3.655   2.300 -1.3077  2.2407 -1.4773
  617TIP3   OH2 1772   5.368   1.109   0.856  0.0971  0.4995  0.5314
  617TIP3    H1 1773   5.462   1.093   0.841 -0.0962 -1.6594  1.4145
  617TIP3    H2 1774   5.364   1.144   0.945 -0.0933 -1.5300  1.3541
  618TIP3   OH2 1775   7.145   3.262   0.505  0.4490 -0.2143 -0.8665
  618TIP3    H1 1776   7.190   3.334   0.548 -0.1678 -0.2053 -0.2375
  618TIP3    H2 1777   7.132   3.292   0.415  1.1857  0.0089 -0.8968
  619TIP3   OH2 1778   8.146   2.273   2.283 -1.1371 -0.0205 -0.4140
  619TIP3    H1 1779   8.142   2.181   2.310 -0.2471  0.0367 -0.1014
  619TIP3    H2 1780   8.130   2.323   2.363 -1.1451  0.1070 -0.4953
  620TIP3   OH2 1781   6.912   1.417   0.832 -0.8997 -0.1162  0.7809
  620TIP3    H1 1782   6.880   1.446   0.918 -1.0565  1.1041  0.3174
  620TIP3    H2 1783   6.845   1.447   0.771 -0.3430 -0.2064  0.1295
  621TIP3   OH2 1784   6.245   4.033   0.680 -0.5374  0.0390 -0.7129
  621TIP3    H1 1785   6.337   4.055   0.665 -0.0005 -1.3813  0.3887
  621TIP3    H2 1786   6.213   4.103   0.737 -0.1829  0.6333 -1.2426
  622TIP3   OH2 1787   5.704   2.965   1.037 -0.2548  0.9784  0.0181
  622TIP3    H1 1788   5.725   2.879   0.999  1.4615  1.2706  0.2797
  622TIP3    H2 1789   5.755   2.968   1.118 -0.3354  2.2336  0.0265
  623TIP3   OH2 1790   7.902   2.784   3.220 -0.7575 -0.1214 -0.0666
  623TIP3    H1 1791   7.917   2.809   3.129 -1.5139 -0.2108 -0.2135
  623TIP3    H2 1792   7.913   2.689   3.221  0.2553 -0.0119  0.1351
  624TIP3   OH2 1793   3.776   6.408   6.760  0.0020 -0.0666  0.1589
  624TIP3    H1 1794   3.737   6.350   6.695 -0.4615  1.1553 -0.6661
  624TIP3    H2 1795   3.726   6.390   6.840 -0.4976 -0.4099 -0.2272
  625TIP3   OH2 1796   7.065   1.291   0.625  0.1144 -0.1180 -0.3598
  625TIP3    H1 1797   7.133   1.358   0.616  1.4260 -1.6243 -1.8167
  625TIP3    H2 1798   7.018   1.316   0.706  1.7909  1.4453  0.1684
  626TIP3   OH2 1799   5.167   1.394   0.937  0.1543  0.0014  0.7863
  626TIP3    H1 1800   5.093   1.340   0.966  0.6496 -1.0745  0.1148
  626TIP3    H2 1801   5.202   1.433   1.017  0.6356 -1.7911  1.4817
  627TIP3   OH2 1802   2.559   6.933   7.273  0.2473  0.2849  0.3684
  627TIP3    H1 1803   2.505   6.863   7.235  0.5878  0.2454 -0.0372
  627TIP3    H2 1804   2.619   6.958   7.204  1.4858 -0.4136  1.1772
  628TIP3   OH2 1805   7.637   2.001   0.497  0.5734  0.6019  0.3059
  628TIP3    H1 1806   7.655   2.093   0.475  0.6782  0.4865 -0.1035
  628TIP3    H2 1807   7.630   1.958   0.412 -0.2216  0.3680  0.4855
  629TIP3   OH2 1808   7.763   2.801   0.660  0.0153  0.4138 -0.3730
  629TIP3    H1 1809   7.788   2.893   0.657 -2.0872  1.1041  1.5120
  629TIP3    H2 1810   7.846   2.754   0.664  1.1209  2.1830 -1.8575
  630TIP3   OH2 1811   4.674   1.125   0.518  0.1687  0.4879  0.4298
  630TIP3    H1 1812   4.601   1.112   0.458  1.1480  1.4226 -0.9983
  630TIP3    H2 1813   4.729   1.048   0.507  0.0140  0.3521  0.6115
  631TIP3   OH2 1814   4.446   4.315   0.637 -0.5749 -0.3477 -0.4049
  631TIP3    H1 1815   4.451   4.392   0.693 -2.0226 -0.9840  0.6484
  631TIP3    H2 1816   4.536   4.299   0.609 -0.1827  1.3643 -0.1477
  632TIP3   OH2 1817   5.260   5.917   0.152 -0.1839  0.3481  0.1405
  632TIP3    H1 1818   5.302   5.837   0.183  0.8487  0.4195 -1.0542
  632TIP3    H2 1819   5.167   5.896   0.149  0.2490 -1.3583 -1.8452
  633TIP3   OH2 1820   4.087   2.400   0.229 -0.2406 -0.7947 -0.2438
  633TIP3    H1 1821   4.062   2.396   0.137 -1.0331 -0.5212 -0.0401
  633TIP3    H2 1822   4.168   2.451   0.230  1.1707 -2.9685 -1.0689
  634TIP3   OH2 1823   6.095   2.791   1.225  0.1151 -0.4916  0.5035
  634TIP3    H1 1824   6.182   2.771   1.188 -0.3269  1.7171 -1.9478
  634TIP3    H2 1825   6.040   2.719   1.196  0.3536 -0.0649 -1.0898
  635TIP3   OH2 1826   7.789   1.591   0.918  0.4250 -0.4052 -0.6065
  635TIP3    H1 1827   7.803   1.666   0.976 -0.8605 -1.1906  0.7463
  635TIP3    H2 1828   7.719   1.620   0.859 -0.5592 -0.7848  0.3672
  636TIP3   OH2 1829   6.474   3.805   1.078 -0.2917  0.1539  0.0649
  636TIP3    H1 1830   6.512   3.821   1.165  0.2345 -1.0254  0.0579
  636TIP3    H2 1831   6.537   3.843   1.017 -0.0213 -0.1624  0.1425
  637TIP3   OH2 1832   7.082   3.664   0.413 -0.3273 -0.0690 -0.5827
  637TIP3    H1 1833   7.175   3.659   0.434  0.3871  1.8999 -3.0474
  637TIP3    H2 1834   7.040   3.605   0.476  2.6697 -1.7578 -0.0559
  638TIP3   OH2 1835   7.613   3.857   0.711  0.2375 -0.5019 -0.5043
  638TIP3    H1 1836   7.654   3.896   0.634  1.3408  1.6231  1.1267
  638TIP3    H2 1837   7.519   3.860   0.692  0.5089 -0.5558 -1.9854
  639TIP3   OH2 1838   8.433   3.178   0.527 -0.1406  0.6324 -0.1011
  639TIP3    H1 1839   8.503   3.171   0.592  0.2011  1.3517 -0.3885
  639TIP3    H2 1840   8.444   3.265   0.489 -0.8471  0.5314 -0.5416
  640TIP3   OH2 1841   6.178   4.708   0.414 -0.2080  0.0900 -0.1021
  640TIP3    H1 1842   6.086   4.734   0.412  0.0397  0.9221 -1.7712
  640TIP3    H2 1843   6.226   4.788   0.394  0.8646 -0.4039  0.4680
  641TIP3   OH2 1844   7.724   2.562   1.246  0.0111  0.5190  0.4905
  641TIP3    H1 1845   7.684   2.496   1.303 -0.1101  0.0939 -0.0841
  641TIP3    H2 1846   7.818   2.552   1.260  0.0062 -0.0006  0.1500
  642TIP3   OH2 1847   1.469   4.548   4.774  0.5329 -0.3964 -0.1806
  642TIP3    H1 1848   1.562   4.550   4.795  0.1908  0.3198  1.3808
  642TIP3    H2 1849   1.453   4.631   4.729  0.6244 -0.4839 -0.3769
  643TIP3   OH2 1850   6.119   5.378   0.485 -0.2671 -0.7490  0.7127
  643TIP3    H1 1851   6.111   5.473   0.482  0.6136 -0.6782  0.4600
  643TIP3    H2 1852   6.137   5.358   0.578 -0.0855 -0.6360  0.7023
  644TIP3   OH2 1853   4.896   2.634   0.238 -0.4987 -0.1688  0.2738
  644TIP3    H1 1854   4.849   2.715   0.258  1.9387  1.3961 -0.2033
  644TIP3    H2 1855   4.971   2.635   0.298 -1.6095 -3.1998  1.8337
  645TIP3   OH2 1856   0.285   5.537   7.179  0.2390  0.0640 -0.0323
  645TIP3    H1 1857   0.204   5.583   7.201  0.0143 -0.1240 -0.4704
  645TIP3    H2 1858   0.301   5.559   7.087  0.9579  0.5142  0.1982
  646TIP3   OH2 1859   1.065   7.130   7.218 -0.3742  0.4150 -0.1803
  646TIP3    H1 1860   0.982   7.168   7.247 -0.4912  0.0818 -0.0660
  646TIP3    H2 1861   1.064   7.041   7.255 -0.1301  0.2866 -0.4812
  647TIP3   OH2 1862   0.317   3.993   0.388 -0.3864  0.2767 -0.9689
  647TIP3    H1 1863   0.343   4.035   0.470  0.0103  0.5544 -1.2373
  647TIP3    H2 1864   0.291   4.066   0.331  0.5831  0.1799 -1.5357
  648TIP3   OH2 1865   1.667   4.667   2.980 -0.2270  0.0812  0.4918
  648TIP3    H1 1866   1.613   4.595   3.015 -0.1394 -0.7730 -1.0920
  648TIP3    H2 1867   1.722   4.693   3.054 -0.3872 -1.3806  1.1499
  649TIP3   OH2 1868   8.390   2.488   1.471 -0.2917  0.2555 -0.1625
  649TIP3    H1 1869   8.372   2.517   1.560  0.8278 -0.9175  0.4629
  649TIP3    H2 1870   8.362   2.397   1.470 -0.2566  0.2534 -0.9968
  650TIP3   OH2 1871   1.642   3.377   1.789  0.1800 -0.4516 -0.3014
  650TIP3    H1 1872   1.616   3.469   1.781  3.4670  0.3791 -2.3103
  650TIP3    H2 1873   1.585   3.331   1.728 -0.6115  0.4420 -0.2449
  651TIP3   OH2 1874   0.710   5.387   1.554  0.2139 -0.3546  0.7628
  651TIP3    H1 1875   0.721   5.420   1.643 -1.9444 -0.1760  0.9750
  651TIP3    H2 1876   0.692   5.465   1.501 -1.4284 -0.7798  0.6782
  652TIP3   OH2 1877   7.932   4.592   1.611  0.1867  0.0102  0.0248
  652TIP3    H1 1878   7.982   4.556   1.684  0.4323 -0.2518 -0.2695
  652TIP3    H2 1879   7.909   4.516   1.558 -1.8860 -0.0631  0.9766
  653TIP3   OH2 1880   1.055   3.312   1.820  0.6583  0.0096 -0.5216
  653TIP3    H1 1881   1.048   3.269   1.734 -0.6828  0.2946 -0.5678
  653TIP3    H2 1882   1.050   3.239   1.882 -1.1271  0.0129 -0.6167
  654TIP3   OH2 1883   7.149   4.202   2.842 -0.2897 -0.1980  0.1783
  654TIP3    H1 1884   7.129   4.295   2.852 -1.2495 -0.4883  1.0714
  654TIP3    H2 1885   7.141   4.186   2.748  1.3480  0.9308 -0.1850
  655TIP3   OH2 1886   0.200   2.223   2.200  0.2256 -0.0508  0.0099
  655TIP3    H1 1887   0.292   2.203   2.183  0.2768 -0.9421  1.2698
  655TIP3    H2 1888   0.197   2.318   2.209  0.7636  0.1255 -1.4876
  656TIP3   OH2 1889   0.002   3.701   3.257  0.0904 -0.0473  0.0706
  656TIP3    H1 1890  -0.059   3.642   3.301 -0.0157 -0.3869 -0.5163
  656TIP3    H2 1891   0.088   3.661   3.269  0.3007  0.7879  1.4857
  657TIP3   OH2 1892   2.732   2.962   1.762  0.5658  0.5779 -1.0026
  657TIP3    H1 1893   2.765   2.935   1.677 -1.4581  1.3039 -2.0581
  657TIP3    H2 1894   2.673   2.892   1.789 -0.8177  1.5428 -1.4382
  658TIP3   OH2 1895   0.761   2.068   2.089  0.5317  0.9227  0.0198
  658TIP3    H1 1896   0.796   2.049   2.176 -0.3414  0.7151  0.3290
  658TIP3    H2 1897   0.775   1.987   2.039 -2.0113 -0.1553  0.9568
  659TIP3   OH2 1898   0.009   1.966   2.768 -0.0981 -0.4313 -0.0142
  659TIP3    H1 1899   0.076   2.013   2.819  0.2471 -0.9111 -0.0259
  659TIP3    H2 1900   0.053   1.943   2.686 -0.4814 -0.1697 -0.2947
  660TIP3   OH2 1901   6.956   3.240   2.168  0.4019  0.5400  0.6667
  660TIP3    H1 1902   7.023   3.279   2.225  0.6863  0.4236  0.4109
  660TIP3    H2 1903   6.892   3.310   2.156  1.4393  1.2770 -0.6593
  661TIP3   OH2 1904   1.349   1.884   3.168 -0.4048 -0.2654  0.5195
  661TIP3    H1 1905   1.343   1.800   3.122  2.6825  0.2173 -0.9662
  661TIP3    H2 1906   1.304   1.946   3.111  1.6954 -0.0424 -0.9739
  662TIP3   OH2 1907   0.480   3.384   0.210  0.8194  0.3378  0.4622
  662TIP3    H1 1908   0.468   3.442   0.135  0.3516 -1.5280 -0.9505
  662TIP3    H2 1909   0.564   3.341   0.193  0.7169 -0.0819  1.0000
  663TIP3   OH2 1910   0.595   3.917   0.390  0.5622  0.5188  0.2527
  663TIP3    H1 1911   0.642   3.833   0.387  1.0660  0.7005  2.2654
  663TIP3    H2 1912   0.521   3.900   0.449 -0.1462  1.1038 -0.4636
  664TIP3   OH2 1913   1.548   3.939   1.183  0.3579  0.0532  0.7831
  664TIP3    H1 1914   1.467   3.889   1.171 -0.1909  0.3558  2.9406
  664TIP3    H2 1915   1.571   3.970   1.096 -0.8403 -1.6000 -0.1374
  665TIP3   OH2 1916   1.711   0.926   1.163 -0.6239  0.3409 -0.5472
  665TIP3    H1 1917   1.779   0.983   1.126  0.1356  0.4574  0.9608
  665TIP3    H2 1918   1.675   0.976   1.236  1.4834 -1.8463  2.1423
  666TIP3   OH2 1919   1.871   0.937   3.576 -0.1009  0.3785 -0.7810
  666TIP3    H1 1920   1.794   0.979   3.612 -1.4080  0.3887 -3.4312
  666TIP3    H2 1921   1.847   0.844   3.570  1.5511 -0.2639  1.9877
  667TIP3   OH2 1922   8.757   5.432   1.572  0.1680 -0.6389  0.0858
  667TIP3    H1 1923   8.697   5.505   1.557  0.9866  0.1716  0.6930
  667TIP3    H2 1924   8.709   5.371   1.627 -0.4802 -0.5010 -0.3299
  668TIP3   OH2 1925   8.817   4.587   0.205 -0.2589  0.2899 -0.5281
  668TIP3    H1 1926   8.771   4.519   0.255 -0.6667 -0.0868 -1.4145
  668TIP3    H2 1927   8.908   4.559   0.206 -0.5775 -0.8287 -1.7784
  669TIP3   OH2 1928   7.450   4.111   1.613  0.1792  0.2539 -0.0571
  669TIP3    H1 1929   7.475   4.045   1.549 -1.6662 -0.5608  0.0251
  669TIP3    H2 1930   7.362   4.085   1.640  0.8996  0.6271  2.7521
  670TIP3   OH2 1931   1.435   4.203   1.632  0.3030  0.3867  0.1574
  670TIP3    H1 1932   1.351   4.247   1.620 -0.4094 -0.9021  0.3819
  670TIP3    H2 1933   1.485   4.263   1.687  0.5976  2.4980 -2.2969
  671TIP3   OH2 1934   2.468   1.356   1.706  0.3815 -0.0862 -0.4357
  671TIP3    H1 1935   2.525   1.334   1.632 -0.1121 -0.8554 -0.5994
  671TIP3    H2 1936   2.528   1.374   1.778  0.8900  1.5323 -1.2484
  672TIP3   OH2 1937   0.201   2.263   2.535  0.0388  0.3968  0.2348
  672TIP3    H1 1938   0.187   2.356   2.549 -0.3249  0.4762 -0.6193
  672TIP3    H2 1939   0.144   2.241   2.462  0.2792 -0.4517  0.2978
  673TIP3   OH2 1940   2.798   3.576   2.440 -0.2941 -0.4244 -0.7164
  673TIP3    H1 1941   2.756   3.490   2.433  0.1037 -0.8337  1.3739
  673TIP3    H2 1942   2.741   3.635   2.391 -1.2210 -1.6756 -1.1733
  674TIP3   OH2 1943   1.898   4.511   2.106  0.3805 -0.2854 -0.1944
  674TIP3    H1 1944   1.926   4.444   2.045  1.0039  2.4124 -3.0039
  674TIP3    H2 1945   1.803   4.512   2.100  0.4030 -0.5276 -0.5691
  675TIP3   OH2 1946   2.921   4.686   1.399  0.1836  0.5227  0.5204
  675TIP3    H1 1947   2.944   4.671   1.491 -1.9783  0.5308  1.0958
  675TIP3    H2 1948   2.889   4.776   1.397 -0.9823  0.1011  0.0126
  676TIP3   OH2 1949   0.350   2.711   1.752  0.2329  0.2169  0.1373
  676TIP3    H1 1950   0.367   2.702   1.658 -0.5069  0.4773 -0.0259
  676TIP3    H2 1951   0.403   2.643   1.793  0.2238 -0.1803 -0.5070
  677TIP3   OH2 1952   2.566   3.403   3.679  0.2694  0.3652 -0.0783
  677TIP3    H1 1953   2.604   3.437   3.599  0.7130 -0.3587 -0.1790
  677TIP3    H2 1954   2.504   3.336   3.650 -0.1491  0.6574  0.1435
  678TIP3   OH2 1955   3.653   2.181   2.510 -0.0643 -0.2629 -0.2236
  678TIP3    H1 1956   3.689   2.237   2.441 -0.5835  0.0323 -0.2533
  678TIP3    H2 1957   3.599   2.240   2.563 -0.6653 -0.7493 -0.2935
  679TIP3   OH2 1958   4.767   2.176   1.444 -0.2063  0.2285 -0.3256
  679TIP3    H1 1959   4.722   2.253   1.478 -2.4309 -0.6599 -1.1277
  679TIP3    H2 1960   4.724   2.158   1.360 -0.8415 -2.8178  0.5947
  680TIP3   OH2 1961   0.573   4.000   1.485  0.5950  0.0140  0.1573
  680TIP3    H1 1962   0.571   4.072   1.422  1.8400  0.6235  0.8239
  680TIP3    H2 1963   0.527   4.033   1.562  0.9243 -0.0057  0.3615
  681TIP3   OH2 1964   2.294   5.245   0.515  0.0773  0.2029  0.4283
  681TIP3    H1 1965   2.295   5.207   0.427 -2.2562  1.4621 -0.2041
  681TIP3    H2 1966   2.386   5.258   0.537  0.6774  0.8999 -2.3016
  682TIP3   OH2 1967   1.261   3.132   3.154  0.9149 -0.0713 -0.2493
  682TIP3    H1 1968   1.288   3.063   3.214 -1.6116  0.6698  1.8588
  682TIP3    H2 1969   1.323   3.204   3.171 -1.3969  1.1631  3.6226
  683TIP3   OH2 1970   0.130   3.233   0.201 -0.0462  0.2240  0.7758
  683TIP3    H1 1971   0.084   3.160   0.160  1.0640  0.3768 -0.7869
  683TIP3    H2 1972   0.164   3.197   0.283 -1.4102 -0.3729  1.0993
  684TIP3   OH2 1973   3.690   3.001   2.265 -0.3415  0.5015 -0.5253
  684TIP3    H1 1974   3.736   2.966   2.189 -2.8827  0.5838 -2.1888
  684TIP3    H2 1975   3.681   3.095   2.247 -3.5584  0.0583 -1.6618
  685TIP3   OH2 1976   1.972   2.704   2.828 -0.3945 -0.0750 -0.4699
  685TIP3    H1 1977   1.943   2.764   2.759  0.3045 -0.1602 -0.8435
  685TIP3    H2 1978   1.975   2.618   2.786  0.4926 -0.0534 -0.4787
  686TIP3   OH2 1979   0.739   5.273   0.795 -0.7420  0.5750  0.7211
  686TIP3    H1 1980   0.774   5.303   0.711  0.7941 -0.0186  1.1401
  686TIP3    H2 1981   0.682   5.344   0.824 -0.3022  1.3255 -0.2240
  687TIP3   OH2 1982   3.803   6.480   5.823  0.0904  0.2788 -0.0757
  687TIP3    H1 1983   3.772   6.512   5.908 -2.3285 -0.2956 -0.7047
  687TIP3    H2 1984   3.888   6.441   5.842 -0.3381  0.3012  2.0626
  688TIP3   OH2 1985   2.134   3.653   1.474 -0.4379 -0.2399 -0.0883
  688TIP3    H1 1986   2.209   3.662   1.533  0.0802 -1.6857 -0.5015
  688TIP3    H2 1987   2.093   3.570   1.500 -0.6709 -0.4931 -1.2249
  689TIP3   OH2 1988   1.419   1.905   0.942 -0.3527  0.5001 -0.0916
  689TIP3    H1 1989   1.500   1.857   0.927 -0.6602  0.8242 -3.3220
  689TIP3    H2 1990   1.434   1.991   0.902 -1.5921  1.2605  1.0332
  690TIP3   OH2 1991   0.800   1.926   1.190 -0.5054 -0.1528  0.2068
  690TIP3    H1 1992   0.786   1.872   1.112 -0.1780 -1.7509  1.2242
  690TIP3    H2 1993   0.879   1.889   1.231 -0.0174  1.3750  0.7093
  691TIP3   OH2 1994   2.014   4.531   2.982 -0.3983  0.3408 -0.1976
  691TIP3    H1 1995   1.975   4.607   3.025 -0.9609  1.1532 -2.0804
  691TIP3    H2 1996   2.094   4.565   2.942 -0.0953 -0.3119 -0.1492
  692TIP3   OH2 1997   8.689   3.845   4.705  0.0755 -0.7073  0.0983
  692TIP3    H1 1998   8.727   3.762   4.733 -0.7544 -0.1907  2.8870
  692TIP3    H2 1999   8.605   3.822   4.667 -0.1151 -1.1716  0.7896
  693TIP3   OH2 2000   0.095   2.541   1.466 -0.3832 -0.5198  0.4789
  693TIP3    H1 2001   0.040   2.491   1.525 -1.9114  1.0152  0.3942
  693TIP3    H2 2002   0.163   2.578   1.522 -1.6669  0.7008  1.2511
  694TIP3   OH2 2003   1.786   2.452   0.886 -0.0888  0.0201 -1.2314
  694TIP3    H1 2004   1.862   2.415   0.840  0.9760  1.0103 -0.2863
  694TIP3    H2 2005   1.767   2.533   0.839  1.6782  1.5942  0.6783
  695TIP3   OH2 2006   0.568   3.631   3.100 -0.2942 -0.3062  0.3773
  695TIP3    H1 2007   0.583   3.679   3.018 -0.5494  0.6243  0.8700
  695TIP3    H2 2008   0.652   3.631   3.144 -0.3252 -0.1974  0.4366
  696TIP3   OH2 2009   0.096   1.808   1.123  0.1359  0.6984 -0.6147
  696TIP3    H1 2010   0.006   1.811   1.155 -0.0033  0.3638 -0.9787
  696TIP3    H2 2011   0.104   1.722   1.082  1.1338  0.0307  0.9221
  697TIP3   OH2 2012   1.462   3.790   0.735  0.2866 -1.0375  0.4154
  697TIP3    H1 2013   1.479   3.742   0.654  1.4568  1.6748 -0.9976
  697TIP3    H2 2014   1.376   3.759   0.763 -0.6003 -1.3122 -2.4327
  698TIP3   OH2 2015   2.843   3.457   1.188 -0.0423  0.3345  0.6858
  698TIP3    H1 2016   2.929   3.420   1.167 -0.0255 -0.1353  1.5724
  698TIP3    H2 2017   2.815   3.498   1.106  1.5083  1.4330  0.6661
  699TIP3   OH2 2018   2.263   3.181   0.631 -0.0872 -0.6934  0.7619
  699TIP3    H1 2019   2.277   3.248   0.699  3.6573 -1.1038  0.4602
  699TIP3    H2 2020   2.188   3.214   0.581 -1.2374  0.9381  3.4370
  700TIP3   OH2 2021   0.729   1.566   0.743  0.2424  0.8154 -0.1501
  700TIP3    H1 2022   0.668   1.532   0.809 -0.3666 -2.5856 -2.2906
  700TIP3    H2 2023   0.672   1.595   0.672  0.9781  2.4157 -0.0951
  701TIP3   OH2 2024   8.130   2.494   2.100  0.8125  0.7813  0.3139
  701TIP3    H1 2025   8.141   2.423   2.162  2.1676  1.2111  0.5810
  701TIP3    H2 2026   8.103   2.451   2.019 -1.6953  0.2851  1.3725
  702TIP3   OH2 2027   2.999   2.214   0.863  0.1682  0.2850  0.1451
  702TIP3    H1 2028   3.068   2.250   0.919  1.7386  0.7856 -2.0670
  702TIP3    H2 2029   2.990   2.123   0.891  0.6337  0.6316  1.4633
  703TIP3   OH2 2030   3.515   3.472   2.810  0.2856 -0.4300  0.9035
  703TIP3    H1 2031   3.555   3.432   2.733  0.6009 -1.7268  1.7240
  703TIP3    H2 2032   3.480   3.398   2.860 -2.5166  0.5925  0.5727
  704TIP3   OH2 2033   1.993   4.703   1.473 -0.1625 -0.2856 -0.6528
  704TIP3    H1 2034   1.970   4.776   1.416  1.5734  0.0276 -0.9930
  704TIP3    H2 2035   1.979   4.736   1.562  1.8329  0.9399 -0.7568
  705TIP3   OH2 2036   0.941   4.965   1.694 -0.1883  0.0826 -0.4951
  705TIP3    H1 2037   0.950   5.047   1.645  1.0625 -0.8677 -1.9202
  705TIP3    H2 2038   0.916   4.900   1.628 -0.8672 -0.7484  0.5668
  706TIP3   OH2 2039   7.861   2.348   6.305 -0.7069  0.6206 -0.0469
  706TIP3    H1 2040   7.898   2.431   6.276 -2.0752  1.3280  0.1921
  706TIP3    H2 2041   7.788   2.373   6.361 -0.4669 -0.7445  0.8922
  707TIP3   OH2 2042   1.850   0.896   2.335  0.2259 -0.3360 -0.0379
  707TIP3    H1 2043   1.799   0.823   2.369 -2.0307 -0.0707 -2.7378
  707TIP3    H2 2044   1.936   0.858   2.315 -1.0402 -2.3467 -1.7609
  708TIP3   OH2 2045   1.863   4.044   0.985 -0.6891  0.0947 -0.0016
  708TIP3    H1 2046   1.856   3.952   0.959  1.1065 -0.2044  0.4828
  708TIP3    H2 2047   1.781   4.083   0.957 -1.3002 -1.5635 -0.6071
  709TIP3   OH2 2048   1.672   1.954   1.153  0.4185  0.0102 -0.0719
  709TIP3    H1 2049   1.624   2.033   1.126  0.6726  0.1193 -0.1983
  709TIP3    H2 2050   1.672   1.958   1.249 -0.2719 -0.2537 -0.0512
  710TIP3   OH2 2051   1.920   1.622   0.670 -0.3455 -0.1541  0.0352
  710TIP3    H1 2052   1.912   1.543   0.616  0.1681 -0.1100 -0.1058
  710TIP3    H2 2053   1.915   1.694   0.607  0.0078 -0.0950  0.0766
  711TIP3   OH2 2054   2.702   1.711   2.506  0.1212  0.0187  0.3637
  711TIP3    H1 2055   2.645   1.658   2.561  1.8104 -1.4950  0.7024
  711TIP3    H2 2056   2.714   1.793   2.555 -0.4390 -0.2877  1.0257
  712TIP3   OH2 2057   1.107   0.861   0.656 -0.1328  0.4492 -0.2245
  712TIP3    H1 2058   1.060   0.915   0.719  0.1232 -1.7739  1.9306
  712TIP3    H2 2059   1.146   0.924   0.595 -0.5173  2.6455  1.7385
  713TIP3   OH2 2060   5.022   3.393   0.781 -0.1719 -0.2146 -0.6941
  713TIP3    H1 2061   5.051   3.482   0.760 -1.4876  0.3847 -0.0295
  713TIP3    H2 2062   5.024   3.388   0.876  0.4248 -1.0832 -0.7458
  714TIP3   OH2 2063   2.264   5.527   0.626 -0.2726  0.3017 -0.4100
  714TIP3    H1 2064   2.285   5.445   0.582 -0.1551 -0.5550  1.1913
  714TIP3    H2 2065   2.329   5.590   0.594 -1.0716  0.1087 -2.5349
  715TIP3   OH2 2066   1.595   2.617   0.474  0.4930  0.2269 -0.0848
  715TIP3    H1 2067   1.689   2.634   0.480  0.2354  1.3107  1.2683
  715TIP3    H2 2068   1.554   2.703   0.487 -0.7362 -0.6405  2.1941
  716TIP3   OH2 2069   1.825   0.252   1.022  0.1107 -0.0072 -0.3281
  716TIP3    H1 2070   1.821   0.316   1.093  2.6157  0.7111 -0.7847
  716TIP3    H2 2071   1.850   0.302   0.945 -0.9272 -1.0518 -1.3547
  717TIP3   OH2 2072   1.323   3.343   4.434 -0.1124 -0.0649 -0.0380
  717TIP3    H1 2073   1.305   3.364   4.342  0.3877 -0.8061 -0.3146
  717TIP3    H2 2074   1.240   3.311   4.468 -0.4518  0.7787 -0.0693
  718TIP3   OH2 2075   3.178   3.171   2.757 -0.0478  0.0971 -0.3049
  718TIP3    H1 2076   3.202   3.242   2.698 -0.0294  0.3028 -0.0475
  718TIP3    H2 2077   3.236   3.098   2.732  0.4209  0.3960 -0.0948
  719TIP3   OH2 2078   1.689   1.400   1.724  0.1734 -0.1474 -0.2855
  719TIP3    H1 2079   1.701   1.493   1.745 -0.3289 -0.1814  0.1643
  719TIP3    H2 2080   1.685   1.357   1.810 -0.0342 -0.5280 -0.4862
  720TIP3   OH2 2081   0.040   4.067   3.153  0.5623 -0.8144 -0.1885
  720TIP3    H1 2082   0.108   4.023   3.204 -0.6481 -0.5044  1.7371
  720TIP3    H2 2083   0.042   4.158   3.184  1.5353  0.0094 -2.5409
  721TIP3   OH2 2084   2.792   3.931   1.718  0.1778 -0.7054 -0.3020
  721TIP3    H1 2085   2.807   4.008   1.773  0.8471 -0.5727 -0.6734
  721TIP3    H2 2086   2.762   3.864   1.780  0.1517 -0.3226  0.1082
  722TIP3   OH2 2087   8.175   0.913   1.387  0.3660 -0.0197  0.0879
  722TIP3    H1 2088   8.269   0.897   1.375  0.3863 -0.2291  0.5189
  722TIP3    H2 2089   8.166   0.935   1.480 -0.0691 -0.4550  0.1527
  723TIP3   OH2 2090   0.505   3.535   1.675  0.2824  0.2040  0.2167
  723TIP3    H1 2091   0.512   3.513   1.768  1.3348  0.4996  0.2125
  723TIP3    H2 2092   0.591   3.571   1.652  0.8938 -2.1640 -1.4639
  724TIP3   OH2 2093   0.522   5.274   0.529  0.1627 -0.5132  0.1376
  724TIP3    H1 2094   0.465   5.205   0.495  1.5204 -1.6029  0.0405
  724TIP3    H2 2095   0.603   5.266   0.479  0.5115  0.8346  0.4655
  725TIP3   OH2 2096   1.443   2.569   3.380 -0.1659  0.3663  0.5165
  725TIP3    H1 2097   1.398   2.649   3.354 -1.3072  0.1106  1.6358
  725TIP3    H2 2098   1.425   2.507   3.309 -1.9651  0.1428  1.1322
  726TIP3   OH2 2099   3.185   2.682   0.099 -0.3797 -0.1279 -0.0963
  726TIP3    H1 2100   3.245   2.654   0.167 -0.1242 -1.3113 -0.7868
  726TIP3    H2 2101   3.100   2.690   0.142  0.1274  0.9188  0.7366
  727TIP3   OH2 2102   0.131   3.346   3.485  0.2026 -0.5094 -0.1587
  727TIP3    H1 2103   0.193   3.401   3.533 -1.9930  1.8647  0.0718
  727TIP3    H2 2104   0.184   3.305   3.417  2.2402  0.5861  0.6972
  728TIP3   OH2 2105   4.315   4.126   1.590  0.0267 -0.3813  0.1664
  728TIP3    H1 2106   4.300   4.033   1.604 -1.2945 -0.1147  0.5667
  728TIP3    H2 2107   4.297   4.138   1.496  1.3306 -0.7341 -0.1389
  729TIP3   OH2 2108   0.956   3.450   1.145  0.7484  0.3132 -0.5596
  729TIP3    H1 2109   0.981   3.398   1.222  0.3987 -1.4268 -1.5822
  729TIP3    H2 2110   0.932   3.536   1.180 -1.0830 -0.9721  1.4875
  730TIP3   OH2 2111   1.010   2.819   2.703  0.1835 -0.1270  0.0762
  730TIP3    H1 2112   0.975   2.766   2.775 -0.6954 -0.8060 -0.8503
  730TIP3    H2 2113   1.032   2.756   2.635  1.6653  0.4469 -0.0122
  731TIP3   OH2 2114   2.838   2.306   2.422 -0.3141 -0.0059  0.3676
  731TIP3    H1 2115   2.759   2.340   2.463  0.4171  0.9542  0.9832
  731TIP3    H2 2116   2.896   2.283   2.495 -0.7913 -2.6096 -0.0189
  732TIP3   OH2 2117   5.499   8.100   5.821  0.0747 -0.4468  0.5582
  732TIP3    H1 2118   5.581   8.138   5.792 -0.1783  0.2265  0.7094
  732TIP3    H2 2119   5.463   8.164   5.883 -1.2938 -0.0078 -0.6484
  733TIP3   OH2 2120   0.110   1.743   0.249  0.3334  0.3004  0.2851
  733TIP3    H1 2121   0.116   1.705   0.336  0.2395  0.1273  0.2158
  733TIP3    H2 2122   0.113   1.838   0.264  3.1256  0.2450  0.2710
  734TIP3   OH2 2123   4.021   1.884   1.793  0.0171 -0.0433 -0.3972
  734TIP3    H1 2124   4.110   1.912   1.770 -0.6610  2.6184  0.0552
  734TIP3    H2 2125   4.023   1.789   1.783  3.3310 -0.2036  1.0201
  735TIP3   OH2 2126   8.578   2.201   1.310  0.2200 -0.1467 -0.4964
  735TIP3    H1 2127   8.498   2.165   1.348  0.2747 -0.0311 -0.2663
  735TIP3    H2 2128   8.575   2.294   1.332  1.7706 -0.6317  1.9398
  736TIP3   OH2 2129   0.474   2.601   0.315 -0.1128 -0.1409  0.2142
  736TIP3    H1 2130   0.413   2.621   0.244 -0.2195 -2.0474 -0.2520
  736TIP3    H2 2131   0.421   2.553   0.379 -0.2345  2.2989  2.0223
  737TIP3   OH2 2132   2.094   1.884   3.180 -0.2053 -0.1931  0.2002
  737TIP3    H1 2133   2.025   1.896   3.246 -0.3278 -0.4491  0.1205
  737TIP3    H2 2134   2.157   1.825   3.222  0.8197  1.3848  0.9100
  738TIP3   OH2 2135   2.394   2.425   2.721 -0.5475 -0.2376  0.1933
  738TIP3    H1 2136   2.331   2.353   2.725 -1.6840  0.7754  0.7160
  738TIP3    H2 2137   2.479   2.383   2.737 -0.9579 -1.7486 -1.4231
  739TIP3   OH2 2138   2.317   2.895   2.053  0.0337  0.1685 -0.2698
  739TIP3    H1 2139   2.343   2.851   1.973 -0.8227  0.7587 -0.8797
  739TIP3    H2 2140   2.300   2.986   2.027  0.6692  0.5983  0.7533
  740TIP3   OH2 2141   1.121   4.081   2.152  0.3285  0.1142  0.3747
  740TIP3    H1 2142   1.136   4.089   2.058  0.1902  0.2462  0.3634
  740TIP3    H2 2143   1.127   3.987   2.170 -1.5496 -0.1126 -0.0934
  741TIP3   OH2 2144   2.214   3.680   4.296  0.0319 -0.1619 -0.1751
  741TIP3    H1 2145   2.134   3.732   4.290  0.0352 -0.0636  0.5298
  741TIP3    H2 2146   2.285   3.741   4.275 -0.1532 -0.4908 -1.7581
  742TIP3   OH2 2147   1.689   3.417   4.518  0.0333 -0.2464  0.0432
  742TIP3    H1 2148   1.763   3.455   4.565 -0.6366  0.8675  0.2194
  742TIP3    H2 2149   1.682   3.468   4.438  1.1572 -2.1338 -1.2922
  743TIP3   OH2 2150   0.501   3.897   2.091 -0.0591  0.3269  0.2434
  743TIP3    H1 2151   0.559   3.822   2.097  1.5567  1.5545  0.2913
  743TIP3    H2 2152   0.426   3.874   2.146  1.8636  0.0536  2.8206
  744TIP3   OH2 2153   0.715   3.690   2.084  1.0575 -0.3106 -0.6510
  744TIP3    H1 2154   0.766   3.733   2.152  0.5810 -0.5963 -0.1025
  744TIP3    H2 2155   0.779   3.664   2.018  1.3506  1.2120 -0.9789
  745TIP3   OH2 2156   2.593   3.425   2.945 -0.2509  0.4463 -0.3178
  745TIP3    H1 2157   2.664   3.464   2.895 -0.1100 -0.5981 -0.9344
  745TIP3    H2 2158   2.552   3.499   2.990  1.4761  0.9884  0.3726
  746TIP3   OH2 2159   1.933   3.628   2.224  0.1933 -0.3264  0.2123
  746TIP3    H1 2160   1.877   3.619   2.301 -1.9790  1.5257 -1.0759
  746TIP3    H2 2161   1.886   3.582   2.154 -0.5335  2.5171 -1.2552
  747TIP3   OH2 2162   2.457   2.280   3.084  1.0656  0.3890 -0.0018
  747TIP3    H1 2163   2.487   2.367   3.112  3.0286 -0.4495  0.6358
  747TIP3    H2 2164   2.460   2.283   2.989 -2.3175  2.1514 -0.1145
  748TIP3   OH2 2165   0.439   4.780   1.798  0.1064 -0.6784  0.2000
  748TIP3    H1 2166   0.453   4.786   1.893 -0.1889 -0.1775  0.2123
  748TIP3    H2 2167   0.503   4.841   1.761 -0.4277 -0.1520  0.1318
  749TIP3   OH2 2168   2.939   2.615   1.767 -0.5698 -0.6057  0.3381
  749TIP3    H1 2169   2.849   2.611   1.801 -0.6758  3.1276  0.7933
  749TIP3    H2 2170   2.991   2.645   1.841  0.2106  1.7944 -1.1107
  750TIP3   OH2 2171   0.172   3.523   3.936 -0.1887 -0.1544  0.4735
  750TIP3    H1 2172   0.216   3.529   4.020 -2.3443 -0.8890  1.6939
  750TIP3    H2 2173   0.162   3.429   3.921 -1.0322 -0.0090  0.0749
  751TIP3   OH2 2174   3.891   3.406   3.865 -0.3527  0.2000  0.2461
  751TIP3    H1 2175   3.799   3.409   3.891 -0.6015  0.2881 -0.6295
  751TIP3    H2 2176   3.902   3.480   3.805  0.5055  0.7172  1.0264
  752TIP3   OH2 2177   3.878   3.051   3.336  0.2740  0.7962  0.0187
  752TIP3    H1 2178   3.903   3.072   3.246  0.1185  0.6529 -0.0579
  752TIP3    H2 2179   3.799   3.103   3.353 -1.4727 -1.4314 -0.9584
  753TIP3   OH2 2180   0.676   3.145   2.048 -0.0927  0.0138  0.2608
  753TIP3    H1 2181   0.711   3.224   2.007  0.5938  0.5653  1.9066
  753TIP3    H2 2182   0.694   3.075   1.984  0.1178  1.0088 -0.7873
  754TIP3   OH2 2183   1.725   3.015   2.497  0.2519  0.1597  0.4434
  754TIP3    H1 2184   1.736   3.051   2.409  0.8389 -1.5984 -0.2364
  754TIP3    H2 2185   1.637   2.978   2.497  0.1829  0.3227  0.6662
  755TIP3   OH2 2186   2.545   2.826   1.048  0.2229  0.2928  0.4347
  755TIP3    H1 2187   2.517   2.914   1.024  0.7364  0.1569 -0.6717
  755TIP3    H2 2188   2.632   2.817   1.009 -0.1829 -1.0167 -0.1753
  756TIP3   OH2 2189   3.113   3.700   2.469 -0.2528  0.2189 -0.8020
  756TIP3    H1 2190   3.201   3.676   2.498 -0.1467 -0.0621 -1.3524
  756TIP3    H2 2191   3.057   3.680   2.544 -0.0368 -0.8857 -0.9246
  757TIP3   OH2 2192   2.213   4.216   3.595 -0.5150  0.0339 -0.2701
  757TIP3    H1 2193   2.179   4.303   3.615  0.1066  0.5724 -1.5007
  757TIP3    H2 2194   2.135   4.164   3.575 -0.9933 -0.0443  1.7143
  758TIP3   OH2 2195   0.651   3.484   3.645  0.0125  0.0423  0.5873
  758TIP3    H1 2196   0.666   3.562   3.699 -0.3032  2.2087 -2.2758
  758TIP3    H2 2197   0.738   3.446   3.634  0.5841  1.5151 -0.1241
  759TIP3   OH2 2198   2.205   2.243   2.313  0.1363  0.4637 -0.8006
  759TIP3    H1 2199   2.229   2.165   2.262 -1.8179 -0.5870 -0.1855
  759TIP3    H2 2200   2.118   2.267   2.280 -0.6757  0.4133  1.2388
  760TIP3   OH2 2201   2.306   1.140   3.748 -0.2382 -0.3976  0.0639
  760TIP3    H1 2202   2.233   1.091   3.710 -0.6870 -0.5554  1.1361
  760TIP3    H2 2203   2.311   1.111   3.838 -0.2505  1.2213  0.6125
  761TIP3   OH2 2204   2.205   4.586   1.076  0.0718  0.4230 -0.1279
  761TIP3    H1 2205   2.267   4.518   1.100  0.2161  1.3374  2.1823
  761TIP3    H2 2206   2.122   4.541   1.063  0.5816 -0.4232 -0.4696
  762TIP3   OH2 2207   3.328   1.091   2.555  0.5411  0.1361 -0.3145
  762TIP3    H1 2208   3.339   1.186   2.566 -1.0601 -0.0075  2.9015
  762TIP3    H2 2209   3.415   1.054   2.572  0.4660  0.7916  1.5317
  763TIP3   OH2 2210   1.743   6.422   1.066  0.1167  0.1945  0.6746
  763TIP3    H1 2211   1.787   6.461   1.142  0.6255  0.1457  0.4087
  763TIP3    H2 2212   1.650   6.427   1.087  0.3130 -0.9087  1.8382
  764TIP3   OH2 2213   3.105   1.910   0.331  0.4703  0.0057  0.0956
  764TIP3    H1 2214   3.156   1.975   0.281 -0.6334 -1.0718 -2.5037
  764TIP3    H2 2215   3.172   1.858   0.377  1.5813  0.4110 -1.0211
  765TIP3   OH2 2216   3.874   1.628   1.774  0.4479  0.2871 -0.0004
  765TIP3    H1 2217   3.837   1.610   1.688  0.8821  1.7178 -0.4935
  765TIP3    H2 2218   3.966   1.603   1.767  0.6067  0.9001 -0.1146
  766TIP3   OH2 2219   0.098   0.458   7.151 -0.2973 -0.4192 -0.0261
  766TIP3    H1 2220   0.004   0.452   7.133  0.0503 -1.9892 -1.3766
  766TIP3    H2 2221   0.136   0.380   7.111  1.7628  0.8710 -0.6726
  767TIP3   OH2 2222   3.028   2.291   1.420  0.0090  0.5842 -0.2811
  767TIP3    H1 2223   2.988   2.242   1.348 -1.2121  0.0439  0.7240
  767TIP3    H2 2224   2.971   2.367   1.431  0.4723  0.9194 -0.2014
  768TIP3   OH2 2225   3.473   4.017   2.039 -0.6426  0.0781  0.3407
  768TIP3    H1 2226   3.461   4.080   1.969  0.8177 -1.1132 -1.0238
  768TIP3    H2 2227   3.387   3.976   2.049 -1.1996  1.1990  0.1863
  769TIP3   OH2 2228   1.267   3.771   2.975 -0.1678 -0.5436 -0.3835
  769TIP3    H1 2229   1.341   3.819   3.012 -0.4665 -0.2619 -0.1467
  769TIP3    H2 2230   1.220   3.835   2.922 -1.1326 -0.3120  0.7388
  770TIP3   OH2 2231   3.169   5.107   1.968  0.0848 -0.4191  0.3746
  770TIP3    H1 2232   3.164   5.013   1.952  0.3840 -0.3081 -0.4144
  770TIP3    H2 2233   3.209   5.115   2.054 -2.3299 -1.0765  1.6278
  771TIP3   OH2 2234   2.535   4.075   4.732  0.2621 -0.5546  0.6421
  771TIP3    H1 2235   2.479   4.055   4.657 -0.4349  1.4845  0.6007
  771TIP3    H2 2236   2.539   3.992   4.781  0.2163 -1.7337 -1.2882
  772TIP3   OH2 2237   3.571   5.026   3.090  0.4054 -0.1932 -0.2408
  772TIP3    H1 2238   3.609   5.103   3.048 -1.3358  2.3587  2.5962
  772TIP3    H2 2239   3.476   5.039   3.083  0.0981 -1.6785  0.9041
  773TIP3   OH2 2240   8.294   3.211   1.453  0.0486 -0.0607  0.0463
  773TIP3    H1 2241   8.381   3.226   1.417  0.6673 -3.7308 -0.1740
  773TIP3    H2 2242   8.241   3.282   1.418  3.0134  2.4713  0.5097
  774TIP3   OH2 2243   4.673   2.669   3.162 -0.3123  0.3156  0.1307
  774TIP3    H1 2244   4.708   2.696   3.247  1.0804 -2.1648  0.3859
  774TIP3    H2 2245   4.742   2.692   3.099 -0.0455 -0.5871  0.0808
  775TIP3   OH2 2246   0.944   2.392   2.684 -0.1829 -0.2747  0.4985
  775TIP3    H1 2247   0.858   2.378   2.643 -0.1669  0.2488  0.2770
  775TIP3    H2 2248   0.991   2.310   2.670 -0.7590 -0.6808  0.8973
  776TIP3   OH2 2249   2.410   4.162   1.357  0.7679  0.5151 -0.4731
  776TIP3    H1 2250   2.394   4.235   1.418  0.3219  0.6424 -0.7390
  776TIP3    H2 2251   2.500   4.135   1.375  0.9027  1.0706 -0.3029
  777TIP3   OH2 2252   0.336   4.028   2.818  0.6971  0.5990 -0.0320
  777TIP3    H1 2253   0.270   4.094   2.796  1.3854  1.4666  0.4455
  777TIP3    H2 2254   0.354   3.983   2.736  0.1381  0.9475 -0.3442
  778TIP3   OH2 2255   1.452   4.254   0.831 -0.2834  0.4192  0.0466
  778TIP3    H1 2256   1.385   4.236   0.765  1.0246 -2.7145 -0.4972
  778TIP3    H2 2257   1.533   4.262   0.781  0.3857  0.1622  1.0894
  779TIP3   OH2 2258   1.621   6.998   3.022  0.1928 -0.6203  0.0879
  779TIP3    H1 2259   1.603   6.912   2.984  0.5930 -0.9275  0.5904
  779TIP3    H2 2260   1.708   7.021   2.990 -0.1206 -0.1774 -0.4516
  780TIP3   OH2 2261   0.603   4.318   0.531 -0.2722  0.0565  0.4465
  780TIP3    H1 2262   0.695   4.341   0.547  0.3307 -0.9175 -1.3460
  780TIP3    H2 2263   0.561   4.401   0.510 -0.1705  0.7329  2.8109
  781TIP3   OH2 2264   3.587   3.726   3.166  0.3815 -0.3333 -0.1690
  781TIP3    H1 2265   3.583   3.689   3.254 -2.7614 -0.8611 -0.4852
  781TIP3    H2 2266   3.604   3.650   3.109 -0.8696 -0.5055 -0.3200
  782TIP3   OH2 2267   1.183   4.339   1.125 -0.0960 -0.3565  0.5880
  782TIP3    H1 2268   1.215   4.318   1.037 -0.7704  0.0032  0.2486
  782TIP3    H2 2269   1.100   4.292   1.131 -1.3433  1.6979  0.0389
  783TIP3   OH2 2270   1.790   4.793   1.168  0.3994 -0.7044 -0.3024
  783TIP3    H1 2271   1.846   4.868   1.189  0.4097 -1.0539  0.9302
  783TIP3    H2 2272   1.701   4.822   1.188  0.5176 -1.4107  1.3227
  784TIP3   OH2 2273   1.855   5.691   0.724  0.3688  0.0458 -0.1577
  784TIP3    H1 2274   1.866   5.709   0.817  0.2848 -0.4242 -0.0560
  784TIP3    H2 2275   1.833   5.777   0.686 -1.8321 -0.1222  0.6096
  785TIP3   OH2 2276   0.621   6.585   1.679 -0.5923  0.4127  0.3402
  785TIP3    H1 2277   0.687   6.630   1.627 -0.5538  0.7476  0.6837
  785TIP3    H2 2278   0.630   6.493   1.654 -1.7989  0.7981 -1.6207
  786TIP3   OH2 2279   1.588   2.854   1.607 -0.6382 -0.2728 -0.3197
  786TIP3    H1 2280   1.642   2.887   1.536  0.5640 -0.4937  0.4884
  786TIP3    H2 2281   1.547   2.775   1.571  0.1990 -0.5514 -0.6643
  787TIP3   OH2 2282   1.995   3.883   2.095 -0.0451 -0.2696 -0.4777
  787TIP3    H1 2283   1.976   3.957   2.152  0.7936 -0.4979  0.1140
  787TIP3    H2 2284   1.987   3.806   2.152 -0.5679 -0.6109 -1.0009
  788TIP3   OH2 2285   8.595   5.132   0.456  0.6828  0.4260  0.4235
  788TIP3    H1 2286   8.650   5.076   0.510 -2.7640 -4.0494 -0.3900
  788TIP3    H2 2287   8.601   5.094   0.368 -0.8181  2.0653 -0.4244
  789TIP3   OH2 2288   0.345   3.273   3.319 -0.3226  0.1949 -0.1339
  789TIP3    H1 2289   0.391   3.200   3.277  0.6641 -0.0361  1.3013
  789TIP3    H2 2290   0.414   3.336   3.341 -0.6588 -0.1588  2.0534
  790TIP3   OH2 2291   3.719   2.974   3.109  0.6282 -0.5402 -0.0355
  790TIP3    H1 2292   3.752   2.897   3.063  1.3714  0.0116 -0.4255
  790TIP3    H2 2293   3.678   3.027   3.041  2.6697  0.7843 -0.2459
  791TIP3   OH2 2294   8.496   1.226   2.827  0.2869  0.0812  0.5107
  791TIP3    H1 2295   8.470   1.180   2.907  1.2007 -0.9495  0.2320
  791TIP3    H2 2296   8.556   1.165   2.783  3.1511  2.3644  1.1216
  792TIP3   OH2 2297   4.082   3.960   1.091 -0.0998  0.1760  0.1733
  792TIP3    H1 2298   4.114   3.870   1.079 -1.3402 -0.0398 -1.6408
  792TIP3    H2 2299   4.008   3.967   1.032 -0.1914  2.3280  0.5179
  793TIP3   OH2 2300   0.217   3.909   3.298 -0.0853  0.3092  0.5996
  793TIP3    H1 2301   0.257   3.843   3.242 -0.1195  0.9356 -0.1570
  793TIP3    H2 2302   0.194   3.861   3.378  1.5342 -0.2048  0.7679
  794TIP3   OH2 2303   5.354   7.039   6.685  0.0924  0.0459 -0.2611
  794TIP3    H1 2304   5.283   7.078   6.634  2.0869  0.8177 -2.5893
  794TIP3    H2 2305   5.402   7.114   6.720  1.2502 -0.3929 -0.8797
  795TIP3   OH2 2306   3.094   1.063   2.785 -0.2905 -0.2154  0.2073
  795TIP3    H1 2307   3.054   1.123   2.723  0.0003 -0.9891 -0.7350
  795TIP3    H2 2308   3.156   1.117   2.834 -0.1698  0.2909 -0.4938
  796TIP3   OH2 2309   2.658   0.893   2.798 -0.0444  0.0503 -0.4198
  796TIP3    H1 2310   2.599   0.916   2.870  0.9856 -2.4226  1.2830
  796TIP3    H2 2311   2.602   0.891   2.721 -1.0856  3.2283  0.1738
  797TIP3   OH2 2312   8.140   0.933   6.170  0.2969 -0.1688 -0.5365
  797TIP3    H1 2313   8.058   0.948   6.123  0.1823 -1.5154 -0.7773
  797TIP3    H2 2314   8.113   0.924   6.262  0.4012  1.3146 -0.3374
  798TIP3   OH2 2315   1.946   2.333   2.289 -0.6527  0.1300  0.5910
  798TIP3    H1 2316   1.958   2.415   2.338  0.1412  1.8676 -2.3891
  798TIP3    H2 2317   1.853   2.332   2.267 -0.2620  1.3440 -1.1975
  799TIP3   OH2 2318   3.192   3.128   3.861 -0.0651 -0.0725 -0.6105
  799TIP3    H1 2319   3.200   3.034   3.875 -1.3069 -0.2064 -0.7652
  799TIP3    H2 2320   3.275   3.164   3.892 -0.6095 -0.9357  1.9343
  800TIP3   OH2 2321   1.692   0.470   7.246  0.1576  0.3762  0.5434
  800TIP3    H1 2322   1.720   0.416   7.172  0.9235  0.6574  0.6167
  800TIP3    H2 2323   1.745   0.550   7.238 -1.7709  1.6076 -0.2125
  801TIP3   OH2 2324   1.865   1.542   3.278 -0.1378 -0.5860 -0.6107
  801TIP3    H1 2325   1.916   1.462   3.293 -0.8977 -0.8822  0.4579
  801TIP3    H2 2326   1.882   1.595   3.355 -1.7410 -0.8484 -0.0657
  802TIP3   OH2 2327   2.863   1.152   3.447 -0.2946  0.2010  0.3145
  802TIP3    H1 2328   2.874   1.247   3.440 -3.6286  0.4636 -3.2224
  802TIP3    H2 2329   2.948   1.116   3.422  0.1187  2.2164 -1.3152
  803TIP3   OH2 2330   3.137   1.862   1.305 -0.4830  0.3021 -0.0019
  803TIP3    H1 2331   3.045   1.867   1.277 -1.2248  2.9216  2.5117
  803TIP3    H2 2332   3.132   1.871   1.401  2.4157  0.8517  0.1217
  804TIP3   OH2 2333   8.010   6.381   7.022 -0.2106  0.2618  0.2727
  804TIP3    H1 2334   7.989   6.371   6.929  0.7069  0.1520  0.0691
  804TIP3    H2 2335   8.018   6.291   7.055  0.8871  0.2886  0.1147
  805TIP3   OH2 2336   2.684   4.035   1.269 -0.2038 -0.0354  0.3206
  805TIP3    H1 2337   2.771   4.047   1.231 -1.0707  0.3154 -1.5862
  805TIP3    H2 2338   2.698   3.975   1.343  1.6587  0.1114  0.1127
  806TIP3   OH2 2339   6.342   6.097   6.971  0.0601 -0.4502 -0.1353
  806TIP3    H1 2340   6.397   6.024   6.943  0.0635 -0.3475 -0.4005
  806TIP3    H2 2341   6.255   6.058   6.985  0.2422 -0.6486  0.4710
  807TIP3   OH2 2342   5.485   2.005   2.606  0.1077  0.2786  0.2744
  807TIP3    H1 2343   5.395   2.032   2.588 -0.6565 -1.1748  1.7858
  807TIP3    H2 2344   5.501   1.931   2.547 -0.6492 -1.1982  1.8613
  808TIP3   OH2 2345   2.118   4.176   1.394  0.3857  0.4380 -0.2658
  808TIP3    H1 2346   2.027   4.150   1.379  0.3987 -0.0542  0.4913
  808TIP3    H2 2347   2.118   4.271   1.383 -0.7162  0.7424  2.1154
  809TIP3   OH2 2348   4.307   3.697   1.240  0.6155 -0.3756  0.3322
  809TIP3    H1 2349   4.349   3.642   1.173  1.2701 -1.3828  1.5359
  809TIP3    H2 2350   4.356   3.779   1.238  1.0998 -0.6669  0.0510
  810TIP3   OH2 2351   2.794   2.139   1.161 -0.0512  0.0070 -0.4555
  810TIP3    H1 2352   2.715   2.161   1.110 -1.3342  0.3187  1.6120
  810TIP3    H2 2353   2.815   2.220   1.207 -0.4611 -1.0022  1.5379
  811TIP3   OH2 2354   1.919   4.508   0.332  0.6916 -0.2593  0.4832
  811TIP3    H1 2355   1.928   4.585   0.276 -0.8135 -0.6687 -0.3307
  811TIP3    H2 2356   1.930   4.433   0.273  0.3253 -0.6850  0.9555
  812TIP3   OH2 2357   3.484   3.226   1.714 -0.1090  0.0256 -0.1020
  812TIP3    H1 2358   3.474   3.306   1.662 -0.5615 -1.2129 -2.0025
  812TIP3    H2 2359   3.395   3.191   1.721 -0.0020 -0.0083  1.2552
  813TIP3   OH2 2360   8.465   7.991   1.811 -0.0239  0.1174 -0.0092
  813TIP3    H1 2361   8.393   7.939   1.775  0.6842 -1.2888  0.5246
  813TIP3    H2 2362   8.475   8.064   1.750 -0.8940 -0.5106 -0.9347
  814TIP3   OH2 2363   2.868   1.525   0.171 -0.4705  0.5986 -0.0918
  814TIP3    H1 2364   2.826   1.515   0.085 -1.3738  1.7297  0.2147
  814TIP3    H2 2365   2.830   1.605   0.207  0.3754  0.4655  1.1015
  815TIP3   OH2 2366   2.608   4.225   3.158  0.3595  0.2286 -0.1545
  815TIP3    H1 2367   2.523   4.180   3.158 -0.2620  1.3758  0.0641
  815TIP3    H2 2368   2.604   4.284   3.083  0.8106  0.5729  0.0881
  816TIP3   OH2 2369   3.247   1.943   1.059 -0.4165  0.3086  0.2252
  816TIP3    H1 2370   3.228   1.946   1.153  0.7023 -1.8510  0.5630
  816TIP3    H2 2371   3.170   1.902   1.020  0.3631 -1.5775  0.6186
  817TIP3   OH2 2372   3.215   3.218   2.224  0.0184  0.2415 -0.0828
  817TIP3    H1 2373   3.289   3.276   2.241 -0.2858  0.3408  0.9268
  817TIP3    H2 2374   3.224   3.148   2.289 -1.8853  1.3052  1.3552
  818TIP3   OH2 2375   2.709   3.594   0.129 -0.4617  0.5849 -0.2397
  818TIP3    H1 2376   2.624   3.596   0.085 -0.6037  1.5927  0.0855
  818TIP3    H2 2377   2.691   3.621   0.219  0.3957  2.0509 -0.4982
  819TIP3   OH2 2378   6.226   3.433   1.200 -0.0022 -0.0762  0.4845
  819TIP3    H1 2379   6.260   3.348   1.228  0.5496 -0.1147 -0.3076
  819TIP3    H2 2380   6.250   3.439   1.108 -2.7113 -0.4126 -0.2922
  820TIP3   OH2 2381   1.879   1.913   0.553 -0.3474 -0.1001  0.0236
  820TIP3    H1 2382   1.900   1.995   0.598  0.7032 -1.4307  1.9957
  820TIP3    H2 2383   1.785   1.903   0.565 -0.3643  0.4679  0.3951
  821TIP3   OH2 2384   3.613   4.511   0.831 -0.1521 -0.7767  0.0805
  821TIP3    H1 2385   3.594   4.602   0.807 -1.0110 -0.9057  0.2456
  821TIP3    H2 2386   3.564   4.498   0.913 -0.4454 -1.5475 -0.2175
  822TIP3   OH2 2387   2.473   3.680   1.001 -0.2445  0.5764  0.2645
  822TIP3    H1 2388   2.562   3.680   1.038 -0.4896  0.5467  0.8719
  822TIP3    H2 2389   2.443   3.589   1.012  0.0773  0.3158 -0.9976
  823TIP3   OH2 2390   4.646   1.729   0.108 -0.8032 -0.1681 -0.2237
  823TIP3    H1 2391   4.627   1.771   0.192 -1.0612 -1.8698  0.5909
  823TIP3    H2 2392   4.676   1.800   0.052 -1.3895  1.1242  1.0695
  824TIP3   OH2 2393   4.028   2.445   1.921 -0.2097 -0.1559  0.4491
  824TIP3    H1 2394   4.051   2.537   1.923 -1.2231  0.0813  1.5103
  824TIP3    H2 2395   4.088   2.403   1.982 -0.3327 -0.0564  0.6397
  825TIP3   OH2 2396   0.868   1.308   7.138 -0.7621  0.1988  0.9748
  825TIP3    H1 2397   0.960   1.315   7.113 -1.3911  1.5363 -1.0252
  825TIP3    H2 2398   0.869   1.320   7.233  0.8727  2.7519  0.6852
  826TIP3   OH2 2399   3.646   2.999   0.573 -0.3536 -0.3278 -0.0196
  826TIP3    H1 2400   3.696   3.040   0.644  0.6225 -0.6737 -0.4989
  826TIP3    H2 2401   3.576   3.061   0.554 -1.0549 -0.5387  1.7132
  827TIP3   OH2 2402   7.052   2.547   0.962 -0.6367 -0.2608 -0.0931
  827TIP3    H1 2403   7.080   2.629   0.920  0.8634 -0.1441  1.0909
  827TIP3    H2 2404   7.009   2.498   0.892  0.6420  0.4899 -1.4334
  828TIP3   OH2 2405   6.792   6.464   4.073 -0.0345 -0.1937  0.2179
  828TIP3    H1 2406   6.724   6.431   4.131 -0.0822  0.3556  0.4741
  828TIP3    H2 2407   6.754   6.541   4.030  0.3834  0.0531  0.2813
  829TIP3   OH2 2408   2.947   1.439   1.821  0.2515  0.0111 -0.0693
  829TIP3    H1 2409   2.989   1.483   1.895  1.3556 -0.1860 -0.5838
  829TIP3    H2 2410   2.924   1.510   1.761 -0.8294  0.1931  0.5424
  830TIP3   OH2 2411   4.138   4.080   1.330  0.1811 -0.4231  0.5716
  830TIP3    H1 2412   4.115   4.030   1.252 -1.0851  1.0638 -0.0414
  830TIP3    H2 2413   4.070   4.056   1.394  1.5305 -2.0692  1.4557
  831TIP3   OH2 2414   2.667   5.230   1.681 -0.0223  0.2502 -0.3319
  831TIP3    H1 2415   2.694   5.280   1.757 -2.3104  1.0695 -0.0182
  831TIP3    H2 2416   2.683   5.138   1.705  0.0392  0.5600  0.8160
  832TIP3   OH2 2417   2.729   3.919   2.650 -0.6035  0.0625 -0.1299
  832TIP3    H1 2418   2.683   3.944   2.569  0.6717 -1.1025 -1.2311
  832TIP3    H2 2419   2.730   4.000   2.702 -2.1453  0.6153 -0.9352
  833TIP3   OH2 2420   4.327   2.731   1.758  0.1333 -0.4596  0.1701
  833TIP3    H1 2421   4.375   2.808   1.726 -0.5454 -0.2863 -0.4429
  833TIP3    H2 2422   4.251   2.724   1.700 -0.4823 -0.8455  1.0039
  834TIP3   OH2 2423   3.715   2.504   1.307  0.0906 -0.2984  0.1359
  834TIP3    H1 2424   3.737   2.461   1.224 -0.0915 -0.0486 -0.0434
  834TIP3    H2 2425   3.679   2.589   1.281 -0.9191 -0.6379  0.4390
  835TIP3   OH2 2426   5.058   7.809   6.374 -0.6500  0.5609 -0.0402
  835TIP3    H1 2427   5.040   7.847   6.288 -0.3500 -0.2437 -0.4667
  835TIP3    H2 2428   5.111   7.874   6.419  0.9266  0.1341 -1.2273
  836TIP3   OH2 2429   3.967   2.145   1.570 -0.0561 -0.0700 -0.2213
  836TIP3    H1 2430   3.944   2.236   1.587 -0.9934 -0.1658 -0.9773
  836TIP3    H2 2431   3.896   2.111   1.516  0.4799 -1.1429 -0.2742
  837TIP3   OH2 2432   2.593   5.380   1.473  0.4701  0.6331 -0.3308
  837TIP3    H1 2433   2.498   5.386   1.484  0.3895 -0.8917 -0.0358
  837TIP3    H2 2434   2.620   5.312   1.535  1.7561  1.0352 -0.4332
  838TIP3   OH2 2435   3.622   2.883   3.382 -0.0616 -0.7236  0.0931
  838TIP3    H1 2436   3.578   2.968   3.377 -2.4725 -1.9588 -0.7030
  838TIP3    H2 2437   3.706   2.896   3.338 -0.4712  1.2163 -0.1413
  839TIP3   OH2 2438   6.809   4.976   6.900  0.3340  0.3811 -0.0058
  839TIP3    H1 2439   6.867   4.982   6.824  0.9013  1.6676  0.5216
  839TIP3    H2 2440   6.747   5.049   6.888 -1.6995 -1.4566 -0.9901
  840TIP3   OH2 2441   4.055   4.090   0.400 -0.1624 -0.0708  0.3929
  840TIP3    H1 2442   4.119   4.153   0.432  0.7293 -1.1498  0.7942
  840TIP3    H2 2443   3.971   4.120   0.436  0.4040  0.3095  1.4176
  841TIP3   OH2 2444   3.407   2.553   0.587 -0.1839 -0.3177  0.6524
  841TIP3    H1 2445   3.341   2.611   0.625  0.0825 -0.3528  1.1752
  841TIP3    H2 2446   3.405   2.474   0.641 -1.0992 -1.1305 -0.5421
  842TIP3   OH2 2447   2.508   3.727   2.626  0.0212  0.1594 -0.1356
  842TIP3    H1 2448   2.465   3.731   2.711 -1.5204  1.2288 -0.9389
  842TIP3    H2 2449   2.561   3.807   2.623 -0.2129  0.3067 -0.3312
  843TIP3   OH2 2450   2.881   2.777   0.197 -0.6538 -0.0973  0.2358
  843TIP3    H1 2451   2.800   2.816   0.166 -1.6063 -1.0365  1.4931
  843TIP3    H2 2452   2.886   2.801   0.289  0.2600 -0.4213  0.2788
  844TIP3   OH2 2453   4.135   2.739   0.415 -0.3121  0.1153  0.2699
  844TIP3    H1 2454   4.046   2.703   0.405 -0.3887 -0.0589  1.5029
  844TIP3    H2 2455   4.159   2.719   0.505  0.3172  1.6728  0.4587
  845TIP3   OH2 2456   2.148   2.073   0.917 -0.5876 -0.3044  0.4599
  845TIP3    H1 2457   2.201   2.009   0.871 -0.1208  0.3480  0.0874
  845TIP3    H2 2458   2.058   2.040   0.909 -0.4595 -0.4218 -0.5369
  846TIP3   OH2 2459   3.856   5.330   0.364 -0.6337  0.4369 -0.5493
  846TIP3    H1 2460   3.880   5.249   0.409  1.2019  2.0495  1.4858
  846TIP3    H2 2461   3.768   5.350   0.397 -0.4620  0.1052  0.1109
  847TIP3   OH2 2462   7.983   0.233   7.136  0.5102  0.1536 -0.0827
  847TIP3    H1 2463   8.027   0.310   7.173 -0.9353  0.7532  0.4164
  847TIP3    H2 2464   7.892   0.243   7.161  0.1512 -1.2998 -0.7541
  848TIP3   OH2 2465   5.980   6.318   7.052  0.0303  0.0962 -0.3660
  848TIP3    H1 2466   6.011   6.260   6.983 -1.9901 -0.3938 -0.8648
  848TIP3    H2 2467   5.893   6.346   7.024  0.1942  1.8754  0.7763
  849TIP3   OH2 2468   4.012   4.562   0.444  0.0203 -0.3427  0.0562
  849TIP3    H1 2469   4.035   4.489   0.502 -0.2404 -0.2726  0.2495
  849TIP3    H2 2470   3.974   4.519   0.368  1.2566 -0.4887 -0.4972
  850TIP3   OH2 2471   6.698   6.622   6.980  0.2940 -0.0356  0.1206
  850TIP3    H1 2472   6.681   6.599   6.889 -0.1617 -1.0945  0.4570
  850TIP3    H2 2473   6.718   6.715   6.979  1.4065 -0.2832 -1.2040
  851TIP3   OH2 2474   1.592   4.344   2.449 -0.0316  0.2356  0.1337
  851TIP3    H1 2475   1.614   4.436   2.437 -0.9225  0.4133 -0.1749
  851TIP3    H2 2476   1.640   4.299   2.379  2.1520  0.1948  1.6163
  852TIP3   OH2 2477   3.777   1.831   3.385 -0.0388 -0.4056 -0.5241
  852TIP3    H1 2478   3.709   1.891   3.354 -0.7750 -1.8346 -1.6812
  852TIP3    H2 2479   3.757   1.817   3.478 -1.9235 -1.6213 -1.0992
  853TIP3   OH2 2480   3.237   3.616   4.653  0.2115 -0.9451 -0.4026
  853TIP3    H1 2481   3.326   3.602   4.685 -0.0114  0.1588  0.7043
  853TIP3    H2 2482   3.181   3.608   4.730 -0.4256  0.7295 -0.6722
  854TIP3   OH2 2483   5.536   4.782   0.652 -0.1659  0.1334  0.2077
  854TIP3    H1 2484   5.624   4.745   0.648  0.0615  0.7601 -0.7510
  854TIP3    H2 2485   5.535   4.833   0.733  0.3428  0.1018  0.2340
  855TIP3   OH2 2486   6.162   5.579   6.930  0.7615 -0.7309 -0.4390
  855TIP3    H1 2487   6.092   5.566   6.994 -0.3060  3.0460 -0.7432
  855TIP3    H2 2488   6.133   5.529   6.853 -0.5074 -1.0295  0.2152
  856TIP3   OH2 2489   0.970   1.185   5.606 -0.3416  0.4124 -0.2770
  856TIP3    H1 2490   0.956   1.098   5.570  0.9147  0.3471 -0.6182
  856TIP3    H2 2491   0.882   1.217   5.625 -1.0996  0.5496 -3.6403
  857TIP3   OH2 2492   2.395   4.066   3.188  0.2478 -0.6059  0.3091
  857TIP3    H1 2493   2.378   4.036   3.278  1.2510 -1.4219  0.2335
  857TIP3    H2 2494   2.308   4.074   3.149 -0.1911 -0.3524  1.3234
  858TIP3   OH2 2495   4.619   2.670   4.432 -0.2495 -0.1616 -0.0009
  858TIP3    H1 2496   4.666   2.644   4.353 -0.3739  1.3095 -0.5726
  858TIP3    H2 2497   4.681   2.656   4.504  0.1269 -0.7488 -0.4378
  859TIP3   OH2 2498   0.706   0.635   6.892  0.1460  0.3089  0.5425
  859TIP3    H1 2499   0.750   0.633   6.977  0.5284 -0.9008  0.3259
  859TIP3    H2 2500   0.721   0.548   6.855 -0.3060  0.7146 -0.6200
  860TIP3   OH2 2501   4.613   2.620   0.670 -0.3863 -0.5437 -0.6685
  860TIP3    H1 2502   4.546   2.556   0.693 -0.0381 -1.2661 -1.6171
  860TIP3    H2 2503   4.695   2.582   0.702 -0.5984  1.0936  1.9685
  861TIP3   OH2 2504   3.680   2.924   2.535 -0.0067  0.3556  0.0888
  861TIP3    H1 2505   3.739   2.849   2.527 -1.7299 -1.1915  1.4101
  861TIP3    H2 2506   3.663   2.951   2.445 -0.2239 -1.5549 -0.4721
  862TIP3   OH2 2507   3.206   2.384   1.613  0.3166 -0.5058 -0.1571
  862TIP3    H1 2508   3.169   2.335   1.540  0.2604 -0.6482 -0.0347
  862TIP3    H2 2509   3.159   2.351   1.690 -0.5695  0.6025 -0.2114
  863TIP3   OH2 2510   3.019   1.155   2.065  0.5193 -0.4214  0.3031
  863TIP3    H1 2511   2.973   1.086   2.113  0.5807 -0.0654  0.8842
  863TIP3    H2 2512   3.011   1.130   1.973 -0.1300 -0.7897  0.4586
  864TIP3   OH2 2513   2.949   3.912   2.401  0.2849 -0.2560 -0.5821
  864TIP3    H1 2514   3.019   3.862   2.443  1.0516 -0.3398 -1.9210
  864TIP3    H2 2515   2.934   3.867   2.318 -1.2868 -0.1589 -0.3712
  865TIP3   OH2 2516   5.827   4.395   6.773  0.1508 -0.4326  0.5111
  865TIP3    H1 2517   5.858   4.310   6.740 -0.2207 -1.0826  1.7740
  865TIP3    H2 2518   5.774   4.372   6.850 -3.0190  0.6694 -1.2193
  866TIP3   OH2 2519   6.369   5.746   7.231 -0.0286  0.0665 -0.1223
  866TIP3    H1 2520   6.443   5.795   7.267  0.4472 -0.5081 -0.3047
  866TIP3    H2 2521   6.302   5.812   7.214  1.2685  0.9299 -2.0996
  867TIP3   OH2 2522   1.856   4.354   1.688 -0.0351 -0.2817 -0.5491
  867TIP3    H1 2523   1.838   4.380   1.597  2.0672 -1.4050 -1.3070
  867TIP3    H2 2524   1.828   4.262   1.692  0.0514 -0.2868 -0.0981
  868TIP3   OH2 2525   3.324   3.863   0.088  0.1002  0.3569  0.1768
  868TIP3    H1 2526   3.338   3.858  -0.006 -3.2124  0.3048 -0.3832
  868TIP3    H2 2527   3.290   3.776   0.111 -2.3153  1.4382  0.7903
  869TIP3   OH2 2528   3.612   0.897   0.145 -0.1605 -0.6790 -0.0759
  869TIP3    H1 2529   3.602   0.982   0.102 -0.4823 -1.1077 -0.8721
  869TIP3    H2 2530   3.542   0.896   0.211 -0.8794 -0.7681 -0.8209
  870TIP3   OH2 2531   0.877   0.301   7.048  0.0278  0.7195  0.4529
  870TIP3    H1 2532   0.886   0.318   6.954 -0.4900 -0.3775  0.1925
  870TIP3    H2 2533   0.789   0.333   7.069  0.1541  0.9890  0.5728
  871TIP3   OH2 2534   4.084   5.731   0.810  0.1022  0.3732  0.0582
  871TIP3    H1 2535   4.120   5.651   0.770  2.1815  0.8593  0.9232
  871TIP3    H2 2536   4.139   5.747   0.886 -0.9446  2.0895  0.4808
  872TIP3   OH2 2537   4.271   5.099   1.127 -0.4550  0.2933 -0.4629
  872TIP3    H1 2538   4.203   5.071   1.189  0.4457 -2.4558 -0.6335
  872TIP3    H2 2539   4.241   5.184   1.095 -2.0382  0.7500  2.0944
  873TIP3   OH2 2540   4.194   2.507   0.906 -0.0380  0.2092  0.1060
  873TIP3    H1 2541   4.257   2.522   0.976  0.2304  0.1365 -0.1190
  873TIP3    H2 2542   4.191   2.411   0.896 -1.9918  0.0645  1.7635
  874TIP3   OH2 2543   4.260   3.777   1.931 -0.6729  0.3162 -0.7249
  874TIP3    H1 2544   4.201   3.716   1.975 -0.8973  2.0776  1.4944
  874TIP3    H2 2545   4.207   3.855   1.915  0.2100  0.7520 -1.5756
  875TIP3   OH2 2546   2.034   1.638   3.894  0.1332 -0.2791  0.0955
  875TIP3    H1 2547   2.100   1.702   3.922  0.4397 -0.3071 -0.5633
  875TIP3    H2 2548   1.953   1.688   3.890  0.1328 -0.2116  0.7652
  876TIP3   OH2 2549   5.584   5.480   1.492  0.1147 -0.1592 -0.5685
  876TIP3    H1 2550   5.636   5.504   1.569  2.0371 -0.7386 -1.6548
  876TIP3    H2 2551   5.534   5.403   1.519  0.9486 -0.4879  0.0516
  877TIP3   OH2 2552   6.318   3.003   0.646  0.3123 -0.3712  0.3175
  877TIP3    H1 2553   6.386   3.058   0.686 -0.4857  0.1855  0.9271
  877TIP3    H2 2554   6.323   2.920   0.692  0.6706 -0.3741  0.2708
  878TIP3   OH2 2555   5.913   5.178   2.464 -0.2726 -0.0120 -0.2205
  878TIP3    H1 2556   5.942   5.247   2.524 -1.1103  1.8595 -1.9004
  878TIP3    H2 2557   5.951   5.098   2.500  2.2110  1.5477  0.8121
  879TIP3   OH2 2558   6.482   6.108   4.945 -0.4906  0.2792  0.0625
  879TIP3    H1 2559   6.456   6.032   4.998 -0.3852 -0.2316 -0.6090
  879TIP3    H2 2560   6.400   6.144   4.913 -0.5135  0.1489 -0.0276
  880TIP3   OH2 2561   4.608   7.681   6.983  0.1045  0.2087 -0.1716
  880TIP3    H1 2562   4.633   7.595   7.016 -0.3081  0.4620  0.8340
  880TIP3    H2 2563   4.565   7.664   6.900  0.9638 -0.4694 -0.4790
  881TIP3   OH2 2564   4.648   4.569   0.227  0.7410 -0.2639  0.2637
  881TIP3    H1 2565   4.640   4.612   0.142  2.7169 -0.0553  0.1622
  881TIP3    H2 2566   4.560   4.576   0.266 -0.1222 -0.1914 -1.6582
  882TIP3   OH2 2567   3.588   4.831   1.182 -0.2736 -0.4742 -0.2427
  882TIP3    H1 2568   3.526   4.766   1.215 -0.0984 -0.6352 -0.2282
  882TIP3    H2 2569   3.627   4.869   1.260  0.3406 -1.0481 -0.2619
  883TIP3   OH2 2570   3.329   1.870   2.247 -0.6575  0.0773  0.2298
  883TIP3    H1 2571   3.302   1.933   2.180 -0.7769  0.5999  0.7623
  883TIP3    H2 2572   3.400   1.914   2.294 -0.4813 -0.3426  0.3555
  884TIP3   OH2 2573   4.158   3.629   2.973 -0.0759 -0.2860 -0.6857
  884TIP3    H1 2574   4.176   3.547   3.019  2.4013  0.7807  0.3587
  884TIP3    H2 2575   4.063   3.629   2.959 -0.5019 -1.9687  1.9116
  885TIP3   OH2 2576   2.549   3.067   0.800 -0.1232 -0.0510  0.2232
  885TIP3    H1 2577   2.569   3.092   0.710  1.2301  0.4223  0.6439
  885TIP3    H2 2578   2.511   3.146   0.839  1.3450  0.4351  0.6901
  886TIP3   OH2 2579   2.087   0.582   6.885  0.2651  0.5204 -0.2626
  886TIP3    H1 2580   2.093   0.493   6.851  0.5131  0.2608  0.4585
  886TIP3    H2 2581   1.993   0.600   6.888  0.2807  1.6073 -3.8106
  887TIP3   OH2 2582   4.568   4.177   1.366  0.6689  0.4131  0.6702
  887TIP3    H1 2583   4.659   4.177   1.393  0.5028  4.1963  1.4708
  887TIP3    H2 2584   4.526   4.242   1.422 -1.5851  1.8414 -2.5105
  888TIP3   OH2 2585   3.434   5.704   0.004 -0.1941 -0.2159 -0.2229
  888TIP3    H1 2586   3.366   5.749   0.053 -1.3087 -1.0750 -0.9271
  888TIP3    H2 2587   3.417   5.611   0.019  1.5986 -0.4340  0.5957
  889TIP3   OH2 2588   6.175   7.804   6.650 -0.1742 -0.1700  0.4647
  889TIP3    H1 2589   6.208   7.719   6.681  0.2480 -0.5199 -0.9342
  889TIP3    H2 2590   6.226   7.868   6.699 -0.9179 -0.7115  1.9835
  890TIP3   OH2 2591   3.481   4.913   2.008  0.1003  0.4220  0.0152
  890TIP3    H1 2592   3.562   4.964   2.016  0.7530 -0.1563 -2.4038
  890TIP3    H2 2593   3.481   4.884   1.916 -1.8860 -1.2031  0.5139
  891TIP3   OH2 2594   1.828   5.428   0.158  0.4920 -0.0971 -0.1856
  891TIP3    H1 2595   1.878   5.492   0.107 -0.4777 -0.0680 -1.1294
  891TIP3    H2 2596   1.874   5.423   0.242  1.1286  1.1331 -0.4394
  892TIP3   OH2 2597   3.695   4.935   1.592  0.2243  0.1447  0.0965
  892TIP3    H1 2598   3.682   4.982   1.510 -0.4938  1.1277  0.7687
  892TIP3    H2 2599   3.744   4.996   1.648  1.1438 -0.6993  0.2363
  893TIP3   OH2 2600   5.262   8.361   6.532 -0.2505  0.1624  0.1405
  893TIP3    H1 2601   5.323   8.306   6.580 -1.2459 -0.5157  0.6483
  893TIP3    H2 2602   5.278   8.339   6.440  0.7610  0.5219  0.2208
  894TIP3   OH2 2603   3.305   2.752   1.875 -0.1746  0.2189 -0.0581
  894TIP3    H1 2604   3.237   2.733   1.810 -0.4785  2.3616 -0.4265
  894TIP3    H2 2605   3.263   2.737   1.959 -1.1223  1.5158 -0.2854
  895TIP3   OH2 2606   5.455   2.227   1.509 -0.4878 -0.4042  0.2800
  895TIP3    H1 2607   5.417   2.315   1.508 -1.2085 -0.6995 -3.3708
  895TIP3    H2 2608   5.538   2.236   1.464  0.5808 -1.1630  2.0407
  896TIP3   OH2 2609   4.330   2.557   3.758 -0.0468  0.5993  0.6196
  896TIP3    H1 2610   4.343   2.638   3.709 -1.6885  0.9880  0.8015
  896TIP3    H2 2611   4.354   2.487   3.696  0.5511  1.1952  0.1811
  897TIP3   OH2 2612   8.002   5.555   5.734  0.4902  0.8585 -0.3553
  897TIP3    H1 2613   8.038   5.583   5.818 -0.2500 -0.3533  0.3762
  897TIP3    H2 2614   7.922   5.507   5.756 -0.3993  1.6131 -1.8224
  898TIP3   OH2 2615   1.900   2.949   0.940  0.0606 -0.6802  0.0716
  898TIP3    H1 2616   1.949   2.874   0.976  0.9257 -0.6921 -1.0999
  898TIP3    H2 2617   1.941   2.966   0.855 -1.3442 -0.0525 -0.4965
  899TIP3   OH2 2618   5.803   7.149   6.515  0.1881 -0.0495  0.2171
  899TIP3    H1 2619   5.757   7.104   6.444 -0.2241  0.3499  0.2279
  899TIP3    H2 2620   5.837   7.229   6.475  0.3645 -0.0537  0.3555
  900TIP3   OH2 2621   6.687   6.011   6.401 -0.4485 -0.1407  0.4504
  900TIP3    H1 2622   6.762   5.955   6.385 -0.1933 -0.1434  1.6319
  900TIP3    H2 2623   6.635   5.964   6.466 -2.4204 -1.0040 -1.6580
  901TIP3   OH2 2624   8.315   5.196   0.528 -0.0731 -0.3464  0.1553
  901TIP3    H1 2625   8.402   5.162   0.506  0.1640  0.7233 -0.6196
  901TIP3    H2 2626   8.257   5.154   0.464  0.2600  0.8736 -0.9809
  902TIP3   OH2 2627   3.387   3.760   0.734  0.2667 -0.0178 -0.0369
  902TIP3    H1 2628   3.359   3.850   0.720 -0.3871 -0.2537 -0.2215
  902TIP3    H2 2629   3.309   3.715   0.765  0.5472 -0.5697 -0.1323
  903TIP3   OH2 2630   2.674   3.872   1.486  0.6163 -0.4212  0.3892
  903TIP3    H1 2631   2.705   3.920   1.563 -0.8625 -0.8202  1.2574
  903TIP3    H2 2632   2.675   3.780   1.513  0.3203 -0.5855 -0.1552
  904TIP3   OH2 2633   4.803   6.146   5.459  0.0132  0.4624 -0.0191
  904TIP3    H1 2634   4.761   6.096   5.389  1.1141 -1.3435  0.5780
  904TIP3    H2 2635   4.771   6.235   5.447 -2.4766 -0.4840 -0.7324
  905TIP3   OH2 2636   3.375   0.160   1.725  0.0676 -0.3186  1.3214
  905TIP3    H1 2637   3.311   0.099   1.761  0.3815 -2.5999 -1.8127
  905TIP3    H2 2638   3.448   0.104   1.697  1.4504  1.7796  0.6328
  906TIP3   OH2 2639   3.254   1.350   1.679 -0.3437  0.1905  0.0119
  906TIP3    H1 2640   3.171   1.398   1.679 -1.2141 -1.2726  0.7841
  906TIP3    H2 2641   3.301   1.384   1.755 -0.4691  0.6374 -0.1098
  907TIP3   OH2 2642   3.614   4.344   0.597 -0.1487  0.0768  0.4842
  907TIP3    H1 2643   3.521   4.325   0.607 -0.3226  0.8685  0.4170
  907TIP3    H2 2644   3.633   4.407   0.666  0.1254  0.6231 -0.0825
  908TIP3   OH2 2645   1.748   0.810   1.629 -0.2270  0.2032 -0.4695
  908TIP3    H1 2646   1.675   0.765   1.672  1.6630 -1.8665  0.6387
  908TIP3    H2 2647   1.714   0.831   1.542 -1.9917 -1.2083 -0.1577
  909TIP3   OH2 2648   2.981   1.066   2.491  0.2243  0.0147 -0.3592
  909TIP3    H1 2649   2.994   1.143   2.546 -0.5517  0.1827 -0.4008
  909TIP3    H2 2650   2.886   1.057   2.486  0.3105 -0.6581 -0.7549
  910TIP3   OH2 2651   4.054   3.607   2.231 -1.0869  0.7213 -0.0001
  910TIP3    H1 2652   4.001   3.593   2.153 -2.7242 -1.3891  1.4222
  910TIP3    H2 2653   4.142   3.579   2.205 -1.1565  1.9381 -1.6511
  911TIP3   OH2 2654   3.403   3.868   1.689  0.2416 -0.0966 -0.4954
  911TIP3    H1 2655   3.348   3.830   1.757  2.5728 -0.8420  1.0286
  911TIP3    H2 2656   3.389   3.963   1.697 -1.5188 -0.3191 -0.7745
  912TIP3   OH2 2657   2.644   5.952   1.184  0.2741 -0.4038  0.0050
  912TIP3    H1 2658   2.664   5.975   1.275 -3.0096  0.2518  0.6122
  912TIP3    H2 2659   2.661   6.032   1.135  1.5983 -0.6240  0.0729
  913TIP3   OH2 2660   3.939   2.862   0.184  0.1131 -0.6950  0.3168
  913TIP3    H1 2661   4.017   2.836   0.135  1.2525  0.6596  1.3908
  913TIP3    H2 2662   3.920   2.787   0.241  1.8310 -0.2451  1.5056
  914TIP3   OH2 2663   1.764   3.089   2.191 -0.0615  0.0090 -0.1258
  914TIP3    H1 2664   1.729   3.088   2.102  0.2110 -2.3126 -0.2473
  914TIP3    H2 2665   1.715   3.157   2.236  0.1996  1.6174 -2.2005
  915TIP3   OH2 2666   5.792   1.867   1.471 -0.2082  0.4789 -0.0087
  915TIP3    H1 2667   5.819   1.922   1.544  0.1403  0.8096 -0.3770
  915TIP3    H2 2668   5.705   1.834   1.494  0.4784 -0.5488  1.1801
  916TIP3   OH2 2669   2.927   3.234   3.130 -0.1220  0.3034 -0.3908
  916TIP3    H1 2670   2.931   3.324   3.162 -1.3008  0.2811 -0.1483
  916TIP3    H2 2671   2.835   3.210   3.138  0.1367 -0.8327 -0.7124
  917TIP3   OH2 2672   0.284   0.717   6.369 -0.3313 -0.1094  0.5160
  917TIP3    H1 2673   0.200   0.764   6.366 -0.4370 -0.4080 -2.0151
  917TIP3    H2 2674   0.340   0.764   6.306  0.7463 -1.1474  0.6900
  918TIP3   OH2 2675   2.887   4.577   1.671  0.5528 -0.6995 -0.0184
  918TIP3    H1 2676   2.891   4.581   1.766 -0.2565  0.1890 -0.0179
  918TIP3    H2 2677   2.882   4.483   1.651 -1.2793 -0.8026  0.9005
  919TIP3   OH2 2678   1.377   0.341   7.122  0.1695  0.0288  0.2537
  919TIP3    H1 2679   1.317   0.332   7.197  0.7329 -0.5468  0.6428
  919TIP3    H2 2680   1.366   0.258   7.074  0.3477  0.0976  0.0988
  920TIP3   OH2 2681   4.783   3.189   1.794 -0.2282  0.4754  0.1924
  920TIP3    H1 2682   4.801   3.102   1.758 -1.2651  0.3155  0.0514
  920TIP3    H2 2683   4.711   3.175   1.856 -0.8453  1.3330 -0.3222
  921TIP3   OH2 2684   3.116   1.901   1.598 -0.3754  0.6334 -0.0765
  921TIP3    H1 2685   3.148   1.965   1.662 -1.8285  1.6503 -0.3375
  921TIP3    H2 2686   3.024   1.925   1.584 -1.0424 -1.7488  0.0898
  922TIP3   OH2 2687   2.349   5.085   4.032  0.1982  0.2298 -0.0041
  922TIP3    H1 2688   2.391   5.167   4.006 -2.2105  1.2730 -0.7981
  922TIP3    H2 2689   2.263   5.113   4.065 -0.1669 -1.8761  0.8529
  923TIP3   OH2 2690   6.082   6.504   6.572  0.6130 -0.3982 -0.0036
  923TIP3    H1 2691   6.059   6.428   6.517  0.4401 -1.2713  1.2544
  923TIP3    H2 2692   6.112   6.570   6.509  0.4399 -1.3842 -1.1560
  924TIP3   OH2 2693   4.244   4.406   0.128  0.4133 -0.3841 -0.1377
  924TIP3    H1 2694   4.235   4.496   0.160  0.3143 -0.6097  0.4658
  924TIP3    H2 2695   4.168   4.393   0.071  0.1278 -0.2758  0.2204
  925TIP3   OH2 2696   4.594   4.133   3.366  0.5364 -0.4312 -0.0064
  925TIP3    H1 2697   4.534   4.072   3.410  0.0178  1.0554  1.4007
  925TIP3    H2 2698   4.680   4.092   3.376 -0.0324 -1.8419 -0.7232
  926TIP3   OH2 2699   2.179   3.877   0.848  0.1952  0.1628 -0.2343
  926TIP3    H1 2700   2.259   3.923   0.873 -1.0082  2.6656 -0.7799
  926TIP3    H2 2701   2.120   3.890   0.923  0.6688 -2.7628  0.7300
  927TIP3   OH2 2702   6.506   4.921   1.238 -0.2362  0.3645  0.0562
  927TIP3    H1 2703   6.555   4.881   1.310  0.9029 -0.3472 -1.0911
  927TIP3    H2 2704   6.426   4.870   1.231  0.3511 -0.5276 -0.1688
  928TIP3   OH2 2705   0.455   0.045   7.126  0.2517  0.1954 -0.3974
  928TIP3    H1 2706   0.452   0.139   7.106 -0.3296 -0.0220 -1.3853
  928TIP3    H2 2707   0.423   0.039   7.216  0.6255  0.9765 -0.2057
  929TIP3   OH2 2708   3.622   4.035   1.304  0.4090  0.6987  0.0867
  929TIP3    H1 2709   3.653   4.024   1.394 -0.0181 -0.0965  0.1404
  929TIP3    H2 2710   3.702   4.047   1.253  0.7874 -0.8092  0.2981
  930TIP3   OH2 2711   4.874   2.045   0.207 -0.1622  0.0998  0.3302
  930TIP3    H1 2712   4.807   2.001   0.260 -0.5860  1.2207  0.7382
  930TIP3    H2 2713   4.911   2.112   0.264  0.1928  0.5557 -0.4123
  931TIP3   OH2 2714   3.988   5.096   2.968  0.0584 -0.7026  0.0406
  931TIP3    H1 2715   3.974   5.179   3.015  3.0658 -0.0747 -0.0745
  931TIP3    H2 2716   4.083   5.091   2.957 -0.1736 -3.6956 -0.8688
  932TIP3   OH2 2717   2.615   2.560   3.038  0.1857  0.1228  0.2660
  932TIP3    H1 2718   2.705   2.575   3.010  0.2309  0.9184  0.8066
  932TIP3    H2 2719   2.622   2.494   3.106  0.1538 -1.2440 -1.0307
  933TIP3   OH2 2720   0.114   1.495   7.073 -0.3145  0.7740  0.3181
  933TIP3    H1 2721   0.200   1.468   7.042  0.0722  1.0703  1.1345
  933TIP3    H2 2722   0.066   1.516   6.993 -0.3566 -1.5036 -0.2782
  934TIP3   OH2 2723   2.995   5.698   0.764 -0.3325 -0.2329 -0.4184
  934TIP3    H1 2724   2.972   5.790   0.777  0.6737 -0.0883  0.4015
  934TIP3    H2 2725   2.936   5.650   0.821 -1.6015 -0.1897 -1.6572
  935TIP3   OH2 2726   3.715   2.378   1.589 -0.7418  0.4361  0.3239
  935TIP3    H1 2727   3.707   2.404   1.497  0.2673 -0.8873 -0.1475
  935TIP3    H2 2728   3.629   2.342   1.611 -0.4675 -0.8327 -0.6151
  936TIP3   OH2 2729   4.130   1.838   3.942 -0.5813 -0.1250  0.0676
  936TIP3    H1 2730   4.144   1.744   3.936 -1.7696 -0.3532  0.6401
  936TIP3    H2 2731   4.092   1.851   4.029 -2.0395  0.6543 -0.6615
  937TIP3   OH2 2732   2.262   1.963   3.862  0.6406 -0.0476  0.0756
  937TIP3    H1 2733   2.301   1.898   3.921  1.0027 -1.3071 -1.5121
  937TIP3    H2 2734   2.168   1.946   3.867  0.6002  0.3693  0.8731
  938TIP3   OH2 2735   3.736   1.961   4.074  0.0360 -0.5377  0.2852
  938TIP3    H1 2736   3.755   1.997   3.988 -2.1373  1.1875  0.4903
  938TIP3    H2 2737   3.820   1.928   4.105  0.9246 -0.8156 -2.3033
  939TIP3   OH2 2738   4.007   1.256   3.008  0.0383  0.2318 -0.0107
  939TIP3    H1 2739   3.991   1.300   2.924  1.1876 -0.0284 -0.3793
  939TIP3    H2 2740   4.093   1.215   2.997  1.6667  2.8282  2.3969
  940TIP3   OH2 2741   7.084   7.211   6.968  0.0164 -0.0939  0.0903
  940TIP3    H1 2742   7.139   7.285   6.994  1.6883 -1.1043 -0.5147
  940TIP3    H2 2743   7.011   7.213   7.030  1.5870  0.2693  1.9716
  941TIP3   OH2 2744   2.006   4.332   3.177  0.1659  0.3340  0.0404
  941TIP3    H1 2745   1.976   4.375   3.257  1.6942 -1.6050  1.7006
  941TIP3    H2 2746   2.035   4.404   3.121 -0.7942  1.7150  1.2715
  942TIP3   OH2 2747   3.051   2.957   2.633  0.3765  0.1000 -0.3984
  942TIP3    H1 2748   3.068   2.974   2.725  1.3119  1.4771 -0.8095
  942TIP3    H2 2749   2.963   2.991   2.618  0.5838  0.7281 -0.2158
  943TIP3   OH2 2750   4.113   0.801   1.888  0.1122  0.2171  0.4228
  943TIP3    H1 2751   4.205   0.815   1.914  0.7550 -1.9785 -0.5638
  943TIP3    H2 2752   4.074   0.888   1.891  2.2452  1.1908  0.8330
  944TIP3   OH2 2753   2.511   5.028   0.230 -0.0614 -0.2556 -0.3868
  944TIP3    H1 2754   2.513   4.983   0.314 -1.7717 -1.8437 -1.1724
  944TIP3    H2 2755   2.425   5.071   0.226  0.5773  1.0430 -0.7098
  945TIP3   OH2 2756   3.190   2.674   3.100 -0.4044 -0.1985  0.3597
  945TIP3    H1 2757   3.282   2.654   3.085 -0.2777  0.7704 -0.1791
  945TIP3    H2 2758   3.149   2.589   3.119  0.4150 -0.7421 -0.3166
  946TIP3   OH2 2759   1.729   2.497   1.142 -0.4001 -0.3852  0.2867
  946TIP3    H1 2760   1.721   2.462   1.053 -0.4589 -0.9222  0.4997
  946TIP3    H2 2761   1.689   2.584   1.137 -3.1582 -1.5923  0.4854
  947TIP3   OH2 2762   6.446   6.703   6.910  0.0571  0.2825 -0.2511
  947TIP3    H1 2763   6.528   6.657   6.925  0.9273  1.8650 -0.0028
  947TIP3    H2 2764   6.422   6.739   6.995 -0.9649 -0.2590 -0.2967
  948TIP3   OH2 2765   4.861   3.123   0.669 -0.2086  0.3022 -0.4319
  948TIP3    H1 2766   4.818   3.115   0.584  0.8945 -1.0060 -0.8768
  948TIP3    H2 2767   4.814   3.194   0.713 -0.9952  0.7679 -1.9992
  949TIP3   OH2 2768   4.951   2.425   2.246 -0.5934 -0.3748 -0.3257
  949TIP3    H1 2769   4.954   2.392   2.156 -2.6738  0.4665 -0.7224
  949TIP3    H2 2770   4.899   2.360   2.293  0.3476 -0.7238  0.2484
  950TIP3   OH2 2771   1.176   4.175   0.336  0.0883 -1.0046  0.1984
  950TIP3    H1 2772   1.103   4.121   0.306 -0.4641 -0.5515  0.7191
  950TIP3    H2 2773   1.250   4.149   0.280 -0.2957 -1.9421  0.1215
  951TIP3   OH2 2774   6.100   3.689   1.898 -0.1002 -0.2935 -0.5488
  951TIP3    H1 2775   6.157   3.719   1.969 -0.9860  0.2395 -0.0410
  951TIP3    H2 2776   6.011   3.700   1.933 -0.6335  1.8072 -2.4559
  952TIP3   OH2 2777   4.854   3.037   1.197 -0.3882  0.3410 -0.1880
  952TIP3    H1 2778   4.830   3.122   1.161 -1.4467  0.0552 -0.1895
  952TIP3    H2 2779   4.901   3.057   1.278  1.7531  0.9758 -1.5478
  953TIP3   OH2 2780   3.907   3.405   0.164  0.2729  0.0981  0.4071
  953TIP3    H1 2781   3.854   3.409   0.084  0.8235 -0.0827  0.0321
  953TIP3    H2 2782   3.843   3.401   0.235 -0.2660  2.7218  0.1388
  954TIP3   OH2 2783   3.036   5.441   2.224  0.7775 -0.0146 -0.4048
  954TIP3    H1 2784   3.124   5.471   2.244  1.0969 -0.7485 -0.7091
  954TIP3    H2 2785   3.041   5.406   2.135 -0.0383  0.8207 -0.7952
  955TIP3   OH2 2786   2.659   2.158   0.322 -0.3061  0.3900  0.0834
  955TIP3    H1 2787   2.595   2.228   0.306 -0.3216  0.4538  0.4045
  955TIP3    H2 2788   2.743   2.195   0.295 -0.5489 -0.0738 -1.3536
  956TIP3   OH2 2789   6.122   5.813   4.901 -0.2421  0.1022  0.3568
  956TIP3    H1 2790   6.188   5.758   4.858  1.1239  0.9260  1.3567
  956TIP3    H2 2791   6.126   5.896   4.854  1.3167  1.0364  2.0970
  957TIP3   OH2 2792   4.109   4.322   0.972  0.4683 -0.4081  0.4252
  957TIP3    H1 2793   4.177   4.259   0.996  0.0205 -1.8015 -1.7617
  957TIP3    H2 2794   4.095   4.307   0.879 -0.7842  1.8830  0.2189
  958TIP3   OH2 2795   2.975   3.102   0.693  0.2185 -0.3282 -0.0717
  958TIP3    H1 2796   3.030   3.157   0.637 -0.8259  0.8657  0.0568
  958TIP3    H2 2797   2.927   3.046   0.633  0.5433 -0.3995 -0.2637
  959TIP3   OH2 2798   4.458   3.787   3.362  0.6408 -0.5187 -0.2342
  959TIP3    H1 2799   4.440   3.833   3.280 -2.1277  0.2095  0.7288
  959TIP3    H2 2800   4.543   3.745   3.348  0.9059  0.8199 -2.9194
  960TIP3   OH2 2801   3.581   2.457   0.962 -0.5071  0.8630 -0.4676
  960TIP3    H1 2802   3.504   2.513   0.976 -0.5093  0.3436  1.7808
  960TIP3    H2 2803   3.654   2.518   0.959 -0.7593  1.1764 -0.3390
  961TIP3   OH2 2804   5.340   3.983   0.859 -0.2371 -0.1639  0.7146
  961TIP3    H1 2805   5.406   3.921   0.827  0.1463  0.4026  0.4021
  961TIP3    H2 2806   5.333   4.048   0.789  0.0949  0.6984  1.4673
  962TIP3   OH2 2807   5.282   1.838   0.994  0.2357  0.1454 -0.4038
  962TIP3    H1 2808   5.206   1.782   1.011  0.1039 -0.3973 -2.6318
  962TIP3    H2 2809   5.357   1.784   1.017  0.0923 -0.8825 -2.2288
  963TIP3   OH2 2810   5.893   1.785   0.230 -0.3288 -0.3475  0.0676
  963TIP3    H1 2811   5.940   1.862   0.198  1.0559 -1.2066 -0.0411
  963TIP3    H2 2812   5.943   1.710   0.195 -0.8685 -1.2854  1.2542
  964TIP3   OH2 2813   0.465   1.678   2.910 -0.3755  0.3951 -0.1238
  964TIP3    H1 2814   0.465   1.717   2.997 -0.3858 -1.4091  0.6868
  964TIP3    H2 2815   0.557   1.659   2.892 -0.4652  0.0366 -0.1941
  965TIP3   OH2 2816   4.095   2.746   2.414 -0.3340  1.0517 -0.1936
  965TIP3    H1 2817   4.131   2.766   2.328  0.1061 -0.8413 -0.4674
  965TIP3    H2 2818   4.163   2.696   2.459 -1.5190 -0.1500  0.3172
  966TIP3   OH2 2819   3.635   2.899   1.035 -0.0524  0.3293 -0.4457
  966TIP3    H1 2820   3.563   2.952   1.070  0.0763  0.9179 -1.0490
  966TIP3    H2 2821   3.657   2.942   0.952 -0.4574 -1.1102 -1.3244
  967TIP3   OH2 2822   3.308   0.889   2.063  0.4339 -0.1149 -0.3701
  967TIP3    H1 2823   3.346   0.828   2.126  0.7576  1.9786  1.5162
  967TIP3    H2 2824   3.214   0.878   2.072  0.4539  1.0169  1.3581
  968TIP3   OH2 2825   2.391   2.417   2.415 -0.3271  0.2489 -0.2683
  968TIP3    H1 2826   2.340   2.480   2.466  0.2583 -0.3745  1.1056
  968TIP3    H2 2827   2.326   2.367   2.366 -0.9006  0.7689 -0.0477
  969TIP3   OH2 2828   3.224   2.277   2.060  0.2844 -0.5090 -0.1346
  969TIP3    H1 2829   3.131   2.293   2.042  0.1183 -1.6462 -0.3109
  969TIP3    H2 2830   3.233   2.292   2.154 -0.0614 -0.3298 -0.1277
  970TIP3   OH2 2831   6.023   3.043   0.328  0.0791 -0.2465  0.0095
  970TIP3    H1 2832   6.094   3.074   0.384  0.4747  0.6611 -0.9700
  970TIP3    H2 2833   6.057   2.964   0.286  0.1336 -0.3855  0.3154
  971TIP3   OH2 2834   3.344   6.066   0.686  0.2838 -0.8851 -0.3428
  971TIP3    H1 2835   3.320   5.974   0.693 -1.1904 -0.5465 -0.6769
  971TIP3    H2 2836   3.276   6.113   0.735  1.0127  0.0259 -0.1803
  972TIP3   OH2 2837   2.119   1.763   2.151 -0.3399 -0.1961  0.7084
  972TIP3    H1 2838   2.128   1.679   2.107  1.2759  0.0233  0.5990
  972TIP3    H2 2839   2.193   1.768   2.211 -1.8629  0.0435  2.5997
  973TIP3   OH2 2840   3.758   1.536   1.535 -1.0923 -0.6389  0.7249
  973TIP3    H1 2841   3.757   1.511   1.442  0.4087 -0.7679  0.7399
  973TIP3    H2 2842   3.752   1.453   1.582 -1.9677 -0.5662  0.7539
  974TIP3   OH2 2843   4.645   5.997   6.674 -0.3000  0.3439 -0.2783
  974TIP3    H1 2844   4.686   6.029   6.755  0.7893  0.4963 -0.8861
  974TIP3    H2 2845   4.595   6.072   6.642 -1.6484 -0.0644  0.8418
  975TIP3   OH2 2846   2.972   2.934   1.900  0.3587  0.2032  0.4625
  975TIP3    H1 2847   2.968   3.023   1.865 -0.3496 -0.3547 -0.9190
  975TIP3    H2 2848   2.894   2.891   1.865 -0.2362 -0.4799  2.5003
  976TIP3   OH2 2849   3.808   3.010   1.446  0.2171 -0.1507  0.0825
  976TIP3    H1 2850   3.811   3.004   1.541  0.7852 -1.3264 -0.0083
  976TIP3    H2 2851   3.715   3.003   1.425  0.0754  0.2617  0.5476
  977TIP3   OH2 2852   1.636   1.992   2.693 -0.3321 -0.2272  0.0094
  977TIP3    H1 2853   1.638   1.930   2.766 -0.3424  0.3410  0.4959
  977TIP3    H2 2854   1.674   2.072   2.728 -0.2397  0.0198 -0.6432
  978TIP3   OH2 2855   3.985   2.070   0.847  0.1369 -0.0328  0.0087
  978TIP3    H1 2856   3.939   2.068   0.931  0.5308  0.1774  0.2294
  978TIP3    H2 2857   3.915   2.070   0.781 -0.2560  3.1796  0.3639
  979TIP3   OH2 2858   1.549   6.420   0.674 -0.3574  0.2843  0.6564
  979TIP3    H1 2859   1.634   6.414   0.630 -0.0122 -0.0777  1.3490
  979TIP3    H2 2860   1.516   6.330   0.673 -0.9737  0.5114 -0.0638
  980TIP3   OH2 2861   3.900   2.234   2.914  0.2768  0.1731  0.5651
  980TIP3    H1 2862   3.868   2.281   2.837  2.0248  0.1152 -0.1978
  980TIP3    H2 2863   3.995   2.240   2.910  0.4052  0.8912  3.1818
  981TIP3   OH2 2864   4.148   2.289   2.150  0.5708 -0.0405  0.0041
  981TIP3    H1 2865   4.145   2.264   2.242  1.1954  0.3172  0.1212
  981TIP3    H2 2866   4.136   2.206   2.103  1.2246 -0.3677  0.4031
  982TIP3   OH2 2867   4.044   3.057   0.831  0.0658 -0.1949 -0.0144
  982TIP3    H1 2868   4.110   3.107   0.783 -0.8690 -1.2296 -2.4305
  982TIP3    H2 2869   4.042   2.971   0.788 -1.6938 -0.7265  1.0539
  983TIP3   OH2 2870   4.902   7.324   6.296  0.1450 -0.4707  0.5331
  983TIP3    H1 2871   4.847   7.294   6.224  1.3106  0.4957 -0.8024
  983TIP3    H2 2872   4.861   7.406   6.324 -0.5517 -1.0644  1.2619
  984TIP3   OH2 2873   5.729   8.118   6.823 -0.1719  0.3904 -0.4651
  984TIP3    H1 2874   5.784   8.051   6.781 -1.3160  0.0467 -1.4479
  984TIP3    H2 2875   5.664   8.140   6.757 -1.3844  0.5983  0.7774
  985TIP3   OH2 2876   1.241   2.279   1.245  0.2663 -0.4354 -0.3278
  985TIP3    H1 2877   1.276   2.202   1.289  0.3495 -0.5595 -0.6106
  985TIP3    H2 2878   1.149   2.281   1.272  0.9223  0.9898  1.9556
  986TIP3   OH2 2879   3.777   2.026   1.366 -0.4156 -0.0001 -0.3688
  986TIP3    H1 2880   3.724   1.957   1.407  0.4206  0.4143  1.4685
  986TIP3    H2 2881   3.713   2.081   1.319 -1.2848 -1.0230 -0.4017
  987TIP3   OH2 2882   4.961   1.353   1.204 -0.0301  0.7101  0.4441
  987TIP3    H1 2883   5.031   1.318   1.259  1.0582  1.8156 -0.1990
  987TIP3    H2 2884   4.970   1.306   1.121  0.0094  0.8978  0.3398
  988TIP3   OH2 2885   3.714   3.183   2.692  0.1553 -0.4458 -0.1609
  988TIP3    H1 2886   3.726   3.129   2.614  1.4976 -0.1436 -0.1796
  988TIP3    H2 2887   3.654   3.133   2.747 -2.7687  0.4889 -2.4324
  989TIP3   OH2 2888   4.105   2.700   1.596  0.1282 -0.0059 -0.0787
  989TIP3    H1 2889   4.014   2.691   1.624  0.1844 -0.1329  0.0658
  989TIP3    H2 2890   4.100   2.735   1.507 -0.0947 -1.0475 -0.4809
  990TIP3   OH2 2891   5.830   3.519   6.877 -0.1926  0.2311 -0.5166
  990TIP3    H1 2892   5.844   3.442   6.933  0.4150  0.1308 -0.7969
  990TIP3    H2 2893   5.735   3.526   6.868 -0.2648 -0.2368 -0.1425
  991TIP3   OH2 2894   2.192   3.780   0.258  0.3243  0.6397 -0.4919
  991TIP3    H1 2895   2.283   3.770   0.286  0.1097 -0.3310 -0.1086
  991TIP3    H2 2896   2.142   3.730   0.323 -0.3876  0.3214 -1.2877
  992TIP3   OH2 2897   6.250   8.204   6.959  0.1966  0.3417  0.1469
  992TIP3    H1 2898   6.195   8.211   6.881  0.1812  0.7747  0.1909
  992TIP3    H2 2899   6.191   8.224   7.032  0.2267  0.0059  0.2634
  993TIP3   OH2 2900   5.152   2.853   0.587 -0.5235  0.5261 -0.0191
  993TIP3    H1 2901   5.098   2.932   0.588 -1.6670 -0.2490  1.1504
  993TIP3    H2 2902   5.232   2.878   0.634 -1.5501  0.5383  1.7524
  994TIP3   OH2 2903   5.545   3.211   3.153  0.4586  0.0080 -0.1593
  994TIP3    H1 2904   5.582   3.240   3.069  1.2169 -1.0006 -0.1740
  994TIP3    H2 2905   5.452   3.231   3.145  0.3472 -1.0062 -1.6575
  995TIP3   OH2 2906   3.399   1.978   3.823 -0.1043  0.2521 -0.7300
  995TIP3    H1 2907   3.456   1.995   3.898 -0.9728  0.7237 -0.1557
  995TIP3    H2 2908   3.370   2.065   3.795 -2.0217 -0.0479  0.1853
  996TIP3   OH2 2909   8.729   3.493   1.564 -0.2159  1.0187 -0.0911
  996TIP3    H1 2910   8.797   3.458   1.506  0.6047 -1.4082  2.2347
  996TIP3    H2 2911   8.774   3.560   1.615  0.9286 -1.5613  2.4457
  997TIP3   OH2 2912   7.961   8.366   2.879 -0.3052 -0.3108 -0.3863
  997TIP3    H1 2913   7.874   8.333   2.901 -0.1843 -1.3610 -1.4764
  997TIP3    H2 2914   7.977   8.336   2.790 -0.0199  2.3656 -1.2892
  998TIP3   OH2 2915   3.393   5.432   2.842 -0.0753 -0.4468  0.2328
  998TIP3    H1 2916   3.401   5.504   2.904 -0.3398  0.9045 -1.2838
  998TIP3    H2 2917   3.451   5.456   2.769 -1.3200 -1.0213 -0.9697
  999TIP3   OH2 2918   6.949   5.422   0.601  0.0121  0.0449 -0.0262
  999TIP3    H1 2919   7.016   5.382   0.546  0.9871  0.0368  1.1383
  999TIP3    H2 2920   6.938   5.510   0.566  0.1161 -0.1958 -0.6657
 1000TIP3   OH2 2921   4.651   2.518   0.969 -0.3212 -0.5478 -0.2117
 1000TIP3    H1 2922   4.582   2.584   0.960 -0.1304 -0.3125  0.0119
 1000TIP3    H2 2923   4.730   2.561   0.935 -0.8477 -1.8252 -3.2073
 1001TIP3   OH2 2924   4.607   0.399   0.302  0.0435  0.5090 -0.8492
 1001TIP3    H1 2925   4.665   0.435   0.235  0.6506  0.3164 -0.4399
 1001TIP3    H2 2926   4.649   0.316   0.327 -0.4783  0.3120 -0.6370
 1002TIP3   OH2 2927   4.279   2.137   6.241  0.7429  0.3872  0.6208
 1002TIP3    H1 2928   4.287   2.190   6.321  0.7823  0.4876  0.5516
 1002TIP3    H2 2929   4.293   2.200   6.170 -0.8944  0.6108  0.4762
 1003TIP3   OH2 2930   2.471   3.620   3.135  0.1941  0.2934  0.5092
 1003TIP3    H1 2931   2.381   3.625   3.167  0.3667 -1.7535  1.3856
 1003TIP3    H2 2932   2.482   3.700   3.084 -2.2594  0.3905  0.0429
 1004TIP3   OH2 2933   3.501   6.001   0.473 -0.2805 -0.1194  0.6300
 1004TIP3    H1 2934   3.449   6.009   0.552  0.1103  1.3876  0.7520
 1004TIP3    H2 2935   3.441   6.026   0.402 -0.0770  0.4465  0.6531
 1005TIP3   OH2 2936   4.590   2.173   0.890 -0.2620  0.4899  0.3918
 1005TIP3    H1 2937   4.680   2.141   0.895 -0.1612  0.3044 -2.0712
 1005TIP3    H2 2938   4.598   2.268   0.892 -0.1490  0.4676  1.7380
 1006TIP3   OH2 2939   5.617   2.991   0.574  0.0167  0.1550 -0.3280
 1006TIP3    H1 2940   5.677   3.057   0.538  2.5373 -1.4485  0.8097
 1006TIP3    H2 2941   5.637   2.912   0.524  0.7170 -1.0694  1.8431
 1007TIP3   OH2 2942   8.333   5.738   6.382  0.2984  0.2310  0.3154
 1007TIP3    H1 2943   8.378   5.683   6.446 -0.3490  0.5135  1.0108
 1007TIP3    H2 2944   8.400   5.797   6.349  0.9820 -0.8870 -0.3547
 1008TIP3   OH2 2945   3.406   7.758   6.396 -0.2253  0.1725  0.1159
 1008TIP3    H1 2946   3.448   7.709   6.325 -0.1568  0.7787 -0.2586
 1008TIP3    H2 2947   3.339   7.811   6.353 -1.7189 -1.1184  0.7512
 1009TIP3   OH2 2948   1.397   0.143   6.693  0.1070  0.3519  0.3557
 1009TIP3    H1 2949   1.421   0.146   6.786  0.6147  0.9055  0.2012
 1009TIP3    H2 2950   1.340   0.066   6.687  2.3012 -1.3582  0.6072
 1010TIP3   OH2 2951   4.863   4.214   1.457  0.0598 -0.3191  0.5548
 1010TIP3    H1 2952   4.926   4.233   1.387  0.7895 -0.1889  1.2380
 1010TIP3    H2 2953   4.903   4.251   1.536 -1.3621  0.6807  0.8269
 1011TIP3   OH2 2954   5.531   4.851   2.457 -0.0940 -0.1209  0.1653
 1011TIP3    H1 2955   5.612   4.803   2.473 -0.8612 -1.2936  0.6015
 1011TIP3    H2 2956   5.480   4.793   2.400 -0.4070  0.8424 -0.5510
 1012TIP3   OH2 2957   3.779   4.109   0.837  0.3894  0.1726 -0.2128
 1012TIP3    H1 2958   3.825   4.174   0.889 -0.2096 -0.2656  0.8824
 1012TIP3    H2 2959   3.843   4.039   0.824  1.1562  1.1164 -1.7108
 1013TIP3   OH2 2960   5.478   4.629   1.827 -0.3386 -0.5196  0.6957
 1013TIP3    H1 2961   5.537   4.673   1.887 -0.4802 -1.0470  1.2250
 1013TIP3    H2 2962   5.392   4.667   1.845  0.3218  2.8264 -2.4905
 1014TIP3   OH2 2963   5.814   4.852   1.736 -0.3951 -0.1416  0.5312
 1014TIP3    H1 2964   5.857   4.798   1.670 -0.0604 -1.5884  1.9029
 1014TIP3    H2 2965   5.880   4.917   1.760  0.2609 -0.9652  0.9984
 1015TIP3   OH2 2966   5.877   2.099   1.911 -0.3272  0.0599  0.0246
 1015TIP3    H1 2967   5.815   2.147   1.965  0.0559  1.2423 -0.5827
 1015TIP3    H2 2968   5.960   2.105   1.958  0.5581  3.1276 -1.8383
 1016TIP3   OH2 2969   4.611   3.058   0.884  0.3441  0.3115  0.3863
 1016TIP3    H1 2970   4.662   3.139   0.894  0.6275 -0.0639  2.1000
 1016TIP3    H2 2971   4.588   3.033   0.973  0.7141 -1.7919 -0.0913
 1017TIP3   OH2 2972   1.676   7.952   6.851 -1.1608 -0.3749 -0.8583
 1017TIP3    H1 2973   1.675   7.900   6.931 -0.4421  1.5193  0.4398
 1017TIP3    H2 2974   1.721   7.898   6.787  0.8727 -0.7758  0.8581
 1018TIP3   OH2 2975   4.145   1.614   0.808  0.3867  0.1274  0.0768
 1018TIP3    H1 2976   4.228   1.661   0.807 -0.0108  0.8380 -0.1395
 1018TIP3    H2 2977   4.097   1.649   0.732  0.4824 -1.3468 -0.6772
 1019TIP3   OH2 2978   5.918   4.031  -0.019 -0.2334  0.2341  0.0283
 1019TIP3    H1 2979   6.012   4.017  -0.016  0.1597  2.6963  0.8500
 1019TIP3    H2 2980   5.886   4.000   0.066 -0.5579 -2.9666 -1.2333
 1020TIP3   OH2 2981   1.110   2.059   6.355  0.0327 -0.0382  0.2656
 1020TIP3    H1 2982   1.090   2.117   6.281 -0.3429 -0.4028  0.0798
 1020TIP3    H2 2983   1.148   1.981   6.315 -0.9886 -0.6012  0.3838
 1021TIP3   OH2 2984   4.922   4.209   1.014  0.1487 -0.0313 -0.5449
 1021TIP3    H1 2985   4.937   4.253   1.098  0.9529 -0.0972 -0.6449
 1021TIP3    H2 2986   4.829   4.185   1.015  0.0357  0.4305  0.1029
 1022TIP3   OH2 2987   4.450   4.073   0.987 -0.0862  0.7934  0.7463
 1022TIP3    H1 2988   4.440   4.149   1.045 -1.4019  1.6851 -0.5898
 1022TIP3    H2 2989   4.544   4.071   0.966  0.3225  0.7228  2.5224
 1023TIP3   OH2 2990   1.258   7.014   6.252  0.2092  0.3816  0.2405
 1023TIP3    H1 2991   1.258   6.973   6.166 -0.1889  1.9632 -0.5320
 1023TIP3    H2 2992   1.349   7.040   6.266  0.9264 -2.6554  1.6949
 1024TIP3   OH2 2993   4.492   3.749   2.398 -0.6288 -0.2541  0.4702
 1024TIP3    H1 2994   4.552   3.817   2.429 -0.9713 -0.2647  1.1600
 1024TIP3    H2 2995   4.548   3.674   2.380 -0.4170 -0.2300  1.0100
 1025TIP3   OH2 2996   5.756   3.834   0.680  0.4995  0.1523  0.3283
 1025TIP3    H1 2997   5.728   3.830   0.589  0.4726 -1.4347  0.3983
 1025TIP3    H2 2998   5.675   3.840   0.730  0.5251  1.3923  0.2532
 1026TIP3   OH2 2999   7.204   5.604   1.345 -0.1518  0.3062  0.2647
 1026TIP3    H1 3000   7.139   5.549   1.301 -0.3343 -0.1401  1.0776
 1026TIP3    H2 3001   7.265   5.630   1.276 -1.0873  0.5668 -0.4609
 1027TIP3   OH2 3002   3.586   4.416   0.321  0.0829 -0.2682  0.3021
 1027TIP3    H1 3003   3.521   4.487   0.316  1.3775  0.8463 -1.0207
 1027TIP3    H2 3004   3.598   4.401   0.414 -0.1854  1.2825  0.5942
 1028TIP3   OH2 3005   6.307   4.603   1.338  0.4944  0.3489  0.3219
 1028TIP3    H1 3006   6.228   4.561   1.304 -0.2864  2.2187 -0.2360
 1028TIP3    H2 3007   6.378   4.564   1.287 -0.3525  0.7514 -1.2053
 1029TIP3   OH2 3008   5.047   4.731   0.863 -0.0998 -0.2993  0.0965
 1029TIP3    H1 3009   4.964   4.772   0.837  0.7250  1.5665  0.2849
 1029TIP3    H2 3010   5.060   4.660   0.801 -2.0295 -0.8406  0.2916
 1030TIP3   OH2 3011   5.608   4.471   0.502 -0.7856  0.1067 -0.0514
 1030TIP3    H1 3012   5.594   4.499   0.411  1.4702  1.0036 -0.1527
 1030TIP3    H2 3013   5.636   4.550   0.548  0.8636 -0.9127  0.7622
 1031TIP3   OH2 3014   5.732   6.488   0.843  0.1192 -0.0591  0.2657
 1031TIP3    H1 3015   5.823   6.502   0.818  0.2951 -2.1722 -0.4023
 1031TIP3    H2 3016   5.731   6.399   0.879 -1.8013 -0.2864 -0.3280
 1032TIP3   OH2 3017   5.022   3.982   0.910 -0.3018  0.3005 -0.2554
 1032TIP3    H1 3018   5.013   4.060   0.964  2.0117 -0.2286  1.0005
 1032TIP3    H2 3019   5.116   3.977   0.891 -0.5065 -1.7944 -0.8764
 1033TIP3   OH2 3020   4.235   5.125   2.145  0.7897 -0.2441  0.5731
 1033TIP3    H1 3021   4.264   5.106   2.234 -0.0119  0.1383  0.9251
 1033TIP3    H2 3022   4.276   5.057   2.092  0.7747 -0.8561  1.3225
 1034TIP3   OH2 3023   5.160   2.345   2.406  0.0878  0.8500  0.5230
 1034TIP3    H1 3024   5.243   2.382   2.377 -0.4307  1.0454 -0.7681
 1034TIP3    H2 3025   5.095   2.384   2.348 -0.9036  0.6528  1.4792
 1035TIP3   OH2 3026   2.748   6.448   1.706  0.4631 -0.9184 -0.8642
 1035TIP3    H1 3027   2.735   6.361   1.743 -2.8054 -0.0076  0.3466
 1035TIP3    H2 3028   2.832   6.477   1.739  0.4538 -2.6521  0.7235
 1036TIP3   OH2 3029   6.626   3.890   1.590  0.1070  0.5096  0.3448
 1036TIP3    H1 3030   6.696   3.826   1.600  2.3184  2.7246 -0.6501
 1036TIP3    H2 3031   6.605   3.916   1.680 -0.4951 -1.2337  0.7294
 1037TIP3   OH2 3032   6.372   4.499   0.419 -0.3753  0.1342 -0.3907
 1037TIP3    H1 3033   6.288   4.545   0.412 -0.6256 -0.3362 -0.5065
 1037TIP3    H2 3034   6.418   4.521   0.338  1.1272  3.3556  1.2618
 1038TIP3   OH2 3035   0.317   0.437   6.409 -0.7442 -0.1934 -0.0444
 1038TIP3    H1 3036   0.381   0.427   6.481  0.2113 -1.1120 -0.9940
 1038TIP3    H2 3037   0.313   0.531   6.393  0.4250 -0.1316 -0.0162
 1039TIP3   OH2 3038   5.763   3.926   2.490 -0.4372  0.0759  0.0366
 1039TIP3    H1 3039   5.697   3.925   2.422  0.2856 -0.6084 -0.6785
 1039TIP3    H2 3040   5.790   3.834   2.497  1.8138  0.6153 -1.0680
 1040TIP3   OH2 3041   5.231   2.628   2.206 -0.5892  0.0795 -0.3482
 1040TIP3    H1 3042   5.219   2.680   2.126  2.0231  1.7213  0.2602
 1040TIP3    H2 3043   5.260   2.543   2.176  1.5719  1.0671 -1.1656
 1041TIP3   OH2 3044   5.277   2.238   0.440  0.0051 -0.5785 -0.4741
 1041TIP3    H1 3045   5.260   2.303   0.507  0.1299 -0.5423 -0.4765
 1041TIP3    H2 3046   5.372   2.225   0.443 -0.1490 -1.6499  0.3587
 1042TIP3   OH2 3047   6.035   5.641   2.330 -0.0297 -0.4113 -0.7192
 1042TIP3    H1 3048   5.961   5.679   2.378  1.0102  1.9365 -0.9264
 1042TIP3    H2 3049   5.994   5.591   2.260 -1.4625 -0.0953 -0.1365
 1043TIP3   OH2 3050   6.918   0.433   0.861 -0.1686  0.2829  0.5217
 1043TIP3    H1 3051   6.946   0.501   0.923 -0.5528 -0.7355  1.8212
 1043TIP3    H2 3052   6.929   0.351   0.909  0.9238 -0.6433 -1.2701
 1044TIP3   OH2 3053   6.401   2.502   0.819  0.1663  0.4502  0.0435
 1044TIP3    H1 3054   6.321   2.452   0.804  1.3066 -1.2248 -0.5787
 1044TIP3    H2 3055   6.373   2.594   0.817 -1.7410 -0.1239 -0.0517
 1045TIP3   OH2 3056   7.445   3.173   0.641  0.3402 -0.0985  0.7030
 1045TIP3    H1 3057   7.376   3.118   0.605  0.9626 -1.1655  1.1159
 1045TIP3    H2 3058   7.408   3.207   0.723  0.1264 -0.2853  0.6859
 1046TIP3   OH2 3059   4.194   3.831   0.394  1.0617  0.2607  0.6925
 1046TIP3    H1 3060   4.144   3.912   0.410  0.3411 -0.3146  1.3743
 1046TIP3    H2 3061   4.156   3.767   0.455  2.2133 -0.3561  0.7705
 1047TIP3   OH2 3062   5.888   4.371   0.921 -0.5870 -0.3955 -0.4997
 1047TIP3    H1 3063   5.846   4.309   0.862 -2.3365  0.4708 -0.2210
 1047TIP3    H2 3064   5.888   4.328   1.007 -0.5309 -0.5650 -0.5862
 1048TIP3   OH2 3065   4.513   1.582   1.224  0.2110  0.1274 -0.0724
 1048TIP3    H1 3066   4.449   1.525   1.182  0.2151 -0.1491  0.2910
 1048TIP3    H2 3067   4.596   1.536   1.216  0.3686  0.4873 -0.5439
 1049TIP3   OH2 3068   5.757   5.135   1.436  0.8140 -0.8501  0.4048
 1049TIP3    H1 3069   5.833   5.078   1.432 -0.0254 -2.0184  0.8878
 1049TIP3    H2 3070   5.713   5.112   1.518 -0.8761 -1.2545 -0.5773
 1050TIP3   OH2 3071   4.470   4.865   0.087 -0.4887  0.5055  0.3439
 1050TIP3    H1 3072   4.533   4.929   0.120 -0.8504  0.2812  1.4899
 1050TIP3    H2 3073   4.524   4.799   0.043 -0.0485  1.1061 -0.0241
 1051TIP3   OH2 3074   2.495   2.012   2.998  0.0426  0.5770 -0.6134
 1051TIP3    H1 3075   2.468   1.960   3.074 -2.1337  0.5910 -1.3407
 1051TIP3    H2 3076   2.502   2.101   3.031  3.5472 -0.0680  0.5853
 1052TIP3   OH2 3077   6.854   6.306   6.625  0.2053  0.6415  0.0949
 1052TIP3    H1 3078   6.820   6.366   6.692 -0.7315 -0.2863  0.4765
 1052TIP3    H2 3079   6.798   6.321   6.549  1.1924  1.6090 -0.4521
 1053TIP3   OH2 3080   7.473   5.644   6.250 -0.1751  0.2530  0.4742
 1053TIP3    H1 3081   7.493   5.679   6.337  1.0453  0.7386  0.0116
 1053TIP3    H2 3082   7.391   5.596   6.262  0.2795 -0.1879  2.0231
 1054TIP3   OH2 3083   7.103   3.785   1.243  0.4176  0.4312 -0.0539
 1054TIP3    H1 3084   7.158   3.802   1.166 -0.4781  1.8462 -0.3967
 1054TIP3    H2 3085   7.014   3.781   1.208  0.0703  0.4093  0.8282
 1055TIP3   OH2 3086   4.431   4.030   0.664  0.0710 -0.1062 -0.3848
 1055TIP3    H1 3087   4.403   4.122   0.666  1.8496  0.4786 -0.7844
 1055TIP3    H2 3088   4.462   4.017   0.574  1.1849 -0.6593  0.0728
 1056TIP3   OH2 3089   6.005   4.193   7.248  0.2763  0.1371  0.0052
 1056TIP3    H1 3090   6.088   4.241   7.244  0.8680 -0.8215  0.5074
 1056TIP3    H2 3091   5.969   4.199   7.160  2.1220 -1.5911 -0.9185
 1057TIP3   OH2 3092   7.061   3.556   0.905 -0.0496 -0.0669 -0.3902
 1057TIP3    H1 3093   7.003   3.563   0.981  0.3548 -1.1015  0.0184
 1057TIP3    H2 3094   7.149   3.553   0.942  0.1380 -0.7968 -0.8847
 1058TIP3   OH2 3095   0.568   3.459   1.309 -0.0562  0.1292  0.2739
 1058TIP3    H1 3096   0.545   3.544   1.347 -0.3442  1.2624 -2.3543
 1058TIP3    H2 3097   0.511   3.396   1.354  0.0721  1.3170  2.1470
 1059TIP3   OH2 3098   4.055   2.059   1.998 -0.5954 -0.3095 -0.0513
 1059TIP3    H1 3099   3.984   2.036   2.058 -0.7366  0.3247  0.0231
 1059TIP3    H2 3100   4.037   2.007   1.919 -1.9136  0.8550 -0.5457
 1060TIP3   OH2 3101   6.056   4.261   0.444 -0.2448  0.3728  0.4287
 1060TIP3    H1 3102   6.062   4.174   0.484 -1.6309  0.1012  0.0828
 1060TIP3    H2 3103   6.146   4.282   0.418  0.3339 -0.3368  1.8015
 1061TIP3   OH2 3104   6.504   3.762   1.370  0.4411 -0.3213 -0.6616
 1061TIP3    H1 3105   6.539   3.791   1.455 -0.9751  0.7016 -0.4178
 1061TIP3    H2 3106   6.459   3.680   1.389  0.7439 -0.4633 -0.5559
 1062TIP3   OH2 3107   1.214   7.354   7.278 -0.0234  0.6593 -0.1096
 1062TIP3    H1 3108   1.202   7.427   7.217 -0.1922 -0.6355 -1.6458
 1062TIP3    H2 3109   1.148   7.290   7.253  0.4272 -0.2379  0.9356
 1063TIP3   OH2 3110   4.205   2.181   1.403  0.3735  0.2253  0.4159
 1063TIP3    H1 3111   4.280   2.210   1.456  1.0149  0.4362 -0.5835
 1063TIP3    H2 3112   4.130   2.191   1.461  1.2712 -1.1865  1.8558
 1064TIP3   OH2 3113   3.734   2.668   0.937 -0.0170 -0.0557 -0.6985
 1064TIP3    H1 3114   3.690   2.734   0.990  1.2065 -1.2284  1.8401
 1064TIP3    H2 3115   3.733   2.704   0.848 -0.6464  2.6962  0.3846
 1065TIP3   OH2 3116   6.442   5.396   3.585 -0.1767  0.1487 -0.2848
 1065TIP3    H1 3117   6.454   5.491   3.575 -0.4747  0.0435 -1.8006
 1065TIP3    H2 3118   6.411   5.385   3.675  2.1872  1.2665  0.7405
 1066TIP3   OH2 3119   5.653   1.321   0.286 -0.0212 -0.0724  0.0309
 1066TIP3    H1 3120   5.736   1.331   0.331  0.1986 -0.5097 -0.2769
 1066TIP3    H2 3121   5.635   1.227   0.288  1.0016 -0.3502 -2.5972
 1067TIP3   OH2 3122   5.006   4.500   0.631  0.1278 -0.1862 -0.3533
 1067TIP3    H1 3123   4.913   4.484   0.613  0.1439 -0.6635 -0.0373
 1067TIP3    H2 3124   5.040   4.413   0.655  0.6304  0.0073 -0.3771
 1068TIP3   OH2 3125   4.738   3.661   0.886 -0.0041  0.3355 -0.4562
 1068TIP3    H1 3126   4.747   3.753   0.912 -3.2293  0.5657  0.0259
 1068TIP3    H2 3127   4.812   3.617   0.928  0.4822  2.3918  0.9279
 1069TIP3   OH2 3128   4.406   2.831   2.705  0.3324  0.1227  0.1172
 1069TIP3    H1 3129   4.453   2.914   2.711  1.6118 -0.5257 -0.7782
 1069TIP3    H2 3130   4.370   2.829   2.616  1.2539 -0.7790 -0.2429
 1070TIP3   OH2 3131   5.222   4.761   1.808  0.2820 -0.2739  0.2356
 1070TIP3    H1 3132   5.268   4.792   1.730  0.1019 -0.5348  0.0235
 1070TIP3    H2 3133   5.243   4.825   1.876 -0.9990  0.9596 -0.4835
 1071TIP3   OH2 3134   3.367   2.164   0.927  0.0185  0.2532 -0.1117
 1071TIP3    H1 3135   3.289   2.219   0.925  0.5490  1.0320  0.2529
 1071TIP3    H2 3136   3.352   2.104   1.000  0.3236  1.2603  0.7980
 1072TIP3   OH2 3137   6.370   2.742   1.474 -0.5462 -0.1612  0.5114
 1072TIP3    H1 3138   6.435   2.761   1.406 -1.0965  3.0053  0.8001
 1072TIP3    H2 3139   6.422   2.712   1.549  0.2886 -0.8319 -0.3192
 1073TIP3   OH2 3140   6.965   8.082   7.001  0.3855 -0.2519  0.2799
 1073TIP3    H1 3141   6.989   7.989   7.002  0.1945 -0.3023  0.2554
 1073TIP3    H2 3142   6.902   8.089   6.930 -2.1614 -0.7438  2.4179
 1074TIP3   OH2 3143   2.380   1.541   6.019  0.1245  0.2784 -0.3708
 1074TIP3    H1 3144   2.419   1.604   5.958  1.3308  0.1559  0.2563
 1074TIP3    H2 3145   2.293   1.523   5.983  1.1932 -0.5505 -2.6117
 1075TIP3   OH2 3146   3.590   0.349   6.802 -0.3307 -0.4745  0.5061
 1075TIP3    H1 3147   3.567   0.371   6.712 -0.5444  0.5519  0.7960
 1075TIP3    H2 3148   3.631   0.429   6.836  0.7320 -1.2131  0.9864
 1076TIP3   OH2 3149   4.227   3.918   4.255 -0.3823  0.3253 -0.5556
 1076TIP3    H1 3150   4.148   3.970   4.273 -0.6296 -0.3776  0.4256
 1076TIP3    H2 3151   4.210   3.833   4.296  1.4429  0.6051  0.8707
 1077TIP3   OH2 3152   6.680   4.788   7.089 -0.0794  0.0521 -0.1145
 1077TIP3    H1 3153   6.690   4.843   7.167  0.2476  1.9304 -1.4416
 1077TIP3    H2 3154   6.694   4.848   7.016  0.5438 -1.8677 -1.6067
 1078TIP3   OH2 3155   6.558   3.077  -0.000 -0.1892 -0.0099 -0.1253
 1078TIP3    H1 3156   6.547   2.983  -0.012  0.2739 -0.0859  0.0390
 1078TIP3    H2 3157   6.543   3.092   0.093  0.9469 -0.0965  0.0777
 1079TIP3   OH2 3158   1.737   1.566   6.951 -0.5025  0.2286  0.0218
 1079TIP3    H1 3159   1.669   1.531   7.009 -1.5113 -0.0162 -1.2757
 1079TIP3    H2 3160   1.736   1.660   6.968 -1.5901  0.3033 -0.4223
 1080TIP3   OH2 3161   5.254   3.679   0.957  0.6042 -0.1994  0.5826
 1080TIP3    H1 3162   5.305   3.638   0.887  0.4053  0.7884 -0.1602
 1080TIP3    H2 3163   5.300   3.760   0.976 -0.7183  0.7402 -0.1580
 1081TIP3   OH2 3164   4.713   4.735   3.068 -0.0625 -0.4139 -0.4794
 1081TIP3    H1 3165   4.793   4.721   3.016  0.6835 -0.8563  0.7805
 1081TIP3    H2 3166   4.722   4.677   3.143 -1.5086 -0.3485 -0.2337
 1082TIP3   OH2 3167   3.736   3.853   0.039 -0.0162  0.1127 -0.0992
 1082TIP3    H1 3168   3.667   3.888   0.095  0.2536 -0.5421  0.6541
 1082TIP3    H2 3169   3.817   3.889   0.074  0.1593 -0.3286 -0.0419
 1083TIP3   OH2 3170   4.944   1.827   0.838 -0.0089  0.6991  0.2708
 1083TIP3    H1 3171   4.999   1.811   0.914  0.2223  0.5002  0.0613
 1083TIP3    H2 3172   4.866   1.773   0.852  0.9955 -1.0182 -0.6853
 1084TIP3   OH2 3173   7.421   1.259   1.782  0.3817 -0.4052 -0.2883
 1084TIP3    H1 3174   7.482   1.283   1.851 -0.6115  1.2894  0.0317
 1084TIP3    H2 3175   7.335   1.278   1.818 -0.2130 -0.5976 -1.5667
 1085TIP3   OH2 3176   0.185   6.633   7.221 -0.0792 -0.1448  0.0515
 1085TIP3    H1 3177   0.096   6.604   7.242  0.1718 -2.3955 -1.7516
 1085TIP3    H2 3178   0.242   6.574   7.271  0.4230  1.0722  0.9427
 1086TIP3   OH2 3179   3.382   0.980   6.218  0.1163  0.1479 -0.0666
 1086TIP3    H1 3180   3.400   1.064   6.261 -1.3186  0.7803 -0.6828
 1086TIP3    H2 3181   3.287   0.971   6.221  0.2452 -1.3570 -0.2133
 1087TIP3   OH2 3182   6.533   3.985   0.285  0.6637 -0.5637 -0.5113
 1087TIP3    H1 3183   6.627   3.979   0.304  0.5388 -1.3702 -0.1061
 1087TIP3    H2 3184   6.495   3.909   0.329 -0.3830  0.5446  0.5263
 1088TIP3   OH2 3185   2.631   2.912   0.108  0.3984  0.6155  0.6152
 1088TIP3    H1 3186   2.665   2.909   0.019  0.2925  1.2986  0.5525
 1088TIP3    H2 3187   2.536   2.921   0.097  0.4260  1.1207  0.7981
 1089TIP3   OH2 3188   6.746   4.759   2.980  0.4075  0.1328  0.3145
 1089TIP3    H1 3189   6.680   4.756   3.050 -1.0581 -2.7749 -1.1104
 1089TIP3    H2 3190   6.715   4.826   2.920  0.5871  1.1721  1.3499
 1090TIP3   OH2 3191   6.129   5.659   0.447 -0.0571 -0.0360  0.5797
 1090TIP3    H1 3192   6.065   5.701   0.504 -0.7207  0.4635 -0.5213
 1090TIP3    H2 3193   6.113   5.697   0.361  0.7656 -0.9654  0.0078
 1091TIP3   OH2 3194   6.127   5.367   5.492 -0.0383  0.3301 -0.5993
 1091TIP3    H1 3195   6.096   5.305   5.557 -0.4189  0.9953 -0.1415
 1091TIP3    H2 3196   6.135   5.316   5.411 -1.2501 -0.0975 -0.4502
 1092TIP3   OH2 3197   4.182   1.602   6.934  0.2296  0.0028  0.0946
 1092TIP3    H1 3198   4.213   1.542   6.867 -0.0066 -0.0663  0.0486
 1092TIP3    H2 3199   4.117   1.657   6.890 -0.6199 -0.6622  0.5012
 1093TIP3   OH2 3200   4.571   2.084   0.071  0.2843 -0.0996  0.8336
 1093TIP3    H1 3201   4.594   2.068   0.163 -2.2485 -0.7496  1.4191
 1093TIP3    H2 3202   4.509   2.157   0.075 -0.0837 -0.3415 -0.3294
 1094TIP3   OH2 3203   8.280   6.146   6.954  0.4645  0.5724  0.6175
 1094TIP3    H1 3204   8.260   6.064   7.001 -0.6051  0.6968  0.3761
 1094TIP3    H2 3205   8.315   6.117   6.870 -2.4329  0.3466 -0.5504
 1095TIP3   OH2 3206   4.294   4.517   1.962  0.2716  0.2946 -0.2063
 1095TIP3    H1 3207   4.326   4.428   1.974  0.4112  0.4204  0.3751
 1095TIP3    H2 3208   4.354   4.571   2.014 -0.1070  0.6694 -0.1605
 1096TIP3   OH2 3209   5.611   2.399   0.867 -0.0728 -0.2147 -0.3166
 1096TIP3    H1 3210   5.593   2.461   0.796 -0.4335 -1.1128 -1.0279
 1096TIP3    H2 3211   5.547   2.419   0.935  0.3692  0.7465 -0.1861
 1097TIP3   OH2 3212   4.041   2.419   1.573 -0.4967  0.1956  0.1977
 1097TIP3    H1 3213   4.040   2.409   1.478  1.8824  0.0531  0.1599
 1097TIP3    H2 3214   4.090   2.499   1.588  0.5786 -0.6638  1.3596
 1098TIP3   OH2 3215   4.482   4.531   0.796  0.1870 -0.0242 -0.3699
 1098TIP3    H1 3216   4.422   4.587   0.748 -0.6100  0.7074  1.4127
 1098TIP3    H2 3217   4.469   4.555   0.888 -0.2130 -3.1863  0.4589
 1099TIP3   OH2 3218   5.748   5.779   0.118  0.4930  0.0596 -0.5367
 1099TIP3    H1 3219   5.835   5.785   0.079  0.2770 -3.0851 -1.6373
 1099TIP3    H2 3220   5.687   5.793   0.046  0.0531  2.1895  0.2169
 1100TIP3   OH2 3221   6.609   3.428   1.459  0.4019  1.0460 -0.5311
 1100TIP3    H1 3222   6.524   3.470   1.446 -0.3461 -0.0518  0.7022
 1100TIP3    H2 3223   6.597   3.373   1.537  1.6861 -0.5626 -1.4424
 1101TIP3   OH2 3224   6.524   4.217   1.105 -0.4785 -0.2847  0.6726
 1101TIP3    H1 3225   6.473   4.210   1.186 -0.4231 -0.7168  0.6721
 1101TIP3    H2 3226   6.517   4.309   1.080 -0.8933 -0.2524  0.9099
 1102TIP3   OH2 3227   4.603   5.216   3.148 -0.3660 -0.0410 -0.7152
 1102TIP3    H1 3228   4.531   5.238   3.206  1.1495  0.4298  1.0346
 1102TIP3    H2 3229   4.667   5.286   3.161  1.0635 -1.2429 -1.0768
 1103TIP3   OH2 3230   5.454   3.648   1.249  0.6199  0.4656 -0.2383
 1103TIP3    H1 3231   5.443   3.578   1.184 -0.9130 -0.1461  0.6305
 1103TIP3    H2 3232   5.532   3.623   1.298 -0.4785 -1.2143  0.7210
 1104TIP3   OH2 3233   6.918   3.130   1.238 -0.5415 -0.3164 -0.3150
 1104TIP3    H1 3234   6.849   3.192   1.215  0.7232  1.2447 -0.0093
 1104TIP3    H2 3235   6.988   3.147   1.174  0.8713  0.4202  1.3694
 1105TIP3   OH2 3236   4.267   1.800   0.217  0.3696  0.4274  0.4108
 1105TIP3    H1 3237   4.270   1.879   0.164  0.4443 -0.3395 -0.7423
 1105TIP3    H2 3238   4.331   1.742   0.177  0.2173 -0.2702  1.1652
 1106TIP3   OH2 3239   3.579   3.588   0.631 -0.2620 -0.1162  0.4460
 1106TIP3    H1 3240   3.509   3.642   0.668  1.2540  2.3936 -0.2140
 1106TIP3    H2 3241   3.639   3.574   0.704 -0.5366 -0.7496  0.5564
 1107TIP3   OH2 3242   8.236   2.803   2.569 -0.5551 -0.8848  0.5999
 1107TIP3    H1 3243   8.257   2.732   2.509 -0.4138  0.0238 -0.4520
 1107TIP3    H2 3244   8.284   2.783   2.649  3.1221  0.3067 -1.1782
 1108TIP3   OH2 3245   3.787   2.056   0.660  0.0489  0.2022 -0.4569
 1108TIP3    H1 3246   3.813   1.990   0.596  2.4065  1.4259 -0.8599
 1108TIP3    H2 3247   3.754   2.129   0.608 -1.9728 -0.3886 -0.0449
 1109TIP3   OH2 3248   3.765   4.105   1.752  0.0034 -0.0846  0.6957
 1109TIP3    H1 3249   3.709   4.181   1.741  1.8816  1.1528 -0.5825
 1109TIP3    H2 3250   3.810   4.119   1.836 -0.4808 -0.3464  1.0010
 1110TIP3   OH2 3251   4.546   1.657   0.678 -0.0901 -0.1183  0.4587
 1110TIP3    H1 3252   4.519   1.568   0.703 -0.9507 -0.2956 -1.0413
 1110TIP3    H2 3253   4.482   1.714   0.720  1.1037 -0.1077  2.3397
 1111TIP3   OH2 3254   4.446   2.751   0.185  0.0928 -0.3088 -0.2877
 1111TIP3    H1 3255   4.413   2.666   0.215 -0.6064  0.6381  1.7260
 1111TIP3    H2 3256   4.497   2.784   0.258  2.3247 -0.0017 -1.9332
 1112TIP3   OH2 3257   7.648   6.775   7.109 -0.5007 -0.5720 -0.2751
 1112TIP3    H1 3258   7.690   6.732   7.183  1.1183 -0.4219 -1.0724
 1112TIP3    H2 3259   7.614   6.857   7.145  0.1148 -0.5832  0.3381
 1113TIP3   OH2 3260   4.789   1.207   2.752 -0.4475 -0.3942  0.7059
 1113TIP3    H1 3261   4.706   1.252   2.738 -0.4632 -0.2315  1.3368
 1113TIP3    H2 3262   4.797   1.198   2.847  0.4470 -0.0410  0.6737
 1114TIP3   OH2 3263   5.907   6.332   6.406 -0.7110 -0.0101 -0.3104
 1114TIP3    H1 3264   5.845   6.404   6.402 -3.3478 -2.1038  1.1115
 1114TIP3    H2 3265   5.881   6.274   6.335  0.2706 -0.3984 -0.3555
 1115TIP3   OH2 3266   6.785   3.741   0.568  0.8199 -0.5364  0.4547
 1115TIP3    H1 3267   6.835   3.800   0.512 -0.7161  0.8588  0.5014
 1115TIP3    H2 3268   6.708   3.718   0.515  0.2774 -0.6705  1.3002
 1116TIP3   OH2 3269   6.146   2.226   0.126  0.3455 -0.3463 -0.7906
 1116TIP3    H1 3270   6.240   2.239   0.143  0.2503 -1.4056  0.6204
 1116TIP3    H2 3271   6.144   2.164   0.053  0.7571 -1.4518  0.1168
 1117TIP3   OH2 3272   5.586   6.721   6.336 -0.4133 -0.3351  0.3801
 1117TIP3    H1 3273   5.532   6.763   6.402  1.3364  0.3405  1.3931
 1117TIP3    H2 3274   5.594   6.630   6.365 -0.3713 -0.2505  0.6278
 1118TIP3   OH2 3275   4.434   3.966   0.379  0.4932  0.3991  0.3231
 1118TIP3    H1 3276   4.359   3.909   0.396  0.3195  0.3512 -0.5981
 1118TIP3    H2 3277   4.407   4.021   0.306  1.1686  0.7372  0.3206
 1119TIP3   OH2 3278   4.046   4.024   0.778 -0.0248 -0.0855  0.7399
 1119TIP3    H1 3279   4.122   3.971   0.804 -1.0774 -2.4496 -0.8521
 1119TIP3    H2 3280   4.084   4.099   0.732  1.5000  0.6941  3.1694
 1120TIP3   OH2 3281   4.978   5.478   0.280  0.0223 -0.1014  0.0177
 1120TIP3    H1 3282   4.950   5.390   0.308  1.0964 -0.8476 -1.1858
 1120TIP3    H2 3283   4.927   5.538   0.335 -0.8968 -1.4731  0.6987
 1121TIP3   OH2 3284   5.362   4.132   2.525 -0.5596  0.3861 -0.4037
 1121TIP3    H1 3285   5.373   4.119   2.431 -0.4678 -1.5853 -0.1418
 1121TIP3    H2 3286   5.273   4.168   2.534 -0.7224  0.1855 -1.1977
 1122TIP3   OH2 3287   6.447   5.132   1.430 -0.1607  0.2203  0.8098
 1122TIP3    H1 3288   6.501   5.072   1.378 -1.2739  0.5550 -0.7706
 1122TIP3    H2 3289   6.375   5.079   1.462 -1.2716  0.7379 -0.7818
 1123TIP3   OH2 3290   1.164   1.779   6.331 -0.1099  0.9839  0.2671
 1123TIP3    H1 3291   1.077   1.745   6.352  0.3499  0.7434  1.7656
 1123TIP3    H2 3292   1.201   1.714   6.272 -0.3462  0.3195  0.8473
 1124TIP3   OH2 3293   8.849   7.220   7.205 -0.0061  0.0556  0.3228
 1124TIP3    H1 3294   8.942   7.231   7.227 -0.1503 -0.9217  1.4778
 1124TIP3    H2 3295   8.803   7.271   7.271 -0.4026 -2.0215  1.7157
 1125TIP3   OH2 3296   7.536   5.387   6.140 -0.1104  0.2016 -0.7257
 1125TIP3    H1 3297   7.453   5.342   6.156 -0.1365  0.2823 -0.6324
 1125TIP3    H2 3298   7.518   5.479   6.162  0.3174  0.0295  0.3850
 1126TIP3   OH2 3299   6.038   5.286   2.222  0.4776 -0.4440  0.0271
 1126TIP3    H1 3300   6.102   5.222   2.255 -0.5262 -1.3289  0.2973
 1126TIP3    H2 3301   5.965   5.281   2.284 -1.8281 -2.7476 -2.7219
 1127TIP3   OH2 3302   5.579   3.588   2.423 -0.2759 -1.0738 -0.2961
 1127TIP3    H1 3303   5.505   3.605   2.481  0.8047  0.5373  0.6565
 1127TIP3    H2 3304   5.556   3.507   2.377 -4.0746  1.0867 -2.4055
 1128TIP3   OH2 3305   2.951   1.257   6.587  0.3630  0.1295 -0.1154
 1128TIP3    H1 3306   3.022   1.319   6.568 -0.9888  2.3660  1.8050
 1128TIP3    H2 3307   2.980   1.210   6.665  0.4758 -0.1776 -0.3421
 1129TIP3   OH2 3308   6.692   2.888   2.159  0.0043  0.4222 -0.1750
 1129TIP3    H1 3309   6.677   2.795   2.180 -1.7657  0.9577  1.0912
 1129TIP3    H2 3310   6.709   2.889   2.065 -0.2063 -1.1715 -0.2496
 1130TIP3   OH2 3311   4.821   1.900   1.460 -0.2250  0.5533 -0.0296
 1130TIP3    H1 3312   4.863   1.917   1.376  0.0057 -0.8509 -0.2034
 1130TIP3    H2 3313   4.789   1.986   1.488  0.1631  1.1232 -1.2906
 1131TIP3   OH2 3314   4.390   0.629   7.136  0.1010 -0.4301 -0.6005
 1131TIP3    H1 3315   4.480   0.605   7.158  0.4086  0.4737 -0.8638
 1131TIP3    H2 3316   4.340   0.548   7.148  0.7092 -0.6083  0.8907
 1132TIP3   OH2 3317   7.671   4.027   0.940  0.2931 -0.2847 -0.1071
 1132TIP3    H1 3318   7.662   3.975   0.860 -0.7187  0.3544 -0.4214
 1132TIP3    H2 3319   7.586   4.070   0.950  1.6087  2.5953 -0.7520
 1133TIP3   OH2 3320   3.771   5.050   2.800 -0.4958 -0.2200 -0.0876
 1133TIP3    H1 3321   3.850   5.053   2.854 -0.7553 -0.6551  0.3209
 1133TIP3    H2 3322   3.723   5.130   2.822  0.1986  0.4245 -0.9025
 1134TIP3   OH2 3323   6.070   2.140   0.935 -0.5463 -0.5411  0.4277
 1134TIP3    H1 3324   6.138   2.146   1.002 -0.5118 -0.3283  0.3769
 1134TIP3    H2 3325   6.089   2.059   0.888  2.0336  1.3935 -2.0922
 1135TIP3   OH2 3326   6.617   2.460   0.945  0.1575 -0.2544  0.0781
 1135TIP3    H1 3327   6.672   2.537   0.930  0.8068 -0.9731 -1.2896
 1135TIP3    H2 3328   6.534   2.481   0.903  0.3278 -0.3011 -0.2780
 1136TIP3   OH2 3329   3.987   3.651   0.767  0.2489  0.7177 -0.1893
 1136TIP3    H1 3330   4.029   3.625   0.685  0.9348 -0.8781  0.6605
 1136TIP3    H2 3331   4.036   3.605   0.835 -0.0147  2.3855  1.1739
 1137TIP3   OH2 3332   3.407   2.483   1.950 -0.2692 -0.3816 -0.4888
 1137TIP3    H1 3333   3.344   2.552   1.927  0.1429  0.6562  1.3353
 1137TIP3    H2 3334   3.358   2.424   2.007 -0.5625 -1.4903 -1.8895
 1138TIP3   OH2 3335   3.444   4.343   1.988  0.5287 -0.0029  0.2093
 1138TIP3    H1 3336   3.493   4.416   2.025  2.3769 -0.9084 -0.4066
 1138TIP3    H2 3337   3.363   4.340   2.040  1.9233  0.3888  2.4710
 1139TIP3   OH2 3338   4.964   3.658   0.436 -0.3555  0.7251  0.2586
 1139TIP3    H1 3339   4.920   3.630   0.356 -0.1045 -0.2205  0.4358
 1139TIP3    H2 3340   5.039   3.710   0.405  1.1984 -1.7113 -0.2592
 1140TIP3   OH2 3341   5.051   4.196   2.302  0.0076 -0.3171 -0.3922
 1140TIP3    H1 3342   5.054   4.238   2.387  0.4164 -0.8135 -0.1604
 1140TIP3    H2 3343   5.142   4.187   2.275 -0.1289  0.0926 -1.0131
 1141TIP3   OH2 3344   3.477   5.025   2.550  0.2254  0.2386  0.1409
 1141TIP3    H1 3345   3.566   5.056   2.532  0.5435 -0.6731  0.1278
 1141TIP3    H2 3346   3.426   5.055   2.475  1.1915 -2.0487 -1.4675
 1142TIP3   OH2 3347   5.805   4.666   0.924 -0.1655  0.4741 -0.6679
 1142TIP3    H1 3348   5.784   4.752   0.962 -0.6262 -0.7707  2.0139
 1142TIP3    H2 3349   5.720   4.622   0.918  0.2994 -0.4567 -0.3764
 1143TIP3   OH2 3350   5.606   4.228   0.908  0.6186  0.5324  0.0054
 1143TIP3    H1 3351   5.566   4.202   0.991  0.7925 -0.7210 -0.3035
 1143TIP3    H2 3352   5.560   4.309   0.885  0.4944  0.8375  1.2646
 1144TIP3   OH2 3353   0.575   0.561   4.958 -0.4389  0.3250  0.5388
 1144TIP3    H1 3354   0.667   0.534   4.967 -0.6280 -0.5281 -0.1031
 1144TIP3    H2 3355   0.557   0.610   5.038  0.1855 -0.6405  1.2790
 1145TIP3   OH2 3356   4.941   6.334   2.025 -0.1537 -0.0412 -0.2768
 1145TIP3    H1 3357   4.990   6.278   1.965 -4.0931 -0.9118 -2.8642
 1145TIP3    H2 3358   4.879   6.274   2.068 -1.4964  1.6026  0.1274
 1146TIP3   OH2 3359   6.933   4.613   1.266  0.2939 -0.7053  0.4486
 1146TIP3    H1 3360   6.874   4.665   1.211  0.9775  1.3707  1.6230
 1146TIP3    H2 3361   6.879   4.587   1.341  0.1515 -1.0939  0.2145
 1147TIP3   OH2 3362   6.560   5.332   0.381 -0.2212  0.0528  0.1461
 1147TIP3    H1 3363   6.559   5.414   0.331  0.8476 -0.0311 -0.0206
 1147TIP3    H2 3364   6.621   5.349   0.453 -0.5918 -0.3413  0.5535
 1148TIP3   OH2 3365   2.527   0.535   7.071 -0.2068 -0.3874  0.2941
 1148TIP3    H1 3366   2.577   0.454   7.059 -0.5271 -0.6818  0.9558
 1148TIP3    H2 3367   2.541   0.558   7.163  0.1624  0.4953  0.0178
 1149TIP3   OH2 3368   3.949   2.994   1.075 -0.5077 -0.0806  0.9168
 1149TIP3    H1 3369   3.942   3.077   1.123  2.1529 -0.1146  1.4197
 1149TIP3    H2 3370   3.998   3.016   0.996  0.3041 -1.1829  1.1030
 1150TIP3   OH2 3371   5.358   6.163   0.659 -0.5042 -0.0112 -0.4208
 1150TIP3    H1 3372   5.330   6.144   0.569  0.1625  0.3598 -0.7106
 1150TIP3    H2 3373   5.424   6.097   0.678 -1.3809 -0.7273  0.1705
 1151TIP3   OH2 3374   7.254   2.733   2.204 -0.0579 -0.2025  0.2054
 1151TIP3    H1 3375   7.268   2.776   2.120 -2.8791  2.7060  1.1282
 1151TIP3    H2 3376   7.310   2.781   2.266 -1.5594  0.7972  0.8266
 1152TIP3   OH2 3377   7.403   2.554   1.277 -0.2976 -0.2279  0.2608
 1152TIP3    H1 3378   7.314   2.528   1.252  0.2209 -0.4567 -1.3863
 1152TIP3    H2 3379   7.449   2.472   1.293 -0.2909 -0.1156  0.8618
 1153TIP3   OH2 3380   7.986   6.372   6.764  0.2018  0.1999  0.4869
 1153TIP3    H1 3381   8.069   6.355   6.719 -0.4766 -0.9153 -0.3650
 1153TIP3    H2 3382   7.940   6.435   6.707  0.1767  0.3023  0.6192
 1154TIP3   OH2 3383   7.236   6.492   6.783 -0.1671  0.2296 -0.4963
 1154TIP3    H1 3384   7.157   6.542   6.801  0.2592 -0.0220  2.3459
 1154TIP3    H2 3385   7.300   6.556   6.753 -0.4291  0.9983  0.5593
 1155TIP3   OH2 3386   3.190   1.537   0.190  0.0372  0.0640  0.5866
 1155TIP3    H1 3387   3.262   1.599   0.174  0.1212  0.0979  1.1011
 1155TIP3    H2 3388   3.116   1.573   0.140  0.2442  0.2771  0.4319
 1156TIP3   OH2 3389   7.553   5.385   6.839 -0.3057  0.4989  0.0967
 1156TIP3    H1 3390   7.620   5.423   6.783  0.4277  1.8840  1.8752
 1156TIP3    H2 3391   7.582   5.295   6.854  0.6746  0.8145  0.1116
 1157TIP3   OH2 3392   7.504   3.185   2.336  0.5917 -0.6158 -0.0369
 1157TIP3    H1 3393   7.459   3.252   2.388 -0.7472 -1.5658  0.0529
 1157TIP3    H2 3394   7.567   3.146   2.397  2.6683  1.7332 -0.5677
 1158TIP3   OH2 3395   5.505   3.576   0.874 -0.0508  0.7313  0.6595
 1158TIP3    H1 3396   5.492   3.505   0.937 -0.3546  1.0929  1.0101
 1158TIP3    H2 3397   5.583   3.623   0.905 -0.0935  0.7983  0.6692
 1159TIP3   OH2 3398   4.738   2.919   0.223  0.1203 -0.0604  0.2834
 1159TIP3    H1 3399   4.691   2.986   0.272 -1.9945 -1.9005  0.8336
 1159TIP3    H2 3400   4.813   2.897   0.279  0.6997  1.6478  0.2005
 1160TIP3   OH2 3401   7.571   5.945   6.981 -0.6186  0.0988  0.3437
 1160TIP3    H1 3402   7.597   5.936   6.890 -2.3152 -1.0605 -0.0399
 1160TIP3    H2 3403   7.480   5.914   6.984 -1.1810  1.7955  2.0909
 1161TIP3   OH2 3404   5.259   2.472   0.594 -0.7575  0.0560  0.1908
 1161TIP3    H1 3405   5.227   2.485   0.683  0.5603 -2.2377  1.0457
 1161TIP3    H2 3406   5.354   2.486   0.601 -0.1108 -3.8169 -0.0353
 1162TIP3   OH2 3407   1.239   0.773   7.135 -0.1720 -0.2280 -0.6460
 1162TIP3    H1 3408   1.176   0.727   7.190 -0.0062 -0.5065 -0.6862
 1162TIP3    H2 3409   1.324   0.738   7.162 -0.1748 -1.1459 -1.8235
 1163TIP3   OH2 3410   6.258   3.277   2.988  0.3827 -0.0994 -0.0400
 1163TIP3    H1 3411   6.263   3.303   3.080  0.7012  0.0283 -0.0933
 1163TIP3    H2 3412   6.220   3.189   2.990 -0.3050  0.1983  0.1676
 1164TIP3   OH2 3413   5.379   4.164   1.109 -0.6819  0.3210  0.0920
 1164TIP3    H1 3414   5.292   4.166   1.150 -0.5159  0.5070  0.4366
 1164TIP3    H2 3415   5.375   4.090   1.048 -0.3252 -1.0827  1.7542
 1165TIP3   OH2 3416   6.420   4.570   2.208 -0.5619 -0.8282  0.2542
 1165TIP3    H1 3417   6.434   4.553   2.301 -3.0146  2.1514  1.2360
 1165TIP3    H2 3418   6.346   4.515   2.184 -0.0533 -1.4508  0.1041
 1166TIP3   OH2 3419   1.607   7.237   6.696  0.1566  0.2503 -0.1518
 1166TIP3    H1 3420   1.667   7.250   6.769  0.5693 -1.0511 -0.2614
 1166TIP3    H2 3421   1.520   7.256   6.733  0.3318 -0.6870  0.7511
 1167TIP3   OH2 3422   7.456   3.779   1.598  0.4583  0.3111 -0.2319
 1167TIP3    H1 3423   7.459   3.691   1.635  1.6427  1.1212  1.6949
 1167TIP3    H2 3424   7.377   3.781   1.545  0.4575 -1.9217 -0.3354
 1168TIP3   OH2 3425   0.507   3.315   0.579 -0.1166  0.0254  0.1263
 1168TIP3    H1 3426   0.435   3.367   0.543  0.7917  1.3174  0.1530
 1168TIP3    H2 3427   0.532   3.256   0.507 -1.1057 -0.3390  0.0727
 1169TIP3   OH2 3428   6.958   1.755   1.401  0.4459 -0.2119  0.4045
 1169TIP3    H1 3429   6.990   1.821   1.464  0.1930 -0.1418  0.4617
 1169TIP3    H2 3430   7.014   1.766   1.325 -0.7603  1.3247 -0.2926
 1170TIP3   OH2 3431   7.053   3.786   0.720  0.0879  0.4504  0.3226
 1170TIP3    H1 3432   7.053   3.696   0.754 -1.3205  0.0032 -0.8162
 1170TIP3    H2 3433   6.984   3.786   0.654  0.2660  2.3141  0.1309
 1171TIP3   OH2 3434   8.703   4.693   0.899  0.0757  0.1135 -0.0851
 1171TIP3    H1 3435   8.778   4.650   0.940  1.0606  0.1385 -1.8226
 1171TIP3    H2 3436   8.740   4.743   0.826 -1.4362  1.4369  0.0245
 1172TIP3   OH2 3437   7.843   4.300   0.728 -0.0562  0.2153 -0.6717
 1172TIP3    H1 3438   7.783   4.238   0.687 -0.1702  0.5282 -0.9781
 1172TIP3    H2 3439   7.833   4.285   0.822  0.1020 -0.4083 -0.7469
 1173TIP3   OH2 3440   8.045   1.548   0.507 -0.2409  0.0874 -0.2522
 1173TIP3    H1 3441   8.125   1.583   0.467  0.6324 -1.8069 -0.2378
 1173TIP3    H2 3442   7.975   1.604   0.474  1.1177  2.0376  0.0429
 1174TIP3   OH2 3443   8.282   2.716   1.977 -0.3315 -0.6383  0.0831
 1174TIP3    H1 3444   8.237   2.639   2.014 -1.6885 -1.0055 -2.1762
 1174TIP3    H2 3445   8.212   2.766   1.935  0.8321  0.8502 -0.1235
 1175TIP3   OH2 3446   5.545   4.409   0.232  0.2828  0.3967 -0.1322
 1175TIP3    H1 3447   5.577   4.332   0.278 -2.8604 -1.3815 -0.8038
 1175TIP3    H2 3448   5.566   4.392   0.140  0.5968  0.8952 -0.1560
 1176TIP3   OH2 3449   3.050   6.695   7.051  0.2165 -0.3359  0.2611
 1176TIP3    H1 3450   3.055   6.633   7.124 -0.6382 -1.3410 -0.5131
 1176TIP3    H2 3451   2.959   6.727   7.054  0.9069  1.6154  1.2360
 1177TIP3   OH2 3452   3.068   7.411   7.017 -0.2874 -0.1715 -0.5761
 1177TIP3    H1 3453   3.063   7.391   6.924 -1.2297  0.0283 -0.5724
 1177TIP3    H2 3454   3.159   7.393   7.041 -0.7913 -3.3806 -0.8344
 1178TIP3   OH2 3455   6.770   3.768   0.845 -0.0618 -0.4753  0.0549
 1178TIP3    H1 3456   6.770   3.773   0.749  0.6502  0.2151  0.0879
 1178TIP3    H2 3457   6.724   3.847   0.873  1.3714  0.2754  0.3208
 1179TIP3   OH2 3458   7.455   4.682   0.838 -0.0201 -0.2573 -0.3447
 1179TIP3    H1 3459   7.395   4.751   0.809 -0.1665 -0.8550 -1.4584
 1179TIP3    H2 3460   7.477   4.634   0.759  0.8613 -0.8914  0.2784
 1180TIP3   OH2 3461   8.871   5.746   5.330  0.5661  0.0559  0.3322
 1180TIP3    H1 3462   8.836   5.671   5.282 -0.6280  1.5192 -1.1213
 1180TIP3    H2 3463   8.881   5.814   5.264  0.8226  1.4553  1.7938
 1181TIP3   OH2 3464   4.650   3.334   3.322  0.7010  0.2960 -0.0751
 1181TIP3    H1 3465   4.564   3.296   3.306  0.5234  0.7699 -0.2261
 1181TIP3    H2 3466   4.708   3.258   3.329  0.2632 -0.0251  0.0892
 1182TIP3   OH2 3467   2.468   8.011   6.200  0.0903 -0.0156  0.0873
 1182TIP3    H1 3468   2.488   8.090   6.150 -0.0842  0.1820  0.3294
 1182TIP3    H2 3469   2.554   7.970   6.214  0.6802  2.1534  3.3204
 1183TIP3   OH2 3470   5.171   3.686   1.321  0.7423  0.5560  0.1667
 1183TIP3    H1 3471   5.264   3.692   1.297  0.1682  2.0895 -1.8357
 1183TIP3    H2 3472   5.141   3.777   1.322 -0.8531  0.0334  0.3058
 1184TIP3   OH2 3473   7.635   1.309   0.743 -0.7739 -0.0135 -0.4151
 1184TIP3    H1 3474   7.602   1.271   0.662 -1.4050  1.5740 -0.9177
 1184TIP3    H2 3475   7.635   1.403   0.727 -0.0816  0.2612  1.1230
 1185TIP3   OH2 3476   5.948   0.658   7.221 -0.5596 -0.2589 -0.3159
 1185TIP3    H1 3477   5.929   0.636   7.312  0.2409  1.0179  0.1698
 1185TIP3    H2 3478   6.018   0.597   7.196 -0.7602 -0.5897 -0.0750
 1186TIP3   OH2 3479   0.045   4.422   1.576  0.0471  0.6863  0.2873
 1186TIP3    H1 3480  -0.026   4.365   1.547 -0.5747  1.7549 -0.3041
 1186TIP3    H2 3481   0.098   4.367   1.633  0.6434 -1.1462 -1.9460
 1187TIP3   OH2 3482   2.152   6.933   7.204  0.0946  0.3710 -0.0434
 1187TIP3    H1 3483   2.057   6.941   7.208 -0.1745 -0.3316 -3.4338
 1187TIP3    H2 3484   2.182   7.018   7.171  0.6219  0.5014  0.7688
 1188TIP3   OH2 3485   4.240   0.129   6.408  0.1347  0.0751  0.0853
 1188TIP3    H1 3486   4.328   0.167   6.409 -0.0575  0.5216  0.2840
 1188TIP3    H2 3487   4.185   0.200   6.376  0.0428 -0.6341 -1.3809
 1189TIP3   OH2 3488   0.987   7.946   7.243 -0.1758 -0.0078  0.4846
 1189TIP3    H1 3489   0.999   8.038   7.219 -0.5398  0.2170  1.1514
 1189TIP3    H2 3490   0.910   7.918   7.193  0.7880 -0.3721 -0.8401
 1190TIP3   OH2 3491   7.871   4.356   1.459 -0.2746 -0.1065 -0.5261
 1190TIP3    H1 3492   7.818   4.358   1.379 -1.1915 -1.2697  0.0356
 1190TIP3    H2 3493   7.868   4.264   1.488  0.4965  0.1926  0.5478
 1191TIP3   OH2 3494   6.516   3.384   1.968 -0.3045  0.3127  0.0723
 1191TIP3    H1 3495   6.462   3.424   2.036  0.0777  0.2309  0.4256
 1191TIP3    H2 3496   6.579   3.453   1.944 -0.9738  0.6343 -0.8002
 1192TIP3   OH2 3497   2.649   7.729   6.666 -0.1714 -0.0048 -0.0175
 1192TIP3    H1 3498   2.623   7.786   6.593 -0.2326  0.1024  0.0891
 1192TIP3    H2 3499   2.709   7.782   6.718  1.1781 -0.6267 -0.8836
 1193TIP3   OH2 3500   5.417   0.488   7.051 -0.4734 -0.1894  0.3241
 1193TIP3    H1 3501   5.451   0.482   6.962 -0.3332 -0.4781  0.3967
 1193TIP3    H2 3502   5.466   0.559   7.091  0.2021 -0.7507  0.4971
 1194TIP3   OH2 3503   7.277   3.825   1.047  0.0985 -0.1068  0.5033
 1194TIP3    H1 3504   7.222   3.887   0.999 -0.6466 -1.1729 -0.0487
 1194TIP3    H2 3505   7.316   3.769   0.978  0.3575 -0.5733  1.0202
 1195TIP3   OH2 3506   1.752   6.808   5.068 -0.1089 -0.1642 -0.7776
 1195TIP3    H1 3507   1.660   6.829   5.052 -0.6176 -2.2433 -0.7692
 1195TIP3    H2 3508   1.761   6.807   5.164 -0.3527 -1.0200 -0.7586
 1196TIP3   OH2 3509   6.964   3.555   0.172  0.0283 -0.0225 -0.2189
 1196TIP3    H1 3510   6.951   3.628   0.111 -0.2886 -0.4780 -0.7043
 1196TIP3    H2 3511   7.008   3.594   0.247  1.2049  0.3743 -1.1084
 1197TIP3   OH2 3512   6.815   3.119   0.076  0.1663 -0.0033  0.0121
 1197TIP3    H1 3513   6.791   3.212   0.073 -0.9430 -0.2478  1.0892
 1197TIP3    H2 3514   6.737   3.074   0.044  0.3681 -0.6239  0.3979
 1198TIP3   OH2 3515   5.477   0.034   6.510  0.0582  0.2982  0.3217
 1198TIP3    H1 3516   5.423   0.070   6.581 -1.2404  0.1918 -0.6040
 1198TIP3    H2 3517   5.556   0.004   6.554  0.0984  2.0007  1.4706
 1199TIP3   OH2 3518   6.338   2.941   1.969 -0.3180  0.0995  0.0372
 1199TIP3    H1 3519   6.383   3.013   2.012  1.6289  0.1286 -1.9309
 1199TIP3    H2 3520   6.304   2.887   2.040  0.3954  1.6106  1.5432
 1200TIP3   OH2 3521   8.225   3.801   1.254 -0.5010 -0.2751 -0.3124
 1200TIP3    H1 3522   8.227   3.815   1.349  0.6895  0.7112 -0.4835
 1200TIP3    H2 3523   8.159   3.732   1.242 -0.9363 -0.1422  1.1926
 1201TIP3   OH2 3524   1.715   7.178   6.945  0.0322 -0.8583  0.1787
 1201TIP3    H1 3525   1.730   7.224   7.027 -0.3564 -2.5777  1.2546
 1201TIP3    H2 3526   1.799   7.136   6.925  0.8490  1.5296 -1.6254
 1202TIP3   OH2 3527   5.583   2.313   1.784  0.0016  0.2392 -0.2177
 1202TIP3    H1 3528   5.542   2.268   1.858 -0.1279 -1.2388 -1.1711
 1202TIP3    H2 3529   5.552   2.266   1.707  0.8398  1.2096 -1.1685
 1203TIP3   OH2 3530   6.966   2.173   1.367  0.1872  0.0603 -0.1948
 1203TIP3    H1 3531   6.973   2.123   1.448  0.1807 -0.9126 -0.7933
 1203TIP3    H2 3532   6.898   2.238   1.385  0.7487  0.3722  0.8483
 1204TIP3   OH2 3533   3.721   0.507   6.572  0.5511  0.0976  0.5199
 1204TIP3    H1 3534   3.685   0.588   6.536  0.1236  0.1079  0.9641
 1204TIP3    H2 3535   3.711   0.443   6.502  2.4065  0.8155 -0.4404
 1205TIP3   OH2 3536   7.618   1.067   1.736  0.5768 -0.5858 -0.1823
 1205TIP3    H1 3537   7.539   1.120   1.734  0.6429 -0.4383  0.9375
 1205TIP3    H2 3538   7.668   1.100   1.810  1.0804 -1.5460 -0.0861
 1206TIP3   OH2 3539   7.704   2.260   0.433  0.6340  0.3067 -0.3800
 1206TIP3    H1 3540   7.785   2.302   0.459  1.5070 -0.8639 -1.1299
 1206TIP3    H2 3541   7.716   2.241   0.340 -0.6650  0.5088 -0.5960
 1207TIP3   OH2 3542   7.740   3.736   3.865 -0.2394 -0.2358 -0.2982
 1207TIP3    H1 3543   7.752   3.831   3.856  1.2408 -0.5074 -1.4080
 1207TIP3    H2 3544   7.750   3.702   3.776  0.5475 -1.5752  0.2876
 1208TIP3   OH2 3545   8.110   3.353   0.813 -0.4421 -0.4444 -0.2131
 1208TIP3    H1 3546   8.143   3.442   0.824 -0.8591 -0.4264  0.9674
 1208TIP3    H2 3547   8.049   3.359   0.739 -1.2804  0.4809  0.5369
 1209TIP3   OH2 3548   0.822   7.795   6.955 -0.2456 -0.3715 -0.0827
 1209TIP3    H1 3549   0.915   7.798   6.933  1.0113 -1.0651  4.5916
 1209TIP3    H2 3550   0.791   7.713   6.917  1.7249 -1.4993  0.6997
 1210TIP3   OH2 3551   7.258   4.034   0.359  0.5461  0.1518  0.5636
 1210TIP3    H1 3552   7.221   4.039   0.270 -0.5096 -1.2563  0.9065
 1210TIP3    H2 3553   7.232   4.117   0.399 -1.9269 -0.5979  0.6379
 1211TIP3   OH2 3554   1.138   3.312   2.687  0.0729 -0.1723 -0.1500
 1211TIP3    H1 3555   1.123   3.260   2.767 -0.7834  0.5558  0.1678
 1211TIP3    H2 3556   1.095   3.395   2.704  0.5469  0.2714 -1.0832
 1212TIP3   OH2 3557   7.084   3.540   1.579 -0.2504  0.7144  0.0328
 1212TIP3    H1 3558   7.037   3.457   1.588 -0.3540  0.6027 -1.3655
 1212TIP3    H2 3559   7.100   3.569   1.669 -1.2378 -0.2411  0.5305
 1213TIP3   OH2 3560   2.224   7.240   5.506 -0.2240 -0.3928 -0.4239
 1213TIP3    H1 3561   2.131   7.244   5.528 -0.7315 -2.3696 -1.9790
 1213TIP3    H2 3562   2.269   7.264   5.586 -2.0622 -0.5074  0.6785
 1214TIP3   OH2 3563   0.763   4.794   2.839 -0.5776 -0.1723 -0.3523
 1214TIP3    H1 3564   0.816   4.745   2.901  1.3950  0.2737 -1.6280
 1214TIP3    H2 3565   0.759   4.883   2.875 -0.6955 -0.2766 -0.1090
 1215TIP3   OH2 3566   4.764   0.139   7.026 -0.5575  0.1743  0.9433
 1215TIP3    H1 3567   4.800   0.199   7.091  0.1633  1.2009 -0.3856
 1215TIP3    H2 3568   4.697   0.191   6.981  0.2662  0.0838 -0.4027
 1216TIP3   OH2 3569   5.486   5.390   0.189 -0.4326 -0.1153  0.0224
 1216TIP3    H1 3570   5.404   5.393   0.238 -0.1201  2.1446  0.4499
 1216TIP3    H2 3571   5.494   5.298   0.161 -2.4666 -0.6204  1.0194
 1217TIP3   OH2 3572   8.109   6.289   1.461  0.1243 -0.4969  0.0422
 1217TIP3    H1 3573   8.119   6.380   1.433 -0.8242  0.0515  1.4804
 1217TIP3    H2 3574   8.016   6.271   1.452  0.3142 -1.3564 -0.2706
 1218TIP3   OH2 3575   5.859   2.760   1.795  0.4232  0.0699  0.0809
 1218TIP3    H1 3576   5.851   2.680   1.848  0.4688  0.4035  0.5904
 1218TIP3    H2 3577   5.953   2.768   1.778  0.6023  0.8821  1.3726
 1219TIP3   OH2 3578   1.117   3.436   2.093  0.1584  0.0803  1.0218
 1219TIP3    H1 3579   1.092   3.412   2.003 -0.4859 -0.6273  1.3867
 1219TIP3    H2 3580   1.212   3.423   2.095  0.0850 -0.5223  0.6366
 1220TIP3   OH2 3581   1.608   6.993   1.272 -0.4932 -0.1269 -0.3381
 1220TIP3    H1 3582   1.585   7.078   1.233 -0.7846  0.5257  1.2265
 1220TIP3    H2 3583   1.524   6.953   1.293 -0.3132  0.4204  1.4892
 1221TIP3   OH2 3584   1.410   2.660   1.517 -0.3809  0.3068  0.6034
 1221TIP3    H1 3585   1.316   2.671   1.505 -0.2298  0.6905 -0.2991
 1221TIP3    H2 3586   1.421   2.645   1.611 -1.3850 -0.2723  0.6296
 1222TIP3   OH2 3587   1.801   3.887   1.909  0.1185 -0.7263 -0.3438
 1222TIP3    H1 3588   1.800   3.792   1.897  2.0794 -1.0862  1.8088
 1222TIP3    H2 3589   1.877   3.902   1.965 -1.2227  1.9413  0.8212
 1223TIP3   OH2 3590   0.110   3.348   3.119  0.8979 -0.4352 -0.3427
 1223TIP3    H1 3591   0.180   3.351   3.183  0.8273 -0.1371 -0.2773
 1223TIP3    H2 3592   0.046   3.287   3.155  0.5229  0.2717  0.2200
 1224TIP3   OH2 3593   8.633   5.378   0.640  0.1802 -0.0609 -0.0307
 1224TIP3    H1 3594   8.710   5.358   0.693 -0.6886 -1.8296  0.6209
 1224TIP3    H2 3595   8.633   5.311   0.571 -1.4765 -0.9035  0.7545
 1225TIP3   OH2 3596   7.283   7.058   0.317 -0.1434  0.3025 -0.1550
 1225TIP3    H1 3597   7.216   7.005   0.273 -1.3429  1.8423 -0.2296
 1225TIP3    H2 3598   7.360   7.051   0.260 -0.5054 -0.7903 -0.5262
 1226TIP3   OH2 3599   8.062   5.822   0.813  0.2464  0.1655 -0.1060
 1226TIP3    H1 3600   8.080   5.911   0.842 -0.0055  0.4253 -0.7284
 1226TIP3    H2 3601   7.970   5.824   0.786  0.0202 -0.4800  0.6043
 1227TIP3   OH2 3602   0.205   3.831   1.503 -0.3208  0.4647  0.2943
 1227TIP3    H1 3603   0.245   3.905   1.458  0.0778 -0.1071 -0.3001
 1227TIP3    H2 3604   0.136   3.870   1.557 -0.1680  1.2536 -0.0770
 1228TIP3   OH2 3605   8.295   3.814   1.539 -0.1501  0.0624  0.3520
 1228TIP3    H1 3606   8.238   3.878   1.582 -2.3959 -0.2322 -2.0999
 1228TIP3    H2 3607   8.367   3.866   1.504 -0.6805  0.8998  0.4956
 1229TIP3   OH2 3608   1.999   8.343   7.126 -0.9164  0.1949 -0.1462
 1229TIP3    H1 3609   1.954   8.322   7.208  0.0059 -0.9117  0.0743
 1229TIP3    H2 3610   1.945   8.413   7.087 -1.7804  0.1927  1.0212
 1230TIP3   OH2 3611   0.628   3.219   0.816 -0.2158 -0.4029  0.4210
 1230TIP3    H1 3612   0.581   3.269   0.882 -1.5410 -0.7154 -0.2779
 1230TIP3    H2 3613   0.598   3.256   0.733  0.1100 -1.1946 -0.0495
 1231TIP3   OH2 3614   8.570   6.298   0.624 -1.0140 -0.0876  0.4929
 1231TIP3    H1 3615   8.596   6.226   0.568 -0.5864 -1.7887  2.7910
 1231TIP3    H2 3616   8.649   6.352   0.632 -1.4129  0.8033 -1.4468
 1232TIP3   OH2 3617   0.616   5.204   1.333  0.0250 -0.0942  0.5433
 1232TIP3    H1 3618   0.629   5.248   1.248  0.7157  0.2364  0.8159
 1232TIP3    H2 3619   0.636   5.271   1.398  1.1928 -0.8453  0.9673
 1233TIP3   OH2 3620   8.740   3.758   2.818  0.1199 -0.0280 -0.1498
 1233TIP3    H1 3621   8.808   3.810   2.861 -0.0172  0.5170 -0.6021
 1233TIP3    H2 3622   8.784   3.718   2.743  0.5875 -1.6731  0.9612
 1234TIP3   OH2 3623   0.999   6.830   1.659  0.3440  0.3153 -0.2079
 1234TIP3    H1 3624   0.987   6.925   1.652  0.7742  0.4183  0.3516
 1234TIP3    H2 3625   0.933   6.793   1.601  0.5826  0.9707 -0.9111
 1235TIP3   OH2 3626   8.242   6.092   2.305  0.2042 -0.3283  0.3845
 1235TIP3    H1 3627   8.224   6.035   2.379  0.4941 -3.7667 -2.0557
 1235TIP3    H2 3628   8.337   6.104   2.307  0.4681 -2.1414 -0.5917
 1236TIP3   OH2 3629   8.275   3.576   0.762  0.4131  0.7036  0.0433
 1236TIP3    H1 3630   8.366   3.605   0.760  0.5852  0.1706 -2.9722
 1236TIP3    H2 3631   8.259   3.543   0.673 -2.1894 -0.8510  1.0410
 1237TIP3   OH2 3632   0.124   4.140   2.461  0.3422  0.3858  0.0740
 1237TIP3    H1 3633   0.091   4.127   2.549  0.0253  1.4047  0.1107
 1237TIP3    H2 3634   0.115   4.234   2.445 -0.3863  0.1038 -1.3425
 1238TIP3   OH2 3635   0.358   2.656   1.467  0.3547 -0.4179  0.1787
 1238TIP3    H1 3636   0.387   2.729   1.412 -0.8352  0.1041  0.2211
 1238TIP3    H2 3637   0.357   2.581   1.408 -0.9586  0.1470 -0.5448
 1239TIP3   OH2 3638   1.263   5.298   1.443 -0.0899 -0.2326  0.5238
 1239TIP3    H1 3639   1.270   5.322   1.535  2.0357 -1.3549  0.7046
 1239TIP3    H2 3640   1.200   5.226   1.441 -2.5244  1.8280  0.6482
 1240TIP3   OH2 3641   6.064   6.841   0.780  0.0027  0.2202 -0.0302
 1240TIP3    H1 3642   6.153   6.817   0.755 -0.0655  0.2613 -0.3118
 1240TIP3    H2 3643   6.070   6.863   0.873  0.2748  0.1680 -0.0358
 1241TIP3   OH2 3644   0.010   3.917   2.298  0.3420 -0.0263  0.2886
 1241TIP3    H1 3645   0.017   3.992   2.356 -0.0317 -0.9927  1.6085
 1241TIP3    H2 3646   0.014   3.954   2.209 -0.2005  1.5632  0.9171
 1242TIP3   OH2 3647   8.499   5.474   0.892  0.1753  0.0424  0.0342
 1242TIP3    H1 3648   8.568   5.501   0.832  0.4757  0.1857  0.4419
 1242TIP3    H2 3649   8.433   5.543   0.885  0.9478  0.9064  1.0861
 1243TIP3   OH2 3650   0.817   5.037   2.913 -0.3024  0.2995 -0.1569
 1243TIP3    H1 3651   0.826   5.123   2.953 -0.8891  0.8938 -1.2864
 1243TIP3    H2 3652   0.769   5.053   2.831 -0.7023 -1.1313 -0.2189
 1244TIP3   OH2 3653   8.485   2.296   2.863  0.6004 -0.0643 -0.6896
 1244TIP3    H1 3654   8.431   2.217   2.856  1.0083 -0.4905  0.9603
 1244TIP3    H2 3655   8.574   2.266   2.845  0.9163 -0.1990  1.0670
 1245TIP3   OH2 3656   8.635   6.769   2.668  0.1587 -0.0193  0.6493
 1245TIP3    H1 3657   8.685   6.835   2.717 -0.8991  1.3698 -0.0862
 1245TIP3    H2 3658   8.699   6.729   2.610  0.8281  0.3553  1.1133
 1246TIP3   OH2 3659   2.747   3.685   3.142  0.0866  0.7674  0.6768
 1246TIP3    H1 3660   2.652   3.684   3.152  0.2012  0.2135  1.8347
 1246TIP3    H2 3661   2.762   3.723   3.056 -1.2835 -1.2947 -0.5261
 1247TIP3   OH2 3662   7.656   6.867   0.125  0.0355 -0.4866  0.3678
 1247TIP3    H1 3663   7.604   6.930   0.176  0.2774  0.4096 -0.4927
 1247TIP3    H2 3664   7.736   6.856   0.177 -0.4712 -0.9302  1.0728
 1248TIP3   OH2 3665   0.066   4.583   0.564  0.1694  0.3804 -0.2392
 1248TIP3    H1 3666   0.113   4.510   0.605  1.8734 -0.1429 -2.9843
 1248TIP3    H2 3667   0.010   4.541   0.499  1.0211  1.4999 -1.7105
 1249TIP3   OH2 3668  -0.005   4.454   4.011  0.4643  0.5744 -0.0186
 1249TIP3    H1 3669   0.082   4.423   4.034 -0.4970 -1.9758  0.3141
 1249TIP3    H2 3670  -0.059   4.433   4.087 -0.8759  0.1281 -1.0690
 1250TIP3   OH2 3671   1.128   3.955   1.649  0.3178 -0.1666  0.8386
 1250TIP3    H1 3672   1.075   4.019   1.600  2.9140  0.5692 -1.1065
 1250TIP3    H2 3673   1.091   3.956   1.737 -1.7434  1.6441  0.0046
 1251TIP3   OH2 3674   0.609   5.708   1.017  0.6056  0.4455 -0.4499
 1251TIP3    H1 3675   0.589   5.764   1.092  0.2931  1.0392 -0.9711
 1251TIP3    H2 3676   0.699   5.680   1.031  0.5396  0.5318  0.1628
 1252TIP3   OH2 3677   6.346   1.633   6.087 -0.0056  0.4397 -0.4183
 1252TIP3    H1 3678   6.267   1.599   6.044 -1.0366 -0.7339  2.2360
 1252TIP3    H2 3679   6.374   1.561   6.144  3.0548  0.8301 -1.3653
 1253TIP3   OH2 3680   0.626   5.592   3.349 -0.0035 -0.3057  0.1340
 1253TIP3    H1 3681   0.644   5.501   3.324  0.7476 -0.4324  1.0965
 1253TIP3    H2 3682   0.579   5.584   3.432 -1.0003  0.1557 -0.3784
 1254TIP3   OH2 3683   7.925   4.114   1.790 -0.7046 -0.4070  0.2129
 1254TIP3    H1 3684   7.914   4.210   1.790 -1.2014 -0.4559 -0.5877
 1254TIP3    H2 3685   7.905   4.088   1.880  1.6604  0.4735  1.0195
 1255TIP3   OH2 3686   8.452   7.992   0.704 -0.1920 -0.1817 -0.0728
 1255TIP3    H1 3687   8.524   7.997   0.642 -0.6330 -1.2418 -0.6779
 1255TIP3    H2 3688   8.374   7.985   0.649 -0.7136  0.4189  0.5823
 1256TIP3   OH2 3689   0.174   4.246   1.790  0.1262 -0.2023  0.2379
 1256TIP3    H1 3690   0.121   4.289   1.857  0.3978  0.2859  0.1386
 1256TIP3    H2 3691   0.238   4.195   1.840  1.6705  1.8012  0.3655
 1257TIP3   OH2 3692   0.292   5.671   0.400 -0.1151  0.5028 -0.2541
 1257TIP3    H1 3693   0.207   5.655   0.359  0.5120 -0.1533 -1.2977
 1257TIP3    H2 3694   0.272   5.677   0.494 -1.1530 -0.6877 -0.3897
 1258TIP3   OH2 3695   6.645   4.633   0.569  0.4852  0.0107  0.0927
 1258TIP3    H1 3696   6.660   4.668   0.480 -0.6676  0.5912  0.1111
 1258TIP3    H2 3697   6.563   4.584   0.561  0.2618  0.2579  0.8915
 1259TIP3   OH2 3698   8.692   6.730   1.813  0.9618  0.1713 -0.1748
 1259TIP3    H1 3699   8.643   6.653   1.842  2.8610 -0.2309  2.1053
 1259TIP3    H2 3700   8.757   6.696   1.753  1.0817  0.1543 -0.0354
 1260TIP3   OH2 3701   0.227   5.076   3.084  0.1113 -0.3023 -0.1774
 1260TIP3    H1 3702   0.303   5.018   3.083 -0.5009 -1.1227  0.2084
 1260TIP3    H2 3703   0.255   5.151   3.135  1.1242  0.0514 -1.2114
 1261TIP3   OH2 3704   0.349   6.549   2.548  0.2540  0.2036 -0.3720
 1261TIP3    H1 3705   0.307   6.533   2.464 -0.0753  1.8519 -0.5419
 1261TIP3    H2 3706   0.278   6.539   2.612 -0.5971  3.4412 -0.6968
 1262TIP3   OH2 3707   8.275   4.308   1.560  0.3523  0.6129 -0.4575
 1262TIP3    H1 3708   8.295   4.230   1.508  1.6728  2.0334 -2.1386
 1262TIP3    H2 3709   8.280   4.278   1.651  0.4014 -1.3564 -1.0840
 1263TIP3   OH2 3710   0.587   3.372   2.772 -0.4612  0.1154 -0.4016
 1263TIP3    H1 3711   0.657   3.437   2.770 -0.1746 -0.1907 -0.4053
 1263TIP3    H2 3712   0.521   3.405   2.710 -1.0337  1.1869  0.7659
 1264TIP3   OH2 3713   0.866   3.848   3.241 -0.2150 -0.7576 -0.2744
 1264TIP3    H1 3714   0.854   3.758   3.272  0.0548 -0.7254 -0.0675
 1264TIP3    H2 3715   0.948   3.876   3.282 -0.2308 -0.4637 -0.4450
 1265TIP3   OH2 3716   0.239   4.532   1.781  0.2154  0.2865 -0.4002
 1265TIP3    H1 3717   0.228   4.443   1.746  0.4911  0.5465 -1.1635
 1265TIP3    H2 3718   0.334   4.546   1.779  0.1522  0.6999 -0.5460
 1266TIP3   OH2 3719   4.486   4.717   2.065  0.3812 -0.2019  0.1111
 1266TIP3    H1 3720   4.549   4.745   2.132  0.3773  1.2047 -0.4615
 1266TIP3    H2 3721   4.538   4.710   1.985 -0.0324  0.1968 -0.1944
 1267TIP3   OH2 3722   1.158   4.849   1.796  0.1168  0.3743  0.0878
 1267TIP3    H1 3723   1.089   4.895   1.749  0.1784 -0.3715 -0.7391
 1267TIP3    H2 3724   1.126   4.844   1.886 -0.6020  0.6278 -0.1488
 1268TIP3   OH2 3725   3.678   0.096   2.508 -0.3929  0.1334 -0.0514
 1268TIP3    H1 3726   3.750   0.069   2.566  0.4361 -0.2439 -1.2529
 1268TIP3    H2 3727   3.606   0.038   2.533 -0.4322  0.8115  1.4654
 1269TIP3   OH2 3728   1.315   6.591   0.553  0.6390  0.1788  0.1311
 1269TIP3    H1 3729   1.286   6.671   0.596  0.1603 -0.0105  0.1729
 1269TIP3    H2 3730   1.361   6.542   0.622 -3.1787 -1.7331  1.5054
 1270TIP3   OH2 3731   0.401   5.019   1.409 -0.0911  0.2218 -0.0161
 1270TIP3    H1 3732   0.465   5.068   1.358  0.3578 -0.1944  0.1546
 1270TIP3    H2 3733   0.410   5.053   1.498  0.3139 -0.2757  0.1284
 1271TIP3   OH2 3734   3.050   6.121   3.543 -0.6046 -0.3433 -0.8097
 1271TIP3    H1 3735   3.077   6.198   3.493 -0.5968 -0.2464 -0.6555
 1271TIP3    H2 3736   3.118   6.056   3.526  0.4819  0.3748  0.7251
 1272TIP3   OH2 3737   2.442   5.721   3.825 -0.0495  0.2612 -0.5108
 1272TIP3    H1 3738   2.441   5.631   3.858  2.2737  0.7082  0.8950
 1272TIP3    H2 3739   2.350   5.743   3.813 -0.7449 -1.6240  1.0670
 1273TIP3   OH2 3740   6.987   0.289   7.000  0.3187 -0.1975  0.4392
 1273TIP3    H1 3741   6.995   0.193   7.006 -0.0679 -0.2758 -0.1930
 1273TIP3    H2 3742   6.898   0.307   7.031  0.5388 -0.0066  0.9481
 1274TIP3   OH2 3743   1.564   4.518   2.139  0.0480 -0.0275  0.2283
 1274TIP3    H1 3744   1.472   4.496   2.128 -0.5619  1.8324  1.2386
 1274TIP3    H2 3745   1.602   4.442   2.183 -1.4842  0.0113  1.6780
 1275TIP3   OH2 3746   1.086   5.486   0.571  0.2344 -0.0744 -0.1278
 1275TIP3    H1 3747   1.068   5.579   0.590 -0.1332 -0.0156 -0.7428
 1275TIP3    H2 3748   1.001   5.451   0.542  0.2297 -0.7598  0.7156
 1276TIP3   OH2 3749   2.257   5.750   0.035  0.3639 -0.1380 -0.2702
 1276TIP3    H1 3750   2.277   5.680  -0.027  2.7144 -0.6536  1.0209
 1276TIP3    H2 3751   2.301   5.827  -0.001  2.3287 -0.5995  1.0653
 1277TIP3   OH2 3752   0.821   4.582   2.562 -0.2509 -0.1486 -0.4298
 1277TIP3    H1 3753   0.826   4.533   2.644 -2.1193  0.6597  0.1797
 1277TIP3    H2 3754   0.892   4.647   2.569  0.7376 -1.2276 -0.2488
 1278TIP3   OH2 3755   1.632   6.049   0.548 -0.2549 -0.3880  0.3813
 1278TIP3    H1 3756   1.559   6.105   0.574  0.1687  0.4542 -0.2496
 1278TIP3    H2 3757   1.593   5.962   0.538 -0.7508 -0.4024  2.1896
 1279TIP3   OH2 3758   2.401   2.457   1.827 -0.2551 -0.2292 -0.0331
 1279TIP3    H1 3759   2.401   2.404   1.748  0.6865 -0.8487  0.3836
 1279TIP3    H2 3760   2.480   2.431   1.874  0.4589  1.8494 -0.0356
 1280TIP3   OH2 3761   4.302   6.436   6.189  0.3903  0.2255 -0.0446
 1280TIP3    H1 3762   4.255   6.379   6.129  0.4050  0.1007  0.0646
 1280TIP3    H2 3763   4.319   6.516   6.138  1.3067 -0.2812 -0.5415
 1281TIP3   OH2 3764   1.091   3.102   0.878 -0.2847 -0.0597 -0.4054
 1281TIP3    H1 3765   1.043   3.184   0.870 -1.0713 -0.3741  1.0343
 1281TIP3    H2 3766   1.026   3.038   0.906  0.6576 -0.8257  0.0557
 1282TIP3   OH2 3767   8.335   4.958   0.915 -0.1762  0.5699 -0.3093
 1282TIP3    H1 3768   8.282   4.886   0.881 -0.4486  0.5704  0.1031
 1282TIP3    H2 3769   8.289   5.037   0.887 -1.6386  0.5600  1.9456
 1283TIP3   OH2 3770   3.216   3.992   1.949 -0.0897 -0.3821  1.0817
 1283TIP3    H1 3771   3.163   3.935   2.005 -1.7613  1.2944  1.2658
 1283TIP3    H2 3772   3.151   4.037   1.894  1.1840  1.4695  1.0711
 1284TIP3   OH2 3773   1.861   3.471   3.306 -0.1174 -0.0643 -0.4013
 1284TIP3    H1 3774   1.792   3.428   3.255 -1.5929 -1.4995  2.6907
 1284TIP3    H2 3775   1.937   3.413   3.299 -1.8512 -2.9527  3.0749
 1285TIP3   OH2 3776   2.705   4.252   2.263 -0.3110 -0.3606 -0.1086
 1285TIP3    H1 3777   2.677   4.169   2.225 -1.0141  0.4597 -1.4438
 1285TIP3    H2 3778   2.658   4.319   2.212  1.3758  0.9057 -0.0542
 1286TIP3   OH2 3779   1.055   6.604   1.017 -0.4935  0.5281 -0.5795
 1286TIP3    H1 3780   1.104   6.681   1.048 -2.2141  1.4339 -0.0246
 1286TIP3    H2 3781   1.056   6.611   0.922  0.5769  0.4668 -0.5721
 1287TIP3   OH2 3782   2.900   4.952   1.425  0.7592  0.0676  0.3958
 1287TIP3    H1 3783   2.859   5.019   1.479 -0.6525  1.3718 -2.2146
 1287TIP3    H2 3784   2.986   4.987   1.404  0.2365  0.8636 -0.4956
 1288TIP3   OH2 3785   4.713   3.709   1.869 -0.8055  0.4401  0.4523
 1288TIP3    H1 3786   4.631   3.674   1.835 -0.9276  0.2136  0.9722
 1288TIP3    H2 3787   4.723   3.794   1.826 -1.6996  0.8173  0.9767
 1289TIP3   OH2 3788   0.831   5.401   0.560  0.2789 -0.8216 -0.0347
 1289TIP3    H1 3789   0.819   5.321   0.509  1.6201 -0.9532 -0.1670
 1289TIP3    H2 3790   0.804   5.471   0.501 -0.5025 -1.1445 -0.0660
 1290TIP3   OH2 3791   1.900   5.056   2.685  0.4588 -0.1600  0.9231
 1290TIP3    H1 3792   1.869   4.986   2.743 -0.6690 -0.1477  0.3460
 1290TIP3    H2 3793   1.992   5.034   2.670 -0.3729 -2.6769 -0.8687
 1291TIP3   OH2 3794   0.151   1.797   5.909 -0.1133 -0.5301 -0.2941
 1291TIP3    H1 3795   0.076   1.784   5.850  0.6727  0.3501 -1.5038
 1291TIP3    H2 3796   0.227   1.800   5.851  0.6180  0.9120  0.7047
 1292TIP3   OH2 3797   1.120   4.982   0.976 -0.1610 -0.3876  0.9481
 1292TIP3    H1 3798   1.149   4.991   0.885  0.1496 -1.0226  0.9816
 1292TIP3    H2 3799   1.199   5.001   1.027 -0.1141 -0.8808  1.0638
 1293TIP3   OH2 3800   2.243   6.471   5.910 -0.1773  0.8479 -0.7415
 1293TIP3    H1 3801   2.240   6.552   5.960 -0.6906  0.9840 -0.9847
 1293TIP3    H2 3802   2.159   6.469   5.863  0.0610  0.4474 -1.1516
 1294TIP3   OH2 3803   1.958   4.159   2.215 -0.1656  0.2465  0.0033
 1294TIP3    H1 3804   2.009   4.235   2.242  0.0710  0.6769 -1.6487
 1294TIP3    H2 3805   1.879   4.163   2.270  0.5417  0.8093  0.9947
 1295TIP3   OH2 3806   1.796   3.568   2.846  0.1560  0.6016 -0.0744
 1295TIP3    H1 3807   1.776   3.651   2.889  0.1129  1.1276 -1.0964
 1295TIP3    H2 3808   1.721   3.553   2.789  0.9401  0.7104 -1.1489
 1296TIP3   OH2 3809   2.289   5.451   2.722 -0.1218 -0.2463 -0.2785
 1296TIP3    H1 3810   2.346   5.464   2.798 -0.4230  0.8079 -0.2239
 1296TIP3    H2 3811   2.328   5.378   2.675 -0.3581 -1.4208  1.3002
 1297TIP3   OH2 3812   0.242   6.325   2.088 -0.0315  0.0844 -0.1443
 1297TIP3    H1 3813   0.331   6.298   2.063 -0.6552 -0.4755 -1.8924
 1297TIP3    H2 3814   0.186   6.262   2.043 -1.3481  1.0496  0.1425
 1298TIP3   OH2 3815   2.069   7.010   1.446  0.5320 -0.6105  0.3822
 1298TIP3    H1 3816   2.009   6.937   1.433  1.1206 -0.9408 -0.5181
 1298TIP3    H2 3817   2.087   7.042   1.358  0.3829  0.5367  0.7676
 1299TIP3   OH2 3818   0.274   3.743   2.149  0.4660  0.3327  0.0933
 1299TIP3    H1 3819   0.274   3.661   2.199  2.0772  0.4036  0.2415
 1299TIP3    H2 3820   0.254   3.810   2.214  0.2819  0.1812  0.1956
 1300TIP3   OH2 3821   1.694   2.022   2.415  0.4642 -0.3349  0.9096
 1300TIP3    H1 3822   1.691   2.004   2.509  2.3175 -0.1848  1.0019
 1300TIP3    H2 3823   1.786   2.015   2.391  0.2622  1.4454 -0.5455
 1301TIP3   OH2 3824   2.448   5.129   2.311  0.0687 -0.0392  0.5050
 1301TIP3    H1 3825   2.356   5.115   2.290  0.2796  0.6816 -0.9726
 1301TIP3    H2 3826   2.483   5.041   2.323 -0.6775 -0.3447  0.4775
 1302TIP3   OH2 3827   0.326   4.599   1.119 -0.1221  0.2687  0.2144
 1302TIP3    H1 3828   0.311   4.580   1.211  0.1956  0.0442  0.2191
 1302TIP3    H2 3829   0.257   4.662   1.096  1.0960  1.9631  1.1431
 1303TIP3   OH2 3830   8.760   5.180   4.071  0.2725 -0.2483 -0.3876
 1303TIP3    H1 3831   8.742   5.267   4.035 -0.2461 -0.1605  0.0821
 1303TIP3    H2 3832   8.786   5.196   4.162 -0.0772 -0.6006 -0.2215
 1304TIP3   OH2 3833   0.680   5.838   1.254  0.2214 -0.0898 -0.6445
 1304TIP3    H1 3834   0.601   5.863   1.301  1.1674 -0.1102  0.9766
 1304TIP3    H2 3835   0.713   5.920   1.216 -0.6414 -0.1066 -1.4475
 1305TIP3   OH2 3836   3.105   2.924   0.408 -0.1325 -0.1242 -0.3532
 1305TIP3    H1 3837   3.194   2.891   0.396 -0.2337 -0.0086 -1.5516
 1305TIP3    H2 3838   3.074   2.884   0.489  0.7350 -0.7763 -0.3418
 1306TIP3   OH2 3839   1.005   3.847   2.675 -0.2941  0.0918 -0.5186
 1306TIP3    H1 3840   0.916   3.860   2.644 -1.1614 -0.6116  1.5767
 1306TIP3    H2 3841   1.017   3.911   2.745  0.2507 -0.8908  0.3194
 1307TIP3   OH2 3842   2.975   4.603   0.780  0.0204 -0.4087 -0.5379
 1307TIP3    H1 3843   2.957   4.696   0.792  1.4932 -0.1934  0.1383
 1307TIP3    H2 3844   3.064   4.592   0.814 -0.2757 -2.1228 -0.2998
 1308TIP3   OH2 3845   2.897   4.800   0.962  0.1655 -0.4182  0.0857
 1308TIP3    H1 3846   2.894   4.895   0.953  1.4818 -0.4862 -1.2966
 1308TIP3    H2 3847   2.815   4.777   1.006  0.3141  1.4519  1.3753
 1309TIP3   OH2 3848   1.113   3.519   2.431 -0.0357 -0.2212 -0.3389
 1309TIP3    H1 3849   1.030   3.532   2.386  0.2387  0.0767 -0.7595
 1309TIP3    H2 3850   1.149   3.607   2.442  1.7352 -0.5351 -3.0228
 1310TIP3   OH2 3851   0.143   5.708   0.618 -0.8334  0.2536  0.0993
 1310TIP3    H1 3852   0.124   5.800   0.636 -1.0484  0.9489 -3.4057
 1310TIP3    H2 3853   0.074   5.660   0.663 -0.5730  1.7609  2.1783
 1311TIP3   OH2 3854   1.646   5.155   0.755  0.3107  0.1337 -0.1036
 1311TIP3    H1 3855   1.722   5.114   0.714  0.6164 -0.0913  0.6776
 1311TIP3    H2 3856   1.671   5.246   0.769  0.9459 -0.2506  1.3707
 1312TIP3   OH2 3857   2.043   5.238   0.653  0.5355  0.1864 -0.3181
 1312TIP3    H1 3858   2.115   5.271   0.599 -0.9198  3.0257 -0.6594
 1312TIP3    H2 3859   2.014   5.158   0.609  2.1025  0.1796 -1.3592
 1313TIP3   OH2 3860   2.547   3.585   2.103 -0.5381 -0.6675 -0.1254
 1313TIP3    H1 3861   2.534   3.609   2.194  0.4502 -3.3750  0.7621
 1313TIP3    H2 3862   2.461   3.556   2.073 -1.1414  1.3736 -0.4470
 1314TIP3   OH2 3863   4.242   4.417   2.431  0.2568  0.5358  0.2440
 1314TIP3    H1 3864   4.156   4.423   2.390  0.1287 -0.2164  0.3823
 1314TIP3    H2 3865   4.259   4.322   2.437  0.5168  0.6482  1.4108
 1315TIP3   OH2 3866   2.601   2.329   1.962 -0.2754  0.0605 -0.6130
 1315TIP3    H1 3867   2.590   2.243   2.003  0.0607 -0.5288 -1.7620
 1315TIP3    H2 3868   2.683   2.363   2.000  0.3187 -0.7148 -1.1918
 1316TIP3   OH2 3869   7.872   5.006   0.736 -0.0495 -0.2212  0.0856
 1316TIP3    H1 3870   7.788   5.048   0.758  0.1565 -0.0838  0.6213
 1316TIP3    H2 3871   7.908   4.981   0.821  0.8705  0.5099 -0.0915
 1317TIP3   OH2 3872   2.479   8.057   6.487  0.0560 -0.0053 -0.2445
 1317TIP3    H1 3873   2.557   8.104   6.458  0.3950 -0.1937  0.3485
 1317TIP3    H2 3874   2.426   8.047   6.408 -0.4188  2.1140 -0.2203
 1318TIP3   OH2 3875   2.716   5.831   2.724 -0.0293  0.6803 -0.7016
 1318TIP3    H1 3876   2.734   5.900   2.660  0.3338  2.1021  0.8875
 1318TIP3    H2 3877   2.801   5.812   2.763 -0.3889  0.4700 -0.0117
 1319TIP3   OH2 3878   1.029   4.180   1.489  0.7091  0.1597 -0.4784
 1319TIP3    H1 3879   1.083   4.232   1.548  2.0845 -0.2959 -1.3281
 1319TIP3    H2 3880   0.976   4.245   1.441  0.5130  0.6042  0.3380
 1320TIP3   OH2 3881   0.697   7.751   2.389 -0.4575  0.5396 -0.7017
 1320TIP3    H1 3882   0.765   7.746   2.456 -0.8658  2.0952 -0.1541
 1320TIP3    H2 3883   0.703   7.668   2.342 -0.6022 -0.8537  1.6835
 1321TIP3   OH2 3884   0.439   4.976   2.356  0.1426 -0.1858  0.7304
 1321TIP3    H1 3885   0.454   4.908   2.422 -0.8051 -0.9934  0.1223
 1321TIP3    H2 3886   0.406   4.929   2.280  0.0074  0.8967  0.1117
 1322TIP3   OH2 3887   2.585   6.601   0.954 -0.5302 -0.0912  0.3392
 1322TIP3    H1 3888   2.531   6.676   0.980  1.6021  2.0855 -1.4156
 1322TIP3    H2 3889   2.656   6.600   1.018  0.8138  0.9388 -1.1144
 1323TIP3   OH2 3890   1.788   3.911   3.076 -0.2398 -0.8557  0.3559
 1323TIP3    H1 3891   1.816   3.819   3.085  1.5716 -0.4499 -0.8077
 1323TIP3    H2 3892   1.864   3.955   3.039 -2.0407  0.5827 -1.7219
 1324TIP3   OH2 3893   4.528   7.894   6.571 -0.4773  0.1585 -0.0530
 1324TIP3    H1 3894   4.537   7.806   6.536  0.3307  0.9937 -2.0385
 1324TIP3    H2 3895   4.612   7.912   6.615 -1.4693 -0.8664  2.3476
 1325TIP3   OH2 3896   2.118   4.698   0.801  0.3977 -0.4383 -0.3412
 1325TIP3    H1 3897   2.141   4.779   0.847 -0.4744 -1.6768  2.3579
 1325TIP3    H2 3898   2.032   4.674   0.835 -0.6265 -1.0246 -3.1992
 1326TIP3   OH2 3899   1.293   3.365   1.384  0.3046 -0.1445 -0.3081
 1326TIP3    H1 3900   1.351   3.289   1.380 -1.2330 -1.2964 -1.4275
 1326TIP3    H2 3901   1.303   3.399   1.473  2.4126 -0.5267 -0.3790
 1327TIP3   OH2 3902   1.188   6.524   1.240  0.3181 -0.1349 -0.2733
 1327TIP3    H1 3903   1.192   6.599   1.300  0.5071  0.9188 -1.5785
 1327TIP3    H2 3904   1.120   6.547   1.177  1.2907 -0.4505 -1.4740
 1328TIP3   OH2 3905   8.029   6.675   2.312 -0.0226 -0.2703  0.3188
 1328TIP3    H1 3906   8.119   6.666   2.342  0.5011 -1.3366 -1.4237
 1328TIP3    H2 3907   7.986   6.595   2.342  0.0277 -0.4756 -0.1415
 1329TIP3   OH2 3908   2.079   3.479   2.070 -0.7896  0.6349  0.0449
 1329TIP3    H1 3909   2.070   3.551   2.132  0.9257  1.2796 -0.4302
 1329TIP3    H2 3910   2.102   3.521   1.987 -0.3422 -0.4237 -0.3799
 1330TIP3   OH2 3911   8.052   5.373   1.405 -0.0430 -0.0470 -0.1434
 1330TIP3    H1 3912   8.015   5.377   1.317 -1.7515 -1.2499  0.4919
 1330TIP3    H2 3913   8.147   5.368   1.391 -0.2801  0.0681 -1.8977
 1331TIP3   OH2 3914   2.813   5.603   0.455  0.5314  0.1085 -0.0508
 1331TIP3    H1 3915   2.789   5.694   0.474  0.4429  0.0954 -0.0985
 1331TIP3    H2 3916   2.754   5.578   0.384  1.7615  0.5885 -1.2492
 1332TIP3   OH2 3917   1.145   4.528   1.795  0.7544  0.0113 -0.0122
 1332TIP3    H1 3918   1.103   4.539   1.880 -3.5496 -1.0285 -1.8917
 1332TIP3    H2 3919   1.151   4.616   1.759  0.3897  0.2007  0.3882
 1333TIP3   OH2 3920   8.279   0.644   5.740 -0.6882  0.1324  0.3408
 1333TIP3    H1 3921   8.241   0.571   5.692 -3.8706  1.2974  1.0269
 1333TIP3    H2 3922   8.352   0.606   5.789  0.3659 -1.7396 -2.5845
 1334TIP3   OH2 3923   1.377   4.651   2.465  0.5750  0.4568  0.0140
 1334TIP3    H1 3924   1.318   4.575   2.467  0.4597  0.5310 -0.5464
 1334TIP3    H2 3925   1.425   4.645   2.547 -0.0256  0.2447  0.3578
 1335TIP3   OH2 3926   0.198   1.161   6.513 -0.4899 -0.5964 -0.2651
 1335TIP3    H1 3927   0.133   1.172   6.444 -1.6544 -0.4745  0.8385
 1335TIP3    H2 3928   0.179   1.231   6.576  0.0725 -1.1651  0.5511
 1336TIP3   OH2 3929   8.617   4.414   1.272  0.1686 -0.7037  0.3518
 1336TIP3    H1 3930   8.586   4.487   1.325 -0.3487 -0.4645 -0.2723
 1336TIP3    H2 3931   8.541   4.355   1.265 -0.2672  0.0190 -1.4196
 1337TIP3   OH2 3932   1.695   6.018   2.026  0.1619 -0.1339  0.6227
 1337TIP3    H1 3933   1.681   5.936   2.074  0.7403 -0.9716 -0.6189
 1337TIP3    H2 3934   1.702   6.084   2.094 -0.4361 -1.1024  1.6422
 1338TIP3   OH2 3935   0.105   4.488   3.125 -0.5068  0.1250  0.3888
 1338TIP3    H1 3936   0.092   4.583   3.128 -2.1809 -0.0805  0.3660
 1338TIP3    H2 3937   0.130   4.471   3.034  0.9819  0.6634  0.6796
 1339TIP3   OH2 3938   2.758   6.557   4.586 -0.1959  0.1420 -0.2389
 1339TIP3    H1 3939   2.678   6.608   4.573 -1.5532 -1.6755  0.6685
 1339TIP3    H2 3940   2.728   6.466   4.589  1.9744 -0.6131 -0.3744
 1340TIP3   OH2 3941   2.078   4.872   0.576 -0.1455  0.8270  0.0937
 1340TIP3    H1 3942   2.160   4.914   0.603  2.1855 -2.2270 -1.8736
 1340TIP3    H2 3943   2.040   4.839   0.657  1.3293  0.9793  0.8595
 1341TIP3   OH2 3944   2.851   4.245   0.468  0.5724 -0.2328  0.4723
 1341TIP3    H1 3945   2.819   4.159   0.495  0.4452 -0.7117 -1.1611
 1341TIP3    H2 3946   2.918   4.266   0.534 -0.2175 -1.0350  1.5665
 1342TIP3   OH2 3947   7.952   0.552   6.146 -0.0641 -0.4584 -0.4301
 1342TIP3    H1 3948   7.890   0.509   6.204  0.9798  0.7375  1.6521
 1342TIP3    H2 3949   8.033   0.555   6.196  1.2914 -0.7367 -2.5635
 1343TIP3   OH2 3950   8.827   5.322   0.833 -0.2100  0.3266  0.3251
 1343TIP3    H1 3951   8.910   5.275   0.823 -0.0036  1.0852 -1.7802
 1343TIP3    H2 3952   8.822   5.343   0.926  0.2890 -2.7505  1.1074
 1344TIP3   OH2 3953   3.446   6.828   7.209  0.1176 -0.0252  0.0837
 1344TIP3    H1 3954   3.364   6.824   7.258  0.3200  1.3390  0.5580
 1344TIP3    H2 3955   3.419   6.846   7.119 -0.1732 -0.9239 -0.0097
 1345TIP3   OH2 3956   0.908   6.091   0.570 -0.0287 -0.5275 -0.0730
 1345TIP3    H1 3957   1.001   6.097   0.592 -0.5290  0.6449  1.8371
 1345TIP3    H2 3958   0.863   6.113   0.651 -1.9740  2.6873 -1.9506
 1346TIP3   OH2 3959   7.728   5.138   1.694 -0.1528  0.1873  0.7107
 1346TIP3    H1 3960   7.822   5.143   1.678  0.0086 -0.9229  1.2582
 1346TIP3    H2 3961   7.695   5.084   1.623 -0.3816  0.5724  0.5230
 1347TIP3   OH2 3962   2.144   5.464   4.168  0.0496  0.1826 -0.1360
 1347TIP3    H1 3963   2.056   5.481   4.135  0.0852  2.1159  0.6999
 1347TIP3    H2 3964   2.185   5.550   4.173  2.1034 -0.7282 -0.8108
 1348TIP3   OH2 3965   1.736   6.037   2.846  0.4855 -0.4804 -0.2575
 1348TIP3    H1 3966   1.761   6.120   2.887  0.4161 -0.0685 -1.0284
 1348TIP3    H2 3967   1.778   5.970   2.899 -0.7524 -0.0281  1.3207
 1349TIP3   OH2 3968   3.005   5.064   0.315 -0.1565  0.0978  0.0708
 1349TIP3    H1 3969   3.031   4.995   0.253  0.1742  0.9235 -0.7104
 1349TIP3    H2 3970   2.915   5.084   0.292 -0.5055 -0.6068  0.7978
 1350TIP3   OH2 3971   0.183   4.794   1.006  0.0091 -0.5019  1.2181
 1350TIP3    H1 3972   0.163   4.792   0.912  1.2298 -0.5281  0.9525
 1350TIP3    H2 3973   0.097   4.797   1.048 -0.5411  0.1722  0.0827
 1351TIP3   OH2 3974   0.970   4.047   0.687 -0.5366 -0.1338 -0.2585
 1351TIP3    H1 3975   0.896   4.022   0.742 -0.1957 -0.9680 -0.1656
 1351TIP3    H2 3976   0.933   4.055   0.599 -1.0167  0.8742  0.0326
 1352TIP3   OH2 3977   7.042   1.076   6.120 -0.6052  0.1134  0.3158
 1352TIP3    H1 3978   7.018   1.166   6.096 -1.5824 -0.5289 -1.1584
 1352TIP3    H2 3979   7.113   1.054   6.061  0.9967  0.5984  2.0194
 1353TIP3   OH2 3980   3.219   4.274   1.080  0.2194 -0.8074  0.0095
 1353TIP3    H1 3981   3.218   4.224   1.161  1.1872 -0.4123  0.2757
 1353TIP3    H2 3982   3.181   4.215   1.014 -0.2876 -1.2317  0.6782
 1354TIP3   OH2 3983   0.956   6.770   4.001  0.1274  0.6437 -0.0223
 1354TIP3    H1 3984   0.870   6.775   4.044 -0.3082  2.3119 -1.0382
 1354TIP3    H2 3985   0.981   6.861   3.988  0.8564  0.1598 -2.1256
 1355TIP3   OH2 3986   0.515   3.008   1.083  0.0884  0.4968 -0.4711
 1355TIP3    H1 3987   0.440   3.064   1.101 -0.7173 -0.8761  0.4150
 1355TIP3    H2 3988   0.581   3.036   1.146 -0.1603  0.7314 -0.3128
 1356TIP3   OH2 3989   0.713   5.118   2.238  0.1544 -0.2095 -0.1634
 1356TIP3    H1 3990   0.801   5.107   2.203 -0.3836 -0.3009 -1.5331
 1356TIP3    H2 3991   0.693   5.035   2.280 -0.4970 -1.3454 -2.6657
 1357TIP3   OH2 3992   8.264   1.366   7.120 -0.0127  0.3885 -0.2754
 1357TIP3    H1 3993   8.228   1.323   7.043 -0.5269 -0.8585  0.6418
 1357TIP3    H2 3994   8.359   1.355   7.111 -0.1517 -1.4756  0.2156
 1358TIP3   OH2 3995   2.340   3.227   1.554  0.2430  0.0010  0.1882
 1358TIP3    H1 3996   2.417   3.188   1.595  0.9420  3.2114  2.0737
 1358TIP3    H2 3997   2.366   3.243   1.463  1.6025  0.5117  0.6583
 1359TIP3   OH2 3998   2.723   1.376   3.604 -0.0492  0.0241 -0.0220
 1359TIP3    H1 3999   2.806   1.393   3.647 -1.0409  1.9201  1.1992
 1359TIP3    H2 4000   2.692   1.294   3.643  0.1677  0.5225  1.2367
 1360TIP3   OH2 4001   8.070   7.110   2.876 -0.1273  0.2896 -0.3195
 1360TIP3    H1 4002   7.988   7.062   2.884 -0.4411  0.0955 -3.9405
 1360TIP3    H2 4003   8.050   7.183   2.817  2.1234  0.5945 -0.7548
 1361TIP3   OH2 4004   0.423   5.948   0.365 -0.6201 -0.0481  0.8476
 1361TIP3    H1 4005   0.408   5.859   0.331 -0.7612 -0.3557  1.6918
 1361TIP3    H2 4006   0.375   6.005   0.305  2.0684 -0.2397 -1.5713
 1362TIP3   OH2 4007   0.029   5.154   1.888 -0.0912  0.3950  0.4189
 1362TIP3    H1 4008  -0.044   5.119   1.939 -0.4249  1.1989  0.5009
 1362TIP3    H2 4009   0.100   5.162   1.952  0.0618 -0.3631  0.3451
 1363TIP3   OH2 4010   0.041   5.833   1.712  0.0252  0.3918 -0.0708
 1363TIP3    H1 4011   0.058   5.820   1.805 -1.4441 -0.9563  0.0441
 1363TIP3    H2 4012   0.060   5.748   1.672 -1.0918  0.4277 -0.7103
 1364TIP3   OH2 4013   0.029   6.644   1.701  0.0684 -0.0604  1.0282
 1364TIP3    H1 4014   0.072   6.623   1.784  1.6686  1.4243  0.6222
 1364TIP3    H2 4015   0.068   6.583   1.639 -0.2278 -0.3696  1.1504
 1365TIP3   OH2 4016   3.425   3.258   1.366  0.1254 -0.1023 -0.0175
 1365TIP3    H1 4017   3.338   3.238   1.402  0.2238 -0.4819  0.0169
 1365TIP3    H2 4018   3.458   3.330   1.420  0.5611 -1.1277  1.1182
 1366TIP3   OH2 4019   1.225   7.754   1.344 -0.3840  0.0493 -0.0383
 1366TIP3    H1 4020   1.255   7.715   1.262 -1.6729 -1.0680  0.0064
 1366TIP3    H2 4021   1.174   7.830   1.316 -1.6667 -0.8941 -0.3523
 1367TIP3   OH2 4022   2.461   4.136   3.694  0.0524  0.2102 -0.9365
 1367TIP3    H1 4023   2.498   4.129   3.606 -1.0491  1.4133 -1.5205
 1367TIP3    H2 4024   2.370   4.161   3.680 -0.0826  0.6402  0.5582
 1368TIP3   OH2 4025   0.029   5.105   0.313 -0.7768 -0.6314 -0.0473
 1368TIP3    H1 4026   0.002   5.014   0.298  1.2501 -1.4306  1.0850
 1368TIP3    H2 4027   0.018   5.119   0.407  1.2273 -0.4711  0.1734
 1369TIP3   OH2 4028   2.455   5.740   0.283  0.2919 -0.4191  0.6226
 1369TIP3    H1 4029   2.543   5.713   0.257 -0.2423 -0.8598 -0.8203
 1369TIP3    H2 4030   2.401   5.721   0.206 -0.9951  0.1891  1.3589
 1370TIP3   OH2 4031   2.901   2.480   0.509 -0.6356 -0.1568  0.0407
 1370TIP3    H1 4032   2.807   2.485   0.523 -0.7491 -0.8943 -0.4852
 1370TIP3    H2 4033   2.914   2.402   0.455  0.2363  0.1508 -0.2038
 1371TIP3   OH2 4034   1.202   3.769   1.456 -0.2741 -0.3705 -0.1714
 1371TIP3    H1 4035   1.159   3.830   1.516 -2.5762 -0.0450 -2.1161
 1371TIP3    H2 4036   1.171   3.683   1.483  0.0233 -0.3748  0.1648
 1372TIP3   OH2 4037   1.452   5.321   1.856 -0.2480 -0.8596 -0.0225
 1372TIP3    H1 4038   1.443   5.333   1.951 -1.2696 -0.6197 -0.1507
 1372TIP3    H2 4039   1.536   5.275   1.846  0.4228  0.1508  0.9095
 1373TIP3   OH2 4040   3.006   4.293   2.577  0.0061 -0.4391 -0.2694
 1373TIP3    H1 4041   3.067   4.303   2.504  2.0206  0.3029  1.4751
 1373TIP3    H2 4042   3.012   4.375   2.626 -0.2734 -1.4414  1.4945
 1374TIP3   OH2 4043   3.693   2.523   0.066 -0.1203 -0.0341  0.3135
 1374TIP3    H1 4044   3.770   2.549   0.117 -0.1053  0.3501  0.0993
 1374TIP3    H2 4045   3.718   2.441   0.025 -0.2709 -0.5445  1.2353
 1375TIP3   OH2 4046   0.605   5.144   1.970 -0.3948  1.1682  0.3597
 1375TIP3    H1 4047   0.523   5.099   1.985 -1.3564  2.5932 -0.4686
 1375TIP3    H2 4048   0.648   5.147   2.056 -1.3327  0.6900  0.8456
 1376TIP3   OH2 4049   1.552   4.246   2.202 -0.2303 -0.0963  0.1843
 1376TIP3    H1 4050   1.611   4.183   2.162  0.9031 -0.2807  2.0838
 1376TIP3    H2 4051   1.477   4.194   2.232  0.6605 -0.5349  1.6698
 1377TIP3   OH2 4052   1.277   4.648   4.005  0.5191 -0.0158  0.1722
 1377TIP3    H1 4053   1.330   4.709   3.953 -0.6988 -0.0946 -1.1908
 1377TIP3    H2 4054   1.188   4.662   3.974  0.2126 -2.4296 -0.0614
 1378TIP3   OH2 4055   4.900   4.643   1.790  0.9814 -0.0224  0.0975
 1378TIP3    H1 4056   4.922   4.727   1.829  1.2418  0.1812 -0.4963
 1378TIP3    H2 4057   4.984   4.603   1.769  0.8205  0.1144 -0.7953
 1379TIP3   OH2 4058   0.809   2.969   1.879  0.0559 -0.2988 -0.4361
 1379TIP3    H1 4059   0.836   2.949   1.789  0.0880  1.6602 -0.8969
 1379TIP3    H2 4060   0.887   3.008   1.919  1.1497 -4.2362  1.5631
 1380TIP3   OH2 4061   1.805   5.623   1.770 -0.4373  0.3526 -0.6480
 1380TIP3    H1 4062   1.768   5.710   1.787 -0.5285 -0.1154  1.7703
 1380TIP3    H2 4063   1.859   5.605   1.847  0.7163 -1.1436 -1.7870
 1381TIP3   OH2 4064   1.529   4.532   1.759 -0.0567  0.3391  0.0403
 1381TIP3    H1 4065   1.488   4.602   1.810  0.6781  0.3890  0.5743
 1381TIP3    H2 4066   1.510   4.555   1.668  0.8622  1.6893  0.1600
 1382TIP3   OH2 4067   8.331   4.485   1.073 -0.1534 -0.2345  0.1694
 1382TIP3    H1 4068   8.240   4.464   1.050  0.3054 -1.5929 -0.4817
 1382TIP3    H2 4069   8.360   4.411   1.126  0.6627  0.0681  0.1524
 1383TIP3   OH2 4070   4.091   2.937   2.049 -1.0013 -0.4047  0.4451
 1383TIP3    H1 4071   4.046   3.021   2.062 -1.8652 -0.9386  0.9305
 1383TIP3    H2 4072   4.181   2.954   2.077 -0.5448  1.0325 -1.7498
 1384TIP3   OH2 4073   7.623   1.306   6.605  0.0779 -0.2040 -0.0842
 1384TIP3    H1 4074   7.566   1.233   6.583 -3.2452  2.3204 -0.2143
 1384TIP3    H2 4075   7.639   1.297   6.699 -0.0390 -1.2145 -0.1540
 1385TIP3   OH2 4076   2.334   6.391   2.261  0.1936 -0.0780 -0.5071
 1385TIP3    H1 4077   2.242   6.412   2.243  0.0205  0.4270  0.9258
 1385TIP3    H2 4078   2.341   6.393   2.356  2.4123  3.0706 -0.6819
 1386TIP3   OH2 4079   8.471   0.288   7.167  0.2523  0.2872 -0.0385
 1386TIP3    H1 4080   8.478   0.285   7.263 -2.1979 -1.1394  0.1413
 1386TIP3    H2 4081   8.426   0.207   7.144  0.8509  0.5933 -2.4366
 1387TIP3   OH2 4082   2.442   6.126   2.247 -0.2265 -0.0862 -0.0890
 1387TIP3    H1 4083   2.422   6.100   2.158 -0.5112 -0.9445  0.2194
 1387TIP3    H2 4084   2.394   6.208   2.260 -1.1679 -0.5982 -0.3194
 1388TIP3   OH2 4085   3.215   5.819   0.176  0.3718 -0.3575  0.2054
 1388TIP3    H1 4086   3.156   5.793   0.247  1.7351 -0.3166  1.3584
 1388TIP3    H2 4087   3.269   5.888   0.213  0.3924  0.4111 -1.2089
 1389TIP3   OH2 4088   2.673   3.417   1.396 -0.4289  0.1341 -0.2094
 1389TIP3    H1 4089   2.738   3.438   1.329  0.4935  0.3036  0.7225
 1389TIP3    H2 4090   2.598   3.382   1.347 -0.1747  1.2196 -1.4012
 1390TIP3   OH2 4091   1.201   5.586   1.452 -0.0206 -0.4488 -0.5852
 1390TIP3    H1 4092   1.223   5.493   1.453 -1.7837 -0.8765 -0.8057
 1390TIP3    H2 4093   1.125   5.593   1.394 -0.9577  0.8808  0.7418
 1391TIP3   OH2 4094   4.608   8.245   5.539  0.5067  0.2979 -0.1166
 1391TIP3    H1 4095   4.557   8.281   5.466  1.3958 -2.2570 -2.0620
 1391TIP3    H2 4096   4.552   8.258   5.615 -2.5027 -1.1196 -1.9738
 1392TIP3   OH2 4097   2.361   3.601   1.298 -0.6172 -0.1369 -0.6082
 1392TIP3    H1 4098   2.411   3.639   1.370 -0.8783 -2.1643  0.6894
 1392TIP3    H2 4099   2.270   3.617   1.322 -0.7407 -1.9566  0.1862
 1393TIP3   OH2 4100   3.212   7.119   0.444 -0.2960  1.0974  0.1974
 1393TIP3    H1 4101   3.208   7.023   0.444 -0.5224  1.1065  0.3109
 1393TIP3    H2 4102   3.148   7.145   0.378  0.9233  1.1252 -1.0016
 1394TIP3   OH2 4103   2.532   7.253   2.152 -0.0995  0.1832  0.0241
 1394TIP3    H1 4104   2.523   7.181   2.214 -2.2181  0.1791 -0.2403
 1394TIP3    H2 4105   2.619   7.290   2.169  0.1032 -1.0242  1.6659
 1395TIP3   OH2 4106   4.016   4.810   2.850 -0.3487 -0.3157  0.7381
 1395TIP3    H1 4107   4.024   4.904   2.869 -1.7490 -0.2950  1.2639
 1395TIP3    H2 4108   4.102   4.774   2.871  0.2365  0.8682  0.4226
 1396TIP3   OH2 4109   7.696   1.167   4.399  0.0447 -0.7006  0.2891
 1396TIP3    H1 4110   7.708   1.258   4.426  0.5401 -0.9727  0.9852
 1396TIP3    H2 4111   7.603   1.150   4.411 -0.2446  0.0200 -0.8070
 1397TIP3   OH2 4112   2.180   3.458   2.522 -0.6211 -0.5242 -0.3650
 1397TIP3    H1 4113   2.142   3.445   2.608  2.1638 -2.6620  0.6259
 1397TIP3    H2 4114   2.195   3.369   2.488  0.6224  0.2544 -1.9650
 1398TIP3   OH2 4115   1.694   2.351   2.182  0.3329  0.6295 -0.1419
 1398TIP3    H1 4116   1.675   2.417   2.115 -3.0658  0.1113  0.1954
 1398TIP3    H2 4117   1.676   2.268   2.139 -1.0897  0.2595  1.1141
 1399TIP3   OH2 4118   2.801   2.486   2.099 -0.1475  0.5807  0.0140
 1399TIP3    H1 4119   2.739   2.502   2.171 -0.7853  1.5140 -0.7484
 1399TIP3    H2 4120   2.837   2.571   2.079  1.2993  0.0580  0.3545
 1400TIP3   OH2 4121   1.430   5.211   2.799 -0.1061  0.1142  0.6455
 1400TIP3    H1 4122   1.345   5.211   2.843 -0.9134  0.0642 -0.8831
 1400TIP3    H2 4123   1.441   5.300   2.767 -0.2691 -0.2505 -0.4470
 1401TIP3   OH2 4124   2.882   4.688   3.779 -0.0036 -0.0850  0.6790
 1401TIP3    H1 4125   2.899   4.772   3.820 -1.8425  0.2972  0.7170
 1401TIP3    H2 4126   2.922   4.624   3.838 -0.1218  0.6463  1.5619
 1402TIP3   OH2 4127   3.102   4.512   0.533  0.6312 -0.1081 -0.0227
 1402TIP3    H1 4128   3.162   4.568   0.484  1.5755 -1.9555 -1.0371
 1402TIP3    H2 4129   3.133   4.518   0.624  2.3039 -0.9368 -0.5115
 1403TIP3   OH2 4130   1.967   7.865   7.177  0.0016 -0.0105  0.2414
 1403TIP3    H1 4131   2.054   7.883   7.144 -0.8244 -0.7032 -2.3882
 1403TIP3    H2 4132   1.920   7.948   7.170  0.5381  0.4782  2.0739
 1404TIP3   OH2 4133   8.896   4.166   1.359 -0.2815 -0.4836 -0.1826
 1404TIP3    H1 4134   8.899   4.204   1.271  0.0021  0.5172  0.2509
 1404TIP3    H2 4135   8.804   4.173   1.384  0.0632  1.5902  0.6015
 1405TIP3   OH2 4136   1.526   6.813   1.014 -0.4565 -0.4786 -0.0604
 1405TIP3    H1 4137   1.489   6.755   0.947 -0.2101 -0.0739 -0.5469
 1405TIP3    H2 4138   1.587   6.869   0.966 -1.2683  0.6957  0.2894
 1406TIP3   OH2 4139   1.733   4.392   1.455  0.3653 -0.2848  0.2585
 1406TIP3    H1 4140   1.699   4.310   1.420  1.8754 -0.3136 -1.1784
 1406TIP3    H2 4141   1.666   4.457   1.435  0.4590 -0.6289 -1.1706
 1407TIP3   OH2 4142   1.231   6.116   0.882 -0.0494 -0.3092  0.2156
 1407TIP3    H1 4143   1.238   6.103   0.977 -1.2782 -2.3957  0.0574
 1407TIP3    H2 4144   1.182   6.198   0.872  2.0592  1.1414  1.3436
 1408TIP3   OH2 4145   8.499   3.935   1.376  0.1200  0.5931  0.0044
 1408TIP3    H1 4146   8.589   3.949   1.405  0.6386 -0.6249 -1.0047
 1408TIP3    H2 4147   8.504   3.864   1.312 -1.3572  1.4687 -1.1351
 1409TIP3   OH2 4148   6.772   1.907   6.811 -0.7717 -0.1076  0.2695
 1409TIP3    H1 4149   6.785   1.861   6.894 -2.9847 -0.1712  0.5988
 1409TIP3    H2 4150   6.770   1.999   6.835  0.8905  0.0268 -0.0370
 1410TIP3   OH2 4151   1.616   5.095   3.044 -0.3784 -0.5377  0.8947
 1410TIP3    H1 4152   1.563   5.175   3.037  0.4260 -0.0066  0.8818
 1410TIP3    H2 4153   1.665   5.106   3.125 -0.2199 -0.9959  0.8619
 1411TIP3   OH2 4154   5.735   2.057   7.124  0.1130  0.6023 -0.2419
 1411TIP3    H1 4155   5.751   2.084   7.034 -0.7595  2.9226  0.2515
 1411TIP3    H2 4156   5.811   2.005   7.148  0.2257 -0.2578 -2.3886
 1412TIP3   OH2 4157   6.356   1.375   6.212 -0.2395 -0.3344 -0.2419
 1412TIP3    H1 4158   6.284   1.335   6.163 -0.1893 -2.5654  1.4065
 1412TIP3    H2 4159   6.435   1.350   6.164 -0.4743  1.4110 -1.5828
 1413TIP3   OH2 4160   2.397   5.296   1.810 -0.2430  0.1775  0.3699
 1413TIP3    H1 4161   2.372   5.386   1.791 -0.2856 -0.3137 -2.0796
 1413TIP3    H2 4162   2.488   5.290   1.780 -0.3940 -0.6986  0.0616
 1414TIP3   OH2 4163   0.968   5.994   0.335 -0.2827 -0.9000  0.0934
 1414TIP3    H1 4164   0.878   5.985   0.304 -0.6212  0.6473  0.5844
 1414TIP3    H2 4165   0.960   6.005   0.430  0.4101 -0.6164  0.1216
 1415TIP3   OH2 4166   2.093   4.462   1.782 -0.4460  0.6509 -0.0898
 1415TIP3    H1 4167   2.142   4.501   1.709  0.5791 -1.5025 -0.5806
 1415TIP3    H2 4168   2.014   4.427   1.741 -0.8523  1.2453  0.1777
 1416TIP3   OH2 4169   1.528   7.087   1.684  0.6353  0.0154 -0.1501
 1416TIP3    H1 4170   1.487   7.012   1.727  1.2422 -0.1279  0.1853
 1416TIP3    H2 4171   1.595   7.050   1.628 -0.8068  0.1421 -1.9937
 1417TIP3   OH2 4172   3.215   3.322   0.922  0.1394 -0.0466  0.0294
 1417TIP3    H1 4173   3.197   3.239   0.876 -1.5358  0.6313 -0.5578
 1417TIP3    H2 4174   3.197   3.389   0.856 -0.4367  0.8657  1.1204
 1418TIP3   OH2 4175   2.309   4.370   0.181 -0.3432 -0.1344  0.1198
 1418TIP3    H1 4176   2.240   4.432   0.154 -0.4569 -1.5817 -3.1692
 1418TIP3    H2 4177   2.390   4.422   0.177 -0.8208  0.6664  0.6562
 1419TIP3   OH2 4178   2.686   6.358   6.695  0.1106  0.1027 -0.1995
 1419TIP3    H1 4179   2.738   6.295   6.646 -0.4824 -1.9675  1.7494
 1419TIP3    H2 4180   2.742   6.384   6.768 -0.6642 -0.2986  0.5505
 1420TIP3   OH2 4181   2.391   2.588   1.086  0.2853 -0.2329 -0.3305
 1420TIP3    H1 4182   2.437   2.671   1.079  0.5085 -0.2840  0.4976
 1420TIP3    H2 4183   2.395   2.551   0.998  0.4623  0.4838 -0.6273
 1421TIP3   OH2 4184   4.034   1.850   1.468  0.5362  0.6001 -0.9365
 1421TIP3    H1 4185   3.987   1.918   1.419  0.2544  0.2644 -1.1395
 1421TIP3    H2 4186   4.049   1.888   1.554 -0.1420  0.7066 -0.8583
 1422TIP3   OH2 4187   2.413   3.293   1.303 -0.4631 -0.3813  0.3675
 1422TIP3    H1 4188   2.399   3.224   1.238  0.7536 -0.4396  0.1387
 1422TIP3    H2 4189   2.379   3.372   1.263 -4.3122 -1.2621  1.6783
 1423TIP3   OH2 4190   0.444   3.096   2.176 -0.5236 -0.2481  0.1157
 1423TIP3    H1 4191   0.423   3.023   2.118  0.1759 -0.9413  0.7286
 1423TIP3    H2 4192   0.522   3.137   2.136  0.0492 -0.8182  0.6478
 1424TIP3   OH2 4193   8.534   1.034   6.374  0.0515  0.0601  0.1187
 1424TIP3    H1 4194   8.468   1.091   6.335 -0.7910 -1.2380 -0.3811
 1424TIP3    H2 4195   8.506   1.023   6.465  0.4821  0.8241  0.3479
 1425TIP3   OH2 4196   2.604   3.606   1.581  0.2712  0.2134 -0.2283
 1425TIP3    H1 4197   2.591   3.554   1.661 -2.3442  0.9506 -0.1080
 1425TIP3    H2 4198   2.599   3.541   1.510  0.4498 -0.1623  0.1013
 1426TIP3   OH2 4199   2.710   1.605   2.859  0.1523  0.2482  0.3176
 1426TIP3    H1 4200   2.749   1.549   2.926 -1.9769 -0.3818  1.0665
 1426TIP3    H2 4201   2.782   1.659   2.827  1.6844 -1.1085  1.4344
 1427TIP3   OH2 4202   1.588   2.710   1.181  0.2689  0.2635 -0.4924
 1427TIP3    H1 4203   1.511   2.741   1.134 -1.5754 -1.2599  1.3978
 1427TIP3    H2 4204   1.594   2.766   1.259  1.5638  0.8768 -1.0068
 1428TIP3   OH2 4205   3.004   2.636   1.224 -0.0508  0.2424  0.3869
 1428TIP3    H1 4206   2.984   2.607   1.313 -1.5833 -0.5680 -0.1955
 1428TIP3    H2 4207   2.954   2.717   1.213 -1.9013 -0.9682 -0.5449
 1429TIP3   OH2 4208   3.282   7.250   4.412  0.4651  0.2216  0.5072
 1429TIP3    H1 4209   3.295   7.284   4.323  0.6072 -1.6639 -0.2098
 1429TIP3    H2 4210   3.368   7.215   4.436  0.0403 -0.6073  0.8054
 1430TIP3   OH2 4211   0.812   0.625   6.525  0.1028 -0.3062 -0.0473
 1430TIP3    H1 4212   0.793   0.646   6.617 -1.2385 -1.0630 -0.1415
 1430TIP3    H2 4213   0.883   0.561   6.530  0.7955  0.4812  0.4145
 1431TIP3   OH2 4214   2.660   3.640   0.665  0.2392 -0.5195 -0.0092
 1431TIP3    H1 4215   2.607   3.713   0.697  0.7521 -1.0092  2.0114
 1431TIP3    H2 4216   2.604   3.563   0.677 -0.3181 -0.4924 -2.1722
 1432TIP3   OH2 4217   8.656   0.942   6.783  0.0477 -0.2328 -0.2732
 1432TIP3    H1 4218   8.718   0.922   6.713 -0.7672  0.6763 -1.2620
 1432TIP3    H2 4219   8.623   1.029   6.762 -2.5720 -1.2483 -0.5176
 1433TIP3   OH2 4220   5.618   8.191   6.256 -0.4207  0.0828 -0.1626
 1433TIP3    H1 4221   5.618   8.098   6.234  0.2735 -0.0850  0.5185
 1433TIP3    H2 4222   5.693   8.202   6.315 -1.7558  0.6504  1.4757
 1434TIP3   OH2 4223   3.048   6.125   1.305  0.4502  0.0501  0.0956
 1434TIP3    H1 4224   3.105   6.098   1.377  1.2584  0.1184 -0.5069
 1434TIP3    H2 4225   3.051   6.052   1.243  1.0726  0.6824 -0.6294
 1435TIP3   OH2 4226   1.996   4.010   0.688 -0.0756 -0.1778  0.2845
 1435TIP3    H1 4227   2.046   3.962   0.754  1.3371  0.6066 -0.2186
 1435TIP3    H2 4228   1.991   4.099   0.721 -0.3298 -0.0371 -0.1256
 1436TIP3   OH2 4229   3.321   4.523   0.109  0.4011  0.1916 -0.4271
 1436TIP3    H1 4230   3.312   4.433   0.140 -1.2380  0.2294 -0.7357
 1436TIP3    H2 4231   3.274   4.525   0.026 -1.2676  1.7769  0.5127
 1437TIP3   OH2 4232   3.868   6.855   0.475 -0.5208 -0.1230  0.0196
 1437TIP3    H1 4233   3.908   6.826   0.394  0.6274  0.3030  0.4317
 1437TIP3    H2 4234   3.882   6.950   0.477 -2.2219  0.1546 -0.2012
 1438TIP3   OH2 4235   0.363   1.715   6.232  0.3319 -0.5003 -0.0750
 1438TIP3    H1 4236   0.367   1.664   6.152  0.9363 -0.6481  0.0473
 1438TIP3    H2 4237   0.364   1.806   6.202 -1.9906 -0.5323 -0.3528
 1439TIP3   OH2 4238   3.540   3.997   0.176 -0.6729 -0.2095  0.2263
 1439TIP3    H1 4239   3.460   3.949   0.154  0.7335 -1.9553 -1.3002
 1439TIP3    H2 4240   3.552   3.982   0.270 -1.0596 -1.6731  0.0583
 1440TIP3   OH2 4241   5.518   8.037   7.017 -0.1013 -0.2466 -0.3107
 1440TIP3    H1 4242   5.564   8.058   6.936  0.1782  1.7902  0.3693
 1440TIP3    H2 4243   5.586   8.037   7.084 -0.0496 -3.4818 -0.2606
 1441TIP3   OH2 4244   1.824   3.537   1.949  0.1465  0.4688  0.7700
 1441TIP3    H1 4245   1.903   3.483   1.960  0.0022 -0.0191 -0.4918
 1441TIP3    H2 4246   1.768   3.485   1.891 -0.1196  1.8405 -0.2357
 1442TIP3   OH2 4247   2.795   3.353   1.657 -0.4549 -0.8568  0.5561
 1442TIP3    H1 4248   2.706   3.358   1.693 -1.5142 -0.8257 -1.9605
 1442TIP3    H2 4249   2.785   3.383   1.567  2.6229  1.8048  1.0283
 1443TIP3   OH2 4250   0.237   1.747   7.127  0.6446  0.0575 -0.3511
 1443TIP3    H1 4251   0.220   1.742   7.033  0.1815  1.1895 -0.3349
 1443TIP3    H2 4252   0.331   1.759   7.134  0.5116  1.3975 -0.7317
 1444TIP3   OH2 4253   3.345   5.255   0.473 -0.1219  0.0912 -0.2056
 1444TIP3    H1 4254   3.346   5.228   0.381 -0.2818 -0.1087 -0.1475
 1444TIP3    H2 4255   3.363   5.349   0.470  0.4256 -0.0197 -0.4027
 1445TIP3   OH2 4256   1.778   7.311   0.442 -0.2176 -0.1082  0.1810
 1445TIP3    H1 4257   1.807   7.279   0.356  1.0202 -0.4663  0.7144
 1445TIP3    H2 4258   1.845   7.374   0.468 -1.2626  0.9524  0.3241
 1446TIP3   OH2 4259   6.035   4.084   1.574  0.3297  0.0994 -0.1327
 1446TIP3    H1 4260   6.041   3.989   1.565 -1.0585 -0.1364  1.1800
 1446TIP3    H2 4261   6.068   4.102   1.662  1.0866  0.8889 -0.5757
 1447TIP3   OH2 4262   2.645   4.211   0.743  0.0325 -0.3553  0.6245
 1447TIP3    H1 4263   2.625   4.167   0.825 -2.0281 -0.5892  0.0087
 1447TIP3    H2 4264   2.679   4.141   0.686  0.4513 -0.3889  0.9093
 1448TIP3   OH2 4265   2.916   5.064   0.951  0.1852 -0.4302  0.3129
 1448TIP3    H1 4266   2.947   5.082   0.862 -1.0399 -1.4187 -0.3242
 1448TIP3    H2 4267   2.943   5.141   1.001  1.3867 -0.1149 -0.7842
 1449TIP3   OH2 4268   2.314   6.088   4.659 -0.4974 -0.5323 -0.4147
 1449TIP3    H1 4269   2.386   6.037   4.695 -1.6974 -1.8928  0.1093
 1449TIP3    H2 4270   2.257   6.023   4.616 -1.9070  0.3835  0.0199
 1450TIP3   OH2 4271   1.481   6.586   0.222  0.4852 -0.0488  0.1059
 1450TIP3    H1 4272   1.488   6.492   0.203 -0.1351 -0.4471  1.7670
 1450TIP3    H2 4273   1.416   6.591   0.293  1.7489  1.4853  1.1782
 1451TIP3   OH2 4274   5.904   6.876   1.628 -0.0728 -0.0435  0.0406
 1451TIP3    H1 4275   5.820   6.831   1.632 -0.1728  0.0685 -0.8446
 1451TIP3    H2 4276   5.924   6.896   1.720 -1.6981  1.1767  0.1513
 1452TIP3   OH2 4277   3.392   4.185   1.708  0.4139  0.1465 -0.0899
 1452TIP3    H1 4278   3.412   4.221   1.621  0.3314  0.6904  0.1169
 1452TIP3    H2 4279   3.406   4.258   1.768 -0.3181 -0.0063  0.2706
 1453TIP3   OH2 4280   2.429   4.626   0.848  0.1352  0.2153  0.1284
 1453TIP3    H1 4281   2.366   4.604   0.917 -0.6412 -0.7213 -0.8557
 1453TIP3    H2 4282   2.452   4.542   0.809 -0.0088  0.7992 -1.2499
 1454TIP3   OH2 4283   3.827   5.530   0.172  0.2071 -0.3916 -0.1604
 1454TIP3    H1 4284   3.854   5.447   0.213 -1.3137 -1.4363 -1.2019
 1454TIP3    H2 4285   3.735   5.538   0.194  0.1869  0.6914 -0.6367
 1455TIP3   OH2 4286   3.337   6.083   0.271  0.6218  0.2464  0.4965
 1455TIP3    H1 4287   3.257   6.133   0.288  1.3625  1.2711  1.0093
 1455TIP3    H2 4288   3.352   6.092   0.177  1.1237  1.5670  0.6958
 1456TIP3   OH2 4289   4.534   6.088   2.378 -0.1630 -0.0054 -0.1878
 1456TIP3    H1 4290   4.454   6.139   2.367 -1.0964 -0.5393  3.3114
 1456TIP3    H2 4291   4.567   6.115   2.464  2.2124 -1.4133 -0.6170
 1457TIP3   OH2 4292   2.214   1.943   1.857 -0.3396 -0.3343 -0.4177
 1457TIP3    H1 4293   2.139   1.884   1.866  0.0011 -0.7794 -0.5154
 1457TIP3    H2 4294   2.202   1.984   1.771  0.0628 -1.1525 -0.8697
 1458TIP3   OH2 4295   0.376   0.115   5.623 -0.0707  0.0508 -0.6703
 1458TIP3    H1 4296   0.410   0.169   5.694 -1.5325  0.0696  0.0454
 1458TIP3    H2 4297   0.347   0.034   5.667 -0.1248 -0.3111 -1.3729
 1459TIP3   OH2 4298   5.476   4.911   0.230  0.0854 -0.1905  0.1755
 1459TIP3    H1 4299   5.534   4.913   0.305  1.3890 -1.2279 -0.7649
 1459TIP3    H2 4300   5.393   4.946   0.262  0.6409 -0.5443  2.0553
 1460TIP3   OH2 4301   2.406   5.453   1.071  0.3512 -0.1921 -0.0690
 1460TIP3    H1 4302   2.471   5.415   1.011  0.9761 -0.6847  0.9081
 1460TIP3    H2 4303   2.457   5.482   1.147 -0.5912 -0.7524  0.7962
 1461TIP3   OH2 4304   3.900   6.264   0.393  0.1246  0.0375  0.5859
 1461TIP3    H1 4305   3.826   6.275   0.452 -1.0672  1.3864 -1.0968
 1461TIP3    H2 4306   3.872   6.197   0.331 -0.0492  1.1552 -0.5696
 1462TIP3   OH2 4307   2.552   4.499   0.167 -0.5967  0.5263 -0.5271
 1462TIP3    H1 4308   2.612   4.573   0.164 -0.7722  0.7785  1.6217
 1462TIP3    H2 4309   2.602   4.429   0.210 -0.1983 -0.8686 -3.1067
 1463TIP3   OH2 4310   3.147   5.431   1.197  0.1704  0.6820  0.0076
 1463TIP3    H1 4311   3.204   5.486   1.251  0.1595  0.1818  0.5318
 1463TIP3    H2 4312   3.130   5.354   1.251 -2.1300  1.4503  0.4333
 1464TIP3   OH2 4313   2.913   5.433   1.735 -0.0941 -0.3887  0.3017
 1464TIP3    H1 4314   2.918   5.380   1.655 -1.3957 -0.8171  0.4904
 1464TIP3    H2 4315   2.822   5.423   1.764 -0.0437  1.0171  0.9790
 1465TIP3   OH2 4316   1.220   0.404   6.840 -0.1378  0.1928 -0.2378
 1465TIP3    H1 4317   1.240   0.310   6.844  0.4671  0.3203 -0.1361
 1465TIP3    H2 4318   1.301   0.446   6.868  0.0717  0.7775 -1.6916
 1466TIP3   OH2 4319   5.122   7.896   1.546  0.0288 -0.0935 -0.0323
 1466TIP3    H1 4320   5.162   7.982   1.564  1.0556 -0.8530  1.3814
 1466TIP3    H2 4321   5.049   7.890   1.607 -0.9490  0.3955 -1.1533
 1467TIP3   OH2 4322   4.632   5.080   0.224 -0.2113 -0.9327 -0.6214
 1467TIP3    H1 4323   4.612   5.144   0.155  0.1586  1.3735  1.3568
 1467TIP3    H2 4324   4.725   5.062   0.212  0.3753  1.1010  0.5341
 1468TIP3   OH2 4325   8.738   0.393   7.078  0.0451 -0.4521 -0.6781
 1468TIP3    H1 4326   8.684   0.314   7.074 -0.8539  0.0475  0.9962
 1468TIP3    H2 4327   8.749   0.420   6.987 -1.8557 -1.0286 -1.1043
 1469TIP3   OH2 4328   1.866   6.445   0.222  0.5648  0.4979  0.3903
 1469TIP3    H1 4329   1.842   6.355   0.198 -1.3944 -0.0184  4.0372
 1469TIP3    H2 4330   1.847   6.496   0.143  0.9198 -2.1446 -1.4692
 1470TIP3   OH2 4331   4.045   4.826   0.446  0.8452 -0.7724 -0.2336
 1470TIP3    H1 4332   4.032   4.732   0.460 -0.4172 -0.5726  0.0369
 1470TIP3    H2 4333   3.968   4.867   0.488  1.3015  0.3622 -0.4955
 1471TIP3   OH2 4334   4.760   3.592   1.520 -0.0039 -0.2146 -0.0181
 1471TIP3    H1 4335   4.741   3.683   1.539  0.2034 -0.4089  1.1425
 1471TIP3    H2 4336   4.730   3.544   1.598 -0.5935 -1.1943 -0.8260
 1472TIP3   OH2 4337   3.660   8.064   6.602  0.5048 -0.0087 -0.5294
 1472TIP3    H1 4338   3.725   8.087   6.669  0.4969  3.1818 -1.5144
 1472TIP3    H2 4339   3.709   8.015   6.537  1.6006  1.0023 -0.4892
 1473TIP3   OH2 4340   3.444   3.565   1.825  0.4016  0.1301 -0.2825
 1473TIP3    H1 4341   3.511   3.633   1.833  1.7673 -1.2980  0.9684
 1473TIP3    H2 4342   3.361   3.611   1.838  1.3801  1.3234  2.2692
 1474TIP3   OH2 4343   4.834   0.155   0.728  0.0327 -0.0050 -0.5214
 1474TIP3    H1 4344   4.860   0.245   0.707 -0.4877  0.7689  1.9694
 1474TIP3    H2 4345   4.812   0.158   0.821 -0.5668 -2.5949 -0.5531
 1475TIP3   OH2 4346   4.404   5.026   0.600 -0.1620  0.2933  0.0148
 1475TIP3    H1 4347   4.334   5.063   0.546  0.0411  0.2191 -0.3036
 1475TIP3    H2 4348   4.480   5.023   0.541 -0.1790 -0.6172  0.0321
 1476TIP3   OH2 4349   2.342   7.143   1.091  0.1333  0.3769  0.1785
 1476TIP3    H1 4350   2.273   7.085   1.124  2.1777 -1.8675  0.6017
 1476TIP3    H2 4351   2.313   7.167   1.003 -0.3271 -2.0016 -0.3431
 1477TIP3   OH2 4352   1.221   7.600   0.091  0.0721 -0.0977  0.6581
 1477TIP3    H1 4353   1.147   7.597   0.030  1.2822 -1.3507 -0.8069
 1477TIP3    H2 4354   1.249   7.509   0.099  2.9200  0.5702 -0.7041
 1478TIP3   OH2 4355   3.978   4.454   1.173 -1.2504 -0.1661  0.5245
 1478TIP3    H1 4356   3.974   4.401   1.253 -1.1753 -1.2481 -0.1670
 1478TIP3    H2 4357   4.004   4.391   1.105 -0.2176  0.9731 -0.1489
 1479TIP3   OH2 4358   3.319   3.526   0.448  0.1806 -0.0606 -0.4581
 1479TIP3    H1 4359   3.412   3.540   0.467  0.4825 -1.4518 -0.8535
 1479TIP3    H2 4360   3.274   3.542   0.531  0.6576  1.5411 -0.4852
 1480TIP3   OH2 4361   3.208   2.676   1.608  0.1910 -0.4368 -0.0813
 1480TIP3    H1 4362   3.187   2.592   1.648  1.3831 -0.8504 -0.2915
 1480TIP3    H2 4363   3.249   2.654   1.524  1.2223  0.3223  0.2049
 1481TIP3   OH2 4364   3.438   2.334   0.727  0.1192  0.0542 -0.0649
 1481TIP3    H1 4365   3.532   2.324   0.740  0.0442 -0.7090 -0.1006
 1481TIP3    H2 4366   3.399   2.309   0.811 -0.1898 -2.0151 -0.8037
 1482TIP3   OH2 4367   4.271   4.603   1.432  0.8731 -0.3512 -0.2670
 1482TIP3    H1 4368   4.264   4.544   1.507  1.8182  0.4401  0.4618
 1482TIP3    H2 4369   4.338   4.564   1.376  0.9984 -0.3360 -0.1286
 1483TIP3   OH2 4370   2.129   4.842   1.041 -0.1396 -1.2874  0.0509
 1483TIP3    H1 4371   2.075   4.872   1.114 -0.6760 -2.5642  0.1840
 1483TIP3    H2 4372   2.165   4.758   1.070  1.0899 -0.9562 -0.4465
 1484TIP3   OH2 4373   3.394   4.476   1.013  0.8245 -0.6538 -0.2460
 1484TIP3    H1 4374   3.429   4.512   1.095  0.7399 -0.1129 -0.4458
 1484TIP3    H2 4375   3.340   4.402   1.041  0.3818 -0.1626  0.2376
 1485TIP3   OH2 4376   7.630   0.159   7.062  0.0916  0.9072  0.7342
 1485TIP3    H1 4377   7.637   0.085   7.001 -0.2666  1.6131 -0.1636
 1485TIP3    H2 4378   7.604   0.233   7.008  0.1187  1.6265  1.6902
 1486TIP3   OH2 4379   3.048   6.724   1.196  0.7688  0.0578  0.6660
 1486TIP3    H1 4380   3.043   6.635   1.231  1.2962 -0.2896 -0.1205
 1486TIP3    H2 4381   3.124   6.763   1.241  1.1955 -0.2506  0.2165
 1487TIP3   OH2 4382   3.238   3.382   3.343  0.2713  0.9359 -0.4320
 1487TIP3    H1 4383   3.193   3.297   3.346 -0.8717  1.5775  0.6278
 1487TIP3    H2 4384   3.221   3.414   3.254 -5.4763  3.3403  1.3128
 1488TIP3   OH2 4385   3.366   3.005   0.810  0.2517  0.6543 -0.1775
 1488TIP3    H1 4386   3.290   2.952   0.785 -1.8724  2.9576  1.2827
 1488TIP3    H2 4387   3.419   3.010   0.730 -1.3479 -0.5930 -1.3324
 1489TIP3   OH2 4388   0.065   1.080   5.350  0.2629 -0.1561 -0.1053
 1489TIP3    H1 4389   0.083   1.174   5.359 -0.4428  0.0169 -0.3788
 1489TIP3    H2 4390   0.125   1.037   5.410 -0.7074  0.5952  1.4163
 1490TIP3   OH2 4391   2.418   3.250   0.935  0.8145  0.0381  0.1478
 1490TIP3    H1 4392   2.420   3.177   0.998 -1.5937 -0.7389 -0.6132
 1490TIP3    H2 4393   2.377   3.322   0.982 -0.1792 -0.2681 -0.2350
 1491TIP3   OH2 4394   8.741   4.057   1.875 -0.2460  0.0823 -0.0898
 1491TIP3    H1 4395   8.667   4.095   1.828  0.3051 -0.3606 -1.3354
 1491TIP3    H2 4396   8.705   3.981   1.920 -0.8409  0.6870  0.4818
 1492TIP3   OH2 4397   5.651   7.415   7.143 -0.0625  0.0055  0.3429
 1492TIP3    H1 4398   5.556   7.424   7.156  0.0675  2.0474  0.1463
 1492TIP3    H2 4399   5.670   7.475   7.070  0.9499 -2.6082 -1.6010
 1493TIP3   OH2 4400   4.465   2.740   0.942  0.5836  0.5232 -0.5286
 1493TIP3    H1 4401   4.377   2.776   0.949 -0.0293 -1.1887  0.8187
 1493TIP3    H2 4402   4.523   2.813   0.964 -0.4908  1.5455 -1.0522
 1494TIP3   OH2 4403   6.035   3.655   1.274  0.3284  0.2837 -0.2413
 1494TIP3    H1 4404   6.084   3.584   1.232  0.9852  1.4350 -1.4372
 1494TIP3    H2 4405   6.057   3.647   1.367  2.6619  0.6632 -0.7301
 1495TIP3   OH2 4406   1.274   5.319   0.466  0.0875 -0.1307  0.1784
 1495TIP3    H1 4407   1.307   5.352   0.382 -0.2601  1.9711  0.8646
 1495TIP3    H2 4408   1.205   5.380   0.491 -0.0599 -0.9561  1.8392
 1496TIP3   OH2 4409   2.968   5.322   1.016  0.5216 -0.1217  0.7660
 1496TIP3    H1 4410   3.030   5.330   1.088  0.4498  0.9094  0.7268
 1496TIP3    H2 4411   2.975   5.406   0.970 -0.6509 -0.1278  0.5698
 1497TIP3   OH2 4412   6.060   8.344   7.143  0.5886 -0.2160 -0.3312
 1497TIP3    H1 4413   5.999   8.274   7.120  1.5706 -1.3868  0.5324
 1497TIP3    H2 4414   6.037   8.368   7.233 -0.0851  0.9537 -0.8052
 1498TIP3   OH2 4415   6.879   0.481   4.061 -0.1455 -0.5869 -0.1610
 1498TIP3    H1 4416   6.952   0.428   4.094 -0.2474 -0.6988 -0.1123
 1498TIP3    H2 4417   6.841   0.522   4.139 -0.3823 -0.8467 -0.1363
 1499TIP3   OH2 4418   3.559   5.502   1.789  0.1517 -0.1388  0.0497
 1499TIP3    H1 4419   3.613   5.444   1.735  1.7715 -2.3890  3.9137
 1499TIP3    H2 4420   3.486   5.447   1.817 -0.0284  0.6583  1.1521
 1500TIP3   OH2 4421   2.081   3.880   1.334  0.3073  0.2634 -0.1014
 1500TIP3    H1 4422   1.986   3.879   1.336  0.2993  1.2777  0.4166
 1500TIP3    H2 4423   2.107   3.800   1.381 -0.2770 -1.1382 -2.0867
 1501TIP3   OH2 4424   4.144   7.986   6.683  0.1143 -0.0859 -0.4789
 1501TIP3    H1 4425   4.186   7.903   6.706  0.1583  0.2140  0.5654
 1501TIP3    H2 4426   4.212   8.052   6.697 -0.0847  0.1863 -0.7771
 1502TIP3   OH2 4427   6.302   6.960   6.818 -0.1702 -0.1206  0.2918
 1502TIP3    H1 4428   6.291   6.897   6.747 -1.3399  1.8994 -1.4017
 1502TIP3    H2 4429   6.264   7.041   6.784  0.8401  1.3794  2.5743
 1503TIP3   OH2 4430   2.547   4.015   0.364 -0.1186 -0.4811  0.5814
 1503TIP3    H1 4431   2.636   4.046   0.352 -0.5831  0.7489  0.2333
 1503TIP3    H2 4432   2.527   3.964   0.286  0.7134 -1.8430  1.2395
 1504TIP3   OH2 4433   5.403   5.313   1.665 -0.2846 -0.5690  0.0938
 1504TIP3    H1 4434   5.453   5.292   1.744  0.4131 -0.6078 -0.3627
 1504TIP3    H2 4435   5.415   5.237   1.608 -1.6618 -1.0154  0.3757
 1505TIP3   OH2 4436   5.128   2.821   1.325  0.3130 -0.1216 -0.1280
 1505TIP3    H1 4437   5.222   2.832   1.312  0.5745 -1.9307  0.0318
 1505TIP3    H2 4438   5.096   2.785   1.243 -0.3975  1.2930 -0.4793
 1506TIP3   OH2 4439   4.524   3.308   1.536  0.8591 -0.2883  0.4497
 1506TIP3    H1 4440   4.468   3.383   1.556 -0.3710 -1.3611  1.1858
 1506TIP3    H2 4441   4.544   3.270   1.622  0.1135 -1.7251  0.0160
 1507TIP3   OH2 4442   2.765   6.373   0.240  0.8061 -0.5044  0.3871
 1507TIP3    H1 4443   2.786   6.388   0.148 -0.1733  0.3620  0.2970
 1507TIP3    H2 4444   2.820   6.434   0.288 -0.8746  1.2187  0.1919
 1508TIP3   OH2 4445   3.489   3.827   1.201  0.1172 -0.1013  0.2514
 1508TIP3    H1 4446   3.528   3.746   1.235 -0.3081  0.0014  0.9975
 1508TIP3    H2 4447   3.537   3.897   1.245 -0.5748  0.0300  0.8092
 1509TIP3   OH2 4448   2.022   2.964   0.682  0.4066  0.0352  0.0666
 1509TIP3    H1 4449   1.993   2.899   0.619  2.3575 -0.6754 -0.1259
 1509TIP3    H2 4450   2.015   3.048   0.636 -0.0016 -0.2701 -0.4292
 1510TIP3   OH2 4451   4.448   3.880   2.838  0.3469  0.0238  0.6443
 1510TIP3    H1 4452   4.504   3.838   2.773 -0.6815 -1.3295  0.6249
 1510TIP3    H2 4453   4.416   3.959   2.794  0.3448 -0.4267 -0.1726
 1511TIP3   OH2 4454   3.043   4.530   2.705  0.2571 -0.7294  0.3985
 1511TIP3    H1 4455   3.113   4.503   2.764  1.3129  0.1079 -0.4501
 1511TIP3    H2 4456   2.996   4.598   2.754  0.5108 -0.7477  0.6700
 1512TIP3   OH2 4457   3.018   7.214   1.037  0.2747 -0.1450 -0.4627
 1512TIP3    H1 4458   3.038   7.259   0.955  0.5199 -1.5518 -1.1809
 1512TIP3    H2 4459   3.101   7.178   1.067 -0.1846 -1.4535 -0.7118
 1513TIP3   OH2 4460   4.025   4.375   1.780 -0.0416  0.0055 -0.4284
 1513TIP3    H1 4461   3.948   4.369   1.836  0.0587 -0.0358 -0.2946
 1513TIP3    H2 4462   4.005   4.447   1.720  0.2014  0.6144  0.2125
 1514TIP3   OH2 4463   4.567   4.415   1.483 -0.3264  0.1965 -0.3795
 1514TIP3    H1 4464   4.617   4.424   1.564 -0.6699  3.0074 -0.4209
 1514TIP3    H2 4465   4.614   4.469   1.420 -0.8388 -0.8717 -1.7051
 1515TIP3   OH2 4466   3.774   5.489   3.028 -0.3017  0.0820 -0.4569
 1515TIP3    H1 4467   3.851   5.498   3.084  0.6433  0.5805 -1.7968
 1515TIP3    H2 4468   3.741   5.579   3.018  1.3781  0.4542 -3.1816
 1516TIP3   OH2 4469   2.754   6.134   0.037  0.2422  0.7427  0.7335
 1516TIP3    H1 4470   2.668   6.096   0.055  0.2730  1.4056  2.2942
 1516TIP3    H2 4471   2.735   6.223   0.007  0.2388 -0.0498 -1.7582
 1517TIP3   OH2 4472   4.510   7.542   6.717 -0.0490  0.0588  0.3008
 1517TIP3    H1 4473   4.418   7.527   6.693 -0.0867  0.2545  0.3223
 1517TIP3    H2 4474   4.537   7.461   6.760 -0.2417  0.0406  0.3869
 1518TIP3   OH2 4475   4.582   6.195   0.125  0.7720  0.0295 -0.0215
 1518TIP3    H1 4476   4.561   6.117   0.074 -0.5673  0.4533 -0.1243
 1518TIP3    H2 4477   4.581   6.165   0.216  2.9706 -0.6822 -0.2050
 1519TIP3   OH2 4478   1.448   0.525   6.951 -0.1722 -0.1948 -0.0407
 1519TIP3    H1 4479   1.451   0.468   7.028 -0.2232  0.4590  0.4500
 1519TIP3    H2 4480   1.502   0.600   6.975 -0.2383  0.0418 -0.6249
 1520TIP3   OH2 4481   2.830   5.381   0.654  0.4760  0.2995  0.8989
 1520TIP3    H1 4482   2.798   5.462   0.614 -2.8036 -1.2544  0.1816
 1520TIP3    H2 4483   2.860   5.408   0.741 -1.8226  2.1122  1.2032
 1521TIP3   OH2 4484   2.289   5.062   1.327  0.2059 -0.4382 -0.3665
 1521TIP3    H1 4485   2.283   5.083   1.420  2.0013 -1.3201 -0.0314
 1521TIP3    H2 4486   2.371   5.102   1.299  0.5726 -1.7251 -1.1529
 1522TIP3   OH2 4487   5.211   5.309   2.589  0.8856  0.8442  0.1559
 1522TIP3    H1 4488   5.302   5.290   2.568  0.7687 -0.7498  1.0045
 1522TIP3    H2 4489   5.191   5.252   2.664 -1.5309 -0.6880 -1.5873
 1523TIP3   OH2 4490   2.797   2.919   0.491  0.3703  0.1466  0.3188
 1523TIP3    H1 4491   2.718   2.866   0.505  0.1139  0.7989  1.4192
 1523TIP3    H2 4492   2.764   3.005   0.466  0.7926 -0.2760 -1.7332
 1524TIP3   OH2 4493   2.468   6.440   2.027  0.4811  0.2200  0.7546
 1524TIP3    H1 4494   2.436   6.419   2.114  2.4942  1.7931  1.9124
 1524TIP3    H2 4495   2.389   6.445   1.973 -0.7813 -0.8006  2.4668
 1525TIP3   OH2 4496   8.509   1.356   5.306  0.1899 -0.1367 -0.7228
 1525TIP3    H1 4497   8.415   1.364   5.293 -0.0882 -1.5151  0.3053
 1525TIP3    H2 4498   8.519   1.281   5.365  1.8585  0.6898  0.0870
 1526TIP3   OH2 4499   2.907   3.151   1.426  0.2651  0.1325 -0.5562
 1526TIP3    H1 4500   2.922   3.139   1.332  0.1234 -0.0479 -0.5560
 1526TIP3    H2 4501   2.905   3.062   1.461  1.7629  0.2443 -0.1616
 1527TIP3   OH2 4502   3.004   4.136   1.353 -0.0050 -0.1753 -0.2364
 1527TIP3    H1 4503   3.009   4.096   1.266  1.1581 -0.5951  0.0209
 1527TIP3    H2 4504   3.028   4.065   1.413  0.5476  0.4960  0.3356
 1528TIP3   OH2 4505   4.345   5.943   0.491  0.0575 -0.0167 -0.3731
 1528TIP3    H1 4506   4.322   5.863   0.442 -1.0048  0.7225 -1.0998
 1528TIP3    H2 4507   4.261   5.974   0.526  0.3965  1.0324 -0.4834
 1529TIP3   OH2 4508   5.015   7.299   6.716  0.0742  0.6940  0.0853
 1529TIP3    H1 4509   4.987   7.229   6.775 -2.6919  1.2639 -0.4731
 1529TIP3    H2 4510   5.038   7.371   6.775  1.6315 -0.2200  0.6129
 1530TIP3   OH2 4511   3.124   2.308   2.934  0.1776  0.1720 -0.1930
 1530TIP3    H1 4512   3.114   2.213   2.938  0.3748  0.1882  0.7839
 1530TIP3    H2 4513   3.102   2.339   3.022 -2.8305  1.3210 -1.3061
 1531TIP3   OH2 4514   6.999   0.232   6.560 -0.2347  0.3052  0.0251
 1531TIP3    H1 4515   7.035   0.240   6.471 -1.3599  1.4266 -0.3409
 1531TIP3    H2 4516   7.045   0.157   6.597  1.0054  0.4572 -1.1468
 1532TIP3   OH2 4517   1.102   2.790   7.037  0.4428 -0.1243 -0.2226
 1532TIP3    H1 4518   1.186   2.747   7.052  0.9607  1.3943  1.3817
 1532TIP3    H2 4519   1.095   2.798   6.942  1.1592 -2.1008 -0.4551
 1533TIP3   OH2 4520   2.130   3.084   0.225  0.0945  0.1646  0.1173
 1533TIP3    H1 4521   2.090   3.111   0.142 -1.3221 -0.6890  0.5006
 1533TIP3    H2 4522   2.137   3.165   0.275  0.3900  0.5868 -0.6018
 1534TIP3   OH2 4523   5.620   4.940   0.893  0.2026  0.0559  0.1395
 1534TIP3    H1 4524   5.636   4.998   0.967 -1.2301  1.6013 -0.7317
 1534TIP3    H2 4525   5.668   4.980   0.820  1.1921 -1.1808  0.0908
 1535TIP3   OH2 4526   0.476   1.424   4.158 -0.1194 -0.4337  0.2162
 1535TIP3    H1 4527   0.530   1.354   4.196  1.5879  0.5041 -0.3969
 1535TIP3    H2 4528   0.394   1.382   4.136  0.5524 -2.0438  0.7178
 1536TIP3   OH2 4529   8.269   0.207   6.243  0.3739  0.0435 -0.1460
 1536TIP3    H1 4530   8.267   0.173   6.154 -2.3822 -0.4459  0.0650
 1536TIP3    H2 4531   8.347   0.169   6.282 -0.2337 -2.4816 -1.3047
 1537TIP3   OH2 4532   1.093   0.728   6.849 -0.6845 -0.5229 -0.1070
 1537TIP3    H1 4533   1.119   0.729   6.941 -2.5413 -2.2756  0.4786
 1537TIP3    H2 4534   1.027   0.796   6.841  0.7077  0.7963 -0.5523
 1538TIP3   OH2 4535   8.795   0.059   6.392  0.4443  0.0262  0.2334
 1538TIP3    H1 4536   8.868   0.117   6.411 -0.2962  0.7383  0.9896
 1538TIP3    H2 4537   8.823   0.007   6.317  1.0085  1.5794 -0.6507
 1539TIP3   OH2 4538   3.641   2.217   1.125 -0.1810 -0.6304  0.2327
 1539TIP3    H1 4539   3.589   2.136   1.123 -0.4662 -0.4242 -1.0144
 1539TIP3    H2 4540   3.590   2.279   1.073  2.4114 -1.1011 -3.0284
 1540TIP3   OH2 4541   2.776   6.563   1.141  0.4753 -0.1009  0.0326
 1540TIP3    H1 4542   2.772   6.529   1.230  1.9523  0.0683  0.1811
 1540TIP3    H2 4543   2.816   6.492   1.090 -0.3232 -0.1801 -0.4962
 1541TIP3   OH2 4544   3.887   4.131   2.026 -0.2565 -0.6404 -0.2198
 1541TIP3    H1 4545   3.937   4.209   2.003  1.3257 -0.8376  2.3752
 1541TIP3    H2 4546   3.807   4.164   2.066  0.9412 -0.3103  1.9623
 1542TIP3   OH2 4547   1.636   5.998   0.162 -0.2201  0.1816  0.4779
 1542TIP3    H1 4548   1.665   5.909   0.141  0.2461  0.5771 -0.5627
 1542TIP3    H2 4549   1.710   6.037   0.208 -0.1547  0.2663  0.3016
 1543TIP3   OH2 4550   2.152   6.183   1.852 -0.1179 -0.2288  0.4440
 1543TIP3    H1 4551   2.112   6.252   1.905 -0.4493  0.2684 -0.4503
 1543TIP3    H2 4552   2.080   6.146   1.801  0.2299 -0.5979  0.2131
 1544TIP3   OH2 4553   2.742   3.715   1.041  0.2286  0.2244  0.1444
 1544TIP3    H1 4554   2.834   3.727   1.064  0.2783  0.2336 -0.0561
 1544TIP3    H2 4555   2.743   3.704   0.946 -0.0240  0.6753  0.0870
 1545TIP3   OH2 4556   2.174   4.690   0.358 -0.1839 -0.3731 -0.3703
 1545TIP3    H1 4557   2.127   4.607   0.368  0.1100 -0.7238 -1.8179
 1545TIP3    H2 4558   2.142   4.744   0.430  0.1213 -1.9659  1.0074
 1546TIP3   OH2 4559   3.302   5.654   1.261  0.8289 -0.0699 -0.1268
 1546TIP3    H1 4560   3.247   5.697   1.327  0.4711 -1.6468  0.6075
 1546TIP3    H2 4561   3.331   5.726   1.204  0.4617  1.1911  1.2473
 1547TIP3   OH2 4562   2.437   4.157   0.075 -0.1200 -0.2784  0.0957
 1547TIP3    H1 4563   2.463   4.067   0.095 -0.9952 -0.2143  1.6150
 1547TIP3    H2 4564   2.449   4.204   0.158 -2.8390  0.2495  0.2399
 1548TIP3   OH2 4565   3.594   5.062   0.742  0.7068 -0.0796  0.5125
 1548TIP3    H1 4566   3.666   5.036   0.684  0.5163  0.1876  0.1563
 1548TIP3    H2 4567   3.517   5.062   0.685 -0.1065 -3.2132  1.5039
 1549TIP3   OH2 4568   5.637   7.593   6.206 -0.2885 -0.3430 -0.1688
 1549TIP3    H1 4569   5.653   7.522   6.269  0.1975  0.3205  0.4574
 1549TIP3    H2 4570   5.637   7.549   6.121  0.2632 -1.0692  0.1976
 1550TIP3   OH2 4571   0.710   6.644   0.716 -0.3257  0.0624  0.0277
 1550TIP3    H1 4572   0.710   6.686   0.630 -1.3828 -1.0910 -0.5423
 1550TIP3    H2 4573   0.789   6.589   0.716  0.6966  1.5082  0.5213
 1551TIP3   OH2 4574   1.377   1.563   6.199 -0.0102 -0.7116  0.1447
 1551TIP3    H1 4575   1.412   1.485   6.156  0.6318 -0.5566  0.3844
 1551TIP3    H2 4576   1.335   1.613   6.128 -0.6556 -1.3959  0.0384
 1552TIP3   OH2 4577   3.750   5.091   0.012 -0.2991 -0.2786  0.5083
 1552TIP3    H1 4578   3.690   5.165   0.018  0.0871 -0.0610  1.6928
 1552TIP3    H2 4579   3.694   5.016  -0.008 -0.9013  0.0044  1.1449
 1553TIP3   OH2 4580   4.663   6.789   6.854  0.7981  0.8330  0.2701
 1553TIP3    H1 4581   4.705   6.815   6.772 -0.4420 -0.6100 -0.8624
 1553TIP3    H2 4582   4.708   6.708   6.879 -0.6125 -0.2276 -0.4772
 1554TIP3   OH2 4583   6.968   0.797   6.501  0.4728  0.3058 -0.2373
 1554TIP3    H1 4584   6.949   0.705   6.519 -1.0859  1.2024  3.0062
 1554TIP3    H2 4585   7.047   0.816   6.553  0.3916  0.9650 -0.3513
 1555TIP3   OH2 4586   3.376   5.919   2.771 -0.3857  0.3500 -0.6124
 1555TIP3    H1 4587   3.436   5.994   2.770 -0.2849  0.2670 -0.9661
 1555TIP3    H2 4588   3.290   5.956   2.751 -0.2071  0.2635 -1.5568
 1556TIP3   OH2 4589   4.975   6.261   1.734  0.7855  0.4884  0.0083
 1556TIP3    H1 4590   5.001   6.169   1.725 -1.1945 -0.1521  0.5181
 1556TIP3    H2 4591   4.942   6.284   1.647 -1.7248 -0.3107  0.6775
 1557TIP3   OH2 4592   2.434   2.334   6.964  0.3104  0.4508  0.1681
 1557TIP3    H1 4593   2.487   2.261   6.995  2.0163  0.8656 -1.7001
 1557TIP3    H2 4594   2.350   2.324   7.010  1.0131 -1.8324  1.0119
 1558TIP3   OH2 4595   4.038   4.707   0.824 -0.4510 -0.1431 -0.6311
 1558TIP3    H1 4596   3.956   4.737   0.864 -1.1577  0.2488 -2.3145
 1558TIP3    H2 4597   4.090   4.786   0.812 -0.1750 -0.2804 -0.3401
 1559TIP3   OH2 4598   3.421   6.334   2.123 -0.2961  0.0862  0.1009
 1559TIP3    H1 4599   3.346   6.300   2.072 -1.6136  3.0139 -0.0033
 1559TIP3    H2 4600   3.389   6.336   2.213 -0.1567  0.7971  0.1367
 1560TIP3   OH2 4601   3.837   5.504   0.637  0.1538  0.7546  0.5920
 1560TIP3    H1 4602   3.768   5.437   0.641  0.2110  0.5952 -0.6525
 1560TIP3    H2 4603   3.861   5.520   0.728 -1.7574  1.0562  1.0639
 1561TIP3   OH2 4604   3.829   4.074   1.129  0.4551  0.4368  0.4658
 1561TIP3    H1 4605   3.798   4.017   1.058 -0.1119  0.2754  0.8420
 1561TIP3    H2 4606   3.918   4.042   1.147  1.3997  1.8006 -1.5562
 1562TIP3   OH2 4607   8.718   1.856   6.398 -0.3029  0.0124  0.4958
 1562TIP3    H1 4608   8.804   1.862   6.439  0.1261  0.1574 -0.4165
 1562TIP3    H2 4609   8.665   1.921   6.445  0.0549 -0.1286  1.1062
 1563TIP3   OH2 4610   1.508   5.493   0.947 -0.3934 -0.4290 -0.0004
 1563TIP3    H1 4611   1.455   5.419   0.918 -0.3906  0.2194 -1.6761
 1563TIP3    H2 4612   1.452   5.540   1.009 -1.7934  0.2214 -1.7216
 1564TIP3   OH2 4613   3.234   1.586   3.677  0.0420  0.9032  0.3358
 1564TIP3    H1 4614   3.303   1.650   3.660 -1.0482  2.2431  0.8306
 1564TIP3    H2 4615   3.156   1.622   3.634 -0.7775  0.3277  1.3010
 1565TIP3   OH2 4616   2.094   3.112   1.080  0.4816  0.3970  0.6959
 1565TIP3    H1 4617   2.011   3.065   1.074 -0.2717  1.4276  2.6658
 1565TIP3    H2 4618   2.143   3.084   1.003 -1.1507 -1.2638  0.2340
 1566TIP3   OH2 4619   6.334   7.999   6.316  0.2066 -0.5909  0.1755
 1566TIP3    H1 4620   6.375   7.961   6.238  1.5582  1.0028  0.0976
 1566TIP3    H2 4621   6.400   7.990   6.385 -0.8923 -1.7778  1.1197
 1567TIP3   OH2 4622   8.578   2.844   5.259 -0.1064  0.0559 -0.3308
 1567TIP3    H1 4623   8.549   2.878   5.175 -1.5028  1.1970  0.5847
 1567TIP3    H2 4624   8.562   2.750   5.254  0.4766  0.0136 -1.5872
 1568TIP3   OH2 4625   1.860   6.482   1.302  0.1546 -0.1759 -0.0565
 1568TIP3    H1 4626   1.786   6.490   1.362  1.0890  1.6238  0.8748
 1568TIP3    H2 4627   1.926   6.433   1.352  0.0370 -0.7926 -0.4925
 1569TIP3   OH2 4628   1.931   1.765   4.907 -0.4965 -0.4062 -0.1089
 1569TIP3    H1 4629   1.979   1.829   4.853  0.6113 -0.1649  1.1520
 1569TIP3    H2 4630   1.997   1.727   4.964 -1.6179 -0.8511  0.9074
 1570TIP3   OH2 4631   4.329   7.662   1.272 -0.2513  0.1424  0.2797
 1570TIP3    H1 4632   4.382   7.583   1.281  0.5707  0.4851 -1.3599
 1570TIP3    H2 4633   4.243   7.637   1.307 -0.2628 -1.7811 -1.0364
 1571TIP3   OH2 4634   5.914   8.113   7.040  0.1663 -0.0806 -0.1362
 1571TIP3    H1 4635   5.868   8.144   6.962 -0.5733  1.7129  0.9810
 1571TIP3    H2 4636   5.937   8.022   7.020 -3.0856 -0.7701 -1.0894
 1572TIP3   OH2 4637   4.221   6.140   2.559 -0.3611  0.4693  0.0124
 1572TIP3    H1 4638   4.268   6.170   2.481  0.5299 -1.3875 -0.2110
 1572TIP3    H2 4639   4.166   6.068   2.527  1.8192 -1.9512  1.4653
 1573TIP3   OH2 4640   2.742   3.722   0.411  0.4076  0.0940  0.2502
 1573TIP3    H1 4641   2.714   3.697   0.499 -1.4524  0.7589 -0.1443
 1573TIP3    H2 4642   2.838   3.724   0.417  0.2806  1.6118  2.6762
 1574TIP3   OH2 4643   2.395   1.097   6.534  0.2451 -0.2189  0.0478
 1574TIP3    H1 4644   2.393   1.134   6.445 -0.0458  0.5715  0.3728
 1574TIP3    H2 4645   2.305   1.105   6.565 -0.0392 -2.1516 -0.2437
 1575TIP3   OH2 4646   3.650   4.841   0.030 -0.1834  0.0312  0.4415
 1575TIP3    H1 4647   3.681   4.762  -0.014 -0.2397 -1.1750  2.4772
 1575TIP3    H2 4648   3.561   4.820   0.056  0.5167 -0.0751  2.8809
 1576TIP3   OH2 4649   2.814   3.079   2.655 -0.0736  0.7842 -0.0130
 1576TIP3    H1 4650   2.723   3.053   2.664 -0.4274  2.6913  2.2134
 1576TIP3    H2 4651   2.825   3.151   2.716  3.3058 -0.3503  0.8186
 1577TIP3   OH2 4652   4.699   4.252   0.549 -0.0388 -0.0834 -0.4463
 1577TIP3    H1 4653   4.733   4.196   0.619  3.2749  1.3545 -0.8084
 1577TIP3    H2 4654   4.754   4.233   0.473 -2.0449  0.1134 -1.9925
 1578TIP3   OH2 4655   4.824   4.743   0.704 -0.1043  0.0832 -0.0916
 1578TIP3    H1 4656   4.737   4.784   0.705 -0.8115 -1.3618  2.2351
 1578TIP3    H2 4657   4.811   4.661   0.656  0.1721  0.2311 -0.4221
 1579TIP3   OH2 4658   2.875   2.052   7.094  0.1523 -0.0505  0.1472
 1579TIP3    H1 4659   2.877   2.024   7.185 -1.3241 -1.1905 -0.1496
 1579TIP3    H2 4660   2.959   2.095   7.080  0.9669 -1.1148  1.6529
 1580TIP3   OH2 4661   0.113   1.048   6.855 -0.2373 -0.2457 -0.7182
 1580TIP3    H1 4662   0.109   1.045   6.951  0.0897 -2.5146 -0.7457
 1580TIP3    H2 4663   0.072   1.132   6.832  1.1378  1.1011  1.4663
 1581TIP3   OH2 4664   5.827   8.028   6.388  0.2037  0.0674  0.4182
 1581TIP3    H1 4665   5.840   7.967   6.316  1.6825  2.0862 -1.0917
 1581TIP3    H2 4666   5.906   8.019   6.442 -0.1895 -0.3100  0.9397
 1582TIP3   OH2 4667   8.710   1.511   6.022  0.3380 -0.1509 -0.2708
 1582TIP3    H1 4668   8.699   1.600   6.057  1.2150  0.0270 -0.4296
 1582TIP3    H2 4669   8.722   1.524   5.928 -1.5889 -0.5939 -0.5962
 1583TIP3   OH2 4670   4.172   2.678   1.988 -0.3882 -0.6707 -0.3284
 1583TIP3    H1 4671   4.230   2.683   1.913 -1.6517 -3.2249 -1.5366
 1583TIP3    H2 4672   4.140   2.767   2.001  0.3313 -0.1034 -2.4199
 1584TIP3   OH2 4673   0.320   0.613   6.810 -0.4090 -0.1788  0.0001
 1584TIP3    H1 4674   0.360   0.615   6.897 -0.5252 -1.4955  0.0979
 1584TIP3    H2 4675   0.355   0.690   6.766  3.0622 -1.7758 -0.2505
 1585TIP3   OH2 4676   2.675   4.171   2.789 -0.3325 -0.2439 -0.2134
 1585TIP3    H1 4677   2.699   4.210   2.705  1.1776  2.9015  1.6033
 1585TIP3    H2 4678   2.585   4.140   2.775 -1.2549  3.0490 -2.0650
 1586TIP3   OH2 4679   3.613   4.280   1.153  0.4120 -0.4411  0.2272
 1586TIP3    H1 4680   3.558   4.207   1.183  1.5654 -0.9804  1.0620
 1586TIP3    H2 4681   3.695   4.239   1.127  1.2583  0.6227  1.1904
 1587TIP3   OH2 4682   3.171   4.409   1.517  0.1541  0.1241  0.1654
 1587TIP3    H1 4683   3.155   4.457   1.435 -0.4413  0.2257  0.3430
 1587TIP3    H2 4684   3.089   4.363   1.534  0.5759 -0.6196  0.2279
 1588TIP3   OH2 4685   5.791   6.805   7.237  0.1112 -0.1199  0.0486
 1588TIP3    H1 4686   5.754   6.875   7.183 -0.6114 -0.6940 -0.2204
 1588TIP3    H2 4687   5.828   6.850   7.313  0.4477  0.6297 -0.5503
 1589TIP3   OH2 4688   3.000   2.145   2.287 -0.3349  0.3361 -0.5784
 1589TIP3    H1 4689   2.927   2.193   2.327 -0.4840 -1.6094  1.5435
 1589TIP3    H2 4690   3.041   2.099   2.359  1.7405 -0.2594 -2.1053
 1590TIP3   OH2 4691   3.227   3.860   1.156  0.2290  0.1494  0.1304
 1590TIP3    H1 4692   3.257   3.911   1.080  1.6332  0.3431  0.7866
 1590TIP3    H2 4693   3.308   3.841   1.204 -0.5777 -0.5654  1.2088
 1591TIP3   OH2 4694   2.568   4.619   0.449  0.5509  0.3739  0.0171
 1591TIP3    H1 4695   2.508   4.565   0.500  0.7896  0.5273  0.4632
 1591TIP3    H2 4696   2.546   4.600   0.358 -0.1941  0.4499  0.1776
 1592TIP3   OH2 4697   3.296   6.036   2.502 -0.3705 -0.1383 -0.6615
 1592TIP3    H1 4698   3.254   6.043   2.588  0.9982 -0.0862  0.0134
 1592TIP3    H2 4699   3.343   6.118   2.491  1.6236 -1.1879 -0.2810
 1593TIP3   OH2 4700   1.851   6.968   0.364  0.2070 -0.2321  0.4876
 1593TIP3    H1 4701   1.825   6.997   0.451  0.5080 -1.7189  1.0923
 1593TIP3    H2 4702   1.769   6.951   0.318  0.0411  1.0141  0.3112
 1594TIP3   OH2 4703   2.662   3.119   1.550 -0.6241  0.2134 -0.0286
 1594TIP3    H1 4704   2.710   3.121   1.633  0.4213  2.2766 -0.6650
 1594TIP3    H2 4705   2.730   3.128   1.483 -1.6069  0.0429 -1.0644
 1595TIP3   OH2 4706   4.077   7.513   1.073  0.2745 -0.2839 -0.9388
 1595TIP3    H1 4707   3.994   7.471   1.094 -0.1761  0.3599 -1.4201
 1595TIP3    H2 4708   4.098   7.482   0.985  1.1933 -1.4417 -0.3515
 1596TIP3   OH2 4709   6.996   3.007   5.212 -0.2872  0.2302  0.0747
 1596TIP3    H1 4710   7.085   3.028   5.183 -0.8524  3.2909  0.3569
 1596TIP3    H2 4711   6.949   2.987   5.132 -0.4004  3.0149 -0.6270
 1597TIP3   OH2 4712   3.786   5.028   0.268 -0.2293 -0.1340 -0.5266
 1597TIP3    H1 4713   3.720   4.973   0.226  0.2649 -1.0357 -0.1316
 1597TIP3    H2 4714   3.795   5.103   0.209  0.1922 -1.2021 -1.8493
 1598TIP3   OH2 4715   4.466   3.617   1.844 -0.0211 -0.5355  0.4873
 1598TIP3    H1 4716   4.418   3.695   1.872 -0.0068 -0.8059  1.2899
 1598TIP3    H2 4717   4.397   3.555   1.817 -0.0929 -0.7115  1.0785
 1599TIP3   OH2 4718   0.160   1.272   7.259 -0.2155  0.0643 -0.1373
 1599TIP3    H1 4719   0.139   1.345   7.200  1.8330  2.1345  1.6074
 1599TIP3    H2 4720   0.092   1.274   7.326  0.4196  1.0340  0.4815
 1600TIP3   OH2 4721   2.505   5.472   0.404  0.4159  0.0255 -0.0294
 1600TIP3    H1 4722   2.507   5.516   0.489  3.4789  0.4024 -0.2473
 1600TIP3    H2 4723   2.546   5.535   0.344  0.7358 -1.3230 -1.2459
 1601TIP3   OH2 4724   5.333   6.832   7.251  0.0227  0.2779 -0.5846
 1601TIP3    H1 4725   5.356   6.844   7.343 -1.0579 -0.3492 -0.2324
 1601TIP3    H2 4726   5.409   6.865   7.203  1.2435 -0.8457  0.5541
 1602TIP3   OH2 4727   2.795   6.312   1.230  0.4475  0.3791  0.2729
 1602TIP3    H1 4728   2.838   6.235   1.268  4.7094  1.7107 -1.6156
 1602TIP3    H2 4729   2.790   6.374   1.303 -0.1033 -0.5090  1.0063
 1603TIP3   OH2 4730   6.433   5.577   5.919 -0.4526 -0.3730 -0.2602
 1603TIP3    H1 4731   6.349   5.596   5.960  0.5088  1.9922  0.7011
 1603TIP3    H2 4732   6.452   5.654   5.867 -0.0251 -1.9353 -2.5143
 1604TIP3   OH2 4733   2.895   4.332   0.732 -0.6234  0.0989 -0.4324
 1604TIP3    H1 4734   2.800   4.319   0.728 -1.0209  2.9945 -1.4251
 1604TIP3    H2 4735   2.907   4.427   0.730  2.3567 -0.2257 -2.0613
 1605TIP3   OH2 4736   4.067   2.488   1.292 -0.1876 -0.9129  0.0180
 1605TIP3    H1 4737   4.032   2.402   1.269 -0.0848 -0.7968 -0.5752
 1605TIP3    H2 4738   4.007   2.551   1.251  0.4027 -0.7100 -0.5489
 1606TIP3   OH2 4739   0.328   0.651   7.134  0.0171  0.2245  0.1574
 1606TIP3    H1 4740   0.255   0.590   7.136  0.0114  0.2491  2.0392
 1606TIP3    H2 4741   0.376   0.633   7.215  2.0272  0.3007 -0.9879
 1607TIP3   OH2 4742   3.406   5.613   0.558 -0.6391 -0.4793 -0.3208
 1607TIP3    H1 4743   3.348   5.624   0.483 -1.4346  1.0723  0.5125
 1607TIP3    H2 4744   3.374   5.675   0.624 -0.3346 -2.2240  1.5513
 1608TIP3   OH2 4745   8.296   0.856   5.461  0.0914  0.2822 -0.1200
 1608TIP3    H1 4746   8.381   0.823   5.488 -0.1831  0.1340  0.5560
 1608TIP3    H2 4747   8.283   0.935   5.513 -0.3756  0.0701  0.0902
 1609TIP3   OH2 4748   6.059   6.817   7.058 -0.0581 -0.4119  0.3059
 1609TIP3    H1 4749   6.006   6.784   7.132  2.2793 -0.6410  1.9289
 1609TIP3    H2 4750   6.142   6.771   7.066  1.0428  1.2783 -1.1444
 1610TIP3   OH2 4751   2.503   6.643   0.187 -0.6878 -0.1768 -0.2621
 1610TIP3    H1 4752   2.448   6.632   0.109 -0.2061 -0.9264 -0.5109
 1610TIP3    H2 4753   2.441   6.648   0.260 -1.1125 -0.3028 -0.6092
 1611TIP3   OH2 4754   2.135   2.791   2.210 -0.4977  0.7193 -0.2091
 1611TIP3    H1 4755   2.198   2.842   2.160  0.3193 -1.4391 -1.4667
 1611TIP3    H2 4756   2.177   2.778   2.295  0.2331  0.3445 -0.6191
 1612TIP3   OH2 4757   2.390   3.076   1.146  0.0901  0.3912 -0.7284
 1612TIP3    H1 4758   2.432   3.031   1.219  0.0582  0.0666 -0.9057
 1612TIP3    H2 4759   2.324   3.014   1.115 -1.3381  1.3474  0.2880
 1613TIP3   OH2 4760   3.303   4.852   0.799  0.6953 -0.1056 -0.2018
 1613TIP3    H1 4761   3.314   4.940   0.835 -2.2241  0.5737 -0.8467
 1613TIP3    H2 4762   3.248   4.806   0.863 -0.4934 -0.4359 -1.4563
 1614TIP3   OH2 4763   0.079   1.713   6.147 -0.2008  0.3644  0.2114
 1614TIP3    H1 4764   0.149   1.662   6.188  0.5977  2.7190  1.8900
 1614TIP3    H2 4765   0.122   1.760   6.076 -0.4603  0.3528  0.0493
 1615TIP3   OH2 4766   1.951   4.947   0.343  0.1606  0.1282 -0.0249
 1615TIP3    H1 4767   2.013   4.991   0.285 -1.2615  1.9933 -0.1826
 1615TIP3    H2 4768   2.002   4.926   0.421  0.8763  2.1602  0.0897
 1616TIP3   OH2 4769   3.193   5.356   3.508  0.3858  0.2533  0.2859
 1616TIP3    H1 4770   3.226   5.442   3.536  0.2130  0.1318  0.8684
 1616TIP3    H2 4771   3.123   5.376   3.447  0.0455  0.5315  0.7702
 1617TIP3   OH2 4772   1.894   0.068   3.781  0.1520  0.0817 -0.3319
 1617TIP3    H1 4773   1.849   0.051   3.698 -0.7434  2.3107 -0.3263
 1617TIP3    H2 4774   1.836   0.033   3.848 -0.3574  0.6172 -0.4903
 1618TIP3   OH2 4775   0.098   0.243   6.471  0.2674 -0.3627  0.3195
 1618TIP3    H1 4776   0.169   0.300   6.441  0.1106 -0.2768  0.1053
 1618TIP3    H2 4777   0.065   0.285   6.550 -2.0766  1.6944 -1.6685
 1619TIP3   OH2 4778   3.725   5.797   0.767 -0.4400  0.1852 -0.1216
 1619TIP3    H1 4779   3.701   5.889   0.755 -0.3847 -0.0387 -2.1704
 1619TIP3    H2 4780   3.805   5.787   0.717 -0.6662 -1.0752 -0.2433
 1620TIP3   OH2 4781   0.813   2.495   6.016  0.0991  0.0065  0.5294
 1620TIP3    H1 4782   0.794   2.582   5.979 -2.6638 -0.8955 -0.3704
 1620TIP3    H2 4783   0.824   2.439   5.939 -2.9526 -1.3405  0.9673
 1621TIP3   OH2 4784   4.530   3.898   1.247  0.3228 -0.0132 -0.5239
 1621TIP3    H1 4785   4.611   3.848   1.260  0.2482 -0.3101 -1.1854
 1621TIP3    H2 4786   4.556   3.989   1.257  0.9478 -0.0456 -1.7440
 1622TIP3   OH2 4787   2.594   5.216   0.570 -0.5346  0.6445 -0.5282
 1622TIP3    H1 4788   2.630   5.128   0.559 -1.3383  0.2872 -0.3384
 1622TIP3    H2 4789   2.671   5.273   0.570  0.1085 -0.1860  0.7326
 1623TIP3   OH2 4790   5.853   3.878   1.740 -0.1108  0.2425 -0.2664
 1623TIP3    H1 4791   5.839   3.857   1.833 -1.7024 -0.9452 -0.7475
 1623TIP3    H2 4792   5.794   3.952   1.724 -0.1187  0.2006 -0.4244
 1624TIP3   OH2 4793   4.589   4.722   1.435 -0.3575  0.4803  0.1123
 1624TIP3    H1 4794   4.677   4.703   1.469 -0.1594  1.5069  0.2005
 1624TIP3    H2 4795   4.598   4.713   1.341  0.0818  1.4823  0.0497
 1625TIP3   OH2 4796   6.770   3.396   0.074 -0.1640  0.3949 -0.0663
 1625TIP3    H1 4797   6.689   3.446   0.065 -1.1905 -1.0830  0.8271
 1625TIP3    H2 4798   6.824   3.450   0.132 -1.0581  0.7295  0.4732
 1626TIP3   OH2 4799   5.918   4.453   0.609 -0.6979  0.2968  0.2882
 1626TIP3    H1 4800   5.985   4.419   0.551  0.0624  0.5774  0.9964
 1626TIP3    H2 4801   5.871   4.376   0.640 -0.2153  0.0390  0.3828
 1627TIP3   OH2 4802   3.527   5.172   1.835  0.6270  0.7423 -0.4566
 1627TIP3    H1 4803   3.480   5.119   1.770  1.4853  0.9314 -1.2477
 1627TIP3    H2 4804   3.461   5.234   1.866 -0.0877 -0.0561 -0.3415
 1628TIP3   OH2 4805   4.958   4.349   1.240  0.1705  0.5673  0.0929
 1628TIP3    H1 4806   4.865   4.372   1.231 -0.3255 -1.3793  0.1285
 1628TIP3    H2 4807   5.003   4.434   1.246 -1.6562  1.5261  0.6447
 1629TIP3   OH2 4808   4.865   5.891   1.528  0.1914 -0.1295 -0.6838
 1629TIP3    H1 4809   4.781   5.932   1.510 -0.3277 -0.4080  1.0021
 1629TIP3    H2 4810   4.844   5.798   1.542  0.8181 -0.2526 -0.5192
 1630TIP3   OH2 4811   4.154   5.463   0.739  0.2829 -0.4739 -0.3956
 1630TIP3    H1 4812   4.229   5.440   0.794  0.7607  1.7208 -0.0693
 1630TIP3    H2 4813   4.092   5.391   0.750  1.8146 -1.6888  0.3368
 1631TIP3   OH2 4814   4.970   3.725   0.999 -0.1736 -0.1375 -0.0559
 1631TIP3    H1 4815   5.049   3.686   0.962 -0.0280  0.0995  0.0003
 1631TIP3    H2 4816   4.978   3.818   0.978  0.3854  0.1559  1.4165
 1632TIP3   OH2 4817   2.325   1.771   6.346 -0.2161 -0.1953 -0.2703
 1632TIP3    H1 4818   2.377   1.824   6.285 -1.0521 -0.3114 -1.0906
 1632TIP3    H2 4819   2.389   1.712   6.386  0.4896  0.4721 -0.3837
 1633TIP3   OH2 4820   0.419   1.953   7.279  0.0870  0.3795 -0.3284
 1633TIP3    H1 4821   0.442   2.040   7.311  0.6650 -0.4882  1.6459
 1633TIP3    H2 4822   0.476   1.940   7.203  1.3214  0.9811  0.4836
 1634TIP3   OH2 4823   5.576   5.954   0.676  0.5780  0.5920  0.5090
 1634TIP3    H1 4824   5.631   5.992   0.608  1.4233  0.5579  1.1705
 1634TIP3    H2 4825   5.603   5.998   0.757  0.9562 -0.7676  1.1401
 1635TIP3   OH2 4826   4.143   5.619   2.441  0.1764 -0.4053 -0.0098
 1635TIP3    H1 4827   4.194   5.592   2.517  1.4735 -1.3145 -1.1899
 1635TIP3    H2 4828   4.172   5.561   2.370 -0.4985  0.8994 -1.3792
 1636TIP3   OH2 4829   4.275   5.054   0.197  0.0259 -0.1967 -0.5908
 1636TIP3    H1 4830   4.309   4.975   0.156  1.2252  1.3483 -2.7384
 1636TIP3    H2 4831   4.222   5.095   0.129  0.4078  1.4240  0.0618
 1637TIP3   OH2 4832   7.088   4.160   0.717 -1.0055  0.2065 -0.0036
 1637TIP3    H1 4833   7.137   4.240   0.734 -1.2253  0.4993 -0.7099
 1637TIP3    H2 4834   7.003   4.191   0.686 -1.2535 -0.3018  0.1639
 1638TIP3   OH2 4835   6.447   4.493   0.166 -0.2455  0.3661  0.2730
 1638TIP3    H1 4836   6.433   4.550   0.091  2.3771 -0.1410 -0.6719
 1638TIP3    H2 4837   6.421   4.406   0.136  2.0847 -0.0805 -0.5514
 1639TIP3   OH2 4838   0.738   1.647   6.641  0.5402  0.2263 -0.0650
 1639TIP3    H1 4839   0.650   1.658   6.605  2.0960  3.7459 -3.2099
 1639TIP3    H2 4840   0.769   1.564   6.605 -1.4377 -0.9495  0.9332
 1640TIP3   OH2 4841   3.228   5.058   0.047  0.5333 -0.1651 -0.6639
 1640TIP3    H1 4842   3.177   4.995   0.097 -1.1590  0.2569 -1.8322
 1640TIP3    H2 4843   3.273   5.005  -0.019  1.4120 -0.4944  0.1737
 1641TIP3   OH2 4844   8.397   6.088   6.280 -0.4141  0.0022 -0.0238
 1641TIP3    H1 4845   8.448   6.019   6.237 -1.2919 -0.8545  0.3022
 1641TIP3    H2 4846   8.435   6.170   6.247  0.7483 -0.6298 -0.2796
 1642TIP3   OH2 4847   5.599   4.986   0.455  0.6741 -0.0886 -0.3343
 1642TIP3    H1 4848   5.559   5.072   0.470  0.7404  0.0567 -0.9796
 1642TIP3    H2 4849   5.579   4.936   0.535 -0.0009  0.2838 -0.2647
 1643TIP3   OH2 4850   7.596   2.100   6.348 -0.5927 -0.7178 -0.6080
 1643TIP3    H1 4851   7.560   2.146   6.272 -1.4361 -1.8545 -0.9146
 1643TIP3    H2 4852   7.659   2.039   6.311  0.3714  0.0238 -0.2181
 1644TIP3   OH2 4853   1.871   1.090   6.749  0.0402  0.1747 -0.9730
 1644TIP3    H1 4854   1.796   1.032   6.741  0.3099 -0.1936 -0.8311
 1644TIP3    H2 4855   1.835   1.178   6.736 -0.3485 -0.0308 -1.2890
 1645TIP3   OH2 4856   0.703   1.553   7.124  0.0189  0.0207  0.1718
 1645TIP3    H1 4857   0.765   1.482   7.109 -0.8309 -0.1736 -2.5998
 1645TIP3    H2 4858   0.634   1.514   7.179 -0.7531 -1.4969 -1.8192
 1646TIP3   OH2 4859   5.756   3.623   1.627 -0.1365  0.1959  0.1729
 1646TIP3    H1 4860   5.763   3.611   1.532  0.4811  0.9499  0.1235
 1646TIP3    H2 4861   5.811   3.699   1.646  0.3194 -0.3854  1.2331
 1647TIP3   OH2 4862   7.084   3.954   0.130  0.0974 -0.6764  0.7112
 1647TIP3    H1 4863   7.076   4.037   0.178  0.2484 -0.7077  0.7909
 1647TIP3    H2 4864   7.044   3.972   0.045 -0.4320 -0.6998  0.9472
 1648TIP3   OH2 4865   6.910   7.762   6.853  0.6551 -0.5100 -0.6580
 1648TIP3    H1 4866   6.961   7.707   6.913  1.1695  0.7493  0.0816
 1648TIP3    H2 4867   6.952   7.751   6.768  2.6920  1.1401  0.1018
 1649TIP3   OH2 4868   5.498   4.592   1.555 -0.1517 -0.8604 -0.9786
 1649TIP3    H1 4869   5.506   4.608   1.649  2.7232 -1.7768 -1.0431
 1649TIP3    H2 4870   5.439   4.661   1.525 -1.7913 -1.0532  1.6057
 1650TIP3   OH2 4871   0.801   2.117   6.666 -0.2711 -0.3416 -0.0738
 1650TIP3    H1 4872   0.848   2.106   6.748 -0.3108 -0.1981 -0.0316
 1650TIP3    H2 4873   0.824   2.040   6.614 -0.8436 -0.8171  0.3656
 1651TIP3   OH2 4874   4.882   5.577   0.053 -0.4494 -0.0740 -0.4810
 1651TIP3    H1 4875   4.946   5.646   0.065 -2.2231  1.5502 -0.1537
 1651TIP3    H2 4876   4.911   5.507   0.113  1.0473  0.5831 -0.4131
 1652TIP3   OH2 4877   2.907   1.524   6.869 -0.1285  0.0107  0.2526
 1652TIP3    H1 4878   2.920   1.581   6.944  1.2292  0.6998 -0.5086
 1652TIP3    H2 4879   2.830   1.559   6.825  0.8474  1.4137 -0.3528
 1653TIP3   OH2 4880   2.015   1.216   6.030 -0.1452  0.3503  0.5377
 1653TIP3    H1 4881   2.040   1.240   5.940 -0.7919 -2.3614 -0.4071
 1653TIP3    H2 4882   2.047   1.288   6.084  3.6399  0.2180 -1.4137
 1654TIP3   OH2 4883   5.410   5.075   1.498  0.0916 -0.5548 -0.3649
 1654TIP3    H1 4884   5.430   5.118   1.415 -1.0400 -1.3643 -1.0601
 1654TIP3    H2 4885   5.496   5.066   1.541  0.6486  0.0826 -1.3239
 1655TIP3   OH2 4886   4.489   8.254   0.535  0.1811 -0.1356  0.0271
 1655TIP3    H1 4887   4.437   8.316   0.587  0.8771  0.1015  0.4436
 1655TIP3    H2 4888   4.471   8.169   0.575  2.5519  0.3413  2.1633
 1656TIP3   OH2 4889   4.370   3.610   0.953 -0.1401  0.1188 -0.0922
 1656TIP3    H1 4890   4.338   3.690   0.911 -1.9027  0.2873  1.5163
 1656TIP3    H2 4891   4.302   3.545   0.935 -0.0295 -0.2825  0.9403
 1657TIP3   OH2 4892   3.049   5.335   1.970 -0.3006  0.3596  0.3633
 1657TIP3    H1 4893   3.077   5.244   1.956 -1.9396 -0.0756 -0.1345
 1657TIP3    H2 4894   3.016   5.363   1.885  0.7360  1.6245  0.3708
 1658TIP3   OH2 4895   4.482   7.437   1.329  0.2501 -0.8118 -0.6075
 1658TIP3    H1 4896   4.527   7.360   1.363  1.0375 -0.2155 -0.3009
 1658TIP3    H2 4897   4.393   7.406   1.311  0.0238 -1.3235  1.2643
 1659TIP3   OH2 4898   7.539   6.783   0.529  0.4001 -0.1909  0.0299
 1659TIP3    H1 4899   7.607   6.850   0.529 -1.2761  1.5669  1.6457
 1659TIP3    H2 4900   7.469   6.820   0.475 -0.3005 -0.8970  0.4490
 1660TIP3   OH2 4901   5.069   6.631   0.171  0.1856  0.0813 -0.2377
 1660TIP3    H1 4902   5.133   6.573   0.212 -1.7180 -0.7553  1.6422
 1660TIP3    H2 4903   5.003   6.645   0.239 -1.9910  0.3166 -2.3584
 1661TIP3   OH2 4904   4.375   7.094   1.532  0.2253  0.2717 -0.3284
 1661TIP3    H1 4905   4.453   7.075   1.583  1.0547  1.3253 -1.1840
 1661TIP3    H2 4906   4.304   7.099   1.596  1.4820  2.9651  0.8960
 1662TIP3   OH2 4907   5.042   7.563   1.260  0.0303  0.0779 -0.0245
 1662TIP3    H1 4908   5.045   7.659   1.264 -0.4746  0.0761  0.4140
 1662TIP3    H2 4909   4.953   7.541   1.284  0.2045 -0.5166  0.0757
 1663TIP3   OH2 4910   4.466   5.477   1.182 -0.3870 -0.0210  0.1466
 1663TIP3    H1 4911   4.543   5.448   1.133 -0.8079 -0.7933 -0.0712
 1663TIP3    H2 4912   4.473   5.572   1.183 -0.1841 -0.0159 -1.1103
 1664TIP3   OH2 4913   4.420   4.918   1.691 -0.0807 -0.0697 -0.5081
 1664TIP3    H1 4914   4.338   4.907   1.739 -0.1221  0.2545 -0.5092
 1664TIP3    H2 4915   4.469   4.838   1.710  0.1680  0.3393  0.5835
 1665TIP3   OH2 4916   5.969   3.443   2.113 -0.3525  0.1032 -0.0321
 1665TIP3    H1 4917   5.886   3.460   2.069 -1.6552 -3.5797  0.8125
 1665TIP3    H2 4918   5.944   3.425   2.204  1.4040 -0.8307  0.2822
 1666TIP3   OH2 4919   0.926   1.767   7.132 -0.0020 -0.2347 -0.5307
 1666TIP3    H1 4920   0.865   1.765   7.206  0.2359  1.8647 -0.2468
 1666TIP3    H2 4921   0.875   1.736   7.058 -0.7786 -0.6118  0.1507
 1667TIP3   OH2 4922   4.349   4.228   1.211  1.0865 -0.0974  0.0880
 1667TIP3    H1 4923   4.415   4.172   1.251 -0.1932 -2.3905 -0.8411
 1667TIP3    H2 4924   4.268   4.206   1.258  0.5024  0.7112 -0.5343
 1668TIP3   OH2 4925   8.017   4.015   2.889 -0.0026  0.1443  0.5170
 1668TIP3    H1 4926   8.090   4.071   2.864 -1.4970  2.3022  0.9236
 1668TIP3    H2 4927   7.942   4.073   2.894 -1.7715 -2.0354  0.1404
 1669TIP3   OH2 4928   2.221   2.454   6.470 -0.2482  0.1191  0.2608
 1669TIP3    H1 4929   2.187   2.516   6.534  1.0630 -0.6893  1.7656
 1669TIP3    H2 4930   2.307   2.487   6.446 -0.4120  0.0005 -0.5182
 1670TIP3   OH2 4931   5.756   4.239   0.672 -0.1187  0.0721  0.2115
 1670TIP3    H1 4932   5.696   4.198   0.735  0.8707 -1.2307  0.3270
 1670TIP3    H2 4933   5.701   4.263   0.598 -0.5206 -2.7074 -0.4410
 1671TIP3   OH2 4934   6.429   6.255   6.767  0.1938  0.1346 -0.5541
 1671TIP3    H1 4935   6.408   6.190   6.699 -0.6585 -0.0855 -0.0998
 1671TIP3    H2 4936   6.390   6.218   6.847  3.0851 -0.7008  0.5257
 1672TIP3   OH2 4937   6.086   3.357   0.291  0.3459 -0.7642 -0.2091
 1672TIP3    H1 4938   6.129   3.326   0.371  2.7403 -1.4562 -1.7228
 1672TIP3    H2 4939   6.040   3.281   0.257 -0.5336 -0.5115  0.3676
 1673TIP3   OH2 4940   6.058   3.190   0.796  0.1310 -0.6074 -0.5647
 1673TIP3    H1 4941   6.007   3.269   0.778 -0.0281 -0.5407  0.1799
 1673TIP3    H2 4942   6.139   3.201   0.744  0.9839  0.9597  1.0670
 1674TIP3   OH2 4943   5.298   5.019   1.083 -0.9385  0.0578  0.4184
 1674TIP3    H1 4944   5.298   4.923   1.084 -0.8255  0.0446 -0.3421
 1674TIP3    H2 4945   5.207   5.043   1.067 -0.9526  0.0741  0.5251
 1675TIP3   OH2 4946   4.827   4.079   0.731 -0.1832  0.2932 -0.9887
 1675TIP3    H1 4947   4.897   4.054   0.793 -1.0059  1.0940  0.2911
 1675TIP3    H2 4948   4.759   4.014   0.745  0.1276 -0.2534 -1.9573
 1676TIP3   OH2 4949   1.819   2.210   5.296  0.2845  0.2888  0.0809
 1676TIP3    H1 4950   1.746   2.271   5.305  0.5911  0.8478 -1.1075
 1676TIP3    H2 4951   1.791   2.132   5.343 -2.1769 -0.4704 -2.5417
 1677TIP3   OH2 4952   0.717   0.006   6.219  0.0765 -0.3074  0.4272
 1677TIP3    H1 4953   0.696   0.045   6.304  1.0531 -0.9520  0.9618
 1677TIP3    H2 4954   0.633   0.007   6.171 -0.0881  1.7368  0.7064
 1678TIP3   OH2 4955   6.281   4.943   0.809 -0.2418  0.3540  0.7120
 1678TIP3    H1 4956   6.306   5.007   0.875  4.1018  0.4891 -0.8964
 1678TIP3    H2 4957   6.263   4.995   0.731  1.5466 -0.1990 -0.1004
 1679TIP3   OH2 4958   6.248   6.401   0.585  0.3745  0.7993  0.6039
 1679TIP3    H1 4959   6.275   6.388   0.494 -0.9175  1.3280  0.1276
 1679TIP3    H2 4960   6.308   6.346   0.636  1.9584  1.5182 -0.4473
 1680TIP3   OH2 4961   5.116   6.723   2.445 -0.4445 -0.5106  0.0737
 1680TIP3    H1 4962   5.059   6.735   2.369 -0.0702  1.1636  0.0385
 1680TIP3    H2 4963   5.125   6.628   2.454 -1.6535 -0.7420 -1.1005
 1681TIP3   OH2 4964   6.591   5.694   0.479 -0.4896  0.1490 -0.1921
 1681TIP3    H1 4965   6.521   5.665   0.538  0.4907 -1.4723  0.1910
 1681TIP3    H2 4966   6.567   5.656   0.394  0.4306 -1.2191  0.1554
 1682TIP3   OH2 4967   1.006   2.098   6.837 -0.5056  0.3609 -0.0325
 1682TIP3    H1 4968   1.072   2.121   6.771  0.1031 -2.4878 -0.5126
 1682TIP3    H2 4969   1.013   2.166   6.903  0.9007  1.6967 -1.5241
 1683TIP3   OH2 4970   1.851   0.685   7.216  0.0403 -0.3250  0.0579
 1683TIP3    H1 4971   1.886   0.724   7.296  0.0860 -0.3600  0.0555
 1683TIP3    H2 4972   1.910   0.716   7.147  1.5457 -2.3261  0.3842
 1684TIP3   OH2 4973   5.820   4.305   0.352  0.1043 -0.0676 -0.4640
 1684TIP3    H1 4974   5.912   4.291   0.373  0.2965  0.6221 -0.8372
 1684TIP3    H2 4975   5.790   4.370   0.416 -0.1789 -0.4584 -0.2003
 1685TIP3   OH2 4976   5.338   5.315   0.422 -0.4511  0.0567  0.2612
 1685TIP3    H1 4977   5.252   5.276   0.430  0.4574 -1.9733  0.3413
 1685TIP3    H2 4978   5.328   5.404   0.457 -2.6040  0.0155 -0.2152
 1686TIP3   OH2 4979   4.960   4.944   1.778 -0.3299 -0.2813  0.3854
 1686TIP3    H1 4980   4.959   4.923   1.684 -0.2448 -0.6230  0.4592
 1686TIP3    H2 4981   5.047   4.981   1.793 -0.6664  0.6399  0.1486
 1687TIP3   OH2 4982   3.103   6.097   1.659 -0.1223  0.7734  0.2404
 1687TIP3    H1 4983   3.114   6.002   1.666  2.0211  0.9508 -0.5681
 1687TIP3    H2 4984   3.185   6.129   1.622 -1.3800  2.7960 -0.8868
 1688TIP3   OH2 4985   3.462   7.321   0.935 -0.1701  0.5647 -0.1826
 1688TIP3    H1 4986   3.431   7.345   0.848 -0.8044  0.9458  0.1457
 1688TIP3    H2 4987   3.529   7.255   0.919  0.0240  0.9509 -0.9796
 1689TIP3   OH2 4988   1.904   4.289   7.171 -0.3387 -0.4481  0.2992
 1689TIP3    H1 4989   1.918   4.210   7.223 -1.6891 -0.4712  0.6496
 1689TIP3    H2 4990   1.990   4.309   7.134  0.2385 -1.4779  1.0565
 1690TIP3   OH2 4991   5.004   5.654   0.569  0.2481  0.3572  0.0950
 1690TIP3    H1 4992   4.937   5.672   0.503 -2.5259 -0.5970  2.5643
 1690TIP3    H2 4993   5.041   5.739   0.591 -0.4016  0.9252 -1.0094
 1691TIP3   OH2 4994   3.553   6.353   0.792 -0.3055  0.1013 -0.2681
 1691TIP3    H1 4995   3.582   6.326   0.704 -1.1382 -1.7197 -0.0103
 1691TIP3    H2 4996   3.628   6.398   0.829 -0.2274  1.6844 -2.2441
 1692TIP3   OH2 4997   0.354   0.484   4.746  0.3787  0.1136  0.2921
 1692TIP3    H1 4998   0.413   0.509   4.817  1.1426 -0.9652  0.0561
 1692TIP3    H2 4999   0.411   0.470   4.671 -0.3155  0.2770 -0.2678
 1693TIP3   OH2 5000   6.848   3.350   1.774  0.0149 -0.1450  0.6640
 1693TIP3    H1 5001   6.755   3.350   1.754  0.3258  1.2181 -0.9044
 1693TIP3    H2 5002   6.891   3.338   1.690  1.2673 -0.5322  1.3380
 1694TIP3   OH2 5003   6.990   6.129   7.015 -0.3124 -0.1008 -0.2192
 1694TIP3    H1 5004   6.988   6.178   7.097  0.8277 -0.5377  0.0947
 1694TIP3    H2 5005   6.946   6.185   6.952 -0.7370  0.4725  0.5769
 1695TIP3   OH2 5006   7.259   5.921   5.032  0.4026 -0.6682  0.0399
 1695TIP3    H1 5007   7.283   5.976   4.958 -1.3100  0.7834  0.5234
 1695TIP3    H2 5008   7.343   5.892   5.069  1.2852 -0.3777 -1.6775
 1696TIP3   OH2 5009   4.320   3.641   2.197 -0.3421 -1.0851 -0.0954
 1696TIP3    H1 5010   4.369   3.671   2.273 -1.5220 -0.4094  0.4005
 1696TIP3    H2 5011   4.330   3.711   2.132 -0.8101 -0.8671  0.0707
 1697TIP3   OH2 5012   4.575   2.913   0.653  0.4931 -0.8645  0.0407
 1697TIP3    H1 5013   4.588   2.953   0.739 -1.3524 -0.0098 -0.0733
 1697TIP3    H2 5014   4.599   2.821   0.666 -0.0215 -0.7947  1.5217
 1698TIP3   OH2 5015   1.520   3.168   5.435  0.0585 -0.2519 -0.3095
 1698TIP3    H1 5016   1.613   3.158   5.417  0.0861 -1.2289  0.3828
 1698TIP3    H2 5017   1.507   3.129   5.521 -0.8278  0.7110  0.0078
 1699TIP3   OH2 5018   3.614   1.184   6.720 -0.3271 -0.4021  0.3945
 1699TIP3    H1 5019   3.678   1.166   6.650 -0.8095 -0.9717  0.1013
 1699TIP3    H2 5020   3.639   1.271   6.753 -0.1451 -0.0937 -0.5400
 1700TIP3   OH2 5021   5.623   6.157   0.873  0.3057 -0.3222 -0.2364
 1700TIP3    H1 5022   5.572   6.108   0.938 -0.6197 -0.3838 -1.0051
 1700TIP3    H2 5023   5.713   6.153   0.906  0.0476 -1.4536  0.3672
 1701TIP3   OH2 5024   6.798   6.605   0.556 -0.0696  0.6339  0.0623
 1701TIP3    H1 5025   6.720   6.659   0.570  0.4866  1.4565  0.0310
 1701TIP3    H2 5026   6.829   6.585   0.644 -0.9732 -0.6602  0.0885
 1702TIP3   OH2 5027   2.743   2.680   6.582 -0.0702 -0.6163 -0.1150
 1702TIP3    H1 5028   2.777   2.605   6.533 -1.9780 -2.1633  0.8846
 1702TIP3    H2 5029   2.686   2.725   6.519  1.5657  0.4089 -0.9145
 1703TIP3   OH2 5030   1.841   3.296   6.203  0.4433 -0.0197 -0.5440
 1703TIP3    H1 5031   1.866   3.327   6.116  0.2813 -1.4374 -1.1110
 1703TIP3    H2 5032   1.746   3.294   6.201  0.3884  1.6669  0.2855
 1704TIP3   OH2 5033   0.457   6.045   3.613  0.1127  0.1210 -0.0920
 1704TIP3    H1 5034   0.464   6.065   3.519  0.4633  1.4367  0.1971
 1704TIP3    H2 5035   0.531   6.091   3.652 -1.0771  1.0944  1.0598
 1705TIP3   OH2 5036   0.504   8.078   2.696 -0.5365 -0.7283  0.0604
 1705TIP3    H1 5037   0.561   8.141   2.739  0.4099 -2.2432  1.0999
 1705TIP3    H2 5038   0.436   8.130   2.655  1.0691  1.0588 -0.3781
 1706TIP3   OH2 5039   1.764   7.723   1.441  0.0063  0.1969 -0.3718
 1706TIP3    H1 5040   1.838   7.676   1.481  0.4631 -0.7207 -2.2102
 1706TIP3    H2 5041   1.688   7.668   1.459  0.0854  0.1831 -0.0808
 1707TIP3   OH2 5042   8.211   4.465   4.094  0.2164  0.2619 -0.1540
 1707TIP3    H1 5043   8.115   4.466   4.100  0.3243 -0.0965  1.8900
 1707TIP3    H2 5044   8.234   4.372   4.092  0.5233  0.3477 -0.7265
 1708TIP3   OH2 5045   2.110   6.785   2.159 -0.1118 -0.0778  0.6111
 1708TIP3    H1 5046   2.105   6.875   2.190 -0.3687  0.1512 -0.0777
 1708TIP3    H2 5047   2.120   6.794   2.064  1.2578 -0.7397  0.6854
 1709TIP3   OH2 5048   1.505   6.651   1.367 -0.2216 -0.3077  0.8215
 1709TIP3    H1 5049   1.564   6.687   1.301 -1.3074  0.4397  0.2659
 1709TIP3    H2 5050   1.526   6.699   1.447 -0.9985  0.8953  0.3087
 1710TIP3   OH2 5051   8.493   7.171   0.610  0.2963  0.2375 -0.5048
 1710TIP3    H1 5052   8.518   7.131   0.694 -1.6332 -0.9650 -0.4550
 1710TIP3    H2 5053   8.481   7.096   0.552  2.4955  1.1138 -2.1417
 1711TIP3   OH2 5054   1.704   5.380   1.339 -0.0522 -0.2690  1.0687
 1711TIP3    H1 5055   1.722   5.359   1.247 -1.2199  0.0920  0.7520
 1711TIP3    H2 5056   1.764   5.452   1.359  0.4388 -0.5681  0.6947
 1712TIP3   OH2 5057   2.122   6.948   1.160  0.2188  0.3021 -0.3327
 1712TIP3    H1 5058   2.078   6.865   1.178 -1.6766  1.5003  0.7388
 1712TIP3    H2 5059   2.063   6.994   1.100  0.3848  1.6067  0.4791
 1713TIP3   OH2 5060   0.150   4.854   2.448 -0.1625 -0.5270  0.2910
 1713TIP3    H1 5061   0.210   4.863   2.374  1.4783 -0.1847  1.6148
 1713TIP3    H2 5062   0.208   4.840   2.523 -1.7426  0.0042  1.6349
 1714TIP3   OH2 5063   2.027   6.588   3.459  0.2416 -0.2608 -0.1079
 1714TIP3    H1 5064   2.112   6.545   3.462  0.0141 -0.7979 -1.4751
 1714TIP3    H2 5065   2.019   6.620   3.370 -0.7876  0.2143  0.1465
 1715TIP3   OH2 5066   0.646   5.714   2.986 -0.6984  0.2753 -0.1333
 1715TIP3    H1 5067   0.616   5.773   2.917 -1.0579  0.5767  0.2818
 1715TIP3    H2 5068   0.655   5.769   3.063 -0.0950 -0.0213  0.0140
 1716TIP3   OH2 5069   6.706   4.543   4.821 -0.1307  0.2805 -0.4802
 1716TIP3    H1 5070   6.648   4.606   4.864  0.5182  0.1665  0.6051
 1716TIP3    H2 5071   6.729   4.583   4.738 -1.6364  0.3911 -0.8472
 1717TIP3   OH2 5072   0.113   6.533   1.951  0.3825 -0.1798 -0.7780
 1717TIP3    H1 5073   0.026   6.503   1.924  0.3758  0.4290 -1.4729
 1717TIP3    H2 5074   0.143   6.468   2.013 -0.1122 -0.9942 -1.3806
 1718TIP3   OH2 5075   1.159   8.320   2.083  0.0049 -0.4619  0.0501
 1718TIP3    H1 5076   1.105   8.396   2.061  1.9792  0.5463 -1.4398
 1718TIP3    H2 5077   1.216   8.350   2.154  1.0610 -0.4092 -0.8028
 1719TIP3   OH2 5078   1.027   5.682   1.263 -0.4741 -0.4305  0.3051
 1719TIP3    H1 5079   1.008   5.774   1.285 -0.5914 -0.4295  0.1989
 1719TIP3    H2 5080   0.951   5.653   1.212  0.4628 -0.0103 -1.3459
 1720TIP3   OH2 5081   8.631   5.817   0.103  0.3391  0.1990  0.0360
 1720TIP3    H1 5082   8.686   5.826   0.025  0.0520 -0.1952 -0.2143
 1720TIP3    H2 5083   8.629   5.904   0.142  0.0319  0.5281 -0.7075
 1721TIP3   OH2 5084   8.062   8.153   0.820 -0.1446  0.4897 -0.0661
 1721TIP3    H1 5085   8.157   8.152   0.834 -0.0730  2.7756 -0.2010
 1721TIP3    H2 5086   8.025   8.175   0.905 -0.6143 -0.9943  0.1318
 1722TIP3   OH2 5087   2.295   4.819   1.593 -0.3667 -0.4649 -0.1628
 1722TIP3    H1 5088   2.382   4.857   1.580  0.0296 -1.6129 -0.9653
 1722TIP3    H2 5089   2.299   4.778   1.679  0.6595 -2.5270 -1.1637
 1723TIP3   OH2 5090   5.661   1.430   3.389  0.2067  0.0576  0.3954
 1723TIP3    H1 5091   5.732   1.491   3.372 -0.2234  0.5872  0.4633
 1723TIP3    H2 5092   5.699   1.363   3.446  0.9429 -0.2769 -0.4733
 1724TIP3   OH2 5093   0.758   7.045   2.649  0.0151  0.1076 -0.1031
 1724TIP3    H1 5094   0.729   7.133   2.625  1.7068  0.1733 -2.0061
 1724TIP3    H2 5095   0.819   7.019   2.580 -0.4206 -2.5596  0.4274
 1725TIP3   OH2 5096   2.564   4.070   2.500  0.1069  0.3097 -0.4446
 1725TIP3    H1 5097   2.593   4.154   2.536  0.3465  0.6461 -1.4083
 1725TIP3    H2 5098   2.469   4.068   2.516 -0.2223  1.6056 -2.0760
 1726TIP3   OH2 5099   0.388   5.809   2.079 -0.1558  0.1343 -0.7263
 1726TIP3    H1 5100   0.387   5.775   2.168 -3.1850 -1.1283 -1.1548
 1726TIP3    H2 5101   0.435   5.743   2.028 -1.4280 -0.8606 -0.6379
 1727TIP3   OH2 5102   1.849   4.677   0.918  0.4578 -0.7459 -0.1005
 1727TIP3    H1 5103   1.803   4.596   0.943  1.8066 -0.8494  2.1948
 1727TIP3    H2 5104   1.849   4.730   0.998  2.8470 -0.0659 -0.5184
 1728TIP3   OH2 5105   7.022   2.754   7.175 -0.0375  0.1593 -0.2296
 1728TIP3    H1 5106   7.111   2.752   7.209  0.1124 -0.0149 -0.6316
 1728TIP3    H2 5107   6.966   2.754   7.254  0.2947 -0.9762  0.0129
 1729TIP3   OH2 5108   7.393   0.370   1.247 -0.2764 -0.2595 -0.4048
 1729TIP3    H1 5109   7.373   0.346   1.156 -1.3258  0.8529 -0.4800
 1729TIP3    H2 5110   7.428   0.459   1.241  0.2825 -0.4428  0.2107
 1730TIP3   OH2 5111   2.640   7.300   1.458  0.0508 -0.3110 -0.0058
 1730TIP3    H1 5112   2.619   7.229   1.397 -1.8926  1.6880 -1.7666
 1730TIP3    H2 5113   2.735   7.311   1.450 -0.0420 -0.6840 -2.0565
 1731TIP3   OH2 5114   7.898   5.835   1.092 -0.6058  0.1180 -0.3642
 1731TIP3    H1 5115   7.846   5.810   1.016 -1.0826 -2.6475  0.8218
 1731TIP3    H2 5116   7.836   5.878   1.151 -0.7536  0.0906 -0.5003
 1732TIP3   OH2 5117   4.804   0.249   0.034  0.2083 -0.3252  0.4073
 1732TIP3    H1 5118   4.839   0.234   0.122  1.1161 -1.7536 -0.1805
 1732TIP3    H2 5119   4.874   0.221  -0.025 -0.8110 -0.4320 -0.7761
 1733TIP3   OH2 5120   1.015   6.571   0.745 -0.4504  0.1397 -0.4764
 1733TIP3    H1 5121   1.087   6.630   0.725  1.0386 -1.2359  0.6957
 1733TIP3    H2 5122   1.018   6.505   0.676 -2.5499  1.7792 -2.1843
 1734TIP3   OH2 5123   2.051   5.304   1.544 -0.0668 -0.0370  0.9316
 1734TIP3    H1 5124   1.963   5.290   1.580  0.0159 -2.1224  0.3666
 1734TIP3    H2 5125   2.093   5.218   1.548  0.6880  0.1280 -2.1144
 1735TIP3   OH2 5126   2.484   6.599   1.743  0.1270 -0.1272  0.2403
 1735TIP3    H1 5127   2.470   6.662   1.673  1.0562 -0.2650 -0.0789
 1735TIP3    H2 5128   2.572   6.565   1.728  0.4974  0.1370  1.7160
 1736TIP3   OH2 5129   7.350   2.166   7.224 -0.2459 -0.2184  0.0729
 1736TIP3    H1 5130   7.322   2.197   7.138 -1.2225  0.6952  0.7163
 1736TIP3    H2 5131   7.358   2.071   7.213  1.1224  0.0322 -1.4408
 1737TIP3   OH2 5132   3.674   7.718   2.290 -0.3023  0.8351 -0.2419
 1737TIP3    H1 5133   3.719   7.669   2.358 -0.6159  1.9092  0.7517
 1737TIP3    H2 5134   3.613   7.655   2.251  1.6251 -0.4748 -1.2216
 1738TIP3   OH2 5135   0.607   4.975   1.724 -0.5544 -0.1358  0.6653
 1738TIP3    H1 5136   0.567   5.038   1.783  0.2029 -1.9530  3.2124
 1738TIP3    H2 5137   0.698   5.003   1.716 -1.2605  1.6095 -1.8031
 1739TIP3   OH2 5138   8.662   6.090   0.471 -0.1128 -0.4130 -0.2163
 1739TIP3    H1 5139   8.663   6.029   0.545 -0.6413  2.4941  2.3000
 1739TIP3    H2 5140   8.578   6.074   0.429  0.4051 -2.4498 -0.5429
 1740TIP3   OH2 5141   1.776   6.455   1.903 -0.3951  0.1751 -0.7849
 1740TIP3    H1 5142   1.817   6.533   1.864 -0.0122 -0.1081 -0.9459
 1740TIP3    H2 5143   1.847   6.411   1.948 -1.0335  1.0308  1.0984
 1741TIP3   OH2 5144   3.007   4.505   5.490 -0.6057 -0.3648 -0.3457
 1741TIP3    H1 5145   3.086   4.483   5.539 -0.6044  1.6507  0.5867
 1741TIP3    H2 5146   3.017   4.460   5.406  0.1311 -2.5555  0.8703
 1742TIP3   OH2 5147   2.249   6.092   0.814  0.1681 -0.1052  0.5515
 1742TIP3    H1 5148   2.234   6.015   0.759  0.1194 -0.5616  1.2025
 1742TIP3    H2 5149   2.337   6.079   0.850 -0.1032 -0.1746  1.1806
 1743TIP3   OH2 5150   0.247   7.206   0.190  0.1563 -0.4991  0.6503
 1743TIP3    H1 5151   0.228   7.123   0.147  0.7733 -0.9854  1.3061
 1743TIP3    H2 5152   0.288   7.260   0.123 -2.2964  0.0957 -0.4331
 1744TIP3   OH2 5153   0.577   8.124   1.872 -0.1391  0.2209 -0.2366
 1744TIP3    H1 5154   0.506   8.084   1.821  0.6284 -0.4202 -0.8248
 1744TIP3    H2 5155   0.533   8.180   1.935 -1.1391  0.4151 -1.0999
 1745TIP3   OH2 5156   1.806   1.759   7.144 -0.9480  0.2844 -0.3412
 1745TIP3    H1 5157   1.888   1.710   7.153 -0.9308  0.6099  1.4333
 1745TIP3    H2 5158   1.832   1.850   7.153 -1.2919  0.4867 -1.3994
 1746TIP3   OH2 5159   2.675   6.200   0.562  0.6612 -0.3334 -0.3934
 1746TIP3    H1 5160   2.583   6.177   0.569  0.8205 -0.8296  0.1312
 1746TIP3    H2 5161   2.690   6.264   0.631  0.6106  0.0813 -0.7636
 1747TIP3   OH2 5162   0.506   0.957   6.373 -0.0881  0.0710  0.3474
 1747TIP3    H1 5163   0.515   0.871   6.414 -0.8892  0.1251  0.6382
 1747TIP3    H2 5164   0.596   0.982   6.349  0.2073 -0.6020  0.7547
 1748TIP3   OH2 5165   1.568   8.221   1.331 -0.7119  0.2674 -0.7412
 1748TIP3    H1 5166   1.629   8.154   1.360 -2.7081 -1.8644 -1.3398
 1748TIP3    H2 5167   1.562   8.282   1.405  0.5076 -0.6428  0.1243
 1749TIP3   OH2 5168   5.590   7.949   6.494 -0.0678  0.7451  0.1958
 1749TIP3    H1 5169   5.682   7.974   6.485 -0.0557  0.3346 -0.8298
 1749TIP3    H2 5170   5.569   7.905   6.412 -0.6752 -0.7693  1.1576
 1750TIP3   OH2 5171   1.002   2.941   7.251 -0.0308  0.1073 -0.0876
 1750TIP3    H1 5172   0.992   2.902   7.165  0.0031  0.2353 -0.1508
 1750TIP3    H2 5173   1.066   3.011   7.238 -0.8440  0.8440 -0.1958
 1751TIP3   OH2 5174   0.566   8.090   0.571 -0.4625 -0.3984 -0.9216
 1751TIP3    H1 5175   0.508   8.066   0.499 -1.1444  0.7331 -0.7636
 1751TIP3    H2 5176   0.556   8.185   0.579 -0.0981 -0.4662  0.4046
 1752TIP3   OH2 5177   3.110   7.731   1.865 -0.1856  0.0881  0.2844
 1752TIP3    H1 5178   3.148   7.706   1.949 -1.8770 -4.7995 -0.2607
 1752TIP3    H2 5179   3.184   7.732   1.804  0.2990 -1.4275  0.8235
 1753TIP3   OH2 5180   8.059   1.526   6.920 -0.1336  0.3290 -0.2340
 1753TIP3    H1 5181   8.034   1.605   6.872  0.9573 -0.2421 -1.7787
 1753TIP3    H2 5182   8.144   1.547   6.958 -0.0391  0.0486 -0.2902
 1754TIP3   OH2 5183   5.160   0.704   1.455 -0.2578  0.3461  0.7307
 1754TIP3    H1 5184   5.086   0.669   1.405  0.6977  0.6812 -0.9515
 1754TIP3    H2 5185   5.130   0.790   1.485 -0.1456  0.9891 -0.9514
 1755TIP3   OH2 5186   7.004   3.355   6.417 -0.2742 -0.3311 -0.4253
 1755TIP3    H1 5187   6.970   3.435   6.378 -0.4740 -0.5055 -0.6098
 1755TIP3    H2 5188   7.086   3.381   6.459 -0.4898  0.0262 -0.2334
 1756TIP3   OH2 5189   3.326   5.984   1.932  0.6038 -0.2953 -0.1176
 1756TIP3    H1 5190   3.274   6.064   1.945  0.9002  0.0340 -0.9546
 1756TIP3    H2 5191   3.362   5.993   1.844 -1.7021 -2.7162 -1.3910
 1757TIP3   OH2 5192   2.653   5.537   0.190 -0.2000 -0.1086 -0.4026
 1757TIP3    H1 5193   2.629   5.445   0.176 -2.5251  0.4937 -0.5013
 1757TIP3    H2 5194   2.663   5.572   0.101  0.7511 -0.2663 -0.3640
 1758TIP3   OH2 5195   4.849   6.913   1.092  0.1858 -0.3229  0.6107
 1758TIP3    H1 5196   4.906   6.961   1.151 -0.0660  1.8545 -0.8805
 1758TIP3    H2 5197   4.897   6.909   1.009 -0.7250 -0.7262  0.0936
 1759TIP3   OH2 5198   0.081   5.275   6.198 -0.2532 -0.7388 -0.7149
 1759TIP3    H1 5199   0.015   5.297   6.132  0.1811  3.2210  0.0140
 1759TIP3    H2 5200   0.154   5.238   6.147 -0.7176  0.3516 -2.2239
 1760TIP3   OH2 5201   0.889   1.899   6.520 -0.3687 -0.0248  0.1014
 1760TIP3    H1 5202   0.966   1.913   6.465 -1.1843 -0.0671 -1.0669
 1760TIP3    H2 5203   0.903   1.813   6.559  1.0997  0.7891  1.4469
 1761TIP3   OH2 5204   4.590   0.418   0.743 -0.0301 -0.1037  0.2242
 1761TIP3    H1 5205   4.576   0.340   0.797  0.4909  0.0445  0.5754
 1761TIP3    H2 5206   4.612   0.487   0.806 -0.5743  0.3515 -0.0757
 1762TIP3   OH2 5207   0.774   2.021   6.983 -0.6940 -0.0059  0.9144
 1762TIP3    H1 5208   0.839   1.981   6.925 -0.9076 -0.3626  0.9214
 1762TIP3    H2 5209   0.820   2.094   7.024 -1.2229  1.7559 -1.5334
 1763TIP3   OH2 5210   1.527   7.216   0.470  0.4308  0.6176 -0.0524
 1763TIP3    H1 5211   1.619   7.241   0.465  0.6363 -0.0040  0.6622
 1763TIP3    H2 5212   1.521   7.159   0.546 -0.8609  2.0629  0.9856
 1764TIP3   OH2 5213   8.379   2.549   7.038 -0.5889  0.3367  0.0846
 1764TIP3    H1 5214   8.359   2.635   7.074 -0.1773  0.3843  0.1923
 1764TIP3    H2 5215   8.455   2.519   7.087 -1.9041 -0.9349  1.4058
 1765TIP3   OH2 5216   3.533   6.146   2.774 -0.2777 -0.0808  0.2559
 1765TIP3    H1 5217   3.601   6.200   2.814  0.1262 -0.7101  0.4330
 1765TIP3    H2 5218   3.526   6.178   2.685  0.9039 -0.6036 -0.0354
 1766TIP3   OH2 5219   6.574   2.341   5.934 -0.0892 -0.4579 -0.0079
 1766TIP3    H1 5220   6.503   2.379   5.986 -1.5460 -1.7956 -0.9707
 1766TIP3    H2 5221   6.607   2.413   5.881 -1.4287 -0.0654 -0.3149
 1767TIP3   OH2 5222   3.599   5.429   1.015 -0.2937  0.3928  0.6757
 1767TIP3    H1 5223   3.560   5.502   0.967 -1.0696 -0.3069  0.2449
 1767TIP3    H2 5224   3.680   5.466   1.053 -0.5273  1.3866  0.2158
 1768TIP3   OH2 5225   0.919   6.751   0.327  0.2106 -0.2478 -0.0853
 1768TIP3    H1 5226   1.003   6.706   0.325  0.6162  0.3873  1.7353
 1768TIP3    H2 5227   0.929   6.816   0.396 -1.9442 -0.4676  0.4516
 1769TIP3   OH2 5228   3.337   6.994   1.566  0.5414  0.5652 -0.1720
 1769TIP3    H1 5229   3.346   6.919   1.626 -0.4060  0.7402  0.2077
 1769TIP3    H2 5230   3.242   7.004   1.556  0.6281  2.5988  0.8849
 1770TIP3   OH2 5231   2.289   6.485   0.019  0.7097  0.4626  0.6294
 1770TIP3    H1 5232   2.247   6.430  -0.046  3.2928  0.0519 -0.7806
 1770TIP3    H2 5233   2.231   6.560   0.029  0.0917  0.3555 -1.8833
 1771TIP3   OH2 5234   3.951   5.164   2.061 -0.5542  0.0579 -0.3481
 1771TIP3    H1 5235   3.923   5.244   2.106 -2.5155 -1.0425  0.4417
 1771TIP3    H2 5236   4.047   5.165   2.068 -0.7184  0.8262  2.3155
 1772TIP3   OH2 5237   2.375   6.732   0.421 -0.5064 -0.1241  0.3606
 1772TIP3    H1 5238   2.309   6.702   0.483  0.6897 -0.1446  1.6578
 1772TIP3    H2 5239   2.396   6.822   0.449  1.2496 -0.7225  1.0513
 1773TIP3   OH2 5240   2.979   6.154   1.961  0.1300 -0.3651 -0.6127
 1773TIP3    H1 5241   2.905   6.165   2.021 -0.9984  0.4776 -2.1169
 1773TIP3    H2 5242   2.978   6.061   1.940 -1.1969 -0.1817 -1.4538
 1774TIP3   OH2 5243   7.993   2.579   6.538  0.1666  0.2124 -0.4311
 1774TIP3    H1 5244   7.928   2.644   6.514 -1.0571 -0.9536 -0.3246
 1774TIP3    H2 5245   8.050   2.572   6.461 -2.1113 -1.5240 -2.0230
 1775TIP3   OH2 5246   7.989   2.900   6.909  0.2034 -0.2001  0.2021
 1775TIP3    H1 5247   8.083   2.885   6.916  0.9688  4.7000  3.0413
 1775TIP3    H2 5248   7.979   2.953   6.830  0.0566  0.5846  0.7414
 1776TIP3   OH2 5249   0.793   3.537   7.229 -0.1309  0.2090  0.0818
 1776TIP3    H1 5250   0.776   3.484   7.151 -0.9978  0.4540  0.0996
 1776TIP3    H2 5251   0.831   3.476   7.292  0.5330 -0.0022 -0.5209
 1777TIP3   OH2 5252   2.239   6.945   0.029  0.1249 -0.0553  0.4667
 1777TIP3    H1 5253   2.186   6.992   0.093 -0.0905 -0.9362  0.9543
 1777TIP3    H2 5254   2.207   6.854   0.035  1.5203 -0.5448  0.5883
 1778TIP3   OH2 5255   2.958   5.762   2.493 -0.4936  0.4861 -0.2029
 1778TIP3    H1 5256   2.997   5.826   2.433 -1.0252  1.3939  0.3987
 1778TIP3    H2 5257   2.901   5.709   2.438  2.3305 -1.5191 -1.2723
 1779TIP3   OH2 5258   1.699   7.900   0.434  0.5150 -0.1263 -0.8288
 1779TIP3    H1 5259   1.775   7.958   0.433 -0.3735  1.0522 -1.5101
 1779TIP3    H2 5260   1.646   7.932   0.507  1.0723 -1.4987  0.2074
 1780TIP3   OH2 5261   2.210   8.267   0.405 -0.4666  0.0038 -0.8486
 1780TIP3    H1 5262   2.167   8.311   0.479 -0.7093 -0.9341 -0.4233
 1780TIP3    H2 5263   2.267   8.202   0.446  0.5135  0.4907 -1.4516
 1781TIP3   OH2 5264   8.354   0.990   5.960  0.0755  0.3495  0.2232
 1781TIP3    H1 5265   8.289   1.059   5.960 -0.9591 -0.5942 -1.3230
 1781TIP3    H2 5266   8.303   0.909   5.961  1.2488 -0.4026  0.1752
 1782TIP3   OH2 5267   1.111   7.159   1.088  0.1849 -0.5841  0.4491
 1782TIP3    H1 5268   1.191   7.107   1.084  2.4373  2.5240  2.4716
 1782TIP3    H2 5269   1.094   7.185   0.998  1.4427 -1.2987  0.0003
 1783TIP3   OH2 5270   1.106   6.348   0.619  0.1660 -0.4274  0.2294
 1783TIP3    H1 5271   1.064   6.293   0.553 -1.0243 -0.2407  0.8188
 1783TIP3    H2 5272   1.189   6.374   0.579 -0.4907 -0.3910 -1.1629
 1784TIP3   OH2 5273   2.049   7.649   0.673 -0.1743  0.2375 -0.0569
 1784TIP3    H1 5274   2.019   7.740   0.661 -1.2394 -0.0086  0.6244
 1784TIP3    H2 5275   1.991   7.614   0.740 -0.1082 -1.1125 -0.6862
 1785TIP3   OH2 5276   1.974   8.209   1.557 -0.8228  0.0172 -0.1907
 1785TIP3    H1 5277   1.912   8.136   1.561 -2.9056  1.8293  1.0641
 1785TIP3    H2 5278   1.975   8.244   1.646 -1.0553  2.5235 -1.1473
 1786TIP3   OH2 5279   2.937   7.667   0.079  0.1116  0.0255 -0.3760
 1786TIP3    H1 5280   2.936   7.746   0.024  0.8076 -0.1938 -0.7198
 1786TIP3    H2 5281   2.945   7.700   0.168 -2.9139  0.4457 -0.2341
 1787TIP3   OH2 5282   8.315  -0.025   2.587 -0.5795 -0.4409 -0.4381
 1787TIP3    H1 5283   8.403   0.001   2.559 -0.7026 -1.0841 -1.4664
 1787TIP3    H2 5284   8.298   0.027   2.666  0.2232  0.5933 -0.9353
 1788TIP3   OH2 5285   4.089   5.511   1.243 -0.1900 -0.4269  0.1670
 1788TIP3    H1 5286   4.137   5.474   1.169 -1.6519 -0.8164 -0.6035
 1788TIP3    H2 5287   4.096   5.606   1.231 -1.7572 -0.4719 -1.3923
 1789TIP3   OH2 5288   0.899   3.943   6.016  0.6040  0.3579 -0.5398
 1789TIP3    H1 5289   0.951   4.010   6.060  3.3325 -0.5516 -2.2740
 1789TIP3    H2 5290   0.884   3.977   5.928 -3.2518  1.3460  0.4151
 1790TIP3   OH2 5291   7.990   0.130   6.898  0.4450  0.1008 -0.4335
 1790TIP3    H1 5292   7.910   0.154   6.852  0.3555  1.0430  0.1853
 1790TIP3    H2 5293   7.974   0.156   6.989  0.7992 -1.2906  0.0349
 1791TIP3   OH2 5294   0.276   3.051   6.206 -0.2287  0.2987 -0.0374
 1791TIP3    H1 5295   0.265   3.021   6.115  3.0982  1.1425 -0.7857
 1791TIP3    H2 5296   0.249   3.143   6.204  1.0900  0.6825 -0.4823
 1792TIP3   OH2 5297   7.069   2.046   6.924 -0.4292 -0.0895 -0.3886
 1792TIP3    H1 5298   7.152   2.089   6.902 -0.8746  0.5949 -0.7237
 1792TIP3    H2 5299   7.030   2.024   6.840 -1.6123  1.5420 -0.2881
 1793TIP3   OH2 5300   3.067   6.024   0.553 -0.1202 -0.0806  0.4103
 1793TIP3    H1 5301   3.029   6.102   0.593 -1.7141 -2.0037  2.8089
 1793TIP3    H2 5302   3.019   6.013   0.471 -1.1493  0.4456  0.9349
 1794TIP3   OH2 5303   6.408   3.702   6.029 -0.1688  0.5176 -0.3375
 1794TIP3    H1 5304   6.370   3.681   6.114  1.0262 -1.7863 -0.3184
 1794TIP3    H2 5305   6.479   3.763   6.048 -0.2574  0.4391  0.2518
 1795TIP3   OH2 5306  -0.003   2.444   7.071  0.0726  0.5813 -0.3565
 1795TIP3    H1 5307   0.074   2.420   7.020  0.3564 -1.7588  1.0976
 1795TIP3    H2 5308   0.001   2.387   7.148 -2.9384  0.6275 -0.1094
 1796TIP3   OH2 5309   8.531   1.169   6.697 -0.5551 -0.7928 -0.0843
 1796TIP3    H1 5310   8.528   1.233   6.625  0.4207 -1.0607 -0.3654
 1796TIP3    H2 5311   8.439   1.150   6.715 -0.9348  2.0144  1.1876
 1797TIP3   OH2 5312   2.405   7.216   0.402  0.1357 -0.5454  0.8025
 1797TIP3    H1 5313   2.427   7.170   0.321 -1.0608  0.0781  0.1013
 1797TIP3    H2 5314   2.423   7.308   0.384 -1.1443 -0.2651  0.8566
 1798TIP3   OH2 5315   3.465   6.579   2.296  0.1788 -0.2959  0.4225
 1798TIP3    H1 5316   3.403   6.644   2.329  0.7555 -0.5488  2.0495
 1798TIP3    H2 5317   3.410   6.512   2.256 -0.5517 -0.1121  1.1165
 1799TIP3   OH2 5318   0.529   4.418   6.977  0.3311 -0.3413  0.4379
 1799TIP3    H1 5319   0.533   4.498   6.926 -0.6470 -0.1925  0.5891
 1799TIP3    H2 5320   0.465   4.363   6.931  0.1249 -0.5705  0.9945
 1800TIP3   OH2 5321   0.989   7.558   1.209  0.1033 -0.2888  0.5418
 1800TIP3    H1 5322   1.039   7.587   1.132  2.4686  1.1282  2.5307
 1800TIP3    H2 5323   0.905   7.603   1.202  0.5768  0.4058 -0.8296
 1801TIP3   OH2 5324   8.040   0.904   4.690  0.6419  0.8040  0.4029
 1801TIP3    H1 5325   7.963   0.953   4.720  0.9019  1.4208  0.0672
 1801TIP3    H2 5326   8.106   0.918   4.758  0.2291 -0.3139  1.0472
 1802TIP3   OH2 5327   3.475   7.785   2.017  0.0175  0.1133  0.1028
 1802TIP3    H1 5328   3.419   7.806   2.091  0.5619  0.5333  0.4031
 1802TIP3    H2 5329   3.489   7.868   1.972  0.6719  0.0743  0.2238
 1803TIP3   OH2 5330   2.551   5.118   2.059 -0.2884  0.5265 -0.5429
 1803TIP3    H1 5331   2.498   5.183   2.013 -2.3097 -1.5892 -1.2622
 1803TIP3    H2 5332   2.523   5.126   2.151 -2.1251 -0.8089 -0.9684
 1804TIP3   OH2 5333   1.844   6.417   2.914 -0.3217 -0.2951  0.1265
 1804TIP3    H1 5334   1.894   6.336   2.908 -0.5911 -0.4177 -0.4969
 1804TIP3    H2 5335   1.808   6.416   3.003  1.6494  0.3207  0.9435
 1805TIP3   OH2 5336   2.877   7.455   1.544  0.0340  0.3206 -0.1897
 1805TIP3    H1 5337   2.889   7.484   1.453  0.0375  0.2298 -0.2185
 1805TIP3    H2 5338   2.921   7.369   1.548 -0.0903  0.2591 -0.1392
 1806TIP3   OH2 5339   8.525   2.878   6.797 -0.1841  0.1903  0.2522
 1806TIP3    H1 5340   8.584   2.953   6.801  0.0217  0.0681 -0.3771
 1806TIP3    H2 5341   8.578   2.808   6.756 -0.8602  0.1841 -0.6366
 1807TIP3   OH2 5342   8.806   0.081   6.802  0.7808 -0.2346 -0.5552
 1807TIP3    H1 5343   8.784   0.163   6.846 -0.3255 -1.7547  1.8222
 1807TIP3    H2 5344   8.872   0.040   6.858  1.1474 -1.0894 -1.5827
 1808TIP3   OH2 5345   2.928   5.874   2.025  0.3675  0.7148  0.2219
 1808TIP3    H1 5346   2.931   5.790   1.979  0.8304  1.5465 -1.2986
 1808TIP3    H2 5347   2.995   5.867   2.092  1.0300  0.1965 -0.4828
 1809TIP3   OH2 5348   3.507   6.935   0.627  0.2420  0.2614  0.2644
 1809TIP3    H1 5349   3.553   6.911   0.707 -0.4675  1.0244  0.9147
 1809TIP3    H2 5350   3.576   6.953   0.564  0.7989 -1.2117  0.4425
 1810TIP3   OH2 5351   4.198   5.918   2.372  0.0852 -0.3389  0.5187
 1810TIP3    H1 5352   4.263   5.877   2.428  1.8028  0.0010 -1.1829
 1810TIP3    H2 5353   4.158   5.845   2.325  0.6079 -0.3818  0.1380
 1811TIP3   OH2 5354   5.619   0.941   1.517  0.4734 -0.0762 -0.4340
 1811TIP3    H1 5355   5.707   0.971   1.540 -0.5755  0.0550  3.9271
 1811TIP3    H2 5356   5.581   1.013   1.467  1.0467  2.2416  2.3237
 1812TIP3   OH2 5357   1.719   6.741   1.206  0.0519 -0.1957  0.1975
 1812TIP3    H1 5358   1.663   6.701   1.139  2.1544 -2.1836 -0.4637
 1812TIP3    H2 5359   1.684   6.829   1.218 -2.5550 -1.0269 -0.9237
 1813TIP3   OH2 5360   7.859   3.069   7.074 -0.4062  0.3253  0.6801
 1813TIP3    H1 5361   7.783   3.043   7.021 -0.9296  1.0269  1.0808
 1813TIP3    H2 5362   7.935   3.038   7.024 -0.8225  2.3415 -1.2861
 1814TIP3   OH2 5363   2.497   1.817   2.301  0.0234  0.2617 -0.2429
 1814TIP3    H1 5364   2.572   1.772   2.340 -0.6177 -0.5989 -0.0064
 1814TIP3    H2 5365   2.500   1.905   2.340  1.3824  0.5042 -0.8611
 1815TIP3   OH2 5366   2.009   4.929   1.301 -0.0859  0.4375 -0.2409
 1815TIP3    H1 5367   2.099   4.953   1.323  0.5105 -0.2063 -1.9220
 1815TIP3    H2 5368   1.955   4.983   1.360  1.3963  0.0722  1.4891
 1816TIP3   OH2 5369   0.185   8.353   0.563 -0.3042  0.1180  0.6563
 1816TIP3    H1 5370   0.185   8.279   0.502 -1.0179  0.0692  0.7040
 1816TIP3    H2 5371   0.193   8.430   0.507  2.8302 -0.0890  0.7695
 1817TIP3   OH2 5372   0.514   7.864   1.623  0.1812 -0.1798 -0.2417
 1817TIP3    H1 5373   0.539   7.953   1.598 -0.8150 -0.1355 -1.0944
 1817TIP3    H2 5374   0.568   7.807   1.567  0.4621 -0.1074 -0.0439
 1818TIP3   OH2 5375   2.765   6.994   0.573 -0.2432 -0.4037 -0.2751
 1818TIP3    H1 5376   2.757   6.911   0.619 -2.0036 -0.8967 -1.4288
 1818TIP3    H2 5377   2.787   6.971   0.483 -1.8265  0.2961 -0.8698
 1819TIP3   OH2 5378   8.353   2.266   6.977 -0.2244 -0.4231 -0.1398
 1819TIP3    H1 5379   8.270   2.279   7.024 -0.5463 -0.3875 -0.7104
 1819TIP3    H2 5380   8.394   2.353   6.978  0.6962 -0.8512  1.7895
 1820TIP3   OH2 5381   7.970   1.984   5.558 -0.5547 -0.3461 -0.4786
 1820TIP3    H1 5382   7.886   2.020   5.529  0.4996  2.0560 -0.6729
 1820TIP3    H2 5383   7.998   1.927   5.487 -2.3493 -1.7461 -0.0968
 1821TIP3   OH2 5384   1.872   7.122   1.141 -0.3626 -0.8376  0.2936
 1821TIP3    H1 5385   1.910   7.188   1.199  0.7828 -2.4976  1.5136
 1821TIP3    H2 5386   1.831   7.059   1.201 -0.5427 -1.7704 -0.7929
 1822TIP3   OH2 5387   0.753   3.042   6.626  0.2637  0.3742 -0.5761
 1822TIP3    H1 5388   0.849   3.038   6.623  0.2228 -1.1392 -0.5176
 1822TIP3    H2 5389   0.725   3.008   6.541 -0.2321 -0.9110  0.0785
 1823TIP3   OH2 5390   0.063   3.153   6.707  0.3258  0.7781  0.4436
 1823TIP3    H1 5391   0.068   3.098   6.785  0.3645 -0.0154 -0.1142
 1823TIP3    H2 5392   0.026   3.236   6.739  0.8423  0.6495  1.3962
 1824TIP3   OH2 5393   3.820   6.706   3.201  0.4053 -0.2379  0.1966
 1824TIP3    H1 5394   3.823   6.613   3.223  1.1066 -0.8171 -2.1690
 1824TIP3    H2 5395   3.898   6.721   3.147 -1.0530  1.1073 -1.6248
 1825TIP3   OH2 5396   3.261   8.148   1.649 -0.4720 -0.4187 -0.1924
 1825TIP3    H1 5397   3.236   8.134   1.740 -0.9401  0.3918 -0.1863
 1825TIP3    H2 5398   3.261   8.244   1.639  2.2914 -0.3993 -0.2891
 1826TIP3   OH2 5399   4.109   7.741   2.062 -0.0027  0.4337  0.1287
 1826TIP3    H1 5400   4.193   7.780   2.040  0.0601  1.4424  2.0218
 1826TIP3    H2 5401   4.124   7.647   2.058  0.7581  0.5948 -1.1662
 1827TIP3   OH2 5402   1.943   5.897   0.195 -0.3499  0.1327 -0.1189
 1827TIP3    H1 5403   1.905   5.985   0.206 -0.1626  0.3322 -0.9760
 1827TIP3    H2 5404   2.035   5.907   0.220 -0.1017  0.4107 -1.1040
 1828TIP3   OH2 5405   4.697   7.510   1.717  0.0760 -0.6246 -0.5723
 1828TIP3    H1 5406   4.710   7.531   1.809  0.1962 -0.4597 -0.6263
 1828TIP3    H2 5407   4.759   7.439   1.699  2.3546  1.4992 -1.3330
 1829TIP3   OH2 5408   1.008   7.305   0.447  0.0921 -0.4661 -0.0884
 1829TIP3    H1 5409   1.103   7.315   0.455  0.2749 -2.7483  0.9037
 1829TIP3    H2 5410   0.990   7.316   0.354  1.2132  0.7128 -0.1891
 1830TIP3   OH2 5411   7.840   3.661   6.560 -0.4000  0.0464  0.5611
 1830TIP3    H1 5412   7.910   3.690   6.501 -0.3116 -3.3128 -1.1152
 1830TIP3    H2 5413   7.766   3.644   6.502 -1.0943 -0.9290  1.7078
 1831TIP3   OH2 5414   0.631   3.958   6.153  0.3129 -0.7743  0.6142
 1831TIP3    H1 5415   0.577   4.030   6.184  0.5185 -1.0465  1.6363
 1831TIP3    H2 5416   0.715   3.997   6.132  0.2626 -0.6299  0.6835
 1832TIP3   OH2 5417   3.554   5.126   2.267 -0.5235 -0.0241  0.0470
 1832TIP3    H1 5418   3.610   5.064   2.221 -0.9369 -1.1492  1.0317
 1832TIP3    H2 5419   3.614   5.178   2.319 -0.3361 -0.8954  0.7119
 1833TIP3   OH2 5420   0.451   1.693   6.488 -0.3192  0.2539 -0.4239
 1833TIP3    H1 5421   0.433   1.607   6.527 -0.1141  1.0558  1.4936
 1833TIP3    H2 5422   0.389   1.699   6.415 -2.2976 -0.3716  1.1445
 1834TIP3   OH2 5423   4.030   6.487   0.683 -0.7284 -0.5129 -0.3352
 1834TIP3    H1 5424   4.114   6.496   0.728 -1.4891  1.3708  0.7515
 1834TIP3    H2 5425   3.999   6.400   0.707  1.1404 -1.4292 -1.1689
 1835TIP3   OH2 5426   7.257   0.524   6.772  0.1972 -0.0794  0.1410
 1835TIP3    H1 5427   7.278   0.500   6.682 -1.7927 -0.6416 -0.1966
 1835TIP3    H2 5428   7.258   0.441   6.820 -2.7883 -0.4127 -0.2348
 1836TIP3   OH2 5429   1.475   7.156   0.768 -0.0614  0.8610 -0.2108
 1836TIP3    H1 5430   1.454   7.249   0.763  0.6476  1.0430  0.1018
 1836TIP3    H2 5431   1.566   7.154   0.799 -0.3719  0.0528  0.6790
 1837TIP3   OH2 5432   2.470   7.548   2.751 -0.2942 -0.0666  0.2025
 1837TIP3    H1 5433   2.526   7.481   2.791  0.0550 -0.3157 -0.6894
 1837TIP3    H2 5434   2.478   7.624   2.809 -0.4356 -0.6887  1.0474
 1838TIP3   OH2 5435   6.647   3.382   6.459 -0.0581  0.2125  0.7405
 1838TIP3    H1 5436   6.723   3.332   6.487  0.9418  0.6929 -1.0194
 1838TIP3    H2 5437   6.601   3.324   6.397  0.5744  1.0611 -0.5572
 1839TIP3   OH2 5438   1.665   3.812   1.501 -0.1469  0.3907  0.4033
 1839TIP3    H1 5439   1.583   3.861   1.501  0.9188  2.2406  1.4217
 1839TIP3    H2 5440   1.726   3.868   1.452  0.6612 -0.6735  0.1813
 1840TIP3   OH2 5441   1.230   6.647   0.039 -0.1609  0.0041 -0.0274
 1840TIP3    H1 5442   1.298   6.686  -0.017 -0.8538  1.0874 -0.1428
 1840TIP3    H2 5443   1.245   6.686   0.125 -0.6321  0.2485 -0.0557
 1841TIP3   OH2 5444   6.256   0.996   1.292 -0.4504 -0.0426 -0.5550
 1841TIP3    H1 5445   6.316   1.054   1.244  0.8607  0.9679  2.2316
 1841TIP3    H2 5446   6.276   0.908   1.260  1.1538  0.5038 -1.0727
 1842TIP3   OH2 5447   2.284   7.453   0.103 -0.1436 -0.5129 -0.1826
 1842TIP3    H1 5448   2.205   7.500   0.076  1.0311  0.5996 -1.7673
 1842TIP3    H2 5449   2.315   7.410   0.023  0.3021 -1.7878  0.6557
 1843TIP3   OH2 5450   8.619   3.857   5.685 -0.7972  0.2585 -0.0997
 1843TIP3    H1 5451   8.616   3.939   5.735  0.3305 -0.4692  1.2266
 1843TIP3    H2 5452   8.535   3.815   5.702  0.5219 -1.1789  3.3921
 1844TIP3   OH2 5453   0.586   1.607   4.971  0.2532 -0.1124  0.3301
 1844TIP3    H1 5454   0.612   1.599   4.880  0.0457  0.5272  0.2070
 1844TIP3    H2 5455   0.518   1.542   4.984 -0.1352  0.2050 -0.1326
 1845TIP3   OH2 5456   1.566   8.064   0.603 -0.1501  0.1257  0.1543
 1845TIP3    H1 5457   1.620   8.142   0.611 -0.2167  0.2222 -0.3118
 1845TIP3    H2 5458   1.522   8.074   0.519  0.8651 -1.0596 -0.5312
 1846TIP3   OH2 5459   3.807   5.687   1.170  0.5847  0.1771 -0.0038
 1846TIP3    H1 5460   3.809   5.648   1.257 -2.1571  2.7976  1.3088
 1846TIP3    H2 5461   3.875   5.754   1.172 -1.2763  2.0896  1.1056
 1847TIP3   OH2 5462   0.698   0.858   4.347  0.2936 -0.2243 -0.1376
 1847TIP3    H1 5463   0.749   0.935   4.320 -0.1463  0.5457  1.1675
 1847TIP3    H2 5464   0.627   0.894   4.401 -0.8174 -1.4167 -0.7880
 1848TIP3   OH2 5465   2.190   7.211   0.831 -0.2537 -0.2029 -0.0586
 1848TIP3    H1 5466   2.167   7.219   0.739 -2.5575  0.2068  0.5190
 1848TIP3    H2 5467   2.244   7.288   0.849  0.9005 -0.7094 -1.2281
 1849TIP3   OH2 5468   0.374   2.873   5.418  0.4284  0.3470  0.5553
 1849TIP3    H1 5469   0.376   2.955   5.467  1.5663  1.9203 -2.0086
 1849TIP3    H2 5470   0.293   2.878   5.367  0.0579 -0.5483  1.0347
 1850TIP3   OH2 5471   1.323   5.001   6.305 -0.0828  0.2746  0.5353
 1850TIP3    H1 5472   1.270   4.969   6.232  0.0020 -0.4363  0.7861
 1850TIP3    H2 5473   1.263   5.055   6.356 -0.1370  0.7930 -0.0679
 1851TIP3   OH2 5474   1.339   2.122   7.183  0.6430 -1.5730 -0.6159
 1851TIP3    H1 5475   1.309   2.101   7.271 -1.9309  2.1490 -0.4699
 1851TIP3    H2 5476   1.289   2.064   7.126  0.6049 -2.3776  0.2139
 1852TIP3   OH2 5477   2.875   6.434   0.874  0.1767  0.2443 -0.4283
 1852TIP3    H1 5478   2.887   6.458   0.782  0.3864 -0.0399 -0.4782
 1852TIP3    H2 5479   2.963   6.441   0.911  0.1289  0.1524 -0.2987
 1853TIP3   OH2 5480   3.858   6.841   0.066 -0.1500 -0.1959  0.1311
 1853TIP3    H1 5481   3.913   6.775   0.107  0.0960 -0.5925 -0.8367
 1853TIP3    H2 5482   3.912   6.921   0.065 -0.2099 -0.1459  0.7014
 1854TIP3   OH2 5483   0.386   2.446   5.972  0.2542  0.5017 -0.3881
 1854TIP3    H1 5484   0.447   2.502   5.923 -0.3234  1.6708  0.1848
 1854TIP3    H2 5485   0.300   2.469   5.938  0.0519 -0.4059 -0.4836
 1855TIP3   OH2 5486   2.740   6.782   0.748 -0.1988  0.3828  0.1982
 1855TIP3    H1 5487   2.789   6.804   0.827  1.3285 -1.8451 -0.0915
 1855TIP3    H2 5488   2.665   6.732   0.780  2.0055 -3.1149  0.0624
 1856TIP3   OH2 5489   8.699   1.163   2.449 -0.3955  0.3043  0.2713
 1856TIP3    H1 5490   8.715   1.240   2.393  0.2654 -0.5523 -0.7340
 1856TIP3    H2 5491   8.657   1.100   2.391 -0.9547 -0.0851  1.1022
 1857TIP3   OH2 5492   2.860   3.532   0.812 -0.1930  0.1821 -0.2889
 1857TIP3    H1 5493   2.795   3.567   0.751  0.1339 -1.6925 -1.7944
 1857TIP3    H2 5494   2.944   3.558   0.775  0.0187 -1.2545 -0.8492
 1858TIP3   OH2 5495   2.006   2.232   6.412  0.0756 -0.0803 -0.2166
 1858TIP3    H1 5496   1.951   2.254   6.487 -0.9867  0.3023 -1.0899
 1858TIP3    H2 5497   2.084   2.285   6.422  1.1927 -2.0876  2.1000
 1859TIP3   OH2 5498   2.825   1.743   7.085  0.2996 -0.1347 -0.5696
 1859TIP3    H1 5499   2.742   1.698   7.101  1.0318 -2.0615 -2.0341
 1859TIP3    H2 5500   2.808   1.796   7.007  0.8354 -1.6605 -1.7533
 1860TIP3   OH2 5501   4.695   7.926   6.835 -0.1759 -0.3500  0.0081
 1860TIP3    H1 5502   4.701   7.834   6.860 -1.3089 -0.7047 -0.9992
 1860TIP3    H2 5503   4.786   7.954   6.824  0.2912 -0.6730  2.7199
 1861TIP3   OH2 5504   5.923   7.724   4.596 -0.6935  0.2364  0.6534
 1861TIP3    H1 5505   5.966   7.809   4.583 -1.0561  0.3137 -0.0465
 1861TIP3    H2 5506   5.955   7.694   4.682  0.1392  0.6571  0.4968
 1862TIP3   OH2 5507   6.772   8.332   3.519  0.3320 -0.1382  0.0650
 1862TIP3    H1 5508   6.696   8.379   3.553 -0.3131 -0.3258 -1.1024
 1862TIP3    H2 5509   6.737   8.250   3.485  1.2265 -0.7550  0.6188
 1863TIP3   OH2 5510   0.677   0.860   4.966  0.1447 -0.4286  0.1625
 1863TIP3    H1 5511   0.598   0.820   4.929  1.0615 -1.6253 -0.5197
 1863TIP3    H2 5512   0.647   0.945   5.000 -1.2922 -0.5789 -0.6864
 1864TIP3   OH2 5513   8.594   0.306   4.473  0.9107  0.1366 -0.2562
 1864TIP3    H1 5514   8.601   0.328   4.380  1.2836  1.0392 -0.0220
 1864TIP3    H2 5515   8.501   0.286   4.486  0.5537  1.5805 -0.4873
 1865TIP3   OH2 5516   2.190   0.423   3.038 -0.0082  0.7521 -0.2384
 1865TIP3    H1 5517   2.135   0.486   2.992 -1.2964  0.9974  1.5513
 1865TIP3    H2 5518   2.189   0.452   3.129  3.6081  1.0926 -0.2290
 1866TIP3   OH2 5519   5.062   7.104   3.403  0.2539  0.0638  0.9267
 1866TIP3    H1 5520   4.980   7.151   3.423 -0.0991 -0.1062 -0.0896
 1866TIP3    H2 5521   5.080   7.052   3.482 -0.2334  0.6500  1.4311
 1867TIP3   OH2 5522   2.369   1.387   4.317 -0.6360  0.7173 -0.3325
 1867TIP3    H1 5523   2.306   1.451   4.349 -1.2114  0.1620 -0.3390
 1867TIP3    H2 5524   2.344   1.305   4.360  0.8599  0.7632  0.6507
 1868TIP3   OH2 5525   8.173   0.095   4.842  0.5012  0.1286  0.0837
 1868TIP3    H1 5526   8.263   0.062   4.850  0.1664 -0.6516  0.6798
 1868TIP3    H2 5527   8.180   0.189   4.862  1.1711  0.0668  0.1612
 1869TIP3   OH2 5528   7.566   7.639   3.710 -0.0737  0.0912 -0.4648
 1869TIP3    H1 5529   7.498   7.644   3.643  0.2355 -1.3485 -0.8969
 1869TIP3    H2 5530   7.554   7.553   3.750 -0.8423  1.2722  1.9643
 1870TIP3   OH2 5531   8.208   0.775   3.198  0.1895 -0.2693 -0.0696
 1870TIP3    H1 5532   8.115   0.753   3.196 -0.4916  2.2409  1.3410
 1870TIP3    H2 5533   8.235   0.759   3.289  1.0386 -0.6948 -0.3963
 1871TIP3   OH2 5534   0.735   6.422   2.764  0.3900  0.0309 -0.2972
 1871TIP3    H1 5535   0.671   6.485   2.729  0.5403  0.7862  0.7598
 1871TIP3    H2 5536   0.819   6.452   2.729  0.4219  0.2430 -0.0422
 1872TIP3   OH2 5537   6.275   7.877   5.691 -0.3819 -0.3314  0.7122
 1872TIP3    H1 5538   6.267   7.786   5.721  2.5094 -0.7554  0.3495
 1872TIP3    H2 5539   6.353   7.877   5.635 -0.8694  2.1963 -0.0145
 1873TIP3   OH2 5540   2.535   1.564   5.472  0.6282  0.0069  0.0406
 1873TIP3    H1 5541   2.490   1.480   5.485 -0.2259  0.3461 -0.6929
 1873TIP3    H2 5542   2.482   1.627   5.520  0.8160  0.2689 -0.0972
 1874TIP3   OH2 5543   2.234   7.134   6.575  0.0658  0.2559 -0.0048
 1874TIP3    H1 5544   2.314   7.083   6.558  0.9268  2.0930 -1.6154
 1874TIP3    H2 5545   2.264   7.224   6.582 -1.7250  0.8148  0.7363
 1875TIP3   OH2 5546   2.173   1.418   3.301  0.1826 -0.2590 -0.1712
 1875TIP3    H1 5547   2.204   1.352   3.239  1.7049 -0.0557  0.3438
 1875TIP3    H2 5548   2.203   1.386   3.386  1.4521  1.3575  0.0266
 1876TIP3   OH2 5549   0.160   0.927   3.642  0.0068  0.5608 -0.1247
 1876TIP3    H1 5550   0.135   0.903   3.553 -0.5264 -1.6624  0.5932
 1876TIP3    H2 5551   0.094   0.991   3.669 -0.7604  0.0463 -0.7594
 1877TIP3   OH2 5552   5.910   8.005   4.192 -0.5714 -0.3894 -0.2252
 1877TIP3    H1 5553   5.968   7.934   4.220 -1.2110 -0.2049  1.6216
 1877TIP3    H2 5554   5.824   7.983   4.229 -0.5401  1.8888  1.3513
 1878TIP3   OH2 5555   8.741   1.825   1.876 -0.8593 -0.4016  0.0094
 1878TIP3    H1 5556   8.782   1.900   1.833 -1.2346  0.4540  1.1245
 1878TIP3    H2 5557   8.771   1.749   1.825  0.0338  0.4382 -0.7424
 1879TIP3   OH2 5558   5.830   6.928   3.065  0.3258  0.5477 -0.0979
 1879TIP3    H1 5559   5.818   6.840   3.101 -1.9739 -0.4271 -3.0938
 1879TIP3    H2 5560   5.846   6.983   3.142  2.9316 -2.5966  1.7702
 1880TIP3   OH2 5561   2.104   0.251   3.757 -0.0172 -0.1101 -0.1164
 1880TIP3    H1 5562   2.024   0.199   3.765  1.2104 -2.1533 -0.7383
 1880TIP3    H2 5563   2.160   0.219   3.828  1.2483 -0.5629 -1.3106
 1881TIP3   OH2 5564   0.294   0.467   3.591  0.4560 -0.4330  0.4843
 1881TIP3    H1 5565   0.382   0.472   3.626  0.5446 -0.3865  0.2575
 1881TIP3    H2 5566   0.302   0.498   3.501  0.4173 -1.4832  0.1133
 1882TIP3   OH2 5567   1.134   0.539   4.767 -0.6179 -0.5164 -0.2225
 1882TIP3    H1 5568   1.083   0.598   4.822 -1.5333 -0.0963 -1.5055
 1882TIP3    H2 5569   1.223   0.542   4.804 -1.3142 -0.6330  1.5265
 1883TIP3   OH2 5570   1.136   2.552   5.185 -0.4807 -0.2205  0.3524
 1883TIP3    H1 5571   1.138   2.583   5.276  0.6637 -1.1034  0.6471
 1883TIP3    H2 5572   1.044   2.538   5.166 -0.8053  0.9036  1.0561
 1884TIP3   OH2 5573   7.945   5.748   4.040 -0.2774  0.3283  0.1799
 1884TIP3    H1 5574   7.856   5.715   4.046 -0.7874  1.2632 -1.7544
 1884TIP3    H2 5575   7.970   5.768   4.130 -2.3590  0.9095  0.6499
 1885TIP3   OH2 5576   5.983   7.660   4.857 -0.8276 -0.2905  0.2707
 1885TIP3    H1 5577   6.048   7.648   4.926 -1.7864 -0.5313  1.1434
 1885TIP3    H2 5578   5.968   7.755   4.854  1.6635  0.0907 -1.9076
 1886TIP3   OH2 5579   1.629   2.428   3.046  0.5167 -0.0404  0.0770
 1886TIP3    H1 5580   1.624   2.495   2.978  0.7603 -0.0827  0.0184
 1886TIP3    H2 5581   1.652   2.348   2.999 -0.8199 -0.3986 -0.0076
 1887TIP3   OH2 5582   5.859   8.400   3.548  0.0208  0.2042  0.4464
 1887TIP3    H1 5583   5.859   8.316   3.593 -0.6495 -0.1061 -0.1318
 1887TIP3    H2 5584   5.787   8.449   3.587  0.7928  0.7555  1.2175
 1888TIP3   OH2 5585   7.945   1.478   6.123  0.2716  0.6947  0.3302
 1888TIP3    H1 5586   7.885   1.407   6.101  0.0682  0.5436  1.3335
 1888TIP3    H2 5587   7.918   1.505   6.211  0.1582  2.2225 -0.1718
 1889TIP3   OH2 5588   1.025   8.086   3.906  0.2758  0.5181  0.6436
 1889TIP3    H1 5589   1.005   8.050   3.820 -1.2136 -1.1839  1.6472
 1889TIP3    H2 5590   1.047   8.009   3.959  1.4298  1.5644  1.7036
 1890TIP3   OH2 5591   2.302   0.998   3.985 -0.6957 -0.0784 -0.2743
 1890TIP3    H1 5592   2.254   1.035   4.059  0.1533  0.2989  0.0931
 1890TIP3    H2 5593   2.253   0.920   3.961 -1.4819  0.2985  0.1072
 1891TIP3   OH2 5594   6.703   8.322   2.676  0.2677 -0.9321 -0.3567
 1891TIP3    H1 5595   6.618   8.353   2.708  1.0149 -1.1055  1.9270
 1891TIP3    H2 5596   6.684   8.239   2.633 -0.7766 -0.7500 -0.2499
 1892TIP3   OH2 5597   5.085   0.478   2.749 -0.1787 -0.3630  0.3509
 1892TIP3    H1 5598   5.040   0.399   2.719  0.2282  0.0095 -1.3021
 1892TIP3    H2 5599   5.018   0.528   2.796 -1.2026 -0.3758 -1.0501
 1893TIP3   OH2 5600   7.275   8.127   3.539  0.1989 -0.1017 -0.3020
 1893TIP3    H1 5601   7.246   8.218   3.532 -0.2899  0.0064  2.6991
 1893TIP3    H2 5602   7.368   8.133   3.561  0.3397 -0.3523 -0.8174
 1894TIP3   OH2 5603   1.434   0.972   2.396  0.6450 -0.5946  0.6459
 1894TIP3    H1 5604   1.409   1.003   2.483 -0.2676 -1.7445  0.7980
 1894TIP3    H2 5605   1.470   1.050   2.353 -1.9448  0.8158  0.8950
 1895TIP3   OH2 5606   0.982   7.781   4.413  0.3355 -0.1892  0.3798
 1895TIP3    H1 5607   0.985   7.719   4.340  0.5525  0.9304 -0.5865
 1895TIP3    H2 5608   1.074   7.803   4.429  0.2082  0.5150  0.1574
 1896TIP3   OH2 5609   3.023   0.168   2.028 -0.1822  0.1841  0.1366
 1896TIP3    H1 5610   3.038   0.261   2.013  1.5750 -0.1914 -0.5493
 1896TIP3    H2 5611   3.072   0.148   2.108 -0.6587 -0.1181  0.3555
 1897TIP3   OH2 5612   1.092   5.986   3.739  0.1714 -0.2544  0.2192
 1897TIP3    H1 5613   1.098   6.053   3.807 -0.3141 -1.2202  1.2289
 1897TIP3    H2 5614   0.999   5.983   3.717  0.0482 -1.2898  0.8819
 1898TIP3   OH2 5615   8.716   7.818   1.420 -0.1327 -0.2265 -0.1810
 1898TIP3    H1 5616   8.763   7.804   1.338  1.2123 -1.3741  0.7606
 1898TIP3    H2 5617   8.782   7.853   1.480 -1.2256  1.0897  0.2787
 1899TIP3   OH2 5618   1.041   0.505   1.867 -0.2213  0.4321  0.2435
 1899TIP3    H1 5619   1.050   0.552   1.950 -2.0092  0.7067  0.3102
 1899TIP3    H2 5620   1.007   0.419   1.891 -1.1076  0.6467 -0.2277
 1900TIP3   OH2 5621   2.580   0.056   4.406  0.1389  0.6417 -0.0046
 1900TIP3    H1 5622   2.519   0.029   4.337  0.9940 -1.0460 -0.1049
 1900TIP3    H2 5623   2.523   0.079   4.479 -0.6578 -0.4152 -0.2688
 1901TIP3   OH2 5624   8.077   8.195   3.619 -0.0706  0.4701  0.0811
 1901TIP3    H1 5625   8.123   8.117   3.650  0.3299  0.2644 -1.0228
 1901TIP3    H2 5626   8.082   8.256   3.692 -0.6952 -0.6692  1.0854
 1902TIP3   OH2 5627   6.290   7.796   3.974 -0.2674 -0.2267  0.7140
 1902TIP3    H1 5628   6.210   7.847   3.987  0.4197  1.5264 -1.6530
 1902TIP3    H2 5629   6.360   7.862   3.967  0.6276 -1.4085 -2.4804
 1903TIP3   OH2 5630   3.211   1.487   5.140  0.2937  1.1450  0.2307
 1903TIP3    H1 5631   3.145   1.533   5.191 -1.2371 -0.5531 -0.1712
 1903TIP3    H2 5632   3.248   1.423   5.201  0.7051  1.2566  0.1021
 1904TIP3   OH2 5633   3.955   1.148   4.697  0.0440  0.2834  0.0771
 1904TIP3    H1 5634   3.862   1.166   4.680  0.1405 -0.8551 -1.7670
 1904TIP3    H2 5635   3.997   1.234   4.695 -0.9384  0.7853  0.7233
 1905TIP3   OH2 5636   6.889   8.109   2.340  0.8794 -0.1992  0.0097
 1905TIP3    H1 5637   6.836   8.032   2.365  2.3583 -0.7434  1.6361
 1905TIP3    H2 5638   6.923   8.087   2.253 -0.3740 -0.4813 -0.4229
 1906TIP3   OH2 5639   4.770   0.926   6.447 -0.3727  0.0997 -0.0391
 1906TIP3    H1 5640   4.814   0.991   6.502 -0.6777  0.8601 -0.6817
 1906TIP3    H2 5641   4.802   0.943   6.359  0.9973 -1.8700  0.0503
 1907TIP3   OH2 5642   8.030   6.046   2.108 -0.7043  0.6830 -0.0034
 1907TIP3    H1 5643   8.053   5.968   2.058 -1.1735  0.0273  0.7936
 1907TIP3    H2 5644   8.111   6.069   2.154 -0.6489  0.4857  0.0011
 1908TIP3   OH2 5645   2.833   1.817   4.651  0.3493  0.3842 -0.3883
 1908TIP3    H1 5646   2.928   1.811   4.658  0.2049 -3.7007 -0.6958
 1908TIP3    H2 5647   2.816   1.823   4.557  0.2840  0.6254 -0.3606
 1909TIP3   OH2 5648   2.469   1.111   4.841 -0.2513 -0.3617  0.6145
 1909TIP3    H1 5649   2.390   1.138   4.794 -0.9872 -1.1773  1.3691
 1909TIP3    H2 5650   2.443   1.109   4.933  1.2965  1.6514  1.1248
 1910TIP3   OH2 5651   8.839   7.926   2.713  0.3320  0.4080  0.1095
 1910TIP3    H1 5652   8.824   8.008   2.666 -0.0971  0.2620 -0.0104
 1910TIP3    H2 5653   8.755   7.906   2.753  0.0188 -0.7313 -1.0638
 1911TIP3   OH2 5654   7.676   7.084   3.701  0.0767  0.5714 -0.3768
 1911TIP3    H1 5655   7.628   7.003   3.689  1.6651 -0.6483  1.3027
 1911TIP3    H2 5656   7.762   7.068   3.663  1.1914  0.6233  2.0023
 1912TIP3   OH2 5657   1.742   7.855   4.790 -0.1691  0.5112 -0.2345
 1912TIP3    H1 5658   1.709   7.794   4.855 -2.0345 -0.8395 -2.3854
 1912TIP3    H2 5659   1.827   7.884   4.825 -0.5675 -1.0864  2.1649
 1913TIP3   OH2 5660   7.127   7.550   2.628  0.4913  0.5224 -0.1356
 1913TIP3    H1 5661   7.195   7.611   2.658  0.8826  1.2724 -2.4780
 1913TIP3    H2 5662   7.172   7.466   2.623  0.3720  0.3363  1.4971
 1914TIP3   OH2 5663   1.613   0.105   0.940 -0.3104 -0.0125 -0.5136
 1914TIP3    H1 5664   1.696   0.138   0.975  1.0561 -1.6861 -2.1104
 1914TIP3    H2 5665   1.561   0.184   0.925 -0.2016  0.8990  3.3280
 1915TIP3   OH2 5666   0.753   1.533   4.267 -0.5336  0.3255 -0.1075
 1915TIP3    H1 5667   0.820   1.563   4.207 -0.9384  1.4557 -0.0050
 1915TIP3    H2 5668   0.671   1.541   4.218 -0.8293  0.9500  0.4783
 1916TIP3   OH2 5669   7.379   6.892   2.994  0.0532  0.3620  0.0302
 1916TIP3    H1 5670   7.470   6.878   3.022  0.6615  0.5579 -1.7781
 1916TIP3    H2 5671   7.352   6.807   2.959 -1.8802 -0.9011  4.2922
 1917TIP3   OH2 5672   0.307   6.067   5.625  0.0555 -0.5591 -0.5455
 1917TIP3    H1 5673   0.360   6.087   5.702 -3.2878 -1.1499  2.0062
 1917TIP3    H2 5674   0.275   6.152   5.595 -1.0769 -0.5575  0.6015
 1918TIP3   OH2 5675   8.251   7.687   2.390 -0.0894 -0.0790  0.1592
 1918TIP3    H1 5676   8.184   7.625   2.361 -0.5739  0.4016  0.2410
 1918TIP3    H2 5677   8.297   7.712   2.310  0.5927 -1.0935  0.2141
 1919TIP3   OH2 5678   1.266   0.797   3.921 -0.5541  0.0590 -0.1386
 1919TIP3    H1 5679   1.184   0.762   3.956  0.6771 -1.5431  1.2056
 1919TIP3    H2 5680   1.292   0.864   3.985  0.3992 -1.1061  0.7097
 1920TIP3   OH2 5681   4.379   0.699   3.853  0.0757  0.2615  0.1942
 1920TIP3    H1 5682   4.320   0.773   3.864 -0.9409 -0.6349  0.9767
 1920TIP3    H2 5683   4.333   0.641   3.792 -0.1072 -0.6680  1.1849
 1921TIP3   OH2 5684   0.620   6.343   5.552 -0.0800  0.1469 -0.1707
 1921TIP3    H1 5685   0.571   6.264   5.527 -1.8262  1.2012 -0.1329
 1921TIP3    H2 5686   0.632   6.334   5.647 -0.8755  0.2397 -0.0538
 1922TIP3   OH2 5687   0.188   0.073   4.506  0.1949  0.0069  0.2888
 1922TIP3    H1 5688   0.145   0.156   4.489 -0.3304 -0.5945 -1.5324
 1922TIP3    H2 5689   0.159   0.047   4.593 -1.0484  0.8689  0.1426
 1923TIP3   OH2 5690   3.048   8.257   6.488  0.0051  0.1092 -0.6549
 1923TIP3    H1 5691   3.118   8.266   6.423  1.1889 -0.9475  0.4245
 1923TIP3    H2 5692   3.094   8.253   6.572 -1.5043  1.6099  0.2755
 1924TIP3   OH2 5693   2.994   1.990   5.260  0.1081  0.1303 -0.1531
 1924TIP3    H1 5694   2.941   2.015   5.184  1.5910 -0.3909 -1.3662
 1924TIP3    H2 5695   2.939   2.012   5.335 -0.3357  3.1286 -1.2907
 1925TIP3   OH2 5696   2.163   0.702   2.890  0.4075  0.0916  0.1940
 1925TIP3    H1 5697   2.255   0.705   2.864  0.2365  0.7759 -0.3608
 1925TIP3    H2 5698   2.115   0.692   2.807 -0.0362  0.0612  0.4508
 1926TIP3   OH2 5699   2.540   0.295   4.254  0.1510 -0.2780 -0.0944
 1926TIP3    H1 5700   2.573   0.231   4.317 -0.8355 -0.0954  0.6124
 1926TIP3    H2 5701   2.582   0.271   4.172  1.4047 -0.5601  0.6091
 1927TIP3   OH2 5702   2.518   0.724   3.936  0.1777 -0.2549 -0.3808
 1927TIP3    H1 5703   2.436   0.725   3.986 -0.1287 -0.6268 -0.8733
 1927TIP3    H2 5704   2.520   0.810   3.893 -1.1332 -1.1132 -2.2489
 1928TIP3   OH2 5705   3.221   1.645   5.628  0.0449 -0.1968 -0.0040
 1928TIP3    H1 5706   3.140   1.630   5.580 -0.9230  3.0198  0.5092
 1928TIP3    H2 5707   3.214   1.591   5.706 -1.7965  0.3483  0.2208
 1929TIP3   OH2 5708   3.296   0.089   3.176 -0.1110 -0.0145  0.2103
 1929TIP3    H1 5709   3.296   0.180   3.206 -1.3701 -0.4689  1.6469
 1929TIP3    H2 5710   3.320   0.095   3.084 -1.0804  1.8556  0.0399
 1930TIP3   OH2 5711   7.349   6.442   3.740 -0.9372 -0.0331 -0.1808
 1930TIP3    H1 5712   7.274   6.384   3.756 -2.0707  1.2498 -0.7364
 1930TIP3    H2 5713   7.368   6.430   3.648 -0.8987  0.1589 -0.1965
 1931TIP3   OH2 5714   7.844   8.332   1.624  0.7127 -0.5846 -0.7275
 1931TIP3    H1 5715   7.934   8.364   1.625  0.5962 -0.2716  0.9866
 1931TIP3    H2 5716   7.816   8.334   1.716 -1.3840  0.2952 -1.3500
 1932TIP3   OH2 5717   6.157   8.299   4.086  0.2628 -0.0204  0.1693
 1932TIP3    H1 5718   6.213   8.339   4.020 -0.0461  0.1217 -0.0074
 1932TIP3    H2 5719   6.077   8.351   4.084  0.9959  1.2131  2.0462
 1933TIP3   OH2 5720   1.798   0.148   2.028  0.0512 -0.1830  0.3238
 1933TIP3    H1 5721   1.725   0.207   2.044  0.5632  0.2492  1.0534
 1933TIP3    H2 5722   1.838   0.180   1.947 -0.3308 -0.1879  0.1330
 1934TIP3   OH2 5723   2.193   7.145   6.273  0.2068  0.0920 -0.0737
 1934TIP3    H1 5724   2.179   7.240   6.266 -1.1545 -0.1773 -1.3618
 1934TIP3    H2 5725   2.199   7.129   6.367 -1.1484  1.2578  0.2394
 1935TIP3   OH2 5726   8.671   6.483   4.235 -0.4191  0.4923 -0.5670
 1935TIP3    H1 5727   8.641   6.471   4.145 -0.6458  0.5377 -0.4981
 1935TIP3    H2 5728   8.655   6.398   4.277  1.6117 -0.1813 -1.1225
 1936TIP3   OH2 5729   3.114   0.721   3.971 -0.5310 -0.5453  0.6605
 1936TIP3    H1 5730   3.128   0.626   3.964 -1.1543 -0.6425  0.7195
 1936TIP3    H2 5731   3.040   0.739   3.913 -1.1423 -0.2685  1.5158
 1937TIP3   OH2 5732   5.673   0.961   5.210  0.2324 -0.5272  0.0770
 1937TIP3    H1 5733   5.657   1.028   5.277 -0.4990 -0.9281  0.3090
 1937TIP3    H2 5734   5.694   0.882   5.259 -2.7785 -1.4802 -0.0632
 1938TIP3   OH2 5735   0.773   0.691   4.123 -0.1960 -0.1582  0.3391
 1938TIP3    H1 5736   0.765   0.688   4.219 -0.2246  0.5326  0.3561
 1938TIP3    H2 5737   0.704   0.632   4.092 -1.0665  0.6608  0.7042
 1939TIP3   OH2 5738   4.215   0.528   1.921 -0.3025  0.3774  0.0683
 1939TIP3    H1 5739   4.162   0.603   1.894  0.7296  0.4344 -1.9092
 1939TIP3    H2 5740   4.172   0.453   1.881  0.2896  0.2612 -0.3613
 1940TIP3   OH2 5741   1.946   0.272   3.502  0.3269 -0.3638  0.2813
 1940TIP3    H1 5742   1.898   0.288   3.584  0.0194  0.0480  0.0237
 1940TIP3    H2 5743   1.987   0.187   3.515  1.4387  0.3232  1.4226
 1941TIP3   OH2 5744   3.207   0.066   3.448 -0.2276 -0.0010  0.4035
 1941TIP3    H1 5745   3.299   0.093   3.442 -0.8558  2.1565  0.0192
 1941TIP3    H2 5746   3.185   0.036   3.360 -0.2666  0.7744  0.1447
 1942TIP3   OH2 5747   0.081   7.085   2.907  0.4479 -0.8773  0.2696
 1942TIP3    H1 5748   0.174   7.072   2.890 -0.0945 -3.5614 -0.8321
 1942TIP3    H2 5749   0.059   7.165   2.859  2.6215  1.0918  2.4035
 1943TIP3   OH2 5750   0.769   8.348   5.073 -0.4272 -0.2980 -0.1469
 1943TIP3    H1 5751   0.689   8.390   5.041  1.1434  2.0050 -1.1429
 1943TIP3    H2 5752   0.837   8.413   5.059  1.4407 -1.7960  1.7680
 1944TIP3   OH2 5753   1.465   1.274   6.620 -0.2246  0.1574 -0.0034
 1944TIP3    H1 5754   1.483   1.240   6.532  0.2532 -1.8148  0.8120
 1944TIP3    H2 5755   1.551   1.294   6.657 -0.3227 -0.2247  0.4518
 1945TIP3   OH2 5756   0.416   2.287   4.559  0.4886  0.6494 -0.6115
 1945TIP3    H1 5757   0.494   2.307   4.611 -0.8507  0.0784  1.6615
 1945TIP3    H2 5758   0.372   2.371   4.548  0.1777  0.5850  0.1531
 1946TIP3   OH2 5759   7.745   7.306   3.864 -0.0391  0.0490  0.1974
 1946TIP3    H1 5760   7.711   7.230   3.817 -1.1295  0.4946  0.2650
 1946TIP3    H2 5761   7.819   7.271   3.914 -0.7480 -1.0325  0.5047
 1947TIP3   OH2 5762   2.134   7.095   5.115 -0.1059 -0.2792 -0.3434
 1947TIP3    H1 5763   2.144   7.000   5.128 -0.8303 -0.3772 -0.4740
 1947TIP3    H2 5764   2.222   7.130   5.128  0.2656 -1.0297 -0.7646
 1948TIP3   OH2 5765   8.235   5.946   1.859  0.2589 -0.1577 -0.3345
 1948TIP3    H1 5766   8.260   5.974   1.771  0.9324  0.8683  0.1742
 1948TIP3    H2 5767   8.315   5.956   1.911 -0.8772  2.1446  1.0635
 1949TIP3   OH2 5768   1.783   7.465   5.115 -0.4335  0.5139 -0.4041
 1949TIP3    H1 5769   1.746   7.551   5.098 -0.0390  1.2610  2.2034
 1949TIP3    H2 5770   1.876   7.482   5.132  0.1727 -0.7534 -2.3331
 1950TIP3   OH2 5771   2.407   1.100   3.480  0.0940 -0.3726 -0.1777
 1950TIP3    H1 5772   2.380   1.130   3.567  1.6799  0.7676 -0.0312
 1950TIP3    H2 5773   2.328   1.103   3.427 -0.9342 -1.3210  1.3023
 1951TIP3   OH2 5774   3.894   1.684   4.361  0.0722  0.2780 -0.4982
 1951TIP3    H1 5775   3.862   1.720   4.444 -0.7141 -2.7201  0.5473
 1951TIP3    H2 5776   3.828   1.621   4.335  0.2451  1.2884 -3.5506
 1952TIP3   OH2 5777   1.037   0.597   5.120 -0.0766  0.2532  0.0170
 1952TIP3    H1 5778   1.090   0.552   5.185 -0.9360  0.4149  0.8508
 1952TIP3    H2 5779   1.093   0.667   5.086  0.8545 -0.7186 -0.4354
 1953TIP3   OH2 5780   7.847   5.777   2.867  0.4425 -0.0590 -0.0417
 1953TIP3    H1 5781   7.873   5.830   2.792  0.2682 -0.0499 -0.0955
 1953TIP3    H2 5782   7.753   5.789   2.874  0.5467  0.4437  0.5738
 1954TIP3   OH2 5783   1.760   1.126   5.137 -0.1411 -0.7968  0.3973
 1954TIP3    H1 5784   1.844   1.167   5.157 -0.1501  0.6586 -2.3347
 1954TIP3    H2 5785   1.783   1.042   5.098 -0.0317 -1.4460  1.8276
 1955TIP3   OH2 5786   2.281   3.030   3.140 -0.1264  0.3830 -0.7156
 1955TIP3    H1 5787   2.329   3.102   3.180 -0.1208 -0.3304  0.5651
 1955TIP3    H2 5788   2.331   3.009   3.061  1.6726 -0.3334  0.5893
 1956TIP3   OH2 5789   0.843   8.377   4.206  0.1647 -0.2350  0.1313
 1956TIP3    H1 5790   0.900   8.368   4.283 -0.5425  0.7187  0.7758
 1956TIP3    H2 5791   0.792   8.296   4.205  0.2485 -0.2969  0.5987
 1957TIP3   OH2 5792   1.246   1.198   6.145 -0.0669  0.1646  0.0139
 1957TIP3    H1 5793   1.238   1.225   6.237  0.4859 -2.5881  0.9472
 1957TIP3    H2 5794   1.242   1.102   6.149 -0.6561  0.0421 -2.9261
 1958TIP3   OH2 5795   2.405   1.664   4.911 -0.0635 -0.3366  0.0694
 1958TIP3    H1 5796   2.438   1.730   4.971 -0.7126 -1.3041  1.5108
 1958TIP3    H2 5797   2.464   1.590   4.922 -1.1325 -1.1057  0.7115
 1959TIP3   OH2 5798   1.448   0.656   2.687 -0.3875  1.0193  0.0502
 1959TIP3    H1 5799   1.446   0.751   2.693 -0.3197  1.1376 -1.4759
 1959TIP3    H2 5800   1.470   0.639   2.595  0.5321 -0.4608  0.5367
 1960TIP3   OH2 5801   1.166   7.985   3.427  0.2912  0.5692  0.1047
 1960TIP3    H1 5802   1.119   7.952   3.350  0.2984  0.4915  0.1341
 1960TIP3    H2 5803   1.257   7.962   3.412  0.1944 -0.0230  0.4447
 1961TIP3   OH2 5804   6.551   7.623   3.556  0.0505 -0.2233  0.1777
 1961TIP3    H1 5805   6.512   7.604   3.641  1.3045 -0.7683  0.6320
 1961TIP3    H2 5806   6.547   7.540   3.508 -1.2498  0.2386 -0.5533
 1962TIP3   OH2 5807   7.454   8.058   3.956  0.2048 -0.1111  0.0965
 1962TIP3    H1 5808   7.439   8.072   4.050 -2.0189  0.4536 -0.3042
 1962TIP3    H2 5809   7.416   7.972   3.938 -1.4567  0.7617 -0.7014
 1963TIP3   OH2 5810   4.237   0.213   4.944 -0.2390  0.7029 -0.1371
 1963TIP3    H1 5811   4.205   0.194   5.032  0.0912  0.7363 -0.0076
 1963TIP3    H2 5812   4.212   0.137   4.892  2.2003 -0.6954  0.6642
 1964TIP3   OH2 5813   0.922   7.399   3.437 -0.1419  0.7675 -0.8353
 1964TIP3    H1 5814   0.886   7.318   3.401 -1.4259  0.3809  1.2241
 1964TIP3    H2 5815   1.011   7.376   3.463 -0.3428  0.1385 -0.6925
 1965TIP3   OH2 5816   0.468   2.326   2.657  0.0105 -0.0935  0.1459
 1965TIP3    H1 5817   0.477   2.421   2.655  1.9619 -0.2822 -2.1033
 1965TIP3    H2 5818   0.376   2.310   2.637 -0.1792  1.3047 -0.0949
 1966TIP3   OH2 5819   5.973   0.026   4.650 -0.0274  0.2033 -0.0178
 1966TIP3    H1 5820   6.051   0.008   4.702 -0.6659  1.6811  1.5053
 1966TIP3    H2 5821   6.007   0.063   4.569  0.8698  1.0156  0.7097
 1967TIP3   OH2 5822   4.489   1.873   3.768 -0.1313 -0.2343  0.5341
 1967TIP3    H1 5823   4.466   1.798   3.713  1.5076 -0.4112  0.0761
 1967TIP3    H2 5824   4.544   1.928   3.712 -1.1582  1.2289  0.9309
 1968TIP3   OH2 5825   8.393   1.658   5.712  0.7268  0.3158  0.3463
 1968TIP3    H1 5826   8.372   1.739   5.758  2.1087  0.7641  0.2237
 1968TIP3    H2 5827   8.398   1.592   5.782  0.5202  0.5307  0.5631
 1969TIP3   OH2 5828   3.020   0.803   4.745 -0.4052 -0.0489  0.3314
 1969TIP3    H1 5829   3.018   0.896   4.723 -1.1201 -0.2355 -0.4064
 1969TIP3    H2 5830   2.982   0.759   4.669 -2.8639 -0.7176  1.8899
 1970TIP3   OH2 5831   2.342   0.446   3.804  0.0555 -0.1771  0.2332
 1970TIP3    H1 5832   2.303   0.401   3.728 -1.2763 -0.7879  1.2442
 1970TIP3    H2 5833   2.328   0.539   3.787  1.2500 -0.2122 -1.0442
 1971TIP3   OH2 5834   3.216   1.645   2.873 -0.3506  0.2192  0.2392
 1971TIP3    H1 5835   3.199   1.723   2.820 -0.8033 -0.6349 -0.8936
 1971TIP3    H2 5836   3.178   1.665   2.958 -3.2172  0.0670 -0.9419
 1972TIP3   OH2 5837   1.128   3.074   4.806 -1.0383 -0.1629  0.0615
 1972TIP3    H1 5838   1.142   3.160   4.846 -0.7051 -0.8337  1.3832
 1972TIP3    H2 5839   1.115   3.015   4.879  0.3528 -1.5537 -0.7970
 1973TIP3   OH2 5840   3.551   8.113   6.029 -0.5168 -0.0667  0.3176
 1973TIP3    H1 5841   3.516   8.110   6.118  1.1268 -1.4567  0.9476
 1973TIP3    H2 5842   3.525   8.029   5.990 -1.4091  0.6219 -0.5913
 1974TIP3   OH2 5843   3.475   2.081   4.090  0.3189  0.5973 -0.0913
 1974TIP3    H1 5844   3.435   2.002   4.126  0.5872  0.7966  0.6357
 1974TIP3    H2 5845   3.568   2.074   4.112  0.4542  0.8121 -0.5719
 1975TIP3   OH2 5846   0.109   6.554   2.718 -0.2967  0.0342 -0.4910
 1975TIP3    H1 5847   0.069   6.523   2.799 -3.3831  1.0909 -1.5591
 1975TIP3    H2 5848   0.152   6.636   2.742 -0.2316 -0.2283  0.2942
 1976TIP3   OH2 5849   8.856   7.546   3.248  0.3512  0.0933 -0.4026
 1976TIP3    H1 5850   8.938   7.578   3.285 -0.3678 -1.3331  2.5860
 1976TIP3    H2 5851   8.873   7.453   3.230 -0.9111 -0.4863  1.2882
 1977TIP3   OH2 5852   7.380   7.798   3.893  0.2872  0.0066  0.2546
 1977TIP3    H1 5853   7.387   7.708   3.923 -3.0309  0.3608  2.3118
 1977TIP3    H2 5854   7.372   7.791   3.798  1.9881 -1.6930  0.2036
 1978TIP3   OH2 5855   1.770   0.872   4.441 -0.0784 -0.5469 -0.6803
 1978TIP3    H1 5856   1.839   0.833   4.496 -1.5493 -0.7382  1.0769
 1978TIP3    H2 5857   1.784   0.966   4.450  0.6176 -0.6018 -1.1859
 1979TIP3   OH2 5858   2.596   6.855   4.327 -0.2816  0.0672 -0.1417
 1979TIP3    H1 5859   2.627   6.817   4.245 -3.3198  1.6335 -2.1064
 1979TIP3    H2 5860   2.671   6.902   4.362  2.2606 -3.9640  0.1239
 1980TIP3   OH2 5861   3.751   0.876   6.674  0.0578  0.1984  0.1070
 1980TIP3    H1 5862   3.673   0.854   6.725  2.0227 -1.6304  2.4846
 1980TIP3    H2 5863   3.738   0.831   6.591 -0.2666 -2.3222  1.4685
 1981TIP3   OH2 5864   2.350   7.237   5.217 -0.2777 -0.4126  0.5866
 1981TIP3    H1 5865   2.315   7.264   5.302 -0.1779  1.5499  0.0245
 1981TIP3    H2 5866   2.444   7.226   5.232 -0.2910 -0.2738  0.7753
 1982TIP3   OH2 5867   1.727   1.611   2.805  0.4262 -0.3130  0.3596
 1982TIP3    H1 5868   1.753   1.638   2.717 -3.4122  0.5437 -0.5944
 1982TIP3    H2 5869   1.803   1.631   2.860  3.0261 -1.1882 -2.7798
 1983TIP3   OH2 5870   2.573   7.309   6.398  0.4448  0.5245  0.0507
 1983TIP3    H1 5871   2.659   7.339   6.368  0.3871  1.0719  0.4292
 1983TIP3    H2 5872   2.592   7.263   6.480  0.6113 -1.0188 -0.8396
 1984TIP3   OH2 5873   3.925   2.320   4.571  0.2339 -0.1700 -1.1699
 1984TIP3    H1 5874   3.972   2.403   4.561 -0.2390  0.0902 -1.2780
 1984TIP3    H2 5875   3.896   2.298   4.483 -0.2419 -0.0864 -1.0386
 1985TIP3   OH2 5876   0.194   0.888   1.932 -1.2166  0.3278 -0.2154
 1985TIP3    H1 5877   0.143   0.807   1.929  1.3702 -1.4632  2.3045
 1985TIP3    H2 5878   0.182   0.921   2.021  0.4784  0.9028 -0.1866
 1986TIP3   OH2 5879   8.050   7.871   1.874 -0.3132 -0.8427 -0.4579
 1986TIP3    H1 5880   8.128   7.887   1.821 -1.8384 -1.5361 -3.0325
 1986TIP3    H2 5881   7.981   7.923   1.832 -1.6493 -1.6737  0.6556
 1987TIP3   OH2 5882   4.690   0.705   4.173 -0.3357 -0.7706  0.2550
 1987TIP3    H1 5883   4.606   0.659   4.182  0.7171 -2.3719  2.5644
 1987TIP3    H2 5884   4.750   0.639   4.139  0.2922 -0.0193 -0.0978
 1988TIP3   OH2 5885   5.674   2.232   5.455 -0.4076 -0.7922 -0.3542
 1988TIP3    H1 5886   5.584   2.223   5.486 -1.1828 -1.3779 -2.6862
 1988TIP3    H2 5887   5.726   2.183   5.519 -2.0319 -2.5353 -0.3166
 1989TIP3   OH2 5888   6.253   0.728   7.185 -0.0961 -0.1263  0.0214
 1989TIP3    H1 5889   6.241   0.822   7.197 -1.1702 -0.2528 -0.0416
 1989TIP3    H2 5890   6.168   0.690   7.205  0.3397 -1.0913  0.0711
 1990TIP3   OH2 5891   1.314   8.134   4.727  0.1008  0.6845  0.1111
 1990TIP3    H1 5892   1.267   8.060   4.766  1.0952 -0.0532 -0.0828
 1990TIP3    H2 5893   1.297   8.126   4.633  1.7867 -0.4270 -0.1153
 1991TIP3   OH2 5894   2.458   2.143   3.446 -0.3253 -0.7275 -0.4223
 1991TIP3    H1 5895   2.476   2.126   3.539  2.0451  0.7336 -0.5475
 1991TIP3    H2 5896   2.461   2.239   3.439  1.3625 -0.8855 -2.3119
 1992TIP3   OH2 5897   3.447   1.745   3.683 -0.0915 -0.4551 -0.0978
 1992TIP3    H1 5898   3.428   1.818   3.742  0.1164  0.1810 -0.8205
 1992TIP3    H2 5899   3.542   1.739   3.683 -0.1036 -0.6414 -0.1442
 1993TIP3   OH2 5900   5.625   0.074   3.368 -0.3217  0.3284  0.4154
 1993TIP3    H1 5901   5.590   0.088   3.457 -0.0249  2.1890  0.2598
 1993TIP3    H2 5902   5.641   0.162   3.335  2.2035 -0.4361 -0.4547
 1994TIP3   OH2 5903   0.018   6.970   3.122  0.5575 -0.0814  0.1893
 1994TIP3    H1 5904   0.039   7.016   3.041  1.1700 -1.9896 -0.7622
 1994TIP3    H2 5905   0.087   6.995   3.183 -0.1309  1.6872  0.2859
 1995TIP3   OH2 5906   4.387   1.788   4.211  0.0508 -0.4406  0.0651
 1995TIP3    H1 5907   4.404   1.878   4.184 -0.4329 -0.3937 -0.0802
 1995TIP3    H2 5908   4.418   1.735   4.137  1.2543 -0.4437  0.5643
 1996TIP3   OH2 5909   7.513   7.320   3.613  0.2728 -0.3538 -0.4375
 1996TIP3    H1 5910   7.569   7.378   3.560  1.0077  0.3736  1.0914
 1996TIP3    H2 5911   7.572   7.250   3.642  0.2926  0.1464  0.7637
 1997TIP3   OH2 5912   3.986   1.857   4.171  0.1710 -0.5858  0.0675
 1997TIP3    H1 5913   3.957   1.812   4.250  1.9596 -0.6239  0.7241
 1997TIP3    H2 5914   4.038   1.931   4.203 -0.4307  0.3374 -1.0481
 1998TIP3   OH2 5915   1.386   7.994   6.289  0.4154  0.3354 -0.3493
 1998TIP3    H1 5916   1.326   7.927   6.322  1.5764 -0.3296  0.4392
 1998TIP3    H2 5917   1.336   8.076   6.294 -0.5179 -0.2512  0.0223
 1999TIP3   OH2 5918   2.876   0.412   4.051  0.0155  0.2711 -0.0559
 1999TIP3    H1 5919   2.945   0.474   4.075  0.8518 -0.9647  0.7945
 1999TIP3    H2 5920   2.796   0.465   4.047  1.0224  1.7725 -1.2877
 2000TIP3   OH2 5921   0.329   7.602   1.787  0.6884 -0.2214 -0.2179
 2000TIP3    H1 5922   0.320   7.551   1.867  0.0935 -1.4200 -1.0358
 2000TIP3    H2 5923   0.410   7.652   1.800  2.3980 -2.8994 -0.2156
 2001TIP3   OH2 5924   6.672   6.882   3.120 -0.2863  0.5844  0.0111
 2001TIP3    H1 5925   6.719   6.919   3.194  0.3777  1.2327 -0.7232
 2001TIP3    H2 5926   6.672   6.952   3.055  1.4006 -0.8724 -1.5947
 2002TIP3   OH2 5927   1.288   6.022   3.526 -0.1257 -0.0976 -0.1089
 2002TIP3    H1 5928   1.231   6.019   3.603  0.6070 -2.0501  0.3923
 2002TIP3    H2 5929   1.230   6.043   3.453 -0.9646  0.9476  0.8458
 2003TIP3   OH2 5930   0.956   0.716   3.430  0.2123  0.4689 -0.4437
 2003TIP3    H1 5931   0.987   0.755   3.348  1.2657  0.9233  0.1667
 2003TIP3    H2 5932   1.033   0.711   3.486 -0.7052  1.2326  0.9453
 2004TIP3   OH2 5933   2.264   1.145   4.394  0.4660 -0.1241 -0.6508
 2004TIP3    H1 5934   2.196   1.113   4.334 -0.3289 -0.2117  0.2703
 2004TIP3    H2 5935   2.340   1.091   4.375  0.3472  0.1241 -1.8596
 2005TIP3   OH2 5936   7.427   8.048   2.769  0.2114 -0.3071 -0.0521
 2005TIP3    H1 5937   7.412   8.017   2.680  0.5670 -1.1606  0.1858
 2005TIP3    H2 5938   7.459   8.138   2.757 -1.5455  0.2605 -0.7034
 2006TIP3   OH2 5939   3.167   1.167   3.030 -0.4839 -0.0719 -0.0210
 2006TIP3    H1 5940   3.160   1.103   3.101  0.5172 -0.8209 -0.5969
 2006TIP3    H2 5941   3.259   1.191   3.029 -0.9612  1.9030  0.6400
 2007TIP3   OH2 5942   1.987   0.753   4.561  0.3116  0.3206  0.0860
 2007TIP3    H1 5943   2.053   0.740   4.493 -1.3835  1.4031 -1.8246
 2007TIP3    H2 5944   2.032   0.804   4.629  1.9640 -0.5979 -0.2957
 2008TIP3   OH2 5945   2.307   0.185   2.841 -0.2733  0.1030 -0.1341
 2008TIP3    H1 5946   2.359   0.127   2.786  0.1800 -0.0742  0.4798
 2008TIP3    H2 5947   2.369   0.251   2.873 -0.4813  0.0733  0.3426
 2009TIP3   OH2 5948   5.860   8.406   2.975 -0.5187 -0.3737 -0.0838
 2009TIP3    H1 5949   5.799   8.367   3.039  0.1427 -0.9688  0.1853
 2009TIP3    H2 5950   5.828   8.375   2.890  0.0172 -1.5175  0.1326
 2010TIP3   OH2 5951   1.547   0.126   2.639  0.5663 -0.0532  0.0350
 2010TIP3    H1 5952   1.607   0.152   2.569 -1.8012  1.1585 -1.6502
 2010TIP3    H2 5953   1.463   0.165   2.613 -0.7775 -1.0893  2.6638
 2011TIP3   OH2 5954   8.388   8.004   3.527  0.0335  0.4186  0.2239
 2011TIP3    H1 5955   8.417   8.063   3.597 -0.8771  0.6919  0.3694
 2011TIP3    H2 5956   8.341   8.060   3.465 -1.5010 -0.2666  0.7423
 2012TIP3   OH2 5957   2.785   0.017   3.687  0.3493  0.0171 -0.0884
 2012TIP3    H1 5958   2.846   0.073   3.638 -0.9672  2.2124  0.6951
 2012TIP3    H2 5959   2.787   0.052   3.776 -2.6912  0.7081 -0.2388
 2013TIP3   OH2 5960   1.584   8.220   3.541 -0.0312 -0.1350  0.0752
 2013TIP3    H1 5961   1.532   8.295   3.570 -0.6276 -0.6359  0.3101
 2013TIP3    H2 5962   1.653   8.212   3.606  0.1609  0.3466 -0.0695
 2014TIP3   OH2 5963   6.655   8.080   2.583  0.0748  0.2954 -0.3328
 2014TIP3    H1 5964   6.605   8.030   2.648 -0.5719 -0.3488 -1.3081
 2014TIP3    H2 5965   6.688   8.013   2.523  2.3235  0.6941  0.4338
 2015TIP3   OH2 5966   2.772   1.188   3.992  0.3303 -0.2475 -0.1478
 2015TIP3    H1 5967   2.818   1.245   4.054 -0.2240 -1.6344  1.6076
 2015TIP3    H2 5968   2.837   1.169   3.924  0.8275  1.6234 -0.2224
 2016TIP3   OH2 5969   0.915   7.876   5.307  0.4653 -0.0535 -0.0705
 2016TIP3    H1 5970   0.900   7.902   5.398  0.5034 -1.7007  0.4165
 2016TIP3    H2 5971   0.828   7.872   5.268  0.2730 -1.4784  0.4943
 2017TIP3   OH2 5972   4.241   2.021   3.763  0.1389 -0.3576  0.0213
 2017TIP3    H1 5973   4.179   1.986   3.828  1.0306  0.0647  1.1143
 2017TIP3    H2 5974   4.320   1.968   3.774 -0.4838 -1.8493 -2.3562
 2018TIP3   OH2 5975   3.820   0.675   4.583 -0.4028 -0.4093  0.9330
 2018TIP3    H1 5976   3.730   0.709   4.590  0.1628  1.6166 -0.8831
 2018TIP3    H2 5977   3.874   0.754   4.575  1.5128 -1.6216  1.7289
 2019TIP3   OH2 5978   4.420   0.720   3.471  0.5074  0.0344 -0.0725
 2019TIP3    H1 5979   4.404   0.657   3.401 -1.8286  1.6017 -1.0373
 2019TIP3    H2 5980   4.375   0.683   3.547 -3.5600  1.8920 -1.4277
 2020TIP3   OH2 5981   3.956   4.067   3.675 -0.1467 -0.5422 -0.4918
 2020TIP3    H1 5982   3.958   4.053   3.770  1.6669  2.3507 -0.0595
 2020TIP3    H2 5983   4.026   4.011   3.642 -0.0727 -0.7245 -0.0349
 2021TIP3   OH2 5984   3.049   1.966   4.060 -0.0218 -0.3151  0.2682
 2021TIP3    H1 5985   3.089   1.932   3.980 -1.7338 -0.2684 -0.6211
 2021TIP3    H2 5986   3.056   1.894   4.122 -0.6592 -1.1325 -0.5929
 2022TIP3   OH2 5987   3.466   0.133   3.420 -0.5982 -0.0999 -0.9676
 2022TIP3    H1 5988   3.517   0.126   3.339 -0.0517 -0.5410 -0.5906
 2022TIP3    H2 5989   3.518   0.190   3.476 -0.0649 -1.2616 -0.2491
 2023TIP3   OH2 5990   6.407   2.274   2.791  0.4041 -0.2281 -0.2404
 2023TIP3    H1 5991   6.477   2.304   2.733  0.1266  0.5040 -0.2053
 2023TIP3    H2 5992   6.440   2.192   2.828  0.4942 -0.8115 -1.5911
 2024TIP3   OH2 5993   0.965   8.131   4.593 -0.0619  0.7313 -0.0174
 2024TIP3    H1 5994   0.960   8.196   4.523 -2.0284 -0.4358 -1.0119
 2024TIP3    H2 5995   0.925   8.175   4.669  0.0967  1.2414 -0.2249
 2025TIP3   OH2 5996   4.964   2.436   3.167  0.1577 -0.3603 -0.6483
 2025TIP3    H1 5997   4.925   2.382   3.098  0.8443 -4.1149  1.7842
 2025TIP3    H2 5998   5.053   2.404   3.175  0.1713  0.2250  1.8201
 2026TIP3   OH2 5999   1.878   7.945   3.136 -0.4479 -0.3771  0.3502
 2026TIP3    H1 6000   1.876   7.950   3.040  1.1357 -3.2801  0.1029
 2026TIP3    H2 6001   1.799   7.896   3.159 -1.9029  2.0549  0.7405
 2027TIP3   OH2 6002   1.346   7.024   0.980 -0.1395 -0.4095 -0.9210
 2027TIP3    H1 6003   1.407   6.954   1.003  0.6390  0.1750 -1.1623
 2027TIP3    H2 6004   1.384   7.063   0.901 -0.5479  0.2904 -0.7745
 2028TIP3   OH2 6005   4.360   7.488   3.382  0.4632 -0.2944 -0.6979
 2028TIP3    H1 6006   4.346   7.413   3.440 -0.5878  1.6457  1.6656
 2028TIP3    H2 6007   4.428   7.460   3.321  2.5527 -1.9535  2.3228
 2029TIP3   OH2 6008   1.433   7.820   5.435 -0.0027  0.2566 -0.1227
 2029TIP3    H1 6009   1.364   7.845   5.374  1.2360  0.4834 -1.4494
 2029TIP3    H2 6010   1.493   7.767   5.383  1.7206  1.5078  0.5599
 2030TIP3   OH2 6011   4.479   0.340   1.618 -0.0938  0.2099  0.2376
 2030TIP3    H1 6012   4.536   0.354   1.693  1.1464 -0.2769 -0.5892
 2030TIP3    H2 6013   4.462   0.246   1.617 -1.1906  0.3899  0.6600
 2031TIP3   OH2 6014   4.943   0.634   3.327 -0.5322  0.5046  0.2905
 2031TIP3    H1 6015   4.945   0.585   3.245 -0.5289 -1.0615  1.2057
 2031TIP3    H2 6016   4.856   0.674   3.328 -0.3670  0.9210 -0.6783
 2032TIP3   OH2 6017   1.903   7.784   4.181  0.0174 -0.1219  0.2168
 2032TIP3    H1 6018   1.859   7.749   4.104  0.9751  0.7591 -0.7338
 2032TIP3    H2 6019   1.995   7.758   4.171  0.1654  0.0545  1.0277
 2033TIP3   OH2 6020   0.772   7.854   4.007  0.1924 -0.2829  0.2931
 2033TIP3    H1 6021   0.741   7.924   3.950 -0.6290  1.3592  2.6728
 2033TIP3    H2 6022   0.862   7.879   4.029  0.1947 -0.4200  0.4403
 2034TIP3   OH2 6023   4.746   0.191   3.573  0.4054 -0.0641 -0.3826
 2034TIP3    H1 6024   4.799   0.270   3.566  0.3687  0.0036  0.0530
 2034TIP3    H2 6025   4.723   0.169   3.483  0.3752  0.4481 -0.5016
 2035TIP3   OH2 6026   4.556   2.351   2.175  0.1593  0.3129 -0.1751
 2035TIP3    H1 6027   4.489   2.418   2.165 -1.1543 -0.6842  1.6708
 2035TIP3    H2 6028   4.520   2.274   2.129  0.4101  0.0134  0.1268
 2036TIP3   OH2 6029   4.265   0.555   3.652 -0.0730 -0.3036 -0.1891
 2036TIP3    H1 6030   4.224   0.525   3.733 -0.2178 -0.6052 -0.3727
 2036TIP3    H2 6031   4.299   0.476   3.611 -1.9522 -0.4483 -1.5154
 2037TIP3   OH2 6032   3.160   8.122   1.920 -0.0963  0.2610  0.4349
 2037TIP3    H1 6033   3.116   8.196   1.961  0.1685 -0.0150  1.2147
 2037TIP3    H2 6034   3.144   8.048   1.978  0.0032 -0.2055 -0.1189
 2038TIP3   OH2 6035   4.599   0.992   1.878 -0.9445  0.3675  0.0444
 2038TIP3    H1 6036   4.681   0.994   1.927 -1.1347 -1.4406  0.4654
 2038TIP3    H2 6037   4.606   1.066   1.818  0.6130  0.7664  0.6744
 2039TIP3   OH2 6038   2.635   8.034   2.266  0.3384  0.3050  0.5469
 2039TIP3    H1 6039   2.632   8.118   2.311 -2.3280  0.2226  0.6093
 2039TIP3    H2 6040   2.629   7.969   2.336  1.1739  0.0720  0.4094
 2040TIP3   OH2 6041   2.336   7.880   2.837  0.4425  0.0978 -0.1694
 2040TIP3    H1 6042   2.355   7.960   2.788  0.6441 -0.9518 -1.8446
 2040TIP3    H2 6043   2.420   7.834   2.840  0.4237  0.1262  1.1532
 2041TIP3   OH2 6044   1.808   7.244   0.126 -0.2827 -0.3117 -0.2663
 2041TIP3    H1 6045   1.865   7.168   0.124  0.9293  0.6020 -1.2740
 2041TIP3    H2 6046   1.820   7.286   0.041 -2.2348  0.0653 -0.3771
 2042TIP3   OH2 6047   4.318   0.572   2.833  0.0527 -0.0520  0.8746
 2042TIP3    H1 6048   4.341   0.664   2.825 -0.7175  0.0979  0.3151
 2042TIP3    H2 6049   4.388   0.534   2.886  1.1214  0.5514 -0.0965
 2043TIP3   OH2 6050   5.738   0.087   2.380 -0.2628 -0.1043 -0.1537
 2043TIP3    H1 6051   5.682   0.009   2.384  1.1328 -1.1671 -1.2082
 2043TIP3    H2 6052   5.790   0.076   2.301  0.1250  1.8051 -0.1982
 2044TIP3   OH2 6053   5.439   0.859   2.558 -0.0496 -0.0827 -0.1081
 2044TIP3    H1 6054   5.352   0.819   2.561  0.7526 -1.9000 -0.4624
 2044TIP3    H2 6055   5.491   0.808   2.621  1.2815 -0.2928 -1.3664
 2045TIP3   OH2 6056   4.748   1.353   0.604  0.0632  0.0811 -0.4561
 2045TIP3    H1 6057   4.739   1.268   0.562  0.2207  0.0120 -0.3483
 2045TIP3    H2 6058   4.739   1.416   0.533 -3.0592  0.0758 -0.1256
 2046TIP3   OH2 6059   5.890   1.058   1.600 -0.3461 -0.1001 -0.4812
 2046TIP3    H1 6060   5.947   0.999   1.550  0.8176 -0.3869  1.1211
 2046TIP3    H2 6061   5.941   1.139   1.608  0.3185 -0.6885  1.8046
 2047TIP3   OH2 6062   4.304   0.496   4.912  0.6443  0.1129  0.2391
 2047TIP3    H1 6063   4.362   0.483   4.838  1.8025 -1.7206  1.4306
 2047TIP3    H2 6064   4.273   0.408   4.934 -2.0565  0.9849  0.0621
 2048TIP3   OH2 6065   3.859   0.200   4.618 -0.6266  0.1189  0.7968
 2048TIP3    H1 6066   3.789   0.264   4.627 -0.5582  0.3766 -0.4338
 2048TIP3    H2 6067   3.934   0.251   4.589  0.0149 -0.1951  1.8870
 2049TIP3   OH2 6068   5.511   0.803   5.016  0.2087 -0.0477 -0.5130
 2049TIP3    H1 6069   5.527   0.733   5.079 -2.2509  0.7049  1.0199
 2049TIP3    H2 6070   5.509   0.883   5.070 -0.8567  0.7306 -1.6967
 2050TIP3   OH2 6071   1.713   7.350   3.461  0.0227  0.6218 -0.0360
 2050TIP3    H1 6072   1.686   7.262   3.486  1.4994  0.1135 -0.1799
 2050TIP3    H2 6073   1.681   7.406   3.531 -1.3626  0.0386 -0.1973
 2051TIP3   OH2 6074   2.677   0.218   4.040  0.5468 -1.1899 -0.3027
 2051TIP3    H1 6075   2.751   0.277   4.028 -0.7629  1.0276  1.8989
 2051TIP3    H2 6076   2.635   0.213   3.954  0.2000  1.8233 -0.3544
 2052TIP3   OH2 6077   4.763   0.865   0.450  0.3237 -0.1740  0.1216
 2052TIP3    H1 6078   4.679   0.846   0.408 -0.3932  0.3917  1.2787
 2052TIP3    H2 6079   4.814   0.784   0.439 -0.0834 -0.2616 -1.2342
 2053TIP3   OH2 6080   4.924   1.403   3.708 -0.5476  0.3736  0.1193
 2053TIP3    H1 6081   4.883   1.324   3.745  0.6378  0.2567  1.2158
 2053TIP3    H2 6082   5.018   1.383   3.709 -0.3829  1.0037 -1.5063
 2054TIP3   OH2 6083   4.383   0.015   2.786  0.1722 -0.1330  0.3025
 2054TIP3    H1 6084   4.466  -0.023   2.756 -0.2453 -0.2978 -0.6542
 2054TIP3    H2 6085   4.409   0.086   2.845  1.0013  0.5888 -0.9204
 2055TIP3   OH2 6086   2.603   8.253   2.413 -0.4854 -0.1593 -0.4283
 2055TIP3    H1 6087   2.651   8.249   2.496 -1.5573 -0.5405  0.1827
 2055TIP3    H2 6088   2.521   8.206   2.430 -1.3455  1.0030 -1.2749
 2056TIP3   OH2 6089   6.253   0.279   3.656  0.1993 -0.0471  0.3650
 2056TIP3    H1 6090   6.223   0.197   3.694 -1.6314 -0.2050 -1.3809
 2056TIP3    H2 6091   6.316   0.252   3.589 -0.0766  0.0142  0.0854
 2057TIP3   OH2 6092   5.031   1.373   1.564 -0.2656  0.9519 -0.2490
 2057TIP3    H1 6093   5.021   1.467   1.549  0.1401  0.7449 -1.9356
 2057TIP3    H2 6094   5.075   1.366   1.649 -0.8798  2.2549  0.1882
 2058TIP3   OH2 6095   5.915   0.732   4.156 -0.6299 -0.3038  0.0365
 2058TIP3    H1 6096   5.995   0.754   4.203 -0.9044  0.7614  0.0145
 2058TIP3    H2 6097   5.940   0.735   4.064 -1.0101  1.3547 -0.0270
 2059TIP3   OH2 6098   2.506   7.893   7.262  0.4568 -0.6612 -0.7152
 2059TIP3    H1 6099   2.546   7.859   7.182  1.2062 -1.1988 -0.1127
 2059TIP3    H2 6100   2.466   7.817   7.304 -0.1950 -0.3277 -0.7343
 2060TIP3   OH2 6101   4.493   0.093   3.654  0.1505  0.3105 -0.3483
 2060TIP3    H1 6102   4.576   0.134   3.629  0.8236 -1.1848 -0.6375
 2060TIP3    H2 6103   4.430   0.126   3.591  0.8403  0.3212 -1.0456
 2061TIP3   OH2 6104   3.547   0.722   4.634  0.1458 -0.5458 -0.0322
 2061TIP3    H1 6105   3.535   0.627   4.625  1.5656 -0.7910  0.5109
 2061TIP3    H2 6106   3.491   0.759   4.566 -1.9689 -1.6820  1.0305
 2062TIP3   OH2 6107   5.142   0.457   1.848 -0.0813 -0.4104  0.1531
 2062TIP3    H1 6108   5.179   0.467   1.935  2.5693  0.0372 -0.9703
 2062TIP3    H2 6109   5.105   0.369   1.847  1.4992 -1.1060  1.1619
 2063TIP3   OH2 6110   5.848   1.087   2.887  0.4841 -0.3011  0.2412
 2063TIP3    H1 6111   5.770   1.067   2.939 -1.3516  0.5834 -2.0972
 2063TIP3    H2 6112   5.819   1.077   2.796  2.7108  1.3952 -0.6850
 2064TIP3   OH2 6113   2.284   8.113   5.180 -0.5497  0.1517  0.4233
 2064TIP3    H1 6114   2.248   8.171   5.247 -0.1034  0.8422  0.0767
 2064TIP3    H2 6115   2.209   8.063   5.149 -1.2878  1.7651 -0.4873
 2065TIP3   OH2 6116   3.802   0.758   5.634  0.1373 -0.0319 -0.2116
 2065TIP3    H1 6117   3.786   0.851   5.651 -1.4985 -0.3979  0.3059
 2065TIP3    H2 6118   3.744   0.737   5.561  0.8832 -0.5376 -0.6711
 2066TIP3   OH2 6119   3.586   0.830   5.186 -0.5666  0.2190 -0.3296
 2066TIP3    H1 6120   3.551   0.816   5.097  1.1217 -0.5828 -0.8763
 2066TIP3    H2 6121   3.601   0.924   5.190  0.6616  0.0907 -1.4147
 2067TIP3   OH2 6122   6.893   2.938   1.429 -0.2586  0.3459 -0.3475
 2067TIP3    H1 6123   6.940   2.869   1.382 -0.0604 -0.4003  0.9358
 2067TIP3    H2 6124   6.891   3.011   1.367  1.0808 -0.2036 -1.0664
 2068TIP3   OH2 6125   3.010   0.492   1.491 -0.4338  0.1630 -0.3114
 2068TIP3    H1 6126   3.016   0.492   1.396  1.6059 -1.2001 -0.2016
 2068TIP3    H2 6127   3.067   0.421   1.519 -2.1779 -0.4252  1.8764
 2069TIP3   OH2 6128   3.375   0.534   4.209  0.3638 -0.1256  0.1182
 2069TIP3    H1 6129   3.395   0.540   4.115  1.1670 -2.1350  0.1416
 2069TIP3    H2 6130   3.286   0.568   4.217  0.4266  0.4123 -1.3067
 2070TIP3   OH2 6131   3.832   0.650   1.477 -0.0992  0.7377  0.2223
 2070TIP3    H1 6132   3.806   0.585   1.542  0.4478  0.8400  0.5553
 2070TIP3    H2 6133   3.849   0.600   1.398 -2.2420  0.7843 -0.2895
 2071TIP3   OH2 6134   6.612   0.106   3.415 -0.2688 -0.6874  0.0563
 2071TIP3    H1 6135   6.682   0.078   3.357  1.6499  2.0438  0.9487
 2071TIP3    H2 6136   6.571   0.180   3.369 -0.8030 -0.5665  0.7207
 2072TIP3   OH2 6137   1.753   7.616   2.590 -0.0994 -0.1297  0.0659
 2072TIP3    H1 6138   1.800   7.666   2.657  2.1226 -0.2906 -1.3419
 2072TIP3    H2 6139   1.700   7.681   2.544 -1.8133 -0.0474  2.0544
 2073TIP3   OH2 6140   4.428   6.644   2.568  0.3422  0.1601 -0.8411
 2073TIP3    H1 6141   4.389   6.731   2.563 -1.5140 -0.5563  0.7516
 2073TIP3    H2 6142   4.365   6.587   2.524  0.9296 -0.5785 -0.7276
 2074TIP3   OH2 6143   2.253   0.729   3.776 -0.9052 -0.5884 -0.2193
 2074TIP3    H1 6144   2.322   0.769   3.721  0.7095 -0.2434  1.9785
 2074TIP3    H2 6145   2.174   0.779   3.755  0.3955  1.6969  0.0993
 2075TIP3   OH2 6146   2.879   6.576   5.218 -0.0597 -0.0041 -0.8758
 2075TIP3    H1 6147   2.835   6.648   5.172 -0.5930 -0.3301 -0.8774
 2075TIP3    H2 6148   2.872   6.502   5.158 -1.5700 -0.6757  0.0998
 2076TIP3   OH2 6149   3.386   0.692   3.378 -0.2213  0.5477  0.0858
 2076TIP3    H1 6150   3.475   0.659   3.370 -0.6645 -0.5706 -0.2937
 2076TIP3    H2 6151   3.394   0.767   3.437  1.0300  0.7234 -0.2887
 2077TIP3   OH2 6152   4.728   1.703   4.458  0.3726 -0.4995 -0.0597
 2077TIP3    H1 6153   4.683   1.779   4.495 -1.5330 -1.8752  0.5332
 2077TIP3    H2 6154   4.772   1.737   4.380 -1.2617  1.0267 -0.3623
 2078TIP3   OH2 6155   2.918   2.065   6.515 -0.1607  0.2394 -0.6333
 2078TIP3    H1 6156   2.935   2.055   6.609 -1.1201 -1.2720 -0.5956
 2078TIP3    H2 6157   2.981   2.131   6.486  0.2929  0.5691  1.0268
 2079TIP3   OH2 6158   5.823   1.673   3.400 -0.2162  0.4633  0.1163
 2079TIP3    H1 6159   5.746   1.711   3.441 -0.5582 -1.9856  1.8494
 2079TIP3    H2 6160   5.816   1.699   3.308 -2.2939  1.5446  0.5470
 2080TIP3   OH2 6161   3.590   0.142   4.932  0.4485  0.8303  0.2288
 2080TIP3    H1 6162   3.597   0.236   4.949  0.2869  0.9457 -0.3274
 2080TIP3    H2 6163   3.539   0.136   4.852  1.0213  0.2881 -0.0982
 2081TIP3   OH2 6164   2.865   8.136   3.555  0.4458  0.0769 -0.0525
 2081TIP3    H1 6165   2.825   8.050   3.551  0.3478  0.1566 -0.7733
 2081TIP3    H2 6166   2.817   8.182   3.624 -1.5910  0.6170 -1.7975
 2082TIP3   OH2 6167   3.466   2.290   3.130 -0.3971  0.5216 -0.0682
 2082TIP3    H1 6168   3.475   2.311   3.223 -0.9624  0.2302  0.0578
 2082TIP3    H2 6169   3.465   2.375   3.086  2.2065  0.5880 -0.0475
 2083TIP3   OH2 6170   1.342   7.468   3.254 -0.7403 -0.1711 -0.2885
 2083TIP3    H1 6171   1.321   7.399   3.190  0.7027 -2.5603  1.7216
 2083TIP3    H2 6172   1.437   7.477   3.248 -0.5918 -0.4504  1.5331
 2084TIP3   OH2 6173   5.409   0.209   4.830 -0.2309  0.2698  0.2922
 2084TIP3    H1 6174   5.459   0.262   4.768 -0.9830 -0.1876 -0.7277
 2084TIP3    H2 6175   5.471   0.143   4.860  0.4099  1.0742  0.7566
 2085TIP3   OH2 6176   5.272   0.080   2.630  0.3254  0.0608 -0.1732
 2085TIP3    H1 6177   5.294  -0.012   2.616 -0.6511  0.0610 -1.8302
 2085TIP3    H2 6178   5.242   0.084   2.720  1.5393 -1.0108  0.2931
 2086TIP3   OH2 6179   2.193   8.385   3.985  0.4355  0.3296 -0.0298
 2086TIP3    H1 6180   2.280   8.350   3.969 -0.0006 -0.6840 -0.2105
 2086TIP3    H2 6181   2.196   8.414   4.077  1.0202  0.5109 -0.1002
 2087TIP3   OH2 6182   0.772   8.131   1.582  0.8275 -0.1069 -0.8243
 2087TIP3    H1 6183   0.761   8.226   1.575  0.0028 -0.0989  0.3813
 2087TIP3    H2 6184   0.765   8.099   1.492  2.5296  1.1133 -1.4104
 2088TIP3   OH2 6185   5.352   0.530   2.917  0.2277  0.1117  0.3471
 2088TIP3    H1 6186   5.323   0.525   3.008  0.8262 -0.5060  0.5138
 2088TIP3    H2 6187   5.272   0.536   2.866 -0.1198  0.2381  0.9056
 2089TIP3   OH2 6188   1.028   6.859   2.075 -0.4985  0.7736  0.8758
 2089TIP3    H1 6189   1.026   6.806   2.155 -0.5802  1.7204  1.5188
 2089TIP3    H2 6190   1.084   6.934   2.098 -0.5591  1.0757  0.0547
 2090TIP3   OH2 6191   7.072   0.584   3.527 -0.2526 -0.0008  0.1154
 2090TIP3    H1 6192   7.064   0.666   3.477  1.5414 -0.2382 -0.5856
 2090TIP3    H2 6193   7.048   0.608   3.616 -3.1707  0.5103 -0.7507
 2091TIP3   OH2 6194   5.245   0.642   2.548  0.0844 -0.0373 -0.2272
 2091TIP3    H1 6195   5.209   0.593   2.622 -0.0740 -0.5997 -0.6708
 2091TIP3    H2 6196   5.278   0.574   2.489 -0.2347  0.3902 -0.9009
 2092TIP3   OH2 6197   5.540   1.239   3.888 -0.0618  0.2069 -0.0612
 2092TIP3    H1 6198   5.446   1.254   3.897 -0.2629 -0.5169 -0.8068
 2092TIP3    H2 6199   5.573   1.237   3.977 -1.0946 -1.4852  0.3094
 2093TIP3   OH2 6200   1.723   7.851   3.749  0.6356 -0.3565  0.5197
 2093TIP3    H1 6201   1.813   7.883   3.749  0.6773 -0.4107  2.1538
 2093TIP3    H2 6202   1.670   7.931   3.744  0.7634 -0.3404 -0.7458
 2094TIP3   OH2 6203   4.826   2.463   1.957  0.2834 -0.1118  0.3476
 2094TIP3    H1 6204   4.889   2.403   1.916 -0.0898  0.5586 -1.2646
 2094TIP3    H2 6205   4.751   2.409   1.978  0.7777 -0.6147  0.8261
 2095TIP3   OH2 6206   3.818   2.055   2.689 -0.2724 -0.2310 -0.0241
 2095TIP3    H1 6207   3.764   2.095   2.621 -0.5269 -0.0767  0.2622
 2095TIP3    H2 6208   3.764   2.062   2.768  0.5746  0.8028  0.4605
 2096TIP3   OH2 6209   8.869   8.240   2.991 -0.1573 -0.1591  0.6261
 2096TIP3    H1 6210   8.823   8.160   3.016 -1.3836  0.7432  1.3541
 2096TIP3    H2 6211   8.902   8.222   2.903 -0.7417 -1.3237  0.6289
 2097TIP3   OH2 6212   2.378   0.636   1.443  0.0549 -0.8760 -0.3277
 2097TIP3    H1 6213   2.420   0.552   1.424 -0.0935 -0.7803 -1.1288
 2097TIP3    H2 6214   2.445   0.686   1.490 -0.2898 -1.8836  1.2575
 2098TIP3   OH2 6215   1.082   7.378   4.589  0.2701  0.1702  0.3738
 2098TIP3    H1 6216   1.087   7.354   4.682  0.6510 -0.5627  0.1686
 2098TIP3    H2 6217   1.136   7.456   4.582  1.5640 -0.6972  0.4719
 2099TIP3   OH2 6218   3.612   2.689   2.757 -0.4983 -0.0624  0.1830
 2099TIP3    H1 6219   3.685   2.746   2.730  0.3147 -2.0659 -1.9802
 2099TIP3    H2 6220   3.562   2.675   2.677 -0.4260 -2.7676  0.5885
 2100TIP3   OH2 6221   2.548   8.196   3.210  0.5325  0.2554  0.3985
 2100TIP3    H1 6222   2.602   8.215   3.133 -1.2222  1.9571 -0.4501
 2100TIP3    H2 6223   2.576   8.260   3.275 -1.8878  2.6390 -0.7799
 2101TIP3   OH2 6224   6.775   3.034   6.086 -0.5209  0.0578  0.5643
 2101TIP3    H1 6225   6.706   3.097   6.063 -0.1303 -0.3999 -1.9979
 2101TIP3    H2 6226   6.841   3.086   6.131 -0.5091  1.3823 -0.9452
 2102TIP3   OH2 6227   4.828   0.214   2.450  0.4044  0.6521 -0.1276
 2102TIP3    H1 6228   4.794   0.137   2.404  0.3125  0.8061 -0.3155
 2102TIP3    H2 6229   4.923   0.205   2.445  0.3945  0.9156 -0.7547
 2103TIP3   OH2 6230   8.633   7.912   0.537 -0.1858  0.7376 -0.4280
 2103TIP3    H1 6231   8.679   7.840   0.579 -0.7749 -0.3555 -1.6384
 2103TIP3    H2 6232   8.693   7.943   0.469 -0.7478  0.0998 -1.2120
 2104TIP3   OH2 6233   6.191   0.047   1.605  0.4574  0.5746 -0.4504
 2104TIP3    H1 6234   6.107   0.007   1.581  1.0883 -0.2888 -1.2860
 2104TIP3    H2 6235   6.168   0.114   1.669 -1.0263  1.4116 -1.8352
 2105TIP3   OH2 6236   5.236   1.128   5.107  0.3267  0.1113  0.3390
 2105TIP3    H1 6237   5.285   1.151   5.028 -0.3661  0.0606 -0.1061
 2105TIP3    H2 6238   5.294   1.069   5.154  0.6539 -0.0389 -0.2460
 2106TIP3   OH2 6239   4.535   1.812   1.369 -0.0366  0.4412  0.2966
 2106TIP3    H1 6240   4.553   1.757   1.292  1.3927 -1.4068  1.8970
 2106TIP3    H2 6241   4.468   1.874   1.339  1.5887  0.7809 -2.8844
 2107TIP3   OH2 6242   0.450   5.230   1.601 -0.0756 -0.1330 -0.4735
 2107TIP3    H1 6243   0.523   5.283   1.571  0.1678  0.0543  0.4230
 2107TIP3    H2 6244   0.418   5.275   1.680 -2.1944  0.6904 -1.7532
 2108TIP3   OH2 6245   8.349   8.250   2.597  0.7305 -0.8470 -0.1236
 2108TIP3    H1 6246   8.394   8.307   2.660 -2.4439 -1.1026  2.4510
 2108TIP3    H2 6247   8.381   8.162   2.616  2.2460 -0.5493 -1.1364
 2109TIP3   OH2 6248   1.166   6.745   1.424  0.1659 -0.3407 -0.2054
 2109TIP3    H1 6249   1.143   6.779   1.510 -0.8175  0.3409 -0.7251
 2109TIP3    H2 6250   1.094   6.773   1.367  0.8710 -0.6605 -1.2716
 2110TIP3   OH2 6251   8.890   7.809   1.811  0.6912 -0.0469 -0.3948
 2110TIP3    H1 6252   8.878   7.841   1.722  0.9053 -0.9593 -0.7532
 2110TIP3    H2 6253   8.893   7.714   1.803 -0.2974 -0.1940  0.6992
 2111TIP3   OH2 6254   1.305   7.091   4.877  0.1393  0.4304 -0.8486
 2111TIP3    H1 6255   1.267   7.004   4.888 -0.6124  0.7836 -0.6553
 2111TIP3    H2 6256   1.359   7.084   4.798 -0.4711 -0.0134 -1.2261
 2112TIP3   OH2 6257   1.254   8.198   2.837  0.2050  0.0121  0.2337
 2112TIP3    H1 6258   1.318   8.269   2.831  1.2173 -0.9378 -0.4259
 2112TIP3    H2 6259   1.248   8.164   2.748 -1.6796  0.4825  0.1689
 2113TIP3   OH2 6260   4.695   1.237   3.351  0.4568 -0.6319  0.5155
 2113TIP3    H1 6261   4.643   1.243   3.431  0.1406 -3.2411  0.5359
 2113TIP3    H2 6262   4.637   1.267   3.282 -0.2090 -1.0865  0.8808
 2114TIP3   OH2 6263   3.575   2.019   3.316  0.8232  0.2118  0.2808
 2114TIP3    H1 6264   3.508   1.956   3.338  1.3196 -0.3456  0.2022
 2114TIP3    H2 6265   3.539   2.104   3.342  0.5101 -0.1991  1.1673
 2115TIP3   OH2 6266   2.847   0.164   4.380 -0.0123 -0.4501  0.3545
 2115TIP3    H1 6267   2.870   0.104   4.309  0.8159 -0.2953  0.4783
 2115TIP3    H2 6268   2.766   0.129   4.417  0.2665 -1.2789  0.1827
 2116TIP3   OH2 6269   6.189   0.695   5.664 -0.7346  0.8549  0.6670
 2116TIP3    H1 6270   6.235   0.641   5.601 -1.5618  0.3112  0.5146
 2116TIP3    H2 6271   6.214   0.659   5.749  0.0716  1.3385  0.6335
 2117TIP3   OH2 6272   8.592   8.374   3.043 -0.7345  0.2097  0.4762
 2117TIP3    H1 6273   8.590   8.348   3.135  0.5570  1.8379  0.9960
 2117TIP3    H2 6274   8.677   8.342   3.011 -1.0268 -0.0415 -0.0524
 2118TIP3   OH2 6275   1.542   0.150   3.565  0.3868 -0.3326 -0.1984
 2118TIP3    H1 6276   1.544   0.101   3.647 -0.4573 -1.1765 -0.6750
 2118TIP3    H2 6277   1.494   0.230   3.586  0.9704 -0.1193  0.3514
 2119TIP3   OH2 6278   4.779   0.904   5.061  0.3281  0.3536  0.0291
 2119TIP3    H1 6279   4.753   0.993   5.086 -0.0787  0.7435 -1.7297
 2119TIP3    H2 6280   4.872   0.899   5.081 -0.0125  0.6009  1.7333
 2120TIP3   OH2 6281   2.765   8.234   3.036  0.0571  0.4683 -0.0310
 2120TIP3    H1 6282   2.797   8.325   3.031 -0.7191  0.7403 -0.0332
 2120TIP3    H2 6283   2.821   8.193   3.102  0.4108  0.9516 -0.0284
 2121TIP3   OH2 6284   6.863   2.826   3.969 -0.1951 -0.2296 -0.4948
 2121TIP3    H1 6285   6.856   2.850   3.877  1.6255  0.8067 -0.3717
 2121TIP3    H2 6286   6.784   2.775   3.986 -2.6794  3.0759 -1.5381
 2122TIP3   OH2 6287   6.522   2.119   1.056  0.0370  0.0459  0.3940
 2122TIP3    H1 6288   6.428   2.106   1.064 -0.0765  1.0097  0.6799
 2122TIP3    H2 6289   6.561   2.050   1.110 -0.4713 -0.9234 -0.4569
 2123TIP3   OH2 6290   3.080   0.816   6.341  0.1495 -0.0653 -0.0079
 2123TIP3    H1 6291   3.036   0.840   6.422 -1.9617  1.3147 -1.5017
 2123TIP3    H2 6292   3.033   0.738   6.311  0.8341 -0.4905  0.0106
 2124TIP3   OH2 6293   1.119   6.971   4.672  0.6617  0.6338 -0.2846
 2124TIP3    H1 6294   1.167   7.017   4.604  1.0990  0.7586  0.1083
 2124TIP3    H2 6295   1.047   6.927   4.626 -2.8081  5.7055 -0.1619
 2125TIP3   OH2 6296   1.178   8.143   5.042 -0.2719  0.1352 -0.2041
 2125TIP3    H1 6297   1.229   8.066   5.016  2.3217  1.7997 -0.2475
 2125TIP3    H2 6298   1.205   8.159   5.132 -2.1772 -0.0600  0.4062
 2126TIP3   OH2 6299   2.885   1.467   4.028 -0.2708 -0.9178 -0.9850
 2126TIP3    H1 6300   2.794   1.488   4.048  0.2797  1.4712 -0.8116
 2126TIP3    H2 6301   2.910   1.531   3.961  1.3079 -1.4718 -0.9440
 2127TIP3   OH2 6302   3.148   1.894   2.786 -0.5349 -0.5086 -0.3144
 2127TIP3    H1 6303   3.115   1.919   2.873  1.8915 -0.5256  0.6575
 2127TIP3    H2 6304   3.188   1.974   2.751 -1.0856 -0.6252 -1.2283
 2128TIP3   OH2 6305   2.436   8.335   5.526  0.5663  0.1089 -0.2378
 2128TIP3    H1 6306   2.523   8.349   5.489  0.4843  2.7054  0.4217
 2128TIP3    H2 6307   2.450   8.279   5.602  1.4426 -0.7888 -1.0581
 2129TIP3   OH2 6308   0.432   7.349   3.727  0.3290 -0.0412  0.2488
 2129TIP3    H1 6309   0.486   7.368   3.650 -0.8795  1.4798 -0.2330
 2129TIP3    H2 6310   0.459   7.414   3.792 -0.8435  0.6394  0.0501
 2130TIP3   OH2 6311   5.600   1.476   6.040 -0.3843  0.0032 -0.4293
 2130TIP3    H1 6312   5.534   1.455   5.974 -1.8200  0.6234  0.7825
 2130TIP3    H2 6313   5.580   1.419   6.114  0.7843 -0.1920 -0.2488
 2131TIP3   OH2 6314   6.053   0.610   2.683  0.6509  0.4014  0.3158
 2131TIP3    H1 6315   6.073   0.533   2.735  0.3908  1.5550  2.1645
 2131TIP3    H2 6316   6.114   0.677   2.715 -0.4565  1.5257  0.1327
 2132TIP3   OH2 6317   3.677   0.853   4.304 -0.0733 -0.3407 -0.0704
 2132TIP3    H1 6318   3.610   0.817   4.361 -1.3057  0.3681 -1.0501
 2132TIP3    H2 6319   3.643   0.938   4.278  2.4627  1.2488  1.6098
 2133TIP3   OH2 6320   3.788   0.946   3.506 -0.1670 -0.6793 -0.0689
 2133TIP3    H1 6321   3.803   0.985   3.592 -0.5137 -0.5661 -0.0628
 2133TIP3    H2 6322   3.772   0.853   3.524 -0.8807 -0.5323  0.0374
 2134TIP3   OH2 6323   6.679   0.402   4.723  0.2889 -0.2334  0.3221
 2134TIP3    H1 6324   6.731   0.374   4.648  0.3815  2.7714 -0.8144
 2134TIP3    H2 6325   6.659   0.494   4.706 -0.3403  0.3275  3.6248
 2135TIP3   OH2 6326   5.612   2.326   3.121  0.5262  0.0133 -0.1369
 2135TIP3    H1 6327   5.637   2.418   3.134 -1.7411  0.8712 -1.6018
 2135TIP3    H2 6328   5.517   2.328   3.109  0.8215 -2.1292 -3.5552
 2136TIP3   OH2 6329   4.964   1.654   6.122  0.2851  0.3884  0.2591
 2136TIP3    H1 6330   5.001   1.621   6.040  0.6305  1.0948  0.1246
 2136TIP3    H2 6331   5.038   1.655   6.183 -0.4273 -2.2315  1.2514
 2137TIP3   OH2 6332   4.714   0.447   5.379 -0.2813 -0.6498  0.1439
 2137TIP3    H1 6333   4.786   0.421   5.321 -1.1979 -0.5077 -1.0574
 2137TIP3    H2 6334   4.706   0.542   5.367 -1.1986 -0.7883 -0.3115
 2138TIP3   OH2 6335   4.593   0.714   2.726 -0.6714  0.2710  0.2803
 2138TIP3    H1 6336   4.592   0.804   2.757 -1.7694  0.3025  0.1767
 2138TIP3    H2 6337   4.592   0.661   2.806  1.6492  0.3252  0.3845
 2139TIP3   OH2 6338   0.970   7.112   3.424 -0.1054  0.3417  0.4411
 2139TIP3    H1 6339   0.890   7.068   3.395  0.6103  0.5703 -2.0117
 2139TIP3    H2 6340   1.041   7.058   3.388  0.9205 -0.5648  3.6307
 2140TIP3   OH2 6341   4.925   1.779   3.224  0.0327  0.3272 -0.0229
 2140TIP3    H1 6342   4.892   1.844   3.162 -0.0085  1.0561  0.7531
 2140TIP3    H2 6343   5.020   1.780   3.212 -0.0848 -0.5181 -1.0345
 2141TIP3   OH2 6344   2.899   1.499   4.357 -0.1026  0.2007  0.5231
 2141TIP3    H1 6345   2.930   1.528   4.443  1.6788  0.7377 -0.2803
 2141TIP3    H2 6346   2.866   1.578   4.315 -0.1067  0.1105  0.3568
 2142TIP3   OH2 6347   4.688   0.079   4.037  0.0299  0.1135 -0.2359
 2142TIP3    H1 6348   4.755   0.086   3.969  2.2147  1.5912  1.9793
 2142TIP3    H2 6349   4.660   0.169   4.053 -1.6902 -0.3867 -0.3406
 2143TIP3   OH2 6350   3.277   8.304   2.311  0.2037  0.1466 -0.7792
 2143TIP3    H1 6351   3.219   8.332   2.240 -1.2008  0.9341  0.6283
 2143TIP3    H2 6352   3.226   8.238   2.358  1.2430 -0.5921 -0.6859
 2144TIP3   OH2 6353   6.044   0.948   4.308  0.0724  0.4372 -0.2182
 2144TIP3    H1 6354   6.103   1.017   4.279 -1.2222  1.5746 -0.1971
 2144TIP3    H2 6355   5.961   0.967   4.263 -0.7437 -0.1990  0.9912
 2145TIP3   OH2 6356   2.216   7.908   2.429  0.3699  0.0373 -0.4057
 2145TIP3    H1 6357   2.248   7.857   2.354 -1.1248  1.5122 -2.1031
 2145TIP3    H2 6358   2.255   7.994   2.417 -2.3328  1.2119 -1.2829
 2146TIP3   OH2 6359   4.502   3.005   3.954 -0.4925 -0.0672  0.2257
 2146TIP3    H1 6360   4.461   2.938   3.899 -0.1896  0.9158 -1.2321
 2146TIP3    H2 6361   4.438   3.022   4.023 -0.5626 -1.8556  0.6322
 2147TIP3   OH2 6362   3.687   0.065   3.226  0.8566 -0.8699 -0.1428
 2147TIP3    H1 6363   3.656   0.120   3.154  0.4065  1.0234  1.4344
 2147TIP3    H2 6364   3.772   0.102   3.249  0.4096 -0.6149  1.1389
 2148TIP3   OH2 6365   6.282   2.605   4.276 -0.6234 -0.2410 -0.2035
 2148TIP3    H1 6366   6.375   2.582   4.282 -0.6477 -0.2198  0.3513
 2148TIP3    H2 6367   6.258   2.628   4.366 -0.5741  2.0953 -0.7504
 2149TIP3   OH2 6368   4.562   0.698   2.433 -0.1191  0.2888 -0.2441
 2149TIP3    H1 6369   4.613   0.620   2.410  0.4866  0.6584 -0.1781
 2149TIP3    H2 6370   4.580   0.710   2.526  0.9974  1.3707 -0.5803
 2150TIP3   OH2 6371   5.370   1.187   2.476 -0.3767 -0.2839  0.1553
 2150TIP3    H1 6372   5.294   1.220   2.524 -0.4602 -1.4131  0.8304
 2150TIP3    H2 6373   5.359   1.092   2.478  0.0251 -0.3675 -1.4479
 2151TIP3   OH2 6374   2.935   5.630   4.280 -0.0428  0.7855  0.3855
 2151TIP3    H1 6375   3.023   5.666   4.291 -0.9220  2.9994  0.3235
 2151TIP3    H2 6376   2.896   5.682   4.210 -1.1210 -0.7578 -0.1934
 2152TIP3   OH2 6377   5.840   0.112   5.656 -0.0492 -0.2373 -0.3955
 2152TIP3    H1 6378   5.930   0.094   5.629 -0.5292 -3.0165 -0.2576
 2152TIP3    H2 6379   5.847   0.187   5.715  2.2555 -0.7963  0.0913
 2153TIP3   OH2 6380   6.408   0.309   2.968 -0.1179  0.4248 -0.4949
 2153TIP3    H1 6381   6.362   0.393   2.959  2.0931  1.9374  1.7879
 2153TIP3    H2 6382   6.498   0.328   2.943  0.7285 -0.9349  1.4241
 2154TIP3   OH2 6383   3.062   7.637   4.982 -0.1397 -0.0442 -0.7008
 2154TIP3    H1 6384   3.155   7.638   4.958 -0.2135  1.1679 -0.9828
 2154TIP3    H2 6385   3.031   7.725   4.962 -0.8553  0.2067  1.3497
 2155TIP3   OH2 6386   3.048   7.167   2.557 -0.3389 -0.4555  0.1602
 2155TIP3    H1 6387   3.120   7.118   2.517 -0.3378 -1.7544  1.7122
 2155TIP3    H2 6388   3.085   7.200   2.640 -1.7278 -1.7433  1.3159
 2156TIP3   OH2 6389   5.608   1.350   2.469  0.3373 -0.0206  0.0247
 2156TIP3    H1 6390   5.522   1.308   2.473  0.5075 -0.4177 -0.6542
 2156TIP3    H2 6391   5.664   1.295   2.523 -0.1778  1.0598  1.7238
 2157TIP3   OH2 6392   6.850   1.572   5.091 -0.1664 -0.5497  0.3857
 2157TIP3    H1 6393   6.866   1.662   5.121 -0.1405 -0.8699  1.3558
 2157TIP3    H2 6394   6.755   1.564   5.089 -0.1775 -0.1953 -0.6420
 2158TIP3   OH2 6395   4.746   0.989   4.408  0.3597  0.3376 -0.5988
 2158TIP3    H1 6396   4.707   1.051   4.347 -0.0626  0.0427 -0.6266
 2158TIP3    H2 6397   4.672   0.952   4.456  0.7248  0.8909  0.3997
 2159TIP3   OH2 6398   2.366   8.151   2.786 -0.3384 -0.5061  0.1113
 2159TIP3    H1 6399   2.452   8.190   2.774 -0.7114  0.3156  0.0504
 2159TIP3    H2 6400   2.333   8.190   2.868 -0.2449 -1.5651  0.6628
 2160TIP3   OH2 6401   5.057   1.088   1.877 -0.3664  0.0942 -0.0275
 2160TIP3    H1 6402   4.999   1.015   1.856  0.1279 -0.4219  0.3998
 2160TIP3    H2 6403   5.134   1.048   1.916  0.4527  0.7372 -0.9356
 2161TIP3   OH2 6404   5.120   0.562   6.163  0.7343  0.7081  0.4916
 2161TIP3    H1 6405   5.088   0.597   6.246  1.4271  0.9248  0.6710
 2161TIP3    H2 6406   5.174   0.487   6.188  0.9762  0.7969  0.2456
 2162TIP3   OH2 6407   1.986   8.209   5.586  0.3884 -0.2492 -0.3350
 2162TIP3    H1 6408   1.905   8.219   5.536 -0.5835 -1.7702  0.8672
 2162TIP3    H2 6409   1.981   8.277   5.653 -0.1627 -0.6439  0.0392
 2163TIP3   OH2 6410   8.665   8.058   4.034 -0.1723  0.2738 -0.4884
 2163TIP3    H1 6411   8.703   8.015   3.958  0.9439  2.2585 -1.0971
 2163TIP3    H2 6412   8.667   8.151   4.013  2.2037  1.0825  2.7860
 2164TIP3   OH2 6413   2.470   7.510   4.337 -0.0639 -0.3607 -0.4394
 2164TIP3    H1 6414   2.556   7.474   4.315 -0.1624 -1.2365  0.5304
 2164TIP3    H2 6415   2.486   7.569   4.410 -0.4577 -1.6604  0.7392
 2165TIP3   OH2 6416   5.954   0.546   4.581  0.4296  0.3677  0.7087
 2165TIP3    H1 6417   6.042   0.585   4.578  0.2985  0.5727 -1.8700
 2165TIP3    H2 6418   5.895   0.618   4.559 -0.0122 -0.6999 -1.7314
 2166TIP3   OH2 6419   3.933   0.136   3.049 -0.1232 -0.0826  0.1100
 2166TIP3    H1 6420   3.936   0.043   3.026 -0.2737 -0.5438  1.8629
 2166TIP3    H2 6421   3.925   0.137   3.144 -1.7386  1.7237 -0.0071
 2167TIP3   OH2 6422   2.938   2.915   3.843  0.3610  0.0905  0.1649
 2167TIP3    H1 6423   2.945   2.890   3.935  0.3188  0.6158  0.3171
 2167TIP3    H2 6424   2.994   2.854   3.797 -0.0793 -0.5547  0.4699
 2168TIP3   OH2 6425   4.381   1.310   1.674  0.4487  0.2236 -0.1799
 2168TIP3    H1 6426   4.355   1.395   1.638 -3.0268  1.9743  5.7497
 2168TIP3    H2 6427   4.457   1.329   1.729 -0.3669 -0.4192  1.2078
 2169TIP3   OH2 6428   4.056   1.585   2.627  0.3915  0.5119 -0.2184
 2169TIP3    H1 6429   3.999   1.572   2.703  1.7456 -3.5161  0.2394
 2169TIP3    H2 6430   4.145   1.584   2.663  1.1307 -2.7929 -1.8657
 2170TIP3   OH2 6431   0.833   7.742   2.613  0.2010 -0.0142 -0.4615
 2170TIP3    H1 6432   0.833   7.832   2.644 -1.0045  0.3508 -1.4680
 2170TIP3    H2 6433   0.757   7.701   2.655 -0.5927  0.0864 -1.7640
 2171TIP3   OH2 6434   3.680   1.768   0.971  0.0770 -0.4024 -0.8161
 2171TIP3    H1 6435   3.677   1.686   0.921  0.5194 -0.3109 -0.9920
 2171TIP3    H2 6436   3.660   1.836   0.907  0.9234 -0.2581 -0.9354
 2172TIP3   OH2 6437   4.190   1.190   3.499 -0.0558 -0.1812  0.3726
 2172TIP3    H1 6438   4.166   1.278   3.469  0.7956  0.0206  0.2660
 2172TIP3    H2 6439   4.229   1.148   3.422 -0.4548 -0.6438  0.4275
 2173TIP3   OH2 6440   3.915   1.326   2.393  0.4980 -0.4723  0.1990
 2173TIP3    H1 6441   3.945   1.235   2.394  1.8085 -0.1364 -2.9077
 2173TIP3    H2 6442   3.970   1.368   2.327  0.8259  2.9144  2.5022
 2174TIP3   OH2 6443   7.507   0.991   2.159 -0.1850  0.2487 -0.0435
 2174TIP3    H1 6444   7.458   1.062   2.200  0.7496  1.1563 -0.4688
 2174TIP3    H2 6445   7.484   0.913   2.210 -0.7933  0.9499  0.7737
 2175TIP3   OH2 6446   4.087   1.087   2.354 -0.0902  0.0052  0.6058
 2175TIP3    H1 6447   4.131   1.098   2.439  1.5953 -2.4856  0.1136
 2175TIP3    H2 6448   4.072   0.992   2.347 -0.3788  0.1941 -1.7865
 2176TIP3   OH2 6449   3.230   0.449   2.864 -0.2062 -0.1689  0.1419
 2176TIP3    H1 6450   3.270   0.519   2.916 -1.6682  1.1447 -0.4794
 2176TIP3    H2 6451   3.256   0.469   2.774 -1.8204  0.3989 -0.2044
 2177TIP3   OH2 6452   5.099   2.193   3.193 -0.1968 -0.7265  0.6184
 2177TIP3    H1 6453   5.101   2.103   3.227 -3.7925 -1.1550 -0.0894
 2177TIP3    H2 6454   5.130   2.185   3.103  0.8921 -1.0059  1.0123
 2178TIP3   OH2 6455   3.413   7.293   1.233 -0.6685  0.0893  0.2267
 2178TIP3    H1 6456   3.429   7.293   1.139 -0.9424  0.2280  0.1810
 2178TIP3    H2 6457   3.402   7.385   1.256  0.7101  0.1785  0.6157
 2179TIP3   OH2 6458   6.540   0.941   1.631 -0.4560  0.1508 -0.1124
 2179TIP3    H1 6459   6.560   1.034   1.636  0.7618 -0.0808 -0.6505
 2179TIP3    H2 6460   6.573   0.905   1.713 -0.4928  0.1111 -0.1153
 2180TIP3   OH2 6461   0.197   1.419   2.140 -0.2761  0.4540 -0.6036
 2180TIP3    H1 6462   0.218   1.368   2.219  2.7382  1.1204 -0.9008
 2180TIP3    H2 6463   0.197   1.510   2.170  0.2773  0.6710 -1.2573
 2181TIP3   OH2 6464   6.209   1.853   3.451 -0.6044  0.7244  0.4980
 2181TIP3    H1 6465   6.131   1.826   3.500 -1.7626  2.1698 -0.5061
 2181TIP3    H2 6466   6.189   1.831   3.360  0.9120 -0.5404  0.4521
 2182TIP3   OH2 6467   4.384   6.612   2.133  0.0103 -0.2506 -0.0330
 2182TIP3    H1 6468   4.456   6.550   2.122  0.0255 -0.1890 -0.2827
 2182TIP3    H2 6469   4.423   6.697   2.118 -0.0113 -0.1784  0.3079
 2183TIP3   OH2 6470   4.639   1.602   2.558 -0.2898 -0.3480 -0.1089
 2183TIP3    H1 6471   4.724   1.634   2.590 -0.2437 -0.1093 -0.4714
 2183TIP3    H2 6472   4.575   1.656   2.604 -0.1955  0.6300 -1.1187
 2184TIP3   OH2 6473   5.127   1.092   3.447  0.0639 -0.2423  0.2833
 2184TIP3    H1 6474   5.200   1.154   3.459  0.5461 -0.6377 -0.5518
 2184TIP3    H2 6475   5.157   1.033   3.378 -1.2055 -0.1850 -0.3272
 2185TIP3   OH2 6476   3.359   8.110   4.395  0.3621  0.2492  0.1452
 2185TIP3    H1 6477   3.436   8.125   4.450  0.2962  1.8819 -0.1802
 2185TIP3    H2 6478   3.378   8.028   4.348  1.7485  0.4593  0.3247
 2186TIP3   OH2 6479   3.807   6.942   1.651 -0.2410 -0.4782  0.7229
 2186TIP3    H1 6480   3.721   6.906   1.667 -0.6386 -0.6188 -1.5594
 2186TIP3    H2 6481   3.794   7.037   1.652 -1.1211 -0.4682 -2.7155
 2187TIP3   OH2 6482   6.704   0.771   3.276  0.0275 -0.0308  0.6020
 2187TIP3    H1 6483   6.685   0.691   3.325  0.4667 -0.4450  0.0979
 2187TIP3    H2 6484   6.711   0.742   3.185 -0.8130  0.7409  0.2886
 2188TIP3   OH2 6485   2.272   8.340   3.327  0.0872  0.2357 -0.2508
 2188TIP3    H1 6486   2.344   8.400   3.346  2.0774 -2.0708 -0.2181
 2188TIP3    H2 6487   2.280   8.272   3.395 -2.3592  0.1407 -0.0370
 2189TIP3   OH2 6488   7.359   1.761   1.861  0.4241  0.2568  0.7074
 2189TIP3    H1 6489   7.330   1.828   1.923 -0.1078  1.3466 -0.7089
 2189TIP3    H2 6490   7.287   1.753   1.799  0.9446 -0.8503  0.2403
 2190TIP3   OH2 6491   3.697   7.755   0.538 -0.1113 -0.1930  0.0496
 2190TIP3    H1 6492   3.773   7.757   0.596 -1.6755 -0.7460  2.1888
 2190TIP3    H2 6493   3.625   7.785   0.593 -1.0668  2.4930 -2.5622
 2191TIP3   OH2 6494   7.089   1.620   3.482  0.5449 -0.5180  0.3023
 2191TIP3    H1 6495   7.155   1.663   3.427  0.0079  0.8133  0.6697
 2191TIP3    H2 6496   7.023   1.589   3.420  1.1291 -1.1819  0.0016
 2192TIP3   OH2 6497   6.155   0.458   2.967  0.3517 -0.1512  0.4367
 2192TIP3    H1 6498   6.152   0.369   2.933  1.2743 -0.4452  1.1181
 2192TIP3    H2 6499   6.124   0.451   3.057 -1.3034  0.4993 -0.0649
 2193TIP3   OH2 6500   4.943   0.426   2.166  0.4389 -0.8650  0.6833
 2193TIP3    H1 6501   5.008   0.356   2.166  1.0543 -0.4342  4.6873
 2193TIP3    H2 6502   4.994   0.506   2.167 -0.1957 -0.4510 -0.0425
 2194TIP3   OH2 6503   3.371   7.494   2.709 -0.0352 -0.1758 -0.4849
 2194TIP3    H1 6504   3.360   7.399   2.719 -0.2592 -0.1402 -0.3905
 2194TIP3    H2 6505   3.427   7.504   2.632  2.7198 -0.5016  1.4252
 2195TIP3   OH2 6506   5.763   1.418   1.121  0.2470 -0.3895 -0.1545
 2195TIP3    H1 6507   5.790   1.508   1.137  1.0181 -0.6598  0.0800
 2195TIP3    H2 6508   5.703   1.398   1.193 -0.5666  0.1985 -0.6579
 2196TIP3   OH2 6509   3.533   7.952   1.689 -0.3181 -0.4182 -0.8164
 2196TIP3    H1 6510   3.570   8.010   1.623  3.2713  1.4030  2.6064
 2196TIP3    H2 6511   3.528   8.005   1.768  0.2980 -3.9087  1.6883
 2197TIP3   OH2 6512   6.621   1.953   0.165  0.3661  0.3497  0.7056
 2197TIP3    H1 6513   6.613   1.859   0.182 -0.7686  0.6557  1.8708
 2197TIP3    H2 6514   6.538   1.977   0.124  0.6823  0.8325  0.3458
 2198TIP3   OH2 6515   7.089   0.772   2.370  0.1917 -0.2350  0.5517
 2198TIP3    H1 6516   6.999   0.786   2.339  0.0907 -1.3893  0.3058
 2198TIP3    H2 6517   7.131   0.857   2.360 -0.5003 -0.0155 -0.5521
 2199TIP3   OH2 6518   5.435   7.594   2.327  0.5678 -0.5459 -0.3436
 2199TIP3    H1 6519   5.361   7.651   2.303  0.7177  0.5240  1.6449
 2199TIP3    H2 6520   5.511   7.651   2.322  0.8553 -0.8345  0.6546
 2200TIP3   OH2 6521   5.077   0.042   2.037 -0.2531 -0.6437  0.0054
 2200TIP3    H1 6522   5.167   0.009   2.031 -0.8197 -2.0503 -0.9446
 2200TIP3    H2 6523   5.085   0.125   2.084  1.6352 -0.3905 -0.7228
 2201TIP3   OH2 6524   6.284   0.643   3.830  0.2683 -0.1762  0.0958
 2201TIP3    H1 6525   6.275   0.737   3.811  0.0701 -0.0052  1.0027
 2201TIP3    H2 6526   6.306   0.640   3.923 -0.0305 -1.0442  0.1388
 2202TIP3   OH2 6527   4.906   1.909   3.520  0.7534  0.2517 -0.4105
 2202TIP3    H1 6528   4.960   1.910   3.441  1.9864  1.4908  0.4068
 2202TIP3    H2 6529   4.858   1.992   3.517  2.6018  1.4549  1.2758
 2203TIP3   OH2 6530   6.144   0.449   4.116  0.3582  0.2353  0.0562
 2203TIP3    H1 6531   6.154   0.543   4.105  0.5698  0.1176 -0.7893
 2203TIP3    H2 6532   6.198   0.411   4.047 -1.5925 -0.4610 -1.1323
 2204TIP3   OH2 6533   5.425   0.779   2.851  0.0177  1.0239 -0.9323
 2204TIP3    H1 6534   5.403   0.699   2.898  0.0413  0.3733 -2.0175
 2204TIP3    H2 6535   5.340   0.821   2.834  0.0045  1.2203 -0.3708
 2205TIP3   OH2 6536   6.335   0.655   4.120  0.1645  0.4693 -0.1143
 2205TIP3    H1 6537   6.280   0.703   4.182  0.1873 -0.2492  0.4728
 2205TIP3    H2 6538   6.376   0.587   4.173 -0.4142 -0.6315 -1.0709
 2206TIP3   OH2 6539   4.386   7.076   2.936 -0.2458  0.6264  0.1685
 2206TIP3    H1 6540   4.469   7.109   2.903 -0.2650  0.9011  0.3999
 2206TIP3    H2 6541   4.371   6.996   2.885  0.6661  0.0049  0.8658
 2207TIP3   OH2 6542   3.814   2.141   3.226 -0.2323  0.3982 -0.5418
 2207TIP3    H1 6543   3.797   2.202   3.298  0.7991  1.8229 -1.4881
 2207TIP3    H2 6544   3.737   2.085   3.225 -1.3516  1.8661  0.1775
 2208TIP3   OH2 6545   3.350   0.593   3.905 -0.6483  0.0170 -0.2051
 2208TIP3    H1 6546   3.328   0.685   3.919  1.4338  0.5244 -0.0348
 2208TIP3    H2 6547   3.402   0.593   3.824  0.0995 -0.8800  0.2706
 2209TIP3   OH2 6548   4.630   7.166   0.452 -0.5387  0.5348  0.4509
 2209TIP3    H1 6549   4.660   7.238   0.396 -2.4041  0.1813 -1.0474
 2209TIP3    H2 6550   4.544   7.194   0.482 -1.8406 -1.6235 -1.1921
 2210TIP3   OH2 6551   7.674   0.080   4.296 -0.1916  0.1411  0.1182
 2210TIP3    H1 6552   7.705   0.059   4.385 -0.6572 -0.0154  0.2441
 2210TIP3    H2 6553   7.618   0.006   4.272  0.8956 -0.4129 -0.7817
 2211TIP3   OH2 6554   5.880   2.278   3.011  0.2675  0.1511 -0.7963
 2211TIP3    H1 6555   5.910   2.192   3.039  2.3157  1.4326  1.1850
 2211TIP3    H2 6556   5.794   2.288   3.051  0.0465 -0.9261 -0.9834
 2212TIP3   OH2 6557   6.762   0.999   3.411  0.2356  0.1818  0.4842
 2212TIP3    H1 6558   6.759   0.915   3.366  0.1959  0.4942 -0.1075
 2212TIP3    H2 6559   6.729   0.981   3.499 -2.4289  0.0881 -0.4744
 2213TIP3   OH2 6560   5.017   0.304   3.812 -0.3618  0.0531 -0.1065
 2213TIP3    H1 6561   5.072   0.282   3.737 -0.0119 -0.5771  0.3332
 2213TIP3    H2 6562   5.009   0.400   3.809  0.7657  0.1460 -0.1694
 2214TIP3   OH2 6563   8.531   2.649   2.679 -0.2648 -0.0711  0.2133
 2214TIP3    H1 6564   8.556   2.563   2.646 -0.7843  0.3989 -1.4767
 2214TIP3    H2 6565   8.551   2.709   2.608 -0.1189  1.1862  1.2892
 2215TIP3   OH2 6566   5.328   0.803   3.988 -0.0891 -0.3337  0.2158
 2215TIP3    H1 6567   5.413   0.763   4.009 -0.8232 -1.6009  0.8159
 2215TIP3    H2 6568   5.290   0.825   4.073 -0.1398  0.7419 -0.0762
 2216TIP3   OH2 6569   5.492   1.666   1.051 -0.0794  0.8537  0.5705
 2216TIP3    H1 6570   5.502   1.601   0.982  0.3633 -1.3935  2.6991
 2216TIP3    H2 6571   5.566   1.726   1.038  0.5037 -0.0446 -0.3483
 2217TIP3   OH2 6572   8.011   3.874   1.964  0.3148 -0.3108  0.0530
 2217TIP3    H1 6573   8.099   3.878   2.003 -0.1011 -1.0336  1.0853
 2217TIP3    H2 6574   7.966   3.950   2.001  1.0187  1.0670 -1.8202
 2218TIP3   OH2 6575   6.163   1.244   3.413  0.6971  0.1845 -0.6285
 2218TIP3    H1 6576   6.148   1.170   3.355 -2.3417 -0.1110  0.4588
 2218TIP3    H2 6577   6.079   1.257   3.458  2.6534  1.0021  2.9706
 2219TIP3   OH2 6578   7.993   0.534   2.060 -0.0148 -0.0081 -0.2283
 2219TIP3    H1 6579   8.053   0.490   2.120 -1.3782  0.2717  1.3989
 2219TIP3    H2 6580   8.044   0.549   1.981  1.7175 -0.7393  0.7250
 2220TIP3   OH2 6581   6.533   1.801   2.616 -0.4057 -0.5033 -0.3049
 2220TIP3    H1 6582   6.565   1.711   2.617  1.0450 -0.0617 -3.1290
 2220TIP3    H2 6583   6.542   1.830   2.707 -1.3143 -3.2987  0.7657
 2221TIP3   OH2 6584   7.276   0.181   2.324 -0.1880 -0.6007 -0.0617
 2221TIP3    H1 6585   7.263   0.100   2.275 -1.0123 -1.0436  0.8605
 2221TIP3    H2 6586   7.237   0.249   2.270 -0.8695 -1.0499 -0.1342
 2222TIP3   OH2 6587   0.765   6.561   6.460  0.3122  0.2676 -0.4545
 2222TIP3    H1 6588   0.748   6.563   6.554 -2.0824  0.1448 -0.8514
 2222TIP3    H2 6589   0.824   6.486   6.447 -0.7118 -0.7610  0.7392
 2223TIP3   OH2 6590   7.115   0.898   4.644  0.1692 -0.1857 -0.0016
 2223TIP3    H1 6591   7.113   0.854   4.729  0.0861  0.8761  0.5560
 2223TIP3    H2 6592   7.060   0.976   4.656  2.5521  1.5526 -0.1505
 2224TIP3   OH2 6593   6.106   2.150   2.064  0.3879  0.3494  0.1405
 2224TIP3    H1 6594   6.077   2.161   2.155  1.4176 -0.2230  0.5419
 2224TIP3    H2 6595   6.192   2.192   2.061 -0.3138  1.7472 -0.9653
 2225TIP3   OH2 6596   5.189   0.980   2.369  0.4156 -0.2766  0.3300
 2225TIP3    H1 6597   5.106   0.945   2.336  1.8105 -0.8581 -2.7324
 2225TIP3    H2 6598   5.253   0.911   2.350  2.0542  1.2437  0.2118
 2226TIP3   OH2 6599   4.779   6.990   3.155  0.0461  0.8680  0.4615
 2226TIP3    H1 6600   4.800   6.981   3.062 -2.9297 -2.3054  0.0052
 2226TIP3    H2 6601   4.737   7.076   3.162 -0.4101  0.8008 -1.2813
 2227TIP3   OH2 6602   6.757   1.699   4.374  0.0780 -0.0051  0.5135
 2227TIP3    H1 6603   6.765   1.700   4.278  0.3931  2.7774  0.5156
 2227TIP3    H2 6604   6.815   1.629   4.402  1.4574  0.3773 -1.2433
 2228TIP3   OH2 6605   2.559   8.184   1.975  0.2015 -0.3511 -0.7803
 2228TIP3    H1 6606   2.574   8.264   2.025  1.9679 -0.7572 -0.6291
 2228TIP3    H2 6607   2.641   8.169   1.928 -1.2848 -0.1954 -3.5159
 2229TIP3   OH2 6608   5.485   0.186   5.286  0.9502 -0.5148  0.2237
 2229TIP3    H1 6609   5.520   0.150   5.367  0.1794 -0.7457  0.4617
 2229TIP3    H2 6610   5.391   0.167   5.290  0.7419  0.3904 -0.2438
 2230TIP3   OH2 6611   6.893   0.137   2.272  0.3629 -0.1360 -0.2978
 2230TIP3    H1 6612   6.905   0.050   2.310  3.2785 -0.5545 -2.0658
 2230TIP3    H2 6613   6.909   0.197   2.345 -1.5871 -1.0372  0.9089
 2231TIP3   OH2 6614   5.266   1.630   5.861  0.0308 -0.0896  0.0972
 2231TIP3    H1 6615   5.283   1.537   5.876 -1.1853 -0.4966 -0.9934
 2231TIP3    H2 6616   5.175   1.633   5.831 -0.1436  1.5208  0.7638
 2232TIP3   OH2 6617   5.477   0.308   1.881  0.0553 -0.0945  0.3783
 2232TIP3    H1 6618   5.534   0.251   1.934  1.2137  0.2080 -0.5109
 2232TIP3    H2 6619   5.455   0.254   1.804 -0.7067 -0.1421  0.6296
 2233TIP3   OH2 6620   4.838   8.285   1.904 -0.2577 -0.1014  0.0695
 2233TIP3    H1 6621   4.919   8.310   1.947  0.6733  0.1265 -1.7634
 2233TIP3    H2 6622   4.866   8.244   1.821 -1.9696 -0.8607 -0.1633
 2234TIP3   OH2 6623   6.113   1.402   2.063  0.6272 -0.1284 -0.1818
 2234TIP3    H1 6624   6.087   1.388   2.154  2.5174 -0.1063  0.3947
 2234TIP3    H2 6625   6.146   1.317   2.035  1.5014  0.2614 -0.3412
 2235TIP3   OH2 6626   5.212   0.360   0.514  0.1123  0.2259  0.1737
 2235TIP3    H1 6627   5.228   0.432   0.574  0.1502  0.8498 -0.5707
 2235TIP3    H2 6628   5.250   0.284   0.556  0.1109  0.6549  0.9473
 2236TIP3   OH2 6629   4.135   0.130   1.256  0.3879 -0.6074  0.1112
 2236TIP3    H1 6630   4.186   0.211   1.264 -1.5386  0.8091 -1.5818
 2236TIP3    H2 6631   4.044   0.157   1.266 -0.2859 -2.5601 -0.4517
 2237TIP3   OH2 6632   6.253   0.755   3.143 -0.4359 -0.2206  0.0714
 2237TIP3    H1 6633   6.279   0.712   3.062 -1.6862  0.9680 -0.9813
 2237TIP3    H2 6634   6.165   0.787   3.126 -0.0708  1.5322  1.3171
 2238TIP3   OH2 6635   3.068   7.932   4.376 -0.3408  0.1752  0.3141
 2238TIP3    H1 6636   3.083   7.851   4.328 -0.8552 -0.6443  1.4919
 2238TIP3    H2 6637   2.985   7.965   4.342 -0.3007  0.0303  0.0737
 2239TIP3   OH2 6638   2.690   7.066   3.969  0.1507  0.5465 -0.0768
 2239TIP3    H1 6639   2.773   7.044   4.012  0.4502  1.4178 -0.1890
 2239TIP3    H2 6640   2.715   7.126   3.898 -0.5588  0.7274 -0.1810
 2240TIP3   OH2 6641   6.040   0.414   3.541  0.6619  0.0643 -0.2976
 2240TIP3    H1 6642   5.957   0.368   3.551  0.1380  1.1400  0.3582
 2240TIP3    H2 6643   6.100   0.367   3.599  0.0604  0.3662  0.5781
 2241TIP3   OH2 6644   3.854   0.401   3.750 -0.1588 -0.3902 -0.0810
 2241TIP3    H1 6645   3.909   0.325   3.769  1.7636  0.8732 -0.4209
 2241TIP3    H2 6646   3.826   0.431   3.836  2.1650  0.7024  0.3528
 2242TIP3   OH2 6647   6.215   0.847   2.734 -0.5313  0.1289  0.0753
 2242TIP3    H1 6648   6.296   0.799   2.717 -1.3925 -0.6806 -1.9245
 2242TIP3    H2 6649   6.242   0.939   2.740  0.6033 -0.1859 -0.1150
 2243TIP3   OH2 6650   3.098   8.134   4.570 -0.6468  0.0372  0.0632
 2243TIP3    H1 6651   3.104   8.052   4.521  1.9324 -0.2940  0.8345
 2243TIP3    H2 6652   3.079   8.200   4.504  0.8075 -0.6961 -1.1274
 2244TIP3   OH2 6653   5.738   1.703   3.144  0.0422 -0.1035 -0.1518
 2244TIP3    H1 6654   5.748   1.629   3.085  1.3232 -0.5841  0.6527
 2244TIP3    H2 6655   5.753   1.780   3.089 -0.0263 -0.4944 -0.7194
 2245TIP3   OH2 6656   3.947   7.554   3.019 -0.2600  0.2124  0.6941
 2245TIP3    H1 6657   4.019   7.580   3.077  0.7529  1.9966 -1.3022
 2245TIP3    H2 6658   3.990   7.510   2.946 -1.0374  2.3513 -1.1203
 2246TIP3   OH2 6659   2.791   6.788   2.541  0.2489  0.2414  0.1458
 2246TIP3    H1 6660   2.781   6.883   2.536  0.5321  0.3358  1.1283
 2246TIP3    H2 6661   2.703   6.753   2.531 -0.2889  0.7602  2.7084
 2247TIP3   OH2 6662   6.377   0.527   3.264 -0.3855 -0.2668 -0.1711
 2247TIP3    H1 6663   6.364   0.554   3.354  1.1291 -0.2608  0.0406
 2247TIP3    H2 6664   6.331   0.594   3.212 -0.5027  0.2049  0.5382
 2248TIP3   OH2 6665   4.374   0.364   5.610  0.2818 -0.3152  0.0852
 2248TIP3    H1 6666   4.411   0.332   5.528 -0.8350 -0.1885 -0.4756
 2248TIP3    H2 6667   4.373   0.459   5.600  2.2282 -0.1508  1.1625
 2249TIP3   OH2 6668   0.535   2.922   5.200  0.0350  0.6358 -0.5176
 2249TIP3    H1 6669   0.510   2.835   5.169 -0.3664 -0.1450  1.8563
 2249TIP3    H2 6670   0.490   2.931   5.285 -0.9197  3.6539 -1.2777
 2250TIP3   OH2 6671   0.505   6.444   6.437 -0.4125 -0.1555 -0.5140
 2250TIP3    H1 6672   0.586   6.489   6.463  0.0471 -1.3008  0.0553
 2250TIP3    H2 6673   0.435   6.502   6.468  0.1665 -0.2471  0.9885
 2251TIP3   OH2 6674   6.153   2.278   2.648  0.0333  0.0009  0.6435
 2251TIP3    H1 6675   6.240   2.242   2.661 -0.0244 -1.4354 -2.5237
 2251TIP3    H2 6676   6.163   2.372   2.662  2.2961 -0.0248 -0.6941
 2252TIP3   OH2 6677   6.384   3.483   2.418 -0.4095  0.6376  0.5383
 2252TIP3    H1 6678   6.388   3.466   2.324  0.0542  0.5558  0.5693
 2252TIP3    H2 6679   6.461   3.536   2.437 -1.3836  2.0576  0.6016
 2253TIP3   OH2 6680   5.442   3.415   1.102 -0.5145  0.3082  0.3615
 2253TIP3    H1 6681   5.378   3.381   1.165 -0.7294  0.9909  0.5208
 2253TIP3    H2 6682   5.481   3.337   1.062 -0.9724 -0.1186  0.7432
 2254TIP3   OH2 6683   5.250   1.615   3.495 -0.5452 -0.0855  0.1095
 2254TIP3    H1 6684   5.154   1.616   3.499 -0.5099 -1.3255  1.9210
 2254TIP3    H2 6685   5.269   1.579   3.409 -1.6757  1.9228 -1.0245
 2255TIP3   OH2 6686   3.430   8.334   3.307 -0.2200  0.1906 -0.2842
 2255TIP3    H1 6687   3.375   8.411   3.292 -0.8996 -0.3223 -0.4835
 2255TIP3    H2 6688   3.509   8.350   3.255 -0.8018  0.2894 -1.1390
 2256TIP3   OH2 6689   7.184   1.465   2.205 -0.1503  0.0659  0.6852
 2256TIP3    H1 6690   7.251   1.502   2.147  1.0866 -3.7517 -0.4814
 2256TIP3    H2 6691   7.101   1.487   2.163  0.6946 -1.9222 -2.1965
 2257TIP3   OH2 6692   6.897   0.311   4.551 -0.3195  0.3948 -0.0163
 2257TIP3    H1 6693   6.976   0.365   4.552 -1.5454  2.2187 -0.1629
 2257TIP3    H2 6694   6.907   0.253   4.626  2.3464 -1.1580 -1.4829
 2258TIP3   OH2 6695   6.024   0.660   1.419 -0.4997 -0.1382  0.4289
 2258TIP3    H1 6696   5.931   0.640   1.433 -0.4068  0.0952  1.4315
 2258TIP3    H2 6697   6.047   0.718   1.492  0.8267 -1.3953  1.0371
 2259TIP3   OH2 6698   6.533   1.092   1.254 -0.3133  0.2103 -0.1065
 2259TIP3    H1 6699   6.614   1.133   1.225  0.3718  0.0102  1.4801
 2259TIP3    H2 6700   6.486   1.162   1.300 -0.3229 -0.0688  0.3191
 2260TIP3   OH2 6701   4.227   7.341   1.463 -0.4062  0.0998  0.1729
 2260TIP3    H1 6702   4.296   7.298   1.514 -0.6231 -0.7178 -0.2253
 2260TIP3    H2 6703   4.147   7.326   1.513 -0.4495  0.2482  0.1501
 2261TIP3   OH2 6704   7.285   0.277   0.985  0.3677  0.3435 -0.1628
 2261TIP3    H1 6705   7.196   0.246   0.969  1.1471 -1.8086 -0.4417
 2261TIP3    H2 6706   7.341   0.201   0.970  2.2728  1.6561  0.0067
 2262TIP3   OH2 6707   2.684   1.609   2.200  0.1530 -0.1244  0.2742
 2262TIP3    H1 6708   2.686   1.702   2.179  0.5756 -0.2598 -0.3055
 2262TIP3    H2 6709   2.709   1.604   2.292 -0.7289  0.4029  0.5447
 2263TIP3   OH2 6710   1.990   8.199   3.199 -0.3053 -0.0967 -0.1104
 2263TIP3    H1 6711   1.953   8.116   3.168 -2.7144 -0.0987  2.5692
 2263TIP3    H2 6712   1.966   8.202   3.292 -0.7319  3.8503 -0.2907
 2264TIP3   OH2 6713   6.715   0.587   3.531 -0.3164  0.1754  0.0677
 2264TIP3    H1 6714   6.625   0.570   3.561 -0.4692 -0.3231 -0.6342
 2264TIP3    H2 6715   6.748   0.500   3.506  0.5987  0.2645  0.9497
 2265TIP3   OH2 6716   2.058   7.751   1.985 -0.4210 -0.1274 -0.5617
 2265TIP3    H1 6717   2.040   7.806   2.061  0.7832  0.7598 -0.8980
 2265TIP3    H2 6718   2.143   7.782   1.953 -0.5201 -1.0601 -1.7581
 2266TIP3   OH2 6719   4.636   2.726   0.415 -0.6133  0.7569  0.1532
 2266TIP3    H1 6720   4.704   2.791   0.430  0.6463 -0.4968  0.0920
 2266TIP3    H2 6721   4.620   2.687   0.501  1.3569 -1.3962 -0.3832
 2267TIP3   OH2 6722   7.493   0.488   2.049 -0.0815  0.0572 -0.1450
 2267TIP3    H1 6723   7.470   0.540   1.972 -0.0637 -0.6317 -0.6155
 2267TIP3    H2 6724   7.588   0.480   2.044 -0.0238  0.4808  0.2521
 2268TIP3   OH2 6725   6.413   0.650   2.659 -0.2271 -0.2745  0.3811
 2268TIP3    H1 6726   6.502   0.617   2.648 -0.3529 -0.2617 -0.7264
 2268TIP3    H2 6727   6.393   0.693   2.575 -0.8377  0.7616  1.0506
 2269TIP3   OH2 6728   5.148   1.402   4.472  0.2140  0.3040 -0.1917
 2269TIP3    H1 6729   5.075   1.340   4.478  0.5214 -0.0021  0.4093
 2269TIP3    H2 6730   5.150   1.427   4.380 -1.5720  1.4198  0.0421
 2270TIP3   OH2 6731   3.472   8.266   2.956 -0.1846 -0.1243  0.2715
 2270TIP3    H1 6732   3.456   8.187   2.906  2.0670 -0.4219 -0.0533
 2270TIP3    H2 6733   3.470   8.337   2.891  1.9925 -0.4255 -0.1700
 2271TIP3   OH2 6734   5.125   0.382   1.304 -0.4116  0.0699 -0.6133
 2271TIP3    H1 6735   5.118   0.355   1.212 -0.6902 -0.5925 -0.3993
 2271TIP3    H2 6736   5.044   0.431   1.320  0.0676  1.0064 -0.9836
 2272TIP3   OH2 6737   5.600   4.710   7.206 -0.5055  0.7116  0.1637
 2272TIP3    H1 6738   5.673   4.650   7.219  0.9439  2.3331 -0.3076
 2272TIP3    H2 6739   5.588   4.752   7.291 -1.0385  0.2921  0.2984
 2273TIP3   OH2 6740   7.253   2.361   1.517  0.2160  0.0052  0.2624
 2273TIP3    H1 6741   7.168   2.376   1.475  0.5592  1.1191 -0.0275
 2273TIP3    H2 6742   7.314   2.416   1.469  1.2629 -1.4019 -0.0518
 2274TIP3   OH2 6743   3.448   1.489   3.110  0.0972 -0.1673 -0.0075
 2274TIP3    H1 6744   3.537   1.483   3.074  0.5645 -0.4236  1.1747
 2274TIP3    H2 6745   3.409   1.563   3.064  1.4926  1.0156  0.6348
 2275TIP3   OH2 6746   4.892   2.032   5.156  0.5573 -0.1941 -0.8056
 2275TIP3    H1 6747   4.945   1.956   5.179  1.8389  1.6318  2.6240
 2275TIP3    H2 6748   4.950   2.107   5.168 -2.4777  1.7994  2.4012
 2276TIP3   OH2 6749   6.635   2.616   2.985 -0.1499  0.0605 -0.0556
 2276TIP3    H1 6750   6.567   2.627   2.919  0.0906 -1.5416 -0.5823
 2276TIP3    H2 6751   6.717   2.630   2.938 -0.0825  1.8909  0.5562
 2277TIP3   OH2 6752   6.777   1.153   1.128  0.3251  0.3917  0.4056
 2277TIP3    H1 6753   6.857   1.199   1.154  0.1442  0.3424  1.0539
 2277TIP3    H2 6754   6.785   1.143   1.033  1.6280 -0.6289  0.6120
 2278TIP3   OH2 6755   6.065   0.287   2.704  0.2186 -0.5603 -0.2993
 2278TIP3    H1 6756   5.992   0.229   2.683  0.5583 -0.8699 -0.6076
 2278TIP3    H2 6757   6.113   0.296   2.622  0.1033  0.2459 -0.2832
 2279TIP3   OH2 6758   6.727   0.636   1.839  0.2444  0.0764 -0.0044
 2279TIP3    H1 6759   6.822   0.619   1.839  0.2100 -0.5464 -3.8455
 2279TIP3    H2 6760   6.719   0.728   1.863  2.1342  1.1508 -3.2271
 2280TIP3   OH2 6761   4.304   2.539   4.305  0.1916  0.3179 -0.6854
 2280TIP3    H1 6762   4.370   2.475   4.280 -0.0658 -0.3353  0.2898
 2280TIP3    H2 6763   4.292   2.526   4.399 -2.1137 -0.3260 -1.0327
 2281TIP3   OH2 6764   4.444   8.002   0.996  0.9005  0.5524  0.0946
 2281TIP3    H1 6765   4.496   7.981   1.073 -0.7780  1.0125  1.3614
 2281TIP3    H2 6766   4.417   8.093   1.008  0.2003  0.4700 -0.7695
 2282TIP3   OH2 6767   7.308   0.958   3.045 -0.7413  0.4813  0.1591
 2282TIP3    H1 6768   7.246   1.023   3.010  1.9034  2.7286 -0.5339
 2282TIP3    H2 6769   7.324   0.899   2.971 -3.2496 -1.1455  0.8264
 2283TIP3   OH2 6770   6.380   0.173   0.146  0.3666 -0.7652 -0.2069
 2283TIP3    H1 6771   6.342   0.128   0.222  1.6621 -0.5443  0.5915
 2283TIP3    H2 6772   6.475   0.159   0.155  0.9198  2.9723  0.6434
 2284TIP3   OH2 6773   2.493   8.382   2.172  0.1153  0.2287 -0.2984
 2284TIP3    H1 6774   2.534   8.343   2.249  0.1411  0.8321 -0.0045
 2284TIP3    H2 6775   2.414   8.330   2.158  0.0696  0.1643  0.1820
 2285TIP3   OH2 6776   4.486   7.713   2.840 -0.1681 -0.5532 -0.6188
 2285TIP3    H1 6777   4.464   7.623   2.862  0.3124 -0.6423 -0.4825
 2285TIP3    H2 6778   4.421   7.739   2.775 -1.0819 -0.5776  0.2664
 2286TIP3   OH2 6779   3.097   6.463   2.567 -0.2674  0.1705  0.8434
 2286TIP3    H1 6780   3.084   6.557   2.580 -0.2416  0.0613  1.7203
 2286TIP3    H2 6781   3.017   6.433   2.524  0.7528  1.0163 -1.7134
 2287TIP3   OH2 6782   5.800   0.105   4.338 -0.1639  0.5869 -0.1101
 2287TIP3    H1 6783   5.829   0.153   4.415  2.0588 -0.3522 -0.3250
 2287TIP3    H2 6784   5.835   0.154   4.264  2.2034 -1.3312 -0.3291
 2288TIP3   OH2 6785   7.130   0.769   3.304  0.2048 -0.1060  0.0042
 2288TIP3    H1 6786   7.056   0.818   3.267  0.2370 -0.3911 -0.4435
 2288TIP3    H2 6787   7.129   0.685   3.257  1.8499  0.5348 -1.2058
 2289TIP3   OH2 6788   6.922   0.909   3.138 -0.2867  0.0257  0.1809
 2289TIP3    H1 6789   6.942   0.980   3.077 -1.0926 -1.0416 -1.3686
 2289TIP3    H2 6790   6.849   0.942   3.190  0.1350  0.7904  0.2964
 2290TIP3   OH2 6791   2.614   7.406   5.088 -0.1306 -0.2456  0.4009
 2290TIP3    H1 6792   2.672   7.355   5.145 -1.0358 -1.5826  0.1631
 2290TIP3    H2 6793   2.673   7.454   5.030  0.7560 -1.3278  0.3809
 2291TIP3   OH2 6794   4.908   0.471   0.912 -0.1324 -0.1007  0.5392
 2291TIP3    H1 6795   4.970   0.542   0.897 -0.7264  0.6959  1.7796
 2291TIP3    H2 6796   4.823   0.515   0.920 -0.4123 -0.8761  1.9552
 2292TIP3   OH2 6797   6.571   0.411   1.889 -0.3478  0.2128  0.6839
 2292TIP3    H1 6798   6.628   0.484   1.864 -1.1634 -0.0109 -2.0263
 2292TIP3    H2 6799   6.627   0.334   1.887  0.2594  0.5851  2.4730
 2293TIP3   OH2 6800   7.242   0.146   5.547 -0.4438 -0.1413  0.3286
 2293TIP3    H1 6801   7.299   0.070   5.561 -0.0948  0.2756  1.2545
 2293TIP3    H2 6802   7.154   0.109   5.538 -0.2149 -0.6874  0.2901
 2294TIP3   OH2 6803   5.500   1.745   2.941  0.0144  0.1013  0.0508
 2294TIP3    H1 6804   5.463   1.820   2.894  0.2005 -1.1239 -2.1101
 2294TIP3    H2 6805   5.592   1.744   2.914  0.4796  0.2005  1.5670
 2295TIP3   OH2 6806   3.599   7.692   2.665 -0.5218 -0.9364 -0.6366
 2295TIP3    H1 6807   3.560   7.742   2.593 -1.0827 -0.1464  0.1934
 2295TIP3    H2 6808   3.541   7.709   2.740 -0.1297 -1.9986 -0.0738
 2296TIP3   OH2 6809   6.151   1.771   4.221 -0.4948  0.4063 -0.3602
 2296TIP3    H1 6810   6.230   1.745   4.172  0.3247 -1.0875  1.6828
 2296TIP3    H2 6811   6.147   1.866   4.212  0.1815  0.2671 -2.4918
 2297TIP3   OH2 6812   5.260   0.285   3.224 -0.4620 -0.5835  0.3828
 2297TIP3    H1 6813   5.202   0.360   3.235 -0.6718 -0.7964  0.7604
 2297TIP3    H2 6814   5.254   0.238   3.307 -0.1291 -0.8735  0.2433
 2298TIP3   OH2 6815   7.101   0.745   2.653 -0.9139 -0.1523  0.2529
 2298TIP3    H1 6816   7.031   0.694   2.693 -1.8282  1.6703  1.0571
 2298TIP3    H2 6817   7.095   0.725   2.560 -0.6128 -2.2507  0.6762
 2299TIP3   OH2 6818   7.415   7.327   7.225 -0.5517  0.5315  0.2061
 2299TIP3    H1 6819   7.413   7.330   7.320 -2.9321  0.6183  0.1945
 2299TIP3    H2 6820   7.453   7.241   7.205  0.2333  0.6323  1.2092
 2300TIP3   OH2 6821   3.627   6.597   1.326 -0.9284  0.1649 -0.1631
 2300TIP3    H1 6822   3.707   6.565   1.284 -0.7650 -0.9275  0.9470
 2300TIP3    H2 6823   3.650   6.685   1.356 -0.2390 -0.0157 -0.1445
 2301TIP3   OH2 6824   7.259   0.522   2.941  0.1315  0.1976  0.5708
 2301TIP3    H1 6825   7.217   0.449   2.896  1.9618 -0.3714 -0.2845
 2301TIP3    H2 6826   7.220   0.600   2.902 -0.2991 -0.3153 -0.0354
 2302TIP3   OH2 6827   6.446   0.903   3.265  0.2691 -0.7638 -0.1870
 2302TIP3    H1 6828   6.527   0.854   3.250  0.9727  0.4416 -0.3921
 2302TIP3    H2 6829   6.386   0.869   3.198  0.2191 -2.4789  0.6929
 2303TIP3   OH2 6830   7.080   2.109   2.212 -0.0393 -0.3903 -0.0650
 2303TIP3    H1 6831   7.164   2.130   2.172 -0.3661 -0.1349 -0.6085
 2303TIP3    H2 6832   7.075   2.013   2.207 -0.5402 -0.3030 -1.5771
 2304TIP3   OH2 6833   2.935   6.835   1.616 -0.7183  0.4226  0.3133
 2304TIP3    H1 6834   2.979   6.914   1.584 -0.3607  0.4318  0.8280
 2304TIP3    H2 6835   2.867   6.818   1.551 -0.9807  1.3131  0.3467
 2305TIP3   OH2 6836   2.846   7.358   3.266 -0.5983  0.3368 -0.0641
 2305TIP3    H1 6837   2.858   7.383   3.358 -1.1877  0.5294 -0.0407
 2305TIP3    H2 6838   2.755   7.379   3.247 -0.5041  0.2003 -0.6670
 2306TIP3   OH2 6839   5.465   1.192   1.695  0.3180  1.0448 -0.6365
 2306TIP3    H1 6840   5.505   1.123   1.748 -0.9776  1.1770  0.5331
 2306TIP3    H2 6841   5.539   1.234   1.650  1.3510  0.4103  0.4511
 2307TIP3   OH2 6842   3.166   8.086   2.965  0.5133 -0.0741 -0.2461
 2307TIP3    H1 6843   3.179   8.155   2.899 -0.7183  1.9446  1.5816
 2307TIP3    H2 6844   3.231   8.106   3.033  0.3707 -0.9261  0.1448
 2308TIP3   OH2 6845   4.614   0.724   0.182  0.1158 -0.1545 -1.0795
 2308TIP3    H1 6846   4.631   0.630   0.175 -0.1010 -0.4775  1.9466
 2308TIP3    H2 6847   4.533   0.730   0.233  0.9094  1.6715  0.0335
 2309TIP3   OH2 6848   6.878   0.343   1.746  0.3687 -0.0268  0.1975
 2309TIP3    H1 6849   6.907   0.427   1.783 -2.4376  0.6482  1.0596
 2309TIP3    H2 6850   6.957   0.303   1.712  1.4908  4.0319 -2.3807
 2310TIP3   OH2 6851   4.632   5.884   2.215  0.1524 -0.0617  0.1174
 2310TIP3    H1 6852   4.719   5.913   2.245 -0.5074  1.3060  0.7658
 2310TIP3    H2 6853   4.572   5.947   2.253 -1.3019 -1.9371  1.0047
 2311TIP3   OH2 6854   7.237   0.702   2.044 -0.3718  0.5867  0.4448
 2311TIP3    H1 6855   7.306   0.660   1.992 -0.7356 -0.9150  1.1234
 2311TIP3    H2 6856   7.283   0.742   2.118 -0.0762  0.7870  0.1498
 2312TIP3   OH2 6857   4.789   8.354   4.516 -0.1957 -0.2249 -0.4866
 2312TIP3    H1 6858   4.735   8.278   4.538 -1.3550  0.3651 -1.3088
 2312TIP3    H2 6859   4.848   8.363   4.591 -1.8962 -0.2667  0.8915
 2313TIP3   OH2 6860   2.777   7.268   2.350  0.1922  0.5086  0.5636
 2313TIP3    H1 6861   2.866   7.284   2.317 -0.4635 -0.2147 -1.6553
 2313TIP3    H2 6862   2.758   7.345   2.404  2.0499  0.8116  0.8479
 2314TIP3   OH2 6863   5.908   0.550   5.116  0.4564 -0.4288  0.3963
 2314TIP3    H1 6864   5.856   0.497   5.176 -0.5339  2.3122  2.0413
 2314TIP3    H2 6865   5.961   0.606   5.172 -0.9722  2.6714 -1.2104
 2315TIP3   OH2 6866   8.084   0.873   0.581 -0.0856  0.0961 -0.0473
 2315TIP3    H1 6867   8.172   0.839   0.567 -0.2657 -0.0815 -0.7545
 2315TIP3    H2 6868   8.077   0.947   0.521 -0.6791 -0.3468 -0.5289
 2316TIP3   OH2 6869   3.490   7.865   3.203  0.6107  0.0706  0.4663
 2316TIP3    H1 6870   3.570   7.863   3.255 -0.0374  1.2593  1.5402
 2316TIP3    H2 6871   3.447   7.946   3.229 -1.3999 -0.9973  0.5854
 2317TIP3   OH2 6872   6.059   0.475   3.842 -0.2758 -0.1738  0.1154
 2317TIP3    H1 6873   6.088   0.393   3.883  1.2983 -0.8290 -2.1969
 2317TIP3    H2 6874   6.140   0.514   3.809 -1.4624  0.3600 -2.2456
 2318TIP3   OH2 6875   6.815   0.350   3.404  0.4322 -0.2871  0.1684
 2318TIP3    H1 6876   6.811   0.385   3.315  1.9344 -1.3585 -0.3413
 2318TIP3    H2 6877   6.745   0.285   3.408  1.5117 -1.5440 -0.8354
 2319TIP3   OH2 6878   0.018   2.037   2.134 -0.2773 -0.4536 -0.0141
 2319TIP3    H1 6879  -0.062   2.072   2.174 -0.8736  0.0348 -1.5769
 2319TIP3    H2 6880   0.089   2.082   2.179 -0.7334 -2.4464  2.9124
 2320TIP3   OH2 6881   5.165   2.503   4.714  0.1772 -0.0595 -0.5896
 2320TIP3    H1 6882   5.142   2.533   4.627 -1.4565  0.2763 -0.0508
 2320TIP3    H2 6883   5.082   2.500   4.762  0.9942 -0.6240  0.8340
 2321TIP3   OH2 6884   7.366   0.479   3.188 -0.1897  0.0863  0.3328
 2321TIP3    H1 6885   7.294   0.485   3.250 -1.4646 -1.0052 -0.9783
 2321TIP3    H2 6886   7.324   0.486   3.102  1.5201  1.5267 -0.4322
 2322TIP3   OH2 6887   7.058   5.207   4.935 -0.1579  0.1633  0.7379
 2322TIP3    H1 6888   7.047   5.301   4.949  0.4024  0.3839 -0.2530
 2322TIP3    H2 6889   7.131   5.200   4.873  1.0939 -1.0020  2.3001
 2323TIP3   OH2 6890   7.180   1.281   1.894  0.0180 -0.3727 -0.0160
 2323TIP3    H1 6891   7.101   1.227   1.898 -0.0050 -0.2925  0.9050
 2323TIP3    H2 6892   7.147   1.371   1.895  0.0871 -0.3451 -0.5427
 2324TIP3   OH2 6893   3.667   7.095   2.333 -0.9583  0.1530  0.5978
 2324TIP3    H1 6894   3.605   7.036   2.375  0.1364 -0.6121  1.1436
 2324TIP3    H2 6895   3.640   7.182   2.363 -0.6440 -0.3152  2.3262
 2325TIP3   OH2 6896   6.992   2.020   3.210  0.9320 -0.8151  0.2510
 2325TIP3    H1 6897   6.975   1.968   3.288 -0.5643 -0.9895 -0.1639
 2325TIP3    H2 6898   6.988   2.111   3.240  1.1234 -0.8912  0.5112
 2326TIP3   OH2 6899   3.991   8.274   2.378 -0.3110  0.0271  0.6176
 2326TIP3    H1 6900   3.974   8.209   2.446 -0.0739  0.5529  1.1915
 2326TIP3    H2 6901   3.983   8.226   2.296 -2.1453 -0.2894  0.9477
 2327TIP3   OH2 6902   2.126   8.292   4.667 -0.3833 -0.1236  0.2405
 2327TIP3    H1 6903   2.175   8.365   4.704 -0.7494  0.1026  0.2704
 2327TIP3    H2 6904   2.035   8.308   4.692 -0.5035 -0.4462  0.0168
 2328TIP3   OH2 6905   4.375   1.035   2.224 -0.5842 -0.5729  0.2040
 2328TIP3    H1 6906   4.402   0.992   2.305 -0.0924  0.9673  0.8807
 2328TIP3    H2 6907   4.303   1.092   2.250  1.0488  1.6172  0.0011
 2329TIP3   OH2 6908   5.908   0.039   1.643  0.0479 -0.2064 -0.4145
 2329TIP3    H1 6909   5.824  -0.007   1.644 -0.1288  0.1350  1.0299
 2329TIP3    H2 6910   5.886   0.129   1.619  0.0488 -0.2161 -0.4513
 2330TIP3   OH2 6911   7.767   0.566   1.589 -0.0246  0.3522 -0.2880
 2330TIP3    H1 6912   7.813   0.542   1.669  1.2151  0.7374 -0.8748
 2330TIP3    H2 6913   7.769   0.662   1.588  0.8134  0.3399 -1.2445
 2331TIP3   OH2 6914   6.856   1.481   2.206 -0.0301 -0.2791  0.3488
 2331TIP3    H1 6915   6.912   1.500   2.130  0.2492 -0.5862  0.4769
 2331TIP3    H2 6916   6.852   1.565   2.253 -0.8029  0.1106 -0.3878
 2332TIP3   OH2 6917   6.463   1.770   2.027 -0.2045  0.0539 -0.0627
 2332TIP3    H1 6918   6.479   1.794   1.935 -1.6057  0.2389 -0.2645
 2332TIP3    H2 6919   6.433   1.679   2.023  2.2431 -0.8198  0.4556
 2333TIP3   OH2 6920   3.106   8.042   2.376  0.8025  0.2008  0.3891
 2333TIP3    H1 6921   3.070   7.971   2.429  0.4307 -0.4286 -0.6850
 2333TIP3    H2 6922   3.042   8.055   2.306  1.4757  0.7384 -0.1383
 2334TIP3   OH2 6923   7.289   0.025   3.290  0.1229  0.2127  0.0084
 2334TIP3    H1 6924   7.285  -0.067   3.266 -0.7810  0.1370  0.4412
 2334TIP3    H2 6925   7.298   0.071   3.207  0.6957 -0.2645 -0.2031
 2335TIP3   OH2 6926   5.612  -0.023   0.940  0.2032 -0.1113 -0.4171
 2335TIP3    H1 6927   5.624   0.027   1.020  1.2556 -0.9503 -0.0436
 2335TIP3    H2 6928   5.664   0.024   0.874  1.4000 -0.8418 -0.0062
 2336TIP3   OH2 6929   3.792   7.690   6.946  0.3167 -0.2217 -0.1433
 2336TIP3    H1 6930   3.837   7.676   6.863  1.0726 -0.8612  0.3719
 2336TIP3    H2 6931   3.764   7.602   6.973 -1.3216  0.1721 -0.5023
 2337TIP3   OH2 6932   1.074   1.352   4.100  0.2306 -0.5803  0.0694
 2337TIP3    H1 6933   0.992   1.354   4.051 -0.3292 -1.0829  0.9752
 2337TIP3    H2 6934   1.137   1.309   4.041  0.1523  0.8318 -1.0677
 2338TIP3   OH2 6935   5.264   0.748   1.180 -0.5565 -1.4322 -0.4376
 2338TIP3    H1 6936   5.358   0.742   1.169 -0.3951 -0.3932  0.2510
 2338TIP3    H2 6937   5.248   0.717   1.269 -0.7959 -1.0711 -0.3508
 2339TIP3   OH2 6938   4.182   6.659   4.902  0.0485  0.2683  0.0306
 2339TIP3    H1 6939   4.148   6.597   4.966  1.0084  0.4064  0.6808
 2339TIP3    H2 6940   4.194   6.740   4.951 -0.4165  0.7453 -0.6234
 2340TIP3   OH2 6941   6.839   1.714   0.441 -0.3746  0.2359 -0.0540
 2340TIP3    H1 6942   6.804   1.660   0.513  0.3186  0.4974  0.4885
 2340TIP3    H2 6943   6.768   1.718   0.377 -0.7757 -0.5260  0.3367
 2341TIP3   OH2 6944   1.483   0.250   4.482 -0.5510  0.6846 -0.1551
 2341TIP3    H1 6945   1.412   0.311   4.460 -0.8442 -0.0690 -1.3043
 2341TIP3    H2 6946   1.531   0.294   4.552 -0.8216  2.1841 -0.8975
 2342TIP3   OH2 6947   0.835   0.190   3.259  0.2016 -0.0422  0.2697
 2342TIP3    H1 6948   0.829   0.096   3.279 -0.9490  0.1269  0.7201
 2342TIP3    H2 6949   0.928   0.210   3.267  0.4342 -1.1121  0.3380
 2343TIP3   OH2 6950   0.660   0.835   1.982 -0.0132 -0.0118  0.5605
 2343TIP3    H1 6951   0.685   0.752   1.940  0.4808 -0.8292  2.4006
 2343TIP3    H2 6952   0.586   0.867   1.931  0.0018 -1.4343 -0.3767
 2344TIP3   OH2 6953   7.108   1.392   2.515  0.0022  0.0786 -0.2345
 2344TIP3    H1 6954   7.150   1.412   2.431 -0.3998  1.7689 -0.0441
 2344TIP3    H2 6955   7.056   1.314   2.498  0.0393  0.3264 -1.5224
 2345TIP3   OH2 6956   4.720   8.317   2.444 -0.1623 -0.2867 -0.3954
 2345TIP3    H1 6957   4.658   8.280   2.507  0.6477  0.1903  0.7009
 2345TIP3    H2 6958   4.666   8.370   2.386 -0.7990  0.0407  0.4839
 2346TIP3   OH2 6959   5.333   1.197   2.886  0.0775  0.2918  1.1516
 2346TIP3    H1 6960   5.371   1.283   2.903  0.2271  0.0484  2.0876
 2346TIP3    H2 6961   5.279   1.180   2.964 -2.8953  1.1578 -0.6363
 2347TIP3   OH2 6962   0.583   1.672   0.536 -0.0828 -0.4556 -0.5648
 2347TIP3    H1 6963   0.657   1.717   0.494 -1.3797  0.9375 -1.3703
 2347TIP3    H2 6964   0.553   1.732   0.603 -1.0603 -0.6414 -0.8368
 2348TIP3   OH2 6965   0.804   0.161   1.743  0.0719  0.2531  0.4934
 2348TIP3    H1 6966   0.814   0.121   1.657  0.4180  2.3059 -0.4459
 2348TIP3    H2 6967   0.709   0.164   1.757  0.0459 -1.0724  0.6844
 2349TIP3   OH2 6968   7.576   0.817   3.984 -0.6337  0.1163 -0.2803
 2349TIP3    H1 6969   7.608   0.864   4.062 -1.0926  0.4307 -0.2821
 2349TIP3    H2 6970   7.616   0.863   3.910 -1.5166  0.8435 -0.3085
 2350TIP3   OH2 6971   4.500   8.075   2.332 -0.7005 -0.5817 -0.4700
 2350TIP3    H1 6972   4.526   8.163   2.307 -1.0993 -0.6058 -0.9737
 2350TIP3    H2 6973   4.405   8.073   2.322 -0.6867 -1.0898 -0.5484
 2351TIP3   OH2 6974   6.183   7.722   3.304 -0.0850 -0.1759  0.1900
 2351TIP3    H1 6975   6.097   7.728   3.262 -0.3859 -1.4332  0.6006
 2351TIP3    H2 6976   6.181   7.790   3.371 -1.0017 -0.5883  0.5972
 2352TIP3   OH2 6977   4.153   7.646   3.569  0.8146  0.3942 -0.2558
 2352TIP3    H1 6978   4.206   7.684   3.639  1.0480  0.8367 -0.6736
 2352TIP3    H2 6979   4.215   7.622   3.501  0.6863 -0.8882  0.0614
 2353TIP3   OH2 6980   5.444   7.344   2.392  0.1720 -0.4232 -0.3161
 2353TIP3    H1 6981   5.439   7.434   2.360 -1.4683 -0.7225 -0.9399
 2353TIP3    H2 6982   5.377   7.339   2.461  2.4215 -0.2901  1.9431
 2354TIP3   OH2 6983   8.361   0.033   3.803 -0.1593  0.1065  0.1353
 2354TIP3    H1 6984   8.285  -0.024   3.810  0.8653 -1.2070  0.8218
 2354TIP3    H2 6985   8.329   0.119   3.830 -1.1312 -0.6640  1.4837
 2355TIP3   OH2 6986   5.660   0.725   2.732 -0.3900 -0.5889  0.4392
 2355TIP3    H1 6987   5.716   0.799   2.756 -0.6459 -0.0652 -0.5356
 2355TIP3    H2 6988   5.573   0.749   2.764 -0.2841 -0.9048  0.9728
 2356TIP3   OH2 6989   7.166   3.279   1.072 -0.4854 -0.1768 -0.9148
 2356TIP3    H1 6990   7.258   3.261   1.091 -1.0073 -1.0548  0.8751
 2356TIP3    H2 6991   7.152   3.368   1.105  0.5653  1.3162 -4.3158
 2357TIP3   OH2 6992   0.826   1.416   2.055  0.0378 -0.1343  0.2052
 2357TIP3    H1 6993   0.837   1.396   1.962 -2.0522 -1.9527  0.3123
 2357TIP3    H2 6994   0.736   1.447   2.063 -1.1583 -3.7945  2.1776
 2358TIP3   OH2 6995   5.737   1.387   2.214 -0.7898  0.8531  0.3680
 2358TIP3    H1 6996   5.762   1.341   2.294 -0.3519  0.5378  0.0561
 2358TIP3    H2 6997   5.658   1.343   2.184 -0.3218  0.2370  0.0223
 2359TIP3   OH2 6998   0.973   0.222   2.850  0.5287 -0.1714  0.5089
 2359TIP3    H1 6999   1.061   0.256   2.863  0.0342  0.6519  1.8352
 2359TIP3    H2 7000   0.963   0.214   2.755  1.5022  1.1112  0.2941
 2360TIP3   OH2 7001   7.902   2.860   0.307  0.6250 -0.0324  0.0360
 2360TIP3    H1 7002   7.855   2.933   0.347  0.6830 -0.1443  0.3064
 2360TIP3    H2 7003   7.875   2.783   0.357 -0.6473 -0.4366 -1.2253
 2361TIP3   OH2 7004   6.870   1.351   3.143  0.0379  0.2795  0.0338
 2361TIP3    H1 7005   6.922   1.305   3.077 -0.4043 -1.8511  1.1321
 2361TIP3    H2 7006   6.805   1.401   3.093 -1.4565 -2.7377 -1.1126
 2362TIP3   OH2 7007   4.789   7.905   2.676 -0.4475  0.0211  0.4315
 2362TIP3    H1 7008   4.723   7.970   2.700  1.4607  1.9500  0.6641
 2362TIP3    H2 7009   4.853   7.955   2.624  1.9419 -1.2421  2.0468
 2363TIP3   OH2 7010   7.269   1.706   3.705  0.4219  0.0334 -0.1761
 2363TIP3    H1 7011   7.237   1.652   3.633  0.5762  0.6463 -0.7141
 2363TIP3    H2 7012   7.191   1.745   3.743  0.2737 -0.9409  0.5110
 2364TIP3   OH2 7013   7.663   0.091   2.037 -0.2008  0.3215 -0.4441
 2364TIP3    H1 7014   7.701   0.026   1.978 -0.0074 -1.6867  1.8322
 2364TIP3    H2 7015   7.736   0.147   2.062  0.3688 -0.8425  0.4837
 2365TIP3   OH2 7016   6.687   0.095   2.741  0.0157  0.3149  0.0872
 2365TIP3    H1 7017   6.647   0.026   2.689 -0.0358  0.9386 -0.7140
 2365TIP3    H2 7018   6.695   0.169   2.681 -0.6427  1.2592  1.1353
 2366TIP3   OH2 7019   8.049   1.651   2.528  0.0178  0.4836 -0.4696
 2366TIP3    H1 7020   8.122   1.658   2.467 -0.5706  0.0215 -1.2389
 2366TIP3    H2 7021   8.084   1.603   2.603  0.0307 -1.3223 -1.5990
 2367TIP3   OH2 7022   5.107   0.876   1.649  0.6268 -0.0045 -0.4017
 2367TIP3    H1 7023   5.143   0.964   1.644  2.7316 -0.8592 -0.7028
 2367TIP3    H2 7024   5.012   0.889   1.638  0.9655  2.1396 -1.1643
 2368TIP3   OH2 7025   2.505   7.644   1.074  0.2577 -0.0517 -0.0592
 2368TIP3    H1 7026   2.558   7.718   1.044  0.4010 -0.4096 -0.6937
 2368TIP3    H2 7027   2.431   7.684   1.119  0.5840  0.4695  0.0214
 2369TIP3   OH2 7028   6.931   1.668   2.846  0.2882  0.2306  0.5155
 2369TIP3    H1 7029   6.913   1.762   2.858  0.7645  0.4565 -0.4782
 2369TIP3    H2 7030   6.858   1.624   2.890 -0.0890  1.0711  0.7518
 2370TIP3   OH2 7031   6.536   1.606   4.243  0.5020 -0.9700 -0.0223
 2370TIP3    H1 7032   6.594   1.626   4.317  0.5861 -0.1837 -0.2987
 2370TIP3    H2 7033   6.533   1.687   4.193 -0.9942 -0.9409  0.1010
 2371TIP3   OH2 7034   5.656   5.696   1.805 -0.1177 -0.4096 -0.0362
 2371TIP3    H1 7035   5.653   5.778   1.854  0.2272 -1.0145  1.0227
 2371TIP3    H2 7036   5.748   5.668   1.811 -0.4339 -1.3572  0.4389
 2372TIP3   OH2 7037   6.581   2.535   0.585 -0.0708  0.0637 -0.1662
 2372TIP3    H1 7038   6.609   2.443   0.583 -0.5543 -0.0757 -0.7194
 2372TIP3    H2 7039   6.539   2.545   0.671  1.4361  0.2185  0.5790
 2373TIP3   OH2 7040   7.797   0.915   2.249 -0.1945  0.3974  0.1389
 2373TIP3    H1 7041   7.816   0.935   2.341  0.9075  0.7089 -0.1385
 2373TIP3    H2 7042   7.704   0.935   2.239 -0.1323  1.1928  0.9727
 2374TIP3   OH2 7043   0.277   2.153   4.225 -0.6840 -0.6965 -0.1749
 2374TIP3    H1 7044   0.363   2.186   4.200 -0.9324 -0.8808 -1.2919
 2374TIP3    H2 7045   0.293   2.064   4.255 -0.5113 -0.8218 -0.6322
 2375TIP3   OH2 7046   8.365   1.316   2.108  1.0056 -0.2417  0.4776
 2375TIP3    H1 7047   8.426   1.243   2.111  1.1824 -0.0476  3.0076
 2375TIP3    H2 7048   8.409   1.386   2.156  0.3672  1.1808 -0.9422
 2376TIP3   OH2 7049   0.226   1.503   0.990  0.5026  0.5512  0.2423
 2376TIP3    H1 7050   0.225   1.513   0.894 -0.9291  1.5929  0.3531
 2376TIP3    H2 7051   0.186   1.417   1.005  1.6653 -0.0711 -0.1291
 2377TIP3   OH2 7052   6.922   0.564   2.787  0.1882  0.0373 -0.6305
 2377TIP3    H1 7053   6.882   0.555   2.700 -3.2797 -1.3654  1.0190
 2377TIP3    H2 7054   6.924   0.475   2.822  1.1347  0.6483  0.9504
 2378TIP3   OH2 7055   5.456   8.257   3.601  0.5023  0.8857 -0.6044
 2378TIP3    H1 7056   5.467   8.279   3.693  1.1068 -0.6372 -0.3084
 2378TIP3    H2 7057   5.521   8.189   3.584 -0.1349  0.5912 -1.9668
 2379TIP3   OH2 7058   6.510   2.045   3.243  0.4494  0.3375 -0.4075
 2379TIP3    H1 7059   6.440   2.047   3.309 -0.8918  1.0907 -1.8148
 2379TIP3    H2 7060   6.571   2.113   3.272 -0.0190  0.5220  0.1781
 2380TIP3   OH2 7061   5.914   1.455   1.646  0.6347 -0.3636  0.3334
 2380TIP3    H1 7062   6.001   1.419   1.629  1.6139  1.8725  0.4446
 2380TIP3    H2 7063   5.902   1.448   1.741  0.1172 -1.9227  0.1584
 2381TIP3   OH2 7064   7.164   1.423   0.967  0.4826 -0.1709  0.3149
 2381TIP3    H1 7065   7.217   1.503   0.973  0.7902 -0.3856  0.4962
 2381TIP3    H2 7066   7.133   1.421   0.876 -1.8537  1.6170  1.0346
 2382TIP3   OH2 7067   1.512   0.600   4.359  0.4685  0.0051  0.3017
 2382TIP3    H1 7068   1.437   0.553   4.394 -0.6105  1.7079  0.3595
 2382TIP3    H2 7069   1.511   0.684   4.405  0.7395  1.1318 -1.6883
 2383TIP3   OH2 7070   8.148   4.089   3.467 -0.3195 -0.0579  0.3099
 2383TIP3    H1 7071   8.204   4.018   3.436 -0.0658  0.2731 -0.0069
 2383TIP3    H2 7072   8.192   4.168   3.436 -1.2835  0.1814 -0.4552
 2384TIP3   OH2 7073   1.791   3.238   4.884 -0.5291 -0.2143  0.0888
 2384TIP3    H1 7074   1.772   3.167   4.823 -0.1719  0.2880 -0.6144
 2384TIP3    H2 7075   1.803   3.195   4.968  0.9364 -1.1316 -0.5707
 2385TIP3   OH2 7076   0.564   4.103   2.417 -0.1205  0.1258 -0.5737
 2385TIP3    H1 7077   0.519   4.181   2.449 -0.2175  0.8563 -2.3982
 2385TIP3    H2 7078   0.634   4.137   2.361 -0.8785 -1.0818 -2.3116
 2386TIP3   OH2 7079   6.552   1.547   2.811  0.3224 -0.4263 -0.1188
 2386TIP3    H1 7080   6.457   1.542   2.802  0.3606 -0.5477 -0.4608
 2386TIP3    H2 7081   6.585   1.466   2.773  0.5404 -0.5585  0.3485
 2387TIP3   OH2 7082   1.200   2.943   4.562  0.4825  0.0081 -0.3103
 2387TIP3    H1 7083   1.154   2.976   4.485  0.2982  0.2782 -0.0854
 2387TIP3    H2 7084   1.187   3.010   4.629  1.1256  0.0362 -0.2136
 2388TIP3   OH2 7085   7.735   1.647   6.024  0.4714  0.1403 -0.9561
 2388TIP3    H1 7086   7.730   1.553   6.041  0.7791  0.2894  0.0126
 2388TIP3    H2 7087   7.824   1.661   5.993  0.4933  0.1452 -0.8915
 2389TIP3   OH2 7088   1.708   2.202   3.421  0.3884  0.3185 -0.1549
 2389TIP3    H1 7089   1.680   2.121   3.378  0.0515 -0.3084  1.2402
 2389TIP3    H2 7090   1.794   2.220   3.383 -0.2594  0.2223 -1.7003
 2390TIP3   OH2 7091   0.674   1.472   4.673 -0.1840  0.0681 -0.3778
 2390TIP3    H1 7092   0.731   1.466   4.597 -1.1705  0.4383 -1.1520
 2390TIP3    H2 7093   0.688   1.561   4.707  0.6405 -0.2690  0.1928
 2391TIP3   OH2 7094   0.435   0.475   4.429 -0.0041  0.1585 -0.0008
 2391TIP3    H1 7095   0.423   0.390   4.387 -1.6332 -0.0108  0.7546
 2391TIP3    H2 7096   0.530   0.482   4.443  0.2040 -1.2549 -0.6252
 2392TIP3   OH2 7097   0.931   0.819   6.161  0.1270  0.8503 -0.1643
 2392TIP3    H1 7098   0.984   0.782   6.231  0.8334 -0.0215 -1.1426
 2392TIP3    H2 7099   0.876   0.884   6.204  0.3037  0.0738  1.2412
 2393TIP3   OH2 7100   2.340   1.329   5.465 -0.1304  0.5001 -0.4927
 2393TIP3    H1 7101   2.254   1.343   5.425 -0.9164 -0.3732  0.8583
 2393TIP3    H2 7102   2.381   1.261   5.412  0.3755  2.0320 -2.0963
 2394TIP3   OH2 7103   0.975   2.039   3.541 -0.0470  0.2259  0.1728
 2394TIP3    H1 7104   0.974   2.133   3.559  2.3265  0.1662  0.8489
 2394TIP3    H2 7105   0.927   1.999   3.613 -0.3953  0.8697  0.2923
 2395TIP3   OH2 7106   6.402   8.092   4.439  0.5136 -0.7105 -0.1870
 2395TIP3    H1 7107   6.482   8.134   4.471 -0.5134  0.4185  0.9661
 2395TIP3    H2 7108   6.348   8.163   4.406 -0.4835 -1.3278  0.0789
 2396TIP3   OH2 7109   8.087   0.472   1.525  0.6444 -0.1236 -0.4679
 2396TIP3    H1 7110   8.066   0.555   1.483  0.8317 -0.7953 -1.9209
 2396TIP3    H2 7111   8.003   0.435   1.551  0.5284  0.2879 -0.2616
 2397TIP3   OH2 7112   2.548   3.195   4.700 -0.1084  0.3905 -0.3297
 2397TIP3    H1 7113   2.461   3.160   4.680 -0.3100 -0.1845  1.4132
 2397TIP3    H2 7114   2.582   3.227   4.616 -1.3507 -0.8207 -1.3095
 2398TIP3   OH2 7115   0.088   2.416   4.650 -0.7929  0.1645  0.0958
 2398TIP3    H1 7116   0.041   2.402   4.731 -0.0040 -0.3383  0.4741
 2398TIP3    H2 7117   0.081   2.333   4.603 -1.5128  0.5533 -0.4898
 2399TIP3   OH2 7118   2.279   1.709   3.357 -0.2648 -0.0008  0.1264
 2399TIP3    H1 7119   2.216   1.636   3.353 -1.8185  1.1280  2.7852
 2399TIP3    H2 7120   2.363   1.667   3.373 -1.0627 -1.2745  1.0941
 2400TIP3   OH2 7121   8.846   2.192   4.008  0.0954  0.5644  0.6066
 2400TIP3    H1 7122   8.885   2.156   3.928 -0.6531 -0.7995  0.8430
 2400TIP3    H2 7123   8.920   2.231   4.054  0.9944 -0.8744  0.4378
 2401TIP3   OH2 7124   2.030   1.190   5.167 -0.1941  0.0810 -0.5979
 2401TIP3    H1 7125   2.112   1.155   5.131 -0.0911  0.5342 -0.8200
 2401TIP3    H2 7126   2.047   1.199   5.261 -0.2942 -0.6512 -0.5073
 2402TIP3   OH2 7127   8.796   3.159   6.330  0.1153 -0.6492 -0.0614
 2402TIP3    H1 7128   8.729   3.219   6.363  0.6429  0.1353 -0.3961
 2402TIP3    H2 7129   8.749   3.101   6.270 -0.0509  0.6382 -1.1893
 2403TIP3   OH2 7130   2.415   2.426   3.363  0.6654  0.4546 -0.7009
 2403TIP3    H1 7131   2.355   2.475   3.420 -0.4895  1.4485 -2.7143
 2403TIP3    H2 7132   2.470   2.492   3.323  0.6194 -0.1050 -1.7050
 2404TIP3   OH2 7133   0.730   0.525   3.155 -0.1910 -0.3421  0.0522
 2404TIP3    H1 7134   0.639   0.546   3.132  0.0713 -0.1326 -0.7803
 2404TIP3    H2 7135   0.759   0.465   3.086  0.4107 -0.1504  0.1368
 2405TIP3   OH2 7136   0.990   1.002   2.124 -0.7411  0.5300  0.1426
 2405TIP3    H1 7137   1.027   1.082   2.089 -0.1087 -0.1094 -0.6710
 2405TIP3    H2 7138   0.903   1.028   2.156 -0.2124  1.6940  0.6306
 2406TIP3   OH2 7139   8.508   2.244   3.707  0.5523 -0.1536  0.4153
 2406TIP3    H1 7140   8.578   2.293   3.750  0.5352 -1.0029  1.4207
 2406TIP3    H2 7141   8.487   2.173   3.768 -1.2271  0.1281  0.1629
 2407TIP3   OH2 7142   2.814   2.257   3.807  0.8736 -0.5171  0.4700
 2407TIP3    H1 7143   2.814   2.162   3.819  0.7783 -0.4956  0.6483
 2407TIP3    H2 7144   2.890   2.287   3.858  2.6616 -0.7858 -1.9886
 2408TIP3   OH2 7145   7.317   3.306   1.768  0.0903  0.5855  0.2817
 2408TIP3    H1 7146   7.337   3.212   1.762 -0.2499  0.5173  0.2024
 2408TIP3    H2 7147   7.238   3.310   1.822 -0.0940  0.8013 -0.0045
 2409TIP3   OH2 7148   0.044   1.716   2.996  0.0398 -0.7342 -0.1310
 2409TIP3    H1 7149   0.062   1.703   3.089 -0.5407 -1.9460 -0.1924
 2409TIP3    H2 7150   0.089   1.798   2.975  2.2990 -1.7332  0.6299
 2410TIP3   OH2 7151   8.140   2.909   4.174  0.4803 -0.7619 -0.1750
 2410TIP3    H1 7152   8.084   2.943   4.244 -0.7712 -1.3941 -0.8489
 2410TIP3    H2 7153   8.167   2.823   4.204  0.9226 -0.5505  0.0469
 2411TIP3   OH2 7154   8.744   2.219   3.290  0.0494 -0.0334 -0.2650
 2411TIP3    H1 7155   8.688   2.262   3.225 -0.3419  0.6406  0.5085
 2411TIP3    H2 7156   8.684   2.189   3.357  0.6581  1.1110  0.8086
 2412TIP3   OH2 7157   2.222   2.015   4.358 -0.1112  0.4479 -0.0287
 2412TIP3    H1 7158   2.158   1.943   4.357  0.1299  0.2323  0.1760
 2412TIP3    H2 7159   2.291   1.986   4.417 -0.2422  1.0534  0.4309
 2413TIP3   OH2 7160   7.879   3.340   2.836  0.4043  0.3457  0.3031
 2413TIP3    H1 7161   7.900   3.247   2.836 -0.6046  0.0168 -3.1204
 2413TIP3    H2 7162   7.951   3.381   2.788 -0.5974  0.8849 -0.7762
 2414TIP3   OH2 7163   8.827   1.817   2.497 -0.2994  0.1955 -0.4765
 2414TIP3    H1 7164   8.917   1.850   2.496 -0.0629 -0.2828  2.7486
 2414TIP3    H2 7165   8.835   1.724   2.519 -1.6796  0.4916  1.3306
 2415TIP3   OH2 7166   1.752   2.613   3.884 -0.2068 -0.1530  0.1228
 2415TIP3    H1 7167   1.730   2.571   3.967  1.5417 -1.4247 -0.0379
 2415TIP3    H2 7168   1.846   2.627   3.889 -0.2430  0.6165 -1.2697
 2416TIP3   OH2 7169   7.823   4.942   4.734 -0.2577 -0.1280 -0.4090
 2416TIP3    H1 7170   7.738   4.983   4.753 -0.1503 -0.1198  0.0401
 2416TIP3    H2 7171   7.854   4.988   4.655  0.0444  0.9215  0.3135
 2417TIP3   OH2 7172   2.023   1.756   2.954 -0.5172 -0.0494  0.0096
 2417TIP3    H1 7173   2.034   1.808   3.033 -0.6509  0.5023 -0.3294
 2417TIP3    H2 7174   1.991   1.818   2.888  0.6407 -0.2647 -0.7754
 2418TIP3   OH2 7175   8.193   3.882   2.196  0.1435 -0.6156  0.2874
 2418TIP3    H1 7176   8.228   3.931   2.270 -0.2169 -0.9586  0.6846
 2418TIP3    H2 7177   8.118   3.834   2.231  0.3920 -1.3314 -0.1308
 2419TIP3   OH2 7178   0.561   2.028   3.080 -0.3797  0.3038 -0.1118
 2419TIP3    H1 7179   0.516   2.043   2.997 -1.4969  1.7323  0.7077
 2419TIP3    H2 7180   0.637   2.085   3.077 -1.8323  2.3672  0.8804
 2420TIP3   OH2 7181   2.854   3.266   2.364  0.4200 -0.4475  0.3443
 2420TIP3    H1 7182   2.872   3.198   2.299  1.5922  0.4946 -0.3336
 2420TIP3    H2 7183   2.848   3.219   2.447  0.0318 -1.5244 -0.2918
 2421TIP3   OH2 7184   5.480   7.866   3.649 -0.5314  0.0674  0.0514
 2421TIP3    H1 7185   5.391   7.902   3.642 -0.7314 -0.6259 -1.0544
 2421TIP3    H2 7186   5.479   7.815   3.730 -1.6522 -1.3290 -0.8188
 2422TIP3   OH2 7187   8.289   0.654   4.032 -0.1459  0.3981 -0.1327
 2422TIP3    H1 7188   8.224   0.627   3.966 -2.0332  0.6304  1.5678
 2422TIP3    H2 7189   8.237   0.695   4.101  1.9695  1.7194  0.7266
 2423TIP3   OH2 7190   8.580   1.016   3.043 -0.4428 -0.6997 -0.3698
 2423TIP3    H1 7191   8.504   1.015   3.102 -0.4674  0.6944 -0.3686
 2423TIP3    H2 7192   8.552   0.966   2.967 -0.8757 -1.3819  0.2286
 2424TIP3   OH2 7193   6.804   3.679   1.589  0.9360  0.0138 -0.4452
 2424TIP3    H1 7194   6.893   3.646   1.577  1.0130 -0.4099  1.1871
 2424TIP3    H2 7195   6.749   3.618   1.541  1.4726  0.0307 -1.0974
 2425TIP3   OH2 7196   0.467   0.429   5.313  0.8753  0.4274 -0.2763
 2425TIP3    H1 7197   0.396   0.484   5.348  0.2408  2.3417 -4.3167
 2425TIP3    H2 7198   0.536   0.491   5.291  3.0624 -1.2221  1.6405
 2426TIP3   OH2 7199   0.961   2.718   3.623 -0.1553 -0.1481 -0.4058
 2426TIP3    H1 7200   0.937   2.804   3.589 -0.7449 -1.0572 -2.3954
 2426TIP3    H2 7201   1.056   2.721   3.632 -0.4024  1.5476  2.0151
 2427TIP3   OH2 7202   0.150   3.894   4.048  0.4908 -0.2779 -0.0757
 2427TIP3    H1 7203   0.132   3.978   4.005 -0.0561 -1.4119 -2.0867
 2427TIP3    H2 7204   0.066   3.848   4.046  1.3073 -1.7360 -0.9032
 2428TIP3   OH2 7205   8.174   2.108   5.702 -0.1680 -0.0852  0.4617
 2428TIP3    H1 7206   8.188   2.094   5.796  0.5360 -2.0165  0.0902
 2428TIP3    H2 7207   8.090   2.066   5.684  0.5708 -1.3308 -0.1134
 2429TIP3   OH2 7208   5.797   7.468   2.189 -0.3334 -0.2565 -0.5430
 2429TIP3    H1 7209   5.719   7.418   2.163 -1.3986  0.4113  1.2372
 2429TIP3    H2 7210   5.762   7.553   2.215  1.0562  0.2149 -0.1889
 2430TIP3   OH2 7211   1.879   2.301   5.805 -0.2461 -0.2544  0.1935
 2430TIP3    H1 7212   1.964   2.300   5.761 -1.1293 -0.5580 -1.5735
 2430TIP3    H2 7213   1.897   2.273   5.894  1.7852  1.4667  0.3683
 2431TIP3   OH2 7214   8.635   1.573   6.429  0.1271  0.0897 -0.3119
 2431TIP3    H1 7215   8.724   1.544   6.449  0.1629 -0.9407 -1.9018
 2431TIP3    H2 7216   8.643   1.666   6.409  0.6713  0.2397  0.5900
 2432TIP3   OH2 7217   8.548   2.450   5.409 -0.1462  0.3216 -0.0453
 2432TIP3    H1 7218   8.465   2.463   5.454  1.3620  1.0477  2.6127
 2432TIP3    H2 7219   8.568   2.357   5.421 -0.3685  0.2285 -0.3697
 2433TIP3   OH2 7220   1.586   1.860   2.949 -0.1803  0.6558 -0.5794
 2433TIP3    H1 7221   1.563   1.778   2.904 -0.6782  1.2466 -1.4137
 2433TIP3    H2 7222   1.611   1.832   3.037 -0.4019 -0.3918 -0.8350
 2434TIP3   OH2 7223   2.610   2.858   3.533  0.3239 -0.1664 -0.4248
 2434TIP3    H1 7224   2.699   2.891   3.549 -0.3981  0.3807  2.8070
 2434TIP3    H2 7225   2.573   2.921   3.471  1.5260  0.7579 -0.2496
 2435TIP3   OH2 7226   2.135   2.925   4.949  0.1549 -0.4702 -0.0518
 2435TIP3    H1 7227   2.063   2.878   4.990 -1.4396  1.8772 -0.0667
 2435TIP3    H2 7228   2.207   2.918   5.012 -0.5616 -1.5032  0.6780
 2436TIP3   OH2 7229   8.818   0.667   4.155  0.0109 -0.0445 -0.3949
 2436TIP3    H1 7230   8.845   0.632   4.240 -0.4138 -0.3623 -0.3919
 2436TIP3    H2 7231   8.724   0.677   4.162  0.3876  3.4286  0.4632
 2437TIP3   OH2 7232   3.689   2.651   4.617  0.5255 -0.7641 -0.3632
 2437TIP3    H1 7233   3.696   2.620   4.708 -0.2388 -1.1555 -0.4391
 2437TIP3    H2 7234   3.737   2.734   4.617 -2.0191  0.7843  1.1230
 2438TIP3   OH2 7235   2.817   2.331   6.152  0.2969 -0.4371 -0.4002
 2438TIP3    H1 7236   2.838   2.279   6.074 -0.0553  0.5980 -1.1794
 2438TIP3    H2 7237   2.723   2.345   6.148 -0.5939 -4.5005  2.7593
 2439TIP3   OH2 7238   7.366   0.693   4.062  0.8375 -0.1020 -0.3793
 2439TIP3    H1 7239   7.330   0.732   3.982  0.8877 -0.5565 -0.6220
 2439TIP3    H2 7240   7.458   0.719   4.063  0.9148 -0.3783 -0.6354
 2440TIP3   OH2 7241   0.314   1.969   3.837  0.0093 -0.4009 -0.1295
 2440TIP3    H1 7242   0.220   1.965   3.852  0.1628  0.3770  1.0864
 2440TIP3    H2 7243   0.336   2.061   3.847  0.8387 -0.5163 -0.8268
 2441TIP3   OH2 7244   1.054   2.443   3.758  0.2016 -0.6197 -0.1872
 2441TIP3    H1 7245   1.137   2.395   3.761  0.2767 -0.4299  0.8427
 2441TIP3    H2 7246   1.080   2.535   3.768  0.0316 -0.3723 -1.8080
 2442TIP3   OH2 7247   7.174   1.151   3.498  0.5434  0.3731  0.0380
 2442TIP3    H1 7248   7.248   1.111   3.452  0.6064 -0.7591  1.0928
 2442TIP3    H2 7249   7.103   1.149   3.435  0.8863 -0.3085 -0.3332
 2443TIP3   OH2 7250   0.931   2.316   3.552  0.1390 -0.0820  0.3261
 2443TIP3    H1 7251   0.911   2.375   3.480 -1.3989 -0.6871  0.2439
 2443TIP3    H2 7252   0.979   2.370   3.615  1.2329  0.5148 -1.0066
 2444TIP3   OH2 7253   1.357   2.069   2.940  0.3379  0.2238 -0.1450
 2444TIP3    H1 7254   1.436   2.016   2.955  1.6608  2.6266  1.7114
 2444TIP3    H2 7255   1.377   2.120   2.862  0.5688  0.6805  0.2063
 2445TIP3   OH2 7256   8.536   1.919   1.523 -0.6096 -0.3320  0.1688
 2445TIP3    H1 7257   8.471   1.951   1.461 -0.2280 -1.0973 -0.6366
 2445TIP3    H2 7258   8.510   1.958   1.607 -1.9205 -0.3763 -0.1967
 2446TIP3   OH2 7259   1.677   2.866   4.018 -0.2675  0.3592  0.0100
 2446TIP3    H1 7260   1.628   2.793   4.057  0.1164  0.4348  0.6266
 2446TIP3    H2 7261   1.713   2.829   3.937  0.0029 -0.1677  0.3658
 2447TIP3   OH2 7262   1.599   1.782   3.505 -0.1569  0.0630 -0.1147
 2447TIP3    H1 7263   1.542   1.837   3.558  1.2214  1.4553 -0.0589
 2447TIP3    H2 7264   1.607   1.829   3.422 -0.2076 -0.8212 -0.6296
 2448TIP3   OH2 7265   0.806   2.069   4.464 -0.3042 -0.1192 -0.2293
 2448TIP3    H1 7266   0.899   2.087   4.467 -0.2842 -0.3629  0.8951
 2448TIP3    H2 7267   0.783   2.047   4.555 -1.0231 -2.1777 -0.9001
 2449TIP3   OH2 7268   5.099   8.280   4.489 -0.0922 -0.2572 -0.3059
 2449TIP3    H1 7269   5.094   8.268   4.584  0.1120 -2.8668 -0.5740
 2449TIP3    H2 7270   5.032   8.220   4.455 -1.6530  2.2353 -1.7344
 2450TIP3   OH2 7271   8.673   1.947   3.058 -0.2770 -0.1381  0.8518
 2450TIP3    H1 7272   8.705   1.909   3.140  0.5746 -1.5543 -0.1303
 2450TIP3    H2 7273   8.697   1.884   2.991 -1.0552  0.9722 -0.4912
 2451TIP3   OH2 7274   2.916   0.601   2.379 -0.4404  0.0255  0.5777
 2451TIP3    H1 7275   2.945   0.564   2.295 -0.6829 -0.4068  0.6877
 2451TIP3    H2 7276   2.885   0.689   2.356  0.7181  0.4073  0.4185
 2452TIP3   OH2 7277   1.150   3.659   6.860  0.2695  0.0655  0.4326
 2452TIP3    H1 7278   1.100   3.590   6.903 -1.3514  0.1947 -1.1938
 2452TIP3    H2 7279   1.242   3.638   6.879 -0.2535 -1.9712  0.8012
 2453TIP3   OH2 7280   8.817   0.535   4.419 -0.1483 -0.1424 -0.0297
 2453TIP3    H1 7281   8.729   0.536   4.457 -0.9198  0.9987 -1.7402
 2453TIP3    H2 7282   8.845   0.444   4.426 -1.9760 -0.7837 -0.5464
 2454TIP3   OH2 7283   8.595   1.612   3.070 -0.5770 -0.9383  0.3477
 2454TIP3    H1 7284   8.662   1.545   3.054  1.0364  0.5078  0.8713
 2454TIP3    H2 7285   8.637   1.674   3.130 -2.2659  0.1995  0.3859
 2455TIP3   OH2 7286   1.451   2.316   6.085  0.2002 -0.4746 -0.1639
 2455TIP3    H1 7287   1.524   2.314   6.023 -0.5139 -0.2398 -1.0215
 2455TIP3    H2 7288   1.413   2.229   6.080 -1.9666  0.5050 -2.6468
 2456TIP3   OH2 7289   0.266   0.655   4.046  0.1760 -0.1932  0.1489
 2456TIP3    H1 7290   0.271   0.700   3.961  1.0161 -0.5194  0.0281
 2456TIP3    H2 7291   0.224   0.572   4.026  1.0384 -0.5792 -0.0742
 2457TIP3   OH2 7292   1.385   2.415   3.148  0.6426 -0.2886 -0.4661
 2457TIP3    H1 7293   1.334   2.394   3.071 -0.5229  0.8909 -0.0382
 2457TIP3    H2 7294   1.476   2.415   3.118  0.0928  1.8133 -2.2554
 2458TIP3   OH2 7295   8.701   0.370   5.040  0.2183  0.2198 -0.1957
 2458TIP3    H1 7296   8.641   0.331   4.977  0.6719 -0.6130 -0.1125
 2458TIP3    H2 7297   8.739   0.445   4.994 -0.2405  0.2364 -0.5432
 2459TIP3   OH2 7298   6.127   1.556   3.823 -0.3649  0.4054  0.3216
 2459TIP3    H1 7299   6.089   1.599   3.746 -0.1385  0.4933  0.2602
 2459TIP3    H2 7300   6.061   1.490   3.848 -0.1836 -0.0152 -0.2952
 2460TIP3   OH2 7301   1.013   1.830   3.335  0.2086 -0.2139  0.0091
 2460TIP3    H1 7302   1.051   1.753   3.376  0.1080  0.5773  1.6512
 2460TIP3    H2 7303   0.992   1.888   3.408  0.3477  1.4001 -1.1969
 2461TIP3   OH2 7304   2.483   2.689   3.901  0.0135  0.2385  0.0097
 2461TIP3    H1 7305   2.561   2.669   3.952 -1.2816 -1.7935  1.2474
 2461TIP3    H2 7306   2.447   2.604   3.877 -0.9913  1.1528 -1.8808
 2462TIP3   OH2 7307   0.938   0.952   5.464 -0.1880  0.2772  0.0918
 2462TIP3    H1 7308   0.925   0.999   5.381  0.4572 -0.4026 -0.4050
 2462TIP3    H2 7309   0.924   0.860   5.442  1.0351 -0.0125  0.4943
 2463TIP3   OH2 7310   0.353   2.246   3.794  0.5059 -0.4812 -0.3731
 2463TIP3    H1 7311   0.443   2.276   3.786  0.3724 -0.2081 -0.9029
 2463TIP3    H2 7312   0.311   2.275   3.712 -0.5001  0.9244  0.6124
 2464TIP3   OH2 7313   8.696   0.695   3.291 -0.4967 -0.1753 -0.6997
 2464TIP3    H1 7314   8.621   0.686   3.233 -0.4835  1.7871 -1.0394
 2464TIP3    H2 7315   8.729   0.784   3.275  1.5014 -0.7743 -0.0964
 2465TIP3   OH2 7316   1.855   1.507   5.422 -0.0595 -0.8724 -0.2684
 2465TIP3    H1 7317   1.761   1.512   5.440  0.0166 -0.5393  0.0450
 2465TIP3    H2 7318   1.861   1.513   5.327 -0.2029  1.8492 -0.1395
 2466TIP3   OH2 7319   0.132   2.356   4.117 -0.2601  0.2253 -0.2718
 2466TIP3    H1 7320   0.117   2.420   4.186 -0.4793  1.7174 -1.6850
 2466TIP3    H2 7321   0.200   2.299   4.153 -0.1784  1.1282  1.0666
 2467TIP3   OH2 7322   8.182   2.270   2.951  0.0626  0.0001 -0.0904
 2467TIP3    H1 7323   8.227   2.253   3.034  0.2329  2.1480  0.2764
 2467TIP3    H2 7324   8.089   2.274   2.974  0.1825  1.5535  0.1846
 2468TIP3   OH2 7325  -0.027   0.763   5.120  0.1276  0.5739 -0.1257
 2468TIP3    H1 7326  -0.036   0.669   5.135 -1.3126  0.6540 -0.4251
 2468TIP3    H2 7327   0.067   0.777   5.114  0.3339 -0.9974 -0.9939
 2469TIP3   OH2 7328   0.086   2.448   6.583  0.0803  0.0533  0.3174
 2469TIP3    H1 7329   0.107   2.362   6.547  1.2364 -1.0510  3.4863
 2469TIP3    H2 7330   0.131   2.510   6.526  0.5928 -1.5248 -1.0143
 2470TIP3   OH2 7331   5.981   7.515   4.425  0.1189  0.0658 -0.0961
 2470TIP3    H1 7332   6.047   7.483   4.486  1.1809  1.7435 -0.3365
 2470TIP3    H2 7333   5.948   7.595   4.465 -1.8582 -0.7867  0.0615
 2471TIP3   OH2 7334   0.235   0.655   4.408  0.1789 -0.0097 -0.0934
 2471TIP3    H1 7335   0.306   0.598   4.438  0.8703  1.2703  0.7568
 2471TIP3    H2 7336   0.276   0.712   4.343 -0.5764 -0.6933 -1.1606
 2472TIP3   OH2 7337   7.380   8.176   3.191 -0.4245  0.2758  0.8034
 2472TIP3    H1 7338   7.385   8.267   3.220  0.2698  0.7815 -0.8018
 2472TIP3    H2 7339   7.461   8.136   3.224 -1.1794 -0.0119  2.3146
 2473TIP3   OH2 7340   0.856   0.912   6.876 -0.2833  0.8577  0.3212
 2473TIP3    H1 7341   0.850   0.966   6.955  0.3687  1.3748  0.0236
 2473TIP3    H2 7342   0.767   0.880   6.861 -0.1395 -0.4502  2.1131
 2474TIP3   OH2 7343   2.766   2.800   2.961 -0.0137 -0.2977  0.3348
 2474TIP3    H1 7344   2.764   2.709   2.932 -0.0881  0.1001 -0.9643
 2474TIP3    H2 7345   2.859   2.818   2.977  0.2030 -0.1420 -0.9925
 2475TIP3   OH2 7346   8.589   1.159   2.038 -0.0081 -0.4627  0.0012
 2475TIP3    H1 7347   8.645   1.216   1.986  0.1150  1.1668  1.8628
 2475TIP3    H2 7348   8.642   1.133   2.113 -0.6397 -1.6541  0.0638
 2476TIP3   OH2 7349   8.883   4.301   4.981  0.8131 -0.0456 -0.3661
 2476TIP3    H1 7350   8.927   4.270   4.901  0.2774 -1.9930  0.0639
 2476TIP3    H2 7351   8.884   4.225   5.039 -1.7692  0.3191  0.2092
 2477TIP3   OH2 7352   7.666   1.556   3.229 -0.0291  0.6271 -0.2896
 2477TIP3    H1 7353   7.692   1.480   3.176  4.0395  1.0102  1.0282
 2477TIP3    H2 7354   7.690   1.631   3.175  0.1524  1.0034  0.3229
 2478TIP3   OH2 7355   1.345   4.534   5.074  0.5185 -0.3762 -0.5765
 2478TIP3    H1 7356   1.393   4.617   5.066  1.3610 -0.7737  0.3416
 2478TIP3    H2 7357   1.309   4.519   4.987  0.5419  0.8473 -0.8101
 2479TIP3   OH2 7358   0.041   2.150   3.122 -0.4750  0.0176 -0.8265
 2479TIP3    H1 7359  -0.042   2.152   3.171  0.4326  2.1712  0.6772
 2479TIP3    H2 7360   0.104   2.111   3.182 -0.0297 -0.2039 -1.4273
 2480TIP3   OH2 7361   0.653   5.317   4.908  0.3172 -0.4117 -0.1968
 2480TIP3    H1 7362   0.728   5.315   4.849 -0.0791 -1.8732 -0.6772
 2480TIP3    H2 7363   0.589   5.258   4.868 -0.1275 -1.0929  1.4439
 2481TIP3   OH2 7364   1.023   4.072   3.642 -0.4763 -0.4833 -0.6933
 2481TIP3    H1 7365   1.104   4.021   3.639 -0.4400 -0.4601 -0.1482
 2481TIP3    H2 7366   1.050   4.159   3.613  0.8151  0.9448  4.1949
 2482TIP3   OH2 7367   0.853   3.283   4.421  0.5822  0.0643  0.2367
 2482TIP3    H1 7368   0.861   3.366   4.468 -1.3389  0.7896 -0.6419
 2482TIP3    H2 7369   0.926   3.230   4.452  0.9176  1.5170  1.9911
 2483TIP3   OH2 7370   2.523   3.049   6.419 -0.4888 -0.0870 -0.0121
 2483TIP3    H1 7371   2.473   3.125   6.388  0.7414  0.8017  0.1278
 2483TIP3    H2 7372   2.585   3.086   6.481  0.7824 -1.0796 -0.6753
 2484TIP3   OH2 7373   1.097   2.008   5.052 -0.3419 -0.0671 -0.9236
 2484TIP3    H1 7374   1.050   1.966   5.124 -0.6332  0.1485 -0.9856
 2484TIP3    H2 7375   1.028   2.041   4.995 -0.1316  0.9450 -0.6139
 2485TIP3   OH2 7376   1.725   2.522   4.134 -0.4037 -0.1892  0.3829
 2485TIP3    H1 7377   1.768   2.553   4.215  1.3497 -0.7859 -0.2866
 2485TIP3    H2 7378   1.652   2.468   4.164  0.4183 -0.6597  1.5820
 2486TIP3   OH2 7379   0.472   1.278   1.297  0.3338  0.0087  0.4514
 2486TIP3    H1 7380   0.525   1.234   1.231 -0.2035 -1.4894  0.9982
 2486TIP3    H2 7381   0.381   1.262   1.270  0.0686 -1.7199  2.1882
 2487TIP3   OH2 7382   1.446   3.408   5.190 -0.1671  0.5395  0.1289
 2487TIP3    H1 7383   1.476   3.382   5.102 -0.7602 -3.1811  0.9546
 2487TIP3    H2 7384   1.522   3.452   5.229  1.9259 -2.4360 -0.3994
 2488TIP3   OH2 7385   0.813   3.154   3.609 -0.1678 -0.1978  0.1431
 2488TIP3    H1 7386   0.857   3.238   3.627 -2.2448  0.3318  3.2177
 2488TIP3    H2 7387   0.819   3.143   3.514  1.8740  2.4595 -0.0955
 2489TIP3   OH2 7388   0.241   3.421   4.905  0.0481  0.2180  0.7276
 2489TIP3    H1 7389   0.178   3.425   4.833  2.1024  3.2602 -1.0215
 2489TIP3    H2 7390   0.289   3.339   4.889  1.5340  1.5889 -2.3963
 2490TIP3   OH2 7391   0.233   1.299   4.388  0.0369 -0.1219 -0.1788
 2490TIP3    H1 7392   0.290   1.276   4.315  1.2880  0.0338  0.7200
 2490TIP3    H2 7393   0.203   1.388   4.368 -1.1991 -0.8115 -1.4474
 2491TIP3   OH2 7394   0.101   2.970   3.827  0.1261  0.6468 -0.1942
 2491TIP3    H1 7395   0.080   2.887   3.783 -0.2562  0.4357  0.3829
 2491TIP3    H2 7396   0.168   3.010   3.772  0.6624 -0.2736 -0.2059
 2492TIP3   OH2 7397   8.346   1.983   2.428  0.4576 -0.2920  0.1984
 2492TIP3    H1 7398   8.344   2.074   2.456  0.7070  0.0502 -0.8822
 2492TIP3    H2 7399   8.436   1.968   2.399  0.3186 -0.7665 -0.0025
 2493TIP3   OH2 7400   1.851   3.106   5.703  0.4345  0.2109  0.2141
 2493TIP3    H1 7401   1.847   3.033   5.641 -0.0277  2.3553 -2.3817
 2493TIP3    H2 7402   1.940   3.101   5.739  0.5008 -1.4577 -0.1244
 2494TIP3   OH2 7403   8.557   1.499   3.816 -0.0693  0.5972  0.0719
 2494TIP3    H1 7404   8.467   1.473   3.838  0.7347 -2.0947  0.4050
 2494TIP3    H2 7405   8.605   1.487   3.898  0.7604  1.1655 -0.3343
 2495TIP3   OH2 7406   8.888   1.395   3.212  0.3502  0.2645 -0.6472
 2495TIP3    H1 7407   8.959   1.428   3.157 -0.2123  0.4243 -1.2681
 2495TIP3    H2 7408   8.821   1.366   3.151 -0.2834  0.4620 -0.0437
 2496TIP3   OH2 7409   8.068   0.666   4.242 -0.8781 -0.2987  0.1833
 2496TIP3    H1 7410   8.062   0.570   4.249 -0.1260 -0.3755 -0.2136
 2496TIP3    H2 7411   8.094   0.694   4.330  1.4625 -0.6859 -0.3417
 2497TIP3   OH2 7412   2.230   1.463   5.238  0.3837  0.3659  0.2374
 2497TIP3    H1 7413   2.224   1.546   5.191 -1.8058 -0.6149 -1.2781
 2497TIP3    H2 7414   2.290   1.410   5.185  0.5370  0.4299  0.3474
 2498TIP3   OH2 7415   8.699   0.401   3.235 -0.1638 -0.2420 -0.1656
 2498TIP3    H1 7416   8.616   0.353   3.242  0.3371 -1.0299  0.3553
 2498TIP3    H2 7417   8.673   0.493   3.230 -0.9633 -0.3271  2.2119
 2499TIP3   OH2 7418   0.236   4.725   4.974 -0.7985  0.3554 -0.4157
 2499TIP3    H1 7419   0.200   4.651   5.022  0.0769 -0.6599 -1.3126
 2499TIP3    H2 7420   0.330   4.724   4.993 -1.0527  2.4823  1.2172
 2500TIP3   OH2 7421   2.007   2.555   2.454  0.0057  0.3319 -1.0818
 2500TIP3    H1 7422   1.936   2.619   2.446  0.1917  0.8005  0.6632
 2500TIP3    H2 7423   1.992   2.514   2.539  1.1339 -0.4158 -1.2378
 2501TIP3   OH2 7424   0.085   0.894   2.724 -0.2394  0.3789 -0.5203
 2501TIP3    H1 7425   0.075   0.830   2.795 -0.8721  0.3775 -0.6084
 2501TIP3    H2 7426   0.127   0.845   2.654  1.4184  0.6721  0.2548
 2502TIP3   OH2 7427   0.417   0.344   3.924 -0.0004 -0.0173 -0.2702
 2502TIP3    H1 7428   0.477   0.319   3.854 -0.8835 -1.3312 -0.5661
 2502TIP3    H2 7429   0.332   0.312   3.896 -0.2376 -1.2862  1.7705
 2503TIP3   OH2 7430   0.426   3.011   3.186  0.2263  0.0553  0.4847
 2503TIP3    H1 7431   0.497   2.947   3.178  0.5805  0.5176 -0.1388
 2503TIP3    H2 7432   0.352   2.960   3.219  0.4577 -0.7160 -0.1482
 2504TIP3   OH2 7433   0.966   1.882   5.534  0.1361 -0.1170  0.3521
 2504TIP3    H1 7434   0.871   1.872   5.540  0.0398 -0.2412 -1.1935
 2504TIP3    H2 7435   0.989   1.842   5.450  1.8795 -2.3031  1.7961
 2505TIP3   OH2 7436   0.193   1.233   3.352  0.2990  0.0568  0.4852
 2505TIP3    H1 7437   0.128   1.223   3.421 -1.4034  0.4671 -1.0149
 2505TIP3    H2 7438   0.165   1.310   3.303  1.4382 -0.2548 -0.7027
 2506TIP3   OH2 7439   2.660   2.229   5.115  0.0826  0.7953  0.3427
 2506TIP3    H1 7440   2.749   2.202   5.093 -0.2220  1.1441 -1.4057
 2506TIP3    H2 7441   2.646   2.309   5.063 -1.5231  0.2955 -0.0102
 2507TIP3   OH2 7442   4.291   4.882   6.901  0.3883  0.3553 -0.1929
 2507TIP3    H1 7443   4.248   4.963   6.931  0.6368  0.8474 -1.1252
 2507TIP3    H2 7444   4.298   4.894   6.806  0.5946 -0.6913 -0.3101
 2508TIP3   OH2 7445   1.114   0.650   4.506 -0.1163  0.5194 -0.1555
 2508TIP3    H1 7446   1.025   0.671   4.475 -0.8309 -0.0388  1.4465
 2508TIP3    H2 7447   1.105   0.644   4.601  2.1786  2.9951  0.2802
 2509TIP3   OH2 7448   2.841   1.248   4.317 -0.4397  0.6231 -0.0341
 2509TIP3    H1 7449   2.847   1.343   4.308 -2.0320  0.7855  0.5510
 2509TIP3    H2 7450   2.878   1.215   4.235  1.3764  1.7014  0.3193
 2510TIP3   OH2 7451   1.260   1.819   2.827  0.1821  0.0904 -0.3568
 2510TIP3    H1 7452   1.223   1.742   2.869 -0.6094  1.0769  0.7675
 2510TIP3    H2 7453   1.281   1.879   2.899  1.1920  0.7561 -1.1796
 2511TIP3   OH2 7454   2.392   2.436   3.834 -0.3968 -0.2678 -0.4279
 2511TIP3    H1 7455   2.348   2.378   3.772 -0.3282 -0.1551 -0.5823
 2511TIP3    H2 7456   2.411   2.381   3.910 -2.2064  0.0646  0.2901
 2512TIP3   OH2 7457   2.106   2.280   4.685  0.0757 -0.6181 -0.4924
 2512TIP3    H1 7458   2.124   2.286   4.591 -1.8901 -0.2964 -0.8666
 2512TIP3    H2 7459   2.192   2.291   4.726  0.9486 -0.6691 -2.2417
 2513TIP3   OH2 7460   1.981   0.465   3.922  0.1891  0.0327  0.2938
 2513TIP3    H1 7461   2.035   0.543   3.916 -1.7556  1.3427 -0.7380
 2513TIP3    H2 7462   1.986   0.425   3.835  0.0347 -0.1908  0.3861
 2514TIP3   OH2 7463   2.870   2.508   2.935  0.1334 -0.6240  0.3998
 2514TIP3    H1 7464   2.947   2.525   2.879 -1.2987  2.5834 -0.7264
 2514TIP3    H2 7465   2.906   2.469   3.014  2.6750 -1.3551 -1.0539
 2515TIP3   OH2 7466   2.378   2.529   4.924  0.0759  0.2153 -0.7347
 2515TIP3    H1 7467   2.309   2.495   4.981 -0.1367 -1.1992 -1.7999
 2515TIP3    H2 7468   2.333   2.555   4.844  0.6541  0.1022 -1.0988
 2516TIP3   OH2 7469   6.291   7.974   2.807 -0.1782 -0.2562 -0.0259
 2516TIP3    H1 7470   6.339   8.000   2.886 -1.3928 -0.1190  0.6727
 2516TIP3    H2 7471   6.223   8.040   2.797 -0.4201 -0.6200 -0.8463
 2517TIP3   OH2 7472   4.847   2.452   0.716  0.0548  0.0077 -0.2732
 2517TIP3    H1 7473   4.914   2.501   0.667 -2.6352  2.2894 -1.8080
 2517TIP3    H2 7474   4.866   2.360   0.697  3.3159  0.5080  0.1344
 2518TIP3   OH2 7475   2.296   1.713   4.299 -0.2716  0.0119  0.1661
 2518TIP3    H1 7476   2.306   1.759   4.382  0.3500 -0.6276  0.4537
 2518TIP3    H2 7477   2.204   1.688   4.296 -0.6114  1.2800  0.0009
 2519TIP3   OH2 7478   8.181   8.030   2.965 -0.0718  0.6105  0.0505
 2519TIP3    H1 7479   8.218   8.042   2.877 -0.0323  2.0346  0.2552
 2519TIP3    H2 7480   8.113   7.964   2.953  2.5026 -2.0772 -0.3232
 2520TIP3   OH2 7481   4.220   1.157   2.586  0.1872  0.0541  0.3015
 2520TIP3    H1 7482   4.282   1.221   2.550  1.6225 -0.3814  1.9358
 2520TIP3    H2 7483   4.183   1.199   2.663 -3.6294  1.3768 -2.0874
 2521TIP3   OH2 7484   2.625   2.846   3.197  0.0228  0.4688 -0.6208
 2521TIP3    H1 7485   2.561   2.776   3.213 -0.1439  0.5645 -0.8745
 2521TIP3    H2 7486   2.672   2.818   3.118 -0.7247  1.1374 -1.3055
 2522TIP3   OH2 7487   2.219   1.474   1.770 -0.0505  0.3753 -0.5741
 2522TIP3    H1 7488   2.241   1.536   1.700  0.6654  0.1536 -0.5554
 2522TIP3    H2 7489   2.299   1.422   1.782 -0.0006  0.7487  0.7724
 2523TIP3   OH2 7490   4.209   0.510   3.118  0.0362  0.2352  0.2651
 2523TIP3    H1 7491   4.179   0.515   3.027  0.3857  0.3343  0.1529
 2523TIP3    H2 7492   4.246   0.597   3.136 -0.6404  0.4317  0.7173
 2524TIP3   OH2 7493   1.545   0.644   3.858 -0.0248  0.4541  0.0774
 2524TIP3    H1 7494   1.567   0.729   3.897  1.4344  0.2565 -0.2597
 2524TIP3    H2 7495   1.519   0.589   3.932 -0.5330  1.0576  0.3527
 2525TIP3   OH2 7496   4.456   0.285   2.877 -0.1286  0.0626  0.1584
 2525TIP3    H1 7497   4.406   0.248   2.949  0.2061 -1.0118 -0.1581
 2525TIP3    H2 7498   4.502   0.360   2.915  0.0536 -0.5071  1.0562
 2526TIP3   OH2 7499   2.542   3.088   3.799  0.2090 -0.0748 -0.0832
 2526TIP3    H1 7500   2.509   3.131   3.878 -0.9329 -0.0148 -0.5840
 2526TIP3    H2 7501   2.485   3.119   3.729  0.7235 -0.7421 -0.8048
 2527TIP3   OH2 7502   1.137   1.737   3.931 -0.5647 -0.7667 -0.7000
 2527TIP3    H1 7503   1.087   1.698   3.860 -1.7169 -1.0425  0.2590
 2527TIP3    H2 7504   1.216   1.683   3.937 -0.7015 -1.0550 -1.4157
 2528TIP3   OH2 7505   1.586   2.147   4.632 -0.0568  0.0924 -0.4928
 2528TIP3    H1 7506   1.681   2.153   4.642 -0.1499  1.1940 -0.1997
 2528TIP3    H2 7507   1.554   2.235   4.649 -0.9882  0.1465 -2.3851
 2529TIP3   OH2 7508   3.178   2.907   1.310  0.2531 -0.0235  0.7119
 2529TIP3    H1 7509   3.208   2.819   1.288  1.2795  0.1557  1.3409
 2529TIP3    H2 7510   3.205   2.920   1.401 -1.1694  0.4061  1.0821
 2530TIP3   OH2 7511   0.936   0.679   2.246 -0.6874  0.1685  0.0858
 2530TIP3    H1 7512   1.000   0.658   2.314 -2.1598 -2.6825  0.6891
 2530TIP3    H2 7513   0.877   0.742   2.287  0.6772  1.4859  0.0927
 2531TIP3   OH2 7514   0.797   7.896   4.826 -0.3918  0.1976 -0.9013
 2531TIP3    H1 7515   0.743   7.928   4.754 -0.5400  0.8633 -0.4919
 2531TIP3    H2 7516   0.797   7.966   4.890 -1.2347 -0.8772  0.2839
 2532TIP3   OH2 7517   1.699   7.847   4.538 -0.3266  0.4629  0.2292
 2532TIP3    H1 7518   1.683   7.754   4.524  0.9212  0.4957 -1.6032
 2532TIP3    H2 7519   1.713   7.855   4.633  0.6603 -1.3862  0.2589
 2533TIP3   OH2 7520   1.605   2.901   3.402 -0.5737  0.1905 -0.1480
 2533TIP3    H1 7521   1.657   2.970   3.361 -0.7957 -0.3334 -1.3277
 2533TIP3    H2 7522   1.664   2.864   3.468 -0.1381  0.8938 -0.1358
 2534TIP3   OH2 7523   2.057   1.752   4.467  0.7619 -0.0948  0.6373
 2534TIP3    H1 7524   2.020   1.667   4.490  1.8621 -0.8921 -0.4566
 2534TIP3    H2 7525   2.078   1.793   4.551 -0.7204 -0.4600  1.1978
 2535TIP3   OH2 7526   5.102   2.492   5.067 -0.1292  0.1979 -0.1952
 2535TIP3    H1 7527   5.176   2.481   5.007  1.8838  1.2104  1.9999
 2535TIP3    H2 7528   5.089   2.586   5.072 -0.4544  0.1108  0.7340
 2536TIP3   OH2 7529   1.886   0.584   4.152  0.3336  0.3155 -0.7259
 2536TIP3    H1 7530   1.907   0.522   4.083  2.0058 -0.8412  0.7910
 2536TIP3    H2 7531   1.968   0.595   4.201 -0.3973  2.3470  0.1104
 2537TIP3   OH2 7532   8.049   7.938   1.505  0.6167  0.4678 -0.1394
 2537TIP3    H1 7533   8.017   7.983   1.583 -0.6230  0.6213 -0.7191
 2537TIP3    H2 7534   8.126   7.988   1.478 -1.3048  2.8874 -1.3491
 2538TIP3   OH2 7535   1.619   4.056   6.227 -0.0096 -0.4306 -0.3707
 2538TIP3    H1 7536   1.561   4.044   6.152 -2.2138  2.0530  0.8609
 2538TIP3    H2 7537   1.612   3.974   6.276  0.6700 -1.6799 -2.3049
 2539TIP3   OH2 7538   2.867   0.766   2.581 -0.5943  0.4343  0.3341
 2539TIP3    H1 7539   2.845   0.845   2.531 -0.1463 -0.2434 -0.9627
 2539TIP3    H2 7540   2.934   0.722   2.528  0.0054 -0.2281  1.6170
 2540TIP3   OH2 7541   0.175   7.799   2.783  0.4253  0.4828 -0.6561
 2540TIP3    H1 7542   0.119   7.742   2.836  1.2829 -0.2024 -0.4700
 2540TIP3    H2 7543   0.114   7.849   2.729 -0.3704 -0.2405 -0.4466
 2541TIP3   OH2 7544   5.197   0.933   3.180  0.0562  0.0956 -0.2788
 2541TIP3    H1 7545   5.162   0.858   3.132 -0.6007 -0.7775  1.4930
 2541TIP3    H2 7546   5.292   0.920   3.180 -0.1338 -1.4925  1.1734
 2542TIP3   OH2 7547   3.127   2.945   4.791  0.0490  0.0982 -0.6438
 2542TIP3    H1 7548   3.110   2.862   4.835 -0.0072 -0.2217 -1.2575
 2542TIP3    H2 7549   3.046   2.964   4.743 -0.1995  0.8748  0.0734
 2543TIP3   OH2 7550   2.088   3.044   5.374  0.6022  0.0490  0.2732
 2543TIP3    H1 7551   2.068   3.113   5.436  0.1847 -0.7512  1.0384
 2543TIP3    H2 7552   2.184   3.040   5.373  0.6091 -0.6786  1.7263
 2544TIP3   OH2 7553   2.215   3.833   5.902  0.2717  0.0833  0.1538
 2544TIP3    H1 7554   2.138   3.801   5.949 -0.5460  0.6325 -0.7913
 2544TIP3    H2 7555   2.262   3.754   5.877 -0.5941 -0.3094 -0.2632
 2545TIP3   OH2 7556   2.008   1.122   4.686 -0.1222 -0.0410  0.2732
 2545TIP3    H1 7557   1.936   1.178   4.714 -0.2747 -0.6780  1.1681
 2545TIP3    H2 7558   1.975   1.080   4.606 -0.5270  0.0860  0.3703
 2546TIP3   OH2 7559   1.589   1.981   3.298 -0.0182  0.3911  0.0083
 2546TIP3    H1 7560   1.656   1.986   3.229 -0.7151 -2.8581 -1.0126
 2546TIP3    H2 7561   1.510   1.954   3.252 -0.4878 -1.8520  2.0318
 2547TIP3   OH2 7562   1.541   3.200   4.585 -0.0132  0.4090 -0.1571
 2547TIP3    H1 7563   1.456   3.229   4.551 -0.4617  0.1544  0.7422
 2547TIP3    H2 7564   1.599   3.275   4.570 -0.9897  1.5130  1.4578
 2548TIP3   OH2 7565   2.915   2.278   2.685  0.5036  0.4092 -0.1072
 2548TIP3    H1 7566   2.963   2.232   2.754 -0.0427 -0.1770 -0.1157
 2548TIP3    H2 7567   2.956   2.365   2.681  0.7788  0.3218  0.6971
 2549TIP3   OH2 7568   1.000   3.186   4.113  0.0204 -0.8534  0.1919
 2549TIP3    H1 7569   0.972   3.137   4.035 -0.0961 -0.1471 -0.2210
 2549TIP3    H2 7570   0.939   3.259   4.118 -1.7944 -2.4542  2.6308
 2550TIP3   OH2 7571   2.654   1.826   3.697 -0.5107 -0.3827  0.4508
 2550TIP3    H1 7572   2.637   1.830   3.791  0.4513 -0.6621  0.6410
 2550TIP3    H2 7573   2.684   1.913   3.673  1.0830 -0.8387  0.7687
 2551TIP3   OH2 7574   0.858   2.201   3.264 -0.1653 -0.1712 -0.0873
 2551TIP3    H1 7575   0.834   2.293   3.272  0.9490  0.0513  0.9488
 2551TIP3    H2 7576   0.885   2.176   3.352 -2.3869 -2.0598  0.0821
 2552TIP3   OH2 7577   1.397   0.625   4.848 -0.0948  0.1570  0.5202
 2552TIP3    H1 7578   1.421   0.697   4.907 -1.3423 -0.3993  1.7395
 2552TIP3    H2 7579   1.479   0.577   4.835  0.3473  0.6828  1.2712
 2553TIP3   OH2 7580   8.786   4.178   4.542 -0.5721  0.1059  0.1180
 2553TIP3    H1 7581   8.768   4.101   4.489  0.4125  0.6026 -0.9657
 2553TIP3    H2 7582   8.700   4.208   4.572 -1.0619 -0.6758 -0.4974
 2554TIP3   OH2 7583   0.374   2.672   3.484  0.7553 -0.0687  0.3406
 2554TIP3    H1 7584   0.337   2.755   3.516  1.2320  0.1531  0.3226
 2554TIP3    H2 7585   0.363   2.611   3.557 -0.1401 -0.1574  0.1430
 2555TIP3   OH2 7586   2.440   3.091   5.769 -0.1398  0.3396 -0.2251
 2555TIP3    H1 7587   2.504   3.150   5.729  1.4141 -2.6935 -2.4377
 2555TIP3    H2 7588   2.486   3.008   5.778 -2.4309 -0.7537  2.3139
 2556TIP3   OH2 7589   1.684   2.999   4.739  0.3134 -0.4097 -0.1831
 2556TIP3    H1 7590   1.631   3.048   4.676 -0.7699 -1.5416 -0.1523
 2556TIP3    H2 7591   1.622   2.965   4.803  1.1131 -1.3512  0.1134
 2557TIP3   OH2 7592   2.262   1.763   2.755  0.0631  0.1123 -0.0083
 2557TIP3    H1 7593   2.212   1.739   2.833 -0.1318  0.4781 -0.0178
 2557TIP3    H2 7594   2.351   1.733   2.772  0.2027  0.9112  0.6979
 2558TIP3   OH2 7595   0.739   3.327   5.500  0.3051 -0.5678 -0.0975
 2558TIP3    H1 7596   0.708   3.237   5.517 -0.5702  0.1284  2.2324
 2558TIP3    H2 7597   0.808   3.341   5.565 -0.3054  0.7988  0.2732
 2559TIP3   OH2 7598   3.052   4.135   2.235 -0.3055  0.1412  0.0627
 2559TIP3    H1 7599   3.098   4.133   2.319  0.0609 -0.2176 -0.1403
 2559TIP3    H2 7600   2.973   4.084   2.250 -0.6648  0.8058  0.4292
 2560TIP3   OH2 7601   1.938   1.965   2.785 -0.2974 -0.2540 -0.4105
 2560TIP3    H1 7602   1.874   2.023   2.826 -1.2206 -0.7274 -1.1390
 2560TIP3    H2 7603   1.948   2.000   2.696 -0.1691 -0.6718 -0.5626
 2561TIP3   OH2 7604   4.269   2.266   3.648  0.5982  0.3370  0.4723
 2561TIP3    H1 7605   4.252   2.183   3.693  0.9797  0.4283  0.7871
 2561TIP3    H2 7606   4.232   2.254   3.561 -1.1762  0.5398  1.1629
 2562TIP3   OH2 7607   2.645   2.948   4.024  0.1593 -0.2142 -0.2801
 2562TIP3    H1 7608   2.606   2.938   3.937  0.2311 -3.0472 -0.0448
 2562TIP3    H2 7609   2.653   3.042   4.036 -2.6210  0.3146 -2.1106
 2563TIP3   OH2 7610   3.460   1.705   5.481 -0.2331 -0.4106  0.0403
 2563TIP3    H1 7611   3.515   1.760   5.536  0.6818 -0.4881 -0.7854
 2563TIP3    H2 7612   3.391   1.674   5.540 -1.0580  2.0016  0.4114
 2564TIP3   OH2 7613   4.534   2.397   4.261 -0.1797  0.4238 -0.5248
 2564TIP3    H1 7614   4.600   2.358   4.319 -1.0255 -0.6312 -0.2680
 2564TIP3    H2 7615   4.579   2.472   4.222  0.8574  0.3097  0.4090
 2565TIP3   OH2 7616   1.226   0.691   3.498 -0.1713 -0.0077  0.3200
 2565TIP3    H1 7617   1.313   0.677   3.534 -0.3508 -1.5986  0.2106
 2565TIP3    H2 7618   1.236   0.763   3.436  1.0803 -0.2259  0.2633
 2566TIP3   OH2 7619   0.762   1.401   3.467  0.2522  0.0601  0.0756
 2566TIP3    H1 7620   0.714   1.483   3.459 -1.2576 -0.6720  1.2070
 2566TIP3    H2 7621   0.737   1.351   3.389  0.6539  0.4211 -0.2827
 2567TIP3   OH2 7622   0.505   3.254   3.660  0.0685 -0.1824  0.2499
 2567TIP3    H1 7623   0.553   3.332   3.688  0.8736 -0.6948  0.3342
 2567TIP3    H2 7624   0.573   3.195   3.626 -0.6707 -0.3755 -0.9133
 2568TIP3   OH2 7625   3.745   0.499   5.326  0.2061 -0.2761 -0.4497
 2568TIP3    H1 7626   3.747   0.447   5.245 -0.6766  0.3016 -0.8589
 2568TIP3    H2 7627   3.813   0.565   5.313 -0.3792  0.2246 -1.0139
 2569TIP3   OH2 7628   3.119   0.907   3.652 -0.0989 -0.3619 -0.4689
 2569TIP3    H1 7629   3.094   0.915   3.560  0.8461 -2.0795 -0.8859
 2569TIP3    H2 7630   3.055   0.847   3.690 -0.5968  0.4801  0.0696
 2570TIP3   OH2 7631   4.246   1.363   6.446  0.0866 -0.0983 -0.1922
 2570TIP3    H1 7632   4.289   1.279   6.457 -0.4064 -0.2796  0.3821
 2570TIP3    H2 7633   4.153   1.341   6.435  0.1755  0.2625 -1.7763
 2571TIP3   OH2 7634   1.341   2.136   4.473 -0.2943 -0.0232 -0.6611
 2571TIP3    H1 7635   1.328   2.046   4.443 -0.9921 -0.1678  0.0636
 2571TIP3    H2 7636   1.428   2.135   4.513 -0.9055 -0.7585  0.7027
 2572TIP3   OH2 7637   2.263   1.195   4.669  0.4358  0.3428 -0.4557
 2572TIP3    H1 7638   2.176   1.186   4.706  0.7816  0.6592  0.4489
 2572TIP3    H2 7639   2.249   1.204   4.575 -0.5304  0.7709 -0.2706
 2573TIP3   OH2 7640   0.286   1.580   3.744  0.0963 -0.0452  0.1918
 2573TIP3    H1 7641   0.276   1.488   3.769  0.4640 -0.0803  0.2103
 2573TIP3    H2 7642   0.327   1.577   3.658  1.6747  0.1266  0.9319
 2574TIP3   OH2 7643   1.806   1.171   3.146 -0.8245 -0.2100 -0.0038
 2574TIP3    H1 7644   1.856   1.167   3.227 -0.5514  0.6372 -0.1312
 2574TIP3    H2 7645   1.728   1.222   3.168 -0.3557  0.7096 -0.4841
 2575TIP3   OH2 7646   8.761   2.494   4.422 -0.6964 -0.1020 -0.0963
 2575TIP3    H1 7647   8.704   2.552   4.370  0.2231  1.3859  0.5439
 2575TIP3    H2 7648   8.848   2.508   4.386 -0.1920  0.2613  1.2579
 2576TIP3   OH2 7649   2.398   2.263   4.349  0.4579  0.4426 -0.5050
 2576TIP3    H1 7650   2.310   2.235   4.372  0.3160  0.5946 -0.8548
 2576TIP3    H2 7651   2.431   2.194   4.292  0.4957  0.4762 -0.5244
 2577TIP3   OH2 7652   2.307   1.486   3.722 -0.2538 -0.3735  0.4084
 2577TIP3    H1 7653   2.237   1.544   3.694 -1.6158 -0.3140  3.7249
 2577TIP3    H2 7654   2.388   1.536   3.705 -1.0772  0.2734 -1.7601
 2578TIP3   OH2 7655   2.421   0.256   1.947  0.2620  0.4971  0.2346
 2578TIP3    H1 7656   2.503   0.264   1.898  1.1993 -1.4953  1.4017
 2578TIP3    H2 7657   2.391   0.166   1.931 -0.3865  0.4135  1.7702
 2579TIP3   OH2 7658   3.756   1.809   4.560 -0.3949  0.1979 -0.3643
 2579TIP3    H1 7659   3.749   1.799   4.655 -0.5860 -0.3317 -0.4357
 2579TIP3    H2 7660   3.776   1.902   4.548 -0.5966  0.3149  0.1794
 2580TIP3   OH2 7661   0.997   2.997   4.351  0.7888  0.6911 -0.4209
 2580TIP3    H1 7662   0.992   3.079   4.302 -1.1331 -0.3552 -2.0236
 2580TIP3    H2 7663   1.006   2.929   4.285  0.1637 -0.5879  0.7818
 2581TIP3   OH2 7664   3.176   4.092   3.382 -0.2109  0.2215 -0.3446
 2581TIP3    H1 7665   3.250   4.152   3.396 -0.1437  0.3077 -1.0185
 2581TIP3    H2 7666   3.217   4.007   3.371 -0.2843  0.1027  0.2845
 2582TIP3   OH2 7667   8.653   1.075   6.004 -0.1734 -0.5376 -0.3283
 2582TIP3    H1 7668   8.561   1.090   5.983  0.2697 -0.2437 -2.1046
 2582TIP3    H2 7669   8.676   1.147   6.063 -1.1122 -0.7071  0.2607
 2583TIP3   OH2 7670   2.441   1.322   4.046 -0.1452  0.3221 -0.2337
 2583TIP3    H1 7671   2.436   1.334   4.141  0.4757 -2.7694  0.2493
 2583TIP3    H2 7672   2.349   1.324   4.018 -0.5858 -1.5900  0.8929
 2584TIP3   OH2 7673   1.690   2.061   2.106  0.3048  0.5443  0.0851
 2584TIP3    H1 7674   1.692   2.054   2.202 -0.7365  0.1979  0.0857
 2584TIP3    H2 7675   1.769   2.016   2.077  0.9464  1.1792  0.8129
 2585TIP3   OH2 7676   2.721   7.507   2.952  0.2680 -0.0462  0.6971
 2585TIP3    H1 7677   2.689   7.434   3.006  0.6065  0.4653  1.6130
 2585TIP3    H2 7678   2.803   7.475   2.915  0.0003 -0.4294  0.4297
 2586TIP3   OH2 7679   3.772   0.769   2.751 -0.7201 -0.2438 -0.3841
 2586TIP3    H1 7680   3.820   0.754   2.670 -0.1853  0.9748 -0.2945
 2586TIP3    H2 7681   3.839   0.768   2.819 -1.0427 -0.2528 -0.0659
 2587TIP3   OH2 7682   1.247   0.469   2.154 -0.2846 -0.2966 -0.3021
 2587TIP3    H1 7683   1.318   0.436   2.099  0.2215  0.0966  0.1133
 2587TIP3    H2 7684   1.219   0.550   2.111 -0.1112 -0.1626 -0.1624
 2588TIP3   OH2 7685   2.725   2.333   4.556  0.2956 -0.1562 -0.0922
 2588TIP3    H1 7686   2.659   2.309   4.621  0.3267 -2.6884 -0.9557
 2588TIP3    H2 7687   2.679   2.389   4.494 -1.0854 -1.9547 -0.7224
 2589TIP3   OH2 7688   2.934   3.495   3.225 -0.3527 -0.5430 -0.2611
 2589TIP3    H1 7689   2.998   3.530   3.286  0.4040  0.2513 -1.4711
 2589TIP3    H2 7690   2.873   3.567   3.210 -2.1150 -1.5942  1.6180
 2590TIP3   OH2 7691   1.033   1.538   3.497  0.2062 -0.0447 -0.3876
 2590TIP3    H1 7692   0.950   1.495   3.518  0.7530 -0.1928  1.6061
 2590TIP3    H2 7693   1.057   1.583   3.578  0.4597  2.7011 -1.9435
 2591TIP3   OH2 7694   2.196   3.461   4.110  0.0680 -0.4416  0.6488
 2591TIP3    H1 7695   2.140   3.399   4.157  0.3975 -0.2708  1.2723
 2591TIP3    H2 7696   2.233   3.517   4.179 -0.3938  0.5863  0.0759
 2592TIP3   OH2 7697   0.565   3.879   5.460 -0.1702  0.2148 -0.4256
 2592TIP3    H1 7698   0.646   3.889   5.510 -1.4539 -0.0638  1.7705
 2592TIP3    H2 7699   0.581   3.803   5.404  0.5769 -0.7184  1.0332
 2593TIP3   OH2 7700   1.573   2.358   3.596  0.1122  0.2970  0.0633
 2593TIP3    H1 7701   1.596   2.292   3.531  1.5593  1.0423 -0.2054
 2593TIP3    H2 7702   1.590   2.442   3.553  1.4455  0.7969  1.4892
 2594TIP3   OH2 7703   2.090   1.613   1.434  0.3902  0.3254  0.1791
 2594TIP3    H1 7704   2.132   1.657   1.361 -0.7761 -0.1202 -0.7624
 2594TIP3    H2 7705   2.113   1.521   1.424 -0.8421  0.0674 -0.3734
 2595TIP3   OH2 7706   3.716   3.371   3.588  0.1280 -0.1516  0.1050
 2595TIP3    H1 7707   3.790   3.431   3.576  1.4099 -1.4817  1.2163
 2595TIP3    H2 7708   3.643   3.428   3.614  0.9199  1.0816 -0.2994
 2596TIP3   OH2 7709   3.463   3.880   3.701 -0.1161  0.3403 -0.8582
 2596TIP3    H1 7710   3.513   3.933   3.639 -0.5407  0.1914 -1.3353
 2596TIP3    H2 7711   3.463   3.930   3.782  4.0238 -1.3200  0.3362
 2597TIP3   OH2 7712   6.694   8.094   4.443  0.3450 -0.1919  0.3881
 2597TIP3    H1 7713   6.734   8.092   4.356 -2.2535  1.7819 -0.9359
 2597TIP3    H2 7714   6.695   8.002   4.472  0.9280 -0.9397 -1.8941
 2598TIP3   OH2 7715   0.424   2.614   3.729 -0.4415  0.4085  0.6401
 2598TIP3    H1 7716   0.510   2.578   3.709 -0.2390  0.2633  1.7434
 2598TIP3    H2 7717   0.439   2.672   3.803 -1.6202 -1.2127  2.2066
 2599TIP3   OH2 7718   1.741   0.214   2.459  0.2636 -0.1693 -0.5393
 2599TIP3    H1 7719   1.822   0.181   2.419 -0.6069 -0.8985 -1.7525
 2599TIP3    H2 7720   1.692   0.253   2.386 -0.2578  0.7122  0.2710
 2600TIP3   OH2 7721   2.034   2.638   3.808 -0.4016  0.5263  0.5828
 2600TIP3    H1 7722   2.066   2.581   3.878  1.1289 -1.1090 -1.4308
 2600TIP3    H2 7723   2.111   2.688   3.780 -0.6617  0.0596 -0.9962
 2601TIP3   OH2 7724   1.292   3.166   3.887  0.1076 -0.3012 -0.5707
 2601TIP3    H1 7725   1.261   3.232   3.826 -2.5584 -1.2497 -0.2949
 2601TIP3    H2 7726   1.260   3.083   3.852 -0.3450 -0.9882  1.3974
 2602TIP3   OH2 7727   8.331   2.212   1.476 -0.2763 -0.4222 -0.5690
 2602TIP3    H1 7728   8.263   2.219   1.544  0.5345  0.9879  0.1109
 2602TIP3    H2 7729   8.306   2.134   1.426 -1.5908 -0.7609  0.5680
 2603TIP3   OH2 7730   3.034   2.711   4.036 -0.3295 -0.4548  0.3368
 2603TIP3    H1 7731   3.113   2.739   4.083 -0.4845 -0.2086  0.4447
 2603TIP3    H2 7732   2.967   2.705   4.103 -0.5558 -0.0843  0.1414
 2604TIP3   OH2 7733   2.077   0.859   2.647 -0.5206  0.1368 -0.3183
 2604TIP3    H1 7734   2.008   0.924   2.636  0.0322  0.3823 -2.7430
 2604TIP3    H2 7735   2.049   0.785   2.593  0.3390 -0.4021 -0.0472
 2605TIP3   OH2 7736   1.838   2.361   3.738  0.7386  0.4647  0.3471
 2605TIP3    H1 7737   1.800   2.427   3.796 -0.8120  0.7498 -0.9586
 2605TIP3    H2 7738   1.766   2.334   3.682  1.6225 -1.5936  0.1693
 2606TIP3   OH2 7739   2.359   2.245   1.641  0.5500 -0.1975  0.1955
 2606TIP3    H1 7740   2.398   2.162   1.666 -0.4823 -0.6561  0.3415
 2606TIP3    H2 7741   2.265   2.226   1.635  0.4279  0.6994 -0.8208
 2607TIP3   OH2 7742   1.896   2.093   5.071  0.1587  0.2022 -0.5694
 2607TIP3    H1 7743   1.873   2.139   5.152 -0.0742  0.2554 -0.6660
 2607TIP3    H2 7744   1.989   2.072   5.081 -0.6986 -3.0117  1.3046
 2608TIP3   OH2 7745   2.769   0.035   3.307 -0.2808 -0.9497 -0.4174
 2608TIP3    H1 7746   2.730   0.093   3.373 -1.5711 -0.8766 -1.2238
 2608TIP3    H2 7747   2.742  -0.053   3.335  1.8178 -1.2087  0.9011
 2609TIP3   OH2 7748   0.727   3.339   2.317  0.2281 -0.1754 -0.1136
 2609TIP3    H1 7749   0.684   3.301   2.393  1.2683  0.0645  0.6125
 2609TIP3    H2 7750   0.814   3.299   2.317  0.0337 -0.6136 -1.5183
 2610TIP3   OH2 7751   2.923   1.717   3.346 -0.4671 -0.0908 -0.1663
 2610TIP3    H1 7752   2.880   1.632   3.348  0.1534 -0.3879  0.9354
 2610TIP3    H2 7753   2.852   1.780   3.336 -1.0170 -0.6711  0.0416
 2611TIP3   OH2 7754   1.763   0.485   2.599 -0.4742 -0.0574  0.0153
 2611TIP3    H1 7755   1.701   0.465   2.669  1.3111 -0.5778  1.4785
 2611TIP3    H2 7756   1.758   0.409   2.540 -1.1245 -0.1554  0.1978
 2612TIP3   OH2 7757   8.843   3.114   3.186 -0.6152 -0.1369 -0.3241
 2612TIP3    H1 7758   8.848   3.076   3.099 -2.2643 -2.4849  0.5579
 2612TIP3    H2 7759   8.753   3.147   3.193 -0.9686 -1.3581  1.0292
 2613TIP3   OH2 7760   2.500   2.524   4.270  0.5698  0.2405  0.1439
 2613TIP3    H1 7761   2.486   2.430   4.277 -1.3874  0.3998 -1.1853
 2613TIP3    H2 7762   2.553   2.534   4.191  0.1917  0.3023 -0.1021
 2614TIP3   OH2 7763   0.863   8.216   0.475  0.6505  0.3022  0.5948
 2614TIP3    H1 7764   0.875   8.289   0.534  1.8932 -0.8025  1.7279
 2614TIP3    H2 7765   0.858   8.139   0.532 -2.1605 -0.3696 -0.4518
 2615TIP3   OH2 7766   1.646   2.726   2.300  0.1242 -0.0443 -0.4360
 2615TIP3    H1 7767   1.714   2.775   2.253  0.9984 -0.4376  0.4138
 2615TIP3    H2 7768   1.592   2.793   2.341  1.2749  0.2288  0.6618
 2616TIP3   OH2 7769   4.846   2.437   2.918 -0.1049 -0.1522 -0.3517
 2616TIP3    H1 7770   4.836   2.400   2.830 -0.0906  1.9709 -1.2701
 2616TIP3    H2 7771   4.930   2.481   2.917  0.1315 -0.5306  0.9136
 2617TIP3   OH2 7772   1.537   2.638   2.892  0.4589 -0.0549 -0.4857
 2617TIP3    H1 7773   1.562   2.688   2.970  1.0867  0.4384 -0.9912
 2617TIP3    H2 7774   1.494   2.703   2.836  2.1179  0.1534 -1.5536
 2618TIP3   OH2 7775   2.063   1.464   2.998  0.0766 -0.4223 -0.7350
 2618TIP3    H1 7776   2.088   1.450   3.089 -2.2158 -0.5623 -0.0881
 2618TIP3    H2 7777   2.042   1.557   2.992 -0.5837 -0.5739 -0.8934
 2619TIP3   OH2 7778   3.264   1.325   3.740 -0.3864 -0.5346  0.2456
 2619TIP3    H1 7779   3.336   1.287   3.690  0.8848 -0.5330  2.0021
 2619TIP3    H2 7780   3.258   1.415   3.708  0.8933 -0.3144  0.5872
 2620TIP3   OH2 7781   1.471   0.284   3.012 -0.2617 -0.1829  0.2976
 2620TIP3    H1 7782   1.441   0.258   3.099 -1.0890  2.4526  0.8515
 2620TIP3    H2 7783   1.496   0.202   2.969 -1.3607 -1.6744  2.4387
 2621TIP3   OH2 7784   3.803   2.841   3.865  0.6366  0.2068  0.2476
 2621TIP3    H1 7785   3.880   2.785   3.863  1.1560  0.9228 -0.8753
 2621TIP3    H2 7786   3.809   2.893   3.784  0.1285  1.8048  1.2001
 2622TIP3   OH2 7787   2.891   0.965   2.932  0.3890 -0.4052  0.0038
 2622TIP3    H1 7788   2.827   0.981   2.863 -0.9342  1.8086  1.6703
 2622TIP3    H2 7789   2.971   1.005   2.901 -0.7634  2.4842  0.6057
 2623TIP3   OH2 7790   1.661   3.829   4.323  0.2432 -0.3718 -0.5564
 2623TIP3    H1 7791   1.677   3.825   4.418  1.0209 -1.3679 -0.7203
 2623TIP3    H2 7792   1.582   3.881   4.315  1.5248  1.8369  0.5014
 2624TIP3   OH2 7793   0.209   2.878   3.367  0.1698  0.7618  0.4330
 2624TIP3    H1 7794   0.178   2.790   3.389  1.0686  0.2509 -0.2944
 2624TIP3    H2 7795   0.136   2.935   3.388  0.1746  0.0526  2.5717
 2625TIP3   OH2 7796   0.496   1.744   4.238  0.1716  0.3884  0.4253
 2625TIP3    H1 7797   0.461   1.731   4.326 -1.7098  3.0554  0.1360
 2625TIP3    H2 7798   0.582   1.785   4.253  0.2937 -0.0832  1.0357
 2626TIP3   OH2 7799   2.518   3.038   5.002  0.3589 -0.2473 -0.2870
 2626TIP3    H1 7800   2.514   3.123   4.957  1.3788 -0.2372 -0.3700
 2626TIP3    H2 7801   2.568   3.056   5.082  0.8291 -0.8311 -0.4484
 2627TIP3   OH2 7802   1.832   1.991   6.416  0.0507  0.2314  0.1393
 2627TIP3    H1 7803   1.862   1.909   6.456 -0.5903 -0.6923 -1.2479
 2627TIP3    H2 7804   1.908   2.049   6.422  0.6200 -0.5626  0.8327
 2628TIP3   OH2 7805   1.790   3.654   2.487  0.1847 -0.4491 -0.2739
 2628TIP3    H1 7806   1.716   3.715   2.487  1.1929  0.7883 -0.2562
 2628TIP3    H2 7807   1.763   3.584   2.546 -1.3772 -0.5141 -1.0362
 2629TIP3   OH2 7808   5.798   2.913   4.446 -0.0639 -0.2661  0.0166
 2629TIP3    H1 7809   5.813   2.844   4.381  1.9970  0.5476 -0.4153
 2629TIP3    H2 7810   5.769   2.988   4.394 -0.5416 -0.2751  0.2748
 2630TIP3   OH2 7811   1.760   2.622   5.890 -0.9447  0.3801 -0.3004
 2630TIP3    H1 7812   1.824   2.588   5.953  0.1541  2.0104 -0.5067
 2630TIP3    H2 7813   1.713   2.544   5.859 -1.4146 -0.4879  2.4193
 2631TIP3   OH2 7814   0.564   0.759   1.326 -0.0168  0.3276 -0.9074
 2631TIP3    H1 7815   0.610   0.675   1.326  0.0820  0.3442  1.5709
 2631TIP3    H2 7816   0.540   0.773   1.235  3.5276 -0.4152 -2.0239
 2632TIP3   OH2 7817   1.685   2.629   4.867  0.1902  0.0570  0.1466
 2632TIP3    H1 7818   1.727   2.571   4.931 -0.0504  0.6580  0.8597
 2632TIP3    H2 7819   1.603   2.655   4.909 -1.0564 -1.3044 -1.3280
 2633TIP3   OH2 7820   3.091   2.619   2.800  0.1464  0.2989 -1.0379
 2633TIP3    H1 7821   3.185   2.620   2.780  0.7191  1.9464  1.5679
 2633TIP3    H2 7822   3.079   2.688   2.865 -2.1805 -2.5409  1.7189
 2634TIP3   OH2 7823   3.282   5.773   0.738  0.0105 -0.2197  0.2564
 2634TIP3    H1 7824   3.190   5.751   0.750 -0.2329  0.9553  0.6460
 2634TIP3    H2 7825   3.328   5.723   0.806 -0.4837  0.1652  0.8809
 2635TIP3   OH2 7826   1.864   1.012   2.729 -0.3892  0.3533  0.0377
 2635TIP3    H1 7827   1.878   0.998   2.823  0.5543 -1.5577 -0.3623
 2635TIP3    H2 7828   1.769   1.009   2.719 -0.5597  1.6111  1.0690
 2636TIP3   OH2 7829   1.911   4.017   5.202  0.1099 -0.3563  0.3806
 2636TIP3    H1 7830   1.897   4.042   5.293 -0.8675 -0.2118  0.1928
 2636TIP3    H2 7831   1.999   4.050   5.182  0.8445 -1.5021  1.6401
 2637TIP3   OH2 7832   1.979   3.894   2.463  0.2746 -0.5657 -0.2540
 2637TIP3    H1 7833   2.054   3.856   2.509 -1.3988 -0.2484  2.8224
 2637TIP3    H2 7834   1.937   3.819   2.420  1.0489 -1.0691 -0.1600
 2638TIP3   OH2 7835   0.923   2.922   3.416  0.1886 -0.2510  0.4249
 2638TIP3    H1 7836   0.948   2.874   3.338 -1.4734 -1.1702  0.4416
 2638TIP3    H2 7837   0.846   2.972   3.390 -0.0692 -0.1642  1.3259
 2639TIP3   OH2 7838   3.446   2.657   2.547 -0.1701 -0.5448 -0.7726
 2639TIP3    H1 7839   3.470   2.707   2.468 -1.9133  1.4571 -0.0888
 2639TIP3    H2 7840   3.350   2.663   2.550  0.0041  1.2926  2.6898
 2640TIP3   OH2 7841   1.730   4.141   4.917 -0.0485 -0.0205 -0.4790
 2640TIP3    H1 7842   1.822   4.129   4.895  0.1988 -1.8078  1.3770
 2640TIP3    H2 7843   1.730   4.200   4.992 -0.4543  0.2839 -0.7127
 2641TIP3   OH2 7844   0.731   7.788   3.658  0.2958 -0.2679  0.6207
 2641TIP3    H1 7845   0.743   7.867   3.605  1.1579 -0.5855  0.3253
 2641TIP3    H2 7846   0.640   7.762   3.642  0.4722 -0.2321 -0.5397
 2642TIP3   OH2 7847   1.967   1.992   3.374  0.3460 -0.5153  0.5310
 2642TIP3    H1 7848   1.960   2.067   3.315  1.3474 -0.4445  0.4921
 2642TIP3    H2 7849   2.006   2.028   3.454  0.9740 -1.0095  0.4561
 2643TIP3   OH2 7850   3.302   4.655   1.898  0.1284  0.2111 -0.4245
 2643TIP3    H1 7851   3.365   4.711   1.852  1.7915  0.0344  1.5375
 2643TIP3    H2 7852   3.356   4.603   1.957 -1.9845  0.8427  2.1353
 2644TIP3   OH2 7853   1.330   1.549   3.897 -0.6193  0.3090 -0.9197
 2644TIP3    H1 7854   1.378   1.551   3.980 -0.5571  2.3651 -0.9904
 2644TIP3    H2 7855   1.304   1.457   3.887  2.0965 -0.5812 -0.1978
 2645TIP3   OH2 7856   7.894   0.293   4.321  0.0709 -0.1597  0.3567
 2645TIP3    H1 7857   7.943   0.262   4.397  0.0685 -0.4432  0.2404
 2645TIP3    H2 7858   7.831   0.223   4.302  1.7175 -1.1759 -1.4420
 2646TIP3   OH2 7859   1.063   1.049   4.315 -0.5743  0.3490  0.5272
 2646TIP3    H1 7860   0.993   1.021   4.255  0.3720  0.9558 -0.8847
 2646TIP3    H2 7861   1.034   1.135   4.346 -0.6415  0.4288  0.2475
 2647TIP3   OH2 7862   2.687   1.736   6.538  0.2343  0.0188  0.3532
 2647TIP3    H1 7863   2.652   1.824   6.554  0.8433  0.3051  0.1303
 2647TIP3    H2 7864   2.685   1.693   6.624 -1.0010 -0.0949  0.2692
 2648TIP3   OH2 7865   1.872   1.744   3.444  0.0841 -0.3496  0.2548
 2648TIP3    H1 7866   1.893   1.835   3.427  0.0767 -0.7263 -1.8460
 2648TIP3    H2 7867   1.795   1.748   3.502 -1.1473  0.9864 -1.4279
 2649TIP3   OH2 7868   1.111   1.607   5.482 -0.4974  0.2347  0.6059
 2649TIP3    H1 7869   1.135   1.517   5.503 -0.5491  0.2059  0.5445
 2649TIP3    H2 7870   1.193   1.656   5.483 -0.3802  0.0606  0.0078
 2650TIP3   OH2 7871   0.650   1.174   3.840 -0.5633 -0.4286 -0.0395
 2650TIP3    H1 7872   0.596   1.097   3.825  0.1873 -0.9008 -0.3002
 2650TIP3    H2 7873   0.720   1.168   3.775  0.3927 -0.3591  0.9738
 2651TIP3   OH2 7874   7.790   7.822   3.164  0.1361 -0.1072 -0.1114
 2651TIP3    H1 7875   7.713   7.800   3.217  0.9545 -1.4871  0.5421
 2651TIP3    H2 7876   7.793   7.918   3.164 -1.1480 -0.0570  0.4808
 2652TIP3   OH2 7877   2.407   3.321   6.375 -0.0035 -0.4171  0.0003
 2652TIP3    H1 7878   2.359   3.279   6.304  0.1457  0.1462 -0.4404
 2652TIP3    H2 7879   2.344   3.328   6.446 -0.7164  0.7234 -0.7277
 2653TIP3   OH2 7880   2.636   3.296   2.061  0.0470 -0.5477 -0.1540
 2653TIP3    H1 7881   2.586   3.377   2.073  1.1261 -0.0008  0.7295
 2653TIP3    H2 7882   2.623   3.248   2.143  0.1474 -0.8503 -0.3183
 2654TIP3   OH2 7883   0.402   1.857   0.204  0.2349  0.3140  0.0319
 2654TIP3    H1 7884   0.383   1.924   0.269 -0.7562  0.7393 -0.6758
 2654TIP3    H2 7885   0.383   1.774   0.249  0.8554  0.5432  0.7058
 2655TIP3   OH2 7886   1.377   3.338   2.182 -0.5633  0.6645  0.1459
 2655TIP3    H1 7887   1.435   3.406   2.215  1.6434 -0.8207 -0.5903
 2655TIP3    H2 7888   1.338   3.299   2.260  0.1243  1.0523  0.6809
 2656TIP3   OH2 7889   1.223   1.254   3.864  0.3457 -0.4137  0.0224
 2656TIP3    H1 7890   1.317   1.236   3.873 -0.0223 -0.9651  3.6609
 2656TIP3    H2 7891   1.192   1.187   3.802  1.8927 -1.9811  0.8744
 2657TIP3   OH2 7892   2.545   3.916   4.403 -0.0636 -0.8298 -0.5101
 2657TIP3    H1 7893   2.554   3.904   4.308 -1.0506  0.6210 -0.8012
 2657TIP3    H2 7894   2.633   3.936   4.433 -0.2214  1.6455 -1.5823
 2658TIP3   OH2 7895   3.352   4.383   2.664  0.8723  0.5887 -0.2109
 2658TIP3    H1 7896   3.424   4.442   2.639  0.3433  0.7001 -1.5430
 2658TIP3    H2 7897   3.299   4.435   2.724 -0.1075  1.8572 -2.1069
 2659TIP3   OH2 7898   1.556   3.146   3.634 -0.0612  0.4711  0.2568
 2659TIP3    H1 7899   1.560   3.121   3.727  0.3223  1.9292  0.6516
 2659TIP3    H2 7900   1.645   3.176   3.614  0.1119 -0.7626 -0.8595
 2660TIP3   OH2 7901   1.114   3.155   2.924  0.4578  0.0913 -0.4777
 2660TIP3    H1 7902   1.155   3.138   3.009  2.4679 -1.5438 -1.7067
 2660TIP3    H2 7903   1.043   3.091   2.918  0.0698  0.4661  0.1370
 2661TIP3   OH2 7904   2.503   2.079   4.181  0.1172  0.6866 -0.2911
 2661TIP3    H1 7905   2.576   2.054   4.238  0.5458 -2.1824 -2.0561
 2661TIP3    H2 7906   2.442   2.006   4.186 -1.2485  1.7319 -1.2335
 2662TIP3   OH2 7907   2.093   0.967   3.731 -0.0051  0.8996 -0.3575
 2662TIP3    H1 7908   2.045   0.937   3.808  2.9238 -0.3949  1.0341
 2662TIP3    H2 7909   2.037   0.943   3.657 -0.2640 -3.1561  1.0499
 2663TIP3   OH2 7910   2.967   2.304   3.487 -0.1966 -0.2426 -0.2984
 2663TIP3    H1 7911   2.878   2.336   3.503 -0.4583 -0.8644 -0.4894
 2663TIP3    H2 7912   2.990   2.339   3.401 -0.2925 -0.1559 -0.2889
 2664TIP3   OH2 7913   1.772   2.749   0.809  0.6058  0.5692  0.1965
 2664TIP3    H1 7914   1.809   2.834   0.834  0.2346  0.5384  0.8478
 2664TIP3    H2 7915   1.802   2.736   0.719 -1.0089  2.3508 -0.6610
 2665TIP3   OH2 7916   2.657   0.548   4.149 -0.0728 -0.0183 -0.0726
 2665TIP3    H1 7917   2.597   0.579   4.080 -1.8226 -0.6791  1.1166
 2665TIP3    H2 7918   2.603   0.489   4.202  2.0618 -1.8153  0.1526
 2666TIP3   OH2 7919   5.827   8.170   3.712 -0.0471 -0.0559  0.2373
 2666TIP3    H1 7920   5.783   8.097   3.668 -2.2303  2.0586 -1.1559
 2666TIP3    H2 7921   5.763   8.203   3.775  0.8519  0.8229  0.7108
 2667TIP3   OH2 7922   3.396   1.208   3.522 -0.1132  0.2481  0.0857
 2667TIP3    H1 7923   3.356   1.256   3.449 -1.1166 -0.4058  0.1919
 2667TIP3    H2 7924   3.430   1.128   3.482 -0.5726 -0.0628  0.3101
 2668TIP3   OH2 7925   2.021   0.130   3.200  0.2169  0.1533 -0.3839
 2668TIP3    H1 7926   1.926   0.129   3.191  0.1403  2.8304 -0.3827
 2668TIP3    H2 7927   2.039   0.079   3.279 -1.2924  0.4447  0.1544
 2669TIP3   OH2 7928   2.072   0.816   4.013  0.1445  0.1091  0.1778
 2669TIP3    H1 7929   2.012   0.849   4.080  1.8611 -0.9236  2.3098
 2669TIP3    H2 7930   2.102   0.732   4.047  0.0797 -1.0621 -2.5492
 2670TIP3   OH2 7931   7.621   8.105   2.454  0.4800  0.0409  0.2231
 2670TIP3    H1 7932   7.661   8.022   2.426 -1.3210 -0.2667 -1.5597
 2670TIP3    H2 7933   7.652   8.169   2.391  0.5211  0.3951  0.6009
 2671TIP3   OH2 7934   3.870   2.255   4.309  0.2118 -0.0088  0.5356
 2671TIP3    H1 7935   3.953   2.290   4.277  0.6081  0.9661  2.5515
 2671TIP3    H2 7936   3.846   2.189   4.245  2.3558 -0.0504 -0.2774
 2672TIP3   OH2 7937   3.013   0.392   3.740  1.0403 -0.6162  0.8901
 2672TIP3    H1 7938   2.970   0.436   3.666 -2.0147 -0.5004  2.6475
 2672TIP3    H2 7939   3.010   0.299   3.718  1.3298 -0.4862  0.2861
 2673TIP3   OH2 7940   1.351   1.585   2.963  0.0291 -0.0795 -0.6139
 2673TIP3    H1 7941   1.321   1.501   2.930 -1.1967  0.1138 -0.0037
 2673TIP3    H2 7942   1.385   1.567   3.050  0.0754 -0.0024 -0.6155
 2674TIP3   OH2 7943   1.529   7.899   4.009  0.2266  0.2043  0.2293
 2674TIP3    H1 7944   1.525   7.850   4.091 -0.4736 -1.0188 -0.5199
 2674TIP3    H2 7945   1.438   7.904   3.979  0.6904 -1.2069 -1.5255
 2675TIP3   OH2 7946   1.919   0.674   3.409 -0.2660  0.3188 -0.4825
 2675TIP3    H1 7947   1.940   0.682   3.502 -0.2830 -1.3375 -0.3252
 2675TIP3    H2 7948   1.967   0.596   3.380 -0.6645  0.5315 -1.7490
 2676TIP3   OH2 7949   8.234   0.274   1.944 -0.1205 -0.0573 -0.1537
 2676TIP3    H1 7950   8.234   0.293   2.038  0.1405  0.1011 -0.1874
 2676TIP3    H2 7951   8.241   0.179   1.939 -2.7291 -0.2971  0.0436
 2677TIP3   OH2 7952   4.693   0.729   3.345  0.1942 -0.8345  0.0856
 2677TIP3    H1 7953   4.681   0.803   3.285  2.1652 -0.5333  0.0530
 2677TIP3    H2 7954   4.618   0.736   3.405 -0.7775 -0.0509 -1.1911
 2678TIP3   OH2 7955   3.267   0.591   2.094 -0.2970 -0.2583  0.4402
 2678TIP3    H1 7956   3.356   0.577   2.128 -1.0342 -2.1063  1.7003
 2678TIP3    H2 7957   3.277   0.588   1.999  1.2103  1.0884  0.5276
 2679TIP3   OH2 7958   6.106   8.105   3.740  0.2148  0.5329 -0.0118
 2679TIP3    H1 7959   6.012   8.116   3.726  0.3181 -1.1380 -2.1815
 2679TIP3    H2 7960   6.114   8.082   3.833 -1.3355  2.3196  0.6090
 2680TIP3   OH2 7961   3.202   2.971   5.796  0.6542  0.2546  0.1481
 2680TIP3    H1 7962   3.238   2.992   5.882  0.7063  0.4528  0.0787
 2680TIP3    H2 7963   3.186   2.876   5.798  1.7179  0.0678 -0.0280
 2681TIP3   OH2 7964   0.888   2.110   4.940 -0.8644  0.0275 -0.1028
 2681TIP3    H1 7965   0.863   2.064   5.020  0.3095  0.4505  0.5204
 2681TIP3    H2 7966   0.907   2.200   4.969  0.0856  0.0474 -0.7630
 2682TIP3   OH2 7967   0.942   3.122   5.434  0.7073  0.3558 -0.2480
 2682TIP3    H1 7968   0.945   3.200   5.489  0.1213 -0.5883  1.1479
 2682TIP3    H2 7969   0.991   3.056   5.484 -0.7093 -0.8098 -0.3872
 2683TIP3   OH2 7970   0.589   2.830   4.258  0.2222  0.4561 -0.2826
 2683TIP3    H1 7971   0.635   2.884   4.323 -2.2335 -0.6993  2.5052
 2683TIP3    H2 7972   0.632   2.745   4.263  0.4393  0.5454 -0.6282
 2684TIP3   OH2 7973   0.130   1.156   2.338  0.2181 -0.2921 -0.3405
 2684TIP3    H1 7974   0.155   1.235   2.386 -0.1404 -1.2047  1.3557
 2684TIP3    H2 7975   0.040   1.139   2.364  0.0887 -0.9283 -1.1696
 2685TIP3   OH2 7976   2.349   3.583   5.955 -0.1230 -0.1753  0.3364
 2685TIP3    H1 7977   2.332   3.490   5.935 -1.8217  0.3445 -0.7683
 2685TIP3    H2 7978   2.280   3.607   6.017  0.3765  0.3300  0.7002
 2686TIP3   OH2 7979   4.144   1.075   6.018  0.5641  0.1957 -0.3050
 2686TIP3    H1 7980   4.239   1.074   6.030  0.5278  0.1730 -0.0222
 2686TIP3    H2 7981   4.129   1.020   5.941  0.7986  0.3718 -0.4773
 2687TIP3   OH2 7982   0.279   4.656   4.274  0.2170 -0.3286  0.1454
 2687TIP3    H1 7983   0.301   4.627   4.363 -1.0400 -2.1108 -0.0989
 2687TIP3    H2 7984   0.362   4.687   4.238  1.5697 -3.2487  0.6153
 2688TIP3   OH2 7985   1.577   1.187   4.617  0.2276  0.2352  0.3905
 2688TIP3    H1 7986   1.525   1.146   4.548  1.8589  0.6240 -1.0807
 2688TIP3    H2 7987   1.513   1.238   4.668 -0.9050  0.3361 -1.0971
 2689TIP3   OH2 7988   4.123   3.740   3.839 -0.4479 -0.0724  0.9065
 2689TIP3    H1 7989   4.162   3.712   3.922  0.3521 -1.3931  0.1046
 2689TIP3    H2 7990   4.031   3.716   3.846 -0.2498 -0.7544  1.1726
 2690TIP3   OH2 7991   3.021   1.725   5.277  0.0141 -0.0970 -0.0438
 2690TIP3    H1 7992   3.044   1.818   5.266 -0.4786  0.0702  0.2954
 2690TIP3    H2 7993   2.980   1.721   5.363 -1.4261 -0.3367 -0.7205
 2691TIP3   OH2 7994   1.570   4.058   4.736  0.3243  0.0863  0.0187
 2691TIP3    H1 7995   1.568   3.962   4.727 -3.4011 -0.0172  1.0439
 2691TIP3    H2 7996   1.632   4.073   4.807 -0.2516 -1.7056  0.9486
 2692TIP3   OH2 7997   2.143   2.537   3.371 -0.6547  0.0585  0.0657
 2692TIP3    H1 7998   2.063   2.531   3.424 -0.0452 -0.2568  0.9591
 2692TIP3    H2 7999   2.111   2.556   3.283 -1.6769  0.6499  0.5517
 2693TIP3   OH2 8000   1.645   1.759   1.502 -0.3720 -0.0910 -0.1354
 2693TIP3    H1 8001   1.581   1.761   1.573 -1.3482  1.7073 -1.0171
 2693TIP3    H2 8002   1.718   1.708   1.536 -0.9168  0.5544  2.0800
 2694TIP3   OH2 8003   1.899   2.817   4.736 -0.2813  0.4706 -0.0054
 2694TIP3    H1 8004   1.853   2.893   4.772  0.7048  1.6786 -1.2314
 2694TIP3    H2 8005   1.875   2.816   4.643  0.1366 -0.4117 -0.1071
 2695TIP3   OH2 8006   2.140   0.218   4.332 -0.1549  0.3431 -0.4262
 2695TIP3    H1 8007   2.087   0.228   4.254 -1.0957  0.3897  0.2124
 2695TIP3    H2 8008   2.194   0.297   4.335 -0.4602  0.5663 -0.7659
 2696TIP3   OH2 8009   2.278   1.135   5.085 -0.2649  0.2057  0.2568
 2696TIP3    H1 8010   2.277   1.040   5.073  0.4164  0.3672 -1.0996
 2696TIP3    H2 8011   2.354   1.151   5.141 -2.0909 -0.3086  3.0174
 2697TIP3   OH2 8012   1.344   1.221   3.470  0.4997 -0.3165  0.8688
 2697TIP3    H1 8013   1.303   1.149   3.517 -0.3562  0.4402  1.2967
 2697TIP3    H2 8014   1.418   1.247   3.526 -0.0538  0.0713  1.4395
 2698TIP3   OH2 8015   4.292   1.218   0.919 -0.0010  0.3133  0.1657
 2698TIP3    H1 8016   4.224   1.243   0.856 -0.2541 -1.2823 -0.2003
 2698TIP3    H2 8017   4.349   1.158   0.871  0.2131 -0.3608  1.2526
 2699TIP3   OH2 8018   2.974   3.940   3.265 -0.4702  1.0274 -0.1505
 2699TIP3    H1 8019   3.041   4.006   3.284 -1.3503  1.9451 -0.1589
 2699TIP3    H2 8020   3.014   3.883   3.200  1.7897 -0.8866  2.8080
 2700TIP3   OH2 8021   3.123   0.218   4.370 -0.1174  0.1066  0.3158
 2700TIP3    H1 8022   3.050   0.173   4.413 -0.1775 -0.1029 -0.0128
 2700TIP3    H2 8023   3.142   0.292   4.429  0.6309 -0.8977  1.3622
 2701TIP3   OH2 8024   1.736   5.561   3.687  0.5737 -0.3553 -0.1775
 2701TIP3    H1 8025   1.740   5.647   3.644 -0.6174 -0.8474 -1.2951
 2701TIP3    H2 8026   1.648   5.529   3.669  0.3966 -1.0354  1.7796
 2702TIP3   OH2 8027   8.040   4.806   3.924 -0.2948 -0.2866 -0.0811
 2702TIP3    H1 8028   8.091   4.742   3.875 -0.0324 -0.3970  0.3353
 2702TIP3    H2 8029   8.079   4.890   3.902  0.0432 -0.3677  0.2029
 2703TIP3   OH2 8030   1.046   1.680   4.468  0.6039 -0.6254  0.2133
 2703TIP3    H1 8031   1.056   1.775   4.480  1.4246 -0.8125  1.1055
 2703TIP3    H2 8032   1.057   1.667   4.374 -1.6859  0.4051 -0.2166
 2704TIP3   OH2 8033   2.287   3.229   4.616 -0.4394 -0.5732  0.2255
 2704TIP3    H1 8034   2.247   3.286   4.550  0.6117 -0.2117 -0.1084
 2704TIP3    H2 8035   2.215   3.175   4.648 -1.3875  0.7109  0.3078
 2705TIP3   OH2 8036   2.435   2.304   4.623 -0.9517  0.7867 -0.0180
 2705TIP3    H1 8037   2.414   2.279   4.534 -1.4003 -0.2445  0.3716
 2705TIP3    H2 8038   2.398   2.392   4.633 -1.9915  0.4090 -0.4559
 2706TIP3   OH2 8039   4.078   1.630   5.334  1.0754  0.0889 -0.1465
 2706TIP3    H1 8040   4.056   1.720   5.356 -0.1427  0.0827 -1.2831
 2706TIP3    H2 8041   4.137   1.637   5.259 -0.3160 -0.0945 -1.2742
 2707TIP3   OH2 8042   4.165   3.499   3.737  0.1823  0.2994 -0.0777
 2707TIP3    H1 8043   4.220   3.453   3.799 -0.9369  0.5914  1.1628
 2707TIP3    H2 8044   4.159   3.588   3.771 -1.7495  0.0547  0.3039
 2708TIP3   OH2 8045   5.430   1.499   1.775  0.4873  0.2244  0.0146
 2708TIP3    H1 8046   5.515   1.522   1.813  0.9817  0.3171 -1.1223
 2708TIP3    H2 8047   5.446   1.416   1.730 -0.5107 -0.7448  1.4260
 2709TIP3   OH2 8048   3.333   0.178   2.912  0.1085  0.3500 -0.5989
 2709TIP3    H1 8049   3.318   0.146   2.823 -2.4980 -0.6245  0.1501
 2709TIP3    H2 8050   3.284   0.260   2.916 -0.3905  0.0162  0.1591
 2710TIP3   OH2 8051   2.661   1.162   0.917  0.4323 -0.0251 -0.0824
 2710TIP3    H1 8052   2.733   1.103   0.940  2.1374  1.2823 -1.8980
 2710TIP3    H2 8053   2.607   1.113   0.855  0.6274 -0.4584  0.0956
 2711TIP3   OH2 8054   3.755   1.476   3.202 -0.5972 -0.7230 -0.4086
 2711TIP3    H1 8055   3.742   1.438   3.288 -0.1225 -1.6072 -0.7254
 2711TIP3    H2 8056   3.806   1.556   3.218  1.1197 -1.8582 -0.0437
 2712TIP3   OH2 8057   3.036   3.342   2.893 -0.1876  0.2977  0.5471
 2712TIP3    H1 8058   3.016   3.289   2.970 -1.1726  0.5227  0.4470
 2712TIP3    H2 8059   3.091   3.285   2.839  1.9891  0.7617  2.2126
 2713TIP3   OH2 8060   2.997   0.652   2.856 -0.1425 -0.4732 -0.0200
 2713TIP3    H1 8061   3.044   0.590   2.799  1.5341 -0.6248  1.4616
 2713TIP3    H2 8062   3.057   0.726   2.864 -0.8938  0.0729  0.5642
 2714TIP3   OH2 8063   3.973   0.353   2.256  0.5110  0.4144  0.2711
 2714TIP3    H1 8064   3.975   0.279   2.317  0.2851  0.6673  0.5834
 2714TIP3    H2 8065   4.059   0.394   2.266  0.4383  0.5147  0.4918
 2715TIP3   OH2 8066   2.625   1.525   4.086 -0.0275 -0.5184 -0.0134
 2715TIP3    H1 8067   2.566   1.455   4.056 -1.3274 -0.0973  1.5018
 2715TIP3    H2 8068   2.627   1.515   4.181  0.6234  0.8615  0.1250
 2716TIP3   OH2 8069   2.678   0.602   3.751  0.4604  0.6163 -0.3706
 2716TIP3    H1 8070   2.645   0.625   3.665  0.6833 -0.8628 -0.8623
 2716TIP3    H2 8071   2.611   0.634   3.812 -0.5802  0.0273 -1.2006
 2717TIP3   OH2 8072   4.165   1.702   2.993  0.1009 -0.4481  0.3009
 2717TIP3    H1 8073   4.199   1.791   2.999 -0.6858  0.0099 -1.4469
 2717TIP3    H2 8074   4.177   1.665   3.080  5.6445 -0.5476 -0.3169
 2718TIP3   OH2 8075   4.136   3.034   3.944  0.5938 -0.0572 -0.9658
 2718TIP3    H1 8076   4.067   3.096   3.920  0.9114  0.4269 -0.6459
 2718TIP3    H2 8077   4.119   3.015   4.036 -0.0488 -1.1610 -1.3105
 2719TIP3   OH2 8078   2.767   2.046   3.568 -0.3165 -0.0463 -0.4657
 2719TIP3    H1 8079   2.748   2.008   3.483  0.3063  0.8750 -1.0284
 2719TIP3    H2 8080   2.777   2.140   3.551 -1.9007  0.3923  0.9031
 2720TIP3   OH2 8081   3.652   1.047   2.320 -0.0077  0.2826 -0.4707
 2720TIP3    H1 8082   3.682   1.126   2.276 -0.6238 -0.2229 -1.8030
 2720TIP3    H2 8083   3.559   1.039   2.298  0.4771 -1.8317 -1.9250
 2721TIP3   OH2 8084   3.161   3.525   3.831  0.5330 -0.2708 -0.1783
 2721TIP3    H1 8085   3.217   3.576   3.772  0.8250 -0.3985 -0.0125
 2721TIP3    H2 8086   3.098   3.589   3.865  0.8579 -0.0305 -0.0205
 2722TIP3   OH2 8087   4.629   2.131   1.196 -0.3181 -0.1342 -0.0465
 2722TIP3    H1 8088   4.567   2.176   1.140  0.5506  1.4775  0.2465
 2722TIP3    H2 8089   4.695   2.096   1.136 -1.6354 -2.0816 -0.3791
 2723TIP3   OH2 8090   4.812   2.326   3.831 -0.4292  0.3572 -0.6750
 2723TIP3    H1 8091   4.760   2.298   3.756  0.7085  1.5184 -1.9171
 2723TIP3    H2 8092   4.903   2.321   3.802  0.1209 -0.5684  1.1011
 2724TIP3   OH2 8093   4.024   0.826   1.380  0.6092 -0.5571 -0.2447
 2724TIP3    H1 8094   3.952   0.779   1.422  0.7156  0.2994  0.9180
 2724TIP3    H2 8095   4.038   0.903   1.435  1.7954 -0.2294 -0.9816
 2725TIP3   OH2 8096   4.455   0.399   2.639 -0.2203  0.3016  0.2048
 2725TIP3    H1 8097   4.497   0.483   2.658  1.2249 -0.2626 -0.4083
 2725TIP3    H2 8098   4.463   0.349   2.720  2.1302 -0.5420 -0.5130
 2726TIP3   OH2 8099   3.352   0.351   2.312 -0.1357  0.1378 -0.0102
 2726TIP3    H1 8100   3.336   0.444   2.327  0.9864  0.0503  1.8612
 2726TIP3    H2 8101   3.408   0.324   2.384 -1.9989 -2.4420  0.5585
 2727TIP3   OH2 8102   2.948   3.267   3.797  0.2229 -0.1530  0.1551
 2727TIP3    H1 8103   3.031   3.221   3.810 -0.1313 -0.9035 -0.1881
 2727TIP3    H2 8104   2.883   3.197   3.793 -0.3172  0.3763 -0.4473
 2728TIP3   OH2 8105   4.281   2.574   2.492 -0.2906 -0.0737  0.4892
 2728TIP3    H1 8106   4.318   2.531   2.569 -2.9004 -1.1336  1.2133
 2728TIP3    H2 8107   4.284   2.507   2.423 -2.9976 -1.0029  1.2149
 2729TIP3   OH2 8108   1.707   2.490   2.426  0.0322 -0.2479  0.4310
 2729TIP3    H1 8109   1.689   2.424   2.359 -1.2603 -0.3210  0.8274
 2729TIP3    H2 8110   1.695   2.574   2.381  1.4643 -0.2718 -0.0174
 2730TIP3   OH2 8111   4.523   3.402   3.711  0.0557 -0.0299  0.9199
 2730TIP3    H1 8112   4.448   3.384   3.767 -0.1432  1.6810  1.2537
 2730TIP3    H2 8113   4.522   3.333   3.645 -2.1024  0.2587  0.6201
 2731TIP3   OH2 8114   5.111   2.210   3.539  0.1107 -0.1584  0.4578
 2731TIP3    H1 8115   5.182   2.225   3.477 -1.4504  1.0332 -1.1100
 2731TIP3    H2 8116   5.128   2.270   3.611  0.1055  0.9637 -0.4522
 2732TIP3   OH2 8117   4.384   1.362   2.499  0.0969 -0.6660 -0.5661
 2732TIP3    H1 8118   4.303   1.402   2.468  0.0229 -1.2454 -1.1383
 2732TIP3    H2 8119   4.452   1.398   2.443  0.5677  1.5723  1.3895
 2733TIP3   OH2 8120   4.470   1.641   4.455 -0.6000 -0.1003  0.2419
 2733TIP3    H1 8121   4.445   1.659   4.365 -0.5977 -2.8692 -0.3492
 2733TIP3    H2 8122   4.566   1.642   4.454 -0.5968  1.5036  0.5910
 2734TIP3   OH2 8123   1.118   2.565   2.563  0.5864  0.0909 -0.2725
 2734TIP3    H1 8124   1.184   2.498   2.580  0.7883  0.2811 -0.3043
 2734TIP3    H2 8125   1.035   2.524   2.586  0.7158 -0.1526 -0.2433
 2735TIP3   OH2 8126   4.211   2.296   2.808 -0.1127  0.4886 -0.2317
 2735TIP3    H1 8127   4.281   2.291   2.872 -0.7566 -0.6203  0.4157
 2735TIP3    H2 8128   4.234   2.369   2.752  1.4044  0.3166  0.1526
 2736TIP3   OH2 8129   2.312   0.583   2.523 -0.1358 -0.2322  0.2196
 2736TIP3    H1 8130   2.220   0.608   2.516  0.2612  0.6670 -2.0562
 2736TIP3    H2 8131   2.313   0.490   2.501 -0.6608 -0.6018  1.6668
 2737TIP3   OH2 8132   4.032   1.340   0.836  0.1552 -0.6003 -0.4336
 2737TIP3    H1 8133   4.060   1.429   0.816 -1.0144 -0.2214 -0.4597
 2737TIP3    H2 8134   4.004   1.344   0.928  1.3091 -1.2535 -0.0530
 2738TIP3   OH2 8135   5.482   1.956   4.075 -0.0283  0.4891 -0.1151
 2738TIP3    H1 8136   5.575   1.948   4.097  0.6874  2.1959 -2.3319
 2738TIP3    H2 8137   5.458   1.870   4.040  0.9054  0.2650 -0.2194
 2739TIP3   OH2 8138   3.208   0.333   1.570 -0.0343 -0.1162 -0.2022
 2739TIP3    H1 8139   3.281   0.272   1.561  0.7334  0.6921  0.5134
 2739TIP3    H2 8140   3.140   0.282   1.614 -0.5556 -1.3911 -2.3854
 2740TIP3   OH2 8141   6.444   2.490   4.965 -0.3188  0.4507 -0.3429
 2740TIP3    H1 8142   6.452   2.505   4.871 -0.1893  1.5696 -0.1679
 2740TIP3    H2 8143   6.514   2.428   4.986  0.5054  1.2247 -0.7633
 2741TIP3   OH2 8144   4.373   2.559   2.772 -0.7054 -0.3288  0.0963
 2741TIP3    H1 8145   4.399   2.650   2.755 -1.5856 -0.2977 -1.1191
 2741TIP3    H2 8146   4.357   2.556   2.867 -0.5066  0.7355  0.1671
 2742TIP3   OH2 8147   4.029   2.739   3.417  0.6237 -0.4422 -0.1264
 2742TIP3    H1 8148   3.962   2.785   3.468  1.7760 -2.1363  3.0491
 2742TIP3    H2 8149   3.996   2.741   3.327 -2.6657  0.5692  1.0217
 2743TIP3   OH2 8150   3.009   3.452   3.571 -0.4862  0.4314  0.2241
 2743TIP3    H1 8151   3.033   3.427   3.660 -2.1096  1.8538  1.0946
 2743TIP3    H2 8152   2.986   3.369   3.528  0.6282 -0.2955  1.0017
 2744TIP3   OH2 8153   5.124   3.002   1.071 -0.5757  0.3414  0.0768
 2744TIP3    H1 8154   5.139   3.088   1.033 -1.2127  0.2949 -0.2968
 2744TIP3    H2 8155   5.051   3.015   1.133 -1.1076 -0.0519 -0.4605
 2745TIP3   OH2 8156   1.282   3.305   4.898 -0.7815  0.3586  0.5199
 2745TIP3    H1 8157   1.370   3.339   4.885 -0.2344 -1.5328 -1.0754
 2745TIP3    H2 8158   1.231   3.380   4.928  0.9484  1.9147 -0.3366
 2746TIP3   OH2 8159   4.081   2.981   3.017 -0.1936  0.1377  0.2989
 2746TIP3    H1 8160   4.116   3.034   3.089 -1.0297 -1.6342  2.0828
 2746TIP3    H2 8161   4.028   3.042   2.966 -0.3612  1.2486  1.7621
 2747TIP3   OH2 8162   3.838   2.861   5.737  0.0545 -0.1382 -0.2844
 2747TIP3    H1 8163   3.805   2.771   5.738  3.0356 -1.2728 -0.4960
 2747TIP3    H2 8164   3.836   2.888   5.829 -0.9292 -0.3797 -0.2297
 2748TIP3   OH2 8165   3.518   3.401   4.446 -0.5463 -0.5271 -0.0703
 2748TIP3    H1 8166   3.477   3.443   4.371 -3.1122 -0.1185  1.4888
 2748TIP3    H2 8167   3.520   3.308   4.423 -1.9392 -0.4882 -0.3884
 2749TIP3   OH2 8168   3.138   3.124   3.377 -0.4401  0.0392  0.3139
 2749TIP3    H1 8169   3.044   3.132   3.387 -0.5868  0.5124 -1.2456
 2749TIP3    H2 8170   3.168   3.081   3.457 -2.2068 -1.7516  0.0532
 2750TIP3   OH2 8171   8.015   5.576   7.121 -0.4106  0.4734  0.0570
 2750TIP3    H1 8172   8.060   5.496   7.148  0.2627  0.3383 -1.4358
 2750TIP3    H2 8173   8.083   5.631   7.083 -0.8865  1.7402  1.0066
 2751TIP3   OH2 8174   4.563   1.373   1.859 -0.2809  0.7686 -0.5566
 2751TIP3    H1 8175   4.530   1.368   1.948 -0.2203 -2.6282 -0.6714
 2751TIP3    H2 8176   4.651   1.336   1.863 -0.2340  0.6621 -2.0084
 2752TIP3   OH2 8177   5.464   2.620   1.260  0.0294 -0.4451 -0.1151
 2752TIP3    H1 8178   5.559   2.610   1.262  0.0870  0.0320  2.7516
 2752TIP3    H2 8179   5.450   2.715   1.268 -0.6851 -0.6387  1.0816
 2753TIP3   OH2 8180   3.913   0.728   4.237 -0.3452  0.0984 -0.0899
 2753TIP3    H1 8181   3.878   0.727   4.148 -0.3376  0.6634 -0.0973
 2753TIP3    H2 8182   3.847   0.775   4.288 -1.2731 -1.8823  0.5846
 2754TIP3   OH2 8183   1.366   1.387   4.409  0.2937 -0.3010 -0.0351
 2754TIP3    H1 8184   1.284   1.347   4.438  1.4369 -2.4853  0.3109
 2754TIP3    H2 8185   1.415   1.402   4.490  1.1572 -1.1061 -0.4043
 2755TIP3   OH2 8186   4.722   3.542   3.823 -0.2457 -0.1917  0.4997
 2755TIP3    H1 8187   4.678   3.476   3.770  0.6402  0.3723 -0.9689
 2755TIP3    H2 8188   4.651   3.591   3.864 -0.9471 -0.6758 -0.1172
 2756TIP3   OH2 8189   5.561   4.269   3.320  0.3382 -0.3248  0.0524
 2756TIP3    H1 8190   5.566   4.295   3.412 -0.3450 -1.0078  0.2843
 2756TIP3    H2 8191   5.608   4.186   3.316 -2.3405 -1.9003  0.4014
 2757TIP3   OH2 8192   3.460   3.336   6.249 -0.3283  0.0123  0.1842
 2757TIP3    H1 8193   3.442   3.339   6.155 -0.7903 -0.7635  0.2449
 2757TIP3    H2 8194   3.551   3.365   6.256 -0.5493  0.8582 -0.4215
 2758TIP3   OH2 8195   3.459   2.992   5.014 -0.1842 -0.2808 -0.5801
 2758TIP3    H1 8196   3.461   2.960   4.924  0.2186 -5.9788  1.2393
 2758TIP3    H2 8197   3.367   3.013   5.030 -0.3218  0.4041 -2.1216
 2759TIP3   OH2 8198   2.676   2.111   3.297  0.2420  0.4169 -0.9737
 2759TIP3    H1 8199   2.642   2.040   3.243  0.0829  0.3894 -0.8371
 2759TIP3    H2 8200   2.611   2.121   3.367  0.9107 -0.1606 -0.2716
 2760TIP3   OH2 8201   6.179   1.066   3.191 -0.7943  0.2731 -0.6466
 2760TIP3    H1 8202   6.210   0.986   3.235 -1.3110  1.1976  1.4406
 2760TIP3    H2 8203   6.155   1.036   3.103  0.3449 -1.6053 -0.3660
 2761TIP3   OH2 8204   5.187   1.734   3.115 -0.1839 -0.0888 -0.4081
 2761TIP3    H1 8205   5.274   1.753   3.151 -0.8848  1.5094  0.5148
 2761TIP3    H2 8206   5.185   1.781   3.031 -0.4384  0.5610 -0.0445
 2762TIP3   OH2 8207   3.958   0.111   2.418 -0.2287  0.4376 -0.2690
 2762TIP3    H1 8208   3.993   0.048   2.482 -1.6105 -0.6734 -0.5624
 2762TIP3    H2 8209   3.865   0.090   2.414 -0.3522  1.2453 -1.8317
 2763TIP3   OH2 8210   4.442   2.441   4.553  0.5567  0.0024  0.7489
 2763TIP3    H1 8211   4.494   2.411   4.627 -0.5812  0.7496  1.8736
 2763TIP3    H2 8212   4.486   2.521   4.523  0.6728  0.0320  0.9982
 2764TIP3   OH2 8213   3.355   0.133   2.608  0.1187 -0.2457 -0.2814
 2764TIP3    H1 8214   3.415   0.208   2.608  1.2483 -1.1396  0.1123
 2764TIP3    H2 8215   3.268   0.172   2.603  0.6830  1.1124  0.2712
 2765TIP3   OH2 8216   4.920   2.744   4.817  0.2395 -0.2631 -0.3207
 2765TIP3    H1 8217   4.860   2.814   4.841  0.3083 -0.4437  0.3688
 2765TIP3    H2 8218   5.007   2.782   4.829  0.2677  0.1195 -1.6723
 2766TIP3   OH2 8219   4.395   0.210   2.033  0.4075 -0.2586 -0.4694
 2766TIP3    H1 8220   4.406   0.118   2.059 -0.1400 -0.1151  0.2581
 2766TIP3    H2 8221   4.456   0.258   2.089  0.0739 -0.0810 -0.2597
 2767TIP3   OH2 8222   4.489   0.512   1.881 -0.2350 -0.0742  0.2886
 2767TIP3    H1 8223   4.396   0.489   1.891 -0.6529  0.7657 -1.4207
 2767TIP3    H2 8224   4.516   0.541   1.968 -1.1246 -1.9000  1.2007
 2768TIP3   OH2 8225   3.532   3.037   3.719 -0.2016 -0.1516 -0.2627
 2768TIP3    H1 8226   3.615   3.017   3.674 -0.1832 -1.5729  0.3728
 2768TIP3    H2 8227   3.484   3.092   3.657  0.7283 -0.3079 -1.1354
 2769TIP3   OH2 8228   0.931   6.334   3.989 -0.4172  0.8113 -0.0325
 2769TIP3    H1 8229   0.909   6.372   3.904  0.7142  1.4949 -0.0298
 2769TIP3    H2 8230   0.913   6.241   3.979 -0.9086  0.9889 -0.8128
 2770TIP3   OH2 8231   3.108   3.690   3.448 -0.0858  0.2130  0.2877
 2770TIP3    H1 8232   3.061   3.764   3.487  0.4777  0.6138  0.1976
 2770TIP3    H2 8233   3.072   3.613   3.493 -0.9511  0.5058  0.0979
 2771TIP3   OH2 8234   4.952   3.839   4.072  0.0920 -0.0111 -0.2894
 2771TIP3    H1 8235   4.995   3.813   4.154 -0.3276 -1.6239 -0.5653
 2771TIP3    H2 8236   4.969   3.766   4.013  1.4229  1.6615 -2.0397
 2772TIP3   OH2 8237   3.263   3.339   2.571 -0.2188  0.2034 -0.2972
 2772TIP3    H1 8238   3.313   3.307   2.495 -1.5849 -1.0022 -0.7226
 2772TIP3    H2 8239   3.266   3.434   2.563  1.5345  0.1476 -0.6095
 2773TIP3   OH2 8240   3.312   3.658   4.366 -0.0169 -0.6758  0.8204
 2773TIP3    H1 8241   3.226   3.681   4.332 -0.2424 -0.0403  1.7807
 2773TIP3    H2 8242   3.296   3.631   4.456  0.5185 -2.6964  0.3386
 2774TIP3   OH2 8243   3.370   0.890   4.041  0.0308  0.7119  0.2301
 2774TIP3    H1 8244   3.277   0.866   4.037  0.2157 -0.5867  2.5576
 2774TIP3    H2 8245   3.370   0.984   4.061 -0.7485  1.0435 -1.2536
 2775TIP3   OH2 8246   3.711   1.291   2.621 -0.0559 -0.0934  0.3058
 2775TIP3    H1 8247   3.757   1.346   2.558 -0.8868  0.3459  0.0813
 2775TIP3    H2 8248   3.621   1.322   2.619 -0.0023  0.2228  2.0413
 2776TIP3   OH2 8249   3.191   2.147   2.668 -0.4380 -0.0343 -0.0110
 2776TIP3    H1 8250   3.139   2.118   2.593 -0.6016  0.2844 -0.0202
 2776TIP3    H2 8251   3.191   2.242   2.662 -0.8043  0.0113  0.6334
 2777TIP3   OH2 8252   5.447   2.709   3.093  0.1505 -0.1314  0.3579
 2777TIP3    H1 8253   5.537   2.692   3.067 -0.0664  0.6866 -1.0115
 2777TIP3    H2 8254   5.453   2.770   3.166  0.6664  1.4756 -0.9995
 2778TIP3   OH2 8255   3.230   3.738   6.670  0.4760 -0.0641  0.1823
 2778TIP3    H1 8256   3.241   3.682   6.593  1.3244  1.6357 -0.9886
 2778TIP3    H2 8257   3.142   3.775   6.660  0.8328  0.6566 -0.3273
 2779TIP3   OH2 8258   2.179   0.938   3.037 -0.2803 -0.7931  0.2675
 2779TIP3    H1 8259   2.212   0.851   3.015 -1.5791 -1.1579 -0.2593
 2779TIP3    H2 8260   2.089   0.923   3.065 -0.6933  0.4520 -0.3776
 2780TIP3   OH2 8261   4.468   0.913   1.216  0.5358  0.1442 -0.7019
 2780TIP3    H1 8262   4.472   0.842   1.280 -0.5218 -0.8566 -1.6951
 2780TIP3    H2 8263   4.376   0.942   1.219  0.3042 -0.3763 -2.2159
 2781TIP3   OH2 8264   3.241   8.003   4.123 -0.0334 -0.3122  0.2322
 2781TIP3    H1 8265   3.250   8.076   4.184 -2.2260  1.8560 -1.9244
 2781TIP3    H2 8266   3.148   7.982   4.125 -0.0970 -0.3982 -2.0708
 2782TIP3   OH2 8267   1.280   7.762   2.288  0.6896 -0.4572 -0.1610
 2782TIP3    H1 8268   1.298   7.802   2.202 -1.6141 -1.1270 -0.9741
 2782TIP3    H2 8269   1.196   7.798   2.314  1.2827 -0.4042  1.7726
 2783TIP3   OH2 8270   4.750   3.114   3.041 -0.5362  0.2815 -0.1182
 2783TIP3    H1 8271   4.786   3.132   3.127 -0.4358  2.2631 -0.5584
 2783TIP3    H2 8272   4.678   3.053   3.057 -0.9577  1.1724  1.4274
 2784TIP3   OH2 8273   2.817   2.791   4.197 -0.3163 -0.2239  0.1347
 2784TIP3    H1 8274   2.761   2.726   4.238 -0.4818 -0.6204 -0.7101
 2784TIP3    H2 8275   2.756   2.851   4.153 -0.1242 -0.0643  0.0851
 2785TIP3   OH2 8276   4.323   1.455   1.054 -0.1399 -0.4597 -0.2590
 2785TIP3    H1 8277   4.290   1.504   0.978  0.9439 -0.1668 -0.5474
 2785TIP3    H2 8278   4.314   1.363   1.029 -1.7347 -0.4162  0.0957
 2786TIP3   OH2 8279   4.526   0.737   1.426  0.1064  0.1830  0.3132
 2786TIP3    H1 8280   4.529   0.745   1.521  0.0864 -0.7537  0.4036
 2786TIP3    H2 8281   4.451   0.679   1.409  0.8126 -0.5933 -0.1956
 2787TIP3   OH2 8282   2.559   1.400   4.926 -0.4175  0.0421  0.3622
 2787TIP3    H1 8283   2.636   1.438   4.883 -0.4288  0.8126  1.0154
 2787TIP3    H2 8284   2.553   1.311   4.889 -0.4531  0.6950 -1.2581
 2788TIP3   OH2 8285   1.089   2.706   4.535 -0.7178 -0.1837 -0.1671
 2788TIP3    H1 8286   0.996   2.729   4.534 -0.7251  0.1899  3.3578
 2788TIP3    H2 8287   1.135   2.789   4.543 -0.2767 -0.5668  1.5748
 2789TIP3   OH2 8288   6.325   3.195   1.284  0.1900  0.7433 -0.3835
 2789TIP3    H1 8289   6.416   3.178   1.310 -0.3378 -1.4714  0.1358
 2789TIP3    H2 8290   6.273   3.136   1.339 -1.4282  0.5348 -2.0878
 2790TIP3   OH2 8291   5.257   1.486   1.179 -1.0730  0.1344  0.3092
 2790TIP3    H1 8292   5.321   1.544   1.138 -2.4342  0.8282 -0.9084
 2790TIP3    H2 8293   5.269   1.500   1.273  0.1124  0.7362  0.0798
 2791TIP3   OH2 8294   3.812   2.765   2.958  0.6596 -0.6000 -0.2383
 2791TIP3    H1 8295   3.871   2.798   2.891 -0.8137  2.3837 -0.1305
 2791TIP3    H2 8296   3.777   2.684   2.921  1.7381 -0.2904 -1.9862
 2792TIP3   OH2 8297   6.454   1.770   0.961 -0.2377 -0.1023 -0.2491
 2792TIP3    H1 8298   6.396   1.720   1.018  0.0977  0.3091  0.4730
 2792TIP3    H2 8299   6.478   1.709   0.891  0.9485 -1.2880  1.1420
 2793TIP3   OH2 8300   1.646   3.444   2.655 -0.1288 -0.1583  0.6150
 2793TIP3    H1 8301   1.608   3.395   2.728  1.2646  0.3932  1.7241
 2793TIP3    H2 8302   1.573   3.455   2.594 -1.2613 -0.8209  1.8087
 2794TIP3   OH2 8303   6.095   1.909   0.775  0.1491 -0.1647 -0.5363
 2794TIP3    H1 8304   6.000   1.918   0.767  0.2897  3.1077  1.0504
 2794TIP3    H2 8305   6.130   1.973   0.713  1.3505 -0.7990 -0.5258
 2795TIP3   OH2 8306   2.134   0.161   4.843  0.3995 -0.2029 -0.6259
 2795TIP3    H1 8307   2.193   0.103   4.890 -0.0493 -0.7212 -0.6973
 2795TIP3    H2 8308   2.053   0.111   4.833  0.5949 -0.2316 -2.2467
 2796TIP3   OH2 8309   3.913   2.461   4.877  0.1345  0.0200 -0.5929
 2796TIP3    H1 8310   3.857   2.483   4.951  0.8461  0.8168 -0.2845
 2796TIP3    H2 8311   3.857   2.409   4.819 -0.5005 -0.3922  0.3748
 2797TIP3   OH2 8312   3.974   3.351   1.597 -0.2431 -0.7399 -0.0688
 2797TIP3    H1 8313   4.048   3.365   1.656  0.2912 -0.6527 -0.7532
 2797TIP3    H2 8314   3.916   3.291   1.644  0.1779 -0.6726  0.5368
 2798TIP3   OH2 8315   3.515   2.623   3.376  0.0242 -0.3604  0.3484
 2798TIP3    H1 8316   3.551   2.712   3.372  1.2021 -0.8802 -0.9426
 2798TIP3    H2 8317   3.424   2.636   3.400  0.3944  1.1541  1.0251
 2799TIP3   OH2 8318   7.836   3.360   2.117 -0.1162 -0.2378 -0.1700
 2799TIP3    H1 8319   7.775   3.307   2.064 -0.5295 -0.0839  0.1491
 2799TIP3    H2 8320   7.827   3.449   2.082 -0.6993 -0.0591  0.4390
 2800TIP3   OH2 8321   6.204   3.735   2.170  0.3987  0.9029 -0.0991
 2800TIP3    H1 8322   6.124   3.703   2.211  0.4795 -0.6273 -1.1256
 2800TIP3    H2 8323   6.230   3.809   2.225 -0.9287  0.5259  1.0785
 2801TIP3   OH2 8324   4.640   2.688   1.572  0.1099 -0.1021  0.3553
 2801TIP3    H1 8325   4.603   2.774   1.590  1.3100  0.1995  1.4290
 2801TIP3    H2 8326   4.716   2.706   1.516 -0.0940 -0.5400 -0.0717
 2802TIP3   OH2 8327   5.579   3.508   3.801 -0.2778  0.5999  0.3680
 2802TIP3    H1 8328   5.553   3.461   3.880  2.6100 -0.0503  0.9625
 2802TIP3    H2 8329   5.536   3.593   3.809 -0.9107  0.1408  2.0907
 2803TIP3   OH2 8330   2.337   0.063   3.136  0.6180 -0.0855 -0.0553
 2803TIP3    H1 8331   2.275  -0.009   3.150  1.0905 -0.3191  0.8784
 2803TIP3    H2 8332   2.422   0.020   3.125  0.5030  0.1897 -2.1609
 2804TIP3   OH2 8333   4.794   1.398   4.256 -0.4089  0.4196 -0.2967
 2804TIP3    H1 8334   4.729   1.462   4.227 -1.4111 -0.4096  0.0676
 2804TIP3    H2 8335   4.791   1.328   4.191 -1.2989 -0.5433  0.7512
 2805TIP3   OH2 8336   4.479   3.858   3.782 -0.2694 -0.2446 -0.1004
 2805TIP3    H1 8337   4.468   3.779   3.834  1.8707 -0.4162  0.1436
 2805TIP3    H2 8338   4.419   3.921   3.821  0.2431 -0.8183  1.6574
 2806TIP3   OH2 8339   4.993   3.790   3.416 -0.6009  0.1347  0.1981
 2806TIP3    H1 8340   4.994   3.700   3.450  2.5396  0.5383  1.3236
 2806TIP3    H2 8341   5.040   3.784   3.333  0.8774  0.9259  0.9448
 2807TIP3   OH2 8342   4.358   1.683   2.134  0.3793  0.6451  0.2938
 2807TIP3    H1 8343   4.361   1.688   2.038 -2.3785 -1.7142 -0.0196
 2807TIP3    H2 8344   4.441   1.643   2.159 -0.4006 -2.2677 -1.5039
 2808TIP3   OH2 8345   3.350   1.050   1.742  0.1274 -0.5569  0.2606
 2808TIP3    H1 8346   3.396   1.052   1.658 -2.9069  2.8359 -1.4652
 2808TIP3    H2 8347   3.407   1.100   1.802  0.9331 -0.5189 -0.5239
 2809TIP3   OH2 8348   3.495   2.690   4.335 -0.3735  0.1284 -0.1370
 2809TIP3    H1 8349   3.578   2.646   4.316  0.5240  1.5059  0.4692
 2809TIP3    H2 8350   3.477   2.670   4.426 -0.3873  0.3384 -0.0928
 2810TIP3   OH2 8351   7.996   5.260   7.203 -0.5483 -0.1986 -0.5348
 2810TIP3    H1 8352   7.947   5.196   7.254  1.1998  0.0017  1.4406
 2810TIP3    H2 8353   8.061   5.296   7.264 -0.4210  2.2795 -2.0422
 2811TIP3   OH2 8354   4.153   1.526   3.545  0.3676  0.3053 -0.4065
 2811TIP3    H1 8355   4.169   1.508   3.453 -0.1934  1.2507 -0.6984
 2811TIP3    H2 8356   4.136   1.620   3.549  0.5541  0.3041  0.6813
 2812TIP3   OH2 8357   4.146   2.063   4.258  0.3697  0.1679 -0.0392
 2812TIP3    H1 8358   4.123   2.154   4.271  1.2049  0.3750  0.0556
 2812TIP3    H2 8359   4.235   2.066   4.221 -0.0548 -0.5608 -1.1360
 2813TIP3   OH2 8360   4.960   1.555   3.495 -0.6711 -0.4798  0.2242
 2813TIP3    H1 8361   4.933   1.500   3.569 -1.1283 -0.3010  0.1869
 2813TIP3    H2 8362   4.896   1.626   3.492 -0.4720 -0.3123 -0.1486
 2814TIP3   OH2 8363   1.443   1.475   4.143 -0.5212 -0.6504 -0.3087
 2814TIP3    H1 8364   1.408   1.441   4.225 -1.1090  0.1770 -0.2101
 2814TIP3    H2 8365   1.522   1.422   4.127  0.7578  0.5285  1.8356
 2815TIP3   OH2 8366   1.912   2.619   3.528 -0.2242 -0.0268  0.0516
 2815TIP3    H1 8367   1.973   2.639   3.599  0.7237  1.1577 -1.0500
 2815TIP3    H2 8368   1.829   2.657   3.556 -0.0487 -0.2274  0.8548
 2816TIP3   OH2 8369   2.708   2.395   3.246 -0.3306  0.0052 -0.3166
 2816TIP3    H1 8370   2.682   2.305   3.265  0.2417 -0.1650 -0.3265
 2816TIP3    H2 8371   2.803   2.394   3.251 -0.4085  1.0386  1.5141
 2817TIP3   OH2 8372   3.046   1.398   3.409 -0.3220  0.6841  0.7105
 2817TIP3    H1 8373   3.138   1.421   3.397  0.2303 -0.7949  1.8524
 2817TIP3    H2 8374   3.029   1.416   3.502 -1.2705  1.2431  0.4295
 2818TIP3   OH2 8375   4.414   1.059   0.457 -0.2748  0.1910 -0.1124
 2818TIP3    H1 8376   4.327   1.099   0.465 -0.0257  0.6250  0.5334
 2818TIP3    H2 8377   4.402   0.968   0.484 -0.2988  0.5629  1.1723
 2819TIP3   OH2 8378   5.135   0.965   1.112 -0.3972  0.0046 -0.2000
 2819TIP3    H1 8379   5.196   1.039   1.112 -1.0942  0.5912  0.5909
 2819TIP3    H2 8380   5.182   0.895   1.157 -0.6288  0.7384  1.2129
 2820TIP3   OH2 8381   4.245   1.872   4.433  0.0777 -0.0822  0.1010
 2820TIP3    H1 8382   4.175   1.928   4.400 -0.8678 -0.7256  1.0158
 2820TIP3    H2 8383   4.291   1.843   4.354 -0.3893  0.7072 -0.4688
 2821TIP3   OH2 8384   3.789   0.516   2.587 -0.5288 -0.1606 -0.5553
 2821TIP3    H1 8385   3.815   0.564   2.666  2.5079  1.3494 -2.3805
 2821TIP3    H2 8386   3.853   0.445   2.579  0.3913  0.8612 -2.6706
 2822TIP3   OH2 8387   0.216   7.378   2.964 -0.1494 -0.8308  0.1683
 2822TIP3    H1 8388   0.178   7.463   2.987  0.8647 -0.1706 -0.5265
 2822TIP3    H2 8389   0.142   7.325   2.934 -0.7304 -0.0730  0.2466
 2823TIP3   OH2 8390   4.991   0.071   3.367  0.1477  0.0820 -0.6627
 2823TIP3    H1 8391   4.940   0.010   3.420  1.3641 -2.0898 -1.8744
 2823TIP3    H2 8392   5.064   0.018   3.334  1.4304  2.3027 -1.5046
 2824TIP3   OH2 8393   5.801   1.797   2.051  0.1376  0.0138 -0.1599
 2824TIP3    H1 8394   5.852   1.751   1.984 -0.6365  0.5438 -1.1217
 2824TIP3    H2 8395   5.868   1.835   2.109  0.7874 -2.0433  0.4835
 2825TIP3   OH2 8396   4.378   1.767   1.879 -0.0043 -0.3309 -0.5846
 2825TIP3    H1 8397   4.431   1.765   1.800  0.7408  0.8739 -0.1255
 2825TIP3    H2 8398   4.378   1.859   1.906  1.1486 -0.9658  1.7341
 2826TIP3   OH2 8399   1.197   0.938   3.365 -0.1313  0.3624  0.3388
 2826TIP3    H1 8400   1.147   0.999   3.310 -0.3767  0.5127  0.7245
 2826TIP3    H2 8401   1.165   0.954   3.454  1.0809  0.9406  0.6818
 2827TIP3   OH2 8402   5.675   2.554   3.272  0.2548 -0.5849 -0.3251
 2827TIP3    H1 8403   5.623   2.600   3.337  3.6582  0.6232  1.6435
 2827TIP3    H2 8404   5.758   2.535   3.315  1.8897 -1.5574 -3.6684
 2828TIP3   OH2 8405   1.808   7.970   4.327  0.8273 -0.2292  0.3942
 2828TIP3    H1 8406   1.858   7.907   4.276 -0.7753  0.7571 -2.5462
 2828TIP3    H2 8407   1.782   7.923   4.406  3.6510 -1.7061  0.5111
 2829TIP3   OH2 8408   2.131   4.084   3.145  0.2297  0.0010 -0.3643
 2829TIP3    H1 8409   2.086   4.168   3.151 -0.6853 -0.4883 -0.2880
 2829TIP3    H2 8410   2.093   4.031   3.215  1.2260 -0.2874 -0.0244
 2830TIP3   OH2 8411   3.498   3.349   3.252 -0.2107  1.0491 -0.2910
 2830TIP3    H1 8412   3.458   3.317   3.171 -0.0166 -1.2599  0.4819
 2830TIP3    H2 8413   3.426   3.394   3.297 -0.7236  0.9653 -1.0082
 2831TIP3   OH2 8414   2.888   4.443   2.176 -0.3424 -0.1671 -0.3187
 2831TIP3    H1 8415   2.845   4.369   2.219  0.2138 -1.2930 -1.6366
 2831TIP3    H2 8416   2.981   4.421   2.178 -0.0935  0.8957  0.0077
 2832TIP3   OH2 8417   5.519   1.061   1.290 -0.5154 -0.3015  0.2222
 2832TIP3    H1 8418   5.472   0.978   1.280 -0.3250 -0.6454  2.0422
 2832TIP3    H2 8419   5.576   1.065   1.213 -0.9102 -1.5924 -0.1658
 2833TIP3   OH2 8420   5.799   3.744   3.363  0.3573  0.2989 -0.1902
 2833TIP3    H1 8421   5.729   3.730   3.427 -0.3055 -0.3377 -1.0410
 2833TIP3    H2 8422   5.759   3.723   3.279  1.5226  0.1160 -0.7108
 2834TIP3   OH2 8423   2.215   0.084   4.046  0.0739 -0.7480 -0.0539
 2834TIP3    H1 8424   2.256   0.053   4.127 -0.5842 -1.5525 -0.0125
 2834TIP3    H2 8425   2.131   0.119   4.074 -0.4706 -1.6990 -0.4693
 2835TIP3   OH2 8426   4.467   3.543   4.432 -0.4483 -0.1439  0.7454
 2835TIP3    H1 8427   4.501   3.468   4.480 -0.7393 -0.3509  0.6282
 2835TIP3    H2 8428   4.545   3.596   4.411  0.1876 -2.0350 -1.9618
 2836TIP3   OH2 8429   2.736   1.415   3.051  0.6131 -0.0103 -0.0792
 2836TIP3    H1 8430   2.757   1.443   3.140  2.2569  0.2824 -0.5306
 2836TIP3    H2 8431   2.738   1.319   3.055  1.8035  0.0070 -0.0346
 2837TIP3   OH2 8432   2.878   2.395   4.184 -0.0259 -0.1859  0.0581
 2837TIP3    H1 8433   2.934   2.365   4.113  0.6118 -1.6113  1.1299
 2837TIP3    H2 8434   2.933   2.389   4.262 -0.7288  1.2932  0.6963
 2838TIP3   OH2 8435   6.629   0.346   2.572 -0.1897 -0.1721 -0.0387
 2838TIP3    H1 8436   6.537   0.324   2.587 -0.8103  2.7918  0.8527
 2838TIP3    H2 8437   6.634   0.362   2.478  0.0249 -2.7488 -0.5154
 2839TIP3   OH2 8438   4.188   2.407   3.962 -0.0117  0.5552  0.1599
 2839TIP3    H1 8439   4.180   2.354   3.882 -1.3893  0.4992  0.3112
 2839TIP3    H2 8440   4.264   2.463   3.946  0.0693  0.1515 -0.9626
 2840TIP3   OH2 8441   4.787   3.974   3.465 -0.0105 -0.1740 -0.0534
 2840TIP3    H1 8442   4.757   3.928   3.543 -0.4020 -0.6104 -0.4584
 2840TIP3    H2 8443   4.860   3.921   3.432  0.5726  0.3543  0.3725
 2841TIP3   OH2 8444   4.728   1.641   2.183  0.2294 -0.2311  0.1419
 2841TIP3    H1 8445   4.808   1.589   2.187  0.3992  0.0656  0.6709
 2841TIP3    H2 8446   4.754   1.722   2.138  0.9276  1.0888  2.7986
 2842TIP3   OH2 8447   2.510   4.423   2.035  0.4362 -0.2131 -0.0298
 2842TIP3    H1 8448   2.499   4.492   1.969 -0.1404 -1.1213 -0.8981
 2842TIP3    H2 8449   2.471   4.346   1.996  0.1025 -0.7806  1.3832
 2843TIP3   OH2 8450   4.199   3.199   0.606 -0.2182  0.0376  0.2704
 2843TIP3    H1 8451   4.219   3.112   0.641  1.7100  0.1179 -0.5266
 2843TIP3    H2 8452   4.275   3.220   0.552 -0.1552  2.7227  1.3706
 2844TIP3   OH2 8453   5.412   1.065   4.848 -0.0550 -0.0536 -0.2201
 2844TIP3    H1 8454   5.478   1.117   4.803 -0.2668  0.4829  0.0909
 2844TIP3    H2 8455   5.457   0.983   4.871  0.7947  0.7078  0.8770
 2845TIP3   OH2 8456   5.613   6.000   6.277 -0.6089  0.1252  0.0503
 2845TIP3    H1 8457   5.596   6.085   6.318 -1.0708 -0.3077  0.7625
 2845TIP3    H2 8458   5.527   5.960   6.267 -0.4946  0.2065 -1.3072
 2846TIP3   OH2 8459   4.549   2.047   3.541  0.1633 -0.1868 -0.4159
 2846TIP3    H1 8460   4.597   2.127   3.565 -0.2290  0.1344 -0.7047
 2846TIP3    H2 8461   4.462   2.077   3.518 -0.4263 -0.8674  0.8987
 2847TIP3   OH2 8462   5.026   2.238   1.886 -0.4735 -0.1635  0.2547
 2847TIP3    H1 8463   4.961   2.182   1.844  0.9714 -0.9477 -0.9929
 2847TIP3    H2 8464   5.047   2.193   1.968 -0.5647 -0.5790  0.0521
 2848TIP3   OH2 8465   3.912   0.158   4.941  0.3146  0.1302  0.1467
 2848TIP3    H1 8466   3.912   0.195   4.853  0.8295  1.6658  0.7802
 2848TIP3    H2 8467   3.985   0.095   4.941 -0.2976 -0.5830 -0.8062
 2849TIP3   OH2 8468   5.517   2.838   4.051 -0.2359  0.0261  0.1670
 2849TIP3    H1 8469   5.579   2.904   4.082  1.5471 -1.1620 -0.7403
 2849TIP3    H2 8470   5.475   2.878   3.975  0.0229  0.5202  0.2792
 2850TIP3   OH2 8471   4.176   2.791   0.924  0.6928  0.8842 -0.0780
 2850TIP3    H1 8472   4.153   2.702   0.898 -0.9792  1.1879  0.3450
 2850TIP3    H2 8473   4.156   2.795   1.017  1.1247  1.6000 -0.0091
 2851TIP3   OH2 8474   4.353   1.501   2.975 -0.4100  0.4777  0.5228
 2851TIP3    H1 8475   4.274   1.543   3.010 -0.1155  1.6871 -0.2819
 2851TIP3    H2 8476   4.420   1.569   2.978  0.0895  0.0418 -0.7002
 2852TIP3   OH2 8477   3.401   2.356   5.561  0.2294 -0.0622  0.2716
 2852TIP3    H1 8478   3.421   2.426   5.622 -1.0376  0.6814 -0.1398
 2852TIP3    H2 8479   3.373   2.282   5.616  2.8992 -0.7278  0.7778
 2853TIP3   OH2 8480   3.663   3.190   3.404 -0.0479  0.2952 -0.0550
 2853TIP3    H1 8481   3.617   3.251   3.346  0.7135  0.6830 -0.2537
 2853TIP3    H2 8482   3.705   3.246   3.469 -0.7270 -0.1267  0.7664
 2854TIP3   OH2 8483   4.215   8.311   4.099  0.8881  0.3120 -0.4499
 2854TIP3    H1 8484   4.134   8.362   4.106  0.6354 -0.1250 -0.2415
 2854TIP3    H2 8485   4.280   8.364   4.146  0.5545  0.2892  0.0334
 2855TIP3   OH2 8486   4.397   0.765   3.106 -0.4563 -0.1692  0.0758
 2855TIP3    H1 8487   4.461   0.697   3.085 -1.8269 -0.5281 -3.2724
 2855TIP3    H2 8488   4.358   0.788   3.022 -1.3716  3.4479  1.4203
 2856TIP3   OH2 8489   2.899   2.592   2.579 -0.2297  0.0238 -0.2968
 2856TIP3    H1 8490   2.953   2.612   2.655 -1.0394 -1.4988  0.7142
 2856TIP3    H2 8491   2.811   2.621   2.604  0.0091  2.0756 -1.7493
 2857TIP3   OH2 8492   5.255   2.305   3.955  0.3710  0.3434 -0.2275
 2857TIP3    H1 8493   5.345   2.282   3.976  0.9164  1.5600 -1.2119
 2857TIP3    H2 8494   5.205   2.224   3.971  1.4778 -0.0832  1.1683
 2858TIP3   OH2 8495   5.120   0.989   6.036 -0.2049 -0.4805  0.2834
 2858TIP3    H1 8496   5.158   0.935   5.966 -1.9648 -1.4809  0.0769
 2858TIP3    H2 8497   5.167   0.961   6.115  1.4077  0.2660 -0.3809
 2859TIP3   OH2 8498   2.740   5.163   2.388  0.1730 -0.2624  0.1238
 2859TIP3    H1 8499   2.644   5.159   2.384  0.2729 -2.3575 -1.1395
 2859TIP3    H2 8500   2.759   5.172   2.482 -1.2604  0.7607  0.3350
 2860TIP3   OH2 8501   3.438   2.066   2.381  0.4715  0.5407 -0.0021
 2860TIP3    H1 8502   3.416   2.061   2.474  0.6613 -0.7690 -0.0190
 2860TIP3    H2 8503   3.530   2.092   2.379  0.1630  1.6631  0.1500
 2861TIP3   OH2 8504   2.071   4.025   4.552 -0.3166  0.5504 -0.0289
 2861TIP3    H1 8505   2.113   4.105   4.584  2.3558 -0.4318 -0.9537
 2861TIP3    H2 8506   2.059   4.040   4.459 -0.4050  0.1151 -0.0892
 2862TIP3   OH2 8507   1.836   1.651   4.201  0.7109 -0.1523  0.1608
 2862TIP3    H1 8508   1.766   1.642   4.266  1.1908  1.9187  1.0079
 2862TIP3    H2 8509   1.901   1.586   4.227 -0.3677 -1.2715  0.0757
 2863TIP3   OH2 8510   4.572   0.324   4.016 -0.4027 -0.5494 -0.1932
 2863TIP3    H1 8511   4.621   0.391   4.065  0.7972 -1.1610 -0.5481
 2863TIP3    H2 8512   4.557   0.363   3.930 -0.4949 -0.3950 -0.1095
 2864TIP3   OH2 8513   4.760   2.811   3.403  0.0095 -0.3382 -0.2907
 2864TIP3    H1 8514   4.782   2.807   3.496  0.6831  0.7649 -0.3948
 2864TIP3    H2 8515   4.690   2.876   3.398 -0.6047 -1.0078 -0.4520
 2865TIP3   OH2 8516   3.983   0.667   5.265 -0.3391 -0.3530  0.0758
 2865TIP3    H1 8517   3.977   0.761   5.283  0.9138 -0.4616  1.0829
 2865TIP3    H2 8518   4.060   0.658   5.209 -1.7152 -0.5356 -1.8280
 2866TIP3   OH2 8519   3.935   2.320   2.491 -0.3317 -0.1014 -0.2615
 2866TIP3    H1 8520   4.014   2.278   2.525 -0.3494 -0.3879 -0.5708
 2866TIP3    H2 8521   3.904   2.374   2.563 -1.6804 -2.4927  1.0145
 2867TIP3   OH2 8522   5.527   2.296   0.559  0.2948  0.4878 -0.4103
 2867TIP3    H1 8523   5.618   2.298   0.528 -0.4498 -0.1342 -2.7045
 2867TIP3    H2 8524   5.523   2.220   0.618  0.1888 -2.2467 -3.8257
 2868TIP3   OH2 8525   7.451   0.855   1.351 -0.2139 -0.4249 -0.5692
 2868TIP3    H1 8526   7.367   0.890   1.381  0.0317  0.0978 -0.5042
 2868TIP3    H2 8527   7.453   0.873   1.257  0.4716  0.8645 -0.3091
 2869TIP3   OH2 8528   5.539   1.871   2.213 -0.2593 -0.0877 -0.7833
 2869TIP3    H1 8529   5.500   1.839   2.294 -1.1287 -2.8872 -2.2533
 2869TIP3    H2 8530   5.614   1.814   2.198  1.5728  2.1623 -0.5654
 2870TIP3   OH2 8531   4.210   1.089   5.308 -0.2717 -0.4089  0.0472
 2870TIP3    H1 8532   4.205   1.169   5.255 -0.4777 -0.8183 -0.5537
 2870TIP3    H2 8533   4.303   1.069   5.312 -0.2999 -0.6664 -0.5924
 2871TIP3   OH2 8534   3.642   0.872   0.570  0.6288 -0.7543  0.5234
 2871TIP3    H1 8535   3.729   0.834   0.556  1.2717  0.6680  0.5943
 2871TIP3    H2 8536   3.633   0.939   0.502  0.6203  0.8417  2.0495
 2872TIP3   OH2 8537   2.957   0.925   0.393 -0.3524 -0.2033 -0.7374
 2872TIP3    H1 8538   2.885   0.862   0.390  0.1461 -0.8297  0.1804
 2872TIP3    H2 8539   3.031   0.879   0.352 -0.2331  0.0915 -0.8494
 2873TIP3   OH2 8540   2.080   2.988   4.122  0.5048  0.4939 -0.4892
 2873TIP3    H1 8541   2.084   3.008   4.028 -0.8190 -1.1935 -0.9463
 2873TIP3    H2 8542   1.987   2.997   4.144  0.9200  1.6568  0.8673
 2874TIP3   OH2 8543   5.530   1.110   4.187  0.1437 -0.5044  0.3006
 2874TIP3    H1 8544   5.452   1.158   4.215  0.4508 -0.3388  0.8917
 2874TIP3    H2 8545   5.513   1.019   4.211  0.1886 -0.4440  0.5716
 2875TIP3   OH2 8546   4.597   1.996   2.359 -0.0830  0.4986  0.1773
 2875TIP3    H1 8547   4.622   1.954   2.277  1.0349  1.0450  0.2295
 2875TIP3    H2 8548   4.502   1.984   2.365 -0.0215 -0.4225 -0.6928
 2876TIP3   OH2 8549   3.668   2.852   0.316  0.0066 -0.4835  0.1084
 2876TIP3    H1 8550   3.753   2.860   0.272 -0.0869  0.5233  0.0998
 2876TIP3    H2 8551   3.681   2.894   0.401 -0.3767 -0.6751  0.2639
 2877TIP3   OH2 8552   4.547   1.322   2.732 -0.1825 -0.0966 -0.1145
 2877TIP3    H1 8553   4.511   1.375   2.802  1.4873  1.0437 -0.0885
 2877TIP3    H2 8554   4.508   1.357   2.652  1.3484  1.6180 -0.1571
 2878TIP3   OH2 8555   4.629   1.026   4.154 -0.3266 -0.2444 -0.0469
 2878TIP3    H1 8556   4.701   1.072   4.111  0.4511  0.7131  2.1713
 2878TIP3    H2 8557   4.651   0.933   4.146  0.8243  0.0167  0.0275
 2879TIP3   OH2 8558   6.509   0.269   3.240  0.4954  0.5323  0.2596
 2879TIP3    H1 8559   6.470   0.353   3.263 -0.4163 -0.4057  2.2006
 2879TIP3    H2 8560   6.462   0.242   3.161  0.7575  1.7982 -0.3473
 2880TIP3   OH2 8561   3.862   2.107   5.603  0.5054 -0.0673 -0.1154
 2880TIP3    H1 8562   3.926   2.065   5.661  1.5052  2.3327  0.5595
 2880TIP3    H2 8563   3.779   2.099   5.649  0.4808 -2.1802 -0.4683
 2881TIP3   OH2 8564   7.888   0.355   1.798  0.7988 -0.0272  0.0283
 2881TIP3    H1 8565   7.865   0.355   1.891 -1.2702  0.2213 -0.4606
 2881TIP3    H2 8566   7.876   0.264   1.771 -0.8214  0.3391 -0.5117
 2882TIP3   OH2 8567   3.173   0.372   0.316  0.2447 -0.4560  0.2420
 2882TIP3    H1 8568   3.236   0.443   0.324  0.9849 -1.0624 -0.2163
 2882TIP3    H2 8569   3.092   0.408   0.354  0.5274  0.7307 -0.2589
 2883TIP3   OH2 8570   3.522   0.485   1.697  0.3959 -0.3806  0.4859
 2883TIP3    H1 8571   3.510   0.416   1.762  0.2169 -0.4247  0.4070
 2883TIP3    H2 8572   3.452   0.548   1.716 -0.8679 -1.3355 -0.8747
 2884TIP3   OH2 8573   3.713   0.286   3.543  0.5561  0.0343 -0.5928
 2884TIP3    H1 8574   3.720   0.323   3.630 -2.3255 -0.0809 -0.2799
 2884TIP3    H2 8575   3.787   0.224   3.537  0.2470 -0.6307  2.0819
 2885TIP3   OH2 8576   3.234   0.968   4.456 -0.5871  0.0257  0.4392
 2885TIP3    H1 8577   3.179   1.019   4.515 -0.4417 -0.4858  1.0304
 2885TIP3    H2 8578   3.173   0.924   4.397 -0.8211 -0.5877  1.1306
 2886TIP3   OH2 8579   5.210   1.140   1.626 -0.3990 -0.3638 -0.2198
 2886TIP3    H1 8580   5.297   1.155   1.661 -0.9075 -0.1654  0.9686
 2886TIP3    H2 8581   5.150   1.176   1.692 -1.3473  0.5875 -1.5710
 2887TIP3   OH2 8582   5.109   2.701   4.092  0.1552  0.0678  0.2352
 2887TIP3    H1 8583   5.046   2.758   4.137 -0.0301 -1.2278  1.6717
 2887TIP3    H2 8584   5.190   2.711   4.142  0.9889  1.3601 -1.3202
 2888TIP3   OH2 8585   2.586   2.547   3.636 -0.0599  0.0797  0.3805
 2888TIP3    H1 8586   2.570   2.640   3.622 -0.8394 -0.1669 -0.4237
 2888TIP3    H2 8587   2.521   2.521   3.702  0.4126  0.1900  0.8892
 2889TIP3   OH2 8588   5.284   1.247   4.277 -0.5172 -0.3204  0.3420
 2889TIP3    H1 8589   5.213   1.287   4.227 -0.2104 -1.2918 -0.9097
 2889TIP3    H2 8590   5.241   1.193   4.343 -0.9308  1.3516  1.4717
 2890TIP3   OH2 8591   1.711   3.234   4.273 -0.2591 -0.5604  0.0387
 2890TIP3    H1 8592   1.711   3.312   4.329 -0.3225  0.0578 -0.8220
 2890TIP3    H2 8593   1.618   3.211   4.263 -0.2043 -1.2108  0.9211
 2891TIP3   OH2 8594   3.222   3.827   3.053 -0.0193 -0.2488  0.8499
 2891TIP3    H1 8595   3.156   3.825   2.984  0.1329 -2.3851  0.7088
 2891TIP3    H2 8596   3.301   3.860   3.009 -0.6091  0.9524  0.6760
 2892TIP3   OH2 8597   3.616   2.887   6.899  0.2296 -0.2943 -0.3903
 2892TIP3    H1 8598   3.572   2.965   6.933 -0.2793 -0.4248 -0.7435
 2892TIP3    H2 8599   3.651   2.915   6.814  2.6017  0.4054  0.7876
 2893TIP3   OH2 8600   5.285   2.431   2.748  0.1819  0.3572  0.5150
 2893TIP3    H1 8601   5.345   2.477   2.690 -1.4955 -0.2896 -1.7852
 2893TIP3    H2 8602   5.241   2.500   2.797  2.4156  0.8551  1.9325
 2894TIP3   OH2 8603   4.586   1.923   2.089 -0.0682 -0.2051 -0.2252
 2894TIP3    H1 8604   4.499   1.936   2.051 -0.8477 -1.3093  1.1182
 2894TIP3    H2 8605   4.641   1.896   2.015 -0.2837  2.7426 -1.5368
 2895TIP3   OH2 8606   3.626   3.748   2.330 -0.0861  0.2642  0.1035
 2895TIP3    H1 8607   3.695   3.814   2.317 -1.2475  1.1482 -1.9463
 2895TIP3    H2 8608   3.552   3.798   2.364  0.0672 -0.5670  1.6699
 2896TIP3   OH2 8609   3.432   2.024   2.731  0.5995 -0.0544  0.2755
 2896TIP3    H1 8610   3.489   2.079   2.785  0.1829  1.0339 -0.3762
 2896TIP3    H2 8611   3.364   2.084   2.700  1.9269 -0.2177 -3.1139
 2897TIP3   OH2 8612   3.056   3.942   3.609  0.3679  0.0177  0.2305
 2897TIP3    H1 8613   3.086   4.028   3.578  1.7988 -0.3901  0.4743
 2897TIP3    H2 8614   2.968   3.959   3.644 -0.4877  0.8788 -2.1777
 2898TIP3   OH2 8615   1.399   3.577   1.059  0.2944  0.1474 -0.1227
 2898TIP3    H1 8616   1.377   3.662   1.097 -0.1030 -0.3881  0.8644
 2898TIP3    H2 8617   1.339   3.515   1.101  0.0357 -0.5089 -1.4241
 2899TIP3   OH2 8618   5.011   2.331   1.046  0.7451 -0.0206 -0.5276
 2899TIP3    H1 8619   5.015   2.354   1.139 -0.1659 -1.2513 -0.1772
 2899TIP3    H2 8620   5.044   2.241   1.042 -2.1390 -1.0959 -0.9628
 2900TIP3   OH2 8621   2.164   4.597   3.382  0.0936  0.7263  0.1023
 2900TIP3    H1 8622   2.071   4.578   3.383  0.2413 -0.0805 -0.8450
 2900TIP3    H2 8623   2.172   4.679   3.334  0.0495 -0.2944 -1.7019
 2901TIP3   OH2 8624   2.911   2.959   4.630  0.3369 -0.5613  0.4226
 2901TIP3    H1 8625   2.901   2.986   4.539  0.2025  0.4434  0.7359
 2901TIP3    H2 8626   2.849   2.887   4.640 -0.1838 -0.1916 -0.0776
 2902TIP3   OH2 8627   5.073   3.895   3.688 -0.1226  0.2577 -0.3984
 2902TIP3    H1 8628   5.012   3.964   3.666 -1.1119 -0.4829  0.0033
 2902TIP3    H2 8629   5.019   3.824   3.723  1.0347 -0.0610  0.8153
 2903TIP3   OH2 8630   3.608   1.016   2.591 -0.5421 -0.1982  0.0012
 2903TIP3    H1 8631   3.649   0.982   2.512  0.6796 -2.6962  1.6527
 2903TIP3    H2 8632   3.647   1.103   2.603  0.5440 -0.5092 -1.1819
 2904TIP3   OH2 8633   4.571   2.020   3.055 -0.7407  0.3852 -0.0326
 2904TIP3    H1 8634   4.534   1.961   3.120 -0.1159  0.6864  0.6003
 2904TIP3    H2 8635   4.662   2.033   3.082 -0.9746  1.9554  0.0766
 2905TIP3   OH2 8636   6.140   0.061   3.011  0.7137  0.0604  0.3206
 2905TIP3    H1 8637   6.216   0.118   2.998 -0.3269  1.1938 -0.9922
 2905TIP3    H2 8638   6.161  -0.018   2.962  0.8992  0.5240 -0.3585
 2906TIP3   OH2 8639   0.194   7.407   3.625 -0.2351  0.0012  0.0718
 2906TIP3    H1 8640   0.270   7.350   3.637 -2.2174 -2.7750 -0.2487
 2906TIP3    H2 8641   0.191   7.460   3.705  1.4626 -0.5137  0.4955
 2907TIP3   OH2 8642   3.115   0.598   4.255  0.8071 -0.1206 -0.0349
 2907TIP3    H1 8643   3.028   0.578   4.288  1.1453  0.0061  0.9542
 2907TIP3    H2 8644   3.109   0.687   4.222  0.2589 -0.5301 -1.0675
 2908TIP3   OH2 8645   2.255   2.755   4.063 -0.1812  0.3442  0.0748
 2908TIP3    H1 8646   2.215   2.672   4.036  1.0704  0.3403 -1.8941
 2908TIP3    H2 8647   2.341   2.754   4.021  0.3969  2.0160  1.2041
 2909TIP3   OH2 8648   4.273   1.015   3.281  0.0477 -0.4567  0.1638
 2909TIP3    H1 8649   4.234   0.954   3.218 -1.7336 -1.2921  1.9920
 2909TIP3    H2 8650   4.348   0.968   3.316 -0.4503 -1.0327  0.4782
 2910TIP3   OH2 8651   5.593   1.225   3.143  1.0822 -0.0736  0.2716
 2910TIP3    H1 8652   5.526   1.277   3.187  0.0307 -0.2434 -1.0852
 2910TIP3    H2 8653   5.548   1.146   3.115  1.9363 -0.3490 -0.3526
 2911TIP3   OH2 8654   3.399   1.087   2.225 -0.3399 -0.8536  0.0836
 2911TIP3    H1 8655   3.345   1.020   2.183 -0.7700  1.0562 -2.4979
 2911TIP3    H2 8656   3.336   1.150   2.261  0.0895 -1.1323  1.3563
 2912TIP3   OH2 8657   0.631   7.697   2.777 -0.0872  0.2550  0.3611
 2912TIP3    H1 8658   0.581   7.774   2.805 -0.7616 -0.4075  0.9957
 2912TIP3    H2 8659   0.581   7.623   2.810  1.1564 -0.4282  0.7474
 2913TIP3   OH2 8660   6.203   1.403   1.643  0.2056  0.5836 -0.1848
 2913TIP3    H1 8661   6.259   1.465   1.597 -0.5681  0.8644 -0.7578
 2913TIP3    H2 8662   6.188   1.332   1.581  0.6455  0.0681  0.2808
 2914TIP3   OH2 8663   3.289   3.445   4.060 -0.6753  0.0894  0.4447
 2914TIP3    H1 8664   3.233   3.474   3.988  0.1860  0.8368  0.0584
 2914TIP3    H2 8665   3.298   3.351   4.048  0.3026  0.3536 -1.0593
 2915TIP3   OH2 8666   3.615   0.733   4.045 -0.3359  0.0120 -0.3861
 2915TIP3    H1 8667   3.617   0.722   4.140  0.2148  0.1721 -0.3788
 2915TIP3    H2 8668   3.525   0.712   4.020  0.0020 -1.9000 -0.0579
 2916TIP3   OH2 8669   4.833   1.192   4.053 -0.0121  0.3180 -0.4339
 2916TIP3    H1 8670   4.813   1.214   3.962  2.7317 -0.2217 -1.2172
 2916TIP3    H2 8671   4.889   1.115   4.048 -1.9689 -1.3280  1.8765
 2917TIP3   OH2 8672   3.154   2.716   5.868 -0.0845  0.8415 -0.4864
 2917TIP3    H1 8673   3.119   2.667   5.794 -0.1559  1.8823 -1.1636
 2917TIP3    H2 8674   3.198   2.651   5.922  0.4499  0.1448 -1.7400
 2918TIP3   OH2 8675   3.310   2.052   3.115  0.0817  0.1244  0.0247
 2918TIP3    H1 8676   3.325   2.023   3.205 -2.2291  1.1012  0.7777
 2918TIP3    H2 8677   3.353   2.137   3.110  0.4680 -0.0646  0.1166
 2919TIP3   OH2 8678   4.502   4.062   4.611  0.2419  0.2623 -0.0776
 2919TIP3    H1 8679   4.409   4.040   4.610  0.5976 -1.5094  1.8456
 2919TIP3    H2 8680   4.535   4.031   4.527 -0.4053 -1.4414  0.2718
 2920TIP3   OH2 8681   4.966   2.000   2.711 -0.2459 -0.6086 -0.6834
 2920TIP3    H1 8682   5.029   1.950   2.659  0.2821 -0.6371 -0.0221
 2920TIP3    H2 8683   4.970   2.089   2.675 -1.4732 -1.1089 -2.1259
 2921TIP3   OH2 8684   7.746   2.978   1.948 -0.6071  0.1422  0.0681
 2921TIP3    H1 8685   7.719   3.059   1.992  0.7433  0.9107 -0.5003
 2921TIP3    H2 8686   7.798   3.007   1.874  0.7233 -1.2906  0.4214
 2922TIP3   OH2 8687   6.294   0.092   5.560  0.1730 -0.2256 -0.7308
 2922TIP3    H1 8688   6.243   0.018   5.528 -0.2782 -0.8481  1.3107
 2922TIP3    H2 8689   6.382   0.056   5.576  0.1018 -0.2030 -0.2609
 2923TIP3   OH2 8690   6.091   1.602   0.797  0.0589 -0.1127 -0.3757
 2923TIP3    H1 8691   6.103   1.695   0.817 -0.9525  0.1857 -1.1094
 2923TIP3    H2 8692   6.083   1.599   0.702 -0.6606 -0.8609 -0.2989
 2924TIP3   OH2 8693   3.604   2.218   3.731  0.1856 -0.4558 -0.6823
 2924TIP3    H1 8694   3.511   2.217   3.751  0.1181  0.5549 -0.9552
 2924TIP3    H2 8695   3.629   2.310   3.731  0.8309 -0.6119 -2.2380
 2925TIP3   OH2 8696   5.027   1.486   3.081  0.4426  0.0064 -0.2852
 2925TIP3    H1 8697   5.045   1.428   3.155  0.0552 -0.4074 -0.5061
 2925TIP3    H2 8698   5.068   1.569   3.104  3.0800 -1.0385 -1.0093
 2926TIP3   OH2 8699   4.717   1.813   1.859 -0.2115  0.1197 -0.3583
 2926TIP3    H1 8700   4.700   1.742   1.798 -1.3192  0.5723 -0.5792
 2926TIP3    H2 8701   4.813   1.817   1.864 -0.1038  0.0899 -2.0613
 2927TIP3   OH2 8702   6.973   0.742   3.735 -0.5489 -0.5455  0.3187
 2927TIP3    H1 8703   6.896   0.695   3.703 -0.7524 -1.5392  2.2125
 2927TIP3    H2 8704   6.939   0.828   3.761 -0.7462 -0.4625 -0.2035
 2928TIP3   OH2 8705   4.985   3.066   2.644 -0.3008 -0.1028 -0.1522
 2928TIP3    H1 8706   4.944   3.153   2.637 -0.6274 -0.3510 -1.5879
 2928TIP3    H2 8707   5.018   3.049   2.556  0.6098 -1.0272  0.3741
 2929TIP3   OH2 8708   5.956   2.058   3.166  1.2160  0.3924 -0.1337
 2929TIP3    H1 8709   5.973   2.082   3.257  2.2057 -2.3648  0.4637
 2929TIP3    H2 8710   6.026   1.996   3.144 -0.7332 -1.2927 -1.8124
 2930TIP3   OH2 8711   7.580   4.502   3.393  0.2794  0.3726 -0.5039
 2930TIP3    H1 8712   7.576   4.423   3.448  0.7246  0.4437 -0.3685
 2930TIP3    H2 8713   7.669   4.501   3.357  0.1686  0.6243 -0.7871
 2931TIP3   OH2 8714   5.167   0.609   2.123  0.0021 -0.5326 -0.1853
 2931TIP3    H1 8715   5.186   0.697   2.090 -0.2947  0.3930  2.0454
 2931TIP3    H2 8716   5.247   0.581   2.166 -0.1144 -1.1120 -0.3324
 2932TIP3   OH2 8717   5.612   1.633   2.478  0.2738  0.2314  0.1963
 2932TIP3    H1 8718   5.643   1.547   2.448  2.2254  1.3118 -1.0088
 2932TIP3    H2 8719   5.522   1.639   2.446  1.2924  0.0844 -2.8849
 2933TIP3   OH2 8720   7.132   1.879   0.755 -0.6184  0.4024 -0.6324
 2933TIP3    H1 8721   7.165   1.871   0.665  0.8700  0.1350 -0.0693
 2933TIP3    H2 8722   7.164   1.964   0.785 -0.8209  0.3400 -0.2363
 2934TIP3   OH2 8723   4.969   1.498   3.964 -0.2153  0.3820 -0.1984
 2934TIP3    H1 8724   4.961   1.491   3.869  1.4716  3.1026 -0.6243
 2934TIP3    H2 8725   4.930   1.583   3.985  0.6097  0.3980  1.3635
 2935TIP3   OH2 8726   4.308   1.543   4.770  0.5235 -0.1485 -0.9008
 2935TIP3    H1 8727   4.389   1.493   4.766  1.2174  0.8582  0.2684
 2935TIP3    H2 8728   4.239   1.477   4.774  1.2639 -1.0037 -2.1150
 2936TIP3   OH2 8729   4.903   0.907   2.794 -0.5340 -0.1960  0.4575
 2936TIP3    H1 8730   4.883   0.992   2.755 -0.7797 -0.7388 -0.6109
 2936TIP3    H2 8731   4.945   0.858   2.723  0.6345 -0.5791  1.3929
 2937TIP3   OH2 8732   7.707   6.023   6.373  0.3691 -0.2601  0.2154
 2937TIP3    H1 8733   7.649   6.002   6.446  1.6099 -0.0293  1.3026
 2937TIP3    H2 8734   7.649   6.038   6.298 -0.8906 -1.0491  1.0254
 2938TIP3   OH2 8735   5.190   2.288   1.659 -0.0573 -0.1371  0.3421
 2938TIP3    H1 8736   5.143   2.290   1.742 -0.7146  1.1694 -0.0424
 2938TIP3    H2 8737   5.183   2.378   1.626 -0.3498 -0.8003 -1.4382
 2939TIP3   OH2 8738   7.640   1.455   1.953  0.5031  0.3583  0.1116
 2939TIP3    H1 8739   7.704   1.433   2.021  0.3913 -0.0942  0.0661
 2939TIP3    H2 8740   7.681   1.427   1.871  0.0636 -0.3106  0.1255
 2940TIP3   OH2 8741   5.326   1.740   3.997  0.0065  0.1303  0.2825
 2940TIP3    H1 8742   5.263   1.669   4.010  0.0947 -0.1762 -0.8882
 2940TIP3    H2 8743   5.302   1.778   3.913  1.3920 -0.0007 -0.1916
 2941TIP3   OH2 8744   5.162   2.135   2.088  0.2446  0.3083  0.1085
 2941TIP3    H1 8745   5.171   2.063   2.150  2.6127  0.6062  0.1372
 2941TIP3    H2 8746   5.229   2.119   2.021 -1.2809  0.8009 -1.5937
 2942TIP3   OH2 8747   5.295   1.828   0.703 -0.3158  0.3248  0.4558
 2942TIP3    H1 8748   5.385   1.795   0.696  0.1661  1.6872 -0.0770
 2942TIP3    H2 8749   5.273   1.818   0.796 -0.0084 -0.9853  0.3993
 2943TIP3   OH2 8750   5.828   1.667   3.888  0.1418 -0.7102 -0.2248
 2943TIP3    H1 8751   5.888   1.738   3.866  0.0011 -1.3392 -2.7665
 2943TIP3    H2 8752   5.849   1.646   3.979  3.3666 -0.5189 -0.8565
 2944TIP3   OH2 8753   6.645   0.336   0.918  0.3483  0.0622  0.0516
 2944TIP3    H1 8754   6.731   0.373   0.899  0.2507  0.1204 -0.2767
 2944TIP3    H2 8755   6.583   0.397   0.878  0.1762 -0.3212 -0.2739
 2945TIP3   OH2 8756   5.864   2.542   1.960  0.2211  0.1318 -0.1420
 2945TIP3    H1 8757   5.816   2.501   2.033 -0.2349 -0.3398 -0.7012
 2945TIP3    H2 8758   5.956   2.519   1.976  0.1330  0.0940  0.3253
 2946TIP3   OH2 8759   6.902   2.990   0.791  0.3219  0.0506 -0.2920
 2946TIP3    H1 8760   6.892   2.996   0.696 -0.1485  0.8173 -0.1949
 2946TIP3    H2 8761   6.947   3.071   0.815  0.4505 -0.1491  0.1434
 2947TIP3   OH2 8762   5.925   2.715   0.672  0.2961  0.2080 -0.1233
 2947TIP3    H1 8763   5.897   2.756   0.590 -2.1104  0.2184  0.6380
 2947TIP3    H2 8764   5.937   2.622   0.650 -3.7224 -0.4849  0.1651
 2948TIP3   OH2 8765   6.407   3.161   2.106 -0.3110  0.8839 -0.3154
 2948TIP3    H1 8766   6.446   3.212   2.035  0.3619 -0.2649 -0.7811
 2948TIP3    H2 8767   6.319   3.197   2.116  0.4747  2.7902  0.0286
 2949TIP3   OH2 8768   4.763   1.502   1.296  0.2467  0.5432  0.0174
 2949TIP3    H1 8769   4.771   1.478   1.388 -0.8893  2.6462  0.7007
 2949TIP3    H2 8770   4.827   1.447   1.251  0.3480 -0.9897  1.9605
 2950TIP3   OH2 8771   6.874   2.008   1.862  0.4422  0.1777 -0.2723
 2950TIP3    H1 8772   6.902   2.084   1.913  0.0788  1.1412 -1.4841
 2950TIP3    H2 8773   6.796   2.038   1.816  0.0988 -1.0464 -0.4837
 2951TIP3   OH2 8774   5.675   1.611   2.749  0.6640  0.6376 -0.1671
 2951TIP3    H1 8775   5.680   1.637   2.657  0.4951  0.4565 -0.2294
 2951TIP3    H2 8776   5.727   1.530   2.753 -3.1372 -2.0065 -1.0991
 2952TIP3   OH2 8777   5.564   2.598   3.543  0.0584  0.9075 -0.4057
 2952TIP3    H1 8778   5.549   2.556   3.628  0.4559 -0.2435 -0.8906
 2952TIP3    H2 8779   5.595   2.686   3.565 -1.0593  1.0581  0.6241
 2953TIP3   OH2 8780   6.167   0.990   2.359  0.0774  0.4724 -0.0084
 2953TIP3    H1 8781   6.126   1.076   2.370 -1.6179 -0.1804 -1.0433
 2953TIP3    H2 8782   6.203   0.991   2.270 -0.7778 -0.2014 -0.3770
 2954TIP3   OH2 8783   6.730   6.097   7.204 -0.2181 -0.1540 -0.2552
 2954TIP3    H1 8784   6.671   6.167   7.174  1.7747  1.4083 -0.5858
 2954TIP3    H2 8785   6.766   6.061   7.124 -0.5616 -0.9865 -0.0382
 2955TIP3   OH2 8786   5.621   3.222   1.066  0.6228  0.2279  0.3943
 2955TIP3    H1 8787   5.629   3.128   1.052  0.8884  0.3682 -0.4386
 2955TIP3    H2 8788   5.705   3.248   1.103 -0.0289 -0.1210  2.1732
 2956TIP3   OH2 8789   4.430   2.777   3.602  0.3330  0.2504 -0.5401
 2956TIP3    H1 8790   4.383   2.834   3.662 -0.6211 -1.5066  0.4410
 2956TIP3    H2 8791   4.419   2.818   3.516  0.3451  1.9384  0.2464
 2957TIP3   OH2 8792   5.394   2.489   1.492  0.2989  0.4558 -0.1092
 2957TIP3    H1 8793   5.397   2.527   1.404 -0.6183  0.5221 -0.1187
 2957TIP3    H2 8794   5.315   2.526   1.531 -0.4457 -1.2066 -0.0086
 2958TIP3   OH2 8795   3.865   0.985   0.966  0.3511 -0.3683 -0.0336
 2958TIP3    H1 8796   3.931   0.917   0.981  0.4244 -0.6448 -1.5211
 2958TIP3    H2 8797   3.857   1.029   1.051  0.6347 -1.9293  0.8305
 2959TIP3   OH2 8798   2.471   8.006   1.702  0.2158  0.2398 -0.3053
 2959TIP3    H1 8799   2.502   8.069   1.767  0.6184 -0.4735  0.2021
 2959TIP3    H2 8800   2.548   7.955   1.678 -0.2098 -0.4469 -0.2668
 2960TIP3   OH2 8801   5.375   2.446   1.016 -0.2825 -0.4570  0.0505
 2960TIP3    H1 8802   5.379   2.497   1.097  3.0663  1.2936 -1.1203
 2960TIP3    H2 8803   5.293   2.473   0.975 -1.4960 -0.5785  2.3261
 2961TIP3   OH2 8804   0.028   3.357   1.449  0.2141  0.0072  0.4968
 2961TIP3    H1 8805   0.100   3.404   1.405 -0.5953  0.5812 -0.2492
 2961TIP3    H2 8806   0.058   3.267   1.455  0.8489  0.1688 -0.1578
 2962TIP3   OH2 8807   4.864   2.929   1.695  0.0838  0.0109  0.6355
 2962TIP3    H1 8808   4.953   2.963   1.681 -0.2237 -0.3072 -2.4815
 2962TIP3    H2 8809   4.843   2.884   1.613 -2.8862 -0.0996  1.4217
 2963TIP3   OH2 8810   3.419   7.426   0.666 -0.3136 -0.1219 -0.0743
 2963TIP3    H1 8811   3.495   7.413   0.608 -0.0884  0.9964 -0.0319
 2963TIP3    H2 8812   3.375   7.341   0.666 -0.0941 -0.2493 -1.5714
 2964TIP3   OH2 8813   4.820   2.490   3.449 -0.4255  0.2203 -0.3750
 2964TIP3    H1 8814   4.877   2.489   3.373  0.8923 -0.3456  0.6037
 2964TIP3    H2 8815   4.859   2.554   3.508 -1.6162  0.8912 -0.2936
 2965TIP3   OH2 8816   4.602   2.463   3.002  0.3385 -0.2154  0.5386
 2965TIP3    H1 8817   4.694   2.452   2.979 -0.0322  0.6221 -1.4688
 2965TIP3    H2 8818   4.601   2.536   3.063  0.8296  1.0200 -0.9069
 2966TIP3   OH2 8819   3.724   2.802   4.858  0.5008 -0.0592  0.0155
 2966TIP3    H1 8820   3.659   2.773   4.922  0.7232 -0.3340  0.1216
 2966TIP3    H2 8821   3.808   2.782   4.899  0.6465 -0.0915 -0.2964
 2967TIP3   OH2 8822   5.664   2.935   1.835 -0.4659  0.3326  0.4528
 2967TIP3    H1 8823   5.737   2.880   1.806 -1.2156  0.2546 -1.3264
 2967TIP3    H2 8824   5.706   3.009   1.879  0.7269  0.4929 -0.8997
 2968TIP3   OH2 8825   0.459   4.852   2.632 -0.2075 -0.5537 -0.1659
 2968TIP3    H1 8826   0.459   4.783   2.698  0.7137  0.4537  0.9188
 2968TIP3    H2 8827   0.541   4.842   2.585 -0.4349 -0.6851 -0.5409
 2969TIP3   OH2 8828   4.923   3.582   3.036  0.1799 -0.3825 -0.0282
 2969TIP3    H1 8829   4.888   3.649   2.978  1.3117  0.2254 -0.0235
 2969TIP3    H2 8830   4.848   3.525   3.056 -0.8815  1.1114  0.2952
 2970TIP3   OH2 8831   6.591   1.369   2.204 -0.3370 -0.0228  0.1707
 2970TIP3    H1 8832   6.618   1.318   2.128  0.1797  0.9122 -0.2728
 2970TIP3    H2 8833   6.649   1.444   2.205 -1.3232  0.7513  0.6216
 2971TIP3   OH2 8834   4.891   2.871   0.445 -0.7867  0.5693  0.1765
 2971TIP3    H1 8835   4.863   2.866   0.537  1.9128  0.9293  1.0762
 2971TIP3    H2 8836   4.981   2.837   0.446  0.1452  2.8628 -1.9079
 2972TIP3   OH2 8837   6.194   2.981   1.396 -0.3168 -0.3169 -0.1131
 2972TIP3    H1 8838   6.159   2.917   1.333 -0.3849 -1.1081  0.7217
 2972TIP3    H2 8839   6.243   2.928   1.459  0.6714  0.5850 -0.1175
 2973TIP3   OH2 8840   5.626   3.434   0.650 -0.2056  0.4025 -0.7892
 2973TIP3    H1 8841   5.566   3.491   0.699  1.3181 -0.2809  2.0062
 2973TIP3    H2 8842   5.606   3.346   0.683  2.9536  0.2627  0.9632
 2974TIP3   OH2 8843   4.316   1.552   2.714  0.6318 -0.1602  0.3665
 2974TIP3    H1 8844   4.320   1.576   2.806  1.1965  1.7371 -0.1236
 2974TIP3    H2 8845   4.367   1.620   2.669 -0.8393 -0.2368 -1.4958
 2975TIP3   OH2 8846   4.570   0.943   3.205 -0.0637 -0.2248 -0.0722
 2975TIP3    H1 8847   4.496   0.896   3.168 -1.0859 -0.2639  1.9693
 2975TIP3    H2 8848   4.604   0.996   3.132 -0.5614 -2.0394 -1.6680
 2976TIP3   OH2 8849   6.204   1.070   4.131 -0.0388 -0.4498  0.3525
 2976TIP3    H1 8850   6.163   1.034   4.052 -1.0107 -3.4495  2.1067
 2976TIP3    H2 8851   6.297   1.076   4.109 -0.1514 -2.1463 -0.7353
 2977TIP3   OH2 8852   6.550   2.099   2.983 -0.4841 -0.6153 -0.0771
 2977TIP3    H1 8853   6.585   2.027   2.931  2.1097  0.3568  0.2578
 2977TIP3    H2 8854   6.540   2.062   3.071 -0.7156 -1.0175 -0.2716
 2978TIP3   OH2 8855   5.468   2.391   2.391 -0.0131 -0.2899 -0.5692
 2978TIP3    H1 8856   5.466   2.295   2.385 -0.0773 -0.2464 -1.3276
 2978TIP3    H2 8857   5.519   2.419   2.315 -0.4925  0.3024 -0.6785
 2979TIP3   OH2 8858   0.142   2.258   0.635  0.2232  0.5678  0.3625
 2979TIP3    H1 8859   0.170   2.263   0.543 -0.6311  0.0991  0.0664
 2979TIP3    H2 8860   0.056   2.300   0.636 -0.4822 -0.8453  0.6312
 2980TIP3   OH2 8861   6.021   1.346   1.193 -0.1000  0.7641  0.3741
 2980TIP3    H1 8862   5.930   1.369   1.170  0.1214  0.0755 -1.2993
 2980TIP3    H2 8863   6.074   1.391   1.127  0.7203  0.5111  0.8555
 2981TIP3   OH2 8864   6.625   2.240   2.053 -0.3763  0.4536  0.2790
 2981TIP3    H1 8865   6.716   2.260   2.074 -0.3806  0.0214  0.7046
 2981TIP3    H2 8866   6.609   2.155   2.093 -0.6684  0.0657 -0.6509
 2982TIP3   OH2 8867   7.145   7.401   7.156  0.1417 -0.3144  0.4757
 2982TIP3    H1 8868   7.236   7.389   7.185  0.3395 -0.1104 -0.0544
 2982TIP3    H2 8869   7.095   7.337   7.206  0.6165 -0.5981  0.5860
 2983TIP3   OH2 8870   6.021   3.589   0.928  0.1212  0.6815 -0.2697
 2983TIP3    H1 8871   6.091   3.651   0.950  1.1023 -0.5335  0.0199
 2983TIP3    H2 8872   6.046   3.553   0.844 -0.4029  0.5868 -0.3881
 2984TIP3   OH2 8873   4.961   1.271   3.262 -0.0005  0.2852 -0.7095
 2984TIP3    H1 8874   5.019   1.259   3.337 -0.6150  0.9776 -0.1152
 2984TIP3    H2 8875   4.873   1.263   3.298 -0.3131  1.4233 -1.2170
 2985TIP3   OH2 8876   5.015   2.675   3.576  0.3178 -0.0833 -0.0931
 2985TIP3    H1 8877   5.109   2.674   3.560  0.2190 -2.1059 -0.6244
 2985TIP3    H2 8878   5.004   2.637   3.664  0.1192  2.0889  0.8763
 2986TIP3   OH2 8879   6.954   3.656   3.109  0.4137 -0.4375  0.4809
 2986TIP3    H1 8880   6.970   3.625   3.199 -0.0917 -0.6955  0.4809
 2986TIP3    H2 8881   7.010   3.733   3.101  0.9126 -0.7529  0.8195
 2987TIP3   OH2 8882   4.796   1.863   1.097 -0.6610  0.4359  0.5455
 2987TIP3    H1 8883   4.706   1.868   1.066 -0.6844 -1.6568  0.2017
 2987TIP3    H2 8884   4.838   1.942   1.063 -2.4753  1.6940  1.1503
 2988TIP3   OH2 8885   6.681   1.819   3.240  0.1449  0.1617  0.3248
 2988TIP3    H1 8886   6.731   1.842   3.319 -1.8323  2.9380  0.8415
 2988TIP3    H2 8887   6.625   1.895   3.225 -0.2451 -0.7568 -3.2002
 2989TIP3   OH2 8888   4.618   1.148   1.337 -0.6159  0.1444  0.2686
 2989TIP3    H1 8889   4.563   1.092   1.282 -3.2162 -0.5903  3.4790
 2989TIP3    H2 8890   4.563   1.225   1.356  0.5395  0.7673  1.1697
 2990TIP3   OH2 8891   5.995   2.872   3.599 -0.9748 -0.3965  0.1753
 2990TIP3    H1 8892   5.971   2.813   3.528 -0.5093 -2.2109  1.5137
 2990TIP3    H2 8893   6.062   2.930   3.561 -0.4502 -1.6040 -0.7521
 2991TIP3   OH2 8894   4.972   1.533   2.311  0.4891  0.2491 -0.1338
 2991TIP3    H1 8895   5.017   1.450   2.294  1.1369  0.4308  0.6996
 2991TIP3    H2 8896   4.930   1.522   2.396 -2.4382 -0.5077 -1.6075
 2992TIP3   OH2 8897   3.038   0.517   1.112  0.5773 -0.2128 -0.3334
 2992TIP3    H1 8898   3.022   0.527   1.018 -0.5972 -1.7732 -0.3318
 2992TIP3    H2 8899   3.009   0.599   1.151 -2.6520 -0.9898 -0.9386
 2993TIP3   OH2 8900   6.807   3.312   0.695 -0.0264  0.2583 -0.2131
 2993TIP3    H1 8901   6.751   3.373   0.744 -0.6179 -1.5751  1.4402
 2993TIP3    H2 8902   6.870   3.280   0.760  0.6886 -0.4254 -1.2325
 2994TIP3   OH2 8903   5.379   1.794   2.442 -0.0179 -0.2526 -0.1654
 2994TIP3    H1 8904   5.296   1.802   2.489  0.3053  0.5093  0.2861
 2994TIP3    H2 8905   5.376   1.707   2.402 -0.0054 -1.2036  1.8194
 2995TIP3   OH2 8906   7.727   3.699   2.425 -0.0966 -0.1308 -0.0150
 2995TIP3    H1 8907   7.652   3.738   2.379  0.9426  0.2329 -1.4464
 2995TIP3    H2 8908   7.726   3.607   2.398  0.1691 -0.0502 -0.2991
 2996TIP3   OH2 8909   6.740   1.511   1.382 -0.0092 -1.0962 -0.1985
 2996TIP3    H1 8910   6.685   1.584   1.410  0.4402 -1.1752  0.8869
 2996TIP3    H2 8911   6.730   1.446   1.451  1.7543 -0.9665  0.1900
 2997TIP3   OH2 8912   8.407   3.682   3.268  0.1473  0.1513  0.3598
 2997TIP3    H1 8913   8.357   3.713   3.193 -0.0073  0.9157  0.7810
 2997TIP3    H2 8914   8.478   3.746   3.278  1.1247 -0.8378 -0.1442
 2998TIP3   OH2 8915   5.828   1.350   3.096  0.7242 -0.3394 -0.5281
 2998TIP3    H1 8916   5.739   1.318   3.094  0.5323  0.1600 -0.0540
 2998TIP3    H2 8917   5.860   1.331   3.184  0.4925  1.0515 -0.1261
 2999TIP3   OH2 8918   5.631   0.152   2.032 -0.6939  0.2098  0.0937
 2999TIP3    H1 8919   5.712   0.120   2.071  0.6422 -1.5093 -3.9001
 2999TIP3    H2 8920   5.562   0.121   2.091  1.3325 -0.8084  1.9743
 3000TIP3   OH2 8921   4.262   1.299   5.098 -0.5753 -0.0057  0.0767
 3000TIP3    H1 8922   4.289   1.391   5.105  2.9122 -1.0008  0.7621
 3000TIP3    H2 8923   4.305   1.268   5.018  0.1665 -1.6022  1.0773
 3001TIP3   OH2 8924   6.150   1.793   1.868 -0.3989 -0.4554  0.3763
 3001TIP3    H1 8925   6.188   1.830   1.948 -1.3116  1.8167 -0.2063
 3001TIP3    H2 8926   6.223   1.788   1.807  0.3657 -2.4542  1.3892
 3002TIP3   OH2 8927   5.431   0.206   0.615  0.3840 -0.2047 -0.8328
 3002TIP3    H1 8928   5.498   0.274   0.612 -0.3881  0.5833 -0.6065
 3002TIP3    H2 8929   5.444   0.156   0.535 -0.4584  1.6136 -2.1408
 3003TIP3   OH2 8930   5.734   3.223   2.285 -0.2248 -0.4947  0.3232
 3003TIP3    H1 8931   5.830   3.221   2.281 -0.1637  1.8070  0.0294
 3003TIP3    H2 8932   5.714   3.209   2.378  0.2854 -2.8711  0.1183
 3004TIP3   OH2 8933   6.717   3.092   3.512  0.8492  0.0588 -0.3176
 3004TIP3    H1 8934   6.772   3.102   3.434  2.1000 -0.6474  0.4660
 3004TIP3    H2 8935   6.653   3.163   3.506  1.3486  0.4022 -1.6420
 3005TIP3   OH2 8936   5.270   3.106   2.678  0.1417  0.2838 -0.5166
 3005TIP3    H1 8937   5.178   3.114   2.702  0.3560  1.9426 -0.1443
 3005TIP3    H2 8938   5.282   3.013   2.657 -1.7848  0.2137 -1.3708
 3006TIP3   OH2 8939   5.983   2.050   2.740 -0.0113  0.1640 -0.3874
 3006TIP3    H1 8940   6.041   1.989   2.694 -0.2251  0.3525 -0.9156
 3006TIP3    H2 8941   6.034   2.131   2.746  1.0323 -0.6362  2.0688
 3007TIP3   OH2 8942   7.048   2.935   1.871  0.3598  0.2957 -0.4576
 3007TIP3    H1 8943   7.112   2.986   1.922  1.0735 -1.5175  0.4995
 3007TIP3    H2 8944   7.088   2.928   1.784  1.2592 -0.4074 -0.0030
 3008TIP3   OH2 8945   3.808   2.977   3.630  0.1515  0.6218  0.1774
 3008TIP3    H1 8946   3.869   3.045   3.656  1.2130 -0.7468  1.3064
 3008TIP3    H2 8947   3.813   2.975   3.534  1.1716  1.1406  0.2186
 3009TIP3   OH2 8948   5.998   3.678   2.587 -0.4590 -0.1247  0.0192
 3009TIP3    H1 8949   5.999   3.731   2.667  2.6609 -1.7180  1.1291
 3009TIP3    H2 8950   5.941   3.604   2.607  1.0949 -1.0397  1.1857
 3010TIP3   OH2 8951   5.847   1.033   5.007  0.5076  0.0041 -0.6742
 3010TIP3    H1 8952   5.805   0.990   5.081  1.2130  0.1596 -0.1774
 3010TIP3    H2 8953   5.791   1.109   4.989 -1.6908 -2.0242 -2.6598
 3011TIP3   OH2 8954   7.949   4.053   1.250 -0.0539 -0.3690 -0.4012
 3011TIP3    H1 8955   7.959   4.050   1.345 -0.3846 -0.8084 -0.3745
 3011TIP3    H2 8956   7.867   4.101   1.236 -0.1306 -0.5136 -0.4537
 3012TIP3   OH2 8957   8.233   4.428   2.561  0.2373 -0.0897  0.3311
 3012TIP3    H1 8958   8.258   4.514   2.528 -0.7496  0.4415  0.9315
 3012TIP3    H2 8959   8.314   4.390   2.593  0.6058  0.8211  0.4953
 3013TIP3   OH2 8960   6.272   1.509   2.875 -0.1932  0.5758 -0.2326
 3013TIP3    H1 8961   6.269   1.420   2.909  0.2036 -0.8210 -3.7033
 3013TIP3    H2 8962   6.181   1.532   2.857 -0.2475  0.6876  0.1804
 3014TIP3   OH2 8963   3.670   4.292   2.786 -0.1711 -0.0089  0.2809
 3014TIP3    H1 8964   3.629   4.234   2.849 -0.0149  0.7874  1.1242
 3014TIP3    H2 8965   3.763   4.274   2.792 -0.2174 -0.4253 -0.2252
 3015TIP3   OH2 8966   7.270   2.698   2.620 -0.9718  0.7839  0.2899
 3015TIP3    H1 8967   7.216   2.620   2.611 -1.5518  1.2199 -0.0225
 3015TIP3    H2 8968   7.209   2.771   2.607 -0.5393  1.2991  1.1199
 3016TIP3   OH2 8969   5.286   2.648   3.557 -0.0966 -0.1367  0.1078
 3016TIP3    H1 8970   5.364   2.606   3.522  0.1611  0.4053  0.0281
 3016TIP3    H2 8971   5.294   2.638   3.652 -1.4919 -2.8592 -0.0103
 3017TIP3   OH2 8972   4.325   2.539   1.188 -0.2453 -0.0885  0.3073
 3017TIP3    H1 8973   4.339   2.630   1.216 -0.5678 -0.2022  0.8504
 3017TIP3    H2 8974   4.253   2.509   1.242 -0.6128 -0.4460 -0.3814
 3018TIP3   OH2 8975   8.244   3.546   1.814 -0.6664  0.0456 -0.2912
 3018TIP3    H1 8976   8.275   3.556   1.724  0.4817  0.0311  0.0886
 3018TIP3    H2 8977   8.182   3.474   1.810  0.4078 -0.8728 -0.8502
 3019TIP3   OH2 8978   6.817   6.060   6.766 -0.4483 -0.4522 -0.0241
 3019TIP3    H1 8979   6.821   6.150   6.735 -0.7558 -0.0634  1.0416
 3019TIP3    H2 8980   6.860   6.009   6.697  1.1227  0.6922  0.0801
 3020TIP3   OH2 8981   7.270   1.437   1.236  0.2566  0.7685 -0.2707
 3020TIP3    H1 8982   7.195   1.475   1.189  0.5064  1.3525 -0.2029
 3020TIP3    H2 8983   7.322   1.394   1.168  0.5239  1.4601 -0.5148
 3021TIP3   OH2 8984   6.817   2.400   0.064  0.2650 -0.4060  0.2163
 3021TIP3    H1 8985   6.765   2.381   0.142 -0.0245 -0.6080 -0.0270
 3021TIP3    H2 8986   6.834   2.315   0.025  0.3899 -0.3017  0.0426
 3022TIP3   OH2 8987   6.147   3.792   3.045 -0.0098 -0.1069  0.1415
 3022TIP3    H1 8988   6.118   3.703   3.066  1.7192 -0.0752  2.9216
 3022TIP3    H2 8989   6.241   3.791   3.061 -0.0375  2.3644  0.6655
 3023TIP3   OH2 8990   6.242   2.115   3.093  0.3175 -0.0757 -0.2918
 3023TIP3    H1 8991   6.230   2.209   3.103 -0.3053 -0.0132 -1.4678
 3023TIP3    H2 8992   6.329   2.098   3.126  0.1563  0.8057  0.6129
 3024TIP3   OH2 8993   1.300   7.503   4.071  0.6878  0.4284  0.3139
 3024TIP3    H1 8994   1.290   7.470   3.982 -0.0522  0.9305  0.2055
 3024TIP3    H2 8995   1.394   7.506   4.085  0.7966 -0.1275 -0.2742
 3025TIP3   OH2 8996   5.918   2.647   0.387  0.0627 -0.5900  0.9309
 3025TIP3    H1 8997   5.891   2.573   0.332 -0.2312  0.7797 -0.8008
 3025TIP3    H2 8998   6.003   2.673   0.352  1.0084 -1.2600  2.7114
 3026TIP3   OH2 8999   3.334   2.213   3.703  0.4781 -0.5063 -0.3231
 3026TIP3    H1 9000   3.281   2.292   3.707  0.4688 -0.4721 -1.0743
 3026TIP3    H2 9001   3.353   2.201   3.610  0.9816 -1.0521 -0.1556
 3027TIP3   OH2 9002   5.320   2.009   1.302 -0.2652 -0.0770 -0.4017
 3027TIP3    H1 9003   5.369   2.054   1.372 -2.1808  1.3768  0.0334
 3027TIP3    H2 9004   5.343   2.057   1.222 -0.1488 -0.0771 -0.3687
 3028TIP3   OH2 9005   4.353   2.005   1.984  0.5905 -0.3581  0.1820
 3028TIP3    H1 9006   4.371   2.089   1.943  1.3011 -0.0531  1.0913
 3028TIP3    H2 9007   4.258   1.997   1.982  0.6183 -0.3625 -1.5234
 3029TIP3   OH2 9008   3.758   2.854   4.139  0.2054 -0.1598 -0.9506
 3029TIP3    H1 9009   3.792   2.943   4.154 -1.8244  0.6465 -0.8740
 3029TIP3    H2 9010   3.736   2.852   4.046 -1.3222  0.0179 -0.6135
 3030TIP3   OH2 9011   5.909   1.922   2.261 -0.1627 -0.9344  0.1785
 3030TIP3    H1 9012   5.951   1.983   2.321  0.4576 -0.9144 -0.2676
 3030TIP3    H2 9013   5.846   1.874   2.315 -0.4031 -0.1486  0.6020
 3031TIP3   OH2 9014   5.239   2.200   2.964  0.2126  0.0494 -0.5087
 3031TIP3    H1 9015   5.322   2.152   2.959 -1.0381 -2.0218 -1.8146
 3031TIP3    H2 9016   5.255   2.280   2.914  1.2186 -0.6419 -1.3116
 3032TIP3   OH2 9017   4.763   2.583   3.922 -0.4105 -0.3935  0.5838
 3032TIP3    H1 9018   4.725   2.578   4.010 -0.9639 -0.1525  0.3638
 3032TIP3    H2 9019   4.739   2.500   3.881  1.2364 -1.1945  1.2016
 3033TIP3   OH2 9020   3.798   0.747   0.028  0.1635 -0.3529  0.4418
 3033TIP3    H1 9021   3.858   0.813  -0.007  0.5557  1.1888  3.8026
 3033TIP3    H2 9022   3.738   0.797   0.084 -1.5440 -2.4427  0.5435
 3034TIP3   OH2 9023   1.545   8.058   1.901 -0.3927  0.2127 -0.2150
 3034TIP3    H1 9024   1.550   8.002   1.824 -0.2760 -1.6905  1.1261
 3034TIP3    H2 9025   1.509   8.141   1.869  0.7380 -0.1564 -2.4931
 3035TIP3   OH2 9026   6.129   1.676   3.261  0.1689 -0.5788 -0.0274
 3035TIP3    H1 9027   6.050   1.658   3.310 -0.9051 -0.2204 -1.5820
 3035TIP3    H2 9028   6.160   1.590   3.232  0.0033 -0.6643  0.0524
 3036TIP3   OH2 9029   3.340   1.444   3.375  0.5155 -0.6276 -0.1069
 3036TIP3    H1 9030   3.382   1.453   3.290  1.4848  0.3276  0.4612
 3036TIP3    H2 9031   3.398   1.489   3.436 -0.0834 -1.4272  1.0946
 3037TIP3   OH2 9032   5.227   1.740   1.625  0.1312  0.0792 -0.2612
 3037TIP3    H1 9033   5.269   1.685   1.692 -1.2273  0.9284  1.3343
 3037TIP3    H2 9034   5.149   1.776   1.669 -2.0268 -1.0721 -2.9711
 3038TIP3   OH2 9035   8.535   2.792   2.456  0.7801 -0.0353 -0.2954
 3038TIP3    H1 9036   8.567   2.842   2.381  0.9887 -1.0609 -0.8928
 3038TIP3    H2 9037   8.479   2.724   2.418  2.3987 -1.7432  0.3183
 3039TIP3   OH2 9038   5.302   1.829   1.999  0.4054 -0.4198  0.1856
 3039TIP3    H1 9039   5.396   1.819   2.011  0.2040 -0.6773  1.5393
 3039TIP3    H2 9040   5.269   1.858   2.084 -0.6192  0.5100 -0.5183
 3040TIP3   OH2 9041   4.760   1.581   3.132  0.2761 -0.5099  0.0975
 3040TIP3    H1 9042   4.826   1.524   3.093  1.1252  0.1133  0.6116
 3040TIP3    H2 9043   4.808   1.635   3.194 -0.1086  2.3089 -1.9400
 3041TIP3   OH2 9044   6.256   2.440   1.542  0.2534  0.3964  0.0111
 3041TIP3    H1 9045   6.196   2.513   1.555 -1.1521 -0.8554  0.7374
 3041TIP3    H2 9046   6.317   2.445   1.615 -0.5114  0.2229  0.6764
 3042TIP3   OH2 9047   8.362   5.977   2.582 -0.1804  0.1779 -0.0208
 3042TIP3    H1 9048   8.427   5.917   2.618 -1.0711  0.3811  2.0070
 3042TIP3    H2 9049   8.293   5.920   2.548  0.6956 -0.0153 -1.5458
 3043TIP3   OH2 9050   3.811   8.239   5.500  0.5977  0.5102 -0.0138
 3043TIP3    H1 9051   3.847   8.152   5.520 -1.8685 -0.5269  0.1425
 3043TIP3    H2 9052   3.809   8.243   5.405 -1.3120 -0.5421 -0.0531
 3044TIP3   OH2 9053   5.540   3.864   0.466  0.4120 -0.2206 -0.3440
 3044TIP3    H1 9054   5.553   3.774   0.438  0.8255  0.3210 -1.9301
 3044TIP3    H2 9055   5.609   3.913   0.422  0.6947  0.7491  1.1535
 3045TIP3   OH2 9056   4.543   2.525   3.516 -0.2220 -0.2100 -0.3720
 3045TIP3    H1 9057   4.513   2.607   3.554 -0.0476 -0.4216  0.2274
 3045TIP3    H2 9058   4.628   2.545   3.477  0.7722 -0.5711  1.5536
 3046TIP3   OH2 9059   4.282   0.382   7.136  0.6215 -0.3486 -0.8926
 3046TIP3    H1 9060   4.237   0.320   7.078 -1.2929 -0.3809  0.5632
 3046TIP3    H2 9061   4.334   0.326   7.194 -0.2172 -0.5501 -0.3183
 3047TIP3   OH2 9062   6.485   2.503   1.711 -0.3329  0.3994  0.0613
 3047TIP3    H1 9063   6.469   2.596   1.727 -0.6810  0.2349  0.6538
 3047TIP3    H2 9064   6.503   2.466   1.798 -1.0758 -0.2601 -0.0679
 3048TIP3   OH2 9065   7.305   3.654   2.952 -0.2878 -0.2686 -0.7155
 3048TIP3    H1 9066   7.378   3.715   2.962  0.0043 -0.4371 -1.7597
 3048TIP3    H2 9067   7.261   3.654   3.037  0.5883  0.2719 -0.2628
 3049TIP3   OH2 9068   4.768   2.306   4.366  0.1228  0.1367  0.2471
 3049TIP3    H1 9069   4.816   2.348   4.295  0.3585  1.4649  1.1769
 3049TIP3    H2 9070   4.816   2.329   4.445 -1.2420  0.3294  1.0466
 3050TIP3   OH2 9071   5.153   3.170   0.706 -0.1494  0.1500  0.0853
 3050TIP3    H1 9072   5.070   3.123   0.697  0.3937 -0.5823 -1.2910
 3050TIP3    H2 9073   5.127   3.260   0.727 -1.3083 -0.0044 -0.6260
 3051TIP3   OH2 9074   5.218   1.561   2.685 -0.0260 -0.0771 -0.2178
 3051TIP3    H1 9075   5.149   1.514   2.732  1.5365  0.0466  2.3097
 3051TIP3    H2 9076   5.271   1.492   2.644 -0.4717 -0.2643 -0.4775
 3052TIP3   OH2 9077   8.575   6.541   7.175  0.3077  0.4520  0.2932
 3052TIP3    H1 9078   8.491   6.553   7.130  0.1332  0.0752  0.5153
 3052TIP3    H2 9079   8.555   6.561   7.267  0.3943  0.0617  0.3947
 3053TIP3   OH2 9080   5.829   1.383   2.769  0.1635 -0.3470  0.6375
 3053TIP3    H1 9081   5.846   1.361   2.860  2.6749  1.5491  0.6801
 3053TIP3    H2 9082   5.758   1.325   2.743  2.6349 -4.3163  2.3786
 3054TIP3   OH2 9083   5.672   2.840   3.634  0.5087 -0.1513 -0.1243
 3054TIP3    H1 9084   5.669   2.897   3.557 -1.7402  1.0439  0.7961
 3054TIP3    H2 9085   5.680   2.900   3.708 -0.8205 -1.0625  0.7832
 3055TIP3   OH2 9086   6.040   1.890   3.881  0.4007 -0.2359 -0.2020
 3055TIP3    H1 9087   6.135   1.894   3.893  0.1334 -2.8948  4.0508
 3055TIP3    H2 9088   6.006   1.960   3.935 -0.1229  0.3130 -1.2285
 3056TIP3   OH2 9089   3.846   1.310   1.044 -0.6372  0.4423  0.1865
 3056TIP3    H1 9090   3.848   1.222   1.081 -0.7326 -0.6223 -2.2436
 3056TIP3    H2 9091   3.756   1.320   1.011 -0.8246  1.7160  1.0476
 3057TIP3   OH2 9092   1.834   7.240   1.626 -0.2516  0.4094 -0.0444
 3057TIP3    H1 9093   1.859   7.261   1.716 -0.3138  0.8730 -0.1345
 3057TIP3    H2 9094   1.839   7.145   1.622  1.3219  0.4850 -0.0134
 3058TIP3   OH2 9095   5.894   4.112   2.693  0.1945  0.5096  0.3690
 3058TIP3    H1 9096   5.937   4.050   2.751 -0.7619  0.1319  0.6804
 3058TIP3    H2 9097   5.864   4.060   2.619 -2.8393  0.1031  1.7995
 3059TIP3   OH2 9098   8.182   4.737   1.571  0.4105  0.1836 -0.0900
 3059TIP3    H1 9099   8.173   4.656   1.519 -0.5428  0.6768 -0.7214
 3059TIP3    H2 9100   8.188   4.707   1.661  2.7460 -0.7304 -0.5272
 3060TIP3   OH2 9101   6.537   1.582   3.600  0.2688 -0.6477 -1.0460
 3060TIP3    H1 9102   6.507   1.516   3.661  0.3367 -0.3625 -0.7031
 3060TIP3    H2 9103   6.493   1.561   3.518 -0.9286 -0.1815 -0.5288
 3061TIP3   OH2 9104   4.773   1.286   3.027  0.5034  0.0933 -0.4193
 3061TIP3    H1 9105   4.839   1.282   3.096  0.5875  0.3456 -0.4857
 3061TIP3    H2 9106   4.747   1.195   3.014  0.6695  0.0172 -0.2306
 3062TIP3   OH2 9107   5.949   0.699   0.991  0.1036  0.5477  0.0256
 3062TIP3    H1 9108   5.975   0.709   0.899  0.0219  0.5214 -0.0008
 3062TIP3    H2 9109   6.017   0.643   1.029  1.3846  2.3993  0.5369
 3063TIP3   OH2 9110   0.123   6.262   7.186  0.5441 -0.2861 -0.9413
 3063TIP3    H1 9111   0.028   6.246   7.180  0.3985  0.2325 -0.0967
 3063TIP3    H2 9112   0.161   6.175   7.197  0.1600 -0.4960 -1.2681
 3064TIP3   OH2 9113   5.460   0.991   2.105  0.5480  0.2816  0.1505
 3064TIP3    H1 9114   5.539   0.953   2.067  1.0581  1.5729 -0.0903
 3064TIP3    H2 9115   5.389   0.932   2.078  1.3315 -0.4980 -0.2028
 3065TIP3   OH2 9116   6.856   1.489   3.380 -0.6419  0.3549  0.2274
 3065TIP3    H1 9117   6.831   1.478   3.289  0.2955 -0.6623  0.0890
 3065TIP3    H2 9118   6.814   1.416   3.426 -1.8089  1.3344  0.7645
 3066TIP3   OH2 9119   5.799   0.759   3.239 -0.1674 -0.2546 -0.2383
 3066TIP3    H1 9120   5.723   0.808   3.268 -0.3648 -0.9248  0.3882
 3066TIP3    H2 9121   5.867   0.825   3.226 -0.5634  0.2311  0.1503
 3067TIP3   OH2 9122   6.971   1.758   3.856  0.1508 -0.2026  1.0947
 3067TIP3    H1 9123   6.913   1.698   3.810 -0.0232 -1.8826  3.3746
 3067TIP3    H2 9124   6.922   1.840   3.861  0.2690  0.0855 -1.7995
 3068TIP3   OH2 9125   7.723   2.528   4.286  0.4267  0.1511  0.5356
 3068TIP3    H1 9126   7.631   2.536   4.260  1.2767 -0.6559 -2.9001
 3068TIP3    H2 9127   7.758   2.617   4.278  0.2037  0.2585  0.7670
 3069TIP3   OH2 9128   5.996   1.178   2.214  0.4609 -0.1604 -0.0604
 3069TIP3    H1 9129   5.950   1.185   2.297  0.0736  0.2588 -0.3137
 3069TIP3    H2 9130   5.957   1.102   2.171  0.2624 -0.0281 -0.1129
 3070TIP3   OH2 9131   5.727   2.106   3.684  0.4010  0.3227 -0.6540
 3070TIP3    H1 9132   5.792   2.037   3.674  0.8414  0.6265  0.0530
 3070TIP3    H2 9133   5.733   2.157   3.603 -0.5716 -1.0036 -1.5812
 3071TIP3   OH2 9134   5.613   1.308   5.205  0.1204 -0.3344  0.3541
 3071TIP3    H1 9135   5.611   1.319   5.110 -0.9549 -4.5621 -0.1942
 3071TIP3    H2 9136   5.704   1.287   5.225  0.0023 -1.1949  0.0090
 3072TIP3   OH2 9137   6.420   1.841   3.679  0.0389 -0.1454  0.2147
 3072TIP3    H1 9138   6.434   1.747   3.685 -1.4159 -0.3403  0.8403
 3072TIP3    H2 9139   6.369   1.853   3.599 -0.9194 -0.0478  0.8246
 3073TIP3   OH2 9140   4.951   3.406   1.821  0.4004  0.2992 -0.3692
 3073TIP3    H1 9141   4.907   3.456   1.890 -0.3461  0.4272 -0.9285
 3073TIP3    H2 9142   4.911   3.319   1.825  0.2616  0.3449 -0.7217
 3074TIP3   OH2 9143   4.167   3.045   3.304  0.8022  0.0950  0.3767
 3074TIP3    H1 9144   4.196   2.961   3.340  0.6848  0.8571  2.2838
 3074TIP3    H2 9145   4.074   3.049   3.326  0.4839  0.1124 -0.9430
 3075TIP3   OH2 9146   5.884   0.064   2.138  0.2079 -0.1682 -0.3091
 3075TIP3    H1 9147   5.963   0.092   2.183 -0.6225  0.3628  0.8349
 3075TIP3    H2 9148   5.914   0.001   2.072  1.5051 -0.4220  0.5196
 3076TIP3   OH2 9149   5.042   3.087   1.382 -0.0091  0.1051 -0.4454
 3076TIP3    H1 9150   5.077   2.999   1.369 -1.7763 -0.7830  0.7155
 3076TIP3    H2 9151   5.074   3.113   1.468  1.4763  1.1016 -1.2628
 3077TIP3   OH2 9152   7.701   3.123   0.582 -0.1990 -0.3316 -0.0222
 3077TIP3    H1 9153   7.631   3.149   0.642  0.5622  0.6212  0.4697
 3077TIP3    H2 9154   7.657   3.116   0.497 -1.4960 -2.7619  0.8147
 3078TIP3   OH2 9155   6.740   1.140   5.246 -0.2339 -0.3233  0.2625
 3078TIP3    H1 9156   6.819   1.193   5.253 -0.2351 -0.1088 -1.1312
 3078TIP3    H2 9157   6.680   1.178   5.310  0.3710  0.2646  0.4926
 3079TIP3   OH2 9158   7.167   2.257   2.434  0.3516 -0.3777 -0.0439
 3079TIP3    H1 9159   7.160   2.183   2.374 -0.4923  0.4723 -1.0188
 3079TIP3    H2 9160   7.168   2.334   2.377 -1.5704  0.5106  1.0727
 3080TIP3   OH2 9161   5.766   3.596   1.338  0.2033  0.0982 -0.2234
 3080TIP3    H1 9162   5.782   3.502   1.323 -1.5932 -0.5275  1.5353
 3080TIP3    H2 9163   5.831   3.640   1.283  1.5633 -2.1856 -0.5414
 3081TIP3   OH2 9164   4.616   0.439   3.776 -0.0433 -0.0956  0.0518
 3081TIP3    H1 9165   4.666   0.369   3.733  1.1860 -0.3211  1.8396
 3081TIP3    H2 9166   4.613   0.509   3.711  1.6539 -0.4917 -0.4806
 3082TIP3   OH2 9167   4.933   1.641   1.511 -0.4419  0.1050  0.3790
 3082TIP3    H1 9168   4.888   1.679   1.435 -0.6520 -0.3718  0.2675
 3082TIP3    H2 9169   4.993   1.711   1.540 -0.9552  0.5869  0.2834
 3083TIP3   OH2 9170   7.434   3.449   1.412 -0.5419 -0.2944  0.5355
 3083TIP3    H1 9171   7.429   3.487   1.500  2.2794 -1.3847  1.2167
 3083TIP3    H2 9172   7.377   3.372   1.416 -2.5821  1.1848  0.5483
 3084TIP3   OH2 9173   4.901   3.961   0.299  0.4398 -0.3085  0.1497
 3084TIP3    H1 9174   4.880   3.898   0.230  0.6915 -1.7404  1.3555
 3084TIP3    H2 9175   4.860   3.925   0.378  1.2725  0.6185  1.0233
 3085TIP3   OH2 9176   5.955   1.975   1.692 -0.5943  0.1651  0.3506
 3085TIP3    H1 9177   5.910   2.012   1.767  0.1087  1.2108  0.2593
 3085TIP3    H2 9178   6.028   1.925   1.729 -1.0437 -0.4511  0.4241
 3086TIP3   OH2 9179   5.304   2.779   2.865  0.1283 -0.3550  0.2018
 3086TIP3    H1 9180   5.361   2.752   2.937  0.1146  0.0391  0.3587
 3086TIP3    H2 9181   5.362   2.825   2.805  0.4800 -2.0931 -0.8446
 3087TIP3   OH2 9182   4.649   1.425   0.996 -0.1596 -0.3860  0.1392
 3087TIP3    H1 9183   4.723   1.462   1.045 -0.1860 -0.8803  0.5680
 3087TIP3    H2 9184   4.613   1.358   1.055 -1.7325  0.7108  0.4420
 3088TIP3   OH2 9185   1.330   8.262   6.309  0.0338 -0.5455  0.1324
 3088TIP3    H1 9186   1.288   8.346   6.324 -1.7499 -1.2151 -0.9554
 3088TIP3    H2 9187   1.419   8.285   6.279  0.5209  0.8652  2.5503
 3089TIP3   OH2 9188   0.736   1.497   1.478 -0.0076  0.0857  0.2589
 3089TIP3    H1 9189   0.816   1.548   1.489 -0.4642  0.6867  0.8526
 3089TIP3    H2 9190   0.766   1.411   1.449  0.8446  0.3244  0.4223
 3090TIP3   OH2 9191   7.231   0.190   0.340  0.2126 -0.6926  0.6368
 3090TIP3    H1 9192   7.318   0.204   0.376  1.7131  1.5444 -3.4956
 3090TIP3    H2 9193   7.239   0.112   0.285 -0.1729 -0.1277 -0.2431
 3091TIP3   OH2 9194   6.728   0.174   1.884 -0.5667 -0.0424 -0.8635
 3091TIP3    H1 9195   6.777   0.094   1.864  1.3491  0.7666  0.4253
 3091TIP3    H2 9196   6.769   0.241   1.828  0.7783  0.9322  1.2182
 3092TIP3   OH2 9197   2.536   7.444   4.012  0.2027 -0.2689 -0.2578
 3092TIP3    H1 9198   2.589   7.364   4.005  0.4557 -0.1958  0.7851
 3092TIP3    H2 9199   2.566   7.486   4.092 -0.9515  0.1302 -0.0239
 3093TIP3   OH2 9200   6.001   3.128   1.724 -0.2698 -0.8390 -0.1386
 3093TIP3    H1 9201   6.046   3.207   1.752  1.3114 -0.9015 -2.3445
 3093TIP3    H2 9202   5.945   3.104   1.798  0.4518  1.4110  1.1678
 3094TIP3   OH2 9203   5.618   4.104   2.946 -0.1672  0.2896 -0.1009
 3094TIP3    H1 9204   5.680   4.033   2.963 -0.0017  0.6196  0.7013
 3094TIP3    H2 9205   5.573   4.078   2.866 -1.8061 -1.9250  1.4637
 3095TIP3   OH2 9206   0.385   0.469   1.823 -0.3453 -0.1096  0.0382
 3095TIP3    H1 9207   0.317   0.504   1.766 -1.2451 -0.1173  1.0945
 3095TIP3    H2 9208   0.354   0.487   1.911  0.2321 -1.6026  0.5594
 3096TIP3   OH2 9209   6.738   3.010   2.676  0.0294 -0.2330  0.8978
 3096TIP3    H1 9210   6.739   2.915   2.669 -1.9537 -0.1448 -1.1245
 3096TIP3    H2 9211   6.645   3.034   2.671  0.4435  1.7701  2.0691
 3097TIP3   OH2 9212   5.989   0.953   3.439 -0.1620 -0.2299 -0.0600
 3097TIP3    H1 9213   5.954   0.892   3.504  0.7927 -0.8100 -0.0868
 3097TIP3    H2 9214   6.083   0.950   3.451 -0.0943  1.1990 -0.1062
 3098TIP3   OH2 9215   4.187   1.750   6.101 -0.4226  0.7739  0.3029
 3098TIP3    H1 9216   4.159   1.688   6.169  2.1583 -0.4235  0.3396
 3098TIP3    H2 9217   4.236   1.696   6.039  0.2292  2.4648 -0.6780
 3099TIP3   OH2 9218   7.830   3.766   3.013 -0.9651 -0.1480 -0.4103
 3099TIP3    H1 9219   7.774   3.748   2.938 -0.5548 -0.4725 -0.6426
 3099TIP3    H2 9220   7.910   3.802   2.976 -0.0125 -2.0521 -0.3052
 3100TIP3   OH2 9221   8.789   5.119   7.211  0.3450 -0.0022 -0.2822
 3100TIP3    H1 9222   8.859   5.130   7.147  0.8433  1.2967  0.4638
 3100TIP3    H2 9223   8.718   5.078   7.162  1.1806 -0.2229 -1.3419
 3101TIP3   OH2 9224   4.256   0.474   1.550 -0.0364  0.2628  0.1732
 3101TIP3    H1 9225   4.346   0.454   1.574 -0.4454  0.9073  2.3954
 3101TIP3    H2 9226   4.215   0.388   1.541  0.1607 -0.0414  1.8719
 3102TIP3   OH2 9227   5.933   2.955   2.499  0.2805 -0.0063 -0.2104
 3102TIP3    H1 9228   5.859   3.003   2.537 -0.7163 -1.2708 -0.5305
 3102TIP3    H2 9229   5.910   2.863   2.509  1.5757 -0.4032 -0.7953
 3103TIP3   OH2 9230   3.879   7.921   5.043  0.4092 -0.0821  0.0369
 3103TIP3    H1 9231   3.968   7.891   5.021 -0.0943 -0.4486 -1.6090
 3103TIP3    H2 9232   3.825   7.890   4.970 -1.0421  0.3117  0.9272
 3104TIP3   OH2 9233   5.386   2.607   1.796  0.3963  0.0319 -0.2293
 3104TIP3    H1 9234   5.444   2.546   1.751  0.7472  1.5324 -1.8630
 3104TIP3    H2 9235   5.304   2.605   1.746 -0.5790 -1.1867  1.3699
 3105TIP3   OH2 9236   6.457   4.277   3.198  0.0468 -0.0920 -0.1758
 3105TIP3    H1 9237   6.400   4.339   3.152 -0.8721  1.5434  3.0871
 3105TIP3    H2 9238   6.397   4.208   3.228  0.7394 -1.4700 -1.8566
 3106TIP3   OH2 9239   4.913   4.262   4.225  0.0130 -0.2964 -0.2636
 3106TIP3    H1 9240   4.948   4.206   4.155 -3.1848 -3.2933  0.3598
 3106TIP3    H2 9241   4.858   4.326   4.180  0.4333 -0.2684 -0.7344
 3107TIP3   OH2 9242   6.675   2.191   1.389 -0.2788 -0.1338 -1.2192
 3107TIP3    H1 9243   6.686   2.110   1.340 -0.7637  0.3531 -2.1384
 3107TIP3    H2 9244   6.623   2.247   1.332 -0.7329  0.4909 -0.2041
 3108TIP3   OH2 9245   7.801   1.447   2.992 -0.1470  0.8020 -0.2434
 3108TIP3    H1 9246   7.746   1.418   2.919  0.3402  1.8883 -1.0653
 3108TIP3    H2 9247   7.803   1.542   2.983  0.3155  0.9047  0.9129
 3109TIP3   OH2 9248   5.007   2.673   1.792 -0.7687  0.2849  0.0489
 3109TIP3    H1 9249   4.955   2.751   1.774 -0.4995  0.5182  0.2874
 3109TIP3    H2 9250   4.943   2.610   1.827 -1.1272  0.1231 -0.8876
 3110TIP3   OH2 9251   7.033   1.790   1.826 -0.6029  0.1734  0.1582
 3110TIP3    H1 9252   7.080   1.795   1.743 -4.3086  1.0140 -2.0113
 3110TIP3    H2 9253   7.008   1.880   1.845 -3.1490 -0.4880  0.1077
 3111TIP3   OH2 9254   6.451   3.707   3.366 -0.4991 -0.0834 -0.1162
 3111TIP3    H1 9255   6.429   3.682   3.456  1.2203  0.4184  0.4737
 3111TIP3    H2 9256   6.536   3.752   3.374 -0.1509 -0.3495 -2.0345
 3112TIP3   OH2 9257   6.097   0.921   5.088  0.3207  0.0547  0.1953
 3112TIP3    H1 9258   6.010   0.958   5.073  0.3346  0.1336  0.3150
 3112TIP3    H2 9259   6.157   0.984   5.048  0.2883 -0.2884 -0.4173
 3113TIP3   OH2 9260   5.246   2.580   3.235  0.2462  0.3260  0.2462
 3113TIP3    H1 9261   5.199   2.633   3.299 -1.3066  0.1600 -0.7304
 3113TIP3    H2 9262   5.280   2.643   3.172 -0.7018  0.2655 -0.3372
 3114TIP3   OH2 9263   5.694   0.823   1.027  0.0244  0.3898  0.1431
 3114TIP3    H1 9264   5.738   0.908   1.036 -0.3169  0.5964 -0.1203
 3114TIP3    H2 9265   5.763   0.759   1.044  0.2267  0.7230  0.5967
 3115TIP3   OH2 9266   3.643   1.694   4.095 -0.1562  0.0430  0.5896
 3115TIP3    H1 9267   3.650   1.646   4.012  1.2203 -1.0598  1.3179
 3115TIP3    H2 9268   3.707   1.765   4.085  0.1864 -0.2353  0.7993
 3116TIP3   OH2 9269   4.135   0.630   2.193 -0.4046 -0.0434 -0.2690
 3116TIP3    H1 9270   4.168   0.654   2.106 -0.5781 -1.1235 -0.6363
 3116TIP3    H2 9271   4.155   0.537   2.201 -2.1543 -0.3982  0.0494
 3117TIP3   OH2 9272   5.475   1.474   0.826  0.1076  0.6948  0.3111
 3117TIP3    H1 9273   5.513   1.387   0.813  0.3997  0.9995 -0.8926
 3117TIP3    H2 9274   5.403   1.478   0.764 -0.1697  1.1530  0.6633
 3118TIP3   OH2 9275   5.936   0.723   3.889  0.0116  0.1563 -0.0631
 3118TIP3    H1 9276   5.971   0.634   3.889  3.4679  1.4389 -0.3038
 3118TIP3    H2 9277   5.859   0.719   3.833  0.9734 -2.3777 -1.2692
 3119TIP3   OH2 9278   2.450   7.126   2.665 -0.3260  0.2619 -0.0611
 3119TIP3    H1 9279   2.440   7.117   2.570 -1.0486  1.3944 -0.0908
 3119TIP3    H2 9280   2.503   7.050   2.690  1.5624  1.0197 -1.6458
 3120TIP3   OH2 9281   4.713   1.871   2.835 -0.3356  0.4008  0.8095
 3120TIP3    H1 9282   4.744   1.861   2.745 -0.2047 -1.5219  1.0468
 3120TIP3    H2 9283   4.769   1.940   2.872 -1.0100  1.8478 -0.8448
 3121TIP3   OH2 9284   6.349   0.142   4.679 -0.0802 -0.2248  0.2439
 3121TIP3    H1 9285   6.273   0.119   4.626  0.2149  0.1777 -0.3541
 3121TIP3    H2 9286   6.416   0.168   4.616  0.5547 -0.5743  0.7685
 3122TIP3   OH2 9287   4.903   1.167   0.734  0.3908 -0.3135 -0.7366
 3122TIP3    H1 9288   4.984   1.206   0.701  1.2324 -0.8712  0.6133
 3122TIP3    H2 9289   4.837   1.234   0.722  1.2091  0.4328 -1.1467
 3123TIP3   OH2 9290   4.246   8.333   2.472 -0.3059  0.1290 -0.4587
 3123TIP3    H1 9291   4.283   8.406   2.422  0.5617  0.3361  0.4611
 3123TIP3    H2 9292   4.165   8.311   2.426  1.4022 -0.9391 -3.0496
 3124TIP3   OH2 9293   4.316   3.015   2.167  0.2177  0.8565  0.3782
 3124TIP3    H1 9294   4.338   3.107   2.153  1.8239  0.6664  1.5777
 3124TIP3    H2 9295   4.399   2.969   2.155 -0.6870 -0.5115 -0.7967
 3125TIP3   OH2 9296   6.176   1.898   2.148  0.2815 -0.3043 -0.0287
 3125TIP3    H1 9297   6.179   1.993   2.138  1.0565 -0.5570 -2.4330
 3125TIP3    H2 9298   6.087   1.879   2.176  0.0661  1.1101  0.2668
 3126TIP3   OH2 9299   6.996   1.123   1.545 -0.2522  0.2612 -0.0515
 3126TIP3    H1 9300   6.964   1.061   1.479 -2.1233 -0.2454  1.2910
 3126TIP3    H2 9301   7.088   1.137   1.521 -0.1752 -1.9213 -1.2393
 3127TIP3   OH2 9302   4.346   3.426   0.104 -0.7091 -0.2585  0.0466
 3127TIP3    H1 9303   4.380   3.353   0.052  0.1010 -0.3389  0.6750
 3127TIP3    H2 9304   4.281   3.387   0.162  1.7178 -1.0181  2.3715
 3128TIP3   OH2 9305   7.251   3.922   3.344 -0.1416 -0.4381 -0.2512
 3128TIP3    H1 9306   7.181   3.925   3.409 -0.6377  0.0585 -0.8005
 3128TIP3    H2 9307   7.245   4.006   3.298  0.7280 -0.4492 -0.3917
 3129TIP3   OH2 9308   4.000   0.968   1.637  0.3573 -0.3859  0.1129
 3129TIP3    H1 9309   4.089   0.964   1.603  0.7762  2.8635  0.6638
 3129TIP3    H2 9310   4.010   0.999   1.727 -1.2935 -0.4279  0.3273
 3130TIP3   OH2 9311   5.188   1.241   2.660  0.1784 -0.1632 -0.1211
 3130TIP3    H1 9312   5.103   1.279   2.686  1.0246  0.9378  1.1120
 3130TIP3    H2 9313   5.229   1.217   2.743  1.6260  0.5421 -0.6229
 3131TIP3   OH2 9314   4.160   4.660   0.202  0.0070 -0.3476 -0.1650
 3131TIP3    H1 9315   4.139   4.741   0.155  1.4030 -0.2356 -0.6198
 3131TIP3    H2 9316   4.118   4.671   0.287  1.3775  1.4949  0.3017
 3132TIP3   OH2 9317   5.184   0.542   3.156  0.1811 -0.0890  0.3900
 3132TIP3    H1 9318   5.166   0.580   3.242  0.6632 -0.1482  0.5229
 3132TIP3    H2 9319   5.137   0.598   3.094  1.5424  1.2304  0.5143
 3133TIP3   OH2 9320   7.036   2.079   1.618  0.3620 -0.0225 -0.3381
 3133TIP3    H1 9321   7.025   2.152   1.678 -0.4328  0.4543 -1.0573
 3133TIP3    H2 9322   7.116   2.035   1.648 -0.1197  0.1063  1.1565
 3134TIP3   OH2 9323   2.043   1.125   2.480 -0.0839  0.3859 -0.5712
 3134TIP3    H1 9324   2.120   1.115   2.426 -0.2985  0.2607 -0.8555
 3134TIP3    H2 9325   1.970   1.094   2.425 -0.4132  1.0592 -0.5206
 3135TIP3   OH2 9326   0.636   0.631   2.585  0.1340  0.2720  0.2996
 3135TIP3    H1 9327   0.727   0.604   2.591  0.3904  0.8241 -1.0109
 3135TIP3    H2 9328   0.638   0.726   2.585 -0.4652  0.2919  0.4590
 3136TIP3   OH2 9329   7.739   2.275   1.836  0.0322 -0.1318 -0.0346
 3136TIP3    H1 9330   7.791   2.196   1.852 -0.5522 -0.0443  2.5402
 3136TIP3    H2 9331   7.651   2.252   1.865 -0.8597  0.4884 -2.1509
 3137TIP3   OH2 9332   6.897   1.427   0.372 -0.1266 -0.1146 -0.1270
 3137TIP3    H1 9333   6.843   1.479   0.432 -1.8178 -1.1416 -0.7405
 3137TIP3    H2 9334   6.956   1.377   0.430 -0.3781  0.4049  0.5823
 3138TIP3   OH2 9335   8.171   3.459   1.337 -0.4291  0.1466  0.7428
 3138TIP3    H1 9336   8.204   3.456   1.247  0.8915  2.6711  1.1050
 3138TIP3    H2 9337   8.100   3.523   1.335  0.0795  0.7473  1.6417
 3139TIP3   OH2 9338   5.834   4.582   1.530  0.1730 -0.0005  0.7183
 3139TIP3    H1 9339   5.761   4.549   1.582  0.8845  0.5000  2.0608
 3139TIP3    H2 9340   5.899   4.512   1.532 -0.6775 -0.8987 -1.3945
 3140TIP3   OH2 9341   7.499   2.798   2.728 -0.5551  0.4642  0.0015
 3140TIP3    H1 9342   7.423   2.770   2.678 -0.4812  1.0670 -0.4558
 3140TIP3    H2 9343   7.572   2.747   2.692 -0.6417  0.3049  0.0502
 3141TIP3   OH2 9344   7.657   4.347   3.820  0.0087 -0.5408 -0.2494
 3141TIP3    H1 9345   7.687   4.394   3.742  0.4048 -1.8378 -0.8837
 3141TIP3    H2 9346   7.702   4.390   3.893 -1.5575  1.7236 -0.5339
 3142TIP3   OH2 9347   6.016   2.694   3.281 -0.2726 -0.3176  0.2556
 3142TIP3    H1 9348   5.962   2.692   3.201 -0.7489  1.5289  0.5134
 3142TIP3    H2 9349   6.105   2.709   3.249 -0.7140  2.3040  0.1482
 3143TIP3   OH2 9350   7.981   3.008   0.605  0.5977  0.1502 -0.2388
 3143TIP3    H1 9351   8.021   2.980   0.523 -1.5169 -1.0775 -0.8850
 3143TIP3    H2 9352   7.962   3.101   0.591  1.8175  0.3727 -0.4820
 3144TIP3   OH2 9353   8.040   3.647   2.589  0.0444 -0.1602  0.5864
 3144TIP3    H1 9354   8.135   3.664   2.587 -0.0364  0.1948 -0.3023
 3144TIP3    H2 9355   8.021   3.635   2.682  1.2631 -1.9704  0.6363
 3145TIP3   OH2 9356   0.623   3.076   1.328  0.4618 -0.0438  0.2071
 3145TIP3    H1 9357   0.599   3.163   1.360 -1.8090 -1.1238  1.5822
 3145TIP3    H2 9358   0.717   3.081   1.313  0.5403  2.3437  1.2699
 3146TIP3   OH2 9359   6.382   0.999   2.159 -0.0819  0.4404  0.6592
 3146TIP3    H1 9360   6.420   1.052   2.089 -0.4996  0.2150  0.2588
 3146TIP3    H2 9361   6.392   0.909   2.130  1.6779  0.2252  1.8777
 3147TIP3   OH2 9362   7.490   2.013   2.306 -0.2304 -0.2873 -0.0123
 3147TIP3    H1 9363   7.547   1.985   2.377  0.6932 -2.0305 -1.3837
 3147TIP3    H2 9364   7.482   2.107   2.316  1.8993 -0.1942  0.9353
 3148TIP3   OH2 9365   8.829   3.336   2.303  0.2156 -0.5849  0.1411
 3148TIP3    H1 9366   8.757   3.393   2.332  0.2896  0.4005 -1.5558
 3148TIP3    H2 9367   8.886   3.393   2.252  1.2189 -1.7973 -0.1175
 3149TIP3   OH2 9368   7.259   2.450   2.252  0.3851  0.3384  0.8970
 3149TIP3    H1 9369   7.270   2.544   2.242 -1.1607  0.5517  1.0688
 3149TIP3    H2 9370   7.249   2.417   2.162  0.0203  0.4713  0.8854
 3150TIP3   OH2 9371   4.578   2.378   4.805 -0.5535 -0.1660  0.4015
 3150TIP3    H1 9372   4.666   2.360   4.837 -0.9437 -1.6689  0.6515
 3150TIP3    H2 9373   4.547   2.450   4.860  0.5236  0.4250  0.2609
 3151TIP3   OH2 9374   5.810   1.438   0.801 -0.3178  0.1286  0.2364
 3151TIP3    H1 9375   5.845   1.401   0.882 -0.3622  0.4753  0.4159
 3151TIP3    H2 9376   5.716   1.426   0.807 -0.2458 -0.6691 -0.1787
 3152TIP3   OH2 9377   8.340   4.029   2.682  0.6077  0.0907 -0.3024
 3152TIP3    H1 9378   8.306   4.117   2.701 -0.6854 -0.2718 -0.8357
 3152TIP3    H2 9379   8.431   4.031   2.712  0.1904  1.1854  0.9589
 3153TIP3   OH2 9380   8.763   1.293   4.432 -0.3329 -0.5668  0.3525
 3153TIP3    H1 9381   8.672   1.275   4.455  0.0020 -1.8793  0.6761
 3153TIP3    H2 9382   8.782   1.377   4.473 -1.8990  0.5292 -1.1143
 3154TIP3   OH2 9383   0.082   4.862   1.399 -0.7165  0.2189 -0.7780
 3154TIP3    H1 9384   0.158   4.887   1.451 -0.8977 -0.0611 -0.3741
 3154TIP3    H2 9385   0.030   4.806   1.457  0.3023 -2.1535 -2.0522
 3155TIP3   OH2 9386   8.694   2.897   1.024 -0.1052 -0.2047 -0.5280
 3155TIP3    H1 9387   8.737   2.931   0.946 -0.1730  0.7827 -0.1429
 3155TIP3    H2 9388   8.633   2.966   1.050  0.6189 -0.1084  0.9564
 3156TIP3   OH2 9389   7.896   2.574   0.429 -0.2018 -0.5940  0.1545
 3156TIP3    H1 9390   7.916   2.481   0.434  1.0872 -0.2990  0.6217
 3156TIP3    H2 9391   7.956   2.615   0.491 -0.4742  0.5986 -0.3542
 3157TIP3   OH2 9392   6.352   0.224   2.558 -0.2615 -0.1311  0.1221
 3157TIP3    H1 9393   6.358   0.195   2.467  1.7738 -1.1072  0.5316
 3157TIP3    H2 9394   6.298   0.303   2.554 -1.1367 -0.7880 -1.7699
 3158TIP3   OH2 9395   5.368   2.607   0.336  0.1312  0.2914  0.1676
 3158TIP3    H1 9396   5.280   2.572   0.352 -0.6085  2.2030  0.3859
 3158TIP3    H2 9397   5.357   2.702   0.339  2.5030  0.5646  1.8252
 3159TIP3   OH2 9398   8.256   4.015   1.077 -0.5314 -0.2362  0.4225
 3159TIP3    H1 9399   8.238   3.929   1.114 -1.5504 -0.9559 -1.6646
 3159TIP3    H2 9400   8.221   4.011   0.988 -0.6074  2.3381  0.2871
 3160TIP3   OH2 9401   7.671   3.867   1.462 -0.2745 -0.2238 -0.4443
 3160TIP3    H1 9402   7.618   3.834   1.535  0.0932  0.1606  0.0009
 3160TIP3    H2 9403   7.710   3.788   1.423  1.6412 -0.2672  1.4314
 3161TIP3   OH2 9404   8.077   2.216   1.629  0.5322 -0.1144  0.3220
 3161TIP3    H1 9405   8.056   2.132   1.589 -0.8230  0.3797 -0.0112
 3161TIP3    H2 9406   8.002   2.272   1.610  1.6852  1.3655  0.0176
 3162TIP3   OH2 9407   7.830   1.742   0.430 -0.6770  0.1944  0.6108
 3162TIP3    H1 9408   7.834   1.740   0.525  0.6585 -1.8609  0.5400
 3162TIP3    H2 9409   7.761   1.681   0.406  0.4753 -0.9894  0.2196
 3163TIP3   OH2 9410   6.623   2.463   1.931  0.4195  0.2449  0.1489
 3163TIP3    H1 9411   6.638   2.372   1.957 -0.5777  0.3357  1.1063
 3163TIP3    H2 9412   6.710   2.500   1.922  0.8237  0.1918  3.3768
 3164TIP3   OH2 9413   8.108   2.990   1.801  0.2174  0.2119  0.1358
 3164TIP3    H1 9414   8.055   3.026   1.729 -1.0519  0.5754  1.2332
 3164TIP3    H2 9415   8.107   3.059   1.868  0.7301 -0.4442  0.8273
 3165TIP3   OH2 9416   7.214   1.350   3.208 -0.2518 -0.0402  0.4076
 3165TIP3    H1 9417   7.166   1.290   3.265 -1.7150 -0.1107 -0.8750
 3165TIP3    H2 9418   7.301   1.355   3.247 -1.4755  0.6243  3.1580
 3166TIP3   OH2 9419   8.860   2.427   0.780 -1.2448  0.7565 -0.1716
 3166TIP3    H1 9420   8.793   2.468   0.726 -2.4017  0.8605  1.3200
 3166TIP3    H2 9421   8.822   2.425   0.868 -0.0941 -1.0356  0.2952
 3167TIP3   OH2 9422   5.140   0.770   3.498 -0.5223 -0.2457  0.1247
 3167TIP3    H1 9423   5.125   0.865   3.504 -0.7997 -0.3532  1.1691
 3167TIP3    H2 9424   5.068   0.738   3.445 -0.8778  0.0212  0.4382
 3168TIP3   OH2 9425   5.468   1.952   3.410 -0.0797 -0.1974  0.1467
 3168TIP3    H1 9426   5.527   1.957   3.335  0.2079  0.5601  0.4196
 3168TIP3    H2 9427   5.467   2.041   3.446 -1.8310 -0.0590 -0.1952
 3169TIP3   OH2 9428   5.415   1.434   3.260  0.0746  0.7599  0.1350
 3169TIP3    H1 9429   5.408   1.482   3.177  0.5665 -0.4532 -0.6181
 3169TIP3    H2 9430   5.503   1.453   3.291  0.8960 -1.0302 -1.0386
 3170TIP3   OH2 9431   7.933   2.129   3.222  0.5566  0.3304 -0.2856
 3170TIP3    H1 9432   7.967   2.073   3.152  0.8629  0.4167 -0.2054
 3170TIP3    H2 9433   7.838   2.130   3.208  0.3519 -1.6245  0.7376
 3171TIP3   OH2 9434   8.532   4.743   1.580 -0.3845 -0.1996 -0.5280
 3171TIP3    H1 9435   8.477   4.713   1.507 -0.2153 -0.0289 -0.7234
 3171TIP3    H2 9436   8.484   4.715   1.658 -0.5805 -0.3572 -0.7026
 3172TIP3   OH2 9437   7.616   3.579   0.314  0.5413  0.3022  0.3344
 3172TIP3    H1 9438   7.566   3.606   0.236  0.4599  0.7808  0.5510
 3172TIP3    H2 9439   7.552   3.533   0.368  0.1999  1.3449  0.8382
 3173TIP3   OH2 9440   2.254   7.750   6.384 -0.0323 -0.2402 -0.2823
 3173TIP3    H1 9441   2.185   7.763   6.319 -0.2961  1.6998  0.3598
 3173TIP3    H2 9442   2.209   7.763   6.468  1.0146  0.5567  0.1582
 3174TIP3   OH2 9443   0.516   3.693   0.648 -1.0409 -0.0419 -0.1836
 3174TIP3    H1 9444   0.600   3.738   0.642 -1.4605  0.5300 -1.9126
 3174TIP3    H2 9445   0.509   3.669   0.741  1.8521 -1.7495 -0.3431
 3175TIP3   OH2 9446   0.457   3.836   3.836  0.3213 -0.6072  0.2081
 3175TIP3    H1 9447   0.372   3.825   3.793  1.0322 -1.5200 -1.0208
 3175TIP3    H2 9448   0.487   3.922   3.808  0.1612 -0.6269 -0.0263
 3176TIP3   OH2 9449   6.031   2.105   3.418  0.2419 -0.1067  0.0617
 3176TIP3    H1 9450   5.968   2.169   3.449  1.5388  1.3318 -0.2349
 3176TIP3    H2 9451   6.034   2.039   3.487 -1.8248 -0.3699 -0.0814
 3177TIP3   OH2 9452   6.878   2.262   2.078  0.0244  0.1196  0.3733
 3177TIP3    H1 9453   6.908   2.305   1.998 -0.9318 -0.3794 -0.2544
 3177TIP3    H2 9454   6.959   2.229   2.118  0.6079  1.1894  0.1107
 3178TIP3   OH2 9455   5.169   1.420   1.796  0.2345  0.0734  0.7942
 3178TIP3    H1 9456   5.161   1.420   1.891 -0.2077  0.6300  0.7636
 3178TIP3    H2 9457   5.255   1.460   1.779  0.5532 -0.5279  0.9697
 3179TIP3   OH2 9458   6.155   1.873   2.632 -0.8405  0.1744 -0.1814
 3179TIP3    H1 9459   6.233   1.906   2.588 -0.4868 -1.0943 -0.5451
 3179TIP3    H2 9460   6.185   1.845   2.718 -1.0673  0.5012  0.0047
 3180TIP3   OH2 9461   5.975   0.956   0.352  0.2846  0.5501  0.4900
 3180TIP3    H1 9462   5.927   0.880   0.318  1.3948 -0.9879  2.2120
 3180TIP3    H2 9463   5.976   1.019   0.280 -2.1867 -0.3579 -0.3800
 3181TIP3   OH2 9464   8.491   2.880   1.610 -0.4066  0.2864  0.0080
 3181TIP3    H1 9465   8.506   2.936   1.534  0.9397  0.1119  0.1390
 3181TIP3    H2 9466   8.475   2.942   1.682 -3.4400  0.4439 -0.7299
 3182TIP3   OH2 9467   7.203   3.061   2.185  0.5268  0.2399 -0.2935
 3182TIP3    H1 9468   7.191   3.107   2.268 -0.5167 -2.7141  1.2743
 3182TIP3    H2 9469   7.292   3.026   2.189  1.2095  1.8154 -1.3451
 3183TIP3   OH2 9470   0.430   2.908   1.378 -0.2860  0.0128 -0.3016
 3183TIP3    H1 9471   0.497   2.958   1.332 -1.2253  0.7988 -0.8519
 3183TIP3    H2 9472   0.349   2.957   1.362 -1.2394 -1.7204 -0.9124
 3184TIP3   OH2 9473   5.293   2.862   2.555  0.1908  0.2895 -0.0219
 3184TIP3    H1 9474   5.321   2.779   2.516  0.4013  0.7330 -0.8205
 3184TIP3    H2 9475   5.197   2.857   2.555  0.1513  0.8902 -1.9286
 3185TIP3   OH2 9476   7.050   0.479   2.335 -0.3866  0.3523  0.0359
 3185TIP3    H1 9477   7.104   0.449   2.262 -0.1080  0.0549  0.3647
 3185TIP3    H2 9478   7.065   0.573   2.339  1.0018  0.1179  0.8455
 3186TIP3   OH2 9479   4.652   0.351   7.237 -0.2657 -0.2448  0.4619
 3186TIP3    H1 9480   4.742   0.329   7.261 -0.5565 -1.4823  0.4770
 3186TIP3    H2 9481   4.598   0.298   7.296 -0.9896 -0.5882 -0.4944
 3187TIP3   OH2 9482   7.028   3.173   3.592 -0.4575 -0.2230  0.0652
 3187TIP3    H1 9483   6.962   3.234   3.558  0.0872 -0.3677 -1.2468
 3187TIP3    H2 9484   7.027   3.189   3.687 -0.5701  1.5923 -0.2158
 3188TIP3   OH2 9485   7.311   3.190   1.418 -0.2545  0.0286  0.2703
 3188TIP3    H1 9486   7.302   3.126   1.348  1.6611  0.4397 -0.3818
 3188TIP3    H2 9487   7.316   3.137   1.498 -0.9296 -0.5061 -0.0321
 3189TIP3   OH2 9488   8.454   1.359   1.650 -0.3232 -0.1065  0.2191
 3189TIP3    H1 9489   8.544   1.365   1.620  0.0145 -1.2917  0.9689
 3189TIP3    H2 9490   8.447   1.424   1.720 -0.6675  1.5174 -1.2903
 3190TIP3   OH2 9491   6.507   3.039   1.582 -0.0485  0.3603 -0.0094
 3190TIP3    H1 9492   6.519   3.082   1.497  0.1216 -1.0028 -0.6838
 3190TIP3    H2 9493   6.417   3.059   1.606  0.2242  1.6479  0.0105
 3191TIP3   OH2 9494   0.649   1.967   2.375  0.4455 -0.6448 -0.4664
 3191TIP3    H1 9495   0.644   1.874   2.353  1.6193 -0.8847  0.2526
 3191TIP3    H2 9496   0.720   1.973   2.439  0.6015  0.7989 -0.7608
 3192TIP3   OH2 9497   6.375   1.287   1.369 -0.1617  0.4166  0.1087
 3192TIP3    H1 9498   6.406   1.377   1.365 -0.4121  0.5977  2.0232
 3192TIP3    H2 9499   6.401   1.256   1.456 -0.8128 -1.0897 -0.2132
 3193TIP3   OH2 9500   7.788   3.445   1.541 -0.1422  0.1667  0.8264
 3193TIP3    H1 9501   7.727   3.495   1.486 -0.2913  0.5456  1.3392
 3193TIP3    H2 9502   7.798   3.361   1.495  0.6426  0.9034 -0.4084
 3194TIP3   OH2 9503   7.467   4.636   3.616 -0.5444  0.1804  0.6561
 3194TIP3    H1 9504   7.525   4.688   3.671 -1.4004  0.0513  1.6990
 3194TIP3    H2 9505   7.513   4.628   3.532  1.4060 -0.7938  1.7987
 3195TIP3   OH2 9506   8.315   2.579   2.406  0.5456 -0.1147 -0.2508
 3195TIP3    H1 9507   8.368   2.500   2.414 -0.3706 -0.6421  0.7767
 3195TIP3    H2 9508   8.225   2.548   2.416 -0.0790  0.5570 -3.3091
 3196TIP3   OH2 9509   7.809   0.636   2.215  0.1625  0.0661 -0.6122
 3196TIP3    H1 9510   7.812   0.732   2.207 -0.5816  0.2551  1.1647
 3196TIP3    H2 9511   7.863   0.605   2.143 -1.7776  1.7460 -2.9064
 3197TIP3   OH2 9512  -0.008   0.789   4.486  0.0892  0.8586  0.0638
 3197TIP3    H1 9513   0.079   0.764   4.456  0.1624  0.4280  0.6216
 3197TIP3    H2 9514  -0.055   0.706   4.496 -0.9969  1.1813 -2.0586
 3198TIP3   OH2 9515   0.397   2.131   1.747 -0.2255 -0.6613  0.3318
 3198TIP3    H1 9516   0.304   2.136   1.768  0.3950  3.5395  2.6262
 3198TIP3    H2 9517   0.400   2.137   1.651 -2.2634  1.3380  0.3492
 3199TIP3   OH2 9518   8.060   3.640   0.980 -0.0345  0.1663 -0.2717
 3199TIP3    H1 9519   7.991   3.586   0.943 -1.2080  1.0974  0.5283
 3199TIP3    H2 9520   8.054   3.724   0.934 -0.4991  0.7999  0.9017
 3200TIP3   OH2 9521   7.386   1.266   0.338 -0.3321 -0.1309  0.2301
 3200TIP3    H1 9522   7.365   1.357   0.358  0.3749 -0.4066  2.2746
 3200TIP3    H2 9523   7.301   1.225   0.320 -0.6542  0.8939 -0.6462
 3201TIP3   OH2 9524   0.557   5.694   7.176  0.0578  0.1147 -0.0886
 3201TIP3    H1 9525   0.551   5.785   7.149 -1.1786 -0.4206 -1.6692
 3201TIP3    H2 9526   0.639   5.663   7.136  0.2864  0.4227  0.1377
 3202TIP3   OH2 9527   6.422   3.146   4.327 -0.1112 -0.2140 -0.7162
 3202TIP3    H1 9528   6.347   3.087   4.326 -0.6279  0.4356 -1.2202
 3202TIP3    H2 9529   6.395   3.220   4.273  1.7334 -0.9790 -2.7639
 3203TIP3   OH2 9530   0.300   1.950   0.634 -0.3115  0.1870 -0.2188
 3203TIP3    H1 9531   0.324   1.864   0.670  0.4796  1.2284  1.7573
 3203TIP3    H2 9532   0.224   1.977   0.685  1.2942  2.0241  1.2477
 3204TIP3   OH2 9533   8.613   2.989   0.634  0.1805 -0.2765 -0.3704
 3204TIP3    H1 9534   8.692   2.947   0.667 -0.7210  0.2921  2.6477
 3204TIP3    H2 9535   8.597   2.947   0.550  3.8583 -0.1613 -1.2008
 3205TIP3   OH2 9536   8.331   2.270   0.758 -0.0425 -0.1406 -0.6395
 3205TIP3    H1 9537   8.358   2.359   0.736 -1.4459  0.3394 -0.4972
 3205TIP3    H2 9538   8.346   2.219   0.678 -1.1021  0.6646 -1.3660
 3206TIP3   OH2 9539   7.880   2.970   1.291 -0.0269 -0.5721 -0.3283
 3206TIP3    H1 9540   7.923   2.953   1.207  1.2147 -2.2131  0.6037
 3206TIP3    H2 9541   7.940   3.029   1.337 -0.0405 -0.7572 -0.0699
 3207TIP3   OH2 9542   4.338   5.006   2.366 -0.5773  0.1741 -0.0319
 3207TIP3    H1 9543   4.434   5.009   2.367 -0.5847  0.1778  1.5402
 3207TIP3    H2 9544   4.317   4.913   2.374 -0.7088  0.2699  0.7498
 3208TIP3   OH2 9545   7.240   0.387   2.122  0.3710 -0.1127  0.3063
 3208TIP3    H1 9546   7.168   0.387   2.059 -0.1274  1.4337  0.8447
 3208TIP3    H2 9547   7.316   0.414   2.072  0.3983 -0.8362 -0.0574
 3209TIP3   OH2 9548   6.996   1.681   0.882  0.0331  0.4760 -0.3047
 3209TIP3    H1 9549   7.030   1.596   0.855  1.2792  0.2558  1.8982
 3209TIP3    H2 9550   7.055   1.745   0.841 -1.1720  0.3381 -2.3337
 3210TIP3   OH2 9551   0.815   2.445   0.480 -0.1243  0.3214 -0.1714
 3210TIP3    H1 9552   0.758   2.504   0.431  1.5268  1.1719 -1.0915
 3210TIP3    H2 9553   0.757   2.375   0.510 -1.7778  1.5243 -0.4999
 3211TIP3   OH2 9554   6.631   0.361   3.945 -0.3612  0.3694 -0.2420
 3211TIP3    H1 9555   6.727   0.369   3.951 -0.2470 -0.2749 -1.1644
 3211TIP3    H2 9556   6.607   0.412   3.868 -0.4885 -1.5193 -1.4665
 3212TIP3   OH2 9557   7.888   3.122   1.756 -0.3745  0.0161 -0.3781
 3212TIP3    H1 9558   7.813   3.108   1.698 -0.5123  0.0726 -0.2130
 3212TIP3    H2 9559   7.889   3.216   1.772 -0.8630 -0.1088  0.4153
 3213TIP3   OH2 9560   0.060   3.455   1.977  0.0440  1.0372 -0.1691
 3213TIP3    H1 9561   0.086   3.492   1.893  0.2766  0.0445 -0.5436
 3213TIP3    H2 9562   0.124   3.490   2.040 -0.3674  2.0861 -0.3377
 3214TIP3   OH2 9563   5.024   1.811   0.206  0.1704  0.1867  0.5567
 3214TIP3    H1 9564   4.956   1.873   0.229  0.4097  0.7373 -0.1830
 3214TIP3    H2 9565   5.106   1.857   0.225  0.3690  0.5505 -1.0722
 3215TIP3   OH2 9566   8.000   0.341   2.831  0.3547  0.2439 -0.8662
 3215TIP3    H1 9567   8.036   0.254   2.847  1.0751  0.4329 -1.4172
 3215TIP3    H2 9568   8.020   0.391   2.911 -0.6198 -0.2664 -0.2923
 3216TIP3   OH2 9569   7.532   2.160   0.206  0.6695  0.6099  0.1657
 3216TIP3    H1 9570   7.492   2.230   0.258  1.7257  1.4723 -0.1566
 3216TIP3    H2 9571   7.472   2.148   0.132 -0.2007  0.2464  0.9301
 3217TIP3   OH2 9572   2.753   6.892   6.414  0.0810  0.2015  0.0405
 3217TIP3    H1 9573   2.777   6.953   6.344 -0.0575  1.7637  1.3272
 3217TIP3    H2 9574   2.702   6.823   6.370 -2.2693  2.5269 -1.0103
 3218TIP3   OH2 9575   8.132   3.054   2.681  0.3905  0.0384 -0.0028
 3218TIP3    H1 9576   8.190   2.981   2.657  0.8812 -0.0836  1.4875
 3218TIP3    H2 9577   8.192   3.123   2.709 -0.0312  1.3464 -2.1939
 3219TIP3   OH2 9578   7.670   2.505   0.707 -0.3306 -0.4881 -0.5487
 3219TIP3    H1 9579   7.592   2.449   0.705 -1.7054  1.3153  0.8259
 3219TIP3    H2 9580   7.645   2.583   0.657  1.0058 -0.3761 -1.0746
 3220TIP3   OH2 9581   8.858   2.400   2.728 -0.2457  0.0758 -0.3666
 3220TIP3    H1 9582   8.949   2.421   2.752 -0.1543  0.7300 -1.2413
 3220TIP3    H2 9583   8.837   2.322   2.778  0.4668  0.5026  0.6182
 3221TIP3   OH2 9584   5.970   2.814   2.196  0.1012 -0.3944  0.1964
 3221TIP3    H1 9585   5.892   2.758   2.201  0.9232 -1.4244  1.9993
 3221TIP3    H2 9586   6.000   2.822   2.286  3.3149 -1.8170 -0.6596
 3222TIP3   OH2 9587   7.285   8.236   2.207  0.5155 -0.5834  0.3098
 3222TIP3    H1 9588   7.329   8.321   2.194  1.9493 -1.6023 -1.7098
 3222TIP3    H2 9589   7.269   8.232   2.301  0.4134  1.9397  0.4372
 3223TIP3   OH2 9590   2.028   5.615   7.161 -0.2972  0.5756 -0.3011
 3223TIP3    H1 9591   1.939   5.642   7.139 -0.4685  0.3120  0.0631
 3223TIP3    H2 9592   2.027   5.519   7.153  0.3192  0.6720 -1.6478
 3224TIP3   OH2 9593   2.314   7.431   0.956  0.3382 -0.5310 -0.5438
 3224TIP3    H1 9594   2.332   7.392   1.042 -0.3933 -1.9564 -1.0252
 3224TIP3    H2 9595   2.360   7.515   0.958 -1.1826  0.2913  1.9470
 3225TIP3   OH2 9596   8.325   4.302   2.270 -0.2466 -0.3022  0.4975
 3225TIP3    H1 9597   8.390   4.351   2.322 -0.5796  0.4359  0.2302
 3225TIP3    H2 9598   8.320   4.217   2.313 -0.7890  0.4256  1.9254
 3226TIP3   OH2 9599   6.401   1.757   1.724  0.5173  0.3361  0.0805
 3226TIP3    H1 9600   6.484   1.720   1.695  1.0639  1.4362  0.2207
 3226TIP3    H2 9601   6.383   1.826   1.661 -1.3844 -1.3022 -1.2313
 3227TIP3   OH2 9602   8.777   5.914   0.959 -0.1672 -0.0021 -0.0200
 3227TIP3    H1 9603   8.726   5.916   1.040 -2.7425 -0.4550 -1.5644
 3227TIP3    H2 9604   8.844   5.982   0.971 -1.6447  1.1897  1.7384
 3228TIP3   OH2 9605   8.574   1.859   2.090  0.5295 -0.3095  0.5257
 3228TIP3    H1 9606   8.609   1.808   2.163  1.4521  0.2289  0.4634
 3228TIP3    H2 9607   8.645   1.859   2.025 -0.0915 -0.3578 -0.1668
 3229TIP3   OH2 9608   6.827   2.409   2.308  0.3015  0.1959 -0.0475
 3229TIP3    H1 9609   6.778   2.344   2.258  0.8456  0.9760 -1.6385
 3229TIP3    H2 9610   6.908   2.422   2.258  2.7643 -2.0028  3.1681
 3230TIP3   OH2 9611   7.335   0.863   1.700 -0.1024 -0.2411  0.0428
 3230TIP3    H1 9612   7.283   0.860   1.620  0.5197  1.5362 -0.4437
 3230TIP3    H2 9613   7.425   0.879   1.671  0.3110 -0.7093  1.0270
 3231TIP3   OH2 9614   0.510   2.890   1.972 -0.0255 -0.0206  0.0985
 3231TIP3    H1 9615   0.454   2.813   1.957  0.1780 -0.1182 -0.1726
 3231TIP3    H2 9616   0.593   2.853   2.002 -0.0284  0.1101  0.2634
 3232TIP3   OH2 9617   7.685   4.321   2.409  0.1870  0.0696  0.3323
 3232TIP3    H1 9618   7.649   4.233   2.415  0.2081  0.1679  1.9287
 3232TIP3    H2 9619   7.684   4.341   2.315 -0.6284 -1.2800  0.0500
 3233TIP3   OH2 9620   8.716   2.856   2.211  0.0297  0.1253 -0.0589
 3233TIP3    H1 9621   8.635   2.808   2.194 -0.2096  1.1371 -1.8860
 3233TIP3    H2 9622   8.752   2.874   2.125  0.1741  3.1204  0.5740
 3234TIP3   OH2 9623   6.688   2.750   0.448 -0.1787 -0.1456  0.5065
 3234TIP3    H1 9624   6.734   2.736   0.365 -0.1132  0.9617  0.3544
 3234TIP3    H2 9625   6.678   2.662   0.484  0.2952 -0.5853 -0.4048
 3235TIP3   OH2 9626   8.635   2.526   0.671 -0.3696 -0.0920 -0.4361
 3235TIP3    H1 9627   8.576   2.586   0.717 -1.3165 -1.5472  0.2888
 3235TIP3    H2 9628   8.590   2.508   0.589  0.3519  0.8986 -1.0536
 3236TIP3   OH2 9629   6.877   3.152   3.260  0.0754  0.0816 -0.4704
 3236TIP3    H1 9630   6.957   3.102   3.244  0.4716  0.6991 -0.4154
 3236TIP3    H2 9631   6.830   3.149   3.176  0.8184  0.9045 -0.9307
 3237TIP3   OH2 9632   0.761   1.874   0.467 -0.8386 -0.7680  0.5879
 3237TIP3    H1 9633   0.809   1.863   0.549  0.5660 -1.8475 -0.3650
 3237TIP3    H2 9634   0.732   1.966   0.469  1.9573  0.1619  0.8254
 3238TIP3   OH2 9635   8.221   3.896   0.402 -0.2227 -0.3426  0.3225
 3238TIP3    H1 9636   8.244   3.875   0.492 -1.2569 -1.6707  0.2909
 3238TIP3    H2 9637   8.298   3.872   0.351  0.8346  1.5680  0.9745
 3239TIP3   OH2 9638   8.099   4.370   4.553 -0.4626 -0.1269  0.3132
 3239TIP3    H1 9639   8.123   4.433   4.486 -0.7633  0.6186  0.8965
 3239TIP3    H2 9640   8.058   4.298   4.505  0.7878 -0.3384 -0.4555
 3240TIP3   OH2 9641   5.837   1.734   0.801 -0.4359 -0.2377  0.0078
 3240TIP3    H1 9642   5.840   1.640   0.819 -0.1703 -0.1735  0.3158
 3240TIP3    H2 9643   5.862   1.742   0.709 -0.4732 -0.4689 -0.0231
 3241TIP3   OH2 9644   5.953   1.633   3.624  0.1521 -0.5475 -0.0097
 3241TIP3    H1 9645   5.877   1.619   3.681 -0.4003  3.9765  0.5064
 3241TIP3    H2 9646   5.925   1.599   3.539 -0.5353 -3.5471  1.3425
 3242TIP3   OH2 9647   7.639   2.564   0.327 -0.1239 -0.1745 -0.0374
 3242TIP3    H1 9648   7.658   2.551   0.235 -1.3783  0.3214 -0.3791
 3242TIP3    H2 9649   7.723   2.556   0.371  0.4189 -0.7798 -1.1818
 3243TIP3   OH2 9650   8.341   2.433   3.269 -0.2927  0.3203  0.2079
 3243TIP3    H1 9651   8.271   2.496   3.253 -0.0736  0.5173  0.0296
 3243TIP3    H2 9652   8.306   2.375   3.337 -0.3404  0.8757  0.6606
 3244TIP3   OH2 9653   7.650   5.459   3.553 -0.3949 -0.0387 -1.1112
 3244TIP3    H1 9654   7.742   5.433   3.539  0.2091  0.6751  1.3347
 3244TIP3    H2 9655   7.617   5.397   3.618 -0.1669  2.5862  1.6322
 3245TIP3   OH2 9656   8.533   3.890   3.537  0.0119 -0.0425  0.1792
 3245TIP3    H1 9657   8.566   3.802   3.553 -1.8237 -0.8672 -0.3643
 3245TIP3    H2 9658   8.610   3.942   3.514  0.7610 -2.2695 -2.6783
 3246TIP3   OH2 9659   7.858   4.371   1.890  0.1958 -0.7560 -0.3481
 3246TIP3    H1 9660   7.802   4.370   1.812  2.3688 -1.2880 -1.9551
 3246TIP3    H2 9661   7.919   4.443   1.874  0.8801 -1.0923  0.7232
 3247TIP3   OH2 9662   7.628   4.116   2.997 -0.4897  0.1216 -0.6953
 3247TIP3    H1 9663   7.664   4.165   3.071 -0.5889  0.1045 -0.6355
 3247TIP3    H2 9664   7.692   4.128   2.927 -1.2033  1.5098 -1.1200
 3248TIP3   OH2 9665   4.627   1.285   4.742  0.4288  0.5732  0.0425
 3248TIP3    H1 9666   4.623   1.304   4.648  0.0275  1.6918  0.2787
 3248TIP3    H2 9667   4.709   1.236   4.754  1.0034  1.3505 -0.7228
 3249TIP3   OH2 9668   6.478   3.046   2.665  0.0122  0.7493 -0.4133
 3249TIP3    H1 9669   6.419   3.048   2.590 -1.4331 -1.1296  0.6236
 3249TIP3    H2 9670   6.466   3.131   2.708 -0.6231  1.0541 -1.1900
 3250TIP3   OH2 9671   0.265   0.538   3.287  0.0441  0.1992 -0.7082
 3250TIP3    H1 9672   0.322   0.463   3.267  0.0649 -0.0441  0.2491
 3250TIP3    H2 9673   0.286   0.603   3.219 -0.8894 -1.1374 -2.3078
 3251TIP3   OH2 9674   7.629   4.016   1.876  0.6255  0.1255 -0.0285
 3251TIP3    H1 9675   7.645   4.081   1.808  0.3609 -1.0068 -1.1852
 3251TIP3    H2 9676   7.536   3.994   1.868  0.4818  0.3200  1.0001
 3252TIP3   OH2 9677   6.504   2.257   3.658  0.0798 -0.2470 -0.0185
 3252TIP3    H1 9678   6.545   2.311   3.591  1.6676 -2.4656 -0.8672
 3252TIP3    H2 9679   6.439   2.204   3.611 -1.0885  0.4983  0.7220
 3253TIP3   OH2 9680   5.037   8.363   2.096  0.3133 -0.2677  0.1205
 3253TIP3    H1 9681   5.127   8.358   2.065  0.3760  0.4687  0.1915
 3253TIP3    H2 9682   5.042   8.411   2.178 -0.4209  1.7520 -0.9937
 3254TIP3   OH2 9683   8.353   1.827   1.098 -0.1381 -0.3184  0.3079
 3254TIP3    H1 9684   8.271   1.788   1.128  0.1540  1.0012  2.9008
 3254TIP3    H2 9685   8.418   1.758   1.111 -0.3887 -0.4875  0.6773
 3255TIP3   OH2 9686   8.723   3.245   2.040 -0.0078 -0.7656  0.1428
 3255TIP3    H1 9687   8.740   3.261   2.133 -2.6694  1.2920  0.3299
 3255TIP3    H2 9688   8.783   3.303   1.994  1.3124 -1.7840  0.5434
 3256TIP3   OH2 9689   6.687   1.779   1.460  0.0954  0.7050  0.0557
 3256TIP3    H1 9690   6.664   1.786   1.552 -0.2889  0.4007 -0.0159
 3256TIP3    H2 9691   6.781   1.759   1.460 -0.1937 -0.7282  0.4308
 3257TIP3   OH2 9692   4.940   0.241   4.161 -0.3950 -0.2939  0.2771
 3257TIP3    H1 9693   4.903   0.162   4.122  2.4084 -0.8973 -1.3322
 3257TIP3    H2 9694   4.958   0.216   4.252  1.2302 -1.8457 -0.4223
 3258TIP3   OH2 9695   5.879   2.715   2.590 -1.1198 -0.2287  0.5987
 3258TIP3    H1 9696   5.906   2.770   2.664 -0.4209 -0.2686  0.3747
 3258TIP3    H2 9697   5.845   2.635   2.631  0.4081 -0.7616  0.8465
 3259TIP3   OH2 9698   5.499   2.705   2.225  0.2565  0.0611 -0.0431
 3259TIP3    H1 9699   5.551   2.704   2.144  0.0913 -0.2806 -0.1473
 3259TIP3    H2 9700   5.410   2.687   2.196 -0.0635  1.4672  0.0428
 3260TIP3   OH2 9701   4.999   1.375   2.817  0.4858  0.0926  0.3200
 3260TIP3    H1 9702   5.002   1.410   2.906 -0.0713  1.0866 -0.0467
 3260TIP3    H2 9703   4.931   1.307   2.820 -0.8482  1.4068  0.2073
 3261TIP3   OH2 9704   4.575   2.928   2.131  0.3126  0.3574 -0.1851
 3261TIP3    H1 9705   4.583   2.886   2.045 -0.6863 -2.4171  1.0187
 3261TIP3    H2 9706   4.654   2.901   2.178  0.1932  0.7402  0.2344
 3262TIP3   OH2 9707   5.131   1.500   0.378  0.3032 -0.2452  0.1794
 3262TIP3    H1 9708   5.218   1.536   0.397  0.1649 -0.5954  1.4666
 3262TIP3    H2 9709   5.073   1.541   0.440 -0.2297 -1.0347  0.2131
 3263TIP3   OH2 9710   4.403   1.141   6.173 -0.1219 -0.3223 -0.3568
 3263TIP3    H1 9711   4.361   1.152   6.259  0.0581 -0.7874 -0.2037
 3263TIP3    H2 9712   4.461   1.066   6.185 -1.3602 -1.4580 -1.3687
 3264TIP3   OH2 9713   0.151   0.199   2.961 -0.6559  0.1743 -0.3938
 3264TIP3    H1 9714   0.063   0.179   2.992 -0.2305  0.5846  1.1056
 3264TIP3    H2 9715   0.204   0.203   3.040  0.2539  2.2388 -1.0942
 3265TIP3   OH2 9716   7.101   3.751   4.057 -0.2909  0.1371 -0.8984
 3265TIP3    H1 9717   7.182   3.796   4.031 -0.2823  0.9665  0.4803
 3265TIP3    H2 9718   7.065   3.806   4.127 -3.2692  1.0517 -3.0576
 3266TIP3   OH2 9719   8.852   2.988   1.993  0.1253 -0.2520  0.5423
 3266TIP3    H1 9720   8.840   3.083   1.999  1.6252 -0.0202  0.1608
 3266TIP3    H2 9721   8.786   2.959   1.929  1.3643  0.9091 -1.3081
 3267TIP3   OH2 9722   6.656   2.828   1.524  0.0887  0.1940 -0.2978
 3267TIP3    H1 9723   6.622   2.906   1.569 -0.3102 -1.3969  2.2527
 3267TIP3    H2 9724   6.731   2.861   1.474  1.1432  1.9050  2.3003
 3268TIP3   OH2 9725   8.536   3.194   1.143  0.0953 -0.8432  0.2871
 3268TIP3    H1 9726   8.544   3.284   1.176 -0.5812 -1.0091  0.9292
 3268TIP3    H2 9727   8.519   3.203   1.050 -2.8196 -0.2079  0.8407
 3269TIP3   OH2 9728   8.331   1.632   1.821 -0.3082  0.4080 -0.6164
 3269TIP3    H1 9729   8.393   1.632   1.893 -0.4889 -0.9436 -0.4512
 3269TIP3    H2 9730   8.250   1.598   1.858 -0.5640  0.2298 -1.3158
 3270TIP3   OH2 9731   8.509   2.721   2.135  0.0771 -0.3684 -0.1862
 3270TIP3    H1 9732   8.424   2.734   2.093  0.7211 -0.1279 -1.4113
 3270TIP3    H2 9733   8.560   2.670   2.072  2.0121  2.3721 -0.9030
 3271TIP3   OH2 9734   8.334   2.934   0.158 -0.4316  0.0010  0.4360
 3271TIP3    H1 9735   8.284   2.861   0.194 -1.3484 -0.0646 -0.9036
 3271TIP3    H2 9736   8.408   2.892   0.113  0.8255  0.0950  2.3755
 3272TIP3   OH2 9737   0.800   3.013   2.479  0.0569  0.0640 -0.3069
 3272TIP3    H1 9738   0.879   2.976   2.520 -0.7045  0.0934  1.2279
 3272TIP3    H2 9739   0.756   3.058   2.550 -0.9474  0.7334 -1.3453
 3273TIP3   OH2 9740   1.471   3.621   3.250 -0.0570 -0.8042  0.1620
 3273TIP3    H1 9741   1.494   3.696   3.195  0.8999  0.1631  1.8327
 3273TIP3    H2 9742   1.431   3.559   3.190  2.3003 -0.4024 -1.9026
 3274TIP3   OH2 9743   8.712   3.145   0.845  0.1659  0.5416  0.0863
 3274TIP3    H1 9744   8.670   3.228   0.822  2.0947  1.5299  0.0163
 3274TIP3    H2 9745   8.684   3.084   0.776 -0.5721  1.3541 -0.3416
 3275TIP3   OH2 9746   0.485   1.944   1.972 -0.0019 -0.0659  0.3810
 3275TIP3    H1 9747   0.461   2.003   1.900  1.5880  0.4480  0.2576
 3275TIP3    H2 9748   0.470   1.996   2.051  1.7277  0.6479  0.2591
 3276TIP3   OH2 9749   7.521   1.433   1.485  1.0739 -0.1045  0.0412
 3276TIP3    H1 9750   7.479   1.364   1.536  0.5620  0.0934 -0.1081
 3276TIP3    H2 9751   7.537   1.504   1.547 -1.5152  1.0109 -0.4689
 3277TIP3   OH2 9752   0.546   3.084   0.422  0.4178 -0.2668  0.8346
 3277TIP3    H1 9753   0.586   3.081   0.335  1.1158  0.0326  1.1434
 3277TIP3    H2 9754   0.461   3.041   0.410  0.2028  0.3955 -0.1507
 3278TIP3   OH2 9755   7.793   1.426   1.731  0.6065  0.1886 -0.6487
 3278TIP3    H1 9756   7.821   1.371   1.659 -0.3851 -0.2683 -0.7008
 3278TIP3    H2 9757   7.811   1.516   1.701  1.8870 -0.0828 -0.7039
 3279TIP3   OH2 9758   7.794   2.595   0.946 -0.3071 -0.1034 -0.1966
 3279TIP3    H1 9759   7.886   2.568   0.946  0.2417  1.6899  0.0335
 3279TIP3    H2 9760   7.765   2.584   0.856  1.0672  2.3025 -0.9729
 3280TIP3   OH2 9761   8.528   1.829   0.610 -0.3611 -0.3530 -0.3635
 3280TIP3    H1 9762   8.582   1.899   0.573  0.6583 -0.6102  0.6366
 3280TIP3    H2 9763   8.498   1.862   0.694 -1.7882 -0.2142 -0.8990
 3281TIP3   OH2 9764   8.880   1.332   2.833  0.8666  0.0228  0.3887
 3281TIP3    H1 9765   8.824   1.294   2.900 -0.1799 -1.3717 -1.2333
 3281TIP3    H2 9766   8.825   1.395   2.788  0.3079 -1.8773 -1.6907
 3282TIP3   OH2 9767   0.253   4.123   1.149  0.4402  0.9563  0.4030
 3282TIP3    H1 9768   0.198   4.054   1.187  0.2237 -0.6282 -2.5924
 3282TIP3    H2 9769   0.191   4.191   1.124  0.2638  0.7965  0.3992
 3283TIP3   OH2 9770   2.103   8.069   1.947 -0.2690  0.3323  0.1629
 3283TIP3    H1 9771   2.106   8.005   1.876 -0.7355  1.3788 -0.8049
 3283TIP3    H2 9772   2.054   8.025   2.017 -1.6812  0.0825 -0.9630
 3284TIP3   OH2 9773   6.896   1.873   3.433 -0.6023  0.5255  0.1203
 3284TIP3    H1 9774   6.932   1.799   3.481 -2.1619  0.0562  0.5943
 3284TIP3    H2 9775   6.905   1.947   3.492 -0.2716  0.4506  0.1656
 3285TIP3   OH2 9776   5.658   2.145   2.381 -0.2163  0.4401  0.4563
 3285TIP3    H1 9777   5.569   2.151   2.344  0.0586  0.5525 -0.1935
 3285TIP3    H2 9778   5.661   2.059   2.423 -0.5588  0.3384  0.2745
 3286TIP3   OH2 9779   0.131   3.645   0.792 -0.1998 -0.1157  0.6646
 3286TIP3    H1 9780   0.183   3.720   0.763 -0.5874 -0.3133 -0.5680
 3286TIP3    H2 9781   0.192   3.571   0.790 -0.6626 -0.4626 -1.3661
 3287TIP3   OH2 9782   8.129   3.367   2.727  0.1401 -0.0318 -0.5642
 3287TIP3    H1 9783   8.164   3.361   2.638  2.2399 -1.4190  0.3072
 3287TIP3    H2 9784   8.190   3.426   2.772  1.5114 -2.6013  1.0305
 3288TIP3   OH2 9785   8.064   2.338   1.880  0.6435  0.3830 -0.6755
 3288TIP3    H1 9786   7.980   2.323   1.922  0.2797  0.9821 -1.1859
 3288TIP3    H2 9787   8.080   2.258   1.830 -0.0803  0.6405 -1.3369
 3289TIP3   OH2 9788   8.523   3.445   3.698  0.2282 -0.4024  0.2771
 3289TIP3    H1 9789   8.479   3.364   3.725  0.1509 -0.9235 -1.3144
 3289TIP3    H2 9790   8.458   3.491   3.645  0.5417  0.3286  0.5207
 3290TIP3   OH2 9791   8.341   4.255   3.688  0.2931 -0.0252  0.2079
 3290TIP3    H1 9792   8.420   4.309   3.677  0.6138 -0.6209 -0.4763
 3290TIP3    H2 9793   8.367   4.168   3.659 -1.1906  0.2322 -2.0310
 3291TIP3   OH2 9794   8.441   4.289   2.658 -0.4298 -0.7603 -0.0722
 3291TIP3    H1 9795   8.488   4.285   2.575  2.0109  0.1920  1.1871
 3291TIP3    H2 9796   8.509   4.310   2.723 -2.5814  0.5611  1.8601
 3292TIP3   OH2 9797   7.214   3.899   2.000 -0.3752  0.3359  0.0042
 3292TIP3    H1 9798   7.258   3.983   1.993  2.0925 -0.8155  1.0016
 3292TIP3    H2 9799   7.183   3.895   2.091 -0.3441  0.1333  0.0083
 3293TIP3   OH2 9800   7.808   3.518   0.869  0.4760 -0.2507  0.0415
 3293TIP3    H1 9801   7.743   3.561   0.813 -1.0056 -1.2634  0.9520
 3293TIP3    H2 9802   7.836   3.442   0.817  0.2058 -0.3629  0.0596
 3294TIP3   OH2 9803   1.030   3.089   1.987  0.1097  0.0290 -0.1126
 3294TIP3    H1 9804   1.108   3.033   1.982 -1.3589 -2.1568  0.5420
 3294TIP3    H2 9805   0.994   3.071   2.074 -0.7789  1.5134 -0.1598
 3295TIP3   OH2 9806   6.768   4.672   2.634 -0.6053 -0.0373 -0.1772
 3295TIP3    H1 9807   6.755   4.760   2.669 -0.6738 -0.3983  0.7129
 3295TIP3    H2 9808   6.694   4.659   2.575 -0.4780  0.5833 -0.4753
 3296TIP3   OH2 9809   1.401   3.968   4.295  0.0270  0.1328 -0.1935
 3296TIP3    H1 9810   1.366   4.032   4.357 -0.5398  0.8493 -1.2558
 3296TIP3    H2 9811   1.350   3.980   4.216  0.5684 -0.9772 -0.7219
 3297TIP3   OH2 9812   1.866   1.928   4.175 -0.2243 -0.6662 -0.3328
 3297TIP3    H1 9813   1.866   1.833   4.178 -0.6134 -0.6914 -0.8695
 3297TIP3    H2 9814   1.844   1.956   4.264  1.3817 -1.0463  0.1974
 3298TIP3   OH2 9815   7.839   2.088   1.413  0.0133 -0.4140  0.0063
 3298TIP3    H1 9816   7.910   2.031   1.439  0.5799  0.4242  0.3224
 3298TIP3    H2 9817   7.853   2.104   1.320  0.0828 -0.4721  0.0076
 3299TIP3   OH2 9818   8.223   1.339   3.307 -0.3071  0.7069  0.5065
 3299TIP3    H1 9819   8.254   1.417   3.353  1.2676 -0.4210  1.4297
 3299TIP3    H2 9820   8.140   1.317   3.349 -0.6561  1.7556  0.3759
 3300TIP3   OH2 9821   0.867   2.389   2.941  0.0815 -0.1217  0.2717
 3300TIP3    H1 9822   0.910   2.452   2.998 -0.4215 -0.6480  1.2490
 3300TIP3    H2 9823   0.924   2.383   2.864  1.3310 -0.2029  1.1826
 3301TIP3   OH2 9824   0.474   2.077   2.826 -0.2249 -0.0418  0.1644
 3301TIP3    H1 9825   0.499   2.139   2.757  0.4546 -0.6259 -0.1261
 3301TIP3    H2 9826   0.478   1.991   2.784 -1.0282 -0.2946  0.5997
 3302TIP3   OH2 9827   1.145   2.441   4.772 -0.2979 -0.0889  0.0805
 3302TIP3    H1 9828   1.164   2.509   4.837  1.7215 -0.3000 -0.2646
 3302TIP3    H2 9829   1.179   2.476   4.690  1.6466 -1.8948  0.0724
 3303TIP3   OH2 9830   0.289   2.976   0.416  0.1272  0.1762 -0.2918
 3303TIP3    H1 9831   0.248   2.912   0.358  2.7207 -1.1779 -0.7157
 3303TIP3    H2 9832   0.272   2.942   0.504  0.0488 -0.2081 -0.4513
 3304TIP3   OH2 9833   0.516   4.002   3.478  0.2863  0.5093 -0.2327
 3304TIP3    H1 9834   0.450   3.932   3.481 -0.7416  1.5044  1.1012
 3304TIP3    H2 9835   0.570   3.987   3.556  0.3358  0.9483 -0.1842
 3305TIP3   OH2 9836   2.056   3.126   4.775 -0.3315 -0.7819 -0.3621
 3305TIP3    H1 9837   2.097   3.059   4.830 -1.3891 -2.7527 -1.9365
 3305TIP3    H2 9838   2.044   3.201   4.834 -0.4106 -2.4429  1.7843
 3306TIP3   OH2 9839   1.500   3.890   3.103 -0.0590 -0.4187 -0.1601
 3306TIP3    H1 9840   1.463   3.978   3.095 -0.7394 -0.5092  1.6829
 3306TIP3    H2 9841   1.594   3.905   3.115 -0.2700  0.0999  0.8880
 3307TIP3   OH2 9842   8.155   4.905   2.518  0.2916 -0.1014 -0.6696
 3307TIP3    H1 9843   8.160   5.000   2.505 -0.4040  0.1694  0.9407
 3307TIP3    H2 9844   8.064   4.889   2.544  0.4756 -1.1790 -0.6768
 3308TIP3   OH2 9845   0.169   2.716   5.633  0.1773 -0.0910 -0.0069
 3308TIP3    H1 9846   0.191   2.807   5.649 -0.1092 -0.1452  0.7120
 3308TIP3    H2 9847   0.132   2.715   5.545 -0.3319  0.5764  0.2005
 3309TIP3   OH2 9848   0.763   2.510   5.419 -0.0486  0.2205 -0.0779
 3309TIP3    H1 9849   0.682   2.561   5.419  0.0417  0.3630 -0.2167
 3309TIP3    H2 9850   0.818   2.552   5.353 -0.0195 -0.1303 -0.2753
 3310TIP3   OH2 9851   7.569   1.094   3.436 -0.6225  0.3933  0.6482
 3310TIP3    H1 9852   7.476   1.084   3.412 -0.8958  0.7196  1.5464
 3310TIP3    H2 9853   7.606   1.007   3.424 -1.2154  0.0885  0.9620
 3311TIP3   OH2 9854   1.443   3.163   4.193  0.1107 -0.0848  0.0219
 3311TIP3    H1 9855   1.376   3.230   4.186  1.0199  0.7383 -0.9259
 3311TIP3    H2 9856   1.406   3.087   4.147 -0.3523  0.2197 -0.1068
 3312TIP3   OH2 9857   0.588   3.806   2.862 -0.0054 -0.3281  0.2453
 3312TIP3    H1 9858   0.518   3.813   2.797 -0.9156  0.4572  1.2891
 3312TIP3    H2 9859   0.664   3.848   2.820 -0.5434  0.0411 -0.3601
 3313TIP3   OH2 9860   7.500   2.114   3.397  0.0959 -0.2305  0.4567
 3313TIP3    H1 9861   7.567   2.171   3.435 -0.1024 -0.8246  1.7410
 3313TIP3    H2 9862   7.540   2.027   3.398 -0.5883 -0.5397  0.9751
 3314TIP3   OH2 9863   2.026   1.665   2.588  0.1846  0.1145  0.2126
 3314TIP3    H1 9864   2.052   1.724   2.658  1.9615 -2.1328  1.5465
 3314TIP3    H2 9865   2.108   1.646   2.541 -0.0916 -2.2074  0.5885
 3315TIP3   OH2 9866   6.626   8.404   2.284  0.1916 -0.0889 -0.3118
 3315TIP3    H1 9867   6.662   8.330   2.332 -0.4122 -0.4615 -0.4237
 3315TIP3    H2 9868   6.626   8.376   2.192  1.7299  0.7760 -0.5862
 3316TIP3   OH2 9869   0.041   3.949   4.702 -0.3760  0.4388  0.4902
 3316TIP3    H1 9870   0.045   3.967   4.608 -0.5766 -1.0556  0.1867
 3316TIP3    H2 9871  -0.046   3.911   4.716 -0.2129  0.3256  1.2204
 3317TIP3   OH2 9872   8.291   1.528   3.498 -0.3584 -0.0496 -0.4988
 3317TIP3    H1 9873   8.258   1.503   3.585 -2.2422 -0.6986 -1.3764
 3317TIP3    H2 9874   8.386   1.532   3.509 -0.4473 -1.7417  1.1889
 3318TIP3   OH2 9875   1.172   2.304   3.018  0.5669 -0.0844 -0.1397
 3318TIP3    H1 9876   1.184   2.224   3.069 -0.9431  0.5441  1.2512
 3318TIP3    H2 9877   1.191   2.278   2.928  2.3962 -1.4306  0.6015
 3319TIP3   OH2 9878   7.884   4.018   3.574  0.2787 -0.0843  0.6461
 3319TIP3    H1 9879   7.931   4.093   3.538 -1.3819  1.4582  1.5771
 3319TIP3    H2 9880   7.941   3.943   3.558  1.1829  1.0911 -1.9287
 3320TIP3   OH2 9881   7.660   4.667   2.632 -0.2506 -0.3832 -0.5758
 3320TIP3    H1 9882   7.588   4.609   2.656 -1.4657  1.4883  0.3665
 3320TIP3    H2 9883   7.738   4.612   2.642 -1.4752 -2.3085 -1.2053
 3321TIP3   OH2 9884   2.327   1.436   2.226  0.1909 -0.0269  0.0876
 3321TIP3    H1 9885   2.394   1.381   2.183 -0.2895  0.1761 -0.9252
 3321TIP3    H2 9886   2.275   1.470   2.154 -0.4748  0.5183  0.8315
 3322TIP3   OH2 9887   0.393   3.632   1.440 -0.0040  0.2467 -0.6210
 3322TIP3    H1 9888   0.352   3.709   1.479 -1.0451 -0.3198 -0.5809
 3322TIP3    H2 9889   0.418   3.577   1.515  0.3517  0.3416 -0.6662
 3323TIP3   OH2 9890   1.060   2.554   3.095 -0.0043 -0.1904  0.1679
 3323TIP3    H1 9891   1.082   2.462   3.077  1.5797  0.4406 -1.2878
 3323TIP3    H2 9892   1.144   2.599   3.091 -1.1651  1.8654 -2.5115
 3324TIP3   OH2 9893   7.884   1.695   4.876 -0.1031  0.0679  0.3178
 3324TIP3    H1 9894   7.927   1.670   4.795  1.8367 -0.6185  1.5086
 3324TIP3    H2 9895   7.797   1.655   4.871 -0.0544  0.1474 -1.4586
 3325TIP3   OH2 9896   1.466   5.401   3.827 -0.0099 -0.0702  0.0441
 3325TIP3    H1 9897   1.437   5.316   3.859  0.0225 -0.5132 -1.0865
 3325TIP3    H2 9898   1.500   5.384   3.739 -0.5143  1.2061 -0.4138
 3326TIP3   OH2 9899   0.514   2.275   4.142  0.6795 -0.1891  0.7585
 3326TIP3    H1 9900   0.579   2.299   4.208  1.3778 -0.9309  0.3513
 3326TIP3    H2 9901   0.502   2.355   4.090  0.1523  0.3825  1.7465
 3327TIP3   OH2 9902   1.931   3.130   5.111 -0.3319  0.0553 -0.4920
 3327TIP3    H1 9903   2.022   3.137   5.138 -0.0844  0.8914 -1.5364
 3327TIP3    H2 9904   1.918   3.036   5.095  1.0148  0.2035 -2.6112
 3328TIP3   OH2 9905   0.076   0.808   3.387  0.1974  0.3591 -0.0623
 3328TIP3    H1 9906   0.004   0.863   3.357  0.0569 -0.3504 -1.0522
 3328TIP3    H2 9907   0.045   0.719   3.374  1.6681  0.0464 -1.4951
 3329TIP3   OH2 9908   1.072   1.893   2.488 -0.3417 -0.2018 -0.3085
 3329TIP3    H1 9909   1.138   1.873   2.422 -1.2685  0.0992 -1.3467
 3329TIP3    H2 9910   1.047   1.808   2.523  0.6933 -0.3052  0.1937
 3330TIP3   OH2 9911   8.511   3.380   1.460  0.5540 -0.2544  0.0437
 3330TIP3    H1 9912   8.437   3.430   1.495 -0.2934 -0.6317 -1.1586
 3330TIP3    H2 9913   8.588   3.422   1.496 -0.2707 -0.3952  2.0531
 3331TIP3   OH2 9914   7.586   3.298   3.585 -0.3246 -0.3073  0.6546
 3331TIP3    H1 9915   7.529   3.329   3.514  0.5819 -2.5079 -1.0767
 3331TIP3    H2 9916   7.577   3.202   3.583  1.2872 -0.5111  2.1972
 3332TIP3   OH2 9917   0.568   2.898   2.318 -0.2965  0.2571  0.0619
 3332TIP3    H1 9918   0.572   2.954   2.240  1.4745 -2.9284 -2.2928
 3332TIP3    H2 9919   0.632   2.936   2.379  0.6244  1.0182 -1.3496
 3333TIP3   OH2 9920   7.777   4.346   2.137 -0.5179 -0.2079 -0.4104
 3333TIP3    H1 9921   7.781   4.345   2.041 -0.5474 -1.3536 -0.4125
 3333TIP3    H2 9922   7.864   4.375   2.164 -0.4249 -0.1285 -0.7878
 3334TIP3   OH2 9923   8.531   4.883   2.800 -0.0043  0.3728  0.1127
 3334TIP3    H1 9924   8.489   4.967   2.782  0.8976  0.7255 -0.3775
 3334TIP3    H2 9925   8.594   4.903   2.869  1.1778  0.3882 -0.9610
 3335TIP3   OH2 9926   0.355   3.476   5.622  0.6039 -0.4551 -0.1190
 3335TIP3    H1 9927   0.314   3.557   5.652  0.6590 -0.2067 -0.7240
 3335TIP3    H2 9928   0.298   3.407   5.658 -0.0875 -0.1251 -0.5649
 3336TIP3   OH2 9929   0.144   3.193   5.448  0.1322 -0.1544  0.3733
 3336TIP3    H1 9930   0.186   3.206   5.362 -0.9881 -2.8622 -0.6375
 3336TIP3    H2 9931   0.217   3.188   5.510  1.1312 -1.1553 -0.8497
 3337TIP3   OH2 9932   0.827   0.712   4.612  0.6250  0.0326 -0.4996
 3337TIP3    H1 9933   0.866   0.715   4.699 -1.5712  0.0155  0.5040
 3337TIP3    H2 9934   0.806   0.803   4.592  1.3733  0.0699 -1.1371
 3338TIP3   OH2 9935   1.465   3.618   6.616 -0.3813  0.0721  0.0098
 3338TIP3    H1 9936   1.452   3.565   6.695 -0.5756 -0.1634 -0.1798
 3338TIP3    H2 9937   1.377   3.649   6.594 -0.3218  0.1644 -0.0926
 3339TIP3   OH2 9938   7.675   3.181   4.216  0.8813 -0.6374  0.0034
 3339TIP3    H1 9939   7.702   3.153   4.304  0.0487  0.1292  0.5136
 3339TIP3    H2 9940   7.647   3.272   4.228 -0.6170 -0.9831 -0.7691
 3340TIP3   OH2 9941   8.520   1.601   2.030 -0.0095  0.0189  0.0404
 3340TIP3    H1 9942   8.524   1.696   2.018  1.8907  0.0328  0.6654
 3340TIP3    H2 9943   8.499   1.590   2.122  1.1447 -0.1625  0.2897
 3341TIP3   OH2 9944   8.456   1.107   3.492  0.0182 -0.4027  0.2016
 3341TIP3    H1 9945   8.386   1.160   3.530 -0.3156 -0.4627 -0.3124
 3341TIP3    H2 9946   8.411   1.029   3.459  0.4337 -0.7749  0.5103
 3342TIP3   OH2 9947   8.402   0.521   3.623 -0.1272  0.2408 -0.2965
 3342TIP3    H1 9948   8.468   0.550   3.560 -0.5731 -0.0592 -0.9057
 3342TIP3    H2 9949   8.335   0.477   3.569 -0.7331  0.3883  0.3325
 3343TIP3   OH2 9950   8.786   3.508   4.166 -0.0798  0.0674  0.1061
 3343TIP3    H1 9951   8.737   3.475   4.091  0.0998 -0.1047  0.0643
 3343TIP3    H2 9952   8.719   3.532   4.231 -0.2701  0.9024 -0.3902
 3344TIP3   OH2 9953   6.941   4.414   2.622  0.2277  0.2587 -1.2132
 3344TIP3    H1 9954   7.025   4.453   2.648  0.8153  0.4669 -3.3529
 3344TIP3    H2 9955   6.887   4.488   2.596 -1.0047  0.2176  1.1134
 3345TIP3   OH2 9956   0.400   3.771   4.098 -0.0367  0.1452  0.1654
 3345TIP3    H1 9957   0.317   3.804   4.064 -1.1915 -2.1915  0.6289
 3345TIP3    H2 9958   0.455   3.759   4.021 -1.2566 -1.3482 -0.4825
 3346TIP3   OH2 9959   8.335   3.016   3.108 -0.0184 -0.0354  0.4540
 3346TIP3    H1 9960   8.349   3.048   3.019  2.3359  0.0388  0.8158
 3346TIP3    H2 9961   8.276   3.080   3.148 -1.0427 -0.0501 -1.0340
 3347TIP3   OH2 9962   7.881   1.182   0.644 -0.3411 -0.2740 -0.2907
 3347TIP3    H1 9963   7.822   1.254   0.666  0.5219  1.7155 -4.0312
 3347TIP3    H2 9964   7.831   1.127   0.584  0.6873  0.0081 -1.4392
 3348TIP3   OH2 9965   1.015   4.720   3.922 -0.3951  0.0269 -0.0319
 3348TIP3    H1 9966   0.939   4.778   3.928  0.5560  1.3008 -0.0484
 3348TIP3    H2 9967   1.017   4.691   3.831  0.7988  2.3318 -0.7854
 3349TIP3   OH2 9968   1.663   1.648   4.495  0.0870 -0.2990  0.6829
 3349TIP3    H1 9969   1.569   1.640   4.481 -0.2923  1.3148  2.1295
 3349TIP3    H2 9970   1.672   1.670   4.587  1.9456 -1.3160  0.7628
 3350TIP3   OH2 9971   8.338   0.528   1.846 -0.0456  0.1650 -0.4515
 3350TIP3    H1 9972   8.313   0.441   1.878  0.5093 -0.0924 -0.6945
 3350TIP3    H2 9973   8.434   0.527   1.849 -0.0554  1.0660  0.3209
 3351TIP3   OH2 9974   0.451   3.014   2.769  0.3996 -0.3874  0.4183
 3351TIP3    H1 9975   0.407   3.086   2.814  2.8095  1.1212  0.4434
 3351TIP3    H2 9976   0.471   2.951   2.838  0.2767 -0.0591  0.7539
 3352TIP3   OH2 9977   2.005   2.497   1.084  0.6925  0.0055 -0.1079
 3352TIP3    H1 9978   1.915   2.471   1.066  0.6278  1.0709 -1.3967
 3352TIP3    H2 9979   2.001   2.592   1.096  1.3810 -0.1507  1.5885
 3353TIP3   OH2 9980   1.812   2.993   4.212  0.2985 -0.1200 -0.1819
 3353TIP3    H1 9981   1.786   3.085   4.218  2.5583  0.7181 -2.3577
 3353TIP3    H2 9982   1.770   2.962   4.132  1.2777 -0.3546 -0.6102
 3354TIP3   OH2 9983   7.572   4.099   4.005  0.1926 -0.2577 -0.2677
 3354TIP3    H1 9984   7.642   4.057   3.954 -0.5713  0.6491 -2.1295
 3354TIP3    H2 9985   7.576   4.191   3.978 -0.9135  0.0256  0.5336
 3355TIP3   OH2 9986   0.876   2.998   2.194  0.2633  0.3384  0.6732
 3355TIP3    H1 9987   0.869   3.031   2.283 -1.8705 -0.9211  0.9874
 3355TIP3    H2 9988   0.810   3.047   2.145  0.5773  0.1438  0.0485
 3356TIP3   OH2 9989   8.373   2.083   3.136  0.2984  0.3640  0.3314
 3356TIP3    H1 9990   8.449   2.045   3.092 -0.9766  0.2369 -1.8814
 3356TIP3    H2 9991   8.341   2.014   3.193  0.4883 -0.3946 -0.4746
 3357TIP3   OH2 9992   7.584   1.476   3.598 -0.8789  0.3163  0.0062
 3357TIP3    H1 9993   7.621   1.422   3.668  0.0078 -0.9531 -1.3975
 3357TIP3    H2 9994   7.585   1.564   3.633 -0.7055 -0.3390  1.7003
 3358TIP3   OH2 9995   0.242   3.126   1.926 -0.0963 -0.0448  0.3957
 3358TIP3    H1 9996   0.237   3.095   1.836 -0.3953 -0.1257  0.4396
 3358TIP3    H2 9997   0.159   3.100   1.965 -0.1199  0.3211  0.5910
 3359TIP3   OH2 9998   7.985   4.943   2.826  0.1327  0.1400  0.2550
 3359TIP3    H1 9999   7.961   4.931   2.734  2.9833  1.6792 -0.7499
 3359TIP3    H210000   7.913   4.903   2.875 -1.0522 -1.4308 -2.6348
 3360TIP3   OH210001   7.667   2.093   3.166  0.0030 -0.2927 -1.0889
 3360TIP3    H110002   7.694   2.071   3.077  0.2408  0.2874 -1.1594
 3360TIP3    H210003   7.624   2.178   3.158  2.3976  1.0420 -0.2497
 3361TIP3   OH210004   0.114   2.705   2.068 -0.5974  0.4320 -0.0601
 3361TIP3    H110005   0.095   2.761   1.993  0.4972  1.5098  0.4501
 3361TIP3    H210006   0.084   2.755   2.144 -1.6148 -0.6130  0.2411
 3362TIP3   OH210007   0.219   4.801   2.936  0.0975 -0.5989  0.2784
 3362TIP3    H110008   0.292   4.863   2.925  1.1448 -1.8875 -0.2832
 3362TIP3    H210009   0.200   4.802   3.029 -1.1670  1.9714  0.0118
 3363TIP3   OH210010   1.036   3.127   1.598 -0.1335  0.1723  0.0547
 3363TIP3    H110011   1.103   3.064   1.573  0.9497  1.1477  0.4471
 3363TIP3    H210012   0.963   3.074   1.629  1.0779 -0.8562  1.1834
 3364TIP3   OH210013   7.590   6.058   4.895  0.1963  0.0108 -0.2925
 3364TIP3    H110014   7.628   6.113   4.964  0.2902 -0.0392 -0.3044
 3364TIP3    H210015   7.555   5.982   4.941  1.3464 -0.6074 -0.4284
 3365TIP3   OH210016   3.756   3.498   4.516  0.4764 -0.3043 -0.1757
 3365TIP3    H110017   3.667   3.469   4.495  1.3749 -2.5155 -1.0029
 3365TIP3    H210018   3.750   3.525   4.608 -0.7715 -1.6308  0.1588
 3366TIP3   OH210019   2.211   3.697   3.151 -0.3543  0.0151 -0.1756
 3366TIP3    H110020   2.139   3.707   3.089  0.6779 -2.6099 -1.8684
 3366TIP3    H210021   2.169   3.706   3.237 -2.5534 -0.5889 -1.1336
 3367TIP3   OH210022   7.886   3.355   3.490 -0.8340  0.1936  0.4239
 3367TIP3    H110023   7.826   3.307   3.547 -0.3925 -0.3051  0.4703
 3367TIP3    H210024   7.845   3.354   3.404 -1.7460  1.3730  0.8284
 3368TIP3   OH210025   7.733   4.629   4.409 -0.4732  0.0605 -0.5730
 3368TIP3    H110026   7.786   4.703   4.380 -0.5869  0.2196 -0.3673
 3368TIP3    H210027   7.792   4.577   4.464  0.1258 -0.8903 -2.0632
 3369TIP3   OH210028   8.736   2.659   2.869  0.4314 -0.0722 -0.4277
 3369TIP3    H110029   8.722   2.568   2.898 -4.4162  0.9629  0.9950
 3369TIP3    H210030   8.693   2.663   2.784  0.3223  0.9511 -0.3255
 3370TIP3   OH210031   1.338   3.421   3.095  0.0263 -0.8263  0.0845
 3370TIP3    H110032   1.346   3.396   3.003 -0.3934 -1.4079  0.2078
 3370TIP3    H210033   1.254   3.466   3.101  0.1764 -0.5486  0.1310
 3371TIP3   OH210034   0.959   2.176   1.945 -0.1939 -0.0097  0.1204
 3371TIP3    H110035   1.023   2.105   1.940 -0.3478 -0.1852  0.5523
 3371TIP3    H210036   0.883   2.135   1.987 -0.7856  0.0504 -0.9007
 3372TIP3   OH210037   0.670   4.073   1.095  0.9932  0.3764 -0.1852
 3372TIP3    H110038   0.610   4.020   1.147 -1.9280  0.0735 -3.6785
 3372TIP3    H210039   0.672   4.158   1.140  1.9365 -1.1262  2.7290
 3373TIP3   OH210040   1.480   4.856   3.058  0.3460  0.1249 -0.2985
 3373TIP3    H110041   1.528   4.786   3.013  1.4618  0.6538  0.0423
 3373TIP3    H210042   1.531   4.935   3.040 -0.6365  0.7713 -0.2722
 3374TIP3   OH210043   8.844   2.703   3.441 -0.0711  0.7672  0.5685
 3374TIP3    H110044   8.818   2.791   3.415  0.3619  1.4404  2.3250
 3374TIP3    H210045   8.810   2.647   3.372 -1.6222  2.1662  0.1491
 3375TIP3   OH210046   0.741   3.106   3.342 -0.3948 -0.5936  0.0603
 3375TIP3    H110047   0.649   3.083   3.346 -1.0239  1.8729  0.5712
 3375TIP3    H210048   0.755   3.136   3.252 -0.4910  0.5246  0.4068
 3376TIP3   OH210049   0.894   0.919   0.841 -0.8153 -0.6149  1.0140
 3376TIP3    H110050   0.814   0.956   0.803  0.0828 -0.4714 -0.7836
 3376TIP3    H210051   0.880   0.824   0.838 -1.5549 -0.5546  2.1571
 3377TIP3   OH210052   1.451   3.772   2.726  0.2143  0.0729  0.0277
 3377TIP3    H110053   1.432   3.756   2.818  1.2633  1.0276  0.4212
 3377TIP3    H210054   1.546   3.766   2.720  0.1607  0.1708 -0.9643
 3378TIP3   OH210055   0.289   3.765   3.063  0.1860  0.0881  0.2781
 3378TIP3    H110056   0.346   3.733   2.994  0.8434  1.4199  0.1923
 3378TIP3    H210057   0.208   3.790   3.018  1.1816  2.4475 -0.2690
 3379TIP3   OH210058   8.037   2.644   4.479 -0.1028 -0.2178  0.7039
 3379TIP3    H110059   7.944   2.634   4.457 -0.1236 -1.7058  1.3848
 3379TIP3    H210060   8.038   2.695   4.560 -0.2500  1.0661 -0.0922
 3380TIP3   OH210061   1.667   2.186   0.942 -0.0545  0.0102 -0.0398
 3380TIP3    H110062   1.587   2.178   0.890  1.3499 -2.6932 -1.8537
 3380TIP3    H210063   1.692   2.279   0.933 -1.7683  0.3686 -1.2642
 3381TIP3   OH210064   0.112   3.310   0.618  0.0149  0.6339 -0.4023
 3381TIP3    H110065   0.144   3.379   0.560  0.5523  1.6662  1.1159
 3381TIP3    H210066   0.028   3.284   0.579  0.5172  1.0802 -1.8216
 3382TIP3   OH210067   7.336   3.331   4.294 -0.2084 -0.2995  0.0002
 3382TIP3    H110068   7.366   3.365   4.378  1.4475 -0.5319 -0.4933
 3382TIP3    H210069   7.253   3.288   4.314 -3.3916  5.5237  0.3653
 3383TIP3   OH210070   7.610   2.108   4.351 -0.1944  0.0120 -0.4414
 3383TIP3    H110071   7.591   2.137   4.262 -2.3104 -0.7256 -0.2462
 3383TIP3    H210072   7.615   2.013   4.345  0.6568  0.0238  0.0460
 3384TIP3   OH210073   8.135   1.257   3.650 -0.0964  0.7407 -0.1169
 3384TIP3    H110074   8.183   1.176   3.666 -0.7477  0.4205  0.2585
 3384TIP3    H210075   8.045   1.236   3.673 -0.7250  0.8476 -2.4234
 3385TIP3   OH210076   1.221   2.236   3.906  0.2972  0.6116  0.4504
 3385TIP3    H110077   1.263   2.157   3.939  0.8460  0.6468 -0.1499
 3385TIP3    H210078   1.251   2.243   3.815 -4.5658 -1.9405 -1.5706
 3386TIP3   OH210079   1.136   3.981   0.994 -0.1610  0.1497  0.7245
 3386TIP3    H110080   1.137   4.002   0.900  1.3226  2.0755  1.1413
 3386TIP3    H210081   1.210   3.922   1.006  0.5785  1.0969  0.9175
 3387TIP3   OH210082   8.289   1.467   3.838  0.0322 -0.4297 -0.2488
 3387TIP3    H110083   8.219   1.531   3.848  0.8188  0.8194 -2.3319
 3387TIP3    H210084   8.244   1.385   3.818 -1.1283 -1.2191  4.7574
 3388TIP3   OH210085   1.301   2.333   3.649 -0.3931  0.2849  0.1638
 3388TIP3    H110086   1.290   2.291   3.564 -0.1760 -0.9264  0.7171
 3388TIP3    H210087   1.395   2.355   3.653 -0.3449  0.0785  0.1987
 3389TIP3   OH210088   8.353   3.941   3.947  0.1812  0.0202  0.7980
 3389TIP3    H110089   8.292   3.948   4.021 -1.3236  1.2137 -0.5075
 3389TIP3    H210090   8.326   3.861   3.901 -1.2819  1.2441 -0.5184
 3390TIP3   OH210091   8.853   3.688   3.967 -0.6896 -0.3265  0.0959
 3390TIP3    H110092   8.810   3.650   4.044 -2.0747  0.7085 -0.1448
 3390TIP3    H210093   8.935   3.640   3.959  0.3829  0.8511  3.3938
 3391TIP3   OH210094   2.359   3.022   5.345 -0.4530 -0.0094  0.3516
 3391TIP3    H110095   2.380   3.005   5.254 -1.1423  0.7332  0.0509
 3391TIP3    H210096   2.411   3.099   5.368 -0.5348  0.0073  0.4859
 3392TIP3   OH210097   1.019   3.923   4.168 -0.2211  0.0810 -0.0015
 3392TIP3    H110098   1.086   3.989   4.188 -0.4710  0.0822  0.8271
 3392TIP3    H210099   1.015   3.922   4.072  1.2973 -0.2552 -0.0713
 3393TIP3   OH210100   8.549   3.137   0.217 -0.1026 -0.0704  0.1577
 3393TIP3    H110101   8.464   3.094   0.231  0.0495  0.5954  3.7072
 3393TIP3    H210102   8.611   3.081   0.263  1.4776 -0.6400 -2.5770
 3394TIP3   OH210103   7.120   2.467   2.653 -0.2429 -0.1460 -0.4929
 3394TIP3    H110104   7.172   2.397   2.613 -1.6168 -1.2019 -0.4767
 3394TIP3    H210105   7.119   2.445   2.746 -2.2236 -1.1871 -0.7193
 3395TIP3   OH210106   7.225   4.199   3.246 -0.5617 -0.3487  0.1376
 3395TIP3    H110107   7.173   4.278   3.264 -0.1009 -0.3553  1.5302
 3395TIP3    H210108   7.300   4.206   3.304 -0.5756 -1.8759  0.3625
 3396TIP3   OH210109   7.022   7.704   3.625 -0.2252 -0.1453  0.0667
 3396TIP3    H110110   6.958   7.754   3.575  0.6257  0.7508 -0.1412
 3396TIP3    H210111   7.018   7.741   3.713 -1.6288 -1.6317  0.6508
 3397TIP3   OH210112   0.245   3.563   3.256  0.4285 -0.2571  0.3911
 3397TIP3    H110113   0.318   3.504   3.274  0.7777  0.3617  1.0448
 3397TIP3    H210114   0.270   3.608   3.176  0.9012  0.1593  0.7696
 3398TIP3   OH210115   8.685   4.819   4.393 -0.5890 -0.1327  0.0668
 3398TIP3    H110116   8.712   4.830   4.302 -1.3845 -2.8713 -0.5392
 3398TIP3    H210117   8.767   4.806   4.441 -0.2458  0.3397 -0.3799
 3399TIP3   OH210118   0.108   3.152   2.357  0.0932  0.6302  0.1035
 3399TIP3    H110119   0.125   3.143   2.451 -0.6023  0.1252  0.1771
 3399TIP3    H210120   0.042   3.221   2.350 -0.5290  0.0217  0.0364
 3400TIP3   OH210121   0.725   6.227   5.803  0.1978 -0.0806 -0.0867
 3400TIP3    H110122   0.798   6.181   5.761 -0.6374 -0.0594 -1.5931
 3400TIP3    H210123   0.766   6.277   5.873  1.7176  0.3959 -1.2872
 3401TIP3   OH210124   1.015   3.595   1.685 -0.0064 -0.0010  0.9274
 3401TIP3    H110125   1.103   3.557   1.676  0.6823  1.6907  0.1157
 3401TIP3    H210126   0.970   3.570   1.605  0.5910  1.2056  0.1933
 3402TIP3   OH210127   2.259   3.204   2.458 -0.0095  0.0677 -0.2964
 3402TIP3    H110128   2.181   3.152   2.435 -0.9852  1.7129 -0.7849
 3402TIP3    H210129   2.331   3.160   2.414 -0.3439 -2.5834  1.6849
 3403TIP3   OH210130   7.899   5.096   4.520  0.0135 -0.1346  0.0550
 3403TIP3    H110131   7.984   5.069   4.554 -0.0816 -1.2550 -0.5882
 3403TIP3    H210132   7.907   5.191   4.507  0.9256 -0.1296  0.6437
 3404TIP3   OH210133   1.903   3.657   3.113 -0.0353  0.6864 -0.2687
 3404TIP3    H110134   1.866   3.596   3.176  2.8323  1.2513  2.1077
 3404TIP3    H210135   1.954   3.603   3.053  0.7710  0.5111  0.5580
 3405TIP3   OH210136   0.791   2.565   4.118 -0.2823  0.6994 -1.1386
 3405TIP3    H110137   0.850   2.492   4.137 -0.4964  1.2562  1.8633
 3405TIP3    H210138   0.716   2.524   4.074  0.7708 -0.4976 -1.8637
 3406TIP3   OH210139   8.448   2.365   4.513  0.0001 -0.4085 -0.5341
 3406TIP3    H110140   8.530   2.362   4.564 -0.5519 -0.8709  0.3350
 3406TIP3    H210141   8.400   2.287   4.540 -1.0597  0.2569 -0.4912
 3407TIP3   OH210142   6.415   1.188   2.335 -0.4277 -0.4220 -0.5089
 3407TIP3    H110143   6.410   1.102   2.293  0.5768 -0.4750 -0.5201
 3407TIP3    H210144   6.471   1.240   2.277 -1.4434  0.3973 -0.7669
 3408TIP3   OH210145   7.864   2.391   2.949 -0.3445  0.3569  0.0446
 3408TIP3    H110146   7.882   2.402   3.042 -2.2853  0.0818  0.4776
 3408TIP3    H210147   7.768   2.386   2.944 -0.2184 -0.4859 -1.8566
 3409TIP3   OH210148   0.443   0.849   3.245 -0.1083  0.3536 -0.3651
 3409TIP3    H110149   0.471   0.877   3.159  0.9762 -1.1653 -0.5323
 3409TIP3    H210150   0.364   0.900   3.263 -0.3992  0.6116 -2.2870
 3410TIP3   OH210151   0.939   3.009   3.855  0.2604  0.0139 -0.0656
 3410TIP3    H110152   0.887   2.929   3.853  0.4564 -0.0980 -1.0156
 3410TIP3    H210153   0.910   3.058   3.778  1.3683  0.0588 -0.4637
 3411TIP3   OH210154   0.542   1.684   2.511 -0.4244 -0.4835 -0.0024
 3411TIP3    H110155   0.613   1.624   2.535 -0.8733 -1.4070 -0.9099
 3411TIP3    H210156   0.551   1.696   2.416  0.1049  1.4900  0.2847
 3412TIP3   OH210157   0.045   2.536   3.921 -0.0103 -0.1689  0.6132
 3412TIP3    H110158   0.083   2.613   3.962  2.3481 -0.7586 -0.3416
 3412TIP3    H210159   0.079   2.462   3.973  1.0530 -0.7750 -0.9157
 3413TIP3   OH210160   2.466   2.986   1.395  0.1522  0.3336  0.0020
 3413TIP3    H110161   2.543   3.036   1.422  1.8562 -1.2422 -1.7985
 3413TIP3    H210162   2.495   2.895   1.397 -2.3724 -0.4870  1.5420
 3414TIP3   OH210163   8.572   0.710   3.983  0.5127 -0.3799 -0.2504
 3414TIP3    H110164   8.477   0.702   3.982  0.4240  0.6067 -0.2894
 3414TIP3    H210165   8.591   0.764   4.060  1.1886 -2.3103  0.9760
 3415TIP3   OH210166   1.494   1.326   5.825 -0.0337 -0.7439  0.5426
 3415TIP3    H110167   1.399   1.322   5.816  0.0249 -2.6539  0.4943
 3415TIP3    H210168   1.518   1.413   5.793 -1.7263 -0.4000  0.1800
 3416TIP3   OH210169   0.681   1.730   4.725  0.0270 -0.6136  0.8321
 3416TIP3    H110170   0.702   1.733   4.632  0.1011  0.8315  0.8803
 3416TIP3    H210171   0.585   1.732   4.728  0.0517  1.0678  0.8219
 3417TIP3   OH210172   0.145   3.036   4.569  0.1701  0.2283 -0.0116
 3417TIP3    H110173   0.188   3.116   4.538 -0.0826  0.0454 -0.8479
 3417TIP3    H210174   0.212   2.990   4.619  0.4240  0.7852  0.1663
 3418TIP3   OH210175   8.741   1.827   3.899  0.0698  1.0016  0.2203
 3418TIP3    H110176   8.768   1.743   3.863  1.4496  0.9255  1.4023
 3418TIP3    H210177   8.707   1.807   3.986  1.9793  1.8686  1.1795
 3419TIP3   OH210178   0.127   1.377   3.965  0.5212  0.2557 -0.2029
 3419TIP3    H110179   0.103   1.357   4.055  0.7758 -0.4241 -0.2821
 3419TIP3    H210180   0.184   1.305   3.938 -1.5970 -0.9057 -1.7451
 3420TIP3   OH210181   0.336   3.165   4.868  0.2880  0.0277  0.0999
 3420TIP3    H110182   0.274   3.097   4.893 -1.2921  1.4974  0.2641
 3420TIP3    H210183   0.371   3.136   4.783 -2.4702  0.3624 -1.2006
 3421TIP3   OH210184   8.921   5.094   2.626 -0.2007  0.3181  0.1592
 3421TIP3    H110185   8.859   5.034   2.585 -0.6933  1.0972 -0.2544
 3421TIP3    H210186   8.902   5.179   2.586  0.1824  0.8394  1.0626
 3422TIP3   OH210187   1.729   4.895   4.876  0.2010  0.0709 -0.2907
 3422TIP3    H110188   1.788   4.905   4.950  3.1046 -3.7268 -1.9156
 3422TIP3    H210189   1.648   4.860   4.914  0.3565  1.5858  1.4816
 3423TIP3   OH210190   0.695   4.667   2.051 -0.1330 -0.2386  0.0941
 3423TIP3    H110191   0.650   4.583   2.038  0.7521 -0.4551 -1.7109
 3423TIP3    H210192   0.744   4.681   1.970  2.4000  0.4005  1.6763
 3424TIP3   OH210193   1.617   4.237   5.479  0.2360 -0.0180  0.0011
 3424TIP3    H110194   1.603   4.143   5.494  1.2511 -0.0069  1.0827
 3424TIP3    H210195   1.706   4.253   5.509  0.4383  1.1037 -1.1359
 3425TIP3   OH210196   1.719   3.473   4.013 -0.4222  0.4450  0.5959
 3425TIP3    H110197   1.692   3.458   4.103  0.4248 -0.6926  0.6758
 3425TIP3    H210198   1.790   3.410   3.999 -0.7237  0.4283 -0.9383
 3426TIP3   OH210199   0.237   2.514   2.214 -0.3630 -0.0867  0.5076
 3426TIP3    H110200   0.257   2.586   2.275  1.8373 -0.0215 -0.2522
 3426TIP3    H210201   0.186   2.556   2.144 -0.3637  0.4413  0.8201
 3427TIP3   OH210202   1.442   2.692   2.559 -0.5568  0.3846  0.4232
 3427TIP3    H110203   1.510   2.658   2.501  0.0436  0.3687  1.1348
 3427TIP3    H210204   1.364   2.698   2.503  0.3445  1.6175 -0.7298
 3428TIP3   OH210205   2.117   3.399   1.589 -0.2389 -0.2846 -0.4803
 3428TIP3    H110206   2.052   3.329   1.590  1.2130 -1.6568  0.4383
 3428TIP3    H210207   2.196   3.358   1.554  0.7249  0.7818  0.4039
 3429TIP3   OH210208   0.366   2.563   4.847 -0.5378  0.0254  0.2259
 3429TIP3    H110209   0.342   2.568   4.755 -0.9468  0.7809  0.3722
 3429TIP3    H210210   0.330   2.479   4.877 -0.0206 -0.4317 -0.4017
 3430TIP3   OH210211   1.357   2.510   0.276 -0.3096 -0.5372 -0.2498
 3430TIP3    H110212   1.298   2.574   0.315  0.1110 -1.2272  1.5913
 3430TIP3    H210213   1.311   2.477   0.200 -0.9468  1.2275 -0.6385
 3431TIP3   OH210214   8.476   2.706   3.160 -0.3667 -0.1385  0.4445
 3431TIP3    H110215   8.536   2.751   3.100 -1.4074  0.8578  0.1398
 3431TIP3    H210216   8.415   2.660   3.103 -1.7210  1.2926  0.7166
 3432TIP3   OH210217   0.149   2.103   1.877  0.1356 -0.0203  0.2450
 3432TIP3    H110218   0.061   2.118   1.844  1.0059  1.1484 -1.6684
 3432TIP3    H210219   0.139   2.099   1.972 -1.9400  0.2854  0.0584
 3433TIP3   OH210220   0.506   3.175   2.561  0.3530  0.0320  0.0735
 3433TIP3    H110221   0.455   3.255   2.547 -0.5077 -0.5427 -0.1465
 3433TIP3    H210222   0.467   3.135   2.639  0.8980 -0.0785  0.2887
 3434TIP3   OH210223   2.159   4.041   4.010 -0.2032  0.4516  0.0364
 3434TIP3    H110224   2.165   3.946   4.018  1.7912  0.2298 -3.0549
 3434TIP3    H210225   2.066   4.059   3.999 -0.4674 -1.2965 -0.7374
 3435TIP3   OH210226   1.073   1.876   1.811 -0.0021  0.0312 -0.4425
 3435TIP3    H110227   1.145   1.867   1.873 -0.1717  1.0800 -0.0930
 3435TIP3    H210228   1.005   1.818   1.847 -0.4083  1.2664  0.8175
 3436TIP3   OH210229   8.814   3.376   3.833  0.5250  0.1201  0.0929
 3436TIP3    H110230   8.892   3.427   3.855  0.0631  0.6067  0.6191
 3436TIP3    H210231   8.760   3.379   3.912 -1.4858  2.5173 -1.3238
 3437TIP3   OH210232   7.236   3.496   5.133 -0.1264 -0.5023  0.2598
 3437TIP3    H110233   7.209   3.570   5.080 -1.9123 -1.2192  0.1195
 3437TIP3    H210234   7.291   3.443   5.076 -1.3002 -0.8035 -0.6121
 3438TIP3   OH210235   1.492   2.425   4.722  0.6511  0.4023 -0.4523
 3438TIP3    H110236   1.463   2.512   4.694  0.7486  0.1016 -1.4877
 3438TIP3    H210237   1.581   2.439   4.754 -0.4586  1.2633  2.4013
 3439TIP3   OH210238   8.279   0.061   4.445 -0.1987  0.0002  0.5567
 3439TIP3    H110239   8.308   0.051   4.535  1.9958 -0.9903 -0.2437
 3439TIP3    H210240   8.186   0.036   4.446  0.1525 -1.2649  2.2792
 3440TIP3   OH210241   2.137   1.440   2.716  0.7374  0.1924 -0.9170
 3440TIP3    H110242   2.107   1.529   2.702 -2.3547 -0.4774  0.9790
 3440TIP3    H210243   2.174   1.440   2.804 -2.1512 -1.0394  0.3608
 3441TIP3   OH210244   0.186   0.897   1.321  0.5658  0.2528 -0.1720
 3441TIP3    H110245   0.200   0.826   1.258  0.4333  0.5015 -0.4838
 3441TIP3    H210246   0.136   0.856   1.392 -0.4552  0.2871 -0.8543
 3442TIP3   OH210247   1.288   3.193   5.287  0.1490 -0.1215  0.0617
 3442TIP3    H110248   1.332   3.177   5.370 -0.0025  0.3347  0.2320
 3442TIP3    H210249   1.318   3.280   5.260  0.9770 -0.6909 -0.8590
 3443TIP3   OH210250   7.230   5.955   2.775  0.0198 -0.2296 -0.5126
 3443TIP3    H110251   7.172   6.027   2.801  0.3211  0.1205 -0.8101
 3443TIP3    H210252   7.271   5.986   2.694 -0.6535 -1.1703 -1.2208
 3444TIP3   OH210253   8.688   2.257   4.293  0.0090 -0.1236 -0.5381
 3444TIP3    H110254   8.694   2.339   4.342  1.8134 -0.3250 -0.4188
 3444TIP3    H210255   8.761   2.204   4.325  0.6042 -0.6527 -2.7075
 3445TIP3   OH210256   0.261   1.622   1.713 -0.3334  0.2406 -0.8459
 3445TIP3    H110257   0.347   1.625   1.755 -1.0644 -0.1185  0.7281
 3445TIP3    H210258   0.277   1.580   1.629  1.0680  0.3602 -0.6512
 3446TIP3   OH210259   0.622   4.026   3.735  0.2965  0.3209 -0.0399
 3446TIP3    H110260   0.581   4.111   3.753 -1.4452 -0.6284  0.5746
 3446TIP3    H210261   0.665   4.003   3.817 -2.6621 -1.2517  1.1331
 3447TIP3   OH210262   7.832   2.770   4.935  0.0464 -0.5725  0.8589
 3447TIP3    H110263   7.804   2.679   4.943 -0.1038 -0.5431  0.6681
 3447TIP3    H210264   7.918   2.772   4.976  0.9895 -1.2565 -1.0314
 3448TIP3   OH210265   2.147   0.637   4.354 -0.0266  0.4240  0.2332
 3448TIP3    H110266   2.219   0.696   4.331  0.7661 -0.1360  1.2316
 3448TIP3    H210267   2.190   0.553   4.373 -1.2740 -1.0786 -3.0761
 3449TIP3   OH210268   8.171   4.739   3.639  0.0666  0.0798 -0.4712
 3449TIP3    H110269   8.248   4.767   3.591  0.6302 -0.3050  0.2002
 3449TIP3    H210270   8.190   4.649   3.667 -0.9253 -0.2904 -0.9422
 3450TIP3   OH210271   1.688   4.772   3.398  0.2053  0.0010  0.2330
 3450TIP3    H110272   1.723   4.683   3.399 -0.1589 -0.2123 -2.7694
 3450TIP3    H210273   1.763   4.827   3.375 -0.5940 -0.0919 -2.7710
 3451TIP3   OH210274   0.778   3.958   2.519  0.7076 -0.1792 -0.0484
 3451TIP3    H110275   0.777   3.981   2.612  0.2494  1.2014 -0.3831
 3451TIP3    H210276   0.693   3.986   2.486  0.8022 -0.8239 -0.8539
 3452TIP3   OH210277   7.413   5.084   3.202  0.8707 -0.7472  0.5258
 3452TIP3    H110278   7.371   5.046   3.125  0.7000  1.7202 -0.6703
 3452TIP3    H210279   7.506   5.065   3.192  1.1476  1.4199 -1.4836
 3453TIP3   OH210280   2.227   3.251   2.735  0.1131 -0.5464  0.3148
 3453TIP3    H110281   2.242   3.213   2.649 -1.2715  0.8998 -0.5818
 3453TIP3    H210282   2.138   3.226   2.758 -0.2337  0.7697  0.4326
 3454TIP3   OH210283   8.679   4.259   1.525 -0.3447 -0.1048  0.4883
 3454TIP3    H110284   8.610   4.275   1.460  0.9803  2.4381 -0.3685
 3454TIP3    H210285   8.635   4.214   1.597 -2.1673 -1.6148 -1.5018
 3455TIP3   OH210286   8.432   0.603   3.290  0.4572 -0.0720 -0.1210
 3455TIP3    H110287   8.361   0.541   3.306  1.3116 -1.1543 -0.4123
 3455TIP3    H210288   8.439   0.607   3.195  0.6883  0.1396 -0.0955
 3456TIP3   OH210289   7.949   3.456   4.118  0.2261  0.4987  0.0027
 3456TIP3    H110290   7.953   3.373   4.167  2.2012  1.3488  1.3514
 3456TIP3    H210291   7.875   3.503   4.156 -0.5332 -0.3940 -0.3561
 3457TIP3   OH210292   0.534   4.929   4.116  0.0734 -0.6013 -0.2982
 3457TIP3    H110293   0.545   4.908   4.023  0.1107  0.6980 -0.5920
 3457TIP3    H210294   0.469   4.999   4.117 -1.1994 -1.7709  0.7833
 3458TIP3   OH210295   1.198   2.753   1.785  0.8758 -0.0074  0.3747
 3458TIP3    H110296   1.134   2.693   1.746  1.8388 -1.6078  1.2079
 3458TIP3    H210297   1.162   2.776   1.870 -0.6886  2.6121 -0.9175
 3459TIP3   OH210298   8.184   4.939   3.009 -0.0005 -0.0771  0.0587
 3459TIP3    H110299   8.211   5.030   3.020  0.4290 -0.2384  0.3166
 3459TIP3    H210300   8.122   4.942   2.936  0.8395  0.2613 -0.6525
 3460TIP3   OH210301   8.199   2.330   2.657 -0.1074 -0.0096  0.3028
 3460TIP3    H110302   8.218   2.362   2.745 -0.0123  0.1657  0.2186
 3460TIP3    H210303   8.106   2.348   2.644 -0.1996 -0.3440  0.4951
 3461TIP3   OH210304   6.740   1.595   3.032 -0.5184 -0.2482  0.2136
 3461TIP3    H110305   6.663   1.578   2.978 -0.9577 -1.7496  1.2920
 3461TIP3    H210306   6.711   1.659   3.096 -0.1655  1.0701 -0.9184
 3462TIP3   OH210307   8.388   2.119   4.733  0.2280  0.1739  0.2810
 3462TIP3    H110308   8.314   2.152   4.682 -0.4844 -0.7063  0.7191
 3462TIP3    H210309   8.350   2.099   4.819  1.3568  1.4138  1.0859
 3463TIP3   OH210310   7.410   4.829   1.465 -0.2416  0.3477  0.0307
 3463TIP3    H110311   7.326   4.783   1.474  0.1755 -0.7020 -1.2060
 3463TIP3    H210312   7.475   4.758   1.460  0.4737  1.0879 -1.3911
 3464TIP3   OH210313   8.123   3.023   3.525 -0.0016 -0.2392  0.0778
 3464TIP3    H110314   8.154   2.956   3.464  0.8670  2.0549 -2.0403
 3464TIP3    H210315   8.027   3.022   3.514  0.1352  0.0303 -1.2013
 3465TIP3   OH210316   8.693   2.742   5.594 -0.4086  0.3557 -0.4024
 3465TIP3    H110317   8.731   2.691   5.665 -0.5952  0.2932 -0.3467
 3465TIP3    H210318   8.607   2.770   5.628 -1.3253 -1.2687 -1.3073
 3466TIP3   OH210319   1.457   2.723   4.645 -0.2896  0.0231 -0.4286
 3466TIP3    H110320   1.516   2.747   4.716 -1.6327  1.9608  0.0733
 3466TIP3    H210321   1.477   2.786   4.575  0.3590 -1.2642 -1.4391
 3467TIP3   OH210322   0.975   2.323   4.249 -0.1237 -0.3016  0.5965
 3467TIP3    H110323   0.975   2.229   4.231 -0.5781 -0.0638 -0.6281
 3467TIP3    H210324   1.066   2.344   4.268  0.0586 -0.8850  0.3581
 3468TIP3   OH210325   1.486   2.936   2.387  0.0037  0.2547 -0.2354
 3468TIP3    H110326   1.484   2.987   2.306 -0.2020  0.0226 -0.3771
 3468TIP3    H210327   1.395   2.927   2.412  0.0510  0.0998 -0.1205
 3469TIP3   OH210328   3.020   3.756   4.487  0.3775 -0.1922  0.0642
 3469TIP3    H110329   3.103   3.754   4.535  0.0248 -0.8636  0.6435
 3469TIP3    H210330   2.971   3.681   4.520 -0.6382  0.4535  0.0254
 3470TIP3   OH210331   7.094   4.001   2.353  0.4055  0.2113  0.1310
 3470TIP3    H110332   7.154   3.931   2.328 -0.5036 -1.7110  2.9958
 3470TIP3    H210333   7.108   4.012   2.447 -3.6127 -0.2496  0.8755
 3471TIP3   OH210334   2.097   3.326   3.346 -0.0858 -0.2398  0.3095
 3471TIP3    H110335   2.100   3.313   3.441 -1.7380 -2.5033  0.1147
 3471TIP3    H210336   2.173   3.279   3.313 -1.0255 -1.8147  0.3295
 3472TIP3   OH210337   1.900   6.542   2.241  0.0632 -0.1360 -0.2748
 3472TIP3    H110338   1.919   6.629   2.207  0.1453 -0.6976 -1.6805
 3472TIP3    H210339   1.828   6.556   2.303  0.0115  0.9124 -0.5651
 3473TIP3   OH210340   1.417   2.294   1.831 -0.3605 -0.1804 -0.3105
 3473TIP3    H110341   1.460   2.370   1.871 -0.8754 -0.0449 -0.0096
 3473TIP3    H210342   1.325   2.300   1.859 -1.0425  0.6771 -2.6456
 3474TIP3   OH210343   2.019   5.358   2.430 -0.0168 -0.3118 -0.0489
 3474TIP3    H110344   1.949   5.372   2.493 -0.9558 -0.0104 -1.1330
 3474TIP3    H210345   2.062   5.443   2.423 -0.0795 -0.2771 -0.0128
 3475TIP3   OH210346   0.921   4.326   2.700 -0.0669 -0.1811 -0.1981
 3475TIP3    H110347   0.894   4.288   2.784 -1.2857  1.0101 -0.0303
 3475TIP3    H210348   0.944   4.251   2.646 -0.3819 -1.0338  0.8352
 3476TIP3   OH210349   2.837   5.526   3.625  0.3521  0.1339  0.1662
 3476TIP3    H110350   2.891   5.474   3.566 -0.8272  1.1754 -1.8499
 3476TIP3    H210351   2.761   5.470   3.643  0.4220  0.0657  0.2595
 3477TIP3   OH210352   3.032   3.302   5.021  0.1411 -1.1789  0.0402
 3477TIP3    H110353   2.942   3.274   5.035  0.5179 -2.5216 -0.1640
 3477TIP3    H210354   3.028   3.359   4.945 -0.5135 -1.3256 -0.0382
 3478TIP3   OH210355   1.404   4.413   2.641  0.0047 -0.6582 -0.0387
 3478TIP3    H110356   1.484   4.462   2.661  0.1320 -0.7127 -0.4038
 3478TIP3    H210357   1.425   4.367   2.560  0.4733 -2.6421  1.1910
 3479TIP3   OH210358   2.146   2.174   3.597 -0.0031  0.2729  0.0491
 3479TIP3    H110359   2.238   2.147   3.605  0.0835  0.9339  1.2405
 3479TIP3    H210360   2.143   2.224   3.515  0.0996 -2.2037 -1.5203
 3480TIP3   OH210361   3.769   2.919   2.029  0.2561  0.2745 -0.0444
 3480TIP3    H110362   3.842   2.916   1.966 -0.5266 -1.3039 -0.9151
 3480TIP3    H210363   3.691   2.916   1.975 -0.4324 -2.7693  1.0168
 3481TIP3   OH210364   2.590   2.906   2.513 -0.0814  0.1964 -1.2183
 3481TIP3    H110365   2.522   2.910   2.445  0.2891 -3.4719 -1.8939
 3481TIP3    H210366   2.671   2.928   2.466 -0.2059  0.4954 -1.2999
 3482TIP3   OH210367   2.885   4.170   4.282  0.2638  0.3347  0.2725
 3482TIP3    H110368   2.845   4.255   4.262  0.0314  0.2099  0.2029
 3482TIP3    H210369   2.871   4.118   4.203  1.1093  0.4883  0.0214
 3483TIP3   OH210370   3.442   3.465   1.559 -0.1023  0.3828  0.0870
 3483TIP3    H110371   3.439   3.506   1.645 -2.5082  0.1530  0.1614
 3483TIP3    H210372   3.353   3.475   1.524  0.6777 -0.0289 -2.1317
 3484TIP3   OH210373   1.213   5.150   5.687 -0.2655 -0.1534  0.9878
 3484TIP3    H110374   1.226   5.207   5.611 -3.0868 -0.9661 -0.1592
 3484TIP3    H210375   1.163   5.203   5.749  1.5736  0.3272  2.0970
 3485TIP3   OH210376   3.223   2.933   2.106 -0.5995 -0.7021 -0.4211
 3485TIP3    H110377   3.267   3.004   2.060  0.6110  0.4973  2.4518
 3485TIP3    H210378   3.137   2.969   2.129 -1.0161 -1.1267 -1.3004
 3486TIP3   OH210379   4.307   2.841   3.855 -0.2371 -0.1283 -0.2123
 3486TIP3    H110380   4.235   2.896   3.885  1.0617  1.8400 -0.5942
 3486TIP3    H210381   4.309   2.768   3.917 -1.9129  0.3128  0.3847
 3487TIP3   OH210382   2.580   4.031   3.911  0.1253  0.1435 -0.2188
 3487TIP3    H110383   2.558   4.054   3.821  1.0663  1.5415 -0.1050
 3487TIP3    H210384   2.509   4.069   3.963 -0.6741 -1.0767 -0.3957
 3488TIP3   OH210385   1.151   4.686   2.974  0.1373 -0.2480 -0.1293
 3488TIP3    H110386   1.170   4.628   2.900  1.4871  0.1986 -0.1672
 3488TIP3    H210387   1.238   4.715   3.003 -0.4593  0.7301  0.6934
 3489TIP3   OH210388   7.800   3.733   4.783 -0.5361 -0.0590 -0.0729
 3489TIP3    H110389   7.810   3.647   4.825 -3.0387  0.1802  1.0747
 3489TIP3    H210390   7.781   3.713   4.692  1.1860 -0.6547 -0.3252
 3490TIP3   OH210391   0.090   5.598   0.222 -0.3992 -0.7582 -0.0181
 3490TIP3    H110392  -0.002   5.581   0.239 -0.1461 -1.2545  0.8520
 3490TIP3    H210393   0.107   5.557   0.137 -1.0816 -0.2700 -0.4028
 3491TIP3   OH210394   4.099   3.107   1.720 -0.9405  0.3522  0.0343
 3491TIP3    H110395   4.185   3.106   1.677 -1.7886  0.4388 -1.7007
 3491TIP3    H210396   4.100   3.186   1.774 -1.6810  3.0841 -3.7098
 3492TIP3   OH210397   2.546   3.797   4.115 -0.0881 -0.6973  0.6839
 3492TIP3    H110398   2.525   3.730   4.051 -2.0183 -0.3967  0.9646
 3492TIP3    H210399   2.576   3.871   4.063  0.6366 -1.2794  0.2774
 3493TIP3   OH210400   0.725   2.587   3.746  0.3617  0.2426 -0.1813
 3493TIP3    H110401   0.793   2.577   3.679  3.0505  0.8070  2.3791
 3493TIP3    H210402   0.734   2.677   3.776 -1.3018  0.2043  0.4586
 3494TIP3   OH210403   2.887   3.535   4.641  0.6367 -0.4566  0.0216
 3494TIP3    H110404   2.797   3.534   4.675  0.8986  0.9800  0.8342
 3494TIP3    H210405   2.891   3.463   4.579 -0.9741 -0.7692  0.2669
 3495TIP3   OH210406   1.752   2.570   3.257  0.0044 -0.0999  0.7566
 3495TIP3    H110407   1.712   2.518   3.187  1.6337  0.7639 -0.8729
 3495TIP3    H210408   1.725   2.526   3.338 -1.8843 -1.1502 -0.4011
 3496TIP3   OH210409   2.365   1.879   1.121 -0.2745 -0.1504 -0.1037
 3496TIP3    H110410   2.406   1.941   1.061 -0.8370 -0.8947 -1.2755
 3496TIP3    H210411   2.385   1.793   1.084  1.7543 -0.7888  2.2839
 3497TIP3   OH210412   3.149   3.650   2.091  0.0294  0.0568 -0.3506
 3497TIP3    H110413   3.108   3.585   2.148  0.1867 -0.9294 -1.3312
 3497TIP3    H210414   3.235   3.666   2.129 -0.0932 -0.1420  0.0116
 3498TIP3   OH210415   2.365   3.284   3.256  0.3808  0.2136 -0.2146
 3498TIP3    H110416   2.404   3.357   3.303 -0.0208  0.0107  0.4380
 3498TIP3    H210417   2.387   3.300   3.164  1.1652  0.6050  0.0422
 3499TIP3   OH210418   3.770   4.272   2.513  0.2927  0.2818  0.0754
 3499TIP3    H110419   3.696   4.246   2.458  0.7574  0.4297 -0.6257
 3499TIP3    H210420   3.743   4.355   2.553 -0.7120 -0.6626  1.3776
 3500TIP3   OH210421   0.997   4.339   2.162 -0.0418 -0.7743  0.0703
 3500TIP3    H110422   1.042   4.265   2.122 -0.9789 -0.7914 -1.0098
 3500TIP3    H210423   0.930   4.299   2.217 -0.8614 -0.7530 -0.8845
 3501TIP3   OH210424   2.732   4.688   2.295 -0.1958 -0.1077 -0.1955
 3501TIP3    H110425   2.789   4.756   2.331 -0.1489 -0.0783 -0.3277
 3501TIP3    H210426   2.781   4.607   2.306  0.6532  0.1535 -2.0302
 3502TIP3   OH210427   2.187   6.207   4.162 -0.5824 -0.1180 -0.0437
 3502TIP3    H110428   2.107   6.254   4.183 -0.7067  0.2995 -1.4091
 3502TIP3    H210429   2.159   6.133   4.108 -0.1758 -0.6224  0.4291
 3503TIP3   OH210430   0.510   4.485   1.928 -0.1004  0.4646 -0.3912
 3503TIP3    H110431   0.522   4.490   1.833  0.6466 -2.7993 -0.5307
 3503TIP3    H210432   0.570   4.415   1.955 -1.3504  0.4117  2.2926
 3504TIP3   OH210433   1.190   2.658   3.786  0.4817  0.1260 -0.8043
 3504TIP3    H110434   1.236   2.599   3.846  0.6232 -3.2517 -4.0591
 3504TIP3    H210435   1.235   2.742   3.796  2.6699 -1.2237  1.3102
 3505TIP3   OH210436   2.083   4.345   4.246 -0.3498 -0.6288  0.6989
 3505TIP3    H110437   2.003   4.363   4.295 -1.0102 -1.8091  0.0885
 3505TIP3    H210438   2.094   4.250   4.252  2.4018 -0.2527  2.9116
 3506TIP3   OH210439   3.019   4.803   4.026 -0.2410  0.5459 -0.0090
 3506TIP3    H110440   2.977   4.725   4.061  1.3227 -0.3453 -0.0649
 3506TIP3    H210441   3.113   4.786   4.036  0.2076  1.0353 -2.9377
 3507TIP3   OH210442   1.449   1.572   2.719  0.1299 -0.6031  0.2029
 3507TIP3    H110443   1.534   1.581   2.762  1.3096  3.2623 -2.6436
 3507TIP3    H210444   1.387   1.611   2.781  1.3126  1.7548 -0.0373
 3508TIP3   OH210445   2.061   3.055   2.370 -0.0289 -0.0490 -0.3481
 3508TIP3    H110446   2.062   3.102   2.286 -0.5905  0.2521 -0.1877
 3508TIP3    H210447   1.972   3.068   2.404  0.6349  1.0523  0.9904
 3509TIP3   OH210448   2.204   4.613   2.652 -0.5677 -0.1639  0.5195
 3509TIP3    H110449   2.111   4.610   2.633 -0.3479  2.6643 -1.1843
 3509TIP3    H210450   2.210   4.660   2.735 -0.6316 -0.1371  0.5091
 3510TIP3   OH210451   1.989   4.337   3.858  0.1696  0.0866 -0.1245
 3510TIP3    H110452   2.019   4.399   3.925  2.6840 -2.6174  1.3685
 3510TIP3    H210453   2.050   4.349   3.785  0.9275 -0.8936  0.3375
 3511TIP3   OH210454   2.612   1.521   4.352  0.1890 -0.2527 -0.3932
 3511TIP3    H110455   2.653   1.489   4.433 -0.4113 -0.2304 -0.0786
 3511TIP3    H210456   2.527   1.478   4.350 -0.6568  1.3563  0.0595
 3512TIP3   OH210457   8.836   3.719   2.526 -0.7550  0.2085  0.3108
 3512TIP3    H110458   8.844   3.784   2.456 -0.9899 -0.0596  0.0357
 3512TIP3    H210459   8.767   3.660   2.496 -0.1029 -0.5400  0.2625
 3513TIP3   OH210460   2.168   3.729   2.561  0.4054 -0.4236  0.4348
 3513TIP3    H110461   2.134   3.641   2.544 -1.9088  0.0071  2.4804
 3513TIP3    H210462   2.200   3.725   2.651 -1.6973  1.3579  1.3155
 3514TIP3   OH210463   0.435   3.197   4.094 -0.2223  0.4432 -0.1127
 3514TIP3    H110464   0.406   3.288   4.094  2.7006  1.4238 -0.8899
 3514TIP3    H210465   0.501   3.193   4.163 -1.1164 -1.4061  0.6824
 3515TIP3   OH210466   1.790   4.589   1.845 -0.0879 -0.2855  0.3526
 3515TIP3    H110467   1.815   4.503   1.812  1.9162  1.0901 -1.8426
 3515TIP3    H210468   1.696   4.581   1.862 -0.1932 -2.5301 -1.0325
 3516TIP3   OH210469   2.926   5.223   4.427  0.3243  0.1745 -0.0909
 3516TIP3    H110470   3.012   5.240   4.467  0.9405 -0.1225 -1.2741
 3516TIP3    H210471   2.916   5.291   4.361  0.3146 -0.6691 -0.9761
 3517TIP3   OH210472   3.079   4.839   1.969  0.0302  0.0999 -0.0428
 3517TIP3    H110473   3.140   4.770   1.943  0.9901  0.8062  0.3156
 3517TIP3    H210474   2.995   4.811   1.933  0.5875 -0.8182 -0.6536
 3518TIP3   OH210475   1.603   1.371   5.036 -0.1798 -0.4502  0.2338
 3518TIP3    H110476   1.510   1.395   5.029 -0.2328 -0.1478  1.8692
 3518TIP3    H210477   1.602   1.275   5.040 -0.3857 -0.4669 -0.1366
 3519TIP3   OH210478   8.731   3.222   3.623 -0.1831  0.3365 -0.4379
 3519TIP3    H110479   8.667   3.285   3.590 -0.7636  0.3568  0.7346
 3519TIP3    H210480   8.773   3.266   3.696 -1.5520 -1.1409  1.2801
 3520TIP3   OH210481   2.209   5.090   1.597 -0.0965 -0.2558  0.6490
 3520TIP3    H110482   2.229   4.999   1.580 -0.7248 -0.6772  2.0838
 3520TIP3    H210483   2.267   5.115   1.669 -1.3101 -0.1180  1.6038
 3521TIP3   OH210484   3.300   2.629   1.359 -0.1859  0.4110 -0.4325
 3521TIP3    H110485   3.377   2.672   1.323 -0.2696  1.5861  0.7789
 3521TIP3    H210486   3.314   2.536   1.340  1.7027  0.5666  0.0794
 3522TIP3   OH210487   2.027   3.302   4.334  0.1987  0.4869  0.6521
 3522TIP3    H110488   2.010   3.243   4.408  1.1644  0.1339  0.6083
 3522TIP3    H210489   1.944   3.308   4.288 -0.1077 -0.2355  1.1001
 3523TIP3   OH210490   0.490   4.228   3.317  0.4154  0.0414  0.3479
 3523TIP3    H110491   0.479   4.201   3.226 -1.0159 -1.2735  0.9051
 3523TIP3    H210492   0.487   4.147   3.367  1.2805  0.7478  1.5836
 3524TIP3   OH210493   2.622   2.311   2.835 -0.4068 -0.7830 -0.2386
 3524TIP3    H110494   2.618   2.221   2.802  1.4077 -0.6266 -0.9811
 3524TIP3    H210495   2.684   2.354   2.776 -0.9191  0.8359  0.3954
 3525TIP3   OH210496   2.406   2.638   2.882  0.7761 -0.1813 -0.0959
 3525TIP3    H110497   2.385   2.562   2.827 -0.5154 -0.6289  0.9988
 3525TIP3    H210498   2.477   2.608   2.939 -0.1550 -0.7611  0.7580
 3526TIP3   OH210499   4.005   3.361   5.226  0.3007  0.0521  0.0220
 3526TIP3    H110500   4.069   3.369   5.156  0.4104 -1.6682 -0.0991
 3526TIP3    H210501   4.032   3.425   5.291  1.0437  0.6533 -0.8722
 3527TIP3   OH210502   2.787   5.438   2.602 -0.3748 -0.3801  0.0479
 3527TIP3    H110503   2.753   5.491   2.530 -1.3887  0.8996  1.4267
 3527TIP3    H210504   2.879   5.462   2.609 -0.2418 -0.6083 -0.9063
 3528TIP3   OH210505   0.180   4.564   1.368 -0.3193  0.1217  0.2131
 3528TIP3    H110506   0.122   4.523   1.433 -0.5475  0.3306  0.1405
 3528TIP3    H210507   0.138   4.647   1.347 -0.7181 -0.3503 -0.8862
 3529TIP3   OH210508   2.011   2.112   2.532  0.2605 -0.0874  0.0158
 3529TIP3    H110509   2.015   2.187   2.472 -2.8149  0.4802  0.4359
 3529TIP3    H210510   2.019   2.035   2.476  1.4083  0.4969 -0.6445
 3530TIP3   OH210511   0.865   2.976   2.940 -0.4787 -0.4182 -0.4162
 3530TIP3    H110512   0.778   2.996   2.973  0.4659  1.0043  1.2845
 3530TIP3    H210513   0.858   2.989   2.845 -2.4934 -1.8655 -0.5073
 3531TIP3   OH210514   2.265   5.166   3.205 -0.2298  0.2703 -0.7543
 3531TIP3    H110515   2.218   5.183   3.287 -0.1069  2.4302 -1.1138
 3531TIP3    H210516   2.355   5.195   3.223  0.7618 -2.7747 -0.4455
 3532TIP3   OH210517   1.952   3.808   4.273 -0.1291 -0.7276 -0.0977
 3532TIP3    H110518   1.954   3.746   4.201  1.0662  1.6357 -2.1857
 3532TIP3    H210519   1.863   3.802   4.307 -0.6360 -2.0811 -1.5727
 3533TIP3   OH210520   3.214   4.480   2.920 -0.6884 -0.4339 -0.3463
 3533TIP3    H110521   3.243   4.458   3.009 -0.0382 -1.1334 -0.7358
 3533TIP3    H210522   3.249   4.567   2.904  0.3226 -0.8579 -0.4282
 3534TIP3   OH210523   1.167   2.688   5.423 -0.0743 -0.0606 -0.0640
 3534TIP3    H110524   1.243   2.728   5.380 -0.0577  0.5140  0.4883
 3534TIP3    H210525   1.205   2.628   5.488 -0.0814  0.3856  0.3602
 3535TIP3   OH210526   2.871   2.710   5.278  0.1403  0.2670 -0.3248
 3535TIP3    H110527   2.782   2.692   5.309  0.3187 -0.5258 -0.2645
 3535TIP3    H210528   2.920   2.729   5.358  0.3368 -0.6374 -0.2320
 3536TIP3   OH210529   3.142   4.768   3.258  0.0937  0.2242  0.4143
 3536TIP3    H110530   3.202   4.827   3.303  0.3489  0.2702  0.0083
 3536TIP3    H210531   3.191   4.687   3.249  0.1955  0.3569 -0.1856
 3537TIP3   OH210532   1.448   2.411   1.362  0.5133  0.2966 -0.0525
 3537TIP3    H110533   1.366   2.374   1.329 -0.1437 -0.8864  2.8023
 3537TIP3    H210534   1.449   2.500   1.326 -2.0100  0.3203 -0.1994
 3538TIP3   OH210535   0.434   4.129   1.690 -0.0743 -0.4747  0.0790
 3538TIP3    H110536   0.407   4.039   1.706  0.3340 -0.8372 -1.1706
 3538TIP3    H210537   0.361   4.167   1.641 -0.8355  0.2864  1.7730
 3539TIP3   OH210538   1.176   3.016   2.632  0.7617  0.0643  0.6572
 3539TIP3    H110539   1.139   3.103   2.645  0.3501  0.3709 -2.2673
 3539TIP3    H210540   1.104   2.956   2.654 -0.0586  0.5572 -0.6347
 3540TIP3   OH210541   0.095   2.668   2.521 -0.3576  0.2593 -0.2835
 3540TIP3    H110542   0.035   2.676   2.447 -0.7385 -1.5747 -0.1943
 3540TIP3    H210543   0.177   2.708   2.490 -0.3115 -1.0760 -1.9507
 3541TIP3   OH210544   8.779   3.348   4.527  0.4720  0.1414  0.1638
 3541TIP3    H110545   8.686   3.368   4.542  0.2758 -1.3035  0.9857
 3541TIP3    H210546   8.778   3.271   4.471  1.1925  0.7001 -0.6272
 3542TIP3   OH210547   1.492   2.341   4.205 -0.1606 -0.2583  0.8861
 3542TIP3    H110548   1.538   2.259   4.187 -0.1925  0.4180 -2.7009
 3542TIP3    H210549   1.400   2.316   4.213 -0.1378 -0.6353  0.0453
 3543TIP3   OH210550   1.423   2.097   2.375  0.0053  0.4391  0.8983
 3543TIP3    H110551   1.401   2.056   2.459  0.2333 -1.1423  0.2024
 3543TIP3    H210552   1.517   2.082   2.365  0.2289  1.7333  0.9307
 3544TIP3   OH210553   1.182   4.131   4.147 -1.1051  0.0796  0.5199
 3544TIP3    H110554   1.220   4.219   4.157  2.1408 -1.1232 -0.4776
 3544TIP3    H210555   1.155   4.127   4.056 -0.1430 -0.3214  0.2385
 3545TIP3   OH210556   1.331   3.611   3.506  0.2253  0.4948  0.6305
 3545TIP3    H110557   1.407   3.559   3.533  0.4183 -0.4660 -1.7176
 3545TIP3    H210558   1.360   3.658   3.428 -0.9576  1.6982  0.9042
 3546TIP3   OH210559   1.961   2.275   3.299 -0.1051  0.5973 -0.0361
 3546TIP3    H110560   1.921   2.305   3.217 -1.4343  0.0518  0.3882
 3546TIP3    H210561   2.055   2.278   3.283 -0.3097  1.9632 -1.0588
 3547TIP3   OH210562   2.000   2.358   3.034  0.1791  0.2918 -0.9530
 3547TIP3    H110563   1.915   2.342   2.993  1.0585 -1.9341 -1.9570
 3547TIP3    H210564   2.051   2.280   3.015  2.4606  1.5888 -0.3391
 3548TIP3   OH210565   0.944   3.455   4.681  0.3157  0.0554 -0.3215
 3548TIP3    H110566   0.971   3.489   4.766 -0.1260 -1.5772  0.4875
 3548TIP3    H210567   0.854   3.485   4.670  0.9978  1.9238 -1.1266
 3549TIP3   OH210568   3.428   0.987   3.364  0.2098 -0.2328 -0.4391
 3549TIP3    H110569   3.428   0.932   3.285  1.0189  0.1689 -0.7209
 3549TIP3    H210570   3.497   1.051   3.349  0.0689  0.1268  0.4104
 3550TIP3   OH210571   3.185   5.213   2.933  1.1708 -0.1012  0.1534
 3550TIP3    H110572   3.163   5.206   2.840 -0.8269  3.0128  0.3285
 3550TIP3    H210573   3.272   5.254   2.933  1.8422 -1.4803 -0.3308
 3551TIP3   OH210574   2.078   3.742   3.414 -1.0814 -0.4477  0.1043
 3551TIP3    H110575   2.034   3.658   3.420 -0.4106 -0.7662  0.6420
 3551TIP3    H210576   2.007   3.805   3.400 -1.4337 -1.2791 -2.0092
 3552TIP3   OH210577   3.232   4.988   4.230 -0.2731 -0.2884  0.2201
 3552TIP3    H110578   3.187   5.037   4.161 -0.1701 -0.6836 -0.1265
 3552TIP3    H210579   3.164   4.933   4.268 -0.6548  0.9334  1.3656
 3553TIP3   OH210580   1.288   4.451   2.123  0.0099  0.6893 -0.2613
 3553TIP3    H110581   1.280   4.381   2.058  0.5966  0.9707 -0.6352
 3553TIP3    H210582   1.211   4.507   2.107  0.6759  1.3052 -1.3758
 3554TIP3   OH210583   2.592   2.587   2.311  0.2622  0.0862  0.0066
 3554TIP3    H110584   2.520   2.526   2.326 -1.1291  1.4438 -1.0493
 3554TIP3    H210585   2.617   2.616   2.399 -2.2171  1.5668  0.2492
 3555TIP3   OH210586   1.716   3.322   2.345 -0.3004 -0.0971 -0.0361
 3555TIP3    H110587   1.808   3.340   2.364 -0.3110 -0.3504  0.2510
 3555TIP3    H210588   1.676   3.304   2.430 -0.5653 -0.2177 -0.1836
 3556TIP3   OH210589   2.164   4.477   3.656 -0.5418 -0.2458 -0.1959
 3556TIP3    H110590   2.092   4.519   3.608  0.0430  0.3201 -0.5950
 3556TIP3    H210591   2.208   4.549   3.701 -0.4277 -0.6329  0.3065
 3557TIP3   OH210592   0.110   3.407   4.678  0.0777  0.7785 -0.2689
 3557TIP3    H110593   0.036   3.369   4.631  0.3225  0.1474 -0.1502
 3557TIP3    H210594   0.181   3.406   4.614  0.2334  0.5219 -0.0936
 3558TIP3   OH210595   0.374   3.386   2.049 -0.3796 -0.4882 -0.4147
 3558TIP3    H110596   0.423   3.427   2.121  1.2070 -0.2252 -1.5993
 3558TIP3    H210597   0.355   3.297   2.080  0.8604 -0.5900  0.1005
 3559TIP3   OH210598   3.594   5.133   3.355 -0.5108 -0.7845 -0.6480
 3559TIP3    H110599   3.661   5.088   3.303  0.7211  0.0437  0.1906
 3559TIP3    H210600   3.593   5.222   3.320  0.8821  0.0008  1.2447
 3560TIP3   OH210601   3.658   2.122   2.954  0.0130  0.2244  0.1284
 3560TIP3    H110602   3.735   2.177   2.966  0.3078  0.3401 -2.0984
 3560TIP3    H210603   3.595   2.153   3.019  0.7388  2.1760 -0.0922
 3561TIP3   OH210604   2.717   5.873   0.870 -0.1201 -0.0835 -0.4464
 3561TIP3    H110605   2.709   5.798   0.930 -0.4654 -0.2785 -0.7285
 3561TIP3    H210606   2.635   5.921   0.881 -0.1117 -0.0252 -0.6367
 3562TIP3   OH210607   2.633   4.283   1.624 -0.0497  0.6472  0.0170
 3562TIP3    H110608   2.547   4.324   1.611 -0.2831  0.0362 -0.4267
 3562TIP3    H210609   2.628   4.244   1.711 -0.8993 -0.9595 -0.7193
 3563TIP3   OH210610   1.538   3.670   5.467 -0.4904 -0.2249 -0.2054
 3563TIP3    H110611   1.466   3.607   5.475 -1.3123  0.5504 -1.2837
 3563TIP3    H210612   1.511   3.744   5.522  0.4634 -0.7981  1.0450
 3564TIP3   OH210613   8.119   3.238   1.936 -0.7430  0.5200  0.5396
 3564TIP3    H110614   8.045   3.289   1.906 -0.0998  2.1924  1.7033
 3564TIP3    H210615   8.121   3.252   2.031 -0.6476 -1.8027  0.9100
 3565TIP3   OH210616   1.111   2.067   3.159  0.3003 -0.0768 -0.0923
 3565TIP3    H110617   1.082   1.977   3.178  1.5507 -0.5374 -0.3772
 3565TIP3    H210618   1.031   2.119   3.168 -0.8805 -1.4967 -1.9738
 3566TIP3   OH210619   1.846   3.097   3.325 -0.1319 -0.7613  0.4564
 3566TIP3    H110620   1.871   3.005   3.315  0.0866 -0.7502  0.8648
 3566TIP3    H210621   1.917   3.146   3.283 -0.3593 -0.7878  0.0443
 3567TIP3   OH210622   1.699   4.481   3.700  0.0944  0.5428  0.0798
 3567TIP3    H110623   1.783   4.491   3.747  0.0463  0.0833  0.2683
 3567TIP3    H210624   1.720   4.503   3.609  0.3653  0.6786  0.1734
 3568TIP3   OH210625   0.170   2.649   6.416  0.2481 -0.1732 -0.1832
 3568TIP3    H110626   0.207   2.737   6.409 -2.2829  1.0145  0.7902
 3568TIP3    H210627   0.129   2.635   6.330 -0.1610 -0.0132 -0.0147
 3569TIP3   OH210628   8.602   2.369   3.116 -0.1058  0.2215 -0.0750
 3569TIP3    H110629   8.580   2.341   3.027 -0.2862  0.1458 -0.0062
 3569TIP3    H210630   8.519   2.396   3.154 -0.5703 -2.8128  1.1701
 3570TIP3   OH210631   2.189   4.758   2.933 -0.3178  0.0085  0.3522
 3570TIP3    H110632   2.196   4.794   3.021 -0.2084 -0.7820  0.6740
 3570TIP3    H210633   2.191   4.834   2.875 -0.7186  0.5550  1.0499
 3571TIP3   OH210634   4.121   4.287   0.693  0.0887 -0.1322 -0.3209
 3571TIP3    H110635   4.047   4.345   0.683 -0.4790 -0.6232  0.9386
 3571TIP3    H210636   4.174   4.301   0.614 -1.8590 -0.5512 -1.7318
 3572TIP3   OH210637   0.097   2.562   4.315  0.2756  0.1468  0.1764
 3572TIP3    H110638   0.193   2.566   4.311  0.2704 -0.0462 -0.1630
 3572TIP3    H210639   0.068   2.645   4.278  0.2862 -0.3757 -1.0141
 3573TIP3   OH210640   0.982   3.249   2.271  0.2835  0.0125 -0.0451
 3573TIP3    H110641   1.065   3.234   2.315  0.8001  0.5571 -0.8304
 3573TIP3    H210642   1.004   3.301   2.194 -0.7106 -0.2718 -0.5365
 3574TIP3   OH210643   2.631   4.458   1.092  0.2179 -0.3809 -0.0112
 3574TIP3    H110644   2.675   4.465   1.177  0.1432  0.5123 -0.0401
 3574TIP3    H210645   2.675   4.522   1.036  1.1949 -1.9499 -1.0693
 3575TIP3   OH210646   1.263   2.947   1.574 -0.2096  0.3426  0.4511
 3575TIP3    H110647   1.335   2.995   1.615  0.1783 -1.0535  1.4472
 3575TIP3    H210648   1.230   2.890   1.643 -1.1793 -0.2517 -0.4891
 3576TIP3   OH210649   7.676   3.450   2.310  0.1129 -0.1811 -0.8132
 3576TIP3    H110650   7.737   3.383   2.279 -0.5909 -0.9097 -0.6467
 3576TIP3    H210651   7.638   3.413   2.390 -0.8880  0.0517 -1.1631
 3577TIP3   OH210652   2.726   1.206   2.769  0.1647 -0.4005 -0.1551
 3577TIP3    H110653   2.634   1.187   2.753 -0.2904  0.2220  1.5437
 3577TIP3    H210654   2.734   1.206   2.865  1.6063  1.0393 -0.2443
 3578TIP3   OH210655   2.793   4.970   2.048 -0.0373  0.1355  0.0321
 3578TIP3    H110656   2.847   5.046   2.071 -0.1116 -0.1667  1.2362
 3578TIP3    H210657   2.703   5.001   2.062 -0.1022  0.0813 -0.2696
 3579TIP3   OH210658   0.897   1.975   3.807 -0.2006 -0.0705 -0.4089
 3579TIP3    H110659   0.881   2.038   3.877  0.8898  1.7101 -1.7333
 3579TIP3    H210660   0.982   1.937   3.828  0.1119  0.4402 -0.7559
 3580TIP3   OH210661   2.679   2.699   1.863 -0.0766 -0.3927  0.3906
 3580TIP3    H110662   2.642   2.731   1.944  0.0981  2.4890 -0.6340
 3580TIP3    H210663   2.610   2.644   1.825 -1.5516  1.1779  0.7447
 3581TIP3   OH210664   1.978   3.485   1.027  0.2018 -0.3248  0.3341
 3581TIP3    H110665   1.970   3.415   0.963 -1.0291 -1.2130  1.4233
 3581TIP3    H210666   1.986   3.440   1.111  0.3029  0.8318  0.9555
 3582TIP3   OH210667   3.539   2.776   3.936  0.0579  0.0543  0.2819
 3582TIP3    H110668   3.582   2.785   4.021  2.6810 -0.5852 -0.9209
 3582TIP3    H210669   3.610   2.786   3.872 -1.7854  0.0771 -1.8247
 3583TIP3   OH210670   1.459   3.087   2.148 -0.1778  0.8062 -0.2876
 3583TIP3    H110671   1.390   3.048   2.094 -0.1693  1.0373 -0.4692
 3583TIP3    H210672   1.436   3.179   2.153 -0.6084  0.6399  0.7766
 3584TIP3   OH210673   1.237   4.151   0.669  0.4289  0.4266 -0.0266
 3584TIP3    H110674   1.215   4.181   0.580  0.4241  0.7660  0.0882
 3584TIP3    H210675   1.153   4.128   0.708  0.5397 -0.8449 -0.5098
 3585TIP3   OH210676   0.472   4.275   1.235  0.0786  0.8550 -0.5774
 3585TIP3    H110677   0.449   4.322   1.315  1.6000 -1.1436  1.0696
 3585TIP3    H210678   0.395   4.221   1.215  0.4865 -0.2111  0.7144
 3586TIP3   OH210679   2.539   3.520   4.092 -0.5860  0.0215  0.5265
 3586TIP3    H110680   2.622   3.503   4.047 -1.2397 -0.3756 -0.5648
 3586TIP3    H210681   2.564   3.554   4.177  0.6971  0.7905 -0.1397
 3587TIP3   OH210682   2.287   2.870   4.540  0.2520 -0.2562 -0.1459
 3587TIP3    H110683   2.322   2.882   4.452  1.3804  2.8316  0.6715
 3587TIP3    H210684   2.198   2.837   4.525  0.7533 -0.7157 -2.3955
 3588TIP3   OH210685   0.703   2.912   3.708 -0.3375 -0.3274 -0.2930
 3588TIP3    H110686   0.643   2.928   3.781 -0.3657 -1.9827  0.0735
 3588TIP3    H210687   0.742   2.997   3.690 -1.2046  0.3365  0.8851
 3589TIP3   OH210688   1.031   4.455   4.035  0.6187  0.3668 -0.0444
 3589TIP3    H110689   1.123   4.430   4.044  0.8704  0.5944 -1.8246
 3589TIP3    H210690   1.032   4.550   4.023  0.2749  0.1968 -1.5411
 3590TIP3   OH210691   2.570   5.873   4.035 -0.7838 -0.1678  0.1755
 3590TIP3    H110692   2.509   5.929   4.083 -1.6815 -2.5560  1.9565
 3590TIP3    H210693   2.522   5.848   3.956 -1.1810 -0.0711  0.3843
 3591TIP3   OH210694   2.388   3.707   3.468  0.7571  0.2274 -0.2275
 3591TIP3    H110695   2.342   3.761   3.405 -0.1841  0.8983  1.0041
 3591TIP3    H210696   2.374   3.751   3.552  3.3545  0.2478  0.2195
 3592TIP3   OH210697   8.807   3.485   3.393 -0.1352  0.1356 -0.1893
 3592TIP3    H110698   8.887   3.448   3.431 -0.2954 -1.5443 -1.3935
 3592TIP3    H210699   8.744   3.413   3.396 -1.7380  1.5575  1.0967
 3593TIP3   OH210700   1.058   2.047   4.207 -0.2496  0.0795  0.1179
 3593TIP3    H110701   0.997   1.974   4.206  0.8115 -0.7968 -0.6794
 3593TIP3    H210702   1.143   2.009   4.185  0.1730  1.6759 -1.0885
 3594TIP3   OH210703   3.998   2.120   3.601 -0.4023 -0.5838  0.1198
 3594TIP3    H110704   4.040   2.204   3.580 -0.2099 -1.2084 -2.1017
 3594TIP3    H210705   4.020   2.105   3.693 -0.6002  1.8862  0.6009
 3595TIP3   OH210706   1.272   4.464   1.368  0.0223  0.1633 -0.0709
 3595TIP3    H110707   1.271   4.467   1.272 -2.4958  1.3554 -0.0359
 3595TIP3    H210708   1.312   4.546   1.395  0.5065 -0.0662 -0.0693
 3596TIP3   OH210709   2.391   3.147   3.576  0.0250 -0.0435 -0.3040
 3596TIP3    H110710   2.471   3.149   3.523  0.3318 -1.4635  0.0795
 3596TIP3    H210711   2.320   3.135   3.513  0.2355 -0.0888 -0.5327
 3597TIP3   OH210712   1.936   4.401   2.694  0.1922  0.5755  0.9176
 3597TIP3    H110713   1.856   4.399   2.746  0.3362 -0.2007  1.1132
 3597TIP3    H210714   1.999   4.349   2.744 -0.3128 -2.0225 -1.0493
 3598TIP3   OH210715   1.090   4.833   4.191 -0.4840  0.6479  0.4800
 3598TIP3    H110716   1.033   4.909   4.190 -1.5316 -0.1015 -1.6528
 3598TIP3    H210717   1.083   4.797   4.102  2.1851 -0.2970  0.6036
 3599TIP3   OH210718   4.460   4.889   7.186 -0.5415 -0.3524  0.4351
 3599TIP3    H110719   4.402   4.894   7.262 -0.7494 -1.0349  0.3262
 3599TIP3    H210720   4.400   4.882   7.111 -0.3353  0.1210  0.2273
 3600TIP3   OH210721   3.444   3.223   4.771 -0.4297  0.6315 -0.2713
 3600TIP3    H110722   3.533   3.196   4.748 -0.5872 -0.5169  0.4072
 3600TIP3    H210723   3.388   3.171   4.713 -0.6440  1.7988 -1.1183
 3601TIP3   OH210724   0.524   3.883   1.219  0.2187  0.0568  0.1494
 3601TIP3    H110725   0.449   3.838   1.181  0.4536 -0.0385 -0.1970
 3601TIP3    H210726   0.520   3.861   1.312  1.2796 -2.0302 -0.2728
 3602TIP3   OH210727   2.786   7.150   2.675 -0.1045  0.1407 -0.4520
 3602TIP3    H110728   2.767   7.082   2.611  2.1703 -0.4395 -0.5731
 3602TIP3    H210729   2.860   7.198   2.637  1.0855 -0.0197  1.5704
 3603TIP3   OH210730   0.814   3.804   5.612  0.6526  0.8388 -0.0142
 3603TIP3    H110731   0.736   3.778   5.661  0.8285  1.7897  0.8004
 3603TIP3    H210732   0.868   3.725   5.607  0.5268  0.6747  1.1402
 3604TIP3   OH210733   0.415   3.263   1.434 -0.2592  0.3683  0.2369
 3604TIP3    H110734   0.406   3.253   1.529  0.6398  2.2036  0.5344
 3604TIP3    H210735   0.339   3.217   1.398 -1.7752  1.4482  1.9584
 3605TIP3   OH210736   2.914   3.202   3.469  0.1728 -0.6323 -0.0586
 3605TIP3    H110737   2.867   3.142   3.411  0.5519 -1.6653  0.6914
 3605TIP3    H210738   2.896   3.169   3.557  1.2693 -0.2754  0.3027
 3606TIP3   OH210739   0.301   2.290   1.141  0.5535  0.0226 -0.2579
 3606TIP3    H110740   0.301   2.287   1.045 -1.2967 -0.0718 -0.2736
 3606TIP3    H210741   0.270   2.204   1.167 -1.6792  0.9759  0.3523
 3607TIP3   OH210742   2.362   4.349   1.575  0.0519  0.4947 -0.0651
 3607TIP3    H110743   2.343   4.306   1.658 -0.2107  2.6617  1.0310
 3607TIP3    H210744   2.296   4.417   1.567 -0.6598 -0.4184 -2.6539
 3608TIP3   OH210745   3.041   2.878   2.954 -0.3019  0.1844  0.5885
 3608TIP3    H110746   3.027   2.848   3.044 -0.4762  0.5116  0.6715
 3608TIP3    H210747   3.058   2.972   2.962  1.1751 -0.0491  0.4172
 3609TIP3   OH210748   1.035   5.203   4.445 -0.2324  0.7736 -0.7969
 3609TIP3    H110749   0.976   5.278   4.446  0.9035  1.7169 -1.9445
 3609TIP3    H210750   0.978   5.127   4.447 -1.4237  1.6634 -0.2803
 3610TIP3   OH210751   4.139   2.961   4.652  0.0338 -0.2542  0.0307
 3610TIP3    H110752   4.119   2.916   4.570 -2.0208  1.1319 -0.2672
 3610TIP3    H210753   4.054   2.968   4.697  0.5950  1.7829  0.8410
 3611TIP3   OH210754   1.552   3.405   3.547 -0.3322 -0.0062 -0.6461
 3611TIP3    H110755   1.563   3.404   3.451 -0.3330 -0.2650 -0.6454
 3611TIP3    H210756   1.546   3.312   3.570 -2.8010  0.1016 -0.6783
 3612TIP3   OH210757   2.988   4.534   3.376  0.1054  0.0132 -0.2141
 3612TIP3    H110758   2.919   4.590   3.340  0.2201 -0.5748 -1.3909
 3612TIP3    H210759   3.061   4.593   3.392 -0.6496  0.6275  0.9690
 3613TIP3   OH210760   3.701   3.061   4.342 -0.2000  0.0471  0.4162
 3613TIP3    H110761   3.618   3.015   4.327  0.3858 -0.4681 -1.5008
 3613TIP3    H210762   3.751   3.003   4.400 -0.6425 -0.3000  0.4499
 3614TIP3   OH210763   2.038   4.263   4.687 -0.5399 -0.3465 -0.1541
 3614TIP3    H110764   2.129   4.290   4.698 -0.8126  1.3723 -1.8947
 3614TIP3    H210765   2.020   4.208   4.764  1.7697 -0.2360  0.5052
 3615TIP3   OH210766   1.378   1.749   3.704 -0.2170 -0.2262 -0.1511
 3615TIP3    H110767   1.334   1.685   3.760 -0.5721  0.9554  0.9340
 3615TIP3    H210768   1.345   1.834   3.733  0.3618  0.4759 -1.4771
 3616TIP3   OH210769   1.521   3.326   3.264 -0.0359  0.0441 -0.0780
 3616TIP3    H110770   1.447   3.378   3.230  0.3433  0.5316 -0.1660
 3616TIP3    H210771   1.587   3.331   3.195  0.0230 -0.5185 -0.0598
 3617TIP3   OH210772   2.562   4.499   4.619 -0.0724  0.1047 -0.1585
 3617TIP3    H110773   2.603   4.416   4.644 -1.1253 -0.8592 -1.5757
 3617TIP3    H210774   2.556   4.548   4.701  0.3133 -1.3317  0.7435
 3618TIP3   OH210775   0.501   3.057   3.873 -0.2241  0.2364 -0.4800
 3618TIP3    H110776   0.490   3.102   3.957 -1.3092 -1.0038  0.0545
 3618TIP3    H210777   0.487   3.125   3.807  0.2456  1.1337  0.3337
 3619TIP3   OH210778   2.028   4.802   5.833  0.0840  0.3707 -0.0328
 3619TIP3    H110779   2.018   4.841   5.747 -0.7465 -0.1888 -0.1960
 3619TIP3    H210780   2.104   4.846   5.871  0.3380  0.7485 -0.9722
 3620TIP3   OH210781   0.638   3.527   5.682  0.5899  0.0365  0.3206
 3620TIP3    H110782   0.546   3.550   5.666  0.2748 -0.4047  1.5093
 3620TIP3    H210783   0.662   3.471   5.607 -0.8879 -2.0209  1.3484
 3621TIP3   OH210784   5.173   3.184   4.262 -0.1407 -0.0481  0.0375
 3621TIP3    H110785   5.175   3.279   4.274 -0.9502 -0.1473  1.0394
 3621TIP3    H210786   5.245   3.166   4.202  0.1155  1.1849 -0.0396
 3622TIP3   OH210787   0.283   4.037   2.003  0.0007 -0.1286  0.1018
 3622TIP3    H110788   0.349   3.975   1.973 -0.7172 -1.2603  0.8325
 3622TIP3    H210789   0.290   4.036   2.099 -0.2348  0.6831  0.1374
 3623TIP3   OH210790   0.354   2.283   3.462  0.2190  0.1453 -0.8750
 3623TIP3    H110791   0.259   2.291   3.450 -0.0662  0.3239  1.2930
 3623TIP3    H210792   0.391   2.346   3.400 -1.0375 -0.4320 -2.2449
 3624TIP3   OH210793   8.220   5.317   1.056  0.0184  0.6673 -0.2738
 3624TIP3    H110794   8.228   5.302   0.962  0.7394  0.8234 -0.2400
 3624TIP3    H210795   8.310   5.335   1.085 -0.6699  4.4351 -0.1910
 3625TIP3   OH210796   1.593   4.999   2.677 -0.8946 -0.4445 -0.2571
 3625TIP3    H110797   1.556   5.067   2.733 -0.9248 -0.1112 -0.6792
 3625TIP3    H210798   1.657   4.954   2.732  0.5684  1.2030 -0.5769
 3626TIP3   OH210799   3.372   5.710   3.262  0.9796  0.0345 -0.5223
 3626TIP3    H110800   3.351   5.803   3.253  0.3735 -0.1108 -0.6128
 3626TIP3    H210801   3.330   5.684   3.344 -2.0451 -1.0465 -2.3435
 3627TIP3   OH210802   2.416   6.327   4.570  0.3045  0.2080  0.2701
 3627TIP3    H110803   2.373   6.244   4.592  1.2520 -0.2674  0.3482
 3627TIP3    H210804   2.367   6.393   4.618 -1.7281 -0.0581 -1.3686
 3628TIP3   OH210805   3.617   3.406   3.896 -0.5891 -0.2276 -0.3018
 3628TIP3    H110806   3.585   3.464   3.965 -0.5334  0.0208 -0.4853
 3628TIP3    H210807   3.577   3.440   3.816 -0.3315 -0.2757 -0.4486
 3629TIP3   OH210808   1.922   4.410   0.582  0.3756 -0.4557  0.3505
 3629TIP3    H110809   2.011   4.418   0.618 -0.0605  0.9569  1.1511
 3629TIP3    H210810   1.919   4.473   0.510  0.6848 -2.0238 -1.0477
 3630TIP3   OH210811   2.132   3.066   3.851 -0.3941  0.2801 -0.5114
 3630TIP3    H110812   2.162   3.156   3.864  0.4067 -0.0503 -0.0207
 3630TIP3    H210813   2.203   3.025   3.802 -0.5166 -0.2293 -0.2608
 3631TIP3   OH210814   2.403   4.139   2.762  0.2189  0.0982 -0.0122
 3631TIP3    H110815   2.361   4.225   2.772 -0.9387 -0.3944 -0.4923
 3631TIP3    H210816   2.348   4.080   2.814  0.3667 -0.5444 -0.5875
 3632TIP3   OH210817   1.012   4.583   1.351 -0.4634 -0.0869  0.0224
 3632TIP3    H110818   0.942   4.518   1.349 -0.3172 -0.3184  1.6232
 3632TIP3    H210819   1.088   4.533   1.382 -0.2831  0.7877  0.9895
 3633TIP3   OH210820   3.841   2.668   1.631  0.0736 -0.2273  0.2231
 3633TIP3    H110821   3.813   2.653   1.541  1.8132  1.0617 -0.5704
 3633TIP3    H210822   3.798   2.750   1.657 -0.0442 -0.3422  0.3902
 3634TIP3   OH210823   3.265   5.583   0.962 -0.5512  0.2319  0.2819
 3634TIP3    H110824   3.245   5.498   1.000  2.2570  1.0272  3.7915
 3634TIP3    H210825   3.240   5.646   1.029 -1.0219  2.1210 -1.5973
 3635TIP3   OH210826   2.140   3.072   3.487 -0.6466 -0.1684 -0.2634
 3635TIP3    H110827   2.048   3.074   3.513 -0.4628 -0.2266  0.4167
 3635TIP3    H210828   2.154   2.983   3.454 -0.7443 -0.2712 -0.0266
 3636TIP3   OH210829   8.804   4.414   2.677 -0.1909  0.5170 -0.0168
 3636TIP3    H110830   8.743   4.399   2.605  0.8369  0.3059 -0.8534
 3636TIP3    H210831   8.827   4.506   2.669  1.2019  0.1001 -0.9865
 3637TIP3   OH210832   2.153   4.855   4.007 -0.1781  0.0203 -0.5936
 3637TIP3    H110833   2.152   4.862   4.102  0.0315 -1.1124 -0.4998
 3637TIP3    H210834   2.245   4.851   3.983 -0.2470 -0.8110 -0.7486
 3638TIP3   OH210835   1.545   0.065   0.131 -0.2418  0.7738  0.6500
 3638TIP3    H110836   1.625   0.089   0.082 -0.7666  0.7480 -0.2377
 3638TIP3    H210837   1.485   0.033   0.063 -1.7302  2.6687  1.0508
 3639TIP3   OH210838   1.276   1.306   2.972 -0.0047  0.1739  0.2686
 3639TIP3    H110839   1.346   1.243   2.959 -0.9426 -1.0584  1.0660
 3639TIP3    H210840   1.269   1.316   3.067 -0.8576  0.3460  0.1935
 3640TIP3   OH210841   1.024   1.620   2.503 -0.0150 -0.0517 -0.0386
 3640TIP3    H110842   1.012   1.568   2.423  0.3420 -0.2793  0.0568
 3640TIP3    H210843   1.118   1.617   2.520  0.1702  1.5283 -0.6418
 3641TIP3   OH210844   5.374   5.115   2.923  0.5380 -0.1144  0.6386
 3641TIP3    H110845   5.415   5.059   2.857  0.2766 -1.1239  1.3236
 3641TIP3    H210846   5.420   5.095   3.004 -0.6606 -0.5633  1.2240
 3642TIP3   OH210847   2.933   5.688   1.820  0.3431  0.2797 -0.0155
 3642TIP3    H110848   2.910   5.603   1.784 -0.4900  0.2466  0.5731
 3642TIP3    H210849   3.018   5.675   1.861  0.5832 -0.0649 -0.6158
 3643TIP3   OH210850   1.019   1.630   4.185  0.1812 -0.2450 -0.4464
 3643TIP3    H110851   0.965   1.670   4.116 -1.7619 -1.5567  0.2860
 3643TIP3    H210852   1.075   1.568   4.138 -0.4471 -0.4270 -0.9693
 3644TIP3   OH210853   5.801   3.493   2.570  0.2679  0.3585 -0.5449
 3644TIP3    H110854   5.723   3.535   2.535  0.0781 -0.8601 -1.6410
 3644TIP3    H210855   5.777   3.400   2.578  0.3036  0.5552  2.8438
 3645TIP3   OH210856   1.235   2.347   4.339  0.0339  0.7920  0.0883
 3645TIP3    H110857   1.250   2.264   4.385 -2.2599  0.1981 -0.1644
 3645TIP3    H210858   1.276   2.413   4.394  2.6027 -0.5847 -0.1153
 3646TIP3   OH210859   1.542   4.917   3.579  0.1099  0.0505 -0.5389
 3646TIP3    H110860   1.606   4.853   3.550  1.4924  1.3609 -0.4052
 3646TIP3    H210861   1.514   4.961   3.499 -1.3397 -1.1429 -0.7165
 3647TIP3   OH210862   2.441   4.808   3.953 -0.2630 -0.1625 -0.3327
 3647TIP3    H110863   2.453   4.894   3.993  0.3408 -1.4119  2.2383
 3647TIP3    H210864   2.521   4.793   3.903  0.6631 -0.2495  1.1676
 3648TIP3   OH210865   3.932   2.669   4.238  0.5609  0.0479 -0.6824
 3648TIP3    H110866   3.876   2.730   4.190  0.2048  0.5026  0.2986
 3648TIP3    H210867   3.871   2.602   4.271  0.6878  0.1663 -0.2017
 3649TIP3   OH210868   2.481   1.668   1.987 -0.6226 -0.5111 -0.5957
 3649TIP3    H110869   2.442   1.700   2.068 -2.8442 -2.2780 -0.8955
 3649TIP3    H210870   2.533   1.592   2.013  0.8629  0.5216 -0.4948
 3650TIP3   OH210871   0.873   1.891   2.846  0.4182  0.1835 -0.0902
 3650TIP3    H110872   0.944   1.857   2.900  1.1475  1.7514 -0.0623
 3650TIP3    H210873   0.850   1.975   2.884 -1.6236 -0.3861  0.0394
 3651TIP3   OH210874   2.380   1.828   4.533 -0.2868 -0.5870  0.1721
 3651TIP3    H110875   2.446   1.872   4.587 -0.6295  0.3610 -0.1710
 3651TIP3    H210876   2.393   1.735   4.550  2.5970 -0.5511 -1.5743
 3652TIP3   OH210877   1.213   4.338   1.606  0.2144  0.1046 -0.5548
 3652TIP3    H110878   1.234   4.386   1.526  1.9578  0.9119  0.3902
 3652TIP3    H210879   1.200   4.405   1.672  0.6500 -0.6364  0.2884
 3653TIP3   OH210880   0.293   5.272   1.085 -0.9219  0.1548 -0.1770
 3653TIP3    H110881   0.295   5.183   1.120 -0.8600  1.1834  2.5366
 3653TIP3    H210882   0.317   5.261   0.993 -0.6280 -2.5971  0.1606
 3654TIP3   OH210883   0.854   5.406   4.754 -0.6397 -0.2678 -0.4224
 3654TIP3    H110884   0.925   5.354   4.717  0.1953  1.5221 -1.4100
 3654TIP3    H210885   0.898   5.471   4.809 -1.6147 -0.2068  0.2912
 3655TIP3   OH210886   1.922   3.689   4.025  0.2788  0.1782  0.2240
 3655TIP3    H110887   1.850   3.627   4.013  1.6782 -1.3299 -0.6138
 3655TIP3    H210888   1.926   3.737   3.942  1.4992 -1.1382 -0.5084
 3656TIP3   OH210889   3.528   3.735   4.758 -0.8730  0.1977 -0.0376
 3656TIP3    H110890   3.593   3.772   4.819 -1.9862  2.0647  0.0686
 3656TIP3    H210891   3.546   3.641   4.758  0.2114  0.3619  1.9330
 3657TIP3   OH210892   1.352   4.077   5.059  0.0964  0.7251  0.1425
 3657TIP3    H110893   1.364   4.141   4.989 -2.7476 -2.6072 -3.6192
 3657TIP3    H210894   1.419   4.010   5.042 -0.1482  0.2344  1.0677
 3658TIP3   OH210895   2.428   4.737   3.240  0.0890  0.4488  0.3300
 3658TIP3    H110896   2.352   4.794   3.231 -0.5524 -0.3327  0.7901
 3658TIP3    H210897   2.431   4.715   3.333  0.0934 -0.5904  0.0852
 3659TIP3   OH210898   1.601   4.093   2.542  0.1202  0.5951  0.3839
 3659TIP3    H110899   1.595   4.186   2.520  2.5543  0.3603 -1.5769
 3659TIP3    H210900   1.673   4.088   2.605 -3.0003  0.5329  4.0954
 3660TIP3   OH210901   2.055   2.283   1.646  0.3014  0.1263 -0.2633
 3660TIP3    H110902   2.047   2.371   1.684 -0.7828 -0.0085 -0.1480
 3660TIP3    H210903   2.096   2.297   1.561 -2.2977  1.0891 -1.4347
 3661TIP3   OH210904   0.939   5.304   3.027  0.2607  0.1660 -0.9216
 3661TIP3    H110905   0.917   5.241   3.096 -0.1075 -0.7798 -1.8855
 3661TIP3    H210906   0.985   5.375   3.073 -0.5618 -0.1328  0.3817
 3662TIP3   OH210907   1.671   2.586   2.043  0.0425 -0.0996 -0.0854
 3662TIP3    H110908   1.672   2.648   2.115  3.2716 -1.5797  1.2385
 3662TIP3    H210909   1.729   2.624   1.977  0.2520 -0.6441 -0.2164
 3663TIP3   OH210910   3.508   4.188   0.882 -0.1477  0.7299  0.2475
 3663TIP3    H110911   3.594   4.158   0.851 -0.3359 -1.6092  1.8012
 3663TIP3    H210912   3.528   4.244   0.957  0.0484  0.4930  0.3735
 3664TIP3   OH210913   1.801   4.216   2.006 -0.1562 -0.1865  0.4991
 3664TIP3    H110914   1.864   4.198   2.076  0.1477  0.8640  0.5110
 3664TIP3    H210915   1.813   4.145   1.944  1.9464  0.6427 -0.1184
 3665TIP3   OH210916   3.757   3.565   2.119  0.4018  0.1480  0.1320
 3665TIP3    H110917   3.819   3.617   2.068  2.8765 -0.6629  2.1909
 3665TIP3    H210918   3.718   3.628   2.180 -0.1640  0.4951 -0.5854
 3666TIP3   OH210919   2.244   4.376   2.828 -0.5170 -0.3892  0.3813
 3666TIP3    H110920   2.302   4.388   2.903 -0.1297 -0.5991  0.1179
 3666TIP3    H210921   2.269   4.445   2.767 -0.9532 -0.1097  0.5232
 3667TIP3   OH210922   3.617   1.144   5.177 -0.0384 -0.2327  0.4627
 3667TIP3    H110923   3.611   1.201   5.101 -0.0366 -0.1582  0.5174
 3667TIP3    H210924   3.687   1.182   5.231 -0.9318  0.4792  1.1347
 3668TIP3   OH210925   1.163   4.416   4.870  0.2747 -0.1378 -0.3597
 3668TIP3    H110926   1.137   4.437   4.781  0.1820 -2.3093 -0.8720
 3668TIP3    H210927   1.252   4.380   4.862  1.2698  1.9803  0.7237
 3669TIP3   OH210928   0.207   3.083   5.185 -0.7790  0.2715 -0.4074
 3669TIP3    H110929   0.143   3.088   5.114  1.6776 -1.4813 -2.8605
 3669TIP3    H210930   0.213   2.989   5.206  0.7681  0.4279 -0.0552
 3670TIP3   OH210931   1.020   1.115   3.181  0.1500  0.2349  0.2935
 3670TIP3    H110932   1.054   1.204   3.172  0.4330  0.3889  2.6670
 3670TIP3    H210933   0.929   1.126   3.210 -0.2466 -0.2482 -0.7329
 3671TIP3   OH210934   1.449   3.508   2.498  0.2937 -0.0918 -0.0553
 3671TIP3    H110935   1.465   3.600   2.476 -1.3486  0.1315 -0.3447
 3671TIP3    H210936   1.395   3.475   2.427  1.4362 -1.4776 -0.2948
 3672TIP3   OH210937   2.657   1.037   1.876 -0.2987 -0.0192 -0.0747
 3672TIP3    H110938   2.654   0.945   1.851  1.5299 -0.3721  0.9220
 3672TIP3    H210939   2.566   1.067   1.867 -0.6711 -1.5542 -1.6680
 3673TIP3   OH210940   0.332   3.466   3.620 -0.0083 -0.5102 -0.3062
 3673TIP3    H110941   0.400   3.521   3.580  0.1138  0.4012  1.1491
 3673TIP3    H210942   0.373   3.380   3.628  1.4333  0.3323  1.7032
 3674TIP3   OH210943   1.646   3.544   4.274  0.0194  0.1836  0.2943
 3674TIP3    H110944   1.658   3.639   4.278  3.6524 -0.2150  0.7512
 3674TIP3    H210945   1.555   3.532   4.246 -1.0104  3.7639  1.8185
 3675TIP3   OH210946   2.917   1.689   1.685  0.4597 -0.8483  0.2257
 3675TIP3    H110947   2.886   1.754   1.749 -0.7823  0.6743 -1.8858
 3675TIP3    H210948   2.979   1.737   1.630 -2.1183 -0.7932 -2.7403
 3676TIP3   OH210949   4.247   7.522   7.189  0.1957  0.0662 -0.1986
 3676TIP3    H110950   4.273   7.532   7.281  0.7754  2.0092 -0.5410
 3676TIP3    H210951   4.154   7.543   7.187 -0.1914 -1.5324  0.1714
 3677TIP3   OH210952   1.849   2.531   4.666  0.3536 -0.3974 -0.6257
 3677TIP3    H110953   1.783   2.589   4.703  2.3265  2.5103 -1.4692
 3677TIP3    H210954   1.876   2.475   4.740 -0.0398  1.2225  0.7752
 3678TIP3   OH210955   7.765   1.204   2.670 -0.8495  0.0975  0.1938
 3678TIP3    H110956   7.725   1.290   2.684 -1.4758 -0.4774  2.2421
 3678TIP3    H210957   7.830   1.196   2.740  0.3649 -0.4329 -0.9727
 3679TIP3   OH210958   1.231   4.570   3.281 -0.4293 -0.3150  0.3103
 3679TIP3    H110959   1.305   4.628   3.299  0.6677 -1.1130 -1.5535
 3679TIP3    H210960   1.171   4.585   3.354  0.7333  1.6923  0.8917
 3680TIP3   OH210961   1.573   3.655   1.744  1.4199  0.4553  0.4344
 3680TIP3    H110962   1.625   3.707   1.682  0.0156  0.6384 -0.6137
 3680TIP3    H210963   1.508   3.717   1.778 -0.0797 -0.5141 -0.6032
 3681TIP3   OH210964   4.331   2.711   4.740 -0.2074 -0.2034  0.1926
 3681TIP3    H110965   4.319   2.766   4.663 -0.2699 -1.2969 -0.5943
 3681TIP3    H210966   4.242   2.699   4.774 -0.3716 -1.0529 -0.5153
 3682TIP3   OH210967   3.080   4.576   4.587 -0.9457 -0.3974  0.3762
 3682TIP3    H110968   3.010   4.526   4.544 -1.2320  0.7938 -0.5922
 3682TIP3    H210969   3.161   4.541   4.549 -1.1173 -0.5177  0.1191
 3683TIP3   OH210970   4.018   4.087   2.747 -0.4742 -0.7932 -0.4957
 3683TIP3    H110971   4.010   4.164   2.803  0.8712 -0.4623 -0.7497
 3683TIP3    H210972   3.931   4.046   2.751 -1.2519  0.8032 -0.4769
 3684TIP3   OH210973   2.823   5.123   4.153 -0.0832 -0.4338 -0.0725
 3684TIP3    H110974   2.860   5.211   4.156  0.6537 -0.7728  0.7368
 3684TIP3    H210975   2.828   5.091   4.243 -0.1253 -1.3923 -0.4063
 3685TIP3   OH210976   2.277   5.170   0.221 -0.4096 -0.4927 -0.0482
 3685TIP3    H110977   2.227   5.101   0.178 -1.2407  0.7911 -1.1547
 3685TIP3    H210978   2.268   5.247   0.164 -0.7393  0.9615  1.8970
 3686TIP3   OH210979   4.743   4.283   4.477 -0.1775  0.2349 -0.6226
 3686TIP3    H110980   4.818   4.333   4.444  0.4123 -1.4733 -1.9788
 3686TIP3    H210981   4.779   4.230   4.548 -0.7357  1.4920  0.6171
 3687TIP3   OH210982   3.547   4.564   2.658  0.1293  0.8029  0.4343
 3687TIP3    H110983   3.603   4.641   2.652  0.0109  0.7335 -2.5926
 3687TIP3    H210984   3.604   4.494   2.690  1.8607  0.7311 -2.6433
 3688TIP3   OH210985   1.437   3.306   2.768  0.2330  0.6844  0.1860
 3688TIP3    H110986   1.420   3.213   2.785 -1.6554  0.8833 -0.5267
 3688TIP3    H210987   1.353   3.341   2.739  1.3075  2.2817 -1.0921
 3689TIP3   OH210988   3.997   2.740   3.161  0.6233  0.0319 -0.0642
 3689TIP3    H110989   3.908   2.728   3.129  1.2021  0.5654 -1.9052
 3689TIP3    H210990   4.033   2.810   3.108  1.2040  1.8453  2.6103
 3690TIP3   OH210991   4.040   4.184   2.487  0.1726  0.1249  0.1332
 3690TIP3    H110992   3.955   4.226   2.474 -0.2467 -0.9033 -0.5141
 3690TIP3    H210993   4.032   4.138   2.570  0.2005  0.2667  0.2152
 3691TIP3   OH210994   4.838   3.563   2.067  0.5434  0.2995  0.8243
 3691TIP3    H110995   4.776   3.601   2.004 -0.3399 -0.9038  0.9539
 3691TIP3    H210996   4.786   3.498   2.115  1.8874 -0.6337  1.0238
 3692TIP3   OH210997   4.386   5.078   4.071 -0.0762  0.2987 -0.3208
 3692TIP3    H110998   4.324   5.026   4.122 -0.2133 -0.3694 -1.1565
 3692TIP3    H210999   4.403   5.025   3.993  2.4401 -0.0703  0.4218
 3693TIP3   OH211000   3.818   6.013   2.649 -0.8118 -0.6856  0.0753
 3693TIP3    H111001   3.830   5.983   2.740  2.0684  0.6402  0.1750
 3693TIP3    H211002   3.880   5.960   2.598  0.3038  1.2027 -0.5484
 3694TIP3   OH211003   3.824   3.883   3.158 -0.2819 -0.0905  0.0683
 3694TIP3    H111004   3.847   3.892   3.251 -1.8447 -0.9586  0.5626
 3694TIP3    H211005   3.743   3.831   3.159  0.1956 -0.8963 -1.8358
 3695TIP3   OH211006   2.994   5.440   3.940 -0.1619 -0.8602  0.0780
 3695TIP3    H111007   3.041   5.376   3.888 -0.7195 -1.5542  0.4271
 3695TIP3    H211008   3.050   5.518   3.939  0.6478 -1.4462 -0.1017
 3696TIP3   OH211009   3.973   3.174   2.059 -0.5748  0.3041 -0.1733
 3696TIP3    H111010   3.880   3.192   2.076 -0.5753  1.5021 -1.3870
 3696TIP3    H211011   4.005   3.253   2.017  0.2236 -1.3322 -2.7270
 3697TIP3   OH211012   2.924   4.980   2.690  0.1520 -0.2748 -0.5184
 3697TIP3    H111013   2.837   4.974   2.650  0.4124  0.9663 -1.2780
 3697TIP3    H211014   2.924   4.912   2.758 -1.2047 -0.6574 -0.8959
 3698TIP3   OH211015   2.574   4.184   1.040 -0.2495  0.8347 -0.0712
 3698TIP3    H111016   2.583   4.279   1.032  1.0982  0.6064 -1.6578
 3698TIP3    H211017   2.600   4.165   1.130  1.5353  1.7491 -0.3736
 3699TIP3   OH211018   4.922   5.538   5.384 -0.2774  0.4900 -0.2435
 3699TIP3    H111019   4.966   5.516   5.302 -0.6297  0.3903 -0.4059
 3699TIP3    H211020   4.839   5.578   5.357  0.1381  1.5801  0.0490
 3700TIP3   OH211021   5.513   1.587   3.726 -0.2472  0.5317 -0.3094
 3700TIP3    H111022   5.568   1.510   3.740 -1.2511 -0.2393 -0.5781
 3700TIP3    H211023   5.570   1.649   3.681  0.5641 -0.0545 -0.1033
 3701TIP3   OH211024   5.021   4.389   2.098 -0.2423  0.1701  0.1821
 3701TIP3    H111025   5.092   4.453   2.095  0.8156 -1.0505 -2.3633
 3701TIP3    H211026   5.050   4.323   2.161  0.6646 -0.0619 -0.4767
 3702TIP3   OH211027   3.357   6.504   2.656  0.7249 -0.4254 -0.3746
 3702TIP3    H111028   3.373   6.533   2.745  1.5009  2.3952 -1.3952
 3702TIP3    H211029   3.261   6.497   2.650  0.5044  2.1780 -0.1525
 3703TIP3   OH211030   2.335   1.108   1.899  0.1206 -0.1636 -0.2356
 3703TIP3    H111031   2.385   1.134   1.976 -0.0839 -0.1338 -0.1121
 3703TIP3    H211032   2.248   1.146   1.913  0.7600  1.9218 -1.6207
 3704TIP3   OH211033   6.248   5.128   3.307 -0.5482  0.1714  0.7734
 3704TIP3    H111034   6.337   5.101   3.332  0.4113  1.5026 -1.0806
 3704TIP3    H211035   6.198   5.046   3.307  1.7995 -1.3937 -2.6963
 3705TIP3   OH211036   4.030   3.945   1.904 -0.6194 -0.1107 -0.2988
 3705TIP3    H111037   3.966   3.903   1.847 -0.4451  0.1107 -0.6615
 3705TIP3    H211038   3.979   3.994   1.968 -0.8080  0.0263 -0.5582
 3706TIP3   OH211039   2.795   3.915   2.984 -0.6503  0.1334  0.1906
 3706TIP3    H111040   2.874   3.897   2.933 -1.3850 -0.9913 -0.5542
 3706TIP3    H211041   2.800   4.009   3.002  0.8512  0.0847  0.1419
 3707TIP3   OH211042   4.687   4.503   1.208  0.3873 -0.5212 -0.4341
 3707TIP3    H111043   4.727   4.554   1.137  0.6651  1.6948  1.2570
 3707TIP3    H211044   4.594   4.521   1.201  0.1607 -1.9407 -1.4533
 3708TIP3   OH211045   3.365   6.343   3.196 -0.9083  0.2334  0.1215
 3708TIP3    H111046   3.354   6.299   3.280 -0.4355  0.5416  0.3447
 3708TIP3    H211047   3.391   6.432   3.219 -0.5505  0.2498 -0.3571
 3709TIP3   OH211048   7.144   5.973   6.848  0.5651 -0.5260  0.2316
 3709TIP3    H111049   7.128   6.026   6.927  1.3522 -0.2380  0.2023
 3709TIP3    H211050   7.107   6.024   6.777  0.4786 -0.4588  0.3244
 3710TIP3   OH211051   2.071   6.231   0.401  0.3525 -0.3186 -0.1066
 3710TIP3    H111052   2.095   6.158   0.343 -1.5546  0.1042 -1.5142
 3710TIP3    H211053   2.114   6.307   0.363  0.6165 -0.3495  0.1286
 3711TIP3   OH211054   2.870   3.258   0.913 -1.0162 -0.4743 -0.1663
 3711TIP3    H111055   2.908   3.196   0.852 -0.2083  0.2915 -0.4504
 3711TIP3    H211056   2.883   3.343   0.872  0.7321  0.1849  1.6614
 3712TIP3   OH211057   4.240   5.375   1.067  0.4797 -0.4186  0.2260
 3712TIP3    H111058   4.271   5.389   0.978 -0.6553  0.4609 -0.0527
 3712TIP3    H211059   4.316   5.392   1.122  1.7952 -3.1711 -0.6690
 3713TIP3   OH211060   4.755   3.996   3.006  0.1157  0.3467  0.6165
 3713TIP3    H111061   4.837   3.986   3.053  0.2321  0.5718  0.4644
 3713TIP3    H211062   4.729   4.087   3.021 -1.2768 -0.3366  2.5564
 3714TIP3   OH211063   4.800   4.625   2.089  0.2056 -0.3170  0.1562
 3714TIP3    H111064   4.857   4.554   2.118  0.7689 -0.7071 -1.8006
 3714TIP3    H211065   4.722   4.581   2.056  0.6821 -0.0620 -1.3407
 3715TIP3   OH211066   3.721   2.506   4.359 -0.3106  0.0664  0.6005
 3715TIP3    H111067   3.765   2.420   4.362 -1.2054 -0.3841  0.9136
 3715TIP3    H211068   3.683   2.517   4.446 -1.5068  0.0859  0.0785
 3716TIP3   OH211069   6.297   3.947   1.375 -1.0141  0.6214  0.4266
 3716TIP3    H111070   6.241   3.925   1.450  0.1620  0.1638  1.1880
 3716TIP3    H211071   6.379   3.900   1.392  0.5909  3.3955  0.6802
 3717TIP3   OH211072   3.622   3.728   2.765 -0.1772  0.2136 -0.0678
 3717TIP3    H111073   3.713   3.721   2.734  0.2862  0.5673  1.1622
 3717TIP3    H211074   3.591   3.637   2.768  0.8844 -0.1159  1.6235
 3718TIP3   OH211075   6.342   6.269   2.946 -0.0541 -0.0044 -0.2105
 3718TIP3    H111076   6.269   6.292   3.003  0.7812 -0.4014  1.0393
 3718TIP3    H211077   6.302   6.213   2.879 -0.2464 -3.8251  2.8707
 3719TIP3   OH211078   4.992   5.325   3.215 -0.3612  0.0793 -0.2694
 3719TIP3    H111079   5.048   5.397   3.186 -0.1583  0.1698  0.3393
 3719TIP3    H211080   5.049   5.248   3.215 -0.6792 -0.1564 -1.2985
 3720TIP3   OH211081   2.378   2.256   1.209 -0.0059  0.3905 -0.4595
 3720TIP3    H111082   2.452   2.306   1.244  0.8763 -1.6577  0.7136
 3720TIP3    H211083   2.332   2.317   1.152  1.1816  2.4388  0.7237
 3721TIP3   OH211084   0.392   4.275   2.980 -0.4308  0.0376  0.1421
 3721TIP3    H111085   0.395   4.181   2.998  0.6275  0.3587  1.7187
 3721TIP3    H211086   0.358   4.281   2.890 -2.0785 -1.7647  0.6038
 3722TIP3   OH211087   3.389   6.770   1.968  0.0812  0.0144 -0.1936
 3722TIP3    H111088   3.432   6.687   1.945  1.1659 -0.1993  2.4172
 3722TIP3    H211089   3.296   6.748   1.973  0.1147 -0.5195 -1.7043
 3723TIP3   OH211090   3.964   3.610   3.311  0.1871  0.5871 -0.2083
 3723TIP3    H111091   4.054   3.609   3.344 -0.2373  2.4461  1.0857
 3723TIP3    H211092   3.930   3.696   3.337 -2.1739 -0.3527 -0.1091
 3724TIP3   OH211093   3.571   1.843   4.330 -0.1054 -0.1847  0.3012
 3724TIP3    H111094   3.630   1.799   4.390 -0.8110 -0.0228  1.1145
 3724TIP3    H211095   3.596   1.810   4.243 -0.0196 -1.4749  0.8071
 3725TIP3   OH211096   2.477   5.548   2.172 -0.4280 -0.3529  0.2603
 3725TIP3    H111097   2.470   5.540   2.268 -3.1652 -2.1664 -0.0262
 3725TIP3    H211098   2.440   5.634   2.153 -1.6040 -0.7428  0.7073
 3726TIP3   OH211099   2.068   5.856   4.388  0.5132  0.3488 -0.2531
 3726TIP3    H111100   1.988   5.853   4.441 -0.0500 -0.0451 -1.1062
 3726TIP3    H211101   2.120   5.781   4.417 -0.1856 -0.3806 -0.8423
 3727TIP3   OH211102   4.034   4.040   3.074 -0.9442  0.0663 -0.6272
 3727TIP3    H111103   3.965   4.023   3.138 -1.3034  0.7539 -0.8195
 3727TIP3    H211104   3.992   4.027   2.989 -1.2760  1.9984 -0.7836
 3728TIP3   OH211105   3.871   5.202   3.277 -0.0875  0.3321 -0.7596
 3728TIP3    H111106   3.884   5.258   3.201 -0.7996  1.8430  0.1907
 3728TIP3    H211107   3.889   5.259   3.352  0.6842 -1.1425  0.2066
 3729TIP3   OH211108   6.026   3.201   1.467  0.2464 -0.3941 -0.6035
 3729TIP3    H111109   6.003   3.174   1.556  2.6906 -0.5696  0.0089
 3729TIP3    H211110   6.102   3.146   1.445  0.9756  1.1453 -1.9854
 3730TIP3   OH211111   3.105   5.202   3.723  1.2164  0.9942 -0.0427
 3730TIP3    H111112   3.134   5.262   3.654  0.1178  0.5427 -0.9212
 3730TIP3    H211113   3.018   5.174   3.694  1.1015  0.1485  1.1169
 3731TIP3   OH211114   3.401   4.266   3.464 -0.5632  0.4933  0.3695
 3731TIP3    H111115   3.439   4.216   3.536  0.1165 -0.2717 -0.5145
 3731TIP3    H211116   3.455   4.344   3.458 -1.0212  0.8737  1.1098
 3732TIP3   OH211117   2.305   2.706   0.781  0.1985  0.1098 -0.4888
 3732TIP3    H111118   2.275   2.630   0.732  1.5915 -1.3599  0.8847
 3732TIP3    H211119   2.309   2.776   0.716 -1.2686 -0.9239 -1.7360
 3733TIP3   OH211120   3.588   3.772   1.966  0.4340  0.1180 -0.0014
 3733TIP3    H111121   3.534   3.720   2.025  0.9181  1.0953  1.3526
 3733TIP3    H211122   3.571   3.863   1.992 -0.5678  0.6589 -2.4668
 3734TIP3   OH211123   2.551   2.736   2.082  0.0439 -0.1791  0.0696
 3734TIP3    H111124   2.577   2.699   2.166  0.9005  1.5960  0.6133
 3734TIP3    H211125   2.476   2.792   2.103 -0.7840 -1.0280 -0.6194
 3735TIP3   OH211126   6.879   3.779   3.911 -0.2046  0.4385  0.1318
 3735TIP3    H111127   6.955   3.755   3.963 -0.8583  1.6922  1.7098
 3735TIP3    H211128   6.907   3.857   3.863  0.3546 -0.6413 -1.3475
 3736TIP3   OH211129   3.780   5.344   1.646  0.0799 -0.0334 -0.4903
 3736TIP3    H111130   3.776   5.264   1.698  0.4998  0.2719  0.0172
 3736TIP3    H211131   3.835   5.322   1.571  1.3309  0.1781  0.3613
 3737TIP3   OH211132   2.782   3.089   3.676 -0.1535  0.4499  0.2374
 3737TIP3    H111133   2.795   3.019   3.741  1.0240 -0.3848 -0.8826
 3737TIP3    H211134   2.695   3.123   3.695 -1.1806 -2.0373  0.1305
 3738TIP3   OH211135   3.636   2.378   4.863  0.6846  0.4196 -0.5360
 3738TIP3    H111136   3.603   2.328   4.789  0.5605  0.4792 -0.5205
 3738TIP3    H211137   3.567   2.373   4.929  0.8594  0.2358 -0.3646
 3739TIP3   OH211138   4.167   2.532   3.101 -0.4156 -0.1650  0.3370
 3739TIP3    H111139   4.219   2.494   3.172  2.0316  1.4534 -0.5471
 3739TIP3    H211140   4.139   2.617   3.135 -0.8620 -0.2040  0.0701
 3740TIP3   OH211141   6.204   4.861   5.993 -0.2492  0.0869 -0.1317
 3740TIP3    H111142   6.260   4.814   5.931  0.2172  0.0641  0.3019
 3740TIP3    H211143   6.239   4.837   6.079 -0.0761  1.1320  0.0927
 3741TIP3   OH211144   4.838   2.135   1.006 -0.7239  0.2879  0.3277
 3741TIP3    H111145   4.857   2.223   1.039 -1.1536  0.0028  1.3222
 3741TIP3    H211146   4.896   2.126   0.929 -0.7494  1.4696  0.1604
 3742TIP3   OH211147   2.901   2.874   3.527  0.2087  0.0419 -0.2445
 3742TIP3    H111148   2.919   2.903   3.617  0.5268 -0.3842 -0.1660
 3742TIP3    H211149   2.941   2.787   3.522 -0.6623 -0.3451 -0.5000
 3743TIP3   OH211150   4.157   3.884   3.589 -0.0699  0.1613 -0.2837
 3743TIP3    H111151   4.245   3.917   3.608 -1.0105  2.1954  0.7948
 3743TIP3    H211152   4.143   3.814   3.652  1.1713 -0.8871 -1.1651
 3744TIP3   OH211153   4.328   4.262   2.072 -0.1796 -0.1070  0.5389
 3744TIP3    H111154   4.271   4.213   2.131 -2.6646  1.3566 -0.5863
 3744TIP3    H211155   4.307   4.228   1.984  0.3044  0.8105  0.0602
 3745TIP3   OH211156   4.296   4.035   2.668 -0.3815  0.3833  0.1993
 3745TIP3    H111157   4.282   3.970   2.599 -1.3386  0.2988  0.4672
 3745TIP3    H211158   4.208   4.062   2.693 -0.0285  0.6157  1.2003
 3746TIP3   OH211159   4.157   5.076   0.460 -0.0730 -0.1202  0.8026
 3746TIP3    H111160   4.176   5.095   0.368  0.2109 -0.0309  0.8819
 3746TIP3    H211161   4.118   4.988   0.459 -1.3479  0.4267  0.4406
 3747TIP3   OH211162   2.326   3.474   2.305 -0.6228 -0.3349 -0.5288
 3747TIP3    H111163   2.252   3.530   2.284  0.1311  1.0700  0.4717
 3747TIP3    H211164   2.307   3.441   2.393 -0.3431 -0.4386 -0.5077
 3748TIP3   OH211165   4.366   2.796   3.303 -0.6266 -0.1336 -0.3111
 3748TIP3    H111166   4.370   2.762   3.214 -0.3493 -0.9129 -0.0112
 3748TIP3    H211167   4.319   2.729   3.352  0.3611 -0.3327  0.3973
 3749TIP3   OH211168   5.375   1.691   1.367 -0.3134 -0.7387  0.2288
 3749TIP3    H111169   5.438   1.763   1.375  0.3466 -0.6797 -3.9873
 3749TIP3    H211170   5.307   1.711   1.431  0.4231  3.0676 -0.0552
 3750TIP3   OH211171   4.853   3.639   2.560 -0.2535 -0.5570  0.0843
 3750TIP3    H111172   4.864   3.627   2.465 -0.3335  0.9329 -0.1306
 3750TIP3    H211173   4.774   3.692   2.568 -0.2164 -0.6427  0.9843
 3751TIP3   OH211174   6.197   4.948   2.707  0.2115 -0.5560  0.1187
 3751TIP3    H111175   6.288   4.961   2.732  0.0238 -0.1951  0.6116
 3751TIP3    H211176   6.146   4.985   2.780 -0.3510  1.5885 -1.3081
 3752TIP3   OH211177   5.515   3.105   3.393 -0.2042  0.5321  0.0712
 3752TIP3    H111178   5.544   3.145   3.311 -0.0214 -0.5107 -0.3805
 3752TIP3    H211179   5.578   3.136   3.458  0.5997  0.1067 -0.4844
 3753TIP3   OH211180   2.259   2.787   3.732  0.5109 -0.2380  0.3814
 3753TIP3    H111181   2.282   2.852   3.666 -0.9472  1.0615  1.1437
 3753TIP3    H211182   2.333   2.789   3.794  1.2194 -0.4648 -0.4449
 3754TIP3   OH211183   4.788   3.289   1.126  0.1296 -0.0002 -0.1937
 3754TIP3    H111184   4.705   3.325   1.096 -0.2035 -0.6169 -0.0226
 3754TIP3    H211185   4.823   3.355   1.186 -2.0478 -1.3663  2.7254
 3755TIP3   OH211186   3.310   3.892   4.068 -0.4773 -0.4083  0.1537
 3755TIP3    H111187   3.216   3.890   4.052 -0.2422 -0.5717 -1.3260
 3755TIP3    H211188   3.339   3.802   4.052 -0.1088 -0.4249  0.8800
 3756TIP3   OH211189   4.295   2.808   1.246 -0.0226 -0.9018 -0.3859
 3756TIP3    H111190   4.366   2.813   1.310  1.3455 -1.3076 -1.8392
 3756TIP3    H211191   4.215   2.813   1.298  1.0720 -0.4831  1.2819
 3757TIP3   OH211192   5.152   5.949   3.466  0.3366  1.1918 -0.2574
 3757TIP3    H111193   5.229   5.906   3.503  0.8524  1.7865 -0.6252
 3757TIP3    H211194   5.079   5.920   3.521  0.8639  0.8453  0.2629
 3758TIP3   OH211195   3.299   5.146   1.608  0.3778  0.2441 -0.7599
 3758TIP3    H111196   3.217   5.124   1.652  2.4304  1.2029  3.8987
 3758TIP3    H211197   3.326   5.064   1.565 -1.8570 -0.7062 -0.4265
 3759TIP3   OH211198   6.849   3.456   2.465 -0.5240 -0.3131  0.5810
 3759TIP3    H111199   6.910   3.448   2.538 -0.4669 -1.6549  0.3954
 3759TIP3    H211200   6.795   3.377   2.470 -1.1891  0.0809 -0.2192
 3760TIP3   OH211201   4.735   2.291   2.368 -0.6255 -0.0743  0.4204
 3760TIP3    H111202   4.687   2.332   2.295  1.4720 -0.7922 -1.4310
 3760TIP3    H211203   4.683   2.214   2.390 -0.1369 -1.1162 -1.8946
 3761TIP3   OH211204   3.481   3.837   5.826 -0.6704 -0.7897 -0.3669
 3761TIP3    H111205   3.389   3.843   5.800 -0.8264  2.9166  0.6694
 3761TIP3    H211206   3.498   3.919   5.873  3.0615 -1.5668 -0.1798
 3762TIP3   OH211207   3.174   2.696   2.502 -0.4773  0.1046 -0.6670
 3762TIP3    H111208   3.150   2.783   2.533 -1.4716 -0.9981  1.7278
 3762TIP3    H211209   3.135   2.690   2.415  0.0481  2.2281 -1.0863
 3763TIP3   OH211210   6.901   8.281   7.188  0.0323 -0.0528  0.0786
 3763TIP3    H111211   6.899   8.238   7.274 -2.9586 -1.3617 -0.6106
 3763TIP3    H211212   6.926   8.212   7.127  0.8012  0.5590 -0.3123
 3764TIP3   OH211213   3.471   2.282   3.407  0.3804  0.2846 -0.2555
 3764TIP3    H111214   3.408   2.351   3.427  0.5409  0.0142  1.3151
 3764TIP3    H211215   3.556   2.321   3.428  0.5209 -0.1821  0.0536
 3765TIP3   OH211216   3.313   5.337   3.217 -0.5045 -0.3307  0.2169
 3765TIP3    H111217   3.408   5.328   3.213 -0.6717 -2.3003  0.3115
 3765TIP3    H211218   3.298   5.430   3.233  1.3600  0.3431 -1.7378
 3766TIP3   OH211219   5.468   1.731   3.213 -0.0720  0.1608  0.1115
 3766TIP3    H111220   5.561   1.742   3.237  0.1142 -0.0273 -0.5314
 3766TIP3    H211221   5.466   1.743   3.119 -0.6941  0.0648  0.1140
 3767TIP3   OH211222   5.187   4.470   3.716 -0.2105 -1.1421 -0.3763
 3767TIP3    H111223   5.167   4.389   3.763 -0.6327 -0.5698  0.4467
 3767TIP3    H211224   5.233   4.524   3.780 -4.7749  1.4841  0.9494
 3768TIP3   OH211225   3.462   3.909   2.906 -0.3752 -0.2479 -0.0569
 3768TIP3    H111226   3.515   3.830   2.915  0.7224  0.4151 -0.6177
 3768TIP3    H211227   3.462   3.928   2.813 -1.5640 -0.2046 -0.0551
 3769TIP3   OH211228   1.914   4.650   4.138  0.3290  0.3454  0.2570
 3769TIP3    H111229   1.949   4.579   4.192  0.8220  0.2857 -0.1447
 3769TIP3    H211230   1.955   4.639   4.053  2.4658  2.6697  0.9092
 3770TIP3   OH211231   1.994   4.022   3.627  0.0708 -0.5341  0.2044
 3770TIP3    H111232   1.973   3.942   3.676  0.5369 -0.1929  0.9743
 3770TIP3    H211233   1.934   4.087   3.662  0.4457 -0.2738  0.3635
 3771TIP3   OH211234   6.682   4.430   3.643  0.1464  0.5557  0.2563
 3771TIP3    H111235   6.770   4.438   3.606  0.0689 -4.1166 -1.3568
 3771TIP3    H211236   6.624   4.427   3.567 -1.1542  1.2480  1.2014
 3772TIP3   OH211237   2.910   3.781   2.143  0.2777  0.4630  0.7588
 3772TIP3    H111238   2.991   3.737   2.118  0.4275  0.8303  0.5989
 3772TIP3    H211239   2.847   3.757   2.075  0.3199  0.3828  0.7481
 3773TIP3   OH211240   5.869   3.579   3.778 -0.5178  0.2354 -0.4994
 3773TIP3    H111241   5.791   3.537   3.813  0.6003 -2.3608 -0.9919
 3773TIP3    H211242   5.859   3.672   3.801 -2.7690 -0.3729  1.1443
 3774TIP3   OH211243   0.147   8.150   0.071  0.0614 -0.7587  0.3871
 3774TIP3    H111244   0.125   8.241   0.050 -0.1341 -0.7733  0.5316
 3774TIP3    H211245   0.165   8.110  -0.014  1.4528 -0.2478  0.4340
 3775TIP3   OH211246   4.332   6.577   3.488 -0.4155  0.3183  0.2377
 3775TIP3    H111247   4.263   6.641   3.469 -0.7504  0.0073  0.4043
 3775TIP3    H211248   4.384   6.573   3.408 -0.6362  0.4978  0.0867
 3776TIP3   OH211249   3.773   6.244   3.457 -0.1042  0.4989 -0.1903
 3776TIP3    H111250   3.807   6.251   3.547 -0.3337  1.0815 -0.1482
 3776TIP3    H211251   3.779   6.150   3.437  0.3174  0.4173  0.2885
 3777TIP3   OH211252   2.936   4.746   2.836 -0.1402 -0.0483 -0.4019
 3777TIP3    H111253   2.966   4.787   2.918 -1.1891  0.4901 -0.2852
 3777TIP3    H211254   2.850   4.710   2.857 -0.2631 -0.2152 -1.1700
 3778TIP3   OH211255   2.650   4.453   3.332  0.0019  0.4327  0.0292
 3778TIP3    H111256   2.650   4.383   3.267  1.0321 -0.0912  0.5746
 3778TIP3    H211257   2.558   4.469   3.351 -0.2329 -0.9548  0.0900
 3779TIP3   OH211258   3.332   4.670   2.771  0.6116 -0.7616  0.2785
 3779TIP3    H111259   3.414   4.647   2.729  0.2209  0.3756 -1.1527
 3779TIP3    H211260   3.310   4.756   2.735 -1.7597 -1.5405 -0.2195
 3780TIP3   OH211261   2.532   3.965   2.239 -0.1867  0.3077 -0.0855
 3780TIP3    H111262   2.520   3.882   2.286  0.1319 -0.4337 -1.2787
 3780TIP3    H211263   2.548   4.029   2.307 -1.1011 -0.4932  0.9086
 3781TIP3   OH211264   4.682   3.295   2.467  0.0785 -0.1731 -0.4916
 3781TIP3    H111265   4.746   3.269   2.533 -0.9249  0.6266  0.8281
 3781TIP3    H211266   4.618   3.223   2.466  1.3650 -1.3230 -2.3396
 3782TIP3   OH211267   3.607   5.811   2.612 -0.0217  0.0939  0.1033
 3782TIP3    H111268   3.670   5.879   2.635 -0.1813  0.5997 -0.9489
 3782TIP3    H211269   3.526   5.838   2.655  0.2664 -0.1453  0.8033
 3783TIP3   OH211270   5.665   4.913   3.009  0.1570 -0.0067  0.3285
 3783TIP3    H111271   5.722   4.918   3.085 -0.9111  0.9442  1.0771
 3783TIP3    H211272   5.725   4.918   2.934  1.2189 -1.0604  1.0859
 3784TIP3   OH211273   3.783   4.926   0.568  0.1538  0.3524  0.2999
 3784TIP3    H111274   3.789   5.019   0.547 -0.2900  0.5145  0.8851
 3784TIP3    H211275   3.742   4.887   0.490  0.4815  0.6225 -0.0081
 3785TIP3   OH211276   3.241   4.161   5.376 -0.2892 -0.7861 -0.3393
 3785TIP3    H111277   3.294   4.095   5.333 -1.0275 -1.1855 -0.6366
 3785TIP3    H211278   3.237   4.132   5.468  1.0778 -0.0635 -0.0404
 3786TIP3   OH211279   3.134   4.134   1.730 -0.0642  0.1446 -0.3393
 3786TIP3    H111280   3.117   4.214   1.781 -0.2890 -0.1570  0.0586
 3786TIP3    H211281   3.227   4.138   1.709  0.4230 -0.6180  1.6127
 3787TIP3   OH211282   3.557   5.762   6.074  0.4040  0.0013 -0.3638
 3787TIP3    H111283   3.605   5.778   6.155  0.6758  1.7866 -0.8478
 3787TIP3    H211284   3.618   5.716   6.017 -0.0660 -2.0290  0.7287
 3788TIP3   OH211285   3.438   1.573   1.068 -0.1715 -0.5502 -0.0340
 3788TIP3    H111286   3.439   1.621   1.150 -0.9656 -1.6588  0.6412
 3788TIP3    H211287   3.413   1.638   1.002  0.6201  0.3749  0.5672
 3789TIP3   OH211288   5.081   2.992   2.064  0.2616  0.2756  0.0380
 3789TIP3    H111289   5.139   2.916   2.061  0.3223  0.3697 -2.2542
 3789TIP3    H211290   5.087   3.030   1.976 -0.7530  2.1916  0.7667
 3790TIP3   OH211291   2.149   4.573   2.018  0.3377  0.3052 -0.0137
 3790TIP3    H111292   2.061   4.605   2.001 -1.4625 -2.6627  3.2092
 3790TIP3    H211293   2.166   4.508   1.950  0.1108  0.9855 -0.7182
 3791TIP3   OH211294   3.817   2.239   1.814  0.3677  0.0437 -0.1909
 3791TIP3    H111295   3.875   2.206   1.881  0.9615 -0.6246 -1.0299
 3791TIP3    H211296   3.770   2.162   1.782  0.4178  0.2871 -0.8589
 3792TIP3   OH211297   2.790   1.262   1.295  0.1115  0.4924 -0.1181
 3792TIP3    H111298   2.852   1.221   1.356  1.8575  2.2824 -0.6012
 3792TIP3    H211299   2.755   1.190   1.243 -0.0225 -0.8354  1.7818
 3793TIP3   OH211300   1.023   0.567   7.057  0.6388  0.3648  0.1668
 3793TIP3    H111301   1.034   0.472   7.059  3.4449  0.6554  0.8279
 3793TIP3    H211302   1.044   0.591   6.966  1.0186  0.4455  0.2731
 3794TIP3   OH211303   3.311   2.331   2.293 -0.4143  0.3253  0.0152
 3794TIP3    H111304   3.384   2.393   2.299 -1.1203  1.0789  0.8503
 3794TIP3    H211305   3.349   2.247   2.318  0.2794  0.6337  0.0105
 3795TIP3   OH211306   4.751   4.772   2.716  0.0687  0.0943 -0.1846
 3795TIP3    H111307   4.657   4.761   2.725  0.1639 -1.4098 -0.8824
 3795TIP3    H211308   4.788   4.730   2.794  0.3035 -2.2689 -1.5313
 3796TIP3   OH211309   4.699   2.651   2.664  0.3274  0.2266  0.2218
 3796TIP3    H111310   4.764   2.585   2.639  0.8515  0.7605  0.1624
 3796TIP3    H211311   4.620   2.600   2.684  1.0288 -0.5166  1.2241
 3797TIP3   OH211312   3.176   4.336   2.074  0.5084  0.6168  0.5340
 3797TIP3    H111313   3.168   4.329   1.979 -0.1586  3.2456  0.3708
 3797TIP3    H211314   3.144   4.252   2.107 -1.1875  0.4390 -1.4773
 3798TIP3   OH211315   5.582   3.969   1.282 -0.2876 -0.5498  0.1601
 3798TIP3    H111316   5.574   3.881   1.320  0.3595 -1.2860 -1.3620
 3798TIP3    H211317   5.498   4.011   1.299 -0.9963 -1.8604 -0.1035
 3799TIP3   OH211318   4.276   5.541   3.919  0.1107  0.0955  0.4488
 3799TIP3    H111319   4.366   5.538   3.888 -0.3075  0.9478 -0.9296
 3799TIP3    H211320   4.251   5.449   3.931  0.6363 -0.2199 -0.7743
 3800TIP3   OH211321   5.657   2.306   1.322 -0.1583 -0.6157  0.4137
 3800TIP3    H111322   5.732   2.258   1.287  2.4987  0.3864  4.4791
 3800TIP3    H211323   5.679   2.398   1.311 -1.6074 -0.2918  0.0586
 3801TIP3   OH211324   2.272   3.934   2.404 -0.4164 -0.8542  0.0833
 3801TIP3    H111325   2.222   3.877   2.462 -0.8721  0.2041  0.7338
 3801TIP3    H211326   2.253   4.022   2.434  3.7384 -0.4668  1.9308
 3802TIP3   OH211327   1.200   3.849   3.643  0.2273  0.1829  0.0567
 3802TIP3    H111328   1.213   3.756   3.626  0.5771  0.3797 -0.8069
 3802TIP3    H211329   1.281   3.890   3.613 -0.3115  0.8703 -0.4807
 3803TIP3   OH211330   5.911   3.993   4.249 -0.0795 -0.4193  0.1743
 3803TIP3    H111331   5.866   3.951   4.322 -2.3867  1.2164 -0.2495
 3803TIP3    H211332   5.910   3.927   4.179  0.4466 -1.2932  0.9681
 3804TIP3   OH211333   2.605   3.223   3.103 -0.1406  0.1337 -0.1900
 3804TIP3    H111334   2.600   3.307   3.057  1.9255  0.1427 -0.4439
 3804TIP3    H211335   2.616   3.158   3.033  0.7939 -0.0842  0.1580
 3805TIP3   OH211336   4.759   3.724   0.227 -0.1199 -0.5588 -0.3393
 3805TIP3    H111337   4.690   3.691   0.171 -0.5627  3.1456 -2.0700
 3805TIP3    H211338   4.714   3.763   0.301  0.2964 -1.0976  0.2142
 3806TIP3   OH211339   2.663   6.274   1.938 -0.4731  0.7937 -0.3111
 3806TIP3    H111340   2.608   6.347   1.966  0.0861  0.3498  2.0123
 3806TIP3    H211341   2.601   6.201   1.929 -0.7102  1.0243 -0.5584
 3807TIP3   OH211342   2.866   3.265   5.748  0.1834 -0.0251 -0.0705
 3807TIP3    H111343   2.929   3.201   5.715 -1.2124 -0.5718 -1.7851
 3807TIP3    H211344   2.843   3.234   5.836  1.4122 -0.4659  0.0978
 3808TIP3   OH211345   2.142   4.088   1.668  0.0839 -0.0458  0.2674
 3808TIP3    H111346   2.180   4.103   1.581  1.2430  0.4478  0.8409
 3808TIP3    H211347   2.048   4.105   1.656 -0.1346 -2.1817 -1.3910
 3809TIP3   OH211348   7.025   4.494   4.018  0.0080 -0.4511  0.1921
 3809TIP3    H111349   7.073   4.576   4.010  1.4349 -1.3810 -0.9956
 3809TIP3    H211350   7.038   4.466   4.108  1.8897 -0.7934 -0.1700
 3810TIP3   OH211351   4.484   4.936   3.863 -0.1801 -0.4964 -0.0058
 3810TIP3    H111352   4.408   4.882   3.840 -0.4367  0.7182 -2.1258
 3810TIP3    H211353   4.549   4.915   3.797 -0.4687  2.1541 -1.2012
 3811TIP3   OH211354   5.636   4.526   3.190  0.1874 -0.4705 -0.0390
 3811TIP3    H111355   5.631   4.454   3.252  0.9028  0.4848  1.1460
 3811TIP3    H211356   5.661   4.485   3.107  0.8006 -1.5478  0.6747
 3812TIP3   OH211357   2.925   4.876   3.086 -0.3065 -0.0131 -0.6012
 3812TIP3    H111358   2.886   4.940   3.146  0.4696 -0.0525 -0.0465
 3812TIP3    H211359   3.002   4.844   3.132 -1.5767 -2.5672 -0.1591
 3813TIP3   OH211360   4.202   3.587   3.458  0.5746 -0.0407  0.1319
 3813TIP3    H111361   4.277   3.637   3.428  1.2556  0.0973  2.0037
 3813TIP3    H211362   4.238   3.521   3.518 -0.5307 -1.4781 -0.7340
 3814TIP3   OH211363   2.437   1.621   1.008  0.3610  0.3010  0.1255
 3814TIP3    H111364   2.430   1.658   0.920  0.8887  0.4450  0.1441
 3814TIP3    H211365   2.443   1.527   0.994 -3.3852 -0.0427  0.1727
 3815TIP3   OH211366   5.999   3.049   2.004 -0.1204 -0.1850 -0.8218
 3815TIP3    H111367   5.986   2.986   2.075  1.2946 -0.0195 -0.3945
 3815TIP3    H211368   6.083   3.024   1.965 -1.0523 -0.5052 -2.7042
 3816TIP3   OH211369   5.488   4.678   3.010  0.0549 -0.2717 -0.4726
 3816TIP3    H111370   5.489   4.652   3.102  1.8636 -0.1878 -0.4438
 3816TIP3    H211371   5.551   4.751   3.006 -0.1202 -0.1911 -1.7418
 3817TIP3   OH211372   4.410   2.175   1.613 -0.5210 -0.0332 -0.2973
 3817TIP3    H111373   4.493   2.128   1.618 -1.2670 -1.3683 -0.2730
 3817TIP3    H211374   4.407   2.227   1.694  0.1474 -0.2265 -0.1479
 3818TIP3   OH211375   3.440   4.388   3.129  0.4490 -0.1975  0.3936
 3818TIP3    H111376   3.524   4.405   3.086  0.0551  1.0810  0.1090
 3818TIP3    H211377   3.418   4.298   3.104  1.6875 -0.5058  0.4000
 3819TIP3   OH211378   2.767   2.337   1.712  0.5266  0.1501 -0.1876
 3819TIP3    H111379   2.858   2.320   1.736  0.1478 -0.1828  1.0828
 3819TIP3    H211380   2.716   2.300   1.784 -0.5561  1.7079 -0.1132
 3820TIP3   OH211381   5.151   4.549   3.453 -0.3509  0.0201 -0.1598
 3820TIP3    H111382   5.159   4.511   3.541  0.3247 -1.9137 -1.0317
 3820TIP3    H211383   5.234   4.596   3.440 -0.5920  0.5998  0.3578
 3821TIP3   OH211384   4.787   2.791   1.044  0.1323 -0.4030 -0.2911
 3821TIP3    H111385   4.704   2.769   1.086  0.9137 -0.8341  1.0417
 3821TIP3    H211386   4.805   2.881   1.071 -0.1885 -0.1033 -1.0588
 3822TIP3   OH211387   5.704   4.119   4.102 -0.0061 -0.0321  0.0624
 3822TIP3    H111388   5.783   4.080   4.139 -0.1390 -0.5274 -0.1789
 3822TIP3    H211389   5.736   4.189   4.046  0.2057  0.6323  0.9967
 3823TIP3   OH211390   5.314   3.636   2.261 -0.4378 -0.3544 -0.0354
 3823TIP3    H111391   5.288   3.619   2.352 -0.3084 -2.3410 -0.3387
 3823TIP3    H211392   5.372   3.563   2.239  1.2327  1.2252 -1.0488
 3824TIP3   OH211393   3.475   3.478   3.667 -0.7932 -0.1197  0.2346
 3824TIP3    H111394   3.438   3.390   3.659 -3.2168  0.8050  0.8879
 3824TIP3    H211395   3.400   3.533   3.689  1.2610  1.5684  3.2475
 3825TIP3   OH211396   5.579   4.441   2.133  0.3208  0.6680 -0.5896
 3825TIP3    H111397   5.564   4.450   2.039  1.0913  1.0991 -0.6731
 3825TIP3    H211398   5.569   4.347   2.149 -0.4112  0.6669 -0.9907
 3826TIP3   OH211399   4.860   2.042   4.541  0.1329 -0.0439  0.1743
 3826TIP3    H111400   4.881   2.077   4.455  1.1890  0.3290  0.5717
 3826TIP3    H211401   4.770   2.011   4.533  0.2316 -0.0434 -1.0680
 3827TIP3   OH211402   3.670   4.429   3.887  0.2020  0.0307 -0.1397
 3827TIP3    H111403   3.664   4.334   3.898  2.1304  0.0539  1.3134
 3827TIP3    H211404   3.579   4.458   3.881 -0.4144 -1.8783 -0.3615
 3828TIP3   OH211405   2.174   5.691   1.345  0.3490  0.2669 -0.1882
 3828TIP3    H111406   2.117   5.651   1.411 -0.8662  0.2398 -1.2275
 3828TIP3    H211407   2.191   5.620   1.283  0.3697  0.6630 -0.6301
 3829TIP3   OH211408   1.134   3.632   3.180  0.3422  0.7945 -0.0135
 3829TIP3    H111409   1.158   3.663   3.092 -1.9956  1.0291 -0.6021
 3829TIP3    H211410   1.120   3.712   3.231  1.7091  0.6576  0.5786
 3830TIP3   OH211411   5.560   3.882   2.316 -0.8831  0.3396 -0.0511
 3830TIP3    H111412   5.532   3.919   2.232 -0.9595 -1.4907 -0.8648
 3830TIP3    H211413   5.542   3.789   2.307 -2.4398  0.3460  2.6459
 3831TIP3   OH211414   7.715   3.085   3.039  0.0621 -0.3702 -0.4232
 3831TIP3    H111415   7.693   3.095   3.132 -2.7825 -2.2259 -0.8323
 3831TIP3    H211416   7.736   2.993   3.029 -0.5663 -0.3680 -1.8180
 3832TIP3   OH211417   4.497   2.951   1.711 -0.0345 -0.0498  0.7967
 3832TIP3    H111418   4.534   2.977   1.626 -2.4655  0.5049 -0.1339
 3832TIP3    H211419   4.472   3.034   1.752 -1.9684 -0.5296  0.5917
 3833TIP3   OH211420   4.806   3.759   2.870  0.1351 -0.3612  0.7043
 3833TIP3    H111421   4.767   3.747   2.784 -1.8751 -0.7974  1.6383
 3833TIP3    H211422   4.778   3.846   2.898 -1.3915 -1.2039  1.9428
 3834TIP3   OH211423   5.328   0.882   5.226  0.3400  0.6787 -0.0217
 3834TIP3    H111424   5.351   0.867   5.318  1.5051 -1.4424 -0.6138
 3834TIP3    H211425   5.243   0.838   5.215 -0.5872  2.3354  0.4216
 3835TIP3   OH211426   4.179   3.673   1.503 -0.0489 -0.1263  0.3658
 3835TIP3    H111427   4.222   3.656   1.419  0.3328  1.3798  0.2256
 3835TIP3    H211428   4.094   3.709   1.479 -0.1496 -0.1936  0.6253
 3836TIP3   OH211429   2.433   2.093   2.393  0.5670 -0.0216 -0.1537
 3836TIP3    H111430   2.363   2.158   2.385 -0.1245 -0.7286  0.1214
 3836TIP3    H211431   2.405   2.036   2.465  1.3496 -0.4079 -0.1466
 3837TIP3   OH211432   3.858   4.198   0.545 -0.0056  0.0335  0.4107
 3837TIP3    H111433   3.831   4.175   0.634 -1.4854  1.5401  0.3803
 3837TIP3    H211434   3.825   4.287   0.533 -0.6145 -0.4909 -1.9718
 3838TIP3   OH211435   2.507   3.697   2.353  0.2869  0.1979  0.2250
 3838TIP3    H111436   2.419   3.664   2.332 -0.3319  2.0939 -0.2432
 3838TIP3    H211437   2.503   3.715   2.447  0.2414  0.1237  0.2379
 3839TIP3   OH211438   5.516   7.331   3.828  0.5104  0.2581  0.6174
 3839TIP3    H111439   5.425   7.347   3.802  0.4154 -1.8455 -0.4394
 3839TIP3    H211440   5.566   7.398   3.782 -0.0974 -1.0536 -2.0813
 3840TIP3   OH211441   4.520   3.627   0.574 -0.1440  0.2222  0.0176
 3840TIP3    H111442   4.611   3.611   0.601  0.0239  2.6262  1.0151
 3840TIP3    H211443   4.527   3.653   0.481  0.4690  2.4465  0.6383
 3841TIP3   OH211444   3.763   6.031   4.800 -0.3099  1.0365 -0.3413
 3841TIP3    H111445   3.749   6.125   4.800 -1.2342  0.9085  1.0880
 3841TIP3    H211446   3.856   6.020   4.820 -0.7957  1.5764  2.3366
 3842TIP3   OH211447   5.775   2.725   0.912 -0.0741 -0.1578 -0.2133
 3842TIP3    H111448   5.833   2.763   0.846 -0.6021 -0.3492 -0.7867
 3842TIP3    H211449   5.719   2.664   0.863 -1.2908  0.6073  0.2047
 3843TIP3   OH211450   6.783   2.812   1.879  0.5133  0.2340 -0.0585
 3843TIP3    H111451   6.811   2.746   1.942 -0.6891  0.1560  0.4037
 3843TIP3    H211452   6.863   2.858   1.854  1.1302 -0.3961  0.7676
 3844TIP3   OH211453   4.486   4.118   2.330 -0.3643  0.3680 -0.0119
 3844TIP3    H111454   4.417   4.161   2.280  0.3739  2.6011  0.8306
 3844TIP3    H211455   4.525   4.056   2.269 -2.1809  0.0753 -0.9209
 3845TIP3   OH211456   6.135   3.470   2.837  0.5774 -0.1541  0.5347
 3845TIP3    H111457   6.199   3.407   2.870  1.2904  1.5568  2.5107
 3845TIP3    H211458   6.187   3.532   2.786 -0.0583 -0.8429 -0.9934
 3846TIP3   OH211459   4.458   2.270   1.880  1.0392 -0.1204 -0.1572
 3846TIP3    H111460   4.492   2.351   1.843  1.4864 -0.8698 -1.4256
 3846TIP3    H211461   4.533   2.229   1.923  1.0872 -0.4214 -0.5261
 3847TIP3   OH211462   3.187   4.681   2.494  0.0508 -0.4803 -0.2753
 3847TIP3    H111463   3.264   4.624   2.491 -0.6224 -1.4090 -0.0883
 3847TIP3    H211464   3.142   4.657   2.575 -0.6549 -0.2371 -0.5850
 3848TIP3   OH211465   3.965   1.707   1.061 -0.0205  0.3376  0.2999
 3848TIP3    H111466   4.057   1.705   1.034  0.0455 -0.6368  0.5988
 3848TIP3    H211467   3.917   1.729   0.980  0.3644 -0.4317 -0.1448
 3849TIP3   OH211468   3.040   3.947   1.552 -0.1043 -0.8324  0.6222
 3849TIP3    H111469   2.957   3.934   1.598 -0.2589  0.9952  0.8760
 3849TIP3    H211470   3.097   3.989   1.616 -0.1198  1.1573 -0.6242
 3850TIP3   OH211471   5.266   5.569   5.569  0.8472  0.1523 -0.1242
 3850TIP3    H111472   5.314   5.489   5.588  0.8702 -0.3400 -2.1716
 3850TIP3    H211473   5.190   5.541   5.519  0.2769  1.2986  0.0724
 3851TIP3   OH211474   4.861   1.734   2.625  0.1510  0.1832 -0.2068
 3851TIP3    H111475   4.882   1.826   2.608  0.6069  0.0348 -0.4423
 3851TIP3    H211476   4.946   1.691   2.632 -0.0443 -0.7484 -2.9368
 3852TIP3   OH211477   0.918   3.546   2.262  0.6189  0.2234 -0.0896
 3852TIP3    H111478   0.861   3.476   2.293  0.3126  0.9922  1.1398
 3852TIP3    H211479   0.981   3.503   2.206 -1.5058 -0.5808 -1.9413
 3853TIP3   OH211480   3.941   4.583   3.221  0.1680 -0.6412  0.1952
 3853TIP3    H111481   3.995   4.551   3.149 -1.4081 -1.8862 -0.4613
 3853TIP3    H211482   3.910   4.668   3.192  0.4238 -0.6605 -0.1352
 3854TIP3   OH211483   1.495   4.943   1.484  0.1262  0.4979  0.2382
 3854TIP3    H111484   1.505   5.038   1.494 -0.2364  0.6069 -0.3894
 3854TIP3    H211485   1.425   4.919   1.545 -1.8722  1.1042 -1.7720
 3855TIP3   OH211486   4.264   3.797   2.499 -0.8861  0.1452 -0.1544
 3855TIP3    H111487   4.229   3.711   2.522 -1.6820  0.7111  0.8138
 3855TIP3    H211488   4.347   3.778   2.454 -0.5267 -1.0918  0.9782
 3856TIP3   OH211489   3.494   3.607   4.163  0.1202 -0.2631  0.4988
 3856TIP3    H111490   3.446   3.632   4.243 -1.8855  1.8959 -1.2895
 3856TIP3    H211491   3.444   3.533   4.127  1.7274 -2.0454  1.8331
 3857TIP3   OH211492   2.740   3.770   3.764 -0.4362 -0.1613 -0.2493
 3857TIP3    H111493   2.829   3.783   3.797 -1.1379  1.6857  0.9862
 3857TIP3    H211494   2.728   3.841   3.701  0.3004 -2.6820 -3.3407
 3858TIP3   OH211495   5.466   4.455   3.552  0.7133 -0.1415  0.1497
 3858TIP3    H111496   5.464   4.381   3.612  1.7416  0.1754  0.5824
 3858TIP3    H211497   5.419   4.524   3.598 -0.0297 -0.4309 -0.1516
 3859TIP3   OH211498   4.107   1.463   3.141 -0.0251 -0.0096  0.1122
 3859TIP3    H111499   4.043   1.518   3.186 -0.0195 -1.3647  1.8528
 3859TIP3    H211500   4.057   1.385   3.115  0.2467  0.2489 -1.1796
 3860TIP3   OH211501   3.865   3.848   3.434  0.0913  0.0874  0.2575
 3860TIP3    H111502   3.778   3.875   3.463 -0.1214  0.3573 -0.6063
 3860TIP3    H211503   3.925   3.889   3.496 -0.2392  2.2668 -0.8094
 3861TIP3   OH211504   5.199   4.942   2.308  0.4125 -0.2951  0.0335
 3861TIP3    H111505   5.218   4.929   2.401  2.8923 -1.8247 -0.6375
 3861TIP3    H211506   5.133   4.875   2.288  0.3508 -0.3913  0.5471
 3862TIP3   OH211507   3.998   2.417   3.642 -0.2102 -0.0256 -0.6600
 3862TIP3    H111508   3.915   2.452   3.676 -0.3770 -1.6424  0.6892
 3862TIP3    H211509   4.063   2.482   3.668 -0.6227 -0.2779  1.0711
 3863TIP3   OH211510   1.339   3.362   0.786 -0.1262 -0.6308  0.1288
 3863TIP3    H111511   1.374   3.397   0.868  0.7034  0.2169 -0.5782
 3863TIP3    H211512   1.337   3.267   0.800  0.1932 -0.5095  1.0551
 3864TIP3   OH211513   4.840   4.959   1.333  0.1561 -0.1158  0.1186
 3864TIP3    H111514   4.861   5.044   1.295  1.1861 -0.5483 -0.2905
 3864TIP3    H211515   4.764   4.929   1.284 -1.9820  1.8217  2.1492
 3865TIP3   OH211516   2.871   1.823   5.491 -0.3427  0.4041 -0.5328
 3865TIP3    H111517   2.782   1.820   5.456 -0.6392  1.5056  0.0997
 3865TIP3    H211518   2.863   1.786   5.579  0.1245 -0.9662 -1.0539
 3866TIP3   OH211519   0.991   3.781   3.931 -0.6765 -0.2538  0.3003
 3866TIP3    H111520   1.000   3.695   3.891 -0.2451  0.4312 -1.1227
 3866TIP3    H211521   1.034   3.841   3.869  1.6602  0.6200  2.6337
 3867TIP3   OH211522   3.857   5.988   2.912 -0.0562 -0.1187  0.0949
 3867TIP3    H111523   3.784   6.005   2.972 -1.0544  0.1565 -1.1832
 3867TIP3    H211524   3.934   6.025   2.957 -0.7389 -0.1969  1.3380
 3868TIP3   OH211525   3.014   4.127   2.782 -0.9005 -0.1521 -0.0295
 3868TIP3    H111526   2.997   4.197   2.846 -0.1431  0.6592 -0.7011
 3868TIP3    H211527   3.017   4.172   2.698  1.2883 -0.7315 -0.3014
 3869TIP3   OH211528   4.485   3.059   3.094 -0.1476  0.0434 -0.0995
 3869TIP3    H111529   4.467   2.977   3.048 -1.2609  0.0803  0.2610
 3869TIP3    H211530   4.419   3.120   3.061  0.0346  0.5089  0.3840
 3870TIP3   OH211531   2.704   5.491   3.898 -0.4283  0.4934  0.2956
 3870TIP3    H111532   2.800   5.492   3.902 -0.4810  1.7091  2.0922
 3870TIP3    H211533   2.678   5.571   3.945 -2.3249 -0.1002  0.2664
 3871TIP3   OH211534   2.726   6.368   4.283 -0.0125  0.2038  0.2460
 3871TIP3    H111535   2.717   6.379   4.188  0.0195 -2.6693 -0.1438
 3871TIP3    H211536   2.803   6.419   4.307 -0.5135  1.6361 -1.1315
 3872TIP3   OH211537   4.805   5.529   2.293 -0.2695 -0.3411  0.2570
 3872TIP3    H111538   4.794   5.434   2.285  0.3312 -0.4369  0.5441
 3872TIP3    H211539   4.756   5.565   2.219 -0.4658 -0.8777  0.1245
 3873TIP3   OH211540   3.668   4.125   3.633 -0.5260  0.0669  0.0046
 3873TIP3    H111541   3.680   4.137   3.539  1.0463  0.9449  0.2847
 3873TIP3    H211542   3.757   4.121   3.668 -1.0876  0.5606  1.5427
 3874TIP3   OH211543   5.218   4.085   3.280 -0.3971  0.2009 -0.4703
 3874TIP3    H111544   5.287   4.100   3.216 -0.9739  0.4508 -1.0363
 3874TIP3    H211545   5.237   3.998   3.315  1.5560  1.2322  1.0954
 3875TIP3   OH211546   2.871   4.903   3.482 -0.1959 -0.2803 -0.2056
 3875TIP3    H111547   2.839   4.819   3.449  0.2556 -0.0213 -1.3180
 3875TIP3    H211548   2.957   4.883   3.520 -0.8343 -0.6290  1.0969
 3876TIP3   OH211549   7.707   7.963   1.675  0.1725 -0.0062 -0.4845
 3876TIP3    H111550   7.620   7.924   1.671  1.1427 -2.1863 -0.6317
 3876TIP3    H211551   7.767   7.889   1.680  1.9572  1.5018  1.2952
 3877TIP3   OH211552   4.479   3.088   3.658 -0.2609 -0.4557  0.3005
 3877TIP3    H111553   4.567   3.099   3.623 -0.6738  3.1561  0.2637
 3877TIP3    H211554   4.492   3.063   3.749  0.7983 -1.0110 -0.0027
 3878TIP3   OH211555   3.216   4.598   3.632  0.3610  0.0651 -0.1420
 3878TIP3    H111556   3.159   4.674   3.640 -0.0598 -0.3224  0.4991
 3878TIP3    H211557   3.281   4.624   3.566 -0.8211  0.3286 -1.2241
 3879TIP3   OH211558   3.482   3.183   3.962 -0.5161  0.4000  0.1365
 3879TIP3    H111559   3.468   3.123   3.889 -2.2727  1.5879 -0.5104
 3879TIP3    H211560   3.549   3.244   3.931 -0.6974  0.4335 -0.1814
 3880TIP3   OH211561   1.370   2.332   2.487  0.1652  0.5206  0.0693
 3880TIP3    H111562   1.449   2.360   2.533  0.6049 -0.5751 -0.0193
 3880TIP3    H211563   1.400   2.267   2.423 -0.6682  0.8267 -0.6477
 3881TIP3   OH211564   4.540   2.044   0.534  0.0661 -0.0177  0.1148
 3881TIP3    H111565   4.535   2.033   0.628 -1.6927 -0.3835 -0.0230
 3881TIP3    H211566   4.633   2.064   0.518  0.5975 -1.0295  1.7777
 3882TIP3   OH211567   4.260   2.581   3.418 -0.2685  0.4013  0.1756
 3882TIP3    H111568   4.260   2.492   3.452 -0.2846 -0.8348 -2.8935
 3882TIP3    H211569   4.168   2.608   3.420 -0.4451 -0.1752 -0.2135
 3883TIP3   OH211570   4.020   2.556   2.857 -0.0417 -0.8914 -0.4930
 3883TIP3    H111571   4.080   2.538   2.929 -0.9693 -1.6771  0.0951
 3883TIP3    H211572   4.054   2.637   2.817  0.5182 -0.4859  0.7743
 3884TIP3   OH211573   3.460   3.409   2.328 -0.0013  0.8758  0.3210
 3884TIP3    H111574   3.550   3.388   2.302  0.0320  2.0464 -0.5406
 3884TIP3    H211575   3.469   3.485   2.386 -0.4866  1.4774 -0.3815
 3885TIP3   OH211576   0.450   3.409   2.986  0.3998 -0.2736 -0.1222
 3885TIP3    H111577   0.481   3.497   3.007 -0.6175 -0.0902  0.6759
 3885TIP3    H211578   0.494   3.387   2.904  2.1205  0.2223  0.6441
 3886TIP3   OH211579   2.115   1.512   2.030  0.8712  0.0273  0.4950
 3886TIP3    H111580   2.023   1.488   2.025  0.5263  1.3587  0.0743
 3886TIP3    H211581   2.147   1.506   1.940  1.8854 -2.9489  1.0151
 3887TIP3   OH211582   3.126   4.550   1.280  0.4970  0.1350 -0.0787
 3887TIP3    H111583   3.059   4.608   1.316 -1.6258 -1.5746 -1.1092
 3887TIP3    H211584   3.095   4.530   1.192  2.8573  0.0039 -0.9061
 3888TIP3   OH211585   4.476   6.591   3.250  0.4755 -0.0856  0.2482
 3888TIP3    H111586   4.518   6.593   3.165  0.9889 -1.5309  0.4551
 3888TIP3    H211587   4.529   6.530   3.302  0.3659  1.0291  1.6984
 3889TIP3   OH211588   2.448   4.486   2.647  0.3038 -0.0135  0.2016
 3889TIP3    H111589   2.526   4.542   2.647 -0.2256  0.7389  0.2563
 3889TIP3    H211590   2.375   4.547   2.659 -0.2943 -0.7099  0.1453
 3890TIP3   OH211591   3.908   3.506   2.482  0.1542 -0.4497  0.1567
 3890TIP3    H111592   3.974   3.515   2.552  2.5049  0.4663 -2.0852
 3890TIP3    H211593   3.955   3.530   2.402 -3.2970  1.5273 -1.3888
 3891TIP3   OH211594   2.383   5.784   2.077  0.0042  0.0195 -0.1925
 3891TIP3    H111595   2.456   5.835   2.042  0.5022 -0.4332  0.1892
 3891TIP3    H211596   2.319   5.850   2.104 -0.7994  0.3758 -2.7887
 3892TIP3   OH211597   4.784   2.209   0.461 -0.0778 -0.5801 -0.6596
 3892TIP3    H111598   4.736   2.278   0.414 -1.2052 -0.8706  0.0332
 3892TIP3    H211599   4.875   2.236   0.455 -0.6224  1.8601  1.0016
 3893TIP3   OH211600   3.643   6.767   3.001 -0.1218  0.4696  0.3051
 3893TIP3    H111601   3.706   6.745   3.069  0.3779  0.9065 -0.0149
 3893TIP3    H211602   3.657   6.701   2.933  1.6281  1.9350 -0.8171
 3894TIP3   OH211603   3.866   3.858   0.675  0.5935 -0.0827  0.5043
 3894TIP3    H111604   3.924   3.928   0.704 -0.5881  1.0443  0.1956
 3894TIP3    H211605   3.898   3.780   0.721  2.4218  0.4726  0.2388
 3895TIP3   OH211606   6.970   3.019   2.951  0.3054 -0.3733  0.1166
 3895TIP3    H111607   6.970   3.052   2.861 -1.0746  0.5280  0.4211
 3895TIP3    H211608   6.895   3.062   2.992  0.4047 -1.4395  1.4594
 3896TIP3   OH211609   4.172   1.334   1.318 -0.6927  0.1278 -0.1200
 3896TIP3    H111610   4.144   1.425   1.304 -0.0423  0.4184  0.4838
 3896TIP3    H211611   4.093   1.290   1.352 -1.4080  0.1301 -1.7184
 3897TIP3   OH211612   7.851   4.507   3.292  0.5481 -0.2782  0.4487
 3897TIP3    H111613   7.938   4.541   3.314 -0.8226  3.5162  0.3088
 3897TIP3    H211614   7.854   4.496   3.197  0.8598 -0.0636  0.4315
 3898TIP3   OH211615   7.507   2.914   0.802  0.6418  0.6034  0.1245
 3898TIP3    H111616   7.569   2.914   0.728 -2.5060  1.2497 -2.6301
 3898TIP3    H211617   7.508   2.824   0.834  1.4991  0.1212 -1.2094
 3899TIP3   OH211618   5.316   4.128   2.231 -0.0111  0.4265  0.1510
 3899TIP3    H111619   5.284   4.046   2.194  0.0861  0.2366  0.4863
 3899TIP3    H211620   5.392   4.150   2.177  0.2154  0.0750  0.3215
 3900TIP3   OH211621   3.685   2.556   3.196 -0.2581 -0.5864  0.0928
 3900TIP3    H111622   3.770   2.533   3.235 -0.8272 -1.6178  0.7615
 3900TIP3    H211623   3.626   2.563   3.271 -0.5952  0.9315 -0.3063
 3901TIP3   OH211624   5.571   2.797   1.518  0.2597 -0.1545 -0.1404
 3901TIP3    H111625   5.574   2.822   1.426  0.8122  2.4977  0.5714
 3901TIP3    H211626   5.613   2.711   1.521  0.6872 -0.0372 -2.2712
 3902TIP3   OH211627   6.743   3.557   1.957 -0.8682  0.4376  0.2850
 3902TIP3    H111628   6.795   3.499   1.901 -0.6083  1.7504 -0.8623
 3902TIP3    H211629   6.782   3.549   2.044  0.4711  0.4763 -0.3075
 3903TIP3   OH211630   6.257   4.713   3.207 -0.2698  0.8319  0.0474
 3903TIP3    H111631   6.218   4.700   3.293  0.7577  0.8098  0.5099
 3903TIP3    H211632   6.251   4.808   3.192 -1.3708  0.7119 -0.2998
 3904TIP3   OH211633   4.757   3.703   1.231 -0.1620 -0.1789 -0.0296
 3904TIP3    H111634   4.830   3.677   1.174 -0.4021 -0.7584 -0.0811
 3904TIP3    H211635   4.743   3.627   1.288  0.2742  0.5070  1.0161
 3905TIP3   OH211636   3.908   2.293   1.194 -0.2325 -0.1607  0.5466
 3905TIP3    H111637   3.931   2.216   1.142  3.8288 -1.1426  3.5768
 3905TIP3    H211638   3.819   2.275   1.227  0.7066 -3.6505  1.3165
 3906TIP3   OH211639   7.890   4.485   2.570 -0.2535 -0.5585  0.6932
 3906TIP3    H111640   7.957   4.417   2.564 -1.9009 -2.1479  0.0217
 3906TIP3    H211641   7.814   4.449   2.526 -1.1591  1.7641  0.2469
 3907TIP3   OH211642   2.419   5.513   2.443  0.4063 -0.4188  0.3022
 3907TIP3    H111643   2.388   5.422   2.455  1.1329 -0.3687  2.8194
 3907TIP3    H211644   2.491   5.522   2.505  1.0215  1.5955 -0.6755
 3908TIP3   OH211645   3.631   3.600   0.187  0.0323  0.1683  0.2853
 3908TIP3    H111646   3.690   3.583   0.260  0.9624  2.2705  0.0693
 3908TIP3    H211647   3.659   3.684   0.153 -1.9357  0.3471 -0.9944
 3909TIP3   OH211648   6.089   1.317   4.827 -0.0386  0.1155 -0.0096
 3909TIP3    H111649   6.143   1.346   4.900 -0.3312  1.3301 -0.2625
 3909TIP3    H211650   6.087   1.222   4.835  2.2414  0.0503 -0.0880
 3910TIP3   OH211651   8.830   8.162   3.683 -0.1738 -0.5669 -0.2757
 3910TIP3    H111652   8.771   8.088   3.666 -0.4328 -0.8178  1.5500
 3910TIP3    H211653   8.772   8.237   3.694 -0.0176 -0.4049 -0.5644
 3911TIP3   OH211654   7.170   4.704   1.412  0.1193  0.1099  0.1457
 3911TIP3    H111655   7.204   4.623   1.449 -1.3488  0.1130  1.5347
 3911TIP3    H211656   7.094   4.677   1.361 -0.4157  0.6206  0.6671
 3912TIP3   OH211657   4.972   4.815   2.192  0.1657  0.7131  0.4348
 3912TIP3    H111658   4.938   4.813   2.281 -1.0480  2.3246  0.0297
 3912TIP3    H211659   4.913   4.759   2.142 -0.3482  1.4242  0.2452
 3913TIP3   OH211660   6.420   6.245   2.106 -0.6203 -0.7039 -0.1299
 3913TIP3    H111661   6.348   6.206   2.057 -0.6409  0.5147 -1.0765
 3913TIP3    H211662   6.495   6.187   2.089 -0.5033 -0.0183 -2.0234
 3914TIP3   OH211663   3.859   2.964   1.713  0.0823  0.2442 -0.4643
 3914TIP3    H111664   3.826   3.046   1.751  0.4950  0.2708 -0.1637
 3914TIP3    H211665   3.954   2.974   1.713  0.1133 -0.0462 -0.8585
 3915TIP3   OH211666   6.829   3.539   2.214 -0.2679  0.5735  0.1261
 3915TIP3    H111667   6.851   3.505   2.301  1.5855 -0.3077 -0.6482
 3915TIP3    H211668   6.842   3.634   2.221 -0.7337  0.5734  0.9832
 3916TIP3   OH211669   6.196   3.794   0.942 -0.3648  0.3439  0.2503
 3916TIP3    H111670   6.137   3.870   0.947 -0.5321  0.1325  1.6198
 3916TIP3    H211671   6.258   3.807   1.014  0.6344  0.0316 -0.5410
 3917TIP3   OH211672   5.527   3.783   1.735  0.4801 -0.0499 -0.3172
 3917TIP3    H111673   5.577   3.707   1.705 -1.3986 -0.7281 -1.8362
 3917TIP3    H211674   5.510   3.833   1.656 -0.1376  0.8333  0.3627
 3918TIP3   OH211675   6.990   2.675   3.312  0.1632  0.2236  0.0023
 3918TIP3    H111676   6.971   2.711   3.399  3.1376  0.6715  0.5258
 3918TIP3    H211677   7.005   2.752   3.258 -2.3978 -0.0328 -1.1407
 3919TIP3   OH211678   5.237   1.492   3.738 -0.2958 -0.1229  0.0605
 3919TIP3    H111679   5.327   1.525   3.750 -0.8940  1.1534  1.2226
 3919TIP3    H211680   5.221   1.499   3.644  0.4661  0.6286 -0.0189
 3920TIP3   OH211681   7.130   5.199   0.542 -0.0761 -0.1037 -0.3430
 3920TIP3    H111682   7.131   5.168   0.451 -1.1131 -2.3131  0.3530
 3920TIP3    H211683   7.068   5.141   0.586 -0.7262  1.9045  1.4696
 3921TIP3   OH211684   6.994   5.393   1.935  0.1298 -0.0193 -0.1216
 3921TIP3    H111685   6.936   5.320   1.955 -0.3157  0.4359  0.2692
 3921TIP3    H211686   6.938   5.471   1.944  1.4597  0.6475  3.0469
 3922TIP3   OH211687   4.011   5.548   3.819 -0.2446 -0.4362  0.2019
 3922TIP3    H111688   4.102   5.558   3.848 -1.1222  2.6402  2.2037
 3922TIP3    H211689   3.961   5.539   3.901 -2.0260  1.0195 -0.6802
 3923TIP3   OH211690   5.267   0.164   5.744 -0.0215 -0.2160  0.4569
 3923TIP3    H111691   5.293   0.256   5.750 -1.5313  0.3143 -0.7302
 3923TIP3    H211692   5.337   0.122   5.695 -0.1869  0.6834 -0.5691
 3924TIP3   OH211693   7.277   6.056   2.157 -0.0134 -0.0511 -0.2550
 3924TIP3    H111694   7.247   6.147   2.153  0.6044  0.3128  2.4365
 3924TIP3    H211695   7.226   6.017   2.228  1.9976 -0.8910  0.7853
 3925TIP3   OH211696   8.341   3.860   0.656 -0.0074 -0.1262 -0.3150
 3925TIP3    H111697   8.275   3.861   0.726  1.5805  2.3201  1.2539
 3925TIP3    H211698   8.401   3.789   0.680 -0.8046 -0.8632 -0.5008
 3926TIP3   OH211699   6.640   1.537   4.808 -0.2883  0.3401 -0.1873
 3926TIP3    H111700   6.702   1.604   4.778 -0.7387  1.6371  1.6889
 3926TIP3    H211701   6.559   1.557   4.762 -0.4740  1.2123  0.5113
 3927TIP3   OH211702   6.140   2.722   0.854  0.0682 -0.3376  0.3509
 3927TIP3    H111703   6.104   2.810   0.870  0.0192 -0.2100 -0.4557
 3927TIP3    H211704   6.083   2.685   0.787  1.7670  0.0861 -1.3816
 3928TIP3   OH211705   5.228   3.268   1.269  0.0239 -0.1085  0.0017
 3928TIP3    H111706   5.159   3.246   1.331 -1.0318 -0.1408 -1.1658
 3928TIP3    H211707   5.187   3.328   1.207  1.2865  0.5700 -0.2100
 3929TIP3   OH211708   7.442   4.903   0.235 -0.1570 -0.1927 -0.2386
 3929TIP3    H111709   7.457   4.850   0.158 -0.0108 -1.1623  0.4488
 3929TIP3    H211710   7.347   4.905   0.245 -0.1162 -1.2384  0.3644
 3930TIP3   OH211711   7.023   6.925   1.749  0.2412  0.0379 -0.4691
 3930TIP3    H111712   7.001   7.012   1.718 -1.5149 -0.8033 -1.6990
 3930TIP3    H211713   7.044   6.876   1.670  0.6306 -0.8037  0.1455
 3931TIP3   OH211714   4.321   3.486   1.626 -0.2749  0.5024 -0.5151
 3931TIP3    H111715   4.261   3.550   1.589 -0.6385  1.6356  1.9436
 3931TIP3    H211716   4.270   3.442   1.694  0.7863 -0.5875 -0.3973
 3932TIP3   OH211717   0.599   7.416   7.023 -0.3295 -0.1589 -0.1737
 3932TIP3    H111718   0.625   7.393   7.112 -1.1477  0.2533  0.1778
 3932TIP3    H211719   0.534   7.485   7.034 -1.4042 -1.0135 -1.0421
 3933TIP3   OH211720   5.275   2.093   2.473 -0.0636 -0.0819 -0.5809
 3933TIP3    H111721   5.342   2.122   2.411  1.0586 -1.6567 -0.1693
 3933TIP3    H211722   5.210   2.162   2.473  0.6512  0.6271 -2.4098
 3934TIP3   OH211723   5.360   5.518   2.056 -0.0383 -0.1953  0.4731
 3934TIP3    H111724   5.331   5.450   2.117 -0.4725 -1.5765 -1.2482
 3934TIP3    H211725   5.279   5.564   2.032 -0.1572 -1.0024 -0.6768
 3935TIP3   OH211726   5.238   5.826   1.435 -0.1630 -1.2633  0.6919
 3935TIP3    H111727   5.174   5.868   1.377  1.1429  1.2147  0.9851
 3935TIP3    H211728   5.197   5.743   1.460 -3.4499  0.4595  1.2361
 3936TIP3   OH211729   7.867   2.243   1.149  0.9109 -0.2771 -0.6494
 3936TIP3    H111730   7.830   2.292   1.076  0.7201 -0.7901 -0.8991
 3936TIP3    H211731   7.931   2.302   1.188 -0.6896  0.9154  0.2356
 3937TIP3   OH211732   4.436   3.367   2.750 -0.1704  0.1021  0.8068
 3937TIP3    H111733   4.399   3.340   2.666  1.3451  1.9511 -0.4859
 3937TIP3    H211734   4.493   3.295   2.775 -2.1243 -1.3502  1.2726
 3938TIP3   OH211735   7.309   3.833   2.298 -0.2420 -0.1044  0.5188
 3938TIP3    H111736   7.313   3.765   2.366 -1.7799 -0.0714  0.6695
 3938TIP3    H211737   7.400   3.845   2.271  0.1828 -1.4337  1.2748
 3939TIP3   OH211738   5.375   2.892   1.689 -0.0749 -0.0536 -0.3919
 3939TIP3    H111739   5.465   2.905   1.719 -0.4795 -0.9515  1.2402
 3939TIP3    H211740   5.385   2.848   1.604  1.0282 -0.2245 -0.1868
 3940TIP3   OH211741   3.049   2.058   2.973 -0.3061 -0.8337  0.7459
 3940TIP3    H111742   2.981   2.046   3.040  0.7266 -2.3028  1.5543
 3940TIP3    H211743   3.130   2.029   3.015  0.4703 -1.1618 -0.9291
 3941TIP3   OH211744   6.552   5.251   1.934 -0.2238  0.0738 -0.1577
 3941TIP3    H111745   6.539   5.302   2.014  1.9772  1.5672 -0.7054
 3941TIP3    H211746   6.474   5.270   1.882 -1.2676 -0.2258  1.2712
 3942TIP3   OH211747   5.030   1.693   1.075 -0.2329  0.3543 -0.7416
 3942TIP3    H111748   5.036   1.610   1.122  0.0942  0.6175 -0.3126
 3942TIP3    H211749   4.937   1.715   1.077 -0.2574  0.2314 -0.4505
 3943TIP3   OH211750   5.816   4.023   1.066 -0.4769 -0.3330 -0.0687
 3943TIP3    H111751   5.794   4.045   1.156  2.4914  2.0079  0.1659
 3943TIP3    H211752   5.899   3.975   1.073 -0.5196 -0.6467 -1.5273
 3944TIP3   OH211753   3.462   4.842   1.717  0.2245 -0.2173 -0.1156
 3944TIP3    H111754   3.547   4.842   1.674  0.3573  2.0482  0.0775
 3944TIP3    H211755   3.399   4.861   1.647 -0.0861 -1.5026 -0.1909
 3945TIP3   OH211756   4.422   3.076   0.223  0.2898  0.0983 -0.0129
 3945TIP3    H111757   4.481   3.069   0.297  1.4343  0.3703 -0.8770
 3945TIP3    H211758   4.336   3.051   0.257  0.7308  0.5831  1.4777
 3946TIP3   OH211759   6.134   4.725   0.720  0.7483 -0.5922  0.0465
 3946TIP3    H111760   6.192   4.778   0.774 -0.1328 -0.4941  0.8953
 3946TIP3    H211761   6.109   4.784   0.648 -0.2218  0.1598  0.9800
 3947TIP3   OH211762   7.419   1.975   0.928 -0.2623 -0.9017 -0.4835
 3947TIP3    H111763   7.363   2.053   0.929 -1.0239 -1.4414  0.7258
 3947TIP3    H211764   7.431   1.955   0.836 -0.6609  0.2292 -0.7898
 3948TIP3   OH211765   5.065   1.805   1.863  0.0395 -0.3455 -0.0528
 3948TIP3    H111766   5.127   1.777   1.930 -0.9112 -1.8297  0.2174
 3948TIP3    H211767   5.102   1.887   1.830  1.4679 -0.5393  0.9969
 3949TIP3   OH211768   4.524   3.074   2.403  0.3633 -0.6782 -0.1612
 3949TIP3    H111769   4.496   3.091   2.313 -0.2251 -0.2513  0.1015
 3949TIP3    H211770   4.552   2.983   2.403  2.4059 -0.0807 -1.2970
 3950TIP3   OH211771   5.139   4.148   2.958 -0.1651 -0.9179  0.4100
 3950TIP3    H111772   5.084   4.115   3.029 -0.8057  2.4118  1.5092
 3950TIP3    H211773   5.228   4.145   2.994 -0.0581 -2.5749  0.0464
 3951TIP3   OH211774   6.830   5.746   1.087 -0.2943 -0.1668  0.4696
 3951TIP3    H111775   6.871   5.668   1.047  1.7855  1.4529 -0.6859
 3951TIP3    H211776   6.869   5.751   1.174 -0.6252 -0.5394  0.6444
 3952TIP3   OH211777   3.719   2.734   0.676 -0.8497 -0.7697 -0.0907
 3952TIP3    H111778   3.743   2.674   0.607  0.9802 -0.4591  0.2394
 3952TIP3    H211779   3.685   2.811   0.631  0.7666 -0.3851 -0.6709
 3953TIP3   OH211780   8.044   4.688   6.847  0.1312 -0.3082 -0.3402
 3953TIP3    H111781   8.062   4.676   6.940  1.3577  0.2986 -0.4863
 3953TIP3    H211782   7.950   4.671   6.838 -0.0528 -0.0705  1.0441
 3954TIP3   OH211783   3.922   3.712   1.449  0.2095 -0.4463 -0.3126
 3954TIP3    H111784   3.839   3.759   1.437  0.4967 -0.0654 -0.8507
 3954TIP3    H211785   3.900   3.620   1.436 -0.3529 -0.4602  0.7166
 3955TIP3   OH211786   4.087   2.099   2.620 -0.1506  0.1022  0.5764
 3955TIP3    H111787   4.135   2.142   2.692  0.0705 -0.3844  0.7227
 3955TIP3    H211788   4.004   2.072   2.659  0.2321 -0.7305  0.8175
 3956TIP3   OH211789   7.407   4.109   0.859 -0.0676 -0.0207 -0.4902
 3956TIP3    H111790   7.329   4.163   0.872 -0.4633 -0.9612  1.2237
 3956TIP3    H211791   7.375   4.035   0.806 -0.3627 -0.4371  0.2616
 3957TIP3   OH211792   6.652   4.726   0.308  0.0325  0.2468  0.0406
 3957TIP3    H111793   6.584   4.675   0.264  0.5459 -0.6176  0.2202
 3957TIP3    H211794   6.665   4.803   0.252 -1.2116  0.5135  0.1128
 3958TIP3   OH211795   4.642   3.906   0.781 -0.3362  0.3200  0.0059
 3958TIP3    H111796   4.561   3.948   0.753  0.8170  0.7366 -2.7921
 3958TIP3    H211797   4.618   3.815   0.796 -0.9985  0.1028 -2.3165
 3959TIP3   OH211798   5.410   4.243   3.894  0.1649  0.5671  0.1566
 3959TIP3    H111799   5.483   4.192   3.861 -2.1842 -2.0976 -1.1113
 3959TIP3    H211800   5.334   4.211   3.846 -1.9298  2.9706  1.7179
 3960TIP3   OH211801   4.787   3.548   0.637  0.0695  0.1185  0.0590
 3960TIP3    H111802   4.829   3.597   0.708 -0.8046  1.8602 -0.5905
 3960TIP3    H211803   4.835   3.573   0.558 -0.8918  0.5681 -0.3958
 3961TIP3   OH211804   5.095   2.622   2.836  0.0940  0.3738  0.4375
 3961TIP3    H111805   5.160   2.686   2.865  1.0032  0.4578 -1.6999
 3961TIP3    H211806   5.044   2.669   2.770  0.8216 -1.1049 -1.2045
 3962TIP3   OH211807   3.013   1.514   2.740 -0.2407 -0.0422 -0.8028
 3962TIP3    H111808   3.097   1.505   2.785 -0.2902  0.1731 -0.6681
 3962TIP3    H211809   2.984   1.603   2.760  0.4235  0.5506 -2.4533
 3963TIP3   OH211810   4.058   2.254   3.177  0.2919 -0.3775 -0.0829
 3963TIP3    H111811   3.966   2.227   3.181  0.5660 -1.2291  0.6617
 3963TIP3    H211812   4.055   2.344   3.145 -0.8523 -0.1423  0.6504
 3964TIP3   OH211813   6.208   3.034   3.525 -0.2899  0.3605 -0.2057
 3964TIP3    H111814   6.287   3.035   3.471  1.2447 -0.7156  1.9554
 3964TIP3    H211815   6.233   3.079   3.605 -1.6102 -0.7953  0.8773
 3965TIP3   OH211816   1.068   0.177   7.219  0.2576  0.4463  0.1402
 3965TIP3    H111817   0.996   0.227   7.181 -0.1465 -0.8185 -0.7840
 3965TIP3    H211818   1.049   0.086   7.196  0.3267 -0.3043  2.8035
 3966TIP3   OH211819   6.087   4.659   3.415 -0.0719  0.2505 -0.1725
 3966TIP3    H111820   6.080   4.565   3.400  1.9646  0.2531 -1.3234
 3966TIP3    H211821   6.167   4.670   3.466  0.6265  1.4892 -1.4887
 3967TIP3   OH211822   5.720   3.141   1.997  0.3014 -0.2012  0.4242
 3967TIP3    H111823   5.812   3.115   2.010  0.3157  0.3622  1.5046
 3967TIP3    H211824   5.699   3.194   2.073 -0.2246  1.6374 -0.9558
 3968TIP3   OH211825   8.003   6.100   6.942  0.5241 -0.1757  0.4281
 3968TIP3    H111826   8.096   6.118   6.928  0.5391 -1.3180 -1.0626
 3968TIP3    H211827   7.992   6.104   7.037  2.5156 -1.9745  0.7756
 3969TIP3   OH211828   5.998   6.849   1.897  0.1468 -0.1467  0.5294
 3969TIP3    H111829   6.070   6.912   1.899  1.2097 -1.3029 -0.7160
 3969TIP3    H211830   6.039   6.765   1.919 -1.3187 -0.3788  2.5637
 3970TIP3   OH211831   5.164   2.564   1.600 -0.1785 -0.1703 -0.3306
 3970TIP3    H111832   5.103   2.536   1.531 -0.4222  2.0404 -1.0657
 3970TIP3    H211833   5.109   2.612   1.662 -0.3982 -4.1023  2.7196
 3971TIP3   OH211834   3.252   2.440   3.436  0.3960 -0.7015 -0.6678
 3971TIP3    H111835   3.205   2.413   3.357 -0.7506  1.1599 -0.6592
 3971TIP3    H211836   3.220   2.528   3.454  0.6270 -1.0968  1.8901
 3972TIP3   OH211837   6.477   5.865   6.915 -0.2114  0.2131 -0.2250
 3972TIP3    H111838   6.561   5.897   6.947  0.0395 -0.3345 -0.3394
 3972TIP3    H211839   6.478   5.771   6.935 -0.7217  0.1727 -0.3840
 3973TIP3   OH211840   3.501   2.525   2.267  0.0759  0.5508 -0.3765
 3973TIP3    H111841   3.587   2.483   2.261 -1.1560 -1.9497 -1.4120
 3973TIP3    H211842   3.519   2.619   2.262  2.7480  0.0693 -0.4101
 3974TIP3   OH211843   4.964   2.986   2.909  0.3894  0.1667  0.5521
 3974TIP3    H111844   4.970   3.012   2.817  2.0359  0.3641  0.7015
 3974TIP3    H211845   4.891   3.037   2.944  0.1227  0.5103 -0.4950
 3975TIP3   OH211846   7.960   3.658   0.615 -0.2114 -0.4196  0.2150
 3975TIP3    H111847   8.044   3.621   0.588  0.1051 -0.0091  0.6498
 3975TIP3    H211848   7.899   3.630   0.546  0.9123  1.9788 -1.8271
 3976TIP3   OH211849   4.618   2.150   2.598 -0.2266  0.6642  0.0281
 3976TIP3    H111850   4.631   2.092   2.522  0.7179  0.6120  0.2187
 3976TIP3    H211851   4.526   2.138   2.621 -0.7306  1.2656 -1.5808
 3977TIP3   OH211852   7.138   6.329   2.548 -0.2191  0.0575  0.2965
 3977TIP3    H111853   7.065   6.266   2.551  0.7538 -1.0809  0.2997
 3977TIP3    H211854   7.125   6.377   2.467 -1.8063  0.8764  1.0022
 3978TIP3   OH211855   0.078   4.766   1.823 -0.3466 -0.4387 -0.3684
 3978TIP3    H111856   0.134   4.691   1.802 -0.5732 -0.7245  0.0589
 3978TIP3    H211857  -0.009   4.741   1.793 -1.2223 -1.8996  3.1872
 3979TIP3   OH211858   6.363   3.524   2.134 -0.4659  0.2644  0.0831
 3979TIP3    H111859   6.289   3.484   2.179 -0.1147  0.2411  0.6571
 3979TIP3    H211860   6.345   3.618   2.139 -0.7224  0.2325 -0.2503
 3980TIP3   OH211861   6.621   3.666   2.467  0.3300  0.0140 -0.1855
 3980TIP3    H111862   6.686   3.603   2.437  0.3184  1.0428 -2.4479
 3980TIP3    H211863   6.651   3.750   2.432 -1.2098  0.8056  0.3518
 3981TIP3   OH211864   6.177   3.362   2.557 -0.4205 -0.0686 -0.0372
 3981TIP3    H111865   6.110   3.430   2.564 -1.3236 -1.0036  0.5833
 3981TIP3    H211866   6.253   3.407   2.521 -0.6757  1.4954  1.3166
 3982TIP3   OH211867   6.415   3.351   2.712  0.3582 -0.1063  0.2897
 3982TIP3    H111868   6.380   3.439   2.717  1.0057  0.0172  3.1948
 3982TIP3    H211869   6.341   3.294   2.734 -0.0263 -0.3130 -1.4543
 3983TIP3   OH211870   4.300   4.444   1.658  0.2877  0.0886 -0.0824
 3983TIP3    H111871   4.263   4.447   1.746 -3.1860 -0.4830 -1.4739
 3983TIP3    H211872   4.315   4.351   1.642  0.6686  0.1691 -0.2010
 3984TIP3   OH211873   5.238   4.755   1.063  0.7145  0.0815  0.3752
 3984TIP3    H111874   5.196   4.716   1.140  1.6506  0.0527  0.8776
 3984TIP3    H211875   5.173   4.746   0.993  1.3229 -3.4960  0.1690
 3985TIP3   OH211876   2.997   0.673   6.790  0.2977 -0.9486  0.5655
 3985TIP3    H111877   3.044   0.667   6.873 -0.3227  1.2916  1.1188
 3985TIP3    H211878   2.930   0.740   6.805  0.4230 -0.2098 -1.8470
 3986TIP3   OH211879   0.807   3.015   0.870  0.4818 -0.0773  0.3053
 3986TIP3    H111880   0.816   2.962   0.791 -0.8630 -0.7987  0.6197
 3986TIP3    H211881   0.728   3.067   0.855  0.4995  0.1451  0.9782
 3987TIP3   OH211882   5.474   4.706   0.943 -0.1437  0.2287 -0.4084
 3987TIP3    H111883   5.509   4.794   0.924 -1.2408  1.2066  1.9234
 3987TIP3    H211884   5.397   4.722   0.997 -1.7311 -2.1021 -1.8678
 3988TIP3   OH211885   3.036   0.308   3.014 -0.1658  0.0498  0.3081
 3988TIP3    H111886   3.092   0.309   3.091 -0.7885  0.1509  0.7701
 3988TIP3    H211887   3.082   0.361   2.949  1.7695 -2.4148 -0.4111
 3989TIP3   OH211888   4.766   3.302   2.169  0.3520 -0.6698  0.5762
 3989TIP3    H111889   4.857   3.272   2.166  1.0444  1.4077 -0.3595
 3989TIP3    H211890   4.743   3.301   2.262  1.1467 -1.7308  0.7658
 3990TIP3   OH211891   4.368   2.356   3.211 -0.6236 -0.3622  0.4593
 3990TIP3    H111892   4.390   2.320   3.125 -0.6183  0.6180  0.0398
 3990TIP3    H211893   4.449   2.397   3.242 -0.7262 -0.3888  0.7631
 3991TIP3   OH211894   5.672   3.656   3.107  0.0648  0.0978 -0.0805
 3991TIP3    H111895   5.639   3.582   3.157  2.9138 -0.6098  0.8639
 3991TIP3    H211896   5.665   3.629   3.016 -3.1350  0.5262 -0.0309
 3992TIP3   OH211897   5.949   4.077   3.155 -0.0389 -0.2674  0.1067
 3992TIP3    H111898   6.034   4.116   3.176 -0.0787 -0.1526  0.0557
 3992TIP3    H211899   5.890   4.113   3.221  0.0863 -0.8568  0.5453
 3993TIP3   OH211900   0.721   8.169   6.978 -0.0111  0.4790 -0.0469
 3993TIP3    H111901   0.674   8.124   6.907  0.3684 -0.4601  0.2897
 3993TIP3    H211902   0.754   8.249   6.937  0.2187 -0.0597 -0.9389
 3994TIP3   OH211903   1.386   8.200   7.193  0.8149  0.4860  0.2820
 3994TIP3    H111904   1.301   8.167   7.223  0.2244  1.1259 -0.6514
 3994TIP3    H211905   1.447   8.178   7.263 -0.3132  0.9057  1.4043
 3995TIP3   OH211906   6.397   3.449   3.555 -0.2579 -0.6539 -0.0067
 3995TIP3    H111907   6.402   3.526   3.611 -1.4622 -0.0982 -0.6489
 3995TIP3    H211908   6.344   3.387   3.605  1.4030 -1.4051  0.8741
 3996TIP3   OH211909   6.404   3.721   3.659  0.4376  0.4933 -0.0645
 3996TIP3    H111910   6.328   3.757   3.705 -0.8378 -1.3863 -0.6741
 3996TIP3    H211911   6.470   3.707   3.727 -1.0090 -1.1191  1.0187
 3997TIP3   OH211912   7.142   5.441   3.952  0.4579 -0.8235  0.4352
 3997TIP3    H111913   7.134   5.350   3.922 -0.8976 -0.0052 -1.8127
 3997TIP3    H211914   7.058   5.480   3.931  0.5229  0.6075  2.7007
 3998TIP3   OH211915   5.490   3.425   1.919  0.3364 -0.2669  0.2348
 3998TIP3    H111916   5.507   3.386   1.833 -0.0422 -1.3753  0.6448
 3998TIP3    H211917   5.395   3.422   1.928  0.4530 -1.5710  1.3101
 3999TIP3   OH211918   4.272   4.567   0.964 -0.3383 -0.4320 -0.1125
 3999TIP3    H111919   4.213   4.491   0.956 -0.2016 -0.5273 -0.2180
 3999TIP3    H211920   4.213   4.640   0.983 -0.4129 -0.6770  0.6068
 4000TIP3   OH211921   5.386   4.177   3.068 -0.3725  0.6164  0.0674
 4000TIP3    H111922   5.465   4.144   3.025 -0.1319  0.6832  0.4670
 4000TIP3    H211923   5.411   4.261   3.104 -0.7757  0.8858 -0.2692
 4001TIP3   OH211924   6.809   4.002   2.850  0.4100 -0.1410 -0.4748
 4001TIP3    H111925   6.744   4.019   2.919  1.5120  0.0063  0.5539
 4001TIP3    H211926   6.805   4.080   2.794 -0.6903 -0.3796 -0.7397
 4002TIP3   OH211927   5.284   3.178   2.380  0.3913 -0.3909 -0.0764
 4002TIP3    H111928   5.363   3.127   2.359  1.0609  0.9872 -0.9430
 4002TIP3    H211929   5.304   3.219   2.465  0.8714  0.4764 -0.6042
 4003TIP3   OH211930   6.195   4.961   3.827  0.1338 -0.2248 -0.2917
 4003TIP3    H111931   6.210   4.910   3.907  1.1112  0.9392  0.2791
 4003TIP3    H211932   6.100   4.973   3.824  0.1247  0.0975  0.9472
 4004TIP3   OH211933   7.979   3.167   2.484  0.1555  0.0310  0.5104
 4004TIP3    H111934   7.947   3.080   2.460  0.1884 -0.1774  1.2063
 4004TIP3    H211935   8.032   3.152   2.562 -0.2446  0.7429  0.9169
 4005TIP3   OH211936   5.508   3.048   2.250 -0.1249 -0.0287  0.2463
 4005TIP3    H111937   5.550   3.128   2.217 -0.8248  0.3511  0.2674
 4005TIP3    H211938   5.466   3.009   2.174  0.8982 -0.8193  0.0703
 4006TIP3   OH211939   4.508   3.648   0.154  0.1886  0.3565 -0.1435
 4006TIP3    H111940   4.470   3.563   0.135 -0.0829  0.0618  1.6304
 4006TIP3    H211941   4.433   3.707   0.163  0.3020  0.4660  0.1058
 4007TIP3   OH211942   4.422   3.174   1.315 -0.1733 -0.2767 -0.0148
 4007TIP3    H111943   4.330   3.198   1.325  0.0359 -0.1895  1.7513
 4007TIP3    H211944   4.469   3.235   1.371  0.9827 -0.3068 -0.9236
 4008TIP3   OH211945   5.371   4.023   4.922  0.0242  0.4021 -0.2310
 4008TIP3    H111946   5.327   3.941   4.899  0.4271  0.0694  0.1642
 4008TIP3    H211947   5.405   4.057   4.839 -1.1409  0.7652 -0.5700
 4009TIP3   OH211948   7.250   4.464   1.497 -0.0419  0.4248  0.3415
 4009TIP3    H111949   7.340   4.473   1.529  0.4944 -0.7123 -0.7951
 4009TIP3    H211950   7.206   4.411   1.564  0.9783 -1.6434 -0.5704
 4010TIP3   OH211951   4.909   4.798   2.490 -1.0185 -0.0647  0.6245
 4010TIP3    H111952   4.937   4.886   2.514 -1.4440  0.5112 -0.9444
 4010TIP3    H211953   4.849   4.772   2.560  1.2314 -0.2467  2.5769
 4011TIP3   OH211954   3.994   4.318   3.582  0.0402  0.6052 -0.1812
 4011TIP3    H111955   3.962   4.386   3.642 -0.2531  1.6480 -1.5047
 4011TIP3    H211956   3.970   4.236   3.625  1.7222  1.2793  2.1654
 4012TIP3   OH211957   7.323   3.575   0.240 -0.3550 -0.1680 -0.0313
 4012TIP3    H111958   7.279   3.621   0.168  0.5084  0.9318  0.1241
 4012TIP3    H211959   7.302   3.483   0.226  1.7205 -0.2363 -3.0845
 4013TIP3   OH211960   3.911   4.736   2.600  0.2133 -0.0022  0.1041
 4013TIP3    H111961   3.928   4.752   2.693  0.8294  0.2060 -0.0471
 4013TIP3    H211962   3.985   4.775   2.554 -0.9069  1.3472 -0.5908
 4014TIP3   OH211963   5.691   4.797   1.392 -0.1408 -0.3832 -0.2369
 4014TIP3    H111964   5.619   4.815   1.452  0.0023 -1.6575  0.3281
 4014TIP3    H211965   5.719   4.708   1.413  2.3662  0.4765  0.3581
 4015TIP3   OH211966   7.329   3.881   0.670  0.6167 -0.0855  0.2878
 4015TIP3    H111967   7.237   3.870   0.697  0.8247  1.1546  1.5504
 4015TIP3    H211968   7.332   3.848   0.580 -1.2463  0.6320 -0.0533
 4016TIP3   OH211969   4.832   3.161   3.569  0.7159  0.3718  0.0232
 4016TIP3    H111970   4.878   3.077   3.573  1.7993  0.8849 -1.2250
 4016TIP3    H211971   4.865   3.210   3.645  2.6705  0.9264 -1.1337
 4017TIP3   OH211972   7.356   4.734   2.533  0.3325 -0.2672  0.1069
 4017TIP3    H111973   7.297   4.726   2.607  1.4234  0.0924  1.0202
 4017TIP3    H211974   7.356   4.646   2.494 -0.9553 -0.2166 -0.0354
 4018TIP3   OH211975   5.933   5.379   1.502  0.5747  0.1770  0.2483
 4018TIP3    H111976   5.900   5.298   1.464  1.4563 -0.4446  0.7640
 4018TIP3    H211977   5.974   5.425   1.429  0.2096  0.0760 -0.0193
 4019TIP3   OH211978   3.367   2.883   2.898 -0.0155  0.3730  0.3313
 4019TIP3    H111979   3.414   2.812   2.940 -1.8181 -2.0666 -1.5774
 4019TIP3    H211980   3.282   2.885   2.941 -0.6151  0.1757 -0.8133
 4020TIP3   OH211981   7.443   5.621   3.017 -0.3566 -0.1678  0.0781
 4020TIP3    H111982   7.519   5.608   2.960 -2.0536 -2.3675 -1.7686
 4020TIP3    H211983   7.437   5.538   3.066  0.5581  1.3631  2.8916
 4021TIP3   OH211984   3.752   3.216   1.751  0.1866 -0.2345  0.1932
 4021TIP3    H111985   3.751   3.279   1.822  0.9172  0.0165 -0.0150
 4021TIP3    H211986   3.660   3.207   1.725  0.0352  0.4381  0.4900
 4022TIP3   OH211987   5.829   5.005   0.728 -0.6763 -0.2488  0.1412
 4022TIP3    H111988   5.791   4.999   0.641 -0.3862  0.7465 -0.0543
 4022TIP3    H211989   5.907   4.949   0.724 -0.7845 -0.3777 -0.1654
 4023TIP3   OH211990   5.703   4.279   5.043  0.3133 -0.1549  0.0912
 4023TIP3    H111991   5.732   4.369   5.029 -0.1117  0.0928  0.7938
 4023TIP3    H211992   5.765   4.243   5.107 -0.0024 -0.1045  0.4280
 4024TIP3   OH211993   6.066   4.323   2.750 -0.0738  0.7084  0.5589
 4024TIP3    H111994   6.027   4.391   2.694  1.1159  0.2285 -0.8716
 4024TIP3    H211995   6.002   4.252   2.749 -0.5269  1.1133  0.6418
 4025TIP3   OH211996   2.116   3.227   2.157  0.1918  0.4779 -0.9093
 4025TIP3    H111997   2.109   3.323   2.151 -0.3579  0.3925 -1.5732
 4025TIP3    H211998   2.089   3.195   2.072  0.3075 -0.2845 -0.6643
 4026TIP3   OH211999   5.816   3.264   3.366  0.3081  0.4763  0.3883
 4026TIP3    H112000   5.827   3.170   3.379 -0.4599  0.2439 -0.5714
 4026TIP3    H212001   5.864   3.284   3.286 -0.5588  0.6610 -0.1011
 4027TIP3   OH212002   5.989   3.646   0.593 -0.1517 -0.7345  0.4205
 4027TIP3    H112003   5.936   3.680   0.665 -0.3533  2.7389 -1.2674
 4027TIP3    H212004   6.068   3.700   0.594 -1.1682  0.9787 -3.3188
 4028TIP3   OH212005   7.560   3.877   4.225 -0.0008  0.2507  0.4462
 4028TIP3    H112006   7.507   3.806   4.189 -3.1041  2.5853  0.2550
 4028TIP3    H212007   7.618   3.902   4.153 -0.4067 -0.6287 -0.1995
 4029TIP3   OH212008   7.880   3.219   1.060  0.4948 -0.5426  0.5567
 4029TIP3    H112009   7.929   3.272   0.996  1.2712  0.3940  1.9053
 4029TIP3    H212010   7.891   3.129   1.029  2.4607 -0.2804  0.4006
 4030TIP3   OH212011   5.570   4.036   2.683  0.2164  0.0937  0.3303
 4030TIP3    H112012   5.639   4.020   2.619 -0.1242 -0.8077  0.1776
 4030TIP3    H212013   5.490   4.044   2.631  0.1951  1.1461  0.5067
 4031TIP3   OH212014   6.392   3.139   3.344  0.2409  0.5178  0.6471
 4031TIP3    H112015   6.433   3.095   3.270  1.3022  3.1856 -0.4283
 4031TIP3    H212016   6.461   3.197   3.378 -1.0745  1.3000  2.0124
 4032TIP3   OH212017   4.363   3.371   2.174  0.2085  0.4136 -0.0226
 4032TIP3    H112018   4.289   3.352   2.116 -0.6630  0.3238  1.1071
 4032TIP3    H212019   4.359   3.466   2.188  0.1420  0.3730  0.2446
 4033TIP3   OH212020   6.617   4.332   4.995  0.2760  0.1483  0.1957
 4033TIP3    H112021   6.685   4.310   5.059  0.2086  0.1361  0.2633
 4033TIP3    H212022   6.658   4.397   4.938 -0.2071  1.3700  1.2320
 4034TIP3   OH212023   7.851   2.906   2.406  0.0569 -0.3402 -0.2689
 4034TIP3    H112024   7.767   2.945   2.431  0.4052  1.1373 -1.3015
 4034TIP3    H212025   7.834   2.866   2.321  0.8523  1.6727 -1.4145
 4035TIP3   OH212026   6.116   4.243   3.852  0.6663  0.2967  0.1194
 4035TIP3    H112027   6.105   4.152   3.881  1.3798  0.2230  0.1546
 4035TIP3    H212028   6.208   4.250   3.828  0.1301  0.3520 -2.1015
 4036TIP3   OH212029   6.395   3.672   1.726 -0.1271  0.3282 -0.6075
 4036TIP3    H112030   6.347   3.614   1.785  2.2373  0.3789  1.4717
 4036TIP3    H212031   6.471   3.701   1.777  0.7545  2.2740 -2.8883
 4037TIP3   OH212032   6.583   4.453   3.383  0.1389 -0.1788  0.5328
 4037TIP3    H112033   6.657   4.488   3.333 -0.3995  0.8242  0.4228
 4037TIP3    H212034   6.551   4.380   3.330  1.5477 -1.1371  0.9837
 4038TIP3   OH212035   6.051   1.807   3.049  0.6331  0.5300 -0.3608
 4038TIP3    H112036   6.024   1.731   2.997  1.9514  0.9544 -1.6991
 4038TIP3    H212037   6.112   1.772   3.113  0.0056  0.2184  0.0806
 4039TIP3   OH212038   4.731   4.478   3.224  0.4661  0.1795  0.1550
 4039TIP3    H112039   4.818   4.441   3.238  0.3272 -0.0920  0.3122
 4039TIP3    H212040   4.691   4.478   3.311 -1.5921 -4.5082 -0.6368
 4040TIP3   OH212041   4.196   1.993   5.630 -0.2850  0.3121 -0.2177
 4040TIP3    H112042   4.205   1.998   5.725  0.2903 -0.3187 -0.2288
 4040TIP3    H212043   4.231   2.076   5.598  0.5589  0.0761  0.0670
 4041TIP3   OH212044   5.283   4.305   1.794  0.1703 -0.2442  0.4467
 4041TIP3    H112045   5.291   4.233   1.731 -0.2981  0.3756 -0.3226
 4041TIP3    H212046   5.248   4.378   1.744  0.6730  0.5439  1.2229
 4042TIP3   OH212047   4.183   0.900   3.910 -0.0657 -0.3840 -0.0663
 4042TIP3    H112048   4.106   0.884   3.965 -0.1308  1.9213  0.5715
 4042TIP3    H212049   4.150   0.956   3.839  0.9755  0.5484  0.1623
 4043TIP3   OH212050   5.224   5.348   0.877  0.6971 -0.3705 -0.2520
 4043TIP3    H112051   5.187   5.361   0.790  0.4133  0.4870 -0.0104
 4043TIP3    H212052   5.166   5.285   0.920  0.9329 -0.9180 -0.7419
 4044TIP3   OH212053   5.668   3.143   1.424  0.1883 -0.0285  0.0369
 4044TIP3    H112054   5.714   3.203   1.366  0.8462  0.5009  1.0901
 4044TIP3    H212055   5.737   3.091   1.465 -0.1983  0.2360  1.0412
 4045TIP3   OH212056   4.784   3.854   1.591 -0.2945  0.1545  0.3403
 4045TIP3    H112057   4.694   3.837   1.618 -0.8706  1.3691 -0.7824
 4045TIP3    H212058   4.790   3.949   1.583  1.5485  0.2198  1.9644
 4046TIP3   OH212059   3.200   3.691   1.835 -0.2505  0.0093 -0.1200
 4046TIP3    H112060   3.117   3.687   1.787 -0.0181 -3.1128 -0.3981
 4046TIP3    H212061   3.174   3.686   1.927 -0.4088 -0.6766 -0.1960
 4047TIP3   OH212062   6.693   5.053   0.347  0.1085  0.2735 -0.6509
 4047TIP3    H112063   6.664   4.995   0.418  0.0448  2.2136  0.9618
 4047TIP3    H212064   6.619   5.113   0.334  2.0570  3.2707  1.3174
 4048TIP3   OH212065   6.512   4.335   1.797 -0.4018  0.2571  0.2918
 4048TIP3    H112066   6.532   4.422   1.832  0.9728  0.2785 -0.5243
 4048TIP3    H212067   6.487   4.284   1.874  1.6140  0.5819  1.1784
 4049TIP3   OH212068   7.511   7.024   2.776  0.0567 -0.6961  0.2416
 4049TIP3    H112069   7.553   6.938   2.767  2.0035 -0.0350  2.4669
 4049TIP3    H212070   7.451   7.014   2.850  1.8807  0.3962  1.9252
 4050TIP3   OH212071   4.983   5.099   2.491 -0.0250  0.0360 -0.1425
 4050TIP3    H112072   4.911   5.102   2.555 -0.0043 -1.2110 -0.0600
 4050TIP3    H212073   5.054   5.148   2.533 -0.3919  0.1875  0.3080
 4051TIP3   OH212074   7.619   4.185   0.638  0.0539  0.0299  0.0195
 4051TIP3    H112075   7.534   4.173   0.679  0.1587 -1.1065 -0.0887
 4051TIP3    H212076   7.605   4.162   0.546  0.3979  0.1861 -0.0747
 4052TIP3   OH212077   7.214   3.465   0.664 -0.1449 -0.1752 -0.3021
 4052TIP3    H112078   7.123   3.493   0.658  0.1557  0.7405 -0.7098
 4052TIP3    H212079   7.246   3.508   0.744  0.1062  0.0389 -0.5163
 4053TIP3   OH212080   6.994   3.132   2.661  0.7941 -0.0213  0.4813
 4053TIP3    H112081   7.019   3.051   2.616 -0.6606 -0.1636 -0.0774
 4053TIP3    H212082   6.899   3.127   2.669  0.7340  1.4548  0.8001
 4054TIP3   OH212083   3.901   1.914   2.986 -0.1897  0.5240 -0.2772
 4054TIP3    H112084   3.986   1.951   3.008 -0.3907  0.4308  0.6976
 4054TIP3    H212085   3.854   1.985   2.943  0.1535  0.7689 -0.2455
 4055TIP3   OH212086   3.292   4.801   0.391  0.2813 -0.2037 -0.0456
 4055TIP3    H112087   3.212   4.807   0.443 -0.0230  2.7517 -0.7623
 4055TIP3    H212088   3.355   4.858   0.436  0.9664 -0.0050 -1.2205
 4056TIP3   OH212089   6.295   5.606   0.126 -0.1549 -0.2761  0.1853
 4056TIP3    H112090   6.213   5.562   0.148 -0.4496 -0.8298 -1.9282
 4056TIP3    H212091   6.269   5.694   0.099 -0.1036 -0.6061 -0.9493
 4057TIP3   OH212092   6.665   4.975   0.056 -0.9014 -0.1594 -0.0335
 4057TIP3    H112093   6.572   4.999   0.058 -0.8754  0.0290 -0.6745
 4057TIP3    H212094   6.709   5.042   0.108 -1.1349 -0.2812  0.3183
 4058TIP3   OH212095   6.350   2.267   2.150  0.0111  0.1231  0.2257
 4058TIP3    H112096   6.440   2.277   2.122 -0.4849  2.5510 -0.6024
 4058TIP3    H212097   6.349   2.296   2.241  0.2783 -1.0510  0.6112
 4059TIP3   OH212098   7.796   4.173   2.799  0.0175 -0.1993  0.2596
 4059TIP3    H112099   7.737   4.170   2.723 -1.3980  0.7105  1.2800
 4059TIP3    H212100   7.853   4.247   2.782 -0.5564  0.2478  0.2493
 4060TIP3   OH212101   7.948   2.740   2.590  0.0627  0.2487  0.0962
 4060TIP3    H112102   7.904   2.794   2.524 -0.8634  0.2162  0.6734
 4060TIP3    H212103   8.030   2.786   2.608 -0.3590  1.0430  0.0022
 4061TIP3   OH212104   4.456   2.844   5.147 -0.1659 -0.1870  0.5492
 4061TIP3    H112105   4.501   2.823   5.066 -1.5050  2.3446 -0.8927
 4061TIP3    H212106   4.419   2.760   5.176  1.2014 -1.2999 -0.8744
 4062TIP3   OH212107   6.711   3.651   3.736  0.0175 -0.3622  0.2750
 4062TIP3    H112108   6.777   3.675   3.800  0.9734 -1.2807 -0.3537
 4062TIP3    H212109   6.682   3.735   3.699  0.3952  0.0807  0.9813
 4063TIP3   OH212110   6.944   3.972   2.037  0.1314  0.2449  0.1939
 4063TIP3    H112111   6.912   3.913   1.969 -0.5443  0.1687  0.5704
 4063TIP3    H212112   7.017   4.018   1.996  0.7271 -0.9236 -0.0640
 4064TIP3   OH212113   6.577   3.115   2.335 -0.8377 -0.4284 -0.0421
 4064TIP3    H112114   6.632   3.055   2.285  0.8922  1.2217 -0.1977
 4064TIP3    H212115   6.513   3.146   2.272 -0.2435 -0.2937 -0.5896
 4065TIP3   OH212116   3.055   3.952   3.964  0.2060  0.4207  0.9229
 4065TIP3    H112117   2.991   4.024   3.966 -1.0750 -0.6106 -1.6026
 4065TIP3    H212118   3.001   3.873   3.967  1.4421 -0.4553  0.1009
 4066TIP3   OH212119   6.334   2.890   2.978  0.3125 -0.0633 -0.1049
 4066TIP3    H112120   6.265   2.949   2.950  0.3450  0.5186  0.9942
 4066TIP3    H212121   6.288   2.820   3.026  0.4164 -0.0763 -0.0236
 4067TIP3   OH212122   6.529   3.112   1.037 -0.0077 -0.3061 -0.4269
 4067TIP3    H112123   6.568   3.025   1.029 -0.9483 -0.8369  0.5281
 4067TIP3    H212124   6.435   3.096   1.029 -0.1246  0.7715 -1.3121
 4068TIP3   OH212125   7.239   6.184   7.278  0.1571  0.0602 -0.1978
 4068TIP3    H112126   7.181   6.257   7.257  1.6234  1.0443 -0.8933
 4068TIP3    H212127   7.284   6.165   7.196  1.4596 -0.1084  0.5491
 4069TIP3   OH212128   6.390   4.216   3.787 -0.1801 -0.1564 -0.2453
 4069TIP3    H112129   6.480   4.234   3.815 -0.5884 -1.9802  2.3186
 4069TIP3    H212130   6.401   4.156   3.713  0.7142  0.8362 -0.9593
 4070TIP3   OH212131   4.255   3.223   2.903 -0.8200 -0.1480 -0.4807
 4070TIP3    H112132   4.320   3.281   2.864  0.6090 -1.8338 -0.7159
 4070TIP3    H212133   4.219   3.175   2.828 -1.7469  0.1965 -0.2571
 4071TIP3   OH212134   6.612   6.085   3.428  0.5576 -0.0734 -0.4274
 4071TIP3    H112135   6.557   6.073   3.351  1.0221  0.9291 -0.9231
 4071TIP3    H212136   6.661   6.003   3.436 -0.1114 -0.5041 -0.6830
 4072TIP3   OH212137   5.982   3.867   2.802 -0.0212  0.5629  0.3332
 4072TIP3    H112138   6.046   3.879   2.872  0.9741 -1.7659 -0.1150
 4072TIP3    H212139   5.898   3.863   2.847  0.6552 -1.4739  1.5213
 4073TIP3   OH212140   5.535   5.634   4.633 -0.9236  0.2773  0.0075
 4073TIP3    H112141   5.463   5.585   4.673 -0.5962  1.0704  1.5986
 4073TIP3    H212142   5.614   5.586   4.657 -0.9418 -0.8652 -2.1512
 4074TIP3   OH212143   7.053   6.489   1.882 -0.9073  0.5718  0.3509
 4074TIP3    H112144   7.143   6.457   1.891 -1.1306 -0.7312 -1.6143
 4074TIP3    H212145   7.049   6.567   1.936  1.4131  0.6265  0.4833
 4075TIP3   OH212146   6.462   2.764   1.782 -0.2810  0.5079  0.5465
 4075TIP3    H112147   6.557   2.761   1.789 -0.2148  1.5459  0.2085
 4075TIP3    H212148   6.435   2.832   1.843 -0.8771 -0.2736  1.1732
 4076TIP3   OH212149   4.042   4.396   2.119 -0.0456  0.6066  0.2737
 4076TIP3    H112150   4.110   4.429   2.059 -1.1149 -0.5004 -1.5979
 4076TIP3    H212151   4.070   4.306   2.139 -0.5079  0.4475  0.2015
 4077TIP3   OH212152   3.329   3.235   3.611  0.6217  0.2381  0.5543
 4077TIP3    H112153   3.320   3.246   3.516  0.7674 -0.7112  0.4235
 4077TIP3    H212154   3.253   3.280   3.648  1.6310  2.3594  0.1128
 4078TIP3   OH212155   6.953   5.665   3.305 -0.3878  0.0608  0.3933
 4078TIP3    H112156   7.047   5.669   3.320 -0.5366  1.8198  1.0257
 4078TIP3    H212157   6.942   5.669   3.210  0.1512  0.2196  0.3411
 4079TIP3   OH212158   5.952   6.954   3.333  0.1302  0.1396 -0.0228
 4079TIP3    H112159   6.034   6.949   3.283 -0.3330 -0.5589 -0.7159
 4079TIP3    H212160   5.967   7.026   3.395  0.9648  0.5681 -0.7033
 4080TIP3   OH212161   5.236   3.163   3.519  0.1148  0.0114  0.8378
 4080TIP3    H112162   5.167   3.112   3.476 -0.4308  0.4868  1.1425
 4080TIP3    H212163   5.317   3.132   3.479 -0.2739 -0.5816  0.5052
 4081TIP3   OH212164   7.111   3.692   1.827 -0.4413  0.5563 -0.1084
 4081TIP3    H112165   7.161   3.771   1.847  1.5232 -0.7914  0.4616
 4081TIP3    H212166   7.097   3.650   1.912  0.2683 -0.7064 -0.5946
 4082TIP3   OH212167   4.557   4.487   2.342  0.0271  0.3827  0.0092
 4082TIP3    H112168   4.576   4.577   2.316  1.3613  0.3547  0.8309
 4082TIP3    H212169   4.504   4.495   2.421 -0.4145  0.4377 -0.2874
 4083TIP3   OH212170   5.077   3.432   2.466  0.4659  0.4042  0.5404
 4083TIP3    H112171   5.027   3.478   2.399  0.1714  1.2227  1.3094
 4083TIP3    H212172   5.161   3.478   2.469  1.1482 -0.7374 -0.4896
 4084TIP3   OH212173   6.423   2.543   2.101  0.1368 -0.8336  0.5070
 4084TIP3    H112174   6.501   2.568   2.150  0.0775 -0.1025  0.2325
 4084TIP3    H212175   6.456   2.508   2.019  0.1346  1.0451 -0.3195
 4085TIP3   OH212176   6.946   4.039   1.160 -0.2425  0.2573  0.3026
 4085TIP3    H112177   7.009   3.987   1.109 -0.8571 -0.6712  0.4681
 4085TIP3    H212178   6.967   4.019   1.252 -0.4695  0.3078  0.3671
 4086TIP3   OH212179   7.407   3.391   2.970  0.3972  0.1678  0.2479
 4086TIP3    H112180   7.388   3.481   2.998 -1.1807 -0.3009  0.7232
 4086TIP3    H212181   7.322   3.353   2.951  1.1798 -0.6789 -1.7408
 4087TIP3   OH212182   5.237   2.778   1.977  0.0218 -0.6297 -0.0832
 4087TIP3    H112183   5.231   2.709   1.911  2.3697 -1.8199  0.8877
 4087TIP3    H212184   5.293   2.845   1.937  2.4570 -1.8969  1.0850
 4088TIP3   OH212185   4.574   1.929   1.633 -0.3198 -0.6478  0.0343
 4088TIP3    H112186   4.653   1.919   1.686 -0.3252 -1.5365 -0.1247
 4088TIP3    H212187   4.591   1.877   1.555 -0.7804 -0.2736 -0.3136
 4089TIP3   OH212188   3.865   3.796   2.576 -0.3551 -0.0317  0.3600
 4089TIP3    H112189   3.867   3.704   2.548 -0.3758  0.3178 -0.8061
 4089TIP3    H212190   3.866   3.846   2.494 -1.4370  0.9882  0.9501
 4090TIP3   OH212191   4.431   2.257   2.963 -0.1883  0.1173  0.1685
 4090TIP3    H112192   4.477   2.178   2.990  0.4349  0.4226  0.0193
 4090TIP3    H212193   4.499   2.324   2.958 -0.4180  0.2508 -1.4327
 4091TIP3   OH212194   6.492   4.448   0.954  0.6583  0.3431  0.1786
 4091TIP3    H112195   6.523   4.398   0.878  1.7942  1.5005 -0.1276
 4091TIP3    H212196   6.421   4.502   0.919  1.4264  1.1486 -0.1467
 4092TIP3   OH212197   3.394   3.632   2.542  0.2206  0.1943 -0.1191
 4092TIP3    H112198   3.436   3.602   2.623  1.3068  2.9767  0.3948
 4092TIP3    H212199   3.421   3.723   2.534 -2.6218  0.9258 -1.8444
 4093TIP3   OH212200   4.422   4.488   1.201  0.0188  0.7943  0.0309
 4093TIP3    H112201   4.371   4.527   1.130 -1.1582  2.5456  1.8272
 4093TIP3    H212202   4.392   4.397   1.204 -3.7562  1.9997  1.6668
 4094TIP3   OH212203   4.564   3.418   1.026  0.3898 -0.7186 -0.3897
 4094TIP3    H112204   4.476   3.392   0.999 -0.3025  0.7632  0.3559
 4094TIP3    H212205   4.567   3.513   1.011  1.9869 -0.8058 -0.7522
 4095TIP3   OH212206   7.439   3.905   2.996  0.6651  0.0729 -0.4130
 4095TIP3    H112207   7.469   3.994   2.978  0.0419  0.0772 -1.4781
 4095TIP3    H212208   7.437   3.900   3.092  0.1072  1.4218 -0.3322
 4096TIP3   OH212209   7.221   4.609   2.152  0.2010 -0.6125 -0.4755
 4096TIP3    H112210   7.180   4.632   2.235  1.4194 -1.3225  0.3368
 4096TIP3    H212211   7.202   4.683   2.095  1.1316  0.8580  1.0698
 4097TIP3   OH212212   4.921   1.102   2.536 -0.0383 -0.3522  0.1248
 4097TIP3    H112213   4.863   1.074   2.466  0.6689  1.2846 -1.1554
 4097TIP3    H212214   4.862   1.135   2.604 -0.6509 -0.0878 -0.5293
 4098TIP3   OH212215   3.832   6.216   1.747  0.1806  0.1415  0.4448
 4098TIP3    H112216   3.766   6.229   1.815  0.3554  0.6606  0.5132
 4098TIP3    H212217   3.916   6.232   1.791  0.2436  1.4767 -0.1287
 4099TIP3   OH212218   0.491   2.574   2.806  0.2675 -0.0825  0.4548
 4099TIP3    H112219   0.534   2.520   2.873 -0.8297  1.1137  2.1645
 4099TIP3    H212220   0.497   2.663   2.840  1.0361  0.7470 -1.8029
 4100TIP3   OH212221   6.036   6.349   2.907 -0.2189  0.0048 -0.1070
 4100TIP3    H112222   6.006   6.440   2.915  1.8378  0.6467  0.6201
 4100TIP3    H212223   5.990   6.302   2.976 -0.4409  0.7227  0.2374
 4101TIP3   OH212224   0.266   3.144   2.917 -0.5091 -0.6593 -0.1124
 4101TIP3    H112225   0.252   3.068   2.973 -1.4657 -1.2605 -1.1492
 4101TIP3    H212226   0.244   3.219   2.972  0.9972 -1.0841  1.1029
 4102TIP3   OH212227   3.320   1.406   6.133 -0.4577 -0.0175 -1.0040
 4102TIP3    H112228   3.253   1.471   6.154 -1.1455 -0.6762 -1.1358
 4102TIP3    H212229   3.403   1.453   6.142 -0.8622  0.4225  0.6205
 4103TIP3   OH212230   6.925   5.932   0.493 -0.0187 -0.0579  0.0880
 4103TIP3    H112231   6.890   5.955   0.579 -0.4773 -0.1564 -0.0676
 4103TIP3    H212232   6.893   6.001   0.435 -0.9239 -0.7659 -0.2727
 4104TIP3   OH212233   0.065   4.013   1.685  0.5510 -0.9290 -0.1161
 4104TIP3    H112234   0.108   4.093   1.652  1.1837 -0.1324  2.4673
 4104TIP3    H212235   0.007   4.045   1.754 -0.8773 -2.5018 -0.5719
 4105TIP3   OH212236   3.139   0.259   7.058 -0.3499 -0.2356  0.2362
 4105TIP3    H112237   3.044   0.266   7.066 -0.1752  1.4219  0.8911
 4105TIP3    H212238   3.152   0.185   6.998 -2.0674  0.2919 -0.8130
 4106TIP3   OH212239   5.733   3.501   1.995  0.0942  0.1985  0.0076
 4106TIP3    H112240   5.713   3.574   2.054 -0.8183 -0.9556  1.1546
 4106TIP3    H212241   5.652   3.487   1.946  0.8532  1.1698 -1.5861
 4107TIP3   OH212242   6.647   2.621   2.261  0.5186 -0.2711 -0.2656
 4107TIP3    H112243   6.600   2.625   2.344  0.7103  0.3395 -0.1820
 4107TIP3    H212244   6.710   2.550   2.272 -1.2696 -1.9830 -0.8564
 4108TIP3   OH212245   4.431   1.516   7.000 -0.2675 -0.2884  0.6593
 4108TIP3    H112246   4.395   1.447   7.055 -3.4787  0.4045 -0.4385
 4108TIP3    H212247   4.357   1.576   6.986  0.3810 -0.4631 -4.3773
 4109TIP3   OH212248   3.798   8.338   6.215  0.0145  0.1198 -0.2790
 4109TIP3    H112249   3.859   8.332   6.288 -0.0848  0.7615 -0.1369
 4109TIP3    H212250   3.717   8.371   6.253 -0.4490 -0.7984 -0.4580
 4110TIP3   OH212251   2.227   7.946   6.075 -0.5165 -0.5635 -0.2390
 4110TIP3    H112252   2.314   7.953   6.114 -0.9273  1.5217  0.3431
 4110TIP3    H212253   2.236   7.877   6.009  1.4027 -0.8275  0.2765
 4111TIP3   OH212254   6.453   5.386   0.730 -0.3915  0.2051  0.3610
 4111TIP3    H112255   6.413   5.391   0.817 -2.1119  1.5014 -0.4854
 4111TIP3    H212256   6.412   5.457   0.681 -0.5779 -1.4780 -1.9794
 4112TIP3   OH212257   8.540   3.660   0.793 -0.4149 -0.6643 -0.0031
 4112TIP3    H112258   8.629   3.693   0.803 -0.6990  0.1518 -0.1721
 4112TIP3    H212259   8.511   3.641   0.883 -0.6642  0.6227  0.1896
 4113TIP3   OH212260   2.270   6.942   6.137 -0.1579  0.5161 -0.1943
 4113TIP3    H112261   2.215   7.017   6.159 -0.4529  0.2228  0.0707
 4113TIP3    H212262   2.315   6.921   6.219 -0.8559 -0.2433  0.0064
 4114TIP3   OH212263   4.499   2.722   2.363 -0.2150  0.0689  0.6463
 4114TIP3    H112264   4.431   2.668   2.323  0.1748 -0.0160  0.0953
 4114TIP3    H212265   4.578   2.667   2.361  0.2512  0.7507 -0.1737
 4115TIP3   OH212266   5.253   3.835   0.537  0.1877 -0.3057  0.2564
 4115TIP3    H112267   5.248   3.919   0.492 -1.0143 -0.4709  0.0709
 4115TIP3    H212268   5.346   3.822   0.553  0.4656  0.5832 -0.6095
 4116TIP3   OH212269   8.038   2.712   2.232  0.8719 -0.1194  0.2035
 4116TIP3    H112270   8.006   2.762   2.157  1.1815  1.2386  0.9590
 4116TIP3    H212271   8.082   2.636   2.194  0.9775  0.5376 -0.9847
 4117TIP3   OH212272   8.000   4.344   2.890  0.0840  0.8749 -0.4730
 4117TIP3    H112273   8.088   4.306   2.895 -0.0542  0.7369  1.2947
 4117TIP3    H212274   8.015   4.435   2.864  0.5238  0.0758 -3.1788
 4118TIP3   OH212275   7.596   3.063   1.058 -0.1539  0.4600  0.4821
 4118TIP3    H112276   7.583   3.027   0.970 -1.0107  0.0714  0.7649
 4118TIP3    H212277   7.624   2.988   1.111 -2.6212  0.0305  1.2326
 4119TIP3   OH212278   4.152   0.185   6.989  0.0602 -0.0861  0.7112
 4119TIP3    H112279   4.119   0.181   6.899  0.9237  0.2802  0.3725
 4119TIP3    H212280   4.223   0.122   6.992 -1.3940 -1.7359  1.7737
 4120TIP3   OH212281   1.505   3.719   0.443 -0.1635  1.0164 -0.2120
 4120TIP3    H112282   1.427   3.665   0.429  0.2442 -0.2894  2.3593
 4120TIP3    H212283   1.473   3.809   0.438 -1.6899  0.5006  0.1062
 4121TIP3   OH212284   6.793   4.355   0.769  0.8041  0.0148 -0.2494
 4121TIP3    H112285   6.806   4.450   0.769 -1.3230  0.3489  1.7145
 4121TIP3    H212286   6.830   4.326   0.852  2.0219 -0.9929 -1.1278
 4122TIP3   OH212287   8.359   4.767   0.449  0.3516  0.3165 -0.0938
 4122TIP3    H112288   8.424   4.701   0.469  1.2407  1.7102  1.6794
 4122TIP3    H212289   8.393   4.812   0.371  1.5415  1.0665  0.8510
 4123TIP3   OH212290   7.446   2.696   1.035 -0.2865 -0.0535  0.0213
 4123TIP3    H112291   7.530   2.734   1.061 -1.3246  2.1460  0.2305
 4123TIP3    H212292   7.396   2.690   1.116 -1.2140  0.9418 -0.4626
 4124TIP3   OH212293   8.787   7.583   1.045  0.0390  0.3769  0.1554
 4124TIP3    H112294   8.795   7.678   1.055  0.2684  0.3451  0.2667
 4124TIP3    H212295   8.745   7.571   0.959  1.1564  0.5379 -0.4260
 4125TIP3   OH212296   8.272   3.398   2.505 -0.3773  0.1014 -0.5896
 4125TIP3    H112297   8.265   3.344   2.426  0.3943  1.9051 -1.9513
 4125TIP3    H212298   8.289   3.486   2.471 -1.3968  1.1573  1.5695
 4126TIP3   OH212299   6.847   4.619   0.725 -0.0555 -0.4225 -0.5168
 4126TIP3    H112300   6.897   4.692   0.689  1.2463 -1.2347 -0.3748
 4126TIP3    H212301   6.769   4.613   0.669  2.0404 -1.8160 -3.3911
 4127TIP3   OH212302   2.477   2.143   6.033 -0.3258  0.2028 -0.1421
 4127TIP3    H112303   2.539   2.166   5.964  1.5463 -1.2283  1.0110
 4127TIP3    H212304   2.479   2.217   6.094  1.1406 -0.3189  0.4697
 4128TIP3   OH212305   7.797   5.139   1.272 -0.0684  0.5820 -0.1645
 4128TIP3    H112306   7.785   5.218   1.325  1.5649 -0.5874  1.9799
 4128TIP3    H212307   7.731   5.078   1.304 -0.4892  0.5983 -0.9665
 4129TIP3   OH212308   8.645   6.827   0.644  0.5349  0.0481  0.0502
 4129TIP3    H112309   8.670   6.915   0.673  0.9224 -0.0811  0.1019
 4129TIP3    H212310   8.724   6.775   0.654  0.5499 -0.1016 -0.8373
 4130TIP3   OH212311   8.258   2.679   1.682  0.4398  0.1641  0.4641
 4130TIP3    H112312   8.329   2.728   1.723  1.1293  0.8021 -1.4357
 4130TIP3    H212313   8.195   2.746   1.653 -0.7112 -0.3629  1.6747
 4131TIP3   OH212314   8.429   4.323   0.390 -0.0746  0.4651 -0.2959
 4131TIP3    H112315   8.341   4.301   0.360 -1.1628  3.1651  0.8302
 4131TIP3    H212316   8.456   4.247   0.443 -1.1496 -0.9480 -1.7220
 4132TIP3   OH212317   2.764   8.092   6.118 -0.4244  0.2748  0.0476
 4132TIP3    H112318   2.701   8.139   6.064  0.3020 -0.2274 -1.2774
 4132TIP3    H212319   2.755   8.000   6.090 -0.1077  0.0016  0.8415
 4133TIP3   OH212320   7.369   3.321   2.118 -0.2506  0.4135  0.0997
 4133TIP3    H112321   7.395   3.296   2.207  1.6551 -1.9236 -1.0565
 4133TIP3    H212322   7.293   3.265   2.099 -0.5044  0.7376  0.1523
 4134TIP3   OH212323   7.873   5.139   2.137 -0.2780 -0.2638 -0.3561
 4134TIP3    H112324   7.796   5.176   2.094  1.4225  2.5440 -1.1049
 4134TIP3    H212325   7.925   5.103   2.065  0.0680 -0.3186 -0.0805
 4135TIP3   OH212326   7.121   5.106   2.198  0.6652  0.3070 -0.3258
 4135TIP3    H112327   7.043   5.144   2.238  0.6131  0.3846 -0.5024
 4135TIP3    H212328   7.178   5.181   2.179  0.3730  0.3386 -1.0843
 4136TIP3   OH212329   7.383   5.495   0.498  0.1982 -0.4393 -0.0584
 4136TIP3    H112330   7.433   5.563   0.452  0.9333 -1.3394 -0.5891
 4136TIP3    H212331   7.325   5.545   0.556  0.4197  0.6601 -0.7562
 4137TIP3   OH212332   5.787   4.700   0.572 -0.3419  0.4138 -0.4550
 4137TIP3    H112333   5.805   4.732   0.484 -1.8654  0.3511 -0.8059
 4137TIP3    H212334   5.858   4.638   0.590  1.1246  1.9423 -0.8216
 4138TIP3   OH212335   8.552   3.387   0.677 -0.1031 -0.5341 -0.3681
 4138TIP3    H112336   8.583   3.457   0.735  0.4167 -0.5809 -0.5888
 4138TIP3    H212337   8.536   3.431   0.593  0.9213 -0.8115 -0.7155
 4139TIP3   OH212338   3.150   2.067   7.072 -0.2863 -0.2069  0.3598
 4139TIP3    H112339   3.169   2.095   6.982 -0.6349 -1.7744 -0.2195
 4139TIP3    H212340   3.233   2.079   7.118 -0.2361  1.0773 -0.0393
 4140TIP3   OH212341   3.391   1.929   6.171 -0.2301  0.0560 -0.0731
 4140TIP3    H112342   3.384   1.836   6.193  0.1692  0.2660  0.9464
 4140TIP3    H212343   3.372   1.932   6.077  1.1044 -1.2228 -0.4116
 4141TIP3   OH212344   4.545   0.223   6.894 -0.4052 -0.1813  0.0075
 4141TIP3    H112345   4.480   0.156   6.912 -0.7471  0.4078  0.9909
 4141TIP3    H212346   4.495   0.297   6.859 -0.0083 -0.4902 -1.2703
 4142TIP3   OH212347   8.229   4.186   0.278  0.3258  0.1240  0.3413
 4142TIP3    H112348   8.162   4.205   0.212  0.8025 -0.6636 -0.3803
 4142TIP3    H212349   8.186   4.128   0.340  0.1444  0.1556  0.2464
 4143TIP3   OH212350   5.639   8.029   0.529  0.4194 -0.4270 -0.3320
 4143TIP3    H112351   5.690   8.108   0.546  1.4480 -1.2649  0.5431
 4143TIP3    H212352   5.548   8.055   0.542  0.7480  0.6376 -0.1890
 4144TIP3   OH212353   3.030   7.685   6.985  0.1507  0.1762  0.1395
 4144TIP3    H112354   3.009   7.669   6.893 -1.1229  1.3950  0.2127
 4144TIP3    H212355   3.080   7.607   7.012 -0.2542 -0.5999 -1.3250
 4145TIP3   OH212356   5.963   2.949   0.889  0.4782 -0.4539 -0.5432
 4145TIP3    H112357   5.888   2.965   0.946  0.6377 -2.5989  0.3178
 4145TIP3    H212358   5.985   3.035   0.853 -1.6816  0.3776  0.0712
 4146TIP3   OH212359   7.078   4.713   0.945  0.1281 -0.2360  0.2111
 4146TIP3    H112360   7.005   4.667   0.901 -2.2634  2.4729  1.1869
 4146TIP3    H212361   7.118   4.765   0.875 -1.7518  1.7051  0.5084
 4147TIP3   OH212362   6.426   4.869   2.820  0.1495  0.2984  0.2264
 4147TIP3    H112363   6.510   4.913   2.809  0.6126 -0.4655  0.7176
 4147TIP3    H212364   6.443   4.778   2.795 -0.4935  0.1088  0.4818
 4148TIP3   OH212365   0.027   5.463   1.915  0.2799  0.0033 -0.4822
 4148TIP3    H112366   0.046   5.420   1.832  0.1166 -3.4010  1.1749
 4148TIP3    H212367  -0.058   5.427   1.942  0.5588  0.6871  1.3803
 4149TIP3   OH212368   6.386   6.200   2.388  0.0418  0.3136 -0.1113
 4149TIP3    H112369   6.397   6.208   2.293 -1.3547 -0.0387 -0.3080
 4149TIP3    H212370   6.300   6.238   2.406  0.2191  0.2086  0.9951
 4150TIP3   OH212371   2.823   3.505   6.310  0.0161 -0.1849 -0.3378
 4150TIP3    H112372   2.782   3.418   6.316 -1.9934  0.7993  0.9178
 4150TIP3    H212373   2.758   3.564   6.349  2.1613  1.6249  0.5633
 4151TIP3   OH212374   7.173   3.974   5.704 -0.1402  0.1804 -0.5578
 4151TIP3    H112375   7.261   4.004   5.726 -0.3713 -0.0292  0.7136
 4151TIP3    H212376   7.177   3.879   5.711 -0.5904  0.1978  0.0079
 4152TIP3   OH212377   7.151   3.518   1.206  0.2067 -0.1941  0.2841
 4152TIP3    H112378   7.114   3.605   1.215  0.9760  0.1650 -0.0423
 4152TIP3    H212379   7.202   3.504   1.285 -0.3132 -0.5465  0.5640
 4153TIP3   OH212380   8.330   4.376   0.771 -0.1571  0.0512  0.1735
 4153TIP3    H112381   8.378   4.300   0.803 -1.7802 -0.4895  1.4002
 4153TIP3    H212382   8.368   4.450   0.818 -1.7479 -0.6023  2.5881
 4154TIP3   OH212383   6.040   4.940   2.489  0.1206  0.1025  0.1094
 4154TIP3    H112384   6.087   4.891   2.422 -1.6672  0.2071 -1.2571
 4154TIP3    H212385   6.096   4.934   2.567  2.3438  0.1943 -1.4387
 4155TIP3   OH212386   0.366   4.998   1.137 -0.0874  0.0659 -0.0160
 4155TIP3    H112387   0.303   4.937   1.097  1.2010 -1.8645  0.7951
 4155TIP3    H212388   0.370   4.971   1.229  0.0069  1.8479  0.5234
 4156TIP3   OH212389   8.726   2.180   2.860 -0.4262 -0.1290 -0.1973
 4156TIP3    H112390   8.730   2.115   2.930  0.2370 -0.3777 -0.4640
 4156TIP3    H212391   8.777   2.142   2.789  0.5683  0.9971 -0.1019
 4157TIP3   OH212392   0.212   4.349   4.121 -0.0484  0.1568 -0.3662
 4157TIP3    H112393   0.291   4.320   4.075 -0.5033 -0.6818 -0.6153
 4157TIP3    H212394   0.219   4.308   4.207 -0.7899 -0.8552 -0.7863
 4158TIP3   OH212395   0.712   4.375   2.347 -0.4529  0.4035 -0.2574
 4158TIP3    H112396   0.763   4.433   2.403 -1.0104 -0.6040  1.3451
 4158TIP3    H212397   0.621   4.397   2.368 -0.6621 -0.6241 -0.0879
 4159TIP3   OH212398   0.364   3.880   1.765  0.0318  0.1111 -0.3039
 4159TIP3    H112399   0.409   3.796   1.769  0.2380  0.1903 -0.8509
 4159TIP3    H212400   0.274   3.858   1.743 -0.6714 -0.1854  2.6232
 4160TIP3   OH212401   7.988   2.478   0.137  0.5966  0.7868 -0.4409
 4160TIP3    H112402   7.974   2.515   0.224 -1.3312 -1.0138  0.0557
 4160TIP3    H212403   7.950   2.541   0.076 -0.6631  0.6637  0.2248
 4161TIP3   OH212404   6.054   3.507   1.539 -0.1862  0.8132  0.5369
 4161TIP3    H112405   6.053   3.426   1.488  1.5489  1.4261 -0.5104
 4161TIP3    H212406   6.031   3.480   1.628 -0.5856 -0.6728 -0.0036
 4162TIP3   OH212407   1.239   5.646   6.746 -0.0827  0.0274 -0.1504
 4162TIP3    H112408   1.185   5.684   6.677 -0.2979  0.7176  0.3915
 4162TIP3    H212409   1.201   5.680   6.827  0.5695 -0.2655  0.2783
 4163TIP3   OH212410   0.304   3.598   2.846  0.3315 -0.3472  0.5835
 4163TIP3    H112411   0.209   3.597   2.835  0.7062 -0.7738 -3.5447
 4163TIP3    H212412   0.327   3.507   2.867 -0.1929 -0.1698  1.9457
 4164TIP3   OH212413   8.615   4.677   2.398 -0.6756  0.2130  0.2166
 4164TIP3    H112414   8.649   4.598   2.441 -1.0881 -0.4342 -0.6324
 4164TIP3    H212415   8.596   4.650   2.308 -2.2277  0.8866  0.3196
 4165TIP3   OH212416   6.753   5.432   1.652 -0.3083  0.4981  0.4463
 4165TIP3    H112417   6.794   5.383   1.581  0.0260  2.2996 -0.6430
 4165TIP3    H212418   6.676   5.381   1.676 -1.7727  1.0385 -2.8630
 4166TIP3   OH212419   3.578   0.557   7.274  0.2643  0.1191  0.6974
 4166TIP3    H112420   3.510   0.587   7.214 -0.2483 -1.2849  0.5701
 4166TIP3    H212421   3.621   0.638   7.303 -0.7441  0.9421 -0.0522
 4167TIP3   OH212422   1.035   7.566   7.133 -0.2189 -0.4352 -0.2097
 4167TIP3    H112423   0.980   7.550   7.210 -0.5014 -1.5657 -0.6363
 4167TIP3    H212424   0.981   7.539   7.059  0.8698 -1.4847 -0.6387
 4168TIP3   OH212425   6.568   3.269   1.719 -0.3780  0.5868 -0.1764
 4168TIP3    H112426   6.565   3.288   1.813 -0.1416  0.6079 -0.1728
 4168TIP3    H212427   6.579   3.174   1.713  0.0180  0.6307 -0.1768
 4169TIP3   OH212428   8.558   3.074   1.439  0.1304 -0.3206 -0.8896
 4169TIP3    H112429   8.642   3.040   1.407 -0.1783  0.4549 -2.5947
 4169TIP3    H212430   8.542   3.151   1.384 -1.7548 -0.5260 -0.6374
 4170TIP3   OH212431   8.342   4.049   2.408  0.4420  0.4889 -0.3340
 4170TIP3    H112432   8.299   4.068   2.491 -1.5947  0.0527 -1.2700
 4170TIP3    H212433   8.419   3.997   2.433 -1.7917 -2.2554  1.0631
 4171TIP3   OH212434   6.673   2.531   1.498  0.1271 -0.3270 -0.1697
 4171TIP3    H112435   6.665   2.626   1.511  2.8477 -0.1427  0.3985
 4171TIP3    H212436   6.610   2.493   1.559  1.2079  1.0254  1.8408
 4172TIP3   OH212437   6.088   6.517   3.826 -0.2917 -0.4462 -0.0609
 4172TIP3    H112438   6.040   6.555   3.752  1.3801  2.3016  0.2012
 4172TIP3    H212439   6.024   6.460   3.869 -2.1904  0.2155 -1.8952
 4173TIP3   OH212440   0.742   6.979   6.772 -0.5707  0.4353 -0.0331
 4173TIP3    H112441   0.809   6.962   6.706  0.7738 -1.2710  1.7219
 4173TIP3    H212442   0.682   6.905   6.765 -0.5217  0.3396  0.5328
 4174TIP3   OH212443   0.343   3.637   1.908  0.0849 -0.0047  0.3277
 4174TIP3    H112444   0.324   3.703   1.975  0.0827  0.6611 -0.3282
 4174TIP3    H212445   0.361   3.557   1.958 -3.2428 -0.3835  1.0261
 4175TIP3   OH212446   5.850   3.309   1.299  0.5304 -0.4846  0.2676
 4175TIP3    H112447   5.898   3.311   1.216 -0.0333 -0.3313 -0.0541
 4175TIP3    H212448   5.914   3.277   1.362  0.9602 -0.6131 -0.2268
 4176TIP3   OH212449   8.740   3.707   1.768  0.0305 -0.0284  0.4342
 4176TIP3    H112450   8.830   3.700   1.799 -0.1600 -2.6893  0.4396
 4176TIP3    H212451   8.696   3.759   1.835  1.3677  0.6428  0.8118
 4177TIP3   OH212452   1.488   7.502   7.017  0.0752 -0.3220  0.2392
 4177TIP3    H112453   1.554   7.459   7.072 -1.3538 -1.7789  0.8728
 4177TIP3    H212454   1.456   7.575   7.071  1.5303  0.7286 -0.2905
 4178TIP3   OH212455   7.996   4.593   2.805  0.4758  0.1198 -0.6047
 4178TIP3    H112456   7.947   4.664   2.846  2.8381  0.8925  1.0240
 4178TIP3    H212457   7.965   4.590   2.715 -0.3132  2.6172 -0.4353
 4179TIP3   OH212458   5.300   3.288   3.092  0.2626 -0.0030  0.2633
 4179TIP3    H112459   5.250   3.207   3.077 -0.3724  0.6202 -1.1581
 4179TIP3    H212460   5.270   3.347   3.022  1.8716  0.9172  0.3350
 4180TIP3   OH212461   8.547   4.095   0.539  0.3220  0.6532 -0.1587
 4180TIP3    H112462   8.608   4.040   0.489 -0.2491 -1.0864  1.0253
 4180TIP3    H212463   8.499   4.034   0.594 -2.0622  2.0752 -0.5929
 4181TIP3   OH212464   7.435   6.136   0.504 -0.0040 -0.7992 -0.3894
 4181TIP3    H112465   7.521   6.110   0.470 -0.1038 -0.8272 -0.6196
 4181TIP3    H212466   7.386   6.054   0.510 -0.5102 -0.5961 -1.6562
 4182TIP3   OH212467   0.773   5.577   1.805 -0.9656  0.3874 -0.5730
 4182TIP3    H112468   0.687   5.603   1.839 -0.5829  1.2534 -0.2677
 4182TIP3    H212469   0.821   5.546   1.881  0.0569  2.7643 -0.2105
 4183TIP3   OH212470   7.561   2.578   2.135 -0.1051 -0.5683  0.7067
 4183TIP3    H112471   7.520   2.514   2.192 -0.0828 -1.3240 -0.1058
 4183TIP3    H212472   7.502   2.583   2.059  1.5964 -2.1551 -0.7764
 4184TIP3   OH212473   4.174   2.866   7.266  0.2987 -0.0557 -0.6525
 4184TIP3    H112474   4.240   2.797   7.276  0.1190 -0.2847 -1.0376
 4184TIP3    H212475   4.112   2.831   7.203  0.3530  0.5697 -1.0655
 4185TIP3   OH212476   7.348   3.557   0.931  0.0275 -0.6621  0.3891
 4185TIP3    H112477   7.388   3.519   1.010  0.7222 -0.6607  0.0392
 4185TIP3    H212478   7.420   3.601   0.887 -0.7179  0.8716  0.6674
 4186TIP3   OH212479   2.862   7.121   6.866 -0.3241 -0.6726 -0.5137
 4186TIP3    H112480   2.843   7.039   6.820  0.1191 -2.1559  1.9171
 4186TIP3    H212481   2.776   7.154   6.892 -0.3438 -1.7432  0.8285
 4187TIP3   OH212482   5.451   0.776   6.406 -0.1679 -0.1732 -0.3154
 4187TIP3    H112483   5.500   0.698   6.432  1.3028  0.6807 -0.4237
 4187TIP3    H212484   5.398   0.799   6.483  0.9206 -0.1215  0.4331
 4188TIP3   OH212485   0.431   4.288   2.220 -0.3418 -0.1997  0.2485
 4188TIP3    H112486   0.382   4.363   2.185  1.5145 -0.0696 -2.2151
 4188TIP3    H212487   0.377   4.212   2.197  0.4070 -0.0357 -2.1823
 4189TIP3   OH212488   0.176   5.228   1.432  0.3509  0.7510 -0.1233
 4189TIP3    H112489   0.268   5.203   1.427  0.1165 -0.4507  1.3680
 4189TIP3    H212490   0.136   5.163   1.490 -1.5212  1.0163 -1.0622
 4190TIP3   OH212491   4.196   1.600   7.226  0.0330  0.2936 -0.2235
 4190TIP3    H112492   4.230   1.511   7.235  1.4842  0.9671  1.1408
 4190TIP3    H212493   4.165   1.605   7.135  1.4606 -1.0844 -0.7993
 4191TIP3   OH212494   1.159   4.450   0.804  0.0931  0.3635  0.2838
 4191TIP3    H112495   1.079   4.413   0.842 -1.2926 -0.1566 -2.9576
 4191TIP3    H212496   1.151   4.544   0.820 -1.2906  0.3366 -0.1541
 4192TIP3   OH212497   3.899   1.198   6.917  0.7659  0.5314 -0.5080
 4192TIP3    H112498   3.946   1.232   6.841  0.8420 -0.3246 -0.8463
 4192TIP3    H212499   3.957   1.130   6.952 -0.9678 -1.7300 -1.9256
 4193TIP3   OH212500   4.986   0.059   4.952 -0.9749 -0.2976  0.0475
 4193TIP3    H112501   5.038   0.108   4.888 -0.7789 -0.6231 -0.0400
 4193TIP3    H212502   4.896   0.070   4.922 -0.7454 -1.9699 -1.3305
 4194TIP3   OH212503   0.046   4.280   0.126 -0.0439  0.6377  0.7728
 4194TIP3    H112504   0.117   4.249   0.182 -0.0491 -0.9234 -0.0628
 4194TIP3    H212505  -0.033   4.269   0.179 -0.0763 -1.0394  0.3931
 4195TIP3   OH212506   7.396   2.453   2.769 -0.4899  0.0744  0.7383
 4195TIP3    H112507   7.349   2.534   2.746  0.9982  1.0596  1.0462
 4195TIP3    H212508   7.329   2.395   2.803 -1.4529  1.5502  1.4229
 4196TIP3   OH212509   6.805   4.183   2.601 -0.3654  0.1816  0.2781
 4196TIP3    H112510   6.748   4.184   2.524  0.9600 -1.0327 -0.7527
 4196TIP3    H212511   6.847   4.269   2.601  0.1433 -0.0594 -0.7574
 4197TIP3   OH212512   3.247   1.030   6.527  0.6212  0.0060 -0.0268
 4197TIP3    H112513   3.234   1.022   6.622 -1.7322  0.6803 -0.2513
 4197TIP3    H212514   3.192   0.961   6.489 -0.2046  1.1533 -0.9626
 4198TIP3   OH212515   7.410   6.233   2.567  0.1237 -0.1739  0.3723
 4198TIP3    H112516   7.318   6.260   2.558  0.2774  0.3068  0.2296
 4198TIP3    H212517   7.411   6.143   2.534  0.1760  0.6868 -2.1019
 4199TIP3   OH212518   1.017   7.613   6.789 -0.4094  0.2369 -0.1227
 4199TIP3    H112519   0.974   7.534   6.821 -2.2064  1.4036  0.4564
 4199TIP3    H212520   1.090   7.582   6.737 -1.6563 -1.8169 -0.6978
 4200TIP3   OH212521   1.420   6.539   3.821  0.4486  0.0791 -0.3308
 4200TIP3    H112522   1.439   6.526   3.914  2.6970  0.9823 -0.6549
 4200TIP3    H212523   1.501   6.574   3.784 -1.4772  2.9825 -1.9820
 4201TIP3   OH212524   2.782   7.973   7.144 -0.1096 -0.4121  0.1166
 4201TIP3    H112525   2.732   7.992   7.223 -0.4087 -1.4376  0.1836
 4201TIP3    H212526   2.853   7.916   7.173 -0.8528 -1.6803 -0.5255
 4202TIP3   OH212527   7.592   5.048   0.404  0.0111  0.3976 -0.0533
 4202TIP3    H112528   7.545   5.005   0.333  0.1611 -0.3943  0.3152
 4202TIP3    H212529   7.527   5.105   0.445 -0.2290  0.4202 -0.4632
 4203TIP3   OH212530   8.791   3.019   1.261 -0.0112 -0.4291 -0.0932
 4203TIP3    H112531   8.806   2.959   1.188 -0.8422  1.5484 -1.9292
 4203TIP3    H212532   8.878   3.032   1.300  0.6358 -0.5507 -1.4901
 4204TIP3   OH212533   2.769   7.879   6.887  0.5554 -0.5702  0.5612
 4204TIP3    H112534   2.772   7.906   6.979  0.4877 -2.5333  1.1623
 4204TIP3    H212535   2.861   7.869   6.862  0.5593 -2.2892  1.1410
 4205TIP3   OH212536   7.822   5.447   1.663 -0.1629 -0.0067 -0.3514
 4205TIP3    H112537   7.892   5.509   1.646  0.0221  0.1351  0.8443
 4205TIP3    H212538   7.867   5.364   1.682 -0.2574  0.3558  1.5310
 4206TIP3   OH212539   3.738   3.145   7.243 -0.1554  0.0699  0.3559
 4206TIP3    H112540   3.761   3.060   7.282  0.8105 -0.2007 -0.7775
 4206TIP3    H212541   3.652   3.130   7.203  0.1123 -0.4490 -0.0352
 4207TIP3   OH212542   7.427   4.373   1.932 -0.1781  0.0207 -0.4580
 4207TIP3    H112543   7.498   4.369   1.867 -0.0821  1.9146 -0.5072
 4207TIP3    H212544   7.419   4.467   1.952 -2.7342 -0.1733 -0.5062
 4208TIP3   OH212545   7.101   3.984   0.922  0.3221 -0.2930  0.0126
 4208TIP3    H112546   7.056   3.918   0.870 -1.1809  0.2099  0.6488
 4208TIP3    H212547   7.118   4.056   0.861  1.7807 -1.1582 -0.6300
 4209TIP3   OH212548   0.966   3.663   1.946 -0.2628  0.1355 -0.1954
 4209TIP3    H112549   1.044   3.638   1.996 -1.1932 -0.4504  0.9951
 4209TIP3    H212550   0.984   3.632   1.857  0.1724 -1.4655  0.4325
 4210TIP3   OH212551   3.349   7.636   6.967  0.0955  0.2587  0.1184
 4210TIP3    H112552   3.282   7.662   6.904  0.3303 -0.1695 -0.3040
 4210TIP3    H212553   3.422   7.695   6.951  1.4146 -1.9225 -2.1965
 4211TIP3   OH212554   3.920   1.681   6.780  0.0547  0.7106 -0.2672
 4211TIP3    H112555   3.838   1.731   6.778  0.7740  1.9664  0.9910
 4211TIP3    H212556   3.963   1.704   6.697 -0.3313  0.9353 -0.4075
 4212TIP3   OH212557   8.799   3.287   1.167  0.3091  0.3520 -0.3637
 4212TIP3    H112558   8.865   3.291   1.235 -0.9641  0.7500  0.8826
 4212TIP3    H212559   8.751   3.205   1.184  0.0852  0.3772 -0.8586
 4213TIP3   OH212560   7.814   4.825   3.192 -0.2648  0.2645  0.1963
 4213TIP3    H112561   7.763   4.901   3.163 -1.9107 -0.4874  1.0366
 4213TIP3    H212562   7.788   4.812   3.283  1.3962 -0.1914  0.6173
 4214TIP3   OH212563   7.871   2.978   3.411  0.1289  0.0673  0.2292
 4214TIP3    H112564   7.825   3.040   3.355 -0.3473 -0.1088  0.4183
 4214TIP3    H212565   7.896   2.907   3.353  1.0020  0.6055 -0.0600
 4215TIP3   OH212566   6.935   6.978   1.350 -0.2059 -0.4755  0.1816
 4215TIP3    H112567   6.853   6.981   1.300 -0.7029 -1.2035  0.9482
 4215TIP3    H212568   6.936   6.891   1.390  0.9598 -0.4816  0.1586
 4216TIP3   OH212569   7.120   4.304   1.672 -0.3160 -0.5084 -0.5321
 4216TIP3    H112570   7.064   4.301   1.750 -0.4885 -0.8101 -0.6636
 4216TIP3    H212571   7.111   4.217   1.633  0.9804 -0.8613 -0.0551
 4217TIP3   OH212572   0.539   3.532   2.219 -0.3391 -0.1961  0.0652
 4217TIP3    H112573   0.594   3.597   2.175  0.0419 -0.7772 -0.3245
 4217TIP3    H212574   0.600   3.464   2.248 -0.6520 -0.0429  1.0853
 4218TIP3   OH212575   1.769   4.191   3.694  0.2859  0.4102  0.0701
 4218TIP3    H112576   1.696   4.186   3.757  0.9532  0.7222  0.8729
 4218TIP3    H212577   1.804   4.279   3.705  1.8323 -0.2919  0.8671
 4219TIP3   OH212578   3.761   0.589   5.828 -0.1950  0.5936  0.4060
 4219TIP3    H112579   3.772   0.643   5.749 -1.8851  0.8985  0.3745
 4219TIP3    H212580   3.740   0.502   5.794  1.7945  0.0574  0.4760
 4220TIP3   OH212581   6.913   4.163   2.244 -0.2747 -0.6011  0.1658
 4220TIP3    H112582   6.978   4.097   2.268 -1.1604 -1.1656  1.1011
 4220TIP3    H212583   6.878   4.133   2.160 -1.4377 -1.9380  1.1008
 4221TIP3   OH212584   3.024   1.763   7.256 -0.5025 -0.3603 -0.0815
 4221TIP3    H112585   3.044   1.851   7.286 -1.2196 -0.6725  1.3564
 4221TIP3    H212586   2.963   1.776   7.183 -0.2802  0.3457 -0.1406
 4222TIP3   OH212587   7.168   5.221   2.991  0.7704  0.4475  0.4910
 4222TIP3    H112588   7.135   5.156   2.930  1.0942  0.9447 -0.2224
 4222TIP3    H212589   7.253   5.186   3.020  0.7589  0.3608  0.4191
 4223TIP3   OH212590   7.235   4.741   3.568 -0.1419  0.5310 -0.1045
 4223TIP3    H112591   7.306   4.677   3.578 -0.7333  0.3849  3.6016
 4223TIP3    H212592   7.155   4.689   3.572 -0.5481  0.9373 -2.3213
 4224TIP3   OH212593   0.126   5.445   3.557 -0.4642 -0.6782 -0.0628
 4224TIP3    H112594   0.195   5.398   3.509  1.1251  2.0062 -0.5380
 4224TIP3    H212595   0.097   5.383   3.624  3.3717 -1.4557  1.0447
 4225TIP3   OH212596   2.325   7.437   7.108  0.5653 -0.3350 -0.1882
 4225TIP3    H112597   2.420   7.436   7.113  0.7481 -0.4943 -2.7507
 4225TIP3    H212598   2.305   7.507   7.045 -0.9848 -0.5941 -0.0174
 4226TIP3   OH212599   4.999   0.442   6.893 -0.5227  0.4123 -0.4913
 4226TIP3    H112600   5.021   0.532   6.868 -0.7552  0.3496 -0.9291
 4226TIP3    H212601   4.936   0.453   6.964  2.1472  0.5844  1.9179
 4227TIP3   OH212602   3.681   1.364   6.914 -0.1019  0.1861 -0.0190
 4227TIP3    H112603   3.740   1.289   6.925  0.0078  0.2261 -0.3216
 4227TIP3    H212604   3.727   1.437   6.954  0.0927  0.2352 -0.3295
 4228TIP3   OH212605   5.430   2.999   1.954  0.0950 -0.7055 -0.7683
 4228TIP3    H112606   5.515   2.998   1.911  0.5387 -0.2981  0.0853
 4228TIP3    H212607   5.369   3.027   1.886  0.8779  0.5199 -0.9757
 4229TIP3   OH212608   8.358   3.623   2.337 -0.5578  0.0516 -0.1788
 4229TIP3    H112609   8.312   3.565   2.276 -0.1178 -0.6340  0.1291
 4229TIP3    H212610   8.352   3.710   2.297 -1.0476 -0.2374 -0.7502
 4230TIP3   OH212611   6.131   2.412   0.362 -0.0039  0.3062  0.4891
 4230TIP3    H112612   6.209   2.456   0.327 -2.1548  2.2064 -2.2068
 4230TIP3    H212613   6.107   2.348   0.294 -2.5101  1.9035 -0.2174
 4231TIP3   OH212614   8.147   6.362   2.242 -0.0819  0.1952  0.0204
 4231TIP3    H112615   8.078   6.367   2.308  0.0345 -1.2626  0.2831
 4231TIP3    H212616   8.181   6.273   2.250  2.5387  1.2060  0.6007
 4232TIP3   OH212617   6.922   2.711   2.891 -0.4021 -0.5652 -0.0123
 4232TIP3    H112618   6.999   2.666   2.926  0.5311 -1.8395 -3.4696
 4232TIP3    H212619   6.919   2.794   2.940  2.4067 -1.0389  1.0997
 4233TIP3   OH212620   8.508   3.586   1.067  0.0066  0.0400  0.7003
 4233TIP3    H112621   8.430   3.543   1.102 -1.1692  2.0139  0.6011
 4233TIP3    H212622   8.555   3.617   1.145 -0.6452  1.0961  0.6814
 4234TIP3   OH212623   4.038   0.985   6.526 -0.2447  0.2507  0.1771
 4234TIP3    H112624   3.985   0.977   6.605  0.1389 -0.2777  0.3886
 4234TIP3    H212625   3.975   0.988   6.455 -0.5613 -0.4755  0.4193
 4235TIP3   OH212626   4.711   0.335   6.470 -0.4583  0.0760 -0.4402
 4235TIP3    H112627   4.717   0.324   6.565 -0.2254 -0.5851 -0.5263
 4235TIP3    H212628   4.732   0.427   6.455 -0.7030  0.2350  0.1653
 4236TIP3   OH212629   8.928   4.311   2.247 -0.4509 -0.9720  0.3276
 4236TIP3    H112630   8.836   4.320   2.274 -0.7048  2.3297 -1.4044
 4236TIP3    H212631   8.925   4.244   2.178 -1.5546 -0.9243  0.3083
 4237TIP3   OH212632   8.407   3.230   0.876 -0.9178  0.2487  0.9108
 4237TIP3    H112633   8.323   3.194   0.847  0.0352 -1.2240 -0.0984
 4237TIP3    H212634   8.435   3.287   0.805 -0.0060 -1.0426  0.1953
 4238TIP3   OH212635   7.412   5.883   3.609  0.0584  0.2567 -0.1186
 4238TIP3    H112636   7.413   5.844   3.697  0.7486 -0.3882 -0.4064
 4238TIP3    H212637   7.451   5.816   3.553  0.5808  1.0796 -0.7425
 4239TIP3   OH212638   6.335   3.620   2.715 -0.0649 -0.6293  0.3959
 4239TIP3    H112639   6.369   3.701   2.752  1.8505 -1.5691  0.7311
 4239TIP3    H212640   6.363   3.622   2.623  0.7551 -1.3293  0.6296
 4240TIP3   OH212641   2.865   3.386   1.965 -1.1724  0.2004 -0.3087
 4240TIP3    H112642   2.856   3.474   2.002 -1.5618 -0.9414  2.4459
 4240TIP3    H212643   2.793   3.336   2.004 -0.1324 -1.6845 -0.7460
 4241TIP3   OH212644   8.157   3.504   0.489  0.3873  0.0977 -0.7022
 4241TIP3    H112645   8.136   3.516   0.396  3.7873  2.8256 -1.2226
 4241TIP3    H212646   8.176   3.410   0.497  1.5981  0.0969 -3.1305
 4242TIP3   OH212647   6.953   4.097   1.435  0.5206 -0.0109 -0.0823
 4242TIP3    H112648   6.989   4.176   1.394  1.3945 -1.2258 -1.6980
 4242TIP3    H212649   6.859   4.101   1.417  0.5625  0.6329 -0.1667
 4243TIP3   OH212650   7.894   2.592   1.689 -0.3338  0.1460  0.4308
 4243TIP3    H112651   7.958   2.647   1.643  0.7130 -0.3994  1.2217
 4243TIP3    H212652   7.884   2.515   1.634 -0.8635  0.5450 -0.0488
 4244TIP3   OH212653   6.947   5.348   2.822 -0.5745  0.5845 -0.2322
 4244TIP3    H112654   6.962   5.330   2.915 -0.6802  1.6230 -0.0058
 4244TIP3    H212655   6.983   5.272   2.777 -1.2564 -0.3038  0.6992
 4245TIP3   OH212656   8.401   4.541   1.435 -0.2336 -0.1017  0.0716
 4245TIP3    H112657   8.359   4.471   1.485 -0.5447 -0.4316 -0.6596
 4245TIP3    H212658   8.358   4.539   1.350 -0.9178  1.6046  0.3618
 4246TIP3   OH212659   7.658   4.958   1.892 -0.1556 -0.4867 -0.0853
 4246TIP3    H112660   7.686   5.000   1.810  1.2477  0.4151  0.8495
 4246TIP3    H212661   7.732   4.904   1.918 -1.3193 -2.2502 -0.3825
 4247TIP3   OH212662   8.613   2.049   2.317  1.0591 -0.0160  0.1601
 4247TIP3    H112663   8.628   1.996   2.239 -0.0943 -0.1393  0.0047
 4247TIP3    H212664   8.581   2.133   2.284  0.3912 -0.1310  0.4997
 4248TIP3   OH212665   6.837   2.192   2.922  0.0025  0.1076  0.0301
 4248TIP3    H112666   6.743   2.187   2.935 -0.2064  3.4330  0.3090
 4248TIP3    H212667   6.863   2.274   2.966  3.1011 -1.0553  0.5079
 4249TIP3   OH212668   0.525   4.769   1.382  0.0035 -0.4744  0.1376
 4249TIP3    H112669   0.515   4.841   1.444  1.6500 -0.4195  0.3650
 4249TIP3    H212670   0.543   4.811   1.298  1.8540 -0.6003  0.4405
 4250TIP3   OH212671   3.118   1.591   6.189  0.0761  0.3115  0.0493
 4250TIP3    H112672   3.063   1.615   6.114 -0.0786 -1.0069 -0.2648
 4250TIP3    H212673   3.116   1.668   6.245 -0.6282  0.9414 -0.8274
 4251TIP3   OH212674   5.809   2.233   2.631  0.0722  0.1903 -0.9884
 4251TIP3    H112675   5.759   2.207   2.553 -1.6706 -0.1975  0.2332
 4251TIP3    H212676   5.854   2.153   2.658 -1.1000 -0.2462 -0.3060
 4252TIP3   OH212677   5.874   4.062   2.114  0.2231  0.1224 -0.0306
 4252TIP3    H112678   5.857   3.975   2.078  1.2148 -0.6682  1.3681
 4252TIP3    H212679   5.940   4.048   2.182 -0.0962  1.8742  0.6815
 4253TIP3   OH212680   7.471   4.127   2.650  0.1445 -0.2433  0.1931
 4253TIP3    H112681   7.489   4.177   2.730  0.7137  0.4799 -0.3827
 4253TIP3    H212682   7.403   4.065   2.676  2.8830 -2.5684  2.2938
 4254TIP3   OH212683   1.368   4.196   2.824 -0.0102 -0.1357 -0.2591
 4254TIP3    H112684   1.351   4.142   2.747  0.2483  0.8511 -1.0171
 4254TIP3    H212685   1.388   4.283   2.789 -1.7026  0.7985  0.9948
 4255TIP3   OH212686   7.289   3.658   2.523 -0.2880  0.1216 -0.5291
 4255TIP3    H112687   7.201   3.662   2.559 -0.7276 -0.1425 -1.5698
 4255TIP3    H212688   7.336   3.729   2.567 -0.3962 -1.1454  1.6765
 4256TIP3   OH212689   8.274   4.392   2.007  0.2005  0.2712 -0.0328
 4256TIP3    H112690   8.307   4.424   2.091  2.4469  0.0254 -0.7725
 4256TIP3    H212691   8.255   4.299   2.023 -1.3219  0.6914  0.7167
 4257TIP3   OH212692   7.953   4.687   0.976  0.0300 -0.3834 -0.5564
 4257TIP3    H112693   8.020   4.735   1.025 -0.3114 -0.5567  0.0889
 4257TIP3    H212694   7.974   4.703   0.884  1.7258 -1.5069 -0.3828
 4258TIP3   OH212695   8.584   4.772   2.107 -0.3007  0.0850 -0.0681
 4258TIP3    H112696   8.556   4.684   2.133 -1.5139 -0.6180 -3.4480
 4258TIP3    H212697   8.520   4.831   2.146 -0.2714 -0.6215  1.0776
 4259TIP3   OH212698   8.156   3.430   3.063  0.0567  0.0249 -0.0672
 4259TIP3    H112699   8.112   3.489   3.124 -1.2639 -0.3504 -0.6321
 4259TIP3    H212700   8.196   3.487   2.998  1.0512  0.4035  0.8731
 4260TIP3   OH212701   7.517   4.364   1.415  0.9460  0.2516  0.0179
 4260TIP3    H112702   7.463   4.341   1.339  1.6511  0.4847 -0.5604
 4260TIP3    H212703   7.563   4.283   1.437  1.7049  0.5074 -0.6019
 4261TIP3   OH212704   1.897   7.505   6.141 -0.2540 -1.0922 -0.2612
 4261TIP3    H112705   1.908   7.542   6.054 -3.3116  0.5212 -0.0396
 4261TIP3    H212706   1.967   7.546   6.193  0.3293 -0.5154 -1.4749
 4262TIP3   OH212707   4.624   1.861   6.657 -0.0173  0.0453  0.1747
 4262TIP3    H112708   4.631   1.836   6.565  1.0062  1.3027 -0.1076
 4262TIP3    H212709   4.551   1.809   6.691 -2.5081  1.8173 -2.1466
 4263TIP3   OH212710   0.382   6.020   1.239  0.2556 -0.4197  0.0002
 4263TIP3    H112711   0.368   5.934   1.200 -1.4547 -0.8546  1.5170
 4263TIP3    H212712   0.396   6.003   1.332 -1.0950  0.9814  0.4826
 4264TIP3   OH212713   6.367   3.110   5.196 -0.0098  0.4704  0.6910
 4264TIP3    H112714   6.439   3.070   5.245 -0.0789  0.0863  0.4793
 4264TIP3    H212715   6.299   3.126   5.261 -0.6994 -1.4297  0.4740
 4265TIP3   OH212716   0.021   4.087   2.090  0.4168 -0.2801 -0.3556
 4265TIP3    H112717   0.104   4.084   2.042 -0.0079 -0.2078 -1.0836
 4265TIP3    H212718  -0.046   4.064   2.026 -0.2850  1.0466 -0.1142
 4266TIP3   OH212719   6.395   4.196   1.997 -0.3669 -0.6847  0.2439
 4266TIP3    H112720   6.368   4.123   1.942  1.0608 -1.4844  0.5935
 4266TIP3    H212721   6.312   4.233   2.030 -1.1282 -1.4995 -0.7437
 4267TIP3   OH212722   8.430   5.471   2.616 -0.5849 -0.1116  0.1516
 4267TIP3    H112723   8.456   5.411   2.686  1.1826  0.7695  0.2528
 4267TIP3    H212724   8.397   5.548   2.661  0.4646  0.4165  0.0241
 4268TIP3   OH212725   5.451   5.183   1.249  0.2371  0.2054  0.2684
 4268TIP3    H112726   5.410   5.131   1.180  1.0613 -0.2119  0.0814
 4268TIP3    H212727   5.443   5.274   1.219  0.7999  0.0099 -0.4885
 4269TIP3   OH212728   6.712   3.301   1.084  0.0447 -0.2765 -0.2722
 4269TIP3    H112729   6.690   3.367   1.017 -1.6959  0.3082  0.8468
 4269TIP3    H212730   6.653   3.228   1.066  0.8088 -0.8492 -0.4677
 4270TIP3   OH212731   1.186   4.440   2.405  0.2646 -0.5702  0.1603
 4270TIP3    H112732   1.096   4.429   2.374 -0.6711  0.6750  2.3387
 4270TIP3    H212733   1.238   4.448   2.324 -1.3269 -2.8472 -1.1416
 4271TIP3   OH212734   6.837   2.116   2.385  0.1291 -0.2868  0.0646
 4271TIP3    H112735   6.922   2.110   2.342  0.0504 -1.9348  0.1344
 4271TIP3    H212736   6.857   2.154   2.471  0.9773 -1.9150  0.6017
 4272TIP3   OH212737   7.651   3.559   1.330  0.6339  0.3689  0.0536
 4272TIP3    H112738   7.646   3.620   1.256  0.5080 -0.5330 -0.6966
 4272TIP3    H212739   7.562   3.526   1.340  0.7788  0.0209  0.2003
 4273TIP3   OH212740   3.005   1.178   7.189  0.3492 -0.0003  0.1310
 4273TIP3    H112741   2.951   1.111   7.231 -1.1481  2.2908  1.9805
 4273TIP3    H212742   2.954   1.206   7.113  1.0969 -1.0975 -0.7968
 4274TIP3   OH212743   5.920   0.237   7.154  0.0264 -0.2560  0.0045
 4274TIP3    H112744   5.976   0.203   7.224 -0.8899  0.2361  1.0034
 4274TIP3    H212745   5.832   0.204   7.175 -0.2596 -0.0983 -0.9090
 4275TIP3   OH212746   6.219   4.486   0.762  0.3202  0.1686  0.2551
 4275TIP3    H112747   6.211   4.576   0.732  1.2739 -0.0006 -0.5509
 4275TIP3    H212748   6.297   4.453   0.718 -1.0920 -1.6479 -1.0103
 4276TIP3   OH212749   7.209   3.235   2.898 -0.4086  0.0109  0.5331
 4276TIP3    H112750   7.175   3.175   2.831  0.1493  0.4942 -0.1918
 4276TIP3    H212751   7.131   3.276   2.936 -0.7462 -0.5116  0.4126
 4277TIP3   OH212752   5.411   6.598   0.155 -0.5202 -0.0198 -0.2107
 4277TIP3    H112753   5.362   6.515   0.151 -1.7417  0.7227 -0.8977
 4277TIP3    H212754   5.379   6.649   0.081  1.3279  0.4883 -0.6733
 4278TIP3   OH212755   6.271   2.363   1.273 -0.1826  0.4568 -0.2063
 4278TIP3    H112756   6.244   2.359   1.364 -1.5345  0.2089 -0.5975
 4278TIP3    H212757   6.365   2.382   1.276  0.3120 -2.0429  1.2573
 4279TIP3   OH212758   5.610   5.258   0.784 -0.9729  0.2111  0.1130
 4279TIP3    H112759   5.553   5.212   0.722  1.0236 -1.1986 -0.7605
 4279TIP3    H212760   5.614   5.348   0.750 -0.1963 -0.4558 -1.6398
 4280TIP3   OH212761   5.331   4.602   0.590  0.3801  0.4461  0.4204
 4280TIP3    H112762   5.399   4.669   0.595 -0.4098  1.2702  0.2532
 4280TIP3    H212763   5.372   4.524   0.627  2.5386 -0.0121 -2.7271
 4281TIP3   OH212764   6.688   5.296   0.641 -0.4582 -0.1626 -0.4916
 4281TIP3    H112765   6.764   5.353   0.653  0.1260 -1.4624  2.3440
 4281TIP3    H212766   6.613   5.350   0.667  0.0948 -0.5795  2.1684
 4282TIP3   OH212767   2.372   3.176   6.950 -0.2953  0.4446 -0.1805
 4282TIP3    H112768   2.298   3.190   7.009  1.3193  2.5992  1.4067
 4282TIP3    H212769   2.446   3.156   7.007  0.3933 -1.7183 -1.7515
 4283TIP3   OH212770   0.027   4.634   2.588  0.4633  0.2206  0.5399
 4283TIP3    H112771   0.016   4.728   2.574 -0.7130 -0.3055 -2.4139
 4283TIP3    H212772   0.069   4.602   2.508 -0.1952 -1.9389  1.0179
 4284TIP3   OH212773   0.269   0.537   1.576 -0.1692  0.1016 -0.2791
 4284TIP3    H112774   0.324   0.460   1.561 -0.8377 -1.0616  2.7986
 4284TIP3    H212775   0.330   0.611   1.568  0.5330 -0.7063 -3.0036
 4285TIP3   OH212776   6.013   4.380   1.544  0.2782 -0.4908 -0.1604
 4285TIP3    H112777   6.063   4.391   1.625 -0.0560  0.5860 -0.0911
 4285TIP3    H212778   6.036   4.292   1.513 -1.3081 -1.8297  2.2847
 4286TIP3   OH212779   4.281   5.594   0.451  0.2371  0.1784 -0.2108
 4286TIP3    H112780   4.198   5.603   0.403  0.5216 -0.4491 -0.8285
 4286TIP3    H212781   4.266   5.521   0.511  0.0296  0.6814  0.3621
 4287TIP3   OH212782   7.193   5.516   1.026  0.1671  0.2634  0.0840
 4287TIP3    H112783   7.262   5.569   0.985 -0.3263  0.8222 -0.0211
 4287TIP3    H212784   7.144   5.479   0.952 -0.4438  0.9057  0.1657
 4288TIP3   OH212785   1.633   7.135   1.963  0.1887 -0.0006  0.2280
 4288TIP3    H112786   1.669   7.049   1.940  0.6277 -0.1376  1.3584
 4288TIP3    H212787   1.584   7.163   1.886  2.3396 -0.0355 -1.1894
 4289TIP3   OH212788   6.619   5.718   1.911  0.3390 -0.0845 -0.8111
 4289TIP3    H112789   6.553   5.686   1.849  1.6202  0.6660 -2.6085
 4289TIP3    H212790   6.602   5.812   1.918 -0.6116 -0.3492  1.0423
 4290TIP3   OH212791   6.492   6.195   0.103 -0.2403 -0.1061  0.4124
 4290TIP3    H112792   6.453   6.180   0.189  0.4228 -0.7093  0.6126
 4290TIP3    H212793   6.494   6.108   0.062 -1.1446  0.2688 -0.4752
 4291TIP3   OH212794   7.586   6.205   1.563 -0.3865 -0.3542 -0.3377
 4291TIP3    H112795   7.556   6.217   1.653  1.6527  0.6014  0.2381
 4291TIP3    H212796   7.506   6.210   1.510 -1.3154  1.5064  1.1960
 4292TIP3   OH212797   7.158   2.805   1.258  0.1953 -0.2786  0.3733
 4292TIP3    H112798   7.245   2.834   1.228  0.0615 -1.2802 -1.0122
 4292TIP3    H212799   7.098   2.839   1.192 -0.4952  0.4639  1.3685
 4293TIP3   OH212800   1.932   7.434   6.949 -0.1151  0.0841  0.0638
 4293TIP3    H112801   1.900   7.501   6.889  0.5128 -0.6972 -1.1641
 4293TIP3    H212802   1.958   7.362   6.892 -1.7024 -1.6040  1.4158
 4294TIP3   OH212803   6.654   3.520   0.824 -0.4550 -0.3781 -0.1539
 4294TIP3    H112804   6.702   3.602   0.816  0.1740 -0.6504  0.6849
 4294TIP3    H212805   6.562   3.546   0.828 -0.2675  0.2711  0.0014
 4295TIP3   OH212806   7.051   4.743   0.049  0.2378  0.4573  0.5129
 4295TIP3    H112807   7.052   4.680  -0.023 -0.4125  1.6834 -0.5796
 4295TIP3    H212808   6.973   4.720   0.100  0.2787  0.0784  0.4075
 4296TIP3   OH212809   0.206   3.506   2.277  0.0580 -0.0546 -0.1022
 4296TIP3    H112810   0.207   3.467   2.364 -0.9320 -1.3611 -0.6498
 4296TIP3    H212811   0.245   3.439   2.220 -0.9263  0.0484 -0.9237
 4297TIP3   OH212812   1.096   3.564   2.740  0.4625  0.4683 -0.0361
 4297TIP3    H112813   1.042   3.631   2.781 -0.1531  0.8700 -1.4642
 4297TIP3    H212814   1.177   3.609   2.716 -0.2671  0.9153 -1.7153
 4298TIP3   OH212815   0.801   4.407   1.399 -0.2050 -0.3084 -0.3137
 4298TIP3    H112816   0.755   4.345   1.456  0.9830 -0.6862  0.2636
 4298TIP3    H212817   0.749   4.409   1.319 -0.5933 -1.5977 -0.1110
 4299TIP3   OH212818   4.884   6.165   3.488 -0.1674 -0.0385 -0.2964
 4299TIP3    H112819   4.955   6.175   3.552  0.8271 -0.1360 -1.3774
 4299TIP3    H212820   4.832   6.245   3.498  0.4280  0.3064  0.0956
 4300TIP3   OH212821   0.725   2.712   1.959 -0.3741 -0.5508  0.0728
 4300TIP3    H112822   0.783   2.691   2.031 -0.7042 -0.7091  0.2957
 4300TIP3    H212823   0.781   2.752   1.893  0.4012 -2.6969 -0.6200
 4301TIP3   OH212824   7.903   3.273   1.356 -0.5165  1.4639 -0.0153
 4301TIP3    H112825   7.945   3.273   1.270 -1.5894  0.4656 -0.5403
 4301TIP3    H212826   7.811   3.259   1.338 -0.4320 -1.1863  1.4507
 4302TIP3   OH212827   3.722   1.427   6.609  0.8528 -0.3983 -0.4156
 4302TIP3    H112828   3.645   1.425   6.552  1.4099  2.8456 -1.3617
 4302TIP3    H212829   3.694   1.477   6.686  2.1308  1.3643 -1.0448
 4303TIP3   OH212830   4.392   1.019   7.027  0.7490  0.2016  0.0712
 4303TIP3    H112831   4.360   1.108   7.015  0.9058  0.4100  1.1915
 4303TIP3    H212832   4.433   1.019   7.113 -1.0696 -1.4883  0.9653
 4304TIP3   OH212833   5.020   2.800   2.618  0.5778  0.0990  0.6527
 4304TIP3    H112834   5.008   2.774   2.527  0.6073  0.6783  0.4865
 4304TIP3    H212835   4.945   2.856   2.637 -0.0554 -0.9507  1.3294
 4305TIP3   OH212836   8.417   2.226   2.528  0.0239 -0.4903 -0.0878
 4305TIP3    H112837   8.344   2.262   2.577 -0.3968 -1.3793 -0.0590
 4305TIP3    H212838   8.490   2.224   2.590  0.3585  1.2841 -0.3771
 4306TIP3   OH212839   6.749   3.669   3.392  0.0303  0.1045  0.1196
 4306TIP3    H112840   6.735   3.610   3.317 -0.5724  0.3941  0.0012
 4306TIP3    H212841   6.789   3.613   3.459  1.7797  0.1423 -0.8719
 4307TIP3   OH212842   6.789   5.920   1.971 -0.1902  0.6018  0.0672
 4307TIP3    H112843   6.835   5.962   2.044 -1.0907  2.9502 -0.6696
 4307TIP3    H212844   6.825   5.961   1.893 -1.5982  0.5067 -0.6422
 4308TIP3   OH212845   5.239   8.119   7.155  0.0834  0.5092 -0.7136
 4308TIP3    H112846   5.282   8.164   7.082  0.6172  0.2547 -0.5518
 4308TIP3    H212847   5.187   8.188   7.197 -2.4766  0.0854 -2.9999
 4309TIP3   OH212848   8.753   5.719   0.734  0.1829 -0.3518  0.1346
 4309TIP3    H112849   8.829   5.748   0.786  1.2014 -0.4513 -1.2817
 4309TIP3    H212850   8.680   5.772   0.768  1.0002  0.1723  1.1087
 4310TIP3   OH212851   0.718   6.046   1.094  0.3623  0.0911  0.2139
 4310TIP3    H112852   0.726   6.140   1.104  0.4271  0.0318  0.7105
 4310TIP3    H212853   0.656   6.034   1.022 -0.7623  0.4980  1.1029
 4311TIP3   OH212854   1.528   4.880   1.208 -0.5959 -0.2459  0.0449
 4311TIP3    H112855   1.499   4.905   1.295 -0.2483  2.1940 -0.5190
 4311TIP3    H212856   1.526   4.961   1.157  0.5583 -1.3574 -1.8420
 4312TIP3   OH212857   8.007   5.213   1.615  0.8090  0.0831  0.2643
 4312TIP3    H112858   8.068   5.142   1.599 -0.7277 -1.2879  0.3174
 4312TIP3    H212859   8.017   5.272   1.540 -0.0953 -1.7908 -1.3556
 4313TIP3   OH212860   5.328   0.914   6.211  0.1269 -0.2905  0.1188
 4313TIP3    H112861   5.357   0.872   6.292  0.1844 -1.3293 -0.4330
 4313TIP3    H212862   5.340   1.008   6.227 -0.8955 -0.4090  1.7173
 4314TIP3   OH212863   3.593   2.770   6.026 -0.4519  0.3948 -0.5513
 4314TIP3    H112864   3.550   2.685   6.042 -1.3243  1.2964  2.3109
 4314TIP3    H212865   3.586   2.784   5.932 -0.1005 -2.8119 -1.1095
 4315TIP3   OH212866   8.296   6.089   1.596  0.2465  0.4562  0.1371
 4315TIP3    H112867   8.359   6.060   1.530  0.4642 -0.9796  0.9621
 4315TIP3    H212868   8.228   6.135   1.546  0.9099  0.2441 -0.9691
 4316TIP3   OH212869   0.366   4.400   1.468 -0.1000  0.2714  0.5439
 4316TIP3    H112870   0.285   4.446   1.446 -0.2007  0.2075  0.7830
 4316TIP3    H212871   0.421   4.466   1.511 -0.0799  0.2759  0.5116
 4317TIP3   OH212872   7.545   5.453   0.784 -0.3942 -0.6307  0.1335
 4317TIP3    H112873   7.506   5.366   0.771 -1.0801 -0.2587 -0.3040
 4317TIP3    H212874   7.626   5.450   0.733 -1.5907 -0.2091 -1.8366
 4318TIP3   OH212875   6.914   6.926   0.640  0.1533  0.3051  0.1216
 4318TIP3    H112876   6.826   6.911   0.675  0.2795  2.0001  1.2222
 4318TIP3    H212877   6.899   6.964   0.553 -0.2128  0.4079  0.2282
 4319TIP3   OH212878   0.964   5.221   1.595  0.4430 -0.1220  0.0756
 4319TIP3    H112879   0.903   5.283   1.554  0.0263  0.1399  1.0879
 4319TIP3    H212880   1.015   5.274   1.656 -1.0758 -1.0600  2.2015
 4320TIP3   OH212881   6.952   4.253   1.896  0.4060  0.0131 -0.0542
 4320TIP3    H112882   6.885   4.237   1.962  0.1174 -0.6848 -0.5090
 4320TIP3    H212883   7.025   4.292   1.944  1.2431 -2.9629  1.1447
 4321TIP3   OH212884   0.026   4.852   2.089 -0.6487  0.1322 -0.2781
 4321TIP3    H112885   0.037   4.826   1.997 -0.1653 -0.2532 -0.1085
 4321TIP3    H212886  -0.058   4.814   2.114 -0.7495  0.1801 -0.5391
 4322TIP3   OH212887   8.472   7.359   1.045 -0.4722 -0.3751  0.0295
 4322TIP3    H112888   8.440   7.287   1.099 -0.0720 -0.1143  0.6129
 4322TIP3    H212889   8.394   7.390   0.999 -1.2939  1.0077  2.3028
 4323TIP3   OH212890   0.811   6.887   2.893  0.0630  0.1389 -0.7037
 4323TIP3    H112891   0.784   6.926   2.810 -0.0503  2.3110  0.3306
 4323TIP3    H212892   0.905   6.872   2.883 -0.1879 -0.8730 -1.7013
 4324TIP3   OH212893   0.029   4.274   1.066 -0.1197  0.8041  0.1830
 4324TIP3    H112894   0.015   4.239   0.978 -1.4044  0.0421  0.6832
 4324TIP3    H212895   0.007   4.367   1.058  0.2026  0.8329 -0.3982
 4325TIP3   OH212896   7.797   5.020   2.368  0.2364  0.1680  0.6149
 4325TIP3    H112897   7.833   5.073   2.297  1.0739 -1.0989  0.0813
 4325TIP3    H212898   7.760   4.943   2.324  0.5638 -0.5188  1.5267
 4326TIP3   OH212899   1.141   4.009   4.588  0.2695  0.5133  0.0749
 4326TIP3    H112900   1.132   3.918   4.616 -0.1855  1.3516  2.8707
 4326TIP3    H212901   1.051   4.040   4.577  0.3260  1.3150  1.6602
 4327TIP3   OH212902   0.323   6.858   3.918 -0.3989  0.2552  0.4832
 4327TIP3    H112903   0.327   6.931   3.856 -0.9600 -1.8442 -2.1381
 4327TIP3    H212904   0.406   6.812   3.905  0.3368  0.8986  2.7581
 4328TIP3   OH212905   0.463   5.761   4.652  0.1477 -0.0823  0.2730
 4328TIP3    H112906   0.479   5.711   4.732  0.6096 -0.0912  0.1717
 4328TIP3    H212907   0.368   5.752   4.638  0.3135 -1.4571 -0.0942
 4329TIP3   OH212908   1.074   4.924   2.854 -0.3120  0.0047 -0.4857
 4329TIP3    H112909   0.989   4.947   2.890 -0.1983 -0.9746  0.4459
 4329TIP3    H212910   1.094   4.839   2.893  0.9394  0.0691 -0.9617
 4330TIP3   OH212911   7.042   5.483   4.903  0.4373  0.2423  0.4446
 4330TIP3    H112912   7.095   5.502   4.980  0.4756  1.3024  0.1684
 4330TIP3    H212913   7.047   5.563   4.850 -0.0682 -0.2583 -0.3771
 4331TIP3   OH212914   1.920   3.288   2.538 -0.4863  0.3674  0.4543
 4331TIP3    H112915   1.916   3.215   2.599 -0.4816 -0.0469 -0.0432
 4331TIP3    H212916   1.873   3.359   2.583 -1.3386 -0.2386  0.5258
 4332TIP3   OH212917   1.366   5.388   2.530 -0.1154 -0.7235 -0.2909
 4332TIP3    H112918   1.274   5.384   2.555  0.6047 -1.8558  2.3819
 4332TIP3    H212919   1.386   5.300   2.496  0.0053 -0.4989 -0.8123
 4333TIP3   OH212920   1.643   5.630   4.929  0.7459  0.0413  0.4199
 4333TIP3    H112921   1.667   5.537   4.936 -0.7772 -0.3847  0.1237
 4333TIP3    H212922   1.593   5.636   4.848  0.2671  1.0001  0.7821
 4334TIP3   OH212923   2.869   5.940   4.993 -0.2288 -0.2914  0.0831
 4334TIP3    H112924   2.857   5.889   4.913  0.2855  1.0389 -0.8581
 4334TIP3    H212925   2.826   5.887   5.062  0.1896 -1.9181 -0.8738
 4335TIP3   OH212926   7.007   5.246   3.698  0.3522  0.3020  0.6378
 4335TIP3    H112927   7.002   5.179   3.631  1.5523  1.0082 -0.1767
 4335TIP3    H212928   6.969   5.324   3.657  1.4084  0.8319  0.6374
 4336TIP3   OH212929   8.665   3.665   3.598 -0.3681  0.0120  0.4462
 4336TIP3    H112930   8.719   3.619   3.534  0.5988 -0.1037  1.3381
 4336TIP3    H212931   8.607   3.597   3.634  1.4794 -0.6618  2.2104
 4337TIP3   OH212932   7.635   4.914   2.155  0.4177  0.9273 -0.1323
 4337TIP3    H112933   7.608   4.824   2.137 -0.4059  1.1401  0.0254
 4337TIP3    H212934   7.640   4.956   2.070  1.4200  0.5660 -0.2603
 4338TIP3   OH212935   8.515   4.447   5.413 -0.6553 -0.2453 -0.6422
 4338TIP3    H112936   8.609   4.441   5.396 -0.6545 -0.6650 -0.4949
 4338TIP3    H212937   8.505   4.522   5.471 -0.1979 -1.3742  0.9187
 4339TIP3   OH212938   6.872   4.942   0.881  0.8043  0.4249  0.0893
 4339TIP3    H112939   6.808   5.012   0.879  1.6852  1.2395 -0.2095
 4339TIP3    H212940   6.858   4.898   0.965 -0.4349  0.2965 -0.1729
 4340TIP3   OH212941   1.790   5.663   2.448  0.2093 -0.3231  0.2035
 4340TIP3    H112942   1.876   5.623   2.437  0.0814 -1.0939  1.9309
 4340TIP3    H212943   1.794   5.706   2.533 -1.7663 -2.0905  1.2394
 4341TIP3   OH212944   8.707   5.375   3.862  0.2771 -0.9135 -0.3991
 4341TIP3    H112945   8.708   5.366   3.767 -0.1050  0.9043 -0.6006
 4341TIP3    H212946   8.726   5.468   3.877 -0.2374 -1.0655  1.2747
 4342TIP3   OH212947   1.357   2.882   3.844 -0.1140  0.2182 -0.2261
 4342TIP3    H112948   1.448   2.863   3.822 -0.3304 -2.3884  0.9530
 4342TIP3    H212949   1.359   2.906   3.937 -0.9292 -2.8732  0.6751
 4343TIP3   OH212950   0.714   4.395   3.289 -0.1381 -0.3042 -0.0473
 4343TIP3    H112951   0.688   4.311   3.325  0.3662  0.2695  1.7145
 4343TIP3    H212952   0.807   4.385   3.268 -0.5126 -0.7482 -1.5679
 4344TIP3   OH212953   7.530   5.128   2.879 -0.1092 -0.2331 -0.3748
 4344TIP3    H112954   7.522   5.205   2.823  0.6029  1.8742  2.2993
 4344TIP3    H212955   7.535   5.054   2.818  0.6935  1.9515 -3.0721
 4345TIP3   OH212956   8.698   5.067   2.904 -0.0352 -0.9742 -0.6331
 4345TIP3    H112957   8.788   5.098   2.893 -0.2031 -0.3718 -0.3000
 4345TIP3    H212958   8.647   5.146   2.920 -0.4460 -1.4309  0.3299
 4346TIP3   OH212959   8.636   5.213   3.609  0.3028  0.4574  0.2861
 4346TIP3    H112960   8.591   5.274   3.551  1.5601  0.7423 -0.4053
 4346TIP3    H212961   8.595   5.128   3.592 -0.8589  0.9512  0.6289
 4347TIP3   OH212962   7.996   6.164   3.670  0.1643 -0.2011  0.1240
 4347TIP3    H112963   7.990   6.182   3.764 -0.7096  0.3167 -0.0339
 4347TIP3    H212964   7.973   6.071   3.663  0.2528 -0.2485  0.4254
 4348TIP3   OH212965   2.215   6.490   1.783  0.0431  0.1641 -0.3166
 4348TIP3    H112966   2.208   6.419   1.719 -1.0438  0.1748 -0.2314
 4348TIP3    H212967   2.293   6.539   1.756  0.5481 -0.8042 -0.6324
 4349TIP3   OH212968   0.958   6.564   3.398 -0.2641 -0.5956  0.3308
 4349TIP3    H112969   1.003   6.640   3.434 -1.9665 -0.0114  1.2604
 4349TIP3    H212970   0.987   6.562   3.306 -0.7042  1.5725  0.1024
 4350TIP3   OH212971   0.591   5.637   0.562 -0.4346 -0.1111 -0.1639
 4350TIP3    H112972   0.598   5.732   0.559 -0.4604 -0.0778  0.7415
 4350TIP3    H212973   0.626   5.607   0.478 -2.9805  0.8441 -1.6019
 4351TIP3   OH212974   7.951   6.256   3.944 -0.1251 -0.0661  0.1487
 4351TIP3    H112975   7.998   6.329   3.904 -0.4694 -0.2868 -0.6666
 4351TIP3    H212976   7.896   6.297   4.011  0.3418  0.3204  0.2963
 4352TIP3   OH212977   8.525   4.208   4.569  0.3475  0.4017  0.4457
 4352TIP3    H112978   8.470   4.206   4.490 -0.7408  0.4653  1.1987
 4352TIP3    H212979   8.474   4.259   4.632  1.5695  1.0284  0.9365
 4353TIP3   OH212980   8.721   4.622   1.911  0.1662  0.3564  0.1404
 4353TIP3    H112981   8.635   4.595   1.880 -0.1371 -0.9045  1.9863
 4353TIP3    H212982   8.703   4.687   1.979  0.6279 -0.5439  1.1341
 4354TIP3   OH212983   0.184   5.381   4.235  0.3063 -0.0492 -0.4523
 4354TIP3    H112984   0.148   5.461   4.273  0.1398 -0.1945 -0.2963
 4354TIP3    H212985   0.274   5.403   4.211  0.1178  0.3128 -0.8258
 4355TIP3   OH212986   8.759   4.822   4.143 -0.4229 -0.0587  0.7089
 4355TIP3    H112987   8.844   4.797   4.105 -0.6643 -0.0063  0.1147
 4355TIP3    H212988   8.707   4.742   4.140 -0.6426  0.0952  0.3701
 4356TIP3   OH212989   8.902   4.066   3.890  0.1116 -0.8641  0.2032
 4356TIP3    H112990   8.846   4.075   3.968 -1.2103 -2.0778 -0.5935
 4356TIP3    H212991   8.880   3.980   3.854  1.4203 -0.7208 -0.9732
 4357TIP3   OH212992   1.677   5.352   2.353 -0.7114  0.2334 -0.4931
 4357TIP3    H112993   1.633   5.269   2.332 -0.0243 -0.1974 -0.2567
 4357TIP3    H212994   1.717   5.336   2.439 -0.6376  0.8375 -0.4146
 4358TIP3   OH212995   8.782   4.455   5.979  0.1860 -0.2717 -0.5341
 4358TIP3    H112996   8.770   4.392   6.051  0.4046 -1.0512 -1.1737
 4358TIP3    H212997   8.694   4.468   5.943  0.3527 -1.3909 -1.3786
 4359TIP3   OH212998   0.870   5.739   1.603  0.2497 -0.2112 -0.0894
 4359TIP3    H112999   0.952   5.787   1.614  1.4017 -1.5342 -2.4683
 4359TIP3    H213000   0.850   5.705   1.691  3.6893 -2.0778  0.0577
 4360TIP3   OH213001   7.953   6.444   0.955  0.0588  0.5416  0.4889
 4360TIP3    H113002   7.984   6.379   1.018 -0.3603 -0.2662 -0.1311
 4360TIP3    H213003   7.906   6.393   0.889 -0.2677  1.4750 -0.0067
 4361TIP3   OH213004   1.784   3.644   3.532 -0.0939 -0.4372  0.2557
 4361TIP3    H113005   1.697   3.603   3.532 -1.1917  1.7666 -1.3253
 4361TIP3    H213006   1.835   3.590   3.472 -0.7241 -1.0703  0.2755
 4362TIP3   OH213007   8.759   3.471   0.968 -0.5922  0.9106 -0.9527
 4362TIP3    H113008   8.664   3.465   0.977 -0.4565 -0.5919 -0.4966
 4362TIP3    H213009   8.794   3.407   1.030  0.6871  0.4008 -2.1676
 4363TIP3   OH213010   6.551   4.337   2.660 -0.3508  0.1769 -0.1735
 4363TIP3    H113011   6.495   4.275   2.708 -0.1742 -0.9593 -1.3893
 4363TIP3    H213012   6.640   4.311   2.684 -0.3187  1.4088  1.0610
 4364TIP3   OH213013   7.056   6.126   5.814  0.4299 -0.0582  0.1817
 4364TIP3    H113014   7.131   6.086   5.859  0.1904 -0.9274 -0.1908
 4364TIP3    H213015   6.980   6.096   5.863  0.2575  0.0970  0.0110
 4365TIP3   OH213016   2.415   4.621   2.995 -0.8337 -0.0851  0.1468
 4365TIP3    H113017   2.410   4.625   3.091 -1.6294 -3.9639  0.3671
 4365TIP3    H213018   2.336   4.667   2.966 -0.3876  1.4755  1.3215
 4366TIP3   OH213019   8.675   3.534   2.402 -0.2254 -0.0504  0.1299
 4366TIP3    H113020   8.593   3.502   2.440 -1.2427  1.1769 -0.9716
 4366TIP3    H213021   8.649   3.572   2.318  1.4004  0.8121 -0.0030
 4367TIP3   OH213022   6.014   5.815   2.977 -0.0039  0.0419 -0.3026
 4367TIP3    H113023   5.919   5.826   2.969 -0.1431  0.9067  2.0654
 4367TIP3    H213024   6.041   5.780   2.892 -2.4854 -0.5616 -0.9032
 4368TIP3   OH213025   1.799   5.312   1.693  0.2350  0.1652  0.0802
 4368TIP3    H113026   1.775   5.266   1.773  0.8874  0.7399  0.6166
 4368TIP3    H213027   1.767   5.402   1.707 -0.8014 -0.0523 -0.8441
 4369TIP3   OH213028   1.297   7.351   2.579 -0.7869  0.1259 -0.0921
 4369TIP3    H113029   1.236   7.278   2.568 -3.2716  2.3694 -1.6795
 4369TIP3    H213030   1.310   7.356   2.674 -0.7646 -2.1992  0.0591
 4370TIP3   OH213031   8.785   4.000   3.453 -0.0998 -0.3635  0.0555
 4370TIP3    H113032   8.849   4.047   3.400 -2.2671  3.0279  0.3297
 4370TIP3    H213033   8.837   3.949   3.515  2.3489 -0.5046 -2.0281
 4371TIP3   OH213034   0.057   3.497   2.891 -0.7012 -0.2702  0.4939
 4371TIP3    H113035  -0.028   3.530   2.919 -0.4584  0.2343  0.6371
 4371TIP3    H213036   0.092   3.453   2.968 -0.6765 -0.1693  0.5401
 4372TIP3   OH213037   0.673   4.311   2.038  0.7255 -0.5180 -0.2162
 4372TIP3    H113038   0.625   4.339   2.116 -1.7150  1.1741 -2.2181
 4372TIP3    H213039   0.673   4.215   2.044  0.3656 -0.4300  1.7176
 4373TIP3   OH213040   7.730   5.929   3.725 -0.2306 -0.4938  0.2738
 4373TIP3    H113041   7.765   5.926   3.636  0.3799 -0.4754  0.5148
 4373TIP3    H213042   7.714   5.838   3.748 -0.6747 -0.4812  0.0383
 4374TIP3   OH213043   8.693   2.052   2.602  0.4820  0.2466  0.4373
 4374TIP3    H113044   8.767   1.990   2.601  0.9460  0.7991 -1.2223
 4374TIP3    H213045   8.653   2.042   2.516  1.0903  2.8648 -0.1819
 4375TIP3   OH213046   0.788   5.102   3.487 -0.3900  0.4289 -0.0644
 4375TIP3    H113047   0.694   5.095   3.504 -0.1467 -0.1123  1.0915
 4375TIP3    H213048   0.817   5.176   3.541 -0.2542  0.9875 -0.8864
 4376TIP3   OH213049   2.244   5.466   3.392  0.0532  0.3451 -0.2473
 4376TIP3    H113050   2.338   5.464   3.405  0.1381 -1.3296 -1.0402
 4376TIP3    H213051   2.228   5.411   3.316 -1.3842  2.1841 -1.3324
 4377TIP3   OH213052   8.590   5.477   2.002  0.3585  0.1250 -0.4933
 4377TIP3    H113053   8.551   5.398   2.040  2.6236 -0.5139  0.6295
 4377TIP3    H213054   8.642   5.514   2.073  3.5645 -0.2964 -2.5291
 4378TIP3   OH213055   8.462   5.248   2.128 -0.7092 -0.5909  0.0157
 4378TIP3    H113056   8.439   5.252   2.221 -1.1568 -0.2693 -0.1052
 4378TIP3    H213057   8.393   5.193   2.090 -0.3935 -0.9141 -0.0871
 4379TIP3   OH213058   2.209   4.181   2.497 -0.3480  0.3218 -0.0385
 4379TIP3    H113059   2.278   4.247   2.491  0.1983 -0.1092  1.3275
 4379TIP3    H213060   2.128   4.228   2.479  0.3171  0.7545 -2.1158
 4380TIP3   OH213061   2.417   5.541   3.177  0.7384  0.1853 -0.8691
 4380TIP3    H113062   2.435   5.475   3.110  0.7212 -0.3958 -0.2936
 4380TIP3    H213063   2.322   5.544   3.183  0.7323  0.4047 -1.0253
 4381TIP3   OH213064   1.530   7.202   4.222  0.3007  0.5239  0.2836
 4381TIP3    H113065   1.557   7.209   4.130  1.0674 -2.2075  0.2734
 4381TIP3    H213066   1.435   7.217   4.221  0.1983 -0.1922 -1.0480
 4382TIP3   OH213067   1.214   6.240   6.102  0.4935  0.1963  0.1250
 4382TIP3    H113068   1.220   6.188   6.182  0.2027 -0.5388 -0.3293
 4382TIP3    H213069   1.149   6.307   6.121  0.8138  0.3493  0.6853
 4383TIP3   OH213070   0.176   5.181   2.126 -0.0180  0.0219 -0.2395
 4383TIP3    H113071   0.248   5.191   2.187  0.2825  2.3636 -0.9622
 4383TIP3    H213072   0.098   5.171   2.181  0.6207 -0.9372  0.5114
 4384TIP3   OH213073   0.344   2.947   4.188  0.4762  0.0940  0.2972
 4384TIP3    H113074   0.431   2.913   4.210  0.5352 -0.9732 -1.5126
 4384TIP3    H213075   0.358   3.001   4.110 -0.3682  0.4755  0.4025
 4385TIP3   OH213076   0.205   3.659   2.536  0.1051 -0.7494  0.7794
 4385TIP3    H113077   0.224   3.731   2.596  0.0083  0.0971 -0.1974
 4385TIP3    H213078   0.113   3.670   2.514  0.7312  0.4391 -1.4579
 4386TIP3   OH213079   6.339   5.917   2.442 -0.2416  0.0918  0.5157
 4386TIP3    H113080   6.390   5.873   2.374 -2.2572 -1.1197 -0.2517
 4386TIP3    H213081   6.339   6.010   2.416  0.1752 -0.1564 -0.3883
 4387TIP3   OH213082   7.809   3.345   4.642  0.3505 -0.4338  0.1470
 4387TIP3    H113083   7.823   3.364   4.734 -2.4731  0.3194  0.4601
 4387TIP3    H213084   7.778   3.427   4.604 -1.3624 -1.4732 -0.8079
 4388TIP3   OH213085   8.543   4.037   3.780 -0.1051 -0.2305 -0.1299
 4388TIP3    H113086   8.470   3.995   3.826 -1.5472  1.0510 -1.2206
 4388TIP3    H213087   8.570   3.973   3.714 -0.0712 -0.8109  0.4460
 4389TIP3   OH213088   8.492   2.722   3.597  0.0819 -0.2642 -0.4033
 4389TIP3    H113089   8.529   2.663   3.530  0.8255 -1.8537  1.3582
 4389TIP3    H213090   8.566   2.777   3.623 -0.0091 -0.1704 -0.3459
 4390TIP3   OH213091   2.378   4.391   3.388  0.8660  0.4590 -0.1081
 4390TIP3    H113092   2.350   4.301   3.409  0.0518  0.8211  0.3715
 4390TIP3    H213093   2.297   4.440   3.380  1.2589  0.8506 -1.8622
 4391TIP3   OH213094   8.760   3.952   4.367  0.1868 -0.5394  0.2143
 4391TIP3    H113095   8.747   3.978   4.276 -0.1016 -0.3475  0.3102
 4391TIP3    H213096   8.674   3.921   4.395 -0.1861  1.1240  0.9762
 4392TIP3   OH213097   2.435   6.302   1.659  0.3179 -0.1270 -0.4912
 4392TIP3    H113098   2.410   6.227   1.605 -1.8682 -0.3071  0.7007
 4392TIP3    H213099   2.510   6.271   1.709  0.1638 -1.1379 -0.8702
 4393TIP3   OH213100   7.636   3.556   1.894 -0.0681  0.1055  0.2767
 4393TIP3    H113101   7.573   3.567   1.965  1.6319 -0.0472  1.8534
 4393TIP3    H213102   7.676   3.642   1.883  1.3705 -0.4395  1.1556
 4394TIP3   OH213103   1.077   5.561   4.138 -0.2270  0.4975 -1.0047
 4394TIP3    H113104   1.033   5.512   4.069  1.2364  0.2381 -1.7941
 4394TIP3    H213105   1.019   5.555   4.214 -0.7670 -1.1809 -1.5312
 4395TIP3   OH213106   8.314   3.456   0.044  0.2384  0.0113  0.2280
 4395TIP3    H113107   8.406   3.437   0.063  0.4909 -0.5089 -1.4449
 4395TIP3    H213108   8.278   3.373   0.013 -0.1856  0.7759 -1.3876
 4396TIP3   OH213109   1.446   6.508   2.576  0.2636 -0.3462 -0.1891
 4396TIP3    H113110   1.395   6.471   2.504  1.0607  0.8525 -1.3924
 4396TIP3    H213111   1.470   6.432   2.630 -0.5930 -1.2178 -1.0252
 4397TIP3   OH213112   1.352   4.000   2.610  0.8161  0.1355  0.3968
 4397TIP3    H113113   1.429   4.032   2.562  0.9657  1.5123  1.5258
 4397TIP3    H213114   1.384   3.924   2.659  1.8435  1.5816  2.0130
 4398TIP3   OH213115   8.541   4.511   2.169 -0.6792 -0.3535 -0.7047
 4398TIP3    H113116   8.539   4.440   2.105  0.7051 -0.6717 -0.4111
 4398TIP3    H213117   8.561   4.468   2.252 -0.4907  0.3049 -0.4076
 4399TIP3   OH213118   0.002   5.299   1.110  0.6993 -0.7267  0.6471
 4399TIP3    H113119  -0.028   5.213   1.079  1.8057 -0.4677 -1.1618
 4399TIP3    H213120   0.090   5.283   1.144  0.9574 -0.2665  0.1846
 4400TIP3   OH213121   1.983   5.507   0.555 -0.0326  0.0023  0.3012
 4400TIP3    H113122   2.066   5.507   0.602 -0.2299 -1.5084  0.6838
 4400TIP3    H213123   1.923   5.555   0.613  0.4222  0.5581  0.3088
 4401TIP3   OH213124   0.133   4.632   4.701 -0.0244  0.2650 -0.0859
 4401TIP3    H113125   0.158   4.666   4.787  0.9069 -0.7064  0.0393
 4401TIP3    H213126   0.061   4.572   4.719  0.3937 -0.1945  0.0561
 4402TIP3   OH213127   7.772   6.447   3.131  0.0085  0.1875  0.3672
 4402TIP3    H113128   7.697   6.435   3.072  0.7477  0.9078 -0.7395
 4402TIP3    H213129   7.830   6.374   3.112 -0.5133 -0.4939  1.3849
 4403TIP3   OH213130   5.439   5.492   3.329 -0.1555 -0.0913  0.1300
 4403TIP3    H113131   5.360   5.528   3.287  0.2667  2.1803  1.1879
 4403TIP3    H213132   5.468   5.422   3.271 -3.3503 -1.4628  0.0708
 4404TIP3   OH213133   8.041   6.192   5.093  0.4917  0.3061 -0.4405
 4404TIP3    H113134   8.084   6.108   5.110 -1.0782 -0.8296 -1.8595
 4404TIP3    H213135   8.061   6.245   5.171  1.3847 -1.4266  0.5514
 4405TIP3   OH213136   0.772   6.411   7.118 -0.2632 -0.2885  0.0078
 4405TIP3    H113137   0.820   6.363   7.185  0.3361  0.0795 -0.1560
 4405TIP3    H213138   0.833   6.479   7.089 -0.0032 -1.3135 -1.9052
 4406TIP3   OH213139   6.337   4.516   3.498 -0.2054  0.7114  0.4495
 4406TIP3    H113140   6.419   4.512   3.448 -0.4647  1.5499 -0.0494
 4406TIP3    H213141   6.364   4.528   3.589  0.2675 -0.6435  0.5033
 4407TIP3   OH213142   8.577   5.758   4.428  0.3930  0.0277  0.1709
 4407TIP3    H113143   8.564   5.691   4.362 -1.0005 -0.4276  0.8837
 4407TIP3    H213144   8.506   5.820   4.414 -1.5686 -1.4822  2.9033
 4408TIP3   OH213145   8.679   5.370   6.470 -0.3763 -0.0626 -0.0332
 4408TIP3    H113146   8.691   5.280   6.499  0.1552  0.1936  0.5557
 4408TIP3    H213147   8.767   5.404   6.458 -0.5605  0.5828  0.4000
 4409TIP3   OH213148   8.354   4.700   4.050  0.4545 -0.4986  0.4723
 4409TIP3    H113149   8.325   4.738   3.966  0.3584  0.3298  0.8753
 4409TIP3    H213150   8.321   4.610   4.048 -0.7674 -0.0564  0.2222
 4410TIP3   OH213151   8.090   4.383   3.570  0.3927 -0.5703 -0.2558
 4410TIP3    H113152   8.111   4.419   3.484  1.3539 -1.7315 -0.5187
 4410TIP3    H213153   8.171   4.341   3.600 -0.1312 -0.7834  0.9106
 4411TIP3   OH213154   0.089   5.463   3.939 -0.2512 -0.1861  0.6527
 4411TIP3    H113155   0.041   5.433   4.016  0.3092  2.3803  2.0409
 4411TIP3    H213156   0.122   5.549   3.963  1.9779 -0.3547 -1.6118
 4412TIP3   OH213157   0.879   7.024   3.115  0.1439  0.3714  0.6999
 4412TIP3    H113158   0.827   6.974   3.052 -0.4121  0.6749  0.9166
 4412TIP3    H213159   0.853   6.989   3.200  0.2921  0.5282  0.8096
 4413TIP3   OH213160   0.227   7.154   2.076 -0.2575  0.4894 -0.3387
 4413TIP3    H113161   0.295   7.211   2.040 -0.4856  1.1787  0.3182
 4413TIP3    H213162   0.169   7.137   2.001  0.7326 -0.2601 -0.9518
 4414TIP3   OH213163   3.461   1.134   4.512 -0.3556  0.2533 -0.9544
 4414TIP3    H113164   3.384   1.088   4.476  0.3520 -0.4815 -1.5487
 4414TIP3    H213165   3.440   1.146   4.605 -2.7497  3.2645 -1.7709
 4415TIP3   OH213166   0.671   4.568   3.500 -0.7356 -0.2591 -0.6589
 4415TIP3    H113167   0.713   4.516   3.432  0.5090  0.6525 -0.5870
 4415TIP3    H213168   0.737   4.632   3.527 -1.5468  0.0310  0.7065
 4416TIP3   OH213169   1.093   5.121   2.445  0.5084  0.5797 -0.3293
 4416TIP3    H113170   1.017   5.105   2.501 -1.1067  2.1985 -2.0017
 4416TIP3    H213171   1.168   5.119   2.505 -0.8564 -0.8386  1.3704
 4417TIP3   OH213172   8.686   4.619   3.841 -0.1167  0.0723 -0.0337
 4417TIP3    H113173   8.721   4.660   3.762  1.9261  1.5112  1.5838
 4417TIP3    H213174   8.759   4.568   3.876 -0.8632 -0.1882  1.1719
 4418TIP3   OH213175   1.131   5.293   3.470  0.2010  0.2382 -0.4417
 4418TIP3    H113176   1.050   5.307   3.520  0.8070 -0.8512  0.8819
 4418TIP3    H213177   1.193   5.354   3.508  0.5074 -0.2027 -0.2271
 4419TIP3   OH213178   1.893   5.865   2.999  0.4594 -0.4930  0.0575
 4419TIP3    H113179   1.855   5.782   2.970 -0.2494 -0.9426  2.1945
 4419TIP3    H213180   1.987   5.849   3.000  0.4026 -0.9015 -0.6483
 4420TIP3   OH213181   0.736   4.033   2.136 -0.4365  0.7047  0.6448
 4420TIP3    H113182   0.769   3.966   2.196  0.1486  1.1379  0.7973
 4420TIP3    H213183   0.650   4.000   2.110  2.0121 -2.9269 -3.5850
 4421TIP3   OH213184   8.611   4.610   4.095 -0.1656  0.4603  0.6104
 4421TIP3    H113185   8.529   4.658   4.093 -0.9882 -0.8751  1.5703
 4421TIP3    H213186   8.641   4.608   4.004 -1.9962 -0.3996  0.0170
 4422TIP3   OH213187   1.262   4.170   3.514  0.2635  0.0089  0.3085
 4422TIP3    H113188   1.291   4.105   3.450 -1.4038 -1.6099  1.1503
 4422TIP3    H213189   1.308   4.146   3.595 -1.3125 -0.9272  0.9471
 4423TIP3   OH213190   3.137   5.104   3.400  0.2909 -0.0871 -0.3107
 4423TIP3    H113191   3.192   5.174   3.435  1.0480 -0.8688  0.0633
 4423TIP3    H213192   3.199   5.043   3.359 -0.4914  0.3682 -2.2656
 4424TIP3   OH213193   2.661   5.317   3.650 -0.8209  0.0651 -0.2224
 4424TIP3    H113194   2.730   5.251   3.661 -0.5727  0.5104  0.9337
 4424TIP3    H213195   2.584   5.267   3.623 -0.5739 -0.6752  0.4271
 4425TIP3   OH213196   0.304   4.013   2.264  0.3102  0.1659  0.4158
 4425TIP3    H113197   0.243   4.050   2.328  0.7441  1.6059  0.0150
 4425TIP3    H213198   0.390   4.024   2.305  0.5350  0.5641 -0.1564
 4426TIP3   OH213199   8.875   5.428   2.616 -0.5443 -0.7010 -0.2015
 4426TIP3    H113200   8.828   5.466   2.690  0.9024 -0.4477  0.6135
 4426TIP3    H213201   8.958   5.396   2.654 -0.0564 -1.1320 -1.5929
 4427TIP3   OH213202   0.286   4.798   2.189  0.0533 -0.3783 -0.4876
 4427TIP3    H113203   0.303   4.706   2.168 -0.6476 -0.5853 -0.1491
 4427TIP3    H213204   0.198   4.815   2.156  0.0237  0.0619 -0.1922
 4428TIP3   OH213205   0.387   4.668   3.813  0.0573 -0.6758 -0.0333
 4428TIP3    H113206   0.341   4.620   3.744  0.7382 -1.1533 -0.1701
 4428TIP3    H213207   0.319   4.712   3.863 -0.3949  0.1714 -1.3939
 4429TIP3   OH213208   0.707   4.618   0.983 -0.1864 -0.3265  0.2226
 4429TIP3    H113209   0.666   4.700   1.009 -0.2059 -1.0558  2.6136
 4429TIP3    H213210   0.801   4.638   0.981 -0.3449  0.3186 -1.4061
 4430TIP3   OH213211   8.769   4.884   2.489 -0.5211  0.4432  0.1201
 4430TIP3    H113212   8.728   4.809   2.447 -0.0254 -1.3077  2.7024
 4430TIP3    H213213   8.859   4.883   2.456 -0.7550  0.4788 -0.5422
 4431TIP3   OH213214   1.363   4.071   2.330 -0.6017 -0.0783 -0.0454
 4431TIP3    H113215   1.298   4.118   2.278  0.4503  1.1776 -0.2715
 4431TIP3    H213216   1.324   4.062   2.416 -1.8074 -0.9596 -0.6635
 4432TIP3   OH213217   0.243   4.328   2.703  0.3360  0.2291  0.1731
 4432TIP3    H113218   0.204   4.407   2.741 -0.6322 -0.0121 -0.3223
 4432TIP3    H213219   0.302   4.361   2.635  1.4940  0.6227  1.3448
 4433TIP3   OH213220   1.716   7.395   3.032 -0.1385  0.1827 -0.7781
 4433TIP3    H113221   1.642   7.404   2.972 -1.2268  0.0771  0.5271
 4433TIP3    H213222   1.724   7.301   3.047 -0.3228  0.2569 -0.2017
 4434TIP3   OH213223   0.506   5.712   6.397  0.0584 -0.0018 -0.2113
 4434TIP3    H113224   0.441   5.642   6.393  0.3715 -0.3494  0.6936
 4434TIP3    H213225   0.468   5.783   6.345 -1.0192 -0.2173  0.2835
 4435TIP3   OH213226   8.509   4.404   3.118  0.5133 -0.4049  0.2353
 4435TIP3    H113227   8.435   4.406   3.058  0.6927 -4.9107 -0.3082
 4435TIP3    H213228   8.586   4.403   3.062  0.9423  1.4437  0.7455
 4436TIP3   OH213229   0.947   5.433   3.938  0.0799 -0.1981 -0.4094
 4436TIP3    H113230   1.025   5.382   3.920 -0.5422 -0.6967 -1.7830
 4436TIP3    H213231   0.949   5.504   3.873  0.2363  0.7198  0.5958
 4437TIP3   OH213232   0.452   3.445   5.374  0.4446  0.2625 -0.1330
 4437TIP3    H113233   0.380   3.434   5.312  0.5645  1.4576 -0.4905
 4437TIP3    H213234   0.420   3.407   5.455 -1.3884  2.6443  0.2963
 4438TIP3   OH213235   1.922   2.862   2.599  0.4947  0.7087  0.2669
 4438TIP3    H113236   1.859   2.908   2.544 -1.4014  0.2528  1.9848
 4438TIP3    H213237   2.001   2.856   2.546 -1.1174  0.7112 -2.2116
 4439TIP3   OH213238   1.243   2.780   3.051  0.4265 -0.0664  0.0527
 4439TIP3    H113239   1.293   2.810   2.975  0.6650  0.4572  0.4102
 4439TIP3    H213240   1.289   2.818   3.126  1.4907 -2.3441  0.6038
 4440TIP3   OH213241   8.150   4.833   4.258  0.4434 -0.1301 -0.1686
 4440TIP3    H113242   8.190   4.789   4.183  0.3725  1.1566 -0.9711
 4440TIP3    H213243   8.167   4.775   4.332 -0.4413 -1.9468 -1.3666
 4441TIP3   OH213244   0.079   4.870   3.596  0.5480  0.1746  0.5468
 4441TIP3    H113245   0.077   4.891   3.690 -1.1393  1.4427  0.2571
 4441TIP3    H213246   0.135   4.938   3.558 -0.5544  0.9995  0.3555
 4442TIP3   OH213247   7.711   3.364   3.283 -0.3963 -0.4526 -0.3086
 4442TIP3    H113248   7.719   3.405   3.197 -0.5577 -0.3856 -0.2924
 4442TIP3    H213249   7.648   3.419   3.330 -1.0813 -1.0706 -0.4921
 4443TIP3   OH213250   8.488   5.738   2.667  0.7868  0.3305  0.2276
 4443TIP3    H113251   8.444   5.725   2.751  1.5708 -1.2098  0.4130
 4443TIP3    H213252   8.582   5.736   2.688  0.9736  1.9269 -0.3992
 4444TIP3   OH213253   8.472   7.080   2.742 -0.2339 -0.2225 -0.2304
 4444TIP3    H113254   8.436   7.165   2.770 -0.2248 -0.3090  0.0501
 4444TIP3    H213255   8.532   7.056   2.813 -0.5608 -0.6682 -0.1068
 4445TIP3   OH213256   7.154   2.356   2.920  0.2417  0.2170 -0.0800
 4445TIP3    H113257   7.141   2.261   2.923 -0.1638  0.1733 -2.0933
 4445TIP3    H213258   7.128   2.387   3.006 -0.5123 -1.3950  0.2940
 4446TIP3   OH213259   0.118   3.973   4.422  0.1923  0.2998 -0.2517
 4446TIP3    H113260   0.137   3.883   4.398 -1.1708 -0.5510  1.7943
 4446TIP3    H213261   0.027   3.987   4.395 -0.3678  0.2970  1.6108
 4447TIP3   OH213262   2.319   5.388   1.491  0.8387  0.9079 -0.7999
 4447TIP3    H113263   2.225   5.371   1.477  0.8473  1.3869 -1.4478
 4447TIP3    H213264   2.321   5.451   1.563  0.6846  0.5966 -0.5162
 4448TIP3   OH213265   1.149   6.308   2.588 -0.2186  0.0098 -0.3819
 4448TIP3    H113266   1.235   6.305   2.546  0.2849  1.8435  0.4604
 4448TIP3    H213267   1.086   6.313   2.516  0.4816  0.4157 -0.9684
 4449TIP3   OH213268   1.306   7.048   3.980 -0.7909 -0.4394 -0.6841
 4449TIP3    H113269   1.324   7.112   4.049 -0.1857 -0.6366 -0.6548
 4449TIP3    H213270   1.313   6.963   4.024 -2.2755 -0.5181 -0.5617
 4450TIP3   OH213271   2.632   6.420   3.156 -0.7117 -0.4759  0.3604
 4450TIP3    H113272   2.641   6.370   3.237 -3.8170 -0.1743  0.9751
 4450TIP3    H213273   2.667   6.362   3.088  0.2196 -1.4943  1.6845
 4451TIP3   OH213274   2.015   6.262   3.494  0.5754  0.6030  0.2218
 4451TIP3    H113275   2.005   6.212   3.575  0.2436 -0.1534 -0.2800
 4451TIP3    H213276   1.933   6.312   3.487 -0.1535 -0.6503 -0.5271
 4452TIP3   OH213277   1.841   4.076   1.383 -0.7815 -0.2024 -0.1589
 4452TIP3    H113278   1.850   4.022   1.305 -0.2533  1.8318 -1.5696
 4452TIP3    H213279   1.761   4.126   1.368 -0.4290  0.5383  0.3692
 4453TIP3   OH213280   2.877   5.000   3.894  0.1629  0.0877  0.0908
 4453TIP3    H113281   2.825   5.044   3.961 -0.6679 -1.3810  0.4315
 4453TIP3    H213282   2.927   4.934   3.943  0.6529 -0.0126 -0.5440
 4454TIP3   OH213283   3.165   5.172   2.668  0.8907  0.3146 -0.2057
 4454TIP3    H113284   3.074   5.150   2.649  0.2572  0.9838  1.9658
 4454TIP3    H213285   3.208   5.172   2.582 -0.5277 -2.7044 -0.9641
 4455TIP3   OH213286   0.563   7.596   4.806  0.2123  0.0019  0.2235
 4455TIP3    H113287   0.570   7.587   4.711 -0.8162 -0.4848  0.1930
 4455TIP3    H213288   0.568   7.691   4.821  0.5868  0.0661 -0.2949
 4456TIP3   OH213289   0.833   5.890   3.853 -0.4488 -0.1107 -0.0037
 4456TIP3    H113290   0.919   5.858   3.880  0.3669  0.8108 -1.4542
 4456TIP3    H213291   0.809   5.953   3.920 -0.0557 -0.4855  0.4924
 4457TIP3   OH213292   1.412   6.243   3.238 -0.0993  0.0576 -0.2541
 4457TIP3    H113293   1.341   6.286   3.286 -0.1879  2.1608 -2.1385
 4457TIP3    H213294   1.367   6.193   3.169  0.1985  0.9006 -1.0725
 4458TIP3   OH213295   3.543   6.702   2.608 -0.3911  0.3503  0.1627
 4458TIP3    H113296   3.634   6.670   2.608 -0.3993  0.2509  3.0637
 4458TIP3    H213297   3.490   6.622   2.613 -0.5403  0.5403  1.8234
 4459TIP3   OH213298   2.665   6.724   4.069 -0.7332 -0.3895  0.4256
 4459TIP3    H113299   2.674   6.753   3.979 -0.7742 -1.2154  0.1511
 4459TIP3    H213300   2.692   6.632   4.068 -2.1497 -0.8394  0.9627
 4460TIP3   OH213301   4.083   5.414   3.605 -0.2025  0.0640  0.0174
 4460TIP3    H113302   4.009   5.355   3.596 -0.2557  0.2857 -1.0652
 4460TIP3    H213303   4.062   5.467   3.682 -2.0912  1.4195 -1.3812
 4461TIP3   OH213304   1.411   6.401   1.815  0.3948  0.0636  0.1155
 4461TIP3    H113305   1.461   6.320   1.829  0.6581  0.4738  1.5463
 4461TIP3    H213306   1.420   6.417   1.721  0.7102 -1.3302 -0.1126
 4462TIP3   OH213307   0.982   4.399   3.212 -0.0434  0.2833 -0.1108
 4462TIP3    H113308   1.068   4.364   3.192 -0.3645 -0.1664 -0.7202
 4462TIP3    H213309   0.999   4.480   3.261  0.7672  1.9157 -3.0033
 4463TIP3   OH213310   3.216   3.502   3.053  0.2221  0.6015 -0.4133
 4463TIP3    H113311   3.156   3.482   2.981 -1.8287  1.7688  0.8908
 4463TIP3    H213312   3.234   3.596   3.044  0.7248  0.5487  0.0252
 4464TIP3   OH213313   8.667   4.151   3.107 -0.4296  0.3102 -0.3830
 4464TIP3    H113314   8.655   4.231   3.158  0.1756  0.7909 -0.9923
 4464TIP3    H213315   8.751   4.115   3.138  0.3047  0.9881 -1.5391
 4465TIP3   OH213316   0.960   6.546   2.619 -0.6997 -0.5805 -0.0916
 4465TIP3    H113317   0.974   6.611   2.551 -1.9619  0.0191  0.2154
 4465TIP3    H213318   1.027   6.479   2.602  0.0852  0.3848 -0.8899
 4466TIP3   OH213319   2.731   6.219   3.342 -0.0111  0.6947  0.5193
 4466TIP3    H113320   2.747   6.128   3.319 -1.1076  0.7374 -0.4916
 4466TIP3    H213321   2.791   6.237   3.414  0.3247 -0.7735  0.6208
 4467TIP3   OH213322   1.584   5.177   5.114  0.1059 -0.0604  0.2448
 4467TIP3    H113323   1.525   5.105   5.090  0.0026  0.0698  0.1044
 4467TIP3    H213324   1.559   5.248   5.055  0.3813  0.0050  0.2081
 4468TIP3   OH213325   1.801   4.808   2.774 -0.6317 -0.1045  0.2881
 4468TIP3    H113326   1.803   4.757   2.855  1.9464  0.6784  0.7782
 4468TIP3    H213327   1.860   4.762   2.716 -1.9282 -0.2635 -0.9219
 4469TIP3   OH213328   8.389   4.131   4.989 -0.4938  0.2437 -0.3583
 4469TIP3    H113329   8.431   4.107   5.072  1.3013 -0.2059 -1.3902
 4469TIP3    H213330   8.439   4.085   4.922 -1.8242  0.7537 -1.7308
 4470TIP3   OH213331   2.097   6.158   3.265 -0.4195 -0.2464  0.0440
 4470TIP3    H113332   2.171   6.216   3.247 -1.2913  1.0677  0.6540
 4470TIP3    H213333   2.049   6.201   3.335 -1.6444 -1.2093 -0.1889
 4471TIP3   OH213334   2.541   5.727   3.383  0.7443  0.2137 -0.3168
 4471TIP3    H113335   2.519   5.712   3.291 -0.0506 -1.1092  0.0840
 4471TIP3    H213336   2.514   5.647   3.427  2.8505  0.0914  0.7846
 4472TIP3   OH213337   2.975   3.487   2.241 -0.1349 -0.3592 -0.4312
 4472TIP3    H113338   2.947   3.395   2.249  1.1424 -0.7074  0.2017
 4472TIP3    H213339   2.944   3.528   2.321  1.0017 -0.7076  0.1969
 4473TIP3   OH213340   1.987   3.892   2.803 -0.3759  0.1955 -0.3390
 4473TIP3    H113341   2.062   3.870   2.858 -1.3654 -0.7117  0.6870
 4473TIP3    H213342   2.016   3.967   2.750  0.3514  1.5723  1.9540
 4474TIP3   OH213343   2.980   7.187   4.709  0.1221 -0.3225 -0.4398
 4474TIP3    H113344   3.069   7.207   4.739  0.0780 -0.5786 -0.1419
 4474TIP3    H213345   2.925   7.204   4.785 -0.0276 -0.6434 -0.4793
 4475TIP3   OH213346   0.926   6.411   2.011 -0.2578  0.3914 -0.2710
 4475TIP3    H113347   0.884   6.497   2.009  1.4678  1.2488 -0.8517
 4475TIP3    H213348   1.019   6.430   2.028 -0.2322 -1.5080  2.0209
 4476TIP3   OH213349   1.949   5.472   2.905 -0.2396 -0.0630 -0.0086
 4476TIP3    H113350   1.878   5.408   2.906  0.3834 -0.7523  0.1565
 4476TIP3    H213351   1.962   5.491   2.812  0.6251 -1.3446 -0.1523
 4477TIP3   OH213352   0.432   5.965   0.649  0.2248  0.0217  0.5328
 4477TIP3    H113353   0.447   5.968   0.555 -0.2447 -0.3739  0.4485
 4477TIP3    H213354   0.387   6.047   0.669 -2.0241 -1.0586  0.0108
 4478TIP3   OH213355   2.589   5.169   7.113  0.5118  0.4652  0.3126
 4478TIP3    H113356   2.516   5.118   7.076  0.4590  1.1520 -0.5518
 4478TIP3    H213357   2.620   5.222   7.039  0.7026  1.5283  1.1536
 4479TIP3   OH213358   5.269   4.958   2.005  0.4321 -0.1014  0.0452
 4479TIP3    H113359   5.211   5.012   2.059 -0.8074  0.8161 -2.1624
 4479TIP3    H213360   5.355   4.998   2.016 -0.0063  0.7496  0.4579
 4480TIP3   OH213361   2.172   5.163   2.283  0.1726  0.4215 -0.6418
 4480TIP3    H113362   2.114   5.223   2.331  0.2749  1.2550 -1.5470
 4480TIP3    H213363   2.152   5.180   2.191  2.3576  1.2089 -0.9831
 4481TIP3   OH213364   4.629   4.697   3.413  0.0695  0.0279  0.0480
 4481TIP3    H113365   4.629   4.608   3.448 -1.5092 -0.3779 -0.9384
 4481TIP3    H213366   4.722   4.719   3.406  0.6650 -2.9953 -3.1956
 4482TIP3   OH213367   2.052   3.332   1.267 -0.1698  0.0516  0.2682
 4482TIP3    H113368   2.008   3.298   1.345 -1.9352 -0.1252 -0.7601
 4482TIP3    H213369   2.050   3.260   1.205 -1.8714  1.2586 -1.1216
 4483TIP3   OH213370   1.904   6.055   3.725  0.3919  0.0136 -0.0181
 4483TIP3    H113371   1.811   6.075   3.736  0.5495  1.4886 -1.2495
 4483TIP3    H213372   1.905   5.975   3.673 -0.1930 -0.3016  0.4514
 4484TIP3   OH213373   2.263   3.949   3.768  0.7536  0.6792  0.0653
 4484TIP3    H113374   2.223   3.867   3.796  2.7657 -0.6373 -0.8310
 4484TIP3    H213375   2.255   4.007   3.844 -0.4927 -0.4061  0.7732
 4485TIP3   OH213376   5.312   5.076   5.604 -0.1478 -1.2754  0.3550
 4485TIP3    H113377   5.260   4.997   5.588 -0.2014 -1.4641  1.4168
 4485TIP3    H213378   5.305   5.090   5.698 -1.6765  1.0626 -0.0716
 4486TIP3   OH213379   2.979   6.371   3.392 -0.7191  0.4036  0.1242
 4486TIP3    H113380   2.960   6.463   3.374  0.2214  0.9579  1.8255
 4486TIP3    H213381   2.956   6.359   3.484 -0.0794 -0.8621  0.1379
 4487TIP3   OH213382   0.252   4.473   3.630  0.0704  0.2526 -0.3619
 4487TIP3    H113383   0.245   4.388   3.674 -0.6057  1.0437  1.1029
 4487TIP3    H213384   0.278   4.452   3.540  1.0073 -1.4240  0.2881
 4488TIP3   OH213385   2.724   5.844   1.670  0.6003 -0.1893  0.4153
 4488TIP3    H113386   2.676   5.763   1.656  0.1223 -0.0430  1.1756
 4488TIP3    H213387   2.807   5.817   1.711  1.2746 -0.4582 -1.0877
 4489TIP3   OH213388   3.221   4.962   3.049 -0.3514 -0.2284 -0.3924
 4489TIP3    H113389   3.186   5.051   3.047 -0.6705 -0.3526 -0.3519
 4489TIP3    H213390   3.235   4.939   2.957  1.1358  0.4160 -0.3410
 4490TIP3   OH213391   0.667   6.574   4.527 -0.2045 -0.7660 -0.1165
 4490TIP3    H113392   0.639   6.647   4.582  1.4412 -0.8760  0.9027
 4490TIP3    H213393   0.607   6.576   4.452 -0.3667  1.4381  0.0474
 4491TIP3   OH213394   1.428   5.352   2.117  0.2916  0.0215 -0.1423
 4491TIP3    H113395   1.470   5.427   2.159 -1.5802  0.1969  1.4848
 4491TIP3    H213396   1.420   5.287   2.187 -1.2245 -0.3702 -0.6635
 4492TIP3   OH213397   1.584   5.189   1.532  0.1839 -0.0098 -0.1512
 4492TIP3    H113398   1.623   5.243   1.463  0.3580  0.1746  0.0908
 4492TIP3    H213399   1.615   5.228   1.613  0.9630 -0.9440  0.0225
 4493TIP3   OH213400   3.749   4.597   1.514 -0.1424  0.0736  0.2443
 4493TIP3    H113401   3.809   4.646   1.571 -1.6073  2.5529 -0.2483
 4493TIP3    H213402   3.766   4.633   1.427 -2.0277  0.4741  0.0367
 4494TIP3   OH213403   1.776   4.102   2.746  0.8884  0.8723 -0.1296
 4494TIP3    H113404   1.718   4.175   2.767  1.2949  1.2116 -0.1932
 4494TIP3    H213405   1.846   4.107   2.811  1.1468  0.8046 -0.3979
 4495TIP3   OH213406   2.150   5.553   3.076  0.0337  0.4376  0.0730
 4495TIP3    H113407   2.081   5.517   3.021  1.1140  1.1571 -1.8130
 4495TIP3    H213408   2.124   5.644   3.090 -0.2346  0.2578  0.7586
 4496TIP3   OH213409   3.015   5.816   2.760  0.1958  0.3124 -0.4461
 4496TIP3    H113410   3.011   5.792   2.668 -0.2036  0.2522 -0.4143
 4496TIP3    H213411   3.065   5.745   2.801  1.4662  0.9664 -0.8200
 4497TIP3   OH213412   3.392   6.218   3.776 -0.0517  0.1166 -0.3919
 4497TIP3    H113413   3.354   6.156   3.839 -0.8297  1.0596  0.0733
 4497TIP3    H213414   3.317   6.266   3.741  0.7088  2.1771  0.7232
 4498TIP3   OH213415   0.565   5.484   0.800 -0.3788  0.0909 -0.0077
 4498TIP3    H113416   0.559   5.524   0.712  0.6842 -1.3488 -0.7512
 4498TIP3    H213417   0.633   5.534   0.844 -1.7586  1.6188  0.4562
 4499TIP3   OH213418   1.345   6.765   3.644 -0.0310  0.0461  0.4058
 4499TIP3    H113419   1.432   6.793   3.616 -0.0733  0.4403  0.6540
 4499TIP3    H213420   1.360   6.715   3.724 -0.1767  1.7387  1.5366
 4500TIP3   OH213421   1.473   6.642   2.240  0.4124  0.2388  0.4895
 4500TIP3    H113422   1.509   6.626   2.153  1.2354  1.6400  0.5524
 4500TIP3    H213423   1.543   6.615   2.300 -0.4730 -1.5185  0.7519
 4501TIP3   OH213424   2.440   6.743   1.991  0.0900 -0.7713  0.3302
 4501TIP3    H113425   2.361   6.785   1.958  0.1850 -0.2922  0.7177
 4501TIP3    H213426   2.468   6.686   1.919  1.0898  1.3377 -1.0060
 4502TIP3   OH213427   1.948   6.557   3.758 -0.5092 -0.2730 -0.9360
 4502TIP3    H113428   1.969   6.468   3.784 -2.4890 -0.4412  0.2450
 4502TIP3    H213429   2.029   6.606   3.772  0.3445 -1.6975 -0.7641
 4503TIP3   OH213430   1.968   4.766   1.747  0.2427 -0.1342  0.1874
 4503TIP3    H113431   1.893   4.709   1.764  0.0019 -0.1659 -0.9512
 4503TIP3    H213432   1.970   4.826   1.821 -0.1111 -0.9763  0.8893
 4504TIP3   OH213433   0.217   5.077   3.422  0.1739 -0.6770 -0.3708
 4504TIP3    H113434   0.293   5.032   3.385  0.2223 -0.2428 -0.8088
 4504TIP3    H213435   0.249   5.165   3.443  0.3107 -1.1153  1.3016
 4505TIP3   OH213436   4.123   5.993   3.255  0.3698  0.1492 -0.1385
 4505TIP3    H113437   4.210   6.007   3.293  1.0873 -0.2139 -1.6261
 4505TIP3    H213438   4.063   6.040   3.313  1.7475  1.9053 -0.1154
 4506TIP3   OH213439   1.879   5.535   3.901  0.3885 -0.1047 -0.1142
 4506TIP3    H113440   1.867   5.441   3.915 -1.2263  0.2070  0.6858
 4506TIP3    H213441   1.811   5.559   3.838 -0.1576  0.8075  0.8158
 4507TIP3   OH213442   0.730   4.964   1.297 -0.1464  0.4344 -0.3400
 4507TIP3    H113443   0.690   4.935   1.215 -1.0626 -0.3671  0.3800
 4507TIP3    H213444   0.693   5.052   1.311 -0.5219  0.2942 -0.4384
 4508TIP3   OH213445   2.225   3.779   4.020  0.5363  0.0428  0.0338
 4508TIP3    H113446   2.188   3.702   4.061 -0.0144 -0.0372 -0.6022
 4508TIP3    H213447   2.293   3.745   3.962 -0.5334 -0.0719 -1.1675
 4509TIP3   OH213448   1.706   7.468   1.554 -0.0481 -0.1438  0.1550
 4509TIP3    H113449   1.611   7.463   1.568 -0.0002 -1.3523  0.0984
 4509TIP3    H213450   1.739   7.384   1.585  0.9489  0.0739 -0.3071
 4510TIP3   OH213451   1.575   5.688   1.983  0.0248  0.1358  0.0795
 4510TIP3    H113452   1.646   5.623   1.988 -0.7595 -0.7288  0.1897
 4510TIP3    H213453   1.522   5.671   2.061 -0.5228  0.5083 -0.2101
 4511TIP3   OH213454   3.162   3.243   1.465  0.2572 -0.1620  0.1596
 4511TIP3    H113455   3.170   3.338   1.479 -1.8102  0.1779 -0.7734
 4511TIP3    H213456   3.085   3.234   1.409  0.9552 -2.3513 -0.4701
 4512TIP3   OH213457   1.138   5.767   3.494  0.7231  0.2056 -0.0918
 4512TIP3    H113458   1.150   5.859   3.469 -0.1060  0.0277 -1.1826
 4512TIP3    H213459   1.222   5.726   3.473  0.3015  0.2198 -1.9225
 4513TIP3   OH213460   2.337   5.773   2.497 -0.5562 -0.7000 -0.1450
 4513TIP3    H113461   2.395   5.697   2.501 -1.3114 -1.3038 -0.6060
 4513TIP3    H213462   2.266   5.746   2.439  0.4758  1.2480 -2.4028
 4514TIP3   OH213463   1.681   6.635   3.792  0.0365  0.4763 -0.0415
 4514TIP3    H113464   1.673   6.693   3.716  1.4112  0.1740 -0.4104
 4514TIP3    H213465   1.774   6.616   3.799 -0.3435 -1.3162  0.3793
 4515TIP3   OH213466   2.521   3.276   2.319  0.0759 -0.2813  0.4869
 4515TIP3    H113467   2.447   3.334   2.302 -0.4086 -1.0465 -0.1281
 4515TIP3    H213468   2.567   3.315   2.392 -0.1298  0.9713 -0.0433
 4516TIP3   OH213469   8.559   5.195   3.151 -0.1509 -0.3742  0.0505
 4516TIP3    H113470   8.553   5.100   3.157  1.7237 -0.4551  0.7528
 4516TIP3    H213471   8.627   5.220   3.213  1.6760  1.1268 -2.4353
 4517TIP3   OH213472   1.364   4.117   3.100 -0.0821 -0.0885  0.1326
 4517TIP3    H113473   1.366   4.171   3.021 -4.0362 -0.2557 -0.2004
 4517TIP3    H213474   1.333   4.175   3.169 -1.5355 -1.1542  0.4107
 4518TIP3   OH213475   0.339   6.235   4.741 -0.3057 -0.5287 -0.0706
 4518TIP3    H113476   0.362   6.218   4.650 -0.2872 -1.8675  0.1757
 4518TIP3    H213477   0.397   6.306   4.768 -0.7430  0.2908 -1.2850
 4519TIP3   OH213478   4.112   5.042   3.796 -0.3245 -0.3650  0.1654
 4519TIP3    H113479   4.056   5.032   3.873  0.0289  0.7129  0.5690
 4519TIP3    H213480   4.139   4.952   3.774 -1.8510 -0.8521  0.2235
 4520TIP3   OH213481   0.930   6.369   3.707  0.9393  0.2524  0.2470
 4520TIP3    H113482   0.942   6.460   3.679  0.9687 -0.1045 -0.9228
 4520TIP3    H213483   0.848   6.342   3.665  0.0447  0.2540  1.9430
 4521TIP3   OH213484   1.185   7.074   0.658 -0.0307  0.1715  0.5181
 4521TIP3    H113485   1.277   7.100   0.659 -0.2608  0.9895  0.5366
 4521TIP3    H213486   1.142   7.136   0.717 -0.7061  0.2032 -0.0067
 4522TIP3   OH213487   1.596   3.088   3.884  0.7729  0.1879 -0.4469
 4522TIP3    H113488   1.634   3.012   3.928  0.6870  0.2822 -0.2086
 4522TIP3    H213489   1.540   3.128   3.950  2.3639  1.6054  0.1060
 4523TIP3   OH213490   2.743   3.572   4.296  0.5374 -0.5163  0.6802
 4523TIP3    H113491   2.780   3.483   4.289  0.0344 -0.6320 -0.5820
 4523TIP3    H213492   2.740   3.589   4.390  1.4076 -1.5195  0.9006
 4524TIP3   OH213493   1.408   7.163   2.934  0.2993 -0.7338  0.0545
 4524TIP3    H113494   1.475   7.125   2.992 -1.2384 -0.7334  1.8547
 4524TIP3    H213495   1.326   7.152   2.981 -0.4946  2.8394 -0.3978
 4525TIP3   OH213496   0.753   4.031   3.083 -0.1516 -0.0237  0.1111
 4525TIP3    H113497   0.797   3.968   3.140  0.2112  0.2280  0.1096
 4525TIP3    H213498   0.661   4.003   3.082  0.4809 -2.2715 -2.1326
 4526TIP3   OH213499   1.454   5.568   1.743  0.0999  0.2867 -0.3059
 4526TIP3    H113500   1.509   5.617   1.804 -0.1692 -0.9281  0.9287
 4526TIP3    H213501   1.428   5.490   1.791 -1.3257  0.0205 -1.4645
 4527TIP3   OH213502   1.465   5.708   3.612  0.2861 -0.2970  0.2055
 4527TIP3    H113503   1.500   5.787   3.571 -0.9109  0.6238  0.9237
 4527TIP3    H213504   1.444   5.735   3.701  0.6903 -1.6643  0.7204
 4528TIP3   OH213505   1.944   4.756   3.633  0.4382  0.3268  0.1737
 4528TIP3    H113506   1.909   4.673   3.599  2.9616 -0.6466 -0.1610
 4528TIP3    H213507   1.953   4.812   3.557 -1.6999  1.0975  0.4636
 4529TIP3   OH213508   0.605   6.471   1.946  0.2178 -0.3060 -0.7212
 4529TIP3    H113509   0.642   6.507   1.865  0.0530 -0.3077 -0.7973
 4529TIP3    H213510   0.560   6.391   1.918 -0.1650 -0.1037 -0.6840
 4530TIP3   OH213511   0.948   6.140   2.121 -0.2987  0.0973 -0.6307
 4530TIP3    H113512   0.940   6.229   2.087  0.2433 -0.1172 -1.3523
 4530TIP3    H213513   0.869   6.096   2.090  0.2698 -0.1421 -1.8018
 4531TIP3   OH213514   4.040   6.857   7.210 -1.1102 -0.3622  0.4819
 4531TIP3    H113515   4.017   6.776   7.165 -1.1013  0.6049 -1.3024
 4531TIP3    H213516   3.975   6.921   7.180  0.2129  0.8571  0.1399
 4532TIP3   OH213517   3.057   4.803   4.337 -0.2656 -0.4336 -0.1875
 4532TIP3    H113518   3.104   4.754   4.404  0.9544  1.3258  0.3032
 4532TIP3    H213519   3.018   4.737   4.281 -0.2345 -1.9367  1.5208
 4533TIP3   OH213520   0.418   3.477   4.154 -0.1224 -0.0005  0.0703
 4533TIP3    H113521   0.452   3.563   4.129 -0.6965  0.0946 -0.3870
 4533TIP3    H213522   0.330   3.495   4.188 -0.7787 -0.5670 -1.3071
 4534TIP3   OH213523   0.070   5.258   3.737  0.2955 -0.1228 -0.5172
 4534TIP3    H113524   0.079   5.305   3.820  1.5409  1.7911 -1.7127
 4534TIP3    H213525  -0.005   5.200   3.751 -1.3507  2.2719  0.9615
 4535TIP3   OH213526   1.905   7.357   3.927 -0.0783 -0.3697 -0.0708
 4535TIP3    H113527   1.866   7.270   3.940  0.7494 -0.7297  0.0658
 4535TIP3    H213528   1.908   7.395   4.015 -3.0998  0.9832 -0.4880
 4536TIP3   OH213529   0.981   5.127   4.070  0.5386 -0.0258  0.4799
 4536TIP3    H113530   0.963   5.180   3.992 -0.9808  0.3338  1.0698
 4536TIP3    H213531   1.064   5.162   4.104  0.0149  1.3570  0.3453
 4537TIP3   OH213532   2.367   5.224   5.129 -0.5937 -0.0633 -0.0454
 4537TIP3    H113533   2.460   5.212   5.149 -0.4240  0.5226 -0.4414
 4537TIP3    H213534   2.356   5.187   5.042 -1.1805 -1.9707  0.8104
 4538TIP3   OH213535   0.926   5.699   5.149 -0.5500  0.5339  0.5760
 4538TIP3    H113536   0.871   5.730   5.222 -1.1349 -2.0101  1.2544
 4538TIP3    H213537   1.015   5.726   5.173 -0.5463 -1.4137  2.9144
 4539TIP3   OH213538   2.074   6.175   2.721  0.3253 -0.3062 -0.3982
 4539TIP3    H113539   2.091   6.178   2.815 -0.3263  0.1645 -0.2973
 4539TIP3    H213540   2.025   6.255   2.702 -0.9709 -1.1935 -0.8580
 4540TIP3   OH213541   4.058   4.631   3.865 -0.1949 -0.1976 -0.0725
 4540TIP3    H113542   4.001   4.592   3.799 -0.1179 -1.1920  0.4370
 4540TIP3    H213543   3.998   4.659   3.935 -0.2362  0.4742 -0.3733
 4541TIP3   OH213544   1.000   7.828   2.245 -0.5698 -0.2350 -0.2779
 4541TIP3    H113545   0.923   7.795   2.199  0.0130 -0.3310 -1.2121
 4541TIP3    H213546   1.037   7.894   2.186  0.3297 -0.5321 -0.0550
 4542TIP3   OH213547   3.957   5.667   4.457  0.5049  0.0714  0.1480
 4542TIP3    H113548   4.043   5.703   4.435  1.5681 -1.4501  1.6805
 4542TIP3    H213549   3.974   5.574   4.475 -1.2380  0.0254  1.7068
 4543TIP3   OH213550   1.609   6.718   2.973  0.1975 -0.0611  0.0277
 4543TIP3    H113551   1.535   6.658   2.962 -0.0870  0.7387 -2.7077
 4543TIP3    H213552   1.666   6.674   3.037 -0.4862 -2.7967 -1.1553
 4544TIP3   OH213553   0.866   5.328   2.771  0.2019 -0.4467  0.3633
 4544TIP3    H113554   0.889   5.354   2.860  0.6932 -0.2511  0.1857
 4544TIP3    H213555   0.773   5.346   2.764  0.4184  0.7496  0.4379
 4545TIP3   OH213556   3.644   5.275   2.869  0.5991  0.3623 -0.4371
 4545TIP3    H113557   3.571   5.324   2.831  0.8081  0.6510 -0.4742
 4545TIP3    H213558   3.697   5.342   2.912  0.6302  0.1023 -0.0655
 4546TIP3   OH213559   3.716   5.977   3.657  0.2942  0.1000 -0.2634
 4546TIP3    H113560   3.779   5.924   3.706 -0.6336  0.2888  1.1470
 4546TIP3    H213561   3.672   6.030   3.723 -1.6535 -0.3257 -1.1848
 4547TIP3   OH213562   6.999   5.708   0.815 -0.4234 -0.1987 -0.1344
 4547TIP3    H113563   7.002   5.799   0.844 -1.0315 -0.5963  1.2178
 4547TIP3    H213564   6.925   5.704   0.755  0.9993  0.6908 -1.9997
 4548TIP3   OH213565   2.174   5.771   2.899  0.2071  0.2823 -0.0380
 4548TIP3    H113566   2.230   5.840   2.863  0.6099 -0.7000 -1.3351
 4548TIP3    H213567   2.232   5.696   2.908 -0.1396  0.2194  1.7434
 4549TIP3   OH213568   1.753   5.054   2.444 -0.0969  0.0299 -0.0031
 4549TIP3    H113569   1.691   5.023   2.510 -0.8462  0.7726 -0.3544
 4549TIP3    H213570   1.832   5.075   2.493 -1.5200  3.1262  1.0710
 4550TIP3   OH213571   3.159   4.413   1.792 -0.8602 -0.8988 -0.2212
 4550TIP3    H113572   3.194   4.489   1.838 -1.7226 -0.0461 -0.9511
 4550TIP3    H213573   3.152   4.441   1.701 -2.7847 -1.2645 -0.2014
 4551TIP3   OH213574   0.943   6.990   0.802 -0.1967  0.1329 -0.1940
 4551TIP3    H113575   0.996   7.069   0.805 -0.3197  0.1639  1.7869
 4551TIP3    H213576   0.875   7.009   0.737  0.4136  1.2158 -0.5315
 4552TIP3   OH213577   0.550   3.315   5.097  0.0740 -0.1396  0.2664
 4552TIP3    H113578   0.497   3.338   5.021  0.2319  0.3022  0.2871
 4552TIP3    H213579   0.488   3.277   5.159 -0.5903  2.2585  1.1079
 4553TIP3   OH213580   2.215   4.972   2.763 -0.3069 -0.1500 -0.4413
 4553TIP3    H113581   2.199   4.992   2.671 -1.9944 -0.9147 -0.3329
 4553TIP3    H213582   2.214   5.057   2.807  1.6147  0.3301 -1.2587
 4554TIP3   OH213583   0.642   7.227   2.290 -0.5810 -0.1115 -0.5310
 4554TIP3    H113584   0.733   7.208   2.267 -0.3142  2.9976 -2.3008
 4554TIP3    H213585   0.593   7.149   2.261  1.4915 -1.9621  0.7487
 4555TIP3   OH213586   2.967   4.816   2.421 -0.0435 -0.1791  0.6497
 4555TIP3    H113587   3.043   4.763   2.445  0.3013 -0.1489 -0.3548
 4555TIP3    H213588   2.941   4.859   2.503  0.6999 -0.5962  1.1104
 4556TIP3   OH213589   0.170   5.677   2.850 -0.3854  0.1882 -0.6255
 4556TIP3    H113590   0.146   5.762   2.888 -0.0793  0.4451 -1.0085
 4556TIP3    H213591   0.175   5.694   2.756  0.9987  0.0600 -0.5748
 4557TIP3   OH213592   1.159   5.779   1.683  1.0557 -0.1023  0.2844
 4557TIP3    H113593   1.152   5.866   1.643  0.1404  0.3425  1.4025
 4557TIP3    H213594   1.188   5.722   1.611 -3.7083  0.0521 -1.9223
 4558TIP3   OH213595   1.874   5.763   2.695 -0.5986 -0.0236 -0.9612
 4558TIP3    H113596   1.941   5.697   2.674 -1.4168 -1.0502 -0.3974
 4558TIP3    H213597   1.922   5.831   2.741  0.1848 -0.4394 -1.1468
 4559TIP3   OH213598   0.570   4.617   2.799 -0.4974 -0.2089  0.5491
 4559TIP3    H113599   0.636   4.684   2.782  0.0307 -0.6976  0.6588
 4559TIP3    H213600   0.580   4.596   2.892 -0.0029 -1.1325  0.2955
 4560TIP3   OH213601   1.984   6.925   3.312 -0.4545 -0.1880 -0.1991
 4560TIP3    H113602   2.030   6.884   3.239 -0.0324  0.7014 -0.4319
 4560TIP3    H213603   1.930   6.993   3.272 -0.1964  0.3296  0.3192
 4561TIP3   OH213604   2.134   5.885   3.240 -0.2944 -0.2479  0.1371
 4561TIP3    H113605   2.222   5.864   3.210 -0.3960 -0.7366  0.1859
 4561TIP3    H213606   2.134   5.981   3.250  0.0278 -0.1792 -0.5093
 4562TIP3   OH213607   2.878   5.610   3.074 -0.0371  0.5974 -0.2054
 4562TIP3    H113608   2.802   5.589   3.019 -0.3697  0.0691  0.4461
 4562TIP3    H213609   2.952   5.570   3.028 -0.6110 -1.7023  0.8102
 4563TIP3   OH213610   0.756   6.015   5.434  0.4554  0.3877 -0.3287
 4563TIP3    H113611   0.809   6.093   5.417  1.4411  0.1547  1.5658
 4563TIP3    H213612   0.667   6.048   5.439  0.7605  1.2572 -0.4421
 4564TIP3   OH213613   2.690   5.520   2.864  0.6722  0.0713 -0.3882
 4564TIP3    H113614   2.672   5.434   2.901 -0.3976  0.7689  0.7360
 4564TIP3    H213615   2.715   5.503   2.773  1.0981 -1.4666  0.0139
 4565TIP3   OH213616   2.286   5.970   2.703 -0.2182  0.7672  0.4090
 4565TIP3    H113617   2.310   5.913   2.630  2.1654  1.1882  0.8034
 4565TIP3    H213618   2.199   6.003   2.681  0.7263  1.4037 -2.5778
 4566TIP3   OH213619   1.169   3.808   2.470  0.0630  0.4803 -0.6041
 4566TIP3    H113620   1.116   3.810   2.549 -1.1477  2.8701 -1.4251
 4566TIP3    H213621   1.243   3.866   2.489  0.4601  0.0222 -0.7503
 4567TIP3   OH213622   3.310   6.347   2.907 -0.2759 -0.3554  0.2581
 4567TIP3    H113623   3.293   6.272   2.850  2.5768 -0.5199 -0.4704
 4567TIP3    H213624   3.316   6.308   2.995  0.8703 -0.9570 -0.0756
 4568TIP3   OH213625   2.885   4.327   1.504  0.2085  0.2519  0.6860
 4568TIP3    H113626   2.925   4.253   1.459 -1.2690 -1.6165  2.3513
 4568TIP3    H213627   2.794   4.300   1.518 -0.0999  1.9799  2.1898
 4569TIP3   OH213628   0.548   0.877   6.917  0.9362  0.1682  0.3163
 4569TIP3    H113629   0.590   0.791   6.916  0.5706 -0.0051 -0.1114
 4569TIP3    H213630   0.494   0.879   6.838  0.7012  0.6722  0.4846
 4570TIP3   OH213631   1.167   5.361   2.076 -0.0445  0.2232 -0.2129
 4570TIP3    H113632   1.169   5.453   2.105  1.9581  0.2684 -0.4416
 4570TIP3    H213633   1.256   5.329   2.091 -0.9985 -2.0341  0.9155
 4571TIP3   OH213634   0.494   4.607   2.339 -0.3554 -0.7533 -0.2006
 4571TIP3    H113635   0.499   4.622   2.245 -1.6023 -2.2301 -0.5159
 4571TIP3    H213636   0.553   4.673   2.377 -0.8017  0.6731 -1.9171
 4572TIP3   OH213637   1.242   5.679   2.693 -0.2080  0.2320 -0.6328
 4572TIP3    H113638   1.315   5.663   2.633  1.4856 -3.4299  2.2547
 4572TIP3    H213639   1.174   5.618   2.664  0.0986 -0.5630  0.3200
 4573TIP3   OH213640   8.677   4.676   3.199 -0.1030 -0.0593 -0.1401
 4573TIP3    H113641   8.639   4.625   3.270  0.0003 -1.4837 -1.0909
 4573TIP3    H213642   8.660   4.624   3.120  1.5809  0.5017 -0.8979
 4574TIP3   OH213643   1.765   6.616   3.174 -0.4487 -0.1221 -0.0223
 4574TIP3    H113644   1.708   6.558   3.224 -2.2905  1.0103 -0.7671
 4574TIP3    H213645   1.770   6.697   3.226  2.2115 -0.9220  1.0784
 4575TIP3   OH213646   0.507   4.539   1.670  0.5181 -0.1420  0.4434
 4575TIP3    H113647   0.481   4.627   1.696 -1.0082 -0.5308  0.3126
 4575TIP3    H213648   0.584   4.551   1.615 -0.6305  1.2497 -0.9025
 4576TIP3   OH213649   2.454   5.611   4.203 -0.4447  0.2913  0.0613
 4576TIP3    H113650   2.390   5.597   4.273  0.9603  0.5078  1.4231
 4576TIP3    H213651   2.420   5.686   4.154 -0.4997  1.3370  1.6575
 4577TIP3   OH213652   1.814   5.304   2.614  0.4095  0.3316  0.0047
 4577TIP3    H113653   1.851   5.221   2.643 -1.7188 -1.2072 -1.5386
 4577TIP3    H213654   1.761   5.333   2.688 -0.6637 -0.8441 -0.2887
 4578TIP3   OH213655   0.372   7.071   3.747  0.1858  0.1246  0.0570
 4578TIP3    H113656   0.373   7.081   3.652 -1.1463  1.2049  0.1361
 4578TIP3    H213657   0.385   7.159   3.781 -1.4503  0.0934  0.8437
 4579TIP3   OH213658   2.196   5.232   2.003  0.3190 -0.0172  0.1592
 4579TIP3    H113659   2.252   5.211   1.929 -0.5370 -0.8522 -0.2606
 4579TIP3    H213660   2.119   5.175   1.992 -0.4525  0.8705  0.9046
 4580TIP3   OH213661   0.736   6.893   4.385 -0.3582 -0.6396 -0.0250
 4580TIP3    H113662   0.804   6.851   4.438 -2.0767 -2.6662  0.6185
 4580TIP3    H213663   0.693   6.954   4.446  0.3201  0.0366 -0.2122
 4581TIP3   OH213664   0.350   6.264   2.721 -0.1736 -0.1946  0.0269
 4581TIP3    H113665   0.330   6.187   2.773  0.9275 -1.1354 -0.9183
 4581TIP3    H213666   0.342   6.338   2.782 -1.9258 -0.9703  0.7712
 4582TIP3   OH213667   1.872   5.352   2.173 -0.4233  0.2755  0.2266
 4582TIP3    H113668   1.963   5.364   2.202 -0.6151 -0.1156  1.0221
 4582TIP3    H213669   1.822   5.352   2.254 -0.7296 -3.1594  0.0828
 4583TIP3   OH213670   1.603   4.531   4.216  0.2370 -0.1632  0.6633
 4583TIP3    H113671   1.530   4.525   4.278 -1.4980 -1.5173 -1.4455
 4583TIP3    H213672   1.568   4.580   4.142  1.6630 -0.3055 -0.1306
 4584TIP3   OH213673   2.348   5.987   4.286 -0.3776 -0.0142 -0.1004
 4584TIP3    H113674   2.280   6.048   4.257 -0.8698  0.7729  2.5130
 4584TIP3    H213675   2.300   5.921   4.336  0.5559 -0.4843  0.1776
 4585TIP3   OH213676   1.415   5.524   2.875  0.5534 -0.3450  0.2715
 4585TIP3    H113677   1.374   5.543   2.791 -2.8449 -3.8835  1.0050
 4585TIP3    H213678   1.369   5.580   2.937 -0.1642 -1.1171  0.4429
 4586TIP3   OH213679   1.552   7.888   0.806 -0.1778 -0.4984  0.1717
 4586TIP3    H113680   1.520   7.948   0.874 -0.0878 -0.7142  0.4070
 4586TIP3    H213681   1.576   7.945   0.733  1.1072 -0.1215  0.8589
 4587TIP3   OH213682   3.602   5.724   3.572  0.4778  0.0865 -0.1616
 4587TIP3    H113683   3.650   5.676   3.640 -1.0105 -0.3257  0.6102
 4587TIP3    H213684   3.613   5.816   3.596 -0.7292 -0.0929  1.1257
 4588TIP3   OH213685   4.313   5.273   2.934  0.0130  0.1341 -0.4033
 4588TIP3    H113686   4.332   5.257   3.026  0.1156 -0.2242 -0.4865
 4588TIP3    H213687   4.283   5.364   2.931 -1.5503 -0.3418  0.2226
 4589TIP3   OH213688   0.238   3.334   6.179 -0.3711  0.8181  0.3804
 4589TIP3    H113689   0.175   3.378   6.122 -0.1208  0.7665  0.0593
 4589TIP3    H213690   0.222   3.370   6.266 -1.8072 -0.2409  0.5642
 4590TIP3   OH213691   0.505   4.727   4.992 -0.1893  0.2492  0.6194
 4590TIP3    H113692   0.555   4.797   5.035  1.4818 -1.5813  1.7881
 4590TIP3    H213693   0.572   4.664   4.964 -1.6136 -0.6464 -0.8341
 4591TIP3   OH213694   1.862   4.814   1.990  0.3316  0.0182 -0.2405
 4591TIP3    H113695   1.824   4.729   1.967  1.9261 -0.8529  0.2463
 4591TIP3    H213696   1.818   4.839   2.071 -1.4441  0.5293 -1.3523
 4592TIP3   OH213697   1.838   6.089   4.404  0.1050 -0.0343  0.5031
 4592TIP3    H113698   1.746   6.062   4.398  0.3383 -0.9673  1.0261
 4592TIP3    H213699   1.854   6.099   4.498  0.8790 -1.0939  0.4901
 4593TIP3   OH213700   2.017   5.646   3.351 -0.4163 -0.3392 -0.1802
 4593TIP3    H113701   2.082   5.712   3.326 -0.1349 -0.5023  0.1228
 4593TIP3    H213702   2.068   5.566   3.363 -0.5352 -0.2380  1.0358
 4594TIP3   OH213703   1.697   5.348   2.888 -0.0160  0.4915 -0.0055
 4594TIP3    H113704   1.620   5.382   2.934 -0.2431  0.1765 -0.1498
 4594TIP3    H213705   1.698   5.254   2.908 -0.4301  0.2540 -1.0790
 4595TIP3   OH213706   1.845   5.125   3.607  0.1547 -0.0211  0.2439
 4595TIP3    H113707   1.876   5.085   3.526  1.0756 -0.0429  0.6011
 4595TIP3    H213708   1.863   5.060   3.675 -2.2530 -0.7652  0.2420
 4596TIP3   OH213709   0.695   3.705   3.809 -0.0062 -0.1689  0.4324
 4596TIP3    H113710   0.605   3.733   3.827  0.2989 -0.6172  2.8544
 4596TIP3    H213711   0.743   3.726   3.889  2.3810  1.3296 -1.3397
 4597TIP3   OH213712   2.495   3.939   1.940 -0.0987  0.1609  0.1082
 4597TIP3    H113713   2.401   3.931   1.924 -0.0811 -0.6624  0.3809
 4597TIP3    H213714   2.501   3.959   2.033 -0.0568  1.4833 -0.1794
 4598TIP3   OH213715   2.555   4.975   3.147 -0.1283 -0.0085  0.3909
 4598TIP3    H113716   2.512   4.903   3.194 -0.3607  0.2431  0.5688
 4598TIP3    H213717   2.548   5.049   3.206  0.8048 -0.0309  0.5350
 4599TIP3   OH213718   2.487   5.039   4.684 -0.1740  0.9641  0.1256
 4599TIP3    H113719   2.565   5.031   4.738 -1.4571 -0.1301  1.8833
 4599TIP3    H213720   2.511   5.102   4.616  2.0248  1.0911  0.9843
 4600TIP3   OH213721   2.521   5.231   3.295 -0.4621 -0.8306  0.1881
 4600TIP3    H113722   2.506   5.227   3.390  1.1163 -1.0577  0.4452
 4600TIP3    H213723   2.571   5.311   3.282  1.3550 -1.9784 -0.1352
 4601TIP3   OH213724   0.569   6.742   3.019 -0.6570  0.4933  0.7110
 4601TIP3    H113725   0.630   6.807   2.984  0.6086 -1.7131 -1.2648
 4601TIP3    H213726   0.531   6.701   2.942 -0.2031 -2.2575  1.9011
 4602TIP3   OH213727   1.456   6.441   1.140 -0.7393 -0.2716 -0.1679
 4602TIP3    H113728   1.403   6.509   1.182 -2.1277 -0.9222 -0.8621
 4602TIP3    H213729   1.449   6.366   1.199  1.1647  0.2880  0.8329
 4603TIP3   OH213730   1.439   5.820   2.332  0.3403 -0.0470 -0.2020
 4603TIP3    H113731   1.374   5.834   2.262  0.0453 -2.4042 -0.4238
 4603TIP3    H213732   1.415   5.885   2.399 -0.0497  1.5128 -1.7887
 4604TIP3   OH213733   0.001   7.150   1.577  0.2459 -0.4543 -1.0021
 4604TIP3    H113734   0.050   7.163   1.658 -0.8045  0.3534 -0.4826
 4604TIP3    H213735   0.063   7.170   1.507  0.6209  0.6759 -0.3547
 4605TIP3   OH213736   2.917   3.677   2.653  0.8135 -0.6705 -0.0722
 4605TIP3    H113737   2.852   3.747   2.664  0.6002 -1.0424  1.0509
 4605TIP3    H213738   2.881   3.623   2.582  0.1299 -0.5976  0.2105
 4606TIP3   OH213739   1.706   4.376   2.870  0.2456 -0.2278 -0.2364
 4606TIP3    H113740   1.637   4.393   2.934  0.9036  0.0748  0.3908
 4606TIP3    H213741   1.781   4.349   2.921  0.4122 -1.1820 -0.9699
 4607TIP3   OH213742   1.996   7.186   4.455  0.3181 -0.9842  0.4268
 4607TIP3    H113743   1.939   7.178   4.378  0.2340 -1.6403  0.5538
 4607TIP3    H213744   2.078   7.220   4.420  0.3250 -1.4114  0.0225
 4608TIP3   OH213745   2.889   7.204   1.320  0.3328  0.3934  0.8192
 4608TIP3    H113746   2.820   7.168   1.265  0.5149 -0.9826  1.4633
 4608TIP3    H213747   2.949   7.246   1.259  0.8946 -1.7066 -0.1405
 4609TIP3   OH213748   2.386   5.900   3.079 -0.0680 -0.7191  0.6907
 4609TIP3    H113749   2.412   5.822   3.030 -2.7597 -1.0635 -0.2504
 4609TIP3    H213750   2.393   5.972   3.016 -0.4811 -0.6657  0.7077
 4610TIP3   OH213751   2.338   4.698   1.824  0.4378 -0.0691 -0.2124
 4610TIP3    H113752   2.414   4.730   1.873  0.6474  0.4409 -0.8591
 4610TIP3    H213753   2.274   4.675   1.891  1.0363 -0.1837  0.3291
 4611TIP3   OH213754   3.203   4.304   2.406  0.0189 -0.4593  0.4765
 4611TIP3    H113755   3.263   4.280   2.476  0.2653 -1.5503 -0.1101
 4611TIP3    H213756   3.253   4.364   2.351  0.4518 -1.0895  0.1846
 4612TIP3   OH213757   6.994   1.406   7.089  0.8330  0.2478  0.3854
 4612TIP3    H113758   7.042   1.432   7.168  0.6398  0.7294  0.3463
 4612TIP3    H213759   6.902   1.406   7.115  0.8334 -0.4616  0.3985
 4613TIP3   OH213760   2.225   3.733   2.193  0.1447  0.2562  0.0226
 4613TIP3    H113761   2.257   3.812   2.235 -0.1234  1.1501 -1.4315
 4613TIP3    H213762   2.156   3.763   2.134 -0.1866 -1.0980 -0.3045
 4614TIP3   OH213763   2.166   4.956   2.503  0.3434  0.7506  1.1443
 4614TIP3    H113764   2.186   4.869   2.470  1.3493  0.7365  1.7574
 4614TIP3    H213765   2.157   5.011   2.425 -0.1706  0.1290  0.7654
 4615TIP3   OH213766   8.283   3.842   3.452 -0.2724  0.0329  0.3694
 4615TIP3    H113767   8.372   3.857   3.484 -0.4399  1.6385  0.1402
 4615TIP3    H213768   8.289   3.763   3.399  0.8149 -0.4142  1.1396
 4616TIP3   OH213769   3.584   6.543   6.039 -0.1346 -0.6201 -0.2374
 4616TIP3    H113770   3.568   6.450   6.031 -0.3610 -0.8403  2.5021
 4616TIP3    H213771   3.677   6.550   6.062  0.7177  0.0334 -3.5422
 4617TIP3   OH213772   1.088   6.616   4.419 -0.1786  0.3422  0.6468
 4617TIP3    H113773   1.143   6.563   4.476  0.6846  1.4729  0.8734
 4617TIP3    H213774   1.071   6.560   4.343 -0.2547 -0.6843  1.4161
 4618TIP3   OH213775   2.970   5.143   0.703 -0.4679 -0.2552 -0.9270
 4618TIP3    H113776   2.961   5.075   0.638 -2.6085  1.3552 -2.3847
 4618TIP3    H213777   2.910   5.212   0.675 -1.2855  0.6060  2.5897
 4619TIP3   OH213778   1.587   6.435   3.303 -0.7356  0.3106 -0.2327
 4619TIP3    H113779   1.647   6.391   3.363  0.1504  1.6723 -0.0804
 4619TIP3    H213780   1.519   6.370   3.284 -0.3058 -0.5798  1.1872
 4620TIP3   OH213781   0.805   7.422   4.500 -0.0731  0.1960  0.0456
 4620TIP3    H113782   0.894   7.429   4.535 -0.4173  2.0640  0.6334
 4620TIP3    H213783   0.769   7.343   4.541  0.0764  1.4727  2.7068
 4621TIP3   OH213784   0.737   5.720   3.563  0.2361 -0.6068  0.5460
 4621TIP3    H113785   0.738   5.704   3.469 -1.4536 -1.5368  0.6536
 4621TIP3    H213786   0.644   5.724   3.585  0.6134 -0.4934  2.1849
 4622TIP3   OH213787   2.173   5.575   3.630  0.4882  0.0265 -0.0830
 4622TIP3    H113788   2.211   5.551   3.546 -0.2352  0.9340 -0.6740
 4622TIP3    H213789   2.104   5.510   3.644  0.0833  0.3510 -0.5685
 4623TIP3   OH213790   8.721   4.101   4.103 -0.0736 -0.0127 -0.4183
 4623TIP3    H113791   8.628   4.084   4.088 -0.0404 -0.6734  0.0730
 4623TIP3    H213792   8.723   4.185   4.148 -0.4279  0.0904 -0.5941
 4624TIP3   OH213793   2.529   6.438   3.660 -0.0682 -0.1499  0.6703
 4624TIP3    H113794   2.526   6.347   3.690  0.8696 -0.1265  0.8605
 4624TIP3    H213795   2.442   6.455   3.624  0.4380 -1.8022 -1.3800
 4625TIP3   OH213796   7.936   5.449   3.498  0.0713  0.1575 -0.0288
 4625TIP3    H113797   7.934   5.394   3.576 -0.6631 -0.8619 -0.7381
 4625TIP3    H213798   8.023   5.435   3.460  0.6672  1.1565  0.9344
 4626TIP3   OH213799   2.314   5.463   3.938 -0.0749 -0.2137 -0.0504
 4626TIP3    H113800   2.397   5.444   3.982  0.2218 -0.5986 -0.7679
 4626TIP3    H213801   2.250   5.472   4.009  0.3967 -0.8494  0.4543
 4627TIP3   OH213802   3.811   2.704   2.465 -0.8333 -0.3198  0.5331
 4627TIP3    H113803   3.904   2.722   2.451 -1.0029  0.4000  0.3207
 4627TIP3    H213804   3.789   2.638   2.399 -0.7363  0.3206 -0.1445
 4628TIP3   OH213805   8.655   5.611   2.472  0.2971 -0.0219 -0.3614
 4628TIP3    H113806   8.706   5.536   2.503  1.0139  0.2978 -0.7310
 4628TIP3    H213807   8.582   5.617   2.533  1.3213  0.1906  0.8888
 4629TIP3   OH213808   2.702   3.903   5.248  0.1015  0.1717  0.1527
 4629TIP3    H113809   2.778   3.948   5.211  0.8391 -0.0854  1.3305
 4629TIP3    H213810   2.667   3.851   5.175  0.2035  1.3745 -0.7797
 4630TIP3   OH213811   3.044   3.861   2.850  0.3389 -0.7672  0.2343
 4630TIP3    H113812   3.055   3.954   2.828 -0.0229 -0.4547  1.3392
 4630TIP3    H213813   3.019   3.820   2.768 -2.1185  0.5609  0.2709
 4631TIP3   OH213814   0.107   5.700   2.579 -0.2623 -0.1301 -0.6545
 4631TIP3    H113815   0.118   5.791   2.550 -0.0340 -0.2618 -0.9744
 4631TIP3    H213816   0.013   5.685   2.575 -0.4911  0.6445  1.0392
 4632TIP3   OH213817   2.100   8.028   2.925  0.0050  0.5817  0.0632
 4632TIP3    H113818   2.143   8.096   2.977  0.9008  0.0666  0.0079
 4632TIP3    H213819   2.170   7.968   2.902 -0.8942 -0.7471  0.7070
 4633TIP3   OH213820   8.377   6.223   5.159 -0.6407 -0.1520 -0.3127
 4633TIP3    H113821   8.317   6.293   5.187 -1.0430  1.0173 -3.7879
 4633TIP3    H213822   8.321   6.147   5.147 -0.5005 -0.6011  1.6645
 4634TIP3   OH213823   4.834   0.249   3.266 -0.3144 -0.1098 -0.2052
 4634TIP3    H113824   4.750   0.209   3.287  0.0824 -1.3250 -0.9341
 4634TIP3    H213825   4.899   0.195   3.310  0.1914 -0.0195 -0.8298
 4635TIP3   OH213826   0.224   3.690   3.747 -0.0083 -0.3003 -0.0246
 4635TIP3    H113827   0.198   3.650   3.830  2.0892  0.0577  0.8332
 4635TIP3    H213828   0.275   3.623   3.703  0.8188  0.3187 -0.0046
 4636TIP3   OH213829   1.435   8.107   3.133  0.2459  0.7402  0.2029
 4636TIP3    H113830   1.443   8.079   3.042  2.0450 -1.0689  0.8509
 4636TIP3    H213831   1.506   8.060   3.178 -0.6942  1.4955  2.5495
 4637TIP3   OH213832   0.751   6.981   4.830 -0.3705  0.4663  0.6703
 4637TIP3    H113833   0.678   7.039   4.813 -0.6774 -1.1390 -4.0740
 4637TIP3    H213834   0.827   7.039   4.837 -1.0327  1.6586 -1.5890
 4638TIP3   OH213835   1.086   8.354   3.974  0.0768  0.8934 -0.4599
 4638TIP3    H113836   1.089   8.271   3.926  2.0639 -0.6921  2.2470
 4638TIP3    H213837   1.026   8.337   4.047  1.6205  1.3656  0.9294
 4639TIP3   OH213838   1.992   5.514   4.559 -0.0205  0.1200 -0.5730
 4639TIP3    H113839   2.040   5.494   4.640 -0.1512  1.8433 -0.0628
 4639TIP3    H213840   1.970   5.428   4.523 -0.4383 -0.6764  1.5007
 4640TIP3   OH213841   1.348   6.485   2.931  0.5202 -0.1538 -0.0706
 4640TIP3    H113842   1.331   6.535   2.851 -1.8122 -0.1378  0.3925
 4640TIP3    H213843   1.398   6.409   2.902  2.0714  1.2327 -1.1217
 4641TIP3   OH213844   2.040   6.203   2.979  0.0685 -0.1984 -0.3967
 4641TIP3    H113845   2.061   6.171   3.067  1.3721 -1.2139 -1.0471
 4641TIP3    H213846   2.069   6.294   2.979 -0.7831  0.0866  0.4988
 4642TIP3   OH213847   1.113   5.431   2.588  0.0036 -0.7577 -0.3370
 4642TIP3    H113848   1.064   5.446   2.506 -0.1233  0.5757 -0.0343
 4642TIP3    H213849   1.048   5.397   2.649 -0.3672  0.2221 -0.1816
 4643TIP3   OH213850   1.103   6.855   2.869  0.0830  0.1187  0.3183
 4643TIP3    H113851   1.124   6.916   2.940 -1.0914  2.4786 -1.3044
 4643TIP3    H213852   1.185   6.848   2.819 -0.0433  1.2005 -0.0626
 4644TIP3   OH213853   3.837   4.826   3.092 -0.0154 -0.1154  0.9811
 4644TIP3    H113854   3.871   4.912   3.065  0.2018  0.0620  1.8099
 4644TIP3    H213855   3.742   4.836   3.088  0.0148 -0.1454  0.1198
 4645TIP3   OH213856   2.899   6.104   4.621 -0.2582 -0.8524  0.4269
 4645TIP3    H113857   2.816   6.144   4.645  0.1588 -0.1431  0.6912
 4645TIP3    H213858   2.875   6.018   4.585 -0.9047 -1.9249  3.3331
 4646TIP3   OH213859   2.831   5.604   2.252 -0.1750  0.0038 -0.1653
 4646TIP3    H113860   2.751   5.559   2.226  0.5381 -0.9472 -0.7268
 4646TIP3    H213861   2.895   5.534   2.265  0.4229  0.7124  0.8180
 4647TIP3   OH213862   1.551   5.136   1.097  0.3937 -0.2421  0.8889
 4647TIP3    H113863   1.627   5.191   1.076 -0.1556 -0.1472 -0.8758
 4647TIP3    H213864   1.491   5.195   1.142 -0.2561  0.6732 -1.1300
 4648TIP3   OH213865   2.267   3.952   2.914 -0.8035 -0.2356  0.2531
 4648TIP3    H113866   2.285   3.870   2.869 -1.6563  0.4979 -1.4507
 4648TIP3    H213867   2.325   3.951   2.990 -0.5805 -2.2626  0.0696
 4649TIP3   OH213868   1.621   4.317   3.298 -0.1446 -0.1137 -0.2942
 4649TIP3    H113869   1.649   4.232   3.332 -0.5419  1.0099  3.0199
 4649TIP3    H213870   1.701   4.370   3.298 -0.5934  0.5854  1.1632
 4650TIP3   OH213871   0.672   4.670   3.922  0.5446  0.3876  0.8127
 4650TIP3    H113872   0.617   4.670   4.001 -0.7084 -1.1439 -0.0262
 4650TIP3    H213873   0.610   4.660   3.850  1.6882  1.6637 -0.3669
 4651TIP3   OH213874   3.775   4.352   1.882 -0.3340  0.6568  0.3515
 4651TIP3    H113875   3.719   4.363   1.958 -0.5534  0.8590  0.1641
 4651TIP3    H213876   3.724   4.389   1.810 -0.1044  0.5189  0.1187
 4652TIP3   OH213877   7.599   6.152   3.561 -0.3560  0.4778  0.2445
 4652TIP3    H113878   7.539   6.083   3.590  0.2417  0.0215  0.4102
 4652TIP3    H213879   7.631   6.191   3.643 -1.4743  1.6417  0.1426
 4653TIP3   OH213880   0.695   4.405   1.151  1.0635 -0.6686 -0.2646
 4653TIP3    H113881   0.610   4.362   1.156  0.2994  0.9302  1.5441
 4653TIP3    H213882   0.676   4.490   1.110  1.5897  0.1124  1.0903
 4654TIP3   OH213883   3.361   3.251   3.023  0.3480 -0.7815 -0.0759
 4654TIP3    H113884   3.315   3.331   2.999 -0.5371 -0.6372  1.9898
 4654TIP3    H213885   3.292   3.184   3.026  0.6014 -1.0042  1.0071
 4655TIP3   OH213886   3.338   4.522   2.293  0.1237 -0.6010 -0.0911
 4655TIP3    H113887   3.264   4.502   2.235 -0.3979  0.7601  0.0756
 4655TIP3    H213888   3.337   4.618   2.300  0.0493 -0.7585  2.3106
 4656TIP3   OH213889   4.154   5.093   2.567 -0.3720  0.3120 -0.2397
 4656TIP3    H113890   4.248   5.107   2.556 -0.4457  0.6172 -0.4739
 4656TIP3    H213891   4.135   5.015   2.514  0.2595 -1.4504  2.0442
 4657TIP3   OH213892   3.991   4.756   4.734  0.4223 -0.0925  0.4316
 4657TIP3    H113893   4.013   4.664   4.749 -2.1853 -0.9121 -0.4696
 4657TIP3    H213894   4.041   4.779   4.655  0.0500 -1.1727 -0.1423
 4658TIP3   OH213895   1.433   6.428   1.547  0.3938 -0.0771  0.2086
 4658TIP3    H113896   1.508   6.382   1.510  1.4131  1.1237  0.7302
 4658TIP3    H213897   1.433   6.513   1.502 -0.0303  0.3230  0.9511
 4659TIP3   OH213898   3.279   4.804   4.605  0.2444 -0.1370 -0.1894
 4659TIP3    H113899   3.279   4.709   4.591 -1.8722  0.1220 -2.1504
 4659TIP3    H213900   3.370   4.825   4.624  0.6770 -2.6128  0.6886
 4660TIP3   OH213901   3.130   4.892   3.617  0.2780 -0.0742  0.1951
 4660TIP3    H113902   3.223   4.884   3.637  1.3241  1.4746 -3.7370
 4660TIP3    H213903   3.099   4.960   3.677  1.7954 -0.1590  1.1031
 4661TIP3   OH213904   3.276   5.159   2.392 -0.4721 -0.4972  0.0146
 4661TIP3    H113905   3.353   5.158   2.335 -0.0790 -0.2901  0.5405
 4661TIP3    H213906   3.218   5.093   2.355 -0.6848  0.3985 -1.2694
 4662TIP3   OH213907   4.649   4.448   3.525  0.0581 -0.0596  0.0145
 4662TIP3    H113908   4.560   4.413   3.533  0.6928 -1.5034  1.0151
 4662TIP3    H213909   4.705   4.376   3.552  1.4677  1.3254  0.8526
 4663TIP3   OH213910   0.824   6.729   1.462 -0.0665 -0.2002 -0.2084
 4663TIP3    H113911   0.774   6.739   1.380 -0.7346  0.0230  0.2257
 4663TIP3    H213912   0.832   6.634   1.474 -0.7583 -0.2385 -0.0526
 4664TIP3   OH213913   4.112   6.607   2.642 -0.2843  0.0061 -0.2388
 4664TIP3    H113914   4.160   6.528   2.668 -0.1036  0.3029  0.3399
 4664TIP3    H213915   4.020   6.579   2.639 -0.5648  0.4321  2.7022
 4665TIP3   OH213916   4.951   4.671   2.893 -0.6475  0.3370 -0.2957
 4665TIP3    H113917   4.967   4.594   2.840 -0.5880 -0.8015  1.3478
 4665TIP3    H213918   5.037   4.697   2.926 -1.0421 -0.8255  1.7476
 4666TIP3   OH213919   2.440   5.338   2.973  0.4527  0.3120 -0.4013
 4666TIP3    H113920   2.360   5.289   2.955 -0.2745  1.3157 -0.0002
 4666TIP3    H213921   2.509   5.272   2.976 -0.2880 -0.5165 -1.1973
 4667TIP3   OH213922   2.971   6.572   1.734 -0.1074  0.3281  0.0865
 4667TIP3    H113923   3.039   6.549   1.671 -0.6525 -0.8094 -0.1083
 4667TIP3    H213924   2.936   6.656   1.702  0.2071  0.1866 -0.6361
 4668TIP3   OH213925   2.532   5.618   1.894  0.4759 -0.3270  0.0157
 4668TIP3    H113926   2.484   5.697   1.919 -0.2490 -1.1957  1.4053
 4668TIP3    H213927   2.562   5.581   1.977  1.4947 -1.0974 -0.6791
 4669TIP3   OH213928   5.458   4.202   5.418 -0.0825  0.4356 -0.6715
 4669TIP3    H113929   5.463   4.187   5.324  0.6181 -0.1382 -0.5466
 4669TIP3    H213930   5.501   4.287   5.431 -0.4838  0.6766 -0.9058
 4670TIP3   OH213931   5.085   6.904   3.602  0.0292  0.0355  0.1444
 4670TIP3    H113932   5.172   6.883   3.636  0.0285  1.1453  0.8859
 4670TIP3    H213933   5.046   6.820   3.578  1.3059 -0.4605 -0.1888
 4671TIP3   OH213934   5.214   3.443   1.969 -0.0570 -0.1344 -0.2781
 4671TIP3    H113935   5.128   3.484   1.983  0.6090  0.5932  1.8296
 4671TIP3    H213936   5.216   3.370   2.031  1.0248  0.1353  0.0045
 4672TIP3   OH213937   2.421   4.772   1.213  0.0281  0.3160 -0.3588
 4672TIP3    H113938   2.358   4.711   1.176  0.1223 -0.5358  0.8587
 4672TIP3    H213939   2.369   4.849   1.236 -0.0421  0.8371 -2.1603
 4673TIP3   OH213940   6.374   4.042   2.567 -0.3821  0.0072  0.0950
 4673TIP3    H113941   6.332   4.092   2.638 -0.6168 -1.2078  0.8271
 4673TIP3    H213942   6.458   4.014   2.604 -0.0361  0.2793 -0.4819
 4674TIP3   OH213943   2.892   3.344   4.069 -0.0247  0.2050 -0.5449
 4674TIP3    H113944   2.803   3.362   4.039  0.3696 -0.1622 -1.9972
 4674TIP3    H213945   2.934   3.300   3.994  1.0072 -0.7055  0.5517
 4675TIP3   OH213946   2.853   5.112   3.659  0.2668  0.2644 -0.0603
 4675TIP3    H113947   2.850   5.046   3.589  0.2617  0.2459 -0.0427
 4675TIP3    H213948   2.836   5.062   3.739  0.6860  0.2186  0.0002
 4676TIP3   OH213949   6.022   3.383   1.817  0.2052  0.1559 -0.1183
 4676TIP3    H113950   5.930   3.371   1.841  0.0257  0.2317 -0.7641
 4676TIP3    H213951   6.057   3.441   1.885 -0.1858  0.0083  0.2115
 4677TIP3   OH213952   2.766   3.998   2.118 -0.2620  0.2497  0.1588
 4677TIP3    H113953   2.695   3.960   2.170 -0.9181 -1.8169 -2.1725
 4677TIP3    H213954   2.837   3.934   2.125  0.3470  0.9300  0.1624
 4678TIP3   OH213955   3.587   5.364   3.207 -0.0014 -0.2308  0.1644
 4678TIP3    H113956   3.615   5.437   3.262  0.6284 -0.0213 -0.4400
 4678TIP3    H213957   3.617   5.386   3.119 -1.5616 -0.2735 -0.3969
 4679TIP3   OH213958   3.600   6.510   3.440  0.3847 -0.2627  0.0870
 4679TIP3    H113959   3.652   6.444   3.395 -0.1614 -1.2902  0.9263
 4679TIP3    H213960   3.536   6.540   3.375  0.6576 -0.5442 -0.3069
 4680TIP3   OH213961   5.567   5.096   2.089  0.0465 -0.2249 -0.2405
 4680TIP3    H113962   5.620   5.059   2.159 -0.1696  1.7454  1.0155
 4680TIP3    H213963   5.491   5.133   2.134  0.3013  1.7922 -1.4106
 4681TIP3   OH213964   1.574   5.211   4.252  0.0680  0.3469 -0.0952
 4681TIP3    H113965   1.539   5.300   4.249  1.0033  0.7311  0.1379
 4681TIP3    H213966   1.509   5.161   4.302 -1.3408  0.4832 -1.7379
 4682TIP3   OH213967   5.197   5.705   2.368 -0.0107  0.3787 -0.3070
 4682TIP3    H113968   5.156   5.697   2.281 -0.0194 -0.7227 -0.2065
 4682TIP3    H213969   5.137   5.660   2.427  0.0793  0.9861  0.2542
 4683TIP3   OH213970   3.127   7.589   0.648 -0.5753  0.4988  0.4887
 4683TIP3    H113971   3.059   7.656   0.642 -1.0089 -0.0490 -1.0564
 4683TIP3    H213972   3.180   7.602   0.569 -0.1838 -0.4691  0.5825
 4684TIP3   OH213973   4.426   5.431   0.856  0.2541 -0.1029  0.0554
 4684TIP3    H113974   4.493   5.368   0.830  0.4465 -0.0947  0.5191
 4684TIP3    H213975   4.452   5.513   0.815  0.9082  0.0647  0.7836
 4685TIP3   OH213976   4.341   5.565   2.910 -0.2042 -0.6311  0.7444
 4685TIP3    H113977   4.334   5.645   2.962  0.8950 -0.2364  0.2898
 4685TIP3    H213978   4.429   5.531   2.930 -0.5439 -1.5558  0.6903
 4686TIP3   OH213979   3.186   5.846   1.650 -0.0714  0.1427 -0.1303
 4686TIP3    H113980   3.263   5.814   1.697  0.5748  0.0392 -1.2480
 4686TIP3    H213981   3.144   5.767   1.617 -1.4889  0.0824  1.7075
 4687TIP3   OH213982   3.901   4.384   0.232  0.2558  0.0217 -0.2551
 4687TIP3    H113983   3.808   4.404   0.234  0.8650  2.9958  1.0948
 4687TIP3    H213984   3.914   4.336   0.150 -2.0347  1.8299 -1.7278
 4688TIP3   OH213985   2.169   6.242   1.545  0.3605 -0.3001 -0.1717
 4688TIP3    H113986   2.181   6.220   1.638 -0.8263  0.5587  0.1902
 4688TIP3    H213987   2.119   6.169   1.509  0.6014 -0.5118 -0.0778
 4689TIP3   OH213988   4.416   6.052   3.122  0.1460 -0.0419  0.1433
 4689TIP3    H113989   4.412   6.137   3.077  0.4673  0.4363  0.9976
 4689TIP3    H213990   4.509   6.035   3.133  0.0707 -0.1607  0.6098
 4690TIP3   OH213991   2.673   5.181   2.705 -0.0380 -0.0315  0.5254
 4690TIP3    H113992   2.692   5.273   2.725  2.1201 -0.2248 -0.4479
 4690TIP3    H213993   2.673   5.137   2.790  0.8370  0.5513  0.8353
 4691TIP3   OH213994   4.214   5.659   3.230 -0.2917  0.8704  0.3381
 4691TIP3    H113995   4.298   5.701   3.210  0.1014 -1.3348 -3.0168
 4691TIP3    H213996   4.149   5.718   3.191 -0.0153  0.4959 -0.7048
 4692TIP3   OH213997   3.522   1.625   2.185 -0.3936  0.3731  0.0698
 4692TIP3    H113998   3.586   1.587   2.125  1.0516  1.5288  0.8648
 4692TIP3    H213999   3.511   1.715   2.155 -0.3214  0.6955  1.0014
 4693TIP3   OH214000   2.736   4.284   2.533  0.0760  0.5576 -0.2030
 4693TIP3    H114001   2.713   4.267   2.441 -1.1006 -0.9603  0.3465
 4693TIP3    H214002   2.831   4.273   2.536  0.1253  0.5943 -1.2385
 4694TIP3   OH214003   3.884   6.232   0.799  0.4719 -0.6024  0.0555
 4694TIP3    H114004   3.825   6.195   0.863  1.2586 -0.9487  0.5858
 4694TIP3    H214005   3.852   6.200   0.714 -0.7958  0.1741  0.2298
 4695TIP3   OH214006   3.413   4.921   3.705  0.6255  0.3158 -0.0627
 4695TIP3    H114007   3.388   5.004   3.665 -1.5646 -0.1614  0.2448
 4695TIP3    H214008   3.495   4.897   3.660  0.8428  2.2040 -0.7340
 4696TIP3   OH214009   6.871   6.394   2.346 -0.1447  0.0002 -0.3471
 4696TIP3    H114010   6.801   6.336   2.377  1.3597 -0.7426  1.7302
 4696TIP3    H214011   6.901   6.353   2.264  0.5945 -1.9567  0.8517
 4697TIP3   OH214012   4.125   4.153   2.221 -0.2675  0.9110 -0.5333
 4697TIP3    H114013   4.105   4.172   2.313 -0.3933  1.1233 -0.6026
 4697TIP3    H214014   4.129   4.058   2.216 -0.7074  0.8882 -0.4022
 4698TIP3   OH214015   4.254   6.203   1.424  0.6462 -0.5415 -0.3526
 4698TIP3    H114016   4.209   6.171   1.346 -1.5751  0.6253  0.4123
 4698TIP3    H214017   4.260   6.127   1.482 -0.8514 -0.6076 -0.2596
 4699TIP3   OH214018   4.253   6.166   3.689  0.2792 -0.4177 -0.1269
 4699TIP3    H114019   4.265   6.166   3.594  1.4962  1.1041  0.0122
 4699TIP3    H214020   4.195   6.092   3.706  2.3228 -2.4806 -1.7907
 4700TIP3   OH214021   2.368   6.900   1.754  0.1330 -0.7067 -0.9613
 4700TIP3    H114022   2.435   6.957   1.792  0.3642 -1.5858 -0.0408
 4700TIP3    H214023   2.411   6.857   1.680  0.0869 -0.0259 -1.3892
 4701TIP3   OH214024   3.072   6.344   4.040 -0.4992  0.0317  0.3417
 4701TIP3    H114025   3.155   6.350   4.088 -1.3148 -0.4132  1.8662
 4701TIP3    H214026   3.042   6.254   4.055 -0.4899 -0.3039 -1.5270
 4702TIP3   OH214027   2.627   4.757   1.440 -0.3884 -0.2042 -0.1967
 4702TIP3    H114028   2.656   4.673   1.406 -0.8008 -0.4077 -0.0477
 4702TIP3    H214029   2.559   4.786   1.379 -0.6305 -0.2383  0.0518
 4703TIP3   OH214030   1.609   7.832   3.255 -0.0235 -0.2074 -0.5125
 4703TIP3    H114031   1.675   7.797   3.315 -0.9940 -1.3857 -0.1148
 4703TIP3    H214032   1.531   7.778   3.270 -0.9411  0.8703 -1.3012
 4704TIP3   OH214033   3.130   5.129   1.345  0.0145 -0.0920  0.2159
 4704TIP3    H114034   3.202   5.140   1.407 -0.6256  0.5815  0.8350
 4704TIP3    H214035   3.166   5.072   1.277  1.4912  1.1244 -0.0417
 4705TIP3   OH214036   3.357   6.304   0.546  0.3051  0.8155  0.1517
 4705TIP3    H114037   3.343   6.226   0.599 -1.4790  0.8187 -0.2803
 4705TIP3    H214038   3.349   6.274   0.455 -0.2393  1.4652 -0.0201
 4706TIP3   OH214039   2.821   4.683   0.541 -0.5062 -0.3384 -0.2255
 4706TIP3    H114040   2.830   4.636   0.624  2.2246  0.5148  0.0250
 4706TIP3    H214041   2.733   4.661   0.510 -0.1025 -3.8447  0.9155
 4707TIP3   OH214042   3.351   4.297   0.666 -0.6462 -0.4480 -0.2029
 4707TIP3    H114043   3.283   4.231   0.652 -0.8893 -0.4284  0.8605
 4707TIP3    H214044   3.401   4.264   0.741  0.7716 -0.6719 -1.2291
 4708TIP3   OH214045   4.421   5.781   3.100  0.3831  0.1887  0.1757
 4708TIP3    H114046   4.509   5.779   3.140  0.5953 -0.3143 -0.3174
 4708TIP3    H214047   4.391   5.871   3.115  0.9218  0.3225  0.4841
 4709TIP3   OH214048   5.471   5.707   2.993  0.5064  0.1121  0.3186
 4709TIP3    H114049   5.514   5.783   2.954 -1.5485  1.1306 -0.0101
 4709TIP3    H214050   5.443   5.737   3.079 -1.5508  0.2008 -0.3509
 4710TIP3   OH214051   3.035   4.760   4.792 -0.4996  0.1216 -0.2667
 4710TIP3    H114052   3.077   4.709   4.722  0.9194 -0.0499  0.6845
 4710TIP3    H214053   3.061   4.850   4.773  0.0648  0.0495  0.1576
 4711TIP3   OH214054   0.704   2.467   6.989  0.6023  0.4253  0.0762
 4711TIP3    H114055   0.694   2.452   6.895  1.2887  0.4121  0.0048
 4711TIP3    H214056   0.738   2.556   6.995  0.6051  0.4068  0.3115
 4712TIP3   OH214057   2.062   5.589   2.623  0.3876 -0.1744  0.1879
 4712TIP3    H114058   2.135   5.542   2.664  0.9315  0.6294  0.1493
 4712TIP3    H214059   2.103   5.643   2.556 -0.1738  0.6993  0.5381
 4713TIP3   OH214060   2.977   6.740   0.543  0.2576  0.1194 -0.2737
 4713TIP3    H114061   2.938   6.793   0.613  0.4724  1.9882 -1.5240
 4713TIP3    H214062   3.066   6.774   0.535  0.6446 -0.9451 -0.6039
 4714TIP3   OH214063   3.412   4.312   1.445  0.5850 -0.3172  0.1593
 4714TIP3    H114064   3.399   4.257   1.368  0.1731  0.6532 -0.4794
 4714TIP3    H214065   3.331   4.363   1.453  1.3955  1.0291  0.0443
 4715TIP3   OH214066   4.761   5.002   3.446 -0.0863  0.0659  0.4823
 4715TIP3    H114067   4.806   4.991   3.362 -2.8201  1.1210 -1.1956
 4715TIP3    H214068   4.814   5.066   3.493  0.9358  0.2345 -0.8705
 4716TIP3   OH214069   3.480   6.625   3.705 -0.4098  0.5593 -0.2317
 4716TIP3    H114070   3.547   6.558   3.689 -0.1452  0.0756  2.7200
 4716TIP3    H214071   3.412   6.607   3.640 -0.2085 -2.4062  0.3354
 4717TIP3   OH214072   3.289   5.438   1.488 -0.3232  0.3350 -0.1342
 4717TIP3    H114073   3.368   5.403   1.447 -0.2935  0.4305 -0.1569
 4717TIP3    H214074   3.255   5.365   1.540  0.5545  0.7406  1.0109
 4718TIP3   OH214075   4.118   6.093   2.976 -0.0021 -0.7044  0.8778
 4718TIP3    H114076   4.197   6.096   2.922 -0.2311  0.0696  0.5816
 4718TIP3    H214077   4.149   6.066   3.062  0.5218 -0.8363  0.6514
 4719TIP3   OH214078   4.916   6.938   4.063 -0.0179  0.3325  0.1072
 4719TIP3    H114079   5.006   6.952   4.035  0.4599 -0.4528  1.2206
 4719TIP3    H214080   4.869   6.913   3.983  0.8807  0.1337 -0.3579
 4720TIP3   OH214081   2.803   3.928   0.851 -0.7508 -0.3486 -0.2354
 4720TIP3    H114082   2.755   3.977   0.918 -1.6570 -3.5123  1.5840
 4720TIP3    H214083   2.877   3.888   0.899 -1.8115 -3.2440 -0.8762
 4721TIP3   OH214084   2.721   3.117   0.267 -0.3180 -0.3296 -0.3590
 4721TIP3    H114085   2.675   3.053   0.214  1.1738 -0.7731 -1.1424
 4721TIP3    H214086   2.786   3.155   0.209  0.1714  0.4347  0.6632
 4722TIP3   OH214087   2.748   6.509   1.429  0.3186  0.4952 -0.1554
 4722TIP3    H114088   2.659   6.476   1.418 -0.2908  1.4687  1.5773
 4722TIP3    H214089   2.773   6.481   1.517  2.0435 -0.4632 -0.9250
 4723TIP3   OH214090   2.204   4.881   3.171  0.0866 -0.1965 -0.3656
 4723TIP3    H114091   2.227   4.973   3.184 -0.8632  0.4800 -3.1751
 4723TIP3    H214092   2.122   4.869   3.220  0.7122  0.1838  0.7860
 4724TIP3   OH214093   4.608   5.057   2.407 -0.5323 -0.3372  0.0103
 4724TIP3    H114094   4.658   5.062   2.488 -0.4513 -0.4493 -0.0329
 4724TIP3    H214095   4.620   5.142   2.365 -1.1940 -0.0015  0.4835
 4725TIP3   OH214096   2.882   4.583   4.104  0.1705 -0.9211  0.3510
 4725TIP3    H114097   2.811   4.519   4.098 -0.5824  0.0802 -2.5202
 4725TIP3    H214098   2.955   4.535   4.143 -1.1049 -2.8618  0.4109
 4726TIP3   OH214099   3.607   5.220   1.165 -0.1019 -0.1190 -0.0610
 4726TIP3    H114100   3.555   5.155   1.118 -0.4243  1.2924 -1.7111
 4726TIP3    H214101   3.619   5.291   1.102  0.0593  1.5275  1.7819
 4727TIP3   OH214102   3.387   5.190   3.593  0.7933  0.5102 -0.1714
 4727TIP3    H114103   3.460   5.241   3.556  0.6542  0.1714 -0.9315
 4727TIP3    H214104   3.309   5.243   3.575  1.2012  2.6830  3.9580
 4728TIP3   OH214105   0.613   4.615   0.480 -0.2196  0.4379  0.0132
 4728TIP3    H114106   0.702   4.630   0.512 -0.2973  2.8549 -0.8185
 4728TIP3    H214107   0.620   4.617   0.385 -0.9945 -0.5217 -0.0760
 4729TIP3   OH214108   2.827   4.410   3.032  0.2856 -0.5924 -0.0765
 4729TIP3    H114109   2.900   4.393   3.092 -0.1661 -0.6417  0.4564
 4729TIP3    H214110   2.799   4.323   3.004 -0.0579 -0.6089  0.3078
 4730TIP3   OH214111   3.432   5.132   0.236  0.3924 -0.6439  0.1540
 4730TIP3    H114112   3.512   5.154   0.187  1.3174 -1.6376  1.1840
 4730TIP3    H214113   3.364   5.127   0.169  1.5978 -1.7983 -1.0278
 4731TIP3   OH214114   3.517   6.426   1.512  0.2193  0.1563 -0.8842
 4731TIP3    H114115   3.509   6.520   1.495  2.1184  1.1326  2.9628
 4731TIP3    H214116   3.611   6.409   1.509  0.0340 -1.2024  0.4646
 4732TIP3   OH214117   2.918   2.854   3.209  0.0548  0.0703  0.4478
 4732TIP3    H114118   2.973   2.825   3.282 -0.8588  1.5587  1.7555
 4732TIP3    H214119   2.828   2.843   3.241 -0.4202 -1.3821 -1.2931
 4733TIP3   OH214120   1.928   5.000   0.837 -0.1492  0.0191  0.2245
 4733TIP3    H114121   1.910   5.080   0.887 -1.6631  0.4953 -1.0342
 4733TIP3    H214122   1.947   4.934   0.904  1.4470  1.4888  1.2744
 4734TIP3   OH214123   3.166   4.798   1.037 -0.1919  0.0763  1.1639
 4734TIP3    H114124   3.173   4.706   1.063 -1.2289 -0.2924  0.2281
 4734TIP3    H214125   3.071   4.812   1.026  0.1104  0.5803 -1.0233
 4735TIP3   OH214126   4.323   4.084   3.832 -0.1766 -0.3013 -0.3799
 4735TIP3    H114127   4.300   4.175   3.814 -1.7683 -0.9674 -1.8369
 4735TIP3    H214128   4.356   4.085   3.922 -0.5991  1.6317 -0.2262
 4736TIP3   OH214129   3.362   1.780   1.552  0.2655 -0.2149  0.1112
 4736TIP3    H114130   3.273   1.776   1.589  0.7657  0.4208  1.4227
 4736TIP3    H214131   3.419   1.788   1.628  1.3387  1.1538 -0.8050
 4737TIP3   OH214132   3.191   5.642   1.942 -0.2391  0.6378 -0.1316
 4737TIP3    H114133   3.232   5.556   1.928 -1.7925  0.1075 -1.5476
 4737TIP3    H214134   3.207   5.661   2.035 -1.5812 -2.1007  0.7227
 4738TIP3   OH214135   4.038   6.009   3.760 -0.7121  0.2887 -0.0095
 4738TIP3    H114136   4.043   6.005   3.856 -1.2519  0.3130  0.0245
 4738TIP3    H214137   4.013   5.920   3.734  2.1809 -0.4898 -0.3340
 4739TIP3   OH214138   3.769   5.982   3.395  0.1094 -0.4610  0.1462
 4739TIP3    H114139   3.700   5.982   3.462  2.3232  1.5522  2.5176
 4739TIP3    H214140   3.830   5.914   3.423  0.3471 -0.5960 -0.6695
 4740TIP3   OH214141   3.601   4.804   2.354  0.6358  0.3635 -0.6120
 4740TIP3    H114142   3.525   4.844   2.313  0.2865  0.2321 -0.0880
 4740TIP3    H214143   3.625   4.863   2.425  0.0063 -0.4442  0.2786
 4741TIP3   OH214144   6.152   5.380   3.395  1.1082 -0.1638  0.7733
 4741TIP3    H114145   6.091   5.350   3.462  2.3576 -1.9136  1.1716
 4741TIP3    H214146   6.163   5.304   3.337  0.7602  1.0333 -0.8965
 4742TIP3   OH214147   3.796   6.382   1.537 -0.2436  0.0427 -0.2460
 4742TIP3    H114148   3.819   6.345   1.622 -1.4731  0.1975  0.1699
 4742TIP3    H214149   3.873   6.433   1.510  0.6247 -1.0330  0.1833
 4743TIP3   OH214150   3.874   5.803   1.697 -0.6807 -0.1056 -0.3309
 4743TIP3    H114151   3.808   5.814   1.766 -0.6118  0.5949 -0.3722
 4743TIP3    H214152   3.846   5.861   1.627  2.4413  3.8065  1.4842
 4744TIP3   OH214153   1.954   4.667   2.606  0.0189 -0.6452 -0.0393
 4744TIP3    H114154   1.923   4.664   2.515  0.4427 -0.3989 -0.1948
 4744TIP3    H214155   1.935   4.579   2.640  2.0682 -1.5521 -1.1131
 4745TIP3   OH214156   3.691   4.715   3.543  0.1882  0.4222  0.5847
 4745TIP3    H114157   3.689   4.807   3.568  0.5846  1.3378 -2.4623
 4745TIP3    H214158   3.632   4.710   3.467  0.9649 -1.6050  0.0753
 4746TIP3   OH214159   4.025   2.823   1.374  0.5668 -0.4224  0.3179
 4746TIP3    H114160   3.993   2.788   1.291  2.7115 -0.1317 -0.6582
 4746TIP3    H214161   3.978   2.907   1.384 -0.2233 -0.7867 -0.2337
 4747TIP3   OH214162   5.119   5.937   2.089 -0.0855 -0.4223  0.5581
 4747TIP3    H114163   5.087   5.887   2.014  0.6359 -1.6817  1.0649
 4747TIP3    H214164   5.212   5.914   2.094 -0.0002  0.1154  1.4740
 4748TIP3   OH214165   6.722   1.466   7.162  0.1599  0.2767  0.6715
 4748TIP3    H114166   6.649   1.486   7.104  1.1466  1.6552 -0.1213
 4748TIP3    H214167   6.685   1.408   7.228 -1.2017 -0.5469 -0.7799
 4749TIP3   OH214168   2.493   4.359   4.392 -0.0976  0.1372  0.3561
 4749TIP3    H114169   2.443   4.409   4.328 -0.3528  0.8972  1.1324
 4749TIP3    H214170   2.518   4.424   4.458  1.1725 -0.4141  0.4133
 4750TIP3   OH214171   5.120   6.042   2.460 -0.4115  0.5419 -0.6662
 4750TIP3    H114172   5.099   6.127   2.422 -0.5259  0.3308 -1.0864
 4750TIP3    H214173   5.172   5.998   2.392 -0.6377  0.1507 -0.5904
 4751TIP3   OH214174   6.294   5.291   1.829  0.1231  0.3376 -0.2078
 4751TIP3    H114175   6.223   5.256   1.775  0.3092  0.3210 -0.4403
 4751TIP3    H214176   6.249   5.340   1.898 -0.1426 -0.3434  0.1104
 4752TIP3   OH214177   5.622   5.060   1.683  0.4508 -0.0552 -0.1153
 4752TIP3    H114178   5.618   5.123   1.755  0.3140  0.8539 -0.9071
 4752TIP3    H214179   5.669   4.985   1.720 -0.5701 -0.0536  1.2432
 4753TIP3   OH214180   5.743   5.814   2.290  0.2614  0.0792  0.0942
 4753TIP3    H114181   5.685   5.762   2.235  0.2628  0.5533 -0.3606
 4753TIP3    H214182   5.704   5.902   2.289  0.7047  0.2787  0.2014
 4754TIP3   OH214183   5.790   5.231   2.919 -0.2051 -0.2310  0.3908
 4754TIP3    H114184   5.882   5.253   2.910 -0.4915  0.4448 -1.1658
 4754TIP3    H214185   5.751   5.303   2.968 -0.2217  0.3460 -0.4616
 4755TIP3   OH214186   3.653   4.976   3.588  0.1025  0.2367  0.3931
 4755TIP3    H114187   3.666   5.036   3.662 -2.5743  0.4900  0.7184
 4755TIP3    H214188   3.641   5.034   3.512  0.5225  0.0323  0.1682
 4756TIP3   OH214189   2.200   4.982   3.761  0.2993 -0.6223 -0.6320
 4756TIP3    H114190   2.249   5.052   3.804  1.2539 -0.3530 -2.1178
 4756TIP3    H214191   2.111   4.990   3.795  0.7005  0.5111  0.1694
 4757TIP3   OH214192   4.305   3.838   0.133 -0.2668  0.4177 -0.3875
 4757TIP3    H114193   4.266   3.828   0.219  0.6714  0.7890  0.0844
 4757TIP3    H214194   4.320   3.932   0.124 -0.9610  0.4509 -1.2160
 4758TIP3   OH214195   4.392   5.926   0.782 -0.0348  0.0425 -0.5591
 4758TIP3    H114196   4.393   5.835   0.751 -1.2381  0.1551 -0.9490
 4758TIP3    H214197   4.353   5.975   0.710 -2.9866  0.2951  1.1412
 4759TIP3   OH214198   3.341   5.846   1.072  0.0639 -0.2443 -0.2380
 4759TIP3    H114199   3.427   5.816   1.042  0.1747 -1.9831  1.6516
 4759TIP3    H214200   3.343   5.941   1.061  1.7724 -0.3939 -1.3741
 4760TIP3   OH214201   3.013   7.872   0.936  0.8155 -0.4228  0.4036
 4760TIP3    H114202   2.925   7.834   0.933  0.2623  0.9248 -1.2400
 4760TIP3    H214203   3.012   7.929   1.012  0.0619  0.0449  0.0497
 4761TIP3   OH214204   2.887   5.727   1.419 -0.5915  0.2074  0.2089
 4761TIP3    H114205   2.917   5.698   1.332 -1.5430 -0.7873  0.1917
 4761TIP3    H214206   2.962   5.714   1.476 -0.7668 -1.6898  0.0535
 4762TIP3   OH214207   2.394   6.124   1.967  0.2271 -0.3372  0.3594
 4762TIP3    H114208   2.315   6.164   1.931  0.2920 -0.2293  0.3370
 4762TIP3    H214209   2.422   6.061   1.900  1.0773  0.7833 -0.3607
 4763TIP3   OH214210   4.046   6.274   1.223  0.1503 -0.0032  0.2430
 4763TIP3    H114211   4.024   6.246   1.312  1.7175  0.1764  0.6971
 4763TIP3    H214212   3.971   6.328   1.196 -0.7903 -0.8608  1.0676
 4764TIP3   OH214213   5.677   7.396   0.442 -0.5349  0.2317  0.7408
 4764TIP3    H114214   5.624   7.323   0.474  0.7309 -1.5045 -1.0251
 4764TIP3    H214215   5.762   7.385   0.485  0.9609 -1.7256 -2.5947
 4765TIP3   OH214216   1.169   4.859   2.345 -0.4260 -0.5110  0.1406
 4765TIP3    H114217   1.212   4.773   2.342  2.1399  0.6791  0.9145
 4765TIP3    H214218   1.134   4.865   2.434  1.8316  0.3143  1.0171
 4766TIP3   OH214219   1.732   6.914   0.866  0.1382  0.1251  0.2147
 4766TIP3    H114220   1.810   6.954   0.903  1.4619 -1.0557 -1.1889
 4766TIP3    H214221   1.761   6.827   0.837 -1.8587 -0.6061  0.2722
 4767TIP3   OH214222   3.647   6.745   2.202 -0.1275 -0.1023  0.0030
 4767TIP3    H114223   3.636   6.803   2.277 -2.2904  0.2480 -0.5655
 4767TIP3    H214224   3.580   6.677   2.214  0.0304 -0.4782 -1.1929
 4768TIP3   OH214225   1.838   4.080   1.690 -0.6237  0.5100  0.2009
 4768TIP3    H114226   1.812   4.006   1.745 -0.4627 -0.1022 -0.5413
 4768TIP3    H214227   1.812   4.056   1.602  0.1919  0.9709 -0.1765
 4769TIP3   OH214228   2.409   4.367   2.412  0.3168 -0.3185 -0.4448
 4769TIP3    H114229   2.413   4.397   2.503  0.1427 -1.9418  0.1159
 4769TIP3    H214230   2.441   4.441   2.361  2.0069  0.0396  1.0711
 4770TIP3   OH214231   2.726   6.038   2.531  0.8103  0.3212  0.3860
 4770TIP3    H114232   2.634   6.048   2.556  0.2719 -0.8161 -1.0702
 4770TIP3    H214233   2.724   5.981   2.454  2.8505 -0.9409  1.2444
 4771TIP3   OH214234   3.616   5.553   3.791  0.3841 -0.8199 -0.1024
 4771TIP3    H114235   3.650   5.615   3.856  0.1225 -0.8408  0.0549
 4771TIP3    H214236   3.557   5.496   3.841 -0.8044 -0.0384 -0.6030
 4772TIP3   OH214237   3.996   5.442   3.159 -0.1514  0.7401 -0.1524
 4772TIP3    H114238   4.051   5.502   3.209  0.1225  1.6325 -1.5113
 4772TIP3    H214239   4.021   5.456   3.068  1.3559 -2.8539 -0.3949
 4773TIP3   OH214240   4.514   6.975   7.005  0.0906 -0.3782 -0.0532
 4773TIP3    H114241   4.455   6.945   7.074 -1.1742 -0.8240 -1.2854
 4773TIP3    H214242   4.552   6.895   6.970  2.3477 -0.0153  1.4999
 4774TIP3   OH214243   2.224   2.860   1.432 -0.4020 -0.4037 -0.1869
 4774TIP3    H114244   2.300   2.917   1.425 -0.0372 -1.0145 -1.3671
 4774TIP3    H214245   2.254   2.776   1.397 -0.9540 -1.3050  1.4286
 4775TIP3   OH214246   3.954   5.702   3.391  0.6103  0.0591  0.3946
 4775TIP3    H114247   3.942   5.696   3.297  1.1272 -0.7067  0.3758
 4775TIP3    H214248   4.035   5.753   3.402 -0.5313  1.8971  0.4625
 4776TIP3   OH214249   3.667   2.584   1.869 -0.2543 -0.0977  0.3440
 4776TIP3    H114250   3.644   2.674   1.849 -0.8178 -0.4178 -0.4476
 4776TIP3    H214251   3.587   2.546   1.905  0.7380  0.4841  3.3490
 4777TIP3   OH214252   3.580   4.395   2.323 -0.1743 -0.1362 -0.1021
 4777TIP3    H114253   3.500   4.447   2.325 -0.6537 -0.8227 -0.9247
 4777TIP3    H214254   3.650   4.455   2.349 -0.8630  0.6432 -0.0703
 4778TIP3   OH214255   3.750   6.073   0.587 -0.2447 -0.0161 -0.0235
 4778TIP3    H114256   3.797   6.045   0.508 -0.7182 -0.7139 -0.0595
 4778TIP3    H214257   3.658   6.072   0.562 -0.3569  0.2983  0.3744
 4779TIP3   OH214258   3.039   7.302   1.689  0.0119  0.0830 -0.6472
 4779TIP3    H114259   3.011   7.336   1.774 -2.0480  0.6414 -1.5252
 4779TIP3    H214260   3.113   7.357   1.664 -1.1017  1.7109 -0.4467
 4780TIP3   OH214261   4.009   6.256   2.014  0.1117 -0.0710 -0.3188
 4780TIP3    H114262   4.022   6.348   1.991  1.6493 -0.3506 -0.5792
 4780TIP3    H214263   3.945   6.259   2.086  0.5860  1.2373  0.0685
 4781TIP3   OH214264   2.015   4.427   1.349 -0.3873 -0.5420  0.6440
 4781TIP3    H114265   2.039   4.506   1.397 -0.8505 -0.7747  1.2683
 4781TIP3    H214266   1.919   4.426   1.351 -0.5892  1.1842 -3.1233
 4782TIP3   OH214267   2.706   4.788   1.713 -0.7585 -0.5983 -0.1695
 4782TIP3    H114268   2.667   4.779   1.626 -0.1691  0.6348 -0.5641
 4782TIP3    H214269   2.776   4.723   1.714 -1.8161 -1.7578 -0.0090
 4783TIP3   OH214270   1.799   8.017   1.392  0.5314 -0.5667 -0.2465
 4783TIP3    H114271   1.860   8.029   1.319  0.0311 -1.4828 -0.8317
 4783TIP3    H214272   1.806   7.924   1.414 -0.3758 -0.6009 -0.0796
 4784TIP3   OH214273   3.547   4.591   2.052 -0.0012  0.7013  0.0357
 4784TIP3    H114274   3.536   4.593   2.147  2.1884 -0.1344  0.3500
 4784TIP3    H214275   3.640   4.613   2.038 -0.4004  1.3110 -1.9385
 4785TIP3   OH214276   2.800   2.820   1.232  0.1673  0.0532  0.2840
 4785TIP3    H114277   2.769   2.908   1.212  1.9781  1.5552  3.6412
 4785TIP3    H214278   2.722   2.765   1.226 -1.0971  1.9426 -1.2874
 4786TIP3   OH214279   3.831   6.820   2.806  0.6351 -0.1585 -0.0752
 4786TIP3    H114280   3.768   6.874   2.853  0.5654 -0.1352 -0.1974
 4786TIP3    H214281   3.898   6.800   2.872  0.2855 -0.5365  0.1725
 4787TIP3   OH214282   6.346   0.709   1.791  0.0493  0.5051 -0.5934
 4787TIP3    H114283   6.358   0.787   1.844  2.3098 -0.2001  0.0057
 4787TIP3    H214284   6.332   0.742   1.702  0.6065  1.6115 -0.2786
 4788TIP3   OH214285   1.805   7.620   1.814  0.0796 -0.0964 -0.4800
 4788TIP3    H114286   1.757   7.588   1.737  1.2762 -1.6922 -0.5795
 4788TIP3    H214287   1.742   7.617   1.885 -0.9046  0.9504 -1.2785
 4789TIP3   OH214288   3.550   5.562   5.141 -0.0703  0.0640 -0.0227
 4789TIP3    H114289   3.606   5.504   5.193  0.4683  0.6734  0.0746
 4789TIP3    H214290   3.508   5.619   5.204  1.8869  1.9404 -0.3734
 4790TIP3   OH214291   4.747   5.282   1.614 -0.0194 -0.7527  0.1144
 4790TIP3    H114292   4.754   5.272   1.519 -0.6254 -1.6778  0.1653
 4790TIP3    H214293   4.797   5.209   1.650 -0.3201 -0.7646  0.5090
 4791TIP3   OH214294   1.938   5.399   3.619 -0.1188 -0.3820  0.2052
 4791TIP3    H114295   1.899   5.321   3.659 -2.8302  0.1538 -1.2346
 4791TIP3    H214296   1.865   5.461   3.611  1.6245  1.6936 -0.1801
 4792TIP3   OH214297   2.117   6.309   0.928  0.2471  0.3890 -0.2348
 4792TIP3    H114298   2.086   6.343   0.844  0.6192 -0.7421 -0.8425
 4792TIP3    H214299   2.177   6.238   0.904 -0.7941 -0.9320  1.0132
 4793TIP3   OH214300   3.919   3.230   1.240  0.2391 -0.3109  0.5357
 4793TIP3    H114301   3.843   3.252   1.187  0.1819 -0.1397  0.6878
 4793TIP3    H214302   3.883   3.188   1.318  0.3325 -0.7306  0.3570
 4794TIP3   OH214303   4.295   3.839   1.675 -0.1642  0.3600  0.1420
 4794TIP3    H114304   4.290   3.783   1.752 -1.0357  1.4371  0.8863
 4794TIP3    H214305   4.253   3.789   1.606 -1.8567  0.4936  1.0531
 4795TIP3   OH214306   4.606   6.645   3.656 -0.5472 -0.4427 -0.3652
 4795TIP3    H114307   4.531   6.615   3.708 -0.7508 -0.9977 -0.9674
 4795TIP3    H214308   4.601   6.593   3.575  0.8062 -0.8716 -0.1806
 4796TIP3   OH214309   2.891   4.986   5.099 -0.1361 -0.2193  0.8647
 4796TIP3    H114310   2.890   5.052   5.030 -1.4687 -0.4514  0.6510
 4796TIP3    H214311   2.949   4.918   5.066 -0.7658 -0.3226 -0.0241
 4797TIP3   OH214312   3.973   3.925   0.134 -0.4963 -0.6858 -0.2542
 4797TIP3    H114313   4.016   3.840   0.129  0.3262 -0.3472  0.8649
 4797TIP3    H214314   4.022   3.972   0.201 -1.1900  0.5309 -0.6009
 4798TIP3   OH214315   5.344   5.149   2.215 -0.2670 -0.1596  0.1122
 4798TIP3    H114316   5.290   5.091   2.268 -0.0379  0.2790  0.8272
 4798TIP3    H214317   5.333   5.235   2.254  0.5496  0.0210 -0.0441
 4799TIP3   OH214318   2.753   6.119   2.173  0.0452 -0.1152  0.3439
 4799TIP3    H114319   2.658   6.103   2.174 -0.3196  1.9047  0.6612
 4799TIP3    H214320   2.772   6.155   2.260  1.3477 -1.7059  0.7423
 4800TIP3   OH214321   4.725   7.261   2.355  0.1998 -0.7418 -0.1857
 4800TIP3    H114322   4.636   7.293   2.341  0.1262 -0.3895  0.9639
 4800TIP3    H214323   4.737   7.267   2.450  1.7048 -0.1015 -0.4078
 4801TIP3   OH214324   3.840   4.694   1.281  0.6287 -0.5704  0.1020
 4801TIP3    H114325   3.798   4.713   1.197 -0.7340  0.5527  1.0312
 4801TIP3    H214326   3.917   4.642   1.257  0.4490  0.0221 -1.8719
 4802TIP3   OH214327   7.250   5.282   1.358  0.1441  0.3800 -0.1615
 4802TIP3    H114328   7.319   5.224   1.391 -1.0108 -0.4320  0.8732
 4802TIP3    H214329   7.228   5.247   1.272 -0.0503 -0.3102  0.1640
 4803TIP3   OH214330   2.872   3.974   5.047 -0.3579 -0.2264  0.3834
 4803TIP3    H114331   2.868   3.894   4.994  1.3478  0.0255 -0.1731
 4803TIP3    H214332   2.829   4.041   4.994 -0.8837 -0.5547  0.4015
 4804TIP3   OH214333   3.325   5.596   3.577  0.4208 -0.7085  0.5129
 4804TIP3    H114334   3.405   5.645   3.556 -1.5171  2.2184 -0.5238
 4804TIP3    H214335   3.283   5.648   3.645 -2.3339 -0.1575 -1.5185
 4805TIP3   OH214336   5.548   5.887   4.758 -0.3606 -0.4865  0.6886
 4805TIP3    H114337   5.613   5.876   4.828  0.4852 -0.7562 -0.1299
 4805TIP3    H214338   5.528   5.797   4.731 -0.4933 -0.3745  0.4143
 4806TIP3   OH214339   4.706   4.262   3.033 -0.8843  0.2287  0.2985
 4806TIP3    H114340   4.780   4.312   3.069 -1.0869  1.1185 -0.5153
 4806TIP3    H214341   4.630   4.292   3.083 -1.0006  0.7270 -0.1670
 4807TIP3   OH214342   5.623   5.128   2.403  0.6876 -0.0526 -0.3760
 4807TIP3    H114343   5.592   5.046   2.441  0.7463 -0.2659 -0.7872
 4807TIP3    H214344   5.711   5.139   2.438  0.3561  0.2775  0.3654
 4808TIP3   OH214345   3.553   5.337   1.433  0.0566 -0.2200  0.6267
 4808TIP3    H114346   3.613   5.290   1.491  2.1760  0.2803 -1.1081
 4808TIP3    H214347   3.573   5.304   1.346 -3.0398 -0.9036  0.1025
 4809TIP3   OH214348   4.492   4.923   3.107 -0.0547 -0.0465  0.6397
 4809TIP3    H114349   4.569   4.872   3.080  0.3552 -0.3934  2.3903
 4809TIP3    H214350   4.522   5.014   3.104  0.1025 -0.1063  0.3227
 4810TIP3   OH214351   5.223   4.983   4.212  0.5756 -0.0188 -0.0159
 4810TIP3    H114352   5.242   4.953   4.301  1.9632  0.1247 -0.2538
 4810TIP3    H214353   5.261   4.915   4.156 -1.3542 -0.7347 -0.5030
 4811TIP3   OH214354   3.572   4.155   3.027 -0.1642  0.2409  0.6222
 4811TIP3    H114355   3.530   4.071   3.008  0.9721 -0.4257  1.0151
 4811TIP3    H214356   3.664   4.134   3.036  0.1879  1.6042  0.3415
 4812TIP3   OH214357   2.703   4.274   4.658 -0.0324 -0.0488  0.4616
 4812TIP3    H114358   2.759   4.276   4.736 -0.8737 -2.2075  1.1582
 4812TIP3    H214359   2.653   4.193   4.667 -1.3951  0.5574 -1.4645
 4813TIP3   OH214360   3.325   6.595   4.566 -0.2523 -0.3079 -0.3352
 4813TIP3    H114361   3.268   6.611   4.641  0.2517  0.9221 -0.2130
 4813TIP3    H214362   3.268   6.605   4.490 -0.6115 -0.9000 -0.1486
 4814TIP3   OH214363   4.947   4.193   2.631  0.5852  0.6475 -0.0351
 4814TIP3    H114364   4.903   4.180   2.547  1.8510 -0.6772 -0.5052
 4814TIP3    H214365   4.875   4.200   2.694 -0.3504  0.1986 -1.0215
 4815TIP3   OH214366   2.870   7.077   2.038 -0.2307 -0.1764  0.2645
 4815TIP3    H114367   2.958   7.041   2.028 -0.2627 -0.0780 -0.4394
 4815TIP3    H214368   2.875   7.163   1.996 -0.9578 -0.6487 -0.8108
 4816TIP3   OH214369   3.447   5.429   3.986  0.1254  0.5027  0.3481
 4816TIP3    H114370   3.413   5.352   4.032  0.4139 -0.3212 -0.7988
 4816TIP3    H214371   3.491   5.480   4.054 -0.8065  0.0742  1.2769
 4817TIP3   OH214372   2.102   7.270   0.255 -0.0145  0.3360  0.2981
 4817TIP3    H114373   2.150   7.326   0.193  2.0931 -0.3336  1.2784
 4817TIP3    H214374   2.058   7.331   0.314  1.3949  0.9787  0.7034
 4818TIP3   OH214375   3.057   5.430   2.529 -0.8305 -0.5224  0.0379
 4818TIP3    H114376   3.072   5.342   2.494  0.1968 -0.3460  0.0396
 4818TIP3    H214377   3.122   5.485   2.485 -0.9336  0.0890  0.6479
 4819TIP3   OH214378   2.047   7.654   1.504  0.0702  0.1914 -0.0614
 4819TIP3    H114379   2.057   7.581   1.443  1.3540 -0.0819  0.4630
 4819TIP3    H214380   2.065   7.616   1.590 -0.9075  0.7586  0.3970
 4820TIP3   OH214381   3.759   6.285   2.880 -0.1200 -0.0070  0.1610
 4820TIP3    H114382   3.808   6.321   2.806 -0.4781 -1.2576 -0.7165
 4820TIP3    H214383   3.821   6.288   2.953  0.4650  0.6366 -0.3462
 4821TIP3   OH214384   3.651   6.150   3.862 -0.2038  0.1894  0.0663
 4821TIP3    H114385   3.569   6.199   3.855 -1.0813 -0.9800  1.9676
 4821TIP3    H214386   3.718   6.217   3.868 -0.9456  1.1662 -2.0903
 4822TIP3   OH214387   5.555   6.138   2.558 -0.6196 -0.0971 -0.1319
 4822TIP3    H114388   5.557   6.233   2.547 -1.8372 -0.0095  0.3317
 4822TIP3    H214389   5.477   6.122   2.610  0.1892 -1.2657  0.7360
 4823TIP3   OH214390   6.142   5.367   0.763  0.1654  0.3104  0.2939
 4823TIP3    H114391   6.091   5.421   0.823 -0.6487 -0.1587  0.0324
 4823TIP3    H214392   6.196   5.311   0.820 -0.2645  0.1921  0.5808
 4824TIP3   OH214393   3.457   3.271   1.040  0.4021 -0.2928  0.5211
 4824TIP3    H114394   3.422   3.251   1.127 -0.3869 -2.7355 -0.3260
 4824TIP3    H214395   3.383   3.309   0.992  0.4480 -0.2620  0.4738
 4825TIP3   OH214396   4.380   6.765   0.737  0.4767  0.4032 -0.1727
 4825TIP3    H114397   4.413   6.843   0.781 -0.0201  0.3391  0.3200
 4825TIP3    H214398   4.336   6.715   0.806  1.2916 -0.5959 -0.3676
 4826TIP3   OH214399   5.603   3.186   0.773 -0.6029 -0.1240  0.1882
 4826TIP3    H114400   5.614   3.104   0.725  1.3425  0.2360 -0.0142
 4826TIP3    H214401   5.651   3.173   0.854  0.6473  1.2012 -0.3212
 4827TIP3   OH214402   2.252   5.937   0.511 -0.0199 -0.1034 -0.2295
 4827TIP3    H114403   2.186   5.867   0.514  0.0119 -0.1514 -0.5619
 4827TIP3    H214404   2.255   5.961   0.418  1.2417 -0.8907 -0.4026
 4828TIP3   OH214405   4.106   4.673   1.224 -0.4039  0.0811 -1.0854
 4828TIP3    H114406   4.083   4.581   1.213  1.7801 -0.6148 -0.1411
 4828TIP3    H214407   4.167   4.674   1.297  0.1727  2.1959 -1.5584
 4829TIP3   OH214408   1.651   7.021   2.233  0.4160 -0.9382 -0.0919
 4829TIP3    H114409   1.733   6.978   2.259 -0.6077 -2.4405  0.7055
 4829TIP3    H214410   1.669   7.056   2.146  2.6709  0.8201  1.0217
 4830TIP3   OH214411   4.214   5.048   2.821  0.2981 -0.0263  0.1731
 4830TIP3    H114412   4.204   5.072   2.729  0.3602 -0.1463  0.1348
 4830TIP3    H214413   4.242   5.129   2.864  0.1192  0.0668  0.1139
 4831TIP3   OH214414   4.739   5.893   1.827 -0.3029 -0.1094 -0.2381
 4831TIP3    H114415   4.748   5.986   1.846 -1.0844 -0.4929  2.2418
 4831TIP3    H214416   4.656   5.886   1.780 -0.1645  0.4514 -0.5734
 4832TIP3   OH214417   2.376   1.000   6.907 -0.0746  0.1250  0.2262
 4832TIP3    H114418   2.424   0.931   6.861  1.4729  1.8238 -0.7904
 4832TIP3    H214419   2.304   1.023   6.848  1.0392  1.2669 -0.7346
 4833TIP3   OH214420   5.957   4.798   1.221 -0.0344  0.3359 -0.0845
 4833TIP3    H114421   5.863   4.787   1.210 -0.4744  2.7832  0.8174
 4833TIP3    H214422   5.973   4.780   1.314 -0.1661  2.9453  0.5019
 4834TIP3   OH214423   5.295   5.399   2.313  0.3699 -0.5513  0.1191
 4834TIP3    H114424   5.289   5.494   2.308  1.2637 -0.5401 -0.7637
 4834TIP3    H214425   5.245   5.376   2.392  0.9467  0.7257  0.8591
 4835TIP3   OH214426   6.245   4.093   3.244 -0.3216 -0.0125  0.1027
 4835TIP3    H114427   6.247   4.038   3.323 -0.2807 -0.3116 -0.1065
 4835TIP3    H214428   6.245   4.031   3.171  2.3091  0.2697 -0.1780
 4836TIP3   OH214429   2.662   4.735   4.519 -0.0071  0.4662  0.1242
 4836TIP3    H114430   2.620   4.649   4.528  1.0602 -0.1939 -0.9669
 4836TIP3    H214431   2.706   4.749   4.604  3.0805 -1.9040 -0.9750
 4837TIP3   OH214432   5.498   6.946   1.982  0.7702  0.2199  0.2431
 4837TIP3    H114433   5.578   6.933   2.033 -0.3976 -0.5679  1.9237
 4837TIP3    H214434   5.444   7.004   2.036  0.2456  0.8165 -0.9136
 4838TIP3   OH214435   3.281   4.518   3.323 -0.2312 -0.3664  0.6437
 4838TIP3    H114436   3.327   4.472   3.253  1.0795  0.1243  1.1796
 4838TIP3    H214437   3.234   4.449   3.370  0.8317 -1.0195  0.7556
 4839TIP3   OH214438   2.399   7.354   3.368  0.5831 -0.2919  0.8496
 4839TIP3    H114439   2.450   7.283   3.407 -0.4586 -0.3822  2.0763
 4839TIP3    H214440   2.316   7.314   3.342  0.1328  0.3833  1.2036
 4840TIP3   OH214441   2.247   3.975   3.411 -0.1841 -0.3932 -0.2606
 4840TIP3    H114442   2.175   3.916   3.392  0.4857 -1.7025  1.1784
 4840TIP3    H214443   2.234   4.002   3.502  1.7199 -1.5260  0.3859
 4841TIP3   OH214444   6.580   4.513   1.996 -0.4397 -0.5241  0.0092
 4841TIP3    H114445   6.530   4.551   2.068  0.5616 -0.2613  0.5810
 4841TIP3    H214446   6.604   4.587   1.941 -1.3110 -0.7411 -0.6617
 4842TIP3   OH214447   1.604   1.016   7.235 -0.0082  0.9224 -0.6306
 4842TIP3    H114448   1.539   1.085   7.225 -0.4417  0.7629  0.9503
 4842TIP3    H214449   1.688   1.058   7.217 -0.1010  2.2867  1.8522
 4843TIP3   OH214450   3.353   6.848   3.030  0.3160  0.1075  0.0709
 4843TIP3    H114451   3.440   6.811   3.016  0.4026  0.0668  0.6744
 4843TIP3    H214452   3.294   6.773   3.031  0.3388  0.0900  0.1163
 4844TIP3   OH214453   2.524   7.304   1.755 -0.3336  0.1699 -0.2891
 4844TIP3    H114454   2.610   7.305   1.711 -0.8475  1.1252 -1.3037
 4844TIP3    H214455   2.505   7.211   1.767 -0.3923 -0.1586 -2.5784
 4845TIP3   OH214456   3.796   3.935   2.890  0.0181 -0.0167  0.0886
 4845TIP3    H114457   3.753   3.861   2.847  1.0598 -0.3812 -0.3358
 4845TIP3    H214458   3.797   3.912   2.983  0.1918 -0.4650 -0.0232
 4846TIP3   OH214459   3.112   6.814   3.713 -0.1004 -0.0788 -0.3938
 4846TIP3    H114460   3.160   6.820   3.796 -0.7221 -0.1817 -0.0314
 4846TIP3    H214461   3.173   6.769   3.654  0.6797  0.7509 -0.2412
 4847TIP3   OH214462   5.112   6.862   1.954 -0.1387 -0.1106 -0.1049
 4847TIP3    H114463   5.152   6.802   1.890 -0.1880 -1.9942  1.5860
 4847TIP3    H214464   5.030   6.819   1.978 -1.3046  1.8046 -0.5947
 4848TIP3   OH214465   8.758   4.150   6.852  0.2142 -0.2773 -0.0599
 4848TIP3    H114466   8.806   4.068   6.842  1.4659  0.4990 -0.6322
 4848TIP3    H214467   8.766   4.192   6.766 -1.0764  0.0923 -0.0063
 4849TIP3   OH214468   7.458   0.126   1.809  0.0181  0.1838  0.6322
 4849TIP3    H114469   7.458   0.185   1.885  1.6005  1.9116 -0.6622
 4849TIP3    H214470   7.526   0.161   1.752  0.3872 -2.4387 -0.5747
 4850TIP3   OH214471   5.982   6.089   3.430  0.6947  0.2277  0.6222
 4850TIP3    H114472   5.993   6.056   3.340 -0.2770 -0.5555  0.7802
 4850TIP3    H214473   6.066   6.129   3.451  0.3211  2.1707 -1.3510
 4851TIP3   OH214474   2.664   7.102   0.828  0.4209  0.1618  0.0242
 4851TIP3    H114475   2.699   7.070   0.745 -2.0185  0.6625 -1.2425
 4851TIP3    H214476   2.590   7.158   0.803  1.3747  2.6232  2.4081
 4852TIP3   OH214477   4.244   6.108   1.934  0.0533  0.3501 -0.1870
 4852TIP3    H114478   4.217   6.028   1.889  1.1730 -0.9995  1.4642
 4852TIP3    H214479   4.162   6.151   1.957 -0.5819 -0.7682 -0.3314
 4853TIP3   OH214480   2.680   5.174   2.994  0.4279  0.6505 -0.5709
 4853TIP3    H114481   2.654   5.100   3.048 -1.3295  1.1862 -0.6294
 4853TIP3    H214482   2.774   5.183   3.007  0.4296 -0.7883  0.4264
 4854TIP3   OH214483   5.184   7.288   2.794 -0.3503  0.1144 -0.2974
 4854TIP3    H114484   5.171   7.383   2.789 -1.8815 -0.0999 -0.5860
 4854TIP3    H214485   5.265   7.278   2.844  0.3771  1.5905 -1.1378
 4855TIP3   OH214486   2.872   7.518   2.505  0.0832 -0.1040 -0.0807
 4855TIP3    H114487   2.954   7.538   2.549 -0.3146 -1.5347  1.3333
 4855TIP3    H214488   2.805   7.531   2.573 -0.7178 -0.4005 -0.8065
 4856TIP3   OH214489   3.476   2.807   2.296  0.0107  0.6489 -0.3198
 4856TIP3    H114490   3.533   2.884   2.298  0.7381  0.2215 -2.5031
 4856TIP3    H214491   3.391   2.842   2.270 -0.4290  1.1199  1.7112
 4857TIP3   OH214492   2.207   4.573   1.557 -0.2752 -0.3214  0.1935
 4857TIP3    H114493   2.269   4.641   1.585  0.8139 -0.2929 -2.1750
 4857TIP3    H214494   2.137   4.621   1.512 -0.1046 -0.6609 -0.4413
 4858TIP3   OH214495   4.579   1.474   2.318 -0.3975  0.1886 -0.4106
 4858TIP3    H114496   4.625   1.537   2.261 -1.8167  1.6307  0.0078
 4858TIP3    H214497   4.590   1.510   2.406 -3.7622  1.4794 -0.4753
 4859TIP3   OH214498   2.199   5.478   2.134 -0.1255  0.1419 -0.0919
 4859TIP3    H114499   2.290   5.507   2.141 -0.0355  0.2384 -1.5488
 4859TIP3    H214500   2.205   5.388   2.101 -0.4772 -0.8900  2.5096
 4860TIP3   OH214501   3.737   3.248   4.774 -0.7447 -0.1504 -0.2328
 4860TIP3    H114502   3.787   3.329   4.777 -2.0580  0.6737 -0.0417
 4860TIP3    H214503   3.695   3.242   4.860  0.3472 -1.6891  0.2066
 4861TIP3   OH214504   3.031   5.342   0.412 -0.7263 -0.0851  0.0095
 4861TIP3    H114505   3.017   5.252   0.382  0.0880 -0.3340  0.3333
 4861TIP3    H214506   3.016   5.338   0.507  0.2139 -0.0871  0.1646
 4862TIP3   OH214507   2.470   4.849   2.652  0.6922  0.0269 -0.3752
 4862TIP3    H114508   2.516   4.872   2.732  1.0280  2.8515 -1.3437
 4862TIP3    H214509   2.379   4.874   2.669  0.2937 -1.6219 -0.0107
 4863TIP3   OH214510   2.611   5.278   0.130 -0.4766  0.6558  0.0623
 4863TIP3    H114511   2.550   5.214   0.165 -0.8033  0.2085 -1.2890
 4863TIP3    H214512   2.672   5.226   0.076 -1.1695  1.5398 -1.6107
 4864TIP3   OH214513   4.505   5.671   1.407 -0.1160  0.4028  0.5559
 4864TIP3    H114514   4.589   5.639   1.375  0.4609  1.0237  1.4263
 4864TIP3    H214515   4.508   5.656   1.502 -1.1007  0.1648  0.5537
 4865TIP3   OH214516   1.620   3.977   2.124  0.4464 -0.3697  0.7723
 4865TIP3    H114517   1.686   3.949   2.061  0.6590  0.2158  0.7380
 4865TIP3    H214518   1.662   3.966   2.209 -0.3015 -2.4524  0.9111
 4866TIP3   OH214519   1.701   4.700  -0.000  0.5386 -0.6720  0.0103
 4866TIP3    H114520   1.672   4.693   0.091  2.4381 -2.2926  0.5402
 4866TIP3    H214521   1.621   4.698  -0.052 -0.6623  1.6246  1.6813
 4867TIP3   OH214522   1.756   4.241   0.769 -0.0868 -0.5520 -0.3870
 4867TIP3    H114523   1.804   4.294   0.705  0.9865 -0.5647  0.3959
 4867TIP3    H214524   1.719   4.169   0.718  3.4605 -2.4074 -0.5304
 4868TIP3   OH214525   2.042   5.594   1.573  1.1703  0.2362  0.4052
 4868TIP3    H114526   2.069   5.502   1.566  0.6988  0.0931  0.4347
 4868TIP3    H214527   1.989   5.596   1.653 -0.5009  0.1153 -0.6826
 4869TIP3   OH214528   4.125   3.135   2.663 -0.0367 -0.2185 -0.2222
 4869TIP3    H114529   4.101   3.048   2.632 -0.2369  0.2602 -1.4366
 4869TIP3    H214530   4.146   3.184   2.583 -2.0464  1.5012  0.2671
 4870TIP3   OH214531   2.039   7.562   1.065 -0.2150  0.2039  0.7223
 4870TIP3    H114532   1.982   7.552   0.988 -1.1714  0.4171  1.3935
 4870TIP3    H214533   2.105   7.494   1.055  0.5258  1.1283 -1.0295
 4871TIP3   OH214534   4.649   4.765   2.326 -0.1312  0.2509  0.0833
 4871TIP3    H114535   4.640   4.859   2.342 -0.5531  0.7903 -3.0649
 4871TIP3    H214536   4.736   4.744   2.360 -0.2965  1.6417  1.4266
 4872TIP3   OH214537   3.839   5.084   4.478  0.3559 -0.4306 -0.0606
 4872TIP3    H114538   3.807   5.174   4.487 -0.7281 -0.5630 -2.3135
 4872TIP3    H214539   3.866   5.059   4.567  1.2063  2.2949  0.4949
 4873TIP3   OH214540   2.659   6.362   4.824  0.3843  0.3588 -0.5470
 4873TIP3    H114541   2.652   6.346   4.729 -0.8791  1.1962 -0.6020
 4873TIP3    H214542   2.750   6.342   4.844  0.6636  0.1363 -1.9368
 4874TIP3   OH214543   1.858   5.613   1.353  0.1693  0.3646  0.5702
 4874TIP3    H114544   1.900   5.596   1.437  1.0479 -0.5022 -0.0435
 4874TIP3    H214545   1.919   5.669   1.306  0.4159 -0.4844 -0.1269
 4875TIP3   OH214546   5.177   5.045   5.036  0.1738 -0.0662 -0.1364
 4875TIP3    H114547   5.254   5.001   5.071 -0.8204 -2.7671 -1.2510
 4875TIP3    H214548   5.137   5.087   5.112 -0.0467 -2.9237  1.3942
 4876TIP3   OH214549   6.797   6.749   3.405 -0.5634 -0.1950 -0.0542
 4876TIP3    H114550   6.850   6.671   3.419 -1.5882 -0.7235  1.0251
 4876TIP3    H214551   6.709   6.723   3.431 -1.2771  0.7913 -1.4056
 4877TIP3   OH214552   6.806   6.150   1.343 -0.1464 -0.6261 -0.0644
 4877TIP3    H114553   6.763   6.176   1.424 -0.4218 -0.1450 -0.3601
 4877TIP3    H214554   6.881   6.098   1.371  0.1866  0.1623  0.5210
 4878TIP3   OH214555   7.646   7.596   1.080  0.7633 -0.6214  0.0739
 4878TIP3    H114556   7.589   7.673   1.088  1.0872 -0.1877 -1.6868
 4878TIP3    H214557   7.734   7.631   1.091  0.8999 -0.7740 -0.5523
 4879TIP3   OH214558   2.170   4.378   2.252  0.2814 -0.6814 -0.0524
 4879TIP3    H114559   2.258   4.347   2.273  1.0905 -0.2518 -2.6525
 4879TIP3    H214560   2.183   4.449   2.190 -1.8671  0.1146  0.3520
 4880TIP3   OH214561   7.023   4.746   0.572  0.3239  0.2904  0.4651
 4880TIP3    H114562   7.016   4.815   0.507  0.1052 -0.6050 -0.4838
 4880TIP3    H214563   7.037   4.666   0.521 -0.4227 -0.5126  1.4827
 4881TIP3   OH214564   4.756   5.053   2.647  0.5998  0.2839 -0.4284
 4881TIP3    H114565   4.766   5.116   2.718  1.0823  0.4082 -0.5994
 4881TIP3    H214566   4.780   4.969   2.686 -0.1245  0.1889 -0.1789
 4882TIP3   OH214567   3.168   2.410   2.543 -0.3537 -0.1295  0.1808
 4882TIP3    H114568   3.170   2.505   2.538 -2.7693 -0.1332 -1.9229
 4882TIP3    H214569   3.174   2.381   2.452 -3.2664 -1.8398  0.4739
 4883TIP3   OH214570   4.768   4.956   1.966 -0.2865 -0.4047 -0.5193
 4883TIP3    H114571   4.850   4.963   1.916  0.0489  1.1580  0.2072
 4883TIP3    H214572   4.722   4.882   1.926  0.0843  0.6149 -2.9870
 4884TIP3   OH214573   3.743   5.143   1.404  0.0258  0.0930  0.2020
 4884TIP3    H114574   3.691   5.157   1.325  0.0700  0.4830  0.2436
 4884TIP3    H214575   3.829   5.180   1.383 -0.1614  0.8023  0.6719
 4885TIP3   OH214576   4.567   2.962   1.423  0.0443 -0.2244  0.5782
 4885TIP3    H114577   4.509   3.037   1.417  0.4041 -0.0097 -0.3406
 4885TIP3    H214578   4.623   2.968   1.345 -0.1258 -1.6102  0.3296
 4886TIP3   OH214579   7.103   3.722   2.761  0.4965 -0.1967 -0.1491
 4886TIP3    H114580   7.081   3.803   2.808  3.6836  1.3252 -1.1297
 4886TIP3    H214581   7.160   3.674   2.822 -0.6586 -1.3091  0.0747
 4887TIP3   OH214582   6.762   2.705   0.863  0.0555 -0.8599 -0.0825
 4887TIP3    H114583   6.816   2.645   0.811  0.7560 -1.3144  1.1578
 4887TIP3    H214584   6.801   2.791   0.849  1.2436 -1.2116  0.9536
 4888TIP3   OH214585   4.308   6.081   1.015  0.3008  0.0975 -0.0459
 4888TIP3    H114586   4.242   6.108   0.950 -0.8769 -2.1352  0.1873
 4888TIP3    H214587   4.367   6.024   0.967  1.9147  1.8163 -0.1615
 4889TIP3   OH214588   6.730   3.640   2.732 -0.6539  0.3975  0.0313
 4889TIP3    H114589   6.797   3.573   2.717 -0.4741  0.6662 -0.3521
 4889TIP3    H214590   6.675   3.639   2.654 -1.5523 -0.3402  0.6571
 4890TIP3   OH214591   5.554   6.028   2.306 -0.3310  0.0527 -0.2488
 4890TIP3    H114592   5.571   6.112   2.263  2.3397  0.1562  0.8938
 4890TIP3    H214593   5.564   6.046   2.399 -1.9780 -1.0716  0.1647
 4891TIP3   OH214594   5.538   6.083   1.535 -0.4595  0.2051  0.6488
 4891TIP3    H114595   5.496   6.169   1.535 -0.8417  0.0264 -0.3536
 4891TIP3    H214596   5.573   6.073   1.624  0.0866  1.6369  0.6118
 4892TIP3   OH214597   7.617   6.903   1.645 -0.1557  0.0844  0.4825
 4892TIP3    H114598   7.706   6.925   1.672 -0.4432  0.3440  1.2144
 4892TIP3    H214599   7.577   6.865   1.723 -1.0304  0.9717  0.4639
 4893TIP3   OH214600   6.847   3.873   2.545 -0.1893  0.1456 -0.1916
 4893TIP3    H114601   6.881   3.792   2.581  0.8557 -0.2688 -2.0379
 4893TIP3    H214602   6.861   3.938   2.613 -1.4361 -1.2819  1.4810
 4894TIP3   OH214603   5.345   4.116   0.438  0.2856 -0.0062  0.0160
 4894TIP3    H114604   5.420   4.056   0.437  1.1632  1.0771 -0.6151
 4894TIP3    H214605   5.356   4.166   0.518  0.9972  1.0727 -0.7382
 4895TIP3   OH214606   6.241   6.058   1.911 -0.4277  0.4363 -0.6601
 4895TIP3    H114607   6.228   5.976   1.958 -1.0287  0.8048 -0.1724
 4895TIP3    H214608   6.164   6.111   1.932  0.3733  1.4671 -0.2424
 4896TIP3   OH214609   4.061   5.380   1.763 -0.9881 -0.0923 -0.0630
 4896TIP3    H114610   4.066   5.444   1.692 -0.9107 -2.2496 -2.0529
 4896TIP3    H214611   3.986   5.408   1.815 -1.3553  1.2231 -1.2726
 4897TIP3   OH214612   2.624   5.921   1.965  0.1191  0.2060 -0.0570
 4897TIP3    H114613   2.637   5.858   1.894  0.2295  0.8418 -0.6052
 4897TIP3    H214614   2.712   5.934   2.001 -0.2016 -1.5186  1.4135
 4898TIP3   OH214615   3.791   7.225   1.623  0.0018 -0.9504  0.3991
 4898TIP3    H114616   3.728   7.236   1.552  1.8806  1.0659 -1.0403
 4898TIP3    H214617   3.756   7.276   1.695 -1.1667 -1.7614  0.4088
 4899TIP3   OH214618   3.369   5.469   0.131  0.3521  0.1894 -0.2208
 4899TIP3    H114619   3.350   5.484   0.223 -0.0829  0.7425 -0.3987
 4899TIP3    H214620   3.284   5.452   0.091  0.2481  2.3102 -0.9553
 4900TIP3   OH214621   3.993   6.565   1.509 -0.1889 -0.1345 -0.2590
 4900TIP3    H114622   3.966   6.570   1.417 -1.9589  2.1154  0.3350
 4900TIP3    H214623   4.022   6.654   1.531  0.8382 -0.8069  1.1819
 4901TIP3   OH214624   4.323   5.249   3.218  0.1003  0.3369 -0.3463
 4901TIP3    H114625   4.300   5.330   3.262 -1.8396  2.0017 -4.2000
 4901TIP3    H214626   4.275   5.181   3.265  1.0650  1.4558  2.3761
 4902TIP3   OH214627   3.652   4.181   2.170 -0.1482  1.0638  0.0767
 4902TIP3    H114628   3.572   4.141   2.135  0.1676 -1.0448  1.6505
 4902TIP3    H214629   3.620   4.252   2.226 -0.8391  1.2665 -0.5586
 4903TIP3   OH214630   5.533   8.208   1.433 -0.4214  0.4266  0.2174
 4903TIP3    H114631   5.587   8.145   1.481 -0.5815  0.2217  0.1277
 4903TIP3    H214632   5.595   8.251   1.374 -0.4284 -0.1098 -0.1892
 4904TIP3   OH214633   2.604   1.599   7.162  0.3935 -0.7990  0.2759
 4904TIP3    H114634   2.570   1.523   7.209  1.5160 -1.8262 -0.5284
 4904TIP3    H214635   2.531   1.629   7.108  0.2431 -1.9350 -0.1679
 4905TIP3   OH214636   6.944   7.592   1.647 -0.6947 -0.0217  0.0463
 4905TIP3    H114637   6.909   7.562   1.730  1.9256  0.7983  1.5158
 4905TIP3    H214638   7.027   7.544   1.637 -1.5543 -1.0698 -2.7425
 4906TIP3   OH214639   6.080   6.907   1.050 -0.4692  0.9718  0.1834
 4906TIP3    H114640   6.155   6.966   1.052 -0.0321  0.5372 -1.9388
 4906TIP3    H214641   6.006   6.963   1.028 -0.4986  1.1427  0.7144
 4907TIP3   OH214642   5.204   5.706   1.916 -0.4163  0.1408  0.1981
 4907TIP3    H114643   5.120   5.690   1.874 -0.0778 -2.5943  0.5206
 4907TIP3    H214644   5.268   5.703   1.845 -0.5179  1.7740  0.0196
 4908TIP3   OH214645   7.281   8.094   0.754 -0.2583  0.5638 -0.4716
 4908TIP3    H114646   7.213   8.027   0.768 -0.3447  0.7542  0.0093
 4908TIP3    H214647   7.313   8.077   0.666  0.8968 -1.2010  0.2501
 4909TIP3   OH214648   4.070   4.848   2.419 -0.4817 -0.4957  0.0309
 4909TIP3    H114649   4.136   4.796   2.372 -0.8810 -0.1056 -0.9590
 4909TIP3    H214650   4.005   4.870   2.353  0.1075  2.0171  0.2309
 4910TIP3   OH214651   4.792   6.181   2.172  0.3037  0.9510  0.5964
 4910TIP3    H114652   4.715   6.213   2.219 -0.8178 -1.8651  0.7122
 4910TIP3    H214653   4.828   6.113   2.229  1.0311  0.0270 -0.9556
 4911TIP3   OH214654   2.365   3.751   1.598 -0.7038  0.6522  0.7029
 4911TIP3    H114655   2.453   3.712   1.595 -0.7884  0.4757  0.3945
 4911TIP3    H214656   2.380   3.845   1.586 -0.5160  0.6833  1.1952
 4912TIP3   OH214657   4.926   7.292   2.900  0.3199 -0.1164  0.0471
 4912TIP3    H114658   5.006   7.261   2.858 -0.2865 -2.0032  0.2126
 4912TIP3    H214659   4.873   7.212   2.912 -1.0355  0.9148  1.0829
 4913TIP3   OH214660   3.050   4.508   1.026 -0.1289  0.3812  0.1091
 4913TIP3    H114661   3.074   4.416   1.028  0.4508  0.5126 -0.4180
 4913TIP3    H214662   2.983   4.515   0.958  0.7739  0.5548 -0.7783
 4914TIP3   OH214663   6.315   5.883   2.116  0.4277  0.2026 -0.0132
 4914TIP3    H114664   6.228   5.879   2.157  0.2219  0.6491 -0.3970
 4914TIP3    H214665   6.357   5.801   2.140 -0.2288 -0.1564 -0.0960
 4915TIP3   OH214666   6.569   3.117   1.330 -0.3501  0.4386 -0.8894
 4915TIP3    H114667   6.561   3.088   1.239 -1.8172  1.9445 -1.2871
 4915TIP3    H214668   6.651   3.166   1.333  1.0658 -1.8567 -0.7162
 4916TIP3   OH214669   3.081   6.874   2.131  0.1996 -0.3307 -0.0652
 4916TIP3    H114670   3.091   6.804   2.067  0.5894  1.2828 -1.7937
 4916TIP3    H214671   3.056   6.829   2.212  0.3986 -2.4494 -1.1565
 4917TIP3   OH214672   4.876   4.020   2.175  0.3207  0.1322 -0.7593
 4917TIP3    H114673   4.921   4.096   2.210  0.5284  0.0207 -0.7846
 4917TIP3    H214674   4.943   3.972   2.127  0.3872 -0.5156 -0.0205
 4918TIP3   OH214675   4.893   5.943   2.292 -0.0729  0.2528 -0.2571
 4918TIP3    H114676   4.971   5.930   2.238  1.0611  0.9312  1.1775
 4918TIP3    H214677   4.905   5.882   2.366 -1.3382 -0.2842 -0.4843
 4919TIP3   OH214678   4.886   5.875   1.060  0.5792 -0.4104 -0.0606
 4919TIP3    H114679   4.879   5.970   1.049  1.3871  0.0667  2.9647
 4919TIP3    H214680   4.881   5.840   0.971  0.6785  2.4888 -1.2729
 4920TIP3   OH214681   8.124   3.974   0.812 -0.4125 -0.2367 -0.5061
 4920TIP3    H114682   8.103   3.995   0.721 -1.8506  2.7484  0.4351
 4920TIP3    H214683   8.043   3.936   0.847 -0.0797 -0.7286 -0.2677
 4921TIP3   OH214684   4.444   2.773   3.029 -0.5330 -0.2037 -0.2421
 4921TIP3    H114685   4.502   2.777   2.954 -1.5140 -0.4883 -1.0233
 4921TIP3    H214686   4.487   2.712   3.089  0.7639  0.8212 -0.1076
 4922TIP3   OH214687   3.665   8.312   1.683 -0.2047 -0.5020 -0.1466
 4922TIP3    H114688   3.601   8.381   1.671  0.2832 -0.0101  0.0290
 4922TIP3    H214689   3.663   8.261   1.602 -1.9002 -1.4086  0.4515
 4923TIP3   OH214690   5.770   5.408   1.715 -0.0912 -0.1919  0.2982
 4923TIP3    H114691   5.831   5.381   1.646  0.1751  1.0674  0.0282
 4923TIP3    H214692   5.813   5.480   1.759 -0.0101 -1.3652  2.1964
 4924TIP3   OH214693   5.376   8.161   1.096 -0.6227  0.3571  0.6606
 4924TIP3    H114694   5.450   8.205   1.138 -0.6650  0.2832  0.8118
 4924TIP3    H214695   5.373   8.074   1.137 -0.1094 -0.0421 -0.1229
 4925TIP3   OH214696   5.709   7.163   1.464  1.1322  0.1144 -0.0286
 4925TIP3    H114697   5.746   7.075   1.468  0.1491 -0.2101  1.9799
 4925TIP3    H214698   5.737   7.196   1.378  2.3808 -1.7481 -0.3659
 4926TIP3   OH214699   0.025   0.222   1.118  0.7544  0.1100 -0.2166
 4926TIP3    H114700   0.085   0.151   1.094  2.3713  1.0427  0.9609
 4926TIP3    H214701   0.066   0.263   1.194 -1.5645  0.5665  0.8372
 4927TIP3   OH214702   1.136   1.336   7.066 -0.1354 -0.6667  0.6179
 4927TIP3    H114703   1.142   1.425   7.031  1.5552 -0.9740  0.0869
 4927TIP3    H214704   1.152   1.346   7.160 -3.3490 -0.0058  1.1287
 4928TIP3   OH214705   5.425   6.722   2.978  0.0283 -0.5591 -0.0156
 4928TIP3    H114706   5.402   6.765   2.896 -0.0266 -1.3837 -0.4410
 4928TIP3    H214707   5.358   6.653   2.988  1.1471 -1.7061 -0.2747
 4929TIP3   OH214708   2.714   5.888   0.295  0.2092  0.0108  0.4101
 4929TIP3    H114709   2.763   5.967   0.319  0.6327  0.0529 -0.5728
 4929TIP3    H214710   2.642   5.921   0.242  0.3937 -0.2674 -0.0092
 4930TIP3   OH214711   5.376   7.282   0.604 -0.2011  0.3319 -0.0587
 4930TIP3    H114712   5.323   7.350   0.563  0.9756  0.9107 -0.6406
 4930TIP3    H214713   5.313   7.229   0.653 -1.0886  2.0187  0.6823
 4931TIP3   OH214714   4.802   5.011   3.101 -0.1172 -0.2618  0.2453
 4931TIP3    H114715   4.762   4.924   3.090 -1.6268  0.5028 -0.5443
 4931TIP3    H214716   4.727   5.071   3.103  0.8647  0.9598  1.5688
 4932TIP3   OH214717   5.394   4.489   1.139 -0.1567 -0.0027  0.1235
 4932TIP3    H114718   5.443   4.570   1.154  0.6879 -0.5003  0.0789
 4932TIP3    H214719   5.312   4.501   1.188  0.8269  0.0548  1.8137
 4933TIP3   OH214720   5.634   4.827   1.964  0.3559  0.0859 -0.7555
 4933TIP3    H114721   5.701   4.825   1.894 -0.8610  0.3948 -1.9504
 4933TIP3    H214722   5.675   4.878   2.034  0.6959  1.9316 -2.2300
 4934TIP3   OH214723   5.941   4.586   2.688 -0.2540 -0.1237 -0.0692
 4934TIP3    H114724   6.034   4.604   2.702 -0.3782  1.8655 -1.5893
 4934TIP3    H214725   5.900   4.608   2.772  0.7609 -2.4097  1.1067
 4935TIP3   OH214726   4.833   6.449   1.562 -0.3320  0.3043  0.1395
 4935TIP3    H114727   4.867   6.423   1.477 -0.0482 -0.4417  0.4774
 4935TIP3    H214728   4.796   6.536   1.548  0.4072  0.5076 -0.5635
 4936TIP3   OH214729   6.960   4.989   3.553  0.7464  0.2133 -0.1748
 4936TIP3    H114730   6.929   4.906   3.518  0.3880  1.1438 -2.1071
 4936TIP3    H214731   7.047   5.000   3.516  1.1043  0.3376  0.6940
 4937TIP3   OH214732   4.719   5.259   1.269 -0.3983  0.6138  0.1208
 4937TIP3    H114733   4.722   5.297   1.182  1.3100  1.2844  0.4592
 4937TIP3    H214734   4.778   5.313   1.321 -0.6952 -0.3393  1.4711
 4938TIP3   OH214735   3.859   4.837   6.289 -0.2646  0.2543 -0.1347
 4938TIP3    H114736   3.812   4.831   6.372  0.3094 -0.1262  0.1661
 4938TIP3    H214737   3.908   4.919   6.296  1.7281 -0.9769  0.9416
 4939TIP3   OH214738   5.303   3.583   2.533  0.2359 -0.2866 -0.6187
 4939TIP3    H114739   5.353   3.516   2.579 -1.1108 -1.1990 -0.4430
 4939TIP3    H214740   5.257   3.631   2.603 -0.8570 -0.8886 -0.9080
 4940TIP3   OH214741   5.835   5.071   3.217  0.7446 -0.4795  0.3282
 4940TIP3    H114742   5.809   5.158   3.188  0.9812 -0.6341 -0.3417
 4940TIP3    H214743   5.868   5.027   3.139  2.1368 -0.6098  0.9690
 4941TIP3   OH214744   7.135   4.856   2.078  0.6158 -0.0078  0.3226
 4941TIP3    H114745   7.151   4.938   2.124  0.2819  1.1219 -1.5219
 4941TIP3    H214746   7.139   4.879   1.985  0.2597 -2.0281 -0.2259
 4942TIP3   OH214747   6.452   5.293   2.198 -0.7241  0.0214 -0.0868
 4942TIP3    H114748   6.450   5.356   2.270  1.0768 -0.6130  0.5438
 4942TIP3    H214749   6.365   5.298   2.160 -1.0046  1.9714  0.7476
 4943TIP3   OH214750   5.322   6.127   1.854 -0.2395  0.6209  0.3061
 4943TIP3    H114751   5.246   6.105   1.801 -0.8238 -0.3887  1.5457
 4943TIP3    H214752   5.352   6.044   1.890  0.6582  1.1757  0.8808
 4944TIP3   OH214753   3.828   5.371   3.504 -0.0609 -0.0793 -0.6633
 4944TIP3    H114754   3.864   5.460   3.508  0.9324 -0.4151 -1.6609
 4944TIP3    H214755   3.734   5.382   3.517 -0.0345  1.1910 -1.4417
 4945TIP3   OH214756   4.196   4.589   3.031 -0.1675 -0.0875 -0.2629
 4945TIP3    H114757   4.250   4.618   2.958 -0.9520  1.3614 -0.2783
 4945TIP3    H214758   4.247   4.608   3.109  0.1212 -0.4223 -0.3721
 4946TIP3   OH214759   5.766   7.603   3.214  0.2420  0.6097  0.6809
 4946TIP3    H114760   5.754   7.549   3.136  2.6229  1.6987 -0.4950
 4946TIP3    H214761   5.860   7.613   3.222 -0.0937  3.2700  1.7966
 4947TIP3   OH214762   5.336   6.785   3.445 -0.1627 -0.1376  0.4955
 4947TIP3    H114763   5.371   6.812   3.360  0.6989  1.9463  1.4826
 4947TIP3    H214764   5.389   6.833   3.509  0.4842 -3.1283  2.2957
 4948TIP3   OH214765   4.460   4.664   1.671 -0.7542 -0.3035 -0.0007
 4948TIP3    H114766   4.481   4.656   1.578  0.0435  0.5260  0.1000
 4948TIP3    H214767   4.381   4.611   1.683 -1.7665  0.8278 -1.4650
 4949TIP3   OH214768   5.028   4.891   1.513 -0.1962 -0.1510 -0.2365
 4949TIP3    H114769   5.019   4.799   1.487  0.9405 -0.4356  0.3148
 4949TIP3    H214770   4.979   4.940   1.447 -1.5559 -1.2095 -0.0452
 4950TIP3   OH214771   6.079   5.905   2.240 -0.5103  0.2442 -0.4501
 4950TIP3    H114772   6.077   5.953   2.323  0.1835  0.3965 -0.5193
 4950TIP3    H214773   6.058   5.815   2.264  0.7290  0.0864  0.0378
 4951TIP3   OH214774   5.462   5.423   0.985 -0.4235 -0.4884 -1.0107
 4951TIP3    H114775   5.499   5.359   0.925 -1.7498 -1.1216 -1.1775
 4951TIP3    H214776   5.369   5.427   0.962 -0.9166 -0.5939  0.8551
 4952TIP3   OH214777   5.713   7.806   2.784 -0.3971  0.4141 -0.7762
 4952TIP3    H114778   5.763   7.737   2.739 -0.6811 -1.3737  1.5172
 4952TIP3    H214779   5.776   7.848   2.841 -0.4902  1.2572 -1.2990
 4953TIP3   OH214780   3.118   4.985   2.244 -0.0172 -0.0951 -0.0349
 4953TIP3    H114781   3.069   4.940   2.312 -1.6410  1.5734 -0.0225
 4953TIP3    H214782   3.054   4.998   2.174  0.7754  0.9307 -0.5895
 4954TIP3   OH214783   5.567   4.326   1.257 -0.1040 -0.6385  0.3793
 4954TIP3    H114784   5.520   4.251   1.220  0.5538 -1.1702  0.6014
 4954TIP3    H214785   5.500   4.394   1.268 -0.6357 -1.0702 -0.1598
 4955TIP3   OH214786   2.659   6.032   3.753  0.7239  0.2917  0.8809
 4955TIP3    H114787   2.628   5.954   3.799 -1.3651  0.6441  0.1272
 4955TIP3    H214788   2.629   6.020   3.663  3.2209  0.4544 -0.0204
 4956TIP3   OH214789   4.504   5.214   1.740  0.0286 -0.1440  0.1260
 4956TIP3    H114790   4.521   5.190   1.831 -0.6947  0.5822  0.4501
 4956TIP3    H214791   4.584   5.258   1.711  0.0519  0.1072  0.5754
 4957TIP3   OH214792   5.320   4.211   0.695 -0.3076 -0.0161 -0.4552
 4957TIP3    H114793   5.363   4.258   0.766  0.1706 -1.1175 -0.0220
 4957TIP3    H214794   5.228   4.235   0.703  0.0821  1.7296 -0.9138
 4958TIP3   OH214795   5.799   7.306   2.780 -0.0112 -0.5444  0.0642
 4958TIP3    H114796   5.794   7.281   2.688  0.0215 -1.0108  0.1862
 4958TIP3    H214797   5.868   7.250   2.816 -0.7579 -1.1351  0.6115
 4959TIP3   OH214798   6.047   4.515   2.437  0.1404 -0.1894  0.4682
 4959TIP3    H114799   6.020   4.542   2.525 -0.3762  0.8844 -0.0185
 4959TIP3    H214800   5.973   4.537   2.381  1.1129  0.6171 -0.4968
 4960TIP3   OH214801   4.674   6.141   1.909 -0.1826  0.1825 -0.1426
 4960TIP3    H114802   4.711   6.185   1.985 -0.0002 -1.0474  0.4975
 4960TIP3    H214803   4.580   6.158   1.914  0.0148  1.3602 -0.4759
 4961TIP3   OH214804   5.675   5.848   3.604  0.5635 -0.3151 -0.8344
 4961TIP3    H114805   5.727   5.768   3.592 -0.3376 -0.9754 -0.4717
 4961TIP3    H214806   5.652   5.847   3.697 -0.5045 -0.2971 -1.0950
 4962TIP3   OH214807   6.003   5.465   0.988 -0.3626 -0.0542 -0.2605
 4962TIP3    H114808   5.959   5.380   0.981  0.0267 -0.2955  0.2227
 4962TIP3    H214809   6.020   5.476   1.081  0.0968  0.2974 -0.3837
 4963TIP3   OH214810   6.375   4.244   1.365  0.4981 -0.3085  0.2446
 4963TIP3    H114811   6.339   4.157   1.349 -0.0858  0.3663 -2.2689
 4963TIP3    H214812   6.348   4.265   1.454 -0.6980 -2.0493  0.3115
 4964TIP3   OH214813   4.117   2.813   2.804 -0.0538 -0.5387 -0.0711
 4964TIP3    H114814   4.213   2.807   2.805 -0.1350 -2.7463  3.5217
 4964TIP3    H214815   4.097   2.868   2.880 -1.6565  0.2255 -1.0324
 4965TIP3   OH214816   2.394   1.467   6.814 -0.2278 -0.4420 -0.0217
 4965TIP3    H114817   2.343   1.402   6.864 -2.6536  1.0271 -0.4645
 4965TIP3    H214818   2.365   1.456   6.724 -1.5609  1.9801  0.0564
 4966TIP3   OH214819   5.682   6.875   3.344 -0.0678  0.3182 -0.0174
 4966TIP3    H114820   5.765   6.921   3.331  1.1202 -1.7445  0.1877
 4966TIP3    H214821   5.658   6.894   3.435 -0.2044  1.4873 -0.2819
 4967TIP3   OH214822   5.572   7.137   0.471 -0.0759 -0.0754 -0.1649
 4967TIP3    H114823   5.583   7.113   0.563 -0.6341 -0.9510 -0.3210
 4967TIP3    H214824   5.477   7.148   0.460  0.0181  0.4041 -0.5480
 4968TIP3   OH214825   0.698   8.301   6.706  0.4520 -0.3835 -0.1297
 4968TIP3    H114826   0.678   8.331   6.617 -0.4361 -0.9637 -0.1273
 4968TIP3    H214827   0.742   8.375   6.747 -2.2015  1.1504  0.0444
 4969TIP3   OH214828   4.852   4.780   0.284  0.0266 -0.5822 -0.0094
 4969TIP3    H114829   4.854   4.822   0.370  0.3258  0.4585 -0.5231
 4969TIP3    H214830   4.794   4.704   0.296  0.4606 -0.7389  1.2356
 4970TIP3   OH214831   7.412   3.427   2.471  0.6112  0.4521  0.6816
 4970TIP3    H114832   7.366   3.511   2.475 -0.6547 -0.1791 -0.0994
 4970TIP3    H214833   7.491   3.440   2.523  0.6155  2.2452  0.2625
 4971TIP3   OH214834   4.104   5.835   2.821  0.0572 -0.0442 -0.4097
 4971TIP3    H114835   4.072   5.921   2.847 -0.3204 -0.4742  0.5871
 4971TIP3    H214836   4.199   5.844   2.817 -0.0017  0.4863 -0.5592
 4972TIP3   OH214837   4.264   6.355   1.124 -0.1601  0.2447  0.2894
 4972TIP3    H114838   4.296   6.267   1.104 -1.5604 -0.1159 -0.4341
 4972TIP3    H214839   4.181   6.340   1.170 -1.1326  1.1995 -1.1229
 4973TIP3   OH214840   4.660   6.234   1.640 -0.1432  0.2816 -0.2030
 4973TIP3    H114841   4.722   6.303   1.618 -0.1740  0.7252  1.0563
 4973TIP3    H214842   4.676   6.215   1.733 -0.7230 -0.7912 -0.3116
 4974TIP3   OH214843   3.946   5.136   1.743  0.1000 -0.6476 -0.2958
 4974TIP3    H114844   3.941   5.116   1.837 -0.1901  0.0540 -0.1559
 4974TIP3    H214845   4.013   5.204   1.737 -1.8756  1.3974 -0.2270
 4975TIP3   OH214846   8.818   2.876   5.410  0.3621  0.2352  0.4642
 4975TIP3    H114847   8.785   2.819   5.480 -1.5179  0.6388 -0.0763
 4975TIP3    H214848   8.743   2.890   5.353  1.4227  1.3677 -0.6802
 4976TIP3   OH214849   6.672   4.666   1.775 -0.0691  0.2719 -0.3818
 4976TIP3    H114850   6.669   4.715   1.692 -0.3220  0.3653 -0.3177
 4976TIP3    H214851   6.700   4.578   1.749 -0.9332  0.0754 -0.6767
 4977TIP3   OH214852   1.844   4.411   6.683 -0.0129  0.2537 -0.1164
 4977TIP3    H114853   1.837   4.393   6.589 -0.4042 -1.5991  0.2442
 4977TIP3    H214854   1.836   4.325   6.725  1.3224  0.9082  1.5629
 4978TIP3   OH214855   3.866   3.436   4.263  0.1034 -0.7677  0.2999
 4978TIP3    H114856   3.846   3.457   4.355  2.2220  0.7461  0.4331
 4978TIP3    H214857   3.781   3.410   4.226 -1.7473  3.3188  1.4000
 4979TIP3   OH214858   4.933   5.918   0.485  0.6132 -0.0927  0.1117
 4979TIP3    H114859   4.918   5.996   0.430 -2.2674  0.2151  1.2562
 4979TIP3    H214860   4.998   5.947   0.549  0.8379  0.8459 -0.5194
 4980TIP3   OH214861   3.853   6.263   2.229 -0.2313  0.6146  0.4573
 4980TIP3    H114862   3.821   6.182   2.269  1.1666 -0.6328 -0.8924
 4980TIP3    H214863   3.790   6.330   2.257 -1.9143 -1.0908  0.8776
 4981TIP3   OH214864   5.571   5.257   1.882 -0.0161 -0.1828  0.3402
 4981TIP3    H114865   5.607   5.338   1.917 -0.8109  0.0128  0.7101
 4981TIP3    H214866   5.569   5.198   1.958  0.1176 -0.3984  0.1766
 4982TIP3   OH214867   6.639   4.768   1.483  0.2315  0.7199  0.3231
 4982TIP3    H114868   6.669   4.683   1.451 -0.8875  0.1747  0.6947
 4982TIP3    H214869   6.702   4.831   1.448 -0.3176  0.0247 -1.9626
 4983TIP3   OH214870   3.854   4.582   2.881 -0.1672  0.2201  0.0478
 4983TIP3    H114871   3.911   4.658   2.866 -0.2198  0.5370  1.4335
 4983TIP3    H214872   3.766   4.616   2.868 -0.1460  0.2060 -0.1306
 4984TIP3   OH214873   8.187   5.534   2.806  0.1835  0.1273  0.1627
 4984TIP3    H114874   8.139   5.487   2.874  0.2561  0.3680  0.3849
 4984TIP3    H214875   8.259   5.576   2.854  0.3895  0.0779 -0.1063
 4985TIP3   OH214876   4.848   5.221   2.885 -0.3789 -0.0880 -0.4872
 4985TIP3    H114877   4.801   5.195   2.964  0.3730  1.3849  0.4566
 4985TIP3    H214878   4.838   5.316   2.881  1.6479  0.1339 -0.8354
 4986TIP3   OH214879   2.599   5.310   0.886 -0.2824  0.3928  0.1283
 4986TIP3    H114880   2.585   5.275   0.798  1.3601  0.8484 -0.3388
 4986TIP3    H214881   2.637   5.237   0.935 -1.6810 -0.0174  0.6166
 4987TIP3   OH214882   4.438   4.467   2.632 -0.0505  0.6491 -0.0871
 4987TIP3    H114883   4.348   4.451   2.603 -0.7104  0.0488  2.1751
 4987TIP3    H214884   4.479   4.381   2.630  0.3217  0.8421 -0.6389
 4988TIP3   OH214885   5.417   5.391   2.803  0.5985 -0.2803  0.1612
 4988TIP3    H114886   5.445   5.370   2.714  1.3460  0.2332  0.2715
 4988TIP3    H214887   5.405   5.306   2.845 -1.0198 -0.5538 -0.8081
 4989TIP3   OH214888   6.459   5.346   1.632 -0.1461  0.4065 -0.0737
 4989TIP3    H114889   6.447   5.269   1.575 -1.8426  1.4808 -1.1898
 4989TIP3    H214890   6.415   5.322   1.713  0.0871 -0.1363 -0.1001
 4990TIP3   OH214891   3.612   6.907   0.209 -0.1262 -0.0410 -0.2016
 4990TIP3    H114892   3.630   6.997   0.235 -0.5532  0.4784 -1.6920
 4990TIP3    H214893   3.683   6.884   0.150  0.0082 -0.7140  0.2108
 4991TIP3   OH214894   5.204   5.707   1.119 -0.5364 -0.2757  0.3938
 4991TIP3    H114895   5.149   5.773   1.161  1.9949  2.0813  0.1580
 4991TIP3    H214896   5.275   5.691   1.181 -0.9703 -2.6273  0.3276
 4992TIP3   OH214897   7.551   4.469   0.693  0.0658 -0.2195 -0.1019
 4992TIP3    H114898   7.612   4.454   0.620 -0.2842 -0.7566 -0.2933
 4992TIP3    H214899   7.592   4.427   0.768 -0.0384 -0.5421 -0.2213
 4993TIP3   OH214900   7.057   4.203   0.300  0.3118  0.6809  0.0519
 4993TIP3    H114901   6.973   4.249   0.310 -0.7000 -1.0468 -0.2662
 4993TIP3    H214902   7.114   4.242   0.366 -1.2600  0.7290  1.4163
 4994TIP3   OH214903   4.221   4.917   0.782 -0.8949 -0.2130 -0.5310
 4994TIP3    H114904   4.213   4.968   0.863 -1.1764 -0.4447 -0.4141
 4994TIP3    H214905   4.285   4.966   0.730 -1.1522  0.2498 -0.4130
 4995TIP3   OH214906   2.949   3.593   1.722  0.6057 -0.3873  0.0219
 4995TIP3    H114907   2.873   3.628   1.675 -0.1405 -0.4345  1.1522
 4995TIP3    H214908   2.933   3.499   1.727 -0.0612 -0.2056  1.6281
 4996TIP3   OH214909   7.020   6.915   0.913  0.3114  0.1979  0.5693
 4996TIP3    H114910   7.015   6.843   0.976 -0.8385 -0.7831 -0.6328
 4996TIP3    H214911   7.028   6.873   0.828  1.5097  1.5157  0.0078
 4997TIP3   OH214912   7.374   5.374   3.156  0.3308  0.1032  0.1737
 4997TIP3    H114913   7.406   5.283   3.157  0.2249  0.0650  0.0666
 4997TIP3    H214914   7.342   5.389   3.245  0.6265  0.1332  0.2754
 4998TIP3   OH214915   4.768   4.299   2.425 -0.3599 -0.0258  0.4662
 4998TIP3    H114916   4.702   4.240   2.388  0.4758 -0.3880 -0.4749
 4998TIP3    H214917   4.743   4.386   2.394 -0.3272 -0.1772  0.0196
 4999TIP3   OH214918   1.046   1.450   1.068 -0.1345  0.0634 -0.0479
 4999TIP3    H114919   0.953   1.425   1.071 -0.1928  0.3498  0.5309
 4999TIP3    H214920   1.047   1.541   1.096  0.5683 -0.5899  2.1063
 5000TIP3   OH214921   6.119   4.231   0.817  0.0090  0.1198 -0.9089
 5000TIP3    H114922   6.089   4.229   0.907  0.2582 -2.6178 -0.8503
 5000TIP3    H214923   6.162   4.317   0.807 -2.1679  1.4551  0.8202
 5001TIP3   OH214924   4.378   7.175   0.535  0.1118 -0.0676 -1.2257
 5001TIP3    H114925   4.309   7.234   0.565  1.2529  0.8481 -0.3865
 5001TIP3    H214926   4.359   7.160   0.442 -1.6192 -0.3912 -0.8281
 5002TIP3   OH214927   1.275   0.150   1.947 -0.2768 -0.4892 -0.6502
 5002TIP3    H114928   1.228   0.122   1.869 -0.4138 -1.1703 -0.3210
 5002TIP3    H214929   1.214   0.136   2.019 -0.6638  1.4142 -0.5671
 5003TIP3   OH214930   2.792   6.782   1.388 -0.2686 -0.1433 -0.0696
 5003TIP3    H114931   2.764   6.690   1.383 -0.8589  0.0503 -0.3548
 5003TIP3    H214932   2.858   6.791   1.319  3.1754 -1.5136  2.8699
 5004TIP3   OH214933   5.568   7.379   2.085  0.4280 -0.0726 -0.0735
 5004TIP3    H114934   5.497   7.317   2.100  0.2111  0.3261  0.5557
 5004TIP3    H214935   5.612   7.346   2.006 -1.6502  0.7845 -1.6207
 5005TIP3   OH214936   4.079   7.065   0.425  0.3085 -0.3538  0.2534
 5005TIP3    H114937   4.103   6.981   0.463  0.5395 -0.6622 -0.5508
 5005TIP3    H214938   4.163   7.110   0.412  0.0545  0.8391  2.5514
 5006TIP3   OH214939   6.740   7.374   0.879 -0.4548 -0.2322 -0.2068
 5006TIP3    H114940   6.760   7.281   0.884  2.0885  0.3921  2.4599
 5006TIP3    H214941   6.815   7.412   0.832 -0.7180  0.6648  0.0831
 5007TIP3   OH214942   4.157   6.782   1.239 -0.2038  0.0684  0.1801
 5007TIP3    H114943   4.096   6.820   1.176 -0.3012 -1.7361 -0.8691
 5007TIP3    H214944   4.232   6.842   1.239 -0.3007  0.2260 -1.5155
 5008TIP3   OH214945   5.566   6.103   4.046  0.0576 -0.4561 -0.2807
 5008TIP3    H114946   5.476   6.127   4.026  0.3393  1.1490  0.2596
 5008TIP3    H214947   5.565   6.081   4.139 -0.4358 -3.8397 -1.0270
 5009TIP3   OH214948   4.364   6.996   1.242  0.8080  0.0637 -0.2984
 5009TIP3    H114949   4.365   7.062   1.311  0.9518  0.6922 -0.8898
 5009TIP3    H214950   4.449   7.005   1.199  0.8365 -0.5199 -0.3749
 5010TIP3   OH214951   7.215   4.239   1.080  0.2084 -0.2377  0.3375
 5010TIP3    H114952   7.235   4.328   1.049  1.7995 -0.0722  1.7994
 5010TIP3    H214953   7.180   4.253   1.168 -0.1703 -1.0227  0.3075
 5011TIP3   OH214954   6.645   6.640   2.419  0.0199  0.1326  0.6349
 5011TIP3    H114955   6.715   6.577   2.434 -0.0566 -0.8863 -2.8881
 5011TIP3    H214956   6.566   6.598   2.453  0.1968 -1.1460 -0.4916
 5012TIP3   OH214957   6.367   3.535   1.428 -0.2766  0.2974 -0.7689
 5012TIP3    H114958   6.306   3.539   1.502  1.3571 -0.6268  0.6700
 5012TIP3    H214959   6.319   3.490   1.359 -1.1503 -0.6509  0.4287
 5013TIP3   OH214960   3.952   4.071   1.526 -0.0634 -0.1942  0.1842
 5013TIP3    H114961   3.987   3.991   1.564 -0.0816 -0.1642  0.2644
 5013TIP3    H214962   3.912   4.117   1.599 -0.3869 -0.2921  0.0696
 5014TIP3   OH214963   3.542   1.008   6.906 -0.3669 -0.3927  0.2457
 5014TIP3    H114964   3.448   1.025   6.913 -0.0887  0.2452  2.7235
 5014TIP3    H214965   3.575   1.079   6.851 -1.6253 -1.8410 -2.5110
 5015TIP3   OH214966   6.116   5.273   3.643 -0.3184  0.1074 -0.5806
 5015TIP3    H114967   6.060   5.205   3.683 -0.3898  1.2326  1.3020
 5015TIP3    H214968   6.204   5.235   3.644 -0.4198 -0.1220  0.1019
 5016TIP3   OH214969   5.749   5.398   3.429 -0.3622 -0.3065  0.3750
 5016TIP3    H114970   5.656   5.388   3.448 -0.9974 -0.3240 -2.6067
 5016TIP3    H214971   5.783   5.308   3.427 -1.0477 -0.5425 -2.0905
 5017TIP3   OH214972   7.235   4.348   0.447  0.0412 -0.3494  0.3314
 5017TIP3    H114973   7.245   4.427   0.394  1.5088 -1.5073 -1.1612
 5017TIP3    H214974   7.243   4.378   0.537  0.4823  1.2120 -0.2177
 5018TIP3   OH214975   6.327   4.537   2.476 -0.0457  0.1977 -0.2599
 5018TIP3    H114976   6.343   4.626   2.507 -1.4915  0.0452  0.9578
 5018TIP3    H214977   6.232   4.531   2.468  0.1848 -0.2829 -3.2704
 5019TIP3   OH214978   5.337   6.179   1.254 -0.0536  0.0133  0.1828
 5019TIP3    H114979   5.251   6.189   1.215  0.2277  3.8621  0.3600
 5019TIP3    H214980   5.324   6.199   1.347  1.0968  1.3433  0.0808
 5020TIP3   OH214981   5.313   3.899   3.452  0.5629 -0.6945 -0.2166
 5020TIP3    H114982   5.250   3.890   3.524  0.0083 -1.8437 -0.8424
 5020TIP3    H214983   5.376   3.828   3.466  0.4741 -0.8981 -0.8453
 5021TIP3   OH214984   5.490   5.327   3.120  0.0248 -0.3715  0.1872
 5021TIP3    H114985   5.539   5.314   3.039 -0.6167 -1.3532 -0.0545
 5021TIP3    H214986   5.484   5.240   3.159  1.9909  0.3901  2.2865
 5022TIP3   OH214987   7.075   8.198   1.823 -0.3443 -0.2117  0.0458
 5022TIP3    H114988   6.984   8.174   1.807 -1.0059  0.7167  2.1817
 5022TIP3    H214989   7.073   8.293   1.836  1.1614  0.0318 -1.3215
 5023TIP3   OH214990   6.799   7.108   2.734  0.1152 -0.0119  0.6980
 5023TIP3    H114991   6.848   7.026   2.739 -1.1576 -0.7624  1.3347
 5023TIP3    H214992   6.771   7.124   2.824 -1.6889 -0.1679  0.1871
 5024TIP3   OH214993   3.888   4.923   2.232 -0.0209 -0.3455  0.2445
 5024TIP3    H114994   3.798   4.892   2.233 -0.3399  0.5760  0.2113
 5024TIP3    H214995   3.888   4.996   2.171  0.4420  0.5520  1.2926
 5025TIP3   OH214996   3.424   6.942   2.752 -0.2344 -0.3301 -0.1103
 5025TIP3    H114997   3.411   6.919   2.844  3.7464 -0.0677  0.6401
 5025TIP3    H214998   3.467   6.865   2.714  0.6111  0.5733 -1.0319
 5026TIP3   OH214999   6.009   6.494   4.477  0.0312 -0.2925  0.3147
 5026TIP3    H115000   6.090   6.449   4.503  0.3124  0.7432  1.2931
 5026TIP3    H215001   5.983   6.543   4.556 -1.9192 -1.1411  0.2372
 5027TIP3   OH215002   4.027   5.876   5.799 -0.2562 -0.3559  0.0448
 5027TIP3    H115003   3.966   5.823   5.748 -0.5677  0.9576 -1.0053
 5027TIP3    H215004   4.065   5.816   5.862 -2.1765 -1.3379  0.3018
 5028TIP3   OH215005   4.180   7.471   1.771  0.3314  0.4532 -0.8036
 5028TIP3    H115006   4.244   7.484   1.701  0.5362  0.2817 -0.6491
 5028TIP3    H215007   4.143   7.558   1.786 -0.2036  0.3683 -1.5923
 5029TIP3   OH215008   7.232   0.167   1.371 -0.5251 -0.4751 -0.4179
 5029TIP3    H115009   7.269   0.153   1.458 -0.1439  1.1850 -0.3001
 5029TIP3    H215010   7.291   0.230   1.329 -2.7788  1.6748 -0.4829
 5030TIP3   OH215011   7.490   5.432   0.147 -0.6959  0.2249 -0.2429
 5030TIP3    H115012   7.503   5.470   0.060 -1.0521  1.3721  0.1938
 5030TIP3    H215013   7.492   5.507   0.207 -0.8209 -0.5120  0.7029
 5031TIP3   OH215014   5.069   6.204   1.129 -0.2571 -0.1805  0.2964
 5031TIP3    H115015   5.093   6.211   1.037  0.6190  0.0895  0.5392
 5031TIP3    H215016   4.979   6.171   1.128  0.2006 -1.4299 -0.6290
 5032TIP3   OH215017   7.841   7.726   1.625  0.6296  0.5163  0.2067
 5032TIP3    H115018   7.810   7.640   1.654  1.1854  1.1317  2.7558
 5032TIP3    H215019   7.934   7.713   1.605  0.6207  0.4406  0.2146
 5033TIP3   OH215020   6.837   6.119   0.122 -0.0913  0.0323 -0.7677
 5033TIP3    H115021   6.899   6.186   0.091  0.6448 -0.6717 -0.8333
 5033TIP3    H215022   6.839   6.128   0.217 -0.5195  0.5672 -0.8066
 5034TIP3   OH215023   5.725   7.505   2.953 -0.9563  0.1162  0.6029
 5034TIP3    H115024   5.730   7.414   2.926 -2.3824 -0.0765  0.9506
 5034TIP3    H215025   5.683   7.550   2.879 -0.1186  0.5340  0.3660
 5035TIP3   OH215026   5.730   6.890   2.099 -0.3445  0.2437 -0.5346
 5035TIP3    H115027   5.774   6.960   2.149 -0.1014 -1.5017  1.7689
 5035TIP3    H215028   5.795   6.863   2.034  0.0902  1.1373 -0.4877
 5036TIP3   OH215029   4.481   4.966   1.369 -0.5475 -0.2090 -0.2486
 5036TIP3    H115030   4.494   4.875   1.397 -0.1967 -0.3514 -0.8664
 5036TIP3    H215031   4.456   4.959   1.277  2.9565  0.4782 -1.3339
 5037TIP3   OH215032   5.047   5.175   1.029  0.3417 -0.3121 -0.5571
 5037TIP3    H115033   4.967   5.220   1.003  0.8636  0.0386 -1.5703
 5037TIP3    H215034   5.029   5.143   1.117 -1.2588 -1.0646 -1.1395
 5038TIP3   OH215035   0.851   3.799   7.143 -0.3903  0.5285  0.4492
 5038TIP3    H115036   0.834   3.709   7.174  2.1693  0.1080  0.6890
 5038TIP3    H215037   0.886   3.844   7.220  2.8755  0.3995 -0.9047
 5039TIP3   OH215038   5.993   6.165   0.741 -0.4161 -0.0523 -0.2176
 5039TIP3    H115039   6.085   6.143   0.728 -0.1545  1.3623 -0.8586
 5039TIP3    H215040   5.988   6.195   0.832  0.0268  1.1133 -0.5656
 5040TIP3   OH215041   7.056   5.168   0.261  0.3746 -0.2976  0.5116
 5040TIP3    H115042   7.138   5.217   0.262 -0.2458  0.7547  0.6354
 5040TIP3    H215043   6.989   5.234   0.241 -0.2203 -1.4719 -1.4858
 5041TIP3   OH215044   5.076   4.803   0.523  0.1947 -0.8524 -0.3843
 5041TIP3    H115045   5.107   4.784   0.612  1.9583 -3.0211 -1.4383
 5041TIP3    H215046   5.080   4.899   0.517  0.6985 -0.7218  1.6199
 5042TIP3   OH215047   2.814   4.590   1.938 -0.3019 -0.3446 -0.6603
 5042TIP3    H115048   2.728   4.619   1.970  0.4690  0.5432  0.6371
 5042TIP3    H215049   2.855   4.548   2.014  0.2702 -1.0721 -1.3703
 5043TIP3   OH215050   4.600   5.303   0.447 -0.0562 -0.2799  0.6691
 5043TIP3    H115051   4.673   5.252   0.411  1.2462  2.0651 -0.2090
 5043TIP3    H215052   4.535   5.304   0.377 -0.0804 -0.7441  0.6846
 5044TIP3   OH215053   4.526   7.233   1.849  0.2618  0.0075  0.6061
 5044TIP3    H115054   4.454   7.207   1.907  0.7703  0.1749  1.3091
 5044TIP3    H215055   4.537   7.158   1.790 -1.5028  0.5840 -0.5005
 5045TIP3   OH215056   6.726   4.782   1.077  0.3357  0.4294 -0.5557
 5045TIP3    H115057   6.697   4.856   1.130 -0.3592 -0.1552 -0.1097
 5045TIP3    H215058   6.649   4.725   1.071 -0.0246  1.1255 -3.3377
 5046TIP3   OH215059   4.547   5.604   0.371 -0.3487  0.3790 -0.1642
 5046TIP3    H115060   4.576   5.546   0.440  0.4043  1.2837  0.2972
 5046TIP3    H215061   4.452   5.594   0.369 -0.4892  1.0793  1.6841
 5047TIP3   OH215062   6.686   3.593   1.218 -0.0650  0.4307 -0.3500
 5047TIP3    H115063   6.629   3.668   1.234  0.1340  0.1256  1.9344
 5047TIP3    H215064   6.667   3.533   1.291  0.4522 -1.3343 -1.6211
 5048TIP3   OH215065   5.660   6.631   2.170  0.4660  0.2593 -0.0781
 5048TIP3    H115066   5.577   6.639   2.217 -0.7628 -0.2495 -2.0909
 5048TIP3    H215067   5.682   6.720   2.143 -0.5015  0.1422 -1.2986
 5049TIP3   OH215068   5.499   7.515   1.467 -0.3139  0.9233 -0.5530
 5049TIP3    H115069   5.428   7.574   1.491 -0.6781  0.3102 -0.1168
 5049TIP3    H215070   5.455   7.432   1.447  0.6768 -1.1004  4.9551
 5050TIP3   OH215071   4.952   6.342   2.741  0.3997 -0.3068  0.0928
 5050TIP3    H115072   4.924   6.347   2.833  1.1668 -0.2981  0.3317
 5050TIP3    H215073   4.946   6.249   2.719  1.2960 -0.4685  0.5039
 5051TIP3   OH215074   6.784   5.254   3.354  0.3278 -1.0114 -0.3134
 5051TIP3    H115075   6.867   5.301   3.367 -0.7140  0.3941  1.5550
 5051TIP3    H215076   6.802   5.195   3.281  2.1064  1.3275 -1.8923
 5052TIP3   OH215077   5.417   5.474   1.256  0.4977 -0.5841 -0.2921
 5052TIP3    H115078   5.472   5.487   1.179 -0.5184 -3.8174 -1.6017
 5052TIP3    H215079   5.478   5.479   1.330  2.2817 -2.2269 -1.6058
 5053TIP3   OH215080   4.424   5.863   2.540 -0.1179 -0.4083  0.8014
 5053TIP3    H115081   4.482   5.910   2.481 -0.9387  1.1496  1.2239
 5053TIP3    H215082   4.456   5.884   2.628  0.3883 -1.7950  0.9646
 5054TIP3   OH215083   5.182   6.634   1.815 -0.1653  0.3777 -0.1386
 5054TIP3    H115084   5.276   6.651   1.809 -0.0613 -0.4131 -0.8540
 5054TIP3    H215085   5.159   6.596   1.730 -1.3663  1.7339 -0.4424
 5055TIP3   OH215086   6.192   5.587   1.665 -0.0626 -0.0686  0.3803
 5055TIP3    H115087   6.177   5.492   1.671 -0.2111 -0.0354  0.5580
 5055TIP3    H215088   6.136   5.616   1.593 -0.0174 -0.1160  0.3261
 5056TIP3   OH215089   0.148   1.350   6.721  0.4368  0.4848 -0.2437
 5056TIP3    H115090   0.058   1.383   6.727  0.4860  0.8595 -1.3355
 5056TIP3    H215091   0.203   1.428   6.726  0.7018  0.2561  0.4272
 5057TIP3   OH215092   5.584   6.995   0.757 -0.1510  0.3697 -0.1763
 5057TIP3    H115093   5.667   6.947   0.762  0.8384  2.0221  0.0197
 5057TIP3    H215094   5.607   7.084   0.785 -2.0712  0.7695  0.2073
 5058TIP3   OH215095   5.425   4.517   3.854 -0.5961  0.3389 -1.0512
 5058TIP3    H115096   5.452   4.425   3.848 -0.4970  0.1332  1.8504
 5058TIP3    H215097   5.504   4.563   3.880 -0.4066  1.4293 -3.4558
 5059TIP3   OH215098   5.101   7.285   2.347  0.3797 -0.2104 -0.3268
 5059TIP3    H115099   5.139   7.304   2.433  2.0769 -0.3380 -1.0235
 5059TIP3    H215100   5.109   7.367   2.299 -0.7037 -0.0986 -0.3124
 5060TIP3   OH215101   4.087   7.620   1.437 -0.3766  0.0740  0.3176
 5060TIP3    H115102   4.035   7.540   1.445  0.7599 -0.5177  2.1518
 5060TIP3    H215103   4.099   7.650   1.527  0.4435  1.5137 -0.2486
 5061TIP3   OH215104   5.159   5.365   1.776  0.6479  0.1202  0.0192
 5061TIP3    H115105   5.251   5.365   1.752  0.5276 -1.0927 -0.4419
 5061TIP3    H215106   5.125   5.281   1.745 -0.3071 -0.0066  1.3596
 5062TIP3   OH215107   5.700   4.993   1.185 -0.0702  0.3074  0.1089
 5062TIP3    H115108   5.668   4.940   1.258 -0.5800 -0.3627 -0.5902
 5062TIP3    H215109   5.683   5.083   1.212 -1.7335  0.0058  0.1448
 5063TIP3   OH215110   5.548   4.386   1.850 -0.0436 -0.0219 -0.3173
 5063TIP3    H115111   5.520   4.475   1.828  0.5676  0.4646  0.8182
 5063TIP3    H215112   5.467   4.336   1.858 -0.5200  0.9604  1.2094
 5064TIP3   OH215113   5.866   6.576   2.391  0.1035  0.3703  0.0931
 5064TIP3    H115114   5.801   6.613   2.331 -1.1723 -0.0568  1.1750
 5064TIP3    H215115   5.847   6.619   2.475  0.3263 -0.7693  0.7277
 5065TIP3   OH215116   5.038   7.001   1.262 -0.3980 -0.6199  0.1473
 5065TIP3    H115117   5.090   7.081   1.271 -0.9810  0.0601 -2.1392
 5065TIP3    H215118   5.013   6.978   1.351 -0.7178  2.0988  0.8038
 5066TIP3   OH215119   4.836   6.543   1.877 -0.1249  0.2935 -0.2122
 5066TIP3    H115120   4.823   6.530   1.784 -0.3503 -1.6588  0.0720
 5066TIP3    H215121   4.879   6.463   1.907  0.2067  1.0117  1.3117
 5067TIP3   OH215122   5.071   5.129   1.308  0.1768  0.0129 -0.0614
 5067TIP3    H115123   5.143   5.085   1.353  0.2704 -0.5904 -0.7927
 5067TIP3    H215124   5.096   5.222   1.307 -0.1763  0.1381  1.7805
 5068TIP3   OH215125   6.179   7.852   1.148 -0.3867  0.3291 -0.1356
 5068TIP3    H115126   6.212   7.832   1.060  0.1137 -0.0972  0.1437
 5068TIP3    H215127   6.110   7.787   1.163 -1.8123  1.6036 -0.9620
 5069TIP3   OH215128   5.992   3.973   0.834 -0.3753 -0.3871  0.5736
 5069TIP3    H115129   5.899   3.983   0.853  0.0532  0.6781  2.3155
 5069TIP3    H215130   6.024   4.063   0.825  0.5349 -0.7354  0.2196
 5070TIP3   OH215131   5.217   7.601   1.544 -0.4720  0.0745  0.5088
 5070TIP3    H115132   5.230   7.694   1.561  0.4179  0.2998 -1.2989
 5070TIP3    H215133   5.133   7.595   1.499  0.3159  0.2082 -0.9959
 5071TIP3   OH215134   5.471   5.766   2.433  0.0494 -0.4277  0.5134
 5071TIP3    H115135   5.505   5.819   2.360  0.3198 -0.0976  0.8751
 5071TIP3    H215136   5.376   5.765   2.420 -0.0803  1.2428  1.2357
 5072TIP3   OH215137   6.639   4.017   1.832  1.1763 -0.1826  0.1211
 5072TIP3    H115138   6.615   4.066   1.911  1.1517 -1.2262  0.7741
 5072TIP3    H215139   6.728   4.046   1.812  1.0974  0.2610  0.4053
 5073TIP3   OH215140   4.294   0.975   5.578 -0.0859 -0.3873  0.2336
 5073TIP3    H115141   4.224   0.912   5.566  0.2469 -0.8175  0.5372
 5073TIP3    H215142   4.261   1.056   5.538  0.3303 -1.3101 -2.0308
 5074TIP3   OH215143   6.751   5.956   0.710  0.5111 -0.5023  0.1416
 5074TIP3    H115144   6.732   6.048   0.729 -0.9687 -0.5266 -1.1109
 5074TIP3    H215145   6.681   5.908   0.754 -0.6989 -0.7872 -1.9854
 5075TIP3   OH215146   6.021   6.579   1.973  0.4377 -0.6516 -0.6870
 5075TIP3    H115147   6.072   6.580   2.054  1.1768  0.2350 -1.1581
 5075TIP3    H215148   6.070   6.523   1.914  1.0654  0.5083 -1.2676
 5076TIP3   OH215149   6.082   3.585   3.268 -0.2858 -0.3220 -0.1327
 5076TIP3    H115150   6.025   3.558   3.195 -1.4268 -1.2798  1.0807
 5076TIP3    H215151   6.140   3.510   3.281  0.9829  0.4844 -1.0826
 5077TIP3   OH215152   4.052   3.630   1.117  0.0408  0.0191 -0.1142
 5077TIP3    H115153   4.002   3.618   1.198  0.7432 -1.6143  0.1050
 5077TIP3    H215154   4.142   3.646   1.146  0.3396 -0.7949 -0.5688
 5078TIP3   OH215155   5.104   3.625   0.693 -0.5806 -0.1808 -0.0609
 5078TIP3    H115156   5.154   3.704   0.676  1.1000 -0.9562  1.1115
 5078TIP3    H215157   5.070   3.598   0.607 -0.6726  1.4600 -0.5440
 5079TIP3   OH215158   6.324   7.330   1.182 -0.5841  0.1183 -0.2192
 5079TIP3    H115159   6.368   7.408   1.148  1.8370 -0.5400  1.3259
 5079TIP3    H215160   6.317   7.272   1.106  1.5376  0.1121 -0.4376
 5080TIP3   OH215161   5.187   6.534   0.482  0.3795 -0.2079 -0.6701
 5080TIP3    H115162   5.205   6.628   0.475 -0.3483  0.2273  2.7629
 5080TIP3    H215163   5.259   6.500   0.534 -2.1023 -0.5970  2.6097
 5081TIP3   OH215164   5.620   5.562   2.533 -0.1033 -0.3455  0.2878
 5081TIP3    H115165   5.711   5.587   2.545 -0.3035 -0.4322  2.1655
 5081TIP3    H215166   5.575   5.642   2.508  0.9151 -0.8130 -3.2333
 5082TIP3   OH215167   6.661   4.138   1.431  0.2797  0.5367  0.0150
 5082TIP3    H115168   6.656   4.043   1.416  0.3818  0.8315 -1.9037
 5082TIP3    H215169   6.586   4.156   1.489 -1.3054 -0.3193 -1.6976
 5083TIP3   OH215170   3.308   5.825   2.149 -0.1677  0.1635  0.0782
 5083TIP3    H115171   3.248   5.872   2.206 -1.3453 -1.7574  0.4628
 5083TIP3    H215172   3.303   5.870   2.065  0.4990  2.1345  1.0682
 5084TIP3   OH215173   1.322   0.619   6.252 -0.0806 -0.4015 -0.0453
 5084TIP3    H115174   1.254   0.557   6.279 -0.6677  0.9065  1.5942
 5084TIP3    H215175   1.395   0.602   6.311 -0.1257  0.2228  0.1983
 5085TIP3   OH215176   4.521   5.536   3.417 -1.0029 -0.0655 -0.4915
 5085TIP3    H115177   4.587   5.466   3.425 -0.5464  0.1855 -1.8294
 5085TIP3    H215178   4.437   5.491   3.427 -0.6377 -0.2658  2.0375
 5086TIP3   OH215179   5.545   7.812   1.448  0.2381 -0.5284  0.6762
 5086TIP3    H115180   5.600   7.791   1.372  0.8503 -0.3022  1.0459
 5086TIP3    H215181   5.561   7.740   1.509  2.1312  0.8133  1.8367
 5087TIP3   OH215182   4.416   5.921   3.415 -0.4294 -0.1533 -0.5564
 5087TIP3    H115183   4.498   5.879   3.438 -1.0966 -0.8812  0.5566
 5087TIP3    H215184   4.440   6.010   3.391  0.7307 -0.4896 -0.6549
 5088TIP3   OH215185   6.814   6.515   3.169  0.1598  0.2838 -0.1242
 5088TIP3    H115186   6.845   6.429   3.141 -0.9305  0.2550 -1.3211
 5088TIP3    H215187   6.785   6.502   3.260 -0.2352 -0.6836 -0.3827
 5089TIP3   OH215188   7.875   6.807   0.296  0.2860 -0.0148 -0.4938
 5089TIP3    H115189   7.926   6.875   0.341 -1.3294  1.1264 -0.3326
 5089TIP3    H215190   7.842   6.751   0.366 -0.8290  0.7746 -0.3784
 5090TIP3   OH215191   8.539   7.398   2.601  0.0455  0.3921  0.4084
 5090TIP3    H115192   8.554   7.329   2.536 -1.0189  0.8002 -0.2871
 5090TIP3    H215193   8.467   7.366   2.654  1.8901 -0.6083  2.3721
 5091TIP3   OH215194   1.020   6.256   0.332 -0.5131 -0.1395  0.0641
 5091TIP3    H115195   1.013   6.161   0.340 -0.1971 -0.3272 -1.6381
 5091TIP3    H215196   1.105   6.270   0.290 -0.7412  0.8678 -0.0758
 5092TIP3   OH215197   3.147   4.777   6.972  0.4842 -0.3374  0.1358
 5092TIP3    H115198   3.232   4.763   6.932  0.4533 -0.8012  0.2213
 5092TIP3    H215199   3.093   4.814   6.902  1.6838  3.2899  1.0040
 5093TIP3   OH215200   1.023   6.610   2.913 -0.3003  0.1079  0.0477
 5093TIP3    H115201   1.051   6.695   2.881 -0.3794 -0.2264 -0.9190
 5093TIP3    H215202   0.963   6.577   2.846  0.0102 -0.8651  0.2368
 5094TIP3   OH215203   8.068   5.537   1.700 -0.2177 -0.5514  0.7064
 5094TIP3    H115204   8.142   5.528   1.640 -0.0134 -1.5456  1.1049
 5094TIP3    H215205   8.106   5.523   1.787 -0.2307  2.2053  1.2239
 5095TIP3   OH215206   8.117   5.553   2.530  0.5408  0.1970 -0.0016
 5095TIP3    H115207   8.087   5.465   2.507 -1.8555  1.0841 -0.3566
 5095TIP3    H215208   8.125   5.551   2.626  1.4955 -0.6895 -0.0835
 5096TIP3   OH215209   3.856   7.302   1.268  0.1907 -0.1378  0.2888
 5096TIP3    H115210   3.778   7.294   1.323  0.0304  1.9669  0.4253
 5096TIP3    H215211   3.910   7.227   1.292 -2.1909 -2.2097 -0.5196
 5097TIP3   OH215212   4.922   3.200   6.755 -0.8235  0.7817  0.8304
 5097TIP3    H115213   4.845   3.150   6.730  2.8550 -2.6187 -4.5323
 5097TIP3    H215214   4.972   3.141   6.812  0.8271  0.4966 -0.8909
 5098TIP3   OH215215   6.406   6.807   1.564 -0.9870 -0.0597  0.0873
 5098TIP3    H115216   6.440   6.895   1.543 -1.5235  0.1768  0.2119
 5098TIP3    H215217   6.481   6.762   1.604 -0.5198  0.1267 -0.5642
 5099TIP3   OH215218   1.155   4.464   2.809 -0.3781 -0.1913  0.4048
 5099TIP3    H115219   1.207   4.458   2.729  1.9348  2.0807  1.6314
 5099TIP3    H215220   1.074   4.417   2.789  0.2317  0.1144 -3.1653
 5100TIP3   OH215221   7.001   6.358   1.532 -0.1348 -0.3572 -0.0285
 5100TIP3    H115222   7.048   6.325   1.609  0.9886  0.7870 -0.1997
 5100TIP3    H215223   6.920   6.395   1.568  1.0936  1.5778  0.8145
 5101TIP3   OH215224   6.598   3.627   0.144 -0.4938 -0.5749 -0.1603
 5101TIP3    H115225   6.513   3.659   0.114 -0.4191  1.6376  1.9259
 5101TIP3    H215226   6.662   3.683   0.101 -0.3254  1.4630  2.6414
 5102TIP3   OH215227   2.695   2.417   7.042  0.0367  0.2608 -0.0474
 5102TIP3    H115228   2.602   2.438   7.039 -0.3311 -0.9211  1.9782
 5102TIP3    H215229   2.739   2.501   7.031 -1.2652  0.8020 -1.1582
 5103TIP3   OH215230   6.272   3.080   1.021  0.3227 -0.1434 -0.6172
 5103TIP3    H115231   6.270   3.126   1.104  1.6064 -1.4536  0.1675
 5103TIP3    H215232   6.185   3.094   0.983 -1.2017 -1.7506  2.1463
 5104TIP3   OH215233   7.243   4.894   1.115 -0.1247 -0.1589  0.2701
 5104TIP3    H115234   7.281   4.838   1.183 -0.9669 -0.4297  0.5217
 5104TIP3    H215235   7.179   4.838   1.070 -1.4801  0.8038  0.9815
 5105TIP3   OH215236   6.776   1.188   7.127 -0.3352  0.0181 -0.5600
 5105TIP3    H115237   6.869   1.202   7.146 -0.3391  1.1556 -1.3890
 5105TIP3    H215238   6.756   1.248   7.056 -0.9343 -2.4924 -2.5863
 5106TIP3   OH215239   4.387   5.681   1.971 -0.2567  0.1899 -0.1950
 5106TIP3    H115240   4.327   5.738   1.923  0.5679  1.3451  0.1456
 5106TIP3    H215241   4.359   5.689   2.062 -1.0057 -1.0227 -0.2937
 5107TIP3   OH215242   7.281   4.812   2.771 -0.2919 -0.0136  0.0271
 5107TIP3    H115243   7.218   4.855   2.713  1.0531 -0.3316 -1.6979
 5107TIP3    H215244   7.262   4.719   2.761  0.2479 -0.0939 -0.2812
 5108TIP3   OH215245   3.819   1.577   7.016 -0.0483 -0.1355  0.1005
 5108TIP3    H115246   3.785   1.649   7.069  0.7209  0.7626 -0.6128
 5108TIP3    H215247   3.876   1.619   6.952  1.1526 -1.4551  0.2618
 5109TIP3   OH215248   6.384   4.980   1.758 -0.6749  0.0508 -0.3535
 5109TIP3    H115249   6.466   5.028   1.745 -0.2920 -0.4675  0.1288
 5109TIP3    H215250   6.362   4.995   1.849 -0.0936 -1.3968  0.0349
 5110TIP3   OH215251   6.235   4.969   1.529 -0.0428 -0.0310 -0.2307
 5110TIP3    H115252   6.283   4.959   1.611  0.6620 -2.1288 -0.8455
 5110TIP3    H215253   6.192   4.884   1.516 -1.3818  0.7893 -1.2679
 5111TIP3   OH215254   1.852   1.130   7.207  0.0904 -0.1022 -0.1646
 5111TIP3    H115255   1.889   1.218   7.205  1.0886 -0.5255 -1.3047
 5111TIP3    H215256   1.916   1.076   7.159 -1.4457 -1.0789 -1.1782
 5112TIP3   OH215257   7.428   5.683   1.168  0.2447  0.3758 -0.1611
 5112TIP3    H115258   7.518   5.691   1.199 -0.2927  1.2681  1.1949
 5112TIP3    H215259   7.436   5.679   1.072  1.6618  1.2437 -0.0920
 5113TIP3   OH215260   0.332   5.776   1.143 -0.1386 -0.2443  0.6717
 5113TIP3    H115261   0.243   5.757   1.114 -0.4652 -0.8048  2.0124
 5113TIP3    H215262   0.378   5.692   1.134  0.6622  0.3926 -1.4345
 5114TIP3   OH215263   2.917   1.240   6.305 -0.1790  0.2936  0.4532
 5114TIP3    H115264   2.864   1.318   6.287 -0.8401 -0.1558  0.4422
 5114TIP3    H215265   2.916   1.231   6.400 -0.7772 -0.1657  0.4054
 5115TIP3   OH215266   7.397   6.591   1.989 -0.4964 -0.2738 -0.2094
 5115TIP3    H115267   7.430   6.600   2.079  2.7599 -0.7888 -1.2729
 5115TIP3    H215268   7.431   6.668   1.944  1.3586 -2.0534 -1.9412
 5116TIP3   OH215269   5.374   0.122   7.143 -0.6472  0.4580 -0.1018
 5116TIP3    H115270   5.338   0.204   7.108 -0.1921  0.6074 -0.2225
 5116TIP3    H215271   5.384   0.066   7.067 -1.3519  0.1367  0.0370
 5117TIP3   OH215272   5.051   7.530   2.200  0.3437 -0.6217 -0.3474
 5117TIP3    H115273   4.978   7.582   2.234  0.2841 -0.8469 -0.1264
 5117TIP3    H215274   5.114   7.595   2.168  0.8263 -0.3653  1.0789
 5118TIP3   OH215275   5.273   7.168   1.307  0.4303  0.3806 -0.1724
 5118TIP3    H115276   5.315   7.084   1.290  0.8873  0.0300  2.4773
 5118TIP3    H215277   5.324   7.207   1.378 -0.7371  2.1842 -0.2803
 5119TIP3   OH215278   6.945   8.078   3.091  0.1933  0.0060 -0.2810
 5119TIP3    H115279   6.901   8.135   3.028  2.1702  0.2844 -1.4121
 5119TIP3    H215280   7.035   8.072   3.061  0.7410 -1.3155  1.5133
 5120TIP3   OH215281   7.574   4.267   0.166 -0.2669  0.2216 -0.3200
 5120TIP3    H115282   7.574   4.216   0.084 -0.0891  0.2555 -0.3410
 5120TIP3    H215283   7.549   4.204   0.233 -2.3367  0.6287 -0.6755
 5121TIP3   OH215284   6.715   4.278   2.047  0.3365 -0.6775  0.0490
 5121TIP3    H115285   6.647   4.213   2.061 -0.6314  0.0743 -1.0465
 5121TIP3    H215286   6.668   4.359   2.027  1.5260 -0.6080 -2.7277
 5122TIP3   OH215287   5.917   7.097   2.608 -0.6162  0.0175 -0.2372
 5122TIP3    H115288   5.997   7.098   2.555 -0.8399 -0.8465 -0.5969
 5122TIP3    H215289   5.847   7.115   2.544 -0.9561 -1.6866 -0.3582
 5123TIP3   OH215290   6.247   4.953   3.019  0.0708  0.1737 -0.1925
 5123TIP3    H115291   6.283   5.038   2.995 -2.1606  1.0908 -0.3672
 5123TIP3    H215292   6.276   4.894   2.949 -0.0612  1.2083 -1.1178
 5124TIP3   OH215293   5.929   7.397   0.590  0.4585  0.1499 -0.7026
 5124TIP3    H115294   5.941   7.306   0.617  0.8428  0.8918  1.7548
 5124TIP3    H215295   6.018   7.430   0.576  0.4359  0.7163  0.4311
 5125TIP3   OH215296   6.568   6.005   2.126 -0.2272 -0.0977  1.1898
 5125TIP3    H115297   6.631   5.956   2.073  1.0578  1.5556  1.1506
 5125TIP3    H215298   6.487   5.955   2.119  0.1689 -0.4516 -1.5686
 5126TIP3   OH215299   4.875   8.149   1.207  0.1062  0.4484  0.2194
 5126TIP3    H115300   4.924   8.207   1.150  1.4092 -0.3765  0.4659
 5126TIP3    H215301   4.918   8.156   1.292 -0.3108 -0.1635  0.4890
 5127TIP3   OH215302   6.256   6.101   0.252  0.3409  0.0050  0.7132
 5127TIP3    H115303   6.312   6.124   0.325 -1.1860 -1.1323  2.2680
 5127TIP3    H215304   6.234   6.186   0.211  2.1029  0.5428  0.8503
 5128TIP3   OH215305   4.883   7.947   1.727 -0.3815  0.3773 -0.2943
 5128TIP3    H115306   4.894   7.893   1.805 -0.6940  0.7748  0.0254
 5128TIP3    H215307   4.806   7.912   1.683  0.2127 -0.3043 -0.8033
 5129TIP3   OH215308   8.774   7.982   4.266  0.4826 -0.2690  0.1891
 5129TIP3    H115309   8.721   8.041   4.318  0.7792  0.3543 -0.2041
 5129TIP3    H215310   8.748   7.999   4.176  0.9723 -0.3220  0.0317
 5130TIP3   OH215311   8.386   5.915   0.524  0.0368 -0.5822  0.1242
 5130TIP3    H115312   8.454   5.906   0.590 -0.4124 -0.3982  0.6217
 5130TIP3    H215313   8.330   5.838   0.537  1.5477 -2.0777 -1.9492
 5131TIP3   OH215314   5.770   7.338   1.026  0.2816  0.0006  0.5111
 5131TIP3    H115315   5.734   7.380   1.104 -0.8462  0.5823 -0.3102
 5131TIP3    H215316   5.723   7.379   0.953  0.9987 -0.8628 -0.4448
 5132TIP3   OH215317   7.292   1.231   7.141  0.5921 -0.6119  0.0789
 5132TIP3    H115318   7.274   1.319   7.174  0.9454 -0.4343 -0.1980
 5132TIP3    H215319   7.209   1.184   7.153  0.8593 -0.7121  1.6948
 5133TIP3   OH215320   6.828   7.882   3.488  0.8181  0.0913 -0.7777
 5133TIP3    H115321   6.804   7.823   3.417  0.3437 -0.2781 -0.3045
 5133TIP3    H215322   6.900   7.935   3.451  0.7543 -0.2789 -1.4386
 5134TIP3   OH215323   6.558   7.058   0.841  0.3580 -0.4868  0.5161
 5134TIP3    H115324   6.652   7.048   0.849  0.2697 -1.4991  0.4287
 5134TIP3    H215325   6.537   7.020   0.756  0.0276  0.9139 -0.0424
 5135TIP3   OH215326   4.210   5.452   2.252  0.2935  0.0465  0.1658
 5135TIP3    H115327   4.303   5.428   2.258  0.8807  2.3972  1.1322
 5135TIP3    H215328   4.169   5.378   2.208  2.6114 -1.1004 -0.1504
 5136TIP3   OH215329   6.938   6.166   2.582  0.0846  0.1437 -0.5473
 5136TIP3    H115330   6.864   6.171   2.521  0.9411  1.5745 -1.5177
 5136TIP3    H215331   6.920   6.090   2.636 -1.2297 -0.5449 -1.9175
 5137TIP3   OH215332   6.129   2.478   6.244 -0.3338  0.5991  0.1380
 5137TIP3    H115333   6.124   2.513   6.333 -0.0468  0.8115  0.0709
 5137TIP3    H215334   6.120   2.384   6.255  0.9762  0.5002  0.5203
 5138TIP3   OH215335   5.275   5.890   0.917 -0.4383  0.7019  0.0515
 5138TIP3    H115336   5.361   5.912   0.954  0.5256 -2.2331 -0.2594
 5138TIP3    H215337   5.237   5.829   0.980 -1.2349  0.1183 -0.9871
 5139TIP3   OH215338   3.655   7.426   2.182 -0.3418 -0.3905 -0.0673
 5139TIP3    H115339   3.618   7.389   2.262 -2.4992 -0.2237 -0.9644
 5139TIP3    H215340   3.721   7.362   2.154  0.3052 -0.5310  1.7247
 5140TIP3   OH215341   6.495   7.454   0.775 -0.1188 -0.5403  0.1469
 5140TIP3    H115342   6.585   7.473   0.800 -0.2481 -0.9705  0.9504
 5140TIP3    H215343   6.441   7.506   0.834 -0.3885  1.1140 -1.5142
 5141TIP3   OH215344   7.157   6.007   0.876  0.6276 -0.1819  0.0265
 5141TIP3    H115345   7.196   6.007   0.963 -0.5012  1.0300  0.5595
 5141TIP3    H215346   7.062   6.008   0.893  0.4099  1.1343 -1.2069
 5142TIP3   OH215347   8.268   6.677   1.023  0.0579  0.2921 -0.3338
 5142TIP3    H115348   8.301   6.641   0.941  0.5317 -0.3794  0.1451
 5142TIP3    H215349   8.261   6.601   1.081 -1.2971  0.5931 -0.0940
 5143TIP3   OH215350   5.217   4.578   2.136  0.3808 -0.1994 -0.2976
 5143TIP3    H115351   5.193   4.662   2.096  0.5134  0.0768  0.1940
 5143TIP3    H215352   5.167   4.575   2.218  1.2235 -0.0953  0.2247
 5144TIP3   OH215353   4.260   2.498   7.145 -0.1113  0.2689 -0.0980
 5144TIP3    H115354   4.276   2.414   7.187 -0.5427 -0.0663 -0.5940
 5144TIP3    H215355   4.210   2.476   7.066 -4.0234  1.3913  1.9518
 5145TIP3   OH215356   5.042   4.246   0.715 -0.1674  0.0065 -1.2611
 5145TIP3    H115357   5.047   4.252   0.810  1.0188 -0.3566 -1.3044
 5145TIP3    H215358   4.961   4.198   0.698 -0.9081  0.9524 -0.4695
 5146TIP3   OH215359   3.526   0.114   7.051  0.1493  0.2018 -0.4422
 5146TIP3    H115360   3.455   0.175   7.070 -1.3118 -1.2541 -1.1218
 5146TIP3    H215361   3.559   0.141   6.966  1.2926  1.6771  0.4434
 5147TIP3   OH215362   7.041   7.155   1.132  0.2302 -0.2033  0.0320
 5147TIP3    H115363   6.966   7.181   1.078  0.1501 -0.1123  0.1865
 5147TIP3    H215364   7.004   7.094   1.196  0.5223 -1.1224 -0.6773
 5148TIP3   OH215365   5.595   5.672   2.080 -0.1428 -0.4753  0.2899
 5148TIP3    H115366   5.623   5.650   1.991  1.1483  1.1527  0.2586
 5148TIP3    H215367   5.522   5.612   2.098  0.3398 -1.6171 -1.4131
 5149TIP3   OH215368   6.099   5.193   0.177  0.2312 -0.1439  0.2287
 5149TIP3    H115369   6.018   5.233   0.210  0.7116 -0.2262  1.5343
 5149TIP3    H215370   6.159   5.196   0.251  1.7177  0.6815 -0.9899
 5150TIP3   OH215371   5.710   5.708   1.052 -0.2870  1.1288 -0.3587
 5150TIP3    H115372   5.654   5.634   1.030  0.8496  0.6101 -1.5539
 5150TIP3    H215373   5.756   5.680   1.132  1.0562  0.0265 -1.4958
 5151TIP3   OH215374   7.538   5.856   1.777 -0.3225  0.5030 -0.3739
 5151TIP3    H115375   7.552   5.766   1.749  0.7835  1.0278 -1.5372
 5151TIP3    H215376   7.616   5.877   1.829 -1.0548  0.4685  0.7706
 5152TIP3   OH215377   5.727   5.344   2.137  0.5762 -0.3061 -0.6249
 5152TIP3    H115378   5.704   5.253   2.156 -2.1751  0.6213  0.8148
 5152TIP3    H215379   5.650   5.394   2.164  1.9815  2.4468 -1.5276
 5153TIP3   OH215380   8.431   7.108   1.309 -0.3245 -0.2588 -0.0578
 5153TIP3    H115381   8.522   7.087   1.291 -0.1446  1.1969 -0.9447
 5153TIP3    H215382   8.383   7.027   1.293  0.7350 -0.8718 -0.1339
 5154TIP3   OH215383   6.551   5.553   0.230 -0.4886  0.2258 -0.3297
 5154TIP3    H115384   6.613   5.604   0.179  0.1687  0.6226  0.8500
 5154TIP3    H215385   6.468   5.563   0.184 -0.3731  2.4225 -0.0868
 5155TIP3   OH215386   7.178   6.874   0.653  0.0306  0.1097 -0.0098
 5155TIP3    H115387   7.218   6.954   0.686 -0.4085  0.3459 -0.0490
 5155TIP3    H215388   7.084   6.890   0.658 -0.2193 -1.9644  3.9580
 5156TIP3   OH215389   3.995   5.588   0.431 -1.4070  0.5997 -0.1177
 5156TIP3    H115390   3.949   5.525   0.376 -2.4465  1.6262 -0.4361
 5156TIP3    H215391   3.970   5.565   0.521 -0.6013 -0.3628 -0.1232
 5157TIP3   OH215392   2.614   1.264   6.664  0.5618  0.5969 -0.6687
 5157TIP3    H115393   2.547   1.196   6.664 -0.7389  1.8613 -0.5314
 5157TIP3    H215394   2.695   1.217   6.642 -0.3385 -0.9491 -0.7929
 5158TIP3   OH215395   5.340   6.364   0.051  0.2884  0.8373  0.5448
 5158TIP3    H115396   5.417   6.376  -0.005 -0.1929  1.4339  0.0164
 5158TIP3    H215397   5.373   6.313   0.125  0.8227 -0.3474 -0.4963
 5159TIP3   OH215398   5.495   6.003   1.080 -0.5697  0.0135  0.0903
 5159TIP3    H115399   5.555   5.951   1.134  1.4101  2.7021  0.6013
 5159TIP3    H215400   5.443   6.052   1.143 -0.9561  0.2418 -0.4114
 5160TIP3   OH215401   1.040   6.298   1.727  0.1215  0.1307  0.2249
 5160TIP3    H115402   1.107   6.310   1.659  0.5715 -1.4059  0.3744
 5160TIP3    H215403   1.082   6.330   1.807  0.4396 -0.2077  0.1963
 5161TIP3   OH215404   7.615   6.510   1.372  0.0142 -0.2432  0.1606
 5161TIP3    H115405   7.525   6.490   1.400 -0.0701  0.9148  0.7546
 5161TIP3    H215406   7.631   6.598   1.406  0.6627  0.3668 -1.6759
 5162TIP3   OH215407   5.963   6.410   2.639  0.3053 -0.0340  0.4233
 5162TIP3    H115408   5.921   6.496   2.641 -1.3882 -0.8647  1.5074
 5162TIP3    H215409   5.990   6.395   2.730 -1.1157 -1.4517  0.6294
 5163TIP3   OH215410   0.418   7.274   0.910  0.2568 -0.2418  0.1843
 5163TIP3    H115411   0.345   7.217   0.887 -0.2171  0.2590  0.4261
 5163TIP3    H215412   0.496   7.224   0.888 -0.1646 -0.1579 -1.5513
 5164TIP3   OH215413   0.861   6.243   0.795  0.1430  0.3812  0.0085
 5164TIP3    H115414   0.886   6.290   0.874  2.5873 -0.4469 -0.2308
 5164TIP3    H215415   0.867   6.308   0.725 -1.8030  1.0572  0.4533
 5165TIP3   OH215416   3.783   2.289   6.759  0.1823 -0.2195  0.0408
 5165TIP3    H115417   3.695   2.275   6.725  0.0874 -1.8481  0.8828
 5165TIP3    H215418   3.810   2.203   6.791  2.0861  0.2609 -0.2190
 5166TIP3   OH215419   3.483   2.134   6.342 -0.4803  0.3111 -0.0926
 5166TIP3    H115420   3.552   2.103   6.401  0.2183  2.9231  0.5325
 5166TIP3    H215421   3.462   2.058   6.288  2.5079 -0.6882  0.0507
 5167TIP3   OH215422   7.544   7.294   0.159  0.0228 -0.0545 -0.2610
 5167TIP3    H115423   7.503   7.377   0.184 -0.0561 -0.2550  0.2647
 5167TIP3    H215424   7.529   7.288   0.064 -1.3349 -0.2156 -0.0441
 5168TIP3   OH215425   2.741   1.465   6.251  0.0804 -0.1666  0.2738
 5168TIP3    H115426   2.739   1.526   6.177 -0.6995 -2.0227 -1.2868
 5168TIP3    H215427   2.736   1.521   6.329 -3.7231  1.6621 -1.1417
 5169TIP3   OH215428   6.485   6.391   1.515  0.2074  0.3252  0.1467
 5169TIP3    H115429   6.449   6.479   1.524  1.6125  0.9031  0.2790
 5169TIP3    H215430   6.442   6.340   1.583 -1.2342  0.6974 -0.4676
 5170TIP3   OH215431   6.059   8.351   2.765 -0.1099 -0.1273 -0.1935
 5170TIP3    H115432   6.037   8.392   2.848 -0.5383  0.5599 -0.6374
 5170TIP3    H215433   6.056   8.257   2.783  4.9231 -0.0503  1.9117
 5171TIP3   OH215434   5.435   2.862   5.432 -0.0823  0.1532 -0.0471
 5171TIP3    H115435   5.446   2.778   5.386 -0.0061  0.6536 -0.9432
 5171TIP3    H215436   5.507   2.865   5.494 -0.4901 -0.7708  0.4806
 5172TIP3   OH215437   5.416   2.983   6.813 -0.0645 -0.4422 -0.0679
 5172TIP3    H115438   5.406   2.989   6.908  0.2574 -1.8310  0.0597
 5172TIP3    H215439   5.376   2.899   6.789  0.6707 -0.5341 -1.0373
 5173TIP3   OH215440   7.691   7.808   0.713 -0.0364 -0.0405  0.0990
 5173TIP3    H115441   7.604   7.822   0.678 -1.0973 -3.5268  1.1525
 5173TIP3    H215442   7.695   7.865   0.790 -1.7448 -0.5583  0.5898
 5174TIP3   OH215443   4.961   6.138   3.228 -0.8970  0.0223  0.7519
 5174TIP3    H115444   4.929   6.126   3.317  0.7118 -0.2868  1.2850
 5174TIP3    H215445   5.004   6.224   3.229  1.3268 -1.0612  0.9397
 5175TIP3   OH215446   5.238   4.867   2.573 -0.0452 -0.5599 -0.7710
 5175TIP3    H115447   5.252   4.946   2.626  2.0537  0.2561 -2.4574
 5175TIP3    H215448   5.283   4.798   2.622 -0.8223 -0.4589  0.0953
 5176TIP3   OH215449   4.824   5.681   0.371 -0.1615 -0.2565  0.6707
 5176TIP3    H115450   4.845   5.773   0.353  0.5621 -0.1895  1.8353
 5176TIP3    H215451   4.729   5.675   0.355  0.3643 -0.1294 -2.7433
 5177TIP3   OH215452   8.758   3.307   0.477  0.3719  0.1149  0.2477
 5177TIP3    H115453   8.665   3.327   0.471  0.6778  1.5905  0.2052
 5177TIP3    H215454   8.767   3.221   0.436 -1.0631 -0.3201  0.8275
 5178TIP3   OH215455   4.290   3.914   6.902  0.2693  0.5464  0.3272
 5178TIP3    H115456   4.230   3.943   6.833  0.1119 -1.5171 -0.4323
 5178TIP3    H215457   4.238   3.922   6.982 -0.0974  1.3817  0.0203
 5179TIP3   OH215458   7.542   6.337   0.047 -0.5697  0.2444  0.0284
 5179TIP3    H115459   7.549   6.332   0.142  1.5625  0.8587 -0.0897
 5179TIP3    H215460   7.552   6.430   0.026  2.2974 -0.2374 -1.0180
 5180TIP3   OH215461   5.484   5.312   2.556  0.0068  0.2619 -0.1676
 5180TIP3    H115462   5.522   5.249   2.495 -0.9623 -0.0498 -0.4677
 5180TIP3    H215463   5.535   5.391   2.544  1.8363 -0.7454  0.8775
 5181TIP3   OH215464   7.465   5.370   1.561 -0.3881  0.1841 -0.0870
 5181TIP3    H115465   7.511   5.418   1.631  1.2709  0.4742 -1.3541
 5181TIP3    H215466   7.531   5.357   1.493 -2.0940  0.2592 -1.8019
 5182TIP3   OH215467   7.489   4.945   2.432 -0.6445  0.7922 -0.0412
 5182TIP3    H115468   7.515   4.898   2.353 -1.6200  1.0167 -0.5057
 5182TIP3    H215469   7.420   4.892   2.471 -0.1941  0.7036  0.6404
 5183TIP3   OH215470   1.877   6.328   2.613  0.2517 -0.1415 -0.2849
 5183TIP3    H115471   1.803   6.378   2.646 -0.1230 -1.2138  0.5325
 5183TIP3    H215472   1.839   6.248   2.576  0.8637  0.0289 -1.3311
 5184TIP3   OH215473   6.255   6.509   0.939  0.3434  0.3940  0.3549
 5184TIP3    H115474   6.292   6.422   0.951 -0.1869  0.2384  0.9158
 5184TIP3    H215475   6.168   6.494   0.905  0.1071  0.6847  0.8141
 5185TIP3   OH215476   2.060   0.858   6.839  0.5049 -0.1357  0.6705
 5185TIP3    H115477   2.082   0.766   6.850  0.3000 -0.2197  0.4098
 5185TIP3    H215478   2.057   0.870   6.744  1.8651  0.4709  0.6915
 5186TIP3   OH215479   8.391   6.141   0.916 -0.8567 -0.5411 -0.4521
 5186TIP3    H115480   8.474   6.182   0.941 -1.3801  0.6901 -0.7019
 5186TIP3    H215481   8.389   6.060   0.966 -0.4203  0.3807  1.1252
 5187TIP3   OH215482   4.010   2.006   6.955 -0.0080 -0.0615  0.1835
 5187TIP3    H115483   4.097   1.967   6.963 -0.1544 -0.4972 -0.3224
 5187TIP3    H215484   3.979   2.015   7.045  0.9699  1.0341  0.4080
 5188TIP3   OH215485   7.667   8.074   0.422  0.2276 -0.2035 -0.3215
 5188TIP3    H115486   7.760   8.092   0.407  0.0726  0.5241 -0.4654
 5188TIP3    H215487   7.659   8.066   0.517  0.5174 -0.7376 -0.3417
 5189TIP3   OH215488   7.395   7.953   2.078  0.8037  0.3260 -0.3396
 5189TIP3    H115489   7.388   8.001   1.995 -1.8436  1.3386  0.4149
 5189TIP3    H215490   7.331   7.882   2.070  1.2236 -0.1570  0.4711
 5190TIP3   OH215491   6.045   6.654   3.350  0.1823 -0.2412 -0.7640
 5190TIP3    H115492   6.126   6.686   3.309 -0.5127  0.4868 -1.5869
 5190TIP3    H215493   5.980   6.722   3.332 -0.3936 -0.3766  0.7027
 5191TIP3   OH215494   0.371   5.902   1.734  0.4898 -0.5671 -0.3547
 5191TIP3    H115495   0.353   5.810   1.716  0.0355 -0.5865  0.1938
 5191TIP3    H215496   0.314   5.924   1.808  0.5188  0.1834 -0.5543
 5192TIP3   OH215497   8.593   7.157   3.007  0.1936  0.0734 -0.1278
 5192TIP3    H115498   8.668   7.100   2.991  1.3375  1.2704  0.9062
 5192TIP3    H215499   8.592   7.170   3.101 -1.9377 -0.7417  0.0060
 5193TIP3   OH215500   0.216   7.240   2.321 -0.2124 -0.1034 -0.4030
 5193TIP3    H115501   0.131   7.284   2.321 -0.0028  0.3011 -0.3991
 5193TIP3    H215502   0.225   7.206   2.233  0.3888  1.3406 -0.9114
 5194TIP3   OH215503   2.535   0.401   1.156  0.3594 -0.4144 -0.3723
 5194TIP3    H115504   2.476   0.374   1.227  0.0097  0.9808 -0.1188
 5194TIP3    H215505   2.506   0.350   1.080 -1.6720  0.7912 -0.4346
 5195TIP3   OH215506   5.024   5.885   1.287 -0.2297  0.0604  0.1678
 5195TIP3    H115507   4.955   5.891   1.353 -0.8245 -1.6765 -0.2749
 5195TIP3    H215508   4.981   5.906   1.204  0.1073  0.4412  0.0861
 5196TIP3   OH215509   4.674   2.602   6.965 -0.4711  0.4538  0.0301
 5196TIP3    H115510   4.614   2.653   6.912  2.5683  1.2050 -2.8798
 5196TIP3    H215511   4.707   2.663   7.031 -0.9140  0.7714 -0.0451
 5197TIP3   OH215512   7.664   5.226   1.973 -0.3898 -0.1378 -0.1370
 5197TIP3    H115513   7.667   5.271   1.888 -0.2376 -0.1463 -0.1355
 5197TIP3    H215514   7.612   5.147   1.956  2.6631 -2.0132 -1.1148
 5198TIP3   OH215515   5.694   7.228   2.462 -0.0378 -0.3610 -0.1634
 5198TIP3    H115516   5.733   7.217   2.375  0.0999 -0.5229 -0.0821
 5198TIP3    H215517   5.609   7.267   2.445 -1.0486 -2.6732 -0.5675
 5199TIP3   OH215518   0.021   5.915   2.108  0.0997 -0.0316 -0.7623
 5199TIP3    H115519   0.063   5.937   2.191 -0.7139  0.4472 -0.4652
 5199TIP3    H215520   0.066   5.837   2.078 -1.1412 -1.6140  1.3154
 5200TIP3   OH215521   6.066   5.054   1.275 -0.4211 -0.3404 -0.3021
 5200TIP3    H115522   6.032   4.984   1.219  1.0828 -0.9376 -0.4954
 5200TIP3    H215523   6.106   5.008   1.349 -1.6000  0.4142  0.8316
 5201TIP3   OH215524   0.966   0.226   2.572  0.0129 -0.2379  0.1024
 5201TIP3    H115525   0.932   0.181   2.495 -0.6275 -0.2228  0.3722
 5201TIP3    H215526   0.998   0.310   2.538 -0.5523 -0.0998 -0.1022
 5202TIP3   OH215527   5.359   6.363   0.887  0.4747 -0.0473 -0.2881
 5202TIP3    H115528   5.415   6.304   0.837  1.6224 -0.2024  1.1561
 5202TIP3    H215529   5.271   6.327   0.877  1.0613 -1.5484 -0.0715
 5203TIP3   OH215530   7.997   6.957   1.210  0.3443  0.4289 -0.1586
 5203TIP3    H115531   7.959   6.872   1.189  0.3067  0.3924  0.0617
 5203TIP3    H215532   7.930   7.020   1.181  0.5695  0.4018 -0.7448
 5204TIP3   OH215533   7.028   5.833   2.610  0.2459 -0.3566  0.4202
 5204TIP3    H115534   7.065   5.860   2.694  0.4754  0.5603  0.0297
 5204TIP3    H215535   7.045   5.739   2.606  1.6610 -0.1274  0.6918
 5205TIP3   OH215536   7.413   6.276   0.746 -0.1128  0.1602 -0.4243
 5205TIP3    H115537   7.394   6.208   0.681  0.7205 -2.1057  1.6369
 5205TIP3    H215538   7.506   6.294   0.734  0.3345 -1.1523  0.9164
 5206TIP3   OH215539   7.055   6.055   1.475 -0.0396 -0.0207 -0.3647
 5206TIP3    H115540   7.136   6.015   1.443 -0.1662 -0.0215 -0.6879
 5206TIP3    H215541   7.083   6.136   1.519  0.0533  0.4269 -1.2461
 5207TIP3   OH215542   6.686   7.482   1.150  0.4271  0.1764 -0.7317
 5207TIP3    H115543   6.680   7.449   1.061  0.7582 -0.5548 -0.4859
 5207TIP3    H215544   6.596   7.507   1.173 -0.0026 -1.4560 -0.5823
 5208TIP3   OH215545   7.150   6.050   0.169  0.4020  0.3348  0.3055
 5208TIP3    H115546   7.137   6.137   0.131  1.4656  0.1507 -0.4913
 5208TIP3    H215547   7.087   5.995   0.123  0.9379  0.3313 -0.4254
 5209TIP3   OH215548   3.753   4.980   2.531 -0.3993  0.1156 -0.4640
 5209TIP3    H115549   3.804   4.901   2.549 -0.4522  0.2169  0.1580
 5209TIP3    H215550   3.761   5.032   2.611 -1.1051  0.3330 -0.5267
 5210TIP3   OH215551   6.705   5.604   1.412  1.0351  0.1136  0.4525
 5210TIP3    H115552   6.771   5.665   1.379  0.5117 -0.3513 -1.5321
 5210TIP3    H215553   6.730   5.589   1.503  3.2693  0.4715 -0.0615
 5211TIP3   OH215554   7.059   4.346   1.304  0.3472 -0.4411 -0.0047
 5211TIP3    H115555   7.103   4.402   1.367  1.6275 -0.7984 -0.5576
 5211TIP3    H215556   7.003   4.405   1.253  0.7744  0.1400  0.2047
 5212TIP3   OH215557   8.032   0.497   1.189  0.3194 -0.3109 -0.2165
 5212TIP3    H115558   7.938   0.485   1.206  0.3184 -2.9946 -1.7892
 5212TIP3    H215559   8.057   0.573   1.242 -2.0315 -1.5636  2.8458
 5213TIP3   OH215560   3.469   4.411   6.600 -0.0157  0.1942 -0.0029
 5213TIP3    H115561   3.415   4.340   6.564  2.5679 -2.8461  1.7799
 5213TIP3    H215562   3.415   4.450   6.668 -1.5309  0.0074 -1.0683
 5214TIP3   OH215563   6.569   4.529   1.223  0.7713 -0.4249 -0.0606
 5214TIP3    H115564   6.616   4.447   1.234  3.2955  0.8189 -1.0596
 5214TIP3    H215565   6.541   4.529   1.131  0.9467 -0.1003 -0.1172
 5215TIP3   OH215566   0.646   6.000   1.891 -0.3776  0.0852 -0.3928
 5215TIP3    H115567   0.740   5.998   1.873 -0.2379  1.4693  0.1379
 5215TIP3    H215568   0.607   5.952   1.819  0.7491 -0.6234 -0.5470
 5216TIP3   OH215569   7.031   6.273   3.307 -0.5185 -1.0676 -0.2511
 5216TIP3    H115570   6.998   6.295   3.220 -2.5645 -2.1306  0.2333
 5216TIP3    H215571   7.041   6.178   3.305  0.9238 -0.9412  0.1874
 5217TIP3   OH215572   8.512   7.617   0.235  0.1910 -0.1527  0.2719
 5217TIP3    H115573   8.512   7.712   0.242  0.4619 -0.1751  0.5573
 5217TIP3    H215574   8.572   7.587   0.303  1.2517 -0.4470 -0.7637
 5218TIP3   OH215575   8.230   7.221   1.134  0.4432  0.5128 -0.3773
 5218TIP3    H115576   8.299   7.189   1.192 -0.2116  0.0499  0.1548
 5218TIP3    H215577   8.174   7.275   1.190 -0.2679 -0.0471 -0.5337
 5219TIP3   OH215578   6.044   8.009   1.584  0.1507  0.3989 -0.1577
 5219TIP3    H115579   6.109   8.053   1.640 -0.9057  1.0738  0.5485
 5219TIP3    H215580   6.038   7.921   1.621  0.6457  0.3337 -0.2201
 5220TIP3   OH215581   4.284   1.843   6.751  0.0340  0.4304 -0.1922
 5220TIP3    H115582   4.278   1.852   6.846  1.6054  0.1316 -0.0544
 5220TIP3    H215583   4.277   1.932   6.718 -2.1623  0.3870  0.0943
 5221TIP3   OH215584   8.653   6.196   2.179 -0.6452  1.3189  0.1079
 5221TIP3    H115585   8.681   6.210   2.269 -0.0132  0.2571  0.0894
 5221TIP3    H215586   8.692   6.268   2.129  5.5664 -2.1990 -0.6430
 5222TIP3   OH215587   7.686   3.855   0.392  0.4929 -0.3108 -0.0514
 5222TIP3    H115588   7.651   3.767   0.385 -0.0985  0.0602 -2.0087
 5222TIP3    H215589   7.780   3.845   0.374  0.9470 -0.8884  2.3903
 5223TIP3   OH215590   5.770   1.581   6.399  0.0493 -0.3900 -0.1824
 5223TIP3    H115591   5.824   1.592   6.321  0.6609 -2.7083 -0.1274
 5223TIP3    H215592   5.793   1.494   6.431 -2.0691 -0.4877  1.1223
 5224TIP3   OH215593   8.889   4.304   3.274  0.0738  0.3103  0.0368
 5224TIP3    H115594   8.885   4.335   3.364  1.0929  1.4909 -0.3051
 5224TIP3    H215595   8.919   4.380   3.224  1.8531 -0.9998 -0.9607
 5225TIP3   OH215596   4.525   5.619   1.668 -0.3346 -0.0638 -0.1452
 5225TIP3    H115597   4.607   5.570   1.654 -0.3015 -0.2216  0.5491
 5225TIP3    H215598   4.489   5.581   1.749 -1.8833 -1.0701 -1.2816
 5226TIP3   OH215599   8.698   5.461   1.289 -0.1959 -0.2583  0.1781
 5226TIP3    H115600   8.740   5.418   1.215 -2.0183 -0.6414 -0.6471
 5226TIP3    H215601   8.742   5.424   1.366  0.1032 -1.5679 -0.6171
 5227TIP3   OH215602   6.332   5.608   0.608  0.5352  0.5150 -0.6129
 5227TIP3    H115603   6.313   5.664   0.683 -0.5489 -0.3687 -0.2237
 5227TIP3    H215604   6.265   5.630   0.544 -1.3725 -2.0064  0.4436
 5228TIP3   OH215605   3.498   1.642   6.662 -0.0905  0.0380 -0.2677
 5228TIP3    H115606   3.559   1.649   6.588 -1.2782  0.3655 -1.2329
 5228TIP3    H215607   3.437   1.573   6.636 -0.0573 -0.3772  0.7498
 5229TIP3   OH215608   7.930   6.422   2.444 -0.1994 -0.5907 -0.3196
 5229TIP3    H115609   7.979   6.343   2.468 -0.6219 -0.4868  0.9092
 5229TIP3    H215610   7.928   6.474   2.524 -1.0568  0.0688 -0.7694
 5230TIP3   OH215611   7.175   5.465   4.218 -0.1044  0.2661 -0.5370
 5230TIP3    H115612   7.161   5.470   4.124  0.4123 -1.6416 -0.7363
 5230TIP3    H215613   7.094   5.429   4.254 -0.6352  1.8101 -0.1208
 5231TIP3   OH215614   6.957   5.810   1.580 -0.5481 -0.6603  0.0281
 5231TIP3    H115615   6.977   5.902   1.597 -0.6925 -0.3099 -1.6422
 5231TIP3    H215616   6.921   5.778   1.663 -0.7002  0.8381  0.5573
 5232TIP3   OH215617   5.775   5.408   3.157 -0.0747  0.5410  0.0224
 5232TIP3    H115618   5.765   5.424   3.250  1.1551  1.2383  0.0405
 5232TIP3    H215619   5.701   5.454   3.116 -0.7469  0.0348  0.6598
 5233TIP3   OH215620   6.100   6.523   2.231 -0.0443  0.1118  0.1277
 5233TIP3    H115621   6.021   6.560   2.271 -0.9258 -1.0029 -0.5212
 5233TIP3    H215622   6.132   6.460   2.296 -0.3019 -0.2095 -0.0558
 5234TIP3   OH215623   5.984   6.866   2.331  0.1263  0.6662 -0.2065
 5234TIP3    H115624   5.915   6.863   2.265 -0.6288 -1.3336  0.6397
 5234TIP3    H215625   6.031   6.948   2.313 -0.7688  0.7135 -2.4881
 5235TIP3   OH215626   5.516   3.295   6.258 -0.3913 -0.1006  0.2982
 5235TIP3    H115627   5.516   3.357   6.330 -0.4166  0.2235  0.0218
 5235TIP3    H215628   5.545   3.345   6.182  1.5264 -0.9183  0.4697
 5236TIP3   OH215629   7.997   7.557   2.675 -0.8236 -0.7513 -0.1456
 5236TIP3    H115630   7.942   7.598   2.608 -2.7085 -2.1249  0.5343
 5236TIP3    H215631   8.061   7.624   2.697 -0.8904  0.1364 -2.4877
 5237TIP3   OH215632   7.608   7.116   1.963 -0.6106 -0.2289  0.9467
 5237TIP3    H115633   7.695   7.083   1.984  0.2992  0.5092 -1.5220
 5237TIP3    H215634   7.624   7.188   1.902 -2.8945  0.7375  1.4477
 5238TIP3   OH215635   6.763   6.492   1.105  0.0829 -0.3967 -0.3793
 5238TIP3    H115636   6.687   6.492   1.163  0.2619 -1.3928 -0.1395
 5238TIP3    H215637   6.838   6.484   1.164  0.3706  0.3187 -0.6361
 5239TIP3   OH215638   3.750   6.229   1.238 -1.0713  0.3351  0.0565
 5239TIP3    H115639   3.781   6.206   1.326  1.9296 -0.5065 -1.1453
 5239TIP3    H215640   3.658   6.251   1.250 -1.3560 -2.1124  3.0274
 5240TIP3   OH215641   2.817   5.744   6.833 -0.0174  0.5008 -0.0182
 5240TIP3    H115642   2.759   5.687   6.783  2.4362 -2.8610  0.8533
 5240TIP3    H215643   2.773   5.757   6.917  0.3730 -1.8425  0.5608
 5241TIP3   OH215644   7.292   6.028   1.884 -0.4501 -0.3418  0.4824
 5241TIP3    H115645   7.292   6.041   1.979  1.1180  2.3699  0.1723
 5241TIP3    H215646   7.376   5.985   1.866 -1.1717 -1.7342  0.4144
 5242TIP3   OH215647   0.144   6.015   4.085 -0.1822  0.0262 -0.5306
 5242TIP3    H115648   0.192   6.018   4.003 -0.4446 -1.6658 -0.7548
 5242TIP3    H215649   0.053   6.033   4.060 -0.2733 -0.5605 -0.6125
 5243TIP3   OH215650   7.014   6.323   0.883  0.0134 -0.1951  0.3612
 5243TIP3    H115651   7.099   6.357   0.911  1.6796  0.6749 -5.1725
 5243TIP3    H215652   7.034   6.238   0.845 -1.9359 -0.8656  0.7946
 5244TIP3   OH215653   6.072   6.097   1.545  0.4641  0.1150  0.0875
 5244TIP3    H115654   6.141   6.031   1.538  0.6926  0.3610  0.0203
 5244TIP3    H215655   6.104   6.171   1.494 -0.2819 -0.1283 -0.7472
 5245TIP3   OH215656   8.034   5.882   3.033 -0.0857  0.3568  0.1683
 5245TIP3    H115657   7.963   5.835   2.989 -1.1482  1.5720  0.5248
 5245TIP3    H215658   8.046   5.961   2.981  2.0991 -0.5456 -0.7698
 5246TIP3   OH215659   6.325   7.564   0.964 -0.3577  0.1018 -0.5022
 5246TIP3    H115660   6.231   7.547   0.955 -0.0274 -1.0900 -1.7001
 5246TIP3    H215661   6.337   7.575   1.059 -1.8644  1.2571 -0.4232
 5247TIP3   OH215662   8.640   3.818   0.471 -0.2585 -0.1543 -0.2823
 5247TIP3    H115663   8.689   3.749   0.428  0.5466  0.8572 -1.0291
 5247TIP3    H215664   8.565   3.835   0.413 -0.2858 -0.1858 -0.2555
 5248TIP3   OH215665   4.041   2.665   6.945  0.3805  0.2690  0.0495
 5248TIP3    H115666   3.992   2.627   6.871 -0.6044 -0.7782  1.2227
 5248TIP3    H215667   4.132   2.664   6.916  0.4379 -3.3119  0.1325
 5249TIP3   OH215668   7.530   5.665   0.333 -0.1925 -0.7831  0.0909
 5249TIP3    H115669   7.456   5.722   0.311  0.8954  0.3989 -0.5365
 5249TIP3    H215670   7.606   5.707   0.293  0.8691 -1.8580  0.9414
 5250TIP3   OH215671   6.078   4.179   1.079 -0.4363 -0.8547 -0.2557
 5250TIP3    H115672   5.998   4.184   1.132 -0.6373 -2.0962 -0.4356
 5250TIP3    H215673   6.115   4.094   1.100  1.5964  0.2621  0.8758
 5251TIP3   OH215674   5.798   6.576   0.429  0.0859 -0.1704 -0.6718
 5251TIP3    H115675   5.762   6.660   0.401  0.9806  0.0607 -1.1750
 5251TIP3    H215676   5.832   6.592   0.517  2.9849  0.8626 -1.8907
 5252TIP3   OH215677   6.290   7.411   1.733  0.5392  0.6990  0.6235
 5252TIP3    H115678   6.194   7.410   1.732  0.5230  0.8147  1.6707
 5252TIP3    H215679   6.315   7.387   1.643 -0.4650  0.7954  0.3093
 5253TIP3   OH215680   4.869   0.989   6.218 -0.3968  0.0711  0.1171
 5253TIP3    H115681   4.902   1.071   6.181 -0.6668 -0.1472 -0.6062
 5253TIP3    H215682   4.858   0.931   6.143  0.3466 -0.8297  0.6981
 5254TIP3   OH215683   4.391   3.538   6.020  0.4575  0.1164 -0.0474
 5254TIP3    H115684   4.416   3.528   5.928  1.7705  1.4532  0.1452
 5254TIP3    H215685   4.390   3.449   6.055  0.5077 -0.3484 -1.2000
 5255TIP3   OH215686   1.979   2.557   7.091  0.3650 -0.1240 -0.2404
 5255TIP3    H115687   2.063   2.574   7.049  0.1886  1.2580 -0.0569
 5255TIP3    H215688   1.964   2.634   7.146 -1.8615  0.4857 -1.6384
 5256TIP3   OH215689   6.902   6.061   1.794  0.1889  0.3637 -0.0716
 5256TIP3    H115690   6.837   6.082   1.728  0.5189  2.1420  0.1405
 5256TIP3    H215691   6.959   6.139   1.798  1.0088 -0.2774  1.2852
 5257TIP3   OH215692   8.521   6.095   3.004  0.1297  0.4732 -0.2991
 5257TIP3    H115693   8.441   6.133   2.969 -0.1302  1.5147  1.3725
 5257TIP3    H215694   8.586   6.164   2.997 -0.1463  1.0161  2.0293
 5258TIP3   OH215695   4.485   5.428   2.015  1.1612  0.0669  0.4872
 5258TIP3    H115696   4.447   5.515   2.001 -0.7111 -0.7510  0.3119
 5258TIP3    H215697   4.559   5.425   1.955  2.0095  1.9875  1.3894
 5259TIP3   OH215698   7.083   5.336   0.825 -0.4933 -0.1547 -0.2057
 5259TIP3    H115699   7.075   5.360   0.733 -0.5431  0.7817  0.0328
 5259TIP3    H215700   7.094   5.241   0.825  1.0734  0.0164 -1.2537
 5260TIP3   OH215701   8.496   7.909   0.254  0.0875  0.3352  0.2782
 5260TIP3    H115702   8.565   7.908   0.320 -1.7885 -1.0763  2.3024
 5260TIP3    H215703   8.455   7.995   0.265  0.9037  0.7990 -0.2755
 5261TIP3   OH215704   0.824   5.750   2.392 -0.0151 -0.3565  0.1770
 5261TIP3    H115705   0.733   5.732   2.414  0.4667 -0.0747  2.5432
 5261TIP3    H215706   0.852   5.815   2.456  2.0471 -0.9419 -0.0777
 5262TIP3   OH215707   1.833   8.011   0.010  0.0825 -1.0559 -0.6586
 5262TIP3    H115708   1.849   8.067  -0.066  0.1764  1.4889  1.1499
 5262TIP3    H215709   1.760   8.053   0.056  2.3467 -0.3997  2.5665
 5263TIP3   OH215710   8.520   6.879   1.068  0.3999 -0.0375 -0.0748
 5263TIP3    H115711   8.527   6.787   1.097  2.2089 -0.6142 -2.2877
 5263TIP3    H215712   8.584   6.925   1.121  0.4964 -0.2872  0.0307
 5264TIP3   OH215713   7.523   3.221   7.185 -0.1209  0.4121  0.0433
 5264TIP3    H115714   7.570   3.235   7.267  1.7772  1.4378 -1.1819
 5264TIP3    H215715   7.460   3.293   7.180  1.7218  1.9819 -0.7514
 5265TIP3   OH215716   5.297   3.167   6.406  0.2053 -0.1458 -0.0377
 5265TIP3    H115717   5.355   3.216   6.348  0.6308 -1.1212 -0.4516
 5265TIP3    H215718   5.241   3.118   6.347  0.3554 -0.8209  0.3758
 5266TIP3   OH215719   4.757   2.841   6.073  0.1513  0.1203 -0.0020
 5266TIP3    H115720   4.817   2.915   6.065  1.8903 -1.3152 -0.4475
 5266TIP3    H215721   4.673   2.877   6.045  0.7524  2.1654  0.6533
 5267TIP3   OH215722   7.973   5.370   1.147  0.0636  0.6777  0.1672
 5267TIP3    H115723   8.058   5.355   1.105 -0.7596 -0.5397 -1.1099
 5267TIP3    H215724   7.909   5.356   1.077 -1.2869 -0.3584  1.5601
 5268TIP3   OH215725   7.579   6.602   0.049  0.1672  0.0970 -0.0648
 5268TIP3    H115726   7.500   6.590   0.101  0.6696 -0.2724  0.6197
 5268TIP3    H215727   7.608   6.691   0.069  0.6029 -0.1954  0.6370
 5269TIP3   OH215728   6.664   7.338   2.634 -0.7722 -0.9849  0.1613
 5269TIP3    H115729   6.578   7.300   2.650 -1.1151 -0.9089 -1.3617
 5269TIP3    H215730   6.726   7.272   2.662 -1.3542 -2.3824 -1.7138
 5270TIP3   OH215731   0.199   6.102   3.124 -0.5323  0.3332 -0.4713
 5270TIP3    H115732   0.184   6.097   3.219 -0.8944  0.3226 -0.5295
 5270TIP3    H215733   0.126   6.155   3.091 -1.3642 -1.0912 -0.9769
 5271TIP3   OH215734   0.597   6.906   1.918  0.1937  0.0363  0.2903
 5271TIP3    H115735   0.596   6.958   1.837 -1.3490 -2.0609 -1.0970
 5271TIP3    H215736   0.678   6.856   1.913 -0.3598 -0.8103 -0.4700
 5272TIP3   OH215737   7.491   5.894   0.827 -0.4459 -0.6963 -0.6205
 5272TIP3    H115738   7.493   5.979   0.871 -0.7404 -0.6734 -0.6524
 5272TIP3    H215739   7.435   5.908   0.751  1.3106 -0.3104 -1.8753
 5273TIP3   OH215740   1.229   6.134   2.029 -0.2490  0.3843  0.1923
 5273TIP3    H115741   1.139   6.122   2.060 -0.4472  2.8252  0.6928
 5273TIP3    H215742   1.269   6.048   2.038 -1.5574  0.0250  3.1849
 5274TIP3   OH215743   6.284   1.673   6.881 -0.3514 -0.1239 -0.1027
 5274TIP3    H115744   6.207   1.717   6.917 -0.0086  0.1221  0.3361
 5274TIP3    H215745   6.298   1.716   6.797 -1.2358 -0.7923 -0.6024
 5275TIP3   OH215746   2.794   2.421   7.284  0.1815  0.0078 -0.3033
 5275TIP3    H115747   2.845   2.492   7.247 -0.1983  0.0770 -0.6946
 5275TIP3    H215748   2.746   2.384   7.210 -0.1932 -0.1759  0.0252
 5276TIP3   OH215749   5.442   6.246   0.278 -0.3883  0.2232  0.1572
 5276TIP3    H115750   5.525   6.285   0.305 -0.2278  0.6102 -0.8750
 5276TIP3    H215751   5.405   6.210   0.359  0.2390  1.0632  0.8320
 5277TIP3   OH215752   7.715   4.720   0.365  0.3223  0.0573 -0.1608
 5277TIP3    H115753   7.694   4.627   0.371 -0.4564  0.2681  0.5483
 5277TIP3    H215754   7.634   4.760   0.331  0.8284  0.3991 -0.9604
 5278TIP3   OH215755   8.600   6.653   4.441 -0.1029  0.1068  0.5126
 5278TIP3    H115756   8.605   6.599   4.362  1.0095  2.1225 -0.8285
 5278TIP3    H215757   8.689   6.656   4.474  0.0130  1.8406  0.0696
 5279TIP3   OH215758   1.148   7.317   4.848  0.5130  0.4975 -0.5331
 5279TIP3    H115759   1.209   7.245   4.867 -1.9743 -1.6903 -0.6076
 5279TIP3    H215760   1.147   7.369   4.929 -1.9604 -2.8109  1.6830
 5280TIP3   OH215761   3.801   1.352   3.736 -0.4151 -0.0741  0.1607
 5280TIP3    H115762   3.858   1.283   3.770 -0.2260  0.5445  1.1103
 5280TIP3    H215763   3.716   1.309   3.724 -0.3503 -0.4275  0.9417
 5281TIP3   OH215764   2.330   8.038   3.229 -0.9259 -0.0561  0.9854
 5281TIP3    H115765   2.259   8.099   3.211 -0.7415  0.9191  3.3858
 5281TIP3    H215766   2.409   8.090   3.221 -0.7275 -0.1394  2.3420
 5282TIP3   OH215767   2.301   6.504   2.835 -0.3746  0.4552  0.2955
 5282TIP3    H115768   2.389   6.526   2.867 -0.0640 -0.7201  0.2566
 5282TIP3    H215769   2.256   6.470   2.911  0.7284 -3.4383 -0.6902
 5283TIP3   OH215770   8.002   6.769   2.666 -0.1316 -0.3037  0.2630
 5283TIP3    H115771   8.079   6.786   2.613 -0.6415  0.3582 -0.2670
 5283TIP3    H215772   7.988   6.674   2.658 -0.8682 -0.0481 -1.6951
 5284TIP3   OH215773   2.629   0.677   3.472  0.5547 -0.0497 -0.3128
 5284TIP3    H115774   2.597   0.588   3.457  1.1836 -0.1881 -0.8595
 5284TIP3    H215775   2.629   0.718   3.385 -1.6885  1.1616  0.2253
 5285TIP3   OH215776   1.857   5.388   3.181 -0.2185  0.3913  0.5203
 5285TIP3    H115777   1.845   5.476   3.217 -2.6133 -0.1819  1.1646
 5285TIP3    H215778   1.884   5.403   3.091 -0.3230  1.7977  0.7083
 5286TIP3   OH215779   1.491   7.213   3.828 -0.8497 -0.2843  0.3169
 5286TIP3    H115780   1.463   7.132   3.870 -0.8028  0.6128  2.1066
 5286TIP3    H215781   1.409   7.260   3.810 -0.7525  0.4283  1.6690
 5287TIP3   OH215782   1.024   6.304   3.471 -0.1161  0.0710  0.2797
 5287TIP3    H115783   1.005   6.394   3.446 -0.6680 -0.8541 -2.7995
 5287TIP3    H215784   0.997   6.299   3.563  1.0619  3.3460  0.8657
 5288TIP3   OH215785   0.235   7.862   3.397  0.2849  0.1585 -0.3971
 5288TIP3    H115786   0.195   7.943   3.366 -1.0504  0.3888  1.8337
 5288TIP3    H215787   0.329   7.877   3.390  0.0481  2.0362  0.2442
 5289TIP3   OH215788   4.205   1.589   3.844 -0.6268  0.6212 -0.1351
 5289TIP3    H115789   4.179   1.497   3.853  2.6766 -0.2134  1.5585
 5289TIP3    H215790   4.217   1.601   3.749  0.5298 -1.2213 -0.2592
 5290TIP3   OH215791   2.073   6.649   3.168  0.1169 -0.3961 -0.4478
 5290TIP3    H115792   2.001   6.698   3.128 -0.3467 -0.7966 -0.1146
 5290TIP3    H215793   2.151   6.700   3.148 -0.2172 -0.1472 -1.1283
 5291TIP3   OH215794   7.621   5.104   0.738  0.2286 -0.0243  0.4352
 5291TIP3    H115795   7.560   5.050   0.788  0.4034 -0.1344  0.5288
 5291TIP3    H215796   7.569   5.139   0.666 -0.3548  1.1351  1.3946
 5292TIP3   OH215797   1.487   6.290   2.771  0.8596 -0.0094 -0.0885
 5292TIP3    H115798   1.561   6.285   2.832  0.1040  0.2292  0.8746
 5292TIP3    H215799   1.472   6.200   2.744  0.3372 -0.3276  1.1787
 5293TIP3   OH215800   0.562   7.262   3.272 -0.2390  0.0780  0.2697
 5293TIP3    H115801   0.627   7.308   3.219 -0.2677 -0.3876 -0.1728
 5293TIP3    H215802   0.498   7.230   3.209  0.4785 -1.7061  0.4388
 5294TIP3   OH215803   8.468   6.201   2.456 -0.0406  0.1740 -0.5726
 5294TIP3    H115804   8.443   6.127   2.512 -1.4900  1.8452  1.0822
 5294TIP3    H215805   8.546   6.237   2.498  0.4857 -0.2242 -1.2053
 5295TIP3   OH215806   0.777   7.932   4.389 -0.3294  0.1165  0.0165
 5295TIP3    H115807   0.867   7.899   4.399 -0.0703  0.9906  0.6171
 5295TIP3    H215808   0.758   7.975   4.473 -0.9975  0.6986 -0.4275
 5296TIP3   OH215809   3.152   0.412   3.977 -0.5552 -0.6019  0.7485
 5296TIP3    H115810   3.090   0.410   3.904 -0.1674 -0.7329  0.4237
 5296TIP3    H215811   3.226   0.464   3.945 -0.7071 -0.0303  1.3081
 5297TIP3   OH215812   0.432   6.590   4.384 -0.6265 -0.2776 -0.1967
 5297TIP3    H115813   0.357   6.592   4.444 -0.5480  0.7726 -0.1252
 5297TIP3    H215814   0.425   6.672   4.334 -0.1962 -0.7344 -1.0113
 5298TIP3   OH215815   1.630   8.113   3.840  0.0230  0.1187  0.2568
 5298TIP3    H115816   1.589   8.052   3.901  0.4758  0.4112  0.8492
 5298TIP3    H215817   1.574   8.191   3.842 -1.3550 -0.7665 -1.5420
 5299TIP3   OH215818   0.820   6.015   3.568  0.9437  0.4647 -0.1689
 5299TIP3    H115819   0.791   5.939   3.618  1.7453  0.5026  0.3596
 5299TIP3    H215820   0.879   5.978   3.501  1.0707  0.5884 -0.1238
 5300TIP3   OH215821   1.767   6.721   2.671 -0.5397 -0.5163  0.1653
 5300TIP3    H115822   1.837   6.679   2.721 -0.6654 -0.7101  0.1817
 5300TIP3    H215823   1.712   6.763   2.737 -0.3302 -0.1974  0.1368
 5301TIP3   OH215824   0.637   8.053   4.639 -0.2851 -0.2995  0.3783
 5301TIP3    H115825   0.672   8.132   4.681 -0.1222 -0.6792  0.9551
 5301TIP3    H215826   0.572   8.086   4.577  0.4776  0.3527 -0.0763
 5302TIP3   OH215827   0.130   3.061   2.626 -0.2699 -0.2012  0.3528
 5302TIP3    H115828   0.213   3.029   2.660 -0.4071  0.4920  1.3560
 5302TIP3    H215829   0.069   2.988   2.640  0.1934 -0.7830 -0.5621
 5303TIP3   OH215830   4.282   0.154   3.040  0.3226  0.2654  0.0856
 5303TIP3    H115831   4.294   0.196   3.125  0.5794 -0.6820  0.5206
 5303TIP3    H215832   4.251   0.066   3.061 -1.8854  0.7654 -0.8602
 5304TIP3   OH215833   0.443   7.112   3.478  0.3315  0.5271 -0.4691
 5304TIP3    H115834   0.499   7.048   3.523  0.6422  1.3929  0.3806
 5304TIP3    H215835   0.504   7.169   3.431 -0.0344 -1.1183 -3.0392
 5305TIP3   OH215836   8.797   6.572   2.949  0.3457  0.0248  0.6741
 5305TIP3    H115837   8.723   6.632   2.943 -0.7832 -1.4140 -0.2583
 5305TIP3    H215838   8.840   6.595   3.032 -1.0125  1.0280  1.1195
 5306TIP3   OH215839   7.593   5.821   2.866  0.3136  0.4086 -0.8125
 5306TIP3    H115840   7.550   5.907   2.860 -0.9302 -0.2457 -1.4637
 5306TIP3    H215841   7.542   5.765   2.807  0.6979 -0.9607  0.1454
 5307TIP3   OH215842   1.953   5.885   3.507 -0.4836  0.5637 -0.4965
 5307TIP3    H115843   1.915   5.925   3.429  2.7952  1.2340 -1.8666
 5307TIP3    H215844   1.954   5.791   3.488  0.3424  0.7293 -1.3098
 5308TIP3   OH215845   1.370   5.859   2.056 -0.7497 -0.5644  0.3081
 5308TIP3    H115846   1.451   5.835   2.011  0.1012 -0.0513  1.5571
 5308TIP3    H215847   1.301   5.818   2.003  0.4345 -2.7328  0.3826
 5309TIP3   OH215848   8.316   5.236   1.505 -0.2905 -0.7115 -0.0024
 5309TIP3    H115849   8.328   5.187   1.423  1.8204 -1.7780  0.9103
 5309TIP3    H215850   8.329   5.327   1.480 -1.8870 -0.7982 -1.2632
 5310TIP3   OH215851   0.426   6.953   0.609 -0.0036  0.0474 -0.5161
 5310TIP3    H115852   0.403   6.997   0.526  0.2412 -0.0563 -0.6404
 5310TIP3    H215853   0.407   6.860   0.593 -0.5850  0.1145 -0.2307
 5311TIP3   OH215854   0.111   4.699   4.040  0.1823 -0.0663 -0.1531
 5311TIP3    H115855   0.071   4.616   4.015  2.6438 -0.7624 -1.9922
 5311TIP3    H215856   0.154   4.682   4.123 -0.1374 -0.3651 -0.0511
 5312TIP3   OH215857   0.118   6.571   3.818 -0.5684  0.1797  0.1350
 5312TIP3    H115858   0.196   6.516   3.824 -1.7892 -1.5969  0.0789
 5312TIP3    H215859   0.112   6.615   3.902  0.9201  0.9226 -0.1387
 5313TIP3   OH215860   1.753   6.982   1.568  0.1327 -0.0863  0.4686
 5313TIP3    H115861   1.726   6.891   1.583 -1.0687  0.4935  1.9732
 5313TIP3    H215862   1.719   7.003   1.481  1.5891 -1.4840 -0.4777
 5314TIP3   OH215863   2.807   4.040   3.672 -0.3002 -0.0088 -0.4763
 5314TIP3    H115864   2.762   4.056   3.589 -2.4324 -1.9934  0.2461
 5314TIP3    H215865   2.778   4.110   3.730 -0.3922  0.2147 -0.7927
 5315TIP3   OH215866   8.616   6.708   4.886  0.2405 -0.2091  0.1438
 5315TIP3    H115867   8.662   6.631   4.920  3.0183  0.1214 -2.6479
 5315TIP3    H215868   8.568   6.676   4.810  0.3463  0.5618 -0.2505
 5316TIP3   OH215869   8.434   3.790   4.609 -0.2150  0.1690 -0.1371
 5316TIP3    H115870   8.393   3.793   4.523 -1.1498  0.2584  0.2909
 5316TIP3    H215871   8.427   3.698   4.636  1.8456 -0.2448 -0.9707
 5317TIP3   OH215872   0.286   7.824   2.201 -0.3359  0.4873 -0.0000
 5317TIP3    H115873   0.232   7.856   2.129 -0.0753  1.2434  0.1397
 5317TIP3    H215874   0.373   7.813   2.164 -0.7357 -1.4453 -0.4158
 5318TIP3   OH215875   2.777   0.394   2.111  0.9590  0.0189  0.3338
 5318TIP3    H115876   2.870   0.400   2.133  1.2755 -0.1495 -0.9555
 5318TIP3    H215877   2.752   0.306   2.138  0.7067  0.6871  2.3989
 5319TIP3   OH215878   5.396   0.337   2.145 -0.0881 -0.2819 -0.1863
 5319TIP3    H115879   5.394   0.346   2.049  0.2910 -0.7738 -0.2455
 5319TIP3    H215880   5.489   0.324   2.165 -0.2461 -0.8654  0.1806
 5320TIP3   OH215881   3.978   0.875   3.022  0.1071 -0.3457 -0.3903
 5320TIP3    H115882   3.991   0.791   2.978 -0.7304 -0.2722 -0.7796
 5320TIP3    H215883   3.977   0.853   3.115 -1.5390 -0.9705 -0.5399
 5321TIP3   OH215884   2.179   0.039   4.548 -0.2179  0.6735  0.1855
 5321TIP3    H115885   2.162   0.091   4.469 -1.9894  0.1052  0.1738
 5321TIP3    H215886   2.110   0.065   4.609 -0.5660 -0.9695  0.5120
 5322TIP3   OH215887   8.853   6.654   2.516  0.9862  0.0424  0.1628
 5322TIP3    H115888   8.931   6.630   2.567  0.7034  1.1407  1.1529
 5322TIP3    H215889   8.874   6.740   2.480 -0.4231  1.1795  1.9246
 5323TIP3   OH215890   0.390   7.892   4.056 -0.8322 -0.2707  0.6578
 5323TIP3    H115891   0.421   7.854   4.138 -0.6431  0.8528  1.1232
 5323TIP3    H215892   0.370   7.983   4.078 -2.0247 -0.2981 -0.2386
 5324TIP3   OH215893   3.087   0.199   2.545  0.5698 -0.1236  0.0529
 5324TIP3    H115894   3.028   0.270   2.521  1.3355  0.4399 -0.1826
 5324TIP3    H215895   3.054   0.168   2.630 -0.7472 -0.5890 -0.6143
 5325TIP3   OH215896   2.038   7.464   3.715  0.1420 -0.3100 -0.3611
 5325TIP3    H115897   2.069   7.554   3.725  0.2588 -0.3983  0.1104
 5325TIP3    H215898   1.988   7.447   3.795  1.9805 -1.4114  0.6013
 5326TIP3   OH215899   2.713   4.169   1.916  0.0323  0.7055 -0.1123
 5326TIP3    H115900   2.724   4.088   1.966  0.6882  0.7045 -0.2525
 5326TIP3    H215901   2.733   4.239   1.978  1.5389  0.6780 -0.5586
 5327TIP3   OH215902   0.596   8.316   3.774 -0.1478 -0.4029 -0.1258
 5327TIP3    H115903   0.515   8.360   3.749 -0.2836 -0.1807  0.6709
 5327TIP3    H215904   0.620   8.356   3.858  0.0461 -1.4220  0.3199
 5328TIP3   OH215905   7.970   2.613   6.896 -0.2821 -0.8403  0.0366
 5328TIP3    H115906   7.996   2.702   6.919 -0.4707 -1.5997  3.4988
 5328TIP3    H215907   8.052   2.569   6.874  0.0150 -0.2545 -0.0282
 5329TIP3   OH215908   0.694   6.309   1.125  0.0597  0.0002 -0.0093
 5329TIP3    H115909   0.607   6.346   1.109  0.0558 -0.5852 -1.4469
 5329TIP3    H215910   0.754   6.382   1.111 -0.2453  0.6524  1.9428
 5330TIP3   OH215911   0.855   3.995   4.813 -0.0832 -0.0188 -0.6918
 5330TIP3    H115912   0.947   3.969   4.821 -0.5080 -1.3190  0.2930
 5330TIP3    H215913   0.808   3.912   4.809 -1.3965  0.6015  1.1801
 5331TIP3   OH215914   1.356   6.703   2.755  0.0965  0.0249  0.0118
 5331TIP3    H115915   1.386   6.670   2.670  0.5625 -0.4656  0.3715
 5331TIP3    H215916   1.389   6.793   2.758  2.2636 -0.7735  0.7724
 5332TIP3   OH215917   3.246   6.839   1.333  0.1718 -0.1716  0.5495
 5332TIP3    H115918   3.326   6.870   1.290  1.4127 -2.0599  1.4093
 5332TIP3    H215919   3.240   6.893   1.412 -0.8988  1.7954 -0.8492
 5333TIP3   OH215920   8.313   4.683   2.454  0.1009 -0.0908 -0.5181
 5333TIP3    H115921   8.403   4.699   2.426 -0.0465  0.2837 -0.7851
 5333TIP3    H215922   8.278   4.770   2.474 -0.7371 -0.0464 -2.0613
 5334TIP3   OH215923   0.208   8.293   2.212 -0.3483  0.4269  0.0695
 5334TIP3    H115924   0.130   8.238   2.206 -0.4484  0.7188 -1.4818
 5334TIP3    H215925   0.180   8.369   2.264 -0.9043  0.2052  0.0925
 5335TIP3   OH215926   1.738   6.095   2.494 -0.1214 -0.7850  0.3262
 5335TIP3    H115927   1.706   6.058   2.412  0.9472  0.6323 -0.7448
 5335TIP3    H215928   1.688   6.049   2.562 -1.8887 -1.1054 -1.1496
 5336TIP3   OH215929   1.388   7.374   1.958  0.0953  0.0264  0.0323
 5336TIP3    H115930   1.413   7.321   2.034  0.0270  0.4448  0.3476
 5336TIP3    H215931   1.326   7.438   1.993 -0.3767 -0.1452 -0.4863
 5337TIP3   OH215932   2.851   0.450   4.344 -0.2839  0.3024  0.2552
 5337TIP3    H115933   2.794   0.470   4.270  0.0935 -1.6261 -0.5841
 5337TIP3    H215934   2.843   0.355   4.356 -0.3828  0.5863  2.7321
 5338TIP3   OH215935   0.251   6.930   2.227 -0.0037  0.0687 -0.0876
 5338TIP3    H115936   0.217   6.865   2.165 -2.0614  0.0061  1.0521
 5338TIP3    H215937   0.244   7.014   2.180  1.0169 -0.3014 -0.9213
 5339TIP3   OH215938   4.325   0.021   0.825 -0.3738  0.6038  0.7526
 5339TIP3    H115939   4.322  -0.017   0.913 -0.9195 -2.6657 -0.6029
 5339TIP3    H215940   4.239   0.002   0.788  0.9443 -0.9677 -1.6231
 5340TIP3   OH215941   1.052   7.597   2.690  0.2671  0.5566  0.0608
 5340TIP3    H115942   0.987   7.665   2.672  0.9077  1.2042  0.1872
 5340TIP3    H215943   1.000   7.522   2.719 -0.5345  0.5989 -1.2239
 5341TIP3   OH215944   2.630   6.249   2.723  0.1937  0.4705  0.4504
 5341TIP3    H115945   2.671   6.318   2.670 -2.0875  1.2412 -0.3989
 5341TIP3    H215946   2.561   6.214   2.667  1.9835 -3.2744  0.4874
 5342TIP3   OH215947   2.032   6.815   1.637 -0.2756  0.4198 -0.0472
 5342TIP3    H115948   2.056   6.907   1.648  0.7723 -0.0814  2.1391
 5342TIP3    H215949   2.068   6.791   1.551  0.8282  1.6151  0.0721
 5343TIP3   OH215950   2.662   7.983   1.428 -0.0048 -0.2573 -0.5510
 5343TIP3    H115951   2.687   7.945   1.512  1.5595  1.0688 -0.4106
 5343TIP3    H215952   2.583   7.935   1.403  0.5192 -1.8733  0.8225
 5344TIP3   OH215953   2.640   7.565   1.686 -0.3781  0.3644 -0.2581
 5344TIP3    H115954   2.714   7.536   1.632  1.3081  3.0409  0.5352
 5344TIP3    H215955   2.573   7.498   1.671  1.5884 -1.2706 -2.2716
 5345TIP3   OH215956   6.624   3.526   7.175  0.1050  0.1633  0.0731
 5345TIP3    H115957   6.604   3.619   7.187  1.3030  0.6030 -1.1850
 5345TIP3    H215958   6.678   3.502   7.251 -0.8800  0.2735  0.8180
 5346TIP3   OH215959   6.226   4.426   6.615 -0.2522 -0.6214 -0.4506
 5346TIP3    H115960   6.266   4.341   6.596  0.1572 -0.8061  1.1520
 5346TIP3    H215961   6.263   4.452   6.700 -0.7072  0.9498 -0.7074
 5347TIP3   OH215962   2.813   0.927   2.092  0.1859 -0.0880 -0.0081
 5347TIP3    H115963   2.765   0.957   2.014 -0.2819  2.1544  1.0922
 5347TIP3    H215964   2.877   0.865   2.058  0.2858  1.1798 -2.2719
 5348TIP3   OH215965   2.818   6.520   0.585 -0.2806  0.4541  0.1229
 5348TIP3    H115966   2.723   6.528   0.576 -0.1260 -0.4569 -3.0015
 5348TIP3    H215967   2.851   6.603   0.552  0.0395  0.5575  0.7020
 5349TIP3   OH215968   2.095   7.935   1.493  0.1654  0.2487  0.1447
 5349TIP3    H115969   2.086   7.841   1.482 -2.2746  0.5772 -0.9557
 5349TIP3    H215970   2.087   7.971   1.405  2.5533  1.4208  0.3582
 5350TIP3   OH215971   1.276   0.174   3.225  0.0700  0.2259 -0.1376
 5350TIP3    H115972   1.212   0.106   3.206  0.2805  0.1739 -0.6780
 5350TIP3    H215973   1.233   0.231   3.289 -0.9857  0.8551 -1.3718
 5351TIP3   OH215974   0.628   6.193   1.539  0.5382 -0.4994  0.6686
 5351TIP3    H115975   0.684   6.228   1.609  0.8950 -0.6188  0.4411
 5351TIP3    H215976   0.683   6.194   1.461 -0.8417  2.5445 -0.3056
 5352TIP3   OH215977   3.007   0.218   1.701  0.3071  0.0115  0.2617
 5352TIP3    H115978   2.920   0.214   1.662  0.1681  2.1550  0.2964
 5352TIP3    H215979   3.011   0.142   1.759 -1.5967 -0.0262  0.3720
 5353TIP3   OH215980   5.284   0.721   0.010 -0.0019 -0.0716  0.3986
 5353TIP3    H115981   5.360   0.690   0.059 -0.4894  0.7899  1.7295
 5353TIP3    H215982   5.317   0.795  -0.040  0.3726 -0.6163 -0.1657
 5354TIP3   OH215983   4.008   0.409   3.467  0.4528 -0.3684  0.5333
 5354TIP3    H115984   3.994   0.399   3.562  2.2052 -2.3345  0.6302
 5354TIP3    H215985   3.996   0.502   3.450 -2.2736 -0.3479  2.2777
 5355TIP3   OH215986   3.794   0.355   0.178 -0.3768 -0.0871 -0.2158
 5355TIP3    H115987   3.875   0.384   0.218  0.1956  0.0654 -1.4861
 5355TIP3    H215988   3.756   0.294   0.243  0.5970  0.0498  0.4929
 5356TIP3   OH215989   8.235   8.190   3.402 -0.1206 -0.5101 -0.3236
 5356TIP3    H115990   8.184   8.235   3.469  0.1658 -1.6117  0.6551
 5356TIP3    H215991   8.198   8.220   3.319  0.4032  1.9210  0.2780
 5357TIP3   OH215992   2.141   8.326   1.357  0.2172  0.2031  0.3493
 5357TIP3    H115993   2.104   8.277   1.431  0.2386 -2.4235 -1.3103
 5357TIP3    H215994   2.155   8.414   1.391  0.0046 -0.8830  3.4152
 5358TIP3   OH215995   8.334   7.323   2.761 -0.5631 -0.3580  0.6094
 5358TIP3    H115996   8.322   7.347   2.853 -1.4890 -2.7734  1.1506
 5358TIP3    H215997   8.248   7.293   2.732 -0.3659  0.6735 -1.1600
 5359TIP3   OH215998   6.683   3.237   7.260  0.4919 -0.0878  0.1241
 5359TIP3    H115999   6.611   3.174   7.258  0.3003  0.1517 -0.4661
 5359TIP3    H216000   6.649   3.315   7.215  0.8796  0.2791  0.4535
 5360TIP3   OH216001   3.395   1.351   2.562  0.2895 -0.0295  0.0710
 5360TIP3    H116002   3.433   1.387   2.482  0.1390  0.0154  0.0194
 5360TIP3    H216003   3.399   1.423   2.624  0.3187 -0.0346  0.0752
 5361TIP3   OH216004   2.260   6.517   1.058 -0.3422  0.4206  0.9375
 5361TIP3    H116005   2.339   6.530   1.005  1.6426  0.0551  3.7030
 5361TIP3    H216006   2.213   6.446   1.013  1.2199  0.2048 -0.4066
 5362TIP3   OH216007   7.856   6.930   2.352  0.0173 -0.6251 -0.4189
 5362TIP3    H116008   7.788   6.938   2.418 -0.3962  0.7471 -0.9902
 5362TIP3    H216009   7.891   6.842   2.363  0.8949  0.0523  2.5569
 5363TIP3   OH216010   0.733   6.294   3.305 -0.4111 -0.5001 -0.4472
 5363TIP3    H116011   0.816   6.255   3.277 -0.5616 -0.6821 -0.6349
 5363TIP3    H216012   0.698   6.335   3.226  0.1373  0.7131 -0.0735
 5364TIP3   OH216013   2.740   3.538   3.908  0.1625 -0.2136 -0.1670
 5364TIP3    H116014   2.712   3.627   3.885  1.7382  0.3664  0.0597
 5364TIP3    H216015   2.747   3.492   3.825 -1.7436 -0.4728 -0.2020
 5365TIP3   OH216016   4.811   0.285   1.279  0.2875  1.2310 -0.0058
 5365TIP3    H116017   4.846   0.373   1.266  1.2526  0.8629  0.0892
 5365TIP3    H216018   4.777   0.286   1.369  1.6152  1.0774  0.5174
 5366TIP3   OH216019   6.890   3.620   6.064  0.4611  0.0888  0.2134
 5366TIP3    H116020   6.975   3.664   6.070  1.7193 -2.1947 -0.3445
 5366TIP3    H216021   6.890   3.557   6.135 -1.4126  1.0888  1.1358
 5367TIP3   OH216022   2.975   6.003   0.919  0.5326 -0.4290 -0.1786
 5367TIP3    H116023   2.887   6.005   0.882  0.5584 -3.3736 -0.5499
 5367TIP3    H216024   3.004   6.094   0.917 -2.1542  0.4609 -0.8604
 5368TIP3   OH216025   0.365   6.443   2.933  0.1566  0.1223 -0.2756
 5368TIP3    H116026   0.387   6.527   2.895 -1.0037 -0.3342 -2.0154
 5368TIP3    H216027   0.322   6.464   3.016 -1.4217  1.3023 -1.3732
 5369TIP3   OH216028   1.537   5.566   2.236  0.1852  0.3691 -0.7115
 5369TIP3    H116029   1.612   5.533   2.285 -1.1193 -2.2885 -0.4325
 5369TIP3    H216030   1.510   5.645   2.283  0.7881 -0.4851  1.0956
 5370TIP3   OH216031   2.234   8.254   3.049 -0.0930  0.5620 -0.4861
 5370TIP3    H116032   2.163   8.268   3.112  0.9337  0.2006  0.7711
 5370TIP3    H216033   2.262   8.342   3.023 -1.2918  0.7062 -1.3417
 5371TIP3   OH216034   1.178   5.826   5.205 -0.3110 -0.1865 -0.0759
 5371TIP3    H116035   1.251   5.853   5.150 -0.7473 -1.3726 -1.2584
 5371TIP3    H216036   1.212   5.754   5.258 -0.6688 -0.8848 -0.7826
 5372TIP3   OH216037   0.186   7.511   1.557  0.0233 -0.3350  0.3936
 5372TIP3    H116038   0.219   7.539   1.471 -0.0763 -1.2296  0.0500
 5372TIP3    H216039   0.250   7.544   1.619 -1.2456  2.5690  0.2322
 5373TIP3   OH216040   4.554   0.969   2.463  0.0800 -0.5663 -0.3544
 5373TIP3    H116041   4.541   0.878   2.438  0.7209 -0.6500 -0.4017
 5373TIP3    H216042   4.633   0.996   2.416 -1.8821  0.9881 -2.9004
 5374TIP3   OH216043   1.733   7.713   3.485  0.3072 -0.7091 -0.2241
 5374TIP3    H116044   1.828   7.714   3.480  0.5345 -0.8650  3.1305
 5374TIP3    H216045   1.713   7.730   3.577 -2.9544  0.7342 -1.1124
 5375TIP3   OH216046   1.245   5.580   1.108 -0.5020 -0.1756 -0.4712
 5375TIP3    H116047   1.177   5.616   1.165  0.9275 -0.4174  1.4335
 5375TIP3    H216048   1.205   5.502   1.070 -1.6733  0.3016 -0.2548
 5376TIP3   OH216049   8.752   8.022   0.329  0.0021 -0.4430  0.1738
 5376TIP3    H116050   8.778   8.003   0.239 -0.0098 -2.7532  0.6290
 5376TIP3    H216051   8.730   8.115   0.329  2.3647  0.1621 -1.6471
 5377TIP3   OH216052   4.213   1.803   3.558 -0.4623 -0.6019  0.2483
 5377TIP3    H116053   4.223   1.871   3.624  0.8695 -0.3502 -0.2014
 5377TIP3    H216054   4.148   1.838   3.496 -0.6715 -0.2609  0.6584
 5378TIP3   OH216055   1.633   6.746   1.592  0.4834 -0.2893 -0.2129
 5378TIP3    H116056   1.606   6.788   1.674 -1.3427 -2.1863  0.1792
 5378TIP3    H216057   1.682   6.669   1.620  1.3752  0.0091 -0.9296
 5379TIP3   OH216058   0.916   6.528   4.721  0.3724  0.0305 -0.0960
 5379TIP3    H116059   0.876   6.441   4.712 -0.2555  0.3003  0.0602
 5379TIP3    H216060   0.849   6.581   4.764  0.8633  0.5169  0.0808
 5380TIP3   OH216061   1.125   6.367   0.924 -0.0146 -0.3470 -0.5763
 5380TIP3    H116062   1.114   6.389   0.832 -1.7443 -0.4898 -0.4183
 5380TIP3    H216063   1.119   6.451   0.970  2.6884 -0.0418 -0.7245
 5381TIP3   OH216064   1.178   6.312   1.497 -0.4394  0.7596  0.3644
 5381TIP3    H116065   1.185   6.259   1.417 -1.5580 -0.2902  0.9525
 5381TIP3    H216066   1.265   6.350   1.508  0.1585 -0.3313 -0.4968
 5382TIP3   OH216067  -0.015   6.680   0.871 -0.2301  0.1054 -0.2405
 5382TIP3    H116068   0.025   6.688   0.785  1.7372 -1.3828  0.4913
 5382TIP3    H216069   0.031   6.745   0.925 -0.1828 -0.2169  0.1154
 5383TIP3   OH216070   6.100   0.400   3.232 -0.1971  0.1228 -0.1037
 5383TIP3    H116071   6.098   0.438   3.320  0.2479  1.5432 -0.6946
 5383TIP3    H216072   6.024   0.341   3.230 -0.3745  0.2897  1.1383
 5384TIP3   OH216073   1.698   4.103   3.457  0.3384  0.3873  0.5106
 5384TIP3    H116074   1.713   4.150   3.539  1.5486 -0.3429  0.7260
 5384TIP3    H216075   1.653   4.023   3.483  0.9234  0.0505  0.4953
 5385TIP3   OH216076   8.197   4.736   0.794  0.6608 -0.9598 -0.3137
 5385TIP3    H116077   8.183   4.737   0.699 -0.7510  2.0539 -0.1439
 5385TIP3    H216078   8.286   4.704   0.805  1.3175 -0.0803 -2.7637
 5386TIP3   OH216079   2.645   5.680   2.514 -0.1025 -0.1298  1.0285
 5386TIP3    H116080   2.668   5.718   2.599  0.8920 -0.2761  0.8197
 5386TIP3    H216081   2.660   5.751   2.451  0.8296 -0.5710  0.7574
 5387TIP3   OH216082   1.480   5.350   3.080 -0.2326 -0.1151 -0.4598
 5387TIP3    H116083   1.437   5.395   3.008  0.1758  1.8865  0.5025
 5387TIP3    H216084   1.448   5.394   3.159 -0.7408 -2.3215  0.6047
 5388TIP3   OH216085   0.925   7.298   1.988 -0.0666 -0.1849 -0.0064
 5388TIP3    H116086   0.832   7.274   1.989 -0.5136  1.4382 -0.1226
 5388TIP3    H216087   0.941   7.326   1.898  0.9088 -1.7747 -0.3490
 5389TIP3   OH216088   0.793   8.029   2.416 -0.6682 -0.3128  0.3946
 5389TIP3    H116089   0.839   7.950   2.389  0.9610  0.3008  1.3018
 5389TIP3    H216090   0.769   8.013   2.507 -1.6482 -0.3350  0.1454
 5390TIP3   OH216091   0.487   6.185   3.357 -0.3124  0.2000 -0.4778
 5390TIP3    H116092   0.451   6.246   3.421  0.5188  0.8203 -0.5801
 5390TIP3    H216093   0.580   6.209   3.351  0.0401 -1.1386 -0.4557
 5391TIP3   OH216094   2.203   0.085   1.357  0.0171 -0.1465 -0.3358
 5391TIP3    H116095   2.234   0.001   1.324  0.0374 -0.0924 -0.4581
 5391TIP3    H216096   2.263   0.149   1.319 -0.1969 -0.0491 -0.5158
 5392TIP3   OH216097   0.661   6.651   3.263 -0.7583 -0.1212  0.0809
 5392TIP3    H116098   0.623   6.642   3.175  0.6137  1.8794 -0.7572
 5392TIP3    H216099   0.747   6.610   3.256 -1.3064 -1.4991  1.0109
 5393TIP3   OH216100   1.069   6.760   2.445  0.0490 -0.2707  0.1061
 5393TIP3    H116101   1.129   6.833   2.431  0.2880 -0.1710  1.6374
 5393TIP3    H216102   1.067   6.715   2.361  1.4888  0.3009 -0.2475
 5394TIP3   OH216103   2.122   5.914   1.931  0.2019  0.1898 -0.0508
 5394TIP3    H116104   2.135   6.000   1.891  0.0163  0.0217 -0.4728
 5394TIP3    H216105   2.177   5.856   1.879  0.6935  0.1274  0.5232
 5395TIP3   OH216106   1.679   6.154   0.920  0.1246 -0.2820 -0.2463
 5395TIP3    H116107   1.707   6.241   0.949  1.2517 -1.0191  0.8932
 5395TIP3    H216108   1.726   6.093   0.976 -0.4991 -1.6514 -1.1797
 5396TIP3   OH216109   2.692   1.379   1.502  0.4911  0.0896  0.0855
 5396TIP3    H116110   2.727   1.329   1.575  0.4714 -0.0599 -0.0068
 5396TIP3    H216111   2.736   1.343   1.425 -1.6321 -1.7249 -0.3010
 5397TIP3   OH216112   0.689   7.613   0.970 -0.3708 -0.4923 -0.1162
 5397TIP3    H116113   0.621   7.642   0.910  0.1388  0.2502 -0.3406
 5397TIP3    H216114   0.683   7.672   1.045  1.9019  1.4758 -1.4009
 5398TIP3   OH216115   2.892   0.877   5.015  0.4073  0.8477  0.1058
 5398TIP3    H116116   2.977   0.833   5.006  1.2134  2.4541 -0.3558
 5398TIP3    H216117   2.912   0.960   5.058 -1.0260  0.9531  0.5848
 5399TIP3   OH216118   3.495   0.142   0.878  0.0437  0.0939 -0.2575
 5399TIP3    H116119   3.439   0.209   0.917 -0.0085  0.0250 -0.2155
 5399TIP3    H216120   3.537   0.100   0.953  0.2023  0.1900 -0.2912
 5400TIP3   OH216121   0.378   5.622   3.897 -0.0519 -0.0751 -0.2992
 5400TIP3    H116122   0.432   5.696   3.870 -0.0421  0.4350  1.0625
 5400TIP3    H216123   0.306   5.621   3.834 -0.1878  1.2592 -0.1850
 5401TIP3   OH216124   8.171   6.442   2.779 -0.1594  0.9957  0.3810
 5401TIP3    H116125   8.190   6.497   2.703  0.6150  0.4447  0.1633
 5401TIP3    H216126   8.077   6.425   2.774  0.1824 -0.5137 -1.4727
 5402TIP3   OH216127   3.049   2.075   3.623 -0.1402 -0.4044 -0.5820
 5402TIP3    H116128   2.955   2.062   3.636 -0.1169  0.0281  0.0551
 5402TIP3    H216129   3.055   2.155   3.570 -0.1101  0.0083  0.0371
 5403TIP3   OH216130   2.643   6.872   3.778 -0.3886  0.8549 -0.3233
 5403TIP3    H116131   2.550   6.890   3.764  0.0877  2.5467 -1.5206
 5403TIP3    H216132   2.670   6.934   3.846 -0.1139  0.3929 -0.0025
 5404TIP3   OH216133   1.870   6.958   1.995 -0.2692 -0.1712  0.5530
 5404TIP3    H116134   1.944   6.914   1.953  0.6997  0.5390  1.4926
 5404TIP3    H216135   1.855   6.909   2.075  1.2200  1.5355  1.9200
 5405TIP3   OH216136   8.284   6.725   0.310  0.3780  0.0818  0.0659
 5405TIP3    H116137   8.276   6.685   0.223 -2.0516 -0.5657  0.5554
 5405TIP3    H216138   8.317   6.655   0.365 -0.2378 -0.1712  0.1207
 5406TIP3   OH216139   3.547   0.740   2.192 -0.6451 -0.1346 -0.5440
 5406TIP3    H116140   3.575   0.776   2.107  0.8677 -0.1437 -0.0552
 5406TIP3    H216141   3.625   0.742   2.246 -1.6492  0.0071  0.9189
 5407TIP3   OH216142   2.622   8.125   1.042  0.2274 -0.4739  0.1388
 5407TIP3    H116143   2.634   8.211   1.001  1.6514 -0.5536  0.3552
 5407TIP3    H216144   2.556   8.140   1.110  1.9926  0.9396  1.5816
 5408TIP3   OH216145   2.813   0.400   0.789 -0.4331 -0.3047 -0.6839
 5408TIP3    H116146   2.847   0.484   0.821 -0.6986  0.2237 -1.7818
 5408TIP3    H216147   2.719   0.414   0.779 -0.6598 -1.0986  0.2410
 5409TIP3   OH216148   2.210   0.536   4.091  0.1319  0.0010  0.7819
 5409TIP3    H116149   2.264   0.483   4.150  1.1061  1.4145  1.1574
 5409TIP3    H216150   2.221   0.495   4.005  2.2873  0.6545  0.7339
 5410TIP3   OH216151   3.245   7.108   3.816  0.7435 -0.4207  0.9791
 5410TIP3    H116152   3.260   7.060   3.734  0.7179  1.0329  0.1000
 5410TIP3    H216153   3.322   7.090   3.869  2.0623  0.7788 -0.4451
 5411TIP3   OH216154   2.215   1.928   1.596  0.2174 -0.0886 -0.3611
 5411TIP3    H116155   2.226   1.836   1.620  1.4450  0.3200  0.7087
 5411TIP3    H216156   2.262   1.938   1.514 -0.8219 -0.6497 -1.0315
 5412TIP3   OH216157   4.851   0.447   3.571 -0.0504  0.0948 -0.3418
 5412TIP3    H116158   4.902   0.485   3.643 -0.5318 -0.4207  0.2711
 5412TIP3    H216159   4.868   0.505   3.497  0.4705  0.6133  0.1760
 5413TIP3   OH216160   3.417   0.119   1.407  0.5236 -0.4223 -0.1219
 5413TIP3    H116161   3.483   0.079   1.352 -1.3857  0.0361 -2.8582
 5413TIP3    H216162   3.453   0.205   1.430  0.8595 -0.1237 -1.6895
 5414TIP3   OH216163   1.452   7.142   4.577 -0.5757 -0.6103  0.0205
 5414TIP3    H116164   1.497   7.227   4.575 -1.4422 -0.0782  2.1278
 5414TIP3    H216165   1.372   7.158   4.527 -1.3183  0.1710  1.4380
 5415TIP3   OH216166   1.085   5.891   2.330  0.5965  0.6110 -0.5227
 5415TIP3    H116167   1.096   5.889   2.235 -0.9655 -1.7211 -0.6757
 5415TIP3    H216168   0.991   5.887   2.343  0.9039 -2.0745  1.1555
 5416TIP3   OH216169   1.295   5.185   4.113 -0.1794  0.4713 -0.0667
 5416TIP3    H116170   1.332   5.274   4.113 -2.9805  1.7200  1.5467
 5416TIP3    H216171   1.291   5.161   4.021  1.6062  1.5887 -0.4662
 5417TIP3   OH216172   1.973   6.761   1.325 -0.1700 -0.3143 -0.4835
 5417TIP3    H116173   2.013   6.680   1.356  1.0149 -0.5317 -2.4978
 5417TIP3    H216174   1.882   6.737   1.305 -0.3357 -0.6845  0.6903
 5418TIP3   OH216175   0.286   7.528   2.620 -0.0484  0.1730 -0.5175
 5418TIP3    H116176   0.297   7.539   2.714  0.1015  0.3060 -0.5493
 5418TIP3    H216177   0.211   7.583   2.598  1.6247  2.3856 -0.9171
 5419TIP3   OH216178   2.738   0.111   0.880 -0.2289  0.0128  0.1456
 5419TIP3    H116179   2.760   0.202   0.863  2.3554 -0.8284 -1.2110
 5419TIP3    H216180   2.813   0.076   0.927 -2.2294 -0.8383  2.8604
 5420TIP3   OH216181   0.859   7.187   1.229 -0.1203  0.5979  0.6754
 5420TIP3    H116182   0.826   7.099   1.209 -0.7069  0.6906  1.2353
 5420TIP3    H216183   0.928   7.202   1.164 -1.1585  0.3919 -0.4990
 5421TIP3   OH216184   0.595   4.244   2.746 -0.4275  0.0257  0.4138
 5421TIP3    H116185   0.594   4.329   2.703 -1.2489 -0.1664  0.0430
 5421TIP3    H216186   0.564   4.261   2.835 -0.9469  0.0577  0.2277
 5422TIP3   OH216187   2.431   8.189   1.241 -0.8986 -0.0433 -0.8834
 5422TIP3    H116188   2.449   8.116   1.301 -0.6188  0.6025 -0.1792
 5422TIP3    H216189   2.336   8.185   1.227 -1.0643  0.2045  0.1274
 5423TIP3   OH216190   1.493   7.421   2.840 -0.2823  0.1140 -0.8067
 5423TIP3    H116191   1.464   7.348   2.896  1.4402 -0.0238 -0.0430
 5423TIP3    H216192   1.443   7.496   2.871 -0.9180 -0.4116 -0.5279
 5424TIP3   OH216193   2.703   7.026   2.446  0.9062  0.1445 -0.9152
 5424TIP3    H116194   2.648   6.995   2.374 -0.0842 -0.7256  0.1982
 5424TIP3    H216195   2.733   7.112   2.418 -0.6261  0.4179 -1.7623
 5425TIP3   OH216196   1.589   5.698   3.048  0.4496  0.1454 -0.3394
 5425TIP3    H116197   1.573   5.664   2.960  0.6460 -1.1018  0.0980
 5425TIP3    H216198   1.554   5.631   3.106  1.1641  0.5330  0.5459
 5426TIP3   OH216199   2.508   6.523   0.535  0.0249  0.1066  0.0008
 5426TIP3    H116200   2.511   6.603   0.482  0.9553  2.1682  2.9966
 5426TIP3    H216201   2.422   6.526   0.578 -0.0270 -0.6136 -0.0429
 5427TIP3   OH216202   0.825   8.270   2.111  0.3273 -0.0146 -0.2129
 5427TIP3    H116203   0.767   8.210   2.157 -0.9107  1.4371  0.1586
 5427TIP3    H216204   0.831   8.234   2.022 -1.0462 -0.2504 -0.2171
 5428TIP3   OH216205   1.813   6.131   4.026  0.1713 -0.4009  0.2951
 5428TIP3    H116206   1.873   6.109   3.955 -0.7189  0.9597 -0.9297
 5428TIP3    H216207   1.727   6.105   3.994 -0.4755  1.7879  0.1120
 5429TIP3   OH216208   2.170   2.039   5.120 -0.3423 -0.3192 -0.1150
 5429TIP3    H116209   2.264   2.055   5.110 -0.4261  0.6866  0.5651
 5429TIP3    H216210   2.164   1.975   5.191 -0.1212 -1.3005 -0.9749
 5430TIP3   OH216211   2.685   8.279   1.561 -0.3949  0.0503  0.1598
 5430TIP3    H116212   2.616   8.237   1.611 -2.5711 -0.6102 -3.2724
 5430TIP3    H216213   2.701   8.221   1.487  1.1620  2.0415 -1.1463
 5431TIP3   OH216214   4.308   6.320   3.126 -0.4455  0.4697 -0.0308
 5431TIP3    H116215   4.294   6.384   3.055  0.9381  1.4330  0.5376
 5431TIP3    H216216   4.403   6.316   3.136 -0.6598  1.4135  2.7296
 5432TIP3   OH216217   2.722   6.472   3.998  0.2751  0.0718 -0.1148
 5432TIP3    H116218   2.752   6.515   3.918  3.1839 -0.0306  0.8886
 5432TIP3    H216219   2.762   6.386   3.995  0.0220 -0.0918  1.2537
 5433TIP3   OH216220   5.140   1.193   3.059  0.5926  0.3052 -0.3841
 5433TIP3    H116221   5.065   1.216   3.115  1.6661  1.0674  0.7535
 5433TIP3    H216222   5.154   1.100   3.074  0.0677  0.2236 -0.3817
 5434TIP3   OH216223   3.555   0.350   4.317  0.3635 -0.5420  0.5119
 5434TIP3    H116224   3.507   0.267   4.319 -0.1960 -0.2104  1.5430
 5434TIP3    H216225   3.490   0.415   4.290  0.4130 -0.2134  1.1610
 5435TIP3   OH216226   6.617   6.434   0.041 -0.3730 -0.2405 -0.2909
 5435TIP3    H116227   6.578   6.363   0.092  1.6322  0.1071  1.8196
 5435TIP3    H216228   6.677   6.389  -0.019 -0.8610 -0.4959 -0.5853
 5436TIP3   OH216229   5.683   0.509   1.876  0.3113  0.0531 -0.3102
 5436TIP3    H116230   5.611   0.503   1.813 -0.0452  0.8663  0.0082
 5436TIP3    H216231   5.659   0.447   1.945  0.0093  0.1787 -0.3008
 5437TIP3   OH216232   8.737   5.702   2.760 -0.1652 -0.1348  0.2320
 5437TIP3    H116233   8.771   5.630   2.813 -2.8680 -0.6766  1.2850
 5437TIP3    H216234   8.744   5.779   2.818  0.6058  0.0496 -0.0912
 5438TIP3   OH216235   0.223   5.701   3.342 -0.0354  0.4494  0.1388
 5438TIP3    H116236   0.314   5.730   3.344 -0.2481  1.0888  0.7773
 5438TIP3    H216237   0.198   5.693   3.434 -0.7748  0.7643 -0.0291
 5439TIP3   OH216238   0.444   6.639   1.264  0.9192 -0.1418 -0.0397
 5439TIP3    H116239   0.499   6.717   1.272  0.6934  0.0568 -0.4038
 5439TIP3    H216240   0.412   6.623   1.353 -0.4232  1.1982 -0.2641
 5440TIP3   OH216241   1.870   7.955   2.768  0.6915 -0.5112  0.3700
 5440TIP3    H116242   1.952   7.994   2.799  1.3455 -0.7429 -1.0422
 5440TIP3    H216243   1.880   7.949   2.673 -1.1591 -0.1027  0.1233
 5441TIP3   OH216244   8.572   7.483   3.287  0.4385 -0.6027 -0.0240
 5441TIP3    H116245   8.656   7.480   3.333  0.7771  1.4903 -0.4535
 5441TIP3    H216246   8.517   7.539   3.341 -0.9596 -2.5318  0.6199
 5442TIP3   OH216247   3.544   7.314   2.429 -0.1858 -0.2035 -0.0648
 5442TIP3    H116248   3.518   7.403   2.451  1.9725 -0.0594  2.1691
 5442TIP3    H216249   3.507   7.260   2.499 -0.3342 -0.8750 -0.6573
 5443TIP3   OH216250   4.145   0.146   4.539  0.5769 -0.0077 -0.2207
 5443TIP3    H116251   4.141   0.237   4.565  1.9268 -0.1638  0.6180
 5443TIP3    H216252   4.213   0.144   4.471 -0.2051 -0.2238 -1.0107
 5444TIP3   OH216253   2.424   6.112   2.897  0.3167  0.1171  0.0448
 5444TIP3    H116254   2.500   6.159   2.862 -0.6918  1.5286 -0.2949
 5444TIP3    H216255   2.368   6.096   2.822  0.7911 -1.9953  0.0963
 5445TIP3   OH216256   1.174   8.011   3.102 -0.1031 -0.0621  0.2694
 5445TIP3    H116257   1.262   8.017   3.065  0.0618  0.8689  0.7836
 5445TIP3    H216258   1.119   8.058   3.039 -0.3065 -0.9988 -0.2613
 5446TIP3   OH216259   1.846   8.027   3.986 -0.1112  0.4477 -0.1613
 5446TIP3    H116260   1.807   7.973   4.054 -0.5709 -0.1656 -0.9007
 5446TIP3    H216261   1.774   8.082   3.955  0.3292  1.4121  0.5102
 5447TIP3   OH216262   3.723   7.260   3.361  0.5682  0.2290  0.7691
 5447TIP3    H116263   3.807   7.297   3.390  0.4053  2.0627 -0.9903
 5447TIP3    H216264   3.658   7.327   3.384 -0.3533 -0.9816  1.7000
 5448TIP3   OH216265   2.704   7.035   5.015  0.0141 -0.0039 -0.7832
 5448TIP3    H116266   2.745   7.119   4.997  0.1334 -0.4520 -2.7365
 5448TIP3    H216267   2.618   7.040   4.972 -0.0204 -0.8285 -0.8327
 5449TIP3   OH216268   8.387   8.017   4.184  0.2065 -0.1226  0.3252
 5449TIP3    H116269   8.340   7.950   4.135 -0.5940 -0.6469  1.7733
 5449TIP3    H216270   8.436   7.967   4.250 -2.4450  0.8693  3.1118
 5450TIP3   OH216271   1.149   7.105   3.056 -0.1085 -0.1531  0.1060
 5450TIP3    H116272   1.159   7.061   3.141  1.3466  1.5210  0.8115
 5450TIP3    H216273   1.055   7.104   3.041 -0.5045  0.6046  2.3228
 5451TIP3   OH216274   1.903   6.818   3.567 -0.0052  0.1668  0.0654
 5451TIP3    H116275   1.931   6.863   3.488  0.7037 -0.7212 -0.2012
 5451TIP3    H216276   1.954   6.737   3.568  1.4825  1.0917  2.5186
 5452TIP3   OH216277   2.343   6.396   2.541  0.2582 -0.0093  0.0840
 5452TIP3    H116278   2.337   6.373   2.634 -1.3873  1.6615  0.4129
 5452TIP3    H216279   2.257   6.432   2.519  1.3847  1.8118 -1.4992
 5453TIP3   OH216280   6.346   0.638   2.922  0.4240  0.3761  0.5095
 5453TIP3    H116281   6.270   0.580   2.924  0.1263  0.7876  1.6809
 5453TIP3    H216282   6.371   0.642   2.830 -0.6732 -0.1556  0.1809
 5454TIP3   OH216283   1.496   7.967   3.507 -0.3564 -0.0767 -0.4254
 5454TIP3    H116284   1.532   8.055   3.520 -0.3602  0.0430 -1.2304
 5454TIP3    H216285   1.557   7.924   3.447  0.1017 -0.9129  0.6227
 5455TIP3   OH216286   0.233   7.553   2.226 -0.0352 -0.0078 -0.0793
 5455TIP3    H116287   0.283   7.635   2.223  0.5556 -0.3601 -0.1460
 5455TIP3    H216288   0.284   7.496   2.284  0.7515 -1.0844 -1.7811
 5456TIP3   OH216289   3.501   6.720   1.608  0.7190 -0.3609 -0.2113
 5456TIP3    H116290   3.478   6.681   1.693 -2.9713  1.1781 -0.3764
 5456TIP3    H216291   3.517   6.812   1.628 -2.5222  0.5453 -1.4069
 5457TIP3   OH216292   1.990   5.154   0.122 -0.2915  0.6918  0.1402
 5457TIP3    H116293   1.966   5.219   0.056  0.2036  1.9526  1.1828
 5457TIP3    H216294   2.000   5.204   0.203 -0.5426 -0.7820  1.1096
 5458TIP3   OH216295   7.065   3.779   6.759 -0.5307  0.4410  0.3141
 5458TIP3    H116296   6.993   3.736   6.804 -0.1300 -2.0990 -1.3572
 5458TIP3    H216297   7.143   3.732   6.789  0.2288  1.8447  0.5646
 5459TIP3   OH216298   5.535   0.482   1.097 -0.9243  0.4138 -0.1529
 5459TIP3    H116299   5.491   0.456   1.178 -1.0867  0.3063 -0.2755
 5459TIP3    H216300   5.626   0.452   1.109 -0.8791  0.6504  0.1049
 5460TIP3   OH216301   2.924   6.824   0.946  0.2998 -0.1817 -0.0937
 5460TIP3    H116302   2.981   6.781   1.011 -0.2858  0.6502  0.9838
 5460TIP3    H216303   2.881   6.894   0.995 -0.2387  0.3856 -1.3666
 5461TIP3   OH216304   8.348   2.917   7.157 -0.0967  0.5236 -0.1339
 5461TIP3    H116305   8.296   2.856   7.209 -0.8889  2.4757  1.4675
 5461TIP3    H216306   8.431   2.924   7.205 -0.1284  0.9162 -0.1292
 5462TIP3   OH216307   3.030   6.287   2.287  0.4645 -0.1625  0.7018
 5462TIP3    H116308   2.958   6.293   2.351  0.2639 -0.1413  0.4725
 5462TIP3    H216309   2.997   6.332   2.210  0.2334 -1.2753  0.1420
 5463TIP3   OH216310   8.322   7.866   3.942 -0.1200 -0.2458 -0.1241
 5463TIP3    H116311   8.345   7.813   3.866 -0.3858 -0.1543 -0.2694
 5463TIP3    H216312   8.236   7.902   3.921  0.3712  0.8090 -0.3149
 5464TIP3   OH216313   2.003   5.533   1.955 -0.0467 -0.6216 -0.0300
 5464TIP3    H116314   2.035   5.537   2.045  0.4918  2.8093 -0.3206
 5464TIP3    H216315   2.082   5.515   1.903  0.3835  1.5116 -0.1590
 5465TIP3   OH216316   1.960   5.742   1.008  0.2530 -0.0102  0.6828
 5465TIP3    H116317   2.042   5.792   1.001  0.4269 -0.5241 -1.3673
 5465TIP3    H216318   1.985   5.662   1.055  1.1693 -0.6358 -0.8286
 5466TIP3   OH216319   1.402   7.677   3.560  0.0989 -0.0951 -0.0714
 5466TIP3    H116320   1.456   7.756   3.559 -1.7099  1.2395  2.7128
 5466TIP3    H216321   1.354   7.680   3.477  1.4748  0.6676 -0.8597
 5467TIP3   OH216322   1.869   7.759   1.164 -0.2997 -0.4823 -0.1755
 5467TIP3    H116323   1.873   7.732   1.256 -0.3659 -1.1835 -0.3749
 5467TIP3    H216324   1.921   7.693   1.118  0.6654  0.4933 -0.5077
 5468TIP3   OH216325   0.132   7.026   1.134 -0.4354  0.1368  0.8167
 5468TIP3    H116326   0.155   6.941   1.172  0.2269  0.1516  0.4643
 5468TIP3    H216327   0.186   7.032   1.055 -0.8765  0.6508  0.5503
 5469TIP3   OH216328   2.437   7.593   3.225 -0.5043  0.1289  0.3924
 5469TIP3    H116329   2.423   7.528   3.294 -0.1489 -0.9402 -0.5392
 5469TIP3    H216330   2.442   7.676   3.272  0.4042 -0.6563  1.7384
 5470TIP3   OH216331   1.278   7.866   3.909 -0.1435 -0.6550 -0.8942
 5470TIP3    H116332   1.275   7.778   3.872 -0.6174 -0.2632 -1.7996
 5470TIP3    H216333   1.281   7.924   3.834  0.6354  0.0973 -0.2958
 5471TIP3   OH216334   3.364   5.246   4.627  0.8029  0.0873 -0.1173
 5471TIP3    H116335   3.344   5.174   4.687 -0.3373  0.0149 -0.5613
 5471TIP3    H216336   3.443   5.218   4.581  1.2978 -0.1563  0.8607
 5472TIP3   OH216337   1.866   6.830   2.244 -0.2257 -0.1692  0.0235
 5472TIP3    H116338   1.868   6.844   2.339 -0.4092 -2.7225  0.4530
 5472TIP3    H216339   1.952   6.794   2.224  0.1836  1.3573 -0.9636
 5473TIP3   OH216340   1.573   7.664   2.016 -0.1037 -0.1185 -0.0489
 5473TIP3    H116341   1.506   7.662   1.948  1.2186 -3.6119 -1.3756
 5473TIP3    H216342   1.545   7.597   2.079  0.2509  0.9862  1.3159
 5474TIP3   OH216343   7.248   5.330   2.097  0.3743 -0.1960 -0.0784
 5474TIP3    H116344   7.184   5.351   2.029  1.1404  2.3024 -0.0787
 5474TIP3    H216345   7.232   5.395   2.165  1.8919 -0.5055  0.5886
 5475TIP3   OH216346   2.928   7.373   3.651 -0.9483 -0.1297  0.0028
 5475TIP3    H116347   2.967   7.323   3.579 -0.8221  1.7969 -1.2934
 5475TIP3    H216348   3.002   7.418   3.691 -0.5572 -3.3592  3.2024
 5476TIP3   OH216349   4.419   6.250   0.733  0.5827  0.2238 -0.6544
 5476TIP3    H116350   4.419   6.312   0.660 -1.0853 -0.8032 -1.5638
 5476TIP3    H216351   4.328   6.246   0.762  1.0123 -0.3383  0.6631
 5477TIP3   OH216352   5.878   1.905   6.136 -0.2938 -0.2149  0.0683
 5477TIP3    H116353   5.796   1.879   6.093 -0.1529 -2.6964  1.2094
 5477TIP3    H216354   5.851   1.971   6.200 -1.6878 -2.1745  1.5529
 5478TIP3   OH216355   0.441   7.593   0.825  0.0862  0.0524 -0.1107
 5478TIP3    H116356   0.378   7.525   0.847 -0.1293  0.7429  1.4563
 5478TIP3    H216357   0.503   7.551   0.765  1.8666 -2.5023  3.3550
 5479TIP3   OH216358   1.205   7.190   1.843  0.1445 -0.2844 -0.0307
 5479TIP3    H116359   1.297   7.215   1.847  0.3406 -0.8945 -0.5221
 5479TIP3    H216360   1.172   7.202   1.932  0.8694 -0.6932  0.2997
 5480TIP3   OH216361   3.861   0.896   2.099 -0.7818  0.1109  0.1264
 5480TIP3    H116362   3.766   0.913   2.103 -0.3451  2.4512  1.2740
 5480TIP3    H216363   3.893   0.959   2.035  0.2309  0.4603  0.9729
 5481TIP3   OH216364   1.481   6.848   1.823 -0.1862 -0.0457  0.0093
 5481TIP3    H116365   1.504   6.804   1.905 -0.6265 -0.9172 -0.3182
 5481TIP3    H216366   1.386   6.841   1.819 -0.2562  0.9263 -0.0666
 5482TIP3   OH216367   0.934   7.820   2.991 -0.8381 -0.5455 -0.2297
 5482TIP3    H116368   1.020   7.785   2.967  0.7131  0.6462  3.2029
 5482TIP3    H216369   0.904   7.762   3.061 -2.5914 -0.6357 -1.0585
 5483TIP3   OH216370   4.316   4.824   2.916  0.2193 -0.1203 -0.3677
 5483TIP3    H116371   4.361   4.843   2.998 -1.6995  0.3891  0.5909
 5483TIP3    H216372   4.281   4.909   2.887 -1.6801 -0.8038 -0.1383
 5484TIP3   OH216373   5.577   2.693   1.977  0.1588  0.6917 -0.3520
 5484TIP3    H116374   5.589   2.758   1.907  0.8108 -0.1605 -1.0315
 5484TIP3    H216375   5.490   2.656   1.960  0.7390 -0.2483 -1.3324
 5485TIP3   OH216376   1.157   5.837   3.156 -0.6873 -0.6204  0.2101
 5485TIP3    H116377   1.139   5.866   3.066  0.4086 -0.6752 -0.0300
 5485TIP3    H216378   1.073   5.805   3.188 -1.6212  1.5293 -0.0026
 5486TIP3   OH216379   0.155   6.070   3.390  0.8438 -0.1354  0.1859
 5486TIP3    H116380   0.060   6.056   3.391  1.0096 -1.5846 -1.1291
 5486TIP3    H216381   0.180   6.078   3.482 -0.4992 -0.1682  0.5590
 5487TIP3   OH216382   3.980   1.026   4.130 -0.1608 -0.0747  0.2008
 5487TIP3    H116383   4.008   1.078   4.205  0.8320  1.8804 -1.4638
 5487TIP3    H216384   3.893   1.060   4.108 -0.7506 -1.1215  0.8711
 5488TIP3   OH216385   1.436   4.772   3.314 -0.2506 -0.0364 -0.1314
 5488TIP3    H116386   1.437   4.816   3.228 -0.3349  3.3912  1.5501
 5488TIP3    H216387   1.528   4.760   3.336 -0.1962  0.6651  0.0474
 5489TIP3   OH216388   5.086   0.288   1.046 -0.4543  0.4279  0.1898
 5489TIP3    H116389   5.054   0.198   1.054 -2.0659  0.8951 -0.6434
 5489TIP3    H216390   5.013   0.335   1.005  0.7157  1.9112 -0.2283
 5490TIP3   OH216391   1.125   7.493   2.391  0.2779  0.6322 -0.4206
 5490TIP3    H116392   1.069   7.557   2.436  0.2207  0.4077 -0.1696
 5490TIP3    H216393   1.192   7.470   2.456 -0.8156 -0.9903  0.1398
 5491TIP3   OH216394   1.827   6.112   5.219 -0.5187 -0.5873  0.1939
 5491TIP3    H116395   1.743   6.068   5.234 -0.2723 -1.6142 -1.2780
 5491TIP3    H216396   1.831   6.123   5.124  0.8331 -0.1683  0.2943
 5492TIP3   OH216397   0.659   6.353   3.034  0.9637  0.1635 -0.1719
 5492TIP3    H116398   0.674   6.370   2.941 -0.4229  2.1744 -0.0698
 5492TIP3    H216399   0.569   6.321   3.039 -0.3004  3.5691  0.7788
 5493TIP3   OH216400   8.844   5.583   3.308 -0.6192 -0.2106  0.1200
 5493TIP3    H116401   8.835   5.489   3.291  1.6182 -0.9928  2.9036
 5493TIP3    H216402   8.933   5.593   3.343 -0.9336  2.9231  0.1890
 5494TIP3   OH216403   2.458   6.082   1.515 -0.2875  0.7115 -0.6799
 5494TIP3    H116404   2.548   6.076   1.483 -0.2776 -1.2271 -0.3231
 5494TIP3    H216405   2.403   6.075   1.437 -0.1722  0.1365 -0.7066
 5495TIP3   OH216406   1.296   7.298   2.227 -0.0270 -0.5559 -0.6127
 5495TIP3    H116407   1.368   7.288   2.290 -0.2330 -1.5004 -0.5241
 5495TIP3    H216408   1.235   7.359   2.270  0.5366 -0.0476 -0.5270
 5496TIP3   OH216409   1.380   6.255   2.455  0.3640  0.6856 -0.3004
 5496TIP3    H116410   1.370   6.165   2.483 -0.0994  1.0596  0.7626
 5496TIP3    H216411   1.396   6.250   2.360 -2.4088 -0.3576 -0.7468
 5497TIP3   OH216412   7.451   2.428   7.218 -0.1200  0.0524  0.4115
 5497TIP3    H116413   7.404   2.344   7.225  0.3609 -0.4619 -2.0200
 5497TIP3    H216414   7.470   2.452   7.309 -1.1081 -1.9986  1.2087
 5498TIP3   OH216415   1.461   7.976   2.420 -0.2250 -0.6879 -0.1768
 5498TIP3    H116416   1.402   7.913   2.377  1.7162 -2.3346 -0.4958
 5498TIP3    H216417   1.519   7.921   2.473  0.6905  0.9664  0.5597
 5499TIP3   OH216418   1.546   7.491   2.218  0.0785 -0.1227  0.4890
 5499TIP3    H116419   1.560   7.403   2.253 -0.2675  0.1795  1.4256
 5499TIP3    H216420   1.607   7.546   2.267 -1.3614  0.5210  1.5984
 5500TIP3   OH216421   8.767   7.593   2.769 -0.3459 -0.4459  0.1868
 5500TIP3    H116422   8.808   7.626   2.689 -1.0178 -0.5163 -0.1883
 5500TIP3    H216423   8.692   7.542   2.738 -1.5209  0.8117  0.9194
 5501TIP3   OH216424   2.403   6.969   3.717 -0.1409  0.8161  0.7326
 5501TIP3    H116425   2.390   6.992   3.625 -0.7638 -0.1004  0.5877
 5501TIP3    H216426   2.348   7.032   3.765  0.0615  1.1950  0.4752
 5502TIP3   OH216427   2.811   7.918   4.249  0.2362 -0.5491 -0.0359
 5502TIP3    H116428   2.831   8.006   4.216  0.7387 -1.5258 -2.5158
 5502TIP3    H216429   2.814   7.863   4.170 -1.2058 -2.5875  1.2999
 5503TIP3   OH216430   3.958   7.078   0.733  0.1105  0.5386 -0.2411
 5503TIP3    H116431   3.949   7.115   0.645  0.1048  0.4363 -0.2838
 5503TIP3    H216432   3.911   6.995   0.729 -0.8757  1.0666  0.1875
 5504TIP3   OH216433   2.555   7.893   0.923 -0.1538  0.2990 -0.0201
 5504TIP3    H116434   2.582   7.977   0.961 -0.6331 -0.1087  1.2726
 5504TIP3    H216435   2.460   7.889   0.939 -0.9173  1.4049 -3.8720
 5505TIP3   OH216436   3.464   5.734   1.704  0.1013 -0.0006  0.0981
 5505TIP3    H116437   3.484   5.655   1.754  2.1098  0.4570  0.0568
 5505TIP3    H216438   3.473   5.709   1.613  2.0181  0.5751  0.1084
 5506TIP3   OH216439   2.448   6.200   3.410  0.1908  0.5212  0.1620
 5506TIP3    H116440   2.468   6.115   3.449 -0.1534  0.9681  1.3267
 5506TIP3    H216441   2.534   6.238   3.391  0.3511  0.0484 -0.0738
 5507TIP3   OH216442   1.043   7.206   2.689  0.3022 -0.0034 -0.0308
 5507TIP3    H116443   0.954   7.234   2.669  0.1571 -1.0557 -0.9370
 5507TIP3    H216444   1.046   7.199   2.784 -0.7326 -0.4529 -0.0283
 5508TIP3   OH216445   3.677   6.299   1.941 -0.0034  0.5303 -0.7096
 5508TIP3    H116446   3.717   6.373   1.985 -2.1713  1.6395 -0.5222
 5508TIP3    H216447   3.604   6.274   1.998 -0.7637 -0.1905 -1.9624
 5509TIP3   OH216448   0.410   7.947   3.792 -0.8175  0.0789  0.3284
 5509TIP3    H116449   0.323   7.978   3.767 -1.6971 -1.3142  1.5462
 5509TIP3    H216450   0.405   7.939   3.888  0.9067  0.7076  0.4877
 5510TIP3   OH216451   8.010   3.532   6.817  0.4007 -0.0585 -0.1741
 5510TIP3    H116452   7.958   3.500   6.743  1.9825  0.4180 -1.5187
 5510TIP3    H216453   7.946   3.548   6.886 -0.8909 -2.3276 -0.7877
 5511TIP3   OH216454   2.498   6.781   1.527  0.1648 -0.5241 -0.1747
 5511TIP3    H116455   2.456   6.816   1.448 -1.1823 -0.9682  0.3344
 5511TIP3    H216456   2.592   6.788   1.509 -0.0966  1.1763 -1.0322
 5512TIP3   OH216457   6.712   8.313   2.036  0.0023  0.0678  0.2385
 5512TIP3    H116458   6.708   8.347   1.946  1.5407  0.5182  0.3386
 5512TIP3    H216459   6.724   8.218   2.025 -1.3922 -0.0983 -0.0197
 5513TIP3   OH216460   2.639   8.315   0.302  0.4953  0.0366  0.4226
 5513TIP3    H116461   2.703   8.343   0.236 -0.0410 -0.0118 -0.1271
 5513TIP3    H216462   2.673   8.232   0.334  0.3099 -0.3812 -0.4417
 5514TIP3   OH216463   5.152   4.329   2.522 -0.0706 -0.3004  0.2832
 5514TIP3    H116464   5.149   4.423   2.504 -0.7638 -0.1181  1.2599
 5514TIP3    H216465   5.081   4.315   2.585  0.4249 -1.3753  0.6188
 5515TIP3   OH216466   3.857   6.848   2.046 -0.1921  0.4194  0.0036
 5515TIP3    H116467   3.817   6.927   2.009 -1.7409 -0.5504 -0.4602
 5515TIP3    H216468   3.786   6.806   2.094  0.9292 -0.0878  1.2412
 5516TIP3   OH216469   3.779   4.888   0.983  0.1314 -0.1121  0.3925
 5516TIP3    H116470   3.737   4.869   1.067  0.6200  0.7798  0.8408
 5516TIP3    H216471   3.707   4.890   0.920  0.1600 -5.2092 -0.0413
 5517TIP3   OH216472   3.897   8.232   1.154 -0.5109  0.3974 -0.0524
 5517TIP3    H116473   3.859   8.289   1.087 -2.9171  0.0039  0.9422
 5517TIP3    H216474   3.937   8.292   1.217  0.0896  0.8383 -0.8548
 5518TIP3   OH216475   4.031   6.378   2.417  0.2571  0.5736 -0.1830
 5518TIP3    H116476   4.021   6.306   2.354 -0.2756  1.1084 -0.7292
 5518TIP3    H216477   3.991   6.453   2.373  0.7388  1.1848  0.4125
 5519TIP3   OH216478   2.565   7.114   1.243  0.1893 -0.0401  0.1939
 5519TIP3    H116479   2.489   7.125   1.186  0.2496  2.3504  0.5214
 5519TIP3    H216480   2.638   7.101   1.182 -0.3174 -1.3603 -0.1460
 5520TIP3   OH216481   2.455   7.550   0.551 -0.1798  0.0156  0.0780
 5520TIP3    H116482   2.482   7.498   0.476  1.3335 -1.4543  1.5671
 5520TIP3    H216483   2.535   7.597   0.577 -1.1322  1.8569 -0.2912
 5521TIP3   OH216484   6.109   0.264   1.751  0.2730 -0.0888  0.0069
 5521TIP3    H116485   6.037   0.306   1.705  0.9850 -0.4926 -1.4981
 5521TIP3    H216486   6.165   0.336   1.780 -0.3919  0.1873  0.6284
 5522TIP3   OH216487   5.022   6.565   2.168  0.1314  0.5015  0.0227
 5522TIP3    H116488   5.005   6.492   2.107 -1.2588  2.3776 -1.9161
 5522TIP3    H216489   4.939   6.577   2.213  1.0005 -0.5086  1.9551
 5523TIP3   OH216490   0.827   6.720   1.937  0.4518 -0.0624 -0.2761
 5523TIP3    H116491   0.861   6.695   1.851  0.2555  1.3936 -0.7856
 5523TIP3    H216492   0.889   6.786   1.969  0.3420 -0.3541  0.5589
 5524TIP3   OH216493   2.352   7.051   2.387  0.1148  0.2070  0.3466
 5524TIP3    H116494   2.304   6.995   2.447  1.0604 -0.5102  0.4408
 5524TIP3    H216495   2.345   7.006   2.302  1.7049 -0.5982  0.6116
 5525TIP3   OH216496   7.114   2.462   5.231 -0.0007  0.7770  0.4098
 5525TIP3    H116497   7.109   2.547   5.187 -0.3131  0.6754  0.2438
 5525TIP3    H216498   7.195   2.422   5.199 -0.1828  0.7395 -0.0100
 5526TIP3   OH216499   5.623   1.013   0.324 -0.4558 -0.3304  0.0620
 5526TIP3    H116500   5.677   0.954   0.272 -0.3513 -0.3736  0.2193
 5526TIP3    H216501   5.542   1.022   0.273  0.2410  0.8318 -0.8378
 5527TIP3   OH216502   3.807   7.600   1.992 -0.8693 -0.2477 -0.3047
 5527TIP3    H116503   3.732   7.589   2.050  0.1891 -0.5812  1.0285
 5527TIP3    H216504   3.882   7.573   2.045  0.5117  2.6380 -0.7025
 5528TIP3   OH216505   4.260   6.427   1.612  0.0493  0.4579  0.3833
 5528TIP3    H116506   4.243   6.361   1.546 -3.8800  2.3787 -0.6470
 5528TIP3    H216507   4.318   6.490   1.568  1.7394 -0.9521  0.5507
 5529TIP3   OH216508   7.968   6.157   7.203  0.4654 -0.3967 -0.4191
 5529TIP3    H116509   7.981   6.107   7.284 -1.0246 -1.3980 -0.7865
 5529TIP3    H216510   7.874   6.151   7.185  0.6679  0.4057 -1.8451
 5530TIP3   OH216511   0.316   4.472   5.830 -0.2275 -0.2828  1.2253
 5530TIP3    H116512   0.239   4.518   5.864 -0.8991 -0.6047  0.1678
 5530TIP3    H216513   0.300   4.380   5.849 -0.3640 -0.4078  0.5041
 5531TIP3   OH216514   7.645   2.419   6.485  0.3713 -0.4624  0.0750
 5531TIP3    H116515   7.614   2.510   6.486 -0.8279 -0.8544  0.2995
 5531TIP3    H216516   7.704   2.412   6.560 -0.1210 -0.0499  0.5080
 5532TIP3   OH216517   2.484   6.402   1.406 -0.3750  0.1579  0.0283
 5532TIP3    H116518   2.454   6.379   1.494 -0.4374  0.0360 -0.0247
 5532TIP3    H216519   2.437   6.482   1.385 -1.2551 -0.4549 -0.3658
 5533TIP3   OH216520   4.490   5.296   1.405  0.6999 -0.1967  0.4375
 5533TIP3    H116521   4.565   5.259   1.359  1.3114  0.5368  0.8544
 5533TIP3    H216522   4.457   5.364   1.346  0.3454 -0.5233  0.2510
 5534TIP3   OH216523   3.435   6.458   1.037 -0.0843 -0.2900  0.2059
 5534TIP3    H116524   3.448   6.552   1.026  0.7494 -0.5231 -0.9191
 5534TIP3    H216525   3.455   6.420   0.951 -2.6207 -1.2840 -0.0011
 5535TIP3   OH216526   3.530   6.003   1.709  0.0757 -0.2705  0.2231
 5535TIP3    H116527   3.506   5.916   1.677 -0.6255  0.2580 -0.7195
 5535TIP3    H216528   3.625   6.009   1.695  0.0084 -0.6056 -0.3801
 5536TIP3   OH216529   0.886   6.464   1.477 -0.1347 -0.0018  0.9281
 5536TIP3    H116530   0.863   6.383   1.433  1.2798 -0.0892  0.3355
 5536TIP3    H216531   0.979   6.456   1.498 -0.4864  0.5458  2.8639
 5537TIP3   OH216532   2.912   7.540   1.810  0.0170 -0.3815  0.0871
 5537TIP3    H116533   2.987   7.599   1.816  2.0601 -2.8563 -0.2596
 5537TIP3    H216534   2.899   7.527   1.716  0.0679 -1.0665  0.1709
 5538TIP3   OH216535   2.279   8.134   1.591  0.3257 -0.4722  0.0224
 5538TIP3    H116536   2.334   8.093   1.657 -1.7082 -1.4259  1.1602
 5538TIP3    H216537   2.227   8.062   1.554 -0.0619  0.3769 -1.1353
 5539TIP3   OH216538   4.649   6.855   0.751  1.1197  1.2346 -0.2199
 5539TIP3    H116539   4.619   6.850   0.842 -0.7485  0.1442 -0.8585
 5539TIP3    H216540   4.580   6.810   0.701  2.2347  1.6208 -2.1429
 5540TIP3   OH216541   3.879   8.015   2.516 -0.2744 -0.3387  0.2088
 5540TIP3    H116542   3.968   7.983   2.529 -0.3511 -1.1345 -1.1790
 5540TIP3    H216543   3.858   8.061   2.598  1.8379  0.9176  0.0577
 5541TIP3   OH216544   2.802   7.080   2.944 -0.0267  0.3745  0.0430
 5541TIP3    H116545   2.714   7.048   2.962 -0.4984  1.3454 -0.4917
 5541TIP3    H216546   2.804   7.093   2.849  1.1648 -1.0110 -0.1409
 5542TIP3   OH216547   2.109   7.003   0.278 -0.6379 -0.4439  0.3754
 5542TIP3    H116548   2.020   6.973   0.298 -0.8494 -0.6314 -0.8299
 5542TIP3    H216549   2.100   7.096   0.259 -0.5512 -0.4325  0.3869
 5543TIP3   OH216550   0.457   4.909   6.569 -0.4754  0.1440 -0.5762
 5543TIP3    H116551   0.384   4.850   6.551  0.5529 -1.3451  0.0322
 5543TIP3    H216552   0.529   4.851   6.594 -0.1877  1.7521  2.6180
 5544TIP3   OH216553   2.402   5.745   0.838  0.0084 -0.2492 -0.2337
 5544TIP3    H116554   2.341   5.677   0.866  0.8088 -0.6984  0.4246
 5544TIP3    H216555   2.431   5.717   0.751 -2.0153  0.8399 -1.2859
 5545TIP3   OH216556   3.530   0.328   2.551 -0.0935  0.3599  0.0172
 5545TIP3    H116557   3.590   0.258   2.527 -0.4828  0.0540 -0.0560
 5545TIP3    H216558   3.586   0.395   2.590  0.3587  0.2734 -0.4806
 5546TIP3   OH216559   2.729   6.004   1.437  0.0319  0.4807 -0.0463
 5546TIP3    H116560   2.769   5.921   1.465  0.0474  0.2162 -0.8432
 5546TIP3    H216561   2.756   6.067   1.504 -0.1788 -0.2089  0.6903
 5547TIP3   OH216562   4.342   0.148   0.402 -0.2133 -0.4738 -0.0697
 5547TIP3    H116563   4.412   0.084   0.414  0.4005  0.1535 -0.3384
 5547TIP3    H216564   4.364   0.220   0.461 -0.6505 -0.2848 -0.1319
 5548TIP3   OH216565   3.348   7.175   0.669  0.3688 -0.0002  0.1191
 5548TIP3    H116566   3.287   7.156   0.598  0.1420 -0.1911  0.3613
 5548TIP3    H216567   3.395   7.092   0.682 -1.6545 -0.8917  2.1779
 5549TIP3   OH216568   2.221   7.637   3.052 -0.0482  0.5244 -0.3231
 5549TIP3    H116569   2.242   7.722   3.013  0.4683  1.4366  1.8283
 5549TIP3    H216570   2.281   7.630   3.127 -1.4566 -0.8301  0.7108
 5550TIP3   OH216571   1.688   8.303   2.702  0.4059 -0.4608 -0.1182
 5550TIP3    H116572   1.657   8.217   2.732 -0.3694 -0.4777 -0.9522
 5550TIP3    H216573   1.738   8.337   2.776 -0.4274 -1.0529  0.7390
 5551TIP3   OH216574   3.077   5.752   0.467  0.1971 -0.5150 -0.5265
 5551TIP3    H116575   3.018   5.714   0.532  0.4055  1.1376  0.6677
 5551TIP3    H216576   3.111   5.831   0.509  1.4652 -0.2004 -2.0964
 5552TIP3   OH216577   2.718   8.265   4.417  0.0653  0.8511  0.0585
 5552TIP3    H116578   2.776   8.329   4.375  1.4515 -0.0695  0.5303
 5552TIP3    H216579   2.718   8.289   4.509  2.1673 -0.9428  0.5870
 5553TIP3   OH216580   3.470   8.252   1.095  0.1631 -0.0745  0.0515
 5553TIP3    H116581   3.441   8.236   1.184  1.0423  1.3790  0.6115
 5553TIP3    H216582   3.484   8.346   1.090  2.2313 -0.3992 -0.9594
 5554TIP3   OH216583   3.673   7.389   1.823 -0.0432  0.2225  0.3396
 5554TIP3    H116584   3.599   7.444   1.795  0.8946  1.0942 -0.4486
 5554TIP3    H216585   3.738   7.451   1.854  1.2397 -0.4062 -1.0427
 5555TIP3   OH216586   3.468   6.980   1.256 -0.2418 -0.1492 -0.2582
 5555TIP3    H116587   3.448   7.069   1.285  2.2038  0.8601 -1.4523
 5555TIP3    H216588   3.531   6.948   1.321  0.3922 -0.2485 -0.9141
 5556TIP3   OH216589   4.754   6.954   0.325  0.0435  0.1419  0.0476
 5556TIP3    H116590   4.797   7.023   0.276  1.6670  0.0220  1.2878
 5556TIP3    H216591   4.696   7.000   0.386 -0.2043  0.3394 -0.3291
 5557TIP3   OH216592   4.031   7.826   2.331 -0.7468 -0.1374 -0.0077
 5557TIP3    H116593   3.939   7.836   2.304 -0.8242 -0.2598  0.2021
 5557TIP3    H216594   4.075   7.792   2.254 -0.5725  1.3795 -0.5808
 5558TIP3   OH216595   3.145   7.293   0.048 -0.3499  0.2487 -0.4164
 5558TIP3    H116596   3.108   7.313   0.133 -1.0599 -1.9771 -0.1820
 5558TIP3    H216597   3.224   7.243   0.067 -1.6978 -2.1777 -1.0996
 5559TIP3   OH216598   4.265   5.501   2.664  0.1281 -0.1608  0.1908
 5559TIP3    H116599   4.298   5.533   2.748 -1.3995 -0.1791  0.7955
 5559TIP3    H216600   4.335   5.443   2.632  1.6198  1.4446  0.4555
 5560TIP3   OH216601   4.528   6.328   1.403 -0.3683  0.3713 -0.1804
 5560TIP3    H116602   4.441   6.288   1.399  0.1409 -0.8006  0.2949
 5560TIP3    H216603   4.563   6.302   1.488  0.0960  1.6031  0.0213
 5561TIP3   OH216604   3.847   7.896   2.129  0.3289 -0.2173  0.0081
 5561TIP3    H116605   3.796   7.942   2.063  0.6231 -0.7617 -0.5941
 5561TIP3    H216606   3.824   7.804   2.119  2.2319 -0.6078 -1.0020
 5562TIP3   OH216607   3.666   4.350   1.615  0.1173  0.3224 -0.6134
 5562TIP3    H116608   3.597   4.322   1.556 -0.4738 -0.0207  0.2342
 5562TIP3    H216609   3.690   4.437   1.584 -0.1516  0.1275 -1.3821
 5563TIP3   OH216610   1.629   6.071   3.738  0.2595  0.2396  0.5987
 5563TIP3    H116611   1.598   5.989   3.699 -1.1351  0.4683  1.1708
 5563TIP3    H216612   1.554   6.131   3.730  0.2471  0.5658  2.7531
 5564TIP3   OH216613   2.728   5.883   2.290  0.2323 -0.0681  0.7508
 5564TIP3    H116614   2.751   5.943   2.219  1.4123 -0.9313  0.4011
 5564TIP3    H216615   2.765   5.799   2.264 -3.3467 -1.5277  0.1355
 5565TIP3   OH216616   2.811   5.547   0.907  0.2038 -0.0866 -0.5224
 5565TIP3    H116617   2.774   5.600   0.977  2.4734 -1.7916  2.0809
 5565TIP3    H216618   2.747   5.478   0.892  0.1256 -0.2415  0.5217
 5566TIP3   OH216619   7.154   3.739   6.494 -0.0558 -0.0781 -0.1515
 5566TIP3    H116620   7.164   3.646   6.516 -2.8560 -0.5163 -0.4338
 5566TIP3    H216621   7.097   3.773   6.564 -1.2230  0.7664 -1.4851
 5567TIP3   OH216622   5.327   7.893   1.252  0.3947  0.1498 -0.2001
 5567TIP3    H116623   5.372   7.891   1.336  1.6472  1.2128 -0.8270
 5567TIP3    H216624   5.380   7.837   1.195  0.1312  0.2760 -0.5690
 5568TIP3   OH216625   3.939   4.323   1.416 -0.1531  0.3601 -0.4811
 5568TIP3    H116626   3.943   4.234   1.450  0.3351  0.6348  0.1752
 5568TIP3    H216627   3.865   4.363   1.462  0.1211  0.5420 -0.2029
 5569TIP3   OH216628   3.756   6.079   1.006  0.5957  0.4780 -0.1925
 5569TIP3    H116629   3.713   6.003   1.047  1.7519  0.2346  0.6116
 5569TIP3    H216630   3.772   6.139   1.079  1.9594  0.3939 -0.4207
 5570TIP3   OH216631   1.889   4.710   3.159 -0.4125 -0.1336  0.1344
 5570TIP3    H116632   1.910   4.784   3.216 -1.5842 -0.5183  1.0878
 5570TIP3    H216633   1.873   4.637   3.219  3.8407 -2.0728 -0.8498
 5571TIP3   OH216634   2.097   7.191   2.632  0.4670  0.0476  0.1399
 5571TIP3    H116635   2.123   7.264   2.577 -0.6915 -0.5606 -1.2456
 5571TIP3    H216636   2.015   7.159   2.593  1.3833 -2.5112  0.2006
 5572TIP3   OH216637   6.101   0.351   1.332 -0.1864 -0.1693 -0.0054
 5572TIP3    H116638   6.110   0.257   1.317 -0.0434  0.0410 -1.3356
 5572TIP3    H216639   6.027   0.358   1.391 -2.6524 -0.9485 -2.8557
 5573TIP3   OH216640   4.214   0.322   3.314  0.0905 -0.2731  0.5216
 5573TIP3    H116641   4.156   0.365   3.376  0.0912 -0.7655  0.8648
 5573TIP3    H216642   4.207   0.374   3.234 -1.7337 -0.9963  0.1758
 5574TIP3   OH216643   0.243   6.459   0.271  0.8285 -0.2146 -0.0492
 5574TIP3    H116644   0.280   6.460   0.183  0.1907 -2.6682 -0.3884
 5574TIP3    H216645   0.317   6.475   0.329  1.2747  1.2889 -1.0212
 5575TIP3   OH216646   5.409   0.372   1.303  0.1263 -0.0367  0.1457
 5575TIP3    H116647   5.403   0.277   1.313 -0.7706  0.0780  0.7634
 5575TIP3    H216648   5.323   0.404   1.332  0.7168  1.0172  0.7260
 5576TIP3   OH216649   3.188   8.223   0.240  0.2865 -0.1887 -0.3201
 5576TIP3    H116650   3.268   8.275   0.248 -0.9020  1.6377  0.0359
 5576TIP3    H216651   3.160   8.236   0.150 -0.5797  0.6739  0.0594
 5577TIP3   OH216652   1.211   6.813   1.850 -0.5302 -0.4920  0.0922
 5577TIP3    H116653   1.153   6.833   1.776  0.6195  2.9755  0.0543
 5577TIP3    H216654   1.151   6.801   1.924 -1.4513  0.3596 -0.5031
 5578TIP3   OH216655   3.428   5.778   3.948 -0.0116  0.1835  0.6628
 5578TIP3    H116656   3.416   5.872   3.966 -0.9669  1.1351 -4.2184
 5578TIP3    H216657   3.522   5.763   3.959  0.3869  2.0627  0.0017
 5579TIP3   OH216658   2.661   5.692   1.080 -0.7821 -0.3446 -0.0283
 5579TIP3    H116659   2.610   5.771   1.094 -1.2946 -0.8135  0.8244
 5579TIP3    H216660   2.681   5.660   1.168  1.8570  0.3669 -0.3210
 5580TIP3   OH216661   4.474   5.872   1.703 -0.2589  0.1563  0.0724
 5580TIP3    H116662   4.380   5.870   1.719  0.0364 -0.4771  1.8269
 5580TIP3    H216663   4.498   5.780   1.693  0.4398  0.1973  1.3215
 5581TIP3   OH216664   5.224   7.523   0.206 -0.3159  0.7634 -0.0708
 5581TIP3    H116665   5.161   7.585   0.169 -0.2061  0.2069 -1.1947
 5581TIP3    H216666   5.232   7.454   0.140  0.5000  0.1775  0.6306
 5582TIP3   OH216667   3.191   8.219   0.543 -0.2554  0.5370 -0.4891
 5582TIP3    H116668   3.156   8.166   0.472 -2.1126  1.2956 -0.1685
 5582TIP3    H216669   3.247   8.159   0.592 -4.1399 -1.8558  1.2787
 5583TIP3   OH216670   6.337   0.775   2.426  0.1615  0.1915  0.3552
 5583TIP3    H116671   6.338   0.757   2.333  0.6917 -1.5119  0.6757
 5583TIP3    H216672   6.260   0.830   2.440  0.0461  0.3873 -1.0700
 5584TIP3   OH216673   3.817   6.657   2.550 -0.0350 -1.1664  0.5962
 5584TIP3    H116674   3.855   6.719   2.612 -0.4733 -0.6470  0.3397
 5584TIP3    H216675   3.866   6.672   2.469 -0.1458 -1.1507  0.5324
 5585TIP3   OH216676   2.793   7.056   1.082  0.3258  0.0473  0.3663
 5585TIP3    H116677   2.739   7.087   1.009 -0.2259  0.0870  0.7952
 5585TIP3    H216678   2.878   7.099   1.068  0.4165 -0.4194 -0.5916
 5586TIP3   OH216679   3.370   6.222   1.641  0.7856 -0.7392  0.0360
 5586TIP3    H116680   3.425   6.148   1.667  1.8319 -0.5557 -1.5852
 5586TIP3    H216681   3.432   6.290   1.615 -0.1988  0.0035 -0.3869
 5587TIP3   OH216682   2.773   6.292   2.951 -0.0099  0.6162 -0.0031
 5587TIP3    H116683   2.791   6.203   2.982  0.0715  0.4330 -0.5508
 5587TIP3    H216684   2.743   6.279   2.861  0.3636  1.1708 -0.2113
 5588TIP3   OH216685   8.811   2.945   6.615 -0.2405 -0.5062 -0.0226
 5588TIP3    H116686   8.865   2.921   6.539 -0.7627 -0.6835 -0.3425
 5588TIP3    H216687   8.852   3.024   6.650 -0.5727  0.1703 -1.1028
 5589TIP3   OH216688   7.198   0.946   1.913  0.2594 -0.1361 -0.3721
 5589TIP3    H116689   7.236   0.900   1.987  0.9343  0.1868 -0.5147
 5589TIP3    H216690   7.251   0.919   1.838 -0.5227 -0.5872 -0.7575
 5590TIP3   OH216691   2.128   7.326   1.370  0.7627  0.0734 -0.3237
 5590TIP3    H116692   2.154   7.277   1.448 -1.3335 -0.0786  0.3140
 5590TIP3    H216693   2.208   7.370   1.341  1.7955 -0.6955  1.3089
 5591TIP3   OH216694   3.982   7.070   1.335  0.1916 -0.0049 -0.5343
 5591TIP3    H116695   4.000   7.064   1.429 -0.7235 -1.6571 -0.4390
 5591TIP3    H216696   4.058   7.029   1.294  0.5373  0.6110 -0.5141
 5592TIP3   OH216697   8.686   3.109   6.907  0.4997  0.0881 -0.1727
 5592TIP3    H116698   8.740   3.127   6.984 -0.2910 -2.0942  0.9355
 5592TIP3    H216699   8.596   3.119   6.938  0.1788 -0.7102 -0.8175
 5593TIP3   OH216700   5.999   7.658   1.198  0.0251  0.3410 -0.1847
 5593TIP3    H116701   5.935   7.659   1.127  2.3159 -1.1868 -2.3903
 5593TIP3    H216702   6.011   7.565   1.218  0.9868  0.6468  0.7026
 5594TIP3   OH216703   3.208   6.543   0.481 -0.0725 -0.1110  0.1804
 5594TIP3    H116704   3.282   6.495   0.517 -1.1336 -0.0403  2.5768
 5594TIP3    H216705   3.235   6.635   0.486  0.3273 -0.1892 -0.5170
 5595TIP3   OH216706   3.400   7.221   2.673 -0.6151  0.2538  0.3137
 5595TIP3    H116707   3.434   7.146   2.722  1.6166  0.9168 -0.1436
 5595TIP3    H216708   3.341   7.183   2.608  0.7196 -1.1403 -0.1067
 5596TIP3   OH216709   2.878   8.106   0.088  0.4025  0.0415 -0.2256
 5596TIP3    H116710   2.815   8.159   0.038 -1.8907  0.7451  3.2616
 5596TIP3    H216711   2.884   8.024   0.040 -1.9848  0.5695 -1.4885
 5597TIP3   OH216712   1.532   6.548   4.179  0.0226  0.4233  0.4867
 5597TIP3    H116713   1.522   6.637   4.214  0.9401  1.3807 -1.6087
 5597TIP3    H216714   1.600   6.509   4.234  0.3225  1.3603  0.7966
 5598TIP3   OH216715   1.113   7.528   0.731 -0.5468  0.0199  0.4105
 5598TIP3    H116716   1.125   7.619   0.704  0.6116 -0.2763 -0.0772
 5598TIP3    H216717   1.200   7.489   0.724 -1.3032 -1.4994 -0.8241
 5599TIP3   OH216718   3.248   7.442   1.584 -0.3942 -0.2429 -0.4882
 5599TIP3    H116719   3.270   7.534   1.596 -1.6517 -0.0364  0.2982
 5599TIP3    H216720   3.212   7.437   1.496 -1.8846  0.3339  0.0736
 5600TIP3   OH216721   1.207   7.366   1.553  0.7201  0.3113 -0.3207
 5600TIP3    H116722   1.190   7.337   1.463 -0.3169 -0.0774 -0.0136
 5600TIP3    H216723   1.192   7.460   1.551 -1.1107  0.0528 -0.1743
 5601TIP3   OH216724   2.622   7.627   2.194 -0.0977  0.5699  0.0071
 5601TIP3    H116725   2.639   7.652   2.285  0.3668  1.1867 -0.2463
 5601TIP3    H216726   2.529   7.605   2.192 -0.1265  0.6357  0.6154
 5602TIP3   OH216727   2.125   6.504   1.471  0.2516 -0.0558  0.0778
 5602TIP3    H116728   2.194   6.537   1.413  1.0584 -0.2106  0.9409
 5602TIP3    H216729   2.145   6.411   1.481 -1.2374 -0.5426 -1.2592
 5603TIP3   OH216730   8.425   3.166   7.023  0.5069 -0.1568 -0.0079
 5603TIP3    H116731   8.450   3.197   7.111 -0.7659 -0.1473  0.3680
 5603TIP3    H216732   8.416   3.071   7.033  0.7748 -0.2026 -0.2269
 5604TIP3   OH216733   4.405   6.557   0.541 -0.2103 -0.4884 -0.8114
 5604TIP3    H116734   4.498   6.577   0.538 -0.1644 -0.2342  1.4088
 5604TIP3    H216735   4.371   6.612   0.611 -1.8931 -1.1633 -1.0685
 5605TIP3   OH216736   5.062   5.627   2.149  0.8376  0.1374 -0.0482
 5605TIP3    H116737   5.016   5.550   2.115 -0.9982  0.4528  1.6471
 5605TIP3    H216738   5.110   5.662   2.073  1.3734 -2.4129 -0.9448
 5606TIP3   OH216739   2.777   7.586   0.419 -0.1149  0.3081 -0.1051
 5606TIP3    H116740   2.830   7.665   0.432 -0.4828  0.6043 -0.3757
 5606TIP3    H216741   2.763   7.582   0.324 -0.4936  0.1768 -0.0438
 5607TIP3   OH216742   5.920   0.352   1.529 -0.0381  0.5840  0.3667
 5607TIP3    H116743   5.921   0.426   1.589 -0.1173  0.9796 -0.1175
 5607TIP3    H216744   5.831   0.316   1.536  0.0603  0.4106  0.7467
 5608TIP3   OH216745   0.142   7.067   1.821 -1.0901 -0.0632  0.3611
 5608TIP3    H116746   0.204   7.019   1.765  1.3643  1.3182  1.7908
 5608TIP3    H216747   0.072   7.004   1.838 -0.1883 -1.6418 -1.4425
 5609TIP3   OH216748   6.809   5.165   6.362  0.6386 -0.2423 -0.3897
 5609TIP3    H116749   6.813   5.073   6.388 -3.2040 -0.0242  1.3559
 5609TIP3    H216750   6.771   5.164   6.275 -0.1992 -0.3008 -0.0306
 5610TIP3   OH216751   0.720   7.071   0.213 -0.0206  0.6374  0.1382
 5610TIP3    H116752   0.626   7.078   0.197  0.1817  1.0073 -0.9599
 5610TIP3    H216753   0.743   6.983   0.181  0.2264  1.0413 -0.8284
 5611TIP3   OH216754   2.742   5.326   1.933  0.4478  0.8040  0.2965
 5611TIP3    H116755   2.810   5.306   1.998 -0.1486  1.0032  0.9846
 5611TIP3    H216756   2.673   5.262   1.951  1.0233 -0.3179 -1.3012
 5612TIP3   OH216757   4.579   4.441   2.064 -0.0754 -0.0654  0.4453
 5612TIP3    H116758   4.576   4.349   2.037 -0.5601 -0.1602  0.8156
 5612TIP3    H216759   4.565   4.439   2.158  1.5548  0.2763  0.7180
 5613TIP3   OH216760   7.439   2.692   7.014 -0.2854  0.2370  0.2350
 5613TIP3    H116761   7.469   2.602   7.026 -0.4938  0.0696 -0.4682
 5613TIP3    H216762   7.350   2.683   6.979  0.5754  0.6788 -2.1859
 5614TIP3   OH216763   1.840   8.109   2.403 -0.2101 -0.1131 -0.1593
 5614TIP3    H116764   1.797   8.144   2.481 -0.6525 -1.2944  0.1354
 5614TIP3    H216765   1.857   8.186   2.348 -1.0974  0.5654  0.5051
 5615TIP3   OH216766   4.493   6.349   2.466  0.0137 -0.0002 -0.0665
 5615TIP3    H116767   4.557   6.414   2.439 -0.3092  0.7445  0.9347
 5615TIP3    H216768   4.408   6.392   2.457 -0.2565 -0.5401 -0.1324
 5616TIP3   OH216769   6.487   7.068   1.511 -0.4252 -0.4869  0.3299
 5616TIP3    H116770   6.461   7.135   1.448 -1.4974 -1.6054 -0.4305
 5616TIP3    H216771   6.555   7.110   1.563 -0.2012  0.7793 -0.9459
 5617TIP3   OH216772   0.877   6.916   1.066  0.0277 -0.5891 -0.6458
 5617TIP3    H116773   0.870   6.954   0.978  0.7426  0.0162 -0.4421
 5617TIP3    H216774   0.969   6.890   1.074 -0.1766 -1.2262 -0.3133
 5618TIP3   OH216775   3.115   6.235   0.310 -0.2213 -0.2845 -0.5162
 5618TIP3    H116776   3.144   6.325   0.291 -0.3913 -0.2143 -0.4480
 5618TIP3    H216777   3.087   6.238   0.401  1.0050 -0.7334 -0.1250
 5619TIP3   OH216778   6.353   0.114   2.799 -0.3761  0.1992 -0.4362
 5619TIP3    H116779   6.359   0.159   2.715 -1.3506 -0.7138 -1.0046
 5619TIP3    H216780   6.381   0.180   2.863 -0.9425  1.3369 -1.3336
 5620TIP3   OH216781   4.488   5.380   2.293  0.0582 -0.1910 -0.2292
 5620TIP3    H116782   4.562   5.319   2.294  0.4062  0.2298  0.9598
 5620TIP3    H216783   4.479   5.405   2.201 -0.0783 -2.0076 -0.7441
 5621TIP3   OH216784   6.341   3.450   7.048  0.7890 -0.0775  0.3820
 5621TIP3    H116785   6.420   3.487   7.008 -0.7600  0.3544 -2.4068
 5621TIP3    H216786   6.342   3.358   7.022 -0.5544  0.3483 -1.2773
 5622TIP3   OH216787   0.458   7.587   2.424 -0.4274 -0.2968  0.2495
 5622TIP3    H116788   0.506   7.670   2.424 -0.3012 -0.3705  0.4783
 5622TIP3    H216789   0.404   7.591   2.503 -0.1503 -0.5917  0.4532
 5623TIP3   OH216790   4.157   8.123   2.975  0.5737  0.9220 -0.2708
 5623TIP3    H116791   4.080   8.086   2.930 -1.4676  2.1817  2.0582
 5623TIP3    H216792   4.188   8.191   2.915 -0.5314  0.8479 -0.9631
 5624TIP3   OH216793   3.128   5.978   2.282  0.0721  0.0255 -0.3951
 5624TIP3    H116794   3.094   6.065   2.261  0.3686  0.0948 -0.5996
 5624TIP3    H216795   3.198   5.995   2.346  0.5215 -0.0080 -0.8715
 5625TIP3   OH216796   0.443   8.265   2.071 -0.4795  0.1952  0.0963
 5625TIP3    H116797   0.354   8.258   2.107  0.3845 -1.7269  1.9970
 5625TIP3    H216798   0.496   8.211   2.129  1.6747  0.0601 -1.9314
 5626TIP3   OH216799   1.239   8.016   1.702 -0.2984  0.6333  0.1334
 5626TIP3    H116800   1.276   7.940   1.658 -0.4921  0.4443  0.3006
 5626TIP3    H216801   1.311   8.051   1.754 -0.2472  0.4918  0.1570
 5627TIP3   OH216802   2.762   6.935   3.540  0.0113 -0.1600  0.9048
 5627TIP3    H116803   2.792   7.017   3.577 -2.1942  0.2382  1.8850
 5627TIP3    H216804   2.719   6.890   3.613 -1.1233 -1.0029 -0.2561
 5628TIP3   OH216805   6.186   1.125   3.817  0.1088  0.3938  0.0255
 5628TIP3    H116806   6.119   1.191   3.801 -0.7409 -0.1384  1.3576
 5628TIP3    H216807   6.230   1.114   3.732 -1.4450  0.7832 -0.8364
 5629TIP3   OH216808   2.717   7.704   1.931  0.0991  0.1500  0.4177
 5629TIP3    H116809   2.776   7.640   1.892 -1.4999 -0.3504 -1.2660
 5629TIP3    H216810   2.683   7.661   2.010  1.8640  0.3972  1.3214
 5630TIP3   OH216811   4.979   8.103   2.912  0.0570 -0.1561  0.3070
 5630TIP3    H116812   5.038   8.118   2.838  0.0802  0.0335  0.3637
 5630TIP3    H216813   4.891   8.114   2.876  0.0643 -0.1952  0.2774
 5631TIP3   OH216814   7.546   0.749   2.557 -0.5654  0.2055 -0.5504
 5631TIP3    H116815   7.526   0.690   2.628  2.0188 -0.6995 -0.5122
 5631TIP3    H216816   7.595   0.821   2.598 -0.8216  0.6987 -1.0942
 5632TIP3   OH216817   6.897   2.593   5.395  0.0644 -0.0050  0.2159
 5632TIP3    H116818   6.950   2.561   5.321  0.9120  0.3517  0.6539
 5632TIP3    H216819   6.953   2.581   5.471  0.7586  3.2145  0.2929
 5633TIP3   OH216820   1.242   8.262   1.254  0.2308 -0.3325  0.0760
 5633TIP3    H116821   1.197   8.346   1.265  1.3685  0.1102  1.5576
 5633TIP3    H216822   1.262   8.258   1.160  1.0653  1.5461  0.1316
 5634TIP3   OH216823   4.835   0.743   1.138  0.4605 -0.0944  0.1874
 5634TIP3    H116824   4.906   0.794   1.100  0.2124 -1.2133 -1.8373
 5634TIP3    H216825   4.820   0.783   1.224  1.6418  1.8996 -0.5108
 5635TIP3   OH216826   7.482   2.688   6.704 -0.1391  0.0565  0.0740
 5635TIP3    H116827   7.452   2.776   6.726  0.0344  0.2508 -0.4464
 5635TIP3    H216828   7.538   2.701   6.627 -0.7143 -0.5894 -0.4601
 5636TIP3   OH216829   2.243   6.259   4.938  0.0042 -0.0916 -0.4316
 5636TIP3    H116830   2.148   6.265   4.947  0.1764  0.8011  1.0264
 5636TIP3    H216831   2.257   6.192   4.871 -1.6892  1.0872 -2.0059
 5637TIP3   OH216832   4.089   6.478   1.840 -0.0490  0.0244  0.3231
 5637TIP3    H116833   4.155   6.439   1.782  1.5109  0.1904  1.9695
 5637TIP3    H216834   4.033   6.530   1.781 -0.1521 -1.9962 -1.4117
 5638TIP3   OH216835   3.197   6.601   2.905  0.7404 -0.1452 -0.7687
 5638TIP3    H116836   3.104   6.590   2.928  0.9877 -0.9860 -0.1416
 5638TIP3    H216837   3.231   6.511   2.901  1.2435  0.1035 -2.2134
 5639TIP3   OH216838   5.872   0.276   3.197  0.2375  0.1223 -0.1366
 5639TIP3    H116839   5.793   0.320   3.166  0.1336  0.1119  0.1157
 5639TIP3    H216840   5.881   0.201   3.138 -0.3799 -0.3181  0.3198
 5640TIP3   OH216841   2.082   7.054   2.180 -0.3767  0.1954  0.3250
 5640TIP3    H116842   2.032   7.111   2.239  1.4902  0.3731  1.8043
 5640TIP3    H216843   2.127   7.115   2.121  0.1576  0.1693  0.7030
 5641TIP3   OH216844   6.870   0.032   2.919 -0.0998  0.3107 -0.3497
 5641TIP3    H116845   6.946  -0.019   2.892  0.1642  0.0552  0.8496
 5641TIP3    H216846   6.804   0.014   2.852  0.4315 -0.5567 -0.6438
 5642TIP3   OH216847   3.297   4.977   1.176 -0.4698  0.2114  0.2584
 5642TIP3    H116848   3.353   5.019   1.111  2.4274 -2.3233  0.9757
 5642TIP3    H216849   3.265   4.898   1.133  2.3715 -2.0764  2.1402
 5643TIP3   OH216850   2.213   3.942   1.897  0.1549  0.6660 -0.4163
 5643TIP3    H116851   2.177   3.979   1.817 -0.3294 -1.2669 -1.1208
 5643TIP3    H216852   2.138   3.928   1.954  0.3067  0.5573 -0.2406
 5644TIP3   OH216853   1.916   7.195   2.369  0.3616 -0.2216  0.0407
 5644TIP3    H116854   1.855   7.122   2.376  0.1170 -0.3324 -2.7301
 5644TIP3    H216855   1.863   7.273   2.381  0.4886 -0.4375  2.2065
 5645TIP3   OH216856   4.883   5.580   3.517  0.0879  0.2802 -0.1499
 5645TIP3    H116857   4.895   5.585   3.611  1.7923  0.4128 -0.3740
 5645TIP3    H216858   4.847   5.493   3.502 -1.8963  0.9046  0.7848
 5646TIP3   OH216859   2.309   8.355   0.983 -0.1149  0.2234 -0.3439
 5646TIP3    H116860   2.311   8.394   0.896 -0.5974  0.9183 -0.0521
 5646TIP3    H216861   2.398   8.365   1.016 -0.1752  0.8724 -0.3683
 5647TIP3   OH216862   4.522   1.376   3.153 -0.1511 -0.0639 -0.4536
 5647TIP3    H116863   4.449   1.394   3.095 -0.2525  0.7669 -0.0771
 5647TIP3    H216864   4.600   1.391   3.099 -0.2210  2.0916 -0.0125
 5648TIP3   OH216865   4.253   7.343   2.503 -0.0328 -0.6375  0.2434
 5648TIP3    H116866   4.191   7.327   2.575  0.1292 -0.5521  0.4003
 5648TIP3    H216867   4.197   7.365   2.429 -0.2355 -1.4015  0.1639
 5649TIP3   OH216868   1.909   8.196   3.452 -0.5505  0.0003  0.3371
 5649TIP3    H116869   1.846   8.234   3.513 -0.1752  0.3121  0.5348
 5649TIP3    H216870   1.976   8.156   3.508  0.7509  1.8758  0.1513
 5650TIP3   OH216871   2.924   6.589   3.233 -0.2316  0.0897  0.2678
 5650TIP3    H116872   2.919   6.548   3.146 -0.2163  0.6525 -0.0001
 5650TIP3    H216873   2.835   6.619   3.250 -0.1585  0.2980  0.2876
 5651TIP3   OH216874   3.880   5.674   2.726  0.9934 -0.3113 -0.0843
 5651TIP3    H116875   3.958   5.721   2.755 -0.0123  1.1300  0.3417
 5651TIP3    H216876   3.872   5.695   2.633  2.0352 -1.8145 -0.5362
 5652TIP3   OH216877   1.607   5.109   2.207  0.0103 -0.8084  0.2461
 5652TIP3    H116878   1.542   5.040   2.223 -0.5180 -0.3296  0.2142
 5652TIP3    H216879   1.673   5.096   2.275 -0.1008 -1.3260  0.2566
 5653TIP3   OH216880   5.436   4.681   2.735 -0.1422 -0.2737  0.1273
 5653TIP3    H116881   5.423   4.601   2.684 -0.3137 -0.8888  1.1275
 5653TIP3    H216882   5.464   4.651   2.821  0.6443  0.7782  0.2577
 5654TIP3   OH216883   6.694   0.987   2.177  0.0050  0.0968 -0.1693
 5654TIP3    H116884   6.644   0.975   2.096  0.1661 -0.4814 -0.1837
 5654TIP3    H216885   6.761   1.052   2.153 -0.6231  0.7372 -0.1953
 5655TIP3   OH216886   1.555   7.160   0.011  0.2671  0.0734 -0.5909
 5655TIP3    H116887   1.627   7.166   0.073 -1.4881  1.2829  1.4037
 5655TIP3    H216888   1.550   7.247  -0.029 -0.9153  0.4178  0.2749
 5656TIP3   OH216889   3.325   5.389   1.881 -0.1820  0.4158  0.2393
 5656TIP3    H116890   3.259   5.321   1.876 -1.5020  1.6254  0.7678
 5656TIP3    H216891   3.347   5.394   1.975 -1.5280  2.0292  0.4916
 5657TIP3   OH216892   6.234   0.773   1.113 -0.5844  0.5991  0.2668
 5657TIP3    H116893   6.174   0.809   1.048  1.4532  0.6173 -1.6599
 5657TIP3    H216894   6.200   0.685   1.131 -0.6938  0.2737 -1.4809
 5658TIP3   OH216895   8.046   1.790   1.215 -0.2553 -0.1585  0.5046
 5658TIP3    H116896   7.951   1.798   1.208 -0.1698 -0.4101 -1.2252
 5658TIP3    H216897   8.068   1.832   1.298 -1.8309  0.2674  0.7221
 5659TIP3   OH216898   5.994   0.110   1.236 -0.1745  0.1174 -0.4517
 5659TIP3    H116899   5.900   0.115   1.221 -0.3096 -0.6139  0.1109
 5659TIP3    H216900   6.032   0.101   1.148 -0.4878  2.2340 -0.8201
 5660TIP3   OH216901   0.135   3.514   6.995 -0.0405  0.3415 -0.7463
 5660TIP3    H116902   0.165   3.453   7.062  1.9697  1.3602 -0.6545
 5660TIP3    H216903   0.112   3.460   6.920  0.6549 -0.5968 -0.2846
 5661TIP3   OH216904   1.020   6.006   1.219 -0.3630 -0.0687  0.2002
 5661TIP3    H116905   1.072   6.079   1.186  1.1773 -1.5726 -0.7574
 5661TIP3    H216906   0.954   5.992   1.150 -1.2082  0.9323  0.7774
 5662TIP3   OH216907   3.862   6.693   1.160  0.0836  0.9508 -0.1508
 5662TIP3    H116908   3.862   6.780   1.118  1.3782  0.7198 -0.6435
 5662TIP3    H216909   3.875   6.632   1.088 -2.3813  0.2012 -0.0203
 5663TIP3   OH216910   6.606   1.050   0.594  0.0686  0.5334  0.3887
 5663TIP3    H116911   6.665   1.044   0.519  0.7101  0.4685  0.8956
 5663TIP3    H216912   6.569   1.138   0.589  1.5727  1.2229  1.0851
 5664TIP3   OH216913   5.871   7.075   0.955  0.4847  0.2256 -0.1952
 5664TIP3    H116914   5.835   7.159   0.983  0.8043 -0.4997  2.5271
 5664TIP3    H216915   5.803   7.012   0.977  0.8655 -0.4037 -0.8256
 5665TIP3   OH216916   2.399   5.882   5.407  0.5786 -0.1436  0.1299
 5665TIP3    H116917   2.328   5.842   5.356 -0.3917  1.3812  0.2686
 5665TIP3    H216918   2.386   5.976   5.397  1.3404  0.1645  1.8722
 5666TIP3   OH216919   4.357   6.873   1.824 -0.1051 -0.2370 -0.1646
 5666TIP3    H116920   4.284   6.818   1.792 -1.2771  1.5896 -0.6938
 5666TIP3    H216921   4.403   6.817   1.886 -1.2791 -1.8328 -0.6800
 5667TIP3   OH216922   1.710   5.896   2.269  0.1136  0.9408  0.0082
 5667TIP3    H116923   1.618   5.884   2.295  0.1751 -0.4278 -0.4058
 5667TIP3    H216924   1.753   5.814   2.292  0.4939  0.2324 -3.0259
 5668TIP3   OH216925   1.578   7.413   1.003 -0.3397  0.2558  0.1107
 5668TIP3    H116926   1.540   7.418   1.091  1.4326 -1.7366  1.0315
 5668TIP3    H216927   1.608   7.502   0.985 -0.2962  0.5871  1.7345
 5669TIP3   OH216928   3.411   5.343   2.141 -0.1942 -0.5259 -0.3408
 5669TIP3    H116929   3.480   5.282   2.166  0.4715  0.3323 -0.0454
 5669TIP3    H216930   3.385   5.384   2.224 -2.4454 -2.2575 -0.1492
 5670TIP3   OH216931   5.814   7.710   6.372 -0.0334  0.3255  0.4349
 5670TIP3    H116932   5.900   7.696   6.333 -0.5257 -1.5886  0.0015
 5670TIP3    H216933   5.753   7.701   6.298 -0.6740  0.9287  0.8788
 5671TIP3   OH216934   3.913   6.475   0.998  0.2812  0.3638  0.2517
 5671TIP3    H116935   3.842   6.525   0.957 -0.1112  1.2154  1.9073
 5671TIP3    H216936   3.884   6.384   0.991 -0.8974  0.6874  0.7334
 5672TIP3   OH216937   3.293   7.102   2.414 -0.1216  0.3532  0.3393
 5672TIP3    H116938   3.299   7.117   2.319 -1.4484  0.7404  0.3105
 5672TIP3    H216939   3.345   7.023   2.429  1.4950  1.2504 -0.4643
 5673TIP3   OH216940   5.488   6.449   1.116  0.3636 -0.3826  0.7707
 5673TIP3    H116941   5.459   6.430   1.027 -1.0026 -0.0917  1.1480
 5673TIP3    H216942   5.468   6.369   1.165  2.5487 -1.1276  0.4955
 5674TIP3   OH216943   1.325   5.491   3.503  0.4762  0.5127  0.3382
 5674TIP3    H116944   1.385   5.487   3.428 -1.4495  0.0048 -1.2074
 5674TIP3    H216945   1.362   5.559   3.560  2.9778 -0.3686 -0.1576
 5675TIP3   OH216946   0.838   3.247   7.262 -0.2123  0.0276 -0.3275
 5675TIP3    H116947   0.919   3.206   7.231 -0.1835  0.0126 -0.2301
 5675TIP3    H216948   0.769   3.186   7.234  0.0463 -1.5703  2.3803
 5676TIP3   OH216949   5.793   0.305   3.572 -0.8553 -0.0476 -0.0171
 5676TIP3    H116950   5.755   0.276   3.655 -1.3951  1.4630  0.2808
 5676TIP3    H216951   5.756   0.392   3.558  1.9754  1.1791 -0.0736
 5677TIP3   OH216952   3.641   5.537   2.704  0.2847 -0.0922 -0.4920
 5677TIP3    H116953   3.732   5.545   2.732  0.2128  0.2412 -0.3559
 5677TIP3    H216954   3.621   5.621   2.664 -0.1164  0.0091 -0.0809
 5678TIP3   OH216955   3.033   7.403   3.069 -0.2321  0.3074 -0.6489
 5678TIP3    H116956   3.002   7.332   3.124 -1.7282  0.1830 -1.6290
 5678TIP3    H216957   3.013   7.483   3.118 -1.0454  0.1724 -0.7520
 5679TIP3   OH216958   4.156   6.877   2.132 -0.1869  0.3633 -0.1981
 5679TIP3    H116959   4.061   6.869   2.139 -0.0970 -1.0352 -0.4662
 5679TIP3    H216960   4.188   6.842   2.215  0.1758 -1.1044 -0.9423
 5680TIP3   OH216961   2.056   6.364   0.652 -0.4911  0.1051 -0.2118
 5680TIP3    H116962   2.047   6.327   0.564 -0.0586 -3.5332  1.1873
 5680TIP3    H216963   1.967   6.387   0.678 -0.5354  1.9546 -1.8519
 5681TIP3   OH216964   2.110   5.629   2.356  0.5092 -0.0278  0.2082
 5681TIP3    H116965   2.146   5.578   2.283 -1.8188  1.4771 -2.0629
 5681TIP3    H216966   2.069   5.705   2.314 -1.5974  0.4678  3.0347
 5682TIP3   OH216967   7.208   0.618   0.078 -0.3877 -0.0822 -0.4492
 5682TIP3    H116968   7.239   0.537   0.039 -0.7533  0.4695 -1.9151
 5682TIP3    H216969   7.288   0.670   0.092 -0.0901 -0.9229  1.0647
 5683TIP3   OH216970   1.445   7.536   1.726  0.2953 -0.0767 -0.0381
 5683TIP3    H116971   1.423   7.469   1.791 -0.8478  1.0080  0.7300
 5683TIP3    H216972   1.362   7.583   1.713  0.7328  0.2579 -1.6487
 5684TIP3   OH216973   3.236   6.695   2.422 -0.0770 -0.2120  0.1193
 5684TIP3    H116974   3.225   6.678   2.515 -2.2863 -2.6341 -0.5208
 5684TIP3    H216975   3.150   6.725   2.392  0.4762  0.0967 -1.2288
 5685TIP3   OH216976   1.232   7.601   2.020  0.1776  0.3119  0.7360
 5685TIP3    H116977   1.183   7.683   2.026  0.8041  0.8046 -0.5415
 5685TIP3    H216978   1.246   7.574   2.111  2.5223  3.2015  1.3136
 5686TIP3   OH216979   5.204   0.867   2.730 -0.1955 -0.5190  0.1795
 5686TIP3    H116980   5.166   0.811   2.663  1.3426 -1.1646 -0.1813
 5686TIP3    H216981   5.206   0.954   2.692  1.9917 -1.1359 -1.1948
 5687TIP3   OH216982   3.119   6.633   1.979 -0.5041  0.8117  0.0411
 5687TIP3    H116983   3.071   6.626   1.896 -0.6120 -0.9827  0.2533
 5687TIP3    H216984   3.078   6.570   2.037  4.2076 -3.3454 -0.8075
 5688TIP3   OH216985   7.641   1.513   0.473  0.2984  0.2288 -0.4949
 5688TIP3    H116986   7.610   1.425   0.495 -0.9401  1.1341  1.5463
 5688TIP3    H216987   7.626   1.520   0.379  0.1072 -1.6256 -0.6287
 5689TIP3   OH216988   0.669   8.249   2.834  0.5648  0.4747  0.1963
 5689TIP3    H116989   0.708   8.336   2.822  1.8567 -0.1824 -0.4484
 5689TIP3    H216990   0.711   8.214   2.912 -1.3613  1.1766  1.5935
 5690TIP3   OH216991   3.223   6.593   1.445 -0.2758  0.8026  0.2292
 5690TIP3    H116992   3.262   6.666   1.397  0.7336  0.9009  1.1876
 5690TIP3    H216993   3.263   6.597   1.532  1.5299 -2.3088 -0.4235
 5691TIP3   OH216994   8.026   3.878   6.349  0.3648  0.5100  0.6222
 5691TIP3    H116995   8.094   3.871   6.282 -0.0335 -1.6484  0.4132
 5691TIP3    H216996   7.945   3.885   6.299  0.0383 -1.4252  0.8535
 5692TIP3   OH216997   4.723   7.347   2.638 -0.0858  0.4320 -0.0778
 5692TIP3    H116998   4.795   7.404   2.666 -0.7362  0.9840  0.4821
 5692TIP3    H216999   4.645   7.400   2.649 -0.4774  0.2502 -1.8452
 5693TIP3   OH217000   1.382   8.134   0.338 -0.3177 -0.1582 -0.3118
 5693TIP3    H117001   1.296   8.177   0.338 -1.7457 -2.8973  0.5449
 5693TIP3    H217002   1.376   8.068   0.270  0.3313 -1.8039  1.1931
 5694TIP3   OH217003   4.612   7.049   1.160  0.0791  0.8420 -0.9394
 5694TIP3    H117004   4.684   6.987   1.148 -0.1997  0.0721  1.1464
 5694TIP3    H217005   4.642   7.129   1.116  2.5481  0.7808  0.5004
 5695TIP3   OH217006   2.813   5.013   1.770 -0.0326 -0.2144  0.4022
 5695TIP3    H117007   2.780   4.927   1.743 -1.7062  0.4857  0.1329
 5695TIP3    H217008   2.824   5.006   1.864 -0.2413 -0.7055  0.3928
 5696TIP3   OH217009   3.183   6.305   0.790  0.4048  0.1857 -0.5648
 5696TIP3    H117010   3.162   6.347   0.874 -0.7379  0.8364 -1.1572
 5696TIP3    H217011   3.269   6.341   0.767  0.7694 -0.0645  0.3650
 5697TIP3   OH217012   2.174   6.431   3.072  0.7614  0.2878 -0.2952
 5697TIP3    H117013   2.240   6.409   3.138  1.2863  1.6463 -0.3487
 5697TIP3    H217014   2.125   6.503   3.110 -0.4234 -0.4276 -0.4492
 5698TIP3   OH217015   4.634   4.727   1.847  0.5904 -0.0651  0.5269
 5698TIP3    H117016   4.580   4.688   1.778 -0.7086 -2.5023  2.8473
 5698TIP3    H217017   4.717   4.679   1.842  0.6416  0.0312  0.4278
 5699TIP3   OH217018   2.866   7.334   2.012  0.1688 -0.2373 -0.1967
 5699TIP3    H117019   2.903   7.372   2.092 -0.7985  0.6042 -0.1350
 5699TIP3    H217020   2.871   7.405   1.948 -1.6407  0.0193 -0.0823
 5700TIP3   OH217021   8.393   1.626   6.874 -0.0812  0.1526  0.0626
 5700TIP3    H117022   8.408   1.627   6.780 -0.5749 -0.0615 -0.0203
 5700TIP3    H217023   8.366   1.715   6.896  0.4141  0.3003  0.0622
 5701TIP3   OH217024   2.540   5.134   1.261  0.7389  1.0505  0.2904
 5701TIP3    H117025   2.557   5.135   1.167  0.8966  0.0455  0.3016
 5701TIP3    H217026   2.605   5.194   1.298  3.0490 -1.2664  0.1181
 5702TIP3   OH217027   4.311   7.113   1.981  0.2417  1.0103  0.2546
 5702TIP3    H117028   4.324   7.032   1.933 -2.1765  0.9505 -0.3784
 5702TIP3    H217029   4.271   7.086   2.064 -1.2361  1.5615 -0.2506
 5703TIP3   OH217030   0.356   2.963   6.948  0.0461 -0.3030 -0.4192
 5703TIP3    H117031   0.263   2.944   6.942 -0.0955  0.0006  0.6546
 5703TIP3    H217032   0.383   2.926   7.031  0.8923 -0.4056 -0.7353
 5704TIP3   OH217033   2.658   5.594   1.339 -0.1135 -0.1999 -0.4430
 5704TIP3    H117034   2.711   5.659   1.384  0.5628 -0.7882 -0.3861
 5704TIP3    H217035   2.648   5.523   1.402 -1.0494 -0.0548 -0.4208
 5705TIP3   OH217036   3.185   6.708   3.268  0.3960 -0.6456  0.5180
 5705TIP3    H117037   3.150   6.796   3.283  2.3790  0.6648 -2.0695
 5705TIP3    H217038   3.108   6.655   3.247 -0.6602  0.8384  0.5784
 5706TIP3   OH217039   3.455   6.110   4.172  0.6992  0.6927 -0.0158
 5706TIP3    H117040   3.465   6.056   4.251 -0.0682  2.0000  0.9877
 5706TIP3    H217041   3.545   6.120   4.139  0.7506 -2.1758 -0.9256
 5707TIP3   OH217042   4.758   0.101   1.941 -0.3714 -0.6820 -0.4009
 5707TIP3    H117043   4.773   0.068   2.030 -3.8071  0.8044  0.8073
 5707TIP3    H217044   4.727   0.025   1.892 -1.3984 -0.8455  0.4856
 5708TIP3   OH217045   4.099   6.415   3.558  0.5942  0.3802  0.1559
 5708TIP3    H117046   4.022   6.448   3.511  1.3651  0.6507 -0.9395
 5708TIP3    H217047   4.068   6.336   3.602 -0.3476  0.5634 -0.1680
 5709TIP3   OH217048   7.402   1.342   2.582  0.1087 -0.9121  0.2702
 5709TIP3    H117049   7.442   1.371   2.500  1.0261  0.2571  1.1095
 5709TIP3    H217050   7.309   1.331   2.561  0.6833 -2.6747 -1.4556
 5710TIP3   OH217051   4.794   4.631   0.985 -0.4662  0.3284 -0.1084
 5710TIP3    H117052   4.795   4.630   0.889  3.9337 -3.2990 -0.1768
 5710TIP3    H217053   4.861   4.695   1.009 -1.0888  0.7351  0.5502
 5711TIP3   OH217054   4.583   6.986   1.722  0.1485 -0.1933  0.4544
 5711TIP3    H117055   4.504   6.936   1.740  1.3725 -2.3616 -0.0135
 5711TIP3    H217056   4.620   6.946   1.643  1.4914  1.0419  0.4183
 5712TIP3   OH217057   8.165   3.204   6.908  0.3399  0.2617 -0.1325
 5712TIP3    H117058   8.142   3.239   6.994 -0.0818 -1.6565  0.5849
 5712TIP3    H217059   8.260   3.192   6.911  0.5834  1.9664 -0.6462
 5713TIP3   OH217060   5.070   7.027   2.758  1.0650  0.2125  0.3519
 5713TIP3    H117061   5.111   7.110   2.734 -0.3461  0.4054 -1.5152
 5713TIP3    H217062   5.142   6.965   2.761  1.6634  0.7437 -1.9766
 5714TIP3   OH217063   6.780   1.360   2.771 -0.1857 -0.4069  0.4585
 5714TIP3    H117064   6.748   1.276   2.803 -1.8270  0.2983  0.7469
 5714TIP3    H217065   6.873   1.361   2.793 -0.3423 -1.7927  1.2011
 5715TIP3   OH217066   2.892   5.250   1.456 -0.3925 -0.4250  0.2179
 5715TIP3    H117067   2.954   5.220   1.390 -2.1928 -1.3192 -1.1117
 5715TIP3    H217068   2.837   5.313   1.411 -0.2761  0.5857  1.4670
 5716TIP3   OH217069   3.328   6.356   4.134  0.3335 -0.3608 -0.6810
 5716TIP3    H117070   3.333   6.363   4.229 -0.4084  0.8194 -0.7119
 5716TIP3    H217071   3.380   6.279   4.112  0.9253 -0.3412  0.6351
 5717TIP3   OH217072   7.673   0.036   1.199  0.1259 -0.6102  0.1781
 5717TIP3    H117073   7.743  -0.027   1.186 -0.6337 -1.3780 -0.2150
 5717TIP3    H217074   7.700   0.112   1.147  0.6312 -0.9237 -0.0268
 5718TIP3   OH217075   4.029   7.720   1.693  0.0085  0.6688 -0.4060
 5718TIP3    H117076   4.087   7.794   1.714 -1.0063  1.7098 -1.2405
 5718TIP3    H217077   3.941   7.753   1.710 -0.3599 -0.9216  0.8683
 5719TIP3   OH217078   4.046   7.854   0.428 -0.0966 -0.4409  0.2010
 5719TIP3    H117079   4.103   7.918   0.471  0.5023 -0.7928 -0.0498
 5719TIP3    H217080   3.963   7.898   0.417 -0.0245 -0.0961  1.0541
 5720TIP3   OH217081   7.812   6.762   1.252  0.6707  0.5179 -0.0764
 5720TIP3    H117082   7.733   6.785   1.301  1.1433 -0.8730  1.4058
 5720TIP3    H217083   7.781   6.739   1.165 -0.2972  2.2215 -0.1957
 5721TIP3   OH217084   4.399   7.468   2.951  0.5557  0.0259 -0.0816
 5721TIP3    H117085   4.320   7.417   2.966  2.4031 -2.4282  1.6814
 5721TIP3    H217086   4.447   7.419   2.885  1.2713  0.7247 -0.0909
 5722TIP3   OH217087   2.729   1.878   6.845  0.2380 -0.2887  0.2693
 5722TIP3    H117088   2.717   1.972   6.856  0.4867  0.1148 -2.5933
 5722TIP3    H217089   2.642   1.844   6.825  0.4400 -0.4001 -0.4372
 5723TIP3   OH217090   6.530   0.878   2.913 -0.0513  0.1373  0.1533
 5723TIP3    H117091   6.483   0.797   2.933 -0.7385  0.2533 -0.9262
 5723TIP3    H217092   6.581   0.856   2.835 -0.5427  0.8445 -0.3748
 5724TIP3   OH217093   3.234   6.262   1.920 -0.1429 -0.5130  0.0692
 5724TIP3    H117094   3.140   6.249   1.930  0.0425 -1.7300  0.2351
 5724TIP3    H217095   3.245   6.289   1.829 -0.6547 -0.2708  0.0756
 5725TIP3   OH217096   6.503   7.270   0.579 -0.1211  0.9491  0.0303
 5725TIP3    H117097   6.407   7.272   0.586 -0.0610  0.2689  1.0892
 5725TIP3    H217098   6.533   7.333   0.644  0.1844  0.4531  0.3723
 5726TIP3   OH217099   4.981   6.875   0.856  0.3442 -0.0974 -0.6610
 5726TIP3    H117100   5.072   6.875   0.885  0.2254 -0.3047 -0.2910
 5726TIP3    H217101   4.986   6.895   0.762  0.6171  2.5410 -0.1401
 5727TIP3   OH217102   2.445   4.417   6.010 -0.0922 -0.3876 -0.2038
 5727TIP3    H117103   2.493   4.442   5.931  0.9718  0.4054  0.6732
 5727TIP3    H217104   2.514   4.390   6.071 -0.9703 -1.8343  0.1582
 5728TIP3   OH217105   4.619   7.441   2.012  0.0568 -0.4185  0.6656
 5728TIP3    H117106   4.636   7.392   2.093  1.9369 -0.7452  0.0807
 5728TIP3    H217107   4.594   7.374   1.948  1.1427 -0.4721  0.2811
 5729TIP3   OH217108   5.386   7.972   3.196  0.5321  0.0070 -0.2457
 5729TIP3    H117109   5.468   7.985   3.148  1.1597  1.7581  1.2321
 5729TIP3    H217110   5.320   8.018   3.144  0.6207 -0.8151 -1.0809
 5730TIP3   OH217111   2.490   7.474   0.294  0.3308 -0.5266  0.1056
 5730TIP3    H117112   2.549   7.475   0.219  0.3283  1.3841  0.0952
 5730TIP3    H217113   2.403   7.487   0.256  0.1744 -0.9720  0.3129
 5731TIP3   OH217114   5.844   0.954   2.134 -0.2056  0.2953  0.1251
 5731TIP3    H117115   5.798   0.926   2.213 -1.4829 -1.9624 -1.3488
 5731TIP3    H217116   5.797   0.910   2.062  3.1351 -0.6686 -1.5983
 5732TIP3   OH217117   0.840   3.921   6.862 -0.3801  0.5239 -0.3658
 5732TIP3    H117118   0.766   3.982   6.868 -2.4081 -2.0002  1.2661
 5732TIP3    H217119   0.844   3.880   6.949  1.9754 -0.5189 -0.9269
 5733TIP3   OH217120   0.412   1.849   2.670  0.5664  0.0719  0.3544
 5733TIP3    H117121   0.434   1.793   2.744  2.7121  1.0810  0.5145
 5733TIP3    H217122   0.453   1.806   2.594 -0.3923 -0.1795 -0.0386
 5734TIP3   OH217123   4.770   5.720   1.259 -0.8105 -0.1134  0.3467
 5734TIP3    H117124   4.701   5.785   1.275  0.4530  1.6394 -1.0105
 5734TIP3    H217125   4.824   5.760   1.191  0.9901 -1.8800  0.6985
 5735TIP3   OH217126   5.127   5.943   0.668 -0.9864  0.5302 -0.0172
 5735TIP3    H117127   5.195   5.998   0.630 -1.8288  1.2325 -0.5277
 5735TIP3    H217128   5.150   5.938   0.761 -0.3285  0.8870 -0.1573
 5736TIP3   OH217129   7.940   2.092   2.000 -0.8273 -0.3800 -0.3401
 5736TIP3    H117130   8.000   2.024   1.970  2.8514  2.5133  0.2477
 5736TIP3    H217131   7.947   2.091   2.095 -2.0848 -0.3285 -0.2367
 5737TIP3   OH217132   0.824   2.021   2.579 -0.4905  0.1316  0.0470
 5737TIP3    H117133   0.818   1.972   2.661  1.4868  1.8931  1.2833
 5737TIP3    H217134   0.915   2.011   2.552 -1.2984 -1.0560 -2.3633
 5738TIP3   OH217135   8.895   0.638   1.932 -0.0367 -0.6447 -0.1198
 5738TIP3    H117136   8.828   0.573   1.954  1.8738 -2.9398 -0.8413
 5738TIP3    H217137   8.894   0.641   1.836 -0.7870  1.1735 -0.0808
 5739TIP3   OH217138   7.922   1.043   0.855 -0.2194  0.2727 -0.1523
 5739TIP3    H117139   7.916   1.097   0.777  0.1170  0.9568  0.2934
 5739TIP3    H217140   7.979   0.970   0.830 -0.4228  0.2874 -0.6554
 5740TIP3   OH217141   3.250   6.820   0.495  0.4952 -0.0326  0.3141
 5740TIP3    H117142   3.310   6.863   0.556  0.5770  1.3698 -0.7240
 5740TIP3    H217143   3.296   6.822   0.411  0.1501 -1.4531  0.0786
 5741TIP3   OH217144   6.698   0.929   1.846 -0.5943  0.2793  0.4902
 5741TIP3    H117145   6.666   1.006   1.893  0.9698  0.4866  1.2427
 5741TIP3    H217146   6.787   0.953   1.819 -0.5989 -0.7565 -0.4613
 5742TIP3   OH217147   4.895   8.272   0.173  0.3568  0.4843  0.5110
 5742TIP3    H117148   4.867   8.238   0.258 -1.2089  0.4695 -0.0111
 5742TIP3    H217149   4.817   8.271   0.119  1.4091  0.2393 -1.0340
 5743TIP3   OH217150   0.435   0.757   1.563  0.0808  0.7642  0.2151
 5743TIP3    H117151   0.438   0.757   1.468  2.3353  1.0731  0.2588
 5743TIP3    H217152   0.526   0.746   1.590 -0.5076  0.8386  2.3309
 5744TIP3   OH217153   3.040   8.021   1.501  0.0168  0.5971 -0.2101
 5744TIP3    H117154   3.102   8.054   1.566  0.4428  0.1956 -0.4071
 5744TIP3    H217155   3.045   8.083   1.429 -2.5574  2.6478  1.2889
 5745TIP3   OH217156   4.596   8.082   4.946  0.2458  0.4793 -0.0584
 5745TIP3    H117157   4.681   8.044   4.923  1.7992  2.5107  2.0944
 5745TIP3    H217158   4.562   8.024   5.014  1.1370  1.0796  0.9232
 5746TIP3   OH217159   4.182   5.979   1.222 -0.1690 -0.4179  0.3291
 5746TIP3    H117160   4.232   6.012   1.147 -0.2515 -2.0315 -0.4720
 5746TIP3    H217161   4.101   6.030   1.221 -0.6372 -1.1582 -1.3597
 5747TIP3   OH217162   6.786   0.609   2.539 -0.4469  0.5139  0.3981
 5747TIP3    H117163   6.725   0.540   2.514  0.1730  0.4789 -1.0715
 5747TIP3    H217164   6.803   0.657   2.459  0.7650  1.0688  0.9650
 5748TIP3   OH217165   1.986   2.440   2.699  0.4902 -0.0954 -0.0371
 5748TIP3    H117166   2.060   2.389   2.733  0.6167 -1.3735 -2.1620
 5748TIP3    H217167   1.910   2.405   2.744  0.9746  0.1926  1.0335
 5749TIP3   OH217168   4.667   8.213   0.046  0.0543 -0.1735  0.3232
 5749TIP3    H117169   4.666   8.122   0.016 -0.0167 -0.3001  0.7133
 5749TIP3    H217170   4.575   8.234   0.063  0.2528 -0.6419  2.0885
 5750TIP3   OH217171   3.903   6.869   0.934 -0.8883 -0.0705 -0.1042
 5750TIP3    H117172   3.919   6.815   0.857 -0.5776 -0.1515  0.0158
 5750TIP3    H217173   3.981   6.923   0.943 -0.8408 -0.1943  0.2619
 5751TIP3   OH217174   7.804   8.323   1.884 -0.4131 -0.2599  0.3369
 5751TIP3    H117175   7.733   8.259   1.891  0.7110 -1.4216  1.2748
 5751TIP3    H217176   7.785   8.388   1.951 -0.8962 -0.2686  0.2109
 5752TIP3   OH217177   3.793   8.170   2.732 -0.1504  0.2151 -0.2095
 5752TIP3    H117178   3.744   8.098   2.771 -1.2629  1.1797  0.2048
 5752TIP3    H217179   3.858   8.194   2.799 -0.2670  0.0781 -0.0462
 5753TIP3   OH217180   0.676   1.807   6.043  0.4720  0.6479 -0.0136
 5753TIP3    H117181   0.651   1.715   6.041 -0.8909  1.0259 -1.2881
 5753TIP3    H217182   0.769   1.808   6.018  0.9653 -0.5015  1.6703
 5754TIP3   OH217183   1.931   7.890   0.680  0.9842  0.0269  0.3920
 5754TIP3    H117184   1.925   7.971   0.629  0.7546 -0.2937 -0.1050
 5754TIP3    H217185   1.934   7.918   0.771  0.5026  0.5764  0.2379
 5755TIP3   OH217186   5.454   0.602   2.329 -0.0249  0.3485  0.3042
 5755TIP3    H117187   5.465   0.517   2.287 -0.1886  0.9127 -0.9087
 5755TIP3    H217188   5.505   0.596   2.409 -0.3438 -1.0239  0.4197
 5756TIP3   OH217189   6.800   2.274   1.628  0.2866 -0.5271  0.1407
 5756TIP3    H117190   6.769   2.365   1.630 -2.1149 -1.3355  2.1638
 5756TIP3    H217191   6.753   2.234   1.555  1.0963 -0.2617 -0.5407
 5757TIP3   OH217192   1.676   1.724   3.185  0.2116  0.0251 -0.1928
 5757TIP3    H117193   1.745   1.691   3.243 -1.0466  0.1976  1.4329
 5757TIP3    H217194   1.621   1.648   3.168 -0.3916  0.3575  0.2522
 5758TIP3   OH217195   8.164   1.996   2.227  0.6072  1.2655  0.0666
 5758TIP3    H117196   8.221   2.006   2.303  1.2709 -0.3336 -0.1955
 5758TIP3    H217197   8.224   1.980   2.154 -0.0901  1.4464 -0.5477
 5759TIP3   OH217198   6.036   0.191   2.296  0.2916 -0.2579 -0.0324
 5759TIP3    H117199   6.094   0.248   2.245 -0.2268  0.3978  0.1087
 5759TIP3    H217200   5.994   0.249   2.359  1.6183 -1.1907  1.7983
 5760TIP3   OH217201   5.137   8.317   4.139  0.0034  0.4236  0.1496
 5760TIP3    H117202   5.065   8.361   4.095 -2.0996 -1.9618  1.0755
 5760TIP3    H217203   5.105   8.301   4.228  1.1825 -1.8153  0.2050
 5761TIP3   OH217204   5.765   0.046   0.668 -0.1416 -0.5739  0.0856
 5761TIP3    H117205   5.724  -0.039   0.654 -0.9576 -0.0818 -0.5881
 5761TIP3    H217206   5.859   0.028   0.674 -0.3854 -1.6174  0.8188
 5762TIP3   OH217207   5.361   7.212   2.165  0.1763  0.0511 -0.8615
 5762TIP3    H117208   5.315   7.129   2.179 -0.4215  0.4313 -0.5222
 5762TIP3    H217209   5.390   7.239   2.253  1.5836 -0.4893 -1.1573
 5763TIP3   OH217210   0.303   6.778   3.607  0.1199  0.1590  0.7865
 5763TIP3    H117211   0.239   6.753   3.673  0.2856 -1.8720  0.2027
 5763TIP3    H217212   0.251   6.821   3.538 -0.3621  0.0993  1.1097
 5764TIP3   OH217213   7.917   1.049   2.503  0.5190  0.0269  0.6446
 5764TIP3    H117214   7.870   1.115   2.554 -0.4335  0.9046 -1.3336
 5764TIP3    H217215   7.985   1.098   2.457  0.7213 -0.5958  0.2702
 5765TIP3   OH217216   2.830   0.958   7.214  0.3213  0.0304 -0.3816
 5765TIP3    H117217   2.793   0.901   7.147  0.5104 -0.2266 -0.2662
 5765TIP3    H217218   2.758   0.972   7.276  1.3407 -3.1184  1.5945
 5766TIP3   OH217219   3.561   5.926   2.087 -0.2553  0.2349  0.1205
 5766TIP3    H117220   3.515   5.961   2.010 -1.1567 -0.1770  0.4653
 5766TIP3    H217221   3.491   5.905   2.149  0.2990 -1.6325  0.1329
 5767TIP3   OH217222   4.534   8.011   0.580  0.1358 -0.5625  0.1112
 5767TIP3    H117223   4.605   8.054   0.626 -0.4890 -0.3842  0.9160
 5767TIP3    H217224   4.550   7.917   0.591  1.4160 -0.5494 -1.5150
 5768TIP3   OH217225   5.238   6.380   2.747  0.1797  0.2178 -0.1252
 5768TIP3    H117226   5.272   6.292   2.760 -0.3116  0.3045  2.0746
 5768TIP3    H217227   5.143   6.367   2.736  0.2721  0.3710 -1.1258
 5769TIP3   OH217228   4.058   6.813   1.590  0.6827 -0.8752 -0.4805
 5769TIP3    H117229   3.963   6.821   1.581  0.8763  0.5426 -1.3907
 5769TIP3    H217230   4.075   6.820   1.684 -0.0044  0.2362 -0.4310
 5770TIP3   OH217231   4.132   3.889   2.256 -0.4074  0.2102 -0.1291
 5770TIP3    H117232   4.167   3.878   2.345 -0.3395  0.8655 -0.0742
 5770TIP3    H217233   4.114   3.800   2.226  1.0716 -0.1171 -0.0579
 5771TIP3   OH217234   7.897   2.092   2.282  0.3600 -0.6112 -0.5033
 5771TIP3    H117235   7.893   2.177   2.327 -0.1962  0.5571 -2.6805
 5771TIP3    H217236   7.983   2.057   2.304  0.7854  0.7521  0.0272
 5772TIP3   OH217237   8.141   1.092   1.161 -0.1453 -0.2642  0.3932
 5772TIP3    H117238   8.170   1.028   1.228 -0.2474  0.1850  0.8715
 5772TIP3    H217239   8.186   1.173   1.185  1.3534 -0.5890 -1.2297
 5773TIP3   OH217240   7.577   0.497   6.948 -0.0921  0.0274 -0.3350
 5773TIP3    H117241   7.495   0.513   6.994 -0.1943 -1.8761  0.1721
 5773TIP3    H217242   7.633   0.571   6.973 -1.0734  0.4401  0.6641
 5774TIP3   OH217243   2.819   6.217   3.629  0.0982 -0.7500 -0.3611
 5774TIP3    H117244   2.743   6.167   3.659 -0.0531  1.0072  2.3588
 5774TIP3    H217245   2.889   6.152   3.622 -0.5514 -1.6781  1.3216
 5775TIP3   OH217246   5.486   6.341   1.678  0.2277 -0.3652 -0.5478
 5775TIP3    H117247   5.572   6.365   1.712  0.7630 -1.6030 -1.0176
 5775TIP3    H217248   5.442   6.298   1.751  0.0556  0.1193 -0.3597
 5776TIP3   OH217249   2.555   3.779   6.974 -0.5572  0.2558 -0.1034
 5776TIP3    H117250   2.567   3.701   7.028 -0.6077 -0.7685 -1.5724
 5776TIP3    H217251   2.555   3.851   7.037 -0.3960 -0.9080  1.2506
 5777TIP3   OH217252   5.718   0.265   0.815 -0.4850 -0.6184 -0.0798
 5777TIP3    H117253   5.744   0.237   0.902  1.7631 -0.4103 -0.6555
 5777TIP3    H217254   5.741   0.192   0.758 -0.0333  0.0660 -0.7793
 5778TIP3   OH217255   5.972   7.457   1.781  0.0706 -0.7619  0.1250
 5778TIP3    H117256   5.928   7.516   1.720  0.5036  0.6717  1.1661
 5778TIP3    H217257   5.929   7.372   1.768 -0.2736 -0.3179 -1.6887
 5779TIP3   OH217258   4.785   7.081   1.569 -0.1860 -0.4850 -0.4034
 5779TIP3    H117259   4.876   7.054   1.582  0.1184  0.8850  0.3645
 5779TIP3    H217260   4.745   7.074   1.656 -0.1267  1.3952 -0.1991
 5780TIP3   OH217261   6.480   0.933   1.029  0.0202 -0.5183  0.6292
 5780TIP3    H117262   6.532   0.982   1.093  1.5144 -1.5082  0.1934
 5780TIP3    H217263   6.477   0.844   1.063 -2.7063 -0.1661  1.4289
 5781TIP3   OH217264   4.622   0.596   0.515  0.0838  0.0528  0.3404
 5781TIP3    H117265   4.625   0.536   0.440  0.3804  1.7542 -1.0193
 5781TIP3    H217266   4.667   0.548   0.585 -0.0993 -1.5088 -0.5791
 5782TIP3   OH217267   8.641   1.730   2.302  0.5511  0.5601 -0.1968
 5782TIP3    H117268   8.694   1.739   2.381  0.2316  1.4266 -0.0697
 5782TIP3    H217269   8.588   1.652   2.317  2.4480 -0.8575 -0.7279
 5783TIP3   OH217270   4.108   6.601   2.086 -0.1948 -0.0393 -0.3641
 5783TIP3    H117271   4.110   6.599   1.990  0.8525  1.3845 -0.3951
 5783TIP3    H217272   4.195   6.634   2.111 -1.0101  1.1389  1.0148
 5784TIP3   OH217273   7.212   1.230   2.967  0.2518  0.1686  0.2121
 5784TIP3    H117274   7.184   1.295   2.903  0.1757 -0.0325  0.0380
 5784TIP3    H217275   7.221   1.279   3.049 -2.2529 -0.0538  0.6733
 5785TIP3   OH217276   6.758   8.252   1.289 -0.1580 -0.0340  0.1047
 5785TIP3    H117277   6.851   8.271   1.274 -0.7350  1.2134 -2.1682
 5785TIP3    H217278   6.758   8.174   1.344  2.2456  0.7532  1.3093
 5786TIP3   OH217279   6.900   0.887   0.606  0.2619  0.4703 -0.3265
 5786TIP3    H117280   6.873   0.796   0.616  1.6419  0.0791 -0.0129
 5786TIP3    H217281   6.866   0.931   0.684 -1.5000  0.4941 -1.1020
 5787TIP3   OH217282   4.567   6.767   1.029 -0.2311  0.0438 -0.2620
 5787TIP3    H117283   4.635   6.706   1.060  0.3732  1.2623  0.8666
 5787TIP3    H217284   4.488   6.741   1.076 -0.0108  0.0272  0.1009
 5788TIP3   OH217285   3.924   5.796   2.483  0.9365 -0.1818  0.2614
 5788TIP3    H117286   3.879   5.813   2.400 -0.5167  2.3599  1.4830
 5788TIP3    H217287   4.004   5.751   2.458  0.4828  0.4283 -2.5211
 5789TIP3   OH217288   1.141   4.018   5.221 -0.0340  0.0990 -0.4733
 5789TIP3    H117289   1.113   3.927   5.220  0.8600 -0.3167  3.3180
 5789TIP3    H217290   1.229   4.018   5.185 -0.5290 -0.3001 -1.7096
 5790TIP3   OH217291   3.645   8.073   0.232 -0.2978  0.1831 -0.3456
 5790TIP3    H117292   3.602   8.030   0.158 -1.1287 -0.9171  0.7637
 5790TIP3    H217293   3.658   8.003   0.296  1.3952  0.9040  0.1302
 5791TIP3   OH217294   6.429   0.408   2.160 -0.0139  0.5830 -0.4186
 5791TIP3    H117295   6.474   0.419   2.076  0.2483 -1.2369 -0.5528
 5791TIP3    H217296   6.422   0.313   2.171  1.6247  0.7372  2.4929
 5792TIP3   OH217297   3.985   7.398   1.557  0.1603 -0.0173 -0.2997
 5792TIP3    H117298   3.922   7.327   1.566  0.7224 -0.5439 -0.5140
 5792TIP3    H217299   3.982   7.443   1.642  0.3798 -0.7804  0.1205
 5793TIP3   OH217300   0.469   1.031   2.398  0.1218  0.3166 -0.6018
 5793TIP3    H117301   0.472   1.114   2.351 -0.1879 -0.8848 -2.8015
 5793TIP3    H217302   0.557   0.995   2.389 -0.5030 -0.8905 -2.0999
 5794TIP3   OH217303   7.332   2.062   1.581  0.0960  0.0706  0.1815
 5794TIP3    H117304   7.420   2.083   1.551 -0.2469 -0.0424 -0.9579
 5794TIP3    H217305   7.284   2.144   1.576  0.0919  0.0951  0.6302
 5795TIP3   OH217306   7.081   0.040   1.969 -0.2189 -0.5977  0.2164
 5795TIP3    H117307   7.124   0.072   1.889  1.4794 -1.6955  0.6746
 5795TIP3    H217308   6.990   0.023   1.942 -0.8449  3.1891 -0.3973
 5796TIP3   OH217309   4.276   8.300   1.313  0.1600  0.8270 -0.0166
 5796TIP3    H117310   4.371   8.299   1.329 -0.3239  0.8719  3.1217
 5796TIP3    H217311   4.254   8.393   1.314  0.1480  0.8435 -1.2822
 5797TIP3   OH217312   4.841   8.098   2.318  0.1520 -0.5463 -0.3553
 5797TIP3    H117313   4.806   8.184   2.340  0.4836 -0.0695 -1.6584
 5797TIP3    H217314   4.866   8.060   2.403  0.8917  1.0294  0.1505
 5798TIP3   OH217315   4.119   8.073   1.050 -0.3034  0.1977  0.1893
 5798TIP3    H117316   4.044   8.087   1.108 -0.5268 -0.0875 -0.0305
 5798TIP3    H217317   4.122   7.978   1.038 -0.5802  0.2959 -0.6931
 5799TIP3   OH217318   3.933   8.152   2.145  0.1571 -0.2440  0.8181
 5799TIP3    H117319   3.901   8.062   2.154 -0.3931 -0.0019  1.3042
 5799TIP3    H217320   3.890   8.185   2.066  0.0570 -0.2811  0.8571
 5800TIP3   OH217321   8.238   0.791   2.375 -0.4379 -0.0359  0.0643
 5800TIP3    H117322   8.211   0.836   2.295 -0.5743 -0.9682 -0.4262
 5800TIP3    H217323   8.156   0.756   2.411 -0.3888  0.4632  0.6684
 5801TIP3   OH217324   7.818   1.237   3.402  0.2227  0.2747  0.2364
 5801TIP3    H117325   7.858   1.202   3.482 -0.2002 -0.2742  0.2152
 5801TIP3    H217326   7.724   1.221   3.413  0.3342 -1.6885 -1.2571
 5802TIP3   OH217327   8.140   1.003   2.690 -0.1520  0.4331  0.0366
 5802TIP3    H117328   8.153   1.093   2.722 -0.1115  0.1987  0.6926
 5802TIP3    H217329   8.187   1.000   2.607 -0.7693  1.2358 -0.3446
 5803TIP3   OH217330   6.222   6.012   1.020 -0.1619 -0.0738 -0.0236
 5803TIP3    H117331   6.232   6.035   1.112 -1.1047 -0.2341  0.1241
 5803TIP3    H217332   6.221   6.096   0.974 -1.5526  0.1075  0.3083
 5804TIP3   OH217333   4.441   4.581   3.181  0.4219 -0.0487  0.2094
 5804TIP3    H117334   4.530   4.614   3.165  0.3604  0.3052  0.5741
 5804TIP3    H217335   4.445   4.488   3.158  1.0212 -0.1538  0.7199
 5805TIP3   OH217336   4.767   6.772   2.843 -0.2675  0.3417 -0.3115
 5805TIP3    H117337   4.817   6.714   2.900 -2.3745  0.0041  1.2464
 5805TIP3    H217338   4.795   6.749   2.754 -0.4373 -2.4462  0.3232
 5806TIP3   OH217339   5.641   6.828   1.681 -0.5777  0.4510  0.7256
 5806TIP3    H117340   5.669   6.763   1.746 -0.0294 -1.5410 -1.4359
 5806TIP3    H217341   5.569   6.786   1.634 -0.1151  1.3303 -0.8047
 5807TIP3   OH217342   6.475   0.572   1.267  0.3312  0.3953  0.0830
 5807TIP3    H117343   6.426   0.562   1.349  0.5509 -0.1043  0.1593
 5807TIP3    H217344   6.490   0.666   1.259  2.2827  0.2792  1.8073
 5808TIP3   OH217345   7.147   0.765   0.736  0.5363 -0.2328  0.2655
 5808TIP3    H117346   7.203   0.841   0.720  0.9406 -0.6483 -0.3765
 5808TIP3    H217347   7.206   0.690   0.723  0.5750 -0.6279  2.6286
 5809TIP3   OH217348   5.902   7.824   1.383 -0.7369 -0.6671  0.2137
 5809TIP3    H117349   5.957   7.785   1.315  0.4414  0.4241  0.5197
 5809TIP3    H217350   5.854   7.894   1.339 -0.2431 -0.1973  0.4083
 5810TIP3   OH217351   0.442   0.222   0.832  0.0880  0.0738 -0.6058
 5810TIP3    H117352   0.389   0.158   0.783 -1.4471 -0.1537  1.3023
 5810TIP3    H217353   0.412   0.307   0.799 -0.0454 -0.1111 -0.9650
 5811TIP3   OH217354   2.836   6.707   0.120 -0.4482 -0.1140 -0.1021
 5811TIP3    H117355   2.850   6.636   0.182  0.7694 -0.9820 -1.3521
 5811TIP3    H217356   2.759   6.681   0.071 -2.3702  1.3060  2.0148
 5812TIP3   OH217357   6.449   5.690   1.470 -0.0187 -0.2971 -0.2111
 5812TIP3    H117358   6.466   5.688   1.564  1.4202  1.3805 -0.3895
 5812TIP3    H217359   6.529   5.656   1.430 -0.4583 -0.6063 -0.8337
 5813TIP3   OH217360   3.242   7.889   2.161 -0.0350  0.0197 -0.3724
 5813TIP3    H117361   3.175   7.823   2.174  0.5901 -0.2744  1.4937
 5813TIP3    H217362   3.235   7.947   2.237  1.3880  0.3619 -0.4684
 5814TIP3   OH217363   7.437   0.352   0.672 -0.0537  0.1979  0.4306
 5814TIP3    H117364   7.497   0.382   0.604 -1.0478 -1.3953 -1.1822
 5814TIP3    H217365   7.494   0.312   0.738  0.6760 -2.3421 -1.6228
 5815TIP3   OH217366   4.503   6.375   3.727  0.5758 -0.0707 -0.0363
 5815TIP3    H117367   4.543   6.367   3.641  0.4772  0.3699 -0.1210
 5815TIP3    H217368   4.560   6.323   3.784  1.2307  0.5040 -0.1653
 5816TIP3   OH217369   5.813   6.843   0.753 -0.5652  0.0287  0.1434
 5816TIP3    H117370   5.780   6.826   0.665 -0.4723  4.0050 -0.7816
 5816TIP3    H217371   5.908   6.836   0.745 -0.5760  0.0229  0.0264
 5817TIP3   OH217372   3.774   4.589   2.403 -0.2014  0.2328  0.7636
 5817TIP3    H117373   3.720   4.668   2.401  0.0574  0.3904 -0.5098
 5817TIP3    H217374   3.836   4.605   2.474 -0.5934  0.8774  0.9692
 5818TIP3   OH217375   1.507   1.416   7.042 -0.2838 -0.2855 -0.2128
 5818TIP3    H117376   1.488   1.323   7.031 -0.4567 -0.2674 -0.0578
 5818TIP3    H217377   1.529   1.426   7.135  1.2270 -0.4460 -0.5271
 5819TIP3   OH217378   7.965   3.250   7.252  0.1827 -0.4593 -0.1408
 5819TIP3    H117379   7.895   3.279   7.310 -0.6223  1.0943 -1.8617
 5819TIP3    H217380   7.925   3.180   7.200 -0.0762  0.3786 -1.0727
 5820TIP3   OH217381   4.594   7.994   1.212 -0.2796  0.5677 -0.7427
 5820TIP3    H117382   4.595   8.084   1.246 -1.8505  0.1662  0.4266
 5820TIP3    H217383   4.686   7.975   1.194  0.0079  2.6567 -1.6839
 5821TIP3   OH217384   4.259   7.336   1.186  0.5748 -0.3323 -0.3186
 5821TIP3    H117385   4.207   7.409   1.153 -0.6555 -1.4495 -0.8876
 5821TIP3    H217386   4.220   7.316   1.271 -1.2155 -2.3995 -1.5595
 5822TIP3   OH217387   4.689   6.506   2.337  0.1355  0.0011 -0.3616
 5822TIP3    H117388   4.678   6.509   2.242 -0.2885  0.8223 -0.2886
 5822TIP3    H217389   4.759   6.442   2.351 -1.7173 -2.2658 -1.0689
 5823TIP3   OH217390   2.379   7.975   2.178  0.5435 -0.3919 -0.4392
 5823TIP3    H117391   2.404   7.968   2.086 -0.5762 -1.4817 -0.6801
 5823TIP3    H217392   2.461   7.983   2.226  1.2506 -1.9489 -1.3697
 5824TIP3   OH217393   7.340   0.444   3.523 -0.5978  0.4507  0.4156
 5824TIP3    H117394   7.282   0.520   3.525  0.3128  1.1761 -0.0504
 5824TIP3    H217395   7.425   0.481   3.499  0.1811 -0.5109  1.6724
 5825TIP3   OH217396   4.339   8.033   2.626 -0.2618 -0.4213 -0.5739
 5825TIP3    H117397   4.326   7.939   2.629  1.0197 -0.5629  0.7887
 5825TIP3    H217398   4.277   8.068   2.690 -2.9343 -0.0571 -3.2601
 5826TIP3   OH217399   0.892   4.383   5.315 -0.0957 -0.0389  0.1112
 5826TIP3    H117400   0.975   4.341   5.338  0.1884  0.3956 -0.1104
 5826TIP3    H217401   0.914   4.443   5.243 -0.5434  0.2949  0.2459
 5827TIP3   OH217402   1.291   3.198   5.629  0.0412 -0.1080 -0.2495
 5827TIP3    H117403   1.283   3.102   5.629 -1.7896  0.0230 -0.3832
 5827TIP3    H217404   1.366   3.216   5.685  0.6054 -1.6417 -0.4788
 5828TIP3   OH217405   7.199   0.996   1.394 -0.0963 -0.1244  0.4318
 5828TIP3    H117406   7.218   1.078   1.348  0.4298 -0.2612  0.4026
 5828TIP3    H217407   7.115   0.968   1.358 -0.6607  0.7953  0.9967
 5829TIP3   OH217408   3.850   7.786   1.278  0.1720 -0.0280 -0.0066
 5829TIP3    H117409   3.919   7.762   1.340  0.0905 -1.0837 -0.3114
 5829TIP3    H217410   3.826   7.704   1.235  1.0662  0.8792 -2.3085
 5830TIP3   OH217411   6.926   0.211   4.808  0.4417 -0.4030 -0.0189
 5830TIP3    H117412   6.858   0.151   4.840  1.0468 -0.6348  0.8586
 5830TIP3    H217413   6.962   0.250   4.888 -3.1110  4.7146 -0.6146
 5831TIP3   OH217414   4.506   7.827   1.410 -0.6455 -0.4296  0.0826
 5831TIP3    H117415   4.522   7.894   1.344 -0.1336 -0.6819 -0.0506
 5831TIP3    H217416   4.430   7.779   1.378 -0.8066 -0.1289  0.0101
 5832TIP3   OH217417   8.455   2.256   2.151 -0.3978 -0.1653  0.2872
 5832TIP3    H117418   8.410   2.333   2.183 -1.1578 -0.6393  0.3619
 5832TIP3    H217419   8.385   2.197   2.122  0.1707 -0.8536  0.2984
 5833TIP3   OH217420   0.654   0.055   0.719  0.1951 -0.3423 -0.1427
 5833TIP3    H117421   0.599  -0.003   0.666 -0.1625 -0.0006 -0.1427
 5833TIP3    H217422   0.595   0.124   0.749  0.4851 -0.3174  0.3742
 5834TIP3   OH217423   4.933   6.858   2.255  0.4629  0.6459 -0.6106
 5834TIP3    H117424   4.915   6.952   2.253  0.1910  0.5992 -0.4037
 5834TIP3    H217425   4.877   6.820   2.187 -0.3687  0.4777  0.1553
 5835TIP3   OH217426   6.389   6.996   2.783  0.3596  0.3460 -0.4140
 5835TIP3    H117427   6.439   6.916   2.767 -0.1447 -0.4165  1.5742
 5835TIP3    H217428   6.297   6.968   2.777  0.1767  1.2391 -1.8093
 5836TIP3   OH217429   0.183   1.202   1.330  0.1403 -0.4919 -0.2568
 5836TIP3    H117430   0.174   1.249   1.413  2.0525 -1.9354  0.8132
 5836TIP3    H217431   0.170   1.110   1.354  0.3114 -0.8775 -1.6340
 5837TIP3   OH217432   4.089   7.340   3.257 -0.3195 -0.0960 -0.3579
 5837TIP3    H117433   4.134   7.346   3.173  0.4877  1.5929  0.1712
 5837TIP3    H217434   4.126   7.262   3.299  1.6244  0.8596 -0.2364
 5838TIP3   OH217435   4.136   7.607   0.794 -0.1914  0.2141 -0.8009
 5838TIP3    H117436   4.057   7.661   0.786  0.6278  1.7204  1.1381
 5838TIP3    H217437   4.209   7.668   0.786  0.7432 -0.3540  2.7609
 5839TIP3   OH217438   3.051   6.464   1.280  0.0615  0.3410  0.2020
 5839TIP3    H117439   3.003   6.386   1.307  1.6326  0.0647  2.2482
 5839TIP3    H217440   3.108   6.485   1.353 -0.6415  3.6938 -0.0937
 5840TIP3   OH217441   5.259   6.939   2.199 -0.2682  0.0115 -0.5271
 5840TIP3    H117442   5.255   6.906   2.109 -0.4611 -0.5739 -0.3031
 5840TIP3    H217443   5.171   6.926   2.234  0.5397 -2.4551  0.6928
 5841TIP3   OH217444   5.176   6.718   4.062  0.0929  0.1745 -0.0626
 5841TIP3    H117445   5.194   6.804   4.023 -4.2850  1.5290  0.7233
 5841TIP3    H217446   5.175   6.659   3.987  3.1323  0.7499 -0.6193
 5842TIP3   OH217447   5.647   7.877   2.359  0.1996  0.0595 -0.0025
 5842TIP3    H117448   5.563   7.886   2.404  1.1508  1.4434  1.5886
 5842TIP3    H217449   5.625   7.853   2.270 -1.8312 -1.1039  0.7867
 5843TIP3   OH217450   5.695   6.455   1.299 -0.4028 -0.3750 -0.3595
 5843TIP3    H117451   5.630   6.458   1.229 -0.5917  0.1542 -0.1663
 5843TIP3    H217452   5.644   6.464   1.379 -0.3605 -2.6676 -0.0469
 5844TIP3   OH217453   7.521   6.843   1.897  0.4989  0.3079 -0.2226
 5844TIP3    H117454   7.590   6.874   1.957  0.4736  0.0665 -0.0680
 5844TIP3    H217455   7.446   6.898   1.916  0.5528  0.3623 -0.1677
 5845TIP3   OH217456   7.920   0.101   1.675 -0.0382  0.4320 -0.1939
 5845TIP3    H117457   7.998   0.127   1.627  0.2517 -0.6679 -0.3467
 5845TIP3    H217458   7.916   0.006   1.663 -1.1651  0.4302  0.1581
 5846TIP3   OH217459   0.714   0.503   1.338  0.0202  0.1325  0.3648
 5846TIP3    H117460   0.741   0.440   1.405  0.0658 -1.2099 -0.9051
 5846TIP3    H217461   0.690   0.450   1.263  0.9103  1.6662 -1.0457
 5847TIP3   OH217462   0.441   2.806   7.165  0.0160  0.1510 -0.2658
 5847TIP3    H117463   0.361   2.757   7.144 -1.6418  2.6899 -0.2184
 5847TIP3    H217464   0.417   2.859   7.241  1.7291  0.9747 -0.2695
 5848TIP3   OH217465   4.296   6.415   0.330  0.3959 -0.2702 -0.2036
 5848TIP3    H117466   4.215   6.421   0.381  1.3045 -0.5982  1.3302
 5848TIP3    H217467   4.349   6.488   0.362  0.8779 -0.3248 -0.8894
 5849TIP3   OH217468   3.465   7.553   1.080  0.2044 -0.1955 -0.2722
 5849TIP3    H117469   3.474   7.481   1.018 -0.2573  0.1724 -0.7671
 5849TIP3    H217470   3.401   7.611   1.041 -0.3038 -0.0917  0.6836
 5850TIP3   OH217471   0.964   1.577   3.779  0.5790  0.5501 -0.4422
 5850TIP3    H117472   0.955   1.498   3.831 -0.4896  0.2708 -1.0201
 5850TIP3    H217473   0.874   1.607   3.766  0.8626  0.9590 -1.5772
 5851TIP3   OH217474   8.567   0.934   2.303 -0.3926  0.0279 -0.2948
 5851TIP3    H117475   8.531   0.880   2.232 -2.3051  1.2694 -0.3297
 5851TIP3    H217476   8.525   0.900   2.382  0.8482 -0.6014  0.0976
 5852TIP3   OH217477   7.749  -0.004   0.789 -0.3376  0.0494 -0.2538
 5852TIP3    H117478   7.734   0.064   0.855 -1.0201  1.9807 -2.3215
 5852TIP3    H217479   7.765   0.045   0.708 -2.5691 -2.2566 -2.1552
 5853TIP3   OH217480   4.547   0.769   6.870  0.2713  0.5361 -0.2936
 5853TIP3    H117481   4.621   0.734   6.819  0.9538  0.2162  0.8863
 5853TIP3    H217482   4.588   0.804   6.949 -0.7052  1.6152 -0.2605
 5854TIP3   OH217483   6.370   7.684   1.743  0.2176 -0.4713  0.0376
 5854TIP3    H117484   6.337   7.595   1.739  0.8281 -0.6928 -0.0430
 5854TIP3    H217485   6.463   7.675   1.762  0.3130  0.1425 -0.1177
 5855TIP3   OH217486   0.400   1.051   2.798  0.0059  0.2178 -0.7888
 5855TIP3    H117487   0.326   1.113   2.797 -0.9047 -0.8145  0.4391
 5855TIP3    H217488   0.472   1.099   2.758  0.0385  3.0030  2.3953
 5856TIP3   OH217489   6.517   7.818   0.707 -0.3439 -0.7180 -0.7118
 5856TIP3    H117490   6.521   7.914   0.707 -1.2645 -0.6545 -2.6893
 5856TIP3    H217491   6.558   7.793   0.790 -0.0718  1.3783 -0.1664
 5857TIP3   OH217492   4.042   6.722   0.257 -0.7210 -0.0815 -1.0450
 5857TIP3    H117493   4.136   6.731   0.241 -1.1735  0.5681 -3.4835
 5857TIP3    H217494   4.035   6.649   0.319  1.2648 -1.2478 -2.1537
 5858TIP3   OH217495   3.885   5.408   6.952  0.5313 -0.0549 -1.1369
 5858TIP3    H117496   3.832   5.329   6.942  1.4818 -0.9303  0.4458
 5858TIP3    H217497   3.891   5.420   7.047  0.7987  1.6500 -1.3596
 5859TIP3   OH217498   2.076   3.184   7.246 -0.3826 -0.0636 -0.0221
 5859TIP3    H117499   2.135   3.135   7.304 -0.2782  0.8528  0.6802
 5859TIP3    H217500   2.133   3.251   7.207 -0.5514 -0.4044 -0.8442
 5860TIP3   OH217501   3.848   8.056   0.488 -0.6375 -0.2029  0.3211
 5860TIP3    H117502   3.803   8.047   0.571  2.0581 -0.5121  1.8184
 5860TIP3    H217503   3.873   8.149   0.484 -2.1533  0.1735 -0.9248
 5861TIP3   OH217504   7.488   0.575   1.539 -0.1084  0.4536  0.1897
 5861TIP3    H117505   7.582   0.580   1.559 -0.0516  1.3323 -0.2466
 5861TIP3    H217506   7.479   0.623   1.456 -0.6455 -1.3284 -0.7945
 5862TIP3   OH217507   7.360   8.293   1.921 -0.2662  0.4333 -0.3746
 5862TIP3    H117508   7.307   8.280   2.000  0.9879  0.2566  0.4380
 5862TIP3    H217509   7.349   8.385   1.899 -1.4167  0.2582 -0.5811
 5863TIP3   OH217510   1.460   2.190   6.847  0.4917  0.3134 -0.1754
 5863TIP3    H117511   1.478   2.104   6.885 -1.9524  0.1482  0.6897
 5863TIP3    H217512   1.505   2.251   6.905  1.5109 -0.3075 -0.2918
 5864TIP3   OH217513   4.659   4.230   1.114  0.5927  0.1799  0.4963
 5864TIP3    H117514   4.634   4.322   1.099  0.6400  0.1992  0.5403
 5864TIP3    H217515   4.627   4.211   1.202 -1.0010 -0.3756 -0.1877
 5865TIP3   OH217516   3.534   3.112   7.034  0.6931  0.5909 -0.2792
 5865TIP3    H117517   3.454   3.135   7.081  0.1671 -0.4603 -0.6675
 5865TIP3    H217518   3.531   3.165   6.954 -0.2788 -0.4251 -0.9325
 5866TIP3   OH217519   6.814   0.526   2.075 -0.0701  0.1909  0.3200
 5866TIP3    H117520   6.886   0.466   2.057 -0.0373 -0.1459  1.5266
 5866TIP3    H217521   6.774   0.542   1.990 -0.4994 -2.0868  0.0690
 5867TIP3   OH217522   1.996   6.665   2.785  0.7983  1.2532  0.2286
 5867TIP3    H117523   2.060   6.700   2.846  1.3393 -0.0673  0.4391
 5867TIP3    H217524   1.953   6.594   2.834  0.5826  0.8080 -0.5986
 5868TIP3   OH217525   6.897   6.393   3.735  0.1215  0.2034  0.3734
 5868TIP3    H117526   6.953   6.322   3.703 -1.0626 -1.2168  1.3815
 5868TIP3    H217527   6.813   6.379   3.692 -0.1497  0.9224  0.6702
 5869TIP3   OH217528   4.182   6.545   0.908 -0.4705 -0.3942  0.0639
 5869TIP3    H117529   4.212   6.487   0.978  1.6082  2.5652  1.7390
 5869TIP3    H217530   4.097   6.577   0.939  0.7145  1.3818  1.6115
 5870TIP3   OH217531   1.662   7.985   1.628 -0.1671  0.0263 -0.0963
 5870TIP3    H117532   1.686   7.986   1.536 -0.9933  0.8874 -0.3087
 5870TIP3    H217533   1.738   7.947   1.673  0.2781 -0.2845 -1.1101
 5871TIP3   OH217534   2.647   7.085   0.041  0.4155 -0.3300  0.2092
 5871TIP3    H117535   2.668   7.157   0.100  1.5911 -0.1043 -0.4601
 5871TIP3    H217536   2.593   7.026   0.093 -0.5553  1.0184  0.7712
 5872TIP3   OH217537   2.427   7.616   1.858  0.0022  0.1801 -0.2651
 5872TIP3    H117538   2.378   7.584   1.782 -0.2402  1.8015 -0.8120
 5872TIP3    H217539   2.518   7.618   1.829  0.2341 -1.5730  0.3159
 5873TIP3   OH217540   7.070   0.662   1.568  0.3406  0.0279  0.5615
 5873TIP3    H117541   7.119   0.587   1.533  0.9125  0.8553 -0.4067
 5873TIP3    H217542   7.032   0.704   1.491 -0.3980  0.4492  1.1524
 5874TIP3   OH217543   7.355   7.271   1.750 -0.6233  0.4460  0.5512
 5874TIP3    H117544   7.443   7.242   1.725 -1.1049 -1.1898  0.6507
 5874TIP3    H217545   7.368   7.318   1.832  0.3789  1.7548 -0.3389
 5875TIP3   OH217546   4.969   5.289   6.799  0.1848  0.1992  0.4906
 5875TIP3    H117547   5.015   5.216   6.840  0.3926  0.5813  0.9461
 5875TIP3    H217548   5.033   5.361   6.802  0.6017 -0.0620 -1.4628
 5876TIP3   OH217549   3.884   7.236   2.126  0.0252 -0.2143  0.3654
 5876TIP3    H117550   3.913   7.171   2.190 -0.0383 -1.7237 -1.0872
 5876TIP3    H217551   3.844   7.184   2.056 -0.2682  1.4125 -0.7018
 5877TIP3   OH217552   3.906   8.341   1.798  0.0935 -0.8019  0.1077
 5877TIP3    H117553   3.968   8.278   1.761 -0.5532 -0.2261 -2.0368
 5877TIP3    H217554   3.820   8.309   1.770 -0.1556  1.8497 -2.3310
 5878TIP3   OH217555   8.626   0.790   0.966 -0.2271 -0.1396 -0.1819
 5878TIP3    H117556   8.626   0.753   1.055 -0.9854  1.5165  0.5290
 5878TIP3    H217557   8.551   0.747   0.923  0.7851 -1.7508 -0.3951
 5879TIP3   OH217558   2.517   7.066   1.934 -0.4910  0.6769 -0.2505
 5879TIP3    H117559   2.555   6.991   1.980  0.3133 -0.2046 -2.2609
 5879TIP3    H217560   2.534   7.141   1.991  1.9563 -0.1204  0.1435
 5880TIP3   OH217561   3.891   5.848   0.447  0.5936 -0.0144  0.4065
 5880TIP3    H117562   3.820   5.849   0.383  1.6718 -0.4884 -0.8130
 5880TIP3    H217563   3.937   5.765   0.432  2.5361  1.1116 -0.0984
 5881TIP3   OH217564   0.037   1.199   0.150 -0.4150  0.4802 -0.2685
 5881TIP3    H117565   0.051   1.291   0.130  0.1193  0.2609 -0.9253
 5881TIP3    H217566   0.020   1.197   0.245  0.1279  1.1833 -0.1559
 5882TIP3   OH217567   4.871   7.813   1.965 -0.1359  0.6480  0.4015
 5882TIP3    H117568   4.908   7.887   2.012 -2.3607  2.5899 -0.8153
 5882TIP3    H217569   4.784   7.801   2.002 -0.6485  0.0923 -0.9469
 5883TIP3   OH217570   5.047   3.285   2.183  0.2115  0.4674 -0.2624
 5883TIP3    H117571   5.079   3.309   2.270  0.7424 -0.3108 -0.2309
 5883TIP3    H217572   5.084   3.198   2.168 -2.1831 -0.6077 -0.0921
 5884TIP3   OH217573   4.117   6.732   3.482 -0.0678  0.1017  0.0191
 5884TIP3    H117574   4.100   6.776   3.565 -0.9319 -0.7666  0.3085
 5884TIP3    H217575   4.034   6.691   3.460  0.6565 -1.1341 -0.4050
 5885TIP3   OH217576   3.629   2.370   6.279 -0.0135  0.3709 -0.4955
 5885TIP3    H117577   3.580   2.302   6.324  0.8052 -0.9359 -1.5619
 5885TIP3    H217578   3.575   2.393   6.204  0.6281 -0.5366 -1.2503
 5886TIP3   OH217579   0.707   3.142   6.996  0.0254 -0.3483 -0.0084
 5886TIP3    H117580   0.696   3.062   7.048 -0.0856 -0.4548 -0.1932
 5886TIP3    H217581   0.777   3.121   6.934 -0.5147 -0.5626 -0.5562
 5887TIP3   OH217582   4.901   6.954   2.536 -0.5130  0.3233  0.5863
 5887TIP3    H117583   4.967   6.972   2.603 -1.6288 -0.0626  1.8083
 5887TIP3    H217584   4.950   6.916   2.464  0.6553  0.3625  1.3472
 5888TIP3   OH217585   0.789   1.223   6.722 -0.5592 -0.0377 -0.3028
 5888TIP3    H117586   0.790   1.175   6.804 -0.6942 -1.6869 -1.2416
 5888TIP3    H217587   0.701   1.210   6.687 -0.1063 -0.4410 -1.3227
 5889TIP3   OH217588   0.382   3.865   6.773 -0.3035 -0.2948 -0.5533
 5889TIP3    H117589   0.319   3.859   6.701 -0.5001  2.5652 -0.6476
 5889TIP3    H217590   0.397   3.958   6.784  0.7493 -0.7614  2.2589
 5890TIP3   OH217591   4.882   7.378   1.442 -0.0306 -0.1116 -0.6874
 5890TIP3    H117592   4.977   7.391   1.447 -0.1101  0.4254 -0.5624
 5890TIP3    H217593   4.868   7.291   1.480  0.3668 -0.0166 -0.3134
 5891TIP3   OH217594   5.267   6.686   0.850 -0.9202 -0.0756 -0.0695
 5891TIP3    H117595   5.268   6.775   0.814  0.0250 -0.3143 -0.6454
 5891TIP3    H217596   5.359   6.660   0.853 -1.1384 -0.7717  0.7736
 5892TIP3   OH217597   8.365   4.015   6.312 -0.3066 -0.2999 -0.3297
 5892TIP3    H117598   8.274   4.040   6.298 -0.5253 -0.5378  0.6825
 5892TIP3    H217599   8.373   4.002   6.406  1.3124  1.7940 -0.1482
 5893TIP3   OH217600   5.307   5.509   4.112 -0.3687  0.2585  0.3124
 5893TIP3    H117601   5.370   5.549   4.052 -1.3455  0.2434 -0.7206
 5893TIP3    H217602   5.353   5.508   4.196  1.6210 -1.1477 -0.7331
 5894TIP3   OH217603   6.570   2.174   2.335 -0.2011  0.1426  0.3704
 5894TIP3    H117604   6.662   2.154   2.353 -0.0053  0.7123  0.0161
 5894TIP3    H217605   6.552   2.130   2.252 -0.0392  0.6485  0.0676
 5895TIP3   OH217606   4.571   7.763   0.883  0.3884 -0.0991 -0.0077
 5895TIP3    H117607   4.663   7.791   0.890 -0.0393  1.2752  0.1446
 5895TIP3    H217608   4.522   7.832   0.927 -0.6346 -1.4066  0.9527
 5896TIP3   OH217609   4.927   5.880   3.623  0.9390  0.2262  0.0839
 5896TIP3    H117610   4.884   5.797   3.640  1.5404 -0.2685 -0.7696
 5896TIP3    H217611   4.922   5.927   3.706  0.6039 -0.6604  0.5747
 5897TIP3   OH217612   0.465   6.471   0.119  0.2284 -0.7353 -0.2989
 5897TIP3    H117613   0.417   6.508   0.044  0.5753 -0.3077 -0.3166
 5897TIP3    H217614   0.526   6.541   0.144 -0.5413 -0.5166  0.9870
 5898TIP3   OH217615   7.386   7.765   1.431 -0.0332  0.4177  0.9336
 5898TIP3    H117616   7.448   7.694   1.414  1.3354  1.4866  1.2880
 5898TIP3    H217617   7.300   7.725   1.422  0.6986 -1.5291  2.1215
 5899TIP3   OH217618   7.463   0.043   0.871 -0.0942  0.0350  0.3670
 5899TIP3    H117619   7.542   0.004   0.834 -0.2502  0.9414 -0.9327
 5899TIP3    H217620   7.423  -0.028   0.921  0.7502 -0.8586 -0.2087
 5900TIP3   OH217621   8.517   1.243   0.805 -0.0509 -0.0091  0.0026
 5900TIP3    H117622   8.555   1.218   0.721 -0.8532 -0.5271 -0.2040
 5900TIP3    H217623   8.432   1.200   0.807  0.4453 -0.9758  1.5805
 5901TIP3   OH217624   5.459   8.202   1.856 -0.3073  0.0080 -0.3934
 5901TIP3    H117625   5.420   8.120   1.825 -0.0313  0.5816 -2.2847
 5901TIP3    H217626   5.548   8.201   1.819  0.3063  0.3402  1.0380
 5902TIP3   OH217627   8.365   1.096   0.557  0.0185  0.2293 -0.5769
 5902TIP3    H117628   8.343   1.014   0.601  0.2641  0.7485  0.5328
 5902TIP3    H217629   8.288   1.151   0.568  0.4298  0.6940  0.0269
 5903TIP3   OH217630   7.274   6.048   1.137 -0.2791 -0.4937  0.3942
 5903TIP3    H117631   7.248   5.956   1.132  2.5654 -1.3501  0.4636
 5903TIP3    H217632   7.349   6.055   1.079  0.4133  1.4699  1.4934
 5904TIP3   OH217633   1.590   1.218   2.607  0.1203 -0.2228 -0.0774
 5904TIP3    H117634   1.606   1.291   2.547 -3.2882  1.2068  0.6066
 5904TIP3    H217635   1.501   1.234   2.640 -0.4215 -4.2753  0.6793
 5905TIP3   OH217636   8.339   5.293   1.805  0.3904 -0.0557  0.2536
 5905TIP3    H117637   8.328   5.273   1.712  0.8575 -2.5134  0.6939
 5905TIP3    H217638   8.431   5.317   1.813  0.0930  1.2769 -0.0767
 5906TIP3   OH217639   0.042   3.118   5.882 -0.9589 -0.2161 -0.3761
 5906TIP3    H117640  -0.006   3.115   5.799  1.2201 -3.7358 -1.6042
 5906TIP3    H217641   0.102   3.192   5.872 -1.1833 -0.1839 -1.6219
 5907TIP3   OH217642   0.770   0.240   1.268 -0.2412 -0.4122 -0.0954
 5907TIP3    H117643   0.698   0.177   1.260 -1.5721  1.0641 -0.0830
 5907TIP3    H217644   0.827   0.203   1.335 -1.1323 -1.4987  0.0830
 5908TIP3   OH217645   7.579   7.625   1.824 -0.6450  0.6265 -0.0763
 5908TIP3    H117646   7.654   7.659   1.872 -0.3194 -0.4293  0.1682
 5908TIP3    H217647   7.553   7.697   1.766  0.5123  1.0229 -0.1136
 5909TIP3   OH217648   8.572   2.514   1.973  0.2832  0.3527 -0.3767
 5909TIP3    H117649   8.496   2.473   1.932 -0.1677  1.0127 -0.2024
 5909TIP3    H217650   8.644   2.455   1.954 -0.0753  0.2519 -1.4529
 5910TIP3   OH217651   2.306   0.321   2.386 -0.3820  0.1885 -0.2317
 5910TIP3    H117652   2.242   0.263   2.344 -0.8880  1.1047 -0.7656
 5910TIP3    H217653   2.321   0.283   2.472 -0.1743 -1.1187 -0.8410
 5911TIP3   OH217654   6.279   7.734   1.438  0.0301 -0.4432 -0.3113
 5911TIP3    H117655   6.231   7.736   1.521 -1.6101 -0.6313 -1.2216
 5911TIP3    H217656   6.214   7.759   1.372  1.6083  0.8557 -1.4078
 5912TIP3   OH217657   0.710   2.293   2.541 -0.2215 -0.3078  0.3073
 5912TIP3    H117658   0.718   2.203   2.511  1.1481 -0.6473  1.6437
 5912TIP3    H217659   0.622   2.297   2.581 -0.2373 -1.0820  0.3567
 5913TIP3   OH217660   1.220   0.344   2.893  0.4634  0.4765  0.3317
 5913TIP3    H117661   1.200   0.436   2.879 -1.3910  0.3663  1.9620
 5913TIP3    H217662   1.273   0.342   2.972  0.0861  0.1104  0.5800
 5914TIP3   OH217663   3.387   2.799   7.106  0.5125  1.0882 -0.7470
 5914TIP3    H117664   3.437   2.861   7.159  0.3248  0.2357  0.4515
 5914TIP3    H217665   3.298   2.806   7.139  0.8737 -1.3421  0.8931
 5915TIP3   OH217666   8.029   7.294   2.673  0.2578  0.4785 -0.0429
 5915TIP3    H117667   7.939   7.264   2.669  0.9445 -1.8087  0.7934
 5915TIP3    H217668   8.023   7.390   2.675 -2.1514  0.3378  0.7141
 5916TIP3   OH217669   8.140   7.619   3.452  0.1112 -0.3760 -0.6138
 5916TIP3    H117670   8.164   7.599   3.361  2.5387  0.4556 -0.2093
 5916TIP3    H217671   8.146   7.715   3.457  0.1455 -0.4294  0.4669
 5917TIP3   OH217672   8.599   0.885   1.624  0.0219  0.2930 -0.0109
 5917TIP3    H117673   8.588   0.894   1.719 -0.0625 -0.0870  0.0154
 5917TIP3    H217674   8.643   0.966   1.598  0.0543  0.3961  0.3547
 5918TIP3   OH217675   8.805   7.860   1.039  0.3711 -0.2751 -0.0081
 5918TIP3    H117676   8.779   7.946   1.072 -0.9831 -1.0185  0.9235
 5918TIP3    H217677   8.751   7.847   0.961  1.7053  0.3742 -1.0575
 5919TIP3   OH217678   4.981   8.356   1.065 -0.1871 -0.2746 -0.1681
 5919TIP3    H117679   4.996   8.450   1.069  2.1661 -0.6633  0.9537
 5919TIP3    H217680   5.029   8.328   0.987 -0.0366 -0.6847  0.0702
 5920TIP3   OH217681   1.872   2.230   6.841 -0.0473  0.3969  0.0454
 5920TIP3    H117682   1.849   2.199   6.928 -1.3981 -2.3857 -1.2190
 5920TIP3    H217683   1.937   2.168   6.809 -0.6513  0.4978 -1.4563
 5921TIP3   OH217684   8.249   6.896   2.146 -0.2472 -0.3183 -0.1078
 5921TIP3    H117685   8.332   6.941   2.131  0.7244 -2.2286 -0.5284
 5921TIP3    H217686   8.193   6.963   2.185  2.3717  0.2571  2.8661
 5922TIP3   OH217687   4.807   2.440   5.245  0.2874  0.6511  0.4589
 5922TIP3    H117688   4.784   2.508   5.182  1.3420  1.5168  0.9920
 5922TIP3    H217689   4.887   2.400   5.209  0.1105  0.2082  0.5462
 5923TIP3   OH217690   7.580   7.492   1.347  0.1376  0.4739 -0.1731
 5923TIP3    H117691   7.654   7.450   1.391  0.3531 -1.0647 -1.9505
 5923TIP3    H217692   7.616   7.521   1.263 -0.8409  1.3387 -0.3015
 5924TIP3   OH217693   0.079   0.208   1.666  0.0354 -0.1999 -0.4378
 5924TIP3    H117694   0.149   0.143   1.665  0.0140 -0.2352  0.2137
 5924TIP3    H217695   0.071   0.236   1.575  0.9354 -0.1494 -0.5033
 5925TIP3   OH217696   8.097   7.418   1.938  0.2362  0.0075 -0.3612
 5925TIP3    H117697   8.077   7.497   1.989 -2.7266 -0.1266 -1.2378
 5925TIP3    H217698   8.113   7.350   2.003 -0.6287  0.5282  0.4053
 5926TIP3   OH217699   5.035   7.832   1.286 -0.5333  0.0429 -0.0692
 5926TIP3    H117700   5.026   7.875   1.371  0.1268  0.0023  0.0226
 5926TIP3    H217701   5.129   7.834   1.268 -0.7298  0.5438 -1.0519
 5927TIP3   OH217702   0.682   0.688   0.614 -0.3474 -0.4210 -0.2489
 5927TIP3    H117703   0.598   0.713   0.651  1.0632  3.3005  0.6298
 5927TIP3    H217704   0.739   0.676   0.690  0.1678 -2.1168 -0.8772
 5928TIP3   OH217705   8.641   0.767   2.536 -0.2473  0.4974  0.0104
 5928TIP3    H117706   8.690   0.714   2.599 -0.7728 -1.9314 -1.5865
 5928TIP3    H217707   8.550   0.758   2.564 -0.3536  0.4556 -0.3539
 5929TIP3   OH217708   3.336   3.247   7.198  0.4609  0.2528  0.3804
 5929TIP3    H117709   3.274   3.242   7.270 -1.3561 -0.7404 -1.2229
 5929TIP3    H217710   3.329   3.337   7.167  1.8779  0.9387  1.9357
 5930TIP3   OH217711   6.207   7.018   1.899 -0.1491  0.6894 -0.5800
 5930TIP3    H117712   6.197   7.089   1.963  0.3164  1.5496 -1.4476
 5930TIP3    H217713   6.200   7.062   1.814 -1.2262 -0.5023 -1.1310
 5931TIP3   OH217714   0.535   1.990   1.126  0.4210 -0.1190  0.4592
 5931TIP3    H117715   0.620   2.009   1.166  0.0083 -1.2097  1.9021
 5931TIP3    H217716   0.513   1.903   1.158 -0.3160 -0.6770 -1.5301
 5932TIP3   OH217717   8.412   7.856   2.051  0.1220 -0.2934  0.0254
 5932TIP3    H117718   8.451   7.897   1.973  0.0724  0.3777  0.3460
 5932TIP3    H217719   8.459   7.774   2.061  0.3409 -0.2418 -0.5356
 5933TIP3   OH217720   6.057   7.405   1.307 -0.0314 -0.2399 -0.2655
 5933TIP3    H117721   6.135   7.396   1.253  1.3496 -0.1175  1.6894
 5933TIP3    H217722   6.040   7.317   1.340 -1.4498 -0.5094 -1.6392
 5934TIP3   OH217723   5.553   7.530   0.886 -0.0385  0.6040  0.1654
 5934TIP3    H117724   5.507   7.571   0.958 -1.6713 -0.0876 -0.4647
 5934TIP3    H217725   5.516   7.570   0.807  0.4079  0.0152 -0.3542
 5935TIP3   OH217726   3.854   3.432   7.038  0.4886  0.2077 -0.3361
 5935TIP3    H117727   3.916   3.498   7.071 -0.3553  0.2208  1.2262
 5935TIP3    H217728   3.895   3.348   7.060  1.3425  0.1842 -1.9205
 5936TIP3   OH217729   8.453   0.936   1.334  0.4969 -0.4229 -0.4169
 5936TIP3    H117730   8.462   0.870   1.265 -0.9292 -0.9087 -0.1567
 5936TIP3    H217731   8.522   0.915   1.397  0.2512 -1.4884 -0.4916
 5937TIP3   OH217732   8.508   7.584   2.111 -0.6815  0.0919  0.2049
 5937TIP3    H117733   8.598   7.587   2.077 -1.0626  2.5138 -0.7310
 5937TIP3    H217734   8.518   7.576   2.206  0.4797 -1.4707 -0.0246
 5938TIP3   OH217735   6.180   7.765   2.406  0.3980  0.3661  0.6558
 5938TIP3    H117736   6.140   7.757   2.320 -0.6566  0.1647  1.1560
 5938TIP3    H217737   6.131   7.836   2.449  1.7105  1.2868  0.6481
 5939TIP3   OH217738   6.941   7.147   3.626  0.0771  0.3299 -0.5370
 5939TIP3    H117739   6.951   7.212   3.556 -1.1289 -1.9727 -2.9249
 5939TIP3    H217740   6.847   7.143   3.642  0.2120 -0.2761  0.1380
 5940TIP3   OH217741   4.851   7.457   0.550  0.1574 -0.3664  0.3351
 5940TIP3    H117742   4.834   7.480   0.641  1.5982 -1.9829  1.0234
 5940TIP3    H217743   4.913   7.384   0.554  1.9546  0.9472 -1.9517
 5941TIP3   OH217744   4.183   6.915   0.963 -0.2221  0.0208 -0.4770
 5941TIP3    H117745   4.242   6.939   1.034 -0.5908  0.5867 -0.3634
 5941TIP3    H217746   4.216   6.962   0.887 -0.0976 -0.2315 -0.5809
 5942TIP3   OH217747   7.894   5.427   2.040 -0.4055  0.4945 -0.0031
 5942TIP3    H117748   7.975   5.450   1.995  0.3908  0.5910  1.4526
 5942TIP3    H217749   7.845   5.375   1.976 -0.1382  2.2000 -1.6462
 5943TIP3   OH217750   1.407   0.890   3.686 -0.2219  0.1853  0.3169
 5943TIP3    H117751   1.326   0.940   3.678 -0.6641 -0.5690 -0.0906
 5943TIP3    H217752   1.390   0.829   3.758 -0.8080 -1.3734 -1.0823
 5944TIP3   OH217753   7.885   7.015   0.823 -0.2258 -0.6073 -0.1842
 5944TIP3    H117754   7.969   6.970   0.830  0.3466  0.0364 -2.6143
 5944TIP3    H217755   7.876   7.062   0.907  1.1010 -1.8719  0.6894
 5945TIP3   OH217756   6.281   5.218   0.983  0.1843 -0.3828 -0.2807
 5945TIP3    H117757   6.207   5.241   1.038  0.7771  2.0509 -0.4374
 5945TIP3    H217758   6.352   5.274   1.014  1.2587 -0.9096 -1.7423
 5946TIP3   OH217759   4.526   7.249   0.955  0.1805  0.0978 -0.3355
 5946TIP3    H117760   4.526   7.342   0.934 -0.2054  0.0750 -0.4474
 5946TIP3    H217761   4.440   7.233   0.994  0.8253  0.1030  1.0987
 5947TIP3   OH217762   6.345   7.463   4.429  0.3404  0.3359 -0.2934
 5947TIP3    H117763   6.324   7.516   4.505 -1.1713 -0.3823 -0.1841
 5947TIP3    H217764   6.341   7.524   4.355  1.8029  1.0297  0.1724
 5948TIP3   OH217765   8.170   5.574   2.266  0.4373  0.4330 -0.0197
 5948TIP3    H117766   8.238   5.635   2.294  2.5306 -1.8344 -0.0110
 5948TIP3    H217767   8.125   5.550   2.347  0.4622  0.9262  0.1457
 5949TIP3   OH217768   5.382   7.547   4.176 -0.3003 -0.1857 -0.1015
 5949TIP3    H117769   5.445   7.581   4.240  0.2155 -1.6878  0.2263
 5949TIP3    H217770   5.410   7.456   4.162 -1.7033 -0.5183 -0.8350
 5950TIP3   OH217771   7.202   7.478   1.610  0.3941  0.4965  0.1644
 5950TIP3    H117772   7.250   7.407   1.653  0.4528  1.5707  1.9244
 5950TIP3    H217773   7.212   7.461   1.517  1.8680 -0.8495  0.5503
 5951TIP3   OH217774   5.945   4.331   2.095 -0.5376  0.3460 -0.4738
 5951TIP3    H117775   5.892   4.402   2.133 -0.2173  0.4922 -0.2910
 5951TIP3    H217776   5.885   4.258   2.086  0.0809 -0.7548  3.3244
 5952TIP3   OH217777   8.341   0.074   1.763 -0.0443 -0.6316  0.2048
 5952TIP3    H117778   8.367  -0.014   1.789 -1.7394 -1.5880 -1.2266
 5952TIP3    H217779   8.373   0.082   1.673 -0.6996 -0.1248  0.0168
 5953TIP3   OH217780   4.772   5.846   2.776  0.0154  0.1566  0.2036
 5953TIP3    H117781   4.797   5.848   2.868 -0.3537 -0.2298  0.3148
 5953TIP3    H217782   4.783   5.754   2.751 -2.2025 -0.2065  0.5075
 5954TIP3   OH217783   7.670   7.956   2.098 -0.7618 -0.3719 -0.7285
 5954TIP3    H117784   7.585   7.941   2.139 -1.0316  0.2545 -1.0572
 5954TIP3    H217785   7.656   8.028   2.038  0.0489 -0.1421 -0.6549
 5955TIP3   OH217786   6.353   6.662   1.170 -0.3667  0.3961  0.8501
 5955TIP3    H117787   6.384   6.743   1.129 -1.2802  0.3407  0.0211
 5955TIP3    H217788   6.310   6.614   1.099 -0.6146 -0.4125  1.5309
 5956TIP3   OH217789   2.711   4.810   6.990  0.2606  0.2242  0.0578
 5956TIP3    H117790   2.732   4.893   6.946 -1.4434  1.1906  1.0054
 5956TIP3    H217791   2.732   4.742   6.926  0.5348  1.4562 -1.1710
 5957TIP3   OH217792   3.586   5.593   2.414 -0.2131  0.2563  0.0272
 5957TIP3    H117793   3.577   5.673   2.466  0.8374  1.6197 -1.8155
 5957TIP3    H217794   3.681   5.579   2.409 -0.3706 -0.7375 -0.2408
 5958TIP3   OH217795   8.390   0.540   2.276  0.5130 -0.4346  0.1574
 5958TIP3    H117796   8.363   0.611   2.334  0.5848 -0.6132  0.4114
 5958TIP3    H217797   8.426   0.584   2.199 -0.7261 -0.1922 -0.2943
 5959TIP3   OH217798   2.413   2.449   1.479  0.7744  0.3629  0.1174
 5959TIP3    H117799   2.393   2.378   1.541 -2.1674  1.9806  1.1352
 5959TIP3    H217800   2.456   2.405   1.406 -0.7085 -2.4685  0.8406
 5960TIP3   OH217801   7.441   4.625   0.402  0.2754 -0.6454 -0.1261
 5960TIP3    H117802   7.347   4.605   0.401  0.4982 -1.8283  0.7077
 5960TIP3    H217803   7.481   4.553   0.354  0.6794  0.3032 -1.2034
 5961TIP3   OH217804   1.330   0.568   0.691 -0.1743  0.0291  0.3976
 5961TIP3    H117805   1.282   0.627   0.749  0.9908 -0.7135  2.1389
 5961TIP3    H217806   1.273   0.492   0.683 -0.6578  0.4260 -0.0361
 5962TIP3   OH217807   8.431   5.632   2.956 -0.3267 -0.3346 -0.1908
 5962TIP3    H117808   8.508   5.686   2.976 -1.3202  1.2649 -0.5297
 5962TIP3    H217809   8.360   5.671   3.008 -0.7247 -2.3311  0.7874
 5963TIP3   OH217810   7.661   7.360   0.931  0.5170  0.0776  0.0623
 5963TIP3    H117811   7.597   7.307   0.978 -3.2786  1.8691 -2.7447
 5963TIP3    H217812   7.680   7.433   0.990 -1.5303  0.5074  0.2306
 5964TIP3   OH217813   5.186   5.468   7.203 -0.2367 -0.2223 -0.7576
 5964TIP3    H117814   5.222   5.397   7.149 -0.7361 -0.0592 -1.3070
 5964TIP3    H217815   5.110   5.499   7.154 -0.8600 -0.2548  0.1782
 5965TIP3   OH217816   7.702   0.998   0.499 -0.3016 -0.0077  0.0632
 5965TIP3    H117817   7.695   1.005   0.404  0.2898 -0.5765 -0.0230
 5965TIP3    H217818   7.679   0.907   0.519 -1.6551  0.4293  0.5873
 5966TIP3   OH217819   6.987   7.341   2.064  0.1739  0.2888 -0.1135
 5966TIP3    H117820   6.907   7.342   2.118  1.5937 -0.5163  2.0654
 5966TIP3    H217821   7.009   7.434   2.053 -0.5752  0.4859  0.0133
 5967TIP3   OH217822   5.889   7.317   3.129  0.9166 -0.3224  0.4747
 5967TIP3    H117823   5.937   7.384   3.080 -0.7553 -0.3222 -1.2346
 5967TIP3    H217824   5.937   7.236   3.113  1.0892 -0.0955 -0.1583
 5968TIP3   OH217825   4.993   5.897   0.142 -0.0790  0.0469  0.5304
 5968TIP3    H117826   4.907   5.879   0.180 -0.2862  1.4142  0.7264
 5968TIP3    H217827   4.981   5.977   0.091  1.8307  2.0886  3.1729
 5969TIP3   OH217828   1.227   7.863   5.242 -0.0313 -0.2608 -0.0151
 5969TIP3    H117829   1.238   7.868   5.147  1.1006  0.0893  0.1313
 5969TIP3    H217830   1.132   7.867   5.255 -0.1412  0.9237 -1.0665
 5970TIP3   OH217831   4.821   6.601   0.785  0.6579  0.0643  0.0674
 5970TIP3    H117832   4.909   6.597   0.823  0.2123  0.5382  1.1546
 5970TIP3    H217833   4.792   6.691   0.802 -0.5169 -0.4429  0.7744
 5971TIP3   OH217834   0.928   1.147   6.467 -0.4094  0.2485 -0.3976
 5971TIP3    H117835   0.966   1.059   6.472  0.0228  0.4618  0.1280
 5971TIP3    H217836   0.902   1.168   6.556 -1.3252  0.3038 -0.6762
 5972TIP3   OH217837   5.839   7.308   4.663  0.3284  0.1541  0.4405
 5972TIP3    H117838   5.838   7.212   4.666 -0.1655  0.1400 -0.2262
 5972TIP3    H217839   5.793   7.331   4.583  1.7143  0.9171 -0.1696
 5973TIP3   OH217840   3.059   2.556   5.660 -0.2013  0.1051  0.0059
 5973TIP3    H117841   3.083   2.493   5.592 -2.4391  0.3945 -1.1275
 5973TIP3    H217842   3.019   2.629   5.612  0.7610  1.6043  1.4409
 5974TIP3   OH217843   5.394   5.703   0.722  0.0118  0.4507 -0.0719
 5974TIP3    H117844   5.438   5.783   0.696  1.2048  0.7065  2.6172
 5974TIP3    H217845   5.322   5.732   0.779 -0.6645 -0.2838 -0.5303
 5975TIP3   OH217846   5.002   3.787   1.987  0.4489  0.2709  0.3390
 5975TIP3    H117847   4.928   3.733   2.016  1.9310 -1.8911  0.2964
 5975TIP3    H217848   5.023   3.754   1.899  2.3379 -0.1893  0.9194
 5976TIP3   OH217849   0.106   0.190   5.902  0.3543  0.8740 -0.2764
 5976TIP3    H117850   0.011   0.184   5.915  0.0634  0.7329 -2.2509
 5976TIP3    H217851   0.131   0.273   5.942 -0.6193  0.9637  0.1639
 5977TIP3   OH217852   0.840   0.433   4.994  0.3943  0.0865  0.1843
 5977TIP3    H117853   0.903   0.498   5.025  1.1320 -0.8973  0.7697
 5977TIP3    H217854   0.865   0.352   5.037 -1.7325 -0.1786  1.0218
 5978TIP3   OH217855   1.214   0.123   3.855  0.1145  0.1913 -0.3032
 5978TIP3    H117856   1.275   0.186   3.895  0.3686 -1.2877  1.7625
 5978TIP3    H217857   1.145   0.112   3.921 -0.3449 -1.0808 -0.9830
 5979TIP3   OH217858   1.002   2.572   6.581  0.7352  0.3231  0.2804
 5979TIP3    H117859   0.941   2.568   6.507  0.8607 -0.0090  0.1944
 5979TIP3    H217860   1.088   2.584   6.541  0.6906  1.1372  0.4173
 5980TIP3   OH217861   3.066   4.885   0.538  0.0157  0.1240 -0.1859
 5980TIP3    H117862   3.054   4.957   0.476 -0.7331 -0.3981 -0.6652
 5980TIP3    H217863   2.988   4.831   0.527 -0.3477  0.2503  1.5248
 5981TIP3   OH217864   5.096   8.104   5.447  0.5649 -1.1854 -0.3514
 5981TIP3    H117865   5.007   8.124   5.418  1.5064  3.1936 -0.5580
 5981TIP3    H217866   5.103   8.144   5.534  3.0361  0.6269 -1.3395
 5982TIP3   OH217867   0.208   1.919   4.901 -0.7722 -0.2095  0.0591
 5982TIP3    H117868   0.227   1.997   4.953  1.4207 -1.5431  1.3429
 5982TIP3    H217869   0.115   1.927   4.879 -1.2976  1.3311  2.6123
 5983TIP3   OH217870   0.900   7.197   5.340  0.2889 -0.1274  0.3025
 5983TIP3    H117871   0.893   7.271   5.401  2.0626  0.4979 -0.2119
 5983TIP3    H217872   0.982   7.155   5.364  0.0509 -1.0115 -0.4288
 5984TIP3   OH217873   6.597   7.634   4.404  0.3213  0.1262  0.1538
 5984TIP3    H117874   6.600   7.539   4.402 -1.1429  0.0807 -0.2018
 5984TIP3    H217875   6.510   7.657   4.373  1.4869  1.6599 -2.1865
 5985TIP3   OH217876   2.572   2.870   4.586  0.2541  0.0388  0.2401
 5985TIP3    H117877   2.588   2.959   4.620  0.2292  0.4705 -0.8748
 5985TIP3    H217878   2.477   2.860   4.593  0.0825  0.6641 -0.9860
 5986TIP3   OH217879   2.772   1.074   5.648  0.2866 -0.4594  0.0287
 5986TIP3    H117880   2.856   1.098   5.687 -0.4662 -0.0945  1.4381
 5986TIP3    H217881   2.729   1.019   5.713 -0.0412 -1.7197 -1.2229
 5987TIP3   OH217882   5.836   6.119   5.640  0.1209 -0.0969 -0.2786
 5987TIP3    H117883   5.797   6.153   5.559 -0.6692 -0.3824 -0.0121
 5987TIP3    H217884   5.923   6.089   5.612 -0.9140 -2.1297 -1.4808
 5988TIP3   OH217885   4.830   6.395   0.147  0.3656  0.4196 -0.3022
 5988TIP3    H117886   4.752   6.448   0.166 -1.0665 -2.2025  1.6803
 5988TIP3    H217887   4.891   6.417   0.217 -0.0095 -0.1002  0.1962
 5989TIP3   OH217888   3.422   2.365   5.041  0.0616  0.3694  0.2876
 5989TIP3    H117889   3.349   2.320   5.000  0.6117 -0.1737 -0.1135
 5989TIP3    H217890   3.420   2.335   5.132  0.6464 -0.7930 -0.0595
 5990TIP3   OH217891   0.839   1.324   3.966  0.0788  0.3626 -0.4369
 5990TIP3    H117892   0.771   1.331   4.032 -0.6463 -0.7999 -1.0386
 5990TIP3    H217893   0.795   1.286   3.889  1.4194 -0.5934 -0.7711
 5991TIP3   OH217894   6.572   8.045   6.507 -0.1498  0.9021 -0.7483
 5991TIP3    H117895   6.610   8.006   6.586 -1.1776  0.1366 -0.6291
 5991TIP3    H217896   6.497   8.094   6.538 -0.7027  0.3972 -1.2742
 5992TIP3   OH217897   1.271   0.268   4.974 -0.5631 -0.3645 -0.5005
 5992TIP3    H117898   1.263   0.258   4.879 -0.3144  0.0863 -0.5680
 5992TIP3    H217899   1.186   0.240   5.008 -0.8590  0.0487 -0.8978
 5993TIP3   OH217900   1.673   0.257   4.998 -0.0720  0.1161  0.3868
 5993TIP3    H117901   1.699   0.349   5.001  0.2712 -0.0135  1.6660
 5993TIP3    H217902   1.623   0.244   5.078 -1.5794 -0.3887 -0.6271
 5994TIP3   OH217903   2.516   2.441   6.478 -0.1437 -0.2207 -0.3490
 5994TIP3    H117904   2.523   2.388   6.557  1.1243 -1.4046 -1.2273
 5994TIP3    H217905   2.606   2.445   6.443 -0.6776  0.2826 -1.7303
 5995TIP3   OH217906   6.662   8.366   4.406  0.1697  0.3456 -0.2200
 5995TIP3    H117907   6.753   8.393   4.395 -0.2339  2.5426  1.4478
 5995TIP3    H217908   6.667   8.273   4.429  1.9438  0.2475 -0.9638
 5996TIP3   OH217909   5.393   2.878   0.724  0.2501 -0.0464 -0.1612
 5996TIP3    H117910   5.474   2.903   0.678 -0.2661  0.5624 -0.7451
 5996TIP3    H217911   5.349   2.961   0.742 -0.3115 -0.3898  0.0378
 5997TIP3   OH217912   0.404   1.613   6.880  0.9122  0.3077  0.2589
 5997TIP3    H117913   0.375   1.544   6.940  0.5722  0.4643  0.2739
 5997TIP3    H217914   0.467   1.664   6.931  0.3818  0.6328  0.5874
 5998TIP3   OH217915   4.583   6.042   0.397 -0.4713  0.0770  0.2126
 5998TIP3    H117916   4.605   6.117   0.453 -1.2982  0.4482  0.0403
 5998TIP3    H217917   4.495   6.018   0.423 -0.3063 -0.6760  0.0783
 5999TIP3   OH217918   7.817   2.152   3.992 -0.2090 -0.0444 -0.1180
 5999TIP3    H117919   7.833   2.245   4.008  1.1625 -0.2644 -0.1124
 5999TIP3    H217920   7.904   2.115   3.979 -0.9206 -0.7716 -3.3336
 6000TIP3   OH217921   2.776   1.438   5.709  0.4508 -0.2822  0.5923
 6000TIP3    H117922   2.698   1.425   5.762 -0.2143  1.0706 -0.0317
 6000TIP3    H217923   2.829   1.359   5.723 -0.9370 -1.1164  1.1670
 6001TIP3   OH217924   6.209   7.550   5.401 -0.3348  0.3640  0.2345
 6001TIP3    H117925   6.263   7.551   5.321 -0.0827  0.3238  0.4050
 6001TIP3    H217926   6.124   7.585   5.372 -0.7097 -1.0176 -0.3752
 6002TIP3   OH217927   0.681   1.641   6.334 -0.0123 -0.6167 -0.2869
 6002TIP3    H117928   0.638   1.608   6.254 -1.5958 -0.4263  0.4631
 6002TIP3    H217929   0.611   1.685   6.382  1.1919  0.3032  0.6597
 6003TIP3   OH217930   0.945   1.747   6.034 -0.0632 -0.2987 -0.1385
 6003TIP3    H117931   1.001   1.822   6.053  0.8181 -1.0767  0.3675
 6003TIP3    H217932   0.953   1.691   6.112 -0.1578 -1.2522 -0.8117
 6004TIP3   OH217933   8.254   4.097   1.381  0.4864  0.4271  0.3941
 6004TIP3    H117934   8.322   4.033   1.360 -0.2315  0.0246 -0.7153
 6004TIP3    H217935   8.183   4.078   1.320 -0.3755  1.2536  1.1289
 6005TIP3   OH217936   2.599   0.335   3.800 -0.3106 -0.0559 -0.7700
 6005TIP3    H117937   2.648   0.416   3.790  0.3433 -0.4548 -0.7616
 6005TIP3    H217938   2.507   0.364   3.807 -0.0046  0.7429  0.1013
 6006TIP3   OH217939   5.760   8.240   4.642 -0.1266  0.5142  0.0816
 6006TIP3    H117940   5.759   8.311   4.578  0.4914  0.4974  0.0440
 6006TIP3    H217941   5.754   8.160   4.589  0.4568  0.4966  0.0286
 6007TIP3   OH217942   1.555   3.875   6.827 -0.1519 -0.3298 -0.6592
 6007TIP3    H117943   1.556   3.938   6.899  0.8543 -0.0102 -0.9441
 6007TIP3    H217944   1.494   3.913   6.763  0.0642  0.1003 -0.6115
 6008TIP3   OH217945   1.252   1.773   5.063 -0.6750 -0.4591  0.1185
 6008TIP3    H117946   1.192   1.755   5.136 -1.7533 -1.0836 -0.9073
 6008TIP3    H217947   1.215   1.850   5.020 -0.5717 -0.6778 -0.3563
 6009TIP3   OH217948   5.258   7.277   0.089  0.0133 -0.5756 -0.0367
 6009TIP3    H117949   5.328   7.285   0.024 -1.3445 -2.2593 -1.7506
 6009TIP3    H217950   5.264   7.187   0.120 -0.0379 -0.0929  1.4051
 6010TIP3   OH217951   0.407   1.338   3.807  0.1401 -0.3455 -0.1571
 6010TIP3    H117952   0.480   1.287   3.844 -0.4573 -0.8998  0.2525
 6010TIP3    H217953   0.411   1.319   3.713 -0.2227 -1.3555  0.0157
 6011TIP3   OH217954   0.163   0.272   4.143  0.5187  0.0323 -0.6907
 6011TIP3    H117955   0.132   0.330   4.073  0.0932  0.6428 -0.0003
 6011TIP3    H217956   0.106   0.195   4.136 -1.4967  1.3250  0.8448
 6012TIP3   OH217957   7.080   7.597   4.043 -0.2587 -0.4379 -0.3377
 6012TIP3    H117958   7.140   7.522   4.042 -0.3689 -0.5280 -0.1652
 6012TIP3    H217959   7.117   7.657   4.108 -0.5760 -0.6730  0.0596
 6013TIP3   OH217960   5.320   4.389   1.426  0.2134  0.4203 -0.0467
 6013TIP3    H117961   5.396   4.438   1.458  0.4711 -0.2131  0.3223
 6013TIP3    H217962   5.255   4.456   1.404  0.7596  0.9490 -0.0526
 6014TIP3   OH217963   2.919   3.391   0.417 -0.1313 -0.1168 -0.4427
 6014TIP3    H117964   2.833   3.350   0.410 -0.4351  0.3409  0.5815
 6014TIP3    H217965   2.978   3.329   0.374 -0.8893 -0.6817 -0.6837
 6015TIP3   OH217966   6.671   5.821   6.651 -0.3476 -0.5053 -0.0047
 6015TIP3    H117967   6.706   5.890   6.707 -3.5926  0.4467  0.9335
 6015TIP3    H217968   6.639   5.754   6.712 -2.0296 -0.4097 -0.7485
 6016TIP3   OH217969   2.196   1.992   5.547 -0.3132  0.3108  0.2252
 6016TIP3    H117970   2.147   1.965   5.469 -1.7564 -0.0973  1.2656
 6016TIP3    H217971   2.241   2.072   5.520  1.2775 -1.2155 -1.8202
 6017TIP3   OH217972   1.390   0.715   5.415  0.1237 -0.1165 -0.0998
 6017TIP3    H117973   1.403   0.756   5.500 -3.2945  1.3297 -0.1977
 6017TIP3    H217974   1.399   0.787   5.352 -1.4723 -0.3505 -0.6199
 6018TIP3   OH217975   0.458   1.461   6.637  0.3958  0.1682 -0.2587
 6018TIP3    H117976   0.484   1.515   6.712  0.3091 -1.2052  0.7785
 6018TIP3    H217977   0.488   1.373   6.660  1.0255 -0.1306 -2.1766
 6019TIP3   OH217978   4.351   5.783   0.130 -0.5932 -0.2628  0.2591
 6019TIP3    H117979   4.415   5.855   0.128 -1.1088  0.2093  0.7579
 6019TIP3    H217980   4.291   5.802   0.058 -0.3556 -0.5400 -0.0131
 6020TIP3   OH217981   2.950   4.010   1.122 -0.5904 -0.2039 -0.1733
 6020TIP3    H117982   3.024   3.952   1.101 -1.6134 -0.8145 -2.2688
 6020TIP3    H217983   2.947   4.072   1.049 -1.2262  0.7463  0.6556
 6021TIP3   OH217984   0.836   2.409   4.877 -0.4107  0.5869 -0.1505
 6021TIP3    H117985   0.918   2.366   4.854 -1.2457 -1.0430 -0.2199
 6021TIP3    H217986   0.843   2.497   4.840  1.3211  0.4871 -0.0798
 6022TIP3   OH217987   5.465   4.651   0.086  0.2345 -0.1047  0.1016
 6022TIP3    H117988   5.451   4.722   0.148 -0.9835 -0.1524 -0.1027
 6022TIP3    H217989   5.483   4.574   0.140  0.2572  0.0841  0.3614
 6023TIP3   OH217990   0.637   0.968   5.496 -0.4432 -0.2326  0.4694
 6023TIP3    H117991   0.732   0.976   5.505 -0.4236 -0.8586  0.8221
 6023TIP3    H217992   0.606   1.058   5.488  0.2447 -0.0555 -0.2837
 6024TIP3   OH217993   2.963   1.699   5.018 -0.2945 -0.1163  0.0143
 6024TIP3    H117994   2.886   1.753   5.032 -0.5919 -0.5943  0.2430
 6024TIP3    H217995   3.002   1.688   5.105 -0.2207 -0.2451 -0.0330
 6025TIP3   OH217996   4.828   1.792   5.709 -0.1358 -0.2070 -0.4879
 6025TIP3    H117997   4.760   1.858   5.717 -0.2985 -0.4503  0.1509
 6025TIP3    H217998   4.797   1.734   5.641  0.1787  0.5821 -1.3150
 6026TIP3   OH217999   5.212   1.969   4.208  0.2049  0.0578 -0.0118
 6026TIP3    H118000   5.268   2.046   4.212 -0.8061  0.8535 -0.9012
 6026TIP3    H218001   5.272   1.897   4.185  1.2217  0.4825  1.2600
 6027TIP3   OH218002   4.217   7.367   0.653 -0.0197  0.3112  0.0587
 6027TIP3    H118003   4.200   7.303   0.722  0.1442  0.2922  0.0816
 6027TIP3    H218004   4.173   7.447   0.683 -0.2758  0.1905  0.0009
 6028TIP3   OH218005   5.449   0.089   3.592 -0.1761  0.1261 -0.0801
 6028TIP3    H118006   5.450   0.030   3.667  0.0324 -0.6596 -0.6911
 6028TIP3    H218007   5.496   0.167   3.622  0.6032 -0.4977  0.3424
 6029TIP3   OH218008   2.073   1.849   5.822  0.0753  0.3437 -0.0786
 6029TIP3    H118009   2.120   1.910   5.879 -0.4032  0.3369  0.3219
 6029TIP3    H218010   2.101   1.872   5.733  0.6675  0.4862  0.1423
 6030TIP3   OH218011   5.776   7.873   4.003 -1.0611 -0.6084 -0.0247
 6030TIP3    H118012   5.753   7.962   3.977  0.9788 -0.3536 -1.0643
 6030TIP3    H218013   5.847   7.884   4.066 -1.5007 -1.4716  0.6333
 6031TIP3   OH218014   1.553   0.013   4.336 -0.7171  0.6394 -0.2794
 6031TIP3    H118015   1.527  -0.073   4.367 -1.0288  1.0610  0.6339
 6031TIP3    H218016   1.529   0.073   4.407  1.6042  1.1976  0.0804
 6032TIP3   OH218017   3.320   1.160   4.144 -0.0698 -0.1576  0.1013
 6032TIP3    H118018   3.331   1.248   4.109 -1.2275  0.3303  0.9418
 6032TIP3    H218019   3.275   1.172   4.227  2.5675 -1.3042  1.7800
 6033TIP3   OH218020   3.139   1.166   4.891  0.2844  0.0649 -0.4345
 6033TIP3    H118021   3.075   1.230   4.920  0.6360  0.2016  0.0563
 6033TIP3    H218022   3.131   1.094   4.953  0.5560  0.0535 -0.4117
 6034TIP3   OH218023   0.526   7.857   4.326  0.1021 -0.0045 -0.4719
 6034TIP3    H118024   0.620   7.841   4.334 -0.0879 -0.9187 -0.0436
 6034TIP3    H218025   0.507   7.924   4.392  0.2576 -0.6136  0.1893
 6035TIP3   OH218026   3.625   7.529   6.012 -0.5463  0.0768 -0.0561
 6035TIP3    H118027   3.672   7.536   5.929 -0.8679 -1.7743 -0.4213
 6035TIP3    H218028   3.693   7.508   6.076 -0.4791  0.1842 -0.0930
 6036TIP3   OH218029   3.002   1.306   5.733  0.4059 -0.1462 -0.3058
 6036TIP3    H118030   3.004   1.268   5.821 -1.3504 -2.7025 -1.3335
 6036TIP3    H218031   3.078   1.364   5.731  1.1977 -1.0026  2.4770
 6037TIP3   OH218032   6.819   8.002   3.751 -0.2824  0.3054  0.2483
 6037TIP3    H118033   6.816   7.940   3.678  0.6625  1.8627 -1.1523
 6037TIP3    H218034   6.904   7.986   3.791  0.4474  1.4367 -0.8094
 6038TIP3   OH218035   4.424   0.364   6.661  0.0816 -0.0609 -0.2436
 6038TIP3    H118036   4.340   0.407   6.678 -0.0110 -0.1586 -0.4549
 6038TIP3    H218037   4.477   0.430   6.617  0.0569 -0.0524 -0.2606
 6039TIP3   OH218038   4.412   1.865   4.739 -0.7261  0.5920  0.1927
 6039TIP3    H118039   4.421   1.959   4.756  1.0366  0.4439  0.1801
 6039TIP3    H218040   4.478   1.824   4.795  0.3391 -0.4323 -1.7566
 6040TIP3   OH218041   4.137   1.444   5.805 -0.0047  0.9753 -0.4275
 6040TIP3    H118042   4.205   1.511   5.795 -0.0363  1.0013 -0.4738
 6040TIP3    H218043   4.179   1.374   5.854 -0.3361  1.5850  0.7606
 6041TIP3   OH218044   1.832   1.795   5.187 -0.3918 -0.5139  0.2626
 6041TIP3    H118045   1.742   1.783   5.156  0.0170 -0.7626 -0.8383
 6041TIP3    H218046   1.880   1.826   5.110  0.7907 -1.8162  0.4647
 6042TIP3   OH218047   0.817   1.073   4.717  0.2471 -0.0713  0.3543
 6042TIP3    H118048   0.829   1.142   4.782  0.3858 -0.1557  0.4192
 6042TIP3    H218049   0.903   1.030   4.710  0.0064 -0.6240  0.7563
 6043TIP3   OH218050   0.459   0.133   4.526 -0.7106  0.3268  0.2937
 6043TIP3    H118051   0.367   0.108   4.526 -0.4228 -0.8710 -1.6372
 6043TIP3    H218052   0.487   0.124   4.617 -2.7108  1.5519  1.0566
 6044TIP3   OH218053   4.081   0.836   5.614 -0.3696 -0.5073  0.5871
 6044TIP3    H118054   4.104   0.745   5.633  0.4635 -0.3058  0.5495
 6044TIP3    H218055   3.987   0.841   5.633 -0.3111 -1.2381  1.0958
 6045TIP3   OH218056   1.077   1.765   5.270  0.4580 -0.6169 -0.2619
 6045TIP3    H118057   0.989   1.790   5.243  0.2021 -0.0335  1.1006
 6045TIP3    H218058   1.063   1.700   5.339  1.1045 -0.9101 -0.4015
 6046TIP3   OH218059   1.218   7.118   6.673 -0.2044  0.0209  0.0900
 6046TIP3    H118060   1.251   7.183   6.734  1.0247  0.8114 -1.3813
 6046TIP3    H218061   1.182   7.169   6.600 -0.5803 -0.9286 -0.4074
 6047TIP3   OH218062   6.242   4.797   2.320  0.4108  0.0144  0.0306
 6047TIP3    H118063   6.336   4.803   2.341  0.3212  0.4214  0.3355
 6047TIP3    H218064   6.231   4.710   2.283  0.9262 -0.0115 -0.0700
 6048TIP3   OH218065   7.185   8.292   4.365 -0.0827  0.1191  0.0602
 6048TIP3    H118066   7.205   8.198   4.363 -1.8194 -0.2739  0.0714
 6048TIP3    H218067   7.220   8.322   4.449  0.4356 -0.5240  0.0816
 6049TIP3   OH218068   4.660   3.581   5.047 -0.1098 -0.0268  0.2927
 6049TIP3    H118069   4.615   3.647   5.099 -1.0400 -1.4759  1.3565
 6049TIP3    H218070   4.730   3.549   5.104 -0.9889 -1.4524  0.6109
 6050TIP3   OH218071   1.475   8.272   5.957  0.1992  0.5711  0.2516
 6050TIP3    H118072   1.506   8.296   6.045  0.4159  0.7728  0.1228
 6050TIP3    H218073   1.544   8.305   5.898  0.3211 -0.0478  0.0460
 6051TIP3   OH218074   2.120   1.582   5.455  0.5018  0.0781 -0.1121
 6051TIP3    H118075   2.170   1.528   5.394  1.3283  0.5673  0.1247
 6051TIP3    H218076   2.028   1.558   5.439  0.8377 -1.1641 -0.2152
 6052TIP3   OH218077   3.653   1.319   5.425  0.4471  0.1546 -0.2359
 6052TIP3    H118078   3.677   1.390   5.366  2.3812 -1.2916 -1.2613
 6052TIP3    H218079   3.690   1.345   5.510  0.6832  0.5960 -0.4725
 6053TIP3   OH218080   3.078   2.172   5.665 -0.0215 -0.1337  0.3135
 6053TIP3    H118081   3.031   2.152   5.746  0.0489 -1.0295  0.1312
 6053TIP3    H218082   3.171   2.161   5.687 -0.0461 -1.2234 -0.1232
 6054TIP3   OH218083   1.372   7.158   5.124  0.5184 -0.4437 -0.4800
 6054TIP3    H118084   1.351   7.140   5.032 -3.5402  1.4913 -0.0742
 6054TIP3    H218085   1.422   7.240   5.121 -1.8186  1.0239 -0.8895
 6055TIP3   OH218086   1.907   1.297   5.619 -0.1223 -0.4279 -0.0823
 6055TIP3    H118087   1.871   1.374   5.574  1.4534  0.3181 -0.0731
 6055TIP3    H218088   1.829   1.247   5.644 -1.2268  1.5491  0.6188
 6056TIP3   OH218089   3.269   1.799   4.913 -0.2947  0.0823 -0.1127
 6056TIP3    H118090   3.184   1.816   4.953  0.0160  3.6706 -0.8402
 6056TIP3    H218091   3.249   1.783   4.820 -0.2913 -0.4726 -0.0196
 6057TIP3   OH218092   3.139   2.573   6.687  0.0144 -0.2077  0.0681
 6057TIP3    H118093   3.128   2.644   6.623  2.1250 -0.1960 -0.3094
 6057TIP3    H218094   3.163   2.618   6.768  1.1637 -0.4568 -0.1235
 6058TIP3   OH218095   3.004   1.187   5.476  0.0377 -0.4461  0.0687
 6058TIP3    H118096   3.068   1.220   5.412 -0.1182  0.0923  0.1846
 6058TIP3    H218097   3.048   1.197   5.560  0.1045 -0.8193  0.0778
 6059TIP3   OH218098   3.136   2.516   5.270  0.0795 -0.3791 -0.1599
 6059TIP3    H118099   3.048   2.543   5.243  0.3802 -0.5671 -1.3329
 6059TIP3    H218100   3.120   2.447   5.335 -0.6467 -0.9249 -0.9018
 6060TIP3   OH218101   6.657   8.069   4.729  0.6368 -0.0184  0.6533
 6060TIP3    H118102   6.644   8.106   4.641 -0.8702  1.8974  1.6196
 6060TIP3    H218103   6.695   7.983   4.714 -0.5467 -0.1404 -1.9236
 6061TIP3   OH218104   5.120   6.825   0.526  0.1240 -0.0150 -0.6373
 6061TIP3    H118105   5.132   6.904   0.473 -1.7120  1.7128  1.4186
 6061TIP3    H218106   5.169   6.844   0.607 -0.4618 -0.9023 -0.0689
 6062TIP3   OH218107   1.906   0.901   4.195 -0.3486  0.6781 -0.7054
 6062TIP3    H118108   1.881   0.813   4.223 -0.5968  0.8613 -0.3512
 6062TIP3    H218109   1.847   0.959   4.243  1.3649  1.1706  0.8559
 6063TIP3   OH218110   5.617   1.480   4.862  0.1452 -0.1630 -0.0231
 6063TIP3    H118111   5.653   1.567   4.844 -0.9570  0.4254  0.5919
 6063TIP3    H218112   5.528   1.483   4.827 -0.4033 -0.5514  1.3206
 6064TIP3   OH218113   5.871   7.256   5.163 -0.8353 -0.8123  0.1975
 6064TIP3    H118114   5.938   7.245   5.231 -0.1369 -2.0990 -0.6783
 6064TIP3    H218115   5.919   7.288   5.087 -1.1789 -1.8237 -0.4654
 6065TIP3   OH218116   2.123   1.640   5.986  0.7028  0.8980  0.4451
 6065TIP3    H118117   2.124   1.726   5.944  1.5559  0.3373 -0.7168
 6065TIP3    H218118   2.042   1.599   5.955 -0.1427  1.6198  1.7011
 6066TIP3   OH218119   6.416   6.237   0.792  0.5285 -0.1974  0.4975
 6066TIP3    H118120   6.433   6.256   0.884  0.2722  0.7596  0.3462
 6066TIP3    H218121   6.347   6.171   0.794 -2.1808  2.5399  0.9496
 6067TIP3   OH218122   3.700   0.984   3.980 -0.2091 -0.0119 -0.0226
 6067TIP3    H118123   3.671   0.899   4.014 -0.5000  0.1951  0.2581
 6067TIP3    H218124   3.680   1.045   4.051  1.1670  0.1020  0.2989
 6068TIP3   OH218125   2.786   1.233   4.858 -0.3028 -0.0032  0.9298
 6068TIP3    H118126   2.804   1.248   4.766 -0.9222  0.5874  0.9035
 6068TIP3    H218127   2.831   1.304   4.904  0.3848 -0.5544  1.1184
 6069TIP3   OH218128   0.550   1.574   3.928  0.2867 -0.4331  0.0589
 6069TIP3    H118129   0.514   1.504   3.874  1.0982 -0.6378 -0.2313
 6069TIP3    H218130   0.550   1.538   4.017 -1.6900  0.1562  0.3255
 6070TIP3   OH218131   3.228   0.802   2.799 -0.5258  0.0725  0.3162
 6070TIP3    H118132   3.324   0.806   2.793 -0.2271 -3.5547  1.2909
 6070TIP3    H218133   3.198   0.884   2.761  2.8216 -0.6519 -4.3458
 6071TIP3   OH218134   2.151   1.624   4.999  0.2336  0.2790 -0.0059
 6071TIP3    H118135   2.136   1.533   4.977 -1.8954  0.3505  1.0511
 6071TIP3    H218136   2.233   1.646   4.955  1.5670 -2.5569  0.9248
 6072TIP3   OH218137   2.721   1.985   6.358 -0.1999  0.2294  0.3355
 6072TIP3    H118138   2.646   2.028   6.399 -0.1198  0.0775  0.6392
 6072TIP3    H218139   2.796   2.010   6.413 -0.2229 -0.6986  0.7952
 6073TIP3   OH218140   1.796   2.292   6.587  0.2635 -0.3705  0.1743
 6073TIP3    H118141   1.799   2.253   6.674  0.2399 -0.2870  0.2121
 6073TIP3    H218142   1.708   2.271   6.554 -0.0913  0.4796  0.5764
 6074TIP3   OH218143   5.684   2.754   6.468  0.1029 -0.8137  0.1419
 6074TIP3    H118144   5.679   2.664   6.502 -3.3637 -0.3885  0.9317
 6074TIP3    H218145   5.661   2.746   6.376 -0.4478 -0.7190  0.2687
 6075TIP3   OH218146   5.568   1.191   4.660 -0.5039  0.2489  0.4111
 6075TIP3    H118147   5.640   1.141   4.620  0.2080  1.3452  0.3224
 6075TIP3    H218148   5.563   1.271   4.608 -0.8681  0.8031  1.2976
 6076TIP3   OH218149   3.959   1.287   6.664  0.1187 -0.0762 -0.1664
 6076TIP3    H118150   3.997   1.278   6.576  0.6662 -0.3072  0.0883
 6076TIP3    H218151   3.910   1.369   6.661 -0.4387 -0.4287 -0.8951
 6077TIP3   OH218152   8.287   8.382   3.827 -0.1974  0.0899 -0.2740
 6077TIP3    H118153   8.339   8.309   3.859 -0.6380 -0.8993 -1.7521
 6077TIP3    H218154   8.247   8.420   3.906 -0.2265 -1.4594  0.4714
 6078TIP3   OH218155   3.380   2.320   6.133  0.4444 -0.4255  0.7103
 6078TIP3    H118156   3.355   2.348   6.221  2.4866 -0.7363  1.4112
 6078TIP3    H218157   3.306   2.267   6.103 -0.2217 -0.4147  2.2672
 6079TIP3   OH218158   2.752   1.555   4.752  0.1175 -0.3238 -0.3352
 6079TIP3    H118159   2.791   1.640   4.731 -0.0284 -0.3204 -0.6036
 6079TIP3    H218160   2.826   1.501   4.778  0.5104 -0.7436 -2.2340
 6080TIP3   OH218161   8.650   8.154   3.308  0.3948  0.5105  0.6151
 6080TIP3    H118162   8.682   8.103   3.234 -1.4706 -0.6270  0.5535
 6080TIP3    H218163   8.673   8.102   3.385  1.1930  1.0660  0.7544
 6081TIP3   OH218164   5.941   8.142   5.981 -0.5097  0.1881 -0.6559
 6081TIP3    H118165   5.879   8.215   5.985 -1.4254 -0.5013 -1.7074
 6081TIP3    H218166   5.982   8.150   5.895  1.7860  1.3403  0.5036
 6082TIP3   OH218167   2.967   2.204   4.589  0.1414 -0.2174  0.0618
 6082TIP3    H118168   2.947   2.280   4.643  2.6440  0.7288 -0.2947
 6082TIP3    H218169   2.903   2.208   4.517 -0.1382  1.1940  0.3806
 6083TIP3   OH218170   2.231   2.061   5.944  0.5196 -0.5317 -0.2374
 6083TIP3    H118171   2.322   2.079   5.965  0.3111 -0.0764  0.3002
 6083TIP3    H218172   2.183   2.086   6.023 -0.0553 -0.8845 -0.4723
 6084TIP3   OH218173   1.022   6.459   5.316 -0.1249  0.4496 -0.5523
 6084TIP3    H118174   1.118   6.470   5.319 -0.0369 -0.3029 -0.5705
 6084TIP3    H218175   0.993   6.526   5.254  0.3291  1.0788 -0.0907
 6085TIP3   OH218176   2.292   1.695   6.635  0.3403 -0.7838 -0.6514
 6085TIP3    H118177   2.286   1.603   6.608  1.7665 -1.2919  0.6511
 6085TIP3    H218178   2.205   1.715   6.671  0.4885 -2.1291  0.5303
 6086TIP3   OH218179   6.892   7.546   3.849  0.7338  0.4110 -0.0060
 6086TIP3    H118180   6.950   7.538   3.925 -0.3639 -0.8996  0.7060
 6086TIP3    H218181   6.882   7.640   3.837  1.7074  0.6427  0.8558
 6087TIP3   OH218182   4.396   1.445   5.445  0.7043  0.3810  0.0074
 6087TIP3    H118183   4.337   1.518   5.465  0.5068  0.2856 -0.2237
 6087TIP3    H218184   4.346   1.367   5.470 -1.0308 -0.0083 -4.2051
 6088TIP3   OH218185   3.406   2.053   6.878  0.4728 -0.1624  0.3457
 6088TIP3    H118186   3.390   2.003   6.798  0.7102  1.0425 -0.4693
 6088TIP3    H218187   3.407   2.145   6.849  2.4074  0.1750  1.4265
 6089TIP3   OH218188   4.316   2.932   5.730 -0.0790  0.2292  0.4209
 6089TIP3    H118189   4.273   2.851   5.757  1.2943 -0.3071  1.0365
 6089TIP3    H218190   4.246   2.982   5.687 -0.3912 -2.2854 -2.1949
 6090TIP3   OH218191   5.263   1.293   6.738  0.5254  0.1508  0.4817
 6090TIP3    H118192   5.298   1.237   6.807  1.1976 -0.3204 -0.2359
 6090TIP3    H218193   5.325   1.365   6.732 -0.0428  0.6934  1.0179
 6091TIP3   OH218194   1.732   7.408   7.195  0.3251 -0.5265  0.7266
 6091TIP3    H118195   1.815   7.363   7.184  0.4230 -0.1651 -0.0521
 6091TIP3    H218196   1.756   7.496   7.222  0.3088  0.3308 -1.9268
 6092TIP3   OH218197   5.016   0.561   5.607 -0.1272  0.5571  0.4690
 6092TIP3    H118198   5.093   0.595   5.563 -0.1520  0.7969  0.6092
 6092TIP3    H218199   5.015   0.467   5.587  0.6368  0.4035  1.1187
 6093TIP3   OH218200   6.819   8.210   2.901  0.0981 -0.2385  0.1629
 6093TIP3    H118201   6.755   8.239   2.966  0.0968  0.3872 -0.1170
 6093TIP3    H218202   6.785   8.241   2.818  1.3244  1.0596  0.1344
 6094TIP3   OH218203   3.038   1.235   4.130 -0.3898 -0.0891 -0.3704
 6094TIP3    H118204   3.031   1.327   4.104 -0.7302 -0.4275 -1.5258
 6094TIP3    H218205   3.085   1.194   4.058 -1.1883 -1.0211 -0.3730
 6095TIP3   OH218206   2.941   1.212   6.002  0.0566  0.0167 -0.6391
 6095TIP3    H118207   2.926   1.295   6.048  1.3331  1.5766 -2.9347
 6095TIP3    H218208   3.005   1.166   6.056  0.2394  1.0664  0.0570
 6096TIP3   OH218209   2.393   1.416   5.716 -0.3607 -0.0097  0.0802
 6096TIP3    H118210   2.389   1.383   5.626  1.1591  0.5413 -0.2029
 6096TIP3    H218211   2.303   1.410   5.748 -0.8045 -0.7452 -1.2839
 6097TIP3   OH218212   0.492   2.625   5.445  0.3904 -0.1981  0.1376
 6097TIP3    H118213   0.439   2.580   5.379  0.3076 -0.6079  0.4801
 6097TIP3    H218214   0.459   2.715   5.446  0.9952  0.0388 -1.0117
 6098TIP3   OH218215   1.820   1.547   5.998  0.1688  0.7177 -0.3966
 6098TIP3    H118216   1.848   1.532   5.908 -1.2973  2.3234 -1.1544
 6098TIP3    H218217   1.733   1.585   5.990 -1.0288 -1.4140  1.7965
 6099TIP3   OH218218   2.001   6.671   5.565  0.0688 -0.1858  0.2162
 6099TIP3    H118219   1.959   6.618   5.497  0.3763  0.4513 -0.4732
 6099TIP3    H218220   1.995   6.617   5.644 -1.3519 -0.4378 -0.0457
 6100TIP3   OH218221   3.989   1.252   5.650 -0.6633  0.1205 -0.1814
 6100TIP3    H118222   4.029   1.312   5.713 -0.4194  0.3480 -0.5513
 6100TIP3    H218223   3.986   1.301   5.568 -1.7357  0.1126 -0.1489
 6101TIP3   OH218224   1.844   2.168   4.599  0.3301  0.2667  0.0279
 6101TIP3    H118225   1.831   2.198   4.509  2.2234 -1.0201 -0.7129
 6101TIP3    H218226   1.921   2.215   4.629 -0.3563  0.7680  1.0387
 6102TIP3   OH218227   3.185   1.307   4.353  0.4585 -0.3944 -0.5551
 6102TIP3    H118228   3.151   1.354   4.429  0.5353  0.3217 -0.9591
 6102TIP3    H218229   3.107   1.276   4.307  0.3536  0.6170 -1.0848
 6103TIP3   OH218230   2.668   1.082   5.052 -0.0344  0.2026  0.0200
 6103TIP3    H118231   2.715   1.162   5.029 -0.7130  0.7614  0.5481
 6103TIP3    H218232   2.737   1.017   5.066  0.5296  0.7440 -0.2107
 6104TIP3   OH218233   3.807   0.432   7.244  0.3501  0.2699  0.0756
 6104TIP3    H118234   3.731   0.490   7.242  0.1624  0.0568  1.0569
 6104TIP3    H218235   3.770   0.344   7.249  0.6217  0.0007 -2.0134
 6105TIP3   OH218236   4.260   1.774   5.173 -0.2092  0.1330 -0.6048
 6105TIP3    H118237   4.238   1.821   5.093 -1.2042  1.8253  0.6151
 6105TIP3    H218238   4.239   1.836   5.243  2.9561 -0.4144  0.8820
 6106TIP3   OH218239   0.970   0.120   4.058  0.4111  0.0363 -0.0364
 6106TIP3    H118240   0.925   0.039   4.038  1.5090 -0.4887 -0.4285
 6106TIP3    H218241   0.913   0.189   4.024 -0.2559 -0.5995 -0.1961
 6107TIP3   OH218242   0.591   0.639   3.398 -0.3007  0.0320 -0.7116
 6107TIP3    H118243   0.639   0.609   3.321  1.1878 -0.9689  0.5595
 6107TIP3    H218244   0.530   0.705   3.365  0.1594 -0.5457 -2.7614
 6108TIP3   OH218245   3.122   3.303   5.500  0.2370 -0.0144  0.1952
 6108TIP3    H118246   3.120   3.376   5.562  0.0720 -0.1847  0.3945
 6108TIP3    H218247   3.113   3.344   5.414  0.0957  0.1962  0.3079
 6109TIP3   OH218248   4.518   1.019   2.746 -0.1122  0.3759 -0.2202
 6109TIP3    H118249   4.502   1.112   2.728 -0.9923  0.5174  1.2213
 6109TIP3    H218250   4.523   0.978   2.659 -1.0832  1.5375 -0.8404
 6110TIP3   OH218251   1.704   1.712   4.755  0.4248 -0.0581 -0.0010
 6110TIP3    H118252   1.789   1.737   4.790  0.6830  2.9943 -2.5749
 6110TIP3    H218253   1.641   1.763   4.806  0.3804  0.0524 -0.1657
 6111TIP3   OH218254   0.805   3.428   5.073  0.3293 -0.1051 -0.6017
 6111TIP3    H118255   0.721   3.387   5.054  1.2868 -1.6591 -1.6003
 6111TIP3    H218256   0.830   3.472   4.991  0.7020 -0.0207 -0.4464
 6112TIP3   OH218257   2.725   3.187   6.615 -0.7790 -0.1135  0.1909
 6112TIP3    H118258   2.704   3.272   6.654 -0.0197 -0.5941  1.6999
 6112TIP3    H218259   2.741   3.129   6.690  1.3363 -0.9169 -0.8362
 6113TIP3   OH218260   7.955   8.397   3.454 -0.0597  0.2540  0.0626
 6113TIP3    H118261   7.983   8.324   3.510  0.8557 -0.2058 -0.9923
 6113TIP3    H218262   7.859   8.388   3.451  0.1423 -1.8061 -1.2671
 6114TIP3   OH218263   8.437   8.210   3.965 -0.5037  0.3761 -0.2303
 6114TIP3    H118264   8.487   8.268   4.023 -0.9797  0.2621  0.3018
 6114TIP3    H218265   8.419   8.132   4.019  1.7812 -1.1248 -1.5401
 6115TIP3   OH218266   3.114   0.918   7.155  0.1797  0.0482  0.5249
 6115TIP3    H118267   3.045   0.958   7.101 -0.6680 -2.3003 -0.1864
 6115TIP3    H218268   3.094   0.946   7.244 -1.1902  0.0871  0.2135
 6116TIP3   OH218269   0.422   7.214   3.046  0.0452  0.3093 -0.3896
 6116TIP3    H118270   0.430   7.154   2.972  0.3698  0.3708 -0.4074
 6116TIP3    H218271   0.337   7.257   3.034 -0.1035 -0.0105 -0.4771
 6117TIP3   OH218272   1.429   2.016   3.503 -0.1565 -0.3084  0.1809
 6117TIP3    H118273   1.504   2.011   3.445 -0.5406  0.4108 -0.3854
 6117TIP3    H218274   1.367   2.073   3.457 -1.6347 -2.0570 -0.0261
 6118TIP3   OH218275   0.440   2.533   7.255 -0.3328 -0.2946  0.0746
 6118TIP3    H118276   0.496   2.457   7.241  0.8224  0.8584 -1.8246
 6118TIP3    H218277   0.488   2.606   7.216 -2.4121  1.0186 -0.1365
 6119TIP3   OH218278   1.697   2.804   5.294  0.0057  0.0780 -0.6334
 6119TIP3    H118279   1.719   2.879   5.348 -0.9390 -1.0507  1.3549
 6119TIP3    H218280   1.647   2.841   5.221  0.4705  1.4842 -0.2579
 6120TIP3   OH218281   5.453   0.674   6.120  0.2160 -0.4223 -1.0047
 6120TIP3    H118282   5.460   0.739   6.190  1.2293 -1.6965  0.1154
 6120TIP3    H218283   5.359   0.666   6.103  0.0555  0.9809 -0.8350
 6121TIP3   OH218284   3.918   1.009   5.051 -0.9637 -0.3543  0.8737
 6121TIP3    H118285   3.849   0.949   5.023 -0.0432 -1.3539  0.7570
 6121TIP3    H218286   3.956   0.967   5.129 -0.0219 -0.1496  0.5297
 6122TIP3   OH218287   3.811   0.626   3.157  0.4650  0.0449 -0.3014
 6122TIP3    H118288   3.854   0.688   3.216 -1.4495  0.5871  0.5631
 6122TIP3    H218289   3.857   0.636   3.074  1.0807  1.6320  0.2143
 6123TIP3   OH218290   7.680   6.056   0.397 -0.2852  0.1127  0.3077
 6123TIP3    H118291   7.759   6.074   0.449 -1.0814 -1.4953  2.1195
 6123TIP3    H218292   7.677   5.961   0.390 -1.8925  0.1830 -0.0149
 6124TIP3   OH218293   7.271   8.289   4.707 -0.2533  0.5317  0.1465
 6124TIP3    H118294   7.354   8.337   4.713 -1.1181  2.0812  0.0200
 6124TIP3    H218295   7.212   8.334   4.768 -1.5809  0.6844 -1.2072
 6125TIP3   OH218296   6.050   6.458   4.746  0.3743  0.0470  0.4791
 6125TIP3    H118297   5.995   6.483   4.820 -0.5241 -0.8464  0.1196
 6125TIP3    H218298   6.113   6.397   4.783  0.1185 -0.1626  0.5682
 6126TIP3   OH218299   3.972   2.045   4.885  0.0619  0.1900  0.3051
 6126TIP3    H118300   3.879   2.066   4.885  0.1846  0.7422  0.4763
 6126TIP3    H218301   4.015   2.128   4.865  0.4951 -0.1655 -0.2254
 6127TIP3   OH218302   1.191   2.216   5.961  0.1439  0.1507 -0.3708
 6127TIP3    H118303   1.139   2.258   6.029 -0.0974  0.0728 -0.5052
 6127TIP3    H218304   1.208   2.286   5.897  0.4546  0.2474 -0.1810
 6128TIP3   OH218305   2.202   2.987   6.621  0.4479 -0.3046  0.2211
 6128TIP3    H118306   2.146   2.947   6.555  0.2805 -0.0826  0.2283
 6128TIP3    H218307   2.291   2.974   6.588  0.3783 -0.4390  0.0884
 6129TIP3   OH218308   2.607   1.967   5.715  0.0036  0.2674 -0.5819
 6129TIP3    H118309   2.668   2.024   5.763  0.0288 -2.2175  2.4988
 6129TIP3    H218310   2.567   2.025   5.650  1.5886  3.3005  1.0061
 6130TIP3   OH218311   2.658   0.743   6.876 -0.5859  0.2518 -0.2544
 6130TIP3    H118312   2.576   0.761   6.831 -0.5891  0.6547 -0.0870
 6130TIP3    H218313   2.642   0.663   6.926 -1.2322  0.9599  0.6911
 6131TIP3   OH218314   0.972   1.332   4.343  0.8060 -0.0103 -0.4267
 6131TIP3    H118315   0.924   1.411   4.366  0.1497 -0.0211 -1.6820
 6131TIP3    H218316   1.015   1.353   4.260  0.2807 -1.0928 -0.9891
 6132TIP3   OH218317   6.705   8.103   6.204 -0.4367  0.0417  0.0678
 6132TIP3    H118318   6.690   8.196   6.221 -0.9204 -0.1787  0.9200
 6132TIP3    H218319   6.780   8.081   6.259 -0.4046 -0.1005 -0.0339
 6133TIP3   OH218320   6.644   8.129   3.401 -0.2635 -0.1942  0.7237
 6133TIP3    H118321   6.562   8.080   3.395 -0.9406  1.1613 -2.0743
 6133TIP3    H218322   6.712   8.062   3.408 -1.4689 -1.3826  1.2177
 6134TIP3   OH218323   4.215   0.071   5.579 -0.2416  0.2294 -0.1235
 6134TIP3    H118324   4.200   0.145   5.639 -0.5652  0.2429 -0.2222
 6134TIP3    H218325   4.181   0.101   5.495 -1.9823 -0.6810  0.2310
 6135TIP3   OH218326   0.464   6.483   4.120 -0.0106  0.4107  0.1297
 6135TIP3    H118327   0.418   6.504   4.201  0.3127 -0.4522  0.5522
 6135TIP3    H218328   0.544   6.437   4.149  0.5405  0.8725 -0.6365
 6136TIP3   OH218329   3.333   2.757   6.813  0.6652  0.5439  0.0711
 6136TIP3    H118330   3.427   2.758   6.830  0.4204 -0.1849  1.4901
 6136TIP3    H218331   3.294   2.794   6.892 -0.2104  1.5274 -0.8113
 6137TIP3   OH218332   1.154   1.320   6.386 -0.0306 -0.3138  0.2457
 6137TIP3    H118333   1.138   1.265   6.462 -0.8688  0.3212  0.5294
 6137TIP3    H218334   1.181   1.404   6.422 -0.4006 -0.0172 -0.1655
 6138TIP3   OH218335   2.071   0.872   6.504 -0.2447 -0.1350  0.2268
 6138TIP3    H118336   2.005   0.911   6.447 -2.3285  0.8770  3.2021
 6138TIP3    H218337   2.122   0.946   6.536  0.5642 -0.6273  0.0947
 6139TIP3   OH218338   1.552   7.676   6.061  0.5288  0.1327 -0.2214
 6139TIP3    H118339   1.502   7.697   5.982  0.1270  0.5881  0.1445
 6139TIP3    H218340   1.491   7.694   6.133  1.4443  1.3835  0.2693
 6140TIP3   OH218341   2.486   1.172   6.181  0.0533 -0.1065 -0.2071
 6140TIP3    H118342   2.500   1.196   6.089 -2.0737 -1.2886 -0.8847
 6140TIP3    H218343   2.568   1.130   6.207  1.2578  1.6390 -1.0726
 6141TIP3   OH218344   0.879   8.096   5.006 -0.1202 -0.8862 -0.1001
 6141TIP3    H118345   0.831   8.164   5.054 -1.1375 -0.3390 -1.8549
 6141TIP3    H218346   0.971   8.117   5.022 -0.4201 -1.0063  1.9971
 6142TIP3   OH218347   7.702   8.236   3.949 -0.1000  0.0482 -0.6673
 6142TIP3    H118348   7.791   8.201   3.944  0.0073  0.5416 -2.2969
 6142TIP3    H218349   7.646   8.162   3.926 -0.0663 -0.0101 -0.5619
 6143TIP3   OH218350   2.925   2.149   5.059 -0.1377 -1.1078 -0.1977
 6143TIP3    H118351   3.017   2.160   5.081 -0.2964 -0.2085  0.0537
 6143TIP3    H218352   2.906   2.220   4.997 -1.1294 -0.0717  1.2440
 6144TIP3   OH218353   5.169   0.907   4.897  0.3978  0.7788 -0.6792
 6144TIP3    H118354   5.256   0.947   4.894  0.2637  1.0216 -1.2465
 6144TIP3    H218355   5.135   0.932   4.983  0.7451  0.9846 -0.6005
 6145TIP3   OH218356   1.279   1.936   4.766 -0.3456  0.1893 -0.3054
 6145TIP3    H118357   1.363   1.924   4.811 -1.6730  0.3691  2.2887
 6145TIP3    H218358   1.267   2.030   4.763  0.4352  0.2503 -2.4459
 6146TIP3   OH218359   2.864   0.922   6.865  0.1749  0.3728 -0.1888
 6146TIP3    H118360   2.794   0.856   6.862  1.0441 -0.4991 -1.4606
 6146TIP3    H218361   2.818   1.005   6.860 -0.8425 -0.1692 -0.0751
 6147TIP3   OH218362   3.685   7.515   7.148 -0.2946 -0.5296  0.2857
 6147TIP3    H118363   3.654   7.426   7.132  0.9320 -0.8315 -0.5158
 6147TIP3    H218364   3.712   7.515   7.239 -2.5352 -0.2861  0.9705
 6148TIP3   OH218365   2.798   1.910   4.958 -0.3199 -0.1648  0.0233
 6148TIP3    H118366   2.822   1.878   4.871 -0.1339 -2.5124  0.8815
 6148TIP3    H218367   2.858   1.982   4.976  0.0013 -0.0378 -1.5670
 6149TIP3   OH218368   0.437   0.007   3.914 -0.4891  0.2934 -0.1669
 6149TIP3    H118369   0.453   0.058   3.834 -1.0863  0.5363 -0.1321
 6149TIP3    H218370   0.472   0.061   3.984  0.0544  0.0711 -0.2627
 6150TIP3   OH218371   6.263   8.395   3.528  0.0778 -0.1417 -0.0887
 6150TIP3    H118372   6.209   8.341   3.585  1.1673 -3.1540 -1.7823
 6150TIP3    H218373   6.201   8.437   3.469 -0.7323 -0.1731  0.7268
 6151TIP3   OH218374   0.727   2.887   5.655 -0.2010  0.5382 -0.0429
 6151TIP3    H118375   0.665   2.892   5.727  0.4000  0.6590  0.4696
 6151TIP3    H218376   0.709   2.803   5.612 -2.0079  1.4169 -1.0763
 6152TIP3   OH218377   1.497   0.860   5.090  0.3096  0.2000  0.3545
 6152TIP3    H118378   1.586   0.839   5.059  0.6789 -1.4057  2.4210
 6152TIP3    H218379   1.481   0.948   5.057  2.7597  0.6051  0.1324
 6153TIP3   OH218380   2.306   2.546   4.632 -0.0085 -0.1155  0.2747
 6153TIP3    H118381   2.212   2.559   4.645  0.2168  1.1036  0.7212
 6153TIP3    H218382   2.337   2.629   4.595  0.8239 -0.6453 -0.2195
 6154TIP3   OH218383   4.046   0.399   4.584 -0.0754  0.4101 -0.6290
 6154TIP3    H118384   4.033   0.447   4.666  2.6154  0.9500 -0.4797
 6154TIP3    H218385   4.070   0.466   4.520  1.1899 -0.4164 -1.0397
 6155TIP3   OH218386   2.353   0.543   4.624  0.0511  0.6318 -0.1865
 6155TIP3    H118387   2.268   0.515   4.658 -1.9522  2.7516 -3.1804
 6155TIP3    H218388   2.362   0.634   4.651  1.0132  0.6830 -0.6308
 6156TIP3   OH218389   4.700   3.041   6.690  0.0073  0.2448  0.7705
 6156TIP3    H118390   4.666   2.993   6.615 -0.9912 -0.5926  1.7377
 6156TIP3    H218391   4.768   2.984   6.726 -0.5905 -0.0717  1.4152
 6157TIP3   OH218392   2.474   7.949   5.819 -0.2032 -0.5028  0.0264
 6157TIP3    H118393   2.388   7.991   5.826 -0.4692 -1.3345  2.5314
 6157TIP3    H218394   2.536   8.021   5.811 -1.0788  0.1203 -1.3930
 6158TIP3   OH218395   5.762   0.803   5.441  0.4847 -0.6453  0.2356
 6158TIP3    H118396   5.832   0.832   5.382  0.7197 -0.6228  0.5285
 6158TIP3    H218397   5.802   0.801   5.527 -0.8044  2.8285  1.0059
 6159TIP3   OH218398   1.243   2.281   5.551 -0.0623 -0.4955  0.1928
 6159TIP3    H118399   1.290   2.216   5.603  0.1648  0.3959  1.1193
 6159TIP3    H218400   1.152   2.272   5.581  0.1990  0.5695  1.3446
 6160TIP3   OH218401   3.782   2.029   3.801 -0.1503 -0.3662  0.5921
 6160TIP3    H118402   3.722   2.087   3.755 -0.7175 -0.6080  1.0099
 6160TIP3    H218403   3.792   1.954   3.743  2.3227  1.1030 -0.9469
 6161TIP3   OH218404   2.399   7.105   4.441 -0.1253 -0.0034  0.3903
 6161TIP3    H118405   2.349   7.180   4.409  0.2867  0.6790  1.3399
 6161TIP3    H218406   2.463   7.087   4.371 -1.1246 -0.3464 -0.4472
 6162TIP3   OH218407   3.227   1.925   5.609  0.0016 -0.3502 -0.1568
 6162TIP3    H118408   3.257   1.835   5.594 -1.0295 -0.6245 -0.6536
 6162TIP3    H218409   3.144   1.915   5.656  1.1389  0.4192  2.0685
 6163TIP3   OH218410   3.202   0.675   4.896  0.2518  0.1379 -0.4695
 6163TIP3    H118411   3.143   0.704   4.826 -0.4680 -1.3317 -0.4969
 6163TIP3    H218412   3.145   0.630   4.958  1.2346 -0.6734 -0.1372
 6164TIP3   OH218413   3.925   1.214   6.099 -0.1745 -0.3822 -0.0753
 6164TIP3    H118414   4.000   1.170   6.060 -0.5457 -1.0175 -0.0842
 6164TIP3    H218415   3.867   1.232   6.025  0.1651  0.5041 -0.1296
 6165TIP3   OH218416   2.780   6.997   7.122  0.0653  0.0467  0.1613
 6165TIP3    H118417   2.814   6.958   7.041 -1.4571  0.2960 -0.6177
 6165TIP3    H218418   2.779   7.091   7.105 -1.0368  0.0439  0.1444
 6166TIP3   OH218419   4.811   2.158   6.314  0.1894  0.0251 -0.4496
 6166TIP3    H118420   4.739   2.188   6.259 -0.2816 -0.6770 -0.2224
 6166TIP3    H218421   4.784   2.177   6.403  0.7863  0.8038 -0.4279
 6167TIP3   OH218422   2.864   1.283   4.584 -0.3446  0.4611  0.1039
 6167TIP3    H118423   2.838   1.266   4.494 -0.7821  3.0229 -0.2867
 6167TIP3    H218424   2.941   1.340   4.577  0.7444 -0.8076  1.3394
 6168TIP3   OH218425   4.479   0.808   4.972 -0.0142 -0.5323 -0.6340
 6168TIP3    H118426   4.555   0.791   4.917  0.9523 -1.3295  0.9020
 6168TIP3    H218427   4.506   0.880   5.029 -0.7678 -0.1571 -0.7358
 6169TIP3   OH218428   4.612   1.083   5.775  0.3676  0.4384  0.4297
 6169TIP3    H118429   4.592   1.143   5.847  1.5918 -0.9051  1.9220
 6169TIP3    H218430   4.706   1.090   5.762  0.4795 -0.8917  0.3992
 6170TIP3   OH218431   6.640   8.197   3.776  0.3519 -0.1649  0.6348
 6170TIP3    H118432   6.710   8.131   3.768  1.0950  0.7515 -0.5930
 6170TIP3    H218433   6.560   8.149   3.757  0.7576 -1.0137  1.0475
 6171TIP3   OH218434   0.894   1.140   2.466 -0.4068 -0.2661  0.0430
 6171TIP3    H118435   0.975   1.103   2.430 -0.3996 -0.9781  0.7722
 6171TIP3    H218436   0.874   1.214   2.409  0.7855 -0.0557 -0.1111
 6172TIP3   OH218437   2.086   0.986   7.090 -0.2069  0.1255 -0.2392
 6172TIP3    H118438   2.178   0.963   7.103 -0.3133 -0.5065 -0.5722
 6172TIP3    H218439   2.065   0.950   7.004 -0.0929  2.3788 -1.2606
 6173TIP3   OH218440   0.996   0.020   4.341  0.2608 -0.2471  0.5499
 6173TIP3    H118441   1.079  -0.026   4.351 -0.3207 -1.2447  0.8439
 6173TIP3    H218442   0.992   0.043   4.248  0.8022 -0.3053  0.5103
 6174TIP3   OH218443   4.990   1.210   6.461  0.1959 -0.1176 -0.3164
 6174TIP3    H118444   4.917   1.240   6.407  1.0059 -0.3091 -1.5641
 6174TIP3    H218445   5.049   1.286   6.465 -0.0730  0.0375  0.6815
 6175TIP3   OH218446   3.926   3.228   4.547  0.1872 -0.2740 -0.8701
 6175TIP3    H118447   3.854   3.288   4.570  0.4470 -0.8750  1.7647
 6175TIP3    H218448   3.915   3.155   4.608  2.8193 -0.5324 -0.6678
 6176TIP3   OH218449   6.250   5.441   1.374 -0.1051  0.2288  0.8520
 6176TIP3    H118450   6.293   5.426   1.458  1.0027 -1.6574 -0.0247
 6176TIP3    H218451   6.309   5.402   1.309 -3.0964 -2.3361 -0.4090
 6177TIP3   OH218452   2.545   3.182   4.406  0.0863 -0.0999 -0.3077
 6177TIP3    H118453   2.471   3.210   4.352 -1.1705  0.4706  1.6627
 6177TIP3    H218454   2.536   3.087   4.411  0.2297 -0.1594 -1.1261
 6178TIP3   OH218455   5.212   6.947   1.050  0.0678 -0.2335 -0.4834
 6178TIP3    H118456   5.303   6.915   1.050  0.6487  1.3945 -0.3586
 6178TIP3    H218457   5.176   6.917   1.133 -0.4707 -3.5020 -1.7994
 6179TIP3   OH218458   3.797   1.029   5.664 -0.2328  0.4225  0.4988
 6179TIP3    H118459   3.862   1.099   5.663 -0.0695  0.3343  2.3369
 6179TIP3    H218460   3.715   1.071   5.637  0.1728  0.9751  0.1240
 6180TIP3   OH218461   3.402   2.636   5.022 -0.3683  0.0882 -0.4748
 6180TIP3    H118462   3.378   2.645   5.114 -0.2527  0.0623 -0.4423
 6180TIP3    H218463   3.418   2.543   5.011 -1.1071 -0.0151 -0.6978
 6181TIP3   OH218464   0.603   1.634   5.575  0.6513  0.5852 -0.3967
 6181TIP3    H118465   0.681   1.579   5.588 -0.4558 -1.5316 -2.3627
 6181TIP3    H218466   0.634   1.708   5.524  1.7340  0.6725  0.3658
 6182TIP3   OH218467   3.779   0.536   3.945 -0.5491 -0.4048 -0.4939
 6182TIP3    H118468   3.739   0.623   3.954 -0.0299 -0.2416  0.3063
 6182TIP3    H218469   3.742   0.485   4.017 -0.0162 -0.5213 -0.2993
 6183TIP3   OH218470   2.776   2.458   6.405 -0.3935 -0.1971 -0.2917
 6183TIP3    H118471   2.816   2.433   6.321  0.5626  0.0720  0.0737
 6183TIP3    H218472   2.830   2.414   6.471  0.0716  1.1922  0.2682
 6184TIP3   OH218473   1.134   3.744   4.392 -0.6289  0.3709 -0.0047
 6184TIP3    H118474   1.095   3.751   4.479  1.1878  0.0613  0.8674
 6184TIP3    H218475   1.127   3.832   4.355  3.3726  1.9355  2.6171
 6185TIP3   OH218476   8.274   8.298   4.220 -0.4006  0.5428 -0.1030
 6185TIP3    H118477   8.350   8.272   4.169  0.2415 -0.6057  1.3900
 6185TIP3    H218478   8.263   8.228   4.285 -2.4281  0.9355  0.0184
 6186TIP3   OH218479   2.176   1.383   3.934  0.8611 -0.1272 -0.1557
 6186TIP3    H118480   2.115   1.457   3.931  0.4775 -0.4213  0.4177
 6186TIP3    H218481   2.235   1.398   3.860 -0.2306 -0.1123 -1.0348
 6187TIP3   OH218482   4.055   1.904   5.397 -0.1731  0.3311 -0.3872
 6187TIP3    H118483   3.988   1.971   5.383 -0.5570 -0.1312 -0.8037
 6187TIP3    H218484   4.092   1.923   5.483 -0.5003  0.8832 -0.3695
 6188TIP3   OH218485   5.154   0.551   4.110 -0.7789 -0.0549 -0.1584
 6188TIP3    H118486   5.195   0.574   4.193  2.1251 -0.2066 -1.4875
 6188TIP3    H218487   5.176   0.624   4.051 -0.3582 -1.2459 -1.5343
 6189TIP3   OH218488   5.507   1.240   6.495  0.1887  0.0327 -0.1285
 6189TIP3    H118489   5.599   1.264   6.481  1.8569 -3.6332  3.4184
 6189TIP3    H218490   5.478   1.298   6.565  0.6265 -0.4190  0.4424
 6190TIP3   OH218491   3.361   2.147   5.738 -0.0819  0.4866  0.3415
 6190TIP3    H118492   3.340   2.067   5.690 -0.3637  1.6721 -1.6003
 6190TIP3    H218493   3.334   2.130   5.828 -1.0447 -1.2412 -0.2650
 6191TIP3   OH218494   5.331   1.276   3.472 -0.2884  0.1394  0.2786
 6191TIP3    H118495   5.337   1.332   3.549 -0.9828  2.7698 -1.4888
 6191TIP3    H218496   5.366   1.330   3.401 -0.3837 -1.9323 -1.4043
 6192TIP3   OH218497   3.582   2.462   6.569  0.3347  0.5824 -0.2080
 6192TIP3    H118498   3.626   2.442   6.486  0.5058  0.6895 -0.1441
 6192TIP3    H218499   3.588   2.557   6.577  0.0359  0.6022 -0.2293
 6193TIP3   OH218500   4.524   0.061   4.617  0.1662  0.0047 -0.2991
 6193TIP3    H118501   4.508   0.154   4.604 -0.2181  0.1108  0.8857
 6193TIP3    H218502   4.472   0.038   4.694  1.7965 -0.7614  0.5953
 6194TIP3   OH218503   3.535   0.979   5.867  0.3861 -0.1793  0.3351
 6194TIP3    H118504   3.463   1.042   5.875  1.2000  0.9443 -1.0907
 6194TIP3    H218505   3.519   0.935   5.784  0.8093 -0.6343  0.4932
 6195TIP3   OH218506   3.420   1.082   4.806 -0.1749  0.0097 -0.4085
 6195TIP3    H118507   3.334   1.106   4.839 -0.0322  0.9576 -0.7176
 6195TIP3    H218508   3.429   0.989   4.829 -0.7984  0.1972  0.6289
 6196TIP3   OH218509   4.693   1.020   2.958 -0.1527 -0.5264  0.3713
 6196TIP3    H118510   4.649   1.010   2.874  0.8848  2.5977 -0.5916
 6196TIP3    H218511   4.763   0.955   2.956  0.6250  0.3442 -1.7215
 6197TIP3   OH218512   6.668   2.016   6.397 -0.5376  0.1674 -0.0351
 6197TIP3    H118513   6.736   1.952   6.419 -0.8971  0.0701  0.8236
 6197TIP3    H218514   6.708   2.071   6.330 -0.7571 -1.8743 -1.8849
 6198TIP3   OH218515   0.662   7.650   4.550  0.2877 -0.0489 -0.0267
 6198TIP3    H118516   0.713   7.572   4.526  0.4283  0.2738 -0.8063
 6198TIP3    H218517   0.726   7.710   4.588 -0.0983 -0.9325  2.1007
 6199TIP3   OH218518   1.583   7.576   5.453  0.1810  0.8418 -0.1518
 6199TIP3    H118519   1.540   7.555   5.536 -0.4535 -0.4695 -0.7957
 6199TIP3    H218520   1.675   7.587   5.476  0.0206  0.4589  0.7206
 6200TIP3   OH218521   5.162   0.038   4.256  0.3096 -0.1686  0.2966
 6200TIP3    H118522   5.086  -0.014   4.282 -0.4921  0.7465 -0.1796
 6200TIP3    H218523   5.196   0.074   4.338  0.0347 -0.3172  0.4758
 6201TIP3   OH218524   3.515   7.837   4.540 -0.3259 -0.0735  0.3748
 6201TIP3    H118525   3.530   7.932   4.539  1.4938 -0.3483 -1.1421
 6201TIP3    H218526   3.469   7.819   4.459  0.1348 -0.6080  0.2286
 6202TIP3   OH218527   5.381   2.060   6.413  0.1940  0.0365  0.4668
 6202TIP3    H118528   5.329   2.138   6.393  1.0837  0.4597 -0.2536
 6202TIP3    H218529   5.348   2.030   6.497 -0.5346  0.8777  0.4892
 6203TIP3   OH218530   5.705   0.246   6.760 -0.3655 -0.3016 -0.5067
 6203TIP3    H118531   5.750   0.174   6.716  0.4168  0.4551 -0.9740
 6203TIP3    H218532   5.750   0.255   6.844 -1.7542 -1.6401  0.4007
 6204TIP3   OH218533   2.026   7.927   4.992  0.1451  0.1642  0.1616
 6204TIP3    H118534   2.057   7.966   4.910 -0.1519  0.1638  0.0509
 6204TIP3    H218535   2.106   7.896   5.035  0.3647  0.7207  0.1601
 6205TIP3   OH218536   4.468   4.032   5.382  0.0721  0.7508  0.1205
 6205TIP3    H118537   4.453   3.956   5.326  0.7428  0.2961  0.5565
 6205TIP3    H218538   4.469   4.107   5.322 -1.5224  0.5266 -0.2033
 6206TIP3   OH218539   2.976   7.002   4.117  0.2800  0.3571 -0.0279
 6206TIP3    H118540   3.054   7.002   4.171  0.1866 -0.3007  0.1073
 6206TIP3    H218541   2.991   6.932   4.053  0.2193  0.8646 -0.6041
 6207TIP3   OH218542   4.572   0.896   5.605 -0.3004 -0.1643 -0.1290
 6207TIP3    H118543   4.480   0.921   5.595 -0.2121  0.0336 -0.4756
 6207TIP3    H218544   4.603   0.948   5.679 -0.1292  0.7366 -0.8258
 6208TIP3   OH218545   4.025   2.840   5.025 -0.4353 -0.1674 -0.0821
 6208TIP3    H118546   3.965   2.827   5.099  0.1569  0.8509  0.5880
 6208TIP3    H218547   4.100   2.886   5.062  0.8621 -1.5989 -0.8802
 6209TIP3   OH218548   5.287   1.367   3.993  0.2741 -0.9343  0.1341
 6209TIP3    H118549   5.203   1.337   4.029 -0.2961 -1.3930 -1.5343
 6209TIP3    H218550   5.264   1.409   3.910  1.4383  1.2150  0.8616
 6210TIP3   OH218551   6.340   0.035   6.210 -0.4900 -0.1124 -0.6309
 6210TIP3    H118552   6.396  -0.018   6.266  1.2331  0.8645 -1.3784
 6210TIP3    H218553   6.251   0.007   6.231  0.2969 -2.1822  0.0995
 6211TIP3   OH218554   3.822   7.862   5.316 -0.1967 -0.3442 -0.4243
 6211TIP3    H118555   3.858   7.889   5.232 -1.9505  1.5580 -0.6117
 6211TIP3    H218556   3.862   7.920   5.380 -1.9261  0.9702 -0.4869
 6212TIP3   OH218557   5.620   0.548   6.484  0.1514 -0.4574 -0.2053
 6212TIP3    H118558   5.570   0.466   6.484 -0.4065 -0.1210  0.2220
 6212TIP3    H218559   5.663   0.550   6.399  1.4544 -1.9722  0.3891
 6213TIP3   OH218560   5.241   0.283   3.964 -0.5898 -0.3861  0.0956
 6213TIP3    H118561   5.146   0.299   3.965 -0.8670 -1.9477  1.3855
 6213TIP3    H218562   5.250   0.192   3.939  0.5981 -0.1792 -0.2656
 6214TIP3   OH218563   3.029   7.953   6.457  0.3085 -0.3450  0.3844
 6214TIP3    H118564   3.040   8.047   6.469 -1.2550 -0.0698 -0.1666
 6214TIP3    H218565   3.106   7.925   6.408  0.8591  0.6204  0.6978
 6215TIP3   OH218566   3.736   2.643   6.969  0.0092  0.1119 -0.2206
 6215TIP3    H118567   3.801   2.621   6.902 -0.8433  1.0592 -1.3720
 6215TIP3    H218568   3.715   2.735   6.952 -2.6099 -0.5410 -0.6695
 6216TIP3   OH218569   4.477   0.585   6.164 -0.0596  0.6478  0.3323
 6216TIP3    H118570   4.424   0.645   6.217 -1.8523 -0.3068 -0.3460
 6216TIP3    H218571   4.413   0.529   6.120  1.5331 -0.6219 -0.4041
 6217TIP3   OH218572   5.979   0.327   5.802 -0.2305  0.2641  0.0844
 6217TIP3    H118573   6.064   0.286   5.818 -0.2579  0.1040 -0.1848
 6217TIP3    H218574   5.974   0.397   5.868  1.2498  1.9673 -1.5514
 6218TIP3   OH218575   4.778   0.812   6.013 -0.0420 -0.5437 -0.6981
 6218TIP3    H118576   4.815   0.777   5.932  0.1022  1.3762 -1.4897
 6218TIP3    H218577   4.774   0.736   6.072 -0.9929 -2.1721 -2.7760
 6219TIP3   OH218578   5.539   0.506   4.445 -0.6921  0.2483 -0.2121
 6219TIP3    H118579   5.525   0.599   4.466  0.6959  0.1023  1.5128
 6219TIP3    H218580   5.622   0.504   4.397 -0.2580 -0.1867  0.5446
 6220TIP3   OH218581   4.276   1.263   4.550  0.2186 -0.4009 -0.5147
 6220TIP3    H118582   4.240   1.179   4.577 -0.1514 -0.1889 -0.3450
 6220TIP3    H218583   4.360   1.242   4.509  0.7461 -0.7300  0.7261
 6221TIP3   OH218584   8.847   7.650   4.125 -0.5469  0.0217 -0.3131
 6221TIP3    H118585   8.813   7.561   4.131  0.0131 -0.1884 -0.2029
 6221TIP3    H218586   8.902   7.660   4.203 -2.1478  1.1280  0.7100
 6222TIP3   OH218587   6.034   1.722   6.987  0.5782 -0.5248  0.1243
 6222TIP3    H118588   5.981   1.797   6.961  1.5208  0.0204 -0.2669
 6222TIP3    H218589   6.081   1.753   7.065  0.5793 -0.8868  0.2656
 6223TIP3   OH218590   4.898   0.719   3.905  0.4912  0.0148 -0.1962
 6223TIP3    H118591   4.810   0.746   3.879  0.8821  1.0209 -0.4940
 6223TIP3    H218592   4.884   0.655   3.975 -0.4808 -0.1144 -0.5048
 6224TIP3   OH218593   4.994   0.935   5.636 -0.1491 -0.1712 -0.1363
 6224TIP3    H118594   5.086   0.952   5.615  0.2464 -1.3500  0.5645
 6224TIP3    H218595   4.958   0.897   5.556 -0.0047  0.1864 -0.3755
 6225TIP3   OH218596   5.504   0.713   4.766  0.0145  0.2296  0.4095
 6225TIP3    H118597   5.592   0.688   4.737  0.6163  0.1634  2.2074
 6225TIP3    H218598   5.515   0.733   4.859 -1.9234  0.0366  0.6927
 6226TIP3   OH218599   4.154   8.319   2.755 -0.4205 -0.0500 -0.4837
 6226TIP3    H118600   4.223   8.364   2.804 -0.4301 -0.4143 -0.1327
 6226TIP3    H218601   4.161   8.353   2.666  1.0287 -1.0138 -0.7445
 6227TIP3   OH218602   2.545   1.161   5.289 -0.3102 -0.0624  0.2368
 6227TIP3    H118603   2.589   1.140   5.207 -0.3169  3.7133 -0.8502
 6227TIP3    H218604   2.616   1.186   5.349 -0.2706 -3.1717  1.5709
 6228TIP3   OH218605   3.024   2.352   5.456 -0.5060 -0.0570  0.1530
 6228TIP3    H118606   2.947   2.303   5.426 -1.0774 -0.0829  1.6418
 6228TIP3    H218607   3.070   2.292   5.514 -0.1962  0.5002  0.4899
 6229TIP3   OH218608   7.547   0.627   5.087  0.1876  0.6801  0.1856
 6229TIP3    H118609   7.588   0.560   5.142 -0.2073  0.5885  0.3750
 6229TIP3    H218610   7.551   0.707   5.139  1.5775  1.0428 -0.4558
 6230TIP3   OH218611   5.373   2.026   5.740  0.1481  0.2267  0.6507
 6230TIP3    H118612   5.416   2.110   5.760  0.0908  0.7795 -1.4853
 6230TIP3    H218613   5.422   1.962   5.792  1.7331  1.2577  0.4844
 6231TIP3   OH218614   3.738   3.359   6.297 -0.3635 -0.2190  0.1823
 6231TIP3    H118615   3.778   3.344   6.211 -2.1976 -0.5688 -0.6348
 6231TIP3    H218616   3.800   3.415   6.343  1.1197 -0.8513 -0.9987
 6232TIP3   OH218617   5.866   6.038   1.032  0.1581 -0.2427 -0.2055
 6232TIP3    H118618   5.841   5.960   0.983  0.6422 -0.6986  0.2632
 6232TIP3    H218619   5.889   6.006   1.119  2.7504  0.1003 -0.7359
 6233TIP3   OH218620   4.966   0.961   4.065  0.1433 -0.0314 -0.7907
 6233TIP3    H118621   4.952   0.884   4.010  1.7113 -0.2468 -0.9056
 6233TIP3    H218622   4.951   0.929   4.155  0.7504 -0.4626 -0.8406
 6234TIP3   OH218623   5.750   2.291   3.885 -0.3346  0.1973  0.1361
 6234TIP3    H118624   5.757   2.233   3.809 -0.6907  0.3401 -0.0048
 6234TIP3    H218625   5.815   2.359   3.870  0.0354 -0.1199  0.2665
 6235TIP3   OH218626   3.421   2.349   6.776 -0.2905  0.6256 -0.0269
 6235TIP3    H118627   3.427   2.427   6.832 -0.4687  0.6206 -0.0031
 6235TIP3    H218628   3.477   2.370   6.701  0.2096  0.5067  0.3031
 6236TIP3   OH218629   3.365   0.337   7.184 -0.3612 -0.6012  0.2426
 6236TIP3    H118630   3.289   0.314   7.132  0.4423  0.7276 -1.5486
 6236TIP3    H218631   3.341   0.418   7.228 -0.5213 -0.9855  0.8798
 6237TIP3   OH218632   3.508   0.991   6.534 -0.1658 -0.2043 -0.0319
 6237TIP3    H118633   3.419   1.024   6.524  0.5137  1.3738 -1.1072
 6237TIP3    H218634   3.552   1.055   6.590  0.4600 -0.6302 -0.0226
 6238TIP3   OH218635   5.192   1.432   7.244 -0.6843  0.0548  0.4346
 6238TIP3    H118636   5.144   1.455   7.323 -0.3628  1.7680  0.1362
 6238TIP3    H218637   5.255   1.503   7.232  2.4030 -2.3967  1.1863
 6239TIP3   OH218638   5.026   2.734   6.919 -0.5508  0.0339  0.3007
 6239TIP3    H118639   4.967   2.672   6.877 -0.1977 -0.2912  0.2761
 6239TIP3    H218640   5.107   2.727   6.869 -0.7107  0.9731 -0.0861
 6240TIP3   OH218641   4.062   6.676   5.364  0.3243  0.2649  0.2037
 6240TIP3    H118642   4.032   6.586   5.374 -0.9277  0.5523 -0.7431
 6240TIP3    H218643   3.981   6.728   5.363  0.8725  1.1275 -1.7978
 6241TIP3   OH218644   5.398   1.187   5.354  0.2306  0.5832 -0.9508
 6241TIP3    H118645   5.313   1.223   5.328 -0.0600  0.8854  0.3620
 6241TIP3    H218646   5.462   1.238   5.304 -0.2644  1.8771 -0.2938
 6242TIP3   OH218647   6.947   2.437   5.990 -0.2197  0.4102  0.7405
 6242TIP3    H118648   6.979   2.443   6.080  2.0318  0.6814 -0.0434
 6242TIP3    H218649   6.970   2.348   5.962  1.0668  1.0377 -0.2580
 6243TIP3   OH218650   2.343   7.646   3.662  0.0645 -0.7596 -0.2076
 6243TIP3    H118651   2.312   7.727   3.702 -1.0080 -1.2562 -0.0127
 6243TIP3    H218652   2.328   7.658   3.569 -2.1781 -1.6053  0.0272
 6244TIP3   OH218653   4.213   1.992   5.010  0.3882 -0.4660 -0.3821
 6244TIP3    H118654   4.245   2.081   4.993  0.7209 -0.4650  0.2346
 6244TIP3    H218655   4.120   1.997   4.991  0.4596 -0.0654 -0.6574
 6245TIP3   OH218656   2.454   6.982   6.493 -0.3245 -0.3930 -0.1652
 6245TIP3    H118657   2.545   7.009   6.510 -0.2796  0.0878 -1.1360
 6245TIP3    H218658   2.461   6.918   6.422 -0.6389 -1.2727  0.5936
 6246TIP3   OH218659   4.840   8.235   6.898  0.1502 -0.1044 -0.1764
 6246TIP3    H118660   4.859   8.249   6.991  0.3058 -1.8860  0.0627
 6246TIP3    H218661   4.919   8.193   6.864 -1.0701 -2.1889 -0.4622
 6247TIP3   OH218662   1.723   7.236   5.322 -0.2658 -0.2689 -0.4829
 6247TIP3    H118663   1.720   7.318   5.273 -1.4037 -0.2701 -0.4114
 6247TIP3    H218664   1.742   7.169   5.256  1.2113  0.1142 -0.4587
 6248TIP3   OH218665   2.383   7.506   2.094 -0.2574  0.1637 -0.1752
 6248TIP3    H118666   2.398   7.532   2.003  1.4610  0.6537  0.2270
 6248TIP3    H218667   2.443   7.432   2.107  0.0270  0.5617  0.7712
 6249TIP3   OH218668   1.331   7.759   3.296 -0.3044 -0.0386 -0.0797
 6249TIP3    H118669   1.316   7.666   3.277 -0.8282  0.0249  0.0385
 6249TIP3    H218670   1.255   7.804   3.260  0.1211  0.3875 -0.4631
 6250TIP3   OH218671   2.163   8.028   4.786  0.1682 -0.1872 -0.6282
 6250TIP3    H118672   2.243   8.076   4.809  0.6514 -1.5454  0.6069
 6250TIP3    H218673   2.112   8.090   4.734  1.2253  1.3065  0.0758
 6251TIP3   OH218674   5.711   1.791   4.615  0.3264 -0.2747 -0.2356
 6251TIP3    H118675   5.617   1.805   4.624  0.5630  1.9876 -0.9029
 6251TIP3    H218676   5.747   1.803   4.703 -0.0081 -1.3253  0.0531
 6252TIP3   OH218677   5.081   1.207   5.549  0.0783 -0.0095  0.1689
 6252TIP3    H118678   5.133   1.155   5.609  0.9587  1.7650  0.9744
 6252TIP3    H218679   5.137   1.281   5.526 -1.6535  1.3474  0.1641
 6253TIP3   OH218680   7.313   0.406   5.586 -0.0961  0.0846 -0.6074
 6253TIP3    H118681   7.313   0.398   5.681 -1.0634  0.9465 -0.5269
 6253TIP3    H218682   7.308   0.316   5.554 -1.4029 -0.1334  0.1765
 6254TIP3   OH218683   6.577   2.335   2.605  0.1184  0.2554 -0.7255
 6254TIP3    H118684   6.541   2.408   2.556  2.0744  1.3646 -0.5726
 6254TIP3    H218685   6.643   2.297   2.547  0.2644 -0.3723 -0.1673
 6255TIP3   OH218686   6.598   0.893   2.418  0.3328 -0.3582  0.1323
 6255TIP3    H118687   6.507   0.864   2.427  0.2495  0.2672  1.5151
 6255TIP3    H218688   6.601   0.936   2.333 -0.5096 -0.9333 -0.1999
 6256TIP3   OH218689   2.959   7.700   3.349 -0.4223  0.2740  0.3590
 6256TIP3    H118690   2.899   7.631   3.377 -0.8758 -0.2894 -1.8723
 6256TIP3    H218691   2.917   7.738   3.272  0.0565  2.7483  1.2611
 6257TIP3   OH218692   4.233   0.961   4.629  0.1213 -0.3569 -0.8599
 6257TIP3    H118693   4.323   0.994   4.632  0.1107 -0.4044  0.2349
 6257TIP3    H218694   4.234   0.896   4.559  0.6445  0.4933 -1.6465
 6258TIP3   OH218695   4.474   0.963   6.426 -0.3289 -0.0788 -0.6313
 6258TIP3    H118696   4.532   0.991   6.497  0.3827 -1.5421 -0.5974
 6258TIP3    H218697   4.534   0.929   6.359 -1.0922 -0.6219 -1.0404
 6259TIP3   OH218698   4.611   0.501   5.899 -0.4186  0.5187 -0.2960
 6259TIP3    H118699   4.693   0.546   5.879  0.0382 -0.5366 -0.8619
 6259TIP3    H218700   4.618   0.478   5.991 -0.4655  1.2211 -0.1173
 6260TIP3   OH218701   5.494   2.027   2.886  0.0594 -0.0033 -0.6325
 6260TIP3    H118702   5.584   2.006   2.909  0.0940 -0.4005 -1.1356
 6260TIP3    H218703   5.493   2.029   2.790 -0.1462  1.3724 -0.6215
 6261TIP3   OH218704   3.242   1.364   5.407  0.6181  0.2797 -0.1242
 6261TIP3    H118705   3.291   1.286   5.379 -0.4413 -0.8718  1.1713
 6261TIP3    H218706   3.297   1.403   5.475  1.6730  1.2980 -1.5339
 6262TIP3   OH218707   4.666   1.375   7.218 -0.4927 -0.5926 -0.0334
 6262TIP3    H118708   4.718   1.318   7.161 -1.9873 -2.0899  0.0937
 6262TIP3    H218709   4.658   1.457   7.168 -0.2527 -1.2635 -1.1827
 6263TIP3   OH218710   7.403   1.280   6.073 -0.6403  0.5714 -0.1767
 6263TIP3    H118711   7.353   1.200   6.056  0.8442 -0.1579 -1.2292
 6263TIP3    H218712   7.413   1.282   6.168 -0.3264 -0.7420 -0.1624
 6264TIP3   OH218713   5.908   0.473   5.571 -0.0562 -0.3141  0.6375
 6264TIP3    H118714   5.942   0.437   5.652  2.0499 -0.8825 -0.4688
 6264TIP3    H218715   5.924   0.567   5.577  1.6994 -0.5751  0.1413
 6265TIP3   OH218716   4.678   2.109   5.343  0.1219  0.1971  0.2435
 6265TIP3    H118717   4.751   2.080   5.289  1.7829  0.8139  2.1008
 6265TIP3    H218718   4.605   2.054   5.315  1.3160 -0.5399 -1.5489
 6266TIP3   OH218719   5.892   1.641   4.148 -0.4433 -0.5217 -0.3292
 6266TIP3    H118720   5.840   1.690   4.212  0.0891 -0.1057 -0.2137
 6266TIP3    H218721   5.983   1.663   4.169 -0.2087 -1.5131 -0.3223
 6267TIP3   OH218722   3.281   8.043   5.344 -0.3027 -0.2936 -0.1071
 6267TIP3    H118723   3.280   8.119   5.285  0.9266  1.2491  1.8029
 6267TIP3    H218724   3.373   8.028   5.363 -0.6830 -0.8439  1.3403
 6268TIP3   OH218725   5.147   1.882   2.891 -0.1812 -0.5293  0.0444
 6268TIP3    H118726   5.219   1.944   2.886  0.5371 -1.0653  2.7659
 6268TIP3    H218727   5.071   1.931   2.860  0.9832  0.6388 -1.0387
 6269TIP3   OH218728   3.921   1.408   7.237  0.4474  0.1736 -0.1074
 6269TIP3    H118729   4.013   1.423   7.256  0.0568  1.4536  0.8428
 6269TIP3    H218730   3.908   1.446   7.150  0.9381 -0.5190 -0.4872
 6270TIP3   OH218731   5.404   1.541   5.129 -0.1816  0.2201  0.8544
 6270TIP3    H118732   5.495   1.525   5.154 -0.0118 -1.5267 -0.7256
 6270TIP3    H218733   5.353   1.513   5.205  0.5897  1.1329  1.7157
 6271TIP3   OH218734   6.029   2.383   3.758  0.0251 -0.1827 -0.1945
 6271TIP3    H118735   6.097   2.328   3.797  0.4427  1.4781  1.4798
 6271TIP3    H218736   6.071   2.420   3.679 -0.4548 -2.6613 -1.6760
 6272TIP3   OH218737   6.381   1.448   6.679 -0.4596  0.2882 -0.0434
 6272TIP3    H118738   6.472   1.473   6.695  0.6188 -1.5856 -2.7806
 6272TIP3    H218739   6.368   1.370   6.733 -0.1518  0.0334 -0.3366
 6273TIP3   OH218740   6.643   0.594   5.967  0.6843 -0.2091  0.1922
 6273TIP3    H118741   6.568   0.654   5.956  0.7588 -0.0112  0.7679
 6273TIP3    H218742   6.619   0.540   6.042  1.0338 -0.2814  0.2499
 6274TIP3   OH218743   5.238   0.530   4.798 -0.2998  0.5837 -0.2008
 6274TIP3    H118744   5.254   0.468   4.727  0.0476 -0.6050  0.8882
 6274TIP3    H218745   5.288   0.608   4.774  1.6859 -0.6522 -0.1369
 6275TIP3   OH218746   5.065   1.373   4.178  0.1745 -0.5078 -0.1960
 6275TIP3    H118747   5.041   1.404   4.091  1.9439  0.7495 -0.2676
 6275TIP3    H218748   4.988   1.389   4.231  0.1500  1.7413 -0.8214
 6276TIP3   OH218749   3.239   8.268   2.768  0.2991 -0.0317 -0.0981
 6276TIP3    H118750   3.294   8.345   2.754 -1.2335  1.2846  0.9398
 6276TIP3    H218751   3.174   8.271   2.698  0.8849 -0.9861 -0.6887
 6277TIP3   OH218752   4.835   2.185   3.452 -0.3750  0.0079 -0.1618
 6277TIP3    H118753   4.810   2.276   3.469  2.9755  0.9539 -0.1016
 6277TIP3    H218754   4.924   2.178   3.486 -0.4129 -3.1659 -0.6471
 6278TIP3   OH218755   4.777   1.390   6.326 -0.2964 -0.6940  0.1132
 6278TIP3    H118756   4.807   1.478   6.351  0.3037 -0.6620 -0.6839
 6278TIP3    H218757   4.689   1.383   6.364 -0.3261  0.2358  0.2349
 6279TIP3   OH218758   4.152   0.717   5.004 -0.4553  0.0941 -0.5132
 6279TIP3    H118759   4.125   0.789   4.947 -1.4239 -0.7694 -1.1710
 6279TIP3    H218760   4.131   0.638   4.954 -0.9760 -0.6711  0.8890
 6280TIP3   OH218761   5.735   0.893   6.196  0.4116  0.1921  0.0025
 6280TIP3    H118762   5.740   0.975   6.148  0.3029 -0.7975 -1.7301
 6280TIP3    H218763   5.708   0.918   6.285  1.0935  2.0785 -0.3148
 6281TIP3   OH218764   2.539   7.850   3.245 -0.1200  0.1930 -0.2338
 6281TIP3    H118765   2.615   7.885   3.293 -0.8887 -2.2211  2.9351
 6281TIP3    H218766   2.472   7.917   3.256  0.0009  0.0818  1.3931
 6282TIP3   OH218767   4.600   0.222   5.820  0.1397  0.2687  0.3814
 6282TIP3    H118768   4.591   0.317   5.830 -2.4955 -0.0173  1.2368
 6282TIP3    H218769   4.667   0.211   5.753 -3.1982  2.8853 -3.6836
 6283TIP3   OH218770   3.945   7.951   5.580 -0.3818 -0.5727  0.1619
 6283TIP3    H118771   4.033   7.975   5.551 -0.5281  1.0081  0.9637
 6283TIP3    H218772   3.952   7.943   5.675 -1.3270  0.6089  0.3476
 6284TIP3   OH218773   7.084   0.844   6.962 -0.1585 -0.1033 -0.2003
 6284TIP3    H118774   7.022   0.851   6.889 -2.1770  2.6775  1.6598
 6284TIP3    H218775   7.066   0.758   7.000 -2.4340  0.3497 -0.1523
 6285TIP3   OH218776   4.103   1.119   3.760 -0.5009 -0.1673 -0.0737
 6285TIP3    H118777   4.115   1.138   3.667  1.3852 -1.8301 -0.2125
 6285TIP3    H218778   4.150   1.188   3.806 -1.2674  0.5450 -0.3524
 6286TIP3   OH218779   5.899   0.298   6.501  0.0319 -0.1440 -0.4882
 6286TIP3    H118780   5.953   0.220   6.513 -0.3042 -0.1321  1.3283
 6286TIP3    H218781   5.820   0.280   6.552 -1.3284  0.1702 -2.4673
 6287TIP3   OH218782   3.608   8.094   4.507 -0.4782  0.4873 -0.2869
 6287TIP3    H118783   3.648   8.070   4.423  1.7295 -1.5671  1.2939
 6287TIP3    H218784   3.679   8.135   4.557 -1.7157  1.5094  0.6528
 6288TIP3   OH218785   0.691   8.131   4.188 -0.2026 -0.0996 -0.1905
 6288TIP3    H118786   0.734   8.060   4.235  0.2646  0.1299 -0.2671
 6288TIP3    H218787   0.659   8.091   4.107 -0.5955 -0.3885  0.1066
 6289TIP3   OH218788   5.378   3.195   4.068 -0.1229  0.0209 -0.3353
 6289TIP3    H118789   5.431   3.116   4.059 -0.0894 -0.0067  0.0746
 6289TIP3    H218790   5.439   3.266   4.046 -0.0370 -0.0397 -0.2953
 6290TIP3   OH218791   6.406   0.794   4.841 -0.1216 -0.0669 -0.4162
 6290TIP3    H118792   6.492   0.826   4.814  0.5500 -0.4352  1.2480
 6290TIP3    H218793   6.424   0.731   4.911 -1.7025 -0.6470 -0.4995
 6291TIP3   OH218794   3.741   2.585   5.075 -0.0081  0.7855  0.0228
 6291TIP3    H118795   3.700   2.655   5.126  0.4661  0.4011  0.9401
 6291TIP3    H218796   3.730   2.506   5.128  1.4673  0.5796  0.0434
 6292TIP3   OH218797   2.720   3.794   6.715 -0.1304  0.2185 -0.1570
 6292TIP3    H118798   2.721   3.838   6.800 -0.0372  2.6433 -1.3658
 6292TIP3    H218799   2.628   3.791   6.690 -0.1839 -0.7468  0.1518
 6293TIP3   OH218800   4.913   1.555   5.540 -0.7963  0.4446  0.2373
 6293TIP3    H118801   4.991   1.517   5.499 -0.8295 -0.2501  0.8105
 6293TIP3    H218802   4.907   1.512   5.625 -0.7609  1.8232  0.9643
 6294TIP3   OH218803   6.112   0.986   5.975  0.2474 -0.3327  0.3179
 6294TIP3    H118804   6.205   0.967   5.987  0.1915 -0.3540  0.7449
 6294TIP3    H218805   6.101   1.075   6.010 -0.1615 -0.8771  1.5939
 6295TIP3   OH218806   8.060   6.573   0.425  0.3232 -0.3406 -0.1590
 6295TIP3    H118807   8.103   6.617   0.352 -0.5473  0.1148 -0.4015
 6295TIP3    H218808   8.132   6.535   0.476  0.9518 -0.4335 -1.0990
 6296TIP3   OH218809   2.120   6.945   2.730  0.1679  0.3177  0.3876
 6296TIP3    H118810   2.140   7.031   2.692  1.3240  0.0278  0.3268
 6296TIP3    H218811   2.025   6.938   2.725  0.0988  1.4315  0.0277
 6297TIP3   OH218812   4.994   1.295   6.167  0.3468  0.5786 -0.3992
 6297TIP3    H118813   5.053   1.329   6.234  0.0754 -0.4748  0.3866
 6297TIP3    H218814   4.912   1.341   6.182  0.3102  0.4041 -0.0531
 6298TIP3   OH218815   3.569   7.741   7.239  0.0484  0.1510  0.0072
 6298TIP3    H118816   3.630   7.667   7.233 -0.7329 -0.5785  0.9011
 6298TIP3    H218817   3.536   7.752   7.150  0.0166 -0.7107 -0.0943
 6299TIP3   OH218818   5.380   1.383   5.828 -0.2190  0.1431 -0.7343
 6299TIP3    H118819   5.421   1.323   5.766 -0.3248 -1.0079  0.2849
 6299TIP3    H218820   5.289   1.353   5.833 -0.0598 -0.1651  0.4365
 6300TIP3   OH218821   4.964   0.800   4.745 -0.0050 -0.2843 -0.1080
 6300TIP3    H118822   5.041   0.836   4.789 -0.8782  0.9635  0.4321
 6300TIP3    H218823   4.999   0.731   4.688  1.3571 -0.6189  1.0962
 6301TIP3   OH218824   0.467   7.505   2.866 -0.2143 -0.3006 -0.5230
 6301TIP3    H118825   0.388   7.454   2.880 -1.8233  2.2497 -0.1793
 6301TIP3    H218826   0.505   7.516   2.953  0.9416 -2.1267 -0.7686
 6302TIP3   OH218827   5.283   2.721   6.435 -0.0776  0.6237  0.1590
 6302TIP3    H118828   5.313   2.681   6.517  2.9231  0.2894 -1.0777
 6302TIP3    H218829   5.287   2.650   6.371 -0.9279  1.2941 -0.6407
 6303TIP3   OH218830   2.244   8.409   6.295  0.3508  0.8962 -0.3121
 6303TIP3    H118831   2.320   8.356   6.275 -0.4048  0.4012 -1.9682
 6303TIP3    H218832   2.232   8.400   6.389  1.1929 -0.5657 -0.3367
 6304TIP3   OH218833   3.305   7.972   7.263  0.0259  0.1437  0.2914
 6304TIP3    H118834   3.376   8.015   7.215  0.8692  0.5384  1.8407
 6304TIP3    H218835   3.346   7.898   7.307 -0.5685  0.2341  1.0164
 6305TIP3   OH218836   5.289   0.436   5.659  0.1877 -0.3932 -0.3723
 6305TIP3    H118837   5.363   0.423   5.718 -1.1976  0.6668  1.6632
 6305TIP3    H218838   5.312   0.514   5.608  0.1230  0.4120  0.8213
 6306TIP3   OH218839   0.538   8.295   7.210 -0.3287 -0.5698  0.2473
 6306TIP3    H118840   0.541   8.338   7.125 -0.9998  0.9237  0.9608
 6306TIP3    H218841   0.590   8.216   7.199 -1.4366 -1.0160 -1.8888
 6307TIP3   OH218842   4.109   0.117   5.174 -0.3436  0.2124  0.0881
 6307TIP3    H118843   4.125   0.026   5.197 -1.1701 -0.5230 -2.0535
 6307TIP3    H218844   4.090   0.160   5.257  0.0476 -1.5660  1.1290
 6308TIP3   OH218845   3.072   8.215   6.779 -0.1373  0.1564  0.1758
 6308TIP3    H118846   2.980   8.192   6.768 -0.0867 -0.3489  0.8080
 6308TIP3    H218847   3.103   8.160   6.850  0.6761  0.2700 -0.0783
 6309TIP3   OH218848   4.491   0.273   5.359  0.2971 -0.4679 -0.3503
 6309TIP3    H118849   4.504   0.202   5.297  0.1820 -1.3106  0.5692
 6309TIP3    H218850   4.573   0.322   5.358  0.4593 -0.7464 -0.8200
 6310TIP3   OH218851   5.977   4.589   0.154  0.2798 -0.2271 -0.4054
 6310TIP3    H118852   5.956   4.499   0.129  0.8137 -0.6355  0.5626
 6310TIP3    H218853   6.065   4.604   0.120  0.5552 -0.3963  0.2112
 6311TIP3   OH218854   1.574   7.100   5.523  0.2468  0.5548  0.7605
 6311TIP3    H118855   1.611   7.173   5.475  0.4089  0.4689  0.7555
 6311TIP3    H218856   1.498   7.073   5.471  1.4466 -0.6914 -0.4065
 6312TIP3   OH218857   1.601   1.248   5.315 -0.2185 -0.0714 -0.0985
 6312TIP3    H118858   1.629   1.285   5.231 -0.6882  0.1411 -0.1630
 6312TIP3    H218859   1.649   1.165   5.321  0.7511  0.4796 -0.0040
 6313TIP3   OH218860   4.373   1.278   5.664 -0.5560 -0.5067  0.7212
 6313TIP3    H118861   4.397   1.276   5.757  1.1996 -1.0060  0.2613
 6313TIP3    H218862   4.443   1.231   5.619 -0.9522  0.4556 -0.9637
 6314TIP3   OH218863   0.340   8.139   2.940 -0.3632 -0.2324  0.0297
 6314TIP3    H118864   0.376   8.068   2.886  0.5946  0.0163  0.3305
 6314TIP3    H218865   0.397   8.142   3.017 -0.2609  1.0136 -0.0811
 6315TIP3   OH218866   5.493   1.445   4.225 -0.6360 -0.0296  0.5734
 6315TIP3    H118867   5.495   1.489   4.140  1.8120  0.2606  0.7317
 6315TIP3    H218868   5.436   1.369   4.212 -0.4658  0.1380 -1.2803
 6316TIP3   OH218869   5.764   3.837   3.816  0.0068 -0.2626 -0.1293
 6316TIP3    H118870   5.691   3.822   3.876  0.2535  0.6789  0.4235
 6316TIP3    H218871   5.748   3.925   3.781  0.7564 -0.1328 -0.1550
 6317TIP3   OH218872   7.991   0.429   5.234 -0.1856  0.2505 -0.0459
 6317TIP3    H118873   8.010   0.493   5.166  1.3513  0.1666  0.2885
 6317TIP3    H218874   7.898   0.411   5.224  0.0160  0.2377 -2.1118
 6318TIP3   OH218875   7.253   1.001   5.973 -0.3649 -0.4131  0.8184
 6318TIP3    H118876   7.246   0.906   5.986  0.5883 -0.6869 -0.5196
 6318TIP3    H218877   7.304   1.010   5.892  0.3018  1.2429  1.3990
 6319TIP3   OH218878   5.327   0.386   5.074  0.2293 -0.1686  0.1030
 6319TIP3    H118879   5.385   0.344   5.012 -0.5658  0.1961 -0.9109
 6319TIP3    H218880   5.302   0.468   5.032 -0.2579  0.1215  0.9338
 6320TIP3   OH218881   3.470   8.325   5.224  0.0062  0.0075  0.0157
 6320TIP3    H118882   3.494   8.397   5.165  0.1877  0.5179  0.6972
 6320TIP3    H218883   3.520   8.343   5.304 -1.0795 -0.0593  0.7148
 6321TIP3   OH218884   6.906   0.619   5.956 -0.3381 -0.0628  0.2578
 6321TIP3    H118885   6.951   0.629   6.040  0.8403  2.5877 -0.6512
 6321TIP3    H218886   6.813   0.620   5.979 -0.0350  0.9191  1.4866
 6322TIP3   OH218887   3.441   7.061   6.263  0.6080  0.1674  0.4693
 6322TIP3    H118888   3.500   6.986   6.266  1.2156  0.5092 -1.9745
 6322TIP3    H218889   3.360   7.026   6.225  0.4059  0.4385  0.6509
 6323TIP3   OH218890   5.720   0.567   3.517 -0.1878  0.2107  0.1502
 6323TIP3    H118891   5.696   0.586   3.426  0.2734  3.0371  0.5702
 6323TIP3    H218892   5.805   0.611   3.529  0.7087 -1.7954  1.3905
 6324TIP3   OH218893   7.666   0.544   2.985 -0.6753  0.0632 -0.4927
 6324TIP3    H118894   7.690   0.465   3.033 -2.3771 -1.0927 -1.4859
 6324TIP3    H218895   7.659   0.612   3.052  3.2721 -0.0042  0.0600
 6325TIP3   OH218896   1.355   4.446   0.381 -0.3439 -0.2592 -0.1183
 6325TIP3    H118897   1.388   4.375   0.436 -3.3424 -0.8721  0.9928
 6325TIP3    H218898   1.415   4.518   0.397  1.3294 -1.7653  0.6431
 6326TIP3   OH218899   4.356   1.544   5.037 -0.1181 -0.2032  0.4592
 6326TIP3    H118900   4.342   1.626   5.084 -0.7830 -0.3261  0.4948
 6326TIP3    H218901   4.336   1.564   4.946  0.2519 -0.1899  0.3836
 6327TIP3   OH218902   3.283   1.893   5.926 -0.3865 -0.6661 -0.0195
 6327TIP3    H118903   3.299   1.819   5.867 -0.6163  0.5978 -1.7079
 6327TIP3    H218904   3.189   1.908   5.920 -0.3281 -0.1877  0.2513
 6328TIP3   OH218905   8.621   5.757   1.297 -0.1456  0.4231 -0.2705
 6328TIP3    H118906   8.603   5.682   1.241  0.6185  0.7440 -0.9594
 6328TIP3    H218907   8.710   5.742   1.330 -0.6042  0.2035  0.9210
 6329TIP3   OH218908   4.898   1.144   4.756 -0.1493  0.2687 -0.9438
 6329TIP3    H118909   4.845   1.068   4.734  1.7369 -0.6921 -2.3816
 6329TIP3    H218910   4.915   1.135   4.849 -0.4218 -0.7819 -0.9848
 6330TIP3   OH218911   3.387   7.497   5.444 -0.0303  0.2189  0.1371
 6330TIP3    H118912   3.446   7.447   5.499 -0.2473 -0.7018 -0.4688
 6330TIP3    H218913   3.334   7.432   5.399  0.3639  0.9406 -1.4210
 6331TIP3   OH218914   5.877   2.396   5.680  0.5054  0.0269  0.1398
 6331TIP3    H118915   5.858   2.302   5.682 -1.2948  0.3801  1.2299
 6331TIP3    H218916   5.843   2.425   5.595  1.4672 -0.3843 -0.3854
 6332TIP3   OH218917   3.611   1.409   6.133 -0.8553 -0.2961 -0.1140
 6332TIP3    H118918   3.652   1.378   6.052  1.7997  0.7027  0.7851
 6332TIP3    H218919   3.647   1.352   6.201 -0.1472  1.2425  0.8299
 6333TIP3   OH218920   6.052   2.308   5.455  0.3717  0.3656 -0.4040
 6333TIP3    H118921   6.117   2.375   5.476  2.2823 -1.3010 -0.7801
 6333TIP3    H218922   5.997   2.303   5.533  1.8035  0.5798  0.6466
 6334TIP3   OH218923   5.890   1.390   4.651  0.2730 -0.0700  0.1955
 6334TIP3    H118924   5.870   1.484   4.646  0.0003 -0.1408 -0.0312
 6334TIP3    H218925   5.951   1.383   4.724  0.6536  0.3466 -0.0782
 6335TIP3   OH218926   4.136   1.274   3.988 -0.5056 -0.1333 -0.4227
 6335TIP3    H118927   4.147   1.334   4.062 -0.5234 -0.3409 -0.2513
 6335TIP3    H218928   4.060   1.221   4.011 -0.7177  0.0313 -0.7470
 6336TIP3   OH218929   5.251   1.339   4.736 -0.2317  0.2212 -0.2957
 6336TIP3    H118930   5.193   1.353   4.661 -2.0780 -1.7565  0.7086
 6336TIP3    H218931   5.313   1.272   4.707 -0.8692 -0.4555 -0.1070
 6337TIP3   OH218932   5.801   2.447   6.517  0.1570  0.0294  0.0557
 6337TIP3    H118933   5.881   2.395   6.521  0.6230  0.7885  0.6625
 6337TIP3    H218934   5.830   2.537   6.534 -0.6722  0.4595 -0.7532
 6338TIP3   OH218935   4.825   2.504   6.503  0.0965 -0.1397  0.0094
 6338TIP3    H118936   4.759   2.434   6.512  1.0865 -1.2639 -1.3411
 6338TIP3    H218937   4.818   2.532   6.412  0.3535  0.8968  0.3042
 6339TIP3   OH218938   6.006   3.114   4.211  0.5121 -0.2138 -0.0635
 6339TIP3    H118939   5.917   3.080   4.209  0.4707 -0.1122  0.0514
 6339TIP3    H218940   6.042   3.083   4.294  0.1236  0.9113  0.5299
 6340TIP3   OH218941   5.431   2.226   4.616  0.3194  0.2056 -0.1761
 6340TIP3    H118942   5.363   2.239   4.682  1.3099 -0.5267  1.0082
 6340TIP3    H218943   5.446   2.314   4.580 -0.3963  0.5677  0.3871
 6341TIP3   OH218944   5.258   2.271   5.362 -0.1263  0.0028  0.0349
 6341TIP3    H118945   5.292   2.186   5.389  1.0825  0.3350 -0.4271
 6341TIP3    H218946   5.304   2.291   5.280 -0.7642  0.8772 -0.1216
 6342TIP3   OH218947   6.956   0.706   4.505  0.8605  0.4774 -0.3429
 6342TIP3    H118948   6.991   0.785   4.546  1.2726  0.3155 -0.3847
 6342TIP3    H218949   7.033   0.651   4.489  0.5107 -0.2164  0.2970
 6343TIP3   OH218950   4.979   1.601   5.851 -0.4341 -0.5954  0.1451
 6343TIP3    H118951   4.943   1.666   5.791 -0.8168  0.4043  1.4273
 6343TIP3    H218952   4.928   1.522   5.834 -1.1518 -0.0606 -0.2184
 6344TIP3   OH218953   2.521   1.041   4.352 -0.9297 -0.1301  0.5796
 6344TIP3    H118954   2.556   1.050   4.263  0.3160  1.4908  1.2152
 6344TIP3    H218955   2.581   0.981   4.396  0.1784  1.3622  1.1733
 6345TIP3   OH218956   3.438   7.887   5.900  0.5334  0.0226 -0.3448
 6345TIP3    H118957   3.368   7.822   5.904 -0.4545  1.1781  2.0060
 6345TIP3    H218958   3.418   7.940   5.823 -2.7084  2.0166  1.7953
 6346TIP3   OH218959   7.059   2.950   4.113 -0.6467  0.0403  0.2458
 6346TIP3    H118960   6.990   2.903   4.066 -2.2521  3.7110 -1.2619
 6346TIP3    H218961   7.129   2.960   4.048  0.6372 -2.1510  1.2471
 6347TIP3   OH218962   4.616   1.484   5.051  0.3956  0.5203 -0.0478
 6347TIP3    H118963   4.630   1.473   4.957  0.7187 -0.5910  0.1143
 6347TIP3    H218964   4.521   1.496   5.060  0.5819  2.6540 -0.6796
 6348TIP3   OH218965   2.743   6.597   3.746  0.7157 -0.4843 -0.1593
 6348TIP3    H118966   2.710   6.687   3.741 -0.5996 -0.6900  3.6128
 6348TIP3    H218967   2.671   6.543   3.712  0.8694 -0.2565 -0.8588
 6349TIP3   OH218968   6.527   2.366   3.107  0.1165  0.3494  0.2054
 6349TIP3    H118969   6.582   2.443   3.094  1.8255 -0.8202  0.3625
 6349TIP3    H218970   6.498   2.343   3.019 -0.9146  1.4981  0.2153
 6350TIP3   OH218971   5.818   1.883   5.236 -0.1601 -0.3455  0.2922
 6350TIP3    H118972   5.866   1.956   5.275 -1.7142 -0.2513  2.0813
 6350TIP3    H218973   5.753   1.925   5.180  0.1264 -0.4216 -0.1056
 6351TIP3   OH218974   4.544   0.891   6.162  0.1228  0.0938  0.0823
 6351TIP3    H118975   4.629   0.864   6.127 -0.8778 -1.1919 -1.3886
 6351TIP3    H218976   4.480   0.844   6.109 -1.5124  0.8538  1.3486
 6352TIP3   OH218977   6.315   8.300   4.320 -0.4449  0.0674 -0.1908
 6352TIP3    H118978   6.248   8.289   4.387 -0.9234  0.8844 -0.5313
 6352TIP3    H218979   6.271   8.284   4.237 -0.2753  0.7884 -0.4284
 6353TIP3   OH218980   3.659   8.020   3.845 -0.4013  0.0841 -0.0431
 6353TIP3    H118981   3.719   8.090   3.871 -0.2855 -0.0819  0.1465
 6353TIP3    H218982   3.587   8.026   3.908  0.2556 -0.8106  0.8066
 6354TIP3   OH218983   2.676   8.180   5.793  0.0657  0.4171  0.5788
 6354TIP3    H118984   2.670   8.244   5.723  1.3536 -0.2737 -0.1798
 6354TIP3    H218985   2.769   8.159   5.799 -0.2456 -0.8100  1.3252
 6355TIP3   OH218986   7.687   0.833   4.633  0.1850  0.1149  0.2527
 6355TIP3    H118987   7.595   0.814   4.650  0.8018 -3.0681  0.2329
 6355TIP3    H218988   7.720   0.757   4.585  2.7304  1.3811 -0.1339
 6356TIP3   OH218989   6.701   0.074   3.663  0.2975 -0.3066  0.3179
 6356TIP3    H118990   6.749   0.157   3.656  0.0887 -0.1763  0.4310
 6356TIP3    H218991   6.653   0.067   3.581 -1.8320  1.0227  1.4185
 6357TIP3   OH218992   1.912   3.574   0.224 -0.9586  0.0708 -0.1629
 6357TIP3    H118993   1.954   3.610   0.302 -1.0389 -0.3283  0.0706
 6357TIP3    H218994   1.823   3.553   0.253 -0.8723 -0.4370 -0.2522
 6358TIP3   OH218995   5.654   0.873   3.446  0.3172 -0.2947 -0.4915
 6358TIP3    H118996   5.594   0.838   3.512  1.0210 -0.9196 -0.1848
 6358TIP3    H218997   5.652   0.968   3.460  0.8163 -0.4528  0.7373
 6359TIP3   OH218998   6.648   0.954   3.648 -0.1569 -0.2143 -0.0810
 6359TIP3    H118999   6.620   0.864   3.659 -2.9031  0.5081 -0.8487
 6359TIP3    H219000   6.708   0.970   3.721  1.6013 -3.1030 -0.8485
 6360TIP3   OH219001   5.639   8.096   3.951 -0.7910  0.0622 -0.5432
 6360TIP3    H119002   5.546   8.078   3.939 -0.7587  0.2280 -1.0515
 6360TIP3    H219003   5.648   8.190   3.936 -0.6052  0.1175 -0.0983
 6361TIP3   OH219004   7.579   2.039   1.873 -0.5359  0.0614 -0.3948
 6361TIP3    H119005   7.622   1.986   1.806  1.5947  0.7528  0.3863
 6361TIP3    H219006   7.576   1.982   1.950 -1.8296 -0.2840 -0.6864
 6362TIP3   OH219007   5.586   0.961   3.047  0.4626  0.4181  0.8356
 6362TIP3    H119008   5.549   0.907   3.118  1.1475 -0.4134  0.5676
 6362TIP3    H219009   5.530   0.943   2.972 -0.8781  2.0779  1.4215
 6363TIP3   OH219010   3.090   7.964   3.638 -0.5306 -0.6973 -0.1757
 6363TIP3    H119011   3.162   7.903   3.620  0.7596  0.5401  0.7208
 6363TIP3    H219012   3.077   8.010   3.555  0.7979  0.1748  0.0696
 6364TIP3   OH219013   6.318   1.943   3.914 -0.0216 -0.4639 -0.2285
 6364TIP3    H119014   6.387   1.992   3.959  0.7629 -1.8101  0.0871
 6364TIP3    H219015   6.357   1.921   3.829 -0.7070  0.2529 -0.7266
 6365TIP3   OH219016   7.107   0.155   3.926 -0.0571  0.5368  0.3823
 6365TIP3    H119017   7.119   0.198   3.842  0.8022  0.7752  0.6219
 6365TIP3    H219018   7.192   0.163   3.970 -0.8053  1.3819  1.7235
 6366TIP3   OH219019   3.517   7.140   3.637  0.0530 -0.2583  0.4758
 6366TIP3    H119020   3.445   7.081   3.614  0.4331 -0.8022  0.6409
 6366TIP3    H219021   3.524   7.200   3.564 -1.6136  0.8169  1.1736
 6367TIP3   OH219022   4.551   8.339   2.224  0.3788  0.5245 -0.1801
 6367TIP3    H119023   4.469   8.361   2.179  0.6482  0.6681 -0.5942
 6367TIP3    H219024   4.620   8.372   2.167  0.8321 -2.3043 -1.3741
 6368TIP3   OH219025   4.882   1.126   5.815  0.0309 -0.2019 -0.0832
 6368TIP3    H119026   4.887   1.037   5.781 -1.4709 -0.0300 -0.8327
 6368TIP3    H219027   4.961   1.137   5.868  0.4749 -1.7981 -0.3969
 6369TIP3   OH219028   6.300   0.754   5.363  0.2941 -0.0437 -0.2725
 6369TIP3    H119029   6.371   0.815   5.343  1.3730 -0.7535  1.3361
 6369TIP3    H219030   6.338   0.667   5.348 -0.4645 -0.4092 -0.1013
 6370TIP3   OH219031   7.286   1.729   4.339 -0.3721  0.2016  0.0880
 6370TIP3    H119032   7.289   1.643   4.380  1.4105  0.3828  0.3698
 6370TIP3    H219033   7.193   1.746   4.324 -0.8503 -1.0085  1.6340
 6371TIP3   OH219034   6.942   1.136   2.969  0.1302 -0.1351 -1.0842
 6371TIP3    H119035   7.006   1.152   2.899  0.8520 -1.0272 -0.6337
 6371TIP3    H219036   6.860   1.119   2.922 -0.2191  2.7039 -1.6381
 6372TIP3   OH219037   5.734   0.434   4.865  0.4419 -0.0942 -0.3661
 6372TIP3    H119038   5.674   0.401   4.797 -0.5063  0.5896  0.1277
 6372TIP3    H219039   5.714   0.381   4.942  0.8436 -0.2216 -0.3506
 6373TIP3   OH219040   8.124   2.580   3.328  0.1462  0.7483  0.1421
 6373TIP3    H119041   8.116   2.670   3.296 -1.4963  0.6535  0.2407
 6373TIP3    H219042   8.170   2.588   3.411 -0.7455  1.6005  0.5698
 6374TIP3   OH219043   5.825   0.181   2.640 -0.2764  0.1427  0.0867
 6374TIP3    H119044   5.803   0.145   2.553  0.1315  0.8362 -0.3073
 6374TIP3    H219045   5.742   0.182   2.687 -0.5283 -0.1111 -0.3458
 6375TIP3   OH219046   8.142   1.957   4.434  0.7781  0.4466  0.3503
 6375TIP3    H119047   8.209   1.897   4.401 -0.0204  0.1960 -0.8194
 6375TIP3    H219048   8.110   2.004   4.357 -0.7391  0.2157  0.8152
 6376TIP3   OH219049   2.198   7.332   3.022  0.3224 -0.0189 -0.5861
 6376TIP3    H119050   2.126   7.329   2.959  0.7130  1.4105 -1.1135
 6376TIP3    H219051   2.232   7.421   3.016 -0.2779  0.4454  2.3690
 6377TIP3   OH219052   6.410   1.384   4.119 -0.7904 -0.4728 -0.1763
 6377TIP3    H119053   6.317   1.394   4.141 -0.5661  1.5576  0.0015
 6377TIP3    H219054   6.448   1.471   4.135  0.6240 -0.5579 -2.7072
 6378TIP3   OH219055   8.275   2.388   3.736  0.2396 -0.6395 -0.2754
 6378TIP3    H119056   8.209   2.320   3.723 -0.0320 -0.5038  0.3816
 6378TIP3    H219057   8.354   2.354   3.695  0.3988 -1.8100  0.9836
 6379TIP3   OH219058   8.432   1.650   4.247  0.1003  0.5287 -0.0953
 6379TIP3    H119059   8.357   1.682   4.196 -0.8045  0.7713  1.3637
 6379TIP3    H219060   8.494   1.723   4.247  0.5024  0.2116 -1.5840
 6380TIP3   OH219061   6.463   2.133   4.057 -0.3762  0.8031 -0.0047
 6380TIP3    H119062   6.457   2.194   4.131 -0.9230  0.1939  0.4572
 6380TIP3    H219063   6.557   2.125   4.040 -0.1739 -0.2034  1.5806
 6381TIP3   OH219064   3.237   6.635   3.531  0.3669  0.0099  0.2526
 6381TIP3    H119065   3.159   6.582   3.548  1.8278 -1.7204  1.7323
 6381TIP3    H219066   3.233   6.652   3.437 -2.6268  1.3482  0.5384
 6382TIP3   OH219067   6.311   1.683   4.031  0.6177  0.3278  0.3394
 6382TIP3    H119068   6.343   1.764   3.992  0.6934  0.8084  1.3767
 6382TIP3    H219069   6.242   1.653   3.971  0.2137  1.4438  0.2279
 6383TIP3   OH219070   5.805   0.772   6.509 -0.0334  0.0249 -0.3790
 6383TIP3    H119071   5.890   0.743   6.477 -0.2673 -0.7540 -0.3063
 6383TIP3    H219072   5.761   0.692   6.537 -0.2915  0.5640  0.7967
 6384TIP3   OH219073   7.054   0.482   3.862  0.1791 -0.4966 -0.4933
 6384TIP3    H119074   7.057   0.577   3.856  0.6057 -0.5783 -1.5420
 6384TIP3    H219075   6.972   0.464   3.908 -0.1058  0.3560 -0.6624
 6385TIP3   OH219076   6.530   0.773   6.919 -0.0131  0.4278  0.4798
 6385TIP3    H119077   6.471   0.814   6.856  0.1703 -0.5994 -0.3795
 6385TIP3    H219078   6.602   0.835   6.930 -0.7484  1.2399  0.7694
 6386TIP3   OH219079   8.089   0.961   2.210 -0.5650 -0.3526  0.1596
 6386TIP3    H119080   8.087   1.056   2.200 -1.4462 -0.3879 -0.0417
 6386TIP3    H219081   7.997   0.935   2.213 -0.3378 -1.2507 -0.3431
 6387TIP3   OH219082   5.361   7.626   5.580  0.5788 -0.4371 -0.6397
 6387TIP3    H119083   5.410   7.692   5.630 -0.3533  0.3103 -0.7077
 6387TIP3    H219084   5.429   7.568   5.545  1.3944  0.3420 -0.3785
 6388TIP3   OH219085   6.133   0.949   5.568 -0.0041 -0.6015 -0.0746
 6388TIP3    H119086   6.156   0.884   5.634  1.0118 -0.0712  0.0931
 6388TIP3    H219087   6.168   0.915   5.486 -0.2001 -0.6665 -0.1331
 6389TIP3   OH219088   5.817   8.235   1.710  0.2614  0.4469 -0.0017
 6389TIP3    H119089   5.847   8.249   1.620 -0.4028 -0.0365 -0.2995
 6389TIP3    H219090   5.799   8.323   1.743  0.3894  0.6189 -0.3866
 6390TIP3   OH219091   8.061   2.272   4.039 -0.2927  0.0440  0.2225
 6390TIP3    H119092   8.137   2.293   3.985  0.1353 -0.6428  0.5547
 6390TIP3    H219093   7.994   2.335   4.011  0.0544 -0.0282 -0.8163
 6391TIP3   OH219094   5.948   3.543   3.027  0.2924 -0.1149 -0.3709
 6391TIP3    H119095   5.873   3.583   2.983  0.7361 -0.0026 -1.0335
 6391TIP3    H219096   6.015   3.538   2.960  0.7084 -0.6974  0.0826
 6392TIP3   OH219097   0.173   1.593   4.397  0.3795 -0.4237  0.3084
 6392TIP3    H119098   0.217   1.674   4.373  1.0804 -0.4859  1.3394
 6392TIP3    H219099   0.154   1.603   4.491 -0.4898 -1.0022  0.2014
 6393TIP3   OH219100   5.930   0.023   5.313  0.0255  0.1838 -0.6701
 6393TIP3    H119101   5.994   0.067   5.369 -1.1780  0.5939  0.4320
 6393TIP3    H219102   5.908   0.088   5.246 -1.5985  1.2582  0.8374
 6394TIP3   OH219103   7.481   1.550   5.893 -0.3141  0.1098  0.5381
 6394TIP3    H119104   7.503   1.516   5.979  1.3064 -1.2707 -0.3842
 6394TIP3    H219105   7.388   1.572   5.898 -0.5013 -1.0318  2.2868
 6395TIP3   OH219106   5.152   1.785   5.491 -0.3999 -0.4848 -0.1801
 6395TIP3    H119107   5.146   1.690   5.506 -0.3106 -0.8699 -2.4491
 6395TIP3    H219108   5.243   1.799   5.465 -0.3211  0.2849  0.5141
 6396TIP3   OH219109   6.088   2.424   3.043 -0.0194  0.1270 -0.1693
 6396TIP3    H119110   6.046   2.508   3.025  1.3749  0.7474 -0.5886
 6396TIP3    H219111   6.020   2.359   3.024 -1.3626  1.1715  0.9192
 6397TIP3   OH219112   6.579   1.757   5.344 -0.1386  0.5441 -0.2726
 6397TIP3    H119113   6.587   1.685   5.280 -0.4376  1.7325 -1.6713
 6397TIP3    H219114   6.484   1.770   5.352 -0.1410 -0.2452  1.1769
 6398TIP3   OH219115   8.470   2.022   6.406 -0.1596  0.1173  0.5869
 6398TIP3    H119116   8.455   2.058   6.494 -0.0903  1.3938  0.0980
 6398TIP3    H219117   8.546   2.071   6.374 -0.0247 -0.5321 -0.0814
 6399TIP3   OH219118   5.829   0.736   4.792  0.1558  0.5020 -0.0768
 6399TIP3    H119119   5.815   0.759   4.700 -0.1138 -0.4080 -0.2658
 6399TIP3    H219120   5.830   0.820   4.838 -0.4527  0.9120 -0.8121
 6400TIP3   OH219121   0.134   0.893   2.203  0.5821 -0.2095  0.2551
 6400TIP3    H119122   0.164   0.957   2.268 -0.2162 -0.6650  1.0822
 6400TIP3    H219123   0.111   0.815   2.254 -2.1801  0.1810 -0.3040
 6401TIP3   OH219124   3.343   7.807   3.607 -0.4652  0.6117  0.2330
 6401TIP3    H119125   3.430   7.789   3.573 -0.0772 -1.9073  2.3964
 6401TIP3    H219126   3.358   7.853   3.690 -1.2565  2.1717 -0.4725
 6402TIP3   OH219127   7.778   2.530   5.732 -0.8400  0.8221 -0.6853
 6402TIP3    H119128   7.716   2.462   5.758  0.4710  0.1548  0.8027
 6402TIP3    H219129   7.833   2.542   5.809 -0.0373  2.4261 -1.4944
 6403TIP3   OH219130   3.818   8.264   3.872 -0.1378 -0.1999  0.4611
 6403TIP3    H119131   3.842   8.309   3.954  1.1717 -0.4342  0.2169
 6403TIP3    H219132   3.793   8.335   3.813  0.3217  0.0882  0.6063
 6404TIP3   OH219133   6.271   0.925   3.486  0.1626 -0.4066  0.2102
 6404TIP3    H119134   6.310   0.992   3.543  0.3049  0.3495 -0.7542
 6404TIP3    H219135   6.332   0.918   3.412 -0.6663 -0.4464 -0.4816
 6405TIP3   OH219136   8.191   2.353   4.284  0.2102 -0.6058 -0.7033
 6405TIP3    H119137   8.196   2.350   4.188 -0.9756 -1.0007 -0.7561
 6405TIP3    H219138   8.241   2.431   4.308 -0.8873  0.4291 -1.7506
 6406TIP3   OH219139   4.613   7.915   2.067 -0.5984  0.2207  0.3635
 6406TIP3    H119140   4.652   7.967   2.138  0.1386 -0.5838  0.5610
 6406TIP3    H219141   4.594   7.978   1.998  0.3355  0.7431  0.5777
 6407TIP3   OH219142   0.770   4.987   0.820 -0.2930 -0.6757  0.6508
 6407TIP3    H119143   0.774   5.082   0.817  1.0299 -0.6886  1.7279
 6407TIP3    H219144   0.746   4.961   0.731  0.4530  0.6094  0.0664
 6408TIP3   OH219145   3.232   6.879   4.930  0.1869 -0.2311 -0.2544
 6408TIP3    H119146   3.187   6.876   4.845  1.4242 -0.2721 -0.9189
 6408TIP3    H219147   3.225   6.789   4.963  1.2535 -0.6439 -1.1354
 6409TIP3   OH219148   5.376   7.349   4.457  0.5259  0.6179 -0.2590
 6409TIP3    H119149   5.430   7.427   4.454  0.2269  0.8879  1.1705
 6409TIP3    H219150   5.438   7.277   4.470  0.8390  0.5557 -1.9819
 6410TIP3   OH219151   4.774   7.377   3.373  0.3587  0.4685  0.5054
 6410TIP3    H119152   4.828   7.456   3.364 -0.3506  0.8897 -0.1777
 6410TIP3    H219153   4.694   7.397   3.324 -1.6219  0.8995  3.7547
 6411TIP3   OH219154   7.982   0.160   5.686  0.0665 -0.2528 -0.2248
 6411TIP3    H119155   7.903   0.157   5.739  1.0950 -1.8799  1.2733
 6411TIP3    H219156   7.958   0.117   5.604 -0.8318  0.0666 -0.1373
 6412TIP3   OH219157   5.380   1.576   4.788 -0.3378 -0.3072  0.0858
 6412TIP3    H119158   5.333   1.617   4.716  0.5005  0.0748 -0.2500
 6412TIP3    H219159   5.334   1.493   4.803 -1.5114  0.3579  0.1986
 6413TIP3   OH219160   6.391   1.712   3.058 -0.2995  0.2347  0.3101
 6413TIP3    H119161   6.356   1.640   3.006 -3.1045  0.3204  1.9908
 6413TIP3    H219162   6.344   1.789   3.029  0.2081  0.7930  0.9295
 6414TIP3   OH219163   5.696   0.739   3.753 -0.8643 -0.7435  0.4919
 6414TIP3    H119164   5.661   0.689   3.680  0.5801  1.5434 -1.8892
 6414TIP3    H219165   5.660   0.827   3.741  1.5997  0.3682  0.8620
 6415TIP3   OH219166   7.892   1.509   3.457 -0.1228  0.1587  0.7129
 6415TIP3    H119167   7.894   1.419   3.426  1.0660  0.3700  0.1364
 6415TIP3    H219168   7.801   1.537   3.446 -0.4665 -0.9271  0.7912
 6416TIP3   OH219169   6.439   1.298   3.492  0.3345  0.5722 -0.3251
 6416TIP3    H119170   6.352   1.319   3.459 -0.1884  1.5930  1.6349
 6416TIP3    H219171   6.424   1.261   3.579  1.7576 -0.8599 -0.6606
 6417TIP3   OH219172   5.716   1.150   5.792  0.6969  0.3068  0.0278
 6417TIP3    H119173   5.645   1.186   5.739  0.2107 -0.3748  0.2018
 6417TIP3    H219174   5.785   1.131   5.729  0.2578 -0.1604 -0.3172
 6418TIP3   OH219175   0.614   3.096   5.499 -0.2763 -0.3376  0.2393
 6418TIP3    H119176   0.627   3.109   5.405  0.0532 -1.1894  0.1611
 6418TIP3    H219177   0.672   3.023   5.522  0.9328  0.9997  1.4560
 6419TIP3   OH219178   5.391   7.934   2.380  0.5783  0.3746 -0.2805
 6419TIP3    H119179   5.365   8.006   2.323  1.4311 -0.2922 -1.5165
 6419TIP3    H219180   5.318   7.872   2.376  0.1652  0.8253  0.2131
 6420TIP3   OH219181   7.078   1.673   4.091  0.6475  0.5991 -0.0573
 6420TIP3    H119182   7.154   1.625   4.061 -0.5377 -0.6981 -1.0679
 6420TIP3    H219183   7.059   1.734   4.019  1.0478  1.2916  0.4226
 6421TIP3   OH219184   7.520   0.311   4.237  0.3401 -0.2235  0.5241
 6421TIP3    H119185   7.568   0.229   4.242  0.6903 -0.0928 -0.6003
 6421TIP3    H219186   7.467   0.303   4.157 -1.0349 -0.1096  1.3968
 6422TIP3   OH219187   7.634   1.462   5.460 -0.2584  0.3716  0.4578
 6422TIP3    H119188   7.623   1.391   5.397  1.0447  0.9685 -0.4703
 6422TIP3    H219189   7.727   1.484   5.454 -0.0237  0.1494  2.9133
 6423TIP3   OH219190   7.686   1.521   4.764 -0.2534  0.0137 -0.4533
 6423TIP3    H119191   7.653   1.560   4.683 -0.1841  0.2448 -0.3709
 6423TIP3    H219192   7.755   1.461   4.735 -0.0337  0.3071 -0.5470
 6424TIP3   OH219193   5.417   8.014   2.799 -0.1853  0.1144 -0.4334
 6424TIP3    H119194   5.508   8.021   2.769  0.1489  0.6497  0.6862
 6424TIP3    H219195   5.421   7.953   2.872 -0.6441  0.5653 -0.0326
 6425TIP3   OH219196   6.864   1.705   2.355 -0.3919 -0.1566 -0.0541
 6425TIP3    H119197   6.865   1.654   2.436 -0.0464  0.7059  0.4913
 6425TIP3    H219198   6.780   1.751   2.357 -0.7244 -0.7373 -0.5678
 6426TIP3   OH219199   5.285   7.839   1.892  0.5254  0.0766  0.2820
 6426TIP3    H119200   5.250   7.755   1.864 -0.1115  0.3996  0.1102
 6426TIP3    H219201   5.213   7.901   1.881  1.0892  0.7091  0.1008
 6427TIP3   OH219202   7.969   1.180   2.869 -0.4985 -0.9811  0.3238
 6427TIP3    H119203   7.942   1.108   2.926 -2.3191  0.5473  1.4365
 6427TIP3    H219204   8.043   1.220   2.915  0.1534 -1.7864 -0.0195
 6428TIP3   OH219205   5.078   0.585   3.739  0.7246  0.5363 -0.5160
 6428TIP3    H119206   5.111   0.635   3.664  0.7775  0.3868 -0.5933
 6428TIP3    H219207   5.037   0.650   3.795  0.3053  0.5919 -0.8843
 6429TIP3   OH219208   8.482   0.409   4.867 -0.4929 -0.4760  0.1796
 6429TIP3    H119209   8.415   0.375   4.926  0.6612 -1.8884  0.6940
 6429TIP3    H219210   8.449   0.389   4.779 -1.0037 -0.6585  0.4112
 6430TIP3   OH219211   5.679   0.481   3.146 -0.1845  0.1293 -0.3981
 6430TIP3    H119212   5.713   0.562   3.183  0.7964 -0.2432 -0.4830
 6430TIP3    H219213   5.671   0.499   3.052 -1.4139  0.6258 -0.2171
 6431TIP3   OH219214   7.833   0.949   4.365 -0.2612  0.3458  0.0012
 6431TIP3    H119215   7.796   1.035   4.385  1.8263  1.3339 -0.2684
 6431TIP3    H219216   7.883   0.926   4.443 -0.3251 -0.3807 -0.1638
 6432TIP3   OH219217   6.820   1.575   4.132 -0.3368  0.6898 -0.6478
 6432TIP3    H119218   6.912   1.579   4.106 -0.0856  1.1865  0.2617
 6432TIP3    H219219   6.796   1.483   4.123  0.7230  0.2643  0.6536
 6433TIP3   OH219220   8.419   2.789   3.898 -0.1099 -0.1537  0.2778
 6433TIP3    H119221   8.407   2.884   3.893 -1.0350 -0.1584  2.1262
 6433TIP3    H219222   8.431   2.762   3.807  0.6547  1.7886 -0.2200
 6434TIP3   OH219223   7.542   1.801   3.372 -0.1041  0.3817  0.2503
 6434TIP3    H119224   7.451   1.772   3.378  0.1167 -0.1514  1.0671
 6434TIP3    H219225   7.587   1.728   3.331  0.1851  0.1351  0.9979
 6435TIP3   OH219226   8.796   3.841   3.747  0.0291 -0.0907 -0.3722
 6435TIP3    H119227   8.804   3.778   3.819 -0.1243  0.6731  0.3144
 6435TIP3    H219228   8.747   3.793   3.680  1.2418 -1.2187 -0.4713
 6436TIP3   OH219229   3.468   7.547   1.373 -0.1540 -0.3326  0.1771
 6436TIP3    H119230   3.532   7.584   1.434  0.9037 -1.3273 -0.3083
 6436TIP3    H219231   3.488   7.589   1.290 -2.0049  1.4926  0.6296
 6437TIP3   OH219232   6.674  -0.012   1.348  0.1362 -0.3346  0.4755
 6437TIP3    H119233   6.758   0.034   1.347  0.5746 -1.1464 -0.2343
 6437TIP3    H219234   6.613   0.049   1.307  0.1965  0.5778  1.6893
 6438TIP3   OH219235   5.673   1.397   5.572 -0.1656  0.1565 -0.0037
 6438TIP3    H119236   5.746   1.423   5.628 -1.0365  0.5888  0.9520
 6438TIP3    H219237   5.609   1.467   5.583 -0.9759 -0.5339 -0.3391
 6439TIP3   OH219238   8.392   0.806   3.479 -0.7865 -0.5236  0.2104
 6439TIP3    H119239   8.439   0.738   3.431 -1.5742 -1.5368  0.8749
 6439TIP3    H219240   8.448   0.825   3.555 -0.2631  0.0304 -0.3041
 6440TIP3   OH219241   5.108   2.067   3.960 -0.5112  0.3753 -0.4018
 6440TIP3    H119242   5.096   1.989   3.906 -1.7608  1.3072 -1.4761
 6440TIP3    H219243   5.144   2.033   4.042  1.1858 -1.0809 -1.7026
 6441TIP3   OH219244   5.486   1.471   2.876  0.0777  0.2087  0.0359
 6441TIP3    H119245   5.558   1.519   2.834  0.0844  0.2358  0.0786
 6441TIP3    H219246   5.420   1.537   2.895 -0.1875  0.0921 -0.4977
 6442TIP3   OH219247   7.708   1.735   3.031 -0.0280  0.2643 -0.3876
 6442TIP3    H119248   7.754   1.815   3.005 -0.4918  0.0822 -1.8351
 6442TIP3    H219249   7.626   1.737   2.980  0.5863 -1.8216 -1.5091
 6443TIP3   OH219250   3.565   8.090   5.013 -0.2121 -0.8650  0.7324
 6443TIP3    H119251   3.572   8.096   5.108  0.7016 -0.5110  0.6470
 6443TIP3    H219252   3.547   8.180   4.985 -0.0928 -0.9003  0.5436
 6444TIP3   OH219253   8.832   1.061   3.684 -0.5906 -0.2064 -1.1632
 6444TIP3    H119254   8.760   1.002   3.708  0.4078 -0.7983  0.4256
 6444TIP3    H219255   8.799   1.108   3.608 -2.7773 -0.2754 -0.3073
 6445TIP3   OH219256   5.574   0.272   3.788 -0.3145 -0.5817  0.2133
 6445TIP3    H119257   5.589   0.203   3.854  1.3920  0.2614  0.7465
 6445TIP3    H219258   5.575   0.353   3.838  1.6462  0.1174 -0.9313
 6446TIP3   OH219259   8.639   0.187   3.659 -0.6925 -0.4672 -0.1841
 6446TIP3    H119260   8.581   0.227   3.724  0.4061 -0.9580  1.1331
 6446TIP3    H219261   8.727   0.204   3.692 -0.0674  0.1614 -2.0894
 6447TIP3   OH219262   4.314   7.573   4.555 -0.6099 -0.0408  0.4212
 6447TIP3    H119263   4.328   7.566   4.461  0.0881 -0.7885  0.5753
 6447TIP3    H219264   4.272   7.491   4.579  1.7662 -1.0537  1.2122
 6448TIP3   OH219265   3.532   8.145   5.503  0.2932 -0.3177 -0.8470
 6448TIP3    H119266   3.624   8.162   5.523  0.5149 -0.1699 -1.9266
 6448TIP3    H219267   3.534   8.099   5.419 -0.7364  1.9284 -2.1607
 6449TIP3   OH219268   0.485   2.016   4.573 -0.9401 -0.1155 -0.4186
 6449TIP3    H119269   0.577   2.018   4.596 -1.1887  1.1144  0.5401
 6449TIP3    H219270   0.460   2.108   4.564 -2.4127 -0.3679  0.8001
 6450TIP3   OH219271   3.895   7.678   5.884  0.0482  0.6553 -0.1698
 6450TIP3    H119272   3.840   7.628   5.824  0.3713  0.9200 -0.6938
 6450TIP3    H219273   3.967   7.619   5.905 -0.2096  0.4631  0.1778
 6451TIP3   OH219274   3.641   6.972   7.070 -0.4666 -0.2957 -0.1454
 6451TIP3    H119275   3.698   6.903   7.036  0.0973  0.0174  0.1590
 6451TIP3    H219276   3.591   6.929   7.139 -1.6503 -0.9462 -1.3813
 6452TIP3   OH219277   7.796   0.389   6.323 -0.3376 -0.2731 -0.3282
 6452TIP3    H119278   7.818   0.411   6.413 -0.9395  0.1355 -0.2811
 6452TIP3    H219279   7.840   0.306   6.307  1.2850  0.5423 -0.2416
 6453TIP3   OH219280   4.576   1.656   2.932 -1.0762 -0.0323  0.1103
 6453TIP3    H119281   4.615   1.729   2.885 -0.2540  0.4402  1.4731
 6453TIP3    H219282   4.635   1.641   3.006 -2.5517 -0.4565  1.2354
 6454TIP3   OH219283   0.106   0.724   4.734  0.1957  0.5120 -0.3884
 6454TIP3    H119284   0.068   0.727   4.645  2.0305  1.3546 -1.1629
 6454TIP3    H219285   0.170   0.654   4.730  1.1802  1.3872 -0.0988
 6455TIP3   OH219286   6.734   0.824   2.726  0.3687 -0.0202 -0.0216
 6455TIP3    H119287   6.730   0.750   2.665 -1.7634 -0.5716  0.7554
 6455TIP3    H219288   6.772   0.895   2.675  2.6113 -1.6808 -0.7292
 6456TIP3   OH219289   6.052   2.664   5.596 -0.6830  0.3193  0.0900
 6456TIP3    H119290   6.107   2.615   5.534  0.2165  1.5049 -0.0802
 6456TIP3    H219291   6.071   2.756   5.576  0.1416  0.7175  2.5781
 6457TIP3   OH219292   7.813   0.110   5.367 -0.2403 -0.1035 -0.2230
 6457TIP3    H119293   7.733   0.114   5.420 -1.0220  0.8157 -1.4617
 6457TIP3    H219294   7.799   0.173   5.297  1.2116 -0.5855 -0.9689
 6458TIP3   OH219295   6.612   1.341   5.868 -0.5518  0.1537  0.4166
 6458TIP3    H119296   6.571   1.377   5.790  2.6381 -0.0014 -1.4349
 6458TIP3    H219297   6.663   1.266   5.836  1.4221  0.5576  2.4691
 6459TIP3   OH219298   6.974   1.128   4.632  0.5125 -0.3126 -0.0051
 6459TIP3    H119299   6.922   1.193   4.678  0.8909 -0.7917  1.1218
 6459TIP3    H219300   6.929   1.116   4.548  0.7506  1.7895 -0.4667
 6460TIP3   OH219301   8.130   2.002   3.381  0.6854 -0.7626 -0.6538
 6460TIP3    H119302   8.046   2.031   3.346  0.8676  0.1673 -0.3236
 6460TIP3    H219303   8.118   1.908   3.396 -0.4390 -0.5470 -0.1621
 6461TIP3   OH219304   0.070   2.964   6.934 -0.0953  0.0755  0.1604
 6461TIP3    H119305   0.020   2.883   6.940 -1.3178  1.0267  3.6523
 6461TIP3    H219306   0.019   3.028   6.983  1.2555  2.7931 -1.8423
 6462TIP3   OH219307   7.954   1.238   1.536 -0.4500  0.1009  0.4779
 6462TIP3    H119308   7.920   1.154   1.567  0.0399 -0.4150 -0.3610
 6462TIP3    H219309   8.049   1.230   1.544 -0.2226 -0.4632 -2.1164
 6463TIP3   OH219310   4.248   8.201   3.622 -0.4290 -0.1612 -0.8586
 6463TIP3    H119311   4.181   8.269   3.613 -0.4549  0.0149  0.5916
 6463TIP3    H219312   4.266   8.198   3.716  1.9777  0.1686 -1.2833
 6464TIP3   OH219313   2.963   1.401   3.705  0.0623 -0.1634 -0.0945
 6464TIP3    H119314   2.980   1.459   3.779  2.0741  0.0211 -0.6719
 6464TIP3    H219315   2.994   1.316   3.733 -0.8634 -0.5021 -0.0661
 6465TIP3   OH219316   0.865   2.658   4.796 -0.0696  0.1621 -0.2504
 6465TIP3    H119317   0.857   2.695   4.709  0.6154 -0.1102 -0.4276
 6465TIP3    H219318   0.910   2.725   4.847 -1.3949  0.7511  0.1647
 6466TIP3   OH219319   6.961   0.284   2.047 -0.0026 -0.2993  0.1240
 6466TIP3    H119320   7.006   0.203   2.019  0.4026 -0.2796  0.7023
 6466TIP3    H219321   6.916   0.259   2.127 -1.1339 -0.3434 -0.5201
 6467TIP3   OH219322   6.189   7.958   5.130  0.0791 -0.3824  0.5114
 6467TIP3    H119323   6.180   7.895   5.202 -0.2484 -1.0464 -0.1134
 6467TIP3    H219324   6.153   8.039   5.165  0.7147 -0.4667  1.4057
 6468TIP3   OH219325   4.317   7.742   2.616 -0.1598 -0.0618 -0.7545
 6468TIP3    H119326   4.331   7.743   2.521  0.3321  0.9179 -0.6761
 6468TIP3    H219327   4.223   7.725   2.626  0.0375 -1.6225 -1.3851
 6469TIP3   OH219328   8.549   0.473   6.686  0.2610 -0.3065  0.0202
 6469TIP3    H119329   8.472   0.423   6.658 -0.2050  1.0550 -1.1882
 6469TIP3    H219330   8.558   0.542   6.620  0.6140  1.4886  1.9229
 6470TIP3   OH219331   7.433   1.003   2.524  0.2740 -0.3407  0.0729
 6470TIP3    H119332   7.444   0.908   2.532  0.1761 -0.2519  1.4636
 6470TIP3    H219333   7.412   1.031   2.613 -0.2653  0.9134 -0.4484
 6471TIP3   OH219334   6.321   2.662   5.185  0.4540  0.8251  0.1977
 6471TIP3    H119335   6.373   2.617   5.118  0.9550  0.6482  0.7045
 6471TIP3    H219336   6.385   2.696   5.247 -0.0339  0.5293  0.8737
 6472TIP3   OH219337   8.140   1.182   5.190  0.9283 -0.6484 -0.0737
 6472TIP3    H119338   8.173   1.095   5.167  2.5239 -0.3352  1.0064
 6472TIP3    H219339   8.182   1.241   5.128  1.5608 -0.3792  0.6113
 6473TIP3   OH219340   4.448   1.666   3.625 -0.6412 -0.1179  0.0652
 6473TIP3    H119341   4.504   1.619   3.563 -1.0654  1.3952 -1.5426
 6473TIP3    H219342   4.369   1.686   3.574 -1.1373  0.8785  1.1989
 6474TIP3   OH219343   3.569   7.750   3.948 -0.4849 -0.3145 -0.7898
 6474TIP3    H119344   3.650   7.736   3.900 -0.6600 -0.3740 -1.0673
 6474TIP3    H219345   3.535   7.833   3.915 -0.0737  0.1631 -0.0222
 6475TIP3   OH219346   6.681   1.180   5.523 -0.3433 -0.1365 -0.3723
 6475TIP3    H119347   6.734   1.258   5.535 -0.5950  0.1961 -1.3249
 6475TIP3    H219348   6.596   1.202   5.562  0.0935 -0.5356  0.8195
 6476TIP3   OH219349   5.454   2.994   4.381 -0.1158 -0.1380  0.7254
 6476TIP3    H119350   5.517   3.013   4.313 -0.7935  1.0524  0.4268
 6476TIP3    H219351   5.500   3.011   4.463  0.0172  0.5230  0.5118
 6477TIP3   OH219352   7.534   2.881   3.923  0.1245  0.3452 -0.1326
 6477TIP3    H119353   7.518   2.829   3.844 -2.6795  0.6692  0.1963
 6477TIP3    H219354   7.452   2.928   3.939  1.1158  1.3890  2.1786
 6478TIP3   OH219355   0.223   3.718   5.004 -0.0332  0.2356  0.0371
 6478TIP3    H119356   0.298   3.727   5.063 -1.5221  0.0528  2.0109
 6478TIP3    H219357   0.203   3.625   5.004 -1.0340  0.4430  0.5231
 6479TIP3   OH219358   4.642   1.643   6.155 -0.2369 -0.4550 -0.6823
 6479TIP3    H119359   4.616   1.682   6.072 -0.5094 -0.2233 -0.4866
 6479TIP3    H219360   4.734   1.666   6.165 -0.6322  0.8994 -0.1273
 6480TIP3   OH219361   0.047   3.315   2.683  0.1034 -0.0283  0.0624
 6480TIP3    H119362   0.104   3.237   2.677  1.7527  1.0353  1.4713
 6480TIP3    H219363   0.086   3.367   2.753 -1.8856  1.3626  0.1513
 6481TIP3   OH219364   8.102   5.053   3.840  0.1941 -0.4327 -0.5770
 6481TIP3    H119365   8.120   5.042   3.746  0.0235 -1.7656 -0.4581
 6481TIP3    H219366   8.041   5.127   3.844  0.0794 -0.4642 -1.5263
 6482TIP3   OH219367   8.018   3.071   2.928  0.3192  0.5496 -0.3883
 6482TIP3    H119368   7.961   2.995   2.938 -0.3194  1.2360  1.2980
 6482TIP3    H219369   8.058   3.060   2.841 -1.7063 -0.3701 -1.2170
 6483TIP3   OH219370   7.192   1.814   1.617  0.0506  0.4774  0.0013
 6483TIP3    H119371   7.230   1.755   1.553  1.0802  0.9228  0.2022
 6483TIP3    H219372   7.241   1.896   1.607 -0.2674  0.7794  0.8490
 6484TIP3   OH219373   3.891   6.150   4.454 -0.2168  0.1690 -0.0733
 6484TIP3    H119374   3.800   6.144   4.485  0.6988 -0.3403  2.7116
 6484TIP3    H219375   3.942   6.163   4.534  2.4855 -2.6208 -1.2537
 6485TIP3   OH219376   8.731   0.542   2.705 -0.5585  0.6377 -0.4125
 6485TIP3    H119377   8.798   0.485   2.667  0.0950  0.7098  0.6155
 6485TIP3    H219378   8.733   0.524   2.799 -0.3698  2.2993 -0.0666
 6486TIP3   OH219379   0.338   1.411   2.815  0.0407 -0.0217  0.8449
 6486TIP3    H119380   0.257   1.397   2.865 -0.6809 -0.0393 -0.2911
 6486TIP3    H219381   0.366   1.499   2.839 -1.2992  0.6753 -0.0835
 6487TIP3   OH219382   3.196   7.099   5.905  0.1801  0.4281 -0.5599
 6487TIP3    H119383   3.281   7.101   5.860  0.9480  1.1544  0.9115
 6487TIP3    H219384   3.214   7.061   5.990 -0.7576  1.6173  0.1942
 6488TIP3   OH219385   5.337   7.361   4.803 -0.2067 -0.2110  0.0927
 6488TIP3    H119386   5.431   7.342   4.805 -0.1419 -0.0678 -1.2362
 6488TIP3    H219387   5.297   7.279   4.773 -0.3597  0.2219 -0.9003
 6489TIP3   OH219388   6.090   0.959   1.948 -0.1684 -0.1081 -0.4757
 6489TIP3    H119389   6.022   0.998   2.003 -2.0884  0.1355 -2.9437
 6489TIP3    H219390   6.142   1.033   1.917 -1.2617  0.1325 -1.7959
 6490TIP3   OH219391   1.503   0.665   1.599 -0.1679  0.2027 -0.0308
 6490TIP3    H119392   1.469   0.621   1.677  0.0587  0.8712  0.4511
 6490TIP3    H219393   1.447   0.635   1.528 -0.9309  0.2770  0.5370
 6491TIP3   OH219394   6.961   1.187   3.343  0.2068  0.1672  0.1234
 6491TIP3    H119395   6.885   1.131   3.360 -0.3407  0.5740 -0.9299
 6491TIP3    H219396   6.930   1.250   3.277  2.0492 -0.9388 -1.8434
 6492TIP3   OH219397   6.481   1.339   3.100 -0.7595 -0.4258  0.6876
 6492TIP3    H119398   6.510   1.420   3.142 -0.0090 -0.3967  0.1150
 6492TIP3    H219399   6.453   1.283   3.173  0.2245 -0.2521  1.2063
 6493TIP3   OH219400   3.558   6.280   6.094  0.3340  0.4415 -0.1788
 6493TIP3    H119401   3.485   6.232   6.055 -0.7214  1.1425  0.8925
 6493TIP3    H219402   3.588   6.225   6.166  0.6560  0.3107 -0.4086
 6494TIP3   OH219403   4.922   1.066   6.683 -0.3641  0.0799  0.0682
 6494TIP3    H119404   4.978   1.096   6.611 -1.2435 -1.3994 -1.2392
 6494TIP3    H219405   4.964   0.986   6.714 -0.6268  0.0876  0.4490
 6495TIP3   OH219406   6.357   2.520   2.901  0.0796  0.6093  0.9990
 6495TIP3    H119407   6.363   2.441   2.846  3.5124  0.6417  1.2298
 6495TIP3    H219408   6.290   2.499   2.966 -2.2397 -0.3978 -1.6279
 6496TIP3   OH219409   7.410   0.698   5.753  0.0422  0.2626  0.0056
 6496TIP3    H119410   7.455   0.701   5.838  0.5215  1.1034 -0.2750
 6496TIP3    H219411   7.326   0.739   5.769  0.2550  0.7031  0.0004
 6497TIP3   OH219412   7.105   0.036   5.253  0.4717 -0.4120  0.1922
 6497TIP3    H119413   7.031   0.033   5.193  2.2172 -1.7631 -1.9562
 6497TIP3    H219414   7.124   0.129   5.264 -1.6906 -0.0285  1.0291
 6498TIP3   OH219415   6.301   1.835   4.461 -0.3497 -0.1414 -0.3736
 6498TIP3    H119416   6.241   1.763   4.444 -0.0743 -0.5033  0.1770
 6498TIP3    H219417   6.375   1.820   4.403 -1.2000  0.8303 -1.7604
 6499TIP3   OH219418   8.421   1.700   6.134 -0.6182  0.4996 -0.0283
 6499TIP3    H119419   8.395   1.629   6.076 -0.5786  0.6913 -0.2777
 6499TIP3    H219420   8.517   1.697   6.134 -0.6209 -0.7477  1.5425
 6500TIP3   OH219421   5.922   0.740   5.669  0.1517  0.5372 -0.0452
 6500TIP3    H119422   5.895   0.789   5.746 -2.0096 -1.6035  0.6261
 6500TIP3    H219423   6.017   0.733   5.676  0.0676  1.1693  1.9440
 6501TIP3   OH219424   7.007   2.273   3.357 -0.0263  0.5418  0.1592
 6501TIP3    H119425   6.950   2.279   3.433 -1.2800 -4.9902 -0.0888
 6501TIP3    H219426   7.095   2.266   3.394 -0.2465  1.6437  0.9117
 6502TIP3   OH219427   4.319   8.212   5.287 -0.3115 -0.7204  0.2669
 6502TIP3    H119428   4.395   8.266   5.310 -0.7485 -1.0452  2.5947
 6502TIP3    H219429   4.249   8.276   5.272 -0.0658 -0.5025  0.0432
 6503TIP3   OH219430   6.502   1.107   4.123  0.2846  0.5473  0.2184
 6503TIP3    H119431   6.573   1.112   4.187  1.1135  2.7805 -0.8367
 6503TIP3    H219432   6.465   1.195   4.121 -2.4500 -0.5470  0.6277
 6504TIP3   OH219433   5.723   1.887   2.483 -0.1985  0.2290  0.5106
 6504TIP3    H119434   5.682   1.808   2.448  1.1068  0.1341 -0.8428
 6504TIP3    H219435   5.778   1.855   2.555 -0.3267  0.0184  0.5174
 6505TIP3   OH219436   4.894   0.293   6.047 -0.4131  0.3869  0.0676
 6505TIP3    H119437   4.917   0.386   6.046  1.8251 -0.1345 -0.0622
 6505TIP3    H219438   4.878   0.274   6.140 -1.9477  1.1172 -0.0236
 6506TIP3   OH219439   6.127   1.261   4.535  0.0152 -0.1519  0.3026
 6506TIP3    H119440   6.074   1.335   4.564  1.2498  1.5057 -1.4780
 6506TIP3    H219441   6.145   1.211   4.614 -0.1065  1.9517  1.7103
 6507TIP3   OH219442   7.465   0.175   4.838  0.2058  0.0549  0.0477
 6507TIP3    H119443   7.503   0.149   4.754  2.0324  0.8999  0.5870
 6507TIP3    H219444   7.460   0.094   4.888  1.3060 -0.0714 -0.0392
 6508TIP3   OH219445   5.452   2.225   3.519  0.2156  0.3198 -0.4171
 6508TIP3    H119446   5.472   2.281   3.594 -1.2083  1.5642 -0.9441
 6508TIP3    H219447   5.388   2.275   3.468 -0.5914 -1.5024 -1.2392
 6509TIP3   OH219448   5.925   2.660   3.005 -0.5853  0.1417 -0.1064
 6509TIP3    H119449   5.968   2.710   2.937 -1.7155  0.7489 -0.3951
 6509TIP3    H219450   5.840   2.703   3.016 -1.0227 -0.8832  0.5992
 6510TIP3   OH219451  -0.001   1.366   3.592 -0.4050 -0.4575  0.3228
 6510TIP3    H119452   0.003   1.375   3.687  4.7150 -1.1334  0.2879
 6510TIP3    H219453   0.018   1.454   3.559 -0.7292 -0.5326 -0.0707
 6511TIP3   OH219454   1.676   8.390   2.427 -0.5729  0.2726 -0.5613
 6511TIP3    H119455   1.608   8.345   2.376 -1.2479 -0.0181  0.5851
 6511TIP3    H219456   1.675   8.347   2.512  0.3315  0.9713 -0.1885
 6512TIP3   OH219457   8.081   0.980   6.687  0.3293 -0.6418  0.5972
 6512TIP3    H119458   8.000   0.930   6.690 -1.5383  2.2733  0.8000
 6512TIP3    H219459   8.116   0.974   6.775 -0.6877 -0.3204  1.0318
 6513TIP3   OH219460   5.988   7.179   3.496 -0.3289  0.1575 -0.0188
 6513TIP3    H119461   5.971   7.272   3.509 -0.4043 -0.0812  1.7102
 6513TIP3    H219462   6.055   7.157   3.562 -0.1847 -0.9620 -0.5243
 6514TIP3   OH219463   7.588   0.348   2.649 -0.3957 -0.5958  0.1162
 6514TIP3    H119464   7.663   0.395   2.686 -0.0927  0.1061 -1.3608
 6514TIP3    H219465   7.588   0.372   2.556 -0.2170 -3.5507 -0.6801
 6515TIP3   OH219466   4.068   6.756   4.045 -0.2679 -0.7454  0.4069
 6515TIP3    H119467   4.111   6.732   4.127 -1.3131 -0.0536  1.1800
 6515TIP3    H219468   4.065   6.852   4.047 -1.3293 -0.7640  0.1056
 6516TIP3   OH219469   7.373   3.729   3.648  0.1425 -0.0297  0.0728
 6516TIP3    H119470   7.378   3.735   3.552  3.0811 -0.6419  0.1461
 6516TIP3    H219471   7.456   3.689   3.674 -0.3967  0.6129  2.9362
 6517TIP3   OH219472   7.487   0.625   2.786  0.3665  0.4680  0.6071
 6517TIP3    H119473   7.423   0.558   2.809 -0.7954  2.0411  2.0743
 6517TIP3    H219474   7.549   0.625   2.859  0.8372  0.4044  0.2086
 6518TIP3   OH219475   8.131   0.098   2.321 -0.5118 -0.1269 -0.1316
 6518TIP3    H119476   8.134   0.082   2.415 -1.0536 -1.1681 -0.2855
 6518TIP3    H219477   8.222   0.102   2.294 -0.3192  1.9299  0.7152
 6519TIP3   OH219478   6.164   1.588   4.425 -0.4873 -0.0468 -0.6002
 6519TIP3    H119479   6.167   1.635   4.341 -1.9763  0.4816 -0.3629
 6519TIP3    H219480   6.188   1.498   4.402  3.0649  0.9138 -0.9471
 6520TIP3   OH219481   6.650   0.173   2.137 -0.2418  0.5236 -0.0492
 6520TIP3    H119482   6.681   0.182   2.047 -0.8854  1.6933 -0.1737
 6520TIP3    H219483   6.729   0.169   2.189  0.1374 -0.1332 -0.6687
 6521TIP3   OH219484   5.429   2.628   2.513  0.0114  0.0187 -0.2385
 6521TIP3    H119485   5.472   2.689   2.453 -0.3357 -0.1479 -0.6643
 6521TIP3    H219486   5.451   2.541   2.479  0.8258 -0.1049  0.5921
 6522TIP3   OH219487   7.314   0.415   4.000 -0.1446 -0.4342 -0.2200
 6522TIP3    H119488   7.371   0.492   4.003  0.0128 -0.6048  3.4798
 6522TIP3    H219489   7.242   0.441   3.943  1.0867  1.5957 -0.9201
 6523TIP3   OH219490   7.205   8.060   3.028 -0.1552  0.2822 -0.2372
 6523TIP3    H119491   7.273   8.009   2.984 -0.6121 -1.0247  0.5131
 6523TIP3    H219492   7.253   8.125   3.079  0.5113 -0.1513 -0.2960
 6524TIP3   OH219493   0.612   3.192   3.114  0.1281  0.4638  0.6922
 6524TIP3    H119494   0.576   3.277   3.089  2.0350  0.6961 -1.3381
 6524TIP3    H219495   0.536   3.142   3.144 -1.8408  1.1439 -2.9072
 6525TIP3   OH219496   6.985   1.162   3.694  0.5770 -0.7699  0.6904
 6525TIP3    H119497   7.022   1.146   3.607 -2.2538 -2.0749 -0.3443
 6525TIP3    H219498   7.003   1.254   3.712  0.9138 -0.4093 -1.4327
 6526TIP3   OH219499   7.483   1.963   5.843 -0.3189  0.2989 -0.4562
 6526TIP3    H119500   7.543   1.970   5.917  0.9587 -1.9421 -1.2320
 6526TIP3    H219501   7.402   1.929   5.880  0.7682 -2.1643 -0.2547
 6527TIP3   OH219502   0.087   2.800   4.047  0.4637  0.4963 -0.1280
 6527TIP3    H119503   0.085   2.835   4.135  0.3037 -0.4264  0.2481
 6527TIP3    H219504   0.043   2.866   3.993 -1.0102  0.2765  0.7819
 6528TIP3   OH219505   0.825   2.739   4.550  0.0529 -0.2525  0.4896
 6528TIP3    H119506   0.786   2.822   4.522  1.4105  0.2443  0.0555
 6528TIP3    H219507   0.774   2.672   4.504 -1.0082  0.3357  0.7932
 6529TIP3   OH219508   8.168   0.986   3.722  0.1438 -0.0271 -0.2807
 6529TIP3    H119509   8.099   0.972   3.786  0.9299 -1.4140  0.2859
 6529TIP3    H219510   8.142   0.933   3.647 -0.1768  0.6609 -0.6589
 6530TIP3   OH219511   8.567   0.293   1.853  0.1426  0.0813  0.4631
 6530TIP3    H119512   8.617   0.249   1.785  0.4404  0.2107  0.6024
 6530TIP3    H219513   8.476   0.264   1.837  0.3931 -0.9492  0.8287
 6531TIP3   OH219514   5.720   7.948   4.631  0.2972 -0.5195 -0.6121
 6531TIP3    H119515   5.628   7.921   4.631  0.2034 -0.2125  0.8757
 6531TIP3    H219516   5.760   7.899   4.703  1.1088 -0.0033 -0.7042
 6532TIP3   OH219517   6.072   0.935   2.962  0.0625  0.0288  0.1060
 6532TIP3    H119518   5.993   0.977   2.927  1.9695  2.1965 -1.7311
 6532TIP3    H219519   6.110   0.890   2.886  2.4576  1.9526  0.1068
 6533TIP3   OH219520   8.120   1.716   3.422  0.4316 -0.0662  0.2689
 6533TIP3    H119521   8.037   1.673   3.404  0.2635  0.2330  0.3357
 6533TIP3    H219522   8.179   1.645   3.447  0.6372 -0.4768 -1.3191
 6534TIP3   OH219523   8.866   0.443   3.708  0.0628  0.3415  0.0377
 6534TIP3    H119524   8.802   0.512   3.689 -1.6194 -1.1839  0.0450
 6534TIP3    H219525   8.888   0.406   3.623 -0.0974 -0.0202  0.1490
 6535TIP3   OH219526   5.915   8.395   1.963  0.2346  0.4298  0.4964
 6535TIP3    H119527   5.985   8.376   1.901  0.2380 -0.0557  0.6435
 6535TIP3    H219528   5.911   8.317   2.019 -0.1463  0.6267  0.7467
 6536TIP3   OH219529   4.412   8.009   4.087 -0.1641 -0.0381  0.2541
 6536TIP3    H119530   4.438   8.062   4.162 -0.7907 -0.2531  0.6263
 6536TIP3    H219531   4.494   7.982   4.046  0.1751  0.1223  0.8332
 6537TIP3   OH219532   3.938   8.093   1.646  0.8649 -0.7812  0.3326
 6537TIP3    H119533   4.030   8.088   1.620  0.5604 -2.6925 -0.4761
 6537TIP3    H219534   3.889   8.079   1.565 -0.1858  2.4544  0.3549
 6538TIP3   OH219535   4.519   7.674   4.143  0.1857 -0.1435 -0.2945
 6538TIP3    H119536   4.539   7.619   4.067  1.7210  0.4311 -0.3255
 6538TIP3    H219537   4.584   7.744   4.139 -0.3895  0.4681  0.9671
 6539TIP3   OH219538   7.952   1.410   5.394  0.5132  0.5281 -0.0889
 6539TIP3    H119539   7.928   1.492   5.437  0.6927  0.3800  0.2938
 6539TIP3    H219540   7.931   1.342   5.458  1.8472  0.3866  0.2277
 6540TIP3   OH219541   1.242   2.198   3.381  0.3395 -0.6314  0.0100
 6540TIP3    H119542   1.220   2.126   3.322  1.1566 -1.0154  0.1594
 6540TIP3    H219543   1.266   2.271   3.324 -2.3231  0.1594 -0.1835
 6541TIP3   OH219544   7.884   0.241   3.561 -0.4022  0.7501 -0.1561
 6541TIP3    H119545   7.793   0.272   3.559 -0.6727 -0.0918 -3.7833
 6541TIP3    H219546   7.877   0.147   3.541  1.3149  0.8641 -1.3510
 6542TIP3   OH219547   0.425   1.927   6.730  0.1073  0.6389 -0.5166
 6542TIP3    H119548   0.483   1.987   6.777  2.1833 -2.5137  1.1020
 6542TIP3    H219549   0.484   1.867   6.684 -1.8372 -1.8357  0.0941
 6543TIP3   OH219550   6.854   1.453   4.426 -0.4693  0.1017  0.1430
 6543TIP3    H119551   6.782   1.401   4.391  0.4670 -1.2833  0.2354
 6543TIP3    H219552   6.871   1.414   4.512 -0.4788  1.2805  0.6922
 6544TIP3   OH219553   7.550   0.620   3.508  0.1540  0.0317 -0.6778
 6544TIP3    H119554   7.495   0.689   3.546 -0.3829 -0.2578 -0.9216
 6544TIP3    H219555   7.622   0.667   3.466 -0.7502  0.4966 -1.7172
 6545TIP3   OH219556   0.162   2.501   3.063  0.5719 -0.3729 -0.0705
 6545TIP3    H119557   0.173   2.475   2.972  1.6774 -0.9801  0.2264
 6545TIP3    H219558   0.218   2.440   3.112 -0.1128 -0.1318  1.0171
 6546TIP3   OH219559   0.302   3.290   4.458  0.4127 -0.2588  0.9195
 6546TIP3    H119560   0.390   3.266   4.487  1.0344  1.2227  0.2954
 6546TIP3    H219561   0.309   3.299   4.363 -0.3417  0.1607  0.8920
 6547TIP3   OH219562   6.994   0.113   6.184  0.7054  0.0896  0.7064
 6547TIP3    H119563   7.033   0.099   6.098  0.3877  0.5547  0.4861
 6547TIP3    H219564   6.905   0.079   6.176  0.7097  0.0342  0.8864
 6548TIP3   OH219565   8.314   3.714   3.757 -0.4881  0.1251 -0.2969
 6548TIP3    H119566   8.348   3.700   3.669 -0.1188  1.9889 -0.4680
 6548TIP3    H219567   8.223   3.738   3.744 -0.3972  0.5368 -0.1903
 6549TIP3   OH219568   8.174   1.442   4.546  0.1203 -0.5345 -0.0458
 6549TIP3    H119569   8.113   1.431   4.473  1.1817  2.0833 -1.4109
 6549TIP3    H219570   8.165   1.534   4.570  3.6639 -0.0218 -0.4488
 6550TIP3   OH219571   4.571   8.147   3.033  0.4135  0.3208 -0.3482
 6550TIP3    H119572   4.502   8.169   3.094 -0.7389 -0.0055 -1.5168
 6550TIP3    H219573   4.652   8.160   3.082 -0.5341 -1.6640  1.8130
 6551TIP3   OH219574   4.028   7.791   3.382  0.1679 -0.0149 -0.0214
 6551TIP3    H119575   4.059   7.768   3.469  1.9316  0.0845 -0.5951
 6551TIP3    H219576   3.938   7.758   3.378 -0.0971  0.4541  2.0006
 6552TIP3   OH219577   4.381   7.780   2.355 -0.6688 -0.0280 -0.4125
 6552TIP3    H119578   4.458   7.838   2.357  0.3540 -1.4013  1.9270
 6552TIP3    H219579   4.401   7.715   2.288 -0.9514  1.1304 -1.6416
 6553TIP3   OH219580   5.226   7.736   4.925  0.3050  0.5326 -0.4369
 6553TIP3    H119581   5.228   7.641   4.934 -1.1107  0.6366  1.2345
 6553TIP3    H219582   5.187   7.751   4.839  1.0249 -0.3857 -0.9412
 6554TIP3   OH219583   6.039   2.581   4.143 -0.7277  0.3720  0.6274
 6554TIP3    H119584   6.119   2.610   4.186 -0.3143 -0.1201  0.1874
 6554TIP3    H219585   5.974   2.648   4.166 -0.1462  0.8702  0.8269
 6555TIP3   OH219586   8.102   1.778   2.851  0.5202 -0.6312  0.1832
 6555TIP3    H119587   8.154   1.700   2.870  1.0451 -0.4174 -0.3564
 6555TIP3    H219588   8.162   1.836   2.804 -0.4678 -0.7552 -1.2494
 6556TIP3   OH219589   0.129   1.726   3.327 -0.1103  0.4123  0.1594
 6556TIP3    H119590   0.103   1.746   3.416  1.1037  2.5703  0.0565
 6556TIP3    H219591   0.179   1.644   3.334 -0.6729  0.1683  1.3443
 6557TIP3   OH219592   0.345   1.145   5.283 -0.4863 -0.0545  0.2019
 6557TIP3    H119593   0.283   1.197   5.335  0.3092  4.0569 -2.7401
 6557TIP3    H219594   0.292   1.110   5.211 -0.5879 -1.7843  1.0753
 6558TIP3   OH219595   0.084   0.440   6.229 -0.3393 -0.1590 -0.8907
 6558TIP3    H119596   0.132   0.423   6.148  0.2330  1.6883 -0.9687
 6558TIP3    H219597   0.150   0.437   6.298 -0.6043 -0.4188 -0.6422
 6559TIP3   OH219598   0.063   0.336   2.434  0.3822  0.4695  0.6061
 6559TIP3    H119599   0.056   0.374   2.522  0.1520  1.6994  0.0587
 6559TIP3    H219600  -0.020   0.357   2.392  0.6623  0.2626 -0.0580
 6560TIP3   OH219601   7.601   2.830   4.499  0.0129  0.4091  0.4431
 6560TIP3    H119602   7.512   2.862   4.485 -0.2638 -0.3141  0.5119
 6560TIP3    H219603   7.643   2.837   4.414 -0.7682 -1.2495 -0.1079
 6561TIP3   OH219604   7.774   2.480   3.592  0.6949 -0.8905  0.1727
 6561TIP3    H119605   7.757   2.568   3.557 -0.3556  0.6434  4.2362
 6561TIP3    H219606   7.846   2.493   3.655  1.8470 -3.3349 -0.5618
 6562TIP3   OH219607   1.479   2.708   0.753  0.4107 -0.1835 -0.1971
 6562TIP3    H119608   1.564   2.750   0.763  0.9292 -1.5574  1.4046
 6562TIP3    H219609   1.441   2.749   0.675  1.7958  1.6718  0.0575
 6563TIP3   OH219610   7.846   1.859   3.679  0.0587 -0.2951  0.4534
 6563TIP3    H119611   7.931   1.899   3.694  0.7706 -1.5129 -0.3229
 6563TIP3    H219612   7.824   1.882   3.589 -0.5517  0.2163  0.7252
 6564TIP3   OH219613   1.209   1.282   1.227  0.1870 -0.1102 -0.1809
 6564TIP3    H119614   1.137   1.306   1.169 -0.5853  1.7022  1.4578
 6564TIP3    H219615   1.168   1.268   1.313  1.7291  0.6532  0.7096
 6565TIP3   OH219616   7.361   1.972   3.163  0.3596  0.6156 -0.6805
 6565TIP3    H119617   7.426   1.995   3.229  1.0056 -3.2519  0.1420
 6565TIP3    H219618   7.411   1.923   3.097 -1.4658 -1.5783 -0.5023
 6566TIP3   OH219619   7.505   1.780   4.001 -0.5131  0.5050  0.5692
 6566TIP3    H119620   7.460   1.840   3.942  0.6500  0.2343 -0.6137
 6566TIP3    H219621   7.451   1.701   4.001 -0.3037  0.3577 -0.4629
 6567TIP3   OH219622   7.877   0.382   2.471 -0.3226 -0.2210 -0.4116
 6567TIP3    H119623   7.813   0.353   2.406 -0.7708 -0.9563  0.3688
 6567TIP3    H219624   7.828   0.439   2.530 -0.3348 -1.0281  0.3666
 6568TIP3   OH219625   8.357   1.834   4.705 -0.1026 -0.0626 -0.6945
 6568TIP3    H119626   8.392   1.782   4.778 -0.4000 -0.0156 -0.5168
 6568TIP3    H219627   8.372   1.925   4.730 -1.2288 -0.0079 -0.1646
 6569TIP3   OH219628   8.843   1.606   4.982 -0.4297 -0.1393 -0.3594
 6569TIP3    H119629   8.887   1.663   5.045 -0.2009  0.3320 -0.9395
 6569TIP3    H219630   8.911   1.584   4.918 -0.3575 -1.5210  0.1557
 6570TIP3   OH219631   7.306   0.842   2.803  0.7185  0.1987 -0.1264
 6570TIP3    H119632   7.373   0.784   2.767  0.4678  0.9863 -1.9252
 6570TIP3    H219633   7.225   0.816   2.759  0.3759  1.0662 -0.0300
 6571TIP3   OH219634   6.511   1.587   3.307  0.1257  0.1814 -0.6198
 6571TIP3    H119635   6.448   1.603   3.237  0.9079  0.9904 -1.1377
 6571TIP3    H219636   6.577   1.655   3.297  0.8099 -0.3389  0.2520
 6572TIP3   OH219637   1.457   2.610   1.788 -0.2817  0.5559 -0.3794
 6572TIP3    H119638   1.383   2.651   1.832  1.8793  1.2286  2.7975
 6572TIP3    H219639   1.533   2.641   1.836  1.9517 -1.4718 -2.4961
 6573TIP3   OH219640   7.240   3.038   5.099 -0.4793  0.1702  0.0490
 6573TIP3    H119641   7.266   2.986   5.022 -0.9324  1.4649 -0.9937
 6573TIP3    H219642   7.289   3.120   5.090  1.0872 -0.4611  2.2833
 6574TIP3   OH219643   0.645   2.331   3.751  0.3789 -0.0621  0.2252
 6574TIP3    H119644   0.675   2.422   3.748  0.7976 -0.1997  0.1053
 6574TIP3    H219645   0.726   2.281   3.764  0.3856 -0.5450 -1.5599
 6575TIP3   OH219646   0.381   1.703   2.069  0.0884  0.3206  0.3285
 6575TIP3    H119647   0.409   1.775   2.012 -0.5520  0.0635 -0.3157
 6575TIP3    H219648   0.287   1.715   2.078  0.0919 -0.0195  0.8107
 6576TIP3   OH219649   6.789   0.334   3.691 -0.0735  0.4403  0.0674
 6576TIP3    H119650   6.734   0.411   3.706  0.0027  0.1532  1.9546
 6576TIP3    H219651   6.859   0.366   3.634  0.0920  1.8432  1.0190
 6577TIP3   OH219652   1.981   1.945   3.914 -0.5769  0.8904 -0.5786
 6577TIP3    H119653   1.953   2.037   3.914 -1.4985  0.6206  0.3626
 6577TIP3    H219654   1.956   1.913   4.001 -0.4039 -0.2913 -0.9675
 6578TIP3   OH219655   8.531   0.853   4.768  0.2571 -0.7257  0.1786
 6578TIP3    H119656   8.624   0.862   4.749 -0.0497  0.2196 -0.9478
 6578TIP3    H219657   8.510   0.930   4.821  0.0707 -0.8188  0.2406
 6579TIP3   OH219658   8.630   2.902   2.948  0.1936 -0.0956 -0.2114
 6579TIP3    H119659   8.675   2.818   2.936  2.0765  1.2169 -3.0363
 6579TIP3    H219660   8.700   2.963   2.970 -0.7480  1.2512 -0.8930
 6580TIP3   OH219661   8.675   1.037   2.746  0.1820 -0.2563 -0.0117
 6580TIP3    H119662   8.753   0.981   2.751  0.2872 -0.2542 -1.4085
 6580TIP3    H219663   8.685   1.085   2.664 -0.4843  0.9758  0.6070
 6581TIP3   OH219664   8.902   3.867   5.632 -0.0400 -0.0059 -0.5345
 6581TIP3    H119665   8.918   3.778   5.663 -1.1467  0.0850  0.3344
 6581TIP3    H219666   8.807   3.876   5.632  0.0731  1.3531 -0.0778
 6582TIP3   OH219667   7.418   1.716   6.458 -0.0580  0.0214 -0.0801
 6582TIP3    H119668   7.389   1.678   6.375 -3.4243 -0.1282  1.0740
 6582TIP3    H219669   7.474   1.649   6.496 -0.5254 -0.9792 -1.1065
 6583TIP3   OH219670   2.157   1.105   6.710  0.5868 -0.0220 -0.0631
 6583TIP3    H119671   2.062   1.104   6.703  0.4448 -0.6960  1.6607
 6583TIP3    H219672   2.176   1.183   6.762  1.0164  0.3586 -0.7806
 6584TIP3   OH219673   8.556   0.822   5.108  0.7411  0.2057  0.2076
 6584TIP3    H119674   8.608   0.847   5.031  2.3548 -3.1906  0.1255
 6584TIP3    H219675   8.611   0.847   5.183 -0.0605  1.8673  0.2724
 6585TIP3   OH219676   8.861   2.255   6.779 -0.2484 -0.9078 -0.1286
 6585TIP3    H119677   8.871   2.161   6.794 -0.7004 -0.8966  0.2662
 6585TIP3    H219678   8.949   2.287   6.761 -0.0234 -1.3207  0.2382
 6586TIP3   OH219679   1.849   5.976   0.707  0.1722  0.5120 -0.1773
 6586TIP3    H119680   1.790   5.992   0.634  1.2063  0.9050 -0.9376
 6586TIP3    H219681   1.849   6.057   0.757 -0.4675  0.2736  0.2092
 6587TIP3   OH219682   0.228   3.342   5.879  0.0845 -0.3289  0.6038
 6587TIP3    H119683   0.293   3.314   5.943 -0.7039  0.2795  1.6805
 6587TIP3    H219684   0.239   3.437   5.873  0.3459 -0.4158 -0.3735
 6588TIP3   OH219685   1.860   2.288   7.122 -0.3129  0.1788  0.1632
 6588TIP3    H119686   1.904   2.372   7.133 -0.0168 -0.1185  1.3380
 6588TIP3    H219687   1.866   2.246   7.208  1.2663 -1.8885 -0.9064
 6589TIP3   OH219688   3.157   4.146   5.837 -0.0883 -0.0983 -0.2149
 6589TIP3    H119689   3.098   4.220   5.818 -0.5424 -0.4897 -0.3449
 6589TIP3    H219690   3.228   4.185   5.888  0.8243  0.8609 -2.1603
 6590TIP3   OH219691   2.075   1.213   5.429  0.1058 -0.2511  0.2752
 6590TIP3    H119692   2.128   1.156   5.486 -1.4234 -2.3392 -0.3272
 6590TIP3    H219693   2.019   1.262   5.489  0.4504 -0.4073  0.7274
 6591TIP3   OH219694   6.761   8.341   4.806  0.4947  0.2082 -0.4883
 6591TIP3    H119695   6.676   8.371   4.775  0.7227  1.7785  0.3543
 6591TIP3    H219696   6.751   8.246   4.816 -1.2564  0.4197 -0.0981
 6592TIP3   OH219697   3.037   2.340   3.960 -0.1316 -0.3868 -0.2174
 6592TIP3    H119698   3.065   2.391   3.884 -0.5199 -1.0646 -0.8225
 6592TIP3    H219699   3.105   2.272   3.970 -0.4042 -0.6747 -0.3311
 6593TIP3   OH219700   0.472   2.784   6.123  0.7983 -0.8319 -0.1385
 6593TIP3    H119701   0.380   2.758   6.130  0.8667 -0.5510  2.4732
 6593TIP3    H219702   0.519   2.722   6.180  2.1725 -0.7577 -1.1654
 6594TIP3   OH219703   0.659   0.864   2.753  0.4805 -0.1248  0.1242
 6594TIP3    H119704   0.661   0.941   2.695 -0.4208  1.7016  2.4332
 6594TIP3    H219705   0.751   0.837   2.759  0.7808  0.6393 -0.8773
 6595TIP3   OH219706   8.148   2.509   5.312 -0.0193 -0.5036 -0.4031
 6595TIP3    H119707   8.078   2.504   5.377  0.1459 -1.8623 -0.3113
 6595TIP3    H219708   8.145   2.424   5.268  0.7729 -0.1078 -1.2318
 6596TIP3   OH219709   7.962   4.323   6.107 -0.6159  0.1954 -0.2806
 6596TIP3    H119710   7.926   4.387   6.167 -1.9678 -0.2142 -0.6354
 6596TIP3    H219711   7.891   4.260   6.094 -0.2508  0.1328 -2.0816
 6597TIP3   OH219712   1.904   3.470   7.169  0.3767 -0.7841  0.4559
 6597TIP3    H119713   1.949   3.446   7.088  0.5674 -0.0276  0.3266
 6597TIP3    H219714   1.965   3.446   7.239 -0.1260 -2.1891  0.4294
 6598TIP3   OH219715   1.445   2.035   6.075 -0.2659 -0.0185  0.2344
 6598TIP3    H119716   1.470   2.031   6.167  1.0618 -0.1016 -0.1202
 6598TIP3    H219717   1.527   2.053   6.029 -0.6790 -1.4337 -1.0659
 6599TIP3   OH219718   4.960   6.405   0.440 -0.2591 -0.2849 -0.1686
 6599TIP3    H119719   4.964   6.337   0.506  0.2272  0.4885  0.6121
 6599TIP3    H219720   5.042   6.454   0.450  0.0221 -0.4364 -1.6404
 6600TIP3   OH219721   0.935   1.793   4.814  0.2659  0.8464  0.3215
 6600TIP3    H119722   0.951   1.793   4.909 -1.5495  1.9809  0.6405
 6600TIP3    H219723   0.846   1.760   4.805  0.5903  0.3113 -1.0432
 6601TIP3   OH219724   1.399   2.715   6.999 -0.0860  0.1186  0.0696
 6601TIP3    H119725   1.414   2.642   7.059 -0.3555 -0.3346 -0.4099
 6601TIP3    H219726   1.445   2.690   6.919 -1.8010 -0.4318 -0.7711
 6602TIP3   OH219727   1.711   2.225   6.270  0.3333 -0.4251 -0.4288
 6602TIP3    H119728   1.748   2.160   6.329  0.1275  0.0674  0.2486
 6602TIP3    H219729   1.640   2.265   6.320  0.7969  0.6918 -0.6433
 6603TIP3   OH219730   0.703   2.403   6.718  1.2648  0.8933 -0.5903
 6603TIP3    H119731   0.630   2.361   6.674  0.5758  0.1735  1.1987
 6603TIP3    H219732   0.780   2.354   6.690  0.6732 -0.4135  0.0425
 6604TIP3   OH219733   0.935   2.280   3.938  0.2787 -0.1731  0.1439
 6604TIP3    H119734   0.939   2.339   3.863 -1.2869 -1.7547 -1.2255
 6604TIP3    H219735   1.025   2.278   3.971  1.3523 -0.6519 -2.6522
 6605TIP3   OH219736   2.667   2.054   4.401 -0.1642 -0.7166  0.5361
 6605TIP3    H119737   2.758   2.070   4.374 -0.2789 -2.0266 -0.6388
 6605TIP3    H219738   2.651   2.121   4.468  1.2260  0.3747 -0.1870
 6606TIP3   OH219739   1.246   3.332   4.179 -0.2542  0.1882  0.0230
 6606TIP3    H119740   1.177   3.277   4.144 -0.2586  0.5759 -0.5929
 6606TIP3    H219741   1.224   3.420   4.150 -0.2362  0.5180  0.9814
 6607TIP3   OH219742   1.197   6.792   0.725  0.3972 -0.1253 -0.8220
 6607TIP3    H119743   1.129   6.836   0.776  0.1311 -0.0567 -1.2410
 6607TIP3    H219744   1.264   6.860   0.711 -0.6528  0.5426 -2.6695
 6608TIP3   OH219745   0.615   0.211   6.357 -0.5241 -0.2261  0.3259
 6608TIP3    H119746   0.671   0.277   6.398 -1.5812 -0.0697  1.5322
 6608TIP3    H219747   0.580   0.254   6.279  0.7927 -0.2287 -0.2891
 6609TIP3   OH219748   8.211   8.410   2.404 -0.3259 -0.1160  0.2521
 6609TIP3    H119749   8.231   8.370   2.319 -1.9778 -4.0187  1.6122
 6609TIP3    H219750   8.267   8.365   2.466  0.4590  2.3289  1.3865
 6610TIP3   OH219751   1.809   2.851   4.464 -0.2248  0.8507 -0.3286
 6610TIP3    H119752   1.825   2.913   4.393 -0.7030  0.5784 -0.6827
 6610TIP3    H219753   1.715   2.858   4.481 -0.1669  0.6859  0.0592
 6611TIP3   OH219754   0.636   0.111   4.094  0.5911 -0.5953  0.4850
 6611TIP3    H119755   0.690   0.039   4.062  0.9711 -0.3238  0.5178
 6611TIP3    H219756   0.684   0.190   4.070  0.2636 -0.3577  0.6091
 6612TIP3   OH219757   7.713   1.301   6.884 -0.3175 -0.2919 -0.7105
 6612TIP3    H119758   7.678   1.257   6.961 -0.2583 -1.0247 -1.1032
 6612TIP3    H219759   7.808   1.289   6.891 -0.1983  0.8317 -0.1761
 6613TIP3   OH219760   0.370   3.104   5.594 -0.1367 -0.8344 -0.6207
 6613TIP3    H119761   0.367   3.080   5.687 -2.5977  3.5186  0.6040
 6613TIP3    H219762   0.462   3.125   5.577  0.1137 -0.2685  1.2781
 6614TIP3   OH219763   7.916   1.117   7.135  0.2444  0.5069 -0.4691
 6614TIP3    H119764   7.821   1.114   7.120 -0.1455  0.7844  1.7629
 6614TIP3    H219765   7.953   1.063   7.065 -1.6980 -1.1287 -0.2694
 6615TIP3   OH219766   2.569   1.789   4.259  0.0497 -0.5117 -0.2555
 6615TIP3    H119767   2.608   1.702   4.251  2.8132  0.5870  0.6116
 6615TIP3    H219768   2.482   1.773   4.295 -0.3090 -3.0543 -2.1491
 6616TIP3   OH219769   3.032   6.073   0.103 -1.0942  0.1942 -0.0943
 6616TIP3    H119770   2.939   6.089   0.085 -1.0220  0.7634  0.0307
 6616TIP3    H219771   3.060   6.149   0.154 -0.4794  0.1861 -0.4138
 6617TIP3   OH219772   3.840   6.531   0.109  0.1389 -0.3196  0.2436
 6617TIP3    H119773   3.856   6.439   0.084  0.3721  0.1355 -1.3724
 6617TIP3    H219774   3.927   6.567   0.125  0.1325 -0.0755 -0.2677
 6618TIP3   OH219775   0.667   0.387   7.223  0.6408 -0.1357 -0.4501
 6618TIP3    H119776   0.602   0.349   7.165 -1.8510  0.8155  1.6524
 6618TIP3    H219777   0.663   0.334   7.302  0.5278  1.5182  0.6857
 6619TIP3   OH219778   0.591   1.200   4.840  0.5841  0.3626 -0.2590
 6619TIP3    H119779   0.619   1.121   4.793  0.2739  0.0576  0.0617
 6619TIP3    H219780   0.606   1.272   4.779 -0.3477 -0.0966 -1.0174
 6620TIP3   OH219781   1.374   1.164   7.044 -0.2005  0.2198  0.3459
 6620TIP3    H119782   1.355   1.187   7.135  0.6566 -0.2980  0.6662
 6620TIP3    H219783   1.302   1.107   7.018 -1.2525  1.6022  0.2035
 6621TIP3   OH219784   2.271   3.287   3.912 -0.1613  0.0986 -0.3075
 6621TIP3    H119785   2.345   3.322   3.864  0.6135 -0.7536  0.2420
 6621TIP3    H219786   2.237   3.361   3.962  0.4334  0.4450 -0.4127
 6622TIP3   OH219787   1.530   0.997   6.280 -0.1452 -0.3814  0.1872
 6622TIP3    H119788   1.533   0.967   6.371  0.9057 -1.0986 -0.0797
 6622TIP3    H219789   1.619   0.985   6.248  0.0249  2.0091 -0.2646
 6623TIP3   OH219790   2.726   3.060   5.221 -0.1471  0.3853  0.3819
 6623TIP3    H119791   2.720   3.150   5.189 -2.2580  0.5642  1.1967
 6623TIP3    H219792   2.731   3.069   5.316  0.5609 -0.3369  0.4193
 6624TIP3   OH219793   8.558   1.935   4.499 -0.3214 -0.5351 -0.3903
 6624TIP3    H119794   8.517   1.855   4.534  0.2631 -0.4488  0.5000
 6624TIP3    H219795   8.629   1.954   4.560 -0.3380  0.5654 -0.7128
 6625TIP3   OH219796   1.656   7.675   0.951  0.0819  0.0472  0.3808
 6625TIP3    H119797   1.607   7.729   0.888  0.2283 -0.2229  0.0395
 6625TIP3    H219798   1.697   7.739   1.008 -0.9620  0.2768  0.8969
 6626TIP3   OH219799   1.087   3.843   5.696  0.1361 -0.2208  0.1082
 6626TIP3    H119800   1.073   3.749   5.695 -0.9922 -0.0617 -0.1898
 6626TIP3    H219801   1.003   3.880   5.668  0.3405  0.8876  0.9094
 6627TIP3   OH219802   2.064   2.578   6.622  0.0150  0.0194 -0.5316
 6627TIP3    H119803   1.986   2.522   6.618  0.0974  0.0142 -2.4005
 6627TIP3    H219804   2.037   2.652   6.676 -0.5232 -1.1376  0.8298
 6628TIP3   OH219805   1.416   4.662   7.145  0.4325 -0.4664  0.0062
 6628TIP3    H119806   1.483   4.663   7.078  1.0248 -0.2137  0.5969
 6628TIP3    H219807   1.363   4.585   7.126 -0.1136  0.2574 -1.4433
 6629TIP3   OH219808   1.356   4.636   0.085  0.4229  0.6432 -0.2328
 6629TIP3    H119809   1.334   4.547   0.114  1.6621  0.4829  0.2334
 6629TIP3    H219810   1.308   4.693   0.144 -0.4578  0.2878 -0.5931
 6630TIP3   OH219811   1.140   1.314   4.580  0.5405  0.4737  0.1638
 6630TIP3    H119812   1.068   1.334   4.520  1.1408  0.6771 -0.5011
 6630TIP3    H219813   1.108   1.341   4.666  0.5097  2.2932 -0.3896
 6631TIP3   OH219814   0.258   0.985   5.524 -0.4664  0.1851 -0.5823
 6631TIP3    H119815   0.337   1.003   5.473  0.3275  1.0122  0.9021
 6631TIP3    H219816   0.265   0.893   5.549  0.3688  0.4206  0.0869
 6632TIP3   OH219817   4.447   0.343   4.582  1.2581  0.0317 -0.7039
 6632TIP3    H119818   4.419   0.434   4.575 -1.0555 -0.5363  0.8017
 6632TIP3    H219819   4.495   0.327   4.500 -0.8372  1.7383 -2.3337
 6633TIP3   OH219820   3.665   5.886   0.291 -0.2174 -0.4235 -0.3541
 6633TIP3    H119821   3.604   5.841   0.232 -0.9317  0.0559  0.0054
 6633TIP3    H219822   3.610   5.914   0.365  0.6159 -0.7942  0.4167
 6634TIP3   OH219823   1.567   0.892   6.546  0.0144  0.0301 -0.1405
 6634TIP3    H119824   1.604   0.912   6.631 -1.3604  1.9821  0.0507
 6634TIP3    H219825   1.529   0.805   6.555 -2.1205  1.1187  1.9702
 6635TIP3   OH219826   1.420   1.931   6.368 -0.3651 -0.0471  0.0070
 6635TIP3    H119827   1.345   1.883   6.332  0.0982 -0.7027 -0.0938
 6635TIP3    H219828   1.388   1.968   6.450 -0.3953 -1.4963  0.6616
 6636TIP3   OH219829   0.934   0.759   4.861  0.6530  0.0209  0.1285
 6636TIP3    H119830   0.842   0.765   4.886  0.6473 -2.1764  0.6880
 6636TIP3    H219831   0.980   0.808   4.929 -0.0610  0.8413  0.0320
 6637TIP3   OH219832   1.531   2.937   4.479  0.4603 -0.4128  0.0670
 6637TIP3    H119833   1.549   3.030   4.495 -2.1790 -0.0951  1.5742
 6637TIP3    H219834   1.462   2.937   4.413 -1.3926 -1.1591  1.9265
 6638TIP3   OH219835   3.840   6.075   0.190  0.3587  0.3708  0.0763
 6638TIP3    H119836   3.777   6.015   0.230 -0.0568  0.1625 -0.8825
 6638TIP3    H219837   3.925   6.032   0.200  0.0846 -0.2969 -0.4613
 6639TIP3   OH219838   8.178   3.100   5.714  0.2640 -0.3547  0.2462
 6639TIP3    H119839   8.166   3.006   5.707 -0.1138 -0.4024  1.5698
 6639TIP3    H219840   8.267   3.115   5.680  0.7154 -1.3038  0.9889
 6640TIP3   OH219841   1.439   0.637   6.627 -0.2682  0.4717  0.4313
 6640TIP3    H119842   1.440   0.541   6.625  0.6916  0.4877 -0.5134
 6640TIP3    H219843   1.480   0.659   6.711 -0.7251  0.0494  0.7662
 6641TIP3   OH219844   2.026   2.749   6.819 -0.1144  0.2130 -0.3875
 6641TIP3    H119845   2.005   2.842   6.816  0.8015  0.4390 -0.1507
 6641TIP3    H219846   1.941   2.705   6.826 -0.5056  1.0848  0.5509
 6642TIP3   OH219847   8.472   3.127   5.661  0.4823 -0.3375 -0.0757
 6642TIP3    H119848   8.488   3.038   5.631  1.4399 -0.1747 -0.0434
 6642TIP3    H219849   8.484   3.124   5.756 -0.7011 -0.4404  0.0773
 6643TIP3   OH219850   4.446   4.773   0.366 -0.0306  0.1057 -0.2014
 6643TIP3    H119851   4.518   4.835   0.371 -0.3135  0.4532 -0.4015
 6643TIP3    H219852   4.392   4.805   0.294 -1.1640  0.7018  0.8849
 6644TIP3   OH219853   3.012   6.293   0.574 -1.4485 -0.2424  0.3209
 6644TIP3    H119854   2.956   6.371   0.577 -0.2209  0.7318 -1.2554
 6644TIP3    H219855   3.081   6.311   0.638 -1.3062 -0.1240  0.1377
 6645TIP3   OH219856   8.199   3.454   5.084  0.1413 -0.5229  0.6079
 6645TIP3    H119857   8.225   3.410   5.165  0.6464 -0.1040  0.6732
 6645TIP3    H219858   8.192   3.546   5.108 -0.6187 -0.5212  0.3951
 6646TIP3   OH219859   8.528   0.564   5.629 -0.2786 -0.0783 -0.5182
 6646TIP3    H119860   8.462   0.536   5.566 -1.0305  0.3911  0.0442
 6646TIP3    H219861   8.610   0.566   5.580 -0.5456 -1.4220 -1.0289
 6647TIP3   OH219862   5.715   8.387   7.053  0.1674  0.6085  0.0999
 6647TIP3    H119863   5.630   8.430   7.058 -0.0709  0.1261  0.2670
 6647TIP3    H219864   5.710   8.332   6.974  0.6901  1.3494 -0.4600
 6648TIP3   OH219865   1.837   2.789   7.226  0.0682 -0.0558 -0.0538
 6648TIP3    H119866   1.782   2.718   7.259  0.3600 -0.0746  0.3941
 6648TIP3    H219867   1.810   2.800   7.135 -0.1130 -0.6110 -0.0658
 6649TIP3   OH219868   8.600   2.851   4.080  0.1588  0.4535 -0.2680
 6649TIP3    H119869   8.598   2.928   4.023  2.8559  0.2947 -0.6471
 6649TIP3    H219870   8.536   2.791   4.042  1.9225  0.3349 -3.1550
 6650TIP3   OH219871   4.733   5.893   0.214 -0.2020 -0.1675 -0.3441
 6650TIP3    H119872   4.697   5.940   0.289 -0.5180  0.9906 -1.1989
 6650TIP3    H219873   4.660   5.884   0.153 -0.0206 -1.3511 -0.4019
 6651TIP3   OH219874   3.053   2.767   0.984 -0.1564  0.0024  0.3683
 6651TIP3    H119875   3.030   2.679   1.015 -0.8984  0.2593  0.5742
 6651TIP3    H219876   3.037   2.823   1.060  1.3076  0.1782  0.5558
 6652TIP3   OH219877   2.968   6.548   0.343 -0.3126 -0.0250  0.0787
 6652TIP3    H119878   3.057   6.518   0.361 -0.3616 -0.6482 -0.6738
 6652TIP3    H219879   2.959   6.628   0.394  1.0196  0.5740 -0.5974
 6653TIP3   OH219880   0.343   1.589   6.005  0.1176 -0.3210 -0.4966
 6653TIP3    H119881   0.361   1.610   5.914 -0.4563  1.6543 -0.1822
 6653TIP3    H219882   0.259   1.545   6.004 -0.8196  1.4141 -0.7656
 6654TIP3   OH219883   8.708   2.081   6.578  0.1832 -0.8101 -0.3810
 6654TIP3    H119884   8.654   2.158   6.594 -0.5779 -1.2729 -0.7195
 6654TIP3    H219885   8.798   2.114   6.578 -0.1150  0.0026 -0.0851
 6655TIP3   OH219886   1.035   4.323   5.993 -0.4160  0.0864  0.3329
 6655TIP3    H119887   1.070   4.387   6.055  2.7905  0.2445 -1.5338
 6655TIP3    H219888   1.062   4.238   6.028 -2.0580 -0.1132  1.1954
 6656TIP3   OH219889   8.741   1.270   6.168  0.2640  0.3927  0.0326
 6656TIP3    H119890   8.686   1.292   6.244  0.1215  0.8031 -0.1886
 6656TIP3    H219891   8.744   1.351   6.117  0.1907  0.0550 -0.5053
 6657TIP3   OH219892   6.724   2.575   5.884  0.3740  0.5074 -0.1452
 6657TIP3    H119893   6.800   2.544   5.935  0.9934  1.8077 -0.2686
 6657TIP3    H219894   6.749   2.560   5.793 -0.2093 -0.6043 -0.1373
 6658TIP3   OH219895   1.137   1.941   5.755 -0.2998  0.7226  0.2898
 6658TIP3    H119896   1.077   1.903   5.690  0.7088 -0.3971 -0.0009
 6658TIP3    H219897   1.220   1.951   5.708 -0.0055  1.4235  0.9477
 6659TIP3   OH219898   7.477   2.570   5.179 -0.5390 -0.8730 -0.7587
 6659TIP3    H119899   7.441   2.644   5.129 -0.5080 -0.7225 -0.5585
 6659TIP3    H219900   7.531   2.523   5.115  1.1681  0.4888 -0.3643
 6660TIP3   OH219901   1.897   1.053   6.366  0.8942  0.6215  0.1336
 6660TIP3    H119902   1.853   1.133   6.392 -1.5257 -0.7751  0.4300
 6660TIP3    H219903   1.889   1.051   6.270  1.7640  1.1748  0.0431
 6661TIP3   OH219904   3.539   4.752   0.733  0.0212  0.0078  0.1506
 6661TIP3    H119905   3.580   4.790   0.655 -1.2837 -0.7985 -0.9686
 6661TIP3    H219906   3.451   4.791   0.734 -0.2750 -0.6694  0.7023
 6662TIP3   OH219907   0.490   3.295   6.350  0.2861 -0.1237 -0.0911
 6662TIP3    H119908   0.407   3.280   6.305  0.6034  2.1634 -1.5271
 6662TIP3    H219909   0.473   3.271   6.441 -2.1752  1.0045 -0.2179
 6663TIP3   OH219910   2.150   3.323   5.154  0.1086 -0.1272  0.0503
 6663TIP3    H119911   2.094   3.342   5.079 -0.9183 -1.2955  0.5130
 6663TIP3    H219912   2.115   3.377   5.225  1.3390  1.2984 -0.4033
 6664TIP3   OH219913   1.562   3.504   5.735 -0.3573  0.2726 -0.0373
 6664TIP3    H119914   1.533   3.489   5.645  1.3896 -0.3751 -0.5327
 6664TIP3    H219915   1.566   3.599   5.744 -2.0022  0.3515 -0.1440
 6665TIP3   OH219916   8.748   3.042   6.064  0.3837 -0.1574 -0.1819
 6665TIP3    H119917   8.825   3.079   6.020  0.6667 -0.9261 -0.3352
 6665TIP3    H219918   8.784   2.973   6.120 -0.3903 -1.8218 -1.7027
 6666TIP3   OH219919   0.519   2.832   5.840  0.7219  0.4089  0.0963
 6666TIP3    H119920   0.426   2.811   5.841  0.5969  1.0144  1.2708
 6666TIP3    H219921   0.561   2.752   5.810 -0.1367 -0.0110  0.0007
 6667TIP3   OH219922   0.343   1.853   5.327 -0.6258  0.2616 -0.1224
 6667TIP3    H119923   0.381   1.834   5.241  0.4220 -1.4382  0.6937
 6667TIP3    H219924   0.398   1.922   5.363  0.2588 -0.5468  0.0809
 6668TIP3   OH219925   0.643   1.933   6.277 -0.6497 -0.0836 -0.4721
 6668TIP3    H119926   0.638   1.908   6.185 -0.9176 -0.4007 -0.3691
 6668TIP3    H219927   0.690   1.861   6.320  1.6717  1.1821 -0.7821
 6669TIP3   OH219928   8.828   3.148   7.127  0.3631  0.5669  0.1163
 6669TIP3    H119929   8.914   3.125   7.162  0.3012 -0.8215 -0.5995
 6669TIP3    H219930   8.827   3.243   7.126  2.5787  0.6171 -1.5726
 6670TIP3   OH219931   1.246   2.373   7.094 -0.0957 -0.4198 -0.3990
 6670TIP3    H119932   1.282   2.285   7.108  0.5617  0.0708  1.1130
 6670TIP3    H219933   1.313   2.432   7.129 -0.0287  0.7551 -2.3919
 6671TIP3   OH219934   2.301   4.244   6.270  0.4585 -0.0059 -0.1420
 6671TIP3    H119935   2.247   4.219   6.344 -0.0262  2.3523  0.3459
 6671TIP3    H219936   2.240   4.278   6.205  1.0273 -0.5986 -1.0007
 6672TIP3   OH219937   0.623   4.913   6.886  0.4736  0.0934  0.1138
 6672TIP3    H119938   0.547   4.920   6.944  0.7808 -1.3152  0.6909
 6672TIP3    H219939   0.668   4.834   6.915  1.1776 -0.0679 -1.4076
 6673TIP3   OH219940   1.046   2.358   6.149  0.1381  0.6471 -0.0103
 6673TIP3    H119941   0.982   2.403   6.204  0.5357  0.0054  0.9946
 6673TIP3    H219942   1.124   2.412   6.154  0.1995  0.5469  0.1325
 6674TIP3   OH219943   0.265   4.321   5.238 -0.1341  0.0544 -0.4624
 6674TIP3    H119944   0.205   4.250   5.260 -2.3947  1.9631 -0.2876
 6674TIP3    H219945   0.295   4.354   5.323  0.7685 -0.5401 -0.5397
 6675TIP3   OH219946   2.566   2.695   5.338 -0.3190 -0.4442 -0.5431
 6675TIP3    H119947   2.527   2.722   5.254 -0.1524  1.2131 -0.1109
 6675TIP3    H219948   2.515   2.743   5.403  0.9785 -0.0143  0.1675
 6676TIP3   OH219949   2.065   1.884   6.999  0.7666 -0.1203  0.1155
 6676TIP3    H119950   2.067   1.802   7.049  1.3573 -0.0074  0.2807
 6676TIP3    H219951   2.002   1.939   7.046 -0.5555 -0.9115 -0.6914
 6677TIP3   OH219952   0.490   3.525   7.003  0.2815  0.1586 -0.0808
 6677TIP3    H119953   0.520   3.607   6.963  0.7403 -0.4979 -1.0778
 6677TIP3    H219954   0.400   3.516   6.974 -0.1526  0.8942  0.9757
 6678TIP3   OH219955   0.234   0.706   5.198 -0.2872  0.6452  0.0414
 6678TIP3    H119956   0.280   0.767   5.257 -0.8857 -0.6137  1.8369
 6678TIP3    H219957   0.218   0.628   5.251 -1.1919 -0.3784 -1.6863
 6679TIP3   OH219958   0.046   2.005   3.845 -0.1987  0.7615  0.0961
 6679TIP3    H119959  -0.035   1.961   3.870  0.1964 -0.1141 -0.1231
 6679TIP3    H219960   0.019   2.072   3.782 -0.7793  0.6261  0.1978
 6680TIP3   OH219961   7.669   0.855   3.325 -0.0048  0.0748  0.0807
 6680TIP3    H119962   7.600   0.818   3.271  0.2105  0.2297 -0.3011
 6680TIP3    H219963   7.734   0.888   3.263  0.1038  0.5260  0.4255
 6681TIP3   OH219964   0.075   1.164   6.221  0.1018  0.0044 -0.3662
 6681TIP3    H119965  -0.008   1.212   6.219  0.9577  1.4622 -1.6842
 6681TIP3    H219966   0.067   1.100   6.150 -0.5818 -1.0877  0.6615
 6682TIP3   OH219967   0.059   0.021   4.756 -0.4414 -0.2797  0.0949
 6682TIP3    H119968  -0.013  -0.042   4.746 -0.3460 -0.5587  1.0843
 6682TIP3    H219969   0.015   0.106   4.764 -0.5396 -0.1000 -2.0443
 6683TIP3   OH219970   2.760   5.857   0.577 -0.0658 -0.1445  0.2036
 6683TIP3    H119971   2.812   5.933   0.549 -0.5751 -0.0039 -0.3734
 6683TIP3    H219972   2.754   5.867   0.672  0.7728 -0.0449  0.2549
 6684TIP3   OH219973   8.692   0.998   7.078 -0.2368 -0.0346 -0.0259
 6684TIP3    H119974   8.763   0.958   7.127 -1.5522 -1.5160  0.7135
 6684TIP3    H219975   8.667   0.932   7.014 -0.4457  0.7753 -0.7910
 6685TIP3   OH219976   0.181   0.282   3.792  0.4231  0.2291 -0.3288
 6685TIP3    H119977   0.218   0.309   3.708  0.9468  0.3161 -0.0725
 6685TIP3    H219978   0.099   0.332   3.800  0.0206 -0.3110 -1.1077
 6686TIP3   OH219979   0.418   0.197   5.047  0.3879  0.2861 -0.1110
 6686TIP3    H119980   0.417   0.292   5.036 -1.2006  0.2161 -0.6756
 6686TIP3    H219981   0.407   0.185   5.142 -3.5656  0.6511 -0.4254
 6687TIP3   OH219982   0.309   2.133   6.600 -0.3824  0.5508  0.2305
 6687TIP3    H119983   0.381   2.142   6.536 -1.3290  1.8705 -0.6744
 6687TIP3    H219984   0.335   2.058   6.654  0.6450 -0.3452 -1.4503
 6688TIP3   OH219985   0.039   0.995   6.005 -0.6612  0.0933  0.2762
 6688TIP3    H119986   0.081   1.039   5.931 -2.4880 -3.0394 -2.7566
 6688TIP3    H219987  -0.051   1.025   6.003 -0.3291  1.3519  2.4035
 6689TIP3   OH219988   5.831   7.126   4.148 -0.1051  0.3700 -0.2347
 6689TIP3    H119989   5.869   7.041   4.173  1.0604  0.6274 -1.0587
 6689TIP3    H219990   5.906   7.175   4.113 -1.1501  1.0302 -1.5736
 6690TIP3   OH219991   0.747   2.223   5.387 -0.1510 -0.0250  0.7069
 6690TIP3    H119992   0.831   2.187   5.415  0.9262  1.2384 -0.8041
 6690TIP3    H219993   0.760   2.318   5.388 -0.2788  0.1288 -3.1579
 6691TIP3   OH219994   4.390   7.863   3.370  0.5216 -0.5571  0.2321
 6691TIP3    H119995   4.301   7.882   3.338  1.2268  2.3732 -0.1378
 6691TIP3    H219996   4.435   7.829   3.293  0.2522 -0.2196 -0.0797
 6692TIP3   OH219997   2.970   3.681   6.154 -0.3246  0.0560  0.2564
 6692TIP3    H119998   2.934   3.609   6.206  0.1559  0.6705  1.4451
 6692TIP3    H219999   3.004   3.743   6.218 -0.1702  1.0590 -0.7822
 6693TIP3   OH220000   8.681   2.402   4.655 -0.5168 -0.2831 -0.9340
 6693TIP3    H120001   8.729   2.422   4.574  2.1623 -0.2540  0.5896
 6693TIP3    H220002   8.688   2.481   4.708 -1.7622 -0.4939 -0.4390
 6694TIP3   OH220003   7.825   4.348   5.755 -0.0362  0.2786 -0.0786
 6694TIP3    H120004   7.897   4.412   5.749 -0.4132  0.7382  0.2795
 6694TIP3    H220005   7.864   4.266   5.724  0.8217  0.3765  0.7099
 6695TIP3   OH220006   8.326   0.946   4.472 -0.0275  0.0277 -0.2885
 6695TIP3    H120007   8.260   0.921   4.536 -0.4453 -0.9116 -1.0723
 6695TIP3    H220008   8.371   0.864   4.450  1.1757  0.6024 -0.0198
 6696TIP3   OH220009   1.563   3.319   6.224 -0.2133  0.6395  0.3457
 6696TIP3    H120010   1.574   3.376   6.148  0.1091  1.4046  0.9550
 6696TIP3    H220011   1.479   3.276   6.210 -0.2255  0.8921 -0.3705
 6697TIP3   OH220012   1.494   2.505   7.189 -0.4395 -0.4291  0.0264
 6697TIP3    H120013   1.537   2.579   7.232 -1.1164  0.7197 -1.2413
 6697TIP3    H220014   1.504   2.433   7.251  2.1868  0.1160  0.3153
 6698TIP3   OH220015   1.044   1.926   4.597 -0.2260  0.0779 -0.2097
 6698TIP3    H120016   1.122   1.946   4.649 -0.3035  0.8512 -0.3833
 6698TIP3    H220017   0.976   1.907   4.662  0.5109 -2.2559 -0.0654
 6699TIP3   OH220018   8.468   1.752   3.705 -0.2765  0.6698  0.4774
 6699TIP3    H120019   8.375   1.737   3.723 -0.4658  0.2810 -0.7474
 6699TIP3    H220020   8.510   1.668   3.722 -0.7074 -0.1812 -2.3903
 6700TIP3   OH220021   7.811   2.707   3.950  0.1431  0.2376 -0.4015
 6700TIP3    H120022   7.801   2.718   3.856 -1.4163  0.5046 -0.2145
 6700TIP3    H220023   7.832   2.795   3.983 -0.4822  0.3743 -0.3615
 6701TIP3   OH220024   0.952   2.136   5.854 -0.4950 -0.3652 -0.3890
 6701TIP3    H120025   0.907   2.111   5.934  0.6429  0.2448  0.4578
 6701TIP3    H220026   1.023   2.072   5.846 -0.5450 -0.3652 -0.8689
 6702TIP3   OH220027   0.469   3.610   4.818  0.1830  0.0378  0.1437
 6702TIP3    H120028   0.442   3.701   4.809 -0.8248 -0.1007  1.5236
 6702TIP3    H220029   0.387   3.560   4.813  0.3977 -0.5585  2.2243
 6703TIP3   OH220030   3.965   5.350   1.433 -0.1864  0.1732 -0.0876
 6703TIP3    H120031   3.908   5.426   1.424  0.3869  0.6093  0.0234
 6703TIP3    H220032   4.036   5.365   1.370 -0.2844 -0.4604 -0.3630
 6704TIP3   OH220033   3.457   6.862   2.418 -0.0123  0.2691  0.1062
 6704TIP3    H120034   3.370   6.823   2.426  1.0432 -2.1028  0.4993
 6704TIP3    H220035   3.505   6.831   2.495  1.2493  1.3592 -0.2157
 6705TIP3   OH220036   8.821   2.552   3.189  0.6008 -0.2628 -0.1270
 6705TIP3    H120037   8.756   2.495   3.150  0.8548 -0.1085 -0.7778
 6705TIP3    H220038   8.897   2.545   3.132  0.3713  1.3325 -0.6685
 6706TIP3   OH220039   0.477   1.384   5.611 -0.3205 -0.3939 -0.6444
 6706TIP3    H120040   0.394   1.408   5.652  0.6662 -0.6230  1.5272
 6706TIP3    H220041   0.508   1.464   5.569 -0.6680  0.2000  0.2334
 6707TIP3   OH220042   8.016   2.913   5.408 -0.5999  0.6392 -0.4396
 6707TIP3    H120043   7.959   2.878   5.477  0.6358 -1.9573 -0.6636
 6707TIP3    H220044   8.041   3.000   5.440 -3.7707  1.3800  0.1540
 6708TIP3   OH220045   1.607   0.752   7.052 -0.7598 -0.5654 -0.4711
 6708TIP3    H120046   1.586   0.802   7.130  0.3478 -0.0647 -0.4813
 6708TIP3    H220047   1.674   0.690   7.081 -1.1586 -1.1341 -0.7642
 6709TIP3   OH220048   1.610   2.057   5.621 -0.3481 -0.1305  0.2564
 6709TIP3    H120049   1.573   2.036   5.535  0.1598 -0.0987  0.0275
 6709TIP3    H220050   1.704   2.041   5.611 -0.0062  1.7777  0.2072
 6710TIP3   OH220051   5.930   7.936   6.726 -0.0185  0.4981 -0.8564
 6710TIP3    H120052   6.022   7.935   6.700 -0.1868 -2.3447 -1.5624
 6710TIP3    H220053   5.894   7.855   6.688 -1.6395 -0.8762  3.3087
 6711TIP3   OH220054   1.265   2.506   6.451 -0.3814  0.2246  0.1139
 6711TIP3    H120055   1.285   2.441   6.519  1.9318 -1.0951 -1.7178
 6711TIP3    H220056   1.346   2.557   6.442  0.4204 -1.5362 -3.5938
 6712TIP3   OH220057   8.339   1.061   4.202  0.8752 -0.3542  0.0432
 6712TIP3    H120058   8.326   1.036   4.293 -0.0129 -0.2835 -0.0603
 6712TIP3    H220059   8.416   1.010   4.174  0.9729 -0.5983  0.7355
 6713TIP3   OH220060   0.502   0.313   7.024  0.1317  0.1948  0.0446
 6713TIP3    H120061   0.545   0.332   6.941 -0.2647  0.4982 -0.0937
 6713TIP3    H220062   0.408   0.314   7.003 -0.0900  2.4826  0.9305
 6714TIP3   OH220063   0.770   0.323   4.749 -0.5109  0.7005  0.2981
 6714TIP3    H120064   0.701   0.259   4.768 -0.1817  0.4439  0.6292
 6714TIP3    H220065   0.771   0.380   4.826  1.0249 -0.5124  1.2052
 6715TIP3   OH220066   0.285   2.116   5.124 -0.1644  0.5294  0.5379
 6715TIP3    H120067   0.257   2.130   5.215  1.0665 -0.9329  1.1767
 6715TIP3    H220068   0.352   2.048   5.131 -0.0024  0.4729 -1.4742
 6716TIP3   OH220069   2.322   6.102   0.264 -0.2828  0.3022  0.1526
 6716TIP3    H120070   2.260   6.122   0.194 -0.8475 -0.5957  0.3878
 6716TIP3    H220071   2.365   6.185   0.282 -1.5628  0.9959  0.1212
 6717TIP3   OH220072   1.969   5.656   0.064  0.0580  0.7741  0.0517
 6717TIP3    H120073   2.064   5.668   0.070 -0.1436  2.0402  1.0992
 6717TIP3    H220074   1.934   5.713   0.133 -1.4489  0.1327 -0.1706
 6718TIP3   OH220075   2.939   2.103   4.324  0.2853  0.3816  0.0030
 6718TIP3    H120076   3.014   2.157   4.347  0.1964  0.6981 -0.4477
 6718TIP3    H220077   2.974   2.014   4.318  0.5905  0.5045 -0.0486
 6719TIP3   OH220078   4.309   7.187   0.281  0.2399 -0.2475  0.1294
 6719TIP3    H120079   4.321   7.262   0.223 -1.1289  0.2637  0.4986
 6719TIP3    H220080   4.360   7.117   0.240 -0.2395  0.2712 -1.3778
 6720TIP3   OH220081   5.749   8.241   5.715 -0.3759 -0.1411  0.0860
 6720TIP3    H120082   5.688   8.295   5.666 -1.8154 -0.0977  1.8428
 6720TIP3    H220083   5.778   8.296   5.787  0.8531 -0.5570 -0.0738
 6721TIP3   OH220084   7.704   0.516   4.215 -0.1859 -0.3718  0.8465
 6721TIP3    H120085   7.650   0.437   4.222  0.4364 -1.1054 -2.1343
 6721TIP3    H220086   7.794   0.484   4.219  0.0761  0.1263 -0.7569
 6722TIP3   OH220087   0.997   2.869   5.612 -0.1793  0.2088  0.2122
 6722TIP3    H120088   0.906   2.876   5.640  0.0782 -0.8528  1.3413
 6722TIP3    H220089   1.003   2.783   5.571  0.0900  0.6826 -0.7822
 6723TIP3   OH220090   1.333   2.928   6.402 -0.0680 -0.0503 -0.2160
 6723TIP3    H120091   1.396   2.880   6.455 -0.6187 -1.1702 -0.5525
 6723TIP3    H220092   1.263   2.865   6.385 -1.2055  1.1207  0.0158
 6724TIP3   OH220093   3.670   5.325   0.758  0.7233 -0.7279  0.2135
 6724TIP3    H120094   3.653   5.233   0.738 -0.9830 -0.3812  0.0453
 6724TIP3    H220095   3.626   5.340   0.842 -2.3120  0.9147 -1.6004
 6725TIP3   OH220096   3.460   6.411   0.161  0.0708  0.3071 -0.3354
 6725TIP3    H120097   3.538   6.458   0.193  1.0314 -1.4656  0.0067
 6725TIP3    H220098   3.464   6.421   0.066  0.8387  0.0683 -0.3358
 6726TIP3   OH220099   2.541   4.958   4.320 -0.3515  0.4444  0.5906
 6726TIP3    H120100   2.598   5.008   4.379 -1.2993  2.5677 -0.2308
 6726TIP3    H220101   2.599   4.930   4.249  0.4252 -0.5833  1.6190
 6727TIP3   OH220102   1.765   3.533   5.383  0.1286  0.7778 -0.1215
 6727TIP3    H120103   1.684   3.571   5.417  1.0023  2.4280  0.1488
 6727TIP3    H220104   1.773   3.450   5.430 -0.9997  0.9608  0.4170
 6728TIP3   OH220105   4.420   2.188   4.442  0.1561  0.3675  0.0169
 6728TIP3    H120106   4.440   2.281   4.452  1.2504  0.0780  0.6757
 6728TIP3    H220107   4.340   2.175   4.493  0.7479  0.6845  1.0365
 6729TIP3   OH220108   6.416   7.057   4.913 -0.4123 -0.5418 -0.4450
 6729TIP3    H120109   6.327   7.081   4.938 -0.2983 -1.2973  0.7569
 6729TIP3    H220110   6.433   6.975   4.960  1.1895  0.0181  0.0159
 6730TIP3   OH220111   0.808   3.406   4.018 -0.3374 -0.0265 -0.0058
 6730TIP3    H120112   0.820   3.417   3.924  3.1282  0.3699  0.4339
 6730TIP3    H220113   0.821   3.494   4.054 -1.1426 -0.2718  0.9266
 6731TIP3   OH220114   2.220   3.187   6.193  0.0611 -0.2297 -0.2354
 6731TIP3    H120115   2.281   3.197   6.120  2.5678 -1.3387  1.6401
 6731TIP3    H220116   2.145   3.242   6.169  1.6262  0.8955 -2.7666
 6732TIP3   OH220117   6.899   7.150   0.891  0.4975  0.7005 -0.1058
 6732TIP3    H120118   6.935   7.195   0.814 -0.2086 -0.2757 -1.0226
 6732TIP3    H220119   6.941   7.064   0.890 -1.2785 -0.1806 -0.7580
 6733TIP3   OH220120   8.837   2.486   5.374  0.0470  0.3754  0.5887
 6733TIP3    H120121   8.836   2.552   5.304  2.3220 -0.6688 -0.4790
 6733TIP3    H220122   8.744   2.472   5.394 -0.6511  0.9262 -2.0247
 6734TIP3   OH220123   0.577   0.552   5.726  0.2347 -0.0647  0.8410
 6734TIP3    H120124   0.654   0.608   5.721  0.0833  0.3047  2.4222
 6734TIP3    H220125   0.609   0.468   5.758  0.2817 -0.5337 -0.4186
 6735TIP3   OH220126   1.623   2.716   5.595  0.1566  0.2151  0.2236
 6735TIP3    H120127   1.684   2.661   5.642  1.3959  1.1594 -0.2605
 6735TIP3    H220128   1.550   2.658   5.572  0.6607 -0.7992  1.1844
 6736TIP3   OH220129   7.670   3.287   5.747  0.5272  0.1534 -0.6715
 6736TIP3    H120130   7.626   3.265   5.829  1.8691  1.1507  0.3469
 6736TIP3    H220131   7.670   3.205   5.697 -0.7992 -0.3221  0.0790
 6737TIP3   OH220132   2.129   2.274   5.746 -0.7694 -0.5999  0.5046
 6737TIP3    H120133   2.200   2.307   5.691 -1.3932 -0.2819 -0.1007
 6737TIP3    H220134   2.173   2.212   5.806 -0.1864 -1.3864 -0.7193
 6738TIP3   OH220135   6.233   7.854   4.480 -0.4380 -0.4027  0.1277
 6738TIP3    H120136   6.301   7.909   4.441  0.5656 -2.6358 -1.3822
 6738TIP3    H220137   6.153   7.905   4.469  0.4315  0.7087 -1.3770
 6739TIP3   OH220138   1.197   1.312   5.908  0.6691  0.6902 -0.7937
 6739TIP3    H120139   1.200   1.255   5.985 -0.0101 -1.2020 -2.1183
 6739TIP3    H220140   1.105   1.335   5.898  0.8367  1.4144 -0.7057
 6740TIP3   OH220141   2.216   1.245   6.936  0.1043  0.1543 -0.0754
 6740TIP3    H120142   2.154   1.316   6.920 -0.7272 -0.6218 -0.3734
 6740TIP3    H220143   2.163   1.175   6.973  0.7917 -0.5460 -0.4048
 6741TIP3   OH220144   8.798   1.206   3.393  0.7158  0.3518 -0.0487
 6741TIP3    H120145   8.753   1.257   3.325 -0.7791 -0.5683  0.2227
 6741TIP3    H220146   8.815   1.270   3.463  1.4266  1.0955 -0.8956
 6742TIP3   OH220147   5.160   1.952   3.354 -0.0910 -0.6089 -0.2647
 6742TIP3    H120148   5.134   1.976   3.443 -0.7930  0.9794 -0.8808
 6742TIP3    H220149   5.252   1.925   3.362  0.3364  1.0854  0.6744
 6743TIP3   OH220150   2.528   1.311   5.932  0.2273 -0.0509  0.4063
 6743TIP3    H120151   2.482   1.381   5.977 -0.8060  0.6405 -1.6779
 6743TIP3    H220152   2.509   1.325   5.840  2.0460 -1.6167 -0.2399
 6744TIP3   OH220153   1.449   0.421   5.145  0.0868  0.5262 -0.6338
 6744TIP3    H120154   1.390   0.364   5.097  2.2512 -0.8502 -1.7498
 6744TIP3    H220155   1.392   0.484   5.189 -2.2206 -1.2464 -1.0143
 6745TIP3   OH220156   2.051   3.792   6.993 -0.2262  1.0784 -0.0171
 6745TIP3    H120157   2.145   3.798   7.008 -0.3100 -0.7275  1.4140
 6745TIP3    H220158   2.011   3.810   7.078 -1.0422 -1.0963  0.0890
 6746TIP3   OH220159   2.023   0.542   3.632 -0.0503 -0.0671 -0.4031
 6746TIP3    H120160   2.002   0.454   3.599 -1.2582 -0.2927  0.9075
 6746TIP3    H220161   2.113   0.557   3.604 -0.0147 -1.4984 -1.1258
 6747TIP3   OH220162   2.782   3.835   4.731 -0.0787  0.0360  0.0306
 6747TIP3    H120163   2.781   3.913   4.676  0.4625  0.0795  0.0836
 6747TIP3    H220164   2.690   3.811   4.741 -0.0979 -1.2917 -2.7792
 6748TIP3   OH220165   1.053   0.541   6.355  0.1198 -0.1494  0.7124
 6748TIP3    H120166   1.069   0.548   6.449 -2.4756  0.7011  1.1287
 6748TIP3    H220167   0.970   0.495   6.348  0.4926 -0.5759 -1.1917
 6749TIP3   OH220168   7.987   2.287   5.447 -1.0412  0.3265 -0.1811
 6749TIP3    H120169   7.948   2.254   5.366 -0.8409  2.4577 -1.1808
 6749TIP3    H220170   7.965   2.220   5.512  0.4834 -2.4219 -2.3491
 6750TIP3   OH220171   1.818   1.449   6.730 -0.0750  0.2253  0.7920
 6750TIP3    H120172   1.782   1.479   6.814 -0.7770  1.0047  0.2225
 6750TIP3    H220173   1.773   1.502   6.665 -0.5119 -1.3013 -0.1726
 6751TIP3   OH220174   2.177   3.353   6.571  0.1967  0.0480 -0.1804
 6751TIP3    H120175   2.148   3.274   6.618 -0.7472  0.4739 -0.0213
 6751TIP3    H220176   2.096   3.390   6.535  0.8497  0.0060 -1.7299
 6752TIP3   OH220177   3.466   1.714   4.552 -0.4057  0.1804 -0.2667
 6752TIP3    H120178   3.499   1.784   4.495  0.9629 -1.0053 -0.9698
 6752TIP3    H220179   3.372   1.728   4.555 -0.4317  0.6541 -2.3507
 6753TIP3   OH220180   8.269   2.843   6.890  0.5914 -0.6665 -0.7122
 6753TIP3    H120181   8.349   2.854   6.840 -0.4615  0.8510 -2.1266
 6753TIP3    H220182   8.292   2.869   6.979  1.7952 -0.7708 -0.9907
 6754TIP3   OH220183   4.783   7.886   0.162  0.1954 -0.5335  0.1503
 6754TIP3    H120184   4.767   7.849   0.249 -1.7289  0.1296  0.1003
 6754TIP3    H220185   4.696   7.893   0.123  0.8454  1.0981 -1.0412
 6755TIP3   OH220186   8.240   3.474   5.813  0.1816  0.7831  0.7017
 6755TIP3    H120187   8.322   3.484   5.764 -1.2055 -0.7195 -2.0446
 6755TIP3    H220188   8.201   3.562   5.810  0.3483  0.8317 -0.5132
 6756TIP3   OH220189   1.140   4.539   6.557  0.0874 -0.2872 -0.2825
 6756TIP3    H120190   1.178   4.522   6.643  2.2253  1.4590 -0.8379
 6756TIP3    H220191   1.147   4.456   6.510  0.5648 -0.7551  0.6159
 6757TIP3   OH220192   7.094   0.552   7.047 -0.2855  0.2161  0.4240
 6757TIP3    H120193   7.074   0.459   7.041  0.1410 -0.0246  2.3275
 6757TIP3    H220194   7.017   0.591   7.089 -0.3706  0.6845 -0.1573
 6758TIP3   OH220195   7.981   4.224   4.767  0.1032  0.0798 -0.0734
 6758TIP3    H120196   7.886   4.210   4.762  0.2185 -0.6581 -0.2238
 6758TIP3    H220197   7.996   4.304   4.716 -0.6479  1.1938  1.4156
 6759TIP3   OH220198   7.799   2.303   4.448 -0.1451  0.0836 -0.1683
 6759TIP3    H120199   7.766   2.229   4.397  1.8127 -1.4803  0.7765
 6759TIP3    H220200   7.783   2.379   4.392 -3.7245 -0.7782 -0.4371
 6760TIP3   OH220201  -0.021   0.711   6.654  0.1567 -0.3870 -0.1092
 6760TIP3    H120202   0.049   0.678   6.598 -0.8137 -0.5372 -1.2534
 6760TIP3    H220203   0.002   0.802   6.672  1.0546 -0.6737  0.1738
 6761TIP3   OH220204   2.416   0.908   5.144  0.0898 -0.1388  0.3088
 6761TIP3    H120205   2.474   0.847   5.099  2.1510  2.0690 -0.2031
 6761TIP3    H220206   2.456   0.920   5.230 -1.3847 -0.9983  1.1220
 6762TIP3   OH220207   3.122   1.442   4.592  0.0295  0.0190 -0.8046
 6762TIP3    H120208   3.165   1.423   4.675 -0.3330 -2.3785 -1.1391
 6762TIP3    H220209   3.139   1.535   4.576  1.8554 -0.0129  0.9122
 6763TIP3   OH220210   1.872   1.487   4.541 -0.1312  0.6527  0.0596
 6763TIP3    H120211   1.815   1.564   4.529 -0.7717  0.2312  0.3656
 6763TIP3    H220212   1.859   1.461   4.632 -0.1273  0.0161 -0.1171
 6764TIP3   OH220213   6.327   6.550   4.328 -0.7223  0.6519  0.2469
 6764TIP3    H120214   6.314   6.466   4.372  1.5569  0.5281  0.7434
 6764TIP3    H220215   6.343   6.527   4.237  0.9012  0.4432  0.5637
 6765TIP3   OH220216   2.528   0.317   2.900  0.2210 -0.0896  0.0979
 6765TIP3    H120217   2.570   0.394   2.938 -0.9047  0.0040  1.1810
 6765TIP3    H220218   2.598   0.271   2.854  0.8116  1.7860 -0.8951
 6766TIP3   OH220219   0.694   2.996   4.966  0.1874  0.8305  0.4610
 6766TIP3    H120220   0.783   3.024   4.988 -0.3426  1.5546  1.7018
 6766TIP3    H220221   0.652   2.981   5.050  0.0214 -2.3980 -0.1252
 6767TIP3   OH220222   5.139   2.519   0.883  0.0076  0.2054  0.1509
 6767TIP3    H120223   5.077   2.455   0.916  0.3500  0.0360  0.4750
 6767TIP3    H220224   5.141   2.587   0.950  2.9932 -1.6041  2.0191
 6768TIP3   OH220225   8.057   3.237   4.647 -0.3624  0.7651 -0.4857
 6768TIP3    H120226   8.060   3.185   4.728  1.5234 -2.2140 -2.3798
 6768TIP3    H220227   7.966   3.268   4.642 -0.9631 -0.5132  1.8302
 6769TIP3   OH220228   2.008   4.067   4.287  0.0931  0.0875 -0.7523
 6769TIP3    H120229   1.998   3.975   4.263 -1.7489  0.4574 -1.5183
 6769TIP3    H220230   1.971   4.115   4.213  1.9157  1.4882 -0.7839
 6770TIP3   OH220231   8.582   2.185   5.425  0.8676  0.0739  0.6324
 6770TIP3    H120232   8.663   2.141   5.398  0.6582 -1.2792  2.1650
 6770TIP3    H220233   8.523   2.114   5.450  0.1499  1.1789  2.1281
 6771TIP3   OH220234   5.071   4.173   0.323 -0.5931  0.1441  0.2173
 6771TIP3    H120235   5.141   4.115   0.353 -0.1360  0.2085 -0.6905
 6771TIP3    H220236   5.001   4.113   0.297 -0.3016  0.0097 -0.2742
 6772TIP3   OH220237   2.370   2.767   5.968 -0.0070 -0.5957 -0.4122
 6772TIP3    H120238   2.355   2.860   5.987  1.4188 -0.2914 -0.7010
 6772TIP3    H220239   2.353   2.722   6.050 -1.6621 -0.1916 -0.5188
 6773TIP3   OH220240   2.874   3.011   4.371  0.6579 -0.1025  0.3354
 6773TIP3    H120241   2.950   3.068   4.367 -0.4970  1.3874 -0.9140
 6773TIP3    H220242   2.890   2.943   4.305  0.3893  0.8746 -0.7468
 6774TIP3   OH220243   2.686   2.642   4.469 -0.5436 -0.4492 -0.0942
 6774TIP3    H120244   2.610   2.628   4.412  0.3747  1.0684 -1.7296
 6774TIP3    H220245   2.666   2.723   4.516 -1.3966 -1.8084  1.9635
 6775TIP3   OH220246   0.477   1.269   6.046 -0.2161  0.4925  0.3155
 6775TIP3    H120247   0.415   1.214   5.997 -1.3379  1.1888  0.9516
 6775TIP3    H220248   0.432   1.289   6.128  0.6303  1.4737  0.5460
 6776TIP3   OH220249   2.077   2.715   5.604 -0.3024  0.6742 -0.0991
 6776TIP3    H120250   2.080   2.653   5.676  2.7964  2.0042  1.0112
 6776TIP3    H220251   2.075   2.660   5.525  2.1787 -0.8675  0.8693
 6777TIP3   OH220252   0.899   2.773   3.156  0.0547 -0.2465  0.6633
 6777TIP3    H120253   0.919   2.845   3.096 -0.0157  0.0907  1.0449
 6777TIP3    H220254   0.955   2.701   3.126 -0.5436 -0.3274 -0.2887
 6778TIP3   OH220255   1.627   2.074   5.063 -0.2310  0.7336  0.5253
 6778TIP3    H120256   1.605   2.125   5.141 -0.9252  0.1592  0.7122
 6778TIP3    H220257   1.723   2.078   5.059 -0.3120  2.7336  0.0523
 6779TIP3   OH220258   2.769   2.945   7.216 -0.0162 -0.0302  0.0735
 6779TIP3    H120259   2.762   2.926   7.310  0.5271  2.0930  0.5621
 6779TIP3    H220260   2.857   2.979   7.205 -0.3795  0.5650 -1.0476
 6780TIP3   OH220261   0.758   0.856   0.041  0.5606 -0.2704 -0.6683
 6780TIP3    H120262   0.684   0.796   0.036  0.1389  0.1337  0.6156
 6780TIP3    H220263   0.835   0.800   0.029  0.1098 -0.8468 -0.9058
 6781TIP3   OH220264   1.900   3.871   6.213  0.1930 -0.1442 -0.0014
 6781TIP3    H120265   1.898   3.927   6.135 -0.5628  1.6873  1.2818
 6781TIP3    H220266   1.808   3.850   6.230  0.3458 -0.4538  0.4408
 6782TIP3   OH220267   2.174   2.577   5.175  0.9818 -0.5044  0.1141
 6782TIP3    H120268   2.101   2.639   5.179  1.3546  0.0008 -0.6961
 6782TIP3    H220269   2.141   2.505   5.122  1.5675  0.4275 -1.5492
 6783TIP3   OH220270   2.681   3.802   6.016 -0.0198  0.3650  0.3305
 6783TIP3    H120271   2.661   3.708   6.012  0.1160  0.2405  2.1475
 6783TIP3    H220272   2.719   3.822   5.931 -0.1699 -1.2023 -0.1240
 6784TIP3   OH220273   1.454   3.337   7.094 -0.1436  0.2591  0.5094
 6784TIP3    H120274   1.409   3.324   7.178 -0.7855  0.0849  0.1392
 6784TIP3    H220275   1.385   3.364   7.034  0.6506  2.4215  0.5213
 6785TIP3   OH220276   2.159   2.517   5.441  0.1428 -0.2664 -0.0840
 6785TIP3    H120277   2.186   2.561   5.361 -0.6217  0.6812  0.1679
 6785TIP3    H220278   2.141   2.427   5.413  0.2784 -0.0501 -0.8950
 6786TIP3   OH220279   1.306   3.154   6.266  0.9050 -0.0883  0.6970
 6786TIP3    H120280   1.223   3.158   6.218  2.0661 -2.0807 -1.5993
 6786TIP3    H220281   1.305   3.068   6.308  1.1170  0.5524  2.0601
 6787TIP3   OH220282   3.403   4.595   7.032 -0.0353  0.2100  0.2706
 6787TIP3    H120283   3.449   4.620   7.112 -1.4538  0.4807  1.0049
 6787TIP3    H220284   3.320   4.559   7.061 -1.1302  1.5218 -1.1000
 6788TIP3   OH220285   4.488   1.308   3.801 -0.2341 -0.1765 -0.4792
 6788TIP3    H120286   4.491   1.360   3.882  1.7052 -1.5357  0.3828
 6788TIP3    H220287   4.455   1.223   3.829  0.3675 -0.6272 -1.1397
 6789TIP3   OH220288   1.388   0.784   4.537 -0.0291 -0.0063 -0.5071
 6789TIP3    H120289   1.302   0.746   4.522  0.6625 -3.0233  2.5941
 6789TIP3    H220290   1.389   0.807   4.630  3.2410 -2.2340  0.1139
 6790TIP3   OH220291   2.296   3.356   5.704  0.5742  1.0021 -0.0841
 6790TIP3    H120292   2.252   3.293   5.646  0.3361  0.3902  0.7481
 6790TIP3    H220293   2.389   3.335   5.696  0.7212  2.1121 -1.6285
 6791TIP3   OH220294   4.501   1.830   3.317 -0.1199 -0.0765  0.0289
 6791TIP3    H120295   4.551   1.753   3.344  0.3459 -0.4963 -1.9120
 6791TIP3    H220296   4.536   1.902   3.370  1.9270 -0.5328 -0.6546
 6792TIP3   OH220297   1.410   1.142   4.990 -0.0964 -0.2732  0.0067
 6792TIP3    H120298   1.418   1.220   4.935 -0.8189 -0.8458 -0.9130
 6792TIP3    H220299   1.339   1.162   5.050 -0.2983 -0.2404 -0.2443
 6793TIP3   OH220300   1.016   0.143   4.912 -0.0139  0.2785  0.2696
 6793TIP3    H120301   0.964   0.063   4.898 -0.1556  0.4972 -0.4823
 6793TIP3    H220302   1.016   0.187   4.827  2.0112 -0.0760  0.0510
 6794TIP3   OH220303   3.006   2.853   6.056 -0.3829 -0.1840 -0.5193
 6794TIP3    H120304   3.038   2.802   5.981 -1.0151 -1.5165  0.1106
 6794TIP3    H220305   2.940   2.797   6.097 -1.1412  1.1702  0.1456
 6795TIP3   OH220306   1.778   2.864   6.034 -0.1654 -0.1538 -0.4217
 6795TIP3    H120307   1.714   2.843   6.102  1.9088 -0.7390  1.4477
 6795TIP3    H220308   1.771   2.792   5.972 -0.9994 -0.4465 -0.0007
 6796TIP3   OH220309   2.542   4.880   6.623  0.0117  0.2803  0.3832
 6796TIP3    H120310   2.478   4.841   6.564 -0.7930  1.2020  0.6220
 6796TIP3    H220311   2.607   4.921   6.565  1.2553 -1.9795  0.1263
 6797TIP3   OH220312   3.828   1.598   3.900  0.3360 -0.0669 -0.2078
 6797TIP3    H120313   3.835   1.525   3.839  0.2070 -0.7316  0.5501
 6797TIP3    H220314   3.889   1.576   3.970 -0.7595 -0.1660  0.7356
 6798TIP3   OH220315   3.048   1.060   4.638 -0.5193 -0.6411 -0.2928
 6798TIP3    H120316   2.979   1.109   4.592  1.1150  0.8292 -1.2735
 6798TIP3    H220317   3.072   1.116   4.711 -0.4914 -1.2287  0.1455
 6799TIP3   OH220318   1.390   1.875   4.437 -0.1974  0.2668  0.1283
 6799TIP3    H120319   1.387   1.849   4.529  0.2602 -0.4069 -0.0405
 6799TIP3    H220320   1.333   1.811   4.393  2.4320 -1.6757 -0.5690
 6800TIP3   OH220321   3.893   3.781   5.159 -0.3673 -0.1028  0.4870
 6800TIP3    H120322   3.883   3.875   5.173 -2.0931 -0.2232  0.2077
 6800TIP3    H220323   3.873   3.741   5.244 -0.3394 -0.2478  0.4267
 6801TIP3   OH220324   3.053   1.149   3.786  0.5515  0.1853  0.3224
 6801TIP3    H120325   3.134   1.196   3.767  1.0487 -1.2325 -1.1765
 6801TIP3    H220326   3.058   1.069   3.733 -1.0922 -0.6933  1.4357
 6802TIP3   OH220327   3.221   2.687   3.541  0.0337 -0.3373  0.3338
 6802TIP3    H120328   3.156   2.714   3.606 -1.5316 -0.6900 -1.0421
 6802TIP3    H220329   3.304   2.717   3.577 -0.7868 -0.5218  2.5029
 6803TIP3   OH220330   1.460   1.563   3.450 -0.0452 -0.8878 -0.2492
 6803TIP3    H120331   1.494   1.645   3.485 -0.6622 -0.2296 -1.1861
 6803TIP3    H220332   1.400   1.531   3.519  0.1008 -0.4946  0.0601
 6804TIP3   OH220333   2.595   2.865   5.830  0.1535 -0.3288  0.3389
 6804TIP3    H120334   2.632   2.784   5.794 -2.3797 -2.0218  1.3863
 6804TIP3    H220335   2.536   2.835   5.899 -1.7445  2.3693 -0.0648
 6805TIP3   OH220336   0.370   4.353   4.605  0.0326 -0.3027  0.1933
 6805TIP3    H120337   0.466   4.353   4.604  0.0355  0.0143  0.2980
 6805TIP3    H220338   0.346   4.442   4.579 -0.2002  0.5235  3.0935
 6806TIP3   OH220339   2.726   3.660   5.504 -0.5175 -0.3619  0.2326
 6806TIP3    H120340   2.652   3.604   5.479  0.0511 -0.8513 -0.3638
 6806TIP3    H220341   2.746   3.709   5.424  1.0521 -1.6397 -0.1814
 6807TIP3   OH220342   0.699   3.137   5.240  0.4623  0.4063 -0.0216
 6807TIP3    H120343   0.673   3.225   5.212  1.1735  1.1804  1.6359
 6807TIP3    H220344   0.640   3.078   5.194 -0.1686  1.7768 -0.9895
 6808TIP3   OH220345   3.123   2.398   3.690  0.0402 -0.5033  0.4452
 6808TIP3    H120346   3.058   2.384   3.621  0.6838 -3.1846  0.3335
 6808TIP3    H220347   3.180   2.466   3.656 -1.6629  0.6463 -0.1977
 6809TIP3   OH220348   2.083   1.115   4.202 -0.2624 -0.6713  0.0556
 6809TIP3    H120349   2.026   1.170   4.148  0.9681 -0.9803 -1.6037
 6809TIP3    H220350   2.049   1.027   4.191  0.6381 -0.8860 -1.1070
 6810TIP3   OH220351   8.696   4.352   4.187 -0.4926  0.2329 -0.2489
 6810TIP3    H120352   8.672   4.415   4.119 -1.3520 -1.3783 -1.4760
 6810TIP3    H220353   8.649   4.382   4.265 -3.7495 -0.8277 -1.7161
 6811TIP3   OH220354   3.082   2.031   4.759  0.1753  0.2733  0.2442
 6811TIP3    H120355   3.042   2.092   4.697  2.0262  1.8137  0.5456
 6811TIP3    H220356   3.082   1.947   4.713  1.8669  1.4557 -2.0326
 6812TIP3   OH220357   0.262   3.357   5.185 -0.0927 -0.1039 -0.6179
 6812TIP3    H120358   0.244   3.263   5.191  0.9446 -0.3429 -1.2372
 6812TIP3    H220359   0.261   3.376   5.091 -0.0020  0.4488 -0.5113
 6813TIP3   OH220360   3.243   2.172   4.947  0.1098 -0.1089  0.2488
 6813TIP3    H120361   3.183   2.123   4.891 -0.3466  0.1498  0.5086
 6813TIP3    H220362   3.293   2.105   4.993 -3.3152 -0.4688  3.7007
 6814TIP3   OH220363   2.033   3.519   5.306 -0.2332 -0.1899 -0.2526
 6814TIP3    H120364   1.938   3.527   5.314 -0.2752 -1.0993  0.3218
 6814TIP3    H220365   2.063   3.607   5.284 -1.0927  0.3726  0.7570
 6815TIP3   OH220366   3.340   3.333   6.510 -0.0487  0.5822 -0.4081
 6815TIP3    H120367   3.355   3.392   6.583 -0.5540  0.2886 -0.0657
 6815TIP3    H220368   3.364   3.384   6.433 -0.8971  1.3857 -0.1435
 6816TIP3   OH220369   3.814   2.570   5.799 -0.1439  0.1699 -0.3193
 6816TIP3    H120370   3.820   2.510   5.873 -1.5923  0.2178 -0.1504
 6816TIP3    H220371   3.826   2.515   5.722 -2.0852 -0.4576 -0.1950
 6817TIP3   OH220372   2.009   2.792   5.277  0.1310  0.3500  0.2425
 6817TIP3    H120373   2.076   2.856   5.301  1.2976 -0.4662 -0.7766
 6817TIP3    H220374   1.931   2.820   5.325  0.8061  2.1417  0.3344
 6818TIP3   OH220375   5.241   3.460   4.250  0.5983 -0.4879 -0.0399
 6818TIP3    H120376   5.295   3.451   4.328  0.9399 -0.4796 -0.2731
 6818TIP3    H220377   5.208   3.549   4.253 -1.8132 -1.3961  1.6557
 6819TIP3   OH220378   3.890   4.449   0.739  0.5513  0.5126  0.3708
 6819TIP3    H120379   3.955   4.511   0.774  0.6625 -0.2691  1.6016
 6819TIP3    H220380   3.807   4.477   0.777  0.7733 -0.7265  1.7978
 6820TIP3   OH220381   0.786   3.577   3.318  0.2981 -0.4417  0.4302
 6820TIP3    H120382   0.868   3.543   3.354 -0.3297 -1.1170  1.2563
 6820TIP3    H220383   0.756   3.642   3.382  0.0500 -0.4029  0.2777
 6821TIP3   OH220384   3.874   2.646   6.479 -0.1136  0.3018  0.0310
 6821TIP3    H120385   3.886   2.740   6.465 -0.8207  0.6555  1.6392
 6821TIP3    H220386   3.788   2.627   6.441 -0.1080  0.3832 -0.0227
 6822TIP3   OH220387   1.344   3.974   6.657  0.2515  0.0168 -0.1237
 6822TIP3    H120388   1.255   3.970   6.691 -0.6094  1.6014 -2.0767
 6822TIP3    H220389   1.345   3.910   6.585  0.9187 -0.5289  0.3610
 6823TIP3   OH220390   2.064   4.271   6.472  0.6211 -0.3852  0.1459
 6823TIP3    H120391   2.023   4.219   6.541  1.2503 -0.1999  0.6573
 6823TIP3    H220392   1.993   4.287   6.409  0.1993 -1.0728  0.4407
 6824TIP3   OH220393   3.102   3.408   5.258  0.5698 -0.1006 -0.0861
 6824TIP3    H120394   3.067   3.495   5.237 -1.1983  0.1201  3.4375
 6824TIP3    H220395   3.086   3.356   5.179 -0.8817  2.0057 -1.2387
 6825TIP3   OH220396   4.255   3.744   5.499  0.0367 -0.0519 -0.4029
 6825TIP3    H120397   4.309   3.744   5.420  0.7616  2.9715  0.0540
 6825TIP3    H220398   4.317   3.741   5.571 -0.5690 -0.9883  0.0975
 6826TIP3   OH220399   1.718   5.257   6.894 -0.1608 -0.1581  0.4520
 6826TIP3    H120400   1.791   5.200   6.871 -1.1822 -0.3613 -2.5229
 6826TIP3    H220401   1.702   5.308   6.815 -3.0620  0.0923  1.1475
 6827TIP3   OH220402   1.865   2.502   6.820  0.5157 -0.6351  0.7451
 6827TIP3    H120403   1.914   2.510   6.901  0.8491 -0.8556  0.5664
 6827TIP3    H220404   1.834   2.411   6.820 -1.0291 -0.1220  1.5033
 6828TIP3   OH220405   0.982   0.877   6.464  0.1932  0.1094 -0.0314
 6828TIP3    H120406   0.923   0.801   6.466  0.2686  0.0652  0.5120
 6828TIP3    H220407   1.065   0.844   6.499 -0.2834  0.8772  1.8702
 6829TIP3   OH220408   3.563   1.812   5.066  0.7826  0.1035  0.0892
 6829TIP3    H120409   3.547   1.718   5.064 -0.0782  0.1971  1.7933
 6829TIP3    H220410   3.655   1.820   5.090  0.7639 -0.3015  0.3058
 6830TIP3   OH220411   3.764   0.605   4.997  0.0065 -0.4706 -0.0446
 6830TIP3    H120412   3.747   0.681   5.053  0.1816  0.5884 -1.3917
 6830TIP3    H220413   3.774   0.532   5.058  0.6071  0.7332  1.3350
 6831TIP3   OH220414   2.302   1.996   6.911 -0.4472 -0.7729 -0.1842
 6831TIP3    H120415   2.210   1.975   6.928 -0.5050  0.6257  1.4203
 6831TIP3    H220416   2.300   2.089   6.886  0.5194 -0.7568 -0.1988
 6832TIP3   OH220417   3.272   0.817   3.162  0.0289 -0.0861 -0.2304
 6832TIP3    H120418   3.341   0.818   3.096  0.7144  0.7745  0.4910
 6832TIP3    H220419   3.308   0.766   3.234 -0.0320  0.5010  0.2153
 6833TIP3   OH220420   1.696   1.565   3.684  0.2748 -0.0968 -0.1323
 6833TIP3    H120421   1.650   1.596   3.606  1.1980 -0.9934 -1.0580
 6833TIP3    H220422   1.738   1.643   3.720 -0.6939  0.4444 -0.1438
 6834TIP3   OH220423   6.565   8.257   3.057 -0.2804  0.1101  0.1397
 6834TIP3    H120424   6.497   8.303   3.007 -1.2410 -0.8363  0.5529
 6834TIP3    H220425   6.552   8.285   3.147 -1.6295 -1.8183  0.5852
 6835TIP3   OH220426   4.144   6.158   0.813 -0.2182  0.2399  0.1090
 6835TIP3    H120427   4.054   6.178   0.839 -0.4952 -0.0200 -0.6456
 6835TIP3    H220428   4.136   6.089   0.748  0.7001 -2.0607  2.3205
 6836TIP3   OH220429   1.372   1.743   5.574  0.2428  0.5289  0.2363
 6836TIP3    H120430   1.379   1.767   5.481 -1.6169 -2.1399 -0.6244
 6836TIP3    H220431   1.455   1.699   5.593 -0.5299 -1.4679 -0.9423
 6837TIP3   OH220432   3.932   2.912   6.346 -0.0901  0.1239 -0.5297
 6837TIP3    H120433   3.929   3.006   6.329  0.0132  0.2362  0.0737
 6837TIP3    H220434   3.841   2.883   6.334 -0.5069  0.6504  1.2464
 6838TIP3   OH220435   2.913   0.547   3.472  0.8032  0.2405  0.4705
 6838TIP3    H120436   2.885   0.469   3.424  1.8462  1.3239 -2.0282
 6838TIP3    H220437   2.836   0.603   3.475  0.4607 -0.2559  0.9428
 6839TIP3   OH220438   2.635   2.487   5.532  0.5459 -0.0060  0.6515
 6839TIP3    H120439   2.665   2.414   5.478 -1.6880 -0.8731  0.5190
 6839TIP3    H220440   2.591   2.546   5.470  0.3542  0.3281  1.1056
 6840TIP3   OH220441   2.906   0.819   3.171  0.2381 -0.8153  0.0831
 6840TIP3    H120442   2.925   0.880   3.099 -2.4517 -0.7816 -0.6724
 6840TIP3    H220443   2.966   0.746   3.156 -0.1732 -0.7473 -2.1467
 6841TIP3   OH220444   8.837   1.755   5.714 -0.1395 -0.8845  0.3607
 6841TIP3    H120445   8.786   1.820   5.666  0.0991 -0.7168  0.3345
 6841TIP3    H220446   8.772   1.691   5.743 -0.2139 -1.2875 -0.6736
 6842TIP3   OH220447   0.273   1.687   4.031 -0.0235 -0.1891  0.5738
 6842TIP3    H120448   0.187   1.688   4.073 -0.5664 -1.2514 -0.5064
 6842TIP3    H220449   0.335   1.676   4.104 -0.9835 -2.3835  1.0990
 6843TIP3   OH220450   1.813   3.071   6.607  0.0436  0.0454  0.3047
 6843TIP3    H120451   1.768   3.155   6.601  0.5768  0.3858  0.9047
 6843TIP3    H220452   1.864   3.066   6.526 -0.3023  0.1161  0.0825
 6844TIP3   OH220453   1.165   1.608   4.718 -0.0177 -0.2839 -0.2535
 6844TIP3    H120454   1.118   1.618   4.635  0.3325  1.9545 -0.2080
 6844TIP3    H220455   1.131   1.678   4.774  2.2145  0.4057  0.3075
 6845TIP3   OH220456   2.458   3.738   6.630 -0.5423 -0.0320  0.3507
 6845TIP3    H120457   2.473   3.747   6.536  0.8010  0.5503  0.6191
 6845TIP3    H220458   2.465   3.644   6.646 -1.0227 -0.1604 -0.1640
 6846TIP3   OH220459   5.170   4.911   0.075 -0.2937 -1.0400  0.3051
 6846TIP3    H120460   5.209   4.901  -0.012 -0.9336 -0.6103 -0.0381
 6846TIP3    H220461   5.222   4.978   0.118  1.0833 -2.4444  0.8845
 6847TIP3   OH220462   2.351   1.549   4.637  0.9981  0.2744 -0.3035
 6847TIP3    H120463   2.416   1.480   4.650  1.2135  0.7737  1.4887
 6847TIP3    H220464   2.379   1.620   4.695 -0.6988  0.7928 -0.0688
 6848TIP3   OH220465   1.371   2.136   5.745 -0.0415  0.6674 -0.0802
 6848TIP3    H120466   1.462   2.112   5.728  0.1523  0.6501  0.9566
 6848TIP3    H220467   1.358   2.117   5.838 -1.1076  0.6581 -0.2276
 6849TIP3   OH220468   3.692   2.835   7.242  0.0608 -0.1521  0.8403
 6849TIP3    H120469   3.770   2.855   7.191  0.6985 -0.4697  1.6762
 6849TIP3    H220470   3.638   2.781   7.184  1.6931 -2.2325  1.2165
 6850TIP3   OH220471   3.948   1.380   5.406 -0.6259  0.1436  0.2154
 6850TIP3    H120472   3.998   1.455   5.373  0.8137 -1.5942 -1.7066
 6850TIP3    H220473   3.862   1.388   5.365 -0.1638  0.2336 -0.7548
 6851TIP3   OH220474   3.230   2.160   3.986 -0.6483  0.0896  0.4176
 6851TIP3    H120475   3.315   2.176   4.027  0.5488 -0.4511 -1.7879
 6851TIP3    H220476   3.183   2.106   4.050  1.8349 -2.2495  0.3535
 6852TIP3   OH220477   4.135   5.593   1.572 -0.0865 -0.4084 -0.3373
 6852TIP3    H120478   4.072   5.591   1.500 -0.0299 -2.4573 -0.3595
 6852TIP3    H220479   4.214   5.632   1.535  0.3204 -2.4556 -1.7376
 6853TIP3   OH220480   2.561   4.082   5.939  0.4286  0.1174 -0.0891
 6853TIP3    H120481   2.532   4.096   6.029  0.7410  0.7534 -0.0851
 6853TIP3    H220482   2.482   4.095   5.886  0.2514 -0.2256  0.0908
 6854TIP3   OH220483   2.172   3.071   5.810  0.2465  0.0068  0.0979
 6854TIP3    H120484   2.160   2.984   5.849  1.3924  0.2715  1.0513
 6854TIP3    H220485   2.266   3.077   5.793 -0.0720  0.3675 -1.6365
 6855TIP3   OH220486   1.816   1.341   4.799 -0.3516  0.2749  0.1108
 6855TIP3    H120487   1.728   1.342   4.836 -0.3171 -0.1119  0.2073
 6855TIP3    H220488   1.872   1.371   4.871 -0.0552 -2.2722  1.0051
 6856TIP3   OH220489   4.076   1.400   4.827 -0.5387 -0.0847  0.0084
 6856TIP3    H120490   4.075   1.345   4.905 -3.6116 -0.6686 -0.3750
 6856TIP3    H220491   4.008   1.465   4.843 -0.0410  0.8178 -1.4777
 6857TIP3   OH220492   3.729   4.359   6.560  0.5211 -0.5954  0.4459
 6857TIP3    H120493   3.635   4.357   6.579  0.1591 -1.9652 -1.3724
 6857TIP3    H220494   3.734   4.375   6.466  2.1226 -0.1396  0.5980
 6858TIP3   OH220495   3.530   2.160   4.397 -0.1318 -0.0037 -0.5600
 6858TIP3    H120496   3.488   2.235   4.355 -0.4929  1.0042  1.5190
 6858TIP3    H220497   3.477   2.085   4.370 -2.6560  1.1047  1.0788
 6859TIP3   OH220498   1.743   3.787   5.898 -0.0603  0.7174 -0.2874
 6859TIP3    H120499   1.750   3.741   5.982  1.4681  0.6040 -0.4722
 6859TIP3    H220500   1.787   3.730   5.835 -0.5595  1.1490 -1.0446
 6860TIP3   OH220501   1.843   1.506   5.148 -0.0513 -0.0889 -0.0330
 6860TIP3    H120502   1.841   1.601   5.132  0.2701 -0.0767 -0.0049
 6860TIP3    H220503   1.755   1.476   5.124 -0.1750  0.2263  0.0179
 6861TIP3   OH220504   1.897   2.424   4.958  0.2099  0.3040  0.0289
 6861TIP3    H120505   1.873   2.333   4.976  0.2921  0.4425  0.8782
 6861TIP3    H220506   1.992   2.422   4.949  0.0602  0.0445 -1.5740
 6862TIP3   OH220507   4.196   2.250   5.495  0.8436 -0.1228  0.5674
 6862TIP3    H120508   4.123   2.270   5.436  1.6218  0.7512 -0.1259
 6862TIP3    H220509   4.199   2.326   5.554  0.8927 -0.3814  0.8961
 6863TIP3   OH220510   4.569   4.450   7.157 -0.1430  0.0099 -0.0538
 6863TIP3    H120511   4.501   4.420   7.096 -1.3936 -0.2237  1.4169
 6863TIP3    H220512   4.644   4.394   7.139 -1.3560 -1.7790  0.3607
 6864TIP3   OH220513   2.735   8.294   3.737  0.9497  0.3069  0.3665
 6864TIP3    H120514   2.784   8.317   3.816 -0.7046  2.2597  0.8723
 6864TIP3    H220515   2.643   8.309   3.761  0.4075  0.5948 -1.8172
 6865TIP3   OH220516   0.300   0.066   0.127  0.5689  0.1266 -0.1916
 6865TIP3    H120517   0.346  -0.000   0.178  2.3144  0.7598 -0.9183
 6865TIP3    H220518   0.360   0.087   0.055 -1.5414 -0.2321 -2.1090
 6866TIP3   OH220519   3.582   3.511   4.999 -0.0827 -0.6002  0.7146
 6866TIP3    H120520   3.580   3.606   5.013 -0.7056 -0.2129 -1.7458
 6866TIP3    H220521   3.492   3.488   4.978  0.2992 -1.5328  0.0917
 6867TIP3   OH220522   2.952   2.795   5.576 -0.5680 -0.1896  0.1622
 6867TIP3    H120523   2.870   2.784   5.622 -1.2368  0.8154 -0.7691
 6867TIP3    H220524   2.974   2.888   5.586 -1.0669  0.2081 -2.0545
 6868TIP3   OH220525   2.159   3.599   5.699  0.3700 -0.0614 -0.0356
 6868TIP3    H120526   2.230   3.535   5.694  0.6520  0.3108 -1.0799
 6868TIP3    H220527   2.192   3.675   5.651 -0.1677  0.6689  0.7347
 6869TIP3   OH220528   8.744   2.931   4.841  0.2990 -0.3277 -0.1210
 6869TIP3    H120529   8.671   2.869   4.831  1.3829 -1.5413 -0.5817
 6869TIP3    H220530   8.821   2.882   4.813  1.4124  0.6900  1.1218
 6870TIP3   OH220531   2.402   4.497   7.039  0.7687  0.8739  0.4305
 6870TIP3    H120532   2.359   4.544   7.110  0.2080  0.9007  0.0779
 6870TIP3    H220533   2.495   4.500   7.060  0.4368 -1.0395  2.3557
 6871TIP3   OH220534   2.106   3.711   6.566 -0.3770 -0.0119  0.2803
 6871TIP3    H120535   2.116   3.735   6.474  1.3403  1.1696  0.7410
 6871TIP3    H220536   2.156   3.777   6.613 -0.4240 -1.1701  1.9987
 6872TIP3   OH220537   1.800   3.937   4.554  0.4538  0.3719  0.6056
 6872TIP3    H120538   1.892   3.961   4.541  0.0140  0.7751 -1.9700
 6872TIP3    H220539   1.755   4.020   4.569  0.0128  0.4977 -1.3772
 6873TIP3   OH220540   1.109   1.161   0.322 -0.4999  0.0381  0.4059
 6873TIP3    H120541   1.078   1.249   0.343 -0.2615  0.0766  0.5945
 6873TIP3    H220542   1.029   1.111   0.305 -0.6641  0.1473  0.8575
 6874TIP3   OH220543   5.918   2.485   2.769 -0.1279 -0.1648  0.6391
 6874TIP3    H120544   5.874   2.403   2.747  0.6441 -0.7995  1.4308
 6874TIP3    H220545   5.913   2.490   2.864 -0.9266  1.1465  0.5399
 6875TIP3   OH220546   4.432   7.379   0.130  0.2857  0.1196  0.3675
 6875TIP3    H120547   4.508   7.321   0.131  0.0495 -0.1830  1.6288
 6875TIP3    H220548   4.468   7.466   0.148  0.5311  0.2533 -0.6965
 6876TIP3   OH220549   6.527   8.015   0.986  1.2079  0.5902  0.1317
 6876TIP3    H120550   6.571   8.100   0.975  1.5823  0.3639 -0.1205
 6876TIP3    H220551   6.579   7.970   1.053  0.2660  1.0603  1.1822
 6877TIP3   OH220552   4.324   7.742   4.755 -0.1198 -0.4281  0.3599
 6877TIP3    H120553   4.301   7.683   4.683  2.0067 -0.8008 -0.0435
 6877TIP3    H220554   4.389   7.801   4.717 -0.2093  0.4421  1.5405
 6878TIP3   OH220555   2.363   2.708   3.248  0.2550  0.5001  0.1805
 6878TIP3    H120556   2.365   2.695   3.153  0.9818  0.5269  0.1878
 6878TIP3    H220557   2.275   2.681   3.274 -0.7530  2.6892 -0.8040
 6879TIP3   OH220558   2.188   2.249   7.098 -0.7086  0.4175 -0.0099
 6879TIP3    H120559   2.094   2.233   7.103 -0.4942 -0.9168  0.0967
 6879TIP3    H220560   2.220   2.226   7.186 -0.3887  1.6496  0.2073
 6880TIP3   OH220561   1.579   1.712   5.041 -0.5130 -0.1347 -0.5469
 6880TIP3    H120562   1.494   1.735   5.005  0.5305  0.4482 -2.7109
 6880TIP3    H220563   1.615   1.649   4.978  1.3680  0.9478 -0.5834
 6881TIP3   OH220564   3.235   3.793   5.930  0.2460 -0.4207  0.0378
 6881TIP3    H120565   3.176   3.866   5.913 -1.1567 -1.3420  0.7501
 6881TIP3    H220566   3.176   3.721   5.956  1.7849 -0.8613  2.4916
 6882TIP3   OH220567   2.064   2.089   6.734  0.4197  0.5634  0.4463
 6882TIP3    H120568   2.102   2.071   6.648 -1.5339  0.0240 -0.3362
 6882TIP3    H220569   2.115   2.162   6.768  0.5369  1.4962 -1.6329
 6883TIP3   OH220570   1.298   2.539   4.529 -0.1460  0.1049 -0.1025
 6883TIP3    H120571   1.356   2.613   4.548  1.2529 -0.7337 -1.0120
 6883TIP3    H220572   1.210   2.577   4.528  0.4448  1.5251  0.6220
 6884TIP3   OH220573   2.104   1.345   4.953  0.0075  0.4918  0.1778
 6884TIP3    H120574   2.052   1.323   5.030 -0.5094  1.3786  0.0873
 6884TIP3    H220575   2.179   1.285   4.956 -0.0780  0.4404  1.3010
 6885TIP3   OH220576   3.993   2.112   6.087  0.5312 -0.1138 -0.1491
 6885TIP3    H120577   4.015   2.176   6.019 -0.5560  2.3112  1.7108
 6885TIP3    H220578   4.072   2.105   6.140  0.4169  0.2303  0.0657
 6886TIP3   OH220579   3.397   0.135   4.371  0.0242 -0.2528  0.3116
 6886TIP3    H120580   3.385   0.085   4.290  0.1945  0.8824 -0.4162
 6886TIP3    H220581   3.309   0.167   4.393  0.1743  0.4246 -0.0661
 6887TIP3   OH220582   3.827   4.018   6.698  0.2559 -0.6061 -0.1825
 6887TIP3    H120583   3.839   3.923   6.700 -1.8231 -0.8684  0.9264
 6887TIP3    H220584   3.748   4.031   6.647  0.1809  0.5055  0.1979
 6888TIP3   OH220585   3.751   1.125   4.519  0.7800  0.0142  0.0849
 6888TIP3    H120586   3.657   1.106   4.520  0.1910  2.6554 -0.7988
 6888TIP3    H220587   3.791   1.047   4.481 -1.0385 -1.1663  0.5242
 6889TIP3   OH220588   2.087   5.303   6.262  0.0655 -0.0975  0.0769
 6889TIP3    H120589   2.019   5.251   6.305  0.0602  0.9738  1.3910
 6889TIP3    H220590   2.059   5.308   6.171 -0.4032 -1.6227  0.1266
 6890TIP3   OH220591   1.396   1.537   6.804 -0.1075  0.1778 -0.0616
 6890TIP3    H120592   1.449   1.486   6.866 -1.2135 -0.2313  0.5756
 6890TIP3    H220593   1.331   1.474   6.771 -0.8663  0.9188 -0.0081
 6891TIP3   OH220594   1.791   2.025   3.118 -0.4856  0.4727 -0.0125
 6891TIP3    H120595   1.845   1.957   3.077 -0.5746  1.2183 -1.3762
 6891TIP3    H220596   1.786   2.094   3.053 -1.5518  1.2079  0.8420
 6892TIP3   OH220597   1.058   1.438   5.087 -0.6288 -0.2847  0.1998
 6892TIP3    H120598   1.030   1.370   5.149  0.5640  0.4058  1.5222
 6892TIP3    H220599   0.999   1.511   5.103  0.1629  0.1747  1.0821
 6893TIP3   OH220600   5.739   7.686   5.109 -0.1772 -0.1750  0.0184
 6893TIP3    H120601   5.737   7.736   5.191 -0.5542 -1.0692  0.5623
 6893TIP3    H220602   5.800   7.734   5.053 -0.7669  1.0621  0.4183
 6894TIP3   OH220603   1.334   1.445   4.998 -0.1940  0.5599 -0.2603
 6894TIP3    H120604   1.323   1.539   5.005  0.1058  0.6068 -0.4256
 6894TIP3    H220605   1.253   1.408   5.036 -0.4176  0.8833 -0.4265
 6895TIP3   OH220606   2.638   2.215   5.411 -0.3196 -0.1900  0.2810
 6895TIP3    H120607   2.640   2.197   5.317  1.0059  0.1986  0.2197
 6895TIP3    H220608   2.719   2.175   5.445  0.7609  2.2915  0.7527
 6896TIP3   OH220609   1.907   1.194   3.968 -0.0095  0.4971 -0.2223
 6896TIP3    H120610   1.948   1.209   3.883 -0.2729  0.3269 -0.3827
 6896TIP3    H220611   1.854   1.115   3.955  0.0016  0.4324  0.1186
 6897TIP3   OH220612   3.557   4.084   5.937 -0.5192  0.2924  0.3417
 6897TIP3    H120613   3.653   4.091   5.942 -0.5708  0.8721  0.4831
 6897TIP3    H220614   3.530   4.063   6.026 -0.6016  1.0347  0.4934
 6898TIP3   OH220615   4.116   2.342   4.213  0.2049  0.4123  0.2979
 6898TIP3    H120616   4.138   2.369   4.124 -0.5231  0.7021  0.2038
 6898TIP3    H220617   4.130   2.421   4.267  0.8600  0.1758  0.4755
 6899TIP3   OH220618   1.602   4.407   6.012 -0.2150  0.4015  0.3994
 6899TIP3    H120619   1.509   4.426   5.999 -0.9293 -1.1920  2.7178
 6899TIP3    H220620   1.632   4.474   6.073  0.6237  1.9675 -1.7032
 6900TIP3   OH220621   3.897   2.398   6.378 -0.8778  0.7147 -0.1217
 6900TIP3    H120622   3.805   2.379   6.359 -0.8906 -1.3957  1.7727
 6900TIP3    H220623   3.897   2.486   6.415 -1.9754  1.1853 -1.2313
 6901TIP3   OH220624   4.953   7.206   0.874 -0.0438  0.2147  0.3964
 6901TIP3    H120625   4.928   7.138   0.936  1.4424 -1.3930 -0.7111
 6901TIP3    H220626   4.920   7.175   0.790 -1.6245  2.1410  0.2640
 6902TIP3   OH220627   2.795   3.192   4.827 -0.2241  0.1804  0.0801
 6902TIP3    H120628   2.856   3.155   4.764  0.5766  2.8645 -0.8123
 6902TIP3    H220629   2.708   3.166   4.794  0.3249 -1.8330  0.1627
 6903TIP3   OH220630   2.790   3.955   6.227  0.8653  0.5605  0.4379
 6903TIP3    H120631   2.713   3.962   6.284 -0.4051 -1.1744 -1.0018
 6903TIP3    H220632   2.764   3.892   6.159  3.2547  0.6166 -0.5782
 6904TIP3   OH220633   3.424   4.715   3.448  0.7269  0.1785 -0.1357
 6904TIP3    H120634   3.394   4.649   3.386 -1.9273 -0.3426  1.5730
 6904TIP3    H220635   3.388   4.797   3.415  1.1188  0.2323 -0.4272
 6905TIP3   OH220636   2.547   3.900   5.466  0.3595  0.5280 -0.3315
 6905TIP3    H120637   2.602   3.912   5.389  1.3586  0.6378  0.3885
 6905TIP3    H220638   2.582   3.822   5.508 -1.8515 -1.0961 -1.3812
 6906TIP3   OH220639   3.343   3.707   5.390  0.1730  0.8258 -0.2289
 6906TIP3    H120640   3.375   3.620   5.364 -1.6030  0.0874  0.0329
 6906TIP3    H220641   3.302   3.693   5.475 -1.5631  1.5821 -0.9217
 6907TIP3   OH220642   1.448   4.768   5.625 -0.3048 -0.2322 -1.0922
 6907TIP3    H120643   1.467   4.837   5.689  1.0988  0.3658 -2.1203
 6907TIP3    H220644   1.501   4.694   5.654  1.0934  0.3485 -2.0550
 6908TIP3   OH220645   0.861   1.228   3.652 -0.0135  0.2743  0.1730
 6908TIP3    H120646   0.934   1.190   3.603 -1.9255 -2.7797 -0.4463
 6908TIP3    H220647   0.823   1.292   3.591  0.8739  0.4202 -0.2482
 6909TIP3   OH220648   1.705   1.361   6.319  0.5032  0.7255 -0.3746
 6909TIP3    H120649   1.648   1.336   6.247 -1.1358 -1.0143  1.4593
 6909TIP3    H220650   1.791   1.370   6.280 -0.0550 -1.7158 -2.2608
 6910TIP3   OH220651   8.284   2.382   5.541 -0.1802 -0.3024 -0.4638
 6910TIP3    H120652   8.234   2.463   5.549  0.1615 -0.0655 -0.7037
 6910TIP3    H220653   8.217   2.314   5.527 -0.4764 -0.0934 -0.0759
 6911TIP3   OH220654   2.958   1.670   3.845  0.7019 -0.0595 -0.5293
 6911TIP3    H120655   3.028   1.733   3.830  0.7099  0.3201  1.0699
 6911TIP3    H220656   2.879   1.715   3.814  1.0722 -0.2703 -1.8020
 6912TIP3   OH220657   8.360   3.144   4.451  0.0278 -0.2818  0.1810
 6912TIP3    H120658   8.297   3.104   4.391 -2.4947  2.4620  0.9007
 6912TIP3    H220659   8.365   3.084   4.525 -0.7532 -1.1420 -0.4526
 6913TIP3   OH220660   0.585   1.081   5.102 -0.3177 -0.3042 -0.7997
 6913TIP3    H120661   0.526   1.138   5.150 -1.0552 -2.0807  0.4717
 6913TIP3    H220662   0.599   1.125   5.018 -1.9857  1.0111 -0.4026
 6914TIP3   OH220663   2.554   1.892   4.743 -0.2943  0.2887  0.0993
 6914TIP3    H120664   2.557   1.838   4.822 -1.2856  0.1807  0.0690
 6914TIP3    H220665   2.645   1.920   4.729 -0.1118  0.2902  1.2605
 6915TIP3   OH220666   3.294   2.320   4.672 -0.2971 -0.1859 -0.4791
 6915TIP3    H120667   3.385   2.298   4.652  0.3930  1.7827  0.4317
 6915TIP3    H220668   3.256   2.237   4.701  1.3152 -0.9379 -0.4625
 6916TIP3   OH220669   1.451   3.266   5.835 -0.0942 -0.1339 -0.0216
 6916TIP3    H120670   1.519   3.200   5.851 -0.6295  0.0907  3.3778
 6916TIP3    H220671   1.500   3.347   5.818  0.5193 -0.1316  1.6972
 6917TIP3   OH220672   0.904   0.663   5.710 -0.6084  0.2528 -0.0015
 6917TIP3    H120673   0.902   0.741   5.765 -2.0643 -1.2293  2.0910
 6917TIP3    H220674   0.984   0.617   5.737 -0.9710 -0.1384  0.4110
 6918TIP3   OH220675   1.532   1.940   4.838 -0.1523 -0.1113  0.3627
 6918TIP3    H120676   1.571   1.998   4.773 -2.0919  1.2420  0.3693
 6918TIP3    H220677   1.543   1.987   4.921 -0.6445 -0.3019  0.5374
 6919TIP3   OH220678   0.778   3.042   5.994 -0.1462 -0.0957  0.2307
 6919TIP3    H120679   0.719   3.040   6.069  1.2230  0.7587  1.3642
 6919TIP3    H220680   0.833   3.119   6.010  1.2957 -0.9071 -0.7703
 6920TIP3   OH220681   2.102   1.651   6.264 -0.2262 -0.0969 -0.1732
 6920TIP3    H120682   2.181   1.694   6.297 -1.2659  1.1757  0.6890
 6920TIP3    H220683   2.113   1.647   6.169  1.2547 -0.7060  0.0145
 6921TIP3   OH220684   2.964   1.659   5.962  0.3360 -0.1985 -0.1648
 6921TIP3    H120685   2.882   1.657   6.012  0.8433  0.3792  0.6883
 6921TIP3    H220686   2.935   1.658   5.870 -0.5931 -1.2522  0.1157
 6922TIP3   OH220687   3.005   2.692   6.390  0.0002 -0.8842  0.0564
 6922TIP3    H120688   3.092   2.695   6.351 -1.3068  0.2051 -2.9480
 6922TIP3    H220689   2.964   2.615   6.351 -0.5543 -1.1525  1.1391
 6923TIP3   OH220690   4.157   6.229   0.119 -0.0415 -0.7526 -0.4389
 6923TIP3    H120691   4.179   6.280   0.197  1.4039 -1.3556 -0.4205
 6923TIP3    H220692   4.066   6.249   0.101  0.2398  1.0765  0.1380
 6924TIP3   OH220693   5.875   5.977   0.292  0.4478  0.2913 -0.2781
 6924TIP3    H120694   5.954   5.998   0.243  0.1024  1.1624 -0.4622
 6924TIP3    H220695   5.827   5.917   0.235  0.7518  0.1332 -0.3689
 6925TIP3   OH220696   2.970   2.584   4.476  0.0800 -1.0853 -0.1152
 6925TIP3    H120697   2.876   2.591   4.458  0.3497  0.4148 -0.9121
 6925TIP3    H220698   2.991   2.662   4.527  1.0202 -1.1087 -0.4541
 6926TIP3   OH220699   1.668   1.996   4.375 -0.2956  0.3574  0.0075
 6926TIP3    H120700   1.699   2.028   4.460 -0.7625  2.2193 -0.5093
 6926TIP3    H220701   1.576   1.974   4.389 -0.1584 -0.1043  0.1876
 6927TIP3   OH220702   2.007   4.597   5.437  0.1496 -0.5953 -0.6344
 6927TIP3    H120703   1.944   4.586   5.509  0.2057 -1.2514 -0.6848
 6927TIP3    H220704   2.092   4.579   5.477  0.3153  0.3156 -0.5625
 6928TIP3   OH220705   4.893   6.694   0.373 -0.2113 -0.2333  0.0102
 6928TIP3    H120706   4.955   6.727   0.439 -0.1115  0.4858 -0.4347
 6928TIP3    H220707   4.846   6.772   0.344  1.5985 -0.0958 -2.7396
 6929TIP3   OH220708   4.392   2.850   4.422  0.3362 -0.0790  0.5393
 6929TIP3    H120709   4.441   2.903   4.360  0.7612 -0.7934  0.2595
 6929TIP3    H220710   4.449   2.776   4.441 -0.1148 -0.2687  1.1810
 6930TIP3   OH220711   3.257   1.604   4.000  0.1192 -0.1905  0.5395
 6930TIP3    H120712   3.197   1.578   3.930 -0.3254  0.6948  0.5848
 6930TIP3    H220713   3.337   1.629   3.955  0.4005 -1.1946  0.4646
 6931TIP3   OH220714   2.313   2.224   4.869  0.0363 -0.3365  0.0294
 6931TIP3    H120715   2.367   2.229   4.790  0.5312  0.3438  0.4051
 6931TIP3    H220716   2.363   2.169   4.929  1.3049  1.9678  1.1378
 6932TIP3   OH220717   1.809   1.791   3.751 -0.1870  0.3069  0.4886
 6932TIP3    H120718   1.757   1.861   3.711  3.2927  1.3140 -2.6298
 6932TIP3    H220719   1.871   1.837   3.808 -0.0448 -0.4976  0.9792
 6933TIP3   OH220720   0.156   0.991   4.800 -0.0783 -0.0729 -0.4061
 6933TIP3    H120721   0.110   1.037   4.729  2.2290 -0.8071 -2.4227
 6933TIP3    H220722   0.148   0.898   4.778  0.6291 -0.3077  0.3048
 6934TIP3   OH220723   3.760   3.918   5.457  0.4759  0.2420 -0.3480
 6934TIP3    H120724   3.846   3.885   5.433 -0.3536 -1.7300 -0.7574
 6934TIP3    H220725   3.763   4.012   5.439  1.9702 -0.1007 -1.9870
 6935TIP3   OH220726   4.354   0.550   4.435  0.0634 -0.1337  0.0839
 6935TIP3    H120727   4.353   0.541   4.340  0.6004  1.0017 -0.0320
 6935TIP3    H220728   4.266   0.580   4.458  0.6388  1.8607 -0.2841
 6936TIP3   OH220729   3.152   1.752   4.276  0.4098 -0.0512  0.5320
 6936TIP3    H120730   3.114   1.732   4.362  0.4219  0.4232  0.6511
 6936TIP3    H220731   3.171   1.667   4.238  0.9314 -0.2543  1.2350
 6937TIP3   OH220732   3.579   1.107   4.246 -0.1146  0.1256 -0.6444
 6937TIP3    H120733   3.593   1.159   4.325  1.2548  2.0958 -2.1516
 6937TIP3    H220734   3.503   1.148   4.204  1.4018  1.4332 -2.1984
 6938TIP3   OH220735   2.148   0.869   4.738  0.2878 -0.1759 -0.1846
 6938TIP3    H120736   2.110   0.957   4.741 -1.7520 -1.0474  0.0325
 6938TIP3    H220737   2.238   0.883   4.707  0.2978  2.0780  0.7623
 6939TIP3   OH220738   2.506   4.034   6.577  0.1158  0.1894  0.2160
 6939TIP3    H120739   2.553   4.057   6.657  1.7353  0.1172 -0.6911
 6939TIP3    H220740   2.418   4.011   6.607  0.5082  0.7889  1.8980
 6940TIP3   OH220741   4.453   1.258   4.239 -0.4620  0.1315  0.1275
 6940TIP3    H120742   4.490   1.175   4.211 -0.3864  0.7810 -1.8080
 6940TIP3    H220743   4.526   1.305   4.280 -0.1883 -0.2390  0.0597
 6941TIP3   OH220744   2.543   4.689   6.225  0.3219 -0.3675 -0.6222
 6941TIP3    H120745   2.559   4.696   6.131  1.8054  0.7080 -0.3008
 6941TIP3    H220746   2.576   4.602   6.248 -1.0222 -1.0628 -1.2761
 6942TIP3   OH220747   2.000   0.680   4.895  0.4349 -0.0407  0.0987
 6942TIP3    H120748   2.057   0.753   4.874 -1.3774  0.4843 -3.3153
 6942TIP3    H220749   2.046   0.603   4.862  1.3432 -0.2312  1.7424
 6943TIP3   OH220750   4.203   2.522   5.612 -0.8943 -0.1651  0.4774
 6943TIP3    H120751   4.167   2.592   5.666  0.4494 -0.0620  1.2526
 6943TIP3    H220752   4.200   2.557   5.523  0.6446  1.2715  0.9674
 6944TIP3   OH220753   1.842   4.218   6.210 -0.1598  0.3944 -0.0811
 6944TIP3    H120754   1.851   4.180   6.123  0.2790 -1.6749  0.8291
 6944TIP3    H220755   1.761   4.181   6.244  0.7690 -0.5314  1.1943
 6945TIP3   OH220756   2.816   1.238   6.972  0.2853 -0.5019  0.4352
 6945TIP3    H120757   2.724   1.236   6.998  0.2476  1.6393  0.5649
 6945TIP3    H220758   2.828   1.324   6.932  2.3595 -0.5373  0.9077
 6946TIP3   OH220759   3.197   6.479   0.181  0.8948  0.3061  0.3920
 6946TIP3    H120760   3.187   6.575   0.180  1.0086  0.3183  0.3509
 6946TIP3    H220761   3.292   6.465   0.186  1.0356  0.2097 -1.9503
 6947TIP3   OH220762   2.465   2.801   6.537 -0.1094 -0.5992 -0.2766
 6947TIP3    H120763   2.471   2.880   6.484 -2.4054 -0.5549 -0.5201
 6947TIP3    H220764   2.495   2.827   6.624  0.1258  0.2717 -0.6209
 6948TIP3   OH220765   0.628   1.273   5.824  0.0607 -0.0372 -0.0474
 6948TIP3    H120766   0.581   1.336   5.770 -0.9772 -2.4080 -2.0350
 6948TIP3    H220767   0.574   1.265   5.903  0.5492  2.0206  0.5055
 6949TIP3   OH220768   6.474   8.243   4.875  0.1864 -0.1344  0.4305
 6949TIP3    H120769   6.531   8.189   4.819 -2.1991 -0.3493 -1.9087
 6949TIP3    H220770   6.410   8.181   4.910  0.1266  0.4450  1.3480
 6950TIP3   OH220771   2.334   2.795   5.510  0.0845  0.4902 -0.1353
 6950TIP3    H120772   2.341   2.865   5.446 -0.3475 -0.1491 -0.8912
 6950TIP3    H220773   2.240   2.784   5.524  0.0312 -1.4702 -1.7480
 6951TIP3   OH220774   2.670   2.708   6.845  0.3713 -0.2680  0.4814
 6951TIP3    H120775   2.723   2.684   6.769 -0.0440  0.4102 -0.0337
 6951TIP3    H220776   2.620   2.784   6.815 -3.3378 -2.8310 -0.1656
 6952TIP3   OH220777   2.329   0.121   3.597 -0.6771 -0.3958 -0.3910
 6952TIP3    H120778   2.327   0.049   3.660 -0.7113 -0.3302 -0.3168
 6952TIP3    H220779   2.264   0.183   3.630 -0.1954 -0.0388 -0.1089
 6953TIP3   OH220780   8.205   2.802   5.258 -0.8558 -0.0526  0.2390
 6953TIP3    H120781   8.208   2.711   5.287 -0.3049 -0.4208 -0.9064
 6953TIP3    H220782   8.137   2.843   5.311 -0.1081 -0.7706  1.7736
 6954TIP3   OH220783   2.520   3.243   4.033 -0.3938  0.6399 -0.2487
 6954TIP3    H120784   2.495   3.329   4.067 -1.9517 -0.2519  0.9539
 6954TIP3    H220785   2.489   3.181   4.100  1.2979 -0.8236 -0.7583
 6955TIP3   OH220786   1.634   0.971   6.817 -0.4986  0.2866  0.1352
 6955TIP3    H120787   1.624   0.895   6.874  1.9433 -0.0204  0.2216
 6955TIP3    H220788   1.612   1.046   6.873 -0.6349 -0.2070  0.7398
 6956TIP3   OH220789   0.641   2.188   5.140 -0.1688  0.0452  0.5246
 6956TIP3    H120790   0.645   2.108   5.087 -2.4732 -0.9491  1.8044
 6956TIP3    H220791   0.690   2.167   5.219  1.1674  0.6925 -0.1195
 6957TIP3   OH220792   1.298   1.515   6.506  0.1456  0.1510 -0.0202
 6957TIP3    H120793   1.371   1.501   6.567  0.4467 -0.6089 -0.5484
 6957TIP3    H220794   1.339   1.531   6.422 -0.2751  1.1841 -0.0365
 6958TIP3   OH220795   3.345   3.916   5.197  0.5496 -0.2192 -0.2104
 6958TIP3    H120796   3.430   3.956   5.181  0.4043  1.3513  2.5119
 6958TIP3    H220797   3.364   3.834   5.242  0.6636  0.0213  0.1864
 6959TIP3   OH220798   3.083   4.497   7.052 -0.0708  0.6008 -0.2326
 6959TIP3    H120799   3.013   4.433   7.047  0.1002  0.2836  1.3731
 6959TIP3    H220800   3.046   4.576   7.011 -1.3869  0.4609  0.6756
 6960TIP3   OH220801   3.983   3.210   7.099 -0.5435  0.1214 -0.0537
 6960TIP3    H120802   3.913   3.183   7.158 -1.7639  1.3850 -0.8875
 6960TIP3    H220803   4.062   3.209   7.153 -1.5273  0.6270  1.4356
 6961TIP3   OH220804   2.788   5.034   6.012 -0.3144  0.1316  0.4577
 6961TIP3    H120805   2.839   5.114   6.008 -1.1211  0.6569  0.6246
 6961TIP3    H220806   2.800   4.994   5.926  0.3140  0.2870  0.4716
 6962TIP3   OH220807   1.276   1.889   4.106 -0.2235 -0.0817  0.2750
 6962TIP3    H120808   1.228   1.833   4.046 -0.2167  1.6054 -1.3572
 6962TIP3    H220809   1.367   1.884   4.077 -0.4307  1.8429 -0.7801
 6963TIP3   OH220810   1.613   4.863   6.210  0.2510  0.1916  0.7647
 6963TIP3    H120811   1.658   4.908   6.282  2.2621  1.3906 -1.1758
 6963TIP3    H220812   1.520   4.875   6.228  0.7251  0.4240  3.1819
 6964TIP3   OH220813   1.807   2.295   4.365 -0.3088 -0.6298 -0.6762
 6964TIP3    H120814   1.847   2.280   4.279  0.6571 -0.1943 -0.3125
 6964TIP3    H220815   1.772   2.384   4.360  0.1456 -0.4381 -0.4691
 6965TIP3   OH220816   3.453   5.177   4.127  0.2766 -0.0051 -0.2701
 6965TIP3    H120817   3.473   5.123   4.203  1.3931  1.0683  0.2096
 6965TIP3    H220818   3.390   5.125   4.077  0.5298 -1.2853  0.7134
 6966TIP3   OH220819   0.535   4.629   4.157 -0.1651 -0.3717  0.4281
 6966TIP3    H120820   0.600   4.591   4.216 -0.9599 -0.8778  0.9784
 6966TIP3    H220821   0.549   4.723   4.164  0.7757 -0.4931  0.2438
 6967TIP3   OH220822   2.024   1.444   4.224  0.5241  0.6021  0.2171
 6967TIP3    H120823   2.082   1.424   4.297  0.6690 -2.3118 -0.6330
 6967TIP3    H220824   2.076   1.424   4.146 -1.0223 -0.3185 -0.5949
 6968TIP3   OH220825   1.975   3.711   4.945  0.1410 -0.8375  0.1490
 6968TIP3    H120826   1.902   3.770   4.959  0.9839  0.1468  0.4636
 6968TIP3    H220827   2.016   3.742   4.864 -0.9862 -2.6359 -1.1540
 6969TIP3   OH220828   3.138   2.913   5.284 -0.1362  0.1324 -0.0819
 6969TIP3    H120829   3.048   2.898   5.256  0.4378 -1.0689 -1.3484
 6969TIP3    H220830   3.176   2.965   5.213  0.8304 -1.4052 -0.7046
 6970TIP3   OH220831   2.910   2.428   6.688  0.1413 -0.0867  0.0042
 6970TIP3    H120832   2.853   2.445   6.763  1.0374 -1.6422  1.0877
 6970TIP3    H220833   2.994   2.466   6.713  0.8112 -1.7430  0.4040
 6971TIP3   OH220834   3.085   2.438   4.799 -0.1417  0.5524  0.4730
 6971TIP3    H120835   3.161   2.397   4.758 -0.7917 -0.6699  0.4787
 6971TIP3    H220836   3.120   2.517   4.841  1.0798  0.1197  0.2773
 6972TIP3   OH220837   0.602   2.870   4.720  0.2965  0.4527 -0.4065
 6972TIP3    H120838   0.620   2.779   4.744  1.8988  1.1327  1.0624
 6972TIP3    H220839   0.617   2.920   4.800 -4.7875  1.5759 -0.0008
 6973TIP3   OH220840   2.108   0.445   4.787  0.5210  0.0538  0.4708
 6973TIP3    H120841   2.136   0.359   4.818  1.7643 -0.0449 -0.8968
 6973TIP3    H220842   2.026   0.428   4.740 -0.4411 -0.0391  2.1253
 6974TIP3   OH220843   3.169   2.267   6.823 -0.1087 -0.4533 -0.0312
 6974TIP3    H120844   3.236   2.275   6.755 -0.8832  1.6754 -0.5975
 6974TIP3    H220845   3.189   2.337   6.885 -2.5673  1.1769 -0.9614
 6975TIP3   OH220846   0.723   2.286   4.327 -0.4048 -0.0149 -0.0912
 6975TIP3    H120847   0.815   2.309   4.314 -0.7673  2.0004  0.6982
 6975TIP3    H220848   0.725   2.209   4.383  0.8287 -0.5979 -0.9299
 6976TIP3   OH220849   2.499   0.913   3.030  0.1441  0.2806 -0.3623
 6976TIP3    H120850   2.517   0.840   3.089  0.0799  1.3261  0.9718
 6976TIP3    H220851   2.427   0.960   3.072 -0.5930  0.4632 -1.7981
 6977TIP3   OH220852   0.518   4.358   3.575  0.1168  0.0425 -0.3018
 6977TIP3    H120853   0.548   4.445   3.549 -1.5697  0.4227 -1.0337
 6977TIP3    H220854   0.525   4.304   3.496 -0.4098 -0.0451 -0.2966
 6978TIP3   OH220855   8.591   1.568   5.091  0.2847 -0.0114  0.2105
 6978TIP3    H120856   8.568   1.514   5.167 -0.1805 -0.0431  0.0498
 6978TIP3    H220857   8.685   1.554   5.079  0.4712  0.4187  1.1170
 6979TIP3   OH220858   4.068   1.807   4.738  0.0685  0.4186  0.0099
 6979TIP3    H120859   4.031   1.735   4.789 -0.1511  0.1563 -0.5194
 6979TIP3    H220860   4.025   1.885   4.772  2.4747  0.6608  2.6653
 6980TIP3   OH220861   3.302   3.645   6.413 -0.4415 -0.1693 -0.2680
 6980TIP3    H120862   3.297   3.685   6.326 -0.8002  1.1730  0.3686
 6980TIP3    H220863   3.280   3.553   6.397  0.5728 -0.1645 -1.7558
 6981TIP3   OH220864   2.936   3.515   5.641  0.4205  0.1127  0.5307
 6981TIP3    H120865   2.884   3.436   5.654  0.4435  0.0676  0.3456
 6981TIP3    H220866   2.893   3.560   5.568 -0.2889  0.8513  1.3906
 6982TIP3   OH220867   0.786   2.387   5.721  0.0502  0.3230  0.4398
 6982TIP3    H120868   0.853   2.321   5.737  1.5288  1.5279 -0.6460
 6982TIP3    H220869   0.835   2.464   5.692 -1.8290  1.1521 -0.6051
 6983TIP3   OH220870   5.448   6.451   0.579  0.1042  0.0880  0.3082
 6983TIP3    H120871   5.415   6.383   0.637 -1.8449  0.1058 -0.7451
 6983TIP3    H220872   5.520   6.409   0.532 -0.6956 -1.0757  0.0925
 6984TIP3   OH220873   2.415   2.599   5.729 -0.3768 -0.2860  0.0326
 6984TIP3    H120874   2.387   2.650   5.805  0.5905 -0.0323  0.2221
 6984TIP3    H220875   2.408   2.660   5.656 -0.4697 -0.2632  0.0606
 6985TIP3   OH220876   3.598   1.359   3.984 -0.0361 -0.0214 -0.0406
 6985TIP3    H120877   3.529   1.378   4.048  0.8045  1.2517  0.5086
 6985TIP3    H220878   3.551   1.326   3.907 -1.2701  1.0619  0.2387
 6986TIP3   OH220879   4.690   3.643   3.333 -0.2800 -0.1333  0.0677
 6986TIP3    H120880   4.761   3.622   3.394 -0.3120 -1.1379 -0.2182
 6986TIP3    H220881   4.673   3.560   3.288 -0.4382  0.5381 -1.1164
 6987TIP3   OH220882   7.479   1.233   5.096  0.1916  0.0189 -0.3399
 6987TIP3    H120883   7.496   1.307   5.037  2.5330 -0.2176 -0.0236
 6987TIP3    H220884   7.473   1.157   5.037  3.3130 -0.3377 -0.2895
 6988TIP3   OH220885   3.107   2.354   4.388  0.0828 -0.1701 -0.5353
 6988TIP3    H120886   3.120   2.333   4.480  1.4112  1.8950 -0.2068
 6988TIP3    H220887   3.044   2.426   4.389 -0.0702 -0.2954 -1.2370
 6989TIP3   OH220888   6.055   0.327   5.382  0.2453 -0.3308 -0.1277
 6989TIP3    H120889   6.041   0.369   5.467 -0.4571  2.3262 -1.4957
 6989TIP3    H220890   6.150   0.317   5.375  0.4211  0.9053  0.3124
 6990TIP3   OH220891   6.747   3.413   4.002  0.1452  0.0863  0.2979
 6990TIP3    H120892   6.679   3.467   4.042 -0.0001  0.6322 -0.6754
 6990TIP3    H220893   6.829   3.457   4.022  0.1032  0.1515  0.3262
 6991TIP3   OH220894   4.253   3.256   3.584 -0.4158  0.4314  0.6506
 6991TIP3    H120895   4.202   3.285   3.509 -2.3181  0.1514  1.8065
 6991TIP3    H220896   4.325   3.205   3.546 -1.8975 -0.5327 -0.9520
 6992TIP3   OH220897   1.581   3.570   3.806 -0.4108  0.3067  0.3267
 6992TIP3    H120898   1.621   3.522   3.879 -1.7729 -0.2835  0.7023
 6992TIP3    H220899   1.570   3.504   3.738 -1.5982  0.2398  0.5718
 6993TIP3   OH220900   2.406   2.882   4.267 -0.6041  0.3824 -0.7292
 6993TIP3    H120901   2.336   2.845   4.214  0.4893 -3.8574  0.6142
 6993TIP3    H220902   2.486   2.867   4.216 -0.0718  0.4593  0.0655
 6994TIP3   OH220903   5.497   1.392   4.493 -0.9231  0.0737 -0.4575
 6994TIP3    H120904   5.464   1.471   4.537 -0.3219 -0.2782  0.6613
 6994TIP3    H220905   5.512   1.419   4.403 -0.4158  1.3408 -0.0097
 6995TIP3   OH220906   3.523   3.468   4.715  0.0394  0.2828 -0.2934
 6995TIP3    H120907   3.520   3.461   4.620  3.6748 -1.8968 -0.3538
 6995TIP3    H220908   3.479   3.388   4.746 -0.1254  0.4210 -0.1710
 6996TIP3   OH220909   6.394   1.150   5.365  0.3479  0.3303 -0.5671
 6996TIP3    H120910   6.344   1.132   5.286  0.1125  0.0550 -0.3598
 6996TIP3    H220911   6.446   1.071   5.380 -1.0282 -0.4039  0.5940
 6997TIP3   OH220912   3.453   2.805   3.615  0.0910 -0.7121  0.0943
 6997TIP3    H120913   3.528   2.832   3.562 -1.0546  0.4819 -0.9655
 6997TIP3    H220914   3.442   2.875   3.679 -0.4246 -0.6180 -0.0909
 6998TIP3   OH220915   3.993   0.924   5.363 -0.1408  0.4836 -0.0981
 6998TIP3    H120916   3.989   0.892   5.453 -1.3703  1.5178  0.2291
 6998TIP3    H220917   4.061   0.990   5.364 -0.0408  0.3787  0.0339
 6999TIP3   OH220918   6.502   0.932   5.757 -0.2291  0.7811  0.0447
 6999TIP3    H120919   6.574   0.992   5.775 -0.6901  1.1349  0.7152
 6999TIP3    H220920   6.541   0.863   5.705  0.7374  0.6341  0.9571
 7000TIP3   OH220921   4.025   2.272   5.841  0.1626  0.7586 -0.0208
 7000TIP3    H120922   4.009   2.308   5.754  1.8085  0.5785 -0.4127
 7000TIP3    H220923   3.976   2.330   5.900  0.5947  2.0261 -0.8861
 7001TIP3   OH220924   4.164   3.175   5.698 -0.3181  0.3564  0.3463
 7001TIP3    H120925   4.199   3.244   5.642  0.0654  0.3957  0.6334
 7001TIP3    H220926   4.076   3.158   5.663  0.6514 -1.0109 -1.5372
 7002TIP3   OH220927   5.594   2.087   6.638  0.2043 -0.1791  0.1277
 7002TIP3    H120928   5.545   2.157   6.682  1.4385  0.4342  0.5349
 7002TIP3    H220929   5.545   2.071   6.557 -0.0407  1.2048 -0.0078
 7003TIP3   OH220930   5.815   0.833   4.514 -0.5858  0.0479  0.2753
 7003TIP3    H120931   5.854   0.917   4.538  1.4490 -1.1990  1.4582
 7003TIP3    H220932   5.778   0.849   4.427  2.6497  1.3033 -0.9529
 7004TIP3   OH220933   4.663   1.778   4.859 -0.3076  0.5749  0.2610
 7004TIP3    H120934   4.703   1.865   4.863 -0.0787  0.3973  2.8343
 7004TIP3    H220935   4.698   1.732   4.935 -1.7495 -1.2020 -0.1124
 7005TIP3   OH220936   3.509   0.559   3.667 -0.2443 -0.0601  0.3373
 7005TIP3    H120937   3.561   0.637   3.687 -1.1066  0.7885 -0.6558
 7005TIP3    H220938   3.540   0.531   3.581 -1.7848  0.7531 -0.4879
 7006TIP3   OH220939   6.112   3.450   5.075 -0.0587  0.5137  0.1081
 7006TIP3    H120940   6.153   3.385   5.018 -0.2335 -0.5132  1.1396
 7006TIP3    H220941   6.092   3.402   5.156 -0.8671  1.6608  0.6030
 7007TIP3   OH220942   4.437   1.656   3.951 -0.1001  0.3757  0.0735
 7007TIP3    H120943   4.352   1.630   3.916  1.3029 -2.2002 -1.5215
 7007TIP3    H220944   4.481   1.698   3.878 -0.5499  3.1665  1.3404
 7008TIP3   OH220945   3.153   4.412   6.160 -0.4233 -0.5449 -0.4396
 7008TIP3    H120946   3.085   4.391   6.096  0.6386  2.2627 -2.5349
 7008TIP3    H220947   3.227   4.357   6.135 -0.3664 -0.2330 -0.9460
 7009TIP3   OH220948   2.788   2.018   3.964 -0.3591 -0.3094  0.2675
 7009TIP3    H120949   2.747   1.931   3.969 -0.6293 -0.1360  1.2074
 7009TIP3    H220950   2.867   2.009   4.017  0.0856 -0.2377 -0.3834
 7010TIP3   OH220951   5.052   2.278   2.657  0.2926 -0.1100  0.3733
 7010TIP3    H120952   5.095   2.326   2.728 -0.5862 -0.1358  0.9234
 7010TIP3    H220953   5.085   2.320   2.577  0.6627  0.4459  0.8109
 7011TIP3   OH220954   6.653   1.093   4.568 -0.1242  0.1713 -0.6568
 7011TIP3    H120955   6.601   1.172   4.551 -1.8809 -0.4579  1.5021
 7011TIP3    H220956   6.663   1.052   4.482 -1.1606  1.5733 -1.4611
 7012TIP3   OH220957   4.183   0.657   4.170  0.0106  0.4717 -0.0762
 7012TIP3    H120958   4.098   0.701   4.181 -0.1245 -0.2698  2.2092
 7012TIP3    H220959   4.160   0.570   4.136 -0.1284  0.4164  0.1527
 7013TIP3   OH220960   4.786   0.109   4.408 -0.7003  0.1106  0.1149
 7013TIP3    H120961   4.700   0.074   4.435 -0.3771  0.0797  1.1237
 7013TIP3    H220962   4.838   0.031   4.387 -0.4071  0.0417  1.0704
 7014TIP3   OH220963   5.841   2.781   4.178 -0.8590  0.5638  0.1564
 7014TIP3    H120964   5.753   2.742   4.185 -1.2853  0.9167 -2.5508
 7014TIP3    H220965   5.825   2.869   4.144  0.4695  1.0625  0.8271
 7015TIP3   OH220966   3.600   2.413   5.962  0.4476 -0.1083 -0.4597
 7015TIP3    H120967   3.547   2.436   5.885 -0.3412  0.0612  0.1312
 7015TIP3    H220968   3.537   2.378   6.025  1.1644 -0.6947 -0.0694
 7016TIP3   OH220969   3.793   2.046   5.335  0.5649 -0.9975  0.7183
 7016TIP3    H120970   3.817   2.047   5.427 -0.4162 -1.2163  0.9811
 7016TIP3    H220971   3.702   2.016   5.334  0.8611 -1.8868 -0.3883
 7017TIP3   OH220972   6.237   3.240   3.688 -0.7527  0.0115 -0.0598
 7017TIP3    H120973   6.288   3.229   3.768 -0.4730 -0.6909 -0.3292
 7017TIP3    H220974   6.169   3.303   3.711 -1.1152 -0.7283  0.9421
 7018TIP3   OH220975   5.894   0.074   3.450 -0.6389  0.1071  0.0594
 7018TIP3    H120976   5.853   0.158   3.467 -0.9526  0.1061 -0.6852
 7018TIP3    H220977   5.830   0.026   3.397 -0.6554 -0.7671  0.8491
 7019TIP3   OH220978   2.561   4.756   1.980  0.6386 -0.1765 -0.0583
 7019TIP3    H120979   2.608   4.773   1.899 -1.7431  1.1173 -1.2170
 7019TIP3    H220980   2.576   4.833   2.034 -1.0867  0.7563 -0.8947
 7020TIP3   OH220981   4.261   2.949   5.394  0.6503 -0.4474 -0.1383
 7020TIP3    H120982   4.247   2.998   5.474  2.3701 -0.4382  0.1819
 7020TIP3    H220983   4.356   2.946   5.384  0.4302  1.6107 -3.4500
 7021TIP3   OH220984   4.361   2.439   6.426 -0.4587 -0.2056  0.1199
 7021TIP3    H120985   4.355   2.442   6.331  0.1396 -0.1109  0.0893
 7021TIP3    H220986   4.315   2.518   6.455  2.6745  1.7997 -0.2145
 7022TIP3   OH220987   4.617   2.594   5.400  0.4856  0.4498 -0.1367
 7022TIP3    H120988   4.693   2.549   5.363  0.7105  0.4028  0.3660
 7022TIP3    H220989   4.652   2.677   5.432  0.2076  0.6811 -0.4370
 7023TIP3   OH220990   2.607   2.965   6.172 -0.0414 -0.1783 -0.0014
 7023TIP3    H120991   2.633   2.881   6.208  1.7126 -0.1289 -1.0633
 7023TIP3    H220992   2.579   3.017   6.247 -0.8977 -1.6112  0.6846
 7024TIP3   OH220993   4.573   2.101   4.736  0.5715  0.1382  0.1360
 7024TIP3    H120994   4.590   2.195   4.745  2.4019 -0.1076 -0.4427
 7024TIP3    H220995   4.605   2.063   4.818  2.1397 -0.2494 -0.6414
 7025TIP3   OH220996   3.453   2.016   4.780 -0.4772  0.0595 -0.1109
 7025TIP3    H120997   3.414   1.965   4.710 -1.0085  0.2515  0.0452
 7025TIP3    H220998   3.428   1.969   4.860  1.0849 -0.8097 -0.1059
 7026TIP3   OH220999   3.318   2.693   5.377 -0.0922 -0.1402 -0.4502
 7026TIP3    H121000   3.262   2.771   5.384  0.8242  0.6338 -1.5031
 7026TIP3    H221001   3.262   2.626   5.339  0.2274  1.2634 -3.5965
 7027TIP3   OH221002   4.364   4.118   4.114 -0.1434  0.3134  0.5723
 7027TIP3    H121003   4.318   4.055   4.169  0.3211  0.8707  1.6052
 7027TIP3    H221004   4.434   4.152   4.170  1.3383 -0.3039 -0.8758
 7028TIP3   OH221005   4.309   4.749   5.251 -0.1248  0.5201 -0.2153
 7028TIP3    H121006   4.390   4.699   5.243 -0.8697 -0.4347 -2.3229
 7028TIP3    H221007   4.282   4.738   5.342  2.0589  0.7934  0.4938
 7029TIP3   OH221008   4.596   3.173   2.000  0.2504  0.3734 -0.2452
 7029TIP3    H121009   4.591   3.089   2.046 -0.5131  0.5173 -0.0574
 7029TIP3    H221010   4.644   3.230   2.060  2.7765 -0.5377 -1.3244
 7030TIP3   OH221011   4.491   3.059   4.283  0.1798 -0.3758  0.0083
 7030TIP3    H121012   4.453   3.092   4.365  0.4146  0.7240 -0.3226
 7030TIP3    H221013   4.498   3.136   4.227 -0.2500 -1.1832 -1.1582
 7031TIP3   OH221014   4.150   2.000   3.055 -0.1163 -0.3234 -0.0788
 7031TIP3    H121015   4.153   2.091   3.084 -0.9266 -0.5169  0.6262
 7031TIP3    H221016   4.180   1.950   3.131 -0.4693 -0.7022 -0.1840
 7032TIP3   OH221017   5.950   1.354   2.513 -0.6843 -1.0817  0.2387
 7032TIP3    H121018   6.034   1.313   2.536 -1.1474 -1.2774  1.6493
 7032TIP3    H221019   5.915   1.385   2.597 -0.6833  1.5929 -0.7026
 7033TIP3   OH221020   2.521   1.322   4.585  0.1849 -0.3130 -0.3518
 7033TIP3    H121021   2.429   1.298   4.585 -0.3989  1.8066  0.4002
 7033TIP3    H221022   2.567   1.241   4.606 -1.6435 -0.9101  1.4662
 7034TIP3   OH221023   2.853   2.091   5.497  0.0203  0.0641 -0.0846
 7034TIP3    H121024   2.877   2.126   5.583  2.1502 -0.1870 -0.5557
 7034TIP3    H221025   2.856   1.996   5.509 -0.7037  0.0320 -0.1659
 7035TIP3   OH221026   7.962   1.727   4.289 -0.1818  0.3992 -0.1694
 7035TIP3    H121027   7.903   1.798   4.263  1.7152  1.8518 -0.6582
 7035TIP3    H221028   8.009   1.704   4.208 -0.4622 -1.1208  0.0798
 7036TIP3   OH221029   6.629   7.041   0.267  0.0308  0.3192  0.0283
 7036TIP3    H121030   6.644   7.015   0.176  0.0645  0.1649  0.0774
 7036TIP3    H221031   6.717   7.052   0.303  0.0322 -0.3342  0.2448
 7037TIP3   OH221032   3.382   4.388   4.222  0.1986  0.2392  0.0669
 7037TIP3    H121033   3.325   4.314   4.202 -1.2910  0.8786  1.9273
 7037TIP3    H221034   3.430   4.362   4.300 -0.7441  1.4514  1.0670
 7038TIP3   OH221035   4.511   2.869   6.513 -0.5254 -0.1990 -0.1972
 7038TIP3    H121036   4.458   2.936   6.469  0.1903  0.6146  0.1594
 7038TIP3    H221037   4.560   2.827   6.442 -0.2284  0.3395 -0.3165
 7039TIP3   OH221038   3.954   3.875   4.207 -0.2280 -0.5753 -0.4214
 7039TIP3    H121039   3.891   3.810   4.175 -1.2182  0.5110 -0.6930
 7039TIP3    H221040   3.958   3.860   4.301  0.3426 -1.7215 -0.6144
 7040TIP3   OH221041   2.483   3.003   2.294  0.2251  0.1263  0.6033
 7040TIP3    H121042   2.401   3.008   2.245  0.9495  0.3655 -0.6231
 7040TIP3    H221043   2.512   3.094   2.301 -0.1691  0.1516  2.0091
 7041TIP3   OH221044   4.034   1.811   6.558  0.3415 -0.5379 -0.2259
 7041TIP3    H121045   4.053   1.854   6.475  0.9601 -1.5038 -0.5968
 7041TIP3    H221046   4.093   1.736   6.560  0.5646 -0.3371  1.2414
 7042TIP3   OH221047   5.615   7.270   0.774 -0.1795 -0.0939  0.0318
 7042TIP3    H121048   5.604   7.360   0.805  1.5600  0.5682 -1.2079
 7042TIP3    H221049   5.547   7.259   0.708  0.3237  0.7168 -0.6388
 7043TIP3   OH221050   2.579   3.523   4.605  0.1542  0.3447  0.1799
 7043TIP3    H121051   2.540   3.453   4.554  0.3650  0.9021 -0.7548
 7043TIP3    H221052   2.506   3.560   4.655 -0.4026  0.9519 -1.0618
 7044TIP3   OH221053   3.783   2.072   4.513  0.2536  0.1197  0.3479
 7044TIP3    H121054   3.827   2.149   4.549 -1.4278  1.0534  0.4542
 7044TIP3    H221055   3.731   2.105   4.440  0.8351 -1.1946 -0.6844
 7045TIP3   OH221056   4.034   1.388   2.145 -0.0034  0.0800  0.0300
 7045TIP3    H121057   4.102   1.440   2.187 -0.2346  0.4833 -0.0957
 7045TIP3    H221058   4.077   1.351   2.068 -0.2173  1.2051 -0.6460
 7046TIP3   OH221059   4.881   1.439   2.543  0.1696  0.3765 -0.0803
 7046TIP3    H121060   4.908   1.389   2.620  0.3473 -1.8401 -1.5186
 7046TIP3    H221061   4.789   1.460   2.558  0.6484  1.4538  1.4782
 7047TIP3   OH221062   2.976   0.181   3.524 -0.0283  0.4522  0.1365
 7047TIP3    H121063   3.054   0.153   3.476  0.3122  0.8409  0.4630
 7047TIP3    H221064   2.921   0.224   3.458  0.8490  1.8153  0.2683
 7048TIP3   OH221065   5.802   2.278   3.481  0.1240  0.2322  0.2040
 7048TIP3    H121066   5.840   2.366   3.485 -1.6284  1.0121  0.3140
 7048TIP3    H221067   5.745   2.280   3.404  0.3151 -0.9294  0.0182
 7049TIP3   OH221068   3.397   2.563   3.847 -0.2752  0.1937  0.4830
 7049TIP3    H121069   3.406   2.502   3.921  2.5785  1.1783  1.0015
 7049TIP3    H221070   3.428   2.647   3.880  0.6417  0.7553 -1.7090
 7050TIP3   OH221071   5.284   0.987   3.790 -0.1996  0.0102 -0.1246
 7050TIP3    H121072   5.196   1.024   3.800 -1.3505 -2.1132 -1.9868
 7050TIP3    H221073   5.293   0.927   3.864 -0.5788 -0.2924 -0.3274
 7051TIP3   OH221074   1.421   3.519   4.665 -0.0570 -0.2564 -0.0228
 7051TIP3    H121075   1.508   3.479   4.668  0.4246  0.8234  0.8103
 7051TIP3    H221076   1.377   3.474   4.593  1.7355  0.2417 -1.4976
 7052TIP3   OH221077   3.873   3.466   1.370  0.1077  0.0618  0.2260
 7052TIP3    H121078   3.914   3.427   1.447  1.1427  1.4519  0.3948
 7052TIP3    H221079   3.917   3.423   1.296  0.0846 -0.2694  0.4041
 7053TIP3   OH221080   1.969   3.453   6.399  0.0567  0.2314 -0.3741
 7053TIP3    H121081   1.919   3.390   6.348  1.5615 -1.8947  0.6692
 7053TIP3    H221082   1.903   3.506   6.444 -1.2461 -0.7589 -1.0967
 7054TIP3   OH221083   4.587   2.283   3.675  0.4390 -0.0618 -0.1552
 7054TIP3    H121084   4.499   2.265   3.706 -0.1212 -0.0244 -1.6611
 7054TIP3    H221085   4.574   2.337   3.597  1.8352  0.8059  0.1883
 7055TIP3   OH221086   1.828   2.598   4.384  0.0124 -0.5975 -0.3025
 7055TIP3    H121087   1.840   2.550   4.466  2.1602 -0.6370 -0.5892
 7055TIP3    H221088   1.828   2.690   4.409  2.1474 -0.5509 -0.3744
 7056TIP3   OH221089   2.654   1.770   3.969 -0.1473  0.1091  0.1406
 7056TIP3    H121090   2.622   1.815   4.046  1.3206 -0.5389  1.1508
 7056TIP3    H221091   2.662   1.678   3.996 -0.9558 -0.3811 -1.2063
 7057TIP3   OH221092   4.509   1.084   5.076 -0.6474 -0.0820 -0.0303
 7057TIP3    H121093   4.440   1.124   5.023 -0.5763  0.8098  0.5314
 7057TIP3    H221094   4.583   1.145   5.070 -0.5525 -0.0972  0.8748
 7058TIP3   OH221095   2.870   3.647   6.998  0.0236  0.0530  0.1331
 7058TIP3    H121096   2.898   3.658   7.089 -0.3977 -0.6754  0.3560
 7058TIP3    H221097   2.821   3.727   6.979  0.5160  0.4210  0.3909
 7059TIP3   OH221098   2.429   0.726   4.382 -0.1459 -0.1519  0.2939
 7059TIP3    H121099   2.424   0.815   4.419 -0.2216  0.1932 -0.5351
 7059TIP3    H221100   2.522   0.715   4.361 -0.3846  0.3463 -1.0773
 7060TIP3   OH221101   4.848   1.641   5.031 -0.2472 -0.1211  0.2578
 7060TIP3    H121102   4.923   1.617   5.085 -0.1485  0.4488  0.3810
 7060TIP3    H221103   4.776   1.589   5.066 -0.3133  0.6671  1.3155
 7061TIP3   OH221104   5.716   4.042   3.342  0.0254 -0.3734  0.4659
 7061TIP3    H121105   5.780   4.047   3.413 -0.5240  0.0370  0.9259
 7061TIP3    H221106   5.719   3.950   3.314  0.7706 -0.3732  0.5249
 7062TIP3   OH221107   3.674   0.509   3.386  0.0295  0.3795 -0.1001
 7062TIP3    H121108   3.695   0.419   3.409 -0.7343  0.5035  1.1030
 7062TIP3    H221109   3.747   0.537   3.330 -0.9793 -1.8170 -2.6716
 7063TIP3   OH221110   4.426   5.048   5.295 -0.2226  0.0343  0.2358
 7063TIP3    H121111   4.357   5.111   5.277  2.5865  2.7006 -1.7981
 7063TIP3    H221112   4.423   4.987   5.221  1.7536  2.2327 -1.7565
 7064TIP3   OH221113   4.712   4.382   5.902  0.0761  0.2224  0.2309
 7064TIP3    H121114   4.623   4.346   5.895 -0.7453  2.5206 -1.6770
 7064TIP3    H221115   4.702   4.461   5.955  1.5504 -1.1498  2.6747
 7065TIP3   OH221116   3.482   1.478   4.433 -0.2603  0.4373  0.0714
 7065TIP3    H121117   3.469   1.406   4.494 -1.1273  1.1703  0.7741
 7065TIP3    H221118   3.477   1.557   4.488  0.7974  1.0267 -0.6580
 7066TIP3   OH221119   3.283   1.176   5.678  0.0269  0.2045  0.2006
 7066TIP3    H121120   3.325   1.099   5.639  2.6181  1.4118  0.4910
 7066TIP3    H221121   3.280   1.156   5.772  0.0743  0.1650  0.1940
 7067TIP3   OH221122   6.306   1.759   5.650 -0.2638 -0.5143 -0.3810
 7067TIP3    H121123   6.389   1.751   5.698 -0.8878 -0.2643  0.7527
 7067TIP3    H221124   6.278   1.849   5.666  0.3531  0.1152 -2.6164
 7068TIP3   OH221125   6.216   2.859   2.605 -0.3972  0.1899 -0.0562
 7068TIP3    H121126   6.225   2.922   2.533  0.7394 -1.7117 -1.6579
 7068TIP3    H221127   6.280   2.887   2.670  0.0837  0.7059 -0.7427
 7069TIP3   OH221128   7.456   3.741   3.380  0.0891  0.2650  0.0948
 7069TIP3    H121129   7.546   3.758   3.352 -0.5667  0.8091 -1.7716
 7069TIP3    H221130   7.407   3.818   3.350 -1.2436 -0.6607 -0.1576
 7070TIP3   OH221131   3.428   1.203   2.990  0.6490 -0.0834  0.2509
 7070TIP3    H121132   3.489   1.134   3.015 -0.6652 -0.8581  1.3460
 7070TIP3    H221133   3.474   1.284   3.011  0.3744 -0.6955  3.3605
 7071TIP3   OH221134   6.520   0.625   5.034  0.0272 -0.4401 -0.3226
 7071TIP3    H121135   6.571   0.544   5.038  0.8175  0.1132  1.8920
 7071TIP3    H221136   6.585   0.694   5.045 -0.7344  0.4669 -1.4415
 7072TIP3   OH221137   7.694   1.445   4.396 -0.2404  0.4189 -0.7795
 7072TIP3    H121138   7.664   1.530   4.427  0.2947  0.0388  0.8418
 7072TIP3    H221139   7.788   1.445   4.412 -0.4049 -0.8838  0.2456
 7073TIP3   OH221140   3.701   2.545   4.051 -0.3537 -0.0907 -0.0207
 7073TIP3    H121141   3.621   2.492   4.056  0.3682 -1.2180 -0.3794
 7073TIP3    H221142   3.726   2.559   4.142  0.0192 -1.2392  0.0613
 7074TIP3   OH221143   5.832   3.295   4.010  0.0889  0.0095  0.0204
 7074TIP3    H121144   5.850   3.239   3.935  0.0053  1.2602 -0.9497
 7074TIP3    H221145   5.776   3.242   4.067 -0.0940 -0.8417 -0.9437
 7075TIP3   OH221146   4.162   1.583   6.291  0.0499 -0.8263  0.0653
 7075TIP3    H121147   4.194   1.495   6.311  1.3696 -0.5412 -0.7150
 7075TIP3    H221148   4.195   1.638   6.362 -1.6887 -1.1349  1.1358
 7076TIP3   OH221149   3.222   3.113   6.572  0.2958  0.2980 -0.0492
 7076TIP3    H121150   3.145   3.163   6.600  1.0144  0.2585  2.1144
 7076TIP3    H221151   3.288   3.180   6.555 -0.4212  0.3807 -2.6846
 7077TIP3   OH221152   3.950   4.219   4.956 -0.8632 -0.2731 -0.4176
 7077TIP3    H121153   3.873   4.208   5.011  0.7206 -1.6713  1.5743
 7077TIP3    H221154   3.942   4.150   4.890 -0.7835 -1.1175  0.4413
 7078TIP3   OH221155   6.648   3.910   3.651 -0.2877  0.1281  0.2103
 7078TIP3    H121156   6.729   3.961   3.659 -0.9477  1.2296 -0.0175
 7078TIP3    H221157   6.625   3.916   3.558 -0.8550  0.1716  0.3513
 7079TIP3   OH221158   6.206   2.589   5.816  0.1142 -0.1013  0.0506
 7079TIP3    H121159   6.152   2.642   5.758  0.7342  0.7087  0.2065
 7079TIP3    H221160   6.250   2.527   5.757  1.4745  1.3306 -0.5070
 7080TIP3   OH221161   4.138   3.301   4.367  0.0920 -0.0865  0.1381
 7080TIP3    H121162   4.105   3.347   4.289  0.3739  1.4271  0.9022
 7080TIP3    H221163   4.060   3.283   4.419  0.1655  1.1218  0.6784
 7081TIP3   OH221164   6.095   3.140   2.675 -0.1072 -0.0499 -0.4774
 7081TIP3    H121165   6.082   3.075   2.606 -1.0409  0.7959 -1.1131
 7081TIP3    H221166   6.125   3.218   2.629  1.0433 -0.0215  0.2883
 7082TIP3   OH221167   3.306   3.154   4.174  0.3119 -0.0593  0.3046
 7082TIP3    H121168   3.361   3.160   4.096 -0.6818  0.0927 -0.4007
 7082TIP3    H221169   3.348   3.089   4.229  1.7045  0.7364  0.1931
 7083TIP3   OH221170   2.903   0.641   4.536 -0.2385 -0.2435  0.3259
 7083TIP3    H121171   2.975   0.585   4.562 -2.0308 -2.2226  1.1709
 7083TIP3    H221172   2.862   0.595   4.463 -1.2831  0.3353  0.5348
 7084TIP3   OH221173   3.870   3.771   6.202 -0.1078  0.2545 -1.1141
 7084TIP3    H121174   3.784   3.778   6.244 -0.3337  0.6060 -1.6274
 7084TIP3    H221175   3.856   3.712   6.128  0.8796 -2.4879  0.8067
 7085TIP3   OH221176   3.990   3.165   3.652 -0.5420  0.0185 -0.1431
 7085TIP3    H121177   4.077   3.177   3.615  0.2215 -1.9840  0.9510
 7085TIP3    H221178   3.963   3.254   3.678  0.0183  1.0386 -2.9007
 7086TIP3   OH221179   5.626   4.078   1.575  0.9578 -0.0681 -0.8694
 7086TIP3    H121180   5.631   4.136   1.499  0.0384 -0.3763 -1.1809
 7086TIP3    H221181   5.536   4.088   1.607  0.9637 -0.8649 -0.5743
 7087TIP3   OH221182   3.788   3.328   5.028  0.1709  0.7276  0.9240
 7087TIP3    H121183   3.873   3.353   5.064  0.5004  1.2090 -0.1610
 7087TIP3    H221184   3.731   3.404   5.045  0.7828  1.6780 -1.0550
 7088TIP3   OH221185   2.692   3.914   3.324  0.0249 -0.2494 -0.6771
 7088TIP3    H121186   2.689   3.820   3.311  1.0159 -0.9184  3.1986
 7088TIP3    H221187   2.785   3.936   3.318  0.2059 -0.1547  1.9308
 7089TIP3   OH221188   3.969   3.994   3.931 -0.3461  0.0822  0.3829
 7089TIP3    H121189   3.956   3.999   4.025  1.9420  2.7287  0.6271
 7089TIP3    H221190   4.033   3.924   3.919 -2.0460 -1.5451  0.5898
 7090TIP3   OH221191   5.491   2.822   3.375 -0.2796  0.1835  0.2706
 7090TIP3    H121192   5.446   2.788   3.452  0.0973  0.8224  0.7813
 7090TIP3    H221193   5.477   2.916   3.378  2.7195  0.6478  1.5476
 7091TIP3   OH221194   4.094   2.527   4.576  0.4701  0.2189 -0.4941
 7091TIP3    H121195   4.069   2.611   4.539  2.3398  1.9213  1.9991
 7091TIP3    H221196   4.173   2.545   4.627  2.4925 -3.5423 -2.0452
 7092TIP3   OH221197   3.686   3.785   4.965  0.4166  0.4461 -0.2681
 7092TIP3    H121198   3.661   3.865   5.012  0.1116  0.5533 -0.6104
 7092TIP3    H221199   3.781   3.783   4.969  0.3404 -0.6971  2.2827
 7093TIP3   OH221200   3.968   4.020   6.158 -0.6789 -0.0855 -0.2717
 7093TIP3    H121201   3.937   3.930   6.151  1.1836 -0.5624 -3.1783
 7093TIP3    H221202   3.950   4.058   6.072  0.4216  1.6921  0.2545
 7094TIP3   OH221203   4.125   0.569   5.755 -0.0315 -0.7162  0.1223
 7094TIP3    H121204   4.219   0.565   5.771 -0.1303 -0.2455  0.8404
 7094TIP3    H221205   4.093   0.633   5.818 -0.9122 -1.2548  0.2252
 7095TIP3   OH221206   5.402   2.081   5.062  0.5628  0.1648 -0.0656
 7095TIP3    H121207   5.318   2.106   5.024 -0.2236 -1.2671  0.6834
 7095TIP3    H221208   5.431   2.158   5.110 -0.6024  0.4946  0.1286
 7096TIP3   OH221209   2.750   1.980   2.618 -0.4172 -0.2052 -0.3405
 7096TIP3    H121210   2.806   2.057   2.615  0.5493 -0.9065 -0.4841
 7096TIP3    H221211   2.669   2.011   2.659 -0.2632  1.0202 -0.9311
 7097TIP3   OH221212   4.913   3.208   4.273  0.2512  0.2718  0.7789
 7097TIP3    H121213   4.869   3.145   4.216 -0.0898  0.6511  0.6239
 7097TIP3    H221214   5.006   3.193   4.259  0.2051 -1.3365  1.9557
 7098TIP3   OH221215   5.761   0.648   1.491  0.2598 -0.0177  0.5307
 7098TIP3    H121216   5.719   0.734   1.488  1.0115  0.3511  0.3738
 7098TIP3    H221217   5.689   0.586   1.506 -0.9062  0.2108 -3.5067
 7099TIP3   OH221218   4.554   4.459   6.585 -0.3767  0.1281 -0.0401
 7099TIP3    H121219   4.471   4.424   6.552  0.4294  0.2828 -2.3624
 7099TIP3    H221220   4.533   4.495   6.671 -2.6025 -0.2775 -0.3890
 7100TIP3   OH221221   4.636   0.747   5.386 -0.1162  0.0971 -0.4352
 7100TIP3    H121222   4.565   0.797   5.347  0.6174  1.4772 -0.0598
 7100TIP3    H221223   4.641   0.779   5.477  0.1609 -0.8940 -0.0897
 7101TIP3   OH221224   4.602   1.951   4.507  0.1424 -0.2625 -0.0142
 7101TIP3    H121225   4.551   1.975   4.585  0.4578 -1.5316  0.5975
 7101TIP3    H221226   4.558   1.996   4.435 -1.8505 -1.3398  0.4896
 7102TIP3   OH221227   1.848   8.211   4.707  0.2856  0.1429 -0.1765
 7102TIP3    H121228   1.760   8.178   4.724  0.7042  0.0306  1.8914
 7102TIP3    H221229   1.884   8.151   4.641 -1.1478  0.1826 -1.0205
 7103TIP3   OH221230   1.938   3.757   3.730  0.2075  0.2263 -0.1313
 7103TIP3    H121231   2.016   3.702   3.720 -0.6888 -0.9870 -0.5631
 7103TIP3    H221232   1.871   3.713   3.676 -0.7324  1.3198  0.1424
 7104TIP3   OH221233   4.236   3.686   4.383 -0.3035 -0.0138  0.0545
 7104TIP3    H121234   4.165   3.666   4.444 -0.9172 -0.0240 -0.6574
 7104TIP3    H221235   4.302   3.620   4.401 -0.5981 -0.1875  0.5195
 7105TIP3   OH221236   4.212   3.408   5.023 -0.0260  0.4334  0.0710
 7105TIP3    H121237   4.298   3.367   5.017  0.2572  1.2940 -2.4960
 7105TIP3    H221238   4.152   3.348   4.978 -0.7959 -0.1577  1.8333
 7106TIP3   OH221239   6.925   1.787   6.046  0.6080 -0.1074 -0.1857
 7106TIP3    H121240   6.901   1.711   5.992  0.7560 -0.0306 -0.3618
 7106TIP3    H221241   6.903   1.761   6.135  0.3800 -0.2458 -0.2808
 7107TIP3   OH221242   2.526   3.864   3.051  0.1626  0.1066  0.3263
 7107TIP3    H121243   2.612   3.892   3.019  0.8113 -1.9057  0.2693
 7107TIP3    H221244   2.502   3.931   3.115  1.3163  1.2221 -0.3744
 7108TIP3   OH221245   2.733   1.142   3.083  0.2238 -0.1498  0.2684
 7108TIP3    H121246   2.694   1.077   3.141  0.6501 -0.9717 -0.3642
 7108TIP3    H221247   2.772   1.091   3.012 -1.5968  0.8907 -1.5504
 7109TIP3   OH221248   6.814   2.353   4.507 -0.2951 -0.0299 -0.1417
 7109TIP3    H121249   6.807   2.318   4.596  0.3185 -1.3153 -0.5773
 7109TIP3    H221250   6.832   2.446   4.519  0.9241 -0.4021  1.0907
 7110TIP3   OH221251   1.393   2.536   5.093 -0.3843 -0.3684  0.1611
 7110TIP3    H121252   1.400   2.455   5.042  1.1236 -0.3480  0.2980
 7110TIP3    H221253   1.300   2.553   5.099 -0.6390 -1.2435 -1.2291
 7111TIP3   OH221254   3.663   3.473   2.578 -0.1881 -0.6525 -0.3256
 7111TIP3    H121255   3.709   3.408   2.631 -0.7548 -2.1688 -1.6168
 7111TIP3    H221256   3.727   3.500   2.512 -0.0748 -0.2159 -0.0325
 7112TIP3   OH221257   4.443   4.252   5.221 -0.2701  0.2305 -0.0274
 7112TIP3    H121258   4.452   4.339   5.182 -2.5305  0.6425  0.2802
 7112TIP3    H221259   4.386   4.205   5.161  0.8170 -1.0028 -0.1098
 7113TIP3   OH221260   2.377   4.578   5.084 -0.0426 -0.1052 -0.3815
 7113TIP3    H121261   2.416   4.548   5.166  0.7962  0.0669 -0.7125
 7113TIP3    H221262   2.333   4.660   5.107 -2.9509 -1.8700  0.6801
 7114TIP3   OH221263   4.784   2.596   4.223  0.5307  0.7455  0.0236
 7114TIP3    H121264   4.831   2.678   4.211  0.0623  0.8120 -1.5244
 7114TIP3    H221265   4.851   2.528   4.213  0.7906  0.9079  0.6144
 7115TIP3   OH221266   5.692   3.369   4.359  0.3491  0.0005 -0.2369
 7115TIP3    H121267   5.663   3.291   4.311 -0.8289  0.4267 -0.2427
 7115TIP3    H221268   5.670   3.350   4.450  1.7160 -0.4110  0.0235
 7116TIP3   OH221269   4.079   3.292   3.348 -0.7057  0.7314  0.3791
 7116TIP3    H121270   4.040   3.221   3.297 -0.7095  0.3608  0.8818
 7116TIP3    H221271   4.043   3.372   3.311  0.1688  0.5318 -0.9290
 7117TIP3   OH221272   4.717   2.781   3.662  0.1870 -0.3098  0.5533
 7117TIP3    H121273   4.622   2.790   3.672 -0.0346 -1.7555 -0.1344
 7117TIP3    H221274   4.747   2.746   3.746  0.2687  1.0650  1.1243
 7118TIP3   OH221275   1.983   3.555   5.887 -0.7501 -0.0755 -0.4956
 7118TIP3    H121276   2.033   3.555   5.806 -1.1430 -2.6839 -0.7720
 7118TIP3    H221277   1.995   3.468   5.924 -4.5042 -0.5929 -0.2465
 7119TIP3   OH221278   3.897   4.028   4.784  0.3092  0.0678  0.5026
 7119TIP3    H121279   3.846   4.034   4.703  0.0994  1.3255  0.7152
 7119TIP3    H221280   3.946   3.946   4.776  1.6541  1.0477 -1.7047
 7120TIP3   OH221281   3.514   3.794   4.483  0.1354 -0.3844  0.4483
 7120TIP3    H121282   3.502   3.771   4.575  1.5414  1.3947  1.1134
 7120TIP3    H221283   3.443   3.749   4.438 -1.6339  0.1053  2.6124
 7121TIP3   OH221284   5.323   2.676   3.850 -0.6385  0.4538  0.2948
 7121TIP3    H121285   5.338   2.769   3.866 -1.0117  0.5482  0.0989
 7121TIP3    H221286   5.278   2.645   3.929  1.2554 -0.0019  1.2219
 7122TIP3   OH221287   4.790   2.605   4.626  0.3536 -0.1276  0.4927
 7122TIP3    H121288   4.812   2.516   4.653 -2.4843 -0.4279  2.0603
 7122TIP3    H221289   4.844   2.662   4.681  0.9524 -0.8582  0.6556
 7123TIP3   OH221290   5.986   3.790   3.557  0.2364  0.2360 -0.2782
 7123TIP3    H121291   6.053   3.824   3.498 -1.0373 -0.1692 -2.0160
 7123TIP3    H221292   5.915   3.761   3.498 -0.3123 -1.8557  1.3452
 7124TIP3   OH221293   6.812   1.946   5.844 -0.6745  0.5608 -0.0371
 7124TIP3    H121294   6.734   2.001   5.832 -1.2865 -0.0221  1.1596
 7124TIP3    H221295   6.799   1.904   5.929 -0.8681 -2.4596 -1.4771
 7125TIP3   OH221296   3.886   3.017   4.753 -0.7794 -0.0270 -0.1578
 7125TIP3    H121297   3.841   3.097   4.780 -1.7627 -1.1331  1.5969
 7125TIP3    H221298   3.852   2.949   4.812  0.6557 -1.5741 -1.0577
 7126TIP3   OH221299   5.013   2.437   6.131 -0.0554 -0.3071 -0.3847
 7126TIP3    H121300   5.100   2.427   6.169  0.8325  1.3842 -1.9377
 7126TIP3    H221301   5.012   2.525   6.093 -2.4904 -0.2432 -0.2677
 7127TIP3   OH221302   5.947   1.932   3.622 -0.2512 -0.1159  0.2087
 7127TIP3    H121303   5.942   1.840   3.596  0.5572 -0.0485 -0.1947
 7127TIP3    H221304   5.998   1.931   3.703  0.6287  0.0740 -0.3345
 7128TIP3   OH221305   4.132   2.291   4.894 -1.0647 -0.3818 -0.3292
 7128TIP3    H121306   4.191   2.335   4.832 -1.5439  2.3073  1.0590
 7128TIP3    H221307   4.051   2.342   4.891 -2.0392 -1.8451  0.5127
 7129TIP3   OH221308   5.656   3.303   2.900 -0.1600  0.2204 -0.3073
 7129TIP3    H121309   5.674   3.265   2.814 -1.1402 -0.4208 -0.2469
 7129TIP3    H221310   5.678   3.395   2.891  0.2384  0.0547 -1.0964
 7130TIP3   OH221311   5.426   2.301   6.119  0.0724  0.5477 -0.5090
 7130TIP3    H121312   5.511   2.346   6.115 -0.1945  1.3267  1.9803
 7130TIP3    H221313   5.448   2.209   6.131  0.5760  0.3814 -2.4869
 7131TIP3   OH221314   8.812   4.858   0.256  0.3725 -0.2873  0.7282
 7131TIP3    H121315   8.732   4.897   0.222  2.1702  1.7114 -1.3742
 7131TIP3    H221316   8.808   4.767   0.227 -0.5994  0.0836 -0.3571
 7132TIP3   OH221317   4.447   8.268   5.929 -0.5218  0.1856  0.0214
 7132TIP3    H121318   4.453   8.272   6.024 -0.2354  4.7762 -0.1026
 7132TIP3    H221319   4.354   8.251   5.912 -0.4500 -1.3960  1.0599
 7133TIP3   OH221320   6.913   7.057   0.389 -0.0906 -0.1597  0.5191
 7133TIP3    H121321   6.959   6.998   0.329  0.1697  0.1998  0.3626
 7133TIP3    H221322   6.969   7.134   0.394 -1.3950  0.9250 -0.8806
 7134TIP3   OH221323   4.910   0.061   3.893  0.5742  0.3561  0.0582
 7134TIP3    H121324   4.928   0.145   3.851  0.6214 -1.6266 -4.2420
 7134TIP3    H221325   4.996   0.028   3.917  0.9802 -0.2633 -2.1217
 7135TIP3   OH221326   4.583   2.782   4.905 -0.1873 -0.0369  0.4626
 7135TIP3    H121327   4.526   2.752   4.834  0.6615 -0.7524  0.0770
 7135TIP3    H221328   4.636   2.851   4.866 -3.1907  3.1695  1.7404
 7136TIP3   OH221329   3.725   3.058   5.006  0.9894 -0.2652  1.3156
 7136TIP3    H121330   3.739   3.146   5.040 -0.0655  0.8613 -1.0709
 7136TIP3    H221331   3.630   3.047   5.004  1.0674 -0.8045  0.0237
 7137TIP3   OH221332   6.086   2.792   6.962 -0.3994  0.2887  0.3129
 7137TIP3    H121333   6.143   2.741   6.904 -3.4524 -0.6043 -2.0763
 7137TIP3    H221334   6.092   2.881   6.929  1.6121  0.7469  1.7846
 7138TIP3   OH221335   4.536   2.431   5.645 -0.4252  0.8237  0.4511
 7138TIP3    H121336   4.540   2.522   5.675  1.4560  1.2806 -1.1397
 7138TIP3    H221337   4.448   2.422   5.609 -0.3660  2.2336 -0.0658
 7139TIP3   OH221338   4.692   3.404   3.071 -0.2546 -0.3641 -0.3716
 7139TIP3    H121339   4.707   3.319   3.031  2.0498 -0.0910 -0.1085
 7139TIP3    H221340   4.682   3.386   3.165 -2.2333 -0.6022 -0.6027
 7140TIP3   OH221341   3.525   4.115   3.870 -0.0956  0.2143  0.1649
 7140TIP3    H121342   3.569   4.124   3.785 -0.1227 -1.4575 -0.0416
 7140TIP3    H221343   3.437   4.149   3.855  0.3270  1.2112 -0.0979
 7141TIP3   OH221344   3.400   2.973   2.649  0.3074 -0.2150  0.0785
 7141TIP3    H121345   3.376   2.922   2.726  1.7145  0.3002  0.8867
 7141TIP3    H221346   3.468   2.921   2.606 -1.9537 -1.5193 -2.0078
 7142TIP3   OH221347   2.214   3.604   3.673 -0.1383  0.1849 -0.3507
 7142TIP3    H121348   2.294   3.620   3.723 -0.5304  2.1073 -0.3155
 7142TIP3    H221349   2.242   3.612   3.581 -0.1211  0.0259 -0.3591
 7143TIP3   OH221350   4.924   4.125   4.718 -0.1190 -0.1242  0.4276
 7143TIP3    H121351   4.919   4.209   4.763 -1.8842  0.3799 -0.6367
 7143TIP3    H221352   4.988   4.139   4.648  0.6267 -0.1009  1.1072
 7144TIP3   OH221353   4.245   3.632   4.060 -0.3152 -0.2666  0.0267
 7144TIP3    H121354   4.186   3.559   4.078 -1.1437 -0.1228 -1.9995
 7144TIP3    H221355   4.266   3.667   4.146  1.1840 -3.7075  1.1847
 7145TIP3   OH221356   4.376   3.243   3.309  0.2296  0.7674  0.7335
 7145TIP3    H121357   4.283   3.221   3.303 -0.1419  2.2492  0.8641
 7145TIP3    H221358   4.421   3.162   3.286 -1.0955  0.1750  0.1591
 7146TIP3   OH221359   4.867   3.160   3.299  0.2806 -0.1681  0.1804
 7146TIP3    H121360   4.864   3.172   3.394  1.2704  1.3657  0.0325
 7146TIP3    H221361   4.957   3.131   3.282  0.5543  1.0597 -0.4514
 7147TIP3   OH221362   7.846   3.239   3.848 -0.3464 -0.4311  0.1432
 7147TIP3    H121363   7.864   3.333   3.854 -1.1407 -0.2681 -0.0114
 7147TIP3    H221364   7.909   3.199   3.908  0.7122  0.1119 -0.5914
 7148TIP3   OH221365   4.392   2.106   5.305 -0.7265 -0.0750 -0.2250
 7148TIP3    H121366   4.337   2.096   5.383  0.5909  1.2849  0.9135
 7148TIP3    H221367   4.351   2.176   5.255  0.3626  1.4678  1.0032
 7149TIP3   OH221368   3.984   1.322   6.375 -0.3087 -0.1687 -0.0656
 7149TIP3    H121369   3.913   1.383   6.397  0.0012  0.7192 -1.5028
 7149TIP3    H221370   3.949   1.268   6.305  0.8304  1.0741 -1.6257
 7150TIP3   OH221371   5.668   3.034   4.799 -0.2476  0.1788  0.5894
 7150TIP3    H121372   5.702   2.945   4.802 -1.0133 -0.1036  1.4833
 7150TIP3    H221373   5.721   3.082   4.863  0.7852  0.6007 -0.5696
 7151TIP3   OH221374   6.653   3.818   4.119  0.4922  0.0609 -0.2853
 7151TIP3    H121375   6.743   3.789   4.103 -0.2631 -1.5467 -1.7104
 7151TIP3    H221376   6.653   3.911   4.096  1.4833 -0.2354 -1.5458
 7152TIP3   OH221377   5.242   0.990   4.515 -0.4155  0.0416 -0.4387
 7152TIP3    H121378   5.150   1.013   4.525 -0.2563 -0.1274  1.6208
 7152TIP3    H221379   5.290   1.068   4.542  0.0590 -0.7756  1.1669
 7153TIP3   OH221380   4.546   2.988   3.340 -0.0097  0.2675  0.1900
 7153TIP3    H121381   4.481   2.918   3.340  0.9470 -0.6497 -0.3290
 7153TIP3    H221382   4.535   3.032   3.255 -1.2652  1.3795  0.9239
 7154TIP3   OH221383   4.085   3.365   5.904 -0.1070  0.2882  0.3559
 7154TIP3    H121384   4.057   3.363   5.812  1.3395  1.2435 -0.1060
 7154TIP3    H221385   4.136   3.285   5.915 -2.1599 -1.0056  0.9686
 7155TIP3   OH221386   4.597   6.889   5.121  0.6071 -0.3149  0.5100
 7155TIP3    H121387   4.636   6.806   5.148  1.5391  0.4622  1.5765
 7155TIP3    H221388   4.585   6.880   5.027 -0.0494 -1.9684  0.7308
 7156TIP3   OH221389   4.901   0.514   4.096 -0.2401 -0.0438  0.1796
 7156TIP3    H121390   4.896   0.425   4.132  0.7050 -0.4284 -0.5879
 7156TIP3    H221391   4.995   0.528   4.083 -0.4469  0.7343 -0.5115
 7157TIP3   OH221392   5.445   3.179   5.195  0.4831  0.2819 -0.7587
 7157TIP3    H121393   5.446   3.105   5.134 -0.8981  0.7782 -1.3950
 7157TIP3    H221394   5.522   3.166   5.250  1.1591 -0.7376 -1.9376
 7158TIP3   OH221395   4.784   3.159   4.526 -0.8678 -0.0060  0.0995
 7158TIP3    H121396   4.862   3.192   4.571 -0.8088 -2.2381  1.6771
 7158TIP3    H221397   4.802   3.173   4.433  0.2966  1.8589  0.5783
 7159TIP3   OH221398   4.843   2.089   3.150  0.8342 -0.0583  0.0997
 7159TIP3    H121399   4.917   2.150   3.145  0.1638  0.8550  0.9999
 7159TIP3    H221400   4.821   2.085   3.243 -0.7568  0.3278 -0.2429
 7160TIP3   OH221401   2.298   1.431   6.534 -0.0610 -0.2392  0.3952
 7160TIP3    H121402   2.329   1.450   6.445 -0.1175  1.3218  0.6929
 7160TIP3    H221403   2.205   1.413   6.523 -0.3523  1.2143  0.2682
 7161TIP3   OH221404   6.414   1.215   6.822  0.0443 -0.6844  0.4039
 7161TIP3    H121405   6.458   1.190   6.903  0.7669  0.3999  0.3662
 7161TIP3    H221406   6.449   1.155   6.756 -1.3665 -2.2913  1.0840
 7162TIP3   OH221407   5.883   1.204   3.485  0.4200  0.1407 -0.3536
 7162TIP3    H121408   5.789   1.189   3.480  0.2306  1.0546  0.3666
 7162TIP3    H221409   5.922   1.120   3.460 -0.5513  0.2229 -2.2447
 7163TIP3   OH221410   2.913   7.860   5.665 -0.2202 -0.1108  0.1982
 7163TIP3    H121411   2.872   7.800   5.727  2.1346 -0.7085  1.2346
 7163TIP3    H221412   2.954   7.927   5.720  2.2837 -0.8897 -0.6284
 7164TIP3   OH221413   4.507   1.353   3.534  0.3100 -0.0772  0.2997
 7164TIP3    H121414   4.421   1.358   3.493  0.0477  0.2146  0.8831
 7164TIP3    H221415   4.490   1.360   3.628  0.9654 -0.0198  0.4202
 7165TIP3   OH221416   7.143   0.451   4.582  0.0243 -0.0856 -0.1884
 7165TIP3    H121417   7.171   0.488   4.666 -0.5544  2.9409 -1.2529
 7165TIP3    H221418   7.225   0.432   4.536  0.3372 -0.2846  0.4463
 7166TIP3   OH221419   7.368   1.403   5.303 -1.2991 -0.1547 -0.1637
 7166TIP3    H121420   7.365   1.356   5.386 -0.7126  0.3849  0.1650
 7166TIP3    H221421   7.404   1.339   5.241  1.8104  0.5845  0.8072
 7167TIP3   OH221422   3.809   1.062   1.222 -0.0210 -0.0142  0.4717
 7167TIP3    H121423   3.845   1.027   1.304 -0.6126 -0.0594  0.7187
 7167TIP3    H221424   3.724   1.099   1.248 -0.0678  0.2513 -0.0668
 7168TIP3   OH221425   3.138   1.880   3.810  0.2095  0.1997 -0.5888
 7168TIP3    H121426   3.231   1.902   3.818  0.3612  0.3373 -2.5074
 7168TIP3    H221427   3.101   1.953   3.760 -0.9094  0.0649  0.0335
 7169TIP3   OH221428   0.712   1.927   4.234  0.0132 -0.4408 -0.0824
 7169TIP3    H121429   0.722   2.005   4.179 -1.1393  0.6352  1.1928
 7169TIP3    H221430   0.751   1.953   4.318 -0.8232 -1.0709  0.5017
 7170TIP3   OH221431   4.234   2.196   3.383  0.3227 -0.7071  0.2326
 7170TIP3    H121432   4.154   2.190   3.331 -0.0254  1.0295  0.5126
 7170TIP3    H221433   4.293   2.248   3.329  0.1726  0.5989  1.2930
 7171TIP3   OH221434   1.498   3.771   5.758 -0.4605  0.4619 -0.2247
 7171TIP3    H121435   1.529   3.804   5.842  0.6120 -0.3023 -0.3035
 7171TIP3    H221436   1.444   3.842   5.722  0.9247  1.7012  0.0793
 7172TIP3   OH221437   4.524   2.914   5.953 -0.7444 -0.0853  0.5516
 7172TIP3    H121438   4.458   2.954   6.010 -1.1447  0.3786 -0.2099
 7172TIP3    H221439   4.503   2.949   5.866 -0.2335 -0.8844  0.1055
 7173TIP3   OH221440   4.510   3.479   5.504 -0.3271  0.6138 -0.6473
 7173TIP3    H121441   4.571   3.431   5.448  0.2642  0.6694 -0.0523
 7173TIP3    H221442   4.533   3.571   5.492  1.4762  0.5070  1.5860
 7174TIP3   OH221443   7.238   0.582   4.284  0.2006 -0.1201  0.2793
 7174TIP3    H121444   7.255   0.584   4.190  0.3228  0.4481  0.3086
 7174TIP3    H221445   7.312   0.533   4.321 -0.1673 -0.8649  0.0124
 7175TIP3   OH221446   2.546   2.291   6.714 -0.0261  0.5599 -0.3386
 7175TIP3    H121447   2.604   2.229   6.758  0.1239  0.6927 -0.3479
 7175TIP3    H221448   2.495   2.330   6.785  0.6599  1.2388 -0.2005
 7176TIP3   OH221449   2.675   2.835   4.935 -0.2843 -0.2181 -0.2185
 7176TIP3    H121450   2.602   2.897   4.938 -1.1735 -1.3351  1.2057
 7176TIP3    H221451   2.747   2.880   4.980 -0.7211  0.0322  0.2210
 7177TIP3   OH221452   5.196   4.037   4.283 -0.6817  0.2901  0.2416
 7177TIP3    H121453   5.121   4.059   4.227 -0.7307  0.9459  0.5589
 7177TIP3    H221454   5.263   4.101   4.260  0.3821 -1.3050 -1.2124
 7178TIP3   OH221455   3.694   2.078   4.923 -0.1811 -0.0040 -0.6443
 7178TIP3    H121456   3.609   2.069   4.879  0.1276  1.1089 -1.4578
 7178TIP3    H221457   3.671   2.099   5.014 -0.7721  3.0557 -1.4552
 7179TIP3   OH221458   5.113   4.650   2.422  0.1450 -0.0456  0.2236
 7179TIP3    H121459   5.028   4.689   2.441  0.1362 -0.6470  1.4510
 7179TIP3    H221460   5.177   4.709   2.461  0.3109  0.4936 -0.8411
 7180TIP3   OH221461   3.061   3.562   4.184  0.0190 -0.1628 -0.1627
 7180TIP3    H121462   3.143   3.518   4.165  0.0175 -0.7026  1.0733
 7180TIP3    H221463   3.000   3.492   4.207 -0.3205  0.3672  0.5862
 7181TIP3   OH221464   4.181   1.514   4.484  0.3082  0.2250 -0.1266
 7181TIP3    H121465   4.087   1.499   4.488  0.2622 -1.0350 -3.8850
 7181TIP3    H221466   4.219   1.433   4.519  0.0163  0.6608  1.2235
 7182TIP3   OH221467   4.094   4.250   6.284  0.3515 -0.8286  0.0426
 7182TIP3    H121468   4.071   4.166   6.244 -0.0355 -0.9507  0.5111
 7182TIP3    H221469   4.060   4.243   6.373 -1.4058  0.5710 -0.4882
 7183TIP3   OH221470   4.470   0.985   5.322 -0.3863  0.3352  0.6959
 7183TIP3    H121471   4.485   1.017   5.233 -0.2974 -0.2193  0.5119
 7183TIP3    H221472   4.535   1.032   5.375  1.2002 -1.1025  0.0943
 7184TIP3   OH221473   4.788   1.799   4.216 -0.2630 -0.2230  0.1762
 7184TIP3    H121474   4.723   1.858   4.177 -0.2784 -1.2899 -1.4475
 7184TIP3    H221475   4.840   1.769   4.141  2.1203  0.6388  1.4613
 7185TIP3   OH221476   3.735   8.375   4.868 -0.3469  0.2853 -0.0984
 7185TIP3    H121477   3.763   8.343   4.783  0.3175 -0.7301  0.4921
 7185TIP3    H221478   3.645   8.403   4.856  0.1476  1.3413 -1.4449
 7186TIP3   OH221479   1.676   1.144   5.701 -0.4062 -0.0862  0.2144
 7186TIP3    H121480   1.673   1.072   5.764 -0.3309 -0.4066 -0.1459
 7186TIP3    H221481   1.596   1.194   5.717  0.4130  0.7842  1.6882
 7187TIP3   OH221482   4.949   1.806   4.635  0.9000 -0.0850  0.2772
 7187TIP3    H121483   4.926   1.896   4.612  1.5407 -0.5423 -2.3139
 7187TIP3    H221484   4.881   1.753   4.592  3.0723 -1.0696 -2.0832
 7188TIP3   OH221485   3.397   2.014   5.120  0.0679  0.2065  0.3154
 7188TIP3    H121486   3.422   2.028   5.211  2.0939 -0.9922 -0.0226
 7188TIP3    H221487   3.415   1.921   5.104  0.5890  0.5899 -1.5424
 7189TIP3   OH221488   1.249   8.074   5.828 -0.2066  0.4347  0.3676
 7189TIP3    H121489   1.299   8.152   5.855  1.5743 -0.6172  0.1557
 7189TIP3    H221490   1.192   8.056   5.903 -0.0062  1.4290  0.7744
 7190TIP3   OH221491   4.752   2.589   4.992  0.6070 -0.2104 -0.0537
 7190TIP3    H121492   4.826   2.633   4.949 -0.3468  3.3410  1.8068
 7190TIP3    H221493   4.675   2.635   4.960 -0.2327  1.5213  4.1243
 7191TIP3   OH221494   3.755   3.451   5.771  0.0835  0.0525  0.0465
 7191TIP3    H121495   3.675   3.482   5.727  0.4428  1.2264  0.2135
 7191TIP3    H221496   3.780   3.372   5.721 -1.2627 -0.4257  0.0914
 7192TIP3   OH221497   5.544   0.825   4.255 -0.3039 -0.1894  0.1059
 7192TIP3    H121498   5.544   0.745   4.203  1.0429  0.3586 -0.7746
 7192TIP3    H221499   5.509   0.799   4.340 -1.0735 -1.4295 -0.5856
 7193TIP3   OH221500   5.248   0.363   4.289 -0.2124  0.0899  0.4299
 7193TIP3    H121501   5.214   0.397   4.206  0.4529  0.0850  0.1457
 7193TIP3    H221502   5.254   0.268   4.274  1.4465  0.2619 -0.1047
 7194TIP3   OH221503   5.806   3.814   2.016 -0.0281 -0.0342  1.0771
 7194TIP3    H121504   5.811   3.759   2.095  0.8777 -1.3722  0.1129
 7194TIP3    H221505   5.730   3.780   1.969  1.9428 -2.1610 -0.7176
 7195TIP3   OH221506   5.606   2.923   2.490 -0.0629  0.3719  0.1805
 7195TIP3    H121507   5.630   3.004   2.534  0.5518  0.5987 -0.5651
 7195TIP3    H221508   5.554   2.952   2.414 -0.9628 -0.0030  0.6421
 7196TIP3   OH221509   4.145   3.178   4.911  0.1391 -0.0638  0.7319
 7196TIP3    H121510   4.165   3.133   4.993 -1.1527  0.9649  1.6376
 7196TIP3    H221511   4.082   3.121   4.866  0.6633 -0.5112  0.5630
 7197TIP3   OH221512   3.836   1.079   3.745 -0.5482 -0.4069  0.0515
 7197TIP3    H121513   3.800   1.052   3.829 -1.1677  0.6586  0.1357
 7197TIP3    H221514   3.929   1.095   3.762 -0.5165 -0.9118  0.3599
 7198TIP3   OH221515   2.560   4.887   2.400 -0.5279  0.1937 -0.1171
 7198TIP3    H121516   2.526   4.889   2.490  0.5463  1.8554  0.2646
 7198TIP3    H221517   2.605   4.803   2.394 -0.0160  0.3638  1.1263
 7199TIP3   OH221518   6.132   2.515   4.921 -0.6900  0.3161 -0.1341
 7199TIP3    H121519   6.123   2.600   4.877 -1.3609  1.0949  1.4740
 7199TIP3    H221520   6.226   2.507   4.937 -0.5698  0.5430 -0.6918
 7200TIP3   OH221521   6.279   3.596   4.323 -0.3766 -0.2681  0.3352
 7200TIP3    H121522   6.243   3.525   4.376 -0.9261 -0.8974 -0.8564
 7200TIP3    H221523   6.215   3.608   4.253  0.9717 -0.3567 -0.9350
 7201TIP3   OH221524   5.104   3.697   2.703  0.4057 -0.1898 -0.1742
 7201TIP3    H121525   5.094   3.788   2.730  1.5858 -0.7050  2.0688
 7201TIP3    H221526   5.023   3.676   2.657 -0.4849  1.5417  0.6045
 7202TIP3   OH221527   7.607   2.064   5.018  0.0157  0.8438 -0.5726
 7202TIP3    H121528   7.548   1.996   5.052 -1.0971  1.9155 -0.3421
 7202TIP3    H221529   7.688   2.017   4.998 -0.6667 -0.5192 -0.2084
 7203TIP3   OH221530   7.929   0.046   2.550 -0.5798  0.2748  0.1605
 7203TIP3    H121531   7.847   0.004   2.524  1.0880 -1.2294 -2.9186
 7203TIP3    H221532   7.912   0.140   2.543 -1.8619 -0.0365 -1.0358
 7204TIP3   OH221533   6.329   1.760   5.077 -0.4140 -0.6401 -0.4628
 7204TIP3    H121534   6.245   1.714   5.075 -0.8038 -0.0760  1.6445
 7204TIP3    H221535   6.305   1.850   5.103  1.0140 -0.9519  2.0779
 7205TIP3   OH221536   4.743   1.199   3.801 -0.0536  0.1824  0.5278
 7205TIP3    H121537   4.761   1.154   3.718  0.9194  0.0174  0.8336
 7205TIP3    H221538   4.647   1.207   3.803 -0.2408 -1.7999  0.4267
 7206TIP3   OH221539   8.168   3.352   3.507  0.0507  0.3573 -0.3055
 7206TIP3    H121540   8.075   3.333   3.495  0.0385 -0.5552  1.1024
 7206TIP3    H221541   8.214   3.282   3.460  0.0143 -0.3129  0.6466
 7207TIP3   OH221542   5.038   1.868   3.779 -0.1049  0.0137 -0.3192
 7207TIP3    H121543   4.971   1.890   3.715 -1.1543 -1.5508  0.2054
 7207TIP3    H221544   5.114   1.841   3.727 -1.0851 -1.6336 -0.9161
 7208TIP3   OH221545   3.397   8.321   3.977  0.2441 -0.3473 -0.2277
 7208TIP3    H121546   3.464   8.387   3.962  0.2183 -0.4337 -0.7251
 7208TIP3    H221547   3.444   8.248   4.018  0.4932 -0.4956 -0.7787
 7209TIP3   OH221548   7.088   1.017   2.648  0.2385  0.1951  0.0174
 7209TIP3    H121549   7.119   0.928   2.662  0.1282  0.6042  3.1426
 7209TIP3    H221550   7.005   1.007   2.601  1.9411 -1.1259 -2.8785
 7210TIP3   OH221551   6.523   2.880   3.597  0.1859 -0.4865  0.1934
 7210TIP3    H121552   6.498   2.913   3.684 -0.9784 -0.2294 -0.2314
 7210TIP3    H221553   6.598   2.933   3.572 -0.3036  0.3418  0.4654
 7211TIP3   OH221554   5.643   0.078   4.915 -0.5791  0.2220  0.0005
 7211TIP3    H121555   5.695   0.009   4.956 -1.4692 -0.5509 -0.1629
 7211TIP3    H221556   5.644   0.150   4.979 -1.6996 -0.8625  1.2422
 7212TIP3   OH221557   3.159   8.270   4.322 -0.4965 -0.0978  0.2208
 7212TIP3    H121558   3.170   8.295   4.230  0.5215 -1.0363  0.0865
 7212TIP3    H221559   3.238   8.221   4.344 -0.1007  1.2747  1.9954
 7213TIP3   OH221560   6.495   2.200   5.337 -0.0712 -0.3111 -0.0205
 7213TIP3    H121561   6.545   2.148   5.275 -1.0698  1.1900 -2.1201
 7213TIP3    H221562   6.540   2.285   5.341 -0.2006 -0.2751  1.0666
 7214TIP3   OH221563   7.855   4.055   4.121  0.3114  0.3617 -0.1069
 7214TIP3    H121564   7.933   3.998   4.124 -0.4788 -0.7192  0.2471
 7214TIP3    H221565   7.839   4.079   4.212  0.1358  0.4514 -0.1615
 7215TIP3   OH221566   8.083   3.647   4.868 -0.1748 -0.7447 -0.5158
 7215TIP3    H121567   8.114   3.732   4.834  1.1754 -1.2012 -0.4836
 7215TIP3    H221568   8.120   3.642   4.956 -0.2673 -1.3490 -0.5111
 7216TIP3   OH221569   5.288   1.807   3.710 -0.1899  0.0637  0.1066
 7216TIP3    H121570   5.298   1.751   3.633  0.6516  0.7708 -0.3165
 7216TIP3    H221571   5.376   1.843   3.725 -0.9680  2.3239 -0.4714
 7217TIP3   OH221572   5.685   1.011   6.428  0.2976 -0.1815 -0.3470
 7217TIP3    H121573   5.710   0.934   6.479 -0.8199 -1.7208 -2.0542
 7217TIP3    H221574   5.604   1.042   6.469  0.5969 -0.0886  0.1726
 7218TIP3   OH221575   6.505   1.022   5.111  0.0498  0.7829 -0.4002
 7218TIP3    H121576   6.554   1.098   5.140  1.5359 -0.6780  0.9978
 7218TIP3    H221577   6.559   0.947   5.135 -2.2827 -0.8203  0.0478
 7219TIP3   OH221578   8.181   2.386   5.869 -0.2654  0.6529  0.3414
 7219TIP3    H121579   8.265   2.386   5.915  0.1379 -0.9529 -0.3736
 7219TIP3    H221580   8.194   2.327   5.795 -2.3436 -0.4207  0.8096
 7220TIP3   OH221581   6.489   1.680   5.837  0.3074 -0.0252  0.7523
 7220TIP3    H121582   6.475   1.599   5.886 -0.0347 -0.5267 -0.1802
 7220TIP3    H221583   6.469   1.749   5.901  0.4296 -0.6704  1.4954
 7221TIP3   OH221584   3.309   4.946   2.752  0.2601 -0.4272  0.5333
 7221TIP3    H121585   3.370   4.971   2.682  1.2786  0.9680  1.8680
 7221TIP3    H221586   3.261   5.027   2.771 -1.7856 -1.4332 -0.2623
 7222TIP3   OH221587   6.340   2.144   3.455 -0.6042  0.0542  0.1286
 7222TIP3    H121588   6.269   2.173   3.399 -1.5325 -1.2243  0.6046
 7222TIP3    H221589   6.308   2.062   3.494  1.5802 -1.1715 -0.5608
 7223TIP3   OH221590   6.289   4.398   1.628 -0.2195  0.3680  0.2941
 7223TIP3    H121591   6.324   4.485   1.611  0.2932  0.0995 -0.0498
 7223TIP3    H221592   6.342   4.364   1.699  0.2143 -0.0320 -0.2149
 7224TIP3   OH221593   7.662   3.437   4.239 -0.4308 -0.1998 -0.1175
 7224TIP3    H121594   7.604   3.501   4.197 -0.1350 -0.1091 -0.3917
 7224TIP3    H221595   7.680   3.474   4.325  0.2052  0.3714 -0.4938
 7225TIP3   OH221596   4.802   1.072   3.567 -0.4598 -0.0797  0.0830
 7225TIP3    H121597   4.874   1.058   3.505 -1.2746 -4.0486 -0.0549
 7225TIP3    H221598   4.724   1.081   3.512 -1.0248 -2.5200  0.4506
 7226TIP3   OH221599   7.781   2.220   3.479  0.3974 -0.1213  0.2893
 7226TIP3    H121600   7.860   2.219   3.425  1.3042 -2.0241  1.5959
 7226TIP3    H221601   7.766   2.313   3.497  2.6671  0.2392  0.4715
 7227TIP3   OH221602   6.898   1.805   5.292 -0.2266  0.3149  0.1580
 7227TIP3    H121603   6.820   1.808   5.347 -0.0564 -0.6204  0.4587
 7227TIP3    H221604   6.867   1.834   5.206 -0.8889  0.0365  0.2948
 7228TIP3   OH221605   4.641   0.782   3.824  0.2741 -0.2178 -0.0858
 7228TIP3    H121606   4.546   0.771   3.820  0.2798 -0.2114 -0.2294
 7228TIP3    H221607   4.660   0.849   3.759  0.4376 -0.5917 -0.4224
 7229TIP3   OH221608   7.327   2.987   1.900 -0.2119 -0.0363 -0.0475
 7229TIP3    H121609   7.376   2.985   1.982  2.6891  1.2886 -1.6560
 7229TIP3    H221610   7.385   2.944   1.837 -2.6183 -1.5007 -1.3058
 7230TIP3   OH221611   7.586   2.413   2.557 -0.2525 -0.1900  0.1759
 7230TIP3    H121612   7.529   2.420   2.634  0.1010  0.3643  0.3892
 7230TIP3    H221613   7.593   2.503   2.525  2.6481  0.1685  1.7063
 7231TIP3   OH221614   7.550   2.638   3.237  0.1791 -0.5701 -0.0419
 7231TIP3    H121615   7.548   2.661   3.144  0.2769 -0.4006 -0.0020
 7231TIP3    H221616   7.603   2.706   3.278  0.2303 -0.7073  0.1220
 7232TIP3   OH221617   6.199   0.150   3.308  0.4202 -0.1579 -0.6118
 7232TIP3    H121618   6.194   0.231   3.257 -0.1706  0.5219  0.5241
 7232TIP3    H221619   6.133   0.093   3.269 -1.7403  1.2404  0.9364
 7233TIP3   OH221620   6.823   1.743   4.740  0.0775  0.4154  0.2867
 7233TIP3    H121621   6.889   1.697   4.792 -0.7096 -1.7736 -0.6078
 7233TIP3    H221622   6.868   1.765   4.659  0.3343  0.8483  0.5453
 7234TIP3   OH221623   4.571   3.007   5.636 -0.1011 -0.0435 -0.1881
 7234TIP3    H121624   4.570   2.979   5.544 -1.1249  0.9715 -0.4869
 7234TIP3    H221625   4.484   2.987   5.669 -0.7779  2.5454 -0.3394
 7235TIP3   OH221626   7.355   2.099   4.414 -0.1064  0.1982  0.2131
 7235TIP3    H121627   7.438   2.133   4.380  0.4443 -0.4758  0.8849
 7235TIP3    H221628   7.333   2.026   4.355  0.4260 -0.4347  0.7882
 7236TIP3   OH221629   7.648   1.555   5.035  0.0739 -0.3494 -0.3308
 7236TIP3    H121630   7.671   1.527   4.946 -0.4309 -0.4473 -0.4324
 7236TIP3    H221631   7.715   1.516   5.091  0.4593 -0.1979 -0.6798
 7237TIP3   OH221632   5.609   1.796   3.573  0.0087 -0.8299  0.5285
 7237TIP3    H121633   5.557   1.791   3.493  0.0394 -2.0541  0.5787
 7237TIP3    H221634   5.568   1.865   3.625  1.0962  1.2647 -1.3338
 7238TIP3   OH221635   7.320   2.991   3.008  0.1862 -0.2393 -0.0790
 7238TIP3    H121636   7.300   2.980   2.915  0.0315  1.7346 -0.3028
 7238TIP3    H221637   7.308   3.085   3.024  1.8825 -0.2789  1.5393
 7239TIP3   OH221638   7.399   3.213   3.190  0.0308  0.0676 -0.1067
 7239TIP3    H121639   7.483   3.173   3.212 -0.9243 -1.3962  0.9503
 7239TIP3    H221640   7.422   3.293   3.142  2.0097 -0.3935  0.0494
 7240TIP3   OH221641   6.365   4.008   4.090  0.0666 -0.1346 -0.4012
 7240TIP3    H121642   6.446   4.018   4.041  0.1886 -0.8324 -0.3447
 7240TIP3    H221643   6.388   4.030   4.181  0.5867 -1.9354 -0.0783
 7241TIP3   OH221644   6.024   2.820   2.805  0.2567  0.0535 -0.1681
 7241TIP3    H121645   6.010   2.905   2.848  1.3461  0.2380 -0.1831
 7241TIP3    H221646   6.078   2.840   2.729  0.6655 -0.6861 -0.0774
 7242TIP3   OH221647   6.781   2.726   2.647  0.0558 -0.1892 -0.0508
 7242TIP3    H121648   6.824   2.682   2.574 -0.7473 -0.7794 -0.1778
 7242TIP3    H221649   6.839   2.712   2.721  0.5090 -0.2193 -0.4075
 7243TIP3   OH221650   8.143   1.672   4.727  0.7250  0.5583 -0.4750
 7243TIP3    H121651   8.178   1.612   4.792 -0.5102  0.3091 -0.0170
 7243TIP3    H221652   8.203   1.747   4.728 -0.1406  1.2781  2.1215
 7244TIP3   OH221653   7.697   3.328   2.589 -0.6588  0.7491  0.2358
 7244TIP3    H121654   7.650   3.305   2.669 -0.8521  2.2933  0.5910
 7244TIP3    H221655   7.786   3.297   2.603 -0.6860  1.0500  1.0711
 7245TIP3   OH221656   6.170   2.537   6.538  0.7276 -0.0351 -0.3840
 7245TIP3    H121657   6.211   2.538   6.624  2.1701  1.3660 -1.0713
 7245TIP3    H221658   6.121   2.620   6.534 -0.5144 -0.7477 -0.3783
 7246TIP3   OH221659   5.089   2.673   6.017  0.6165 -0.1815 -0.2231
 7246TIP3    H121660   5.098   2.737   5.946  0.7561  0.6471  0.5387
 7246TIP3    H221661   5.176   2.634   6.024  0.8215  0.3272  0.0534
 7247TIP3   OH221662   6.365   2.968   2.412 -0.0420  0.1439  0.4359
 7247TIP3    H121663   6.346   2.910   2.338  0.4444 -1.1773  1.3396
 7247TIP3    H221664   6.445   3.013   2.387 -0.6632  0.7692 -0.4621
 7248TIP3   OH221665   6.690   0.164   6.023  0.4392  0.3062 -0.5786
 7248TIP3    H121666   6.727   0.076   6.022 -0.2533  0.0085 -0.9537
 7248TIP3    H221667   6.709   0.199   5.936  1.9249  1.0553  0.0368
 7249TIP3   OH221668   6.064   4.403   3.351 -0.1586  0.0573  0.3676
 7249TIP3    H121669   6.031   4.417   3.262  0.5093  3.1874  0.5513
 7249TIP3    H221670   6.131   4.335   3.341  0.3537  0.8111 -1.6360
 7250TIP3   OH221671   4.999   2.719   3.268  0.0661 -0.2009 -0.0356
 7250TIP3    H121672   4.913   2.733   3.308  1.2119  1.7572  1.8850
 7250TIP3    H221673   5.005   2.624   3.256 -2.2337 -0.3956  0.0349
 7251TIP3   OH221674   6.166   5.678   2.774 -0.4775 -0.8180  0.3804
 7251TIP3    H121675   6.215   5.760   2.764  0.2184 -1.0726  1.5989
 7251TIP3    H221676   6.178   5.633   2.690  1.1197 -0.7160  0.5213
 7252TIP3   OH221677   7.456   4.721   3.264 -0.6232 -0.1782 -0.1424
 7252TIP3    H121678   7.487   4.792   3.320  1.0270 -1.6330  0.8625
 7252TIP3    H221679   7.483   4.641   3.310 -2.9561 -1.4693 -0.9386
 7253TIP3   OH221680   7.419   1.889   5.317 -0.0978  0.5387 -0.1529
 7253TIP3    H121681   7.353   1.828   5.284  0.2533  1.3428 -2.4847
 7253TIP3    H221682   7.476   1.836   5.373 -3.1965  0.0235  2.6498
 7254TIP3   OH221683   2.340   2.881   3.463 -0.4002  0.0029 -0.1929
 7254TIP3    H121684   2.429   2.887   3.497 -0.8066  0.3134  0.8393
 7254TIP3    H221685   2.351   2.855   3.372  0.7171 -0.8092  0.1552
 7255TIP3   OH221686   3.635   0.862   6.171  0.1391 -0.2118 -0.3103
 7255TIP3    H121687   3.548   0.895   6.189  0.1656 -1.3050  1.9859
 7255TIP3    H221688   3.625   0.811   6.090 -1.0812  0.5891 -0.6747
 7256TIP3   OH221689   6.492   2.444   3.439 -0.4550 -0.2780 -0.2597
 7256TIP3    H121690   6.543   2.457   3.359  1.5902 -1.4652  0.8087
 7256TIP3    H221691   6.423   2.383   3.414  0.5537 -1.1392 -0.9875
 7257TIP3   OH221692   6.016   2.206   4.375 -0.2893 -0.1852  0.4750
 7257TIP3    H121693   6.015   2.192   4.280 -0.6233  1.1733  0.2743
 7257TIP3    H221694   5.990   2.121   4.411 -1.2034 -0.4066 -0.6788
 7258TIP3   OH221695   6.235   2.102   1.144 -0.2315  0.3105 -0.0580
 7258TIP3    H121696   6.170   2.065   1.203  1.5882 -0.5185  1.4722
 7258TIP3    H221697   6.260   2.185   1.184  0.6350 -0.0165  0.1023
 7259TIP3   OH221698   6.164   2.183   4.776 -0.1016  0.5254 -0.2926
 7259TIP3    H121699   6.141   2.229   4.858 -1.1046  0.5355 -0.5774
 7259TIP3    H221700   6.253   2.150   4.792 -0.8591 -0.8130  1.3993
 7260TIP3   OH221701   5.623   0.939   2.344 -0.2650  0.4587  0.0005
 7260TIP3    H121702   5.563   0.899   2.407  0.0515  0.6107  0.4037
 7260TIP3    H221703   5.566   0.984   2.282 -0.6959 -1.8911 -1.3635
 7261TIP3   OH221704   5.924   1.634   5.270  0.4347  0.3559  0.1401
 7261TIP3    H121705   5.972   1.571   5.216 -1.7400 -2.8495  1.7715
 7261TIP3    H221706   5.873   1.685   5.207  0.8566 -0.7386 -1.1210
 7262TIP3   OH221707   7.545   0.480   5.424  0.3838  0.0310 -0.2293
 7262TIP3    H121708   7.568   0.564   5.464  2.4944 -0.3786 -0.5164
 7262TIP3    H221709   7.451   0.471   5.439  0.5889  1.2770  1.9715
 7263TIP3   OH221710   6.836   3.986   3.384  0.0526 -0.3279 -0.6047
 7263TIP3    H121711   6.882   4.019   3.307  1.3858  0.6082  0.5733
 7263TIP3    H221712   6.900   3.931   3.429 -1.3565 -2.5729 -1.2062
 7264TIP3   OH221713   4.757   1.230   5.086  0.4361 -0.3070  0.0525
 7264TIP3    H121714   4.703   1.309   5.091 -2.0769 -2.0032  0.4402
 7264TIP3    H221715   4.809   1.232   5.166 -1.3671 -0.2652  1.2497
 7265TIP3   OH221716   7.189   2.499   4.924 -0.8032 -0.2207 -0.2357
 7265TIP3    H121717   7.112   2.552   4.907  0.4514  1.2810 -1.3313
 7265TIP3    H221718   7.263   2.559   4.915  0.4117 -1.2184  2.5448
 7266TIP3   OH221719   5.057   0.300   5.527  0.3708  0.9233 -0.5619
 7266TIP3    H121720   5.074   0.267   5.439  1.6331  1.1031 -0.3993
 7266TIP3    H221721   5.140   0.289   5.573  0.1178  2.0870  0.1971
 7267TIP3   OH221722   6.407   3.764   3.092 -0.3328  0.0261 -0.1208
 7267TIP3    H121723   6.490   3.739   3.052 -0.5605 -1.6674  0.3990
 7267TIP3    H221724   6.421   3.752   3.186 -0.3423  2.3023  0.1856
 7268TIP3   OH221725   4.448   3.324   4.128 -0.5761  0.3857 -0.0818
 7268TIP3    H121726   4.378   3.379   4.093 -0.1866  0.2559 -1.0971
 7268TIP3    H221727   4.515   3.386   4.156  0.0958  0.4409 -1.7285
 7269TIP3   OH221728   7.569   0.691   6.288  0.3485  0.0603  0.2797
 7269TIP3    H121729   7.552   0.602   6.318 -0.6970  0.9287  2.3704
 7269TIP3    H221730   7.662   0.704   6.306  0.3508 -0.3776  0.6072
 7270TIP3   OH221731   6.481   2.199   4.560  0.6667 -0.6861  0.6867
 7270TIP3    H121732   6.537   2.200   4.482 -0.1927 -1.3827  0.0565
 7270TIP3    H221733   6.495   2.112   4.598 -3.1255 -2.4831 -1.7863
 7271TIP3   OH221734   5.981   2.844   3.877 -0.4175  0.4249  0.2817
 7271TIP3    H121735   5.960   2.752   3.893  2.1033 -0.6026 -1.9419
 7271TIP3    H221736   5.989   2.850   3.781 -0.2222  2.9011  0.4239
 7272TIP3   OH221737   7.017   2.439   3.147 -0.2837  0.4568  0.3808
 7272TIP3    H121738   7.013   2.519   3.199  0.1410 -0.1790  1.3917
 7272TIP3    H221739   7.020   2.368   3.211 -1.1345 -0.4028 -0.5119
 7273TIP3   OH221740   5.513   0.821   5.590 -0.4494 -0.2048 -0.6262
 7273TIP3    H121741   5.600   0.856   5.570 -0.4830 -0.6687 -1.6430
 7273TIP3    H221742   5.508   0.822   5.685  0.8092 -0.5009 -0.5463
 7274TIP3   OH221743   8.384   5.435   3.178  0.0624  0.4539  0.4490
 7274TIP3    H121744   8.425   5.521   3.163  1.6892 -0.6105 -1.4200
 7274TIP3    H221745   8.456   5.373   3.175 -1.4076 -1.2489 -0.7916
 7275TIP3   OH221746   0.142   3.946   5.279  0.0408 -0.2148 -0.6566
 7275TIP3    H121747   0.073   4.004   5.248  2.0758  1.5274 -2.0117
 7275TIP3    H221748   0.156   3.972   5.370 -1.7446 -1.2320 -0.0846
 7276TIP3   OH221749   5.689   1.213   4.916  0.1243  0.0050  0.1024
 7276TIP3    H121750   5.655   1.298   4.887  0.8079  0.0909 -0.4532
 7276TIP3    H221751   5.714   1.169   4.835 -1.1748 -1.1383  0.2954
 7277TIP3   OH221752   6.734   0.589   1.175  0.1280 -0.1543  0.1746
 7277TIP3    H121753   6.720   0.640   1.096  1.1705 -1.2658 -0.7403
 7277TIP3    H221754   6.646   0.568   1.206 -0.2959  1.0593 -0.1647
 7278TIP3   OH221755   6.110   3.476   3.695  0.5139  0.1171  0.5741
 7278TIP3    H121756   6.019   3.500   3.715  1.5376  1.9912  3.1816
 7278TIP3    H221757   6.138   3.538   3.628 -0.2017 -0.7247 -0.5420
 7279TIP3   OH221758   5.738   1.423   3.782 -0.4721 -0.0872  0.1217
 7279TIP3    H121759   5.783   1.482   3.842 -1.3769  0.7196  0.0093
 7279TIP3    H221760   5.703   1.354   3.838 -0.9539  0.4421  0.4710
 7280TIP3   OH221761   4.385   3.168   1.830  0.4231 -0.1955  0.1233
 7280TIP3    H121762   4.316   3.234   1.842 -1.1673 -1.7122 -0.4576
 7280TIP3    H221763   4.446   3.184   1.902 -0.9075  0.7223  1.0816
 7281TIP3   OH221764   7.060   3.467   5.519 -0.0727 -0.1063  0.3870
 7281TIP3    H121765   7.024   3.390   5.476 -0.3414 -1.1055  2.3400
 7281TIP3    H221766   7.018   3.541   5.475  1.7070 -0.9476 -2.8889
 7282TIP3   OH221767   6.968   2.238   5.174  0.5182  0.6510 -0.4844
 7282TIP3    H121768   7.019   2.238   5.093  0.4078 -0.3351 -0.5634
 7282TIP3    H221769   6.992   2.319   5.218  1.0723  0.8778 -1.1998
 7283TIP3   OH221770   4.033   0.432   4.108 -0.2156 -0.5640  0.7201
 7283TIP3    H121771   4.083   0.375   4.167 -1.5822 -1.5618  0.9508
 7283TIP3    H221772   3.941   0.412   4.128 -0.7120  1.2118  0.2968
 7284TIP3   OH221773   5.108   2.149   4.629  0.0938 -0.7413  0.3841
 7284TIP3    H121774   5.134   2.193   4.548 -0.4542 -1.2342 -0.0653
 7284TIP3    H221775   5.021   2.114   4.611 -0.2620 -0.4043  1.3699
 7285TIP3   OH221776   8.103   1.136   6.459 -0.2030  0.4214  0.0041
 7285TIP3    H121777   8.010   1.149   6.443 -0.0254  0.1208 -1.3259
 7285TIP3    H221778   8.107   1.099   6.547 -1.3456  0.3371  0.0309
 7286TIP3   OH221779   6.271   1.501   6.438  0.3980 -0.1643 -0.5651
 7286TIP3    H121780   6.332   1.464   6.502  2.0477  0.6171 -1.6550
 7286TIP3    H221781   6.293   1.457   6.356  0.3259  1.0213 -1.2297
 7287TIP3   OH221782   6.914   2.089   3.605  0.1148  0.0617 -0.3127
 7287TIP3    H121783   7.006   2.107   3.627  0.4322  0.8165 -2.1926
 7287TIP3    H221784   6.864   2.127   3.678  1.4035 -3.4086  2.4998
 7288TIP3   OH221785   6.640   2.673   3.990  0.0028  0.9505  0.4289
 7288TIP3    H121786   6.551   2.646   4.007  0.2351  0.7047  1.2776
 7288TIP3    H221787   6.692   2.594   3.999  0.4019  1.2409  0.7370
 7289TIP3   OH221788   6.471   1.860   4.218 -0.5133  0.3384 -0.2428
 7289TIP3    H121789   6.415   1.938   4.224  0.7316  1.2561 -0.3168
 7289TIP3    H221790   6.558   1.895   4.197  0.3229 -0.9907  0.9654
 7290TIP3   OH221791   7.017   4.731   2.932  0.2852  0.3756 -0.0318
 7290TIP3    H121792   7.023   4.817   2.890  0.5476  0.6088  0.4797
 7290TIP3    H221793   6.924   4.720   2.948  0.2396  0.5259 -0.1817
 7291TIP3   OH221794   7.480   3.036   3.540 -0.5249  0.4578  0.2475
 7291TIP3    H121795   7.416   2.988   3.593 -0.3383  1.4300  1.3559
 7291TIP3    H221796   7.565   3.009   3.576 -0.4741  3.8045  2.8248
 7292TIP3   OH221797   4.621   2.238   6.134 -0.1786  0.5376  0.0671
 7292TIP3    H121798   4.567   2.241   6.054 -1.0478 -0.2482  0.6113
 7292TIP3    H221799   4.666   2.323   6.135 -1.0249  1.0173 -0.6690
 7293TIP3   OH221800   5.495   2.389   3.737 -0.1377 -0.1260  0.0700
 7293TIP3    H121801   5.567   2.410   3.796 -0.2802 -0.2961  0.3037
 7293TIP3    H221802   5.417   2.393   3.792 -0.3989  0.8777 -0.3515
 7294TIP3   OH221803   7.336   1.975   3.756  0.4298  0.1269 -0.3844
 7294TIP3    H121804   7.333   1.880   3.749  0.0723  0.1402 -0.4414
 7294TIP3    H221805   7.429   1.996   3.762  0.4519 -0.3193  0.9986
 7295TIP3   OH221806   6.569   1.614   5.082  0.0652  0.1449  0.0945
 7295TIP3    H121807   6.563   1.546   5.016 -0.0924 -0.1214  0.3812
 7295TIP3    H221808   6.485   1.660   5.076 -0.3601 -0.5340  0.8151
 7296TIP3   OH221809   4.808   2.384   2.653 -0.3539 -0.5178  0.5449
 7296TIP3    H121810   4.745   2.331   2.605 -0.3790 -0.3596  0.4032
 7296TIP3    H221811   4.893   2.344   2.634 -0.4692 -1.1255  1.2493
 7297TIP3   OH221812   6.294   2.647   3.166 -0.8912  0.1115  0.0965
 7297TIP3    H121813   6.344   2.673   3.243 -0.7927  0.3773 -0.0560
 7297TIP3    H221814   6.355   2.598   3.112 -1.0099 -0.2350  0.2707
 7298TIP3   OH221815   6.838   2.430   3.504 -0.2754  0.6828  0.2841
 7298TIP3    H121816   6.855   2.512   3.456  0.0509  0.5470  0.1666
 7298TIP3    H221817   6.746   2.435   3.528  0.1870  1.9220  1.8766
 7299TIP3   OH221818   5.848   2.563   3.897  0.2071 -0.2000 -0.5900
 7299TIP3    H121819   5.888   2.587   3.980 -1.2295 -1.2574  0.4299
 7299TIP3    H221820   5.910   2.501   3.858  0.0437 -1.0922  0.5360
 7300TIP3   OH221821   0.629   1.904   3.391  0.2219  0.1528  0.6268
 7300TIP3    H121822   0.663   1.953   3.317  1.9667  0.2905  1.4899
 7300TIP3    H221823   0.632   1.965   3.465 -2.6620  0.4152  0.5973
 7301TIP3   OH221824   7.668   0.968   2.753  0.1636 -0.3964 -0.0204
 7301TIP3    H121825   7.682   1.059   2.729  0.7442 -1.0244 -2.1318
 7301TIP3    H221826   7.615   0.972   2.832 -0.4176  1.7538 -0.5012
 7302TIP3   OH221827   6.687   2.111   5.181  0.3675 -0.0575 -0.5395
 7302TIP3    H121828   6.724   2.033   5.140  1.5123 -1.0087  2.1528
 7302TIP3    H221829   6.748   2.131   5.252 -0.3394  2.8363 -0.7104
 7303TIP3   OH221830   5.738   0.546   4.224 -0.7772  0.7745 -0.0496
 7303TIP3    H121831   5.660   0.560   4.171 -0.1178  0.8668 -1.0180
 7303TIP3    H221832   5.791   0.625   4.211 -0.4590  0.6544  0.4811
 7304TIP3   OH221833   4.895   3.524   3.505 -0.2338 -0.5729 -0.5377
 7304TIP3    H121834   4.940   3.440   3.511 -0.2660 -0.5033  0.8494
 7304TIP3    H221835   4.833   3.523   3.578  0.8158  1.2801  0.3935
 7305TIP3   OH221836   5.586   2.514   4.487  0.7936 -0.0618  0.4710
 7305TIP3    H121837   5.595   2.560   4.404 -1.1340  0.5600  0.5995
 7305TIP3    H221838   5.587   2.421   4.463 -0.1703  0.1196 -0.2917
 7306TIP3   OH221839   4.608   1.904   4.015 -0.2944 -0.5549  0.3091
 7306TIP3    H121840   4.628   1.996   4.031  1.2570 -0.8608  0.1708
 7306TIP3    H221841   4.559   1.904   3.933  0.1785  0.1064  0.0219
 7307TIP3   OH221842   6.703   1.291   3.482 -0.3824 -0.3031  0.7899
 7307TIP3    H121843   6.609   1.292   3.465 -0.2512 -1.0551 -0.0338
 7307TIP3    H221844   6.728   1.199   3.472  0.3065 -0.2325  1.7756
 7308TIP3   OH221845   8.165   1.352   4.919 -0.9497  0.2022  0.0718
 7308TIP3    H121846   8.234   1.324   4.860 -0.5416  2.2900 -0.4778
 7308TIP3    H221847   8.108   1.275   4.928  0.2124 -0.8251 -1.2325
 7309TIP3   OH221848   4.620   1.571   3.439 -0.4343 -0.1334 -0.1076
 7309TIP3    H121849   4.625   1.546   3.346  0.8869  1.0171 -0.3528
 7309TIP3    H221850   4.610   1.488   3.485  0.9500 -0.8886 -1.1319
 7310TIP3   OH221851   6.228   2.303   5.112  0.3445 -0.7523 -0.6702
 7310TIP3    H121852   6.141   2.309   5.072  0.0976  0.4189  0.0064
 7310TIP3    H221853   6.258   2.394   5.116 -0.1322 -0.6921  2.8977
 7311TIP3   OH221854   5.222   2.224   5.938  0.0379 -0.2838  0.0048
 7311TIP3    H121855   5.266   2.263   6.014 -0.0667  2.2356 -1.1697
 7311TIP3    H221856   5.267   2.262   5.862 -2.9612  1.0155 -1.2163
 7312TIP3   OH221857   8.511   3.019   1.959 -0.1037 -0.7393  0.3003
 7312TIP3    H121858   8.480   3.056   2.042  1.3543  0.7339  0.2144
 7312TIP3    H221859   8.451   2.947   1.941 -2.3657  0.8981  1.0557
 7313TIP3   OH221860   6.655   5.147   3.042 -0.1771 -0.0633 -1.3547
 7313TIP3    H121861   6.581   5.090   3.065  1.2607 -1.4392 -0.0670
 7313TIP3    H221862   6.685   5.113   2.957  0.5181 -1.0974 -0.7097
 7314TIP3   OH221863   5.597   0.120   4.009  0.3575 -0.3765  0.4782
 7314TIP3    H121864   5.581   0.184   4.078  1.4159  0.6129 -0.1738
 7314TIP3    H221865   5.515   0.070   4.002 -0.9147  1.7219  0.1320
 7315TIP3   OH221866   7.944   1.472   2.305  0.0271 -0.5918  0.6312
 7315TIP3    H121867   7.952   1.563   2.276 -1.6063 -0.4728  0.4837
 7315TIP3    H221868   7.903   1.478   2.391 -0.2850 -1.1863  0.5291
 7316TIP3   OH221869   7.282   4.135   1.924 -0.5781  0.1218  0.1681
 7316TIP3    H121870   7.326   4.220   1.921 -1.1213  0.4189  0.6261
 7316TIP3    H221871   7.229   4.133   1.844 -0.4258  0.1427  0.0673
 7317TIP3   OH221872   5.663   3.625   4.223  0.5012 -0.2423 -0.1785
 7317TIP3    H121873   5.672   3.672   4.306  4.2483  0.7572 -1.0778
 7317TIP3    H221874   5.685   3.535   4.245  1.4012  0.0013 -0.0548
 7318TIP3   OH221875   6.328   0.618   3.514 -0.5756 -0.0326  0.0608
 7318TIP3    H121876   6.255   0.562   3.542 -0.8567  1.1417  1.7719
 7318TIP3    H221877   6.294   0.708   3.522  1.3491  0.5805  1.8340
 7319TIP3   OH221878   4.982   2.692   2.304 -0.7173 -0.5091 -0.7365
 7319TIP3    H121879   4.944   2.609   2.275 -0.2054 -1.4027  1.0532
 7319TIP3    H221880   5.076   2.680   2.296 -0.5456 -0.8813  1.4375
 7320TIP3   OH221881   6.643   0.444   5.196  0.0891  0.0059 -0.2925
 7320TIP3    H121882   6.726   0.466   5.154 -0.4344  0.6862 -1.0063
 7320TIP3    H221883   6.632   0.512   5.263  0.3928 -0.4367  0.2112
 7321TIP3   OH221884   5.576   1.486   1.317  0.5221 -0.2546  0.7317
 7321TIP3    H121885   5.561   1.565   1.265  0.5173 -0.3662  0.5637
 7321TIP3    H221886   5.491   1.465   1.355  0.4125 -0.4687  0.3684
 7322TIP3   OH221887   6.778   4.460   2.894 -0.4000  0.1776 -0.7836
 7322TIP3    H121888   6.749   4.551   2.887  1.6405  0.8777 -0.6014
 7322TIP3    H221889   6.831   4.446   2.815 -0.7714 -0.8907 -0.8540
 7323TIP3   OH221890   6.183   4.252   4.494 -0.0142  0.6262 -0.3631
 7323TIP3    H121891   6.242   4.213   4.558  0.8167  0.1624 -1.3872
 7323TIP3    H221892   6.232   4.325   4.457 -1.1156  1.9118  0.6952
 7324TIP3   OH221893   4.776   4.156   3.860  0.1337  0.0918 -0.2985
 7324TIP3    H121894   4.783   4.247   3.887 -1.6227  0.5078 -1.1772
 7324TIP3    H221895   4.757   4.159   3.767 -0.2473 -1.1675 -0.2812
 7325TIP3   OH221896   7.654   4.148   4.844  0.2820  0.1753 -0.3464
 7325TIP3    H121897   7.610   4.138   4.760 -0.7541 -0.4540  0.2636
 7325TIP3    H221898   7.655   4.242   4.860 -1.4458  0.1659 -0.0651
 7326TIP3   OH221899   6.159   2.732   1.729 -0.3619  0.0249  0.1771
 7326TIP3    H121900   6.252   2.745   1.710  0.2303  0.2456  3.0038
 7326TIP3    H221901   6.156   2.645   1.770 -1.3665  0.1023  0.2619
 7327TIP3   OH221902   5.127   2.772   5.111 -0.2635  0.0133  0.5108
 7327TIP3    H121903   5.110   2.865   5.097  0.1032  0.2375  1.5494
 7327TIP3    H221904   5.222   2.763   5.101 -0.4215 -0.4407 -0.6604
 7328TIP3   OH221905   7.378   1.368   4.842  0.1539 -0.2056  0.0752
 7328TIP3    H121906   7.339   1.283   4.825  0.1163  0.1156 -1.5218
 7328TIP3    H221907   7.458   1.369   4.790 -0.8082  1.4327 -1.4875
 7329TIP3   OH221908   8.075   1.048   3.292 -0.5035  0.3077 -0.3829
 7329TIP3    H121909   8.130   1.043   3.214 -0.5483  0.4213 -0.4228
 7329TIP3    H221910   8.001   1.103   3.265  0.3306  1.7616  0.2468
 7330TIP3   OH221911   5.616   1.147   3.526  0.1918  0.1422 -0.0474
 7330TIP3    H121912   5.544   1.207   3.505  0.7815  0.2764 -1.7760
 7330TIP3    H221913   5.601   1.122   3.617 -0.8278  1.8521  0.2726
 7331TIP3   OH221914   6.883   3.081   4.271  0.2612  0.2453 -0.3428
 7331TIP3    H121915   6.945   3.017   4.235  1.3868  2.0414 -1.6605
 7331TIP3    H221916   6.816   3.090   4.203 -0.5462 -0.4040  0.3509
 7332TIP3   OH221917   7.157   1.712   7.151  0.1364 -0.5699 -0.2528
 7332TIP3    H121918   7.211   1.755   7.084  1.9633 -2.7029 -0.2417
 7332TIP3    H221919   7.198   1.736   7.234 -0.0346 -0.7141 -0.1257
 7333TIP3   OH221920   6.647   1.895   4.525  0.7910  0.0197 -0.6145
 7333TIP3    H121921   6.678   1.814   4.485  1.6210  0.1188 -0.1896
 7333TIP3    H221922   6.683   1.964   4.469 -0.4614  0.0823 -1.3543
 7334TIP3   OH221923   5.227   1.924   6.615 -0.3816 -0.4859  0.5600
 7334TIP3    H121924   5.238   1.899   6.707  0.5619 -1.7981  0.1024
 7334TIP3    H221925   5.143   1.886   6.591 -0.4647 -0.4430  0.7761
 7335TIP3   OH221926   5.546   0.654   4.037 -0.1777 -0.8382  0.4276
 7335TIP3    H121927   5.490   0.606   3.975  0.1205  0.3476 -0.7524
 7335TIP3    H221928   5.631   0.657   3.995 -0.3775  1.3901  0.1517
 7336TIP3   OH221929   6.142   2.550   2.600 -0.5418  0.2401  0.3567
 7336TIP3    H121930   6.145   2.645   2.600  0.6722  0.2127  0.9674
 7336TIP3    H221931   6.062   2.528   2.649 -1.5964  0.9479 -1.0389
 7337TIP3   OH221932   6.451   5.616   1.732 -0.2740  0.1973  0.1074
 7337TIP3    H121933   6.489   5.533   1.704 -1.4733  0.1768 -1.6182
 7337TIP3    H221934   6.356   5.603   1.721 -0.3954  2.2527 -1.6067
 7338TIP3   OH221935   5.590   1.604   4.024  0.0046  0.0169  0.3371
 7338TIP3    H121936   5.660   1.654   3.981 -1.3083  3.0603  1.5897
 7338TIP3    H221937   5.518   1.604   3.960 -0.7346  1.6048  1.1319
 7339TIP3   OH221938   7.193   2.241   5.802  0.0054  0.4063  0.0226
 7339TIP3    H121939   7.102   2.215   5.812  0.0476  0.0939 -0.3769
 7339TIP3    H221940   7.229   2.177   5.740  0.4804  0.5545  0.1472
 7340TIP3   OH221941   0.259   3.060   3.642  0.6431 -0.6907  0.2337
 7340TIP3    H121942   0.181   3.095   3.600  0.1675 -0.7965  1.0279
 7340TIP3    H221943   0.323   3.131   3.636  0.6456 -0.7654 -0.8200
 7341TIP3   OH221944   7.728   3.011   3.662  0.5350 -0.2146 -0.0906
 7341TIP3    H121945   7.791   3.000   3.591  1.1384 -1.9414  0.6958
 7341TIP3    H221946   7.782   3.033   3.739 -0.0550  0.9236  0.0125
 7342TIP3   OH221947   4.227   1.417   4.225 -0.3583 -0.6568 -0.0120
 7342TIP3    H121948   4.240   1.459   4.310 -2.1431 -1.1305  0.5074
 7342TIP3    H221949   4.301   1.356   4.217 -0.7939 -1.4504  1.7280
 7343TIP3   OH221950   5.092   2.955   4.816 -0.2805  0.3503 -0.1539
 7343TIP3    H121951   5.115   3.015   4.745  0.7810  0.7530  0.5163
 7343TIP3    H221952   5.098   3.008   4.895 -0.8061 -0.2592  0.2981
 7344TIP3   OH221953   7.381   5.338   2.616  0.2631 -0.0980 -0.1573
 7344TIP3    H121954   7.354   5.274   2.550 -0.2662  0.6981 -0.7243
 7344TIP3    H221955   7.467   5.368   2.587  0.6650 -0.7977  0.2957
 7345TIP3   OH221956   5.765   1.372   4.098 -0.3244  0.4070  0.3607
 7345TIP3    H121957   5.681   1.393   4.140  0.6157  3.0881  0.9691
 7345TIP3    H221958   5.821   1.446   4.118  1.8050 -0.7380 -1.1932
 7346TIP3   OH221959   6.676   3.726   2.973  0.2206 -0.1742  0.8044
 7346TIP3    H121960   6.761   3.724   3.016  1.1215 -0.2582 -0.9080
 7346TIP3    H221961   6.695   3.703   2.882 -1.6736 -0.4659  0.4489
 7347TIP3   OH221962   7.126   1.186   5.203 -0.0074  0.1522 -0.2537
 7347TIP3    H121963   7.042   1.206   5.245  0.0876 -1.4784  0.7132
 7347TIP3    H221964   7.180   1.264   5.220 -1.5581  1.5839 -1.6066
 7348TIP3   OH221965   7.868   2.447   5.025  0.8434 -0.4841 -0.0539
 7348TIP3    H121966   7.775   2.424   5.021  0.6216  0.4366 -0.4730
 7348TIP3    H221967   7.878   2.489   5.111  0.5929  0.5380 -0.5140
 7349TIP3   OH221968   5.924   1.640   6.195  0.1441 -0.3014 -0.1010
 7349TIP3    H121969   5.909   1.731   6.172  0.4978 -0.6781 -1.8979
 7349TIP3    H221970   6.006   1.640   6.244  0.1130  0.3324 -0.0526
 7350TIP3   OH221971   4.982   3.433   4.003  0.1733  0.6373  0.1098
 7350TIP3    H121972   4.984   3.338   4.005  0.8555  0.6577  0.3036
 7350TIP3    H221973   5.022   3.460   4.085  0.1036  1.0921 -0.0039
 7351TIP3   OH221974   6.098   2.474   1.802  0.2065 -0.3011  0.1324
 7351TIP3    H121975   6.108   2.454   1.895 -1.0194 -0.7678  0.1762
 7351TIP3    H221976   6.013   2.436   1.779 -0.0533  0.8605 -0.8834
 7352TIP3   OH221977   3.076   4.366   5.252 -0.5726 -0.7750 -0.2841
 7352TIP3    H121978   3.116   4.285   5.282  1.5335  0.1601 -0.5058
 7352TIP3    H221979   3.075   4.358   5.156 -0.0433 -0.3886 -0.3220
 7353TIP3   OH221980   4.563   3.500   2.330  0.4083 -0.5751 -0.0998
 7353TIP3    H121981   4.609   3.436   2.385  0.6836 -0.2744  0.0220
 7353TIP3    H221982   4.505   3.447   2.275  1.5991 -1.0304 -0.9328
 7354TIP3   OH221983   6.486   4.798   2.403 -0.3693 -0.1951  0.2389
 7354TIP3    H121984   6.527   4.875   2.443 -0.9032  0.8362 -1.1665
 7354TIP3    H221985   6.548   4.726   2.420  2.3032  1.4097 -2.1939
 7355TIP3   OH221986   6.650   1.143   2.909  0.4517  0.0075  0.0558
 7355TIP3    H121987   6.605   1.208   2.963  2.2991  1.7135 -0.3807
 7355TIP3    H221988   6.612   1.060   2.936  0.0087  0.9874  2.6839
 7356TIP3   OH221989   7.309   3.721   4.472  0.1790 -0.0007  0.2673
 7356TIP3    H121990   7.384   3.749   4.526  0.7047  0.9456 -0.9151
 7356TIP3    H221991   7.349   3.684   4.393 -0.5891  0.6730 -0.4561
 7357TIP3   OH221992   6.989   5.529   2.637 -0.0866 -0.1215 -0.0177
 7357TIP3    H121993   6.974   5.482   2.719 -0.0296  0.3196  0.2469
 7357TIP3    H221994   6.927   5.490   2.575  1.1052 -1.6947 -0.2566
 7358TIP3   OH221995   5.480   0.341   4.131  0.2222 -0.0882 -0.2364
 7358TIP3    H121996   5.495   0.305   4.218 -0.0803  0.6679  0.1326
 7358TIP3    H221997   5.385   0.336   4.119  0.4105 -1.7530 -1.2119
 7359TIP3   OH221998   7.458   2.345   3.876  0.3284  0.0999  0.1041
 7359TIP3    H121999   7.429   2.420   3.823 -1.6593 -1.4553 -1.0558
 7359TIP3    H222000   7.427   2.365   3.965 -0.5634  0.4545 -0.2863
 7360TIP3   OH222001   6.630   3.477   3.204  0.0835 -0.1795 -0.5099
 7360TIP3    H122002   6.632   3.429   3.121 -0.9107  0.0023 -0.6456
 7360TIP3    H222003   6.549   3.529   3.200  0.1367 -0.0082  0.4810
 7361TIP3   OH222004   5.763   2.930   3.346 -0.4415  0.0357  0.0632
 7361TIP3    H122005   5.691   2.870   3.362 -0.3694 -0.2652 -0.7097
 7361TIP3    H222006   5.735   2.982   3.270  0.4570 -0.5936 -0.7154
 7362TIP3   OH222007   6.926   3.923   1.730 -0.5087 -0.4819  0.2380
 7362TIP3    H122008   6.921   3.833   1.696  1.0462 -0.4189 -0.1953
 7362TIP3    H222009   7.015   3.951   1.709 -0.6971  0.8431  1.1926
 7363TIP3   OH222010   0.719   2.119   4.000  0.0817 -0.1406  0.0745
 7363TIP3    H122011   0.629   2.153   3.999 -0.2972 -1.1281 -0.1281
 7363TIP3    H222012   0.773   2.195   3.980 -0.7768  0.2935 -0.6581
 7364TIP3   OH222013   6.748   3.112   4.036  0.1867  0.0008 -0.0066
 7364TIP3    H122014   6.825   3.079   3.990  0.8073  1.0406  0.2562
 7364TIP3    H222015   6.754   3.207   4.027 -1.5330  0.0729 -0.7293
 7365TIP3   OH222016   8.145   3.678   4.221 -0.4127  0.3074  0.3763
 7365TIP3    H122017   8.121   3.591   4.191  1.1320 -1.1239  3.1124
 7365TIP3    H222018   8.065   3.712   4.262 -0.1406 -1.1065  2.1041
 7366TIP3   OH222019   7.320   2.604   3.422 -0.2199 -0.5585  0.3599
 7366TIP3    H122020   7.367   2.644   3.349  1.2611 -0.9246  1.1012
 7366TIP3    H222021   7.276   2.528   3.384  0.0131 -0.3747 -0.2759
 7367TIP3   OH222022   7.266   4.936   3.009 -0.5837 -0.1730 -0.3309
 7367TIP3    H122023   7.206   4.891   3.068 -1.1865  0.9859 -0.0409
 7367TIP3    H222024   7.252   4.893   2.924 -0.5013 -1.1164  0.1330
 7368TIP3   OH222025   8.258   4.120   2.037 -0.0839  0.1424  0.5157
 7368TIP3    H122026   8.302   4.167   2.107  0.1964  0.2702  0.2540
 7368TIP3    H222027   8.248   4.030   2.069 -0.6836  0.3932  1.0456
 7369TIP3   OH222028   7.017   2.166   3.982 -0.6822  0.2703 -0.0558
 7369TIP3    H122029   7.066   2.186   3.902 -0.5171 -1.6560 -0.4564
 7369TIP3    H222030   7.084   2.165   4.051 -0.4882 -0.1631 -0.2465
 7370TIP3   OH222031   8.124   4.566   3.338  0.3908  0.0608  0.0936
 7370TIP3    H122032   8.175   4.637   3.377  0.0948  0.1302  0.3609
 7370TIP3    H222033   8.177   4.536   3.264 -0.6251  2.3029 -1.6222
 7371TIP3   OH222034   6.215   1.471   5.622  0.0403 -0.0779  0.4320
 7371TIP3    H122035   6.163   1.454   5.700  3.2846  0.2841  2.8000
 7371TIP3    H222036   6.215   1.566   5.613  2.5840  0.1654  2.2259
 7372TIP3   OH222037   7.390   1.648   5.573 -0.5564  0.0403 -0.5284
 7372TIP3    H122038   7.463   1.672   5.630  0.5280 -1.2679 -1.3619
 7372TIP3    H222039   7.427   1.589   5.508 -2.4285 -0.9787 -0.7249
 7373TIP3   OH222040   5.924   1.639   5.560 -0.1405  0.1186  0.2570
 7373TIP3    H122041   5.907   1.550   5.592  0.3614 -0.0347  0.0954
 7373TIP3    H222042   5.978   1.627   5.482  1.2684  0.6344  1.1474
 7374TIP3   OH222043   7.516   1.366   5.696  0.2036 -0.6119  0.2941
 7374TIP3    H122044   7.509   1.437   5.760 -1.4003 -1.3211  0.9370
 7374TIP3    H222045   7.559   1.406   5.620 -0.5591  1.0141  0.6920
 7375TIP3   OH222046   5.059   0.607   4.571  0.3566  0.2772 -0.4604
 7375TIP3    H122047   5.054   0.513   4.588 -1.8969 -0.0877 -2.9418
 7375TIP3    H222048   5.128   0.616   4.505  0.8173  0.4284  0.0336
 7376TIP3   OH222049   6.356   2.018   2.488 -0.0082 -0.2742 -0.4145
 7376TIP3    H122050   6.429   2.079   2.482 -1.1075  0.9003 -2.7815
 7376TIP3    H222051   6.381   1.944   2.433 -0.7130  0.2885 -1.5162
 7377TIP3   OH222052   7.349   2.516   1.929  0.4892 -0.5749 -0.4175
 7377TIP3    H122053   7.388   2.430   1.913  0.1830 -0.5624 -1.2511
 7377TIP3    H222054   7.358   2.563   1.846 -0.1861 -0.1363 -0.2479
 7378TIP3   OH222055   3.652   1.136   3.320  0.7431  0.5735  0.1201
 7378TIP3    H122056   3.711   1.091   3.381 -1.1389 -0.5720  1.1303
 7378TIP3    H222057   3.689   1.117   3.233  3.3095  2.0303  0.8343
 7379TIP3   OH222058   5.806   3.888   3.006  0.2647  0.4266 -0.4889
 7379TIP3    H122059   5.782   3.819   3.067  0.7719  1.2842  0.7040
 7379TIP3    H222060   5.853   3.952   3.060  0.9064  1.0915 -1.8213
 7380TIP3   OH222061   8.019   1.287   6.771 -0.3620 -0.2889  0.1107
 7380TIP3    H122062   8.045   1.366   6.818  2.2786 -0.4955 -0.9562
 7380TIP3    H222063   8.097   1.232   6.771 -1.9875 -2.6632  0.2993
 7381TIP3   OH222064   6.250   2.031   4.226  0.5992 -0.2386 -0.1786
 7381TIP3    H122065   6.239   2.059   4.317 -0.4781  0.2354 -0.4441
 7381TIP3    H222066   6.255   2.112   4.177 -0.8908 -0.4873 -0.7687
 7382TIP3   OH222067   4.909   2.363   4.636  0.2545 -0.3056  0.4307
 7382TIP3    H122068   5.001   2.337   4.628  0.5894  0.5503  1.2946
 7382TIP3    H222069   4.888   2.345   4.728 -0.3563 -0.2244  0.3068
 7383TIP3   OH222070   8.033   4.642   2.375 -0.0658  0.1023  0.3575
 7383TIP3    H122071   8.002   4.571   2.433 -1.2431  1.0323  0.8937
 7383TIP3    H222072   8.101   4.686   2.426 -0.7611  0.6173  0.8520
 7384TIP3   OH222073   7.130   1.582   4.600 -0.5061  0.0076  0.0489
 7384TIP3    H122074   7.189   1.527   4.548 -1.6948 -0.3631 -0.9276
 7384TIP3    H222075   7.093   1.523   4.665  0.5335  0.3451  0.9773
 7385TIP3   OH222076   6.726   1.867   3.814  0.0797 -0.1166  0.1977
 7385TIP3    H122077   6.657   1.925   3.781  1.9717  2.1106  0.0988
 7385TIP3    H222078   6.732   1.798   3.747 -2.3164 -0.6057  0.4227
 7386TIP3   OH222079   5.731   2.081   4.317  0.3721 -0.0705  0.1962
 7386TIP3    H122080   5.734   2.157   4.375  0.8918  1.2266 -1.4957
 7386TIP3    H222081   5.665   2.024   4.356 -0.7479  1.6991  0.9634
 7387TIP3   OH222082   5.392   3.686   2.926  0.7433  0.0665 -0.0889
 7387TIP3    H122083   5.309   3.643   2.945  0.5904 -0.5597 -2.0636
 7387TIP3    H222084   5.419   3.725   3.010 -0.5069 -1.4689  1.0559
 7388TIP3   OH222085   7.183   5.488   5.138  0.1944  0.1874 -0.4657
 7388TIP3    H122086   7.210   5.408   5.183  0.2433 -0.8758 -2.3616
 7388TIP3    H222087   7.250   5.552   5.163  0.7143 -0.6219  0.2616
 7389TIP3   OH222088   7.157   4.767   3.970  0.1655  0.4855 -0.1457
 7389TIP3    H122089   7.150   4.782   4.065 -0.7157 -0.2808 -0.0822
 7389TIP3    H222090   7.251   4.753   3.955  0.0985 -1.2662  0.9187
 7390TIP3   OH222091   6.069   1.662   4.945  0.2547 -0.2576 -0.2040
 7390TIP3    H122092   6.064   1.568   4.963  1.8518 -0.3839 -0.3616
 7390TIP3    H222093   6.055   1.669   4.850 -0.8562 -0.2413 -0.0445
 7391TIP3   OH222094   2.328   2.802   5.105 -0.0126  0.3855  0.2894
 7391TIP3    H122095   2.404   2.799   5.047  0.3378 -0.1588  0.7774
 7391TIP3    H222096   2.291   2.714   5.102  0.4665  0.1407  1.5077
 7392TIP3   OH222097   4.610   2.321   5.101  0.1805 -0.0983 -0.2112
 7392TIP3    H122098   4.679   2.355   5.158  0.2078 -0.0632 -0.2637
 7392TIP3    H222099   4.553   2.271   5.158 -1.1809  1.9891  0.3313
 7393TIP3   OH222100   7.320   1.924   2.118 -0.2197 -0.0117 -0.6526
 7393TIP3    H122101   7.396   1.938   2.174  1.7090 -1.1553 -2.8708
 7393TIP3    H222102   7.259   1.873   2.172  0.4457  1.1590  1.2512
 7394TIP3   OH222103   7.801   2.028   2.946 -0.4797  0.1087 -0.0741
 7394TIP3    H122104   7.795   2.071   2.860 -0.3135  1.3767  0.5361
 7394TIP3    H222105   7.894   2.011   2.958 -0.5021 -0.0628 -0.1484
 7395TIP3   OH222106   8.418   3.072   2.859  0.3825 -0.2134 -0.0683
 7395TIP3    H122107   8.461   2.994   2.893 -1.1563  0.0912  2.6514
 7395TIP3    H222108   8.455   3.083   2.771  1.0600 -3.6219 -0.2629
 7396TIP3   OH222109   7.589   2.470   2.960 -0.1535  0.5994 -0.2579
 7396TIP3    H122110   7.524   2.454   2.893 -0.8527  1.3967  0.2270
 7396TIP3    H222111   7.559   2.420   3.036  1.6322 -1.8769 -1.0909
 7397TIP3   OH222112   1.029   8.178   2.336 -0.1247  0.2984 -0.2117
 7397TIP3    H122113   0.958   8.152   2.395  1.0190 -1.9224  0.2553
 7397TIP3    H222114   0.992   8.168   2.248 -0.9432  0.8642  0.0683
 7398TIP3   OH222115   5.360   1.583   0.495  0.5239  0.0039 -0.4771
 7398TIP3    H122116   5.446   1.613   0.526  0.1292  0.7077 -0.0404
 7398TIP3    H222117   5.315   1.554   0.574 -0.6360  2.1779 -0.3030
 7399TIP3   OH222118   5.387   0.566   3.356  0.6687  0.2087 -0.1054
 7399TIP3    H122119   5.378   0.500   3.287 -1.6144 -0.0422  0.3719
 7399TIP3    H222120   5.394   0.516   3.436  0.3950  0.5100  0.1121
 7400TIP3   OH222121   6.150   0.424   2.491  0.1422 -0.4681  0.2133
 7400TIP3    H122122   6.073   0.438   2.437  0.8914  2.1585 -0.2132
 7400TIP3    H222123   6.158   0.503   2.543  3.4646  0.0239 -0.9208
 7401TIP3   OH222124   6.755   4.016   4.549 -0.4096  0.9639 -0.0502
 7401TIP3    H122125   6.761   4.102   4.589  0.4702  0.8594  0.0563
 7401TIP3    H222126   6.754   4.033   4.454 -1.5186  1.1559 -0.0117
 7402TIP3   OH222127   5.127   3.651   1.730 -0.3510 -0.1308 -0.4045
 7402TIP3    H122128   5.051   3.592   1.728 -0.9527  0.6635 -2.2597
 7402TIP3    H222129   5.199   3.597   1.696 -0.3619 -0.5080  0.1649
 7403TIP3   OH222130   5.952   2.492   4.460 -0.3988  0.2301  0.4491
 7403TIP3    H122131   5.955   2.407   4.415  0.1261  0.3643  0.2262
 7403TIP3    H222132   5.898   2.546   4.403 -1.7636 -0.2995  1.2019
 7404TIP3   OH222133   4.725   3.020   4.155 -0.0411 -0.0550  0.1803
 7404TIP3    H122134   4.663   3.048   4.222 -0.8487  0.4941 -0.7764
 7404TIP3    H222135   4.672   3.006   4.077  1.3937  3.2104 -1.4680
 7405TIP3   OH222136   6.476   3.477   3.855 -0.6704 -0.6260 -0.5660
 7405TIP3    H122137   6.433   3.544   3.908 -0.6439 -1.3755  0.4368
 7405TIP3    H222138   6.563   3.512   3.837 -1.3982  0.5174 -1.8509
 7406TIP3   OH222139   7.162   1.326   3.928  0.1955  0.1030 -0.0777
 7406TIP3    H122140   7.157   1.342   3.834  0.6898  0.7182  0.0021
 7406TIP3    H222141   7.214   1.247   3.936  0.7097  0.4178 -0.2881
 7407TIP3   OH222142   6.968   1.166   4.068 -0.3027  0.0310  0.2537
 7407TIP3    H122143   7.031   1.199   4.004 -0.8500 -0.1585 -0.3938
 7407TIP3    H222144   6.900   1.233   4.072  0.6039  0.8697  1.9592
 7408TIP3   OH222145   4.963   2.288   5.891  0.1507  0.8875 -0.5585
 7408TIP3    H122146   4.939   2.305   5.982  0.0162 -0.2098 -0.3855
 7408TIP3    H222147   5.048   2.244   5.897 -0.1136  0.3154 -0.9288
 7409TIP3   OH222148   4.487   4.216   2.588 -0.4734 -0.2709 -0.0636
 7409TIP3    H122149   4.421   4.166   2.635 -0.6364 -1.5804 -1.6795
 7409TIP3    H222150   4.501   4.169   2.507  2.0130  0.3154 -0.0270
 7410TIP3   OH222151   1.731   2.995   0.561  0.2607  0.0417  0.3140
 7410TIP3    H122152   1.780   2.919   0.532  2.0522  1.3238 -0.1392
 7410TIP3    H222153   1.676   3.019   0.487  1.3048  0.4646 -0.3389
 7411TIP3   OH222154   7.767   5.030   5.076  0.1308 -0.2766  0.3397
 7411TIP3    H122155   7.750   4.942   5.043  0.0319 -1.2475  2.9253
 7411TIP3    H222156   7.685   5.078   5.061 -0.1227 -0.8730 -0.2008
 7412TIP3   OH222157   0.466   0.536   3.061 -0.0336 -0.4631  0.2530
 7412TIP3    H122158   0.478   0.549   2.967 -1.3097 -0.4104  0.0890
 7412TIP3    H222159   0.392   0.593   3.084  0.5295 -0.1565  1.3725
 7413TIP3   OH222160   0.124   2.879   4.326 -0.5204  0.4014  0.4416
 7413TIP3    H122161   0.137   2.909   4.415  0.5702 -1.4368  0.9344
 7413TIP3    H222162   0.203   2.906   4.280 -0.6357  0.4693  0.2829
 7414TIP3   OH222163   7.432   2.932   6.537 -0.7561 -0.0453  0.2052
 7414TIP3    H122164   7.340   2.913   6.519 -1.0157  0.1887  1.2716
 7414TIP3    H222165   7.435   3.027   6.550 -0.2145  0.0686 -0.6593
 7415TIP3   OH222166   8.295   0.924   1.615 -0.5639  0.0246  0.8806
 7415TIP3    H122167   8.330   0.913   1.704  2.4471  0.0813 -0.2647
 7415TIP3    H222168   8.350   0.868   1.560 -0.9986  1.6605 -1.2768
 7416TIP3   OH222169   7.916   2.027   5.958 -0.1092 -0.5366 -0.2126
 7416TIP3    H122170   7.854   2.094   5.989  0.3375  0.0804 -0.6503
 7416TIP3    H222171   8.002   2.061   5.981  0.0204 -2.2273  2.0350
 7417TIP3   OH222172   6.097   3.404   3.986 -0.0295  0.3690 -0.1999
 7417TIP3    H122173   6.147   3.435   3.910 -2.7316  3.8323 -0.7088
 7417TIP3    H222174   6.011   3.383   3.951  0.6882 -4.9031  0.7810
 7418TIP3   OH222175   6.797   5.412   2.451 -0.5237  0.0406  0.1571
 7418TIP3    H122176   6.749   5.495   2.457 -1.7084 -0.6385  0.2254
 7418TIP3    H222177   6.762   5.359   2.522 -0.5326 -0.9075 -0.5532
 7419TIP3   OH222178   6.740   2.543   3.263 -0.2987  0.3872 -0.0205
 7419TIP3    H122179   6.721   2.540   3.169  0.5340  0.4833 -0.1978
 7419TIP3    H222180   6.818   2.597   3.270  2.1471 -2.9926  0.2833
 7420TIP3   OH222181   0.073   1.650   3.586 -0.4521  0.5446 -0.2093
 7420TIP3    H122182   0.151   1.641   3.640  0.9584  1.5041 -2.0285
 7420TIP3    H222183   0.002   1.664   3.649  0.9396  0.4281  1.4291
 7421TIP3   OH222184   6.066   2.118   2.437  0.3169  0.1618  0.2195
 7421TIP3    H122185   6.147   2.069   2.435  0.7303  0.8890 -1.1243
 7421TIP3    H222186   6.073   2.172   2.516  0.5622 -0.7249  0.8112
 7422TIP3   OH222187   0.019   2.843   2.746  0.2578 -0.2395  0.0277
 7422TIP3    H122188  -0.031   2.807   2.819  1.8142 -0.5069  0.9856
 7422TIP3    H222189   0.014   2.775   2.678 -0.3671 -0.4170  0.2486
 7423TIP3   OH222190   7.182   4.436   3.722 -0.1069 -0.6975 -0.0498
 7423TIP3    H122191   7.240   4.491   3.775 -0.2246 -0.8355  0.2216
 7423TIP3    H222192   7.184   4.351   3.766 -0.8619 -0.5814  0.2126
 7424TIP3   OH222193   0.276   2.586   4.597 -0.0803 -0.1820  0.6632
 7424TIP3    H122194   0.268   2.610   4.505  0.8887 -0.4793  0.4948
 7424TIP3    H222195   0.220   2.509   4.608  1.3225 -1.3349 -0.1325
 7425TIP3   OH222196   7.247   1.306   1.469  1.1513  0.1785  0.1437
 7425TIP3    H122197   7.173   1.357   1.501  0.5353  0.2950 -1.4129
 7425TIP3    H222198   7.271   1.348   1.386 -0.1234 -2.6970 -1.7808
 7426TIP3   OH222199   0.447   3.473   2.558  0.0235 -0.3511 -0.0637
 7426TIP3    H122200   0.466   3.422   2.480  2.1456  2.6432 -1.6339
 7426TIP3    H222201   0.370   3.525   2.535 -1.2062 -1.6532  0.9842
 7427TIP3   OH222202   8.063   2.597   2.912  0.4033 -0.4504 -0.3927
 7427TIP3    H122203   8.150   2.562   2.893  0.0934 -1.6948  0.4154
 7427TIP3    H222204   8.016   2.523   2.951 -1.2215  0.0046 -1.4512
 7428TIP3   OH222205   1.492   5.119   3.373 -0.1586  1.0304 -0.1438
 7428TIP3    H122206   1.433   5.112   3.297  0.9028 -0.4225 -0.8819
 7428TIP3    H222207   1.576   5.144   3.335  0.3433  0.4463  0.5606
 7429TIP3   OH222208   7.079   3.245   1.903 -0.6652  0.3895 -0.4608
 7429TIP3    H122209   7.048   3.241   1.994  0.3283 -1.1128 -0.1601
 7429TIP3    H222210   7.000   3.237   1.850 -1.2291  1.0407  0.2838
 7430TIP3   OH222211   0.770   2.440   3.335 -0.4280  0.0280  0.1170
 7430TIP3    H122212   0.794   2.533   3.335  0.4108 -0.1662 -1.2298
 7430TIP3    H222213   0.677   2.439   3.355 -0.1163  1.0604  1.6722
 7431TIP3   OH222214   7.400   1.549   2.059  0.6609 -0.4280 -0.5579
 7431TIP3    H122215   7.408   1.625   2.001  1.3965 -0.3158 -0.3145
 7431TIP3    H222216   7.467   1.488   2.028 -0.1175 -1.0993 -0.9344
 7432TIP3   OH222217   6.705   5.106   3.681  0.1738  0.4489 -0.0354
 7432TIP3    H122218   6.635   5.082   3.620 -0.7234  0.2207  1.0813
 7432TIP3    H222219   6.785   5.081   3.636 -0.4506  0.7625 -1.3563
 7433TIP3   OH222220   8.241   2.246   3.454 -0.8971 -0.3414  0.2712
 7433TIP3    H122221   8.182   2.236   3.528 -1.0632  1.6386  0.4341
 7433TIP3    H222222   8.224   2.169   3.399 -1.2688 -1.4673  1.9120
 7434TIP3   OH222223   8.567   2.974   2.656  0.0520  0.2037 -0.0197
 7434TIP3    H122224   8.573   2.892   2.608 -0.3912  0.3843 -0.3974
 7434TIP3    H222225   8.624   2.963   2.732  2.4907  0.7221 -1.7270
 7435TIP3   OH222226   2.310   3.691   2.837  0.1302  0.3285  0.1072
 7435TIP3    H122227   2.305   3.666   2.930  1.8934 -0.7667 -0.0860
 7435TIP3    H222228   2.264   3.621   2.791 -0.0553  0.4723  0.0711
 7436TIP3   OH222229   7.562   2.835   3.010 -0.0192 -0.5568 -0.0891
 7436TIP3    H122230   7.494   2.902   3.005 -0.0451 -0.5777 -0.0272
 7436TIP3    H222231   7.559   2.791   2.925 -0.7542 -1.2104  0.2703
 7437TIP3   OH222232   7.279   5.305   3.416 -0.0985 -0.1740  0.5747
 7437TIP3    H122233   7.233   5.283   3.497 -1.5309  2.8520  0.6643
 7437TIP3    H222234   7.225   5.267   3.346  1.2613 -2.9865  0.9949
 7438TIP3   OH222235   2.529   2.225   3.958  0.8719  0.0905  0.2898
 7438TIP3    H122236   2.613   2.187   3.934  0.0587 -1.4043 -0.2429
 7438TIP3    H222237   2.511   2.191   4.046 -0.5444 -2.0197 -0.7638
 7439TIP3   OH222238   8.170   5.119   4.631 -0.0177 -0.4279 -0.2088
 7439TIP3    H122239   8.231   5.058   4.672  0.2238  0.3932  0.6733
 7439TIP3    H222240   8.117   5.152   4.703 -1.0420 -0.5997 -0.8680
 7440TIP3   OH222241   0.170   2.431   5.564  0.4976 -0.0494 -0.7096
 7440TIP3    H122242   0.083   2.446   5.527  0.4833 -0.6791 -0.9330
 7440TIP3    H222243   0.181   2.501   5.628  0.4902  1.0073 -1.8341
 7441TIP3   OH222244  -0.009   3.669   2.166  0.1147 -0.3405 -0.1568
 7441TIP3    H122245   0.071   3.626   2.196  0.0821 -0.1087  0.2791
 7441TIP3    H222246  -0.012   3.751   2.216  0.2427  0.2240 -1.0632
 7442TIP3   OH222247   1.077   4.731   4.643  0.1518 -0.7015  0.1813
 7442TIP3    H122248   1.055   4.640   4.624 -2.2517 -0.1649  0.3242
 7442TIP3    H222249   1.165   4.742   4.606 -0.1274 -2.6646 -1.1423
 7443TIP3   OH222250   7.968   1.648   1.953  0.2788  0.0475  0.2052
 7443TIP3    H122251   7.939   1.661   1.862  1.9780  1.6528 -0.1303
 7443TIP3    H222252   8.009   1.562   1.952  1.9476  0.8297 -1.0138
 7444TIP3   OH222253   7.596   3.846   2.231 -0.9862 -0.0169 -0.4001
 7444TIP3    H122254   7.689   3.858   2.209 -0.9356  1.0382  0.3892
 7444TIP3    H222255   7.561   3.794   2.158 -0.2257  1.2583 -1.7041
 7445TIP3   OH222256   7.109   2.898   1.589  0.3023 -0.0040  0.7924
 7445TIP3    H122257   7.040   2.925   1.529 -1.8492 -1.1546  2.7010
 7445TIP3    H222258   7.135   2.811   1.559 -0.2011 -0.2405  1.0481
 7446TIP3   OH222259   6.571   1.341   4.397  0.6938  0.8319  0.5853
 7446TIP3    H122260   6.543   1.355   4.307  2.9445  0.7348 -0.1667
 7446TIP3    H222261   6.524   1.408   4.447  1.0926  2.3439 -0.9941
 7447TIP3   OH222262   5.384   4.224   4.162 -0.2057 -0.6280  0.2859
 7447TIP3    H122263   5.468   4.257   4.194 -0.4669 -0.5207  0.8614
 7447TIP3    H222264   5.394   4.221   4.066 -1.0372  3.5561 -0.0549
 7448TIP3   OH222265   0.675   3.211   4.234 -0.5124 -0.2440 -0.4426
 7448TIP3    H122266   0.685   3.257   4.151  0.3688  0.8263  0.2409
 7448TIP3    H222267   0.747   3.243   4.288 -1.1303 -0.8629  0.7656
 7449TIP3   OH222268   8.268   3.572   2.878 -0.5254  0.7363  0.3322
 7449TIP3    H122269   8.362   3.563   2.893 -0.4075  0.1950 -0.7004
 7449TIP3    H222270   8.259   3.656   2.834 -0.2773 -0.1803 -1.5335
 7450TIP3   OH222271   8.566   3.364   3.401  0.1956 -0.6558  0.3105
 7450TIP3    H122272   8.504   3.293   3.421 -0.5191 -0.6132 -1.6728
 7450TIP3    H222273   8.555   3.380   3.308  2.6360 -0.0941  0.0789
 7451TIP3   OH222274   7.445   4.704   5.282 -0.1063 -0.3717 -0.1145
 7451TIP3    H122275   7.391   4.625   5.278  0.0855 -0.5311  0.3408
 7451TIP3    H222276   7.382   4.776   5.286 -0.2926 -0.5910  1.0747
 7452TIP3   OH222277   6.914   5.061   3.205 -0.1715  0.8887 -0.1250
 7452TIP3    H122278   6.927   5.066   3.111  0.8859 -0.9440 -0.0867
 7452TIP3    H222279   6.989   5.107   3.243 -0.9443  2.2188 -0.1665
 7453TIP3   OH222280   8.201   4.152   1.771 -0.0449  0.1522 -0.0901
 7453TIP3    H122281   8.197   4.153   1.866  0.5671 -1.6296 -0.0219
 7453TIP3    H222282   8.111   4.133   1.744 -0.0684 -0.0974  0.1580
 7454TIP3   OH222283   8.505   1.991   3.838  0.3248 -0.4573 -0.2619
 7454TIP3    H122284   8.584   1.975   3.888  0.2653 -0.3464 -0.1310
 7454TIP3    H222285   8.499   1.917   3.777  1.3211  0.2797 -1.2782
 7455TIP3   OH222286   0.172   3.230   3.926 -0.0341  0.1219 -0.3858
 7455TIP3    H122287   0.238   3.186   3.979 -0.0776  1.5592  0.9131
 7455TIP3    H222288   0.121   3.160   3.887  2.1003 -1.0026 -1.2072
 7456TIP3   OH222289   0.156   1.415   2.477  0.1171  0.0415  0.2784
 7456TIP3    H122290   0.243   1.454   2.468 -0.5012  1.5247  0.7098
 7456TIP3    H222291   0.147   1.399   2.571 -0.3998  0.6476  0.3362
 7457TIP3   OH222292   8.072   2.015   3.729 -0.1286 -0.2808 -0.2817
 7457TIP3    H122293   8.044   2.101   3.698  0.2251 -0.3428 -0.7860
 7457TIP3    H222294   8.134   2.034   3.800  0.1373 -0.1106 -0.5546
 7458TIP3   OH222295   7.329   1.324   4.177  0.0574  0.0063 -0.3403
 7458TIP3    H122296   7.374   1.276   4.246  1.3742  0.4448 -0.8939
 7458TIP3    H222297   7.247   1.353   4.218 -0.4336 -2.0648  0.2136
 7459TIP3   OH222298   7.062   3.942   2.919  0.0827  0.3640 -0.3387
 7459TIP3    H122299   7.110   4.025   2.921 -0.8985  0.9522 -0.6953
 7459TIP3    H222300   6.977   3.965   2.880  0.8824 -1.3695 -3.2240
 7460TIP3   OH222301   0.638   3.489   4.634 -0.1308 -0.3459  0.2172
 7460TIP3    H122302   0.629   3.552   4.562  2.8306  1.6578  1.4770
 7460TIP3    H222303   0.569   3.512   4.696 -0.0717  0.6543 -0.0809
 7461TIP3   OH222304   0.702   1.653   3.153  0.0128  0.2551 -0.2793
 7461TIP3    H122305   0.611   1.682   3.147 -1.5117 -4.0153 -0.0391
 7461TIP3    H222306   0.722   1.654   3.246 -0.2028  0.0682 -0.2308
 7462TIP3   OH222307   7.237   1.150   4.713 -0.0306 -0.6085  0.6499
 7462TIP3    H122308   7.295   1.129   4.640 -0.5639 -1.9565  0.5873
 7462TIP3    H222309   7.149   1.149   4.674 -0.1294  1.2049  0.7859
 7463TIP3   OH222310   5.262   7.369   3.760 -0.7295  0.6805 -1.1614
 7463TIP3    H122311   5.213   7.430   3.704 -1.4276 -0.0901 -1.4164
 7463TIP3    H222312   5.208   7.289   3.759 -0.0966  0.2458 -0.4103
 7464TIP3   OH222313   6.968   2.602   2.450 -0.2390 -0.0557  1.0089
 7464TIP3    H122314   7.014   2.537   2.504  1.0314 -0.4977 -0.5586
 7464TIP3    H222315   6.888   2.558   2.422 -0.9893  0.2386  2.6529
 7465TIP3   OH222316   8.832   3.072   2.920  0.1517  0.4315  0.3231
 7465TIP3    H122317   8.882   3.039   2.845 -0.6892  0.7046 -0.3575
 7465TIP3    H222318   8.781   3.144   2.885 -2.9526 -1.6652  0.3278
 7466TIP3   OH222319   1.187   1.621   1.909 -0.4718 -0.4229 -0.2451
 7466TIP3    H122320   1.112   1.631   1.968 -0.6423 -1.8486 -0.1993
 7466TIP3    H222321   1.254   1.680   1.944 -1.5599  0.8534 -0.2787
 7467TIP3   OH222322   8.071   0.591   1.783 -0.4446 -0.0267  0.5962
 7467TIP3    H122323   8.039   0.508   1.748 -0.0649 -0.2184  0.6910
 7467TIP3    H222324   8.167   0.582   1.779 -0.4034  0.2926  0.8766
 7468TIP3   OH222325   6.241   2.395   3.291  0.0865  0.2608 -0.0618
 7468TIP3    H122326   6.251   2.486   3.262 -1.5635  0.5216  0.1236
 7468TIP3    H222327   6.192   2.353   3.220 -0.6558 -0.0447  0.6245
 7469TIP3   OH222328   6.922   0.907   4.122 -0.0500 -0.3150  0.0849
 7469TIP3    H122329   6.925   0.995   4.085 -2.2056 -0.1406  0.2598
 7469TIP3    H222330   7.012   0.889   4.149  0.4383  1.7643 -0.0941
 7470TIP3   OH222331   8.086   1.257   2.203 -0.4459 -0.3183 -0.4275
 7470TIP3    H122332   8.173   1.290   2.179  0.0169 -1.8827 -0.9694
 7470TIP3    H222333   8.033   1.335   2.214  0.6662  0.6113 -1.4924
 7471TIP3   OH222334   7.485   5.675   2.645  0.3738  0.0807 -0.0604
 7471TIP3    H122335   7.406   5.639   2.686  0.8389 -0.7524  0.1192
 7471TIP3    H222336   7.523   5.600   2.599  0.6859  0.6482 -0.7180
 7472TIP3   OH222337   6.105   3.040   3.012  0.2008 -0.2407 -0.0397
 7472TIP3    H122338   6.093   3.023   3.105 -0.9926  0.4080 -0.0659
 7472TIP3    H222339   6.029   3.093   2.987 -0.6978 -2.3513 -1.8929
 7473TIP3   OH222340   7.726   2.630   2.765  0.1278 -0.2569  0.2125
 7473TIP3    H122341   7.822   2.624   2.759  0.0315 -1.0890 -0.6006
 7473TIP3    H222342   7.704   2.574   2.839  0.1327 -1.5462 -0.7328
 7474TIP3   OH222343   0.634   2.850   3.237  0.3771  0.1755 -0.8817
 7474TIP3    H122344   0.720   2.832   3.199  0.9768 -1.1664  1.0574
 7474TIP3    H222345   0.636   2.809   3.323 -1.0706  2.8659  0.5234
 7475TIP3   OH222346   7.909   0.395   0.673 -0.2850  0.0814  0.0258
 7475TIP3    H122347   7.848   0.464   0.647  0.7197  1.1068  0.4028
 7475TIP3    H222348   7.972   0.438   0.730  2.5752 -0.3008 -2.7550
 7476TIP3   OH222349   0.159   3.533   4.241 -0.3763 -0.3974  0.1310
 7476TIP3    H122350   0.070   3.506   4.260 -0.3235 -0.4331  0.3359
 7476TIP3    H222351   0.177   3.604   4.304  0.0613 -1.0306  0.7276
 7477TIP3   OH222352   1.777   3.858   5.028 -0.2309 -0.3284  0.3889
 7477TIP3    H122353   1.839   3.914   5.074 -0.6454 -0.8493  1.5882
 7477TIP3    H222354   1.699   3.913   5.017 -0.5044 -0.5433  1.2373
 7478TIP3   OH222355   7.266   1.746   3.278 -0.7627 -0.2322 -0.2000
 7478TIP3    H122356   7.262   1.693   3.199  0.2588  1.5583 -1.4971
 7478TIP3    H222357   7.268   1.836   3.247 -1.1467  0.5407  1.9002
 7479TIP3   OH222358   7.976   4.322   3.835 -0.0721  0.2049 -0.0289
 7479TIP3    H122359   7.880   4.327   3.834 -0.3558 -3.6393  1.0150
 7479TIP3    H222360   8.000   4.289   3.749  0.1866 -0.3165  0.2378
 7480TIP3   OH222361   7.171   2.119   3.016 -1.0411  0.2715 -0.3706
 7480TIP3    H122362   7.252   2.093   3.061 -1.1792 -1.0569 -0.8743
 7480TIP3    H222363   7.103   2.066   3.056 -1.6328  1.1913 -0.1447
 7481TIP3   OH222364   0.033   4.160   2.733  0.4543 -0.1026 -0.0935
 7481TIP3    H122365   0.107   4.221   2.733 -0.3984  0.9423  0.3937
 7481TIP3    H222366  -0.043   4.214   2.755 -0.2662 -1.4028  0.6476
 7482TIP3   OH222367   1.931   2.801   3.271  0.1298  0.4707  0.1562
 7482TIP3    H122368   1.887   2.719   3.294  0.6525 -0.7474 -2.9272
 7482TIP3    H222369   2.010   2.773   3.225 -0.2345  2.6772 -1.9203
 7483TIP3   OH222370   7.746   1.865   2.383  0.1221 -0.5297 -0.2641
 7483TIP3    H122371   7.813   1.808   2.345  0.8107 -0.2539  0.5240
 7483TIP3    H222372   7.776   1.954   2.365  0.3665 -0.3944  0.7617
 7484TIP3   OH222373   1.338   2.883   3.288 -0.2750  0.2195 -0.0459
 7484TIP3    H122374   1.432   2.891   3.303 -0.3330  0.2959  0.2929
 7484TIP3    H222375   1.300   2.882   3.376 -0.4506 -1.7146 -0.1392
 7485TIP3   OH222376   7.763   4.076   3.292 -0.0495 -0.5324  0.0907
 7485TIP3    H122377   7.822   4.125   3.235 -0.7833  1.6976  1.1732
 7485TIP3    H222378   7.811   4.069   3.375 -0.4505 -0.5374  0.3233
 7486TIP3   OH222379   0.306   2.342   1.422 -0.5299  0.1713 -0.3164
 7486TIP3    H122380   0.313   2.326   1.328 -0.1988  1.7651 -0.5735
 7486TIP3    H222381   0.221   2.386   1.433 -0.7769 -0.4252  0.1916
 7487TIP3   OH222382   8.040   2.841   4.710 -0.3805  0.3517  0.6778
 7487TIP3    H122383   8.054   2.806   4.798 -0.4826  0.1573  0.6160
 7487TIP3    H222384   7.950   2.874   4.711 -0.5361 -0.0690  0.5028
 7488TIP3   OH222385   6.754   4.297   0.316  0.4775 -0.6656 -0.2135
 7488TIP3    H122386   6.696   4.325   0.386 -1.4370 -3.5545 -0.5628
 7488TIP3    H222387   6.715   4.334   0.236  2.4017  2.2345  0.1128
 7489TIP3   OH222388   5.903   3.262   3.096  0.5537 -0.1488  0.8449
 7489TIP3    H122389   5.920   3.337   3.038  2.0963  1.6545  3.5211
 7489TIP3    H222390   5.822   3.225   3.063  1.2269  0.9649 -2.2987
 7490TIP3   OH222391   0.085   2.279   0.037 -0.1643  0.0001  0.2716
 7490TIP3    H122392   0.108   2.362   0.079 -0.4174  0.6579 -0.8661
 7490TIP3    H222393  -0.002   2.294   0.000  0.2587 -0.3876 -0.9196
 7491TIP3   OH222394   8.225   4.198   2.935 -0.3224  0.4939 -0.2837
 7491TIP3    H122395   8.245   4.178   3.027  1.1283  0.8859 -0.5034
 7491TIP3    H222396   8.270   4.281   2.919 -0.4393  0.3390 -1.3957
 7492TIP3   OH222397   6.740   1.314   4.030 -0.0087 -0.1883  0.4256
 7492TIP3    H122398   6.747   1.351   3.942 -0.6832 -0.5915  0.2035
 7492TIP3    H222399   6.654   1.273   4.033 -0.3493  0.5705  1.5664
 7493TIP3   OH222400   7.301   2.926   4.604 -0.3854  0.3917  0.5369
 7493TIP3    H122401   7.282   2.951   4.513 -0.0239  2.7753  1.0847
 7493TIP3    H222402   7.226   2.872   4.629 -0.1906 -0.8343 -1.3543
 7494TIP3   OH222403   6.424   3.210   3.893  0.3548 -0.5158  0.3083
 7494TIP3    H122404   6.487   3.144   3.864  1.6826  0.0612  1.7838
 7494TIP3    H222405   6.469   3.293   3.880 -0.6997 -0.0004 -0.0680
 7495TIP3   OH222406   8.012   4.688   2.100  0.2593  0.3731 -0.0917
 7495TIP3    H122407   7.996   4.683   2.194 -1.7359  1.6440 -0.3228
 7495TIP3    H222408   8.090   4.743   2.091  0.2192  0.5794  0.8237
 7496TIP3   OH222409   8.675   4.040   2.451  0.1903  0.4459  0.2189
 7496TIP3    H122410   8.700   4.133   2.450 -1.1115  0.7951  0.0040
 7496TIP3    H222411   8.673   4.017   2.544 -1.4111  1.1548  0.3610
 7497TIP3   OH222412   8.648   3.182   1.682  0.2873  0.3179  0.2390
 7497TIP3    H122413   8.722   3.232   1.648 -2.2312  1.4493 -3.9519
 7497TIP3    H222414   8.619   3.129   1.608 -2.8584 -0.3614  1.8649
 7498TIP3   OH222415   7.958   1.730   2.229 -0.5971  0.2719 -0.8181
 7498TIP3    H122416   8.005   1.812   2.244 -0.5336  0.3595 -1.5184
 7498TIP3    H222417   7.963   1.716   2.135 -2.0356  0.3157 -0.8994
 7499TIP3   OH222418   0.856   2.846   5.310 -0.8646 -0.4209 -0.0729
 7499TIP3    H122419   0.798   2.921   5.322 -1.1851 -0.8748  1.2437
 7499TIP3    H222420   0.944   2.884   5.307 -1.0963  0.1005 -0.3822
 7500TIP3   OH222421   8.217   2.020   2.718  0.3408 -0.2645  0.1024
 7500TIP3    H122422   8.305   2.028   2.753  0.3754  0.5171 -0.1556
 7500TIP3    H222423   8.176   2.105   2.736 -0.8780 -1.1395  1.6264
 7501TIP3   OH222424   8.580   3.170   3.149 -0.5383 -0.1416 -0.0048
 7501TIP3    H122425   8.535   3.086   3.143 -0.2848 -0.1924 -1.1883
 7501TIP3    H222426   8.511   3.236   3.138 -0.2468 -0.2220 -2.4665
 7502TIP3   OH222427   7.460   1.459   2.319  0.1059  0.1891  0.0116
 7502TIP3    H122428   7.503   1.380   2.287 -1.1951 -0.4974 -0.0698
 7502TIP3    H222429   7.408   1.490   2.245  1.2514  1.5885 -0.2142
 7503TIP3   OH222430   7.344   3.055   1.154 -0.0314 -0.0788  0.2326
 7503TIP3    H122431   7.437   3.060   1.133  0.2238 -0.1315  1.3388
 7503TIP3    H222432   7.303   3.027   1.072  0.7422  1.3579 -0.6808
 7504TIP3   OH222433   1.368   3.892   2.076 -0.0918  0.4405 -0.1872
 7504TIP3    H122434   1.452   3.935   2.084  0.0952 -0.0392  0.4600
 7504TIP3    H222435   1.354   3.884   1.981  1.2531 -0.7499 -0.2994
 7505TIP3   OH222436   0.440   4.280   3.817 -0.1180 -0.1676 -1.2522
 7505TIP3    H122437   0.468   4.326   3.738  1.0241 -0.8859 -1.2732
 7505TIP3    H222438   0.464   4.337   3.889  0.3235 -0.2454 -1.3373
 7506TIP3   OH222439   7.127   0.306   2.720 -0.2917 -0.1149  0.0125
 7506TIP3    H122440   7.204   0.277   2.671 -0.6632 -1.1302  0.0151
 7506TIP3    H222441   7.067   0.339   2.652  0.1519  0.7222  0.0151
 7507TIP3   OH222442   7.424   4.615   4.814  0.0576  0.1068  0.0325
 7507TIP3    H122443   7.397   4.675   4.744  0.5526  0.5790  0.2415
 7507TIP3    H222444   7.342   4.579   4.848 -0.2734  1.0013  0.1967
 7508TIP3   OH222445   7.157   2.194   3.736  0.3221 -0.4840  0.1598
 7508TIP3    H122446   7.211   2.229   3.665  0.2034  2.0285  1.2766
 7508TIP3    H222447   7.210   2.124   3.774  1.7322  0.2712 -0.3800
 7509TIP3   OH222448   0.282   4.401   3.368  0.2355 -0.1053 -0.2379
 7509TIP3    H122449   0.348   4.336   3.345  1.9419  1.8837 -1.2091
 7509TIP3    H222450   0.231   4.412   3.287 -0.3433 -0.5662  0.0633
 7510TIP3   OH222451   8.135   3.509   3.898 -0.3128  0.1201 -0.1074
 7510TIP3    H122452   8.099   3.470   3.978 -3.5386 -2.0347 -2.4864
 7510TIP3    H222453   8.220   3.467   3.887 -1.0361 -1.6037  0.7434
 7511TIP3   OH222454   0.381   4.451   0.445 -0.0826  0.1414 -0.1321
 7511TIP3    H122455   0.344   4.454   0.533 -0.8867 -0.6626 -0.4275
 7511TIP3    H222456   0.453   4.514   0.446  0.8974 -0.9750  1.5504
 7512TIP3   OH222457   8.341   3.569   3.525 -0.1294  0.2914  0.2195
 7512TIP3    H122458   8.364   3.551   3.434 -3.5143  0.4021 -0.6984
 7512TIP3    H222459   8.275   3.503   3.546  0.2679  0.5723  2.4679
 7513TIP3   OH222460   6.979   4.756   3.727 -0.1962  0.3862 -0.0038
 7513TIP3    H122461   6.988   4.847   3.698  3.6918 -0.0512 -0.5027
 7513TIP3    H222462   7.026   4.753   3.810  1.4183 -1.5806 -0.9695
 7514TIP3   OH222463   7.470   2.980   2.178  0.3307  0.1627  0.5427
 7514TIP3    H122464   7.503   3.056   2.226 -0.3695 -0.7620  2.5273
 7514TIP3    H222465   7.543   2.918   2.178  0.8053  0.6804 -0.8378
 7515TIP3   OH222466   7.360   0.039   2.799 -0.1984 -0.6958  0.3100
 7515TIP3    H122467   7.446   0.044   2.842 -0.0697 -1.6428  0.1743
 7515TIP3    H222468   7.364   0.107   2.732  0.8421 -1.4026 -0.3725
 7516TIP3   OH222469   0.829   3.492   2.694 -0.6443 -0.8264  0.4048
 7516TIP3    H122470   0.893   3.546   2.648 -0.2028 -1.6393  0.0674
 7516TIP3    H222471   0.879   3.419   2.730 -1.1503 -0.7225  1.3341
 7517TIP3   OH222472   6.486   1.694   4.645 -0.0299  0.4146  0.4746
 7517TIP3    H122473   6.400   1.732   4.625  0.3049  1.2312  0.5486
 7517TIP3    H222474   6.548   1.748   4.595  0.3844 -0.6272 -0.1623
 7518TIP3   OH222475   8.003   3.564   3.648 -0.0153  0.3449 -0.7395
 7518TIP3    H122476   8.061   3.548   3.722 -1.0033  2.6329  0.5884
 7518TIP3    H222477   7.995   3.479   3.604  1.6461 -0.7333  0.9851
 7519TIP3   OH222478   0.105   1.819   4.561 -0.4436 -0.2823 -0.1487
 7519TIP3    H122479   0.028   1.856   4.603 -0.5230 -0.4682 -0.1306
 7519TIP3    H222480   0.138   1.754   4.623  1.1531  1.4988  0.9538
 7520TIP3   OH222481   8.321   1.978   1.349 -0.3394 -0.4018  0.1565
 7520TIP3    H122482   8.238   1.955   1.392 -0.7719 -1.5404 -1.2380
 7520TIP3    H222483   8.319   1.930   1.266  0.5551  1.6081 -1.0646
 7521TIP3   OH222484   0.719   2.818   4.001 -0.1213 -0.2446  0.3724
 7521TIP3    H122485   0.642   2.838   4.054  0.3748 -0.0414  1.0239
 7521TIP3    H222486   0.758   2.741   4.043  0.3539  0.0017  0.3858
 7522TIP3   OH222487   8.581   4.096   5.181  0.9360  0.3874  0.0547
 7522TIP3    H122488   8.551   4.059   5.264  0.4290 -3.3051 -1.7041
 7522TIP3    H222489   8.604   4.020   5.128  2.0545  2.7312 -2.9071
 7523TIP3   OH222490   0.979   2.806   4.995  0.3791  0.7952 -0.9909
 7523TIP3    H122491   1.056   2.825   5.050  0.6063 -0.2989 -0.9264
 7523TIP3    H222492   0.937   2.731   5.038  0.4144  0.0983 -2.1640
 7524TIP3   OH222493   7.669   4.110   1.325 -0.2993 -0.3952  0.3282
 7524TIP3    H122494   7.678   4.019   1.354  1.8987  0.2817  1.9059
 7524TIP3    H222495   7.579   4.115   1.291 -0.8722 -2.8219  1.3274
 7525TIP3   OH222496   7.973   4.379   4.177 -0.3025 -0.6282  0.2977
 7525TIP3    H122497   7.897   4.348   4.128 -0.8182 -1.0630  1.3486
 7525TIP3    H222498   8.001   4.304   4.229  0.0052 -0.0758  0.9506
 7526TIP3   OH222499   8.908   2.797   4.666 -0.5973  0.1593 -0.3373
 7526TIP3    H122500   8.898   2.874   4.609  0.4604  0.3979 -0.2147
 7526TIP3    H222501   8.875   2.724   4.613 -0.6010  0.5404 -0.8718
 7527TIP3   OH222502   7.247   4.037   4.781  0.0402 -0.3767 -0.2816
 7527TIP3    H122503   7.223   3.988   4.702 -0.1557  0.6079 -0.8454
 7527TIP3    H222504   7.278   3.970   4.842  0.5147 -1.1297 -1.3136
 7528TIP3   OH222505   0.879   2.617   5.180 -0.2362  0.1272  0.1429
 7528TIP3    H122506   0.891   2.702   5.223 -0.6439  0.8401 -1.1159
 7528TIP3    H222507   0.784   2.607   5.173 -0.1731  0.1785 -0.8707
 7529TIP3   OH222508   7.247   4.353   5.554  0.1381 -0.1518 -0.4153
 7529TIP3    H122509   7.299   4.322   5.480  1.3756 -0.0558  0.4057
 7529TIP3    H222510   7.160   4.367   5.517  0.2513 -1.9053 -1.4336
 7530TIP3   OH222511   7.478   2.943   4.248  0.4665 -0.1418 -0.2204
 7530TIP3    H122512   7.471   3.011   4.181 -1.0910 -1.5256 -1.5091
 7530TIP3    H222513   7.389   2.935   4.283  0.8982 -0.6752  0.7598
 7531TIP3   OH222514   6.050   1.056   4.757 -0.8055  0.2880 -0.5302
 7531TIP3    H122515   6.070   0.982   4.699  0.3793 -0.6299  0.9988
 7531TIP3    H222516   5.977   1.025   4.811  3.2640 -2.1018  4.0494
 7532TIP3   OH222517   7.676   5.365   4.697 -0.5492  0.3018  0.3265
 7532TIP3    H122518   7.603   5.392   4.752 -1.9856  1.4491 -2.0481
 7532TIP3    H222519   7.754   5.401   4.740 -1.6829  1.6647  1.2689
 7533TIP3   OH222520   8.641   3.842   3.274  0.0077  0.5650  0.4168
 7533TIP3    H122521   8.723   3.813   3.235  0.2790  2.4480 -0.4861
 7533TIP3    H222522   8.667   3.903   3.343 -0.5689 -0.5804  1.6670
 7534TIP3   OH222523   7.807   4.652   3.945  0.2920 -0.2287 -0.0054
 7534TIP3    H122524   7.742   4.705   3.992  1.1138  1.1203 -0.3327
 7534TIP3    H222525   7.889   4.701   3.956  0.8007 -0.7225 -1.5044
 7535TIP3   OH222526   8.851   1.607   3.825  0.7283 -0.1664 -0.2443
 7535TIP3    H122527   8.799   1.545   3.877  0.4635 -1.3584 -1.8681
 7535TIP3    H222528   8.939   1.602   3.861  1.1029 -2.7805 -1.3979
 7536TIP3   OH222529   8.853   1.275   4.180 -0.3070  0.4888  0.5143
 7536TIP3    H122530   8.833   1.185   4.157  2.5468 -0.1990  0.5620
 7536TIP3    H222531   8.821   1.285   4.270 -1.1258 -0.2796  0.3134
 7537TIP3   OH222532   5.877   3.059   2.817  0.0576  0.4371  0.0944
 7537TIP3    H122533   5.802   3.078   2.760 -0.2753 -0.9918  0.0255
 7537TIP3    H222534   5.950   3.105   2.777 -1.2076  3.6935  1.3920
 7538TIP3   OH222535   1.124   1.525   2.238 -0.2077 -0.1948  0.0927
 7538TIP3    H122536   1.075   1.595   2.193  0.7257 -0.0289 -0.6915
 7538TIP3    H222537   1.215   1.556   2.238 -0.2674  0.1126  2.7029
 7539TIP3   OH222538   6.825   0.447   4.979  0.3163 -0.0973  0.1384
 7539TIP3    H122539   6.803   0.451   4.886  0.3588 -0.6881  0.1019
 7539TIP3    H222540   6.903   0.391   4.983 -0.6675 -1.4302  0.7050
 7540TIP3   OH222541   8.745   0.421   2.012  0.3769  0.1756 -0.0615
 7540TIP3    H122542   8.669   0.389   1.963  1.1327 -0.2709 -0.9456
 7540TIP3    H222543   8.819   0.370   1.979  0.8463 -0.4073  1.8136
 7541TIP3   OH222544   0.068   2.866   2.290 -0.5182 -0.4711  0.0088
 7541TIP3    H122545   0.066   2.961   2.307  0.4327 -0.0346 -2.1268
 7541TIP3    H222546  -0.017   2.848   2.250  0.7986  0.2745 -3.2788
 7542TIP3   OH222547   7.052   1.835   4.567  0.0841 -0.1789  0.0648
 7542TIP3    H122548   7.085   1.879   4.646  0.2949  1.3165 -0.8157
 7542TIP3    H222549   7.084   1.745   4.573  1.4222  0.3473  0.9284
 7543TIP3   OH222550   5.448   3.487   4.061 -0.4624 -0.4472 -0.2008
 7543TIP3    H122551   5.511   3.493   4.133 -0.0168 -0.2734 -0.6044
 7543TIP3    H222552   5.368   3.456   4.103  0.2459 -1.9326  0.1234
 7544TIP3   OH222553   6.434   2.723   3.390 -0.1152 -0.2805  0.1086
 7544TIP3    H122554   6.448   2.788   3.460  0.9157  0.0562 -0.4068
 7544TIP3    H222555   6.478   2.645   3.422 -0.7464 -0.5221  0.4053
 7545TIP3   OH222556   1.691   3.093   1.902  0.3592 -0.2675 -0.1006
 7545TIP3    H122557   1.688   3.168   1.842  0.4662 -0.9034 -0.9065
 7545TIP3    H222558   1.784   3.072   1.911  0.2157 -1.5965 -1.5152
 7546TIP3   OH222559   0.007   5.238   3.019 -0.2753 -0.2387 -0.1433
 7546TIP3    H122560   0.042   5.272   3.102  0.8775  0.9465 -1.0785
 7546TIP3    H222561   0.078   5.184   2.984 -0.5664 -0.3252 -0.5948
 7547TIP3   OH222562   7.636   5.389   4.392  0.8028 -0.1662  0.6152
 7547TIP3    H122563   7.553   5.413   4.433  1.2012 -1.4516  2.2315
 7547TIP3    H222564   7.695   5.370   4.466  1.9345 -1.2159 -0.5245
 7548TIP3   OH222565   5.714   2.875   2.971  0.3852  0.5982  0.2411
 7548TIP3    H122566   5.659   2.849   2.897  1.2097 -1.7197  0.4199
 7548TIP3    H222567   5.763   2.951   2.938  0.1818  0.0650 -1.3446
 7549TIP3   OH222568   1.357   2.846   2.767  0.0713  0.3087 -0.4061
 7549TIP3    H122569   1.378   2.790   2.692  1.1490  2.5124 -1.7963
 7549TIP3    H222570   1.283   2.899   2.738 -0.4312  0.1878  0.6196
 7550TIP3   OH222571   7.207   5.597   3.610  0.4379  0.0756 -0.5862
 7550TIP3    H122572   7.292   5.600   3.567  1.2580 -0.5702  0.9627
 7550TIP3    H222573   7.226   5.570   3.700 -1.1831  1.9973  0.3649
 7551TIP3   OH222574   0.796   4.840   2.230  0.3333 -0.0232  0.2302
 7551TIP3    H122575   0.888   4.834   2.203  0.3382 -1.6836  0.5486
 7551TIP3    H222576   0.748   4.796   2.159 -0.2216  0.8200  0.0769
 7552TIP3   OH222577   8.187   3.836   2.797  0.2203  0.0819 -0.3679
 7552TIP3    H122578   8.121   3.903   2.813 -0.4482 -0.8907  1.0007
 7552TIP3    H222579   8.248   3.877   2.734 -1.6812  0.9569 -1.6818
 7553TIP3   OH222580   6.669   4.195   3.017  0.1088 -0.2468  0.3330
 7553TIP3    H122581   6.712   4.280   3.015 -2.0694  0.9198  1.4383
 7553TIP3    H222582   6.581   4.213   3.050 -0.7096 -2.7866 -0.3171
 7554TIP3   OH222583   1.786   3.039   2.931  0.0138 -0.3710 -0.0491
 7554TIP3    H122584   1.695   3.041   2.903 -0.1015  1.4043  0.3853
 7554TIP3    H222585   1.786   2.981   3.008 -0.3433 -2.0994 -1.3246
 7555TIP3   OH222586   1.428   1.276   1.848 -0.0921  0.7173  0.6149
 7555TIP3    H122587   1.374   1.269   1.770  0.2417 -3.2768  0.6411
 7555TIP3    H222588   1.372   1.245   1.920  1.1411 -0.4065  1.1306
 7556TIP3   OH222589   7.872   4.860   4.325  0.8656 -0.0840 -0.1711
 7556TIP3    H122590   7.965   4.863   4.304  0.9401 -0.3998  0.1058
 7556TIP3    H222591   7.857   4.936   4.382  1.0384 -0.2604  0.1118
 7557TIP3   OH222592   6.480   0.952   3.917 -0.8124 -0.0063 -0.4260
 7557TIP3    H122593   6.512   0.867   3.944 -0.6237 -0.5075 -2.1961
 7557TIP3    H222594   6.508   1.012   3.987  1.9058 -0.8190 -0.7709
 7558TIP3   OH222595   5.219   8.127   3.023 -0.7537 -0.0131 -0.3398
 7558TIP3    H122596   5.259   8.197   2.971 -0.8282  0.1528 -0.1741
 7558TIP3    H222597   5.129   8.122   2.992 -1.0575  0.7096  0.4085
 7559TIP3   OH222598   5.492   4.037   1.850  0.7362 -0.4353 -0.2015
 7559TIP3    H122599   5.519   3.948   1.827 -0.6641 -0.9198  0.0209
 7559TIP3    H222600   5.407   4.027   1.892 -1.4360  1.3469 -3.9481
 7560TIP3   OH222601   7.979   0.684   3.615 -0.1987  0.1377  0.0659
 7560TIP3    H122602   8.045   0.742   3.577 -0.6811  1.8482  1.8126
 7560TIP3    H222603   7.925   0.741   3.669 -0.6573 -1.9504  1.8540
 7561TIP3   OH222604   8.096   3.214   2.223 -0.7176 -0.0992 -0.4695
 7561TIP3    H122605   8.033   3.216   2.294 -0.6056 -0.3943 -0.3605
 7561TIP3    H222606   8.144   3.132   2.235  1.0306  1.0259  0.6207
 7562TIP3   OH222607   7.914   3.195   3.191  0.1694  0.2774 -0.1851
 7562TIP3    H122608   7.860   3.273   3.183  1.6198  1.3488  0.1812
 7562TIP3    H222609   7.925   3.165   3.101 -0.5400  0.4038 -0.3140
 7563TIP3   OH222610   1.132   1.938   6.014 -0.3681 -0.5544  0.6562
 7563TIP3    H122611   1.112   1.942   5.921 -0.6512  0.6807  0.7546
 7563TIP3    H222612   1.192   2.011   6.029 -2.8716  1.3136  2.0047
 7564TIP3   OH222613   8.155   2.645   4.218  0.1365  0.1989 -0.2060
 7564TIP3    H122614   8.239   2.608   4.245  0.2412  0.4689 -0.1561
 7564TIP3    H222615   8.096   2.628   4.292  0.0052 -0.4560 -0.4573
 7565TIP3   OH222616   0.126   4.978   1.677  0.2322  0.3327  0.4441
 7565TIP3    H122617   0.104   4.897   1.722  0.5562 -0.3412 -0.5959
 7565TIP3    H222618   0.093   5.047   1.734 -2.3598 -0.5826  0.1193
 7566TIP3   OH222619   8.552   4.376   5.148 -0.3827  0.1958 -0.0127
 7566TIP3    H122620   8.544   4.282   5.161 -0.7247  0.2092 -0.1198
 7566TIP3    H222621   8.532   4.414   5.234  1.8887  0.0754  0.5988
 7567TIP3   OH222622   8.477   2.398   4.958  0.0018  0.1621 -0.1229
 7567TIP3    H122623   8.432   2.355   5.031  2.3689  1.4639  2.2101
 7567TIP3    H222624   8.542   2.333   4.929  2.3435  1.3910  2.1981
 7568TIP3   OH222625   7.533   3.220   3.850 -0.3995 -0.4042  0.2294
 7568TIP3    H122626   7.531   3.257   3.762 -0.5815  0.5696  0.6324
 7568TIP3    H222627   7.626   3.204   3.867 -0.3223 -0.1776  0.0313
 7569TIP3   OH222628   0.100   3.672   5.310  0.2852 -0.0300 -0.4710
 7569TIP3    H122629   0.118   3.766   5.301  0.0957 -0.0461 -1.0310
 7569TIP3    H222630   0.181   3.630   5.282 -0.1315 -0.0689 -1.6017
 7570TIP3   OH222631   1.740   6.199   5.608  0.7413 -0.2318  0.1147
 7570TIP3    H122632   1.675   6.133   5.633 -0.3441  0.1202 -1.6859
 7570TIP3    H222633   1.814   6.147   5.574  0.4848 -0.5620  0.0549
 7571TIP3   OH222634   0.378   4.470   5.469  0.4053 -0.8009  0.0758
 7571TIP3    H122635   0.443   4.425   5.521  0.5066 -0.1546  0.5133
 7571TIP3    H222636   0.319   4.510   5.533  0.7116  0.2592 -0.2844
 7572TIP3   OH222637   5.445   0.839   3.261 -0.2608 -0.1746  0.1089
 7572TIP3    H122638   5.512   0.857   3.326 -0.6926  0.4380  0.3922
 7572TIP3    H222639   5.406   0.756   3.288  0.0945 -0.3159  0.1831
 7573TIP3   OH222640   1.535   3.005   5.643  0.0662 -0.0956 -0.5287
 7573TIP3    H122641   1.573   2.929   5.598  0.1292  0.1888 -0.9504
 7573TIP3    H222642   1.441   2.987   5.645  0.1617 -0.5545  0.0619
 7574TIP3   OH222643   0.985   6.642   5.124  0.4653  0.3062 -0.7469
 7574TIP3    H122644   0.929   6.686   5.059  0.5922  0.0840 -1.0109
 7574TIP3    H222645   1.073   6.671   5.101  0.7239 -1.2970 -1.9112
 7575TIP3   OH222646   1.930   3.942   3.330  0.0307  0.4198  0.4533
 7575TIP3    H122647   1.913   4.007   3.398 -0.3764  1.2375 -0.4275
 7575TIP3    H222648   1.843   3.920   3.296  0.3611  1.1501 -0.8581
 7576TIP3   OH222649   0.648   2.466   5.072 -0.0792 -0.0402 -0.4695
 7576TIP3    H122650   0.626   2.377   5.103  2.3101 -0.0682  1.2755
 7576TIP3    H222651   0.699   2.451   4.993  0.0986 -0.2299 -0.3225
 7577TIP3   OH222652   0.639   2.548   4.419  0.3483  0.5046  0.0348
 7577TIP3    H122653   0.620   2.525   4.510  1.2560  0.2333  0.1589
 7577TIP3    H222654   0.671   2.467   4.380 -1.2213  0.3112 -0.8591
 7578TIP3   OH222655   1.851   2.878   5.553 -0.2094 -0.0536  0.7854
 7578TIP3    H122656   1.778   2.826   5.587  0.1463 -1.2601 -0.2454
 7578TIP3    H222657   1.929   2.836   5.589  0.0269  0.6180  1.0657
 7579TIP3   OH222658   1.504   2.959   5.180  0.2254  0.1987  0.2842
 7579TIP3    H122659   1.417   2.993   5.159  0.7883  0.8409 -1.0735
 7579TIP3    H222660   1.544   3.028   5.233  0.2180  0.2766  0.1884
 7580TIP3   OH222661   8.585   2.924   4.474  0.1821  0.5740 -0.6537
 7580TIP3    H122662   8.533   2.980   4.417  0.1737  1.2926  0.0527
 7580TIP3    H222663   8.608   2.979   4.548 -0.9433 -0.7309  0.7075
 7581TIP3   OH222664   4.720   7.752   0.399 -0.2235  0.1817  0.4320
 7581TIP3    H122665   4.703   7.661   0.378  1.3185 -0.1557  0.5739
 7581TIP3    H222666   4.669   7.768   0.479  0.2419 -0.8229  0.9412
 7582TIP3   OH222667   0.226   2.364   6.239  0.6148  0.2663 -0.0231
 7582TIP3    H122668   0.283   2.413   6.180  0.1958  1.0089  0.1839
 7582TIP3    H222669   0.287   2.315   6.295  1.0148 -0.3471 -0.9785
 7583TIP3   OH222670   0.589   2.113   6.495  0.6659 -0.3081 -0.3268
 7583TIP3    H122671   0.674   2.108   6.539  0.7558 -0.4301 -0.5142
 7583TIP3    H222672   0.601   2.064   6.413 -0.2465 -2.3056  0.7028
 7584TIP3   OH222673   0.357   2.636   4.306  0.3125 -0.2098  0.0174
 7584TIP3    H122674   0.362   2.727   4.276 -0.7974 -0.6399 -1.4908
 7584TIP3    H222675   0.448   2.614   4.328  0.8561  0.7226 -1.2023
 7585TIP3   OH222676   0.646   1.237   5.446  0.0732 -0.3812 -0.0401
 7585TIP3    H122677   0.664   1.320   5.403  0.3575 -0.0675  0.6765
 7585TIP3    H222678   0.611   1.261   5.531  2.7417 -0.9546  1.2955
 7586TIP3   OH222679   1.374   5.607   5.171  1.5051 -0.0333  0.2542
 7586TIP3    H122680   1.418   5.671   5.227  1.0545 -0.2564  0.8663
 7586TIP3    H222681   1.420   5.525   5.188  2.6869  0.3029 -1.2206
 7587TIP3   OH222682   3.453   8.070   1.934  0.0823 -0.1081  0.0989
 7587TIP3    H122683   3.358   8.077   1.920  0.5218  3.4705 -1.4630
 7587TIP3    H222684   3.467   8.103   2.022  0.1248  1.6630 -0.5619
 7588TIP3   OH222685   3.396   3.311   5.976  0.5924 -0.5500  0.1692
 7588TIP3    H122686   3.385   3.275   5.888 -0.5923  0.8624 -0.2799
 7588TIP3    H222687   3.420   3.403   5.961 -0.1317 -0.1597  1.3187
 7589TIP3   OH222688   8.849   4.453   4.682  0.7029 -0.5526 -0.2036
 7589TIP3    H122689   8.873   4.384   4.621  0.1653 -1.7580  0.9257
 7589TIP3    H222690   8.784   4.414   4.739 -1.5360  1.6884 -1.1355
 7590TIP3   OH222691   8.594   4.085   4.821  0.5201  0.3537 -0.0161
 7590TIP3    H122692   8.546   4.081   4.739  0.7677  0.4910 -0.1669
 7590TIP3    H222693   8.671   4.029   4.807  0.5907  0.4207  0.1010
 7591TIP3   OH222694   3.729   4.781   6.538 -0.9361 -0.4341  0.0924
 7591TIP3    H122695   3.634   4.775   6.531 -1.1422  2.1187 -0.0388
 7591TIP3    H222696   3.745   4.869   6.572  1.3162 -1.5573  2.1222
 7592TIP3   OH222697   0.239   2.938   5.958  0.9169  0.6414  0.1792
 7592TIP3    H122698   0.308   3.000   5.934  1.2848  0.1254 -0.1087
 7592TIP3    H222699   0.162   2.967   5.909  1.2664  0.4696 -0.4698
 7593TIP3   OH222700   0.699   0.107   0.090 -0.5480 -0.7096  0.3259
 7593TIP3    H122701   0.655   0.097   0.174 -2.0577 -1.0449 -0.4953
 7593TIP3    H222702   0.758   0.181   0.103 -1.0172 -0.5434  1.5832
 7594TIP3   OH222703   1.614   3.493   6.013  0.0039  0.1464 -0.0268
 7594TIP3    H122704   1.677   3.546   6.063  1.5966 -1.4274 -0.3299
 7594TIP3    H222705   1.665   3.458   5.940 -1.3012 -0.9661 -0.4124
 7595TIP3   OH222706   1.702   3.345   3.074  0.1641 -0.3716 -0.0367
 7595TIP3    H122707   1.789   3.357   3.036  0.4977 -2.4017 -0.0090
 7595TIP3    H222708   1.650   3.308   3.003 -0.9881  1.7967 -0.3575
 7596TIP3   OH222709   0.863   5.015   5.782  0.5258  0.4788 -0.1969
 7596TIP3    H122710   0.800   4.969   5.727  1.0224  1.5268 -1.6879
 7596TIP3    H222711   0.913   4.945   5.825 -0.8475 -0.3516  0.0930
 7597TIP3   OH222712   1.363   5.784   6.502 -0.3831  0.2570  0.2881
 7597TIP3    H122713   1.370   5.722   6.574 -1.8886  1.0227  1.1103
 7597TIP3    H222714   1.275   5.772   6.468 -0.7592  2.0558  0.5795
 7598TIP3   OH222715   0.040   6.188   5.125 -0.3071 -0.0259 -0.3033
 7598TIP3    H122716   0.037   6.212   5.033  1.3966 -1.0469 -0.6390
 7598TIP3    H222717   0.133   6.194   5.149 -0.2230 -3.0981  0.4179
 7599TIP3   OH222718   0.496   5.204   3.994  0.1377 -0.4591  0.3787
 7599TIP3    H122719   0.421   5.165   3.947  0.1470  0.1643 -0.1549
 7599TIP3    H222720   0.469   5.294   4.011  1.6654  0.4447 -1.8193
 7600TIP3   OH222721   7.131   4.165   4.101 -0.2469  0.5619  0.4689
 7600TIP3    H122722   7.206   4.216   4.072 -0.4098  0.0284 -0.9303
 7600TIP3    H222723   7.104   4.206   4.184  2.6091 -0.2955  1.8793
 7601TIP3   OH222724   2.081   3.344   3.615 -0.1808 -0.6197  0.2389
 7601TIP3    H122725   2.079   3.290   3.694 -0.1632 -0.6734  0.2034
 7601TIP3    H222726   2.136   3.418   3.638  2.2438 -2.0800 -0.6376
 7602TIP3   OH222727   0.224   2.692   7.083 -0.2226 -0.3980  0.3458
 7602TIP3    H122728   0.206   2.635   7.008 -0.5111  1.2369 -0.8691
 7602TIP3    H222729   0.144   2.688   7.136 -0.2585 -1.0875  0.2354
 7603TIP3   OH222730   0.665   4.508   4.614  0.0384  0.1316 -0.1480
 7603TIP3    H122731   0.613   4.587   4.598 -0.4224 -0.0801  0.2958
 7603TIP3    H222732   0.704   4.488   4.529 -0.1072  0.6539 -0.3392
 7604TIP3   OH222733   0.888   5.669   2.079  0.5773  0.0112 -0.7790
 7604TIP3    H122734   0.862   5.589   2.126 -0.0054 -0.4575 -1.8872
 7604TIP3    H222735   0.845   5.740   2.127 -1.2054 -0.5938 -1.4508
 7605TIP3   OH222736   1.402   4.272   4.842  0.4870 -0.4371 -0.0349
 7605TIP3    H122737   1.429   4.203   4.781  0.3522 -0.3822 -0.1583
 7605TIP3    H222738   1.444   4.351   4.808  2.2017 -0.8073  1.2043
 7606TIP3   OH222739   8.398   5.219   5.963  0.3859 -0.2295  0.1470
 7606TIP3    H122740   8.491   5.199   5.977  0.5153  0.9417  1.0369
 7606TIP3    H222741   8.362   5.232   6.050 -0.6123 -0.6219 -0.1996
 7607TIP3   OH222742   1.004   3.677   5.941 -0.0594 -0.1619 -0.8140
 7607TIP3    H122743   0.972   3.763   5.968  0.6549  0.1785 -1.0387
 7607TIP3    H222744   1.020   3.631   6.024  1.3792  0.6020 -0.6594
 7608TIP3   OH222745   2.152   2.671   4.829  0.1468  0.2670 -0.7555
 7608TIP3    H122746   2.063   2.649   4.805 -0.5994  1.0082  1.2253
 7608TIP3    H222747   2.155   2.767   4.824  1.2039  0.1912 -2.0053
 7609TIP3   OH222748   0.568   4.904   3.595 -0.1262 -1.0230 -0.4212
 7609TIP3    H122749   0.528   4.818   3.583 -1.2048 -0.3918 -1.4472
 7609TIP3    H222750   0.553   4.949   3.512  0.6987  0.0544  0.0016
 7610TIP3   OH222751   0.455   4.950   3.319 -0.1697 -0.8484  0.0998
 7610TIP3    H122752   0.504   4.955   3.236  0.3620  1.2113  0.5082
 7610TIP3    H222753   0.430   4.858   3.326  0.8325 -1.2985 -1.7526
 7611TIP3   OH222754   1.134   4.955   3.735  0.1034  0.0974 -0.1367
 7611TIP3    H122755   1.113   4.956   3.641  1.6354 -0.9074 -0.4939
 7611TIP3    H222756   1.129   5.047   3.761 -2.5719  0.1524 -0.6724
 7612TIP3   OH222757   0.379   5.166   7.003  0.0285 -0.5219 -0.5956
 7612TIP3    H122758   0.413   5.216   7.077 -2.7433  0.3441  0.1362
 7612TIP3    H222759   0.438   5.188   6.930  0.2689  1.9226  0.3109
 7613TIP3   OH222760   0.352   4.637   4.540  0.2457 -0.4039  0.4175
 7613TIP3    H122761   0.278   4.654   4.599 -0.1059  0.7533 -0.3206
 7613TIP3    H222762   0.411   4.711   4.554  0.0053  0.0505 -0.9041
 7614TIP3   OH222763   1.029   2.574   2.022  0.2143 -0.1177 -0.5345
 7614TIP3    H122764   1.098   2.529   2.071  0.6057  0.7006 -0.3149
 7614TIP3    H222765   0.967   2.601   2.089 -0.4606 -1.0885 -0.7625
 7615TIP3   OH222766   8.732   4.463   2.974 -0.0156  0.0264  0.6661
 7615TIP3    H122767   8.823   4.472   3.000 -0.1009 -0.4682  1.1301
 7615TIP3    H222768   8.735   4.449   2.879  0.4606 -1.2701  0.8625
 7616TIP3   OH222769   2.985   5.637   7.176  0.0547 -0.3117  0.0434
 7616TIP3    H122770   2.906   5.643   7.121  0.7809  0.1175 -0.9652
 7616TIP3    H222771   3.038   5.569   7.135  0.2920 -0.4788  0.6211
 7617TIP3   OH222772   8.164   3.770   5.099  0.3792 -0.4219 -0.1279
 7617TIP3    H122773   8.221   3.822   5.155 -0.4430 -0.8695  1.1473
 7617TIP3    H222774   8.081   3.818   5.097 -0.0229 -1.0974  0.1324
 7618TIP3   OH222775   1.654   1.819   6.275 -0.0665  0.2551  0.4832
 7618TIP3    H122776   1.720   1.848   6.337 -0.5989  0.3521  1.0083
 7618TIP3    H222777   1.574   1.863   6.304 -0.5155 -0.4332  0.2821
 7619TIP3   OH222778   1.398   3.654   4.298 -0.3824  0.7196  0.5015
 7619TIP3    H122779   1.346   3.649   4.378 -0.1337  0.2533  0.6382
 7619TIP3    H222780   1.396   3.746   4.273  0.7443  1.1233  1.8527
 7620TIP3   OH222781   7.393   4.501   5.753  0.3077  0.2551  0.4035
 7620TIP3    H122782   7.332   4.464   5.689  1.0469 -1.5742  0.7296
 7620TIP3    H222783   7.469   4.527   5.701 -0.4886  2.0076  0.0777
 7621TIP3   OH222784   1.503   3.834   4.993 -0.2764 -0.4151 -0.3360
 7621TIP3    H122785   1.439   3.788   4.939 -0.9295 -1.1692  1.0472
 7621TIP3    H222786   1.576   3.774   5.001  0.0413 -0.0964 -0.7904
 7622TIP3   OH222787   6.914   2.216   2.614 -0.2349 -0.3386 -0.2603
 7622TIP3    H122788   6.975   2.284   2.586 -0.9474 -0.1332 -1.3453
 7622TIP3    H222789   6.919   2.218   2.710  2.1615 -1.0047 -0.3405
 7623TIP3   OH222790   2.073   3.511   2.781 -0.1915  0.7127 -0.6666
 7623TIP3    H122791   2.075   3.436   2.841 -2.1668  2.8196  2.1280
 7623TIP3    H222792   1.989   3.552   2.797 -0.0298  2.3420 -3.7176
 7624TIP3   OH222793   3.378   3.186   5.739 -0.0319  0.0414  0.1094
 7624TIP3    H122794   3.296   3.143   5.718 -0.8068  0.4640  2.1831
 7624TIP3    H222795   3.444   3.137   5.689 -1.3545 -1.1233 -0.5315
 7625TIP3   OH222796   0.799   1.712   4.007  0.0655 -0.3413  0.0141
 7625TIP3    H122797   0.783   1.806   4.019 -0.4709 -0.4329  0.0187
 7625TIP3    H222798   0.714   1.676   3.983  0.5068 -0.6398 -1.1678
 7626TIP3   OH222799   1.053   2.832   4.095 -0.6833  0.2144 -0.3538
 7626TIP3    H122800   0.995   2.757   4.109 -2.2142  1.3500 -0.4510
 7626TIP3    H222801   1.007   2.885   4.029  0.3946  1.2153 -0.3039
 7627TIP3   OH222802   8.512   3.546   5.173 -0.1549  0.0258  0.0367
 7627TIP3    H122803   8.474   3.481   5.232  1.4374 -1.1380 -0.1835
 7627TIP3    H222804   8.528   3.622   5.228  2.8600 -1.6104  1.5528
 7628TIP3   OH222805   1.961   4.352   5.833 -0.2186 -0.4141 -0.1556
 7628TIP3    H122806   1.937   4.432   5.878 -0.3099 -0.5943  0.1162
 7628TIP3    H222807   2.052   4.337   5.858 -0.6146 -1.1309  0.8875
 7629TIP3   OH222808   2.650   2.469   4.038  0.0952 -0.1219  0.1325
 7629TIP3    H122809   2.620   2.387   3.999  1.0111  0.6049 -2.2000
 7629TIP3    H222810   2.740   2.451   4.065  0.3481  0.1260 -0.5167
 7630TIP3   OH222811   1.028   5.418   6.714 -0.0966 -0.2628 -0.1188
 7630TIP3    H122812   1.026   5.432   6.619  0.7394  1.2853  0.0762
 7630TIP3    H222813   0.986   5.497   6.750 -0.0697 -0.6739  0.8188
 7631TIP3   OH222814   8.688   2.509   6.152 -0.5167  0.7510 -0.8171
 7631TIP3    H122815   8.710   2.534   6.242 -0.5526 -1.1262 -0.2632
 7631TIP3    H222816   8.741   2.431   6.136 -2.3226 -0.3454 -1.5633
 7632TIP3   OH222817   0.982   3.622   4.908 -0.4549  0.4292 -0.1929
 7632TIP3    H122818   1.006   3.579   4.990 -1.2838 -1.6788 -1.0409
 7632TIP3    H222819   0.953   3.709   4.935  0.8831  0.3746  1.5782
 7633TIP3   OH222820   4.888   6.172  -0.021 -0.2790 -0.0033 -0.2390
 7633TIP3    H122821   4.835   6.220   0.043  0.7788 -0.2901  0.8673
 7633TIP3    H222822   4.978   6.184   0.010  0.1060 -1.4459 -0.8029
 7634TIP3   OH222823   1.374   3.659   6.271  0.1296  0.1854 -0.5082
 7634TIP3    H122824   1.358   3.633   6.180 -0.9223  0.5664 -0.4382
 7634TIP3    H222825   1.345   3.585   6.323  0.1517  0.2133 -0.4563
 7635TIP3   OH222826   1.595   2.074   4.134 -0.4074 -0.2733 -0.4089
 7635TIP3    H122827   1.658   2.048   4.201 -0.9244 -0.8924 -0.1495
 7635TIP3    H222828   1.545   1.994   4.117 -1.9866  0.5331  0.3370
 7636TIP3   OH222829   0.466   1.104   7.042  0.1161  0.1607  0.1356
 7636TIP3    H122830   0.484   1.025   6.991  0.7386  0.3845  0.0051
 7636TIP3    H222831   0.391   1.080   7.098  0.6972 -0.7148  0.5444
 7637TIP3   OH222832   0.268   2.332   4.959 -0.1380 -0.2316 -0.2329
 7637TIP3    H122833   0.179   2.306   4.935  0.8574 -2.1210 -2.0610
 7637TIP3    H222834   0.304   2.257   5.005  0.1519  0.9521  1.5193
 7638TIP3   OH222835   1.555   7.606   6.775  0.3025 -0.0652 -0.2487
 7638TIP3    H122836   1.545   7.554   6.854 -0.2959 -1.4631 -1.2164
 7638TIP3    H222837   1.474   7.655   6.766  0.4382  0.2196  0.0916
 7639TIP3   OH222838   3.501   5.297   6.855 -0.1509  0.2486 -0.0044
 7639TIP3    H122839   3.426   5.246   6.885  0.1857 -0.5537 -0.4923
 7639TIP3    H222840   3.467   5.352   6.785 -0.4944  0.6082  0.4459
 7640TIP3   OH222841   7.241   2.939   3.913 -0.2320  0.8350 -0.5393
 7640TIP3    H122842   7.213   2.927   3.822  0.2848  1.4688 -0.7821
 7640TIP3    H222843   7.259   3.033   3.921 -0.3117  0.7886  0.2291
 7641TIP3   OH222844   8.070   3.650   4.588 -0.0915  0.3953 -0.1542
 7641TIP3    H122845   8.038   3.619   4.673 -0.2946  0.3585 -0.2453
 7641TIP3    H222846   8.141   3.590   4.566  1.2219  1.5417  0.8865
 7642TIP3   OH222847   2.211   2.541   4.278  0.4981  0.2623 -0.3271
 7642TIP3    H122848   2.304   2.524   4.295  0.2248 -1.9599 -0.9486
 7642TIP3    H222849   2.197   2.630   4.309  2.0905 -0.5304  2.8692
 7643TIP3   OH222850   0.440   3.851   4.386  0.0624  0.2210 -0.5364
 7643TIP3    H122851   0.424   3.938   4.422 -0.4262  0.6115 -1.6768
 7643TIP3    H222852   0.431   3.862   4.291  0.5609 -0.9495 -0.7256
 7644TIP3   OH222853   0.313   5.133   6.031  0.7310 -0.0500  0.0208
 7644TIP3    H122854   0.354   5.068   5.974 -0.1128 -1.5685  1.1170
 7644TIP3    H222855   0.373   5.142   6.105 -0.2047 -1.2407  0.9454
 7645TIP3   OH222856   1.070   4.817   5.970  0.0106 -0.3470 -0.1297
 7645TIP3    H122857   1.164   4.799   5.958 -0.1276 -0.5476 -0.9300
 7645TIP3    H222858   1.026   4.737   5.940 -0.3958 -0.4998  0.8422
 7646TIP3   OH222859   1.612   5.420   6.517  0.0131  0.7032  0.6680
 7646TIP3    H122860   1.518   5.433   6.533  0.3079 -1.3467  4.6124
 7646TIP3    H222861   1.622   5.325   6.509  1.8001  0.8960  0.5711
 7647TIP3   OH222862   1.922   1.753   6.451 -0.0682 -0.0420 -0.2692
 7647TIP3    H122863   1.990   1.725   6.390  1.8791  0.4169  1.6140
 7647TIP3    H222864   1.877   1.672   6.475 -0.5229 -0.2899 -1.8847
 7648TIP3   OH222865   7.264   2.055   5.596  0.2626 -0.1095 -0.2633
 7648TIP3    H122866   7.226   2.082   5.513 -0.4420 -2.3961 -0.7166
 7648TIP3    H222867   7.357   2.044   5.577  0.1010 -0.6425 -0.7753
 7649TIP3   OH222868   7.777   4.010   3.827 -0.0539 -0.5375 -0.1186
 7649TIP3    H122869   7.834   4.052   3.892 -0.2134 -0.2631 -0.1597
 7649TIP3    H222870   7.808   4.042   3.743  1.3905 -2.3321 -0.3269
 7650TIP3   OH222871   0.824   2.751   5.934 -0.0070 -0.4939 -0.3311
 7650TIP3    H122872   0.868   2.788   5.857  1.7436  0.7439  1.2275
 7650TIP3    H222873   0.767   2.822   5.964 -1.6372 -1.4085 -1.1755
 7651TIP3   OH222874   1.140   6.115   5.241  0.7947  0.5213 -0.1100
 7651TIP3    H122875   1.159   6.023   5.256  0.1187  0.1266 -1.6157
 7651TIP3    H222876   1.225   6.159   5.253  1.0493 -0.2364  0.9467
 7652TIP3   OH222877   2.211   7.203   7.108  0.5868 -0.0441  0.0537
 7652TIP3    H122878   2.252   7.289   7.119 -1.1258  1.0521 -1.8039
 7652TIP3    H222879   2.251   7.168   7.028  3.6058 -2.4050  2.4784
 7653TIP3   OH222880   0.898   0.303   0.097  0.0291 -0.1871  0.0836
 7653TIP3    H122881   0.972   0.350   0.058  0.3228 -0.1262  0.7184
 7653TIP3    H222882   0.912   0.309   0.191 -0.0437 -1.3755  0.1730
 7654TIP3   OH222883   2.159   2.239   2.730 -0.3147  0.1601 -0.4955
 7654TIP3    H122884   2.150   2.170   2.795 -2.1676  0.1126 -0.7868
 7654TIP3    H222885   2.104   2.211   2.656  0.8790  0.7449 -1.6319
 7655TIP3   OH222886   8.553   3.228   6.407  0.0615 -0.2560  0.3389
 7655TIP3    H122887   8.601   3.226   6.490  3.2062 -0.8051 -1.4083
 7655TIP3    H222888   8.469   3.268   6.429  0.8447 -0.3024  3.7556
 7656TIP3   OH222889   7.906   5.111   5.816 -0.1041  0.1503  0.5428
 7656TIP3    H122890   7.976   5.102   5.881  0.1712  1.6343  0.4603
 7656TIP3    H222891   7.891   5.205   5.809 -0.9730 -0.0633 -0.6599
 7657TIP3   OH222892   0.657   2.742   3.484 -0.2282 -0.7960  0.0510
 7657TIP3    H122893   0.666   2.806   3.555 -1.8064 -1.4753  0.8932
 7657TIP3    H222894   0.564   2.718   3.484  0.2178 -2.6691 -0.6204
 7658TIP3   OH222895   0.435   4.384   4.929 -0.1777 -0.1705  0.2099
 7658TIP3    H122896   0.500   4.454   4.938 -1.6185  1.5566 -1.9248
 7658TIP3    H222897   0.426   4.372   4.834 -2.1964 -1.0682  0.4770
 7659TIP3   OH222898   1.729   4.937   5.453  0.3712 -0.1131  0.0746
 7659TIP3    H122899   1.749   4.871   5.386 -0.2943 -0.9682  0.7061
 7659TIP3    H222900   1.634   4.949   5.448  0.3177 -0.1768  0.8466
 7660TIP3   OH222901   0.362   5.883   6.828  0.5603 -0.7582 -0.0297
 7660TIP3    H122902   0.386   5.964   6.784  1.8066 -0.5451  1.0383
 7660TIP3    H222903   0.334   5.825   6.757  0.1187  0.4318 -0.8467
 7661TIP3   OH222904   0.445   5.134   6.315 -0.1711  0.2970  0.2178
 7661TIP3    H122905   0.524   5.084   6.335  0.6601  1.3021 -0.5068
 7661TIP3    H222906   0.387   5.117   6.389  0.6696 -0.5650  0.6946
 7662TIP3   OH222907   0.960   3.957   1.852  0.1155  0.6180 -0.2605
 7662TIP3    H122908   0.962   3.880   1.909  0.0969  0.4543 -0.4795
 7662TIP3    H222909   0.870   3.960   1.821  0.4902 -0.1620 -1.4586
 7663TIP3   OH222910   1.483   5.481   6.165 -0.1649  0.1812  0.1348
 7663TIP3    H122911   1.411   5.422   6.145 -0.8074  0.8471  0.4367
 7663TIP3    H222912   1.559   5.425   6.174 -1.0851 -0.7929  2.1301
 7664TIP3   OH222913   1.585   4.606   2.668  0.0764 -0.0349  0.4887
 7664TIP3    H122914   1.652   4.612   2.599 -0.1255 -0.3445  0.2670
 7664TIP3    H222915   1.603   4.681   2.725  0.4144  0.0665  0.2507
 7665TIP3   OH222916   1.554   1.753   7.278  0.3266  0.3651 -0.2366
 7665TIP3    H122917   1.497   1.804   7.221  1.4423  0.5330 -1.2166
 7665TIP3    H222918   1.632   1.737   7.226  1.4247  0.6349  1.2887
 7666TIP3   OH222919   8.374   3.940   4.364 -0.1786 -0.0214 -0.0729
 7666TIP3    H122920   8.352   4.022   4.320  1.2469  1.3538  1.7236
 7666TIP3    H222921   8.425   3.891   4.299 -1.0972  0.4469 -1.1776
 7667TIP3   OH222922   7.618   4.991   1.453  0.5167 -0.2249  0.0323
 7667TIP3    H122923   7.541   4.934   1.448  0.3915 -0.1330  0.8506
 7667TIP3    H222924   7.692   4.931   1.449  0.3896 -0.4010  0.2541
 7668TIP3   OH222925   0.669   4.803   2.466 -0.1347 -0.6491 -0.1277
 7668TIP3    H122926   0.720   4.855   2.404 -0.2201  1.2816  1.3740
 7668TIP3    H222927   0.731   4.738   2.501 -0.1144 -1.8136 -2.2571
 7669TIP3   OH222928   7.905   5.827   4.808 -0.4192  0.0553  0.9799
 7669TIP3    H122929   7.896   5.921   4.826 -1.3270 -0.1416  1.6230
 7669TIP3    H222930   7.913   5.787   4.895 -0.1679 -0.4732  0.7150
 7670TIP3   OH222931   1.772   3.296   6.831  0.1898 -0.0090 -0.1694
 7670TIP3    H122932   1.727   3.365   6.781 -0.6323  1.3292  2.3386
 7670TIP3    H222933   1.865   3.313   6.816 -0.0048  1.5874  0.2963
 7671TIP3   OH222934   1.069   3.535   3.845  0.3351 -0.2495  0.0170
 7671TIP3    H122935   1.119   3.462   3.808 -0.3473 -0.5210 -0.3802
 7671TIP3    H222936   1.119   3.562   3.922  0.3627 -1.4374  0.4312
 7672TIP3   OH222937   8.692   3.129   5.149  0.2713  0.2579  0.0779
 7672TIP3    H122938   8.616   3.072   5.141 -0.3403  0.9443  0.7857
 7672TIP3    H222939   8.657   3.210   5.187  1.2384  0.8362 -0.2268
 7673TIP3   OH222940   8.609   0.392   5.828 -0.2388 -0.3731  0.0939
 7673TIP3    H122941   8.585   0.458   5.763 -1.2572  0.5659  1.3729
 7673TIP3    H222942   8.526   0.370   5.871  0.1242 -2.3628 -0.1810
 7674TIP3   OH222943   3.576   2.721   5.292  0.6929 -0.1402  0.3911
 7674TIP3    H122944   3.501   2.662   5.305  1.3027 -0.9986  0.0741
 7674TIP3    H222945   3.537   2.806   5.274 -0.2211 -0.6699 -0.1700
 7675TIP3   OH222946   2.673   2.433   5.864  0.1234 -0.2099  0.3075
 7675TIP3    H122947   2.631   2.486   5.797  2.5641  0.2557 -0.8906
 7675TIP3    H222948   2.706   2.356   5.818 -1.2651 -1.6489  1.6217
 7676TIP3   OH222949   0.871   7.000   5.973 -0.4293  0.0568  0.2673
 7676TIP3    H122950   0.889   6.990   6.066  3.7397  0.0973 -0.4748
 7676TIP3    H222951   0.872   6.911   5.938  0.1454  0.2016 -0.0910
 7677TIP3   OH222952   1.596   2.377   2.644 -0.2477 -0.3158 -0.0397
 7677TIP3    H122953   1.653   2.325   2.700  0.3850  1.8606  1.4010
 7677TIP3    H222954   1.656   2.432   2.593 -0.8365 -1.9002 -2.5524
 7678TIP3   OH222955   0.762   4.418   3.924  0.1878  0.5430 -0.5681
 7678TIP3    H122956   0.835   4.406   3.984  0.5241  0.2250 -1.0379
 7678TIP3    H222957   0.752   4.513   3.916  2.0896  0.6275 -2.3519
 7679TIP3   OH222958   0.088   2.331   3.405  0.3181  0.4073 -0.1847
 7679TIP3    H122959   0.014   2.271   3.407  0.2379  0.4952 -0.4493
 7679TIP3    H222960   0.060   2.401   3.346  0.1062  1.0899  0.7055
 7680TIP3   OH222961   8.227   3.813   3.111  0.7816  0.7881  0.3317
 7680TIP3    H122962   8.155   3.780   3.165  0.5736  1.2020  0.3072
 7680TIP3    H222963   8.188   3.827   3.025  1.1892 -0.1807 -0.0275
 7681TIP3   OH222964   8.597   3.047   3.869 -0.6221 -0.6752 -0.1827
 7681TIP3    H122965   8.663   3.106   3.833 -1.3496  1.2241  1.4671
 7681TIP3    H222966   8.605   2.967   3.817  2.4380 -0.2167 -0.5167
 7682TIP3   OH222967   0.836   4.788   4.776 -0.3874 -0.3392 -0.1876
 7682TIP3    H122968   0.919   4.783   4.729  0.0186  1.5063  0.2782
 7682TIP3    H222969   0.860   4.779   4.868 -0.9879 -2.2136 -0.1960
 7683TIP3   OH222970   0.620   2.683   6.334  0.5189  0.3292 -0.2363
 7683TIP3    H122971   0.549   2.639   6.380  0.6472  0.1151 -0.2390
 7683TIP3    H222972   0.687   2.615   6.324  0.6821  0.5028 -0.3207
 7684TIP3   OH222973   4.185   8.110   1.530  0.7393 -0.3678 -0.0385
 7684TIP3    H122974   4.178   8.180   1.465 -1.7970  0.1544  0.7319
 7684TIP3    H222975   4.173   8.029   1.480  1.0415 -0.1151 -0.5272
 7685TIP3   OH222976   8.125   2.555   4.876  0.0808  0.1471  0.2226
 7685TIP3    H122977   8.139   2.468   4.913 -0.2732 -0.3297 -0.7666
 7685TIP3    H222978   8.189   2.563   4.806  0.1060  0.6810  0.3039
 7686TIP3   OH222979   8.298   6.106   5.922  0.0535 -0.0744  0.1649
 7686TIP3    H122980   8.334   6.057   5.849 -0.2294  0.1694 -0.1392
 7686TIP3    H222981   8.205   6.081   5.925  0.1683 -0.4545  0.7432
 7687TIP3   OH222982   0.344   4.123   4.432  0.2927  0.1158  0.4125
 7687TIP3    H122983   0.337   4.198   4.490 -1.0478  0.3635 -0.0383
 7687TIP3    H222984   0.258   4.080   4.439  0.1513  0.0916 -1.2812
 7688TIP3   OH222985   8.023   2.979   3.924  0.1554 -0.3175  0.2212
 7688TIP3    H122986   7.952   2.994   3.986  0.5930  0.0857  0.6288
 7688TIP3    H222987   8.063   2.896   3.951  0.6706  0.1154  0.7917
 7689TIP3   OH222988   0.660   4.132   4.073  0.3143 -0.2851 -0.5826
 7689TIP3    H122989   0.590   4.195   4.057  0.8245  0.6770  0.8986
 7689TIP3    H222990   0.738   4.173   4.034  0.1423 -1.1845 -1.9002
 7690TIP3   OH222991   0.712   2.995   4.449  0.3060  0.2395  0.3058
 7690TIP3    H122992   0.765   3.038   4.382 -0.0478 -1.1542 -0.9145
 7690TIP3    H222993   0.711   3.056   4.522  0.5554  1.8963 -1.0294
 7691TIP3   OH222994   0.442   4.885   7.128  0.5559  0.1174  0.1673
 7691TIP3    H122995   0.381   4.897   7.200  0.3747 -1.6077  0.3138
 7691TIP3    H222996   0.517   4.940   7.151 -0.2347  0.9532  0.7949
 7692TIP3   OH222997   8.842   3.446   6.214  0.9909 -0.6878  0.0653
 7692TIP3    H122998   8.774   3.413   6.155 -0.2090  0.0960  0.9816
 7692TIP3    H222999   8.886   3.368   6.246 -0.6681 -1.3318  0.8511
 7693TIP3   OH223000   2.297   4.556   5.511  0.5783  0.2990  0.7068
 7693TIP3    H123001   2.387   4.586   5.522  0.0454  2.0977  0.3589
 7693TIP3    H223002   2.303   4.485   5.447  1.5623  1.5347 -0.6111
 7694TIP3   OH223003   0.117   5.362   4.906 -0.3209 -0.1499  0.3332
 7694TIP3    H123004   0.160   5.433   4.955 -1.5690  0.4674  0.5561
 7694TIP3    H223005   0.147   5.282   4.949  1.6383  0.1889 -0.3345
 7695TIP3   OH223006   1.205   2.775   2.390  0.1627  0.4296  0.6525
 7695TIP3    H123007   1.168   2.698   2.432 -0.8919  1.7110  2.1627
 7695TIP3    H223008   1.161   2.780   2.305 -0.5188 -0.0578  0.9760
 7696TIP3   OH223009   6.051   0.016   0.723 -0.1422 -0.1073  0.2578
 7696TIP3    H123010   6.090  -0.022   0.645 -0.1099  0.4540 -0.0061
 7696TIP3    H223011   6.106   0.093   0.742 -0.4161  0.0129  0.5669
 7697TIP3   OH223012   0.303   3.853   4.763  0.0893 -0.3176  0.1317
 7697TIP3    H123013   0.275   3.790   4.830 -1.4147  1.1396  0.8977
 7697TIP3    H223014   0.225   3.905   4.744  0.8359  0.1313 -1.8418
 7698TIP3   OH223015   1.768   4.174   6.787  0.4365  0.2430  0.3442
 7698TIP3    H123016   1.810   4.090   6.803 -0.7391 -0.2915  0.7011
 7698TIP3    H223017   1.691   4.152   6.734  0.9560  1.2732 -0.8565
 7699TIP3   OH223018   8.774   5.842   3.245  0.0635  0.0140 -0.0986
 7699TIP3    H123019   8.810   5.757   3.270  1.8024  0.8340  0.3093
 7699TIP3    H223020   8.723   5.870   3.321  0.2793 -0.2503  0.1463
 7700TIP3   OH223021   2.137   5.553   4.910 -0.3584  0.0077 -0.6896
 7700TIP3    H123022   2.146   5.505   4.992  1.0265  0.3991 -0.5883
 7700TIP3    H223023   2.045   5.545   4.887 -0.7977  0.0573  1.0040
 7701TIP3   OH223024   2.249   3.398   7.130  0.2894 -0.2337 -0.1070
 7701TIP3    H123025   2.343   3.387   7.115  0.2291 -1.5653  0.3945
 7701TIP3    H223026   2.231   3.488   7.104  1.5888 -0.1527 -0.7927
 7702TIP3   OH223027   3.337   4.263   6.020  0.0677  0.3405  0.1130
 7702TIP3    H123028   3.397   4.199   6.059  0.5808  0.7074 -0.0652
 7702TIP3    H223029   3.387   4.303   5.949 -0.4627  0.5057 -0.1736
 7703TIP3   OH223030   1.972   3.124   6.387 -0.1825 -0.7393  0.2809
 7703TIP3    H123031   1.917   3.181   6.333  1.9815  2.1080  0.9664
 7703TIP3    H223032   2.046   3.101   6.331 -0.5536 -2.1238  0.3390
 7704TIP3   OH223033   4.517   7.104   0.083  0.2609 -0.3985 -0.4698
 7704TIP3    H123034   4.467   7.127   0.005  1.4083 -0.1105 -1.1191
 7704TIP3    H223035   4.590   7.165   0.084 -0.1315  0.0778  1.2265
 7705TIP3   OH223036   3.910   7.782   0.726 -0.7091  0.2473 -0.6344
 7705TIP3    H123037   3.854   7.852   0.759  0.3076 -0.1042  1.9229
 7705TIP3    H223038   3.985   7.828   0.688 -0.5501  0.5945  0.0822
 7706TIP3   OH223039   4.681   6.554   0.555  0.4314  0.1977  0.1518
 7706TIP3    H123040   4.719   6.573   0.641 -1.3219  0.6795  0.8263
 7706TIP3    H223041   4.752   6.571   0.493  1.0333  1.9723  1.3154
 7707TIP3   OH223042   0.593   5.754   6.660  0.0951 -0.2409 -0.2339
 7707TIP3    H123043   0.560   5.725   6.575 -0.9458 -0.3234  0.1974
 7707TIP3    H223044   0.566   5.685   6.721 -0.5509  0.6002  0.4370
 7708TIP3   OH223045   0.554   2.599   5.722  0.5603  0.2473 -0.0615
 7708TIP3    H123046   0.595   2.513   5.725  0.1382 -0.0595 -2.0390
 7708TIP3    H223047   0.524   2.608   5.631 -2.9046  0.8232  1.0544
 7709TIP3   OH223048   8.257   3.392   4.512 -0.1758  0.2165 -0.0590
 7709TIP3    H123049   8.181   3.343   4.542  0.1282  0.6821  1.5120
 7709TIP3    H223050   8.321   3.325   4.486 -0.0730 -0.2142  1.2905
 7710TIP3   OH223051   0.443   2.337   6.399 -0.7026 -0.1581 -0.1671
 7710TIP3    H123052   0.412   2.406   6.457 -2.3007 -1.5290  0.6660
 7710TIP3    H223053   0.501   2.284   6.453  1.2525  1.0206 -1.0588
 7711TIP3   OH223054   7.283   3.931   5.088 -0.2565  0.1873  0.2864
 7711TIP3    H123055   7.249   3.954   5.174 -1.0015 -2.5160  0.7797
 7711TIP3    H223056   7.208   3.896   5.041  0.5700 -0.2403 -0.7379
 7712TIP3   OH223057   1.456   5.210   4.632  0.3342  0.4737  0.0048
 7712TIP3    H123058   1.396   5.183   4.563 -0.3060  0.0940  0.6929
 7712TIP3    H223059   1.411   5.185   4.713  1.5688 -0.1236  0.5183
 7713TIP3   OH223060   1.805   5.587   5.232 -1.1471  0.1634  0.5101
 7713TIP3    H123061   1.830   5.660   5.288  0.9530 -0.0531 -0.1204
 7713TIP3    H223062   1.822   5.617   5.143 -2.1478 -0.3727  0.1289
 7714TIP3   OH223063   0.545   5.443   6.775 -0.4107  0.6541  0.3142
 7714TIP3    H123064   0.618   5.430   6.835 -1.0319 -2.0005  0.5400
 7714TIP3    H223065   0.579   5.418   6.690 -0.2997  1.9652 -0.0430
 7715TIP3   OH223066   0.123   3.903   3.566  0.2414 -0.4392  0.7571
 7715TIP3    H123067   0.197   3.950   3.606 -0.2370  0.8481  0.1747
 7715TIP3    H223068   0.091   3.847   3.636  1.4517 -0.6383  1.1770
 7716TIP3   OH223069   0.033   4.774   3.207  0.4007 -0.1842 -0.0196
 7716TIP3    H123070  -0.042   4.718   3.184  0.4863 -0.0750 -0.5752
 7716TIP3    H223071   0.018   4.797   3.298  0.1774 -0.8289  0.1127
 7717TIP3   OH223072   8.572   5.052   5.651 -0.1452 -0.0014 -0.6623
 7717TIP3    H123073   8.490   5.009   5.677  0.3953 -1.8211 -1.8483
 7717TIP3    H223074   8.620   5.062   5.733 -0.8026 -0.5855 -0.1976
 7718TIP3   OH223075   1.388   5.427   4.180  0.1246  0.2483 -0.0657
 7718TIP3    H123076   1.405   5.504   4.125 -2.4206  1.1399  0.3195
 7718TIP3    H223077   1.332   5.460   4.250  0.4806 -1.6077  1.1094
 7719TIP3   OH223078   7.758   2.970   4.041  0.6733  0.0381 -0.3587
 7719TIP3    H123079   7.685   2.938   3.988  1.2637 -0.6364 -0.7621
 7719TIP3    H223080   7.731   3.058   4.067  0.3277  0.3297 -1.6662
 7720TIP3   OH223081   2.811   4.256   6.195 -0.5150 -0.6566  0.3855
 7720TIP3    H123082   2.816   4.165   6.166 -0.6589 -0.8728  1.0107
 7720TIP3    H223083   2.737   4.258   6.256 -1.5188  0.2326 -0.8458
 7721TIP3   OH223084   1.164   3.539   5.736  0.0200 -0.0452 -0.1370
 7721TIP3    H123085   1.164   3.575   5.825 -1.9396 -0.6784  0.1430
 7721TIP3    H223086   1.240   3.481   5.734  0.7589  0.8674  0.7518
 7722TIP3   OH223087   4.251   0.437   0.526 -0.0499 -0.4333 -0.1798
 7722TIP3    H123088   4.331   0.407   0.570  0.9077  0.6839 -1.1396
 7722TIP3    H223089   4.276   0.446   0.434 -0.6426  2.0903 -0.1221
 7723TIP3   OH223090   2.700   7.515   0.109 -0.3642 -0.5043  0.0148
 7723TIP3    H123091   2.629   7.540   0.050  0.3845 -1.1448 -1.1998
 7723TIP3    H223092   2.777   7.560   0.074  0.1939 -1.3198  0.1639
 7724TIP3   OH223093   1.986   4.053   6.619  0.0391 -0.8201  0.0504
 7724TIP3    H123094   2.079   4.029   6.626  0.3428  0.3876  0.3550
 7724TIP3    H223095   1.950   4.035   6.706  0.3604  0.1761  0.3994
 7725TIP3   OH223096   1.574   3.842   3.843 -0.1183  0.0453 -0.1058
 7725TIP3    H123097   1.593   3.889   3.924  2.3426  0.5929 -0.9705
 7725TIP3    H223098   1.589   3.750   3.865 -0.4508  0.0948  0.3323
 7726TIP3   OH223099   8.651   2.710   4.306 -0.8788 -0.2586 -0.2637
 7726TIP3    H123100   8.634   2.784   4.364  0.7644  0.3760 -0.5665
 7726TIP3    H223101   8.650   2.748   4.218 -0.4886 -0.6927 -0.4572
 7727TIP3   OH223102   0.504   4.715   5.422 -0.5109  0.3215 -0.2053
 7727TIP3    H123103   0.588   4.691   5.384 -0.2053  2.5296 -0.9924
 7727TIP3    H223104   0.463   4.631   5.445  0.5972 -0.9194 -2.5961
 7728TIP3   OH223105   3.701   5.162   6.280  0.6459 -0.4027 -0.4705
 7728TIP3    H123106   3.630   5.212   6.240  0.0147 -1.1542 -0.2948
 7728TIP3    H223107   3.665   5.074   6.293  1.0587 -0.3387  1.1651
 7729TIP3   OH223108   0.840   3.430   5.833  0.4012  0.2643  0.6269
 7729TIP3    H123109   0.754   3.460   5.805  1.5131  0.7119 -2.4606
 7729TIP3    H223110   0.894   3.509   5.836  1.3154 -0.3208  0.1644
 7730TIP3   OH223111   1.643   5.142   5.783  0.1120 -0.1441  0.2538
 7730TIP3    H123112   1.681   5.056   5.769  0.6697 -0.1810  1.8419
 7730TIP3    H223113   1.703   5.202   5.739  1.8522 -0.2394  2.4044
 7731TIP3   OH223114   6.775   2.432   4.025  0.6036 -0.5452 -0.2232
 7731TIP3    H123115   6.860   2.476   4.024  1.0086 -1.3418 -1.6564
 7731TIP3    H223116   6.796   2.339   4.038 -0.0906 -0.6543  0.1330
 7732TIP3   OH223117   0.392   3.604   6.068  0.0304 -0.1591  0.4987
 7732TIP3    H123118   0.304   3.617   6.104 -0.8991 -0.3839 -1.5928
 7732TIP3    H223119   0.451   3.630   6.138 -1.6719 -1.9950  2.7018
 7733TIP3   OH223120   7.082   2.978   5.964 -0.6199 -0.0495  0.1164
 7733TIP3    H123121   7.002   2.973   6.015  1.2903 -2.1188  3.0161
 7733TIP3    H223122   7.099   3.072   5.956 -3.6414  0.4673 -1.1831
 7734TIP3   OH223123   2.730   3.224   6.320  0.0257 -0.5995  0.4773
 7734TIP3    H123124   2.811   3.182   6.292  0.3263 -1.5538  2.6369
 7734TIP3    H223125   2.736   3.226   6.416 -1.8442  0.6314  0.5960
 7735TIP3   OH223126   2.460   3.671   3.813  0.0549 -0.4841  0.1422
 7735TIP3    H123127   2.535   3.725   3.789 -1.1102  0.1878 -2.0867
 7735TIP3    H223128   2.495   3.582   3.815  1.0853 -0.1013 -0.1319
 7736TIP3   OH223129   8.852   2.298   6.130  0.0250  0.4409 -0.1263
 7736TIP3    H123130   8.938   2.337   6.146  0.4404 -0.5778  0.1548
 7736TIP3    H223131   8.863   2.251   6.047 -0.5845  1.2526 -0.6658
 7737TIP3   OH223132   0.485   5.610   5.413  0.4190 -0.2550  0.0157
 7737TIP3    H123133   0.413   5.663   5.379  0.9942  0.9418  0.5871
 7737TIP3    H223134   0.447   5.524   5.430 -1.2450  0.7451  1.6027
 7738TIP3   OH223135   0.457   5.860   5.264 -0.3019  0.2334 -0.0401
 7738TIP3    H123136   0.487   5.951   5.253 -2.0777  0.5799 -2.5055
 7738TIP3    H223137   0.416   5.838   5.181 -2.3727 -1.9065  1.4657
 7739TIP3   OH223138   8.832   3.796   5.953  0.1627 -0.2118  0.3969
 7739TIP3    H123139   8.859   3.741   5.880 -0.7951  0.0273 -0.1471
 7739TIP3    H223140   8.737   3.791   5.953  0.1715 -0.9029  2.1708
 7740TIP3   OH223141   6.338   1.557   0.130 -0.8363 -0.3766  0.5094
 7740TIP3    H123142   6.252   1.516   0.123 -0.5609 -0.6077 -1.9672
 7740TIP3    H223143   6.386   1.526   0.053  0.5988  1.7512  0.5022
 7741TIP3   OH223144   1.797   5.967   3.274  0.2900  0.3064 -0.2107
 7741TIP3    H123145   1.869   5.976   3.212  0.0026  2.6164 -0.2593
 7741TIP3    H223146   1.719   5.990   3.223  0.1124  2.8816  1.0920
 7742TIP3   OH223147   1.576   4.141   6.598 -0.0687 -0.3761 -0.3351
 7742TIP3    H123148   1.498   4.090   6.624 -0.1002 -0.5933 -0.8523
 7742TIP3    H223149   1.580   4.131   6.503  0.5459 -0.2926 -0.3149
 7743TIP3   OH223150   1.201   6.422   6.618 -0.0118  0.8660  0.2375
 7743TIP3    H123151   1.132   6.488   6.622 -1.5895 -0.7155 -0.2236
 7743TIP3    H223152   1.236   6.419   6.707 -2.2424 -0.0588  1.1315
 7744TIP3   OH223153   0.505   6.114   5.419 -0.2661 -0.2133  0.5458
 7744TIP3    H123154   0.437   6.087   5.481 -0.1156 -3.5534 -0.6271
 7744TIP3    H223155   0.456   6.153   5.346 -0.6328  1.0421  1.4498
 7745TIP3   OH223156   7.612   2.305   5.284  0.0048  0.2832 -0.2672
 7745TIP3    H123157   7.520   2.284   5.266  0.2520  0.5983 -1.9505
 7745TIP3    H223158   7.634   2.248   5.357 -1.2973 -0.4109 -0.3816
 7746TIP3   OH223159   0.140   4.427   6.756  0.5152 -0.3689 -0.2871
 7746TIP3    H123160   0.083   4.365   6.711  0.3984  0.4905 -1.3303
 7746TIP3    H223161   0.223   4.381   6.765  0.7395 -0.3142 -1.9703
 7747TIP3   OH223162   8.488   5.123   4.922 -0.1651 -0.2385 -0.7014
 7747TIP3    H123163   8.536   5.188   4.871 -0.3814 -1.4568 -2.4843
 7747TIP3    H223164   8.556   5.064   4.954  0.0195  0.7574  0.8343
 7748TIP3   OH223165   8.910   4.971   6.174  0.2394 -0.1913  0.8387
 7748TIP3    H123166   8.937   5.055   6.210  0.8442  0.8936 -1.9946
 7748TIP3    H223167   8.820   4.960   6.204  0.1729  1.4514  1.2951
 7749TIP3   OH223168   0.798   5.154   5.085  0.3287 -0.3208 -0.4967
 7749TIP3    H123169   0.888   5.151   5.118 -0.2225 -1.2786  0.9894
 7749TIP3    H223170   0.794   5.236   5.036  1.5153  0.6465  0.9297
 7750TIP3   OH223171   1.266   2.195   4.754 -0.1069 -0.0547 -0.0466
 7750TIP3    H123172   1.307   2.207   4.669  0.6302 -0.5805  0.2325
 7750TIP3    H223173   1.211   2.272   4.765  2.1748  1.5740  0.3509
 7751TIP3   OH223174   7.830   2.591   4.694 -0.9377  0.1318  0.1485
 7751TIP3    H123175   7.857   2.654   4.762  0.4020 -0.4462  0.1773
 7751TIP3    H223176   7.870   2.508   4.721 -0.8721 -0.2331 -1.0318
 7752TIP3   OH223177   1.249   0.948   5.799 -0.0977 -0.0376 -0.1080
 7752TIP3    H123178   1.160   0.919   5.822 -0.7672  1.1740 -1.1325
 7752TIP3    H223179   1.295   0.952   5.883 -1.2036 -0.0120  0.5066
 7753TIP3   OH223180   1.849   4.029   5.995  0.2180  0.1376 -0.0271
 7753TIP3    H123181   1.847   3.958   5.932 -1.1033 -0.0387  0.2103
 7753TIP3    H223182   1.785   4.092   5.963  0.4086  0.6035  0.4875
 7754TIP3   OH223183   6.309   3.770   5.584 -0.2755 -0.4023 -0.5765
 7754TIP3    H123184   6.385   3.755   5.641  0.6007  2.3258 -0.9691
 7754TIP3    H223185   6.294   3.864   5.589 -1.8352 -0.5105 -2.8205
 7755TIP3   OH223186   1.224   0.565   3.767 -0.1445 -0.0094 -0.2347
 7755TIP3    H123187   1.264   0.611   3.840 -0.9901 -0.2008  0.3495
 7755TIP3    H223188   1.155   0.622   3.736  0.3621  0.1812 -1.0527
 7756TIP3   OH223189   1.490   3.290   6.704  0.6865  0.0350 -0.1560
 7756TIP3    H123190   1.520   3.288   6.613  1.5180  0.8813  0.0887
 7756TIP3    H223191   1.420   3.225   6.708  1.0190 -0.4011 -1.2691
 7757TIP3   OH223192   1.844   5.272   3.907 -0.1013  0.0806  0.0711
 7757TIP3    H123193   1.827   5.202   3.844  0.3052  0.4654 -0.4657
 7757TIP3    H223194   1.838   5.229   3.993  0.2309 -0.6275 -0.2601
 7758TIP3   OH223195   1.921   6.985   3.822  0.2522  0.0141 -0.2084
 7758TIP3    H123196   1.942   7.062   3.770 -0.2084  0.3356  0.0816
 7758TIP3    H223197   1.905   6.916   3.757  0.9984  0.0658 -0.4570
 7759TIP3   OH223198   8.635   5.957   4.156  0.1154 -0.1817  0.6670
 7759TIP3    H123199   8.588   5.927   4.078  0.8631 -0.4703  0.3223
 7759TIP3    H223200   8.569   6.006   4.206 -0.2861  0.2958 -0.3162
 7760TIP3   OH223201   8.465   2.109   6.700  0.2074  0.3328 -0.5125
 7760TIP3    H123202   8.475   2.203   6.720 -1.7253  0.2594  0.9533
 7760TIP3    H223203   8.371   2.097   6.690  0.3631 -1.6243  0.2104
 7761TIP3   OH223204   0.468   3.105   5.872  0.4573 -0.2169 -0.2917
 7761TIP3    H123205   0.525   3.032   5.850  1.5808  0.8838 -1.1182
 7761TIP3    H223206   0.527   3.174   5.901 -0.4731  0.7859 -0.7345
 7762TIP3   OH223207   5.327   7.947   0.295 -0.0841  0.1087 -0.0317
 7762TIP3    H123208   5.235   7.936   0.273  0.2276 -0.8191 -0.9460
 7762TIP3    H223209   5.367   7.862   0.275  0.8161  0.2430  1.1446
 7763TIP3   OH223210   8.699   2.695   6.656 -0.2421 -0.3708 -0.0572
 7763TIP3    H123211   8.738   2.774   6.619 -1.0028 -0.2504 -0.5881
 7763TIP3    H223212   8.752   2.678   6.734  1.2747 -0.5500 -1.1018
 7764TIP3   OH223213   2.011   3.158   3.104  0.0264  0.3132  0.0797
 7764TIP3    H123214   1.946   3.102   3.061 -0.1597 -1.2006  2.2211
 7764TIP3    H223215   2.084   3.100   3.122  0.5829  1.2095  0.7219
 7765TIP3   OH223216   2.943   4.379   5.986 -0.0032 -0.0323 -0.6154
 7765TIP3    H123217   2.896   4.338   5.913  2.3651 -0.8672 -1.7246
 7765TIP3    H223218   2.882   4.374   6.059 -1.4006 -1.6947 -1.8354
 7766TIP3   OH223219   1.860   5.303   4.406 -0.3143 -0.4032  0.1349
 7766TIP3    H123220   1.953   5.282   4.409 -0.5954 -1.7361 -0.2032
 7766TIP3    H223221   1.817   5.220   4.385 -1.4671  0.5011 -1.1929
 7767TIP3   OH223222   2.454   4.632   3.512  0.3136 -1.2475  0.5118
 7767TIP3    H123223   2.401   4.672   3.581 -0.4269 -1.4123  0.0416
 7767TIP3    H223224   2.418   4.544   3.502  1.5783 -1.8575  1.1502
 7768TIP3   OH223225   3.356   3.752   6.177  0.7878  0.1752  0.2368
 7768TIP3    H123226   3.396   3.711   6.100  0.6365 -0.1663  0.3401
 7768TIP3    H223227   3.346   3.844   6.152  4.4852  0.9453  1.3149
 7769TIP3   OH223228   2.234   4.608   4.794  0.1410  0.3531  0.3450
 7769TIP3    H123229   2.198   4.576   4.712  1.2201 -0.6313  0.2298
 7769TIP3    H223230   2.290   4.682   4.770  0.7252 -0.1497  0.1467
 7770TIP3   OH223231   3.227   4.089   7.094 -0.2988 -0.2812 -0.3365
 7770TIP3    H123232   3.159   4.054   7.152  0.7217 -1.7440  0.0152
 7770TIP3    H223233   3.307   4.085   7.146 -0.2548  3.4616  0.0233
 7771TIP3   OH223234   4.256   3.363   5.543 -0.0873  0.2009  0.5030
 7771TIP3    H123235   4.347   3.391   5.533  0.2579 -0.9238  0.4854
 7771TIP3    H223236   4.205   3.439   5.513  0.8198  1.0870  1.1425
 7772TIP3   OH223237   0.960   2.602   5.631  0.2581 -0.2356  0.1687
 7772TIP3    H123238   1.018   2.611   5.707  0.4907  3.2109 -0.3097
 7772TIP3    H223239   1.018   2.577   5.559  0.6417 -0.0042  0.3933
 7773TIP3   OH223240   3.042   3.211   4.289  0.1633  0.3162  0.1449
 7773TIP3    H123241   3.134   3.192   4.272  0.1411  0.4119 -0.0798
 7773TIP3    H223242   3.007   3.241   4.205  0.9370  4.3178  1.1582
 7774TIP3   OH223243   2.160   4.329   5.003  0.2631  0.3037  0.3373
 7774TIP3    H123244   2.103   4.386   5.053  0.3723 -0.0330  0.8473
 7774TIP3    H223245   2.153   4.243   5.046  0.4015  0.0258 -0.1810
 7775TIP3   OH223246   4.778   3.192   5.099  0.2035 -0.1458 -0.2139
 7775TIP3    H123247   4.747   3.149   5.020  1.5373  1.4210 -1.6297
 7775TIP3    H223248   4.867   3.158   5.112 -0.9753 -2.4551  2.1897
 7776TIP3   OH223249   1.819   5.929   5.859 -0.3415  0.4464  0.4800
 7776TIP3    H123250   1.876   5.982   5.915  2.2076 -2.6481  0.9795
 7776TIP3    H223251   1.772   5.872   5.919 -0.2269 -0.4720 -0.2843
 7777TIP3   OH223252   1.137   4.036   2.880  0.3789  0.1437 -0.3086
 7777TIP3    H123253   1.069   4.079   2.932  0.4763 -0.3674  0.2456
 7777TIP3    H223254   1.210   4.098   2.880 -0.6694  1.4177 -2.2858
 7778TIP3   OH223255   1.697   1.567   6.514  0.6304  0.1969 -0.0958
 7778TIP3    H123256   1.664   1.632   6.452  0.5571 -0.0882 -0.3544
 7778TIP3    H223257   1.701   1.485   6.464  0.6829 -0.0080  0.2413
 7779TIP3   OH223258   2.623   4.500   5.829 -0.1426 -0.0342  0.1018
 7779TIP3    H123259   2.631   4.589   5.793 -1.4036 -0.3877 -1.1072
 7779TIP3    H223260   2.692   4.450   5.785 -1.3997 -0.3614 -1.5235
 7780TIP3   OH223261   1.610   3.517   2.190  0.3064 -0.1853 -0.3076
 7780TIP3    H123262   1.623   3.516   2.095 -0.6492 -3.4597 -0.4743
 7780TIP3    H223263   1.663   3.445   2.222  0.5435  0.8339  1.6724
 7781TIP3   OH223264   2.728   4.505   3.596 -0.0285  0.1416 -0.2487
 7781TIP3    H123265   2.818   4.526   3.573 -0.0925 -0.0266 -0.6537
 7781TIP3    H223266   2.681   4.504   3.513 -0.2488 -0.5114 -0.1229
 7782TIP3   OH223267   2.573   3.455   6.574 -0.6766  0.1028 -0.7682
 7782TIP3    H123268   2.521   3.428   6.498 -0.8742 -2.0964  0.1233
 7782TIP3    H223269   2.510   3.460   6.646 -0.4646  2.0206 -0.6991
 7783TIP3   OH223270   2.059   3.500   4.508  0.5099  0.2324 -0.0224
 7783TIP3    H123271   2.014   3.446   4.443 -0.8695  0.9531  0.3092
 7783TIP3    H223272   2.135   3.535   4.461  0.1051 -0.1023 -0.9370
 7784TIP3   OH223273   3.625   3.283   4.191 -0.0545  0.1958  0.2346
 7784TIP3    H123274   3.577   3.237   4.123  0.4619  0.5616 -0.3834
 7784TIP3    H223275   3.677   3.215   4.234 -0.9942 -0.1727  0.8026
 7785TIP3   OH223276   3.606   4.274   5.525 -0.3127  0.4841 -0.3148
 7785TIP3    H123277   3.682   4.222   5.499  0.0945  1.3399 -0.8100
 7785TIP3    H223278   3.553   4.280   5.446 -1.7610 -1.5647  0.4375
 7786TIP3   OH223279   1.540   4.444   3.074  0.4468 -0.4212  0.7326
 7786TIP3    H123280   1.537   4.384   3.148 -0.2536  0.5612  1.5132
 7786TIP3    H223281   1.449   4.455   3.047  0.6688 -0.5447 -0.1005
 7787TIP3   OH223282   1.865   3.206   3.902  0.6626 -0.2299 -0.2027
 7787TIP3    H123283   1.918   3.159   3.838 -0.9105 -1.6532 -0.5138
 7787TIP3    H223284   1.775   3.180   3.882 -0.0293  1.0153  1.2050
 7788TIP3   OH223285   3.020   3.086   5.625  0.4883  0.4316  0.2651
 7788TIP3    H123286   3.097   3.050   5.669  0.4470 -0.2688 -0.2293
 7788TIP3    H223287   3.056   3.153   5.567  1.1170 -2.1595 -2.4472
 7789TIP3   OH223288   1.668   3.971   5.558  0.4423 -0.1809 -0.5808
 7789TIP3    H123289   1.662   3.882   5.594 -0.6682 -0.0230 -0.3442
 7789TIP3    H223290   1.755   4.001   5.583  0.3799 -0.7658  0.3705
 7790TIP3   OH223291   0.369   3.786   5.658 -0.2668  0.1121  0.0738
 7790TIP3    H123292   0.428   3.854   5.690 -0.9493  0.1682  1.2664
 7790TIP3    H223293   0.379   3.787   5.563  0.7757  0.9112  0.1864
 7791TIP3   OH223294   8.434   0.157   0.073 -0.3149  0.9304 -0.2004
 7791TIP3    H123295   8.339   0.158   0.057 -0.3846 -1.2682 -0.1194
 7791TIP3    H223296   8.473   0.143  -0.013 -0.0945  1.2485 -0.1529
 7792TIP3   OH223297   0.941   4.092   5.776  0.3372  0.0971  0.2733
 7792TIP3    H123298   0.861   4.110   5.727 -1.0001 -1.0202  1.9695
 7792TIP3    H223299   0.956   4.171   5.827  0.5272  0.4494 -0.3263
 7793TIP3   OH223300   2.555   5.297   4.035  0.1249 -0.2916  0.1771
 7793TIP3    H123301   2.611   5.348   3.976  0.1976 -2.2035 -1.4467
 7793TIP3    H223302   2.614   5.231   4.071 -0.7614 -1.4317 -0.4522
 7794TIP3   OH223303   2.035   3.387   4.921  0.3299  0.7707  0.1856
 7794TIP3    H123304   1.949   3.351   4.944  0.1684  0.9785 -0.0760
 7794TIP3    H223305   2.016   3.476   4.889  0.3542 -0.0104 -2.1296
 7795TIP3   OH223306   1.332   5.150   3.811 -0.5400  0.0580 -0.3792
 7795TIP3    H123307   1.346   5.167   3.717  0.1513  1.0217 -0.1036
 7795TIP3    H223308   1.367   5.062   3.824 -0.0418  0.1726 -0.8940
 7796TIP3   OH223309   0.997   4.600   3.406 -0.2380  0.3696 -0.6322
 7796TIP3    H123310   1.010   4.564   3.494 -0.4902  0.5980 -0.5003
 7796TIP3    H223311   0.961   4.687   3.421 -2.9911 -0.6453 -0.9583
 7797TIP3   OH223312   0.874   5.956   6.952  0.5275  0.1254  0.0992
 7797TIP3    H123313   0.899   5.998   7.034  1.1197 -0.7231  0.3577
 7797TIP3    H223314   0.778   5.949   6.957  0.6885 -1.4740  1.4989
 7798TIP3   OH223315   2.846   4.714   6.543 -0.3532  0.2619  0.8281
 7798TIP3    H123316   2.895   4.632   6.554  0.4057  0.7654  1.2902
 7798TIP3    H223317   2.878   4.749   6.459 -2.7880 -1.3205 -0.8256
 7799TIP3   OH223318   2.256   4.627   4.253  0.8820 -0.5101 -0.0023
 7799TIP3    H123319   2.259   4.722   4.266  0.8478 -0.6404  0.9871
 7799TIP3    H223320   2.335   4.607   4.202  2.2940 -0.2849  2.0220
 7800TIP3   OH223321   3.698   5.016   6.758 -0.2247 -0.4522  0.1447
 7800TIP3    H123322   3.748   4.978   6.831 -0.5423  0.4216  0.8264
 7800TIP3    H223323   3.746   5.095   6.736  0.5816 -1.3678 -1.4452
 7801TIP3   OH223324   2.530   3.499   5.435  0.3697 -0.0371 -0.4143
 7801TIP3    H123325   2.437   3.516   5.420  0.2387  0.3422  0.7972
 7801TIP3    H223326   2.568   3.493   5.347 -0.2197  3.0649 -0.9333
 7802TIP3   OH223327   1.541   4.794   4.069  0.2762  0.2466 -0.2794
 7802TIP3    H123328   1.516   4.834   3.985 -1.1831  1.0566  0.5148
 7802TIP3    H223329   1.478   4.829   4.132  2.3556  0.9425  1.4965
 7803TIP3   OH223330   8.575   3.559   4.342  0.3676  0.2658  0.0004
 7803TIP3    H123331   8.509   3.599   4.399  0.9750  0.9905  0.2049
 7803TIP3    H223332   8.544   3.470   4.329 -0.9913  0.7875 -0.4414
 7804TIP3   OH223333   3.914   3.767   1.727 -0.0787  0.1890  0.3521
 7804TIP3    H123334   3.964   3.707   1.671  0.4352  0.2258  0.7638
 7804TIP3    H223335   3.829   3.775   1.684  0.3883  0.4073 -0.5501
 7805TIP3   OH223336   4.058   5.054   7.195 -0.0481  0.2006 -0.2456
 7805TIP3    H123337   4.119   5.057   7.122  0.1782  0.8024 -0.0311
 7805TIP3    H223338   4.061   5.142   7.232 -2.3598  0.7820 -1.3227
 7806TIP3   OH223339   2.629   4.804   5.949 -0.6124 -0.3254 -0.5146
 7806TIP3    H123340   2.619   4.895   5.976 -1.9186 -0.3633 -0.8493
 7806TIP3    H223341   2.716   4.800   5.910  0.3389  0.2750  1.4834
 7807TIP3   OH223342   2.171   3.106   1.724  0.8420 -0.0270 -0.3418
 7807TIP3    H123343   2.219   3.152   1.655  1.7459  0.9974  0.9448
 7807TIP3    H223344   2.156   3.018   1.689  0.6056  0.7098 -2.1421
 7808TIP3   OH223345   2.806   3.772   5.737  0.1728 -0.4097  0.4380
 7808TIP3    H123346   2.884   3.794   5.685 -0.5806  0.7400 -0.2482
 7808TIP3    H223347   2.760   3.707   5.683  0.6417 -1.0841  0.8409
 7809TIP3   OH223348   2.832   4.108   5.494  0.3327  0.0737  0.7972
 7809TIP3    H123349   2.814   4.067   5.579  1.3697 -0.0346  0.9696
 7809TIP3    H223350   2.909   4.062   5.461  0.6529  0.9234  0.3452
 7810TIP3   OH223351   4.593   3.788   3.112  0.0749 -0.6502 -0.1350
 7810TIP3    H123352   4.638   3.869   3.088 -2.0835  0.5635 -0.2163
 7810TIP3    H223353   4.648   3.750   3.180  0.3835  1.6650  0.9675
 7811TIP3   OH223354   2.762   3.313   5.114  0.1146 -0.0281  0.7817
 7811TIP3    H123355   2.697   3.323   5.044 -0.3862  0.0594  1.2568
 7811TIP3    H223356   2.740   3.381   5.177  0.8956  0.2298  0.7691
 7812TIP3   OH223357   3.639   2.108   5.738  0.0347 -0.4136  0.4973
 7812TIP3    H123358   3.560   2.158   5.716 -0.6412 -1.3344  0.7984
 7812TIP3    H223359   3.646   2.115   5.834 -0.0904 -0.9408  0.5445
 7813TIP3   OH223360   5.188   5.662  -0.019 -0.0519 -0.0524  0.2813
 7813TIP3    H123361   5.198   5.658   0.077 -0.5466  0.5357  0.3655
 7813TIP3    H223362   5.269   5.626  -0.053 -0.7706 -2.3900  0.9295
 7814TIP3   OH223363   1.419   4.017   6.039  0.4465  0.0039  0.0469
 7814TIP3    H123364   1.390   3.935   6.000 -0.6333  1.5545 -2.5331
 7814TIP3    H223365   1.435   4.075   5.964  3.9486  1.2692  1.6840
 7815TIP3   OH223366   3.445   5.264   6.223  0.5074 -0.2311  0.2217
 7815TIP3    H123367   3.421   5.279   6.315  0.8363 -0.1819  0.2984
 7815TIP3    H223368   3.459   5.352   6.188  2.8862 -0.3465  0.7851
 7816TIP3   OH223369   3.418   4.764   6.823 -0.2382  0.1041  0.7398
 7816TIP3    H123370   3.506   4.775   6.788 -0.5462 -0.4429 -0.2019
 7816TIP3    H223371   3.432   4.732   6.912  0.5084 -3.0469 -0.4531
 7817TIP3   OH223372   2.818   4.325   5.738 -0.2195 -0.4573  0.1614
 7817TIP3    H123373   2.788   4.235   5.733 -0.0990 -0.4291 -1.5163
 7817TIP3    H223374   2.873   4.337   5.660  0.1610  0.9129  0.6147
 7818TIP3   OH223375   1.116   3.930   4.898  0.0802 -0.9092  0.0453
 7818TIP3    H123376   1.093   3.991   4.968 -0.9791 -1.3740  0.1152
 7818TIP3    H223377   1.211   3.937   4.890  0.0807 -0.0239  0.7628
 7819TIP3   OH223378   0.493   2.688   5.068 -0.2619 -0.1679  0.1535
 7819TIP3    H123379   0.464   2.674   4.978 -0.3821 -0.1394  0.1874
 7819TIP3    H223380   0.567   2.629   5.079 -1.3651 -1.4864  0.6010
 7820TIP3   OH223381   1.583   2.594   6.141  0.4673 -0.5240  0.0247
 7820TIP3    H123382   1.652   2.541   6.102 -0.7056 -1.5477 -0.6872
 7820TIP3    H223383   1.511   2.590   6.078 -0.4484  0.0731  1.0114
 7821TIP3   OH223384   2.753   5.756   6.340 -0.1011 -0.1346  0.2036
 7821TIP3    H123385   2.742   5.742   6.246 -3.9602  3.3496 -0.0331
 7821TIP3    H223386   2.687   5.698   6.380 -0.8996  0.9710  0.5094
 7822TIP3   OH223387   3.887   2.414   6.045  0.1484  0.0633  0.1109
 7822TIP3    H123388   3.902   2.420   6.140  0.4698  0.8408  0.0118
 7822TIP3    H223389   3.792   2.410   6.036  0.1245 -0.3029  0.4836
 7823TIP3   OH223390   2.685   4.217   6.465 -0.1218  0.0580  0.3139
 7823TIP3    H123391   2.606   4.163   6.468 -0.0228 -0.0445  1.1754
 7823TIP3    H223392   2.755   4.161   6.498  0.5908 -0.2907 -1.7092
 7824TIP3   OH223393   3.130   4.300   4.410 -0.3847  0.4520 -0.2329
 7824TIP3    H123394   3.124   4.246   4.332 -0.5449  0.6580 -0.3614
 7824TIP3    H223395   3.222   4.295   4.436 -0.4171  0.0366 -0.1860
 7825TIP3   OH223396   1.108   6.177   6.565 -0.8828  0.9222  0.0204
 7825TIP3    H123397   1.165   6.147   6.493 -2.4796 -1.6253 -0.2270
 7825TIP3    H223398   1.140   6.265   6.585  1.6044  0.4780 -1.7237
 7826TIP3   OH223399   2.302   3.206   4.254 -0.3139  0.3031  0.0972
 7826TIP3    H123400   2.222   3.258   4.259 -1.4384 -0.8570 -3.5658
 7826TIP3    H223401   2.272   3.119   4.224  2.4086  0.4799 -3.5665
 7827TIP3   OH223402   4.006   5.881   6.875 -0.0616 -1.0277  0.1122
 7827TIP3    H123403   3.912   5.879   6.856  0.0049  1.4708 -0.6806
 7827TIP3    H223404   4.031   5.973   6.865  1.8796 -1.1272  3.3469
 7828TIP3   OH223405   6.552   0.481   0.079  0.1618  0.8474 -0.1078
 7828TIP3    H123406   6.612   0.408   0.094  0.0777  1.2968  2.6909
 7828TIP3    H223407   6.600   0.539   0.020  0.3892 -1.2310 -2.0615
 7829TIP3   OH223408   1.620   2.399   5.796  0.2427 -0.1055  0.2190
 7829TIP3    H123409   1.696   2.340   5.798  2.8277  3.0650 -0.1141
 7829TIP3    H223410   1.561   2.359   5.733  0.6498 -3.7188  1.9265
 7830TIP3   OH223411   1.646   4.201   4.412  0.1809 -0.2051 -0.5869
 7830TIP3    H123412   1.703   4.220   4.486 -1.1072  2.3953 -0.2219
 7830TIP3    H223413   1.565   4.171   4.451 -0.8813  2.2200 -0.8828
 7831TIP3   OH223414   0.857   4.053   5.173 -0.2378  0.1666 -0.1439
 7831TIP3    H123415   0.923   4.120   5.192 -0.6199  0.2017  1.1335
 7831TIP3    H223416   0.826   4.026   5.260 -0.6355 -1.1079 -0.6786
 7832TIP3   OH223417   1.751   4.683   5.351  0.0456  0.1141  0.2108
 7832TIP3    H123418   1.832   4.650   5.390 -0.6769 -1.2102  0.6326
 7832TIP3    H223419   1.700   4.604   5.331 -0.6366  0.8769 -1.1528
 7833TIP3   OH223420   2.039   2.206   3.862  0.5444  0.3017 -0.5631
 7833TIP3    H123421   2.105   2.174   3.800 -0.8886 -0.7379 -1.6074
 7833TIP3    H223422   1.985   2.266   3.810 -0.3684 -0.1937 -0.1995
 7834TIP3   OH223423   3.073   4.516   6.536 -0.1170 -0.3069 -0.3414
 7834TIP3    H123424   3.100   4.581   6.601 -0.6573  0.4384 -0.8542
 7834TIP3    H223425   3.116   4.544   6.455 -0.9945 -0.1197 -0.7499
 7835TIP3   OH223426   2.816   3.329   4.419  0.4278 -0.0666  0.1433
 7835TIP3    H123427   2.894   3.285   4.386  1.2938  0.8152  0.9922
 7835TIP3    H223428   2.746   3.263   4.411  1.2621 -0.8821 -0.5474
 7836TIP3   OH223429   2.203   3.796   5.492 -0.3086 -1.0547  0.3706
 7836TIP3    H123430   2.177   3.770   5.403 -2.9147  1.2867  0.3653
 7836TIP3    H223431   2.231   3.888   5.482  3.3487 -1.9961  1.3109
 7837TIP3   OH223432   3.740   4.067   4.565 -0.9168 -0.0118  0.5226
 7837TIP3    H123433   3.718   4.156   4.592  0.5761  1.4023 -2.6488
 7837TIP3    H223434   3.663   4.038   4.515 -0.4051  0.4900 -0.5812
 7838TIP3   OH223435   1.339   3.660   4.878  0.0814 -0.1686 -0.1310
 7838TIP3    H123436   1.365   3.609   4.801  0.5435  0.7734 -0.6050
 7838TIP3    H223437   1.259   3.618   4.909 -0.1914 -0.4551 -1.2231
 7839TIP3   OH223438   2.062   3.417   3.042 -0.2960 -0.2060  0.1266
 7839TIP3    H123439   2.032   3.336   3.083  0.6386 -0.6275 -0.0186
 7839TIP3    H223440   2.157   3.419   3.057 -0.2623  0.7033 -0.1404
 7840TIP3   OH223441   2.327   4.260   4.729  0.1092  0.0052 -0.1660
 7840TIP3    H123442   2.303   4.211   4.650  0.1625 -1.4690  0.7045
 7840TIP3    H223443   2.408   4.218   4.759 -0.2417  0.1500  1.0030
 7841TIP3   OH223444   0.724   6.271   6.797 -0.3807 -0.5465  0.4957
 7841TIP3    H123445   0.727   6.260   6.892  1.9882 -2.8997  0.1942
 7841TIP3    H223446   0.689   6.188   6.764  0.1095 -0.2520 -0.7871
 7842TIP3   OH223447   4.217   5.472   5.191 -0.3920 -0.1734  0.2781
 7842TIP3    H123448   4.214   5.518   5.275  0.2176 -0.9238  0.7176
 7842TIP3    H223449   4.279   5.523   5.138  0.4304 -0.5823  0.8314
 7843TIP3   OH223450   4.471   4.554   6.187  0.5628 -0.4071  0.1217
 7843TIP3    H123451   4.443   4.483   6.243  1.7207  0.0102  1.2509
 7843TIP3    H223452   4.492   4.513   6.104 -1.7558 -0.9456 -0.2356
 7844TIP3   OH223453   2.726   4.304   3.795 -0.6266  0.6148 -0.3320
 7844TIP3    H123454   2.701   4.356   3.718 -0.5077 -0.2948 -1.0020
 7844TIP3    H223455   2.652   4.313   3.855  0.2372  3.1133  0.3807
 7845TIP3   OH223456   8.278   3.147   5.256 -0.1528  0.1481  0.3592
 7845TIP3    H123457   8.330   3.211   5.305  0.3304  0.3225 -0.3656
 7845TIP3    H223458   8.191   3.186   5.250 -0.4023 -0.1874  1.6673
 7846TIP3   OH223459   2.518   5.412   4.532 -0.2998 -0.1638 -0.1329
 7846TIP3    H123460   2.583   5.459   4.480  0.9857 -0.1384  1.4336
 7846TIP3    H223461   2.448   5.391   4.471  1.3726 -0.5605 -1.9640
 7847TIP3   OH223462   1.156   3.447   5.106  0.3003 -0.3045  0.3214
 7847TIP3    H123463   1.099   3.418   5.178  1.8250 -1.3289  1.1409
 7847TIP3    H223464   1.244   3.430   5.137  0.9743 -1.2768 -2.0242
 7848TIP3   OH223465   8.343   4.456   2.915  0.0887  0.1871  0.3790
 7848TIP3    H123466   8.302   4.536   2.948  0.9177  0.4768  0.7388
 7848TIP3    H223467   8.408   4.487   2.851 -1.3381 -0.3567 -1.3745
 7849TIP3   OH223468   0.152   5.125   5.013 -0.3183 -0.0012 -0.1433
 7849TIP3    H123469   0.208   5.052   4.987  1.5650  1.5047 -0.4543
 7849TIP3    H223470   0.176   5.142   5.104 -1.4960 -0.4142  0.2557
 7850TIP3   OH223471   2.298   4.696   3.747 -0.0368 -0.0725  0.1691
 7850TIP3    H123472   2.350   4.741   3.814  0.7925  0.1184 -0.5913
 7850TIP3    H223473   2.227   4.758   3.727  0.4865  0.4475 -0.0971
 7851TIP3   OH223474   3.415   5.018   6.731  0.0156  0.0951  0.2563
 7851TIP3    H123475   3.403   4.934   6.775  0.9614 -0.4304 -0.4831
 7851TIP3    H223476   3.510   5.030   6.728 -0.0083 -0.1030 -2.0511
 7852TIP3   OH223477   0.923   4.281   4.358 -0.3834 -0.4558  0.0344
 7852TIP3    H123478   0.932   4.195   4.399  2.0767  0.8989  2.4872
 7852TIP3    H223479   1.011   4.304   4.329 -0.4911  2.2698  1.6396
 7853TIP3   OH223480   0.490   5.359   5.138 -0.0056  0.4755 -0.3618
 7853TIP3    H123481   0.453   5.444   5.159  1.3850  1.1207 -0.4942
 7853TIP3    H223482   0.552   5.376   5.067 -0.5521 -0.8218 -1.1778
 7854TIP3   OH223483   1.717   2.801   6.659 -0.2167  0.4047  0.5139
 7854TIP3    H123484   1.724   2.731   6.594  0.0907  0.9264 -0.0232
 7854TIP3    H223485   1.760   2.876   6.618  0.7351  0.4997  1.6530
 7855TIP3   OH223486   8.849   0.374   0.082 -0.2889 -0.1596 -0.3388
 7855TIP3    H123487   8.755   0.376   0.098 -0.4263 -1.6399 -0.8841
 7855TIP3    H223488   8.865   0.447   0.021 -1.4138 -1.1795 -1.8929
 7856TIP3   OH223489   0.764   3.905   4.252 -0.1293  0.4008 -0.6152
 7856TIP3    H123490   0.846   3.921   4.205 -0.2663 -2.6135 -1.9732
 7856TIP3    H223491   0.702   3.967   4.213  1.4290  2.7143  0.4291
 7857TIP3   OH223492   1.849   3.683   4.604 -0.0703 -0.0932 -0.1788
 7857TIP3    H123493   1.944   3.671   4.598  0.0832  0.3769  1.1532
 7857TIP3    H223494   1.834   3.771   4.567  0.0738  0.0513  0.1085
 7858TIP3   OH223495   2.073   2.599   5.887  0.3327 -0.2087 -0.6145
 7858TIP3    H123496   2.011   2.530   5.863  0.3749  0.4386 -2.7052
 7858TIP3    H223497   2.152   2.552   5.913 -1.1590 -1.0537  2.5800
 7859TIP3   OH223498   3.646   5.337   6.476  0.1493  0.3874 -0.2980
 7859TIP3    H123499   3.551   5.333   6.488  0.1905 -0.4177 -0.2548
 7859TIP3    H223500   3.665   5.272   6.409  0.7303  0.1806  0.0604
 7860TIP3   OH223501   1.318   4.145   6.360  0.3964  0.2647  0.0543
 7860TIP3    H123502   1.310   4.051   6.377  1.5881  0.2623  0.6920
 7860TIP3    H223503   1.368   4.150   6.278 -0.5677  0.3409 -0.5383
 7861TIP3   OH223504   2.482   4.452   3.813  0.1585  0.1879 -0.4444
 7861TIP3    H123505   2.520   4.518   3.756 -0.8587  0.1524 -1.1757
 7861TIP3    H223506   2.406   4.420   3.765 -0.0402 -0.6667  0.4269
 7862TIP3   OH223507   2.089   6.830   5.023  0.3768  0.1150  0.1870
 7862TIP3    H123508   2.105   6.802   5.113  1.8797 -1.6562 -0.5768
 7862TIP3    H223509   2.176   6.836   4.984 -0.3124 -0.4792 -1.5055
 7863TIP3   OH223510   0.903   3.341   6.097  0.0603  0.2012  0.9646
 7863TIP3    H123511   0.877   3.373   6.010 -3.0256 -1.7914  1.0786
 7863TIP3    H223512   0.927   3.421   6.145 -0.4189  1.5706 -1.0052
 7864TIP3   OH223513   2.484   4.849   5.328 -0.2610 -0.0400 -0.0600
 7864TIP3    H123514   2.532   4.776   5.367 -0.1516 -0.8756 -1.6935
 7864TIP3    H223515   2.548   4.921   5.326  0.0978 -0.3500  0.2035
 7865TIP3   OH223516   3.396   3.916   6.800 -0.6783 -0.1186 -0.2816
 7865TIP3    H123517   3.331   3.876   6.742 -1.2187 -0.4283  0.5281
 7865TIP3    H223518   3.432   3.842   6.849 -0.1471  0.1280 -0.2990
 7866TIP3   OH223519   0.857   3.553   6.738  0.1718  0.3259 -0.1494
 7866TIP3    H123520   0.833   3.495   6.810  0.4955 -0.2902 -0.5352
 7866TIP3    H223521   0.892   3.632   6.781  1.5967 -0.5588  0.3580
 7867TIP3   OH223522   1.267   5.057   3.152  0.3091 -0.2526 -0.3163
 7867TIP3    H123523   1.313   4.990   3.101  1.2556  0.5357 -0.5202
 7867TIP3    H223524   1.234   5.118   3.086  1.5670  0.7892 -0.0039
 7868TIP3   OH223525   4.427   6.052   6.041  0.1917 -0.1575  0.0632
 7868TIP3    H123526   4.443   6.045   6.135  1.8284 -0.7215 -0.2310
 7868TIP3    H223527   4.332   6.049   6.032  0.0880 -2.1142  1.5502
 7869TIP3   OH223528   2.061   5.238   3.383 -0.4152 -0.1708 -0.4346
 7869TIP3    H123529   2.033   5.147   3.392  0.0395 -0.2525  0.1835
 7869TIP3    H223530   2.000   5.287   3.438  0.4697 -0.3195  0.7071
 7870TIP3   OH223531   3.335   3.082   6.295  0.3071 -0.6578  0.3482
 7870TIP3    H123532   3.260   3.080   6.355 -2.1684  1.3329 -2.5843
 7870TIP3    H223533   3.369   3.171   6.302 -0.3193 -0.2538 -1.5399
 7871TIP3   OH223534   0.932   4.217   2.989  0.8063  0.2061 -0.0871
 7871TIP3    H123535   0.878   4.143   3.015  0.3177  0.1206 -1.3234
 7871TIP3    H223536   0.956   4.259   3.072  1.2902 -1.4587  0.6317
 7872TIP3   OH223537   7.803   0.985   1.110  0.0690 -0.2873 -0.2516
 7872TIP3    H123538   7.806   0.925   1.185 -0.9281 -1.3988 -1.0933
 7872TIP3    H223539   7.843   0.936   1.038 -1.2886 -0.2026 -1.0949
 7873TIP3   OH223540   2.611   4.720   3.745  0.3164  0.0597  0.3407
 7873TIP3    H123541   2.704   4.701   3.736  0.6164  1.5897  0.0260
 7873TIP3    H223542   2.574   4.702   3.658  0.5001  0.3606  0.1975
 7874TIP3   OH223543   1.586   5.960   5.265  0.3394  0.0742 -0.0484
 7874TIP3    H123544   1.646   5.924   5.200  0.6662  1.9727 -0.8229
 7874TIP3    H223545   1.551   5.883   5.311  2.2652 -1.1182 -0.5425
 7875TIP3   OH223546   8.420   3.644   4.010 -0.1387  0.1552 -0.0078
 7875TIP3    H123547   8.437   3.554   4.040  1.8507  0.2408 -0.7829
 7875TIP3    H223548   8.384   3.633   3.922  0.8594  0.1398 -0.4158
 7876TIP3   OH223549   1.748   4.889   5.726  0.5046 -0.3113  0.0987
 7876TIP3    H123550   1.776   4.887   5.635  2.6153 -2.5591  0.7488
 7876TIP3    H223551   1.818   4.844   5.774 -1.7166 -1.3462  2.4987
 7877TIP3   OH223552   0.351   5.573   4.876 -0.3275 -0.6839 -0.6857
 7877TIP3    H123553   0.444   5.557   4.896  0.0613  0.8063 -1.2112
 7877TIP3    H223554   0.329   5.507   4.811  0.2744 -1.2511 -0.3216
 7878TIP3   OH223555   1.903   6.103   6.045 -0.2777  0.9152 -0.2872
 7878TIP3    H123556   1.821   6.144   6.071  0.1936  1.1977  0.7813
 7878TIP3    H223557   1.917   6.034   6.110 -0.4531 -0.1450 -1.3632
 7879TIP3   OH223558   2.688   4.378   4.084  0.3959  0.2848  0.3605
 7879TIP3    H123559   2.613   4.428   4.051 -0.1675 -0.3431  0.6708
 7879TIP3    H223560   2.648   4.308   4.136  1.2141  0.1177  0.7575
 7880TIP3   OH223561   5.335   5.667   0.254  0.2026 -0.2295 -0.5435
 7880TIP3    H123562   5.427   5.686   0.273 -0.0021  0.2480  0.0033
 7880TIP3    H223563   5.300   5.636   0.338 -0.4225  0.7213 -0.4580
 7881TIP3   OH223564   2.339   3.604   6.958 -0.3522  0.0811 -0.3200
 7881TIP3    H123565   2.381   3.560   6.883 -0.4780  2.1477 -1.6559
 7881TIP3    H223566   2.400   3.674   6.981 -1.3051  0.7602  0.1683
 7882TIP3   OH223567   3.733   4.409   6.277 -0.1310  0.0650 -0.6509
 7882TIP3    H123568   3.678   4.486   6.261 -0.3890 -0.2603 -1.3555
 7882TIP3    H223569   3.821   4.436   6.250  0.3653  1.0602  1.8101
 7883TIP3   OH223570   3.658   5.291   2.447 -0.1421 -0.4399 -0.0140
 7883TIP3    H123571   3.645   5.309   2.541  2.3962 -2.4065  0.7748
 7883TIP3    H223572   3.706   5.367   2.415 -0.6179  0.0358  0.3820
 7884TIP3   OH223573   1.921   4.926   3.829  0.3173 -0.4356 -0.4585
 7884TIP3    H123574   1.916   4.848   3.774 -0.7016 -1.4831  1.0581
 7884TIP3    H223575   1.969   4.897   3.907  1.4149  0.9121 -0.6287
 7885TIP3   OH223576   7.945   0.469   0.369  0.3306 -0.2808 -0.1811
 7885TIP3    H123577   7.934   0.377   0.343  0.2300 -0.3926  0.2481
 7885TIP3    H223578   7.856   0.500   0.385  0.2544  0.2745 -1.5915
 7886TIP3   OH223579   2.248   3.917   6.682  0.5708  0.5527 -0.2182
 7886TIP3    H123580   2.309   3.854   6.719  0.8333  0.9623  0.0435
 7886TIP3    H223581   2.204   3.956   6.758  1.2805  1.5661 -0.3221
 7887TIP3   OH223582   1.796   1.721   1.113 -0.0123  0.2110  0.5061
 7887TIP3    H123583   1.757   1.807   1.126 -0.5643  0.1036 -0.4300
 7887TIP3    H223584   1.860   1.733   1.044  1.0654  0.2100  1.4780
 7888TIP3   OH223585   3.208   3.640   5.656 -0.1166 -0.6394  0.0832
 7888TIP3    H123586   3.209   3.680   5.743 -1.1295 -1.9873  0.7235
 7888TIP3    H223587   3.115   3.629   5.636  0.0809  0.6232 -1.6272
 7889TIP3   OH223588   3.021   3.872   6.332  0.0879 -0.4113  0.1805
 7889TIP3    H123589   2.951   3.908   6.278 -0.3302 -2.8927 -1.0095
 7889TIP3    H223590   2.985   3.872   6.421 -1.9104 -2.6564 -0.5631
 7890TIP3   OH223591   2.339   4.053   5.487  0.0290 -0.3323 -0.3036
 7890TIP3    H123592   2.332   4.093   5.400 -0.5823 -0.6166 -0.3898
 7890TIP3    H223593   2.408   3.988   5.478 -0.2595 -0.5940 -0.6742
 7891TIP3   OH223594   1.872   2.850   5.026 -0.0083 -0.4277 -0.7171
 7891TIP3    H123595   1.856   2.783   5.092 -0.9027  0.2868 -0.1982
 7891TIP3    H223596   1.859   2.805   4.942 -2.6905 -0.3983 -0.3479
 7892TIP3   OH223597   0.810   5.417   6.026 -0.2044  0.2400 -0.0159
 7892TIP3    H123598   0.784   5.333   5.990 -2.0184  0.3933  0.8757
 7892TIP3    H223599   0.768   5.421   6.112  1.5521  1.1721  0.8351
 7893TIP3   OH223600   0.747   4.692   5.321  0.4795  0.7073 -0.0010
 7893TIP3    H123601   0.738   4.768   5.264 -1.7151 -1.2877 -2.4851
 7893TIP3    H223602   0.819   4.714   5.380  0.3191  4.4037 -1.0725
 7894TIP3   OH223603   0.787   3.689   4.093 -0.1936  0.6632 -0.6761
 7894TIP3    H123604   0.872   3.715   4.058 -0.6944  1.1526 -1.5548
 7894TIP3    H223605   0.763   3.760   4.153  0.3602  0.1554  0.1442
 7895TIP3   OH223606   0.245   5.103   4.647 -0.2337  0.1716  0.5666
 7895TIP3    H123607   0.281   5.022   4.682  1.4221  0.2530 -0.9144
 7895TIP3    H223608   0.190   5.075   4.574 -0.1117  0.3441  0.4087
 7896TIP3   OH223609   0.141   5.015   4.386 -0.2879  0.1729 -0.3932
 7896TIP3    H123610   0.202   5.032   4.314  1.2817 -2.3209  0.2811
 7896TIP3    H223611   0.074   5.083   4.377  1.5581  1.8216 -2.3017
 7897TIP3   OH223612   3.001   4.341   3.779 -0.3172  0.0019  0.8335
 7897TIP3    H123613   2.911   4.310   3.771  0.4206 -1.7849 -0.9199
 7897TIP3    H223614   3.018   4.385   3.696  0.2325  0.9047  1.4183
 7898TIP3   OH223615   1.707   4.211   5.863  0.5717  0.3414 -0.4809
 7898TIP3    H123616   1.791   4.248   5.836  1.6315  0.8192  3.1559
 7898TIP3    H223617   1.661   4.284   5.906 -0.1619 -0.8410  0.7768
 7899TIP3   OH223618   0.773   5.383   5.675  0.0547  0.1219  0.1812
 7899TIP3    H123619   0.818   5.398   5.592 -2.4962  2.3139 -0.8841
 7899TIP3    H223620   0.733   5.297   5.665  0.5616 -0.0416 -0.4797
 7900TIP3   OH223621   1.614   5.739   2.784  0.1426  0.3282 -0.1081
 7900TIP3    H123622   1.701   5.738   2.745  1.0983  0.7220  1.9339
 7900TIP3    H223623   1.562   5.681   2.729  1.5056  0.6483 -1.7733
 7901TIP3   OH223624   5.699   3.622   0.474  0.0165  0.2970  0.0280
 7901TIP3    H123625   5.652   3.546   0.511 -1.3896  0.0899 -2.0460
 7901TIP3    H223626   5.781   3.585   0.442 -0.1078 -0.1131  0.1643
 7902TIP3   OH223627   2.788   4.897   6.250  0.3189  0.3575 -0.1885
 7902TIP3    H123628   2.721   4.830   6.240  0.1517  0.6677 -1.2819
 7902TIP3    H223629   2.782   4.949   6.169  1.1194  1.0672  0.1962
 7903TIP3   OH223630   0.469   4.014   3.080  0.0524  0.2338 -0.0356
 7903TIP3    H123631   0.443   3.989   2.992 -0.9490  0.9484  0.0460
 7903TIP3    H223632   0.419   3.956   3.137  0.1029  0.3055  0.0808
 7904TIP3   OH223633   2.260   4.982   3.506  0.4483  0.1674  0.2070
 7904TIP3    H123634   2.243   4.965   3.599 -1.8074  0.5435 -0.1249
 7904TIP3    H223635   2.175   4.973   3.463  1.3487  0.6346 -1.7437
 7905TIP3   OH223636   2.891   4.408   4.491 -0.3123 -0.4053 -0.3187
 7905TIP3    H123637   2.818   4.357   4.528  0.5008 -1.1924  0.2071
 7905TIP3    H223638   2.950   4.342   4.453 -0.2263  0.2788 -1.3958
 7906TIP3   OH223639   2.655   2.544   4.941  0.0938  0.0487 -0.3130
 7906TIP3    H123640   2.652   2.626   4.989 -1.0495  0.3127 -0.8156
 7906TIP3    H223641   2.563   2.523   4.924  0.3655 -1.4444  0.0132
 7907TIP3   OH223642   3.445   3.498   5.678 -0.3687  0.5506  0.6599
 7907TIP3    H123643   3.371   3.555   5.701  0.4491  1.6646  0.6157
 7907TIP3    H223644   3.405   3.416   5.650 -1.5709  1.0031  1.0179
 7908TIP3   OH223645   3.616   4.499   6.877 -0.2364 -0.1575  0.2255
 7908TIP3    H123646   3.654   4.586   6.887 -0.4608 -0.3124  2.8292
 7908TIP3    H223647   3.522   4.514   6.868 -0.1155 -0.0674 -1.0533
 7909TIP3   OH223648   4.013   4.831   3.453  0.0984  0.2392 -0.4319
 7909TIP3    H123649   4.025   4.747   3.497 -2.2919 -0.7637 -1.5845
 7909TIP3    H223650   3.935   4.868   3.494  0.3669  1.2907 -0.8531
 7910TIP3   OH223651   2.557   4.593   4.869 -0.4188  0.2296  0.1326
 7910TIP3    H123652   2.642   4.638   4.873  0.5160 -1.5773  1.2607
 7910TIP3    H223653   2.510   4.624   4.946 -0.3935  0.4931  0.0430
 7911TIP3   OH223654   4.021   3.140   6.205 -0.5072  0.1489 -0.2760
 7911TIP3    H123655   4.102   3.132   6.154  1.0776  2.3978  1.7827
 7911TIP3    H223656   3.962   3.191   6.148  1.0781  2.2420 -0.1223
 7912TIP3   OH223657   2.146   4.822   6.715  0.2781  0.4785 -0.0049
 7912TIP3    H123658   2.211   4.772   6.765  0.1137  0.0997 -0.1652
 7912TIP3    H223659   2.098   4.755   6.666 -0.4003  0.7304  0.3074
 7913TIP3   OH223660   0.968   4.737   5.496 -0.4821  0.4918 -0.0479
 7913TIP3    H123661   1.042   4.784   5.535 -0.9092  0.2474  1.0620
 7913TIP3    H223662   0.978   4.647   5.527 -1.6650  0.6222  0.7228
 7914TIP3   OH223663   6.259   3.875   4.371 -0.1384  0.0706  0.2969
 7914TIP3    H123664   6.165   3.894   4.372  0.0919  1.3307 -0.4860
 7914TIP3    H223665   6.264   3.782   4.353 -1.2615 -0.1914  1.2418
 7915TIP3   OH223666   4.724   3.343   5.341 -0.0005  0.2335 -0.1338
 7915TIP3    H123667   4.708   3.297   5.259  0.9918  2.0834 -1.3991
 7915TIP3    H223668   4.816   3.325   5.361 -0.7835 -1.9839  1.7527
 7916TIP3   OH223669   1.097   3.690   5.246 -0.7909  0.1999 -0.3808
 7916TIP3    H123670   1.192   3.696   5.242 -0.8601  1.1707 -0.6708
 7916TIP3    H223671   1.080   3.614   5.301  0.1463  0.2665  0.0072
 7917TIP3   OH223672   0.700   4.693   6.575  0.3082  0.1126  0.2966
 7917TIP3    H123673   0.714   4.676   6.482  0.4428  2.0868 -0.0658
 7917TIP3    H223674   0.785   4.721   6.607  0.4077 -1.1517  1.1671
 7918TIP3   OH223675   3.752   3.154   5.835 -0.0336 -0.0786 -0.0647
 7918TIP3    H123676   3.782   3.081   5.890  0.1337  1.2639  1.6678
 7918TIP3    H223677   3.669   3.180   5.874  2.0032  3.5406  2.1672
 7919TIP3   OH223678   3.512   4.054   4.409  0.2479  0.1076  0.1917
 7919TIP3    H123679   3.520   4.058   4.314  1.1162 -0.8639  0.2249
 7919TIP3    H223680   3.500   3.961   4.428  0.8515  0.2164  1.0968
 7920TIP3   OH223681   0.922   3.412   3.633 -0.3700  0.2487  0.6782
 7920TIP3    H123682   0.962   3.489   3.674  0.0507 -1.0216  2.7289
 7920TIP3    H223683   0.991   3.377   3.577 -0.3268  0.9808  0.2741
 7921TIP3   OH223684   1.523   5.950   3.461  0.6399  0.6013 -0.0206
 7921TIP3    H123685   1.587   6.019   3.444  0.4252  1.3100  1.9446
 7921TIP3    H223686   1.440   5.995   3.471  0.4504  0.0418  1.0110
 7922TIP3   OH223687   1.921   3.965   5.665  0.7405 -0.6416 -0.1780
 7922TIP3    H123688   1.999   3.940   5.616  0.8241  0.2871 -0.5430
 7922TIP3    H223689   1.951   4.034   5.724  0.7584 -2.1335  1.5932
 7923TIP3   OH223690   6.494   2.122   0.443 -0.1584  0.4148 -0.1999
 7923TIP3    H123691   6.501   2.206   0.398 -0.6273  0.2609 -0.5645
 7923TIP3    H223692   6.415   2.130   0.497  0.2648  0.5111  0.4092
 7924TIP3   OH223693   2.293   3.415   4.837 -0.2184 -0.2211  1.0023
 7924TIP3    H123694   2.304   3.366   4.756  1.2292  1.2099  0.2949
 7924TIP3    H223695   2.198   3.423   4.848 -0.4260 -0.6332 -0.4065
 7925TIP3   OH223696   4.103   4.048   6.744 -0.8695  0.3351  0.1384
 7925TIP3    H123697   4.101   4.128   6.797  1.0037 -0.2889  1.2095
 7925TIP3    H223698   4.011   4.027   6.729 -1.4589  0.6902  2.9564
 7926TIP3   OH223699   2.910   5.109   3.260 -0.6617 -0.0641  0.0003
 7926TIP3    H123700   3.003   5.099   3.280 -0.6991  1.9877  1.3660
 7926TIP3    H223701   2.865   5.052   3.322 -0.2980 -1.8346 -1.3250
 7927TIP3   OH223702   4.660   6.585   0.260  0.4022 -0.1376 -0.0858
 7927TIP3    H123703   4.711   6.615   0.335 -1.4094 -0.1628  1.1606
 7927TIP3    H223704   4.585   6.643   0.256 -0.4427 -1.2551 -0.8011
 7928TIP3   OH223705   8.844   3.691   6.360 -0.4866  0.3036 -0.3880
 7928TIP3    H123706   8.791   3.710   6.437 -1.7896  1.3662 -1.5208
 7928TIP3    H223707   8.808   3.609   6.326  0.0471 -0.1330  0.0917
 7929TIP3   OH223708   2.698   7.075   4.467 -0.4763  0.2023 -0.1670
 7929TIP3    H123709   2.702   7.166   4.438 -0.6962  0.2579 -0.0292
 7929TIP3    H223710   2.626   7.074   4.531 -0.3361 -0.0225 -0.0128
 7930TIP3   OH223711   3.188   5.271   5.304 -0.7403 -0.5872 -1.0974
 7930TIP3    H123712   3.252   5.237   5.365 -1.8640 -1.3946 -0.3400
 7930TIP3    H223713   3.193   5.212   5.228  0.7718  0.5171 -1.8797
 7931TIP3   OH223714   4.230   4.876   4.191  0.3749 -0.5464 -0.2911
 7931TIP3    H123715   4.143   4.849   4.161  0.9580 -0.0994 -2.4727
 7931TIP3    H223716   4.284   4.798   4.184  0.4397 -0.5142 -0.1471
 7932TIP3   OH223717   3.132   6.885   6.376 -0.4248 -0.1032  0.1914
 7932TIP3    H123718   3.176   6.930   6.448  0.1951 -0.5621  0.0974
 7932TIP3    H223719   3.137   6.793   6.398  0.2395 -0.2867 -0.7093
 7933TIP3   OH223720   1.666   4.676   4.479 -0.3451 -0.0553  0.6118
 7933TIP3    H123721   1.714   4.641   4.404 -0.6475 -0.2552  0.5121
 7933TIP3    H223722   1.734   4.699   4.542 -0.0900  0.1065  0.2817
 7934TIP3   OH223723   1.678   5.234   5.437 -0.0810 -0.6526 -0.1385
 7934TIP3    H123724   1.670   5.147   5.476  0.2206  0.5437  2.7445
 7934TIP3    H223725   1.770   5.256   5.447 -0.5831  0.9053  1.2750
 7935TIP3   OH223726   8.818   4.375   3.538  0.1995  0.0244  0.7917
 7935TIP3    H123727   8.826   4.467   3.565 -0.0588  0.6083 -1.0322
 7935TIP3    H223728   8.777   4.332   3.612 -1.3891  1.7641  0.9667
 7936TIP3   OH223729   0.277   0.038   0.709 -0.0793  0.2284 -0.9052
 7936TIP3    H123730   0.306   0.047   0.618 -0.2055  1.8374 -0.7976
 7936TIP3    H223731   0.207  -0.026   0.705 -0.4242  0.6572 -2.0300
 7937TIP3   OH223732   4.440   1.486   6.127  0.4966  0.8105  0.4132
 7937TIP3    H123733   4.422   1.425   6.198 -1.0824  0.2687 -0.4261
 7937TIP3    H223734   4.527   1.521   6.147  1.5987 -1.9758  0.7155
 7938TIP3   OH223735   3.258   2.995   6.056 -0.2675  0.4497 -0.1593
 7938TIP3    H123736   3.277   3.015   6.148 -1.6084  0.5967  0.0916
 7938TIP3    H223737   3.207   2.914   6.060  1.5957 -0.8090 -0.9237
 7939TIP3   OH223738   1.735   3.583   4.841  0.4815 -0.5079 -0.4145
 7939TIP3    H123739   1.768   3.627   4.763 -0.5114  0.8603 -0.0734
 7939TIP3    H223740   1.789   3.615   4.913 -0.9707  1.0502  0.0053
 7940TIP3   OH223741   1.697   3.973   4.037 -0.7461  0.5110  0.1992
 7940TIP3    H123742   1.764   4.039   4.022 -0.9528  0.3552 -1.5190
 7940TIP3    H223743   1.710   3.945   4.128  3.7128 -1.9083 -1.0328
 7941TIP3   OH223744   1.211   3.305   5.963  0.1618 -0.5433  0.3663
 7941TIP3    H123745   1.178   3.230   6.012  2.8347 -2.4663 -0.6788
 7941TIP3    H223746   1.288   3.272   5.917  1.1094  2.7138 -0.5253
 7942TIP3   OH223747   2.388   3.277   5.973 -0.6753 -0.0722 -0.1340
 7942TIP3    H123748   2.478   3.267   6.004 -0.7312 -0.7736 -0.1849
 7942TIP3    H223749   2.379   3.212   5.904 -0.3832  1.8596 -2.0385
 7943TIP3   OH223750   2.077   4.171   5.412  0.5596  0.5765 -0.0023
 7943TIP3    H123751   2.122   4.171   5.328 -0.8850 -0.8455 -0.7990
 7943TIP3    H223752   2.147   4.175   5.477  1.7490  0.2362 -1.2358
 7944TIP3   OH223753   2.253   4.926   4.296 -0.2444  0.0274 -0.5289
 7944TIP3    H123754   2.342   4.950   4.322 -0.5414  0.1602  0.3996
 7944TIP3    H223755   2.201   5.005   4.312 -0.3117  0.3409 -2.2328
 7945TIP3   OH223756   0.805   4.945   4.167 -0.4651  0.3676  0.1204
 7945TIP3    H123757   0.859   5.017   4.134 -0.5921  0.0589 -0.7999
 7945TIP3    H223758   0.724   4.952   4.117 -0.1732 -0.8896 -0.5524
 7946TIP3   OH223759   5.311   6.917   0.717  0.0474  0.0505 -0.3866
 7946TIP3    H123760   5.278   6.998   0.755  0.1866 -0.7908  1.6314
 7946TIP3    H223761   5.407   6.926   0.721  0.0712 -0.5199  0.5935
 7947TIP3   OH223762   0.853   6.004   4.614  0.0557  0.5815 -0.2486
 7947TIP3    H123763   0.816   5.923   4.579  0.2422  0.4269 -0.0847
 7947TIP3    H223764   0.787   6.070   4.595 -0.6341  0.1741  0.7028
 7948TIP3   OH223765   3.679   5.149   3.778  0.3531  0.0848  0.0799
 7948TIP3    H123766   3.747   5.207   3.810  0.6613 -1.3090  2.0645
 7948TIP3    H223767   3.602   5.205   3.768  1.1611  1.2025  0.0106
 7949TIP3   OH223768   2.804   5.044   7.197  0.1336 -0.0189 -0.3119
 7949TIP3    H123769   2.802   4.990   7.276  1.2092 -0.4707 -0.5869
 7949TIP3    H223770   2.714   5.076   7.188 -0.1331 -0.4336  0.7655
 7950TIP3   OH223771   0.678   4.337   6.345  0.4960  0.2846  0.1902
 7950TIP3    H123772   0.618   4.290   6.287  0.0457  1.7406 -0.5786
 7950TIP3    H223773   0.634   4.337   6.430 -0.8099  1.6117 -0.4357
 7951TIP3   OH223774   0.921   4.727   5.034  0.3746 -0.0196  0.3113
 7951TIP3    H123775   1.012   4.743   5.059  0.7848  0.4275 -1.3782
 7951TIP3    H223776   0.908   4.633   5.049  1.6041 -0.3970 -0.8681
 7952TIP3   OH223777   3.102   3.877   6.927  0.1577 -0.1107  0.2946
 7952TIP3    H123778   3.160   3.947   6.956 -0.1316  0.7115 -1.0786
 7952TIP3    H223779   3.161   3.814   6.884  0.1283  0.4199 -0.5386
 7953TIP3   OH223780   4.086   3.533   5.421 -0.1912  0.1081 -0.3781
 7953TIP3    H123781   4.152   3.601   5.433  2.1404 -2.0720 -0.5249
 7953TIP3    H223782   4.002   3.579   5.433  1.3423  2.7145  0.8112
 7954TIP3   OH223783   3.201   4.157   4.162  0.6277 -0.0668  0.0782
 7954TIP3    H123784   3.253   4.090   4.117 -1.2570 -1.6476  0.1302
 7954TIP3    H223785   3.112   4.120   4.164  0.3646  0.5559  3.9133
 7955TIP3   OH223786   2.574   3.526   6.130  0.4386 -0.1877  0.2907
 7955TIP3    H123787   2.622   3.446   6.108  1.5792  0.7478 -0.6953
 7955TIP3    H223788   2.520   3.543   6.053 -0.1118 -0.2278  0.6657
 7956TIP3   OH223789   4.082   4.153   5.365 -0.1453  0.1972 -0.3400
 7956TIP3    H123790   4.122   4.194   5.289  1.3517 -1.0711 -0.2747
 7956TIP3    H223791   4.152   4.151   5.431 -0.3350 -1.9317 -0.1653
 7957TIP3   OH223792   2.923   5.375   3.427  0.0686 -0.2497  0.2187
 7957TIP3    H123793   2.929   5.281   3.446 -0.3094 -0.7447 -2.0233
 7957TIP3    H223794   2.854   5.382   3.361 -1.0613  1.8045  1.5385
 7958TIP3   OH223795   4.607   3.781   4.157  0.3296  0.1947 -0.5011
 7958TIP3    H123796   4.672   3.785   4.227 -0.9425  1.8731  0.6223
 7958TIP3    H223797   4.613   3.867   4.114 -0.9402  0.2682 -0.5468
 7959TIP3   OH223798   6.552   4.048   5.285 -0.1614  0.0002  0.1224
 7959TIP3    H123799   6.480   4.090   5.238  0.1150 -0.1132 -0.4052
 7959TIP3    H223800   6.592   4.118   5.336 -0.1457  0.2353 -0.2088
 7960TIP3   OH223801   4.615   2.328   6.541 -0.0864 -0.2516 -0.3409
 7960TIP3    H123802   4.539   2.379   6.514  0.6832  0.8285 -0.4869
 7960TIP3    H223803   4.587   2.237   6.531 -2.5819  0.0627  3.0213
 7961TIP3   OH223804   5.106   2.967   3.328  0.1761 -0.8549 -0.1610
 7961TIP3    H123805   5.144   2.989   3.243  0.8734 -1.5042 -0.0310
 7961TIP3    H223806   5.075   2.877   3.318 -1.5091 -0.2632 -0.3169
 7962TIP3   OH223807   4.078   3.036   4.240  0.3843 -0.0680  1.0837
 7962TIP3    H123808   4.078   3.076   4.327 -0.7001  1.7579  0.2757
 7962TIP3    H223809   3.991   3.056   4.205  1.7316  1.6295 -1.4791
 7963TIP3   OH223810   4.960   4.371   4.810  0.1318 -0.1843 -0.4831
 7963TIP3    H123811   5.052   4.399   4.805 -0.3070  1.2622 -0.4829
 7963TIP3    H223812   4.931   4.399   4.896 -0.6588  0.4023 -0.9434
 7964TIP3   OH223813   2.465   4.912   6.376  0.5381 -0.3570 -0.3911
 7964TIP3    H123814   2.512   4.838   6.338 -0.8660 -1.2992 -0.3207
 7964TIP3    H223815   2.490   4.987   6.322  1.1617 -1.0723 -1.0961
 7965TIP3   OH223816   5.994   3.197   2.367  0.2333 -0.1892 -0.0325
 7965TIP3    H123817   5.982   3.103   2.380 -1.0964 -0.1070 -0.5418
 7965TIP3    H223818   5.989   3.235   2.455  1.0400 -0.6174  0.2005
 7966TIP3   OH223819   5.038   4.101   4.049 -0.1487 -0.7436  0.7465
 7966TIP3    H123820   4.995   4.018   4.029  1.0429 -1.3485  0.6536
 7966TIP3    H223821   5.127   4.090   4.016  0.6423 -0.2307  2.6422
 7967TIP3   OH223822   3.059   3.398   6.601  0.1655 -0.2956 -0.0374
 7967TIP3    H123823   2.983   3.457   6.597  1.6092  1.5640 -0.7576
 7967TIP3    H223824   3.081   3.382   6.510 -1.1128 -3.2096  0.1246
 7968TIP3   OH223825   3.579   3.627   3.412  0.0219  0.5821 -0.1200
 7968TIP3    H123826   3.613   3.610   3.500  0.3333  0.1689 -0.3174
 7968TIP3    H223827   3.526   3.706   3.422  0.9664  1.1878  0.2180
 7969TIP3   OH223828   5.749   3.585   2.840 -0.8445  0.2431 -0.5739
 7969TIP3    H123829   5.682   3.646   2.809 -1.4234 -0.0912  0.0249
 7969TIP3    H223830   5.796   3.559   2.760 -1.6956  0.1557 -1.0582
 7970TIP3   OH223831   4.237   1.812   3.229  0.3191 -0.3186  0.2694
 7970TIP3    H123832   4.182   1.821   3.308  0.5129  0.3535  0.3297
 7970TIP3    H223833   4.326   1.827   3.260  0.1924  2.1719 -0.4590
 7971TIP3   OH223834   6.273   5.510   2.969  0.4259  0.1007 -0.1628
 7971TIP3    H123835   6.201   5.473   3.019  0.8543 -0.2314  0.2064
 7971TIP3    H223836   6.231   5.566   2.904 -0.2264 -1.0677 -0.7563
 7972TIP3   OH223837   5.077   3.977   2.738 -0.3139 -0.1109  0.0142
 7972TIP3    H123838   5.110   4.028   2.813  1.2541  0.1413 -0.8176
 7972TIP3    H223839   5.029   4.041   2.685  0.9228  0.3293 -0.5910
 7973TIP3   OH223840   5.118   2.398   3.735  0.4062 -0.0614 -0.3849
 7973TIP3    H123841   5.100   2.491   3.754  0.8488 -0.2620  1.0733
 7973TIP3    H223842   5.175   2.370   3.807 -0.2993 -1.6615 -0.4432
 7974TIP3   OH223843   4.985   3.224   5.400 -0.0121  0.3759  0.2364
 7974TIP3    H123844   5.063   3.177   5.370  0.0580 -0.8327  2.2160
 7974TIP3    H223845   5.018   3.295   5.455 -0.2479  0.8236 -0.1970
 7975TIP3   OH223846   4.019   2.328   5.283  0.2009 -0.6547 -0.0728
 7975TIP3    H123847   3.930   2.305   5.255  0.7139 -0.7079 -1.7023
 7975TIP3    H223848   4.010   2.415   5.321 -0.6521 -0.9152  0.3567
 7976TIP3   OH223849   4.717   4.023   4.095  0.2701 -0.0359 -0.3059
 7976TIP3    H123850   4.717   4.082   4.020  2.0220 -1.5463 -1.5056
 7976TIP3    H223851   4.804   3.984   4.096  0.2414 -0.1221  2.4519
 7977TIP3   OH223852   4.242   3.412   3.118 -0.1334  0.1047 -0.1960
 7977TIP3    H123853   4.235   3.339   3.056 -0.0646  0.3516 -0.4971
 7977TIP3    H223854   4.263   3.371   3.202 -1.5274 -0.3379 -0.0532
 7978TIP3   OH223855   3.066   5.012   5.689 -0.4966 -0.2612 -0.0467
 7978TIP3    H123856   3.078   4.943   5.624  1.7841 -1.1502  1.2349
 7978TIP3    H223857   3.152   5.054   5.695 -1.3230  1.3854  0.6464
 7979TIP3   OH223858   5.701   4.653   3.636 -0.0519  0.5385  0.1408
 7979TIP3    H123859   5.677   4.561   3.649 -0.9915  0.4361 -2.0981
 7979TIP3    H223860   5.634   4.687   3.577  0.8412  2.4199  0.1797
 7980TIP3   OH223861   3.922   4.991   3.994  0.3224  0.0841  0.0842
 7980TIP3    H123862   3.888   4.986   4.083 -1.3768 -1.5717 -0.6230
 7980TIP3    H223863   3.877   4.921   3.947 -1.0729  2.8109 -2.8302
 7981TIP3   OH223864   2.065   4.528   5.167 -0.4732  0.1714  0.0560
 7981TIP3    H123865   2.070   4.617   5.131 -0.6110  0.9397  1.8874
 7981TIP3    H223866   2.043   4.541   5.259 -2.2310 -1.8460 -0.0598
 7982TIP3   OH223867   7.028   6.550   0.040 -0.4782 -0.4710  0.9493
 7982TIP3    H123868   6.960   6.513  -0.017 -0.9091  2.1966 -0.3862
 7982TIP3    H223869   7.036   6.641   0.011  2.5709 -0.2922  2.1541
 7983TIP3   OH223870   2.722   2.319   3.578 -0.0559 -0.4385  0.3734
 7983TIP3    H123871   2.689   2.409   3.574  1.2320  0.0610  0.8594
 7983TIP3    H223872   2.744   2.305   3.670  0.6607 -0.9204  0.1313
 7984TIP3   OH223873   5.070   5.585   2.593  0.0347  0.4327  0.4164
 7984TIP3    H123874   5.117   5.634   2.660 -0.9033 -0.8515  2.0365
 7984TIP3    H223875   5.099   5.494   2.604 -1.3427 -0.0569  0.1710
 7985TIP3   OH223876   5.159   3.471   5.290 -0.0643 -0.7073  0.0134
 7985TIP3    H123877   5.110   3.528   5.232  0.5797  0.5088  0.6473
 7985TIP3    H223878   5.097   3.445   5.358 -0.1168 -0.0137  0.2333
 7986TIP3   OH223879   3.546   5.402   3.574  0.0471  0.8290 -0.2891
 7986TIP3    H123880   3.470   5.451   3.542  0.5870  1.6355 -0.3503
 7986TIP3    H223881   3.560   5.434   3.663 -0.2936 -0.0505  0.0907
 7987TIP3   OH223882   1.899   2.886   3.837 -0.1828 -0.1451  0.1774
 7987TIP3    H123883   1.977   2.941   3.845  0.5106 -0.9066 -1.2484
 7987TIP3    H223884   1.933   2.796   3.842 -1.0843 -0.4661  0.5542
 7988TIP3   OH223885   4.175   4.777   4.518 -0.7123 -0.0123  0.0287
 7988TIP3    H123886   4.238   4.794   4.448 -0.7390 -1.8032 -0.4597
 7988TIP3    H223887   4.163   4.682   4.517 -0.1214 -0.1738  2.9829
 7989TIP3   OH223888   5.979   4.323   3.621 -0.0297  0.2401 -0.2770
 7989TIP3    H123889   6.033   4.303   3.698  0.3697  3.5539  0.3857
 7989TIP3    H223890   6.041   4.327   3.548 -0.4384 -3.1357 -0.9004
 7990TIP3   OH223891   3.012   4.303   3.208 -0.2464  0.0877  0.4822
 7990TIP3    H123892   2.992   4.361   3.281  0.0946 -0.9107  1.3888
 7990TIP3    H223893   3.074   4.240   3.244  0.9439  0.3656 -1.0360
 7991TIP3   OH223894   5.388   3.773   6.418 -0.0511 -0.3845 -0.4262
 7991TIP3    H123895   5.329   3.698   6.413  0.1768 -0.4829 -1.9810
 7991TIP3    H223896   5.475   3.736   6.399  0.1093  0.2156 -0.8816
 7992TIP3   OH223897   2.522   1.728   5.827 -0.1234  0.2453 -0.1930
 7992TIP3    H123898   2.550   1.818   5.811 -1.7849  0.9306  0.6245
 7992TIP3    H223899   2.450   1.714   5.765 -1.7764  0.4735  1.6190
 7993TIP3   OH223900   2.764   1.307   5.411 -0.1628  0.0293  0.4346
 7993TIP3    H123901   2.824   1.240   5.443 -0.0745 -0.0269  0.1520
 7993TIP3    H223902   2.745   1.361   5.488 -0.9698 -0.8689  0.8819
 7994TIP3   OH223903   3.621   3.961   5.191 -0.7891  0.0880  0.4239
 7994TIP3    H123904   3.672   3.958   5.272 -2.1984  0.7479  1.3548
 7994TIP3    H223905   3.638   4.048   5.154 -0.6093  0.0071  0.3166
 7995TIP3   OH223906   7.536   4.076   2.386 -0.3709  0.7587  0.1879
 7995TIP3    H123907   7.524   4.053   2.478  1.5152 -0.3945  0.1839
 7995TIP3    H223908   7.541   3.992   2.341 -1.9855  1.3210 -1.0922
 7996TIP3   OH223909   4.396   4.960   1.988  0.0194 -0.6095  0.6541
 7996TIP3    H123910   4.475   5.003   1.954  0.1595 -0.3322  1.3088
 7996TIP3    H223911   4.423   4.870   2.003 -0.8178 -1.4648 -2.5638
 7997TIP3   OH223912   4.623   4.901   5.457 -0.1885  0.3717 -0.5135
 7997TIP3    H123913   4.671   4.969   5.504  0.5478 -0.9379  0.6513
 7997TIP3    H223914   4.545   4.945   5.424  0.0653  1.6714  0.5911
 7998TIP3   OH223915   2.785   4.690   3.270  0.5729 -0.1563 -0.6761
 7998TIP3    H123916   2.762   4.717   3.181  0.1118  0.1953 -0.4536
 7998TIP3    H223917   2.729   4.614   3.288  0.6221 -0.1899 -0.6630
 7999TIP3   OH223918   4.934   2.049   4.256 -0.0345 -0.8028 -0.2020
 7999TIP3    H123919   5.020   2.036   4.215 -0.9420 -1.3456 -1.9993
 7999TIP3    H223920   4.914   1.965   4.296  0.6813 -0.3924  1.0284
 8000TIP3   OH223921   5.382   2.193   4.295  0.1653 -0.7455  0.1392
 8000TIP3    H123922   5.407   2.219   4.206  0.1728  0.5266  0.4973
 8000TIP3    H223923   5.452   2.135   4.324  0.3001 -0.9459 -0.5968
 8001TIP3   OH223924   5.633   4.086   3.750  0.2588  0.3176  0.1455
 8001TIP3    H123925   5.573   4.043   3.689  1.4323 -1.6962  0.3909
 8001TIP3    H223926   5.717   4.086   3.706  0.4397  1.7418  0.4557
 8002TIP3   OH223927   3.557   4.549   1.237 -0.7769  0.1878 -0.0962
 8002TIP3    H123928   3.649   4.573   1.236 -0.2410 -1.6394  1.3822
 8002TIP3    H223929   3.557   4.454   1.242 -2.7649  0.1061 -1.0105
 8003TIP3   OH223930   2.849   3.719   4.963  0.0694  0.0062 -0.3552
 8003TIP3    H123931   2.838   3.749   4.873 -0.6677 -0.1619 -0.3319
 8003TIP3    H223932   2.759   3.716   4.998  0.0691 -2.5145 -0.4632
 8004TIP3   OH223933   4.027   3.628   4.982 -0.2307 -0.3035  0.2512
 8004TIP3    H123934   3.968   3.662   5.050 -0.5169  0.9200 -0.5895
 8004TIP3    H223935   4.101   3.593   5.031 -0.9830 -0.5392  1.2533
 8005TIP3   OH223936   5.064   5.967   4.965  0.8611  0.1404  0.0199
 8005TIP3    H123937   5.157   5.947   4.957  1.0647  1.2447 -0.4527
 8005TIP3    H223938   5.049   5.978   5.059  1.4674  1.1866 -0.0038
 8006TIP3   OH223939   5.496   3.161   5.583 -0.4771  0.1341 -0.0759
 8006TIP3    H123940   5.405   3.167   5.553  0.2409  0.7558 -2.2873
 8006TIP3    H223941   5.510   3.240   5.635 -0.9723  0.4526 -0.4239
 8007TIP3   OH223942   1.485   2.826   4.913  0.3102 -0.1510  0.3003
 8007TIP3    H123943   1.416   2.761   4.926 -0.5132  0.8408  0.9782
 8007TIP3    H223944   1.479   2.883   4.990  2.0752 -0.2088  0.5055
 8008TIP3   OH223945   2.377   3.672   4.749 -0.4903 -0.4181  0.3970
 8008TIP3    H123946   2.441   3.740   4.771  1.1700 -0.9250 -2.5806
 8008TIP3    H223947   2.377   3.613   4.824  2.4296 -0.3046  0.5331
 8009TIP3   OH223948   3.388   4.465   3.821 -0.1246  0.3796 -0.1692
 8009TIP3    H123949   3.316   4.427   3.872  1.1418 -0.8167  0.7300
 8009TIP3    H223950   3.344   4.509   3.749 -1.7477 -1.0423 -0.0888
 8010TIP3   OH223951   1.292   2.488   3.989 -0.1985 -0.3133  0.9569
 8010TIP3    H123952   1.227   2.473   4.057  1.4991 -1.3968  2.3995
 8010TIP3    H223953   1.288   2.410   3.934 -0.1504 -0.3734  1.0375
 8011TIP3   OH223954   4.083   3.800   5.851 -0.2857  0.6870 -0.3367
 8011TIP3    H123955   4.045   3.879   5.814 -0.3169  0.7834 -0.1017
 8011TIP3    H223956   4.009   3.753   5.891  0.1626  1.9428  2.0293
 8012TIP3   OH223957   5.482   3.953   4.134 -1.0021 -0.5058 -0.8410
 8012TIP3    H123958   5.409   4.013   4.152 -0.0432  0.6835 -0.9202
 8012TIP3    H223959   5.554   4.009   4.108  0.3014 -1.6081  0.3508
 8013TIP3   OH223960   1.188   4.124   6.948 -0.5226 -0.1210 -1.0510
 8013TIP3    H123961   1.211   4.037   6.981 -1.4405 -1.6057 -4.0552
 8013TIP3    H223962   1.093   4.121   6.936 -0.5692  1.3031 -1.1209
 8014TIP3   OH223963   2.943   5.316   5.664 -1.1715  1.0997 -0.2369
 8014TIP3    H123964   3.013   5.255   5.642 -0.1558  2.3934 -0.6926
 8014TIP3    H223965   2.986   5.402   5.668 -2.0960  1.5139  2.6697
 8015TIP3   OH223966   2.842   4.115   3.994  0.4036  0.1909  0.1130
 8015TIP3    H123967   2.756   4.071   3.995  0.6783 -0.3519  0.0893
 8015TIP3    H223968   2.823   4.204   3.967 -0.2059  0.1698  0.4629
 8016TIP3   OH223969   4.492   3.858   4.427 -0.5609 -0.1166  0.4677
 8016TIP3    H123970   4.436   3.794   4.471 -0.3910 -1.3299 -1.0495
 8016TIP3    H223971   4.457   3.863   4.338  0.6764  0.3971 -0.0010
 8017TIP3   OH223972   3.463   5.024   4.387 -0.0056 -0.0492 -0.4318
 8017TIP3    H123973   3.373   5.023   4.352 -0.1804 -0.3643  0.0183
 8017TIP3    H223974   3.462   4.958   4.456 -0.2016  1.9983  1.5658
 8018TIP3   OH223975   3.852   4.543   3.695 -0.2884 -0.7149  0.0281
 8018TIP3    H123976   3.798   4.606   3.647 -1.1176 -0.8030  0.8207
 8018TIP3    H223977   3.791   4.500   3.755  0.6614 -0.7914  0.9687
 8019TIP3   OH223978   4.973   3.916   1.360 -0.0065  0.0784 -0.0884
 8019TIP3    H123979   4.996   3.945   1.449  1.5017 -1.2897 -0.0122
 8019TIP3    H223980   4.902   3.853   1.373  0.0752  0.0313  0.1340
 8020TIP3   OH223981   5.758   3.965   5.325  0.8181 -0.3588 -0.1282
 8020TIP3    H123982   5.827   3.941   5.387  0.2234 -0.2174  0.5987
 8020TIP3    H223983   5.765   4.060   5.316 -0.0539 -0.1884  0.8896
 8021TIP3   OH223984   3.181   5.546   5.365  0.0134 -0.0279 -0.1285
 8021TIP3    H123985   3.189   5.452   5.347 -0.6921 -0.0136 -0.5080
 8021TIP3    H223986   3.182   5.552   5.461 -1.7692 -0.5883 -0.0607
 8022TIP3   OH223987   5.723   8.298   4.250  0.6986  0.0371  0.2688
 8022TIP3    H123988   5.704   8.214   4.294  0.5616  0.7175  1.5330
 8022TIP3    H223989   5.718   8.277   4.157 -1.4759 -0.9059  0.5606
 8023TIP3   OH223990   4.748   4.992   4.372 -0.6898 -0.1974  0.4730
 8023TIP3    H123991   4.691   5.060   4.406 -1.0583 -1.0549  1.6049
 8023TIP3    H223992   4.830   5.037   4.351 -1.0297  0.6396  0.9254
 8024TIP3   OH223993   3.549   3.913   3.412 -0.1140  0.5038  0.5084
 8024TIP3    H123994   3.477   3.892   3.352  1.7250  0.8482 -1.9108
 8024TIP3    H223995   3.573   4.003   3.390  2.3098 -0.2518 -0.0749
 8025TIP3   OH223996   2.909   3.806   4.217 -0.2433 -0.4757 -0.7453
 8025TIP3    H123997   2.965   3.747   4.267 -0.9841 -1.1662 -0.7061
 8025TIP3    H223998   2.826   3.758   4.209 -0.7858  0.4788 -0.8955
 8026TIP3   OH223999   5.089   4.918   4.810  0.7762  0.5170 -0.3784
 8026TIP3    H124000   5.001   4.884   4.820  1.1962 -0.7908 -1.0270
 8026TIP3    H224001   5.108   4.961   4.894 -0.7537  1.5100 -0.5231
 8027TIP3   OH224002   5.517   3.749   3.953 -0.3388 -0.1523 -0.5688
 8027TIP3    H124003   5.505   3.671   4.006 -0.3376  0.1818 -0.0770
 8027TIP3    H224004   5.497   3.822   4.011  1.1568  0.2801 -0.5669
 8028TIP3   OH224005   4.280   4.705   2.304 -0.0440 -0.0955  0.3776
 8028TIP3    H124006   4.277   4.619   2.345  0.2929 -0.1425  0.3042
 8028TIP3    H224007   4.350   4.699   2.240  0.1019  0.2882  0.4968
 8029TIP3   OH224008   7.797   0.492   2.732  0.1202 -0.1089  0.3577
 8029TIP3    H124009   7.763   0.547   2.803  0.9023  1.4211 -0.4273
 8029TIP3    H224010   7.863   0.437   2.774 -0.4522 -0.2433  1.0937
 8030TIP3   OH224011   3.976   5.565   6.584 -0.1668 -0.0174  0.1334
 8030TIP3    H124012   4.004   5.508   6.512  3.0445  0.2731  1.0416
 8030TIP3    H224013   4.047   5.628   6.592 -0.9731  0.5907  2.8734
 8031TIP3   OH224014   3.467   4.119   2.661  0.6906  0.4045 -0.5408
 8031TIP3    H124015   3.555   4.157   2.661  0.4428  1.0485  1.5598
 8031TIP3    H224016   3.409   4.195   2.660  0.1770  0.0206 -0.0820
 8032TIP3   OH224017   0.595   5.469   4.538 -0.1835  0.2966 -0.3063
 8032TIP3    H124018   0.629   5.508   4.618 -0.9630 -0.0130  0.1804
 8032TIP3    H224019   0.502   5.454   4.556 -0.5083  0.8027 -1.4893
 8033TIP3   OH224020   4.366   4.229   2.932 -0.6183  0.1694 -0.2114
 8033TIP3    H124021   4.318   4.311   2.926  0.9478  0.9490 -2.8234
 8033TIP3    H224022   4.434   4.246   2.998 -1.2804  0.4463  0.4002
 8034TIP3   OH224023   1.383   4.120   4.523  0.2096 -0.0439  0.0578
 8034TIP3    H124024   1.441   4.091   4.593 -1.1932 -0.8955  0.8949
 8034TIP3    H224025   1.296   4.092   4.550 -0.6580  1.4776 -1.0216
 8035TIP3   OH224026   4.267   4.803   3.760  0.1347  0.5128 -0.4038
 8035TIP3    H124027   4.312   4.764   3.684  1.3593 -0.7068  0.9146
 8035TIP3    H224028   4.207   4.735   3.789  0.2433  0.6728  0.1985
 8036TIP3   OH224029   4.933   3.328   4.672  0.1294  0.1214  0.4385
 8036TIP3    H124030   5.004   3.358   4.730  0.1318 -1.2007  1.1348
 8036TIP3    H224031   4.855   3.330   4.727 -0.6939  3.0290 -0.7480
 8037TIP3   OH224032   4.006   2.649   3.887  0.4119 -0.2625 -0.2131
 8037TIP3    H124033   3.947   2.576   3.904  1.0822 -0.4034  1.6451
 8037TIP3    H224034   4.093   2.613   3.901  0.7127  1.0549  1.3878
 8038TIP3   OH224035   4.482   4.744   2.720 -0.0638  0.0865 -0.8101
 8038TIP3    H124036   4.420   4.744   2.793 -0.1016 -0.4138 -0.8427
 8038TIP3    H224037   4.487   4.652   2.692  2.5822 -0.2984  0.8026
 8039TIP3   OH224038   4.739   3.846   3.705 -0.5895  0.2480 -0.3138
 8039TIP3    H124039   4.651   3.835   3.740 -0.7357  0.3394 -0.6500
 8039TIP3    H224040   4.790   3.776   3.747 -0.5068  1.0326  0.9008
 8040TIP3   OH224041   4.299   3.911   4.902  0.7523 -0.4000  1.2038
 8040TIP3    H124042   4.346   3.828   4.894  2.3283  0.4367  1.3584
 8040TIP3    H224043   4.215   3.896   4.861  1.2125 -1.9352  0.8025
 8041TIP3   OH224044   4.211   4.161   5.026 -0.2304  0.0222  0.4449
 8041TIP3    H124045   4.116   4.162   5.014 -0.1914  0.8822  0.1366
 8041TIP3    H224046   4.238   4.075   4.994 -0.7387  0.3121 -0.7995
 8042TIP3   OH224047   1.371   4.410   4.397 -0.1751  0.1629 -0.3493
 8042TIP3    H124048   1.380   4.485   4.456  1.5318  1.7284 -2.5078
 8042TIP3    H224049   1.386   4.334   4.453 -1.3280  1.4359  1.7662
 8043TIP3   OH224050   0.078   4.254   4.352  0.0775 -0.2145  0.4205
 8043TIP3    H124051   0.037   4.208   4.425  1.1326  0.2291  1.3015
 8043TIP3    H224052   0.019   4.238   4.278 -1.6886  0.3983  1.6514
 8044TIP3   OH224053   3.361   3.375   5.001  0.3220  0.2760  0.1691
 8044TIP3    H124054   3.400   3.317   4.936  2.4319  0.5867  1.1354
 8044TIP3    H224055   3.271   3.387   4.971  0.0296 -2.9389 -0.4162
 8045TIP3   OH224056   5.845   3.771   4.071  0.0247  0.1207 -0.1202
 8045TIP3    H124057   5.830   3.794   3.980 -1.5296  1.6953  0.5096
 8045TIP3    H224058   5.773   3.712   4.094 -0.5372  1.0397  0.5364
 8046TIP3   OH224059   4.268   6.260   3.408  0.1583  0.4013  0.1843
 8046TIP3    H124060   4.201   6.326   3.428 -0.9287 -0.7710  0.4814
 8046TIP3    H224061   4.289   6.274   3.316 -1.9212 -0.4636 -0.4395
 8047TIP3   OH224062   3.291   3.677   3.656 -0.5614 -0.0025 -0.6907
 8047TIP3    H124063   3.227   3.674   3.586 -1.0623 -0.4957 -0.2122
 8047TIP3    H224064   3.342   3.757   3.639 -2.6898  1.5761  0.1549
 8048TIP3   OH224065   2.603   4.113   3.471  0.1742  0.1450  0.3673
 8048TIP3    H124066   2.577   4.181   3.408 -1.4017 -0.6539  0.1464
 8048TIP3    H224067   2.627   4.038   3.416  0.1090 -0.0998  0.6752
 8049TIP3   OH224068   3.774   4.533   5.413 -0.1192  0.1746 -0.6300
 8049TIP3    H124069   3.742   4.447   5.387  1.2538 -0.5853  0.2255
 8049TIP3    H224070   3.817   4.567   5.334  0.6558 -0.5342 -0.5084
 8050TIP3   OH224071   3.762   4.883   6.020 -0.3779  0.3585 -0.3585
 8050TIP3    H124072   3.794   4.865   6.108 -1.2986 -0.0783 -0.1061
 8050TIP3    H224073   3.822   4.835   5.963 -0.2102  0.0568  0.0680
 8051TIP3   OH224074   2.288   4.826   5.141  0.0269 -0.1599 -0.5079
 8051TIP3    H124075   2.317   4.879   5.067 -2.2394  2.4983  0.4124
 8051TIP3    H224076   2.356   4.836   5.207 -0.2976  1.5114 -0.4084
 8052TIP3   OH224077   4.126   6.033   6.196 -0.2592 -0.7069 -0.0951
 8052TIP3    H124078   4.032   6.014   6.195 -0.2095 -0.9329 -0.9471
 8052TIP3    H224079   4.138   6.091   6.271 -1.2038 -0.0616 -0.4320
 8053TIP3   OH224080   4.250   4.217   3.441 -0.0371 -0.2258  0.4588
 8053TIP3    H124081   4.157   4.198   3.430  0.2820 -0.8793 -1.2546
 8053TIP3    H224082   4.291   4.131   3.453  0.8871 -0.3933 -3.2529
 8054TIP3   OH224083   5.064   1.909   1.303  0.3006 -0.4540 -0.3263
 8054TIP3    H124084   5.158   1.924   1.301  0.2661 -0.2106  0.0024
 8054TIP3    H224085   5.046   1.864   1.220  0.2654  2.0237 -1.6975
 8055TIP3   OH224086   3.830   3.550   4.802  0.1317  0.4693 -0.4748
 8055TIP3    H124087   3.758   3.575   4.860 -0.1365  0.4789 -0.8088
 8055TIP3    H224088   3.909   3.571   4.851 -0.0960  0.8434 -0.2686
 8056TIP3   OH224089   4.520   5.482   3.828 -0.3618 -0.0597  0.0843
 8056TIP3    H124090   4.568   5.562   3.808  0.3839 -0.8240 -1.2876
 8056TIP3    H224091   4.581   5.430   3.880  0.0248 -0.7031 -0.9994
 8057TIP3   OH224092   7.469   1.794   2.930 -0.3551 -0.2987  0.1907
 8057TIP3    H124093   7.462   1.821   2.838 -0.9283 -1.2438 -0.0460
 8057TIP3    H224094   7.387   1.748   2.947 -0.3197  0.0168  1.2301
 8058TIP3   OH224095   3.054   4.917   5.943 -0.5003  0.2804 -0.0546
 8058TIP3    H124096   3.078   4.947   5.855 -0.2642 -1.3162 -0.5462
 8058TIP3    H224097   3.039   4.823   5.933 -0.9486  0.1789  1.5182
 8059TIP3   OH224098   5.033   3.277   6.493  0.5183 -0.4893 -0.5125
 8059TIP3    H124099   5.124   3.278   6.524  0.3815 -3.1568  0.1252
 8059TIP3    H224100   4.981   3.291   6.572  0.3557 -0.1302 -0.6852
 8060TIP3   OH224101   4.447   4.292   3.205  0.3123 -0.3236  0.0245
 8060TIP3    H124102   4.373   4.296   3.266 -0.0000  1.7146 -0.4352
 8060TIP3    H224103   4.514   4.243   3.252 -1.3192 -2.2354  0.4403
 8061TIP3   OH224104   3.131   6.044   5.349  0.1366 -0.4411 -0.8557
 8061TIP3    H124105   3.137   6.075   5.259  1.0929  0.5185 -0.4832
 8061TIP3    H224106   3.040   6.020   5.361 -0.1620  0.1739 -1.8471
 8062TIP3   OH224107   7.858   4.460   0.021 -0.3677  0.6054  0.0870
 8062TIP3    H124108   7.902   4.528   0.071  0.2052  0.5313 -0.3129
 8062TIP3    H224109   7.896   4.378   0.053  0.1991  0.5698 -0.6448
 8063TIP3   OH224110   3.903   3.234   6.651 -0.4751  0.4955 -0.4809
 8063TIP3    H124111   3.948   3.278   6.579 -1.8666  2.9986  0.1330
 8063TIP3    H224112   3.973   3.209   6.712  0.3975  1.3581 -1.1208
 8064TIP3   OH224113   5.246   3.319   5.042  0.1687  0.3401 -0.1718
 8064TIP3    H124114   5.337   3.294   5.058  1.0232  0.7197 -4.0785
 8064TIP3    H224115   5.215   3.351   5.127  3.7040  0.3124  1.2061
 8065TIP3   OH224116   0.546   1.090   1.106  0.4115 -0.4815 -0.2307
 8065TIP3    H124117   0.621   1.031   1.096 -0.4947 -1.2796 -2.7608
 8065TIP3    H224118   0.475   1.047   1.057 -1.5594  0.4909  1.6920
 8066TIP3   OH224119   3.865   3.293   6.044 -0.4824 -0.5655 -0.1291
 8066TIP3    H124120   3.824   3.253   5.968  0.3722 -0.4402 -0.6598
 8066TIP3    H224121   3.926   3.357   6.008  0.5703 -1.1240  0.6431
 8067TIP3   OH224122   4.069   3.576   4.584 -0.0979 -0.2704 -0.4004
 8067TIP3    H124123   3.988   3.542   4.620 -0.1395  0.9363  0.6926
 8067TIP3    H224124   4.136   3.513   4.610 -0.7920 -1.6725 -1.9694
 8068TIP3   OH224125   5.862   1.458   5.976  0.0235  0.1527 -0.3311
 8068TIP3    H124126   5.882   1.496   6.061  1.2560  3.3227 -1.9565
 8068TIP3    H224127   5.766   1.455   5.973 -0.0388  1.0003  0.7333
 8069TIP3   OH224128   8.625   0.079   0.239 -0.4850 -0.0631 -0.2528
 8069TIP3    H124129   8.567   0.118   0.173 -1.2202  0.3579  0.6206
 8069TIP3    H224130   8.566   0.033   0.299 -0.2671  2.9624  2.4229
 8070TIP3   OH224131   8.400   7.453   0.008  0.6136 -0.1656 -0.1259
 8070TIP3    H124132   8.359   7.367   0.018 -0.3847  0.2980 -0.1731
 8070TIP3    H224133   8.411   7.485   0.097 -2.7861  1.3973 -0.1860
 8071TIP3   OH224134   4.898   3.556   5.228  0.2117 -0.1336 -0.3118
 8071TIP3    H124135   4.884   3.464   5.255  1.3209 -0.6728 -1.5699
 8071TIP3    H224136   4.882   3.606   5.308  3.7461 -1.7425  1.5284
 8072TIP3   OH224137   5.164   3.761   4.277 -0.3301  0.0700 -0.4494
 8072TIP3    H124138   5.187   3.854   4.275  0.4932 -0.1019  0.3976
 8072TIP3    H224139   5.161   3.740   4.371  3.6115 -1.7370 -0.6080
 8073TIP3   OH224140   3.853   3.662   5.934 -0.2835 -0.0920 -0.4032
 8073TIP3    H124141   3.816   3.702   5.856 -0.9156 -0.6187 -0.3750
 8073TIP3    H224142   3.862   3.569   5.911  0.0999 -0.1422 -0.0635
 8074TIP3   OH224143   4.586   4.358   5.439  0.0720  0.3116  0.7920
 8074TIP3    H124144   4.546   4.444   5.447 -0.4496 -0.0376  2.1458
 8074TIP3    H224145   4.558   4.326   5.353 -0.7984  0.9552  0.8326
 8075TIP3   OH224146   6.528   4.372   4.632  0.1944 -0.5639 -0.6420
 8075TIP3    H124147   6.611   4.331   4.609  0.9038 -0.0404  0.8982
 8075TIP3    H224148   6.551   4.435   4.701 -1.2049  0.8498 -1.4300
 8076TIP3   OH224149   4.084   4.689   5.441 -0.1844 -0.0779 -0.2409
 8076TIP3    H124150   4.021   4.654   5.377 -2.7499 -0.2063  2.2498
 8076TIP3    H224151   4.079   4.784   5.430  0.7702 -0.1574 -1.4706
 8077TIP3   OH224152   0.958   4.655   4.398 -0.0158 -0.5351  0.1923
 8077TIP3    H124153   1.005   4.731   4.365  1.4316 -1.2783  0.5124
 8077TIP3    H224154   1.018   4.582   4.385 -1.5031 -1.6720 -0.3534
 8078TIP3   OH224155   3.891   3.114   3.997 -0.0567  0.2470  0.4023
 8078TIP3    H124156   3.850   3.054   3.935 -2.2177 -0.2671  2.2659
 8078TIP3    H224157   3.869   3.201   3.963  0.5042 -0.0075 -0.6410
 8079TIP3   OH224158   0.707   4.739   4.345  0.4327  0.6023 -0.0253
 8079TIP3    H124159   0.779   4.679   4.363  0.7753  0.6119 -1.2972
 8079TIP3    H224160   0.748   4.815   4.304 -0.2397  0.8158 -0.3255
 8080TIP3   OH224161   6.078   5.211   3.995  0.0490 -0.0171 -0.3787
 8080TIP3    H124162   6.009   5.151   3.966 -0.8727  0.4949  0.7265
 8080TIP3    H224163   6.031   5.287   4.029  1.1806  0.6558 -0.2973
 8081TIP3   OH224164   7.221   4.466   4.532  0.3741  0.3316 -0.6195
 8081TIP3    H124165   7.208   4.462   4.627  0.6442  0.4919 -0.5739
 8081TIP3    H224166   7.317   4.465   4.521  0.3511  0.7058 -0.8705
 8082TIP3   OH224167   3.458   1.830   3.001 -0.2783 -0.1504 -0.3915
 8082TIP3    H124168   3.422   1.904   3.049 -0.4590 -0.0527 -0.6741
 8082TIP3    H224169   3.433   1.845   2.910 -2.0446 -1.5611 -0.1714
 8083TIP3   OH224170   5.150   3.718   3.175  0.1593  0.0657 -0.4828
 8083TIP3    H124171   5.188   3.636   3.204  0.1599 -0.6746 -2.5018
 8083TIP3    H224172   5.080   3.693   3.115 -1.2094  1.4893  0.4887
 8084TIP3   OH224173   3.981   5.759   6.330  0.2375  0.0474 -0.2905
 8084TIP3    H124174   4.015   5.690   6.273  0.2033 -1.1069  1.0692
 8084TIP3    H224175   3.904   5.791   6.284  1.9099  1.2062 -2.3487
 8085TIP3   OH224176   7.061   4.407   3.299  0.0682 -0.0721 -0.6808
 8085TIP3    H124177   7.050   4.469   3.370  1.6447  1.6694 -1.8856
 8085TIP3    H224178   6.973   4.375   3.279 -0.2078 -1.8851  3.1219
 8086TIP3   OH224179   5.559   3.484   3.302 -0.1553 -0.3181 -0.5194
 8086TIP3    H124180   5.593   3.396   3.287  1.6587  0.6359 -2.3185
 8086TIP3    H224181   5.594   3.509   3.388  0.7932 -0.6901 -0.7888
 8087TIP3   OH224182   4.491   3.652   3.954  0.2272  0.0083 -0.3361
 8087TIP3    H124183   4.407   3.615   3.981  0.1175  0.8484  0.4783
 8087TIP3    H224184   4.521   3.702   4.030  1.9944 -1.1722 -0.2037
 8088TIP3   OH224185   6.420   5.906   5.129  0.3089  0.1342 -0.0976
 8088TIP3    H124186   6.437   5.838   5.064  2.1774 -0.9653  1.4813
 8088TIP3    H224187   6.387   5.858   5.205  0.5109  1.1440  0.6294
 8089TIP3   OH224188   6.991   4.418   4.308  0.4132  0.0440  0.1860
 8089TIP3    H124189   6.933   4.472   4.362 -0.8050 -1.1273  0.0862
 8089TIP3    H224190   7.036   4.362   4.371  2.7451  2.1114  0.4270
 8090TIP3   OH224191   6.462   4.588   2.774  0.5979  0.3936 -0.4682
 8090TIP3    H124192   6.490   4.566   2.863 -0.8953 -0.9027 -0.2944
 8090TIP3    H224193   6.490   4.513   2.721 -1.7466 -0.5447 -0.4306
 8091TIP3   OH224194   5.316   2.733   4.312 -0.0677  0.3403  0.5900
 8091TIP3    H124195   5.379   2.666   4.288 -0.1762  0.5264 -0.2145
 8091TIP3    H224196   5.370   2.810   4.332  0.0524  0.0406  1.4655
 8092TIP3   OH224197   4.305   4.364   3.852  0.1354 -0.1291 -0.1586
 8092TIP3    H124198   4.246   4.438   3.866  0.6483  0.2109  0.2297
 8092TIP3    H224199   4.371   4.373   3.921  0.5853 -0.5634 -0.5327
 8093TIP3   OH224200   4.951   4.614   3.803 -0.3378  0.3022  0.5420
 8093TIP3    H124201   5.035   4.591   3.762 -0.6199 -1.2091  0.7919
 8093TIP3    H224202   4.929   4.699   3.765  1.0199  0.4527  0.0385
 8094TIP3   OH224203   2.399   5.738   6.015 -0.5196  0.0769  0.3978
 8094TIP3    H124204   2.459   5.683   5.965  0.4599 -0.0221  1.6384
 8094TIP3    H224205   2.409   5.708   6.105 -1.0642  1.2940  0.8769
 8095TIP3   OH224206   3.713   4.468   3.375 -0.0133 -0.1712 -0.0524
 8095TIP3    H124207   3.690   4.539   3.436  1.3686 -0.7514  1.1629
 8095TIP3    H224208   3.791   4.500   3.330 -0.0777 -0.4301 -0.3425
 8096TIP3   OH224209   5.362   4.198   3.608  0.4037 -0.6574 -0.1989
 8096TIP3    H124210   5.326   4.231   3.525 -0.6115 -1.2805 -0.0120
 8096TIP3    H224211   5.377   4.105   3.592 -1.4291 -1.1609  0.8454
 8097TIP3   OH224212   3.821   2.878   4.491 -0.3539 -0.1990  0.0903
 8097TIP3    H124213   3.873   2.886   4.571  1.4519 -0.0459 -1.0689
 8097TIP3    H224214   3.878   2.831   4.430 -1.6858 -0.2606 -1.1332
 8098TIP3   OH224215   5.121   3.722   4.601  0.6595  0.5167 -0.1084
 8098TIP3    H124216   5.110   3.776   4.679  3.4663  0.6884  0.2551
 8098TIP3    H224217   5.051   3.657   4.605 -2.2247  3.5072 -0.0521
 8099TIP3   OH224218   4.741   5.239   2.171 -0.3029 -0.8234  0.0085
 8099TIP3    H124219   4.753   5.262   2.079 -0.0733 -1.9365 -0.2445
 8099TIP3    H224220   4.798   5.163   2.185  0.0860 -0.3308  1.2116
 8100TIP3   OH224221   3.054   3.545   4.844  0.2074 -0.0471 -0.0722
 8100TIP3    H124222   3.014   3.618   4.892 -0.7319 -1.4435  1.3266
 8100TIP3    H224223   3.004   3.539   4.763 -1.2604 -0.5890  0.8458
 8101TIP3   OH224224   7.195   5.716   2.163 -0.5787  0.3101 -0.1321
 8101TIP3    H124225   7.103   5.731   2.183 -1.2523 -3.3868  0.0030
 8101TIP3    H224226   7.201   5.724   2.068 -1.2455 -0.3413 -0.2348
 8102TIP3   OH224227   3.759   1.755   3.659 -0.4167 -0.2700  0.0428
 8102TIP3    H124228   3.808   1.728   3.736 -0.8553 -0.8460  0.1279
 8102TIP3    H224229   3.718   1.675   3.626 -1.7221  0.2686  0.2856
 8103TIP3   OH224230   4.399   3.071   4.851  0.1606  0.1587 -0.2784
 8103TIP3    H124231   4.363   2.984   4.833  0.0886 -0.2239  1.5929
 8103TIP3    H224232   4.325   3.131   4.835  0.3142 -0.0792 -1.9156
 8104TIP3   OH224233   2.067   6.902   5.673 -0.3875  0.2709  0.1464
 8104TIP3    H124234   2.140   6.915   5.613  0.3725 -0.3459  0.9182
 8104TIP3    H224235   2.015   6.833   5.633 -1.1572  1.4749 -0.9574
 8105TIP3   OH224236   1.856   5.758   4.601  0.1641 -0.2770  0.1908
 8105TIP3    H124237   1.895   5.674   4.576  0.5427  0.2876 -1.1766
 8105TIP3    H224238   1.776   5.734   4.649  1.2302 -1.4102  1.4107
 8106TIP3   OH224239   3.521   5.595   4.338 -0.2605  0.1073 -0.2891
 8106TIP3    H124240   3.518   5.620   4.431  0.9076  0.5029 -0.3542
 8106TIP3    H224241   3.541   5.502   4.339 -3.0599 -0.5366 -0.0857
 8107TIP3   OH224242   6.095   1.843   5.336 -0.1782 -0.5296  0.0321
 8107TIP3    H124243   6.043   1.912   5.294  0.6405 -0.7895 -1.4436
 8107TIP3    H224244   6.043   1.763   5.323  0.2700 -0.6803 -0.8714
 8108TIP3   OH224245   2.661   4.739   4.203  0.0224 -0.7254 -0.7023
 8108TIP3    H124246   2.733   4.692   4.161 -1.0223 -2.1308 -0.9425
 8108TIP3    H224247   2.660   4.707   4.293  0.4346  0.1595 -0.3806
 8109TIP3   OH224248   3.118   5.205   6.395  0.3893  0.0019  0.4734
 8109TIP3    H124249   3.127   5.300   6.402  0.7281 -0.0365  0.5872
 8109TIP3    H224250   3.024   5.189   6.398  0.2112  0.5053 -1.9401
 8110TIP3   OH224251   3.325   4.575   4.468 -0.1911 -0.1081 -0.4985
 8110TIP3    H124252   3.386   4.603   4.400 -1.3334 -1.3628 -2.0701
 8110TIP3    H224253   3.357   4.488   4.494 -0.5949 -0.2427 -0.4527
 8111TIP3   OH224254   2.804   5.714   4.802 -0.3360 -0.0446 -0.0572
 8111TIP3    H124255   2.746   5.649   4.762  1.0111 -0.6975 -0.9673
 8111TIP3    H224256   2.843   5.760   4.728  0.1237  0.5698  0.5631
 8112TIP3   OH224257   4.569   5.112   4.677  0.0515  0.0494 -0.7504
 8112TIP3    H124258   4.567   5.155   4.591 -0.9626 -0.3189 -0.9075
 8112TIP3    H224259   4.597   5.022   4.658 -0.0496  0.0035 -0.6738
 8113TIP3   OH224260   2.546   4.412   6.280  0.0500 -0.1024  0.2889
 8113TIP3    H124261   2.463   4.364   6.281  0.0419 -0.0883  0.6763
 8113TIP3    H224262   2.600   4.367   6.344  0.3873 -0.1879 -0.0588
 8114TIP3   OH224263   3.041   4.672   5.200 -0.0094 -0.8557 -0.0162
 8114TIP3    H124264   3.131   4.703   5.199 -0.3710  0.3042  1.0399
 8114TIP3    H224265   3.043   4.594   5.255 -0.1977  1.1270  2.9500
 8115TIP3   OH224266   4.758   4.202   5.240  0.1530 -0.3335 -0.3595
 8115TIP3    H124267   4.746   4.209   5.335 -2.0325  1.0515 -0.7067
 8115TIP3    H224268   4.820   4.272   5.219  1.2136 -1.1073  0.1142
 8116TIP3   OH224269   2.999   5.118   4.875 -0.1536 -0.7298  0.4630
 8116TIP3    H124270   3.014   5.211   4.859  2.6094 -1.1926  0.0465
 8116TIP3    H224271   3.003   5.078   4.788 -2.0420 -1.1744  0.5640
 8117TIP3   OH224272   4.823   0.669   5.787 -0.1817  0.1759 -0.5763
 8117TIP3    H124273   4.889   0.637   5.725 -1.1071 -0.4157 -1.2705
 8117TIP3    H224274   4.757   0.711   5.731 -1.6577 -1.4686 -0.1046
 8118TIP3   OH224275   4.980   4.164   3.547 -0.1070  0.5366  0.7927
 8118TIP3    H124276   4.897   4.126   3.517 -0.5202  0.3134  2.1772
 8118TIP3    H224277   5.044   4.138   3.481 -0.4732 -2.1752  1.4505
 8119TIP3   OH224278   5.425   4.582   2.321  0.4693  0.1531  0.5866
 8119TIP3    H124279   5.349   4.609   2.269 -0.9513 -0.3353  2.3814
 8119TIP3    H224280   5.470   4.517   2.266  1.1663  2.4654 -1.6560
 8120TIP3   OH224281   3.843   5.846   2.209  0.4058 -0.0811  0.3423
 8120TIP3    H124282   3.858   5.840   2.114  0.2386  0.3916  0.2872
 8120TIP3    H224283   3.758   5.888   2.218 -0.4898 -1.8985  0.6837
 8121TIP3   OH224284   4.707   4.196   2.762 -0.4561 -0.4007  0.0566
 8121TIP3    H124285   4.657   4.249   2.699 -1.0299  0.6995  1.4051
 8121TIP3    H224286   4.695   4.241   2.846 -0.2530 -2.2161  1.0851
 8122TIP3   OH224287   4.211   3.777   6.086 -0.3402 -0.3381 -0.6153
 8122TIP3    H124288   4.163   3.776   6.003 -0.8883 -1.3692 -0.2897
 8122TIP3    H224289   4.271   3.703   6.080 -2.4425 -2.2421  1.0966
 8123TIP3   OH224290   3.861   3.716   3.867  0.1615 -0.0299  0.0030
 8123TIP3    H124291   3.827   3.726   3.956 -0.8362  0.1503 -0.3897
 8123TIP3    H224292   3.833   3.795   3.821 -0.4819 -0.7233 -0.8216
 8124TIP3   OH224293   2.882   2.891   5.078  0.3198  0.7495  0.5360
 8124TIP3    H124294   2.848   2.829   5.142 -0.5044  0.5203 -0.1155
 8124TIP3    H224295   2.872   2.976   5.120  0.7815  0.5154  1.1380
 8125TIP3   OH224296   3.831   3.182   5.330 -0.2584 -0.7169 -0.5149
 8125TIP3    H124297   3.888   3.239   5.280 -0.3554 -2.3927 -2.6253
 8125TIP3    H224298   3.865   3.185   5.419  1.6039  0.2286 -1.2395
 8126TIP3   OH224299   1.469   0.518   4.084 -0.0435  0.0522  0.2020
 8126TIP3    H124300   1.457   0.533   4.178 -1.2661  1.1922 -0.1257
 8126TIP3    H224301   1.397   0.460   4.059  1.0180 -1.2950  0.2023
 8127TIP3   OH224302   6.239   4.976   3.562 -0.1555 -0.8480 -0.8117
 8127TIP3    H124303   6.155   4.993   3.520 -0.3064  0.6754  0.0521
 8127TIP3    H224304   6.217   4.958   3.654  0.5385  1.1874 -0.2032
 8128TIP3   OH224305   6.171   3.828   3.770  0.2667  0.3221  0.2104
 8128TIP3    H124306   6.142   3.898   3.828  1.2880  0.6041  0.3905
 8128TIP3    H224307   6.096   3.810   3.714 -1.1503 -0.7393  2.3680
 8129TIP3   OH224308   4.191   4.652   7.074 -0.7885  0.3502  0.1939
 8129TIP3    H124309   4.172   4.589   7.004 -0.3857 -0.7452  1.0518
 8129TIP3    H224310   4.242   4.720   7.031 -1.3407  0.1610 -0.7844
 8130TIP3   OH224311   4.080   3.828   6.395  0.1851 -0.1888 -0.0079
 8130TIP3    H124312   4.136   3.831   6.317 -0.7278 -2.7413 -0.8125
 8130TIP3    H224313   3.991   3.826   6.360 -0.3266  0.6879  1.1851
 8131TIP3   OH224314   2.470   4.586   2.241  0.6454 -0.0415  0.0058
 8131TIP3    H124315   2.472   4.538   2.159  0.0916  0.3244 -0.2260
 8131TIP3    H224316   2.553   4.632   2.245  0.7098 -0.1336 -0.3064
 8132TIP3   OH224317   5.421   3.335   2.610  0.7005  0.1481  0.0806
 8132TIP3    H124318   5.508   3.297   2.606  0.4355 -0.3808 -0.9292
 8132TIP3    H224319   5.370   3.273   2.661  0.8407  0.2966  0.3984
 8133TIP3   OH224320   5.664   6.437   3.254  0.0409 -0.0597 -0.0996
 8133TIP3    H124321   5.704   6.421   3.339  2.1566  0.0884 -1.0225
 8133TIP3    H224322   5.574   6.407   3.263  0.0073  0.7329  2.4294
 8134TIP3   OH224323   6.757   3.163   3.005 -0.2417 -0.0942 -0.0775
 8134TIP3    H124324   6.720   3.233   2.950 -0.6212 -0.1778  0.0678
 8134TIP3    H224325   6.681   3.127   3.051  0.0118 -0.3341  0.1511
 8135TIP3   OH224326   5.264   2.329   3.357  0.4485 -0.2164  0.1246
 8135TIP3    H124327   5.287   2.416   3.323 -0.8012  0.1374  0.1560
 8135TIP3    H224328   5.212   2.289   3.287  0.9113 -0.8938  0.1650
 8136TIP3   OH224329   4.687   3.911   2.666  0.4744 -0.3296 -0.3248
 8136TIP3    H124330   4.677   4.005   2.682  2.0249 -0.6173  2.5634
 8136TIP3    H224331   4.781   3.900   2.650  0.1906 -1.3122 -1.3549
 8137TIP3   OH224332   8.044   4.236   2.520 -0.3581 -0.0190 -0.5005
 8137TIP3    H124333   8.038   4.225   2.425  0.5208 -1.1161 -0.4346
 8137TIP3    H224334   8.119   4.294   2.533 -0.5651  0.2438 -0.4863
 8138TIP3   OH224335   7.026   3.409   2.659 -0.1769  0.7359 -0.3509
 8138TIP3    H124336   7.050   3.319   2.679  2.0035  1.3989  0.1424
 8138TIP3    H224337   7.066   3.461   2.729 -0.4784  2.1811 -1.2275
 8139TIP3   OH224338   6.344   5.281   3.839  0.5450  0.2152 -0.3374
 8139TIP3    H124339   6.281   5.225   3.885 -0.5730  1.7186 -0.0246
 8139TIP3    H224340   6.410   5.301   3.904 -0.8292  2.0159  0.5597
 8140TIP3   OH224341   5.555   3.746   2.740  0.2702  0.3244  0.0599
 8140TIP3    H124342   5.555   3.841   2.751  0.9851  0.0810  2.6052
 8140TIP3    H224343   5.485   3.715   2.798 -0.3535 -0.6681 -1.2029
 8141TIP3   OH224344   5.962   5.044   3.698 -0.4620  1.4240  0.0180
 8141TIP3    H124345   5.920   4.976   3.645 -0.0028  1.5109 -0.4574
 8141TIP3    H224346   5.907   5.051   3.775 -0.2431  0.1634  0.3017
 8142TIP3   OH224347   6.461   4.107   4.918 -0.1387 -0.4168 -0.6654
 8142TIP3    H124348   6.419   4.093   5.004  1.2648 -1.0135 -0.0610
 8142TIP3    H224349   6.521   4.180   4.932 -1.1262  0.5783 -1.5863
 8143TIP3   OH224350   7.152   6.213   1.734 -0.0963  0.5242 -0.0705
 8143TIP3    H124351   7.187   6.135   1.778  0.8789 -0.3802 -2.4016
 8143TIP3    H224352   7.216   6.282   1.754  0.1210  0.2219  0.2964
 8144TIP3   OH224353   5.428   5.186   4.876 -0.5042 -0.5389  0.5833
 8144TIP3    H124354   5.451   5.164   4.966  0.4806 -0.1673  0.4297
 8144TIP3    H224355   5.427   5.102   4.830  1.1492 -0.4986  0.4604
 8145TIP3   OH224356   5.720   4.363   2.954 -0.5825  0.3220  0.2181
 8145TIP3    H124357   5.686   4.394   2.870 -2.5783 -1.0865  0.4794
 8145TIP3    H224358   5.692   4.272   2.960  0.4477  0.0800  1.9543
 8146TIP3   OH224359   5.142   2.313   4.398 -0.2127  0.0184  0.3171
 8146TIP3    H124360   5.231   2.298   4.366 -0.6923 -0.2615 -0.9016
 8146TIP3    H224361   5.142   2.405   4.426  0.1577  0.3357 -0.6951
 8147TIP3   OH224362   5.202   3.020   3.052 -0.8196  0.3936  0.0542
 8147TIP3    H124363   5.269   2.975   3.001 -0.0800  1.5660 -0.0405
 8147TIP3    H224364   5.119   2.994   3.012 -0.2646  1.0876 -1.6011
 8148TIP3   OH224365   4.847   4.789   4.880  0.8411  0.2052  0.3598
 8148TIP3    H124366   4.851   4.703   4.923  0.9575  0.7998  1.5465
 8148TIP3    H224367   4.796   4.773   4.800 -0.2217 -0.7122  1.1957
 8149TIP3   OH224368   6.326   4.216   2.791 -0.1441 -0.6289  0.1797
 8149TIP3    H124369   6.306   4.128   2.820 -0.3298 -0.6404  0.0194
 8149TIP3    H224370   6.242   4.261   2.792 -0.2107 -0.7279 -0.6770
 8150TIP3   OH224371   5.182   3.825   4.851 -0.1034  0.6081  0.4053
 8150TIP3    H124372   5.120   3.897   4.843  1.5301  1.9588 -0.6541
 8150TIP3    H224373   5.142   3.765   4.914 -2.5633  1.2894 -0.4541
 8151TIP3   OH224374   4.873   1.756   3.956 -0.2024  0.5122 -0.1258
 8151TIP3    H124375   4.798   1.814   3.942 -1.1863 -1.0341 -1.4248
 8151TIP3    H224376   4.940   1.789   3.896 -0.4556  0.8195 -0.2442
 8152TIP3   OH224377   6.976   7.218   3.928 -0.7119 -0.4955 -0.1642
 8152TIP3    H124378   6.881   7.227   3.928 -0.5217  1.8881  0.1220
 8152TIP3    H224379   6.998   7.187   3.841 -1.5158  2.3461 -1.4401
 8153TIP3   OH224380   5.975   5.761   5.386 -0.5906 -0.3295 -0.0374
 8153TIP3    H124381   6.064   5.745   5.357 -0.4914  1.1131 -0.5760
 8153TIP3    H224382   5.931   5.798   5.309 -2.2071 -2.8037 -0.3966
 8154TIP3   OH224383   7.326   3.560   3.927  0.1824  0.1100 -0.0179
 8154TIP3    H124384   7.273   3.605   3.861  1.7017  1.4612 -0.3602
 8154TIP3    H224385   7.291   3.471   3.931  0.3551 -0.1227 -2.9622
 8155TIP3   OH224386   6.790   4.292   4.497 -0.1714  0.4027 -0.5131
 8155TIP3    H124387   6.880   4.271   4.521  0.3095  0.7240 -1.9927
 8155TIP3    H224388   6.794   4.381   4.464 -0.8535  0.0944 -1.4671
 8156TIP3   OH224389   5.955   4.378   3.088  0.3791 -0.8636 -0.4571
 8156TIP3    H124390   5.992   4.308   3.033  0.0427 -0.6703 -0.9357
 8156TIP3    H224391   5.869   4.395   3.050  0.4930 -0.1283 -0.3948
 8157TIP3   OH224392   5.880   6.351   3.929 -0.1011 -0.2573  0.5863
 8157TIP3    H124393   5.905   6.369   4.020 -1.0111 -0.5591  0.9053
 8157TIP3    H224394   5.791   6.385   3.922 -0.2773 -0.8282 -0.0040
 8158TIP3   OH224395   7.527   6.117   1.033 -0.0912  0.3115  0.3742
 8158TIP3    H124396   7.599   6.058   1.055  0.1047 -0.0203 -1.0942
 8158TIP3    H224397   7.566   6.205   1.037  0.1638  0.1947  0.4637
 8159TIP3   OH224398   4.415   4.003   3.545 -0.0202  0.2289  0.1211
 8159TIP3    H124399   4.430   3.912   3.519 -3.6853 -0.4708  0.2558
 8159TIP3    H224400   4.456   4.011   3.631  0.6289 -1.1537 -0.0481
 8160TIP3   OH224401   3.970   3.622   1.972 -1.4263 -0.7155  0.5143
 8160TIP3    H124402   4.006   3.540   1.937 -0.9635 -0.3278  0.0637
 8160TIP3    H224403   3.961   3.679   1.896  0.6317  0.5242  1.1363
 8161TIP3   OH224404   7.037   4.210   4.538  0.1676 -0.0604 -0.1184
 8161TIP3    H124405   7.085   4.257   4.607 -1.1830 -0.5964  1.1827
 8161TIP3    H224406   7.064   4.119   4.548 -1.2735 -0.4047  0.7691
 8162TIP3   OH224407   5.511   3.430   2.196  0.0338 -0.0941 -0.5300
 8162TIP3    H124408   5.578   3.363   2.210 -2.5945 -3.0250 -1.2124
 8162TIP3    H224409   5.498   3.431   2.102 -0.8059  0.4976 -0.4085
 8163TIP3   OH224410   6.132   6.786   3.071 -0.6909 -0.0899 -0.0827
 8163TIP3    H124411   6.078   6.845   3.019  0.4254 -0.6395 -1.8925
 8163TIP3    H224412   6.109   6.698   3.039 -1.3074 -0.5631  1.6086
 8164TIP3   OH224413   5.909   4.248   4.343  0.2145  0.0155 -0.0927
 8164TIP3    H124414   5.917   4.234   4.438 -0.8310 -2.2246 -0.2784
 8164TIP3    H224415   5.946   4.168   4.305 -0.7722  0.2312 -1.5182
 8165TIP3   OH224416   8.617   3.450   1.808  0.1852 -0.6538  0.0162
 8165TIP3    H124417   8.572   3.533   1.823  2.6455  0.7914 -0.2609
 8165TIP3    H224418   8.661   3.461   1.723  0.0264 -2.4820 -0.3378
 8166TIP3   OH224419   4.491   4.458   4.029  0.3132  0.1645  0.1093
 8166TIP3    H124420   4.475   4.514   4.105  0.5856 -1.4032  1.3517
 8166TIP3    H224421   4.542   4.384   4.063 -0.7712 -1.2919 -1.3032
 8167TIP3   OH224422   7.259   5.133   2.418  0.6415 -0.0117  0.1195
 8167TIP3    H124423   7.214   5.100   2.340  1.3979  1.1852 -0.8201
 8167TIP3    H224424   7.343   5.086   2.419 -0.1366 -1.4548  1.2959
 8168TIP3   OH224425   7.037   4.833   4.226  0.0657 -0.0684 -0.6921
 8168TIP3    H124426   7.055   4.819   4.319 -2.3061  1.7821  0.0990
 8168TIP3    H224427   7.047   4.928   4.214 -0.8021 -0.1388 -2.0505
 8169TIP3   OH224428   6.290   3.661   4.785  0.2168  0.0661 -0.3049
 8169TIP3    H124429   6.354   3.697   4.724  1.4356  0.8109  1.3685
 8169TIP3    H224430   6.343   3.616   4.851 -1.1079 -1.4413 -0.2367
 8170TIP3   OH224431   7.213   6.869   1.508 -0.7865  0.5701  0.9186
 8170TIP3    H124432   7.249   6.831   1.588 -1.1355 -0.2446  0.6866
 8170TIP3    H224433   7.223   6.964   1.520  2.1172  0.3460  0.5270
 8171TIP3   OH224434   4.567   6.315   4.282 -0.0490  0.7835  0.3438
 8171TIP3    H124435   4.612   6.389   4.242 -2.0181  0.9095 -1.7633
 8171TIP3    H224436   4.474   6.334   4.269 -0.6618 -0.7074  2.2740
 8172TIP3   OH224437   6.391   5.273   2.795 -0.2479 -0.1853 -0.1886
 8172TIP3    H124438   6.362   5.269   2.886  0.6267 -1.6626  0.0492
 8172TIP3    H224439   6.464   5.335   2.795  0.5216 -1.0879  0.3424
 8173TIP3   OH224440   6.014   5.043   1.816 -0.3708 -0.4442 -0.2646
 8173TIP3    H124441   6.048   5.112   1.759 -0.6577  1.0116  1.2970
 8173TIP3    H224442   6.091   5.007   1.860 -0.2484 -0.9682 -0.8998
 8174TIP3   OH224443   5.528   3.748   2.016 -0.2713  0.5148  0.0485
 8174TIP3    H124444   5.478   3.735   1.934  1.5403 -1.9005 -0.7323
 8174TIP3    H224445   5.478   3.699   2.082 -0.7226  0.8672 -0.0342
 8175TIP3   OH224446   5.671   3.559   3.541 -0.2085  0.5751  0.1881
 8175TIP3    H124447   5.762   3.571   3.569 -0.0020 -1.4321  0.4276
 8175TIP3    H224448   5.627   3.522   3.616 -1.3311  1.8379  0.1713
 8176TIP3   OH224449   5.451   5.805   3.252  0.2498 -0.9738  0.3862
 8176TIP3    H124450   5.534   5.847   3.276  0.7264 -0.6545 -1.7227
 8176TIP3    H224451   5.421   5.764   3.333  1.7762  0.0659  1.5183
 8177TIP3   OH224452   6.782   2.087   4.090  0.3512  0.6190  0.1932
 8177TIP3    H124453   6.860   2.099   4.035  1.4234 -1.4876  1.2230
 8177TIP3    H224454   6.766   1.993   4.090 -1.4357  0.8927  1.0795
 8178TIP3   OH224455   5.706   6.384   4.539 -0.1941 -0.7834  0.0857
 8178TIP3    H124456   5.763   6.461   4.547 -1.2814  0.2541 -1.7903
 8178TIP3    H224457   5.734   6.343   4.457 -1.8883 -0.4451 -0.6826
 8179TIP3   OH224458   5.698   2.148   0.799  0.1406  0.2114 -0.0957
 8179TIP3    H124459   5.658   2.141   0.885  1.3251  0.3041  0.4786
 8179TIP3    H224460   5.675   2.236   0.769 -1.5223 -0.3526 -0.5287
 8180TIP3   OH224461   4.332   3.130   4.496  0.1837 -0.3059 -0.0420
 8180TIP3    H124462   4.279   3.078   4.557  0.7404 -0.2599  0.4871
 8180TIP3    H224463   4.268   3.178   4.443 -0.3143 -0.9803 -0.0476
 8181TIP3   OH224464   6.552   3.852   2.760 -0.0111 -0.6814  0.0610
 8181TIP3    H124465   6.631   3.901   2.737 -0.4679 -0.1795 -0.4740
 8181TIP3    H224466   6.576   3.803   2.838  1.3509 -1.8138 -1.0302
 8182TIP3   OH224467   5.569   4.146   2.089 -0.1315 -0.4455 -0.3533
 8182TIP3    H124468   5.654   4.111   2.118 -0.2495 -0.5059 -0.0794
 8182TIP3    H224469   5.577   4.153   1.994 -0.0182 -0.9798 -0.3837
 8183TIP3   OH224470   7.533   4.814   4.375  0.1370  0.1094 -0.2013
 8183TIP3    H124471   7.579   4.892   4.405 -0.3851  0.6801 -0.8765
 8183TIP3    H224472   7.583   4.741   4.413 -0.2209  0.7918  1.6392
 8184TIP3   OH224473   3.940   4.318   2.904 -0.6025  1.1060  0.2605
 8184TIP3    H124474   4.030   4.348   2.923 -0.0052  0.9688 -2.1765
 8184TIP3    H224475   3.889   4.399   2.902  0.2329  1.6107 -2.2216
 8185TIP3   OH224476   5.098   1.999   6.018  0.0323  0.2033 -0.2069
 8185TIP3    H124477   5.139   2.082   5.993 -0.7371  0.2501 -1.3327
 8185TIP3    H224478   5.170   1.936   6.014  1.0022  1.0800  2.2769
 8186TIP3   OH224479   6.185   1.611   2.441 -0.5094 -0.4379  0.0712
 8186TIP3    H124480   6.215   1.658   2.363 -2.1465 -1.6349 -1.3039
 8186TIP3    H224481   6.250   1.634   2.508  0.8804  0.6833 -1.5868
 8187TIP3   OH224482   4.923   3.107   3.934  0.4722  0.3900 -0.1012
 8187TIP3    H124483   4.836   3.147   3.940  2.3739  4.8547 -0.7811
 8187TIP3    H224484   4.947   3.115   3.842  1.2001 -1.7935 -0.1201
 8188TIP3   OH224485   4.682   2.178   4.067  0.1593 -0.2427  0.4246
 8188TIP3    H124486   4.737   2.216   3.998  0.2007 -2.3715 -0.7424
 8188TIP3    H224487   4.743   2.157   4.138  0.2781  0.8892  0.6742
 8189TIP3   OH224488   5.812   3.859   5.996 -0.3185  0.4443  0.0303
 8189TIP3    H124489   5.803   3.953   5.984  1.0604  0.3231 -2.2924
 8189TIP3    H224490   5.901   3.848   6.029 -0.5934 -0.0372  0.6282
 8190TIP3   OH224491   3.255   2.723   4.184  0.0878 -0.6209  0.1123
 8190TIP3    H124492   3.344   2.693   4.201  0.1408 -0.5959 -0.1141
 8190TIP3    H224493   3.208   2.709   4.266  0.2598 -0.7864  0.1814
 8191TIP3   OH224494   5.175   4.914   4.486 -0.4467  0.4101  0.4835
 8191TIP3    H124495   5.137   4.828   4.503 -1.6269  0.6864 -0.6865
 8191TIP3    H224496   5.109   4.977   4.515 -0.8462  0.8963 -1.3896
 8192TIP3   OH224497   6.360   4.276   2.363 -0.1625 -0.3147  0.2715
 8192TIP3    H124498   6.340   4.355   2.413 -0.2658  0.2108 -0.5814
 8192TIP3    H224499   6.415   4.223   2.421  2.2978  1.6678 -0.1388
 8193TIP3   OH224500   5.714   4.388   3.698  0.0630 -0.4089  0.5967
 8193TIP3    H124501   5.804   4.370   3.672 -0.8695 -1.6344 -1.8637
 8193TIP3    H224502   5.664   4.311   3.669 -1.9295  0.6368  1.1438
 8194TIP3   OH224503   6.973   4.785   4.702  0.1497 -0.1349  0.6435
 8194TIP3    H124504   7.032   4.833   4.760  0.4202 -0.9215  1.0164
 8194TIP3    H224505   6.895   4.841   4.697  1.1204  1.1763 -0.2909
 8195TIP3   OH224506   5.298   5.120   3.537 -0.2767 -0.5265  0.0153
 8195TIP3    H124507   5.226   5.056   3.544 -1.2365  0.7017  1.5674
 8195TIP3    H224508   5.353   5.102   3.613  0.6246 -0.8863 -0.7044
 8196TIP3   OH224509   6.944   4.104   5.316 -0.3289  0.2904 -0.4379
 8196TIP3    H124510   7.004   4.030   5.326 -0.8041  0.1450  1.3799
 8196TIP3    H224511   6.946   4.148   5.401  0.0985  2.4917 -1.5461
 8197TIP3   OH224512   5.632   3.308   4.626 -0.6455  0.2517 -0.5966
 8197TIP3    H124513   5.723   3.285   4.646 -0.4660  1.0307 -0.5207
 8197TIP3    H224514   5.581   3.246   4.678 -0.1635  0.5678  0.2819
 8198TIP3   OH224515   6.585   4.017   3.958  0.2875 -0.3678 -0.3753
 8198TIP3    H124516   6.592   3.955   3.886 -0.3843 -0.0972 -0.6810
 8198TIP3    H224517   6.605   4.102   3.919 -1.4329 -0.0357 -0.5497
 8199TIP3   OH224518   5.994   3.765   2.337 -0.0674 -0.0379 -0.2000
 8199TIP3    H124519   6.003   3.719   2.421 -0.4463 -0.6276 -0.4793
 8199TIP3    H224520   5.997   3.858   2.360 -1.8861 -0.1750  0.6535
 8200TIP3   OH224521   6.367   4.574   5.369 -0.5359 -0.3010  0.1140
 8200TIP3    H124522   6.386   4.656   5.324 -0.1032 -1.1455 -1.2763
 8200TIP3    H224523   6.294   4.595   5.427  0.2670  1.3264  0.5748
 8201TIP3   OH224524   5.191   5.110   3.951 -0.5350  0.0579  0.2509
 8201TIP3    H124525   5.248   5.108   3.875 -2.2267 -0.2224 -1.0414
 8201TIP3    H224526   5.206   5.025   3.995  0.8208  0.4352  0.5527
 8202TIP3   OH224527   5.342   4.750   3.437  0.2387  0.3399 -0.0310
 8202TIP3    H124528   5.292   4.810   3.492 -0.6893  0.3025 -0.8221
 8202TIP3    H224529   5.432   4.780   3.444  0.0077  0.8168  0.8781
 8203TIP3   OH224530   6.815   4.582   3.212  0.0436 -0.4691  0.1054
 8203TIP3    H124531   6.826   4.580   3.117  0.5357 -1.3988  0.1739
 8203TIP3    H224532   6.824   4.675   3.236  0.0904 -0.2584 -0.7331
 8204TIP3   OH224533   6.147   5.148   4.615  0.1479  0.0261 -0.4255
 8204TIP3    H124534   6.123   5.238   4.596 -1.4779 -0.8014 -2.4713
 8204TIP3    H224535   6.092   5.095   4.557  0.3182 -2.3326  1.4667
 8205TIP3   OH224536   7.667   5.142   2.597 -0.4416 -0.2561  0.1817
 8205TIP3    H124537   7.585   5.092   2.597 -0.4106 -0.3088  0.2866
 8205TIP3    H224538   7.713   5.113   2.519 -0.1455 -0.8596  0.5727
 8206TIP3   OH224539   6.663   7.373   4.403 -0.0088 -0.1438  0.2211
 8206TIP3    H124540   6.743   7.323   4.421  0.4935  1.1640  1.7627
 8206TIP3    H224541   6.592   7.316   4.434  0.5458 -0.0414  1.7591
 8207TIP3   OH224542   7.182   7.101   4.235 -0.3378  0.2958 -0.3301
 8207TIP3    H124543   7.273   7.074   4.249 -0.2180  1.1402  0.5817
 8207TIP3    H224544   7.188   7.187   4.195 -0.7262  1.1223  1.3433
 8208TIP3   OH224545   6.383   5.866   3.342 -0.1434  0.3918 -0.0554
 8208TIP3    H124546   6.429   5.920   3.278  0.9081  0.6143  0.8781
 8208TIP3    H224547   6.322   5.813   3.290 -0.8646  2.1351 -1.0204
 8209TIP3   OH224548   5.001   3.597   2.265  0.5477  0.2153  0.0515
 8209TIP3    H124549   5.068   3.621   2.202  1.2759  0.2104  0.8163
 8209TIP3    H224550   4.919   3.604   2.216  1.1368 -0.2539 -1.0173
 8210TIP3   OH224551   6.314   5.973   4.518 -0.4257  0.5002  0.0050
 8210TIP3    H124552   6.409   5.971   4.514 -0.4569  0.5408 -1.0056
 8210TIP3    H224553   6.288   6.032   4.447 -1.2236 -0.2212 -0.3121
 8211TIP3   OH224554   8.700   7.624   3.891  0.0302  0.4498  0.5454
 8211TIP3    H124555   8.734   7.551   3.839 -0.1905  1.1562 -0.6007
 8211TIP3    H224556   8.762   7.632   3.964 -0.1378 -1.1099  0.8971
 8212TIP3   OH224557   5.830   4.079   1.357 -0.8655 -0.2552  0.1056
 8212TIP3    H124558   5.828   4.099   1.450 -2.7797  1.9327 -0.3328
 8212TIP3    H224559   5.749   4.030   1.341 -1.4711  0.9646 -0.6907
 8213TIP3   OH224560   7.113   6.939   3.575  0.1274 -0.0116  0.0988
 8213TIP3    H124561   7.084   6.867   3.631  0.7481 -0.6461 -0.3766
 8213TIP3    H224562   7.047   7.007   3.587 -0.4942 -0.6782  0.5278
 8214TIP3   OH224563   7.801   4.693   1.929 -0.5453  0.7695  0.1531
 8214TIP3    H124564   7.729   4.652   1.978 -0.0643 -1.1031 -0.6766
 8214TIP3    H224565   7.875   4.691   1.989 -0.1431 -0.8983 -0.3711
 8215TIP3   OH224566   6.463   3.797   4.556  0.0010 -0.2980 -0.0943
 8215TIP3    H124567   6.393   3.848   4.514  0.7974  0.0748 -1.0027
 8215TIP3    H224568   6.526   3.864   4.585  0.2192 -0.6605  0.2606
 8216TIP3   OH224569   8.551   5.378   2.879 -0.6482  0.0881  0.3478
 8216TIP3    H124570   8.641   5.407   2.889 -0.3707 -1.2620  1.9033
 8216TIP3    H224571   8.501   5.435   2.938 -0.7352  0.4635 -0.0881
 8217TIP3   OH224572   3.699   5.342   4.469  0.1954 -0.0425  0.3445
 8217TIP3    H124573   3.687   5.362   4.376  1.6512 -0.3504  0.0752
 8217TIP3    H224574   3.739   5.420   4.506  0.8648 -0.4146  0.4229
 8218TIP3   OH224575   7.041   3.519   3.352  0.4318  0.4928  0.1857
 8218TIP3    H124576   6.965   3.484   3.399  0.5614  0.2699  0.2307
 8218TIP3    H224577   7.108   3.451   3.362  0.4825  0.4725 -0.2626
 8219TIP3   OH224578   7.205   3.689   3.210 -0.1076 -0.0332  0.4911
 8219TIP3    H124579   7.206   3.765   3.269  0.1993 -1.0344  1.8185
 8219TIP3    H224580   7.187   3.615   3.268 -1.0678 -0.8929 -0.8906
 8220TIP3   OH224581   6.699   4.936   1.899  0.1772 -0.3452 -0.3846
 8220TIP3    H124582   6.643   4.906   1.971  0.2135 -1.3275 -0.7513
 8220TIP3    H224583   6.709   4.859   1.844  0.4620  0.3014 -1.2448
 8221TIP3   OH224584   8.078   3.923   4.536  0.3634  0.5711  0.1087
 8221TIP3    H124585   8.165   3.936   4.499 -0.1684  0.1985 -1.3139
 8221TIP3    H224586   8.062   3.829   4.528  0.4646  0.3895  1.8420
 8222TIP3   OH224587   6.164   2.956   4.396 -0.1680  0.1642  0.1264
 8222TIP3    H124588   6.145   2.891   4.463  0.9961 -0.6500 -0.3331
 8222TIP3    H224589   6.193   2.906   4.320  0.8304  1.2099 -0.1984
 8223TIP3   OH224590   6.300   4.603   4.873 -0.0983  0.3038 -0.2496
 8223TIP3    H124591   6.223   4.563   4.834 -1.1673  0.9923  1.1075
 8223TIP3    H224592   6.329   4.540   4.939 -0.0330  0.4483 -0.1404
 8224TIP3   OH224593   4.883   4.814   3.650 -0.3710 -0.3116  0.0710
 8224TIP3    H124594   4.891   4.756   3.575  0.0557  0.6834 -0.6634
 8224TIP3    H224595   4.798   4.856   3.640 -0.1341  0.1315 -0.0773
 8225TIP3   OH224596   6.232   5.425   2.087 -0.9389  0.6274 -0.0768
 8225TIP3    H124597   6.150   5.392   2.124 -1.0617  0.5087 -0.4477
 8225TIP3    H224598   6.228   5.519   2.103 -0.0782  0.3327  1.9523
 8226TIP3   OH224599   4.638   5.714   3.248  0.2361 -1.0098 -0.6393
 8226TIP3    H124600   4.582   5.663   3.308  1.6909 -1.9286 -0.0319
 8226TIP3    H224601   4.719   5.729   3.297  0.3227  0.7982 -1.3036
 8227TIP3   OH224602   7.913   5.466   4.815 -0.0027 -0.4237  0.6783
 8227TIP3    H124603   7.911   5.562   4.817 -0.6139 -0.3759 -1.2575
 8227TIP3    H224604   7.918   5.440   4.907  1.1178  1.4792  1.1836
 8228TIP3   OH224605   5.868   4.659   5.282 -0.1925 -0.0282  0.5251
 8228TIP3    H124606   5.774   4.678   5.288 -0.3555 -1.1380  1.6002
 8228TIP3    H224607   5.910   4.745   5.284 -1.0601  0.3750  2.7544
 8229TIP3   OH224608   5.264   4.743   3.846 -0.6221 -0.2076 -0.3808
 8229TIP3    H124609   5.343   4.700   3.813 -0.6148  0.0963 -0.7530
 8229TIP3    H224610   5.269   4.732   3.941 -0.4142 -0.6754 -0.4446
 8230TIP3   OH224611   5.518   2.912   2.768  0.3169 -0.0392  0.6801
 8230TIP3    H124612   5.507   3.005   2.750 -0.0310 -0.0322  0.9266
 8230TIP3    H224613   5.524   2.871   2.682  0.0632  0.1627  0.5667
 8231TIP3   OH224614   7.549   5.820   3.198 -0.3616 -0.4363  0.6465
 8231TIP3    H124615   7.534   5.748   3.136  0.1514  0.1692 -0.1834
 8231TIP3    H224616   7.515   5.898   3.153 -0.5171 -0.0854  1.3650
 8232TIP3   OH224617   5.846   1.289   5.334 -0.0850  0.1894 -0.3829
 8232TIP3    H124618   5.839   1.344   5.411 -0.6826  0.6338 -0.7509
 8232TIP3    H224619   5.862   1.201   5.369 -1.0399  0.2690  0.2652
 8233TIP3   OH224620   5.199   5.344   4.484 -0.6634  0.9056 -0.0212
 8233TIP3    H124621   5.157   5.426   4.458 -1.1232  0.0187 -2.1984
 8233TIP3    H224622   5.133   5.298   4.537 -2.4685 -0.3895 -3.2500
 8234TIP3   OH224623   5.822   6.098   2.505 -0.2016  0.6059 -0.4862
 8234TIP3    H124624   5.727   6.097   2.514 -0.1771  0.8145 -0.1965
 8234TIP3    H224625   5.841   6.177   2.454 -0.3211 -0.4368 -2.1930
 8235TIP3   OH224626   4.622   6.020   5.304  1.0448 -0.1329 -0.5060
 8235TIP3    H124627   4.641   5.986   5.216  0.3231  0.0704 -0.7431
 8235TIP3    H224628   4.551   5.965   5.336  1.0324  0.0556 -0.2091
 8236TIP3   OH224629   5.234   3.870   2.118 -0.4691  0.4769  0.9028
 8236TIP3    H124630   5.149   3.862   2.075  0.4164 -0.8175 -0.6466
 8236TIP3    H224631   5.241   3.792   2.172  0.1068  0.1193  0.3254
 8237TIP3   OH224632   4.310   3.264   3.840  0.2203  0.2871 -0.0401
 8237TIP3    H124633   4.275   3.202   3.904  2.1347 -1.6869 -0.8528
 8237TIP3    H224634   4.273   3.235   3.757 -0.1406  1.2192 -0.2064
 8238TIP3   OH224635   7.090   5.976   3.236 -0.3321 -0.1873  0.1741
 8238TIP3    H124636   7.135   5.891   3.240 -1.3155 -0.6772  1.2646
 8238TIP3    H224637   7.011   5.958   3.185 -1.2090 -0.2421  1.5453
 8239TIP3   OH224638   3.388   3.443   5.256  0.2201  0.0768 -0.2432
 8239TIP3    H124639   3.400   3.423   5.163 -1.2606  0.4617 -0.5300
 8239TIP3    H224640   3.314   3.388   5.282  1.8738 -1.4952  1.2060
 8240TIP3   OH224641   6.640   3.996   2.196  0.1026 -0.0700  0.3574
 8240TIP3    H124642   6.612   3.905   2.189 -0.8494 -0.0194  2.9768
 8240TIP3    H224643   6.729   3.991   2.230 -0.1593 -0.0314  1.0638
 8241TIP3   OH224644   7.229   3.931   3.747 -0.5023  0.1053 -0.3683
 8241TIP3    H124645   7.260   3.944   3.836 -1.6317  2.5975 -0.2898
 8241TIP3    H224646   7.281   3.858   3.713  1.0561  0.1908  1.7780
 8242TIP3   OH224647   6.209   5.540   2.519  0.2270 -0.1478 -0.4541
 8242TIP3    H124648   6.280   5.579   2.469  0.3791 -0.5887 -0.5862
 8242TIP3    H224649   6.129   5.568   2.475  0.2874  0.8587  0.0558
 8243TIP3   OH224650   6.758   5.012   4.693 -0.0251  0.2051 -0.0993
 8243TIP3    H124651   6.718   5.073   4.631 -0.4856  0.4661  0.4463
 8243TIP3    H224652   6.781   5.066   4.768  2.5574  0.2925 -0.9299
 8244TIP3   OH224653   4.668   3.491   4.148 -0.7055 -0.3662 -0.2068
 8244TIP3    H124654   4.743   3.472   4.091  0.5268 -3.2993  2.2916
 8244TIP3    H224655   4.676   3.585   4.167  0.7131 -0.0427 -2.1623
 8245TIP3   OH224656   5.348   3.399   3.533 -0.0881 -0.1511 -0.1539
 8245TIP3    H124657   5.313   3.318   3.497 -0.6256  0.5015 -1.1435
 8245TIP3    H224658   5.344   3.461   3.460 -0.6421  1.0539  0.8809
 8246TIP3   OH224659   5.218   3.067   5.335 -0.3884 -0.1689  0.0673
 8246TIP3    H124660   5.291   3.127   5.318 -1.1725  0.5896 -0.7453
 8246TIP3    H224661   5.259   2.986   5.364  0.7963  0.1292 -0.7346
 8247TIP3   OH224662   5.583   3.871   0.899  0.1963  0.2338 -0.2104
 8247TIP3    H124663   5.627   3.936   0.955  0.8463  0.7448 -1.3109
 8247TIP3    H224664   5.630   3.789   0.917 -0.7685  0.0083  1.3475
 8248TIP3   OH224665   7.312   5.160   3.988  0.2721 -0.1671 -0.1600
 8248TIP3    H124666   7.384   5.212   4.022 -0.1838  1.0717 -1.0513
 8248TIP3    H224667   7.350   5.110   3.916  0.7131 -1.0834  0.7042
 8249TIP3   OH224668   5.077   4.767   5.122 -0.2646 -0.2720  0.0201
 8249TIP3    H124669   5.030   4.686   5.137 -1.5723  0.3595 -0.6021
 8249TIP3    H224670   5.027   4.833   5.171 -0.2675  0.4706 -0.9739
 8250TIP3   OH224671   6.666   3.698   5.503  0.3814  0.3997 -0.2634
 8250TIP3    H124672   6.601   3.713   5.434 -1.6128 -1.1542  1.2272
 8250TIP3    H224673   6.648   3.766   5.568  0.0600 -0.1829  0.2643
 8251TIP3   OH224674   7.376   4.571   2.921  0.2134  0.1890 -0.3312
 8251TIP3    H124675   7.334   4.544   3.003 -1.1711  1.8351 -0.4715
 8251TIP3    H224676   7.433   4.644   2.946  0.2322  0.3187 -0.7540
 8252TIP3   OH224677   7.300   4.224   2.364  0.0148  0.3360 -0.5200
 8252TIP3    H124678   7.376   4.167   2.371 -1.7270 -1.8897  0.9905
 8252TIP3    H224679   7.230   4.167   2.332 -0.8649  2.5238 -2.6650
 8253TIP3   OH224680   5.850   4.477   4.568 -0.6004 -0.9652 -0.7679
 8253TIP3    H124681   5.843   4.513   4.480  1.0096 -0.0707 -0.5456
 8253TIP3    H224682   5.814   4.544   4.625  0.1019 -0.7401 -0.5809
 8254TIP3   OH224683   6.373   1.418   5.252 -0.2054 -0.2737 -0.1197
 8254TIP3    H124684   6.383   1.347   5.315 -0.0775  0.3067  0.5165
 8254TIP3    H224685   6.361   1.497   5.305  1.1999  0.4246 -0.7887
 8255TIP3   OH224686   5.010   2.953   3.593 -0.5153  0.1597  0.2795
 8255TIP3    H124687   5.051   2.950   3.507 -2.3867 -0.1328 -0.6237
 8255TIP3    H224688   4.990   2.862   3.614 -0.1663  0.2378  0.9891
 8256TIP3   OH224689   7.656   4.560   5.646  0.0390 -0.0728  0.2851
 8256TIP3    H124690   7.729   4.621   5.642 -0.1258  0.2652  1.9196
 8256TIP3    H224691   7.696   4.474   5.641  0.3224  0.1345 -1.4033
 8257TIP3   OH224692   8.106   4.727   5.939  0.3888  0.2711 -0.1700
 8257TIP3    H124693   8.065   4.702   5.856  2.2677  0.4544 -1.1771
 8257TIP3    H224694   8.094   4.822   5.943  1.2290  0.4118 -0.7697
 8258TIP3   OH224695   5.741   2.546   4.703  0.1685 -0.1429 -0.2299
 8258TIP3    H124696   5.678   2.529   4.633  0.3548 -0.1901 -0.3859
 8258TIP3    H224697   5.823   2.507   4.672  0.5390  0.8180 -0.4853
 8259TIP3   OH224698   6.302   2.880   5.022 -0.5182 -0.5926  0.1330
 8259TIP3    H124699   6.317   2.955   5.080 -0.0293 -0.3807 -0.2630
 8259TIP3    H224700   6.287   2.807   5.082 -1.4898 -0.0895  0.5231
 8260TIP3   OH224701   5.200   3.030   4.489 -0.0034  0.1318  0.4608
 8260TIP3    H124702   5.273   2.970   4.474  0.4081  0.5734  0.6668
 8260TIP3    H224703   5.199   3.085   4.411  0.1808  0.4252  0.6629
 8261TIP3   OH224704   3.558   3.099   2.916  0.0659  0.0663  0.1572
 8261TIP3    H124705   3.510   3.181   2.928  0.8233  0.4736  0.4230
 8261TIP3    H224706   3.489   3.032   2.908 -0.5673  0.8152 -0.7658
 8262TIP3   OH224707   2.914   6.537   4.378 -0.1081 -0.5995 -0.5682
 8262TIP3    H124708   2.866   6.568   4.455  0.0194  0.3031 -0.8415
 8262TIP3    H224709   2.972   6.469   4.412 -1.7339 -1.8585 -0.2705
 8263TIP3   OH224710   4.824   5.797   3.045 -0.2831  0.0924  0.1520
 8263TIP3    H124711   4.868   5.727   3.094  0.6776 -0.2679 -1.1995
 8263TIP3    H224712   4.775   5.846   3.111  2.0393  0.4129  1.6638
 8264TIP3   OH224713   7.859   6.331   3.491 -0.9226  0.3523 -0.0713
 8264TIP3    H124714   7.910   6.273   3.547 -1.4774  0.7079  0.7970
 8264TIP3    H224715   7.796   6.273   3.448 -2.2876  0.4631  1.7132
 8265TIP3   OH224716   8.335   4.711   2.989 -0.6184  0.8433  0.0153
 8265TIP3    H124717   8.274   4.784   2.979 -0.6998  0.8263  0.3690
 8265TIP3    H224718   8.405   4.728   2.926 -0.3090  1.5626  0.5555
 8266TIP3   OH224719   6.307   5.911   2.730 -0.1420  0.2427 -0.2596
 8266TIP3    H124720   6.314   5.909   2.635  0.1725  0.1546 -0.2354
 8266TIP3    H224721   6.255   5.989   2.749 -0.9119 -0.2070 -0.5417
 8267TIP3   OH224722   7.774   3.460   3.052 -0.3281  0.1797 -0.4592
 8267TIP3    H124723   7.787   3.553   3.032  0.1375  0.1770 -0.1859
 8267TIP3    H224724   7.832   3.414   2.991 -0.6333  0.0662 -0.6612
 8268TIP3   OH224725   6.962   5.815   3.697 -0.3556 -0.3778 -0.2803
 8268TIP3    H124726   7.025   5.851   3.634  1.1978 -0.3357  1.2794
 8268TIP3    H224727   7.003   5.736   3.730 -1.4536 -0.7461  0.2424
 8269TIP3   OH224728   5.970   5.321   1.924  0.8085 -0.0780  0.5689
 8269TIP3    H124729   5.877   5.304   1.905  0.7148  1.2817 -0.2478
 8269TIP3    H224730   5.989   5.266   2.000 -0.3024 -1.4135 -0.0973
 8270TIP3   OH224731   7.694   5.144   3.934 -0.2751 -0.7189  0.5875
 8270TIP3    H124732   7.714   5.174   4.023 -1.5501  0.2039  0.5706
 8270TIP3    H224733   7.768   5.176   3.882 -1.4815  2.2531  0.6115
 8271TIP3   OH224734   4.848   5.488   2.804  0.6437  0.1593  0.3328
 8271TIP3    H124735   4.768   5.528   2.838  0.8675 -0.6478  1.8714
 8271TIP3    H224736   4.841   5.497   2.709 -1.6402 -0.6160  0.4015
 8272TIP3   OH224737   7.237   6.628   1.646 -0.6241 -0.1929  0.8911
 8272TIP3    H124738   7.275   6.582   1.572  0.0144 -0.4381  1.3662
 8272TIP3    H224739   7.283   6.593   1.723  0.9829  2.3352  1.1426
 8273TIP3   OH224740   6.484   4.959   3.905  0.0017  0.1067 -0.6652
 8273TIP3    H124741   6.394   4.964   3.873  0.5461 -0.1422 -2.2802
 8273TIP3    H224742   6.511   5.050   3.919 -0.6419  0.1621  0.2735
 8274TIP3   OH224743   7.369   5.023   1.927 -0.1306  0.3198 -0.0232
 8274TIP3    H124744   7.436   4.961   1.958 -0.8017 -0.1485  0.5237
 8274TIP3    H224745   7.396   5.045   1.838 -0.5265 -1.7188 -0.6811
 8275TIP3   OH224746   7.948   4.726   4.833  0.3596  0.4657  0.1150
 8275TIP3    H124747   7.920   4.651   4.780  1.1281  0.3392 -0.1132
 8275TIP3    H224748   7.907   4.801   4.792  0.8958  0.3587 -0.6131
 8276TIP3   OH224749   7.725   3.722   2.736  0.1414 -1.0408  0.1677
 8276TIP3    H124750   7.634   3.723   2.708 -0.4400  0.9670  1.9818
 8276TIP3    H224751   7.773   3.766   2.666 -0.7522  0.6629  0.6115
 8277TIP3   OH224752   6.224   5.051   2.242  0.0563 -0.0186  0.0598
 8277TIP3    H124753   6.208   4.959   2.264 -2.4984  0.4086  0.1372
 8277TIP3    H224754   6.281   5.047   2.165  0.8387 -1.6501  0.6917
 8278TIP3   OH224755   6.384   4.738   5.821  0.5625  0.9535  0.0040
 8278TIP3    H124756   6.391   4.751   5.726  0.5472  2.6506  0.2153
 8278TIP3    H224757   6.473   4.723   5.850  0.3237 -1.7788 -0.5558
 8279TIP3   OH224758   6.128   5.533   3.710  0.0115  0.1697  0.1180
 8279TIP3    H124759   6.135   5.441   3.683  0.5114 -0.1872  1.4491
 8279TIP3    H224760   6.117   5.581   3.628 -0.1265 -1.0647 -0.6004
 8280TIP3   OH224761   6.723   2.682   3.669  0.0138  0.2461  0.2066
 8280TIP3    H124762   6.687   2.647   3.751  0.7297  1.6552  1.1408
 8280TIP3    H224763   6.647   2.713   3.620 -0.2570  1.2208  1.2216
 8281TIP3   OH224764   5.838   4.557   2.264  0.8932  1.0082 -0.4061
 8281TIP3    H124765   5.750   4.539   2.230  0.4113  0.4339  1.0917
 8281TIP3    H224766   5.841   4.652   2.274 -0.1770  0.8936  1.1382
 8282TIP3   OH224767   7.809   1.883   3.382  0.2297  0.3364 -0.9262
 8282TIP3    H124768   7.715   1.868   3.375  0.2256  0.5346 -1.3265
 8282TIP3    H224769   7.827   1.952   3.317  0.1726  2.3263  1.1161
 8283TIP3   OH224770   5.416   2.587   5.271 -0.0317 -0.6501 -0.1487
 8283TIP3    H124771   5.412   2.524   5.199  1.2698 -0.8747 -0.0349
 8283TIP3    H224772   5.331   2.630   5.269 -0.1133 -0.8376 -1.6598
 8284TIP3   OH224773   6.031   3.806   4.543 -0.1329  0.0460 -0.1663
 8284TIP3    H124774   5.971   3.790   4.615  2.0881  0.5506  1.8410
 8284TIP3    H224775   6.110   3.842   4.584  0.9313  1.0025 -2.8970
 8285TIP3   OH224776   5.613   3.728   4.487  0.7466 -0.2951  0.3023
 8285TIP3    H124777   5.602   3.720   4.582  1.2079  0.1099  0.3874
 8285TIP3    H224778   5.597   3.821   4.468 -1.7161 -0.7992 -0.3232
 8286TIP3   OH224779   5.754   4.210   1.805 -0.5286  0.2015  0.0767
 8286TIP3    H124780   5.709   4.157   1.739 -0.8321 -1.2417  1.4120
 8286TIP3    H224781   5.689   4.275   1.833 -0.6488  0.3178 -0.4753
 8287TIP3   OH224782   6.587   0.394   6.170  0.3911  0.1618 -0.3585
 8287TIP3    H124783   6.562   0.378   6.261  0.4759 -0.2734 -0.4114
 8287TIP3    H224784   6.602   0.307   6.133  1.8347  0.4124 -0.3769
 8288TIP3   OH224785   7.623   4.816   0.020  0.1501 -0.1469  0.1745
 8288TIP3    H124786   7.704   4.825   0.070  0.7884  0.2057 -0.9082
 8288TIP3    H224787   7.622   4.724  -0.009 -0.0248 -0.2471  0.4921
 8289TIP3   OH224788   7.422   3.414   4.558  0.0226 -0.3147  0.0018
 8289TIP3    H124789   7.454   3.350   4.621  0.1184 -1.9733 -1.6894
 8289TIP3    H224790   7.496   3.474   4.546  0.2005 -0.3286  1.0366
 8290TIP3   OH224791   4.892   5.802   6.535 -0.0272 -0.0645 -0.2405
 8290TIP3    H124792   4.819   5.784   6.594 -0.0848 -1.1863 -0.6476
 8290TIP3    H224793   4.970   5.792   6.590 -0.1200 -0.1743 -0.1319
 8291TIP3   OH224794   3.812   5.866   4.384  0.0347 -0.2850  0.1212
 8291TIP3    H124795   3.851   5.809   4.451  0.7579 -1.4526 -1.2684
 8291TIP3    H224796   3.887   5.906   4.340 -0.3530 -1.1976 -1.4132
 8292TIP3   OH224797   6.705   5.299   2.702 -0.3909 -0.5523 -0.1206
 8292TIP3    H124798   6.706   5.204   2.717  0.8816 -0.6565 -0.7033
 8292TIP3    H224799   6.782   5.331   2.750  0.6293 -0.1790 -1.9317
 8293TIP3   OH224800   7.653   4.263   1.683 -0.1467  0.0378 -0.2331
 8293TIP3    H124801   7.582   4.203   1.661  0.5189  0.1412 -2.8906
 8293TIP3    H224802   7.625   4.348   1.649  1.5558 -0.0877 -2.0491
 8294TIP3   OH224803   8.265   4.769   1.968 -0.8093  0.3066  0.1135
 8294TIP3    H124804   8.276   4.844   1.910  1.2727 -0.6414 -0.7819
 8294TIP3    H224805   8.296   4.799   2.053 -1.0673  0.8027  0.0320
 8295TIP3   OH224806   7.160   5.108   4.201  0.9970  0.1961 -0.0466
 8295TIP3    H124807   7.227   5.138   4.262  2.1790 -0.7760 -0.8524
 8295TIP3    H224808   7.204   5.105   4.116 -0.4518  0.9003 -0.8492
 8296TIP3   OH224809   4.474   5.411   4.251  0.2523  0.2650  0.3753
 8296TIP3    H124810   4.511   5.499   4.248 -0.3616  0.5131  0.0651
 8296TIP3    H224811   4.531   5.359   4.194  0.7206  0.4154  0.6996
 8297TIP3   OH224812   6.555   6.135   2.615  0.1424  0.1904 -0.1944
 8297TIP3    H124813   6.553   6.205   2.680  1.2762  0.2574 -0.2204
 8297TIP3    H224814   6.483   6.156   2.555 -1.7498 -0.5614  1.7262
 8298TIP3   OH224815   6.105   6.695   4.336 -0.5459 -0.5538  0.0475
 8298TIP3    H124816   6.197   6.670   4.344 -0.4854 -0.1587  0.6343
 8298TIP3    H224817   6.056   6.621   4.372 -0.3421  0.4496  2.4382
 8299TIP3   OH224818   5.629   7.399   6.002 -0.1836 -0.4290 -0.1415
 8299TIP3    H124819   5.543   7.382   5.963 -0.1574 -1.9164  0.3994
 8299TIP3    H224820   5.689   7.346   5.950  0.3274  0.2052 -0.1928
 8300TIP3   OH224821   4.325   4.404   5.010 -0.5628 -0.2334 -0.6774
 8300TIP3    H124822   4.266   4.473   5.039  1.2587  0.9638  0.2992
 8300TIP3    H224823   4.271   4.326   5.005 -2.7254  1.3216 -2.0965
 8301TIP3   OH224824   5.807   4.953   2.150 -0.1946  0.1298  0.0156
 8301TIP3    H124825   5.882   5.013   2.158 -0.1245  0.5482 -3.0673
 8301TIP3    H224826   5.812   4.899   2.228  2.1550  1.4818  0.8770
 8302TIP3   OH224827   7.563   3.893   4.501  0.2276  0.3955  0.8140
 8302TIP3    H124828   7.591   3.805   4.527 -0.3551  0.0880  0.4053
 8302TIP3    H224829   7.530   3.882   4.412  0.7637  1.1547  0.5201
 8303TIP3   OH224830   3.235   3.501   7.126 -0.3172  0.5037  0.8276
 8303TIP3    H124831   3.145   3.518   7.097 -0.2546 -0.4609  0.0365
 8303TIP3    H224832   3.288   3.567   7.081 -0.3382 -0.4248 -0.6217
 8304TIP3   OH224833   4.079   3.434   4.093  0.0510  0.0438  0.0890
 8304TIP3    H124834   4.038   3.418   4.008  0.0405  0.9719 -0.0888
 8304TIP3    H224835   4.007   3.461   4.150  0.3546  1.3405 -0.1322
 8305TIP3   OH224836   6.597   3.323   3.434  0.4198 -0.2793 -0.1309
 8305TIP3    H124837   6.523   3.369   3.474 -0.6041 -0.4252 -1.7765
 8305TIP3    H224838   6.599   3.357   3.344  1.5181 -1.2759 -0.4813
 8306TIP3   OH224839   7.446   2.765   3.668  0.0879 -0.2106 -0.7720
 8306TIP3    H124840   7.382   2.702   3.702 -1.4191 -0.0142 -3.1485
 8306TIP3    H224841   7.472   2.729   3.584  2.6253  0.0784 -0.1437
 8307TIP3   OH224842   5.305   6.568   2.176 -0.2566 -0.0443 -0.2926
 8307TIP3    H124843   5.350   6.582   2.093  0.0004  0.0411 -0.1376
 8307TIP3    H224844   5.215   6.597   2.160 -0.2837 -0.3243 -0.6339
 8308TIP3   OH224845   3.857   5.485   2.381  0.0456  0.0948  0.0633
 8308TIP3    H124846   3.937   5.534   2.401  0.5789 -0.7611  0.0521
 8308TIP3    H224847   3.886   5.394   2.377 -0.8332 -0.1562 -0.4967
 8309TIP3   OH224848   6.002   1.657   4.639 -0.1389 -0.4558 -0.2618
 8309TIP3    H124849   5.944   1.729   4.616  1.1322  0.9278  0.7278
 8309TIP3    H224850   6.057   1.644   4.562  1.0138  1.0624  0.2728
 8310TIP3   OH224851   4.613   1.392   4.509 -0.3873  0.2861 -0.1706
 8310TIP3    H124852   4.548   1.461   4.497 -0.2494  0.3738 -0.4211
 8310TIP3    H224853   4.682   1.412   4.445  0.7968  1.2800  1.3757
 8311TIP3   OH224854   5.684   5.153   3.572 -0.3473 -0.0176  0.4952
 8311TIP3    H124855   5.616   5.221   3.563 -1.2580 -0.9271  0.4468
 8311TIP3    H224856   5.679   5.128   3.664 -0.6604 -0.6829  0.2999
 8312TIP3   OH224857   8.679   5.238   1.733  0.7873  0.3845  0.0399
 8312TIP3    H124858   8.621   5.176   1.689  0.9420 -0.3762  0.8989
 8312TIP3    H224859   8.725   5.186   1.799  0.7937  1.4446  0.8908
 8313TIP3   OH224860   3.986   3.927   4.509 -0.1519 -0.3474  0.0158
 8313TIP3    H124861   3.925   3.998   4.529 -0.4507 -0.5651 -0.1186
 8313TIP3    H224862   3.932   3.849   4.507  0.4696 -0.8350  1.9394
 8314TIP3   OH224863   5.311   3.960   6.241 -0.0853  0.3391 -0.0514
 8314TIP3    H124864   5.353   3.949   6.155 -0.1127  0.6674 -0.1085
 8314TIP3    H224865   5.365   3.907   6.300  0.8133  1.2969 -0.0034
 8315TIP3   OH224866   6.927   4.909   0.366 -0.0852  0.3832  0.4068
 8315TIP3    H124867   6.837   4.939   0.377 -0.2711  0.4572 -1.2395
 8315TIP3    H224868   6.980   4.989   0.361  0.1039  0.3366  1.6018
 8316TIP3   OH224869   3.806   8.311   4.354  0.2501  0.5221  0.1367
 8316TIP3    H124870   3.832   8.400   4.330 -1.2998  0.3683 -2.2724
 8316TIP3    H224871   3.853   8.255   4.292 -1.3755 -0.0861 -0.5820
 8317TIP3   OH224872   8.313   5.838   4.111 -0.1137  0.5121 -0.3021
 8317TIP3    H124873   8.257   5.911   4.088 -0.2687  0.1630 -1.0738
 8317TIP3    H224874   8.288   5.815   4.200 -0.9666  0.5674 -0.5224
 8318TIP3   OH224875   7.619   3.022   2.555  0.4054  0.7274  0.3178
 8318TIP3    H124876   7.642   3.093   2.615 -1.4749  1.7120 -0.0867
 8318TIP3    H224877   7.555   2.970   2.603  0.2344  0.4963 -0.1544
 8319TIP3   OH224878   7.535   4.642   2.081  0.1962 -0.4609 -0.5307
 8319TIP3    H124879   7.578   4.627   2.165  0.6941 -0.7057 -0.8264
 8319TIP3    H224880   7.442   4.649   2.102  0.1271 -2.3503 -0.2010
 8320TIP3   OH224881   1.656   4.281   4.142 -0.4989 -0.3276 -0.2325
 8320TIP3    H124882   1.665   4.234   4.224  1.1572 -0.0389 -0.2292
 8320TIP3    H224883   1.622   4.367   4.167  2.4891  0.6895  0.4623
 8321TIP3   OH224884   5.826   4.799   2.377  0.3463  0.1285  0.5948
 8321TIP3    H124885   5.778   4.743   2.439 -0.8914  0.4046 -0.0918
 8321TIP3    H224886   5.891   4.843   2.431 -2.2054  2.0971  2.2006
 8322TIP3   OH224887   5.658   0.182   7.141  0.0484  0.3121 -0.0746
 8322TIP3    H124888   5.564   0.168   7.156  0.2929 -0.4289  0.8125
 8322TIP3    H224889   5.685   0.109   7.086  0.3181 -0.0386  0.5222
 8323TIP3   OH224890   3.534   5.940   4.681  0.0959 -0.5409  0.4368
 8323TIP3    H124891   3.622   5.959   4.714 -1.3317  2.6391  2.5876
 8323TIP3    H224892   3.521   6.002   4.610 -0.8043 -0.3222  0.7936
 8324TIP3   OH224893   8.555   6.536   1.934 -0.3115  0.1563 -0.6141
 8324TIP3    H124894   8.469   6.519   1.896  0.0652 -3.2726 -0.0771
 8324TIP3    H224895   8.536   6.586   2.014 -1.8205 -0.7457 -0.3832
 8325TIP3   OH224896   8.472   4.565   4.710  0.1342 -0.5930 -0.1350
 8325TIP3    H124897   8.418   4.619   4.652  0.2057 -1.0151 -0.6042
 8325TIP3    H224898   8.553   4.614   4.720 -0.8101  0.6664  1.6244
 8326TIP3   OH224899   1.038   5.078   5.174 -0.2858 -0.3183  0.5396
 8326TIP3    H124900   1.063   5.132   5.250 -1.9583  1.2650 -0.0096
 8326TIP3    H224901   1.062   4.989   5.200  2.8473  0.6797  1.3382
 8327TIP3   OH224902   0.359   4.989   1.954  0.3008 -0.5002 -0.5615
 8327TIP3    H124903   0.319   4.945   1.878 -0.2800  1.0650 -1.1742
 8327TIP3    H224904   0.284   5.022   2.004  0.7253 -0.6055  0.1398
 8328TIP3   OH224905   8.750   6.151   3.373  0.2744  0.7269  0.4765
 8328TIP3    H124906   8.693   6.225   3.393  0.7629  0.5872  2.4894
 8328TIP3    H224907   8.691   6.077   3.361 -0.1819  1.3218 -1.0659
 8329TIP3   OH224908   7.709   5.528   2.924  0.1345 -0.2317  0.2091
 8329TIP3    H124909   7.733   5.500   2.836 -2.8503  1.4599 -1.1978
 8329TIP3    H224910   7.783   5.582   2.953  2.1682 -2.6717 -0.2831
 8330TIP3   OH224911   6.323   4.932   0.344  0.2474 -0.3394  0.3423
 8330TIP3    H124912   6.272   5.005   0.309  0.5141 -1.0711 -1.6351
 8330TIP3    H224913   6.386   4.973   0.403 -1.3768  0.7422  1.3898
 8331TIP3   OH224914   6.596   5.989   0.957 -0.2564 -0.5601 -0.8583
 8331TIP3    H124915   6.645   6.062   0.997  0.5797 -0.9581 -1.1325
 8331TIP3    H224916   6.555   5.944   1.031 -0.4548 -0.0421 -0.6511
 8332TIP3   OH224917   7.738   6.284   2.241  0.0386  0.5904 -0.3733
 8332TIP3    H124918   7.778   6.350   2.184 -0.6019  1.0277 -0.3217
 8332TIP3    H224919   7.803   6.268   2.310 -0.1570  1.8018  0.0995
 8333TIP3   OH224920   1.882   4.187   2.508  0.8465  0.1854 -0.1673
 8333TIP3    H124921   1.904   4.247   2.579  0.4315 -2.0031  1.8414
 8333TIP3    H224922   1.939   4.112   2.521 -1.0479 -1.3614 -0.6015
 8334TIP3   OH224923   7.174   3.312   3.939 -0.4109  0.0906 -0.7378
 8334TIP3    H124924   7.226   3.269   4.006  0.9185  1.2679 -0.9815
 8334TIP3    H224925   7.118   3.373   3.987 -0.0074  0.3788 -0.6300
 8335TIP3   OH224926   8.399   6.246   2.818  0.5998  0.2815  0.3421
 8335TIP3    H124927   8.327   6.306   2.795  0.0450 -0.1055  1.0526
 8335TIP3    H224928   8.477   6.287   2.779  0.2721  1.6134  1.0388
 8336TIP3   OH224929   7.304   4.384   0.724 -0.0814 -0.0352  0.1090
 8336TIP3    H124930   7.268   4.414   0.808  0.4312 -0.9506  0.6700
 8336TIP3    H224931   7.392   4.423   0.721 -1.1265  2.3125 -1.3232
 8337TIP3   OH224932   8.391   4.900   1.389 -0.3566  0.5273  0.0740
 8337TIP3    H124933   8.331   4.941   1.327 -0.4160 -1.1289 -0.9971
 8337TIP3    H224934   8.423   4.822   1.344  1.4844  0.6001  1.2026
 8338TIP3   OH224935   5.507   3.810   3.637 -0.3224  0.6182 -0.0404
 8338TIP3    H124936   5.425   3.789   3.682 -1.5597  0.6171 -2.2368
 8338TIP3    H224937   5.566   3.739   3.661 -1.3002  0.0399  0.6938
 8339TIP3   OH224938   4.811   6.465   3.179 -0.2766  0.0916 -0.1188
 8339TIP3    H124939   4.747   6.486   3.246  0.5111  0.8801  0.3866
 8339TIP3    H224940   4.833   6.549   3.138  1.2500 -0.0047  0.4564
 8340TIP3   OH224941   5.066   0.619   7.167  0.0738 -0.0542 -0.1607
 8340TIP3    H124942   5.060   0.528   7.194 -0.6031  0.0443  0.0463
 8340TIP3    H224943   5.025   0.668   7.239  1.7768  0.5355  0.4303
 8341TIP3   OH224944   8.862   5.720   1.381 -0.3738 -0.2726  0.1081
 8341TIP3    H124945   8.840   5.689   1.469  0.5977 -0.5363  0.2618
 8341TIP3    H224946   8.929   5.660   1.351  0.1555  0.5415 -0.3466
 8342TIP3   OH224947   0.119   5.414   1.664 -0.2874  0.1549  0.3544
 8342TIP3    H124948   0.039   5.404   1.611  0.0154 -0.4451 -0.0001
 8342TIP3    H224949   0.150   5.324   1.677  0.1004  0.3603  0.8524
 8343TIP3   OH224950   7.013   4.032   3.163 -0.0415 -0.1244  0.1490
 8343TIP3    H124951   7.028   3.980   3.084 -0.2180  1.1340 -0.7258
 8343TIP3    H224952   7.085   4.096   3.163 -0.3816  0.2558  0.6865
 8344TIP3   OH224953   0.892   4.847   3.439 -0.2722  0.0280 -0.2127
 8344TIP3    H124954   0.824   4.907   3.468 -0.9817 -0.0741 -1.6264
 8344TIP3    H224955   0.965   4.904   3.415 -0.4356  0.2404 -0.2075
 8345TIP3   OH224956   7.693   7.898   4.301  0.2523  0.5514  0.4874
 8345TIP3    H124957   7.780   7.936   4.284  1.7270 -1.0652  3.8696
 8345TIP3    H224958   7.676   7.919   4.393 -2.7395  0.3478  0.0285
 8346TIP3   OH224959   7.498   4.472   4.469 -0.1100  0.0308 -0.5360
 8346TIP3    H124960   7.439   4.481   4.394  1.6230 -1.3314 -2.1172
 8346TIP3    H224961   7.572   4.528   4.447  1.5845 -2.3641 -1.0894
 8347TIP3   OH224962   6.918   5.689   2.168 -0.4139 -0.4096 -0.5483
 8347TIP3    H124963   6.874   5.692   2.254  0.1221  1.5294 -0.3118
 8347TIP3    H224964   6.852   5.719   2.107  0.1764  1.3115 -0.3616
 8348TIP3   OH224965   8.327   3.631   4.407  0.1649  0.1596  0.6828
 8348TIP3    H124966   8.266   3.655   4.338  0.3485  0.7389  0.7237
 8348TIP3    H224967   8.283   3.560   4.455 -0.5889  0.7657  0.8853
 8349TIP3   OH224968   8.298   4.237   3.304 -0.4416 -0.0031  0.4522
 8349TIP3    H124969   8.325   4.175   3.236  0.7025 -0.9401  1.7176
 8349TIP3    H224970   8.368   4.301   3.306 -0.1381 -0.3556  1.2009
 8350TIP3   OH224971   8.200   5.328   4.221  0.1168  0.2199 -1.0577
 8350TIP3    H124972   8.149   5.327   4.302  0.5669  0.7527 -0.7635
 8350TIP3    H224973   8.171   5.407   4.176  0.5460  0.4314 -0.9723
 8351TIP3   OH224974   8.536   3.609   2.896 -0.1584 -0.1374 -0.3611
 8351TIP3    H124975   8.592   3.552   2.948 -1.8794  0.7382  2.5714
 8351TIP3    H224976   8.589   3.687   2.880  0.1960 -0.1844  0.5647
 8352TIP3   OH224977   7.101   6.222   3.707 -0.5033  0.2102 -0.6014
 8352TIP3    H124978   7.182   6.213   3.757  0.4727  1.1192 -1.9592
 8352TIP3    H224979   7.095   6.141   3.656 -0.8258 -0.1663  0.0352
 8353TIP3   OH224980   8.437   4.622   0.861  0.4048 -0.1862 -0.2808
 8353TIP3    H124981   8.527   4.647   0.877 -0.4927  0.7308  3.9913
 8353TIP3    H224982   8.409   4.579   0.942 -3.6093  1.4542 -0.6718
 8354TIP3   OH224983   0.459   5.629   2.309  0.7015  0.4867 -0.2894
 8354TIP3    H124984   0.500   5.545   2.328  0.1956 -0.2061 -2.1528
 8354TIP3    H224985   0.501   5.690   2.370  0.1518 -1.3217  1.9805
 8355TIP3   OH224986   0.304   7.680   4.301  0.1890  0.3405  0.1685
 8355TIP3    H124987   0.223   7.728   4.283 -1.0917 -1.7341  0.2412
 8355TIP3    H224988   0.366   7.748   4.327 -2.3238  1.6925  2.9190
 8356TIP3   OH224989   6.948   5.648   4.520 -0.0779 -0.5550 -0.1106
 8356TIP3    H124990   6.881   5.659   4.453 -0.0449  0.3960  0.0044
 8356TIP3    H224991   7.001   5.575   4.489  0.0356 -0.0177 -1.2095
 8357TIP3   OH224992   7.830   6.383   5.025 -0.5159 -0.7545  0.2752
 8357TIP3    H124993   7.776   6.409   5.099 -0.7411 -1.4818  0.3755
 8357TIP3    H224994   7.900   6.331   5.064 -0.4854 -0.9188  0.0064
 8358TIP3   OH224995   5.662   5.502   4.243 -0.3465  0.2095 -0.4605
 8358TIP3    H124996   5.592   5.564   4.262  1.3779  2.1593 -0.3794
 8358TIP3    H224997   5.625   5.444   4.176 -2.1575  0.9520 -0.1238
 8359TIP3   OH224998   4.501   3.545   2.947  0.0805  0.2749 -0.0933
 8359TIP3    H124999   4.472   3.489   2.874  0.1057  2.2890 -1.6906
 8359TIP3    H225000   4.576   3.499   2.984 -0.5677 -1.2976 -0.6496
 8360TIP3   OH225001   8.618   4.039   2.742 -0.2970 -0.3253 -0.2998
 8360TIP3    H125002   8.641   4.072   2.829 -1.4765 -1.6610  0.5256
 8360TIP3    H225003   8.653   3.950   2.741 -0.4314 -0.3663 -1.1393
 8361TIP3   OH225004   7.505   5.395   2.188 -0.2326  0.5542  0.3281
 8361TIP3    H125005   7.449   5.329   2.146  1.9069 -2.5935  2.2129
 8361TIP3    H225006   7.447   5.441   2.249 -1.8072  0.6548 -1.1819
 8362TIP3   OH225007   6.305   3.932   2.332 -0.8372  0.3087  0.7707
 8362TIP3    H125008   6.374   3.887   2.285 -1.7568  1.5446 -1.8346
 8362TIP3    H225009   6.347   3.962   2.413  1.1987 -0.4578  0.0301
 8363TIP3   OH225010   8.632   3.959   0.845 -0.2842  0.0613 -0.9508
 8363TIP3    H125011   8.681   3.965   0.763  1.3017 -0.3131 -0.0464
 8363TIP3    H225012   8.665   3.880   0.887 -0.1506  0.9518  0.6565
 8364TIP3   OH225013   7.987   5.339   2.973 -0.3914 -0.0822 -0.1446
 8364TIP3    H125014   7.977   5.289   3.054  1.7969 -0.8910 -0.3322
 8364TIP3    H225015   7.958   5.280   2.904  0.4961 -0.4565 -0.2026
 8365TIP3   OH225016   8.365   6.469   2.357  0.1191 -0.1363  0.0634
 8365TIP3    H125017   8.289   6.432   2.314  0.1917 -0.4546  0.2072
 8365TIP3    H225018   8.419   6.394   2.380 -0.2197 -0.0219  1.2724
 8366TIP3   OH225019   6.766   4.400   1.734  0.0936 -0.6764 -0.1219
 8366TIP3    H125020   6.832   4.345   1.777 -0.6290 -0.0136  1.8673
 8366TIP3    H225021   6.684   4.353   1.748  0.0890 -1.4441 -2.4986
 8367TIP3   OH225022   0.548   5.837   3.875  0.0311  0.1264  0.0232
 8367TIP3    H125023   0.537   5.896   3.949 -0.3357 -0.2443  0.2699
 8367TIP3    H225024   0.639   5.848   3.849  0.1187  0.3763  0.4307
 8368TIP3   OH225025   6.550   4.787   2.112 -0.2121 -1.0696  0.0798
 8368TIP3    H125026   6.577   4.847   2.182 -1.9413  0.2742 -0.3732
 8368TIP3    H225027   6.520   4.708   2.157  0.2958 -0.8759  0.7626
 8369TIP3   OH225028   8.263   6.851   4.671  0.4569 -0.2359 -0.3771
 8369TIP3    H125029   8.197   6.816   4.732  0.0774 -2.7072 -2.1411
 8369TIP3    H225030   8.321   6.902   4.726 -1.8222  0.3942  1.5394
 8370TIP3   OH225031   7.545   4.089   0.369 -0.1037  0.1321  0.0365
 8370TIP3    H125032   7.456   4.060   0.388  0.6259 -1.1331  1.6448
 8370TIP3    H225033   7.597   4.009   0.369  0.8238  0.7018 -2.2355
 8371TIP3   OH225034   8.865   6.268   3.144  0.1157 -0.3401 -0.4585
 8371TIP3    H125035   8.819   6.219   3.212  0.6908 -1.1276 -0.6391
 8371TIP3    H225036   8.925   6.325   3.192 -0.4250  0.0741 -0.2599
 8372TIP3   OH225037   0.086   4.608   5.899 -0.1367  0.2632 -0.0198
 8372TIP3    H125038   0.027   4.535   5.918  1.2719 -1.2459 -1.2070
 8372TIP3    H225039   0.033   4.686   5.911 -2.8200 -1.0664 -2.4924
 8373TIP3   OH225040   1.126   3.140   3.526 -0.5936 -0.0286 -0.0303
 8373TIP3    H125041   1.052   3.102   3.479 -0.9585  1.4034 -0.6403
 8373TIP3    H225042   1.199   3.082   3.506 -0.8456  0.2933 -1.9888
 8374TIP3   OH225043   6.646   5.218   4.563 -0.0563 -0.4321 -0.4128
 8374TIP3    H125044   6.716   5.277   4.536 -0.9724  2.4968  3.2903
 8374TIP3    H225045   6.584   5.220   4.489  2.0859 -0.4106 -2.2612
 8375TIP3   OH225046   8.481   4.487   3.704  0.2759  0.7962 -0.5607
 8375TIP3    H125047   8.540   4.536   3.761 -0.8020  0.4624  0.8717
 8375TIP3    H225048   8.393   4.504   3.739 -0.0214 -3.4204  1.0677
 8376TIP3   OH225049   1.153   4.409   3.620  0.4875  0.5381  0.1795
 8376TIP3    H125050   1.210   4.481   3.645  1.1498 -0.0579  0.3937
 8376TIP3    H225051   1.212   4.335   3.604 -0.2673 -0.3055  1.1929
 8377TIP3   OH225052   0.310   3.189   1.136 -0.1406 -0.2594  0.0864
 8377TIP3    H125053   0.265   3.149   1.210 -0.1783  1.6697  1.1320
 8377TIP3    H225054   0.245   3.187   1.065 -0.4358 -1.2281  0.3681
 8378TIP3   OH225055   6.568   4.023   3.391  0.3398 -0.4419  0.2922
 8378TIP3    H125056   6.542   3.972   3.314 -1.0510  1.0293 -0.2505
 8378TIP3    H225057   6.662   4.034   3.383  0.2427 -0.5597 -1.0475
 8379TIP3   OH225058   8.043   5.110   0.102 -0.1757  0.6010 -0.0556
 8379TIP3    H125059   8.103   5.035   0.102  0.4010  1.0173 -1.9626
 8379TIP3    H225060   8.098   5.185   0.127 -0.5397  0.5496  0.9227
 8380TIP3   OH225061   8.041   4.397   2.243  0.0244 -0.3096  0.2570
 8380TIP3    H125062   8.049   4.486   2.278 -1.2495  1.1246 -2.9246
 8380TIP3    H225063   8.131   4.367   2.234  0.6164  1.8205 -1.4007
 8381TIP3   OH225064   0.419   5.825   2.793 -0.1756  0.0045  0.2942
 8381TIP3    H125065   0.497   5.880   2.789 -0.3503  0.2129 -0.2838
 8381TIP3    H225066   0.351   5.883   2.828  0.0247 -0.2891  1.1709
 8382TIP3   OH225067   6.530   5.329   3.335  0.1909  0.2405 -0.0826
 8382TIP3    H125068   6.486   5.340   3.419  0.1809  1.3201 -0.2193
 8382TIP3    H225069   6.618   5.298   3.357 -0.0967 -0.3205  0.2744
 8383TIP3   OH225070   6.986   4.678   2.283  0.2111 -0.1135  0.4683
 8383TIP3    H125071   6.967   4.743   2.215  2.2294  0.4139  0.3757
 8383TIP3    H225072   6.951   4.596   2.248 -0.9836  0.6152 -0.0923
 8384TIP3   OH225073   8.650   2.438   2.542  0.2476 -0.0627  0.0468
 8384TIP3    H125074   8.663   2.393   2.459  0.0784  1.1018 -0.6219
 8384TIP3    H225075   8.738   2.450   2.577  0.6235  2.3019 -1.5247
 8385TIP3   OH225076   7.153   3.347   0.233  0.6174  0.1191 -0.2421
 8385TIP3    H125077   7.083   3.403   0.200  0.7906 -0.1493 -1.0884
 8385TIP3    H225078   7.152   3.271   0.174  1.1699 -0.2033  0.1584
 8386TIP3   OH225079   6.895   3.702   1.083  0.4496  0.3865 -0.2295
 8386TIP3    H125080   6.862   3.711   0.994  1.1292  0.3627 -0.4845
 8386TIP3    H225081   6.837   3.638   1.124 -0.2298  0.8486 -0.4706
 8387TIP3   OH225082   8.131   5.721   3.479  0.1152 -0.0093  0.2700
 8387TIP3    H125083   8.211   5.767   3.503 -0.1840  0.3366  0.5960
 8387TIP3    H225084   8.133   5.641   3.530  1.3941 -1.0925 -1.4138
 8388TIP3   OH225085   7.628   3.276   1.332 -0.7663 -0.1519  0.0690
 8388TIP3    H125086   7.576   3.346   1.371 -1.4149 -1.5053  1.6512
 8388TIP3    H225087   7.564   3.217   1.292 -0.2607 -0.2606 -0.5978
 8389TIP3   OH225088   6.989   3.279   1.540 -0.0714  0.2570 -0.1550
 8389TIP3    H125089   7.072   3.252   1.578 -0.2758 -1.8275 -1.1542
 8389TIP3    H225090   6.997   3.261   1.447 -1.8012 -0.4120 -0.1990
 8390TIP3   OH225091   0.033   4.772   0.781 -0.0642  0.1209 -0.2988
 8390TIP3    H125092   0.027   4.702   0.715  1.1158  0.8613 -1.1937
 8390TIP3    H225093   0.043   4.852   0.730 -0.3805  0.8387  0.7621
 8391TIP3   OH225094   7.929   3.595   2.023  0.2311 -0.5600 -0.5716
 8391TIP3    H125095   7.954   3.672   2.074  0.6668 -0.2795 -1.1944
 8391TIP3    H225096   7.872   3.630   1.953  0.0064 -0.8747 -0.5481
 8392TIP3   OH225097   7.479   3.582   2.115 -0.0627 -0.6845  0.0739
 8392TIP3    H125098   7.536   3.518   2.157 -1.3666 -1.5499  0.5147
 8392TIP3    H225099   7.398   3.535   2.098 -0.3665  0.3194 -1.2996
 8393TIP3   OH225100   0.075   5.844   3.029  0.0931 -0.0506 -0.3496
 8393TIP3    H125101  -0.002   5.816   3.078  0.2243 -1.1443 -0.7468
 8393TIP3    H225102   0.127   5.894   3.092  0.0963 -1.1459  0.5278
 8394TIP3   OH225103   6.026   4.764   1.512  0.3009 -0.0089 -0.2294
 8394TIP3    H125104   5.951   4.705   1.523 -1.6342  2.3367 -0.4890
 8394TIP3    H225105   6.065   4.770   1.600 -0.5412 -0.2815  0.1641
 8395TIP3   OH225106   6.518   4.662   3.118 -0.6489 -0.4747  0.2214
 8395TIP3    H125107   6.521   4.632   3.209 -0.6317 -1.2305 -0.0258
 8395TIP3    H225108   6.429   4.695   3.106 -0.9966 -1.4007  0.1950
 8396TIP3   OH225109   8.424   4.801   3.485 -0.0232 -0.4741  0.4207
 8396TIP3    H125110   8.462   4.722   3.447 -1.2456 -0.2644 -1.2971
 8396TIP3    H225111   8.496   4.864   3.488  0.3412 -0.8341 -0.5816
 8397TIP3   OH225112   7.832   4.051   2.066 -0.2992 -0.2447  0.1117
 8397TIP3    H125113   7.827   4.139   2.104 -1.2231 -0.7105  1.0899
 8397TIP3    H225114   7.743   4.032   2.036 -0.0097 -0.6841 -0.4794
 8398TIP3   OH225115   7.978   5.207   3.240  0.0143 -0.2541 -0.0228
 8398TIP3    H125116   7.982   5.228   3.334  4.8741 -0.3965 -0.0793
 8398TIP3    H225117   7.986   5.112   3.237  2.3173 -0.0742 -0.6017
 8399TIP3   OH225118   7.465   2.104   2.844  0.1526 -0.1965  0.8205
 8399TIP3    H125119   7.374   2.107   2.874  0.5032  0.3673  1.8418
 8399TIP3    H225120   7.503   2.029   2.888 -0.3117 -1.5490 -1.0511
 8400TIP3   OH225121   1.164   5.392   1.705  0.3104  0.3212 -0.3313
 8400TIP3    H125122   1.203   5.479   1.712 -0.0938  0.5369 -0.7617
 8400TIP3    H225123   1.209   5.340   1.773 -0.8678  1.3997  1.3071
 8401TIP3   OH225124   0.673   4.924   3.854  0.2771 -0.4874 -0.0669
 8401TIP3    H125125   0.656   4.954   3.765  2.8108 -0.8093 -0.7022
 8401TIP3    H225126   0.680   4.829   3.847  0.1033 -0.5514  0.5456
 8402TIP3   OH225127   8.159   5.542   3.990 -0.3997 -0.3210  0.1155
 8402TIP3    H125128   8.112   5.621   4.019 -2.3295 -1.2983 -0.2889
 8402TIP3    H225129   8.147   5.541   3.895  1.2676 -0.0767 -0.1055
 8403TIP3   OH225130   6.349   4.789   4.222 -0.4809 -0.0566 -0.2029
 8403TIP3    H125131   6.319   4.766   4.133 -1.8266  0.6276  0.0597
 8403TIP3    H225132   6.270   4.782   4.276  0.7600 -2.5644  1.3735
 8404TIP3   OH225133   0.611   2.770   2.558 -0.5490  0.5251 -0.0134
 8404TIP3    H125134   0.582   2.830   2.490 -2.1908  1.6041  1.5867
 8404TIP3    H225135   0.550   2.785   2.630  2.1574  0.6380  2.3325
 8405TIP3   OH225136   6.207   4.647   2.752  0.3391  0.0500 -0.0750
 8405TIP3    H125137   6.209   4.737   2.720 -0.1391  0.7492  1.7948
 8405TIP3    H225138   6.299   4.621   2.756  0.4849  0.4872 -0.5240
 8406TIP3   OH225139   8.291   5.047   4.353  0.7430  0.1979  0.2878
 8406TIP3    H125140   8.250   4.977   4.301  0.9852  1.1159 -1.1751
 8406TIP3    H225141   8.217   5.099   4.385  0.6345  0.1377  0.1352
 8407TIP3   OH225142   7.527   4.906   2.719 -0.1018  0.2327  0.5170
 8407TIP3    H125143   7.565   4.826   2.683 -0.1871  1.0425 -1.4362
 8407TIP3    H225144   7.444   4.878   2.758  0.2095 -0.7408  0.4996
 8408TIP3   OH225145   6.918   6.508   3.450  0.2488 -0.1020 -0.3829
 8408TIP3    H125146   6.933   6.514   3.545 -0.5266  0.8803 -0.3156
 8408TIP3    H225147   6.974   6.435   3.422 -0.7160 -1.4526  1.0763
 8409TIP3   OH225148   0.450   4.674   3.350  0.1276 -0.3101  0.7193
 8409TIP3    H125149   0.386   4.603   3.364 -0.5008  0.2417  0.6838
 8409TIP3    H225150   0.535   4.632   3.359 -0.2431 -1.0616  0.7673
 8410TIP3   OH225151   8.597   6.513   3.684  0.1532  0.0833 -0.0002
 8410TIP3    H125152   8.505   6.512   3.659  0.0728 -2.2170  0.2803
 8410TIP3    H225153   8.622   6.605   3.681 -2.3965  0.8238  0.8538
 8411TIP3   OH225154   7.020   5.173   2.580 -0.1079 -0.1842 -0.5872
 8411TIP3    H125155   7.100   5.133   2.546 -0.3607 -1.7584  0.6364
 8411TIP3    H225156   6.968   5.194   2.502  0.1891 -1.9285 -1.2745
 8412TIP3   OH225157   6.060   6.163   3.864  0.8829  0.6960 -0.7389
 8412TIP3    H125158   5.995   6.213   3.913  0.2888  1.1083 -1.9128
 8412TIP3    H225159   6.075   6.215   3.785  2.7413  0.6691 -0.4186
 8413TIP3   OH225160   0.730   6.268   3.572  0.1182 -0.1264  0.2068
 8413TIP3    H125161   0.756   6.176   3.566  1.0494  0.0390  1.6310
 8413TIP3    H225162   0.737   6.301   3.482 -1.6806 -1.8291 -0.5860
 8414TIP3   OH225163   8.639   5.824   2.991  0.0145  0.2825  0.0096
 8414TIP3    H125164   8.602   5.911   2.980 -0.8903 -0.0368  0.5399
 8414TIP3    H225165   8.696   5.831   3.067 -2.1709 -0.2671  1.7372
 8415TIP3   OH225166   6.061   5.346   2.632 -0.4730  0.3487 -0.6398
 8415TIP3    H125167   6.041   5.394   2.712 -0.4665  0.8957 -0.9624
 8415TIP3    H225168   6.126   5.400   2.587 -0.6370  0.1540 -1.1168
 8416TIP3   OH225169   8.309   3.920   5.269 -0.7760  0.0798 -0.4626
 8416TIP3    H125170   8.278   4.010   5.269 -0.3700  0.2225 -1.1776
 8416TIP3    H225171   8.355   3.911   5.353 -0.6806  0.5860 -0.4594
 8417TIP3   OH225172   4.886   5.742   2.461 -0.1183  0.2635 -0.1736
 8417TIP3    H125173   4.957   5.702   2.511  0.0000  0.4820 -0.1671
 8417TIP3    H225174   4.882   5.691   2.380 -0.3724 -0.1490  0.0969
 8418TIP3   OH225175   2.662   0.289   7.126 -0.4859 -0.6747  0.3194
 8418TIP3    H125176   2.593   0.225   7.105  1.3594 -2.5258 -0.3140
 8418TIP3    H225177   2.713   0.246   7.195  1.3362 -0.2871 -0.7661
 8419TIP3   OH225178   6.678   4.254   2.362  0.2352 -0.3113  0.7791
 8419TIP3    H125179   6.599   4.213   2.328 -0.5719  2.4424 -0.8017
 8419TIP3    H225180   6.744   4.239   2.294 -0.4708  2.2171 -0.5391
 8420TIP3   OH225181   7.276   4.499   3.165  0.4975 -0.2805  0.4739
 8420TIP3    H125182   7.194   4.463   3.201  0.9914 -0.5531  1.3432
 8420TIP3    H225183   7.345   4.452   3.211  1.1521 -0.5011 -0.7148
 8421TIP3   OH225184   7.746   6.384   4.125  0.5984  0.0261 -0.5657
 8421TIP3    H125185   7.749   6.465   4.074  1.4421  1.3565  1.5238
 8421TIP3    H225186   7.654   6.360   4.125  0.3875  0.7795 -1.5162
 8422TIP3   OH225187   3.296   1.929   6.658  0.1434  0.1284  0.0368
 8422TIP3    H125188   3.346   1.854   6.626 -0.6704  0.4992 -2.2702
 8422TIP3    H225189   3.211   1.892   6.684  0.2982  0.0277  0.3984
 8423TIP3   OH225190   7.113   6.512   2.333  0.1574  0.0094  0.6323
 8423TIP3    H125191   7.019   6.505   2.317  0.2932 -0.3954 -0.0350
 8423TIP3    H225192   7.132   6.605   2.325 -0.1574  0.0700  0.5919
 8424TIP3   OH225193   7.150   4.196   2.580 -0.4065 -0.6258 -0.3595
 8424TIP3    H125194   7.197   4.235   2.507  0.2744 -1.4626 -0.3756
 8424TIP3    H225195   7.061   4.232   2.573 -0.1656 -0.1772 -1.1922
 8425TIP3   OH225196   8.377   3.120   2.195  0.3029 -0.5644  0.0877
 8425TIP3    H125197   8.305   3.065   2.225 -1.1440  1.6598  0.8800
 8425TIP3    H225198   8.416   3.153   2.276  1.7779 -1.2078 -0.3598
 8426TIP3   OH225199   7.349   3.874   2.703 -0.1055 -0.3871  0.1472
 8426TIP3    H125200   7.396   3.909   2.779 -0.5943 -1.7599  1.1017
 8426TIP3    H225201   7.278   3.823   2.741 -1.1177 -0.0494 -1.2639
 8427TIP3   OH225202   6.903   3.853   0.324 -0.2630  0.3092  0.6577
 8427TIP3    H125203   6.953   3.772   0.336 -0.4534 -0.0972 -1.2725
 8427TIP3    H225204   6.946   3.898   0.252 -0.0209  2.0666  1.8616
 8428TIP3   OH225205   6.287   4.011   2.959  0.7311  0.1434 -0.5664
 8428TIP3    H125206   6.341   3.939   2.927  2.4374  0.4902  1.4595
 8428TIP3    H225207   6.201   3.972   2.973  2.1913 -2.0792  2.6150
 8429TIP3   OH225208   8.446   6.150   3.367 -0.6651 -0.5376 -0.3512
 8429TIP3    H125209   8.428   6.230   3.316 -1.2381 -2.1720 -2.7847
 8429TIP3    H225210   8.360   6.108   3.377 -0.4171 -0.7012  1.2191
 8430TIP3   OH225211   8.463   6.190   1.211 -0.7126  0.2145  0.3969
 8430TIP3    H125212   8.433   6.148   1.291  1.3164 -0.6171  0.7550
 8430TIP3    H225213   8.496   6.118   1.157 -0.3568  0.9770 -0.4214
 8431TIP3   OH225214   6.386   4.682   1.599 -0.5748  0.0430  0.2132
 8431TIP3    H125215   6.363   4.674   1.507 -0.0818 -1.3012  0.1928
 8431TIP3    H225216   6.471   4.726   1.599 -0.4265 -0.2380 -0.0001
 8432TIP3   OH225217   0.772   3.795   0.605  0.1270  0.2859 -0.2510
 8432TIP3    H125218   0.789   3.833   0.692 -0.8542 -0.7229  0.3858
 8432TIP3    H225219   0.858   3.764   0.577  0.2963 -0.2015  0.7599
 8433TIP3   OH225220   8.660   4.525   4.437 -0.5037 -0.3498  0.0105
 8433TIP3    H125221   8.695   4.515   4.526 -1.5935  3.6109  0.9850
 8433TIP3    H225222   8.686   4.613   4.411 -0.4974 -1.3182 -3.5471
 8434TIP3   OH225223   8.023   5.665   4.502  0.5369 -0.2533 -0.2750
 8434TIP3    H125224   8.071   5.610   4.563  0.5139 -0.8965 -0.8370
 8434TIP3    H225225   7.940   5.684   4.546  0.4969 -0.7606 -0.1275
 8435TIP3   OH225226   0.997   4.645   1.041 -0.2701  0.1311  0.6134
 8435TIP3    H125227   1.084   4.662   1.005 -1.0407  0.0626 -1.3766
 8435TIP3    H225228   1.010   4.642   1.135  1.6426  1.5229  0.4291
 8436TIP3   OH225229   7.182   3.766   1.490  0.5335  0.0429  0.3393
 8436TIP3    H125230   7.157   3.675   1.509  0.8432 -0.2210 -0.4893
 8436TIP3    H225231   7.172   3.774   1.395  0.0457  1.0203  0.4726
 8437TIP3   OH225232   1.284   6.352   3.432 -0.1066  0.5078 -0.4132
 8437TIP3    H125233   1.191   6.329   3.432  0.0910 -0.3961 -2.1652
 8437TIP3    H225234   1.288   6.434   3.382 -0.0123  0.7969  0.0662
 8438TIP3   OH225235   8.082   4.877   3.258  0.1686  0.1334 -0.0980
 8438TIP3    H125236   8.014   4.822   3.219 -0.4368 -0.1685  1.3705
 8438TIP3    H225237   8.145   4.890   3.187  0.1246 -2.1268 -0.5938
 8439TIP3   OH225238   7.896   5.191   2.766 -0.0002 -0.1121  0.9086
 8439TIP3    H125239   7.917   5.110   2.813 -1.0490 -0.0540  1.4966
 8439TIP3    H225240   7.829   5.165   2.703  0.6829  0.0136  0.1297
 8440TIP3   OH225241   8.128   4.850   5.000  0.3592  0.3310  0.1696
 8440TIP3    H125242   8.067   4.802   4.945 -0.9670  2.1888 -0.0454
 8440TIP3    H225243   8.094   4.838   5.089  0.1312  0.6891  0.1341
 8441TIP3   OH225244   8.018   3.784   3.473  0.0824 -0.3199 -0.1047
 8441TIP3    H125245   8.104   3.824   3.487 -0.1666  0.6460 -1.2626
 8441TIP3    H225246   8.019   3.706   3.528  0.9681  0.7092  1.3671
 8442TIP3   OH225247   6.604   5.056   2.495 -0.0896 -0.6378 -0.2786
 8442TIP3    H125248   6.628   5.040   2.586 -0.1527 -1.0056 -0.3270
 8442TIP3    H225249   6.533   5.120   2.499 -0.2167 -0.7941 -0.0609
 8443TIP3   OH225250   1.137   4.040   3.892  0.0147 -0.4505 -0.2252
 8443TIP3    H125251   1.097   4.094   3.823  0.3266  0.0350 -0.0307
 8443TIP3    H225252   1.204   3.989   3.848 -0.5061 -0.9248 -0.4704
 8444TIP3   OH225253   5.406   4.428   0.885  0.0820  0.3194  0.0343
 8444TIP3    H125254   5.424   4.519   0.864 -0.4165  0.3258 -0.3885
 8444TIP3    H225255   5.401   4.425   0.981 -1.9301  1.1395 -0.0116
 8445TIP3   OH225256   5.722   4.773   3.274  0.4046  0.0348  0.7224
 8445TIP3    H125257   5.672   4.697   3.244  0.0851  1.2399 -1.9279
 8445TIP3    H225258   5.801   4.735   3.313 -2.1054 -1.8471  4.1741
 8446TIP3   OH225259   8.262   3.494   1.067  0.0310 -0.0064 -0.6268
 8446TIP3    H125260   8.262   3.446   0.985 -0.4783 -0.5537 -0.3069
 8446TIP3    H225261   8.186   3.553   1.061 -0.5712 -0.7136 -0.1704
 8447TIP3   OH225262   7.525   4.431   2.706  0.1928  0.5924 -0.2730
 8447TIP3    H125263   7.458   4.403   2.644  0.0835  2.0403 -0.8203
 8447TIP3    H225264   7.482   4.426   2.791  0.0702 -0.5543 -0.3932
 8448TIP3   OH225265   7.621   5.451   2.534  0.1918  0.1632 -0.6247
 8448TIP3    H125266   7.708   5.464   2.571  0.3872  0.0114 -1.0277
 8448TIP3    H225267   7.635   5.391   2.461  0.0389  1.6260 -1.8814
 8449TIP3   OH225268   8.756   3.785   5.037  0.6379  0.4044 -0.6357
 8449TIP3    H125269   8.735   3.778   4.944 -0.5678 -3.2810 -0.1311
 8449TIP3    H225270   8.831   3.727   5.049 -0.5459 -0.8010  1.0748
 8450TIP3   OH225271   7.182   3.531   4.641  0.0958 -0.1802  0.7253
 8450TIP3    H125272   7.269   3.492   4.635  0.1476 -0.1609  1.3147
 8450TIP3    H225273   7.175   3.588   4.564  0.1511 -1.0810  0.0481
 8451TIP3   OH225274   5.713   5.474   1.244  0.0676 -0.2090 -0.7871
 8451TIP3    H125275   5.788   5.418   1.223  2.1982  1.2697  2.4978
 8451TIP3    H225276   5.669   5.429   1.316 -1.3317 -0.2243 -1.6093
 8452TIP3   OH225277   6.892   3.793   2.291 -0.4987  0.0888  0.4853
 8452TIP3    H125278   6.947   3.855   2.243  2.0653 -2.2771  0.2574
 8452TIP3    H225279   6.891   3.826   2.381 -1.1598  1.7467 -0.1123
 8453TIP3   OH225280   8.164   5.463   3.685  0.0080  0.1575  0.1640
 8453TIP3    H125281   8.096   5.411   3.728  1.4661 -0.2075  2.1116
 8453TIP3    H225282   8.198   5.405   3.616 -2.2129  0.6746 -1.4203
 8454TIP3   OH225283   6.406   5.158   5.691 -0.4296 -0.3503  0.1814
 8454TIP3    H125284   6.339   5.170   5.757 -0.5111 -2.4073  0.5048
 8454TIP3    H225285   6.460   5.237   5.697 -2.9781  1.4736 -0.3230
 8455TIP3   OH225286   5.203   2.926   6.237  0.1224  0.3523  0.3495
 8455TIP3    H125287   5.232   2.887   6.154  1.4521  1.6044  0.2022
 8455TIP3    H225288   5.257   2.883   6.304 -0.0753  0.2445  0.4408
 8456TIP3   OH225289   7.870   4.454   5.170 -0.4671  0.6894  0.2177
 8456TIP3    H125290   7.956   4.485   5.196 -0.2513  0.9929 -0.8029
 8456TIP3    H225291   7.812   4.529   5.182 -0.6924  0.3303  1.3951
 8457TIP3   OH225292   0.289   4.041   3.749  0.1699 -0.6237  0.0141
 8457TIP3    H125293   0.334   4.117   3.785  0.9755  0.0216 -2.2287
 8457TIP3    H225294   0.197   4.055   3.769  0.6619 -0.6211  2.3258
 8458TIP3   OH225295   8.676   6.938   3.886  0.2158  0.4156  0.3658
 8458TIP3    H125296   8.610   6.901   3.946 -0.3399 -0.0809 -0.5346
 8458TIP3    H225297   8.759   6.921   3.929 -0.1043 -0.9696  0.4739
 8459TIP3   OH225298   7.045   4.218   5.085  0.2075  0.2710 -0.6152
 8459TIP3    H125299   7.002   4.172   5.158 -1.0343  0.9534 -0.9004
 8459TIP3    H225300   7.134   4.234   5.117  0.5937 -2.0895 -0.4177
 8460TIP3   OH225301   7.022   3.397   3.006  0.1658  0.2796  0.4690
 8460TIP3    H125302   7.013   3.363   3.095 -0.1565 -0.1051  0.2921
 8460TIP3    H225303   7.004   3.490   3.014 -0.8541  0.0796  0.6537
 8461TIP3   OH225304   1.357   2.312   2.768 -0.2963 -0.0047 -0.1326
 8461TIP3    H125305   1.410   2.335   2.691 -1.6890  1.4586 -0.6914
 8461TIP3    H225306   1.387   2.372   2.836 -1.4096  1.0053 -0.5270
 8462TIP3   OH225307   7.829   5.979   4.398  0.0752 -0.2570  0.0556
 8462TIP3    H125308   7.788   5.953   4.316  1.0189  0.5758 -0.7016
 8462TIP3    H225309   7.761   5.966   4.464 -1.2639  0.6907 -1.0977
 8463TIP3   OH225310   0.434   5.445   4.080  0.2379 -0.6715 -0.4363
 8463TIP3    H125311   0.481   5.489   4.151  0.5266 -0.0104 -1.0281
 8463TIP3    H225312   0.417   5.515   4.016 -0.4089 -1.1730 -0.8117
 8464TIP3   OH225313   7.794   4.769   2.905  0.2372 -0.4115 -0.0496
 8464TIP3    H125314   7.808   4.757   2.999  0.5411 -0.2144 -0.0686
 8464TIP3    H225315   7.703   4.799   2.898 -0.3488 -2.1109  0.0404
 8465TIP3   OH225316   7.038   5.311   3.237 -0.4292 -0.2119 -0.1329
 8465TIP3    H125317   7.053   5.328   3.144  0.5978 -2.1657 -0.3503
 8465TIP3    H225318   7.066   5.390   3.281  2.1304 -0.4631 -1.2570
 8466TIP3   OH225319   8.706   5.084   2.044 -0.0136 -0.3660  0.0471
 8466TIP3    H125320   8.648   5.137   2.099 -0.0283 -0.7424  0.3951
 8466TIP3    H225321   8.649   5.016   2.008 -0.0581  0.0259 -0.6393
 8467TIP3   OH225322   6.037   5.457   3.074 -0.5128  0.1167 -0.0975
 8467TIP3    H125323   6.004   5.487   2.989 -0.2634 -1.8283 -0.9094
 8467TIP3    H225324   5.958   5.437   3.125 -0.6571  0.9702  0.0238
 8468TIP3   OH225325   6.790   7.103   2.232  0.1879  0.0270 -0.4410
 8468TIP3    H125326   6.728   7.176   2.227  1.2792  1.0582  0.8553
 8468TIP3    H225327   6.736   7.028   2.257 -0.5388  0.9297  0.7557
 8469TIP3   OH225328   4.209   1.365   6.769  0.2493  0.0047  0.0034
 8469TIP3    H125329   4.119   1.352   6.739 -0.1265  1.8762  0.2295
 8469TIP3    H225330   4.260   1.301   6.720 -0.7165  1.2447 -2.7523
 8470TIP3   OH225331   7.407   4.473   2.439 -0.3558 -0.0849  0.3416
 8470TIP3    H125332   7.372   4.386   2.419 -2.1766  0.1927  2.1164
 8470TIP3    H225333   7.500   4.467   2.419 -0.3714 -2.6060  0.8887
 8471TIP3   OH225334   3.267   4.697   3.994  0.3643  0.0813 -0.0976
 8471TIP3    H125335   3.261   4.608   3.961  0.8438  0.6440 -1.7604
 8471TIP3    H225336   3.293   4.749   3.918  1.1223  1.4805  1.0898
 8472TIP3   OH225337   8.532   5.534   4.247  0.1573 -0.0553  0.1119
 8472TIP3    H125338   8.487   5.517   4.164 -0.6486  0.9215  0.3411
 8472TIP3    H225339   8.523   5.452   4.296  1.0807 -0.8009 -0.9602
 8473TIP3   OH225340   8.377   5.102   3.605  0.4312 -0.4415  0.1989
 8473TIP3    H125341   8.336   5.055   3.532  0.7901  1.4054 -1.2275
 8473TIP3    H225342   8.363   5.194   3.585  1.9854  0.1304  1.6556
 8474TIP3   OH225343   6.565   4.968   4.195 -0.5792 -0.1110  0.2912
 8474TIP3    H125344   6.492   4.907   4.202 -0.0216 -0.7479  0.6363
 8474TIP3    H225345   6.576   4.982   4.101 -2.9135  2.1628  0.3122
 8475TIP3   OH225346   6.870   5.270   1.180  0.4657  0.1096 -0.0584
 8475TIP3    H125347   6.958   5.267   1.219  0.0117 -0.3729  0.9440
 8475TIP3    H225348   6.864   5.357   1.141  0.7215  0.8282  1.4595
 8476TIP3   OH225349   0.159   6.225   2.505  0.0412  0.4837  0.3095
 8476TIP3    H125350   0.202   6.289   2.449  1.6770 -0.6999  0.1931
 8476TIP3    H225351   0.209   6.227   2.587 -0.4531 -0.0050  0.6280
 8477TIP3   OH225352   7.274   5.548   2.752  0.3444  0.4299  0.3231
 8477TIP3    H125353   7.181   5.544   2.730  0.0546  0.8662  1.4553
 8477TIP3    H225354   7.310   5.465   2.722 -0.2021  0.6761 -1.0588
 8478TIP3   OH225355   1.751   7.040   0.629 -0.5728 -0.3522  0.0657
 8478TIP3    H125356   1.703   6.986   0.692 -3.7296  1.7098 -0.4833
 8478TIP3    H225357   1.790   7.110   0.682 -0.4458 -0.4744  0.1355
 8479TIP3   OH225358   8.668   3.829   2.001 -0.0273  0.4738  0.0350
 8479TIP3    H125359   8.584   3.796   1.969  0.2986  0.9491 -1.3362
 8479TIP3    H225360   8.691   3.771   2.073 -1.6682  0.5048  0.6035
 8480TIP3   OH225361   6.796   5.058   1.658  0.1913  0.1122 -0.3395
 8480TIP3    H125362   6.739   5.072   1.734 -0.3604 -0.0957 -0.7111
 8480TIP3    H225363   6.881   5.034   1.695  0.4995  2.1087  0.2502
 8481TIP3   OH225364   6.163   5.744   3.223  0.5708  0.4270  0.3314
 8481TIP3    H125365   6.157   5.790   3.139  0.5487  0.7438  0.5036
 8481TIP3    H225366   6.131   5.656   3.205  1.7819  0.1069 -0.2930
 8482TIP3   OH225367   8.483   3.222   4.857 -0.6530 -0.1706 -0.1485
 8482TIP3    H125368   8.455   3.185   4.773  1.1010 -0.4946 -0.6125
 8482TIP3    H225369   8.465   3.153   4.921 -0.7315 -0.4420 -0.4622
 8483TIP3   OH225370   8.512   4.159   1.762  0.6118  0.5960  0.0398
 8483TIP3    H125371   8.425   4.119   1.755  0.5052  0.6124  1.1641
 8483TIP3    H225372   8.504   4.222   1.834  1.9279 -0.4293  1.1238
 8484TIP3   OH225373   1.360   4.647   1.166 -0.0703 -0.4430 -0.5530
 8484TIP3    H125374   1.413   4.725   1.182 -0.5544 -0.5774  1.8853
 8484TIP3    H225375   1.416   4.591   1.112  2.0861 -0.3263  1.4747
 8485TIP3   OH225376   7.671   4.446   0.354 -0.2034  0.8414  0.0085
 8485TIP3    H125377   7.765   4.457   0.371 -0.0923  0.7982 -0.5514
 8485TIP3    H225378   7.665   4.364   0.305 -0.6296  0.3911  0.8002
 8486TIP3   OH225379   6.745   6.011   2.793  0.2982  0.7671 -0.4372
 8486TIP3    H125380   6.710   5.923   2.807  1.2400  0.1945 -1.5886
 8486TIP3    H225381   6.671   6.061   2.758  0.9325 -0.8319 -4.2916
 8487TIP3   OH225382   0.406   7.095   4.242 -0.3552  0.3410  0.2406
 8487TIP3    H125383   0.401   7.186   4.272 -2.7802  0.6435 -0.9178
 8487TIP3    H225384   0.460   7.098   4.164 -0.7832  0.8683 -0.0363
 8488TIP3   OH225385   5.882   6.030   2.758  0.5440 -0.0380 -0.1311
 8488TIP3    H125386   5.824   6.071   2.823 -1.1459 -2.0220 -0.3502
 8488TIP3    H225387   5.860   6.074   2.676  1.3662  1.1772  0.2879
 8489TIP3   OH225388   0.358   3.758   3.476  0.3391  0.2282  0.0583
 8489TIP3    H125389   0.294   3.754   3.546 -0.2178  0.8309 -0.4175
 8489TIP3    H225390   0.332   3.688   3.416  0.3726  0.2063  0.0690
 8490TIP3   OH225391   3.632   1.438   3.534  0.4580  0.7318 -0.0429
 8490TIP3    H125392   3.592   1.355   3.510 -1.4810  0.7596  2.8463
 8490TIP3    H225393   3.697   1.415   3.600  1.6587  1.2875 -0.9972
 8491TIP3   OH225394   6.212   3.939   1.912  0.4455 -0.3330 -0.2976
 8491TIP3    H125395   6.139   3.997   1.933  1.0750  0.4628 -0.2830
 8491TIP3    H225396   6.171   3.863   1.872 -0.4497 -0.1910  0.3240
 8492TIP3   OH225397   0.815   3.875   1.471 -0.1135  0.0881 -0.0136
 8492TIP3    H125398   0.856   3.888   1.556 -1.9287  0.4642  0.8224
 8492TIP3    H225399   0.735   3.926   1.474 -2.2412 -3.1057 -0.4298
 8493TIP3   OH225400   0.650   4.287   1.617  0.0085  0.0370 -0.2998
 8493TIP3    H125401   0.576   4.267   1.675 -1.0320 -1.0237 -1.9544
 8493TIP3    H225402   0.720   4.314   1.677 -1.5878  0.6951  1.3241
 8494TIP3   OH225403   0.219   5.667   3.659  0.4183 -0.2363  0.1544
 8494TIP3    H125404   0.144   5.719   3.687 -0.0398 -0.3175 -0.8745
 8494TIP3    H225405   0.180   5.584   3.628  1.0225 -0.6886  0.6020
 8495TIP3   OH225406   8.063   1.740   6.133  0.1929 -0.7143  0.0308
 8495TIP3    H125407   8.123   1.736   6.207  1.5289  0.1266 -0.9764
 8495TIP3    H225408   8.002   1.811   6.155  0.2394 -0.8459  0.5794
 8496TIP3   OH225409   7.709   6.541   3.901 -0.7074  0.1346 -0.0213
 8496TIP3    H125410   7.752   6.617   3.940 -0.0760 -0.1448 -0.1511
 8496TIP3    H225411   7.733   6.545   3.808  1.1829 -1.4236  0.3626
 8497TIP3   OH225412   6.891   4.468   2.140 -0.4339 -0.3449  0.2784
 8497TIP3    H125413   6.807   4.427   2.120 -1.0221  1.0650 -0.2409
 8497TIP3    H225414   6.948   4.395   2.165 -1.1064 -1.6113 -1.7100
 8498TIP3   OH225415   7.710   7.268   2.791 -0.3633 -0.1782 -0.2581
 8498TIP3    H125416   7.631   7.214   2.782 -0.5825  0.2883 -1.1594
 8498TIP3    H225417   7.733   7.293   2.701  1.7416 -1.6345 -0.1552
 8499TIP3   OH225418   6.270   4.948   5.548  0.2336  0.0532 -0.1149
 8499TIP3    H125419   6.293   4.953   5.455 -0.7093 -0.7060 -0.4088
 8499TIP3    H225420   6.328   5.009   5.592  2.1052 -1.0952 -0.9514
 8500TIP3   OH225421   8.508   4.524   3.432 -0.4963  0.1788  0.1761
 8500TIP3    H125422   8.533   4.439   3.397  1.7948  1.9183 -2.6778
 8500TIP3    H225423   8.484   4.507   3.523  0.3460 -3.4066 -0.2088
 8501TIP3   OH225424   5.831   5.619   3.571 -0.3039 -0.0152  0.4119
 8501TIP3    H125425   5.914   5.636   3.526 -0.6875 -0.9010 -0.6551
 8501TIP3    H225426   5.805   5.532   3.541 -0.4836 -0.6948  2.5129
 8502TIP3   OH225427   6.472   5.195   4.335  0.1243  0.2354 -0.2126
 8502TIP3    H125428   6.382   5.165   4.320  0.1352  0.0969 -0.0093
 8502TIP3    H225429   6.526   5.120   4.310  0.2301  0.6812 -1.3147
 8503TIP3   OH225430   0.588   5.370   2.358 -0.0854 -0.1845  0.0602
 8503TIP3    H125431   0.506   5.321   2.371 -0.6161  0.0413 -2.2342
 8503TIP3    H225432   0.649   5.304   2.325  0.3203 -0.1049  0.6577
 8504TIP3   OH225433   8.146   6.321   3.230 -0.3239  0.5585 -0.1072
 8504TIP3    H125434   8.221   6.345   3.176 -0.2942  0.7182  0.0046
 8504TIP3    H225435   8.122   6.402   3.275  1.8368 -0.3434  2.8229
 8505TIP3   OH225436   0.472   5.739   3.545  0.4128 -0.0029  0.3890
 8505TIP3    H125437   0.390   5.699   3.574  0.9220 -0.4800  1.1798
 8505TIP3    H225438   0.462   5.832   3.565 -0.2962  0.0902 -0.3601
 8506TIP3   OH225439   7.581   6.063   3.924 -0.7402 -0.8761 -0.0634
 8506TIP3    H125440   7.629   5.992   3.882 -0.2770 -0.8074  0.3390
 8506TIP3    H225441   7.597   6.139   3.869  0.1840 -0.6983  0.4513
 8507TIP3   OH225442   8.243   5.981   1.175  0.2297 -0.1636 -0.5677
 8507TIP3    H125443   8.210   5.895   1.148 -0.7642  0.4909 -1.4701
 8507TIP3    H225444   8.198   6.000   1.257 -0.3052 -0.0602 -0.8834
 8508TIP3   OH225445   1.479   6.011   2.771 -0.6207 -0.1685 -0.4499
 8508TIP3    H125446   1.565   6.029   2.808 -0.8719  0.3410 -0.0922
 8508TIP3    H225447   1.468   5.916   2.778 -0.4324 -0.1380  0.2717
 8509TIP3   OH225448   7.693   3.583   3.645  0.8277 -0.1812 -0.2233
 8509TIP3    H125449   7.785   3.566   3.630  0.8668  0.4451 -0.7175
 8509TIP3    H225450   7.649   3.500   3.626  1.3227 -0.5832  0.3810
 8510TIP3   OH225451   8.643   4.961   3.502  0.3512 -0.1350 -0.5966
 8510TIP3    H125452   8.702   4.947   3.575 -0.3603  0.6375  0.1430
 8510TIP3    H225453   8.699   4.986   3.429  1.3251 -3.3297 -1.0319
 8511TIP3   OH225454   7.862   4.870   2.592 -0.3567  0.6661  0.8753
 8511TIP3    H125455   7.826   4.923   2.520 -0.6153 -0.0963  0.4312
 8511TIP3    H225456   7.786   4.823   2.626 -0.4217  1.8292  2.3537
 8512TIP3   OH225457   6.609   1.857   2.887  0.0009 -0.2109  0.0991
 8512TIP3    H125458   6.577   1.772   2.918  2.2873 -1.2960 -0.3598
 8512TIP3    H225459   6.699   1.861   2.919 -0.9804  3.4386  2.7716
 8513TIP3   OH225460   7.591   5.081   4.529 -0.2967 -0.3318 -0.5020
 8513TIP3    H125461   7.679   5.118   4.527 -0.6585  0.5691 -0.1411
 8513TIP3    H225462   7.553   5.114   4.611 -0.2099 -2.5109  0.4425
 8514TIP3   OH225463   0.024   4.836   0.497  0.1599 -0.2030 -0.1224
 8514TIP3    H125464   0.003   4.835   0.404 -1.6369 -2.7152  0.2482
 8514TIP3    H225465   0.070   4.753   0.512 -0.0412 -0.0645  1.3119
 8515TIP3   OH225466   8.623   6.351   2.634  0.8459 -0.0154  0.2375
 8515TIP3    H125467   8.694   6.306   2.588 -0.1530 -1.6320  0.2469
 8515TIP3    H225468   8.651   6.442   2.638  1.7547 -0.1725 -2.0296
 8516TIP3   OH225469   6.355   5.577   3.858 -0.2264  0.5062  1.3270
 8516TIP3    H125470   6.326   5.660   3.819 -0.6054  1.4478  3.5374
 8516TIP3    H225471   6.288   5.514   3.832  0.8791  0.4845 -1.7029
 8517TIP3   OH225472   7.303   5.521   2.325 -0.6896 -0.5556 -0.3304
 8517TIP3    H125473   7.250   5.590   2.285 -1.6613 -0.0631  1.7847
 8517TIP3    H225474   7.312   5.547   2.417 -2.4104 -4.0595  0.8970
 8518TIP3   OH225475   7.718   6.079   2.540 -0.1601  0.7149 -0.1885
 8518TIP3    H125476   7.672   6.110   2.618  2.1437  1.5984  0.8729
 8518TIP3    H225477   7.789   6.143   2.527  3.1676 -2.6562  0.5460
 8519TIP3   OH225478   7.387   6.155   1.362 -0.1767 -0.2128  0.5748
 8519TIP3    H125479   7.383   6.066   1.396  0.4541 -1.0305 -1.4157
 8519TIP3    H225480   7.345   6.150   1.276  1.4629  0.9958 -0.3414
 8520TIP3   OH225481   8.437   6.371   3.188  0.5102 -0.1779 -0.0965
 8520TIP3    H125482   8.505   6.361   3.121  0.8158  1.5766 -0.0677
 8520TIP3    H225483   8.412   6.463   3.183 -0.4167 -0.3452  1.3002
 8521TIP3   OH225484   7.902   4.204   3.106  0.2018 -0.6403 -0.4257
 8521TIP3    H125485   7.915   4.267   3.035  0.3914  0.4060  0.5149
 8521TIP3    H225486   7.979   4.148   3.103  1.2257  0.7088  0.2657
 8522TIP3   OH225487   7.604   5.186   3.398  0.2012 -0.2177  0.3410
 8522TIP3    H125488   7.623   5.275   3.368 -0.5825 -0.1608  0.0027
 8522TIP3    H225489   7.509   5.177   3.389 -0.0531 -0.2613  2.6329
 8523TIP3   OH225490   8.849   5.046   0.983  0.0032 -0.5970 -0.4688
 8523TIP3    H125491   8.823   4.979   1.047 -1.5139  0.3785 -0.0527
 8523TIP3    H225492   8.777   5.048   0.920 -0.1841  0.9725 -0.2156
 8524TIP3   OH225493   7.505   2.331   3.190 -0.2847  0.3071 -0.1190
 8524TIP3    H125494   7.522   2.418   3.225 -1.3093  0.3216  0.3565
 8524TIP3    H225495   7.475   2.280   3.265 -0.2096 -0.3102 -0.5023
 8525TIP3   OH225496   0.133   5.718   1.973 -0.1404 -0.4269  0.2485
 8525TIP3    H125497   0.220   5.687   1.997  0.4507  0.9712 -0.0330
 8525TIP3    H225498   0.082   5.638   1.960  1.0657 -1.2620  0.5082
 8526TIP3   OH225499   1.437   4.889   2.329 -0.5267 -0.0961 -0.2078
 8526TIP3    H125500   1.423   4.820   2.393 -0.6868 -0.1720 -0.3266
 8526TIP3    H225501   1.350   4.919   2.305 -0.4950 -0.5020 -0.8634
 8527TIP3   OH225502   7.668   5.385   3.215  0.2966  0.2047  0.4193
 8527TIP3    H125503   7.739   5.447   3.230  1.0709 -0.6625  0.3573
 8527TIP3    H225504   7.627   5.414   3.134  0.8013  0.4967  0.2701
 8528TIP3   OH225505   0.050   6.543   3.533  0.0651  0.5629 -0.0118
 8528TIP3    H125506   0.074   6.551   3.625 -0.7583  1.7879  0.1107
 8528TIP3    H225507  -0.009   6.617   3.517  1.3602  1.2339 -1.8930
 8529TIP3   OH225508   8.161   5.473   1.951  0.5607  0.3610  0.1789
 8529TIP3    H125509   8.169   5.511   2.038  2.8119  1.9997 -0.7060
 8529TIP3    H225510   8.236   5.414   1.944  0.2018 -0.0160 -0.5563
 8530TIP3   OH225511   0.707   5.110   4.336 -0.3777  0.4948  0.0066
 8530TIP3    H125512   0.774   5.049   4.306  0.7995  1.6637  0.2099
 8530TIP3    H225513   0.628   5.083   4.290  1.2184  1.8361 -3.7276
 8531TIP3   OH225514   0.555   5.210   3.672  0.2625  0.1987 -0.1205
 8531TIP3    H125515   0.620   5.223   3.741 -0.7233  1.2629  0.6263
 8531TIP3    H225516   0.488   5.155   3.712 -0.4883  1.1165 -0.1278
 8532TIP3   OH225517   8.906   6.018   2.716  0.4310  0.4382 -0.2082
 8532TIP3    H125518   8.881   6.106   2.744  2.0578  1.9702 -3.3116
 8532TIP3    H225519   8.839   5.992   2.654  0.5686 -0.0343 -0.1602
 8533TIP3   OH225520   7.468   5.225   1.033 -0.1858 -0.1515 -0.0566
 8533TIP3    H125521   7.380   5.213   1.070 -0.7768 -0.5199 -1.5407
 8533TIP3    H225522   7.490   5.139   0.996  0.6177  0.0606 -0.0692
 8534TIP3   OH225523   1.398   3.954   3.395 -0.1518 -0.1257 -0.1226
 8534TIP3    H125524   1.475   3.940   3.451  0.6369  0.8192 -0.9574
 8534TIP3    H225525   1.434   3.966   3.307 -1.1079  1.9993 -0.2663
 8535TIP3   OH225526   8.641   5.885   3.478  0.0862 -0.3032  0.2956
 8535TIP3    H125527   8.654   5.925   3.564  0.1265  1.2873 -0.4299
 8535TIP3    H225528   8.549   5.858   3.477 -0.4703  1.4990  0.1162
 8536TIP3   OH225529   0.149   5.485   1.362  0.7080 -0.0660 -0.1294
 8536TIP3    H125530   0.237   5.490   1.399  0.5917 -1.3002  0.3253
 8536TIP3    H225531   0.115   5.400   1.390  0.2479 -0.6140 -2.2578
 8537TIP3   OH225532   1.097   6.338   2.955  0.8599  0.0311 -0.3911
 8537TIP3    H125533   1.183   6.366   2.988 -0.4347  0.9955  2.3818
 8537TIP3    H225534   1.075   6.403   2.888  0.8698  1.7725  1.2409
 8538TIP3   OH225535   8.120   6.439   3.813 -0.1852  0.0237 -0.2549
 8538TIP3    H125536   8.103   6.526   3.779  1.9839  0.7012  0.2844
 8538TIP3    H225537   8.163   6.392   3.742 -1.0454 -0.5114 -0.4324
 8539TIP3   OH225538   3.006   3.853   5.578  0.1211 -0.1039  0.2709
 8539TIP3    H125539   2.969   3.893   5.499 -1.1807  1.9512  1.8837
 8539TIP3    H225540   3.095   3.887   5.583 -0.5691  1.6366  0.9496
 8540TIP3   OH225541   0.514   4.353   4.093 -0.1693  0.5184  0.0678
 8540TIP3    H125542   0.595   4.401   4.080  1.1435 -0.9499  2.4472
 8540TIP3    H225543   0.456   4.415   4.139  0.5622  0.7069  0.7445
 8541TIP3   OH225544   7.519   4.777   3.000 -0.3545 -0.3601  0.4204
 8541TIP3    H125545   7.508   4.747   3.090 -1.5690 -0.6573  0.1907
 8541TIP3    H225546   7.449   4.842   2.988 -1.5270 -1.8081 -0.9204
 8542TIP3   OH225547   8.336   4.212   4.266 -0.1428  0.1844 -0.1213
 8542TIP3    H125548   8.362   4.219   4.174  0.5699  0.4837  0.1029
 8542TIP3    H225549   8.327   4.302   4.296  0.0159  0.0873  0.2163
 8543TIP3   OH225550   1.949   7.207   3.660 -0.9433 -0.2167 -0.0772
 8543TIP3    H125551   1.888   7.213   3.587 -0.8184  0.7323 -0.1100
 8543TIP3    H225552   1.976   7.297   3.676 -0.0667 -0.5541  0.3774
 8544TIP3   OH225553   2.104   6.510   2.586  0.1068  0.0171  0.4228
 8544TIP3    H125554   2.063   6.572   2.646 -0.3452 -0.1803  0.3247
 8544TIP3    H225555   2.042   6.437   2.581  1.1452 -0.9400  1.3996
 8545TIP3   OH225556   0.197   5.722   4.612 -0.3410 -0.2368  0.4038
 8545TIP3    H125557   0.173   5.638   4.649 -2.0185 -0.2830 -0.7171
 8545TIP3    H225558   0.114   5.767   4.598  0.5195  1.6537  1.0545
 8546TIP3   OH225559   1.439   7.360   6.420 -0.1984  0.5571 -0.0808
 8546TIP3    H125560   1.499   7.406   6.479 -0.1902 -0.4476  0.7162
 8546TIP3    H225561   1.480   7.275   6.406 -1.9290 -0.5544  1.3402
 8547TIP3   OH225562  -0.020   5.082   5.752  0.1434 -0.0654  0.4049
 8547TIP3    H125563   0.072   5.110   5.750  0.4146 -1.0382 -1.6810
 8547TIP3    H225564  -0.040   5.058   5.662 -0.5997 -4.7906  1.6756
 8548TIP3   OH225565   0.601   7.071   4.007  0.6280  0.2696  0.1831
 8548TIP3    H125566   0.653   7.083   3.928 -0.7296 -0.1813 -0.7872
 8548TIP3    H225567   0.556   6.988   3.994  0.5124  0.1040  1.5114
 8549TIP3   OH225568   8.843   5.717   5.786 -0.2295 -0.2749 -0.2297
 8549TIP3    H125569   8.891   5.768   5.720 -0.3124 -0.7365 -0.6493
 8549TIP3    H225570   8.754   5.711   5.751  0.3845 -2.8539 -1.4084
 8550TIP3   OH225571   1.152   4.836   5.241  0.4643  0.3917  1.0437
 8550TIP3    H125572   1.104   4.825   5.323 -0.1054 -0.9128  0.5340
 8550TIP3    H225573   1.241   4.805   5.262  0.3144  0.0348  1.1631
 8551TIP3   OH225574   7.458   1.888   0.675  0.8687  0.2893  0.3266
 8551TIP3    H125575   7.382   1.891   0.617 -0.9607  1.7535  2.7064
 8551TIP3    H225576   7.523   1.944   0.632 -0.6198  1.7067 -0.1002
 8552TIP3   OH225577   1.535   5.526   3.307  0.2405 -0.1699 -0.1984
 8552TIP3    H125578   1.618   5.565   3.334  0.2166 -0.5796  0.4838
 8552TIP3    H225579   1.474   5.600   3.304  0.5815  0.1010 -0.5101
 8553TIP3   OH225580   0.327   5.316   3.164  0.6367 -0.0217 -0.2720
 8553TIP3    H125581   0.323   5.395   3.111  1.0935 -0.0459 -0.3471
 8553TIP3    H225582   0.419   5.308   3.188  0.2403  0.6006  1.4815
 8554TIP3   OH225583   6.231   0.263   6.078  0.0090  0.2998 -0.5377
 8554TIP3    H125584   6.263   0.179   6.109  0.9872  0.7856 -0.2260
 8554TIP3    H225585   6.135   0.254   6.079  0.0753 -0.3497  0.7683
 8555TIP3   OH225586   1.909   5.925   4.173 -0.4124  0.2806 -0.5734
 8555TIP3    H125587   1.870   6.003   4.133  0.9793  1.5886  0.5637
 8555TIP3    H225588   1.903   5.941   4.267  1.5525 -0.1356 -0.3561
 8556TIP3   OH225589   0.872   7.437   6.951  0.0695  0.3639  0.2081
 8556TIP3    H125590   0.903   7.347   6.941  0.5559  0.3788  1.3784
 8556TIP3    H225591   0.777   7.429   6.959 -0.0949  0.1586 -1.7550
 8557TIP3   OH225592   8.680   5.146   4.634  0.5315  0.5764  0.0656
 8557TIP3    H125593   8.748   5.081   4.653 -0.2017 -0.2933 -0.2564
 8557TIP3    H225594   8.599   5.095   4.628 -0.2994  1.7174  1.3590
 8558TIP3   OH225595   8.236   5.322   5.267  0.0857  0.1596 -0.0553
 8558TIP3    H125596   8.156   5.374   5.280 -0.1505 -0.3211  0.4257
 8558TIP3    H225597   8.217   5.266   5.192 -0.8853 -1.6133  1.4886
 8559TIP3   OH225598   1.636   6.235   3.048 -0.0189  0.1408  1.0560
 8559TIP3    H125599   1.568   6.291   3.086 -1.0521 -0.8057  0.6355
 8559TIP3    H225600   1.618   6.148   3.083 -0.1555 -0.4811 -0.4813
 8560TIP3   OH225601   0.792   3.782   3.527 -0.4887 -0.1760  0.5483
 8560TIP3    H125602   0.820   3.866   3.492  0.4112 -0.7643 -0.1893
 8560TIP3    H225603   0.760   3.801   3.615 -2.6995  1.3200 -0.5578
 8561TIP3   OH225604   8.761   6.192   6.397  0.1788 -0.3537 -0.0755
 8561TIP3    H125605   8.788   6.108   6.433  1.2757 -0.4129 -1.0249
 8561TIP3    H225606   8.815   6.256   6.444  0.2564 -0.2823 -0.2612
 8562TIP3   OH225607   1.470   5.696   4.384  0.1284 -0.0379  0.4393
 8562TIP3    H125608   1.543   5.643   4.354 -0.3103 -0.3646 -0.0693
 8562TIP3    H225609   1.487   5.783   4.349  1.0311  0.2565  1.5739
 8563TIP3   OH225610   8.531   5.023   4.099 -0.0716  0.5975 -0.8700
 8563TIP3    H125611   8.532   4.928   4.091  2.2616  0.5190  0.0420
 8563TIP3    H225612   8.623   5.049   4.093 -0.8071  2.9454 -2.5843
 8564TIP3   OH225613   0.195   5.494   5.199 -0.3240 -0.4208  0.7023
 8564TIP3    H125614   0.224   5.551   5.271 -1.1899 -0.7824  1.3422
 8564TIP3    H225615   0.141   5.550   5.144  1.3076  0.1806 -0.3376
 8565TIP3   OH225616   1.352   5.562   5.625  0.5342  0.4868  0.4080
 8565TIP3    H125617   1.263   5.553   5.662  0.4376  0.2937  0.1324
 8565TIP3    H225618   1.361   5.486   5.568  2.3416 -1.7007  3.4175
 8566TIP3   OH225619   0.095   6.606   5.180 -0.6162  0.2862  0.8134
 8566TIP3    H125620   0.021   6.558   5.217 -0.2669 -0.0591  1.0599
 8566TIP3    H225621   0.121   6.668   5.248 -0.7262  0.4611  0.6982
 8567TIP3   OH225622   1.724   5.854   5.050  0.3119  0.3095 -0.1267
 8567TIP3    H125623   1.817   5.866   5.033 -0.3115  2.1481 -2.5098
 8567TIP3    H225624   1.699   5.777   4.998  0.3740  0.1750  0.0427
 8568TIP3   OH225625   0.387   5.081   5.520 -0.4354 -0.0082  0.5033
 8568TIP3    H125626   0.443   5.071   5.443  0.4477  0.9995  1.0093
 8568TIP3    H225627   0.305   5.036   5.496 -0.3161  0.6408 -1.1683
 8569TIP3   OH225628   8.292   4.954   4.805  0.1738 -0.0117 -0.1899
 8569TIP3    H125629   8.366   4.996   4.849  0.4230 -0.8407  0.1908
 8569TIP3    H225630   8.226   4.942   4.873  0.3587 -0.8252 -0.1557
 8570TIP3   OH225631   1.107   5.256   5.390 -0.7514  0.8087 -0.2057
 8570TIP3    H125632   1.199   5.279   5.405 -0.7959  0.3303  0.8955
 8570TIP3    H225633   1.058   5.322   5.439 -1.0443  1.9183 -1.9646
 8571TIP3   OH225634   0.520   3.961   5.815  0.1503  0.5825  0.5133
 8571TIP3    H125635   0.453   3.951   5.883 -0.5215  1.1921 -0.0459
 8571TIP3    H225636   0.601   3.933   5.857 -0.5941 -0.9588  0.9400
 8572TIP3   OH225637   0.567   6.651   6.065  0.0183 -0.2680 -0.2082
 8572TIP3    H125638   0.503   6.723   6.057  0.5108  0.1391 -0.5582
 8572TIP3    H225639   0.552   6.597   5.987 -0.0435 -0.2901 -0.1814
 8573TIP3   OH225640   5.418   1.083   6.898 -0.5352  0.2946  0.2632
 8573TIP3    H125641   5.397   0.993   6.872 -1.3964  0.6888 -0.4659
 8573TIP3    H225642   5.513   1.085   6.901 -0.4466 -0.2169 -1.3318
 8574TIP3   OH225643   8.269   6.222   4.827 -0.3474 -0.1280  0.0654
 8574TIP3    H125644   8.327   6.155   4.863 -0.7295  1.4884  3.8926
 8574TIP3    H225645   8.327   6.292   4.798 -0.1656 -0.2662  0.1008
 8575TIP3   OH225646   0.004   4.496   6.986  0.1893 -0.2022 -0.0311
 8575TIP3    H125647   0.028   4.473   6.896 -0.7070  0.0245 -0.3359
 8575TIP3    H225648   0.079   4.544   7.020  1.2422 -1.8027 -0.0723
 8576TIP3   OH225649   0.625   6.038   6.682 -0.3707 -0.0534  0.5564
 8576TIP3    H125650   0.647   5.945   6.684 -2.1754 -0.4897  1.5564
 8576TIP3    H225651   0.533   6.040   6.658 -0.3446  1.4815  0.5426
 8577TIP3   OH225652   8.032   3.311   5.337 -0.0104  0.3381  0.1568
 8577TIP3    H125653   7.973   3.364   5.283  0.3030  0.3591 -0.1700
 8577TIP3    H225654   7.976   3.275   5.405 -0.5745 -0.3501 -0.6669
 8578TIP3   OH225655   0.998   6.718   6.021 -0.0596 -0.4746 -0.0191
 8578TIP3    H125656   0.971   6.660   5.949 -1.9410  0.1439  0.1721
 8578TIP3    H225657   0.950   6.685   6.097  3.0290 -2.0412  1.3361
 8579TIP3   OH225658   0.762   4.028   2.767 -0.5298 -0.1272  0.2009
 8579TIP3    H125659   0.751   4.044   2.860 -3.1536  0.4252 -0.1426
 8579TIP3    H225660   0.707   4.095   2.725 -0.9121 -1.5535 -1.6715
 8580TIP3   OH225661   6.253   7.616   6.826 -0.4860  0.8336  0.5559
 8580TIP3    H125662   6.332   7.640   6.875  0.2428 -1.1269  0.3901
 8580TIP3    H225663   6.195   7.581   6.893 -0.8356  1.3348  0.5186
 8581TIP3   OH225664   8.491   5.191   5.234  0.1530 -0.0096 -0.4800
 8581TIP3    H125665   8.585   5.208   5.225  0.2679 -1.0943 -1.5436
 8581TIP3    H225666   8.458   5.194   5.144 -0.7380 -0.1700 -0.1585
 8582TIP3   OH225667   0.614   5.085   2.732  0.7684 -0.1765  0.0192
 8582TIP3    H125668   0.546   5.039   2.682  0.4818  0.0392  0.2109
 8582TIP3    H225669   0.589   5.177   2.727  1.0723 -0.0913  0.0550
 8583TIP3   OH225670   7.686   3.810   3.261  0.3316 -0.4314  0.0416
 8583TIP3    H125671   7.733   3.786   3.182  1.9884 -0.0351  0.8679
 8583TIP3    H225672   7.703   3.904   3.272 -2.4811  0.2383 -0.8074
 8584TIP3   OH225673   0.057   4.613   6.525  0.6029  0.1553 -0.0458
 8584TIP3    H125674   0.102   4.696   6.507  1.7791 -0.6294 -0.7722
 8584TIP3    H225675   0.084   4.555   6.454  1.4699 -1.5125  1.6000
 8585TIP3   OH225676   1.507   4.449   6.613  0.2854 -0.5549 -0.0037
 8585TIP3    H125677   1.447   4.444   6.687  1.6373 -0.9950  1.0703
 8585TIP3    H225678   1.549   4.363   6.610  0.5239 -0.4087 -1.0478
 8586TIP3   OH225679   8.771   5.293   5.036 -0.5522 -0.0857  0.3493
 8586TIP3    H125680   8.805   5.347   4.965  0.3199  0.4697  1.1736
 8586TIP3    H225681   8.833   5.220   5.042 -1.3490 -0.8262 -0.3135
 8587TIP3   OH225682   1.247   7.254   4.172  0.1722  0.4576 -0.3219
 8587TIP3    H125683   1.255   7.349   4.178 -1.2177  0.4584  1.9231
 8587TIP3    H225684   1.153   7.237   4.168  0.3422 -0.9048  0.9972
 8588TIP3   OH225685   1.061   3.773   4.693  0.1098  0.4829  0.0775
 8588TIP3    H125686   1.043   3.685   4.725  1.6790 -0.1774 -0.7822
 8588TIP3    H225687   1.090   3.821   4.770  0.9657 -0.2612  0.2333
 8589TIP3   OH225688   0.563   4.528   5.959  0.0197 -0.2563 -0.3022
 8589TIP3    H125689   0.611   4.461   6.009  0.1754  1.5523  2.0551
 8589TIP3    H225690   0.474   4.494   5.952 -0.6556  0.5174  3.4229
 8590TIP3   OH225691   1.138   5.181   6.383 -0.6070  0.1520 -0.0012
 8590TIP3    H125692   1.095   5.242   6.323  0.4871  0.1252 -0.8099
 8590TIP3    H225693   1.069   5.118   6.406 -0.7174 -0.5400 -2.1495
 8591TIP3   OH225694  -0.014   5.003   4.746  0.3161  0.2791  0.2378
 8591TIP3    H125695   0.062   5.060   4.755  1.2385 -1.0926  1.4530
 8591TIP3    H225696   0.016   4.931   4.690 -0.7004  0.7326 -0.9214
 8592TIP3   OH225697   8.657   4.854   6.208 -0.1406  0.0583  0.1935
 8592TIP3    H125698   8.648   4.786   6.142  0.0179  0.4388 -0.2231
 8592TIP3    H225699   8.599   4.826   6.279 -0.3290 -0.3406 -0.1146
 8593TIP3   OH225700   8.526   4.550   2.705 -0.1716 -0.0654 -0.1073
 8593TIP3    H125701   8.525   4.520   2.615 -1.2064 -0.1835 -0.0639
 8593TIP3    H225702   8.572   4.634   2.703 -1.8528  0.8346 -1.0271
 8594TIP3   OH225703   1.549   6.294   5.137  0.0204 -0.3533  1.0947
 8594TIP3    H125704   1.635   6.260   5.158 -0.3397 -0.2599  2.7229
 8594TIP3    H225705   1.538   6.275   5.043  1.6510 -0.6695  0.9619
 8595TIP3   OH225706   0.168   5.633   6.199  0.5503 -0.0667  0.5796
 8595TIP3    H125707   0.255   5.591   6.194  0.4181 -0.4371  1.1964
 8595TIP3    H225708   0.123   5.604   6.120  1.4864  1.2851 -0.4661
 8596TIP3   OH225709   1.850   8.310   6.221  0.4629  0.3695  0.1927
 8596TIP3    H125710   1.842   8.356   6.137  3.1724 -1.0150 -0.9253
 8596TIP3    H225711   1.920   8.246   6.205 -1.5677 -2.5125  2.3711
 8597TIP3   OH225712   1.368   4.897   4.257  0.2399 -0.5449  0.5367
 8597TIP3    H125713   1.295   4.851   4.215 -0.8293  0.6702  1.0242
 8597TIP3    H225714   1.333   4.984   4.277  1.6336 -0.1562  1.3499
 8598TIP3   OH225715   8.677   6.144   6.137  0.3584  0.3579 -0.4202
 8598TIP3    H125716   8.706   6.171   6.224  0.0653 -1.6723  0.3343
 8598TIP3    H225717   8.748   6.090   6.104 -0.1857 -0.1175 -0.8148
 8599TIP3   OH225718   2.503   7.154   4.180  0.3070 -0.0966  0.7026
 8599TIP3    H125719   2.425   7.199   4.147 -1.0075  0.0392  3.8228
 8599TIP3    H225720   2.534   7.102   4.105 -1.7872  1.1347 -1.0835
 8600TIP3   OH225721   8.872   5.362   5.408  0.2136  0.8439 -0.0247
 8600TIP3    H125722   8.866   5.439   5.352  1.3562  0.2352 -1.0201
 8600TIP3    H225723   8.920   5.391   5.485 -1.2995  1.6719  0.6233
 8601TIP3   OH225724   7.630   5.762   4.819 -0.2938  0.1602 -0.2516
 8601TIP3    H125725   7.715   5.778   4.778 -0.4092 -2.0275 -1.4176
 8601TIP3    H225726   7.651   5.724   4.904 -0.1054  0.4394 -0.1722
 8602TIP3   OH225727   0.489   5.715   5.987  1.2147 -0.1342 -0.0711
 8602TIP3    H125728   0.448   5.761   5.914 -0.9020 -2.1105 -0.1986
 8602TIP3    H225729   0.570   5.679   5.951  0.5636 -0.4498 -1.2256
 8603TIP3   OH225730   1.854   5.737   5.663 -0.3511  0.3520  0.2627
 8603TIP3    H125731   1.765   5.704   5.650  0.0172 -0.8114  0.6423
 8603TIP3    H225732   1.844   5.812   5.722 -0.8976 -0.9557  1.8780
 8604TIP3   OH225733   2.804   0.782   4.157 -0.1994  0.7135 -0.2547
 8604TIP3    H125734   2.753   0.704   4.135  0.8412 -0.3018  0.8948
 8604TIP3    H225735   2.743   0.855   4.142 -1.3332 -0.3330 -0.8778
 8605TIP3   OH225736   8.475   3.150   2.448 -0.2030 -0.0699 -0.3302
 8605TIP3    H125737   8.509   3.071   2.491 -1.3460 -0.3451  0.1050
 8605TIP3    H225738   8.530   3.221   2.480  2.0621 -0.9185 -2.1767
 8606TIP3   OH225739   2.199   6.720   5.977  0.3534 -1.3573  0.7075
 8606TIP3    H125740   2.156   6.760   5.902 -0.6930 -0.7163  1.6464
 8606TIP3    H225741   2.248   6.791   6.018  0.3762 -1.5586  1.0306
 8607TIP3   OH225742   5.546   1.708   0.686 -0.1647 -0.4132 -0.2168
 8607TIP3    H125743   5.532   1.660   0.767 -0.7284  2.0327  1.1775
 8607TIP3    H225744   5.623   1.763   0.703  0.0729 -0.3111 -1.5406
 8608TIP3   OH225745   8.294   5.683   5.699  0.0939  0.9556 -0.1029
 8608TIP3    H125746   8.248   5.643   5.626 -0.7645  1.4222  0.1786
 8608TIP3    H225747   8.309   5.611   5.760  1.3201  0.4502 -0.9782
 8609TIP3   OH225748   8.035   5.962   5.845  0.1697  0.4822  0.0631
 8609TIP3    H125749   8.074   5.884   5.885  0.6884  0.2847 -0.8278
 8609TIP3    H225750   7.967   5.928   5.787  0.9180  0.6447 -0.9222
 8610TIP3   OH225751   0.275   5.130   4.141  0.0196 -0.1723 -0.4266
 8610TIP3    H125752   0.208   5.105   4.077  0.2829 -0.8917 -0.4287
 8610TIP3    H225753   0.274   5.225   4.141 -0.8821 -0.1701 -0.5669
 8611TIP3   OH225754   0.417   3.054   4.627  0.0394  0.5368 -0.0765
 8611TIP3    H125755   0.477   3.110   4.577  0.5939 -1.6380 -1.9675
 8611TIP3    H225756   0.471   2.978   4.650 -1.8309 -1.2462 -1.4092
 8612TIP3   OH225757   0.232   4.290   6.216 -0.2720 -0.2514  0.1426
 8612TIP3    H125758   0.172   4.362   6.200  0.5945  0.6162  0.7458
 8612TIP3    H225759   0.236   4.242   6.133 -1.9226 -0.4293  0.1564
 8613TIP3   OH225760   1.664   7.841   5.861 -0.5299  0.0178 -0.0959
 8613TIP3    H125761   1.589   7.852   5.802 -0.8789  0.2001  0.3787
 8613TIP3    H225762   1.645   7.899   5.935  0.6491  0.9660 -0.5235
 8614TIP3   OH225763   2.491   6.848   5.957  0.0361 -0.2057  0.1219
 8614TIP3    H125764   2.469   6.885   5.872  0.1618  1.3046  0.7243
 8614TIP3    H225765   2.445   6.904   6.020 -1.1885 -2.1090  1.0100
 8615TIP3   OH225766   1.263   6.136   3.915 -0.4754  0.6026  0.5542
 8615TIP3    H125767   1.249   6.211   3.973 -0.2183  0.3000  1.0065
 8615TIP3    H225768   1.284   6.175   3.830 -2.3648  1.0674  0.2762
 8616TIP3   OH225769   6.516   5.381   6.722 -0.1490  1.0314  0.2543
 8616TIP3    H125770   6.428   5.374   6.759 -0.5922  1.6505 -0.6799
 8616TIP3    H225771   6.502   5.402   6.630  0.9854  1.6257  0.2145
 8617TIP3   OH225772   8.460   3.315   4.275 -0.3210  0.0927  0.5512
 8617TIP3    H125773   8.439   3.270   4.357 -0.6274  1.2408  1.1070
 8617TIP3    H225774   8.399   3.278   4.212  1.3830 -2.4195  0.2959
 8618TIP3   OH225775   0.789   5.098   3.205 -0.0890 -0.5528 -0.1604
 8618TIP3    H125776   0.731   5.026   3.181 -0.5323  0.0224 -0.8558
 8618TIP3    H225777   0.805   5.085   3.298 -0.8970 -1.0391 -0.0772
 8619TIP3   OH225778   0.459   6.177   7.249  0.3209  0.1927 -0.2102
 8619TIP3    H125779   0.417   6.093   7.227 -1.5227  0.6640  1.3418
 8619TIP3    H225780   0.397   6.243   7.218 -0.0029  0.9057  1.9087
 8620TIP3   OH225781   7.827   4.488   3.615 -0.0275  1.0100  0.5699
 8620TIP3    H125782   7.828   4.583   3.601 -0.0937  1.1650  1.5256
 8620TIP3    H225783   7.913   4.458   3.586 -0.3353  1.2266 -0.5854
 8621TIP3   OH225784   1.342   6.586   6.093  0.0856 -0.4419  0.1359
 8621TIP3    H125785   1.292   6.639   6.156 -0.2579  1.2576 -1.5194
 8621TIP3    H225786   1.277   6.528   6.054 -0.1813  0.1709 -0.3514
 8622TIP3   OH225787   1.019   6.156   4.986 -0.4268 -0.2279  0.0430
 8622TIP3    H125788   1.057   6.244   4.988 -1.4148  0.1873  0.9488
 8622TIP3    H225789   1.069   6.106   5.050 -0.1237 -0.2331 -0.1923
 8623TIP3   OH225790   2.126   3.586   6.189  0.2968  0.2925  0.1174
 8623TIP3    H125791   2.175   3.654   6.235 -3.7255  3.0963  0.5880
 8623TIP3    H225792   2.094   3.529   6.258  0.2821  0.2955  0.1129
 8624TIP3   OH225793   0.242   5.698   5.397 -0.0145 -0.7800 -0.5161
 8624TIP3    H125794   0.149   5.682   5.406  0.2591 -1.6480  0.8151
 8624TIP3    H225795   0.247   5.782   5.351 -1.4523  0.8243  2.1576
 8625TIP3   OH225796   7.364   3.011   1.610  0.0521 -0.3924  0.1244
 8625TIP3    H125797   7.416   2.931   1.613 -0.7241 -0.8830  0.8334
 8625TIP3    H225798   7.274   2.981   1.623 -0.3690  0.4823 -0.7123
 8626TIP3   OH225799   7.336   4.557   6.746  0.2468 -0.0864  0.0359
 8626TIP3    H125800   7.410   4.554   6.686 -0.2050  0.2759 -0.5493
 8626TIP3    H225801   7.371   4.595   6.826  0.6669  0.1958 -0.2819
 8627TIP3   OH225802   0.624   4.152   4.508 -0.2320  0.0782 -0.3189
 8627TIP3    H125803   0.537   4.161   4.468 -0.1611  3.0766  0.0398
 8627TIP3    H225804   0.607   4.115   4.595 -0.8070 -2.3179 -1.4090
 8628TIP3   OH225805   7.647   0.217   1.647 -0.1429  0.1656  0.9400
 8628TIP3    H125806   7.644   0.234   1.552  0.7393  1.6086  1.1491
 8628TIP3    H225807   7.740   0.204   1.665 -0.2836  0.1164  1.6372
 8629TIP3   OH225808   8.233   5.926   7.151 -0.0099  0.6739 -0.4188
 8629TIP3    H125809   8.254   5.897   7.240 -0.2318 -0.2506 -0.6601
 8629TIP3    H225810   8.139   5.941   7.153  0.1049  1.4242 -0.2920
 8630TIP3   OH225811   0.291   5.511   6.870  0.0440 -0.0431 -0.4122
 8630TIP3    H125812   0.285   5.569   6.794  0.6076  1.5568  0.7340
 8630TIP3    H225813   0.379   5.473   6.864  1.1960  2.2328  0.8898
 8631TIP3   OH225814   0.421   1.280   0.767  0.1371  0.7116 -0.1509
 8631TIP3    H125815   0.508   1.317   0.755  0.1573  1.0127  0.8575
 8631TIP3    H225816   0.365   1.331   0.709  1.0147 -1.0561 -2.6101
 8632TIP3   OH225817   0.795   6.663   6.196  0.2666  0.2825  0.4435
 8632TIP3    H125818   0.709   6.658   6.154  0.8012 -0.6292 -0.5841
 8632TIP3    H225819   0.785   6.616   6.278 -0.4332  0.8947  0.7077
 8633TIP3   OH225820   4.387   7.934   0.341 -0.0240 -0.2754  0.6000
 8633TIP3    H125821   4.437   7.977   0.411 -1.0042  0.1545  1.0410
 8633TIP3    H225822   4.298   7.967   0.352  0.0321  0.6044 -1.5164
 8634TIP3   OH225823   5.069   0.094   2.448 -0.3850 -0.1026 -0.2049
 8634TIP3    H125824   5.131   0.102   2.520  0.2801  1.9955 -0.9689
 8634TIP3    H225825   5.094   0.012   2.404  0.3491 -0.4586  0.8622
 8635TIP3   OH225826   2.099   6.556   4.057  0.2339  0.0638 -0.2216
 8635TIP3    H125827   2.043   6.620   4.015  2.0886  0.5374 -2.0904
 8635TIP3    H225828   2.188   6.580   4.030  1.0504 -2.7353 -0.2651
 8636TIP3   OH225829   5.490   2.402   0.177  0.2397 -0.4620 -0.1557
 8636TIP3    H125830   5.447   2.463   0.237  0.5672  1.2822 -1.6406
 8636TIP3    H225831   5.422   2.340   0.152 -0.2821 -0.2910  0.8191
 8637TIP3   OH225832   1.185   5.427   3.856  0.3035 -0.1986  0.1492
 8637TIP3    H125833   1.193   5.521   3.875  1.5154 -0.3668  0.5013
 8637TIP3    H225834   1.270   5.403   3.821  0.4692 -1.4832  1.4105
 8638TIP3   OH225835   1.551   5.957   3.135 -0.0783  0.4031  0.4437
 8638TIP3    H125836   1.566   5.872   3.095  1.0637  0.6392  0.3583
 8638TIP3    H225837   1.456   5.969   3.131 -0.4816 -1.7784  2.3450
 8639TIP3   OH225838   0.672   3.735   4.469  0.1455 -0.0076  0.1907
 8639TIP3    H125839   0.587   3.766   4.436 -0.0633  1.5569  2.1094
 8639TIP3    H225840   0.734   3.755   4.399 -0.9176 -0.3952 -0.8783
 8640TIP3   OH225841   1.392   6.550   4.560 -0.5885  0.0529  0.3850
 8640TIP3    H125842   1.405   6.457   4.541 -2.0686 -0.0993  0.0228
 8640TIP3    H225843   1.473   6.592   4.532 -0.0246 -1.0880  0.2713
 8641TIP3   OH225844   1.307   6.110   3.013 -0.4996 -0.0922 -0.5458
 8641TIP3    H125845   1.310   6.027   2.965 -0.9885  0.2928 -1.2437
 8641TIP3    H225846   1.312   6.177   2.945  3.7613  0.5060  0.1778
 8642TIP3   OH225847   1.986   4.042   4.898 -0.3294  0.9865  0.3042
 8642TIP3    H125848   2.055   4.067   4.960  0.3444  2.2700 -0.9271
 8642TIP3    H225849   2.015   3.958   4.862  0.0835  1.0298  0.5303
 8643TIP3   OH225850   2.222   4.958   5.992  0.1005  0.3930  0.5209
 8643TIP3    H125851   2.207   4.960   6.087 -1.5679 -3.1411  0.3980
 8643TIP3    H225852   2.310   4.922   5.983  0.4762  1.2422  0.7072
 8644TIP3   OH225853   7.311   1.139   0.886  0.0165 -0.7749 -0.2629
 8644TIP3    H125854   7.362   1.089   0.822  0.3319 -0.9481  0.1210
 8644TIP3    H225855   7.336   1.230   0.871 -0.1961 -0.7795 -0.6408
 8645TIP3   OH225856   1.754   4.871   4.235  0.9053  0.2543  0.3467
 8645TIP3    H125857   1.683   4.845   4.177  1.3887  0.6632 -0.4452
 8645TIP3    H225858   1.827   4.813   4.212  0.5465 -0.8009  1.8070
 8646TIP3   OH225859   0.346   6.012   6.584 -0.0376 -0.4394  0.5485
 8646TIP3    H125860   0.379   6.072   6.517  0.5555  1.0393  2.1303
 8646TIP3    H225861   0.251   6.011   6.570 -0.1010  1.1779  0.7356
 8647TIP3   OH225862   0.935   5.751   5.669 -0.1925 -0.3882 -0.3146
 8647TIP3    H125863   0.864   5.733   5.608 -0.8316  1.0962 -0.0221
 8647TIP3    H225864   0.946   5.846   5.666  1.5524 -0.5604 -0.0994
 8648TIP3   OH225865   3.456   4.267   5.758 -0.4791  0.0817 -0.0490
 8648TIP3    H125866   3.494   4.251   5.671 -1.3522 -2.1521 -0.0500
 8648TIP3    H225867   3.497   4.201   5.814 -2.3430 -0.6106  0.5146
 8649TIP3   OH225868   8.634   1.408   0.485  0.2129 -0.7155 -0.1147
 8649TIP3    H125869   8.619   1.313   0.482 -0.0258 -0.6466 -1.4062
 8649TIP3    H225870   8.577   1.439   0.556  3.0384 -1.9974  2.8738
 8650TIP3   OH225871   2.816   6.772   6.020 -0.4461  0.1783 -0.1872
 8650TIP3    H125872   2.803   6.726   6.103  0.4274  1.0070  0.4230
 8650TIP3    H225873   2.745   6.741   5.964 -0.9468 -0.5185  0.8155
 8651TIP3   OH225874   2.474   6.193   4.069 -0.0857 -0.3680 -0.0448
 8651TIP3    H125875   2.458   6.287   4.068  0.0566 -0.3444 -0.2722
 8651TIP3    H225876   2.391   6.154   4.094  0.1782 -0.1148  1.2652
 8652TIP3   OH225877   2.611   5.686   5.201 -0.5777 -0.1656 -0.4476
 8652TIP3    H125878   2.599   5.622   5.271  0.9667  1.3087  1.2320
 8652TIP3    H225879   2.695   5.664   5.162 -0.8348 -0.1833 -1.0018
 8653TIP3   OH225880   0.380   2.792   3.950  0.1674  0.4302 -0.5630
 8653TIP3    H125881   0.325   2.823   4.022 -1.3364 -0.2732 -1.4052
 8653TIP3    H225882   0.402   2.871   3.901  0.8161  0.8518  0.3659
 8654TIP3   OH225883   0.198   7.583   3.375  0.1222  0.6037 -0.1196
 8654TIP3    H125884   0.211   7.529   3.453  2.2066 -0.5355 -1.2070
 8654TIP3    H225885   0.209   7.673   3.406  0.5316  0.1829  0.9766
 8655TIP3   OH225886   6.447   6.214   5.814 -0.5651 -0.2707  0.0272
 8655TIP3    H125887   6.537   6.186   5.797  0.0732  0.3433  2.1635
 8655TIP3    H225888   6.408   6.225   5.727  2.0957  1.5849 -1.0094
 8656TIP3   OH225889   0.151   4.782   5.701 -0.1019 -0.6926 -0.0603
 8656TIP3    H125890   0.076   4.828   5.739  1.0573  0.7992  0.4583
 8656TIP3    H225891   0.168   4.709   5.761 -0.5658 -0.4950  0.3112
 8657TIP3   OH225892   1.571   8.014   6.062  0.5138 -0.4011  0.2911
 8657TIP3    H125893   1.535   8.091   6.017  0.5483  0.0660  1.0449
 8657TIP3    H225894   1.504   7.991   6.127  1.8385  0.9039  2.1911
 8658TIP3   OH225895   7.875   5.438   6.417 -0.0626 -0.1586 -0.4052
 8658TIP3    H125896   7.927   5.518   6.411  0.7784 -0.6735 -0.1299
 8658TIP3    H225897   7.818   5.453   6.493  0.4202 -0.0085 -0.0687
 8659TIP3   OH225898   1.177   5.957   4.174  0.4417 -0.1924  0.1384
 8659TIP3    H125899   1.199   5.892   4.240  0.5414  0.0145  0.3086
 8659TIP3    H225900   1.253   6.016   4.172  0.3759 -0.1144 -0.0541
 8660TIP3   OH225901   1.750   6.457   5.524  0.7629 -0.2131  0.3573
 8660TIP3    H125902   1.719   6.390   5.585  1.0399 -1.3904 -0.7675
 8660TIP3    H225903   1.791   6.407   5.453 -0.3413  1.0909 -1.2307
 8661TIP3   OH225904   8.140   2.719   3.947  0.2558 -0.6319  0.2505
 8661TIP3    H125905   8.140   2.692   4.039  2.2486 -1.7264 -0.0481
 8661TIP3    H225906   8.233   2.726   3.924 -0.2094  1.8140 -1.0692
 8662TIP3   OH225907   6.923   4.366   6.937 -1.0019 -0.3636 -0.4210
 8662TIP3    H125908   6.888   4.430   6.874  2.0459  0.8922 -0.9132
 8662TIP3    H225909   6.952   4.420   7.011  0.7160 -1.2763 -0.4228
 8663TIP3   OH225910   2.334   1.770   4.040 -0.2955 -0.3426 -0.1811
 8663TIP3    H125911   2.388   1.715   3.983 -0.8931 -0.3019 -0.7796
 8663TIP3    H225912   2.344   1.729   4.127 -0.7508 -1.4131 -0.6237
 8664TIP3   OH225913   8.678   4.716   4.736  0.1330 -0.2993  0.2850
 8664TIP3    H125914   8.679   4.765   4.818 -0.9356  0.0516  0.1028
 8664TIP3    H225915   8.746   4.758   4.682 -1.4994  1.7482 -0.2735
 8665TIP3   OH225916   1.391   5.769   3.308  0.0446 -0.1783  0.0473
 8665TIP3    H125917   1.443   5.832   3.358  1.8190 -0.1772 -1.7093
 8665TIP3    H225918   1.314   5.818   3.279 -0.2820  0.2123  1.5454
 8666TIP3   OH225919   0.861   4.262   4.740  0.2775 -0.3553 -0.3345
 8666TIP3    H125920   0.854   4.167   4.751 -2.9245 -0.2075 -0.7547
 8666TIP3    H225921   0.822   4.279   4.654  0.9787  1.3469 -0.3353
 8667TIP3   OH225922   1.749   4.511   4.801  0.0297 -0.0854 -0.1747
 8667TIP3    H125923   1.811   4.582   4.780  0.2958  0.6032  2.7997
 8667TIP3    H225924   1.775   4.482   4.888 -2.2827 -1.5251  0.0541
 8668TIP3   OH225925   7.291   5.305   4.612  0.3984  0.2649 -0.3055
 8668TIP3    H125926   7.337   5.328   4.693 -0.1061 -2.2776  0.7580
 8668TIP3    H225927   7.318   5.372   4.549  1.9600  1.4421  1.5629
 8669TIP3   OH225928   2.903   5.428   5.239 -0.1057  0.1812  0.3030
 8669TIP3    H125929   2.832   5.393   5.292  0.0141  1.1067  1.0859
 8669TIP3    H225930   2.983   5.400   5.283  0.0424 -1.5373 -1.0163
 8670TIP3   OH225931   2.328   6.815   4.895 -0.0578  0.1807  0.0765
 8670TIP3    H125932   2.317   6.863   4.813 -1.4175  0.7757  0.5978
 8670TIP3    H225933   2.421   6.826   4.916  0.0495  1.0054 -0.7733
 8671TIP3   OH225934   2.182   6.510   4.312  0.5369  0.1097  0.1803
 8671TIP3    H125935   2.260   6.454   4.309  0.1356 -0.3808 -1.7270
 8671TIP3    H225936   2.169   6.538   4.222  0.1843  2.5693  0.9600
 8672TIP3   OH225937   4.028   6.283   4.241 -0.6854  0.2987 -0.4758
 8672TIP3    H125938   3.992   6.327   4.164 -0.9515 -0.9702 -1.0801
 8672TIP3    H225939   3.960   6.221   4.267  0.3370 -0.8795 -0.5761
 8673TIP3   OH225940   2.263   7.414   4.634 -0.2182 -0.7472 -0.2646
 8673TIP3    H125941   2.331   7.476   4.609  0.6217 -1.8395 -0.7190
 8673TIP3    H225942   2.225   7.385   4.551 -0.8805 -0.5504 -0.0368
 8674TIP3   OH225943   0.715   4.840   5.616 -0.0008  0.0110 -0.8070
 8674TIP3    H125944   0.797   4.804   5.582  1.4095  2.6503 -0.3150
 8674TIP3    H225945   0.658   4.848   5.539  0.7979 -0.2628 -1.4266
 8675TIP3   OH225946   2.365   5.379   5.383 -0.2935  1.0675 -0.2182
 8675TIP3    H125947   2.349   5.298   5.335  1.1655  1.0876 -0.7671
 8675TIP3    H225948   2.292   5.385   5.445 -1.1877  0.0821 -1.1543
 8676TIP3   OH225949   0.306   3.964   6.001 -0.6197  0.2325  0.0695
 8676TIP3    H125950   0.224   4.003   5.972  0.0663  1.6933  0.0361
 8676TIP3    H225951   0.284   3.919   6.083 -1.0513  2.3688  1.1579
 8677TIP3   OH225952   1.051   6.459   6.185 -0.4372  0.2471 -0.6382
 8677TIP3    H125953   1.067   6.537   6.238 -0.2902  0.2106 -0.6305
 8677TIP3    H225954   0.959   6.467   6.159 -0.3932  0.4791 -0.7291
 8678TIP3   OH225955   3.277   5.206   5.686  0.6074 -0.4322  0.0089
 8678TIP3    H125956   3.307   5.226   5.774  0.1600  0.7288 -0.0931
 8678TIP3    H225957   3.345   5.239   5.628 -1.3156  3.3082 -0.2778
 8679TIP3   OH225958   3.687   5.325   4.740 -0.1233  0.1264 -0.7791
 8679TIP3    H125959   3.614   5.369   4.784 -1.3423 -2.6338  0.0349
 8679TIP3    H225960   3.656   5.311   4.651 -0.3982 -0.5728 -0.5769
 8680TIP3   OH225961   1.893   4.176   4.048  0.4976 -0.0354 -0.0393
 8680TIP3    H125962   1.903   4.209   3.959 -0.4392  0.5454  0.0616
 8680TIP3    H225963   1.807   4.208   4.075 -0.8306 -3.2028 -0.2318
 8681TIP3   OH225964   0.766   5.326   4.123  0.1767 -0.5512  0.6392
 8681TIP3    H125965   0.838   5.379   4.089  0.0631 -1.1136 -0.5208
 8681TIP3    H225966   0.690   5.385   4.120  0.4666 -0.1431  1.2967
 8682TIP3   OH225967   2.922   4.340   6.698 -0.6199  0.2295 -0.1449
 8682TIP3    H125968   2.919   4.420   6.752  1.3563  0.1917  0.0676
 8682TIP3    H225969   2.961   4.369   6.616 -0.6429 -0.3614 -0.3623
 8683TIP3   OH225970   0.547   5.297   6.129 -0.2120 -0.8180  0.2378
 8683TIP3    H125971   0.533   5.234   6.199  3.3866 -0.8842  1.0114
 8683TIP3    H225972   0.605   5.252   6.067 -0.5541  0.4495 -1.0273
 8684TIP3   OH225973   1.936   5.305   5.462  0.6832 -0.4524  0.2535
 8684TIP3    H125974   2.008   5.243   5.451  0.6525 -0.4864  0.2420
 8684TIP3    H225975   1.975   5.391   5.445  0.8668 -0.4109  0.8604
 8685TIP3   OH225976   0.704   4.127   5.637 -0.4750  0.3586  0.0043
 8685TIP3    H125977   0.655   4.207   5.620  0.2601  0.6937 -0.5001
 8685TIP3    H225978   0.641   4.071   5.684 -1.4434  0.6702 -0.9049
 8686TIP3   OH225979   1.482   6.709   3.311 -0.2029 -0.0841 -0.0879
 8686TIP3    H125980   1.518   6.707   3.400  0.2031 -1.6961 -0.2757
 8686TIP3    H225981   1.496   6.620   3.278 -1.1732  0.2601 -1.4361
 8687TIP3   OH225982   3.320   5.949   4.898 -0.6591  0.0013  1.1360
 8687TIP3    H125983   3.295   5.939   4.806 -0.2437 -0.6192  1.0846
 8687TIP3    H225984   3.413   5.926   4.900  0.2542  3.3442  1.1091
 8688TIP3   OH225985   0.599   4.786   5.880 -0.2533 -0.0835 -0.4529
 8688TIP3    H125986   0.603   4.690   5.881  2.8083 -0.0048 -0.0632
 8688TIP3    H225987   0.634   4.810   5.794 -1.5343  0.6926 -0.7698
 8689TIP3   OH225988   2.348   5.590   4.734  0.1108  0.4976 -1.1451
 8689TIP3    H125989   2.287   5.581   4.807 -0.0100 -0.7772 -1.4048
 8689TIP3    H225990   2.341   5.508   4.686  0.3812  1.2295 -2.4464
 8690TIP3   OH225991   8.711   6.452   4.952  0.5294 -0.6270 -0.1343
 8690TIP3    H125992   8.725   6.448   5.046 -2.3480  0.1390  0.3774
 8690TIP3    H225993   8.647   6.384   4.934 -1.9117  1.7640 -0.8741
 8691TIP3   OH225994   0.816   5.357   4.432 -0.0428  0.2448  0.2773
 8691TIP3    H125995   0.779   5.306   4.360  1.1760 -0.4459  0.1240
 8691TIP3    H225996   0.742   5.375   4.489 -0.6834 -0.8205 -0.1990
 8692TIP3   OH225997   2.485   6.851   6.770 -0.2154 -0.1830 -0.2228
 8692TIP3    H125998   2.555   6.795   6.735  0.1242  0.0773  0.0408
 8692TIP3    H225999   2.446   6.892   6.692 -0.2547 -0.5394 -0.3916
 8693TIP3   OH226000   3.919   4.741   5.814  0.8259  0.7989 -0.1351
 8693TIP3    H126001   3.867   4.756   5.735  0.2094  3.4722  0.7349
 8693TIP3    H226002   3.934   4.647   5.815 -1.0407  0.4386 -2.2615
 8694TIP3   OH226003   1.809   4.543   5.600 -0.1012  0.1297  0.5002
 8694TIP3    H126004   1.793   4.574   5.690  1.8663  0.7291  0.6643
 8694TIP3    H226005   1.772   4.455   5.598 -0.5704  0.2871  1.7594
 8695TIP3   OH226006   3.094   6.725   2.682 -0.2811  0.6249 -0.7808
 8695TIP3    H126007   3.130   6.692   2.764 -0.6215 -0.0808 -0.9156
 8695TIP3    H226008   3.050   6.806   2.707 -1.7751 -0.4126  0.0117
 8696TIP3   OH226009   2.864   5.224   2.176 -0.2747  0.6372 -0.0010
 8696TIP3    H126010   2.918   5.285   2.227  0.4555 -0.5081  0.6084
 8696TIP3    H226011   2.813   5.178   2.242 -1.6115  1.3228 -0.5399
 8697TIP3   OH226012   3.706   7.098   4.871  0.2613 -0.5773  0.0146
 8697TIP3    H126013   3.734   7.114   4.782  2.7702  0.6658  0.9921
 8697TIP3    H226014   3.610   7.106   4.868  0.2742 -1.0326 -2.6112
 8698TIP3   OH226015   1.458   5.624   5.932  0.1421 -0.0219  0.0213
 8698TIP3    H126016   1.489   5.571   5.859 -0.9140 -0.2417 -0.2726
 8698TIP3    H226017   1.465   5.567   6.008  1.2807  0.2190  0.0996
 8699TIP3   OH226018   3.789   4.734   3.952 -0.3352  0.0448 -0.0113
 8699TIP3    H126019   3.712   4.769   3.908 -1.3108 -1.1554  0.6755
 8699TIP3    H226020   3.753   4.674   4.018  1.1742 -0.2110  0.5998
 8700TIP3   OH226021   1.206   6.377   4.980 -0.0342  0.4954 -0.0314
 8700TIP3    H126022   1.218   6.441   4.910 -0.4457 -0.2356 -0.7770
 8700TIP3    H226023   1.270   6.402   5.047  0.5967  0.9966 -0.8176
 8701TIP3   OH226024   5.096   5.352   4.084 -0.2030 -0.2613 -0.7030
 8701TIP3    H126025   5.131   5.280   4.031  0.0104  0.8632 -2.1549
 8701TIP3    H226026   5.174   5.403   4.108 -0.3928 -0.2838 -0.0392
 8702TIP3   OH226027   2.479   5.030   5.990  0.6444  0.1973  0.2579
 8702TIP3    H126028   2.433   5.105   5.953  0.9097 -0.3990 -1.3072
 8702TIP3    H226029   2.544   5.068   6.049  0.7249  1.1884 -0.4591
 8703TIP3   OH226030   0.419   5.039   5.105  0.9143  0.2188 -0.6006
 8703TIP3    H126031   0.421   5.134   5.104  0.9995  0.2205 -0.4345
 8703TIP3    H226032   0.475   5.015   5.179 -2.7245  0.1428  2.2526
 8704TIP3   OH226033   0.899   6.422   5.597 -0.7245  0.1052  0.0198
 8704TIP3    H126034   0.819   6.399   5.549 -1.2743 -0.1539  1.0422
 8704TIP3    H226035   0.949   6.476   5.536 -0.5282 -1.7701 -1.5604
 8705TIP3   OH226036   8.718   5.651   2.204 -0.1938  0.8075  0.3086
 8705TIP3    H126037   8.809   5.633   2.181 -0.8423 -1.5262 -0.6733
 8705TIP3    H226038   8.709   5.617   2.294 -0.4724 -0.4249 -0.1741
 8706TIP3   OH226039   2.629   5.981   6.021  0.5682 -0.3750  0.5176
 8706TIP3    H126040   2.600   5.966   5.931 -0.2388 -0.9779  0.8698
 8706TIP3    H226041   2.564   6.040   6.058 -0.2497 -1.7328  1.3112
 8707TIP3   OH226042   2.356   7.375   6.657 -0.2132 -0.0680  0.0639
 8707TIP3    H126043   2.347   7.465   6.628  0.5636 -0.2604 -0.8001
 8707TIP3    H226044   2.450   7.360   6.664 -0.2805 -1.2338 -1.2002
 8708TIP3   OH226045   3.956   6.930   4.555 -0.0402 -0.3367  0.5941
 8708TIP3    H126046   3.934   7.000   4.616 -0.1655 -0.0938  0.2689
 8708TIP3    H226047   3.945   6.968   4.468 -0.0674 -0.7418  0.4146
 8709TIP3   OH226048   1.870   5.570   6.103  0.0562  0.0894  0.4943
 8709TIP3    H126049   1.919   5.553   6.023 -1.0751 -0.5436 -0.0788
 8709TIP3    H226050   1.844   5.483   6.134  0.6373  0.3145  1.6541
 8710TIP3   OH226051   2.368   8.221   4.917 -0.0742 -0.3487 -0.1211
 8710TIP3    H126052   2.349   8.178   5.000  1.2458  0.0464  0.4003
 8710TIP3    H226053   2.363   8.315   4.937 -0.4786 -0.2511 -0.6619
 8711TIP3   OH226054   0.747   6.390   4.186 -0.1050  0.0368  0.3647
 8711TIP3    H126055   0.790   6.434   4.259 -0.2469 -0.3444  0.6843
 8711TIP3    H226056   0.813   6.330   4.152  0.5005  1.3922 -0.8712
 8712TIP3   OH226057   0.822   5.980   2.577 -1.0125  0.2372 -0.2939
 8712TIP3    H126058   0.789   6.024   2.499 -1.1051  0.5476 -0.0801
 8712TIP3    H226059   0.780   6.025   2.650 -0.6988  0.1417 -0.0529
 8713TIP3   OH226060   1.283   5.546   3.157  0.0168 -0.2717  0.0270
 8713TIP3    H126061   1.280   5.628   3.206  0.7490  0.5040 -1.2104
 8713TIP3    H226062   1.194   5.512   3.164 -0.1254  0.2724  1.1201
 8714TIP3   OH226063   2.972   6.712   2.341 -0.3584 -0.4923 -0.5167
 8714TIP3    H126064   2.910   6.752   2.402 -1.8811 -0.2896 -2.1498
 8714TIP3    H226065   2.922   6.643   2.298  0.9600 -1.2202 -0.9034
 8715TIP3   OH226066   1.625   6.821   3.559 -0.2844  0.2441  0.3674
 8715TIP3    H126067   1.592   6.910   3.551  0.8970  0.5165 -1.6207
 8715TIP3    H226068   1.720   6.829   3.554 -0.1567 -1.1039  0.2740
 8716TIP3   OH226069   1.743   5.699   3.360  0.1201 -0.2267 -0.5739
 8716TIP3    H126070   1.727   5.790   3.336  1.6152  0.7592  1.9578
 8716TIP3    H226071   1.836   5.686   3.346  0.4649 -0.4813  1.7903
 8717TIP3   OH226072   3.410   5.529   6.200  0.0786 -0.1078  0.3565
 8717TIP3    H126073   3.420   5.542   6.294  3.4174 -0.8481  0.1562
 8717TIP3    H226074   3.434   5.612   6.161  0.8492 -0.4775  0.0469
 8718TIP3   OH226075   3.855   6.871   5.548 -0.1155  0.3889  0.0040
 8718TIP3    H126076   3.810   6.919   5.478 -0.6041  0.8960  0.6699
 8718TIP3    H226077   3.785   6.832   5.600  0.2649 -0.8101 -0.3416
 8719TIP3   OH226078   1.865   7.324   1.344 -0.6375 -0.1829 -0.3044
 8719TIP3    H126079   1.960   7.332   1.353 -0.3567 -1.0247 -2.3464
 8719TIP3    H226080   1.832   7.327   1.434  1.3104  0.0729  0.4233
 8720TIP3   OH226081   1.838   4.471   4.355 -0.1789  0.3166 -0.3029
 8720TIP3    H126082   1.770   4.486   4.289 -0.1871 -2.4694 -0.9925
 8720TIP3    H226083   1.790   4.437   4.431  0.1573  0.6920  0.0733
 8721TIP3   OH226084   3.609   8.106   1.446 -0.3891 -0.1773 -0.6269
 8721TIP3    H126085   3.699   8.117   1.416  0.8907  2.7887  3.7543
 8721TIP3    H226086   3.559   8.173   1.400  0.2442  0.1975 -0.7607
 8722TIP3   OH226087   2.198   7.242   1.610  0.2189  0.4974  0.0680
 8722TIP3    H126088   2.259   7.173   1.583 -1.4803 -0.6288 -0.9692
 8722TIP3    H226089   2.142   7.200   1.676 -1.5977  0.4980 -1.4324
 8723TIP3   OH226090   1.519   5.757   6.266 -0.0838  0.0529  0.1972
 8723TIP3    H126091   1.460   5.762   6.341 -1.3863 -0.8232 -0.7414
 8723TIP3    H226092   1.508   5.668   6.233  0.9395  0.2361 -0.6703
 8724TIP3   OH226093   2.901   6.223   4.884 -0.0384  0.0659 -0.0883
 8724TIP3    H126094   2.908   6.130   4.901 -0.4793  0.1585  0.6007
 8724TIP3    H226095   2.842   6.256   4.952 -1.0954  0.5831 -1.2348
 8725TIP3   OH226096   1.559   6.124   4.452 -0.0348 -0.0433 -0.2636
 8725TIP3    H126097   1.511   6.151   4.530 -0.1879 -0.7973 -0.0959
 8725TIP3    H226098   1.496   6.134   4.381  0.2005  0.9473 -0.3477
 8726TIP3   OH226099   3.913   4.569   6.561 -0.1340  0.4493 -0.0145
 8726TIP3    H126100   3.860   4.494   6.589  1.4685 -0.4189  0.6936
 8726TIP3    H226101   3.855   4.645   6.574 -0.7892 -0.3553  1.8835
 8727TIP3   OH226102   2.551   6.601   2.944  0.2282 -0.0294 -0.5911
 8727TIP3    H126103   2.623   6.656   2.914 -0.0829 -0.1803 -1.6031
 8727TIP3    H226104   2.586   6.557   3.022  1.6530 -1.0304 -1.7633
 8728TIP3   OH226105   1.624   5.610   4.651  0.3744 -0.0372 -0.0723
 8728TIP3    H126106   1.641   5.516   4.649  4.1858  0.6345 -1.8865
 8728TIP3    H226107   1.582   5.629   4.567  0.8112  0.1071 -0.2557
 8729TIP3   OH226108   2.808   5.337   4.929 -0.3018 -0.4165  0.1173
 8729TIP3    H126109   2.882   5.388   4.895  0.0767 -1.2070 -0.2468
 8729TIP3    H226110   2.731   5.380   4.893  0.0263 -0.2394 -0.3739
 8730TIP3   OH226111   1.452   2.276   4.973 -0.2264 -0.0437 -0.1968
 8730TIP3    H126112   1.408   2.254   4.891 -1.2428 -0.2022  0.3694
 8730TIP3    H226113   1.514   2.205   4.988 -0.5685 -0.3950 -0.4534
 8731TIP3   OH226114   2.320   6.749   2.679  0.2077  0.0264  0.0333
 8731TIP3    H126115   2.284   6.664   2.704  0.1185 -0.6768 -2.3697
 8731TIP3    H226116   2.244   6.808   2.678  0.0653 -0.1446  0.4474
 8732TIP3   OH226117   1.399   7.402   6.149 -0.0812 -0.4884 -0.2124
 8732TIP3    H126118   1.474   7.395   6.091 -0.0561 -0.7253 -0.1555
 8732TIP3    H226119   1.432   7.371   6.234 -0.6957 -2.2763 -0.5984
 8733TIP3   OH226120   8.842   5.268   5.945 -0.7715 -0.0333 -0.0227
 8733TIP3    H126121   8.867   5.216   5.869  1.6329 -0.4574  0.9923
 8733TIP3    H226122   8.777   5.214   5.991  0.6505 -1.5401  0.2698
 8734TIP3   OH226123   1.679   5.335   4.653  0.1922  0.3303 -0.5163
 8734TIP3    H126124   1.745   5.268   4.635 -0.2025  0.1449 -1.2967
 8734TIP3    H226125   1.596   5.293   4.631 -0.3205  0.1568  1.5646
 8735TIP3   OH226126   0.991   7.261   4.106  0.8358 -0.2126 -0.6094
 8735TIP3    H126127   0.937   7.183   4.119  2.1018 -1.0356 -0.1945
 8735TIP3    H226128   0.930   7.334   4.119 -0.4982 -1.1150 -1.5729
 8736TIP3   OH226129   0.969   4.937   4.534 -0.0145 -0.0682  0.0157
 8736TIP3    H126130   0.891   4.974   4.577 -1.7645 -3.0085 -0.4398
 8736TIP3    H226131   1.001   4.871   4.596  0.5331 -0.6987 -0.9218
 8737TIP3   OH226132   8.625   3.389   5.736 -0.3291 -0.4825  0.5041
 8737TIP3    H126133   8.629   3.435   5.652  1.7052  0.8121  1.2648
 8737TIP3    H226134   8.583   3.306   5.716 -2.0315  0.7599 -1.3504
 8738TIP3   OH226135   2.889   6.325   5.481 -0.1004 -0.1939  0.5053
 8738TIP3    H126136   2.820   6.296   5.540  0.1535 -2.0711 -0.0647
 8738TIP3    H226137   2.851   6.317   5.394  0.5404 -0.4093  0.2403
 8739TIP3   OH226138   3.527   4.056   4.133  0.2639  0.0677  0.1039
 8739TIP3    H126139   3.452   3.999   4.114  0.3218 -0.1647  0.5695
 8739TIP3    H226140   3.545   4.100   4.050 -0.4497  0.1993  0.0118
 8740TIP3   OH226141   1.360   3.742   5.210  0.2987  0.3203 -0.1174
 8740TIP3    H126142   1.419   3.669   5.227  1.1526  0.9457 -0.3538
 8740TIP3    H226143   1.411   3.802   5.154  0.1032  1.7376  1.1876
 8741TIP3   OH226144   8.150   3.261   6.361 -0.1086  0.0617  0.4774
 8741TIP3    H126145   8.152   3.168   6.382 -0.5978 -0.2249 -0.7215
 8741TIP3    H226146   8.178   3.266   6.270 -1.6541  0.9305  0.0242
 8742TIP3   OH226147   2.491   4.857   5.711  0.1782 -0.0759 -0.2493
 8742TIP3    H126148   2.463   4.772   5.747 -0.5249  0.3915  0.3269
 8742TIP3    H226149   2.560   4.886   5.771 -2.3554  1.6305  1.9294
 8743TIP3   OH226150   2.500   4.568   4.093 -0.1329 -0.0894  0.0506
 8743TIP3    H126151   2.533   4.656   4.108 -0.6698  0.2312 -0.6098
 8743TIP3    H226152   2.469   4.569   4.003 -0.0001 -1.0028 -0.0154
 8744TIP3   OH226153   1.980   7.990   5.313  0.2745 -0.1993  0.2726
 8744TIP3    H126154   1.906   7.960   5.260  1.0524  0.2703 -1.0866
 8744TIP3    H226155   1.968   8.084   5.319  1.6112  0.0857 -1.2761
 8745TIP3   OH226156   2.772   4.794   4.756 -0.3213 -0.3957  0.3083
 8745TIP3    H126157   2.758   4.869   4.815  1.3051 -1.3861  1.9783
 8745TIP3    H226158   2.862   4.768   4.770 -0.1002 -1.1089 -2.1569
 8746TIP3   OH226159   2.131   6.072   3.905  0.5279  0.5706 -0.0771
 8746TIP3    H126160   2.161   6.133   3.838  0.7749  1.7805  1.0996
 8746TIP3    H226161   2.128   5.987   3.862 -1.1572  1.6384 -2.1538
 8747TIP3   OH226162   1.071   5.234   4.725 -0.8771  0.6651 -0.1006
 8747TIP3    H126163   1.076   5.235   4.630 -0.9840  1.3457 -0.0987
 8747TIP3    H226164   1.034   5.148   4.746  0.1941  0.0683 -0.6164
 8748TIP3   OH226165   3.142   4.569   4.216  0.0147 -0.3202  0.3319
 8748TIP3    H126166   3.178   4.625   4.147  1.0541 -1.6797 -0.2363
 8748TIP3    H226167   3.204   4.497   4.224  0.4208  0.3020  3.3659
 8749TIP3   OH226168   1.077   6.026   2.666  0.0560 -0.0423  0.7353
 8749TIP3    H126169   0.997   5.976   2.647 -0.0646  0.3537  0.1942
 8749TIP3    H226170   1.086   6.086   2.592  2.4435 -2.0320 -0.6463
 8750TIP3   OH226171   3.437   3.934   2.447  0.1360 -0.1646  0.5609
 8750TIP3    H126172   3.379   3.987   2.393 -0.7831 -1.7428 -0.0568
 8750TIP3    H226173   3.440   3.979   2.531  0.1328  1.3524 -0.2330
 8751TIP3   OH226174   3.266   4.155   3.802 -0.0606  0.6852  0.8245
 8751TIP3    H126175   3.192   4.198   3.758 -0.1664  0.0541  0.3746
 8751TIP3    H226176   3.226   4.088   3.857  0.1490  0.6373  0.9192
 8752TIP3   OH226177   2.277   5.928   6.416  0.2481 -0.0877  0.0360
 8752TIP3    H126178   2.316   6.009   6.450  0.2960 -0.0940 -0.0025
 8752TIP3    H226179   2.203   5.910   6.474  0.6448 -0.3835  0.4460
 8753TIP3   OH226180   2.164   5.214   4.360  0.7455  0.0312 -0.0015
 8753TIP3    H126181   2.257   5.237   4.358  0.7556  0.0976  1.0502
 8753TIP3    H226182   2.137   5.218   4.268  1.7757  0.0237 -0.3164
 8754TIP3   OH226183   0.946   5.598   3.680  0.3637  0.1774 -0.4338
 8754TIP3    H126184   0.873   5.640   3.635 -0.3006  1.3080  1.6178
 8754TIP3    H226185   1.018   5.661   3.675 -0.6321  1.6432  2.6425
 8755TIP3   OH226186   1.390   4.881   3.846 -0.1704  0.4375  0.0210
 8755TIP3    H126187   1.314   4.843   3.803 -0.0707  0.2615 -0.0029
 8755TIP3    H226188   1.457   4.886   3.777  0.1463 -0.2995  0.2663
 8756TIP3   OH226189   8.300   5.278   6.504  0.3835  0.8440  0.1885
 8756TIP3    H126190   8.212   5.253   6.476  0.2151  0.3969  1.1020
 8756TIP3    H226191   8.345   5.195   6.519  0.8069  1.0785  0.2203
 8757TIP3   OH226192   3.048   4.817   6.239 -0.3791  0.3968  0.0446
 8757TIP3    H126193   2.957   4.848   6.243 -0.2015  0.9022  0.3455
 8757TIP3    H226194   3.075   4.834   6.149 -0.9889 -0.9530 -0.4018
 8758TIP3   OH226195   1.644   7.003   4.421 -0.8124 -0.2605 -0.8345
 8758TIP3    H126196   1.664   7.067   4.489  1.5153 -1.0780 -0.7005
 8758TIP3    H226197   1.600   7.053   4.353  0.9581  1.4935 -0.7310
 8759TIP3   OH226198   1.680   6.561   4.502  0.7755 -0.4380  0.2494
 8759TIP3    H126199   1.706   6.623   4.433 -0.1180 -0.5874 -0.2334
 8759TIP3    H226200   1.693   6.475   4.463 -1.5011 -0.5240 -0.4556
 8760TIP3   OH226201   2.290   5.298   6.958  0.6064  0.8011  0.1854
 8760TIP3    H126202   2.319   5.209   6.978  1.5105  1.0322 -0.1053
 8760TIP3    H226203   2.282   5.300   6.862 -0.7532  0.6265  0.2737
 8761TIP3   OH226204   1.763   6.701   4.728  0.2106 -0.0988  0.8340
 8761TIP3    H126205   1.856   6.683   4.711  0.0774 -1.1791  1.2467
 8761TIP3    H226206   1.716   6.652   4.660 -0.0309  1.2484  0.0032
 8762TIP3   OH226207   2.172   7.683   4.181  0.3598  0.1358  0.7144
 8762TIP3    H126208   2.193   7.610   4.123 -0.3191  0.6750 -0.2106
 8762TIP3    H226209   2.255   7.729   4.193  0.3518  0.4597 -0.4287
 8763TIP3   OH226210   2.838   4.930   4.440 -0.7446  0.6016  0.1689
 8763TIP3    H126211   2.766   4.870   4.458 -0.5558 -0.0369 -1.1777
 8763TIP3    H226212   2.916   4.875   4.437 -0.5175  0.9596 -0.6992
 8764TIP3   OH226213   0.206   4.076   5.504 -0.3803  0.0858 -0.6517
 8764TIP3    H126214   0.189   4.033   5.588  2.3073  0.2185 -0.0102
 8764TIP3    H226215   0.140   4.146   5.500 -0.8830 -0.2577  1.0858
 8765TIP3   OH226216   2.681   6.272   4.552 -0.3333  0.2095  0.3755
 8765TIP3    H126217   2.692   6.223   4.470 -1.8510  1.7383 -0.7570
 8765TIP3    H226218   2.590   6.300   4.552 -0.1370  0.9259  2.2069
 8766TIP3   OH226219   8.322   4.398   4.975  0.4247 -0.3240 -0.1944
 8766TIP3    H126220   8.349   4.307   4.983  0.2471 -0.2613  1.2683
 8766TIP3    H226221   8.275   4.417   5.057 -1.1021  0.5472 -1.2484
 8767TIP3   OH226222   1.451   6.135   5.953 -0.0570 -0.0079 -0.0312
 8767TIP3    H126223   1.523   6.199   5.951 -1.6199  1.9202  2.8040
 8767TIP3    H226224   1.451   6.101   6.043 -2.1087 -0.6935 -0.2706
 8768TIP3   OH226225   2.190   7.171   3.813  0.1264 -0.1791  0.1769
 8768TIP3    H126226   2.110   7.184   3.763  0.8927  0.1445 -0.9922
 8768TIP3    H226227   2.253   7.232   3.775  1.0201 -0.6537  0.8634
 8769TIP3   OH226228   3.354   4.819   2.245  0.5073 -0.0467  0.2705
 8769TIP3    H126229   3.281   4.879   2.261  0.1404 -0.6403  0.8567
 8769TIP3    H226230   3.388   4.845   2.160  0.2630  0.9032  0.4586
 8770TIP3   OH226231   2.555   6.875   2.784  0.2710  0.0733 -0.3967
 8770TIP3    H126232   2.467   6.838   2.776 -0.3149  1.5862 -0.9203
 8770TIP3    H226233   2.552   6.926   2.865  0.4307  0.7870 -0.8430
 8771TIP3   OH226234   3.093   5.614   1.563 -0.1374  0.3863  0.6372
 8771TIP3    H126235   3.053   5.573   1.640  1.2752 -3.1290 -0.3913
 8771TIP3    H226236   3.158   5.551   1.534  0.0619  2.0948 -2.8667
 8772TIP3   OH226237   2.366   4.810   4.654  0.7392 -0.1300 -0.4986
 8772TIP3    H126238   2.408   4.895   4.665 -1.0770  0.8195 -0.7515
 8772TIP3    H226239   2.431   4.757   4.609  1.8062  1.1875 -0.5425
 8773TIP3   OH226240   2.310   7.499   1.644  0.2956 -0.3040 -0.2224
 8773TIP3    H126241   2.219   7.499   1.673  0.3914  1.6548  0.1826
 8773TIP3    H226242   2.334   7.407   1.640 -2.5080 -1.0114 -2.9161
 8774TIP3   OH226243   2.596   7.565   3.717 -0.3645  0.2674  0.0819
 8774TIP3    H126244   2.587   7.549   3.811  1.7046  1.5795  0.5433
 8774TIP3    H226245   2.525   7.625   3.696  0.1441  1.2704  1.1626
 8775TIP3   OH226246   1.030   5.439   3.266  0.6157  0.7864  0.2648
 8775TIP3    H126247   1.006   5.525   3.300 -1.3637 -0.0171  0.9768
 8775TIP3    H226248   1.056   5.389   3.343  1.9972  0.8246 -0.1787
 8776TIP3   OH226249   2.397   6.601   4.041  0.0774  0.2599 -0.1470
 8776TIP3    H126250   2.408   6.535   4.109  2.1258  0.6016 -0.1358
 8776TIP3    H226251   2.458   6.671   4.064 -0.7928  1.3706 -1.1290
 8777TIP3   OH226252   1.327   8.052   3.735 -0.5772 -0.3647 -0.0056
 8777TIP3    H126253   1.380   8.029   3.659  2.1972 -2.3975  2.4371
 8777TIP3    H226254   1.362   8.137   3.763  0.3699 -0.9661  0.6715
 8778TIP3   OH226255   0.703   5.606   5.855 -0.4491 -0.1107  0.0511
 8778TIP3    H126256   0.733   5.560   5.776 -1.1827  0.5454 -0.6315
 8778TIP3    H226257   0.727   5.549   5.927 -4.1448 -3.1692 -0.9503
 8779TIP3   OH226258   2.404   4.168   4.130  0.1351  0.4791  0.2699
 8779TIP3    H126259   2.346   4.092   4.133  1.0022 -0.2203 -0.4166
 8779TIP3    H226260   2.356   4.233   4.079  0.0564 -0.1994 -0.5379
 8780TIP3   OH226261   1.230   7.055   1.564 -0.4119  0.1326 -0.4146
 8780TIP3    H126262   1.192   7.137   1.533 -2.7334  0.1526  2.3185
 8780TIP3    H226263   1.245   7.068   1.657  0.0189 -2.2479 -0.1091
 8781TIP3   OH226264   1.866   4.757   4.666 -0.1143  0.0312  0.1684
 8781TIP3    H126265   1.818   4.819   4.722  0.2701  0.9789 -0.5396
 8781TIP3    H226266   1.940   4.807   4.632  0.3466 -0.8964 -0.2091
 8782TIP3   OH226267   2.312   6.455   3.501 -0.0190 -0.8623  0.1949
 8782TIP3    H126268   2.307   6.363   3.477  0.7230 -1.2506  1.5229
 8782TIP3    H226269   2.376   6.492   3.440 -1.1280 -0.9708 -1.0627
 8783TIP3   OH226270   2.219   5.857   3.594 -0.0524  0.1599  0.6955
 8783TIP3    H126271   2.194   5.764   3.591  0.2295 -0.0060  2.8974
 8783TIP3    H226272   2.139   5.904   3.571  0.1802 -0.6323 -1.9631
 8784TIP3   OH226273   2.805   7.535   4.929  1.0212  0.5915 -0.1749
 8784TIP3    H126274   2.762   7.570   4.851 -0.4088 -1.2218 -0.2309
 8784TIP3    H226275   2.894   7.571   4.925  1.0735  0.2823 -2.8143
 8785TIP3   OH226276   1.883   4.819   5.119 -0.2326  0.1444  0.2278
 8785TIP3    H126277   1.953   4.883   5.131 -1.3238  0.9433  2.7164
 8785TIP3    H226278   1.887   4.764   5.198 -1.6337 -0.5503 -0.1645
 8786TIP3   OH226279   1.212   7.158   4.451  0.2471  0.3007 -0.2839
 8786TIP3    H126280   1.215   7.178   4.358 -0.5089  1.5060 -0.0650
 8786TIP3    H226281   1.180   7.238   4.492 -0.4069 -0.5406  0.9024
 8787TIP3   OH226282   0.314   6.254   5.239  1.0411 -0.5558 -0.8716
 8787TIP3    H126283   0.364   6.326   5.279  0.7955 -0.7025 -0.3048
 8787TIP3    H226284   0.363   6.233   5.159  2.0370 -0.8706 -0.1878
 8788TIP3   OH226285   1.420   3.421   5.518 -0.3820 -0.4196  0.8382
 8788TIP3    H126286   1.466   3.341   5.491 -2.2324 -1.3567  0.3936
 8788TIP3    H226287   1.328   3.404   5.497 -0.6162  2.4140 -0.6803
 8789TIP3   OH226288   3.685   6.088   2.387  0.0576  0.5335  0.3291
 8789TIP3    H126289   3.607   6.033   2.374 -0.1744  0.8876  0.2277
 8789TIP3    H226290   3.695   6.093   2.482 -0.8824  1.6644  0.3832
 8790TIP3   OH226291   1.188   5.783   4.421 -0.1259 -0.8174  0.5053
 8790TIP3    H126292   1.146   5.698   4.405  0.9532 -1.2516 -0.0830
 8790TIP3    H226293   1.272   5.761   4.461  2.0116 -0.2655 -3.4273
 8791TIP3   OH226294   1.574   7.447   3.663 -0.3082  0.1960 -0.1468
 8791TIP3    H126295   1.542   7.418   3.748 -1.5445 -2.0728 -1.3512
 8791TIP3    H226296   1.517   7.519   3.639 -0.5428  0.2319  0.5034
 8792TIP3   OH226297   1.531   7.360   4.461 -0.3942  0.3360  0.3237
 8792TIP3    H126298   1.578   7.443   4.452  1.5762 -0.6541  1.2887
 8792TIP3    H226299   1.549   7.314   4.379 -0.5005  0.3537  0.2901
 8793TIP3   OH226300   1.994   6.071   5.458 -0.2315  0.6888  0.0489
 8793TIP3    H126301   2.085   6.101   5.465 -0.5877  2.2478 -1.5961
 8793TIP3    H226302   1.966   6.100   5.371 -2.2153 -0.0500  0.4180
 8794TIP3   OH226303   2.552   3.422   1.792  0.6835 -0.1809 -0.5724
 8794TIP3    H126304   2.465   3.429   1.833  0.8951 -0.9685  0.0271
 8794TIP3    H226305   2.612   3.418   1.866  1.2744  0.8011 -0.9947
 8795TIP3   OH226306   1.044   5.118   7.142  0.3647  0.1803  0.4603
 8795TIP3    H126307   1.097   5.197   7.131 -0.1612  0.4913  0.1516
 8795TIP3    H226308   0.958   5.141   7.108  1.1534 -1.6285 -2.9294
 8796TIP3   OH226309   3.098   5.380   4.844 -0.3363 -0.3116 -0.2756
 8796TIP3    H126310   3.164   5.424   4.897  1.1704 -2.0803 -0.6133
 8796TIP3    H226311   3.099   5.426   4.760 -0.1457  0.2198  0.0231
 8797TIP3   OH226312   2.403   5.124   5.709 -0.0860 -0.2636 -0.2905
 8797TIP3    H126313   2.410   5.029   5.714  0.3131 -0.2637 -0.8187
 8797TIP3    H226314   2.316   5.140   5.673 -0.0153 -0.4430 -0.5471
 8798TIP3   OH226315   1.816   5.144   4.158  0.1366 -0.0765 -0.3544
 8798TIP3    H126316   1.816   5.050   4.177  0.2266 -0.0868 -0.4072
 8798TIP3    H226317   1.729   5.174   4.187  0.3822 -0.0398  0.3443
 8799TIP3   OH226318   1.335   7.822   4.495 -0.0855 -0.3876  0.1578
 8799TIP3    H126319   1.384   7.757   4.545  0.4920 -1.7914 -2.1398
 8799TIP3    H226320   1.293   7.878   4.561  1.5665 -1.4687  2.1531
 8800TIP3   OH226321   2.262   6.959   5.478  0.1971 -0.1159  0.2143
 8800TIP3    H126322   2.241   7.052   5.493 -0.1789 -0.2176  0.3334
 8800TIP3    H226323   2.307   6.958   5.394 -0.5986  0.0651 -0.2224
 8801TIP3   OH226324   4.348   6.441   4.440  0.6542  0.1741  0.3201
 8801TIP3    H126325   4.256   6.466   4.452  0.6192 -0.5433  1.5761
 8801TIP3    H226326   4.345   6.349   4.416  1.1267 -0.2343  1.8092
 8802TIP3   OH226327   2.201   5.181   2.959  0.4640 -0.4059 -0.0803
 8802TIP3    H126328   2.117   5.226   2.954 -1.1111 -3.3811 -2.3596
 8802TIP3    H226329   2.212   5.161   3.052  0.0109  2.3427  0.6069
 8803TIP3   OH226330   3.173   5.651   3.954  0.5358 -0.6107 -0.5775
 8803TIP3    H126331   3.166   5.716   3.884 -0.9050  0.7394  0.7703
 8803TIP3    H226332   3.265   5.654   3.979  0.3994  1.3101 -0.2059
 8804TIP3   OH226333   3.373   7.917   4.906 -0.0050  0.2937 -0.0277
 8804TIP3    H126334   3.443   7.968   4.948 -0.4573 -1.3535  2.8933
 8804TIP3    H226335   3.416   7.837   4.875  0.1017  0.9883 -1.7174
 8805TIP3   OH226336   3.371   6.655   5.709 -0.0749 -0.0325  0.3897
 8805TIP3    H126337   3.343   6.595   5.641  0.9489  1.0268 -0.9789
 8805TIP3    H226338   3.369   6.741   5.668 -1.1044  0.8478  2.1967
 8806TIP3   OH226339   1.404   5.946   5.049  0.1957 -0.2835  0.3773
 8806TIP3    H126340   1.446   5.965   4.965 -0.6054  1.3914  0.3231
 8806TIP3    H226341   1.476   5.924   5.108  1.1978  2.3763  0.2359
 8807TIP3   OH226342   3.550   7.563   3.676  0.3147  0.3239 -0.2947
 8807TIP3    H126343   3.573   7.651   3.646  0.9285  0.6977  1.2675
 8807TIP3    H226344   3.635   7.521   3.694  0.0544 -0.7835 -1.5618
 8808TIP3   OH226345   2.329   5.147   6.511  0.0280  0.0945  0.2296
 8808TIP3    H126346   2.317   5.226   6.459  1.6182  1.5213  1.9993
 8808TIP3    H226347   2.396   5.097   6.465  0.8165  0.9483  0.4612
 8809TIP3   OH226348   1.975   6.237   5.816  0.0410  0.7012  0.0534
 8809TIP3    H126349   1.908   6.200   5.759 -0.0387  1.0939 -0.1059
 8809TIP3    H226350   1.951   6.207   5.904 -0.0574  0.4259 -0.0646
 8810TIP3   OH226351   4.225   5.590   7.215 -0.0580  0.3522 -0.3062
 8810TIP3    H126352   4.145   5.612   7.168 -0.6689 -0.2500  0.4381
 8810TIP3    H226353   4.278   5.543   7.151 -0.4912  0.3442 -0.6653
 8811TIP3   OH226354   1.215   5.506   5.974 -0.1912 -0.2048 -0.6979
 8811TIP3    H126355   1.300   5.547   5.958  0.0537 -0.6512 -0.5182
 8811TIP3    H226356   1.191   5.469   5.889  1.1497 -2.6448 -0.0532
 8812TIP3   OH226357   0.075   5.482   4.666  0.0660  0.4169 -0.3105
 8812TIP3    H126358  -0.012   5.468   4.626 -0.0077  1.9278 -0.7203
 8812TIP3    H226359   0.080   5.417   4.735 -1.2119 -0.0122 -0.5962
 8813TIP3   OH226360   5.210   5.830   5.995  0.0254  0.1333 -0.1903
 8813TIP3    H126361   5.260   5.829   5.913 -0.3090  1.8067 -0.4381
 8813TIP3    H226362   5.140   5.767   5.981  1.1669 -1.1019 -0.4187
 8814TIP3   OH226363   2.789   4.031   5.768 -0.6713 -0.3677 -0.0124
 8814TIP3    H126364   2.717   4.043   5.830  0.3030 -1.8634  1.4260
 8814TIP3    H226365   2.803   3.937   5.765  1.4932 -0.0677  0.0362
 8815TIP3   OH226366   6.407   2.279   0.061 -0.4205  0.0670 -0.0424
 8815TIP3    H126367   6.446   2.244  -0.018  0.8169  1.3379 -0.0060
 8815TIP3    H226368   6.477   2.328   0.104 -1.1325 -0.4054  1.7248
 8816TIP3   OH226369   3.528   4.535   5.845  0.1891  0.2597 -0.5795
 8816TIP3    H126370   3.516   4.445   5.815  0.7919  0.1752 -0.5730
 8816TIP3    H226371   3.466   4.586   5.792 -0.5173 -0.2177 -0.2296
 8817TIP3   OH226372   3.277   3.078   5.447 -0.1011  0.5998 -0.5773
 8817TIP3    H126373   3.228   3.159   5.464 -0.4937  0.3302 -0.4316
 8817TIP3    H226374   3.222   3.029   5.386 -0.6747 -0.3463  0.6987
 8818TIP3   OH226375   2.695   5.039   4.878  0.1431  0.4828 -0.0186
 8818TIP3    H126376   2.655   5.068   4.960 -1.5608  2.3968 -1.4559
 8818TIP3    H226377   2.770   5.098   4.866  0.3516  0.2476  0.1362
 8819TIP3   OH226378   3.653   8.004   2.355 -0.0720  0.0961  0.3632
 8819TIP3    H126379   3.740   8.007   2.394 -0.8716  0.0176  2.1986
 8819TIP3    H226380   3.649   7.919   2.311  1.0663  0.4504 -0.4417
 8820TIP3   OH226381   0.222   7.375   4.676 -0.1952 -0.7677  0.7141
 8820TIP3    H126382   0.213   7.376   4.771  0.8320 -0.3014  0.8141
 8820TIP3    H226383   0.268   7.456   4.655 -0.4701 -0.8370 -0.1841
 8821TIP3   OH226384   2.044   6.409   1.990  0.2255  0.4845  0.3121
 8821TIP3    H126385   2.021   6.464   2.064  0.7969  1.0560  0.0604
 8821TIP3    H226386   2.101   6.463   1.936  1.6243 -0.7027  0.5799
 8822TIP3   OH226387   2.747   7.195   3.737 -0.0072  0.6175  0.6598
 8822TIP3    H126388   2.811   7.124   3.738  0.1377  0.7547  1.7603
 8822TIP3    H226389   2.798   7.273   3.715 -0.4066  0.1739 -1.9796
 8823TIP3   OH226390   2.600   7.651   5.349 -0.4963 -0.1766  0.2457
 8823TIP3    H126391   2.619   7.560   5.373 -2.5263 -0.1589  2.0280
 8823TIP3    H226392   2.657   7.703   5.406 -0.2492 -0.3124  0.1202
 8824TIP3   OH226393   1.121   6.371   4.519  0.8738  0.0925 -0.1488
 8824TIP3    H126394   1.046   6.363   4.578  1.0151 -1.3382 -0.1531
 8824TIP3    H226395   1.130   6.285   4.479  1.1951  0.8524 -1.7739
 8825TIP3   OH226396   2.436   5.290   4.282  0.1892  0.8470 -0.1995
 8825TIP3    H126397   2.491   5.212   4.280 -2.0570 -0.8099 -0.6442
 8825TIP3    H226398   2.442   5.326   4.193 -1.8079 -1.1284 -1.2077
 8826TIP3   OH226399   2.084   7.654   4.462 -0.7144  0.3870 -0.0908
 8826TIP3    H126400   2.121   7.733   4.501  0.4867  0.0108 -0.4354
 8826TIP3    H226401   2.115   7.656   4.371  0.3302 -1.1035  0.2297
 8827TIP3   OH226402   2.919   7.369   4.218 -0.4411  0.4887  0.2052
 8827TIP3    H126403   3.000   7.380   4.268 -1.2067  1.9219  1.1672
 8827TIP3    H226404   2.946   7.326   4.137  1.0583 -0.3964  1.1586
 8828TIP3   OH226405   2.271   7.225   4.072 -0.3231  0.4656  0.0371
 8828TIP3    H126406   2.209   7.169   4.119 -0.1098  0.3271  0.1502
 8828TIP3    H226407   2.241   7.221   3.981 -0.7023  0.6934  0.1480
 8829TIP3   OH226408   2.919   4.573   6.823 -0.2572  0.1257  0.3896
 8829TIP3    H126409   2.950   4.642   6.764 -0.7727  2.0949  2.3486
 8829TIP3    H226410   2.826   4.590   6.834 -0.7028 -1.7646 -0.2019
 8830TIP3   OH226411   3.560   4.784   4.588  0.0765  0.1589 -0.6448
 8830TIP3    H126412   3.629   4.801   4.653 -1.4363 -0.7102  1.2396
 8830TIP3    H226413   3.606   4.742   4.515  1.5822 -0.1657  0.4592
 8831TIP3   OH226414   1.288   5.553   4.889 -0.2400 -0.3710  0.8387
 8831TIP3    H126415   1.218   5.608   4.854  1.0523  1.2340  0.7420
 8831TIP3    H226416   1.302   5.586   4.978 -0.1289 -1.2071  1.1382
 8832TIP3   OH226417   2.599   4.645   5.446  0.3846  0.1342 -0.8590
 8832TIP3    H126418   2.634   4.561   5.416  1.5543  1.3012 -2.8414
 8832TIP3    H226419   2.660   4.674   5.514 -0.8352 -1.2795  0.8906
 8833TIP3   OH226420   1.386   6.152   5.648 -0.0262  0.5984  0.3741
 8833TIP3    H126421   1.451   6.085   5.630  0.8650  1.3753  0.6617
 8833TIP3    H226422   1.350   6.174   5.562  1.7243  1.7969 -0.0795
 8834TIP3   OH226423   1.624   6.748   6.297  0.5598 -0.5337  0.2146
 8834TIP3    H126424   1.554   6.771   6.235  1.5639  0.0335 -0.7321
 8834TIP3    H226425   1.682   6.824   6.296  0.7901 -0.6825  1.5847
 8835TIP3   OH226426   2.817   3.986   4.466 -0.0478 -0.0511 -0.7837
 8835TIP3    H126427   2.897   3.933   4.460 -0.2144 -0.3712 -0.1666
 8835TIP3    H226428   2.836   4.063   4.412  0.2217 -0.7000 -1.6306
 8836TIP3   OH226429   2.647   4.651   6.757 -0.1949  0.1788  0.2698
 8836TIP3    H126430   2.617   4.564   6.730  0.7148 -0.0410 -0.0247
 8836TIP3    H226431   2.618   4.710   6.687  0.4341 -0.0949 -0.2176
 8837TIP3   OH226432   8.860   3.076   5.606  0.2208 -0.4687  0.1205
 8837TIP3    H126433   8.924   3.130   5.559 -1.5838  0.4028 -1.4061
 8837TIP3    H226434   8.839   3.006   5.544  0.3362 -1.2501  0.9600
 8838TIP3   OH226435   3.041   7.345   4.477 -0.2015 -0.3855  0.0173
 8838TIP3    H126436   3.131   7.317   4.460 -1.4554 -3.5282 -1.7880
 8838TIP3    H226437   3.017   7.301   4.558 -0.1694  0.3968  0.4598
 8839TIP3   OH226438   6.838   0.626   0.649  0.2037 -0.0673  1.0691
 8839TIP3    H126439   6.784   0.601   0.575 -1.2243  0.7611  1.8004
 8839TIP3    H226440   6.831   0.553   0.710 -0.4785  0.2382  1.3617
 8840TIP3   OH226441   2.179   4.519   4.537 -0.3154  0.9286 -0.2134
 8840TIP3    H126442   2.089   4.541   4.510  0.2269  3.0560 -0.3729
 8840TIP3    H226443   2.220   4.484   4.458 -0.7937  0.5799 -0.3120
 8841TIP3   OH226444   0.975   5.628   4.877  0.7409  0.1190 -0.4344
 8841TIP3    H126445   0.969   5.653   4.969 -1.1557  1.5790 -0.9210
 8841TIP3    H226446   0.991   5.710   4.831 -0.8868 -0.2141 -1.6315
 8842TIP3   OH226447   7.506   6.007   5.656 -0.0709  0.0852 -0.1579
 8842TIP3    H126448   7.581   5.993   5.714  0.8724  0.3321 -1.3077
 8842TIP3    H226449   7.498   6.102   5.651  0.3321  0.0810 -1.0260
 8843TIP3   OH226450   0.115   4.071   5.793 -0.3829  0.2496  0.5883
 8843TIP3    H126451   0.088   3.991   5.748  1.1948 -0.1184  0.2792
 8843TIP3    H226452   0.034   4.123   5.798 -0.4346  0.7743 -3.6315
 8844TIP3   OH226453   2.613   5.483   5.425  0.3736  0.3086 -0.3355
 8844TIP3    H126454   2.642   5.437   5.504 -0.3064  3.3383  1.7495
 8844TIP3    H226455   2.525   5.447   5.407 -0.0999  0.6963  1.1800
 8845TIP3   OH226456   2.252   4.727   2.387 -0.1264 -0.0705  0.2552
 8845TIP3    H126457   2.325   4.698   2.332 -0.4623 -0.5393  0.0468
 8845TIP3    H226458   2.259   4.674   2.466 -0.1761 -0.0376  0.2820
 8846TIP3   OH226459   0.216   3.711   4.452 -0.0356 -0.5233 -0.2058
 8846TIP3    H126460   0.199   3.716   4.546  0.6677 -0.2067 -0.0943
 8846TIP3    H226461   0.310   3.728   4.443 -0.0864 -0.6103 -0.9582
 8847TIP3   OH226462   3.699   6.422   4.568 -0.2166 -0.2583  0.0527
 8847TIP3    H126463   3.759   6.449   4.498  0.7775 -0.4995  0.8008
 8847TIP3    H226464   3.715   6.485   4.638 -0.6812 -0.4558  0.3363
 8848TIP3   OH226465   0.821   6.360   6.012  0.1549  0.5735 -0.0381
 8848TIP3    H126466   0.883   6.288   6.001  0.0482  0.3755  0.6411
 8848TIP3    H226467   0.778   6.342   6.095  0.1407  1.4401  0.1462
 8849TIP3   OH226468   2.521   7.933   3.568 -0.1291  0.0845  0.1883
 8849TIP3    H126469   2.534   7.941   3.663  0.3046 -3.1282  0.4708
 8849TIP3    H226470   2.597   7.883   3.538 -1.4659 -1.0364 -1.4544
 8850TIP3   OH226471   2.468   6.119   2.540 -0.1157  0.5512  0.2366
 8850TIP3    H126472   2.412   6.057   2.586  0.8880 -0.5581 -0.0064
 8850TIP3    H226473   2.442   6.110   2.448 -0.1774  0.7277  0.2355
 8851TIP3   OH226474   2.305   6.634   5.361  0.2638  0.7626 -0.2499
 8851TIP3    H126475   2.389   6.663   5.326  0.9580 -1.1841 -0.2586
 8851TIP3    H226476   2.326   6.594   5.446 -0.8697  1.6941  0.4984
 8852TIP3   OH226477   2.150   3.826   4.752 -0.1248  0.0032  0.7976
 8852TIP3    H126478   2.226   3.767   4.747  1.3935  1.8777  0.8581
 8852TIP3    H226479   2.146   3.867   4.665 -1.1584 -0.1869  0.7548
 8853TIP3   OH226480   1.954   8.249   4.323  0.1986 -0.3686 -0.3309
 8853TIP3    H126481   1.976   8.210   4.408 -0.9839  1.0876  0.6772
 8853TIP3    H226482   1.876   8.201   4.295 -1.5235  1.4827  1.1211
 8854TIP3   OH226483   0.653   7.228   1.994 -0.0212 -0.6464 -0.8687
 8854TIP3    H126484   0.596   7.182   2.057  0.2078  0.2650  0.0202
 8854TIP3    H226485   0.592   7.271   1.935 -0.2393 -1.8397 -1.5300
 8855TIP3   OH226486   3.290   6.192   5.765  0.1914  0.5374  0.7287
 8855TIP3    H126487   3.385   6.184   5.756  0.0350  0.2810 -0.7367
 8855TIP3    H226488   3.259   6.211   5.677 -1.0411  1.4645  1.3499
 8856TIP3   OH226489   4.408   2.133   4.186  0.7557 -0.1050 -0.2671
 8856TIP3    H126490   4.403   2.180   4.269  0.6259  0.5986 -0.6776
 8856TIP3    H226491   4.492   2.159   4.148  2.3514 -2.9473  1.1626
 8857TIP3   OH226492   0.370   7.664   3.135 -0.0596 -0.4858  0.0176
 8857TIP3    H126493   0.319   7.596   3.178  0.7007  0.3975  2.3895
 8857TIP3    H226494   0.404   7.718   3.206  1.7452  0.6754 -1.6550
 8858TIP3   OH226495   1.921   6.370   4.141  0.4130 -0.7156 -0.0540
 8858TIP3    H126496   1.979   6.421   4.084 -0.2550 -0.6687 -0.7055
 8858TIP3    H226497   1.893   6.296   4.088 -0.8646 -0.2400 -0.0834
 8859TIP3   OH226498   0.094   7.833   4.230 -0.3678 -0.0379  0.5977
 8859TIP3    H126499   0.021   7.895   4.239 -0.1745  0.1209  1.0852
 8859TIP3    H226500   0.085   7.798   4.141 -0.2930  0.9345  0.1990
 8860TIP3   OH226501   3.506   6.345   4.972 -0.3167 -0.1758 -0.0019
 8860TIP3    H126502   3.600   6.361   4.962 -0.6120  2.5686  1.0249
 8860TIP3    H226503   3.479   6.302   4.891  1.7439 -0.5954 -0.4764
 8861TIP3   OH226504   1.670   3.642   5.157 -0.1455  0.4157  0.1738
 8861TIP3    H126505   1.718   3.607   5.232 -1.7266 -2.6563 -0.1551
 8861TIP3    H226506   1.685   3.736   5.161  3.6148 -0.1368  1.6281
 8862TIP3   OH226507   2.335   4.627   5.767 -0.3137  0.0120  0.1077
 8862TIP3    H126508   2.303   4.625   5.677 -0.8780 -0.7310  0.3165
 8862TIP3    H226509   2.260   4.598   5.819  0.6588 -1.6620  0.6163
 8863TIP3   OH226510   2.477   5.961   3.566  0.3140  1.0295 -0.1834
 8863TIP3    H126511   2.387   5.930   3.578  0.7076  0.0864  0.3873
 8863TIP3    H226512   2.513   5.904   3.498  0.9302  0.4273  0.6263
 8864TIP3   OH226513   1.788   4.375   5.056  0.3044  0.4268  0.6575
 8864TIP3    H126514   1.871   4.419   5.078 -0.6220  2.5009  0.1793
 8864TIP3    H226515   1.738   4.377   5.137  1.3556 -2.4040  1.4296
 8865TIP3   OH226516   1.417   6.128   4.218  0.0232 -0.2301 -0.2120
 8865TIP3    H126517   1.471   6.071   4.163 -0.4482 -0.5531 -0.3482
 8865TIP3    H226518   1.406   6.208   4.166  0.7856  0.0355  0.0307
 8866TIP3   OH226519   2.109   4.505   4.033 -0.3051  0.2607  0.1212
 8866TIP3    H126520   2.154   4.574   4.083  1.0326 -0.8164  0.4317
 8866TIP3    H226521   2.096   4.434   4.097 -0.6863 -0.2023 -0.4701
 8867TIP3   OH226522   2.766   4.701   5.649  0.5063  0.1731  0.2234
 8867TIP3    H126523   2.859   4.682   5.655  0.5486 -0.5733 -2.0599
 8867TIP3    H226524   2.759   4.796   5.659  1.5547  0.2729  0.0019
 8868TIP3   OH226525   2.440   5.195   3.548  0.5028  0.1433 -0.1010
 8868TIP3    H126526   2.375   5.261   3.571  2.1674  0.9868  2.4364
 8868TIP3    H226527   2.392   5.112   3.550 -0.9416  0.9683 -0.3625
 8869TIP3   OH226528   1.773   6.983   6.304 -0.0858  0.3576 -0.0993
 8869TIP3    H126529   1.855   6.934   6.314  0.1017  0.8857  1.0598
 8869TIP3    H226530   1.778   7.050   6.372 -1.5317  0.3201  0.0443
 8870TIP3   OH226531   0.669   6.160   4.505  0.0615  0.4786  0.1566
 8870TIP3    H126532   0.672   6.238   4.561  0.8666  0.7653 -0.2717
 8870TIP3    H226533   0.589   6.171   4.453  0.8791  1.7338 -0.8911
 8871TIP3   OH226534   6.154   0.365   2.118 -0.6589  0.3140  0.0637
 8871TIP3    H126535   6.157   0.389   2.026 -1.5984  0.5816  0.0972
 8871TIP3    H226536   6.242   0.384   2.151 -0.8215  1.8799 -0.3630
 8872TIP3   OH226537   5.480   0.426   3.566 -0.0971  0.1635  0.5800
 8872TIP3    H126538   5.478   0.399   3.658  0.8841  1.7048  1.0795
 8872TIP3    H226539   5.568   0.461   3.553  1.3341 -4.1817 -2.2300
 8873TIP3   OH226540   1.319   4.262   6.767 -0.2151 -0.3717  0.4025
 8873TIP3    H126541   1.340   4.179   6.725  1.4019  1.0401 -1.7283
 8873TIP3    H226542   1.276   4.238   6.849 -0.5793 -3.2710 -0.5749
 8874TIP3   OH226543   8.867   4.146   5.256  0.3567 -0.1112  0.0991
 8874TIP3    H126544   8.772   4.154   5.248  0.4001  2.3032  1.5187
 8874TIP3    H226545   8.886   4.172   5.346  2.3771 -0.3355 -0.2350
 8875TIP3   OH226546   5.150   0.254   2.205  0.7254 -0.2118  0.1002
 8875TIP3    H126547   5.239   0.288   2.198 -0.1220  2.7076  2.4344
 8875TIP3    H226548   5.137   0.239   2.299 -1.3024 -0.2907 -0.1561
 8876TIP3   OH226549   3.482   4.737   5.152  0.5881  0.3766  0.4778
 8876TIP3    H126550   3.415   4.762   5.088 -0.0472 -1.5736  0.3549
 8876TIP3    H226551   3.432   4.715   5.231  1.2333  0.8597  1.0204
 8877TIP3   OH226552   3.854   6.515   6.082  0.2289  0.2379 -0.8731
 8877TIP3    H126553   3.922   6.449   6.069 -0.9343 -1.1247 -0.2578
 8877TIP3    H226554   3.892   6.577   6.144  0.7079 -0.8186 -0.0916
 8878TIP3   OH226555   4.879   6.208   6.166 -0.2577 -0.1331  0.2541
 8878TIP3    H126556   4.941   6.241   6.231  1.2739 -0.1117 -1.1872
 8878TIP3    H226557   4.845   6.287   6.124  1.5451 -0.2488 -1.4899
 8879TIP3   OH226558   5.476   3.665   4.982  0.5770  0.3088 -0.3239
 8879TIP3    H126559   5.416   3.642   4.910 -0.3412 -0.5009  0.6731
 8879TIP3    H226560   5.517   3.582   5.006  0.1737  0.3965  0.7057
 8880TIP3   OH226561   4.509   7.870   3.113 -0.1854  0.6115  0.0845
 8880TIP3    H126562   4.493   7.837   3.025  0.4273 -0.0430  0.2137
 8880TIP3    H226563   4.539   7.960   3.100 -1.2505  0.9115 -0.3047
 8881TIP3   OH226564   3.118   5.539   2.798  0.7242  0.2235 -0.4051
 8881TIP3    H126565   3.190   5.490   2.838  0.4774  1.2818  1.3893
 8881TIP3    H226566   3.095   5.489   2.720  0.8402 -2.2204  1.0706
 8882TIP3   OH226567   4.659   6.324   4.814  0.2488 -0.1289  0.1220
 8882TIP3    H126568   4.720   6.386   4.775 -1.0758  1.5087  0.5717
 8882TIP3    H226569   4.622   6.276   4.740  0.7582  0.1046 -0.2850
 8883TIP3   OH226570   2.128   5.749   5.972  0.3167 -0.4438 -0.4407
 8883TIP3    H126571   2.222   5.753   5.985  0.1001 -0.0415  1.0398
 8883TIP3    H226572   2.110   5.817   5.906  1.2953 -1.8905 -2.2523
 8884TIP3   OH226573   3.866   6.744   4.307  0.3357  0.1266 -0.5424
 8884TIP3    H126574   3.848   6.713   4.218  0.0173 -0.8131 -0.1566
 8884TIP3    H226575   3.957   6.719   4.322  0.5581  0.7770 -0.8052
 8885TIP3   OH226576   3.763   7.619   5.450 -0.2112 -0.0652 -0.5496
 8885TIP3    H126577   3.711   7.547   5.415 -1.8062  1.2540 -0.9764
 8885TIP3    H226578   3.757   7.687   5.383  1.3635  0.4244 -0.1997
 8886TIP3   OH226579   6.123   6.020   4.097 -0.4910  0.2261 -0.4192
 8886TIP3    H126580   6.209   5.979   4.106 -0.0176  1.4771  0.9444
 8886TIP3    H226581   6.119   6.047   4.005  0.2579 -0.5101 -0.6748
 8887TIP3   OH226582   4.102   6.441   5.053 -0.1662  0.0186  0.3109
 8887TIP3    H126583   4.009   6.437   5.078 -0.9791  1.9064 -2.1391
 8887TIP3    H226584   4.117   6.361   5.004 -0.5628 -0.2341  0.6017
 8888TIP3   OH226585   4.099   6.586   3.833 -0.4302  0.0966 -0.2858
 8888TIP3    H126586   4.149   6.610   3.911  0.2650 -0.0454 -0.6899
 8888TIP3    H226587   4.027   6.532   3.867 -0.8882  1.1162  0.3978
 8889TIP3   OH226588   2.444   5.445   6.578  0.0831 -0.1565  0.1630
 8889TIP3    H126589   2.417   5.401   6.497 -1.4894 -0.1741  0.6752
 8889TIP3    H226590   2.525   5.400   6.604 -0.4820 -1.4882 -0.3349
 8890TIP3   OH226591   3.039   6.313   4.490  0.0475  0.3323  0.5417
 8890TIP3    H126592   2.989   6.232   4.507 -0.5542  0.7138  0.6067
 8890TIP3    H226593   3.123   6.282   4.456  0.3371 -0.3607  1.8801
 8891TIP3   OH226594   3.828   6.965   2.571  0.9633  0.2162 -0.1258
 8891TIP3    H126595   3.794   7.055   2.573 -0.8470 -0.4569 -0.4576
 8891TIP3    H226596   3.844   6.943   2.662  1.5872  0.9325 -0.0554
 8892TIP3   OH226597   5.950   5.367   4.454 -0.4932  0.5749 -0.0459
 8892TIP3    H126598   5.912   5.398   4.371 -0.1534  1.0980 -0.0056
 8892TIP3    H226599   5.956   5.272   4.443 -1.2235  0.5499 -0.3017
 8893TIP3   OH226600   2.177   5.333   4.683 -0.6566 -0.2182  0.5324
 8893TIP3    H126601   2.165   5.288   4.766 -0.4866 -0.5944  0.3552
 8893TIP3    H226602   2.148   5.270   4.617 -0.3186 -0.1103  0.2768
 8894TIP3   OH226603   3.747   4.844   4.778 -0.3907  0.0123  0.1972
 8894TIP3    H126604   3.757   4.936   4.799  0.6089 -0.0915  0.2371
 8894TIP3    H226605   3.836   4.815   4.755 -0.6926 -0.9279  0.1694
 8895TIP3   OH226606   4.755   6.821   4.742 -0.0748  0.0461 -0.3054
 8895TIP3    H126607   4.721   6.821   4.653  1.1692  2.4806 -0.8066
 8895TIP3    H226608   4.690   6.772   4.792 -1.8852  0.5100 -2.1451
 8896TIP3   OH226609   4.576   5.738   3.680  0.3539 -0.0303  0.4849
 8896TIP3    H126610   4.614   5.814   3.637 -0.6567  1.0533  1.4978
 8896TIP3    H226611   4.586   5.667   3.616  2.9512  0.4932  0.2512
 8897TIP3   OH226612   2.462   6.458   4.303 -0.0915  0.8503 -0.4948
 8897TIP3    H126613   2.431   6.421   4.385  0.3839 -0.8234 -1.0434
 8897TIP3    H226614   2.557   6.446   4.306 -0.1186  0.3430 -1.4937
 8898TIP3   OH226615   4.219   7.201   1.725  0.7151 -0.0771  0.0707
 8898TIP3    H126616   4.181   7.287   1.743 -0.7961 -0.8282  0.5598
 8898TIP3    H226617   4.251   7.171   1.810  0.3575 -0.3978  0.0965
 8899TIP3   OH226618   3.422   7.248   1.660  0.7341 -0.1862 -0.3403
 8899TIP3    H126619   3.370   7.316   1.617  3.7107  2.4000 -0.0370
 8899TIP3    H226620   3.414   7.171   1.603 -1.1794  0.9661 -1.6623
 8900TIP3   OH226621   4.302   3.968   3.100  0.1727 -0.9416 -0.4832
 8900TIP3    H126622   4.209   3.983   3.117 -0.0501 -1.8773 -0.8737
 8900TIP3    H226623   4.335   4.053   3.070  0.1709  0.2799  2.7611
 8901TIP3   OH226624   4.134   5.075   3.339  0.1881 -0.9575 -0.1534
 8901TIP3    H126625   4.098   4.991   3.366  0.4704 -0.8414  0.5964
 8901TIP3    H226626   4.057   5.129   3.320  0.0160 -1.8411 -2.1005
 8902TIP3   OH226627   3.503   6.297   2.546 -0.2835  0.0240 -0.3557
 8902TIP3    H126628   3.557   6.327   2.473  0.9045 -2.3267 -0.4790
 8902TIP3    H226629   3.451   6.374   2.571  2.0883  1.9442 -1.1520
 8903TIP3   OH226630   4.506   5.161   4.407  0.0310 -0.0387 -0.2264
 8903TIP3    H126631   4.424   5.118   4.430 -0.6189  0.6441 -1.2761
 8903TIP3    H226632   4.481   5.238   4.357  1.3381 -0.4905 -1.6335
 8904TIP3   OH226633   3.895   5.749   3.678  0.0572  0.3081 -0.3806
 8904TIP3    H126634   3.919   5.726   3.588 -1.1019  2.2705 -1.2224
 8904TIP3    H226635   3.940   5.684   3.732  2.3261  0.2300 -2.2684
 8905TIP3   OH226636   3.974   5.785   3.128 -0.4900 -0.7677 -0.0380
 8905TIP3    H126637   3.941   5.825   3.047 -0.6036  0.5557  0.6433
 8905TIP3    H226638   4.031   5.853   3.165 -0.2784 -1.4533  0.8844
 8906TIP3   OH226639   3.257   5.090   3.946 -0.0354 -0.3173 -0.4760
 8906TIP3    H126640   3.303   5.018   3.903 -0.5862 -1.9033  1.4735
 8906TIP3    H226641   3.204   5.129   3.877  1.0173 -1.1553 -1.7981
 8907TIP3   OH226642   3.774   6.278   4.882  0.0761  0.0781  0.5237
 8907TIP3    H126643   3.801   6.317   4.965 -0.1317  1.1291  0.1074
 8907TIP3    H226644   3.787   6.347   4.818 -2.0360  0.0904  0.0534
 8908TIP3   OH226645   3.735   6.188   4.193  0.0886 -0.3257 -0.0371
 8908TIP3    H126646   3.754   6.104   4.151 -2.0260 -0.9192  0.1545
 8908TIP3    H226647   3.777   6.252   4.136  1.2559 -1.4505 -0.4855
 8909TIP3   OH226648   5.468   5.411   3.805 -0.4045  1.1165 -0.0118
 8909TIP3    H126649   5.534   5.478   3.819  1.4573 -0.1644 -2.3124
 8909TIP3    H226650   5.457   5.408   3.710 -1.7459 -0.6136  0.1699
 8910TIP3   OH226651   3.780   5.096   4.849  0.4775  0.3342  0.0108
 8910TIP3    H126652   3.782   5.105   4.944 -1.1738 -2.3779  0.3622
 8910TIP3    H226653   3.741   5.177   4.817  0.2416  0.9011  1.7028
 8911TIP3   OH226654   4.013   6.406   5.424  0.4018 -0.2566 -0.7012
 8911TIP3    H126655   4.008   6.346   5.350  0.6045  1.1819 -1.9124
 8911TIP3    H226656   3.928   6.450   5.426  0.9906  0.9175 -1.1308
 8912TIP3   OH226657   2.737   6.195   3.969 -0.4052  0.1486 -0.0879
 8912TIP3    H126658   2.661   6.172   4.023 -0.3523 -0.3127 -0.2119
 8912TIP3    H226659   2.710   6.176   3.879  0.0123 -0.4367 -0.0939
 8913TIP3   OH226660   4.881   5.178   5.486  0.0924 -0.2252 -0.2247
 8913TIP3    H126661   4.905   5.098   5.533 -0.1167 -1.0352 -1.4670
 8913TIP3    H226662   4.964   5.219   5.464  0.2174 -0.4636 -0.2019
 8914TIP3   OH226663   3.040   6.039   6.611 -0.2353  0.6184 -0.8481
 8914TIP3    H126664   3.055   6.014   6.520  1.3385  0.2401 -0.5019
 8914TIP3    H226665   3.088   6.121   6.622  0.7813 -0.0814  0.0169
 8915TIP3   OH226666   5.309   6.025   3.257  0.5159 -0.3914  0.2522
 8915TIP3    H126667   5.226   5.994   3.292  0.6235  0.1921  1.0386
 8915TIP3    H226668   5.365   5.947   3.254 -0.0474 -0.7774 -0.2510
 8916TIP3   OH226669   2.151   5.137   5.755 -0.2586 -0.3361 -0.3194
 8916TIP3    H126670   2.173   5.093   5.837  0.5476  0.7353  0.0485
 8916TIP3    H226671   2.092   5.208   5.781 -1.1654 -0.8819 -0.8479
 8917TIP3   OH226672   2.595   7.539   5.673  0.3834  0.1150 -0.5877
 8917TIP3    H126673   2.591   7.481   5.597  0.4444  0.5957 -0.9581
 8917TIP3    H226674   2.562   7.623   5.641  0.6753  0.3961 -0.1522
 8918TIP3   OH226675   1.833   7.153   4.242 -0.1174 -0.2938 -0.2038
 8918TIP3    H126676   1.865   7.241   4.218  1.2436 -0.6779  0.1655
 8918TIP3    H226677   1.786   7.124   4.164  0.6892  0.1781 -0.8879
 8919TIP3   OH226678   3.653   4.799   2.777  0.1325 -0.1977  0.1656
 8919TIP3    H126679   3.710   4.875   2.787  0.5214 -0.4767  0.0764
 8919TIP3    H226680   3.565   4.833   2.791  0.3748  0.1041  0.9476
 8920TIP3   OH226681   3.295   3.843   3.305  0.0310 -0.3560  0.2847
 8920TIP3    H126682   3.245   3.773   3.346  1.9934 -1.3174  1.1088
 8920TIP3    H226683   3.288   3.827   3.211 -0.8628 -0.7065  0.4141
 8921TIP3   OH226684   3.839   6.440   3.237  0.0422  0.2571 -0.0326
 8921TIP3    H126685   3.884   6.409   3.159 -0.0045  0.6373 -0.2096
 8921TIP3    H226686   3.806   6.360   3.279  1.8124 -0.1131  0.6867
 8922TIP3   OH226687   4.093   5.438   4.211  0.1050 -0.2284  0.2020
 8922TIP3    H126688   4.124   5.364   4.158 -0.8074 -1.5205  1.4132
 8922TIP3    H226689   4.148   5.437   4.289 -1.0530 -0.7526  1.0352
 8923TIP3   OH226690   2.151   6.358   3.726  0.2502 -0.1538  0.3136
 8923TIP3    H126691   2.158   6.358   3.630 -2.2019 -1.1208  0.0896
 8923TIP3    H226692   2.182   6.444   3.753  1.0126  0.1074 -1.3585
 8924TIP3   OH226693   8.068   1.571   5.859  0.0620 -0.0069  0.1359
 8924TIP3    H126694   8.080   1.589   5.953 -0.7468 -1.4084  0.5172
 8924TIP3    H226695   8.048   1.657   5.821  0.4001  0.5758  1.2391
 8925TIP3   OH226696   2.680   6.646   2.171 -0.2772  0.2597 -0.4630
 8925TIP3    H126697   2.632   6.667   2.251 -0.6616 -0.1366 -0.5860
 8925TIP3    H226698   2.614   6.647   2.102  0.2563  1.7697 -0.9700
 8926TIP3   OH226699   3.254   6.041   3.941 -0.2537  0.1075 -0.0242
 8926TIP3    H126700   3.159   6.051   3.938 -0.2058  0.3780 -0.7595
 8926TIP3    H226701   3.280   6.075   4.026 -0.6582  1.3694 -0.4013
 8927TIP3   OH226702   4.127   7.908   3.772 -0.0239 -0.0522  0.1047
 8927TIP3    H126703   4.201   7.968   3.785  0.1311 -0.7901  2.9376
 8927TIP3    H226704   4.054   7.964   3.746  1.3582  0.7510 -2.1688
 8928TIP3   OH226705   4.688   5.849   4.306 -0.1219  0.1285  0.2139
 8928TIP3    H126706   4.782   5.866   4.309  0.3817 -2.1579 -1.1430
 8928TIP3    H226707   4.654   5.886   4.387  1.4509  3.7482 -0.6801
 8929TIP3   OH226708   5.142   7.557   2.855  0.2890  0.0843  0.0047
 8929TIP3    H126709   5.133   7.541   2.949  1.1021  2.0999  0.4442
 8929TIP3    H226710   5.119   7.649   2.843  3.5806  0.8170 -1.2275
 8930TIP3   OH226711   4.780   7.211   4.984 -0.1562 -0.6438 -0.1095
 8930TIP3    H126712   4.825   7.189   4.902  0.8280 -0.5866  0.4025
 8930TIP3    H226713   4.769   7.305   4.980 -2.5564 -0.9535 -1.3931
 8931TIP3   OH226714   4.042   6.490   4.480 -0.4320 -0.2444 -0.8008
 8931TIP3    H126715   4.013   6.399   4.482 -2.0626  0.2286 -2.1617
 8931TIP3    H226716   3.997   6.532   4.554 -0.7394 -0.2283 -0.9991
 8932TIP3   OH226717   3.801   5.933   5.313 -0.5238 -0.1679 -0.2846
 8932TIP3    H126718   3.772   5.846   5.340  0.3844 -0.5764 -0.5912
 8932TIP3    H226719   3.781   5.937   5.220  0.8940 -0.6701 -0.6242
 8933TIP3   OH226720   2.717   6.249   5.130  0.1696 -0.2178 -0.3719
 8933TIP3    H126721   2.714   6.156   5.155  1.5534 -0.4771 -1.1038
 8933TIP3    H226722   2.656   6.292   5.189 -1.2628 -1.7582 -0.7092
 8934TIP3   OH226723   4.750   6.789   5.828 -0.5002  0.1161 -0.6195
 8934TIP3    H126724   4.797   6.864   5.865  1.7113  0.3624 -3.7043
 8934TIP3    H226725   4.666   6.825   5.801  0.2784  1.3949 -1.4275
 8935TIP3   OH226726   6.109   6.251   2.396  0.1049  0.0176  0.4081
 8935TIP3    H126727   6.023   6.244   2.354  0.8179 -0.1444 -1.0791
 8935TIP3    H226728   6.090   6.278   2.486 -1.4762  0.4795 -0.0416
 8936TIP3   OH226729   4.957   3.617   6.208 -0.1846  0.0515 -0.7782
 8936TIP3    H126730   4.960   3.679   6.135 -1.8851  0.0641 -0.8631
 8936TIP3    H226731   5.007   3.660   6.277  0.2415  0.6778 -1.4613
 8937TIP3   OH226732   2.089   5.150   4.087 -0.2645 -0.2284  0.1332
 8937TIP3    H126733   2.086   5.167   3.993  0.8624 -2.5974 -0.3764
 8937TIP3    H226734   1.997   5.147   4.114 -0.6777 -1.5612 -1.3353
 8938TIP3   OH226735   3.227   6.401   5.015 -0.6351 -0.4798  0.0734
 8938TIP3    H126736   3.194   6.371   4.930 -0.8989  0.7029 -0.2488
 8938TIP3    H226737   3.322   6.388   5.010 -0.6171 -0.1470 -0.5198
 8939TIP3   OH226738   5.272   3.706   3.737 -0.2556  0.0664 -0.3323
 8939TIP3    H126739   5.180   3.728   3.721 -0.7880 -2.2273 -0.6949
 8939TIP3    H226740   5.269   3.616   3.770  1.9920 -0.7487 -2.2076
 8940TIP3   OH226741   5.058   5.530   2.994  0.0873 -0.4052 -0.1780
 8940TIP3    H126742   5.131   5.553   2.937  0.0443  0.0948 -0.0386
 8940TIP3    H226743   4.998   5.481   2.938  0.1530 -0.1146 -0.5077
 8941TIP3   OH226744   4.953   5.172   3.567 -0.0364  0.6345  0.1032
 8941TIP3    H126745   5.012   5.246   3.551  1.3913 -0.2227  1.1806
 8941TIP3    H226746   4.951   5.164   3.663  0.4046 -1.1296 -0.0175
 8942TIP3   OH226747   3.170   4.410   3.988  0.1827  0.0582  0.2876
 8942TIP3    H126748   3.165   4.329   4.039  0.7046  1.3923  2.5301
 8942TIP3    H226749   3.094   4.407   3.931  0.3995 -2.1851  0.0402
 8943TIP3   OH226750   1.847   5.661   4.194 -0.1027 -0.2130  0.3819
 8943TIP3    H126751   1.886   5.747   4.207  0.7069 -0.3195 -1.2261
 8943TIP3    H226752   1.866   5.639   4.103 -2.5444 -0.9703 -0.0001
 8944TIP3   OH226753   1.815   7.689   2.935  0.2425 -0.1254  0.4734
 8944TIP3    H126754   1.852   7.774   2.909  0.5699 -0.2880  0.4024
 8944TIP3    H226755   1.860   7.669   3.017 -1.8470  1.0898  1.9672
 8945TIP3   OH226756   2.631   5.201   5.137 -0.4372 -0.0670  0.7333
 8945TIP3    H126757   2.687   5.269   5.098 -1.0179 -0.5339 -0.9730
 8945TIP3    H226758   2.680   5.169   5.212  0.1408  1.7895  1.1757
 8946TIP3   OH226759   2.678   7.696   4.721 -0.0170 -0.6010  0.4203
 8946TIP3    H126760   2.721   7.750   4.654 -0.4947  0.2445  0.7790
 8946TIP3    H226761   2.613   7.645   4.673 -1.6441  1.3699  0.4767
 8947TIP3   OH226762   4.847   2.997   5.339 -0.1641  0.4837 -0.0162
 8947TIP3    H126763   4.876   3.087   5.357  3.9409 -0.8044  0.4476
 8947TIP3    H226764   4.862   2.950   5.421 -1.2182 -0.8553 -0.5793
 8948TIP3   OH226765   0.580   4.381   5.232 -0.1487  0.1730 -0.1462
 8948TIP3    H126766   0.671   4.368   5.257  0.1518 -0.5776 -1.5757
 8948TIP3    H226767   0.567   4.476   5.238  0.9947  0.3768 -0.8178
 8949TIP3   OH226768   4.609   5.526   6.296  0.0926 -0.0749 -0.4652
 8949TIP3    H126769   4.598   5.618   6.321  1.9598  0.1199 -0.2513
 8949TIP3    H226770   4.576   5.476   6.371 -0.3407  0.4303 -0.3203
 8950TIP3   OH226771   3.323   6.370   5.289 -0.1909  0.3638 -0.1590
 8950TIP3    H126772   3.325   6.275   5.290 -2.2901  0.2746  1.2605
 8950TIP3    H226773   3.262   6.392   5.219  0.0132  0.6430 -0.2486
 8951TIP3   OH226774   3.786   3.470   3.154  0.3663 -0.6960  0.5660
 8951TIP3    H126775   3.840   3.516   3.218 -0.9467  0.0968  1.1021
 8951TIP3    H226776   3.701   3.461   3.195 -1.3826  2.4051 -2.1417
 8952TIP3   OH226777   3.585   6.176   4.524  0.2845  0.5611  0.2707
 8952TIP3    H126778   3.616   6.264   4.545  0.2887  0.4028  0.9296
 8952TIP3    H226779   3.621   6.158   4.437  0.7973  0.9654  0.3952
 8953TIP3   OH226780   3.999   6.151   6.838 -0.2057 -0.6277 -0.4039
 8953TIP3    H126781   3.922   6.169   6.785 -0.2040 -3.6558 -1.4930
 8953TIP3    H226782   4.072   6.157   6.777  0.2176  0.1137  0.1743
 8954TIP3   OH226783   3.927   5.650   4.142  0.1976  0.3019 -0.1454
 8954TIP3    H126784   3.903   5.664   4.234 -2.1273 -0.5197 -0.6078
 8954TIP3    H226785   4.000   5.587   4.146 -0.5261 -0.4838  1.1047
 8955TIP3   OH226786   1.337   4.497   5.850 -0.2642  0.4214 -0.1284
 8955TIP3    H126787   1.322   4.466   5.761  1.7102  0.4044 -0.4746
 8955TIP3    H226788   1.358   4.590   5.839  1.9868 -0.0299  0.0945
 8956TIP3   OH226789   1.969   7.482   3.399  0.4769 -0.1173  0.2498
 8956TIP3    H126790   1.897   7.448   3.452  0.6585 -1.9219 -0.6018
 8956TIP3    H226791   2.009   7.550   3.453 -1.3684  0.3773  1.0577
 8957TIP3   OH226792   3.456   6.220   3.505  0.9630  0.6165  0.2140
 8957TIP3    H126793   3.507   6.295   3.474 -1.4975  1.4957 -1.8026
 8957TIP3    H226794   3.445   6.236   3.599  0.3315  2.8750 -0.2181
 8958TIP3   OH226795   3.539   5.878   4.352 -0.3764 -0.7244 -0.5531
 8958TIP3    H126796   3.634   5.880   4.344 -0.2660 -0.9950  0.5319
 8958TIP3    H226797   3.515   5.786   4.344 -0.6344 -0.5656 -1.6719
 8959TIP3   OH226798   5.972   4.940   2.994 -0.4364 -0.1681  0.5168
 8959TIP3    H126799   5.989   5.014   2.936 -0.4138  0.6195  1.5182
 8959TIP3    H226800   6.058   4.918   3.030 -0.6139  0.0267  1.0620
 8960TIP3   OH226801   3.194   4.701   5.722 -0.1131 -0.2318 -0.1846
 8960TIP3    H126802   3.208   4.621   5.672 -0.5374  0.5369 -1.5740
 8960TIP3    H226803   3.230   4.771   5.666  1.1297  0.4529  1.4207
 8961TIP3   OH226804   4.999   3.993   3.126  0.2744  0.6691  0.5987
 8961TIP3    H126805   5.026   4.039   3.205  0.3442 -0.1277  1.0422
 8961TIP3    H226806   5.053   3.914   3.124 -0.4024  0.2064  0.2676
 8962TIP3   OH226807   3.162   5.354   4.457  0.5819  0.2095  0.6145
 8962TIP3    H126808   3.210   5.369   4.376  1.2781 -0.2364  0.9367
 8962TIP3    H226809   3.225   5.310   4.514  0.3961  1.3616  1.7285
 8963TIP3   OH226810   5.219   6.525   2.976  0.4040 -0.3761 -0.1509
 8963TIP3    H126811   5.191   6.461   3.040 -0.3865 -0.9026 -1.0099
 8963TIP3    H226812   5.222   6.477   2.893 -1.8926  1.0856 -1.1225
 8964TIP3   OH226813   2.859   5.665   5.070 -0.0176 -0.1869 -0.1801
 8964TIP3    H126814   2.896   5.578   5.082  0.9535  0.2234 -0.1631
 8964TIP3    H226815   2.850   5.675   4.975  1.8722  0.5151 -0.2936
 8965TIP3   OH226816   6.556   5.000   5.026 -0.1834 -0.1865  0.0790
 8965TIP3    H126817   6.601   5.068   4.976  0.7785 -0.3941  0.6623
 8965TIP3    H226818   6.509   5.047   5.095 -2.3800  0.2078 -1.6222
 8966TIP3   OH226819   3.198   6.011   6.998  0.1331 -0.3026  0.0232
 8966TIP3    H126820   3.193   5.984   7.090  0.5249  0.4433  0.2641
 8966TIP3    H226821   3.107   6.032   6.974 -0.1213 -1.4572 -0.0583
 8967TIP3   OH226822   4.509   6.848   2.073  0.0160 -0.3802  0.0493
 8967TIP3    H126823   4.604   6.843   2.066  0.0525 -0.3358  0.4750
 8967TIP3    H226824   4.494   6.881   2.162 -0.4244 -1.7346  0.4944
 8968TIP3   OH226825   5.327   6.444   4.342 -0.2372  0.2502  0.2211
 8968TIP3    H126826   5.301   6.359   4.377  0.5747  0.2349  0.8019
 8968TIP3    H226827   5.384   6.423   4.267  1.5008  0.2626  1.5133
 8969TIP3   OH226828   5.814   6.635   2.650  0.7609  0.1851 -0.4534
 8969TIP3    H126829   5.838   6.720   2.687 -0.7446  0.1891  0.5534
 8969TIP3    H226830   5.742   6.604   2.705  0.2699 -1.0489 -1.7588
 8970TIP3   OH226831   6.138   4.815   4.836  0.2614 -0.3955  0.1048
 8970TIP3    H126832   6.210   4.754   4.854 -0.4048 -1.7279 -1.6153
 8970TIP3    H226833   6.109   4.792   4.748 -0.6793  1.7522 -0.1697
 8971TIP3   OH226834   4.317   7.387   2.019  0.1177  0.8934 -0.6754
 8971TIP3    H126835   4.280   7.419   1.937  0.9326  0.6953 -1.1274
 8971TIP3    H226836   4.355   7.302   1.997  1.1565  1.2555 -0.3116
 8972TIP3   OH226837   1.291   5.218   4.878  0.3329 -0.2646 -0.6551
 8972TIP3    H126838   1.347   5.291   4.906 -0.1766 -0.3542  0.6105
 8972TIP3    H226839   1.222   5.260   4.826 -0.3319  0.2361  0.6252
 8973TIP3   OH226840   2.676   5.669   4.404  0.4922 -0.2089 -0.1463
 8973TIP3    H126841   2.763   5.639   4.377  0.6031  2.9413 -3.7345
 8973TIP3    H226842   2.621   5.654   4.327 -0.8624  2.7826  0.1747
 8974TIP3   OH226843   4.041   5.426   4.528 -0.3423  0.4190 -0.0895
 8974TIP3    H126844   4.046   5.404   4.621 -0.2674 -0.8873 -0.4022
 8974TIP3    H226845   4.129   5.407   4.495 -0.9207 -0.9669 -0.8368
 8975TIP3   OH226846   3.512   8.180   3.546 -0.6652 -0.0151  0.0398
 8975TIP3    H126847   3.500   8.255   3.488  1.2185  1.3404  1.3204
 8975TIP3    H226848   3.459   8.200   3.623  0.1495  0.2022  0.5506
 8976TIP3   OH226849   4.587   6.606   4.595 -0.6557  0.0287 -0.0274
 8976TIP3    H126850   4.661   6.549   4.615  0.4030  1.4695  0.2186
 8976TIP3    H226851   4.615   6.657   4.518 -0.1627  2.6897  1.8243
 8977TIP3   OH226852   4.822   6.782   2.004 -0.0167 -0.3561 -0.4936
 8977TIP3    H126853   4.832   6.688   1.990  1.5331 -0.5799  1.8181
 8977TIP3    H226854   4.796   6.817   1.918  0.5948 -2.7025 -1.6660
 8978TIP3   OH226855   4.591   4.959   4.985  0.3757  0.4031  0.1014
 8978TIP3    H126856   4.671   5.011   4.995 -0.3628  1.8464 -1.3368
 8978TIP3    H226857   4.585   4.941   4.891 -3.2425  4.0633 -0.5202
 8979TIP3   OH226858   2.369   6.799   2.250 -0.5434 -0.0347 -0.1590
 8979TIP3    H126859   2.279   6.771   2.232 -0.8653  0.6814  0.3470
 8979TIP3    H226860   2.415   6.784   2.167 -1.0710 -0.6104 -0.3551
 8980TIP3   OH226861   4.523   5.784   6.285  0.9186 -0.2411  0.3099
 8980TIP3    H126862   4.539   5.879   6.282 -0.2456 -0.0896 -2.2277
 8980TIP3    H226863   4.430   5.777   6.307  0.6534 -0.7583 -0.9527
 8981TIP3   OH226864   6.230   6.304   4.145 -0.3796  0.4953 -0.3508
 8981TIP3    H126865   6.263   6.353   4.070  1.3998 -0.1838 -0.0423
 8981TIP3    H226866   6.147   6.266   4.115  0.3774  0.1326 -2.0172
 8982TIP3   OH226867   1.920   8.134   5.924  0.1591  0.8705  0.6606
 8982TIP3    H126868   1.952   8.115   6.013 -2.0929 -1.0994  1.1197
 8982TIP3    H226869   1.906   8.229   5.923  1.4496  1.0848  1.9910
 8983TIP3   OH226870   3.601   5.750   1.002 -0.3872 -0.1617 -0.0509
 8983TIP3    H126871   3.653   5.718   1.075 -1.9479 -2.7831 -0.0487
 8983TIP3    H226872   3.663   5.759   0.930  0.5817 -0.5402  0.7303
 8984TIP3   OH226873   5.198   5.151   3.277  0.1938 -0.1595 -0.2845
 8984TIP3    H126874   5.219   5.132   3.368  1.4224  1.8191 -0.1336
 8984TIP3    H226875   5.280   5.133   3.230 -0.0186  0.2200 -0.7980
 8985TIP3   OH226876   3.994   5.247   2.380 -0.1994  0.1179  0.5835
 8985TIP3    H126877   4.028   5.232   2.468  0.8216 -0.2221  0.1392
 8985TIP3    H226878   3.996   5.161   2.338  0.2993  0.4622 -0.1124
 8986TIP3   OH226879   4.024   3.892   5.401 -0.2977 -0.6008  0.6364
 8986TIP3    H126880   4.058   3.972   5.362 -0.5628 -0.9952 -0.4285
 8986TIP3    H226881   4.102   3.839   5.418 -0.0095  0.3742  2.5181
 8987TIP3   OH226882   3.075   7.053   5.668  0.1045  0.2549 -0.0015
 8987TIP3    H126883   3.114   7.089   5.747 -0.6317  1.9101 -0.3857
 8987TIP3    H226884   2.984   7.036   5.690 -0.2556  1.2806 -0.6562
 8988TIP3   OH226885   5.044   4.042   6.536 -0.2848  0.6863  0.1255
 8988TIP3    H126886   5.007   4.127   6.513 -0.6257 -0.3977 -3.6378
 8988TIP3    H226887   5.137   4.050   6.516  0.0389  0.7223  1.5579
 8989TIP3   OH226888   5.487   5.711   5.479  0.2004 -0.2248 -0.1600
 8989TIP3    H126889   5.424   5.644   5.505  0.4851 -0.5814 -0.3644
 8989TIP3    H226890   5.439   5.793   5.484 -0.3279 -0.5099 -0.4808
 8990TIP3   OH226891   4.154   5.823   3.514  0.0607  0.3504 -0.8882
 8990TIP3    H126892   4.165   5.791   3.603  0.8227  0.4763 -0.9345
 8990TIP3    H226893   4.239   5.861   3.491 -0.1490  0.3790 -1.6419
 8991TIP3   OH226894   3.985   5.367   4.807 -0.0061  0.0763 -0.4909
 8991TIP3    H126895   3.985   5.460   4.828 -0.4869  0.1200 -0.6866
 8991TIP3    H226896   3.893   5.341   4.811  0.0640 -0.2589 -1.0244
 8992TIP3   OH226897   4.724   5.175   5.265 -0.2782  0.1869  0.4555
 8992TIP3    H126898   4.636   5.141   5.285  0.4039 -0.9081  1.7032
 8992TIP3    H226899   4.763   5.191   5.351  0.6426  0.9205 -0.0997
 8993TIP3   OH226900   4.399   4.382   3.602 -0.6507 -1.1435  0.4325
 8993TIP3    H126901   4.351   4.329   3.539 -0.8520 -0.8527  0.3364
 8993TIP3    H226902   4.343   4.385   3.679 -1.2354 -0.0281 -0.0123
 8994TIP3   OH226903   4.005   5.928   6.549 -0.4714  0.9897 -0.0253
 8994TIP3    H126904   3.919   5.963   6.574 -0.9470 -0.5237  0.5372
 8994TIP3    H226905   3.988   5.876   6.471 -0.4983 -1.2110  1.4116
 8995TIP3   OH226906   2.439   6.583   3.290 -0.1289 -0.1170 -0.3152
 8995TIP3    H126907   2.500   6.516   3.260  1.6378  1.4479 -0.2592
 8995TIP3    H226908   2.488   6.665   3.284 -1.4186  0.8613  2.0197
 8996TIP3   OH226909   3.294   4.691   4.925  0.0037  0.3888 -0.5829
 8996TIP3    H126910   3.201   4.698   4.905 -0.7655 -0.0796  2.4951
 8996TIP3    H226911   3.322   4.610   4.883 -1.8703 -1.3739  1.4640
 8997TIP3   OH226912   2.378   4.127   4.500  0.3007 -1.0984  0.0027
 8997TIP3    H126913   2.429   4.048   4.479 -1.0927 -1.5008 -1.9200
 8997TIP3    H226914   2.425   4.198   4.457  1.4193 -0.8867  1.5311
 8998TIP3   OH226915   3.127   6.316   3.775  0.1033 -0.2172 -0.4295
 8998TIP3    H126916   3.105   6.354   3.860  0.7037  0.6284 -0.6480
 8998TIP3    H226917   3.047   6.323   3.724  1.0881  3.9303 -1.6172
 8999TIP3   OH226918   3.683   5.502   6.005  0.0086 -0.2639  0.3967
 8999TIP3    H126919   3.764   5.469   6.045  0.2357  1.3718  1.3323
 8999TIP3    H226920   3.702   5.507   5.912  0.9008 -0.1782  0.5768
 9000TIP3   OH226921   3.117   5.847   4.181  0.1247 -0.2503  0.3306
 9000TIP3    H126922   3.179   5.884   4.118 -1.4444  2.0441  0.0807
 9000TIP3    H226923   3.040   5.824   4.129 -0.9145  1.0147  1.2680
 9001TIP3   OH226924   4.857   7.227   3.591 -0.0074 -0.0389 -0.1872
 9001TIP3    H126925   4.886   7.296   3.651  1.4927 -0.0591 -0.8725
 9001TIP3    H226926   4.841   7.272   3.508 -0.7960 -0.2307 -0.1461
 9002TIP3   OH226927   3.524   7.266   5.211  0.0125  0.0841 -0.9944
 9002TIP3    H126928   3.443   7.251   5.260  0.2338  1.7341 -0.0894
 9002TIP3    H226929   3.516   7.211   5.134 -1.0298 -1.3984  0.1433
 9003TIP3   OH226930   3.702   7.038   2.909 -0.1115 -0.0829 -0.0577
 9003TIP3    H126931   3.760   7.093   2.961 -0.6597  0.0325  0.4307
 9003TIP3    H226932   3.645   6.995   2.973 -0.3827 -0.4143 -0.5131
 9004TIP3   OH226933   2.868   6.380   6.305  0.0837  0.0451  0.2448
 9004TIP3    H126934   2.853   6.365   6.398 -2.6404  1.3410  0.0668
 9004TIP3    H226935   2.850   6.296   6.263 -1.7589  0.2346  0.6119
 9005TIP3   OH226936   3.421   5.660   3.003 -0.0062 -0.5669 -0.4791
 9005TIP3    H126937   3.397   5.655   3.096  2.7371 -2.1606  0.2066
 9005TIP3    H226938   3.356   5.719   2.964 -2.8933 -2.0675  1.8770
 9006TIP3   OH226939   2.390   6.324   5.723  0.0879  0.3295  0.2242
 9006TIP3    H126940   2.358   6.359   5.640  0.1398 -0.0867  0.0274
 9006TIP3    H226941   2.317   6.337   5.784 -0.5059 -0.7098 -0.2480
 9007TIP3   OH226942   3.679   5.743   3.012 -0.3812 -0.0528 -0.0430
 9007TIP3    H126943   3.584   5.749   3.000 -0.2806  1.3533 -0.2011
 9007TIP3    H226944   3.712   5.711   2.928 -0.6923 -0.3955 -0.0375
 9008TIP3   OH226945   3.098   6.829   4.692  0.2803 -0.6709 -0.2332
 9008TIP3    H126946   3.021   6.775   4.705 -0.8699  1.1759  0.9706
 9008TIP3    H226947   3.068   6.900   4.635  0.6565  0.8297  1.3710
 9009TIP3   OH226948   2.248   5.844   4.829 -0.4834  0.0053  0.3756
 9009TIP3    H126949   2.332   5.819   4.867 -1.0821 -0.1012  1.6413
 9009TIP3    H226950   2.200   5.761   4.819 -1.1721  0.2529  1.4642
 9010TIP3   OH226951   2.530   5.925   4.741  0.3225  0.4973  0.2339
 9010TIP3    H126952   2.617   5.908   4.707 -0.3074  0.4830 -1.3939
 9010TIP3    H226953   2.526   5.876   4.823  0.8193 -1.8583 -1.1179
 9011TIP3   OH226954   3.275   6.867   6.738 -0.0427  0.3435 -0.4584
 9011TIP3    H126955   3.364   6.830   6.737  0.1673  0.8226 -2.6863
 9011TIP3    H226956   3.283   6.948   6.687 -1.7756  0.3800 -0.6820
 9012TIP3   OH226957   4.201   5.260   3.941 -0.0397  0.6901 -0.0703
 9012TIP3    H126958   4.263   5.208   3.993  0.1087  0.8992 -0.0381
 9012TIP3    H226959   4.191   5.211   3.860 -0.8530 -0.0268  0.4650
 9013TIP3   OH226960   3.517   5.673   4.608 -0.3713  0.1870 -0.8298
 9013TIP3    H126961   3.508   5.765   4.633  0.4535  0.2944 -0.9100
 9013TIP3    H226962   3.533   5.627   4.691 -0.1637  0.1956 -0.8670
 9014TIP3   OH226963   6.463   7.542   2.011  0.6681  0.0697 -0.1304
 9014TIP3    H126964   6.394   7.539   2.078  0.0839  0.2457 -0.7221
 9014TIP3    H226965   6.441   7.471   1.951  1.6833 -0.6419  0.3321
 9015TIP3   OH226966   5.044   5.894   5.247  0.4224  0.0832 -0.3601
 9015TIP3    H126967   4.964   5.902   5.300  1.0020 -1.3029  0.7696
 9015TIP3    H226968   5.035   5.810   5.203  0.8825  0.3108 -0.8917
 9016TIP3   OH226969   3.426   4.305   4.468 -0.1485 -0.0739 -0.1244
 9016TIP3    H126970   3.418   4.210   4.456 -0.5270 -0.3065  1.8137
 9016TIP3    H226971   3.500   4.315   4.528  0.8135  0.9519 -1.4343
 9017TIP3   OH226972   3.063   7.072   1.514  0.5652  0.4635  0.2035
 9017TIP3    H126973   3.061   7.153   1.565 -1.5021  0.2875  0.4196
 9017TIP3    H226974   3.022   7.095   1.430  3.2628  0.5570 -1.1556
 9018TIP3   OH226975   5.911   4.560   6.105  0.2170 -0.2658  0.3076
 9018TIP3    H126976   5.909   4.507   6.026  2.9083  2.6820 -1.8168
 9018TIP3    H226977   5.829   4.610   6.103  2.0274  2.7650 -2.8354
 9019TIP3   OH226978   3.491   6.956   5.382  0.7461 -0.7931 -0.0128
 9019TIP3    H126979   3.411   6.964   5.434 -0.6420 -0.7815 -2.1373
 9019TIP3    H226980   3.556   7.006   5.432 -0.7969  0.0459  1.2057
 9020TIP3   OH226981   3.169   5.777   5.043 -0.2667  0.0906  0.4874
 9020TIP3    H126982   3.207   5.832   4.974  0.0850 -0.0875  0.5397
 9020TIP3    H226983   3.074   5.785   5.030 -0.2986  2.7801  2.1150
 9021TIP3   OH226984   3.350   4.933   3.300  0.3240 -0.1549  0.0729
 9021TIP3    H126985   3.330   4.925   3.206 -1.6504  1.9263  0.2614
 9021TIP3    H226986   3.425   4.993   3.304 -0.1117  0.4188 -0.1667
 9022TIP3   OH226987   3.551   6.142   5.178 -0.1952  0.0568 -0.1212
 9022TIP3    H126988   3.458   6.127   5.193 -0.1978  0.4403  0.2366
 9022TIP3    H226989   3.556   6.230   5.141  0.0265  0.0484 -0.1116
 9023TIP3   OH226990   3.301   6.545   5.476 -0.3746 -0.1227  0.3256
 9023TIP3    H126991   3.323   6.474   5.416  0.1433 -1.9750  2.6132
 9023TIP3    H226992   3.207   6.557   5.466 -0.3155 -0.4881 -0.7378
 9024TIP3   OH226993   5.434   3.490   4.485  0.2904  0.0965  0.1567
 9024TIP3    H126994   5.501   3.444   4.534  0.3642 -2.6413 -2.3667
 9024TIP3    H226995   5.483   3.548   4.427  0.5614 -1.8911 -1.6747
 9025TIP3   OH226996   5.064   7.460   4.802 -0.0025 -0.0617 -0.1191
 9025TIP3    H126997   5.154   7.434   4.819 -0.2286 -1.2739 -0.7744
 9025TIP3    H226998   5.049   7.437   4.711 -0.7230  0.8931 -0.2533
 9026TIP3   OH226999   5.873   4.664   2.927  0.5438 -0.4222 -0.2638
 9026TIP3    H127000   5.916   4.733   2.977 -0.8862 -0.4786  1.0843
 9026TIP3    H227001   5.855   4.595   2.991 -1.3483 -0.4830 -0.8260
 9027TIP3   OH227002   4.037   4.489   4.973 -0.3386 -0.2127  0.1468
 9027TIP3    H127003   3.989   4.407   4.963  0.0592 -0.4606  0.2455
 9027TIP3    H227004   4.072   4.507   4.886  0.0652 -0.4537  0.2608
 9028TIP3   OH227005   4.183   6.338   2.716 -0.1321  0.4801  0.5106
 9028TIP3    H127006   4.097   6.314   2.750  0.4605  0.0018  1.7079
 9028TIP3    H227007   4.204   6.268   2.653 -1.3726  1.5382 -1.1215
 9029TIP3   OH227008   3.235   5.790   3.726 -0.1461 -0.3431  0.0863
 9029TIP3    H127009   3.269   5.820   3.641 -1.9211  1.3289 -0.0810
 9029TIP3    H227010   3.288   5.836   3.791 -0.4411  0.3507 -0.1557
 9030TIP3   OH227011   2.099   5.699   3.876 -0.0940 -0.1353  0.7103
 9030TIP3    H127012   2.137   5.675   3.791 -0.1891  0.5383  0.4770
 9030TIP3    H227013   2.020   5.645   3.882 -0.0259 -0.2694  0.4207
 9031TIP3   OH227014   3.042   7.516   4.004  0.6302 -0.1160  0.0865
 9031TIP3    H127015   3.075   7.553   3.923  0.4121  0.0201  0.0589
 9031TIP3    H227016   3.067   7.423   4.001  0.2114 -0.2119 -0.3459
 9032TIP3   OH227017   4.255   5.291   4.736 -0.5237 -0.2735  0.0464
 9032TIP3    H127018   4.267   5.384   4.714  1.3435 -0.3105  0.8891
 9032TIP3    H227019   4.179   5.290   4.795  0.6628  0.9390  1.6204
 9033TIP3   OH227020   5.168   5.642   4.534  0.0152  0.1007 -0.0446
 9033TIP3    H127021   5.114   5.660   4.457  1.3093  2.0307 -0.5329
 9033TIP3    H227022   5.141   5.709   4.598  1.2181  0.5439  0.0077
 9034TIP3   OH227023   2.674   8.352   5.426 -0.1725 -0.2774 -0.1679
 9034TIP3    H127024   2.748   8.408   5.404  0.3737 -0.7415  0.4649
 9034TIP3    H227025   2.631   8.334   5.342  0.0470  0.5113 -0.4613
 9035TIP3   OH227026   6.593   5.725   3.857  0.1158  0.5044 -0.7418
 9035TIP3    H127027   6.617   5.649   3.804  0.8260 -0.1796  0.5284
 9035TIP3    H227028   6.499   5.713   3.875  1.1847 -2.6356  3.4048
 9036TIP3   OH227029   4.832   6.823   1.676  0.2758  0.2153 -0.3632
 9036TIP3    H127030   4.898   6.865   1.621 -0.0323  0.2391 -0.7221
 9036TIP3    H227031   4.775   6.778   1.613  0.4675 -0.5429 -0.0046
 9037TIP3   OH227032   4.232   6.327   3.910 -0.9683 -0.3244  0.3907
 9037TIP3    H127033   4.243   6.245   3.861 -0.4521 -0.2214  0.3301
 9037TIP3    H227034   4.138   6.331   3.930 -1.6007  0.7358 -2.5338
 9038TIP3   OH227035   4.528   6.163   3.445  0.3417  0.7530 -0.4801
 9038TIP3    H127036   4.578   6.238   3.413 -0.3998  0.0726 -3.3969
 9038TIP3    H227037   4.452   6.202   3.489  0.6645  1.7051 -0.7484
 9039TIP3   OH227038   5.868   4.063   3.596  0.0822  0.5653  0.5926
 9039TIP3    H127039   5.906   4.151   3.592  0.5463  0.3350 -0.1639
 9039TIP3    H227040   5.943   4.004   3.591 -0.2105  0.1217  1.3759
 9040TIP3   OH227041   4.269   5.335   4.425 -0.1036  0.3967  0.2547
 9040TIP3    H127042   4.286   5.247   4.459 -1.5829 -0.6943 -1.7335
 9040TIP3    H227043   4.345   5.354   4.370 -0.7151 -0.5082 -0.9384
 9041TIP3   OH227044   1.880   6.352   5.307 -0.2953  0.0188  0.3811
 9041TIP3    H127045   1.865   6.262   5.278 -1.8007  0.2590  0.3874
 9041TIP3    H227046   1.935   6.390   5.238 -1.7213 -0.1716 -0.8856
 9042TIP3   OH227047   5.071   6.146   3.710  0.8680 -0.7091  0.5120
 9042TIP3    H127048   5.126   6.224   3.721 -0.2536 -0.2344  2.8832
 9042TIP3    H227049   5.133   6.073   3.711  1.6956 -0.0219  0.5688
 9043TIP3   OH227050   3.519   4.640   4.161 -0.5075  0.5478  0.1676
 9043TIP3    H127051   3.481   4.552   4.159  0.8912 -0.0192 -1.8110
 9043TIP3    H227052   3.464   4.691   4.102 -0.3576  0.6315  0.1025
 9044TIP3   OH227053   4.259   6.158   2.294 -0.4690  0.2428 -0.0978
 9044TIP3    H127054   4.295   6.162   2.206  0.8998 -0.7034  0.3855
 9044TIP3    H227055   4.204   6.079   2.294  0.2094 -0.2383  0.1199
 9045TIP3   OH227056   4.679   6.037   3.178 -0.3911  0.3541 -0.0206
 9045TIP3    H127057   4.765   6.072   3.155 -0.9101  1.6149 -0.0426
 9045TIP3    H227058   4.677   6.038   3.273 -0.2971  0.0951 -0.0136
 9046TIP3   OH227059   3.482   5.262   5.834  0.7171  0.0207 -0.1773
 9046TIP3    H127060   3.509   5.223   5.916  2.4872 -0.8667 -1.1653
 9046TIP3    H227061   3.440   5.344   5.859  0.7194 -0.5160  1.6308
 9047TIP3   OH227062   4.580   6.028   2.734 -0.3312  0.0508  0.2137
 9047TIP3    H127063   4.649   5.962   2.747 -0.1333 -0.0823 -1.3666
 9047TIP3    H227064   4.625   6.112   2.749  0.3997  0.0076 -1.5375
 9048TIP3   OH227065   8.839   1.353   1.299  0.5414 -0.5647 -1.0830
 9048TIP3    H127066   8.881   1.267   1.303  0.6051 -0.5442 -1.3036
 9048TIP3    H227067   8.830   1.371   1.205  1.1831 -0.0067 -1.0362
 9049TIP3   OH227068   4.098   4.540   3.446 -0.1667  0.3419  0.1235
 9049TIP3    H127069   4.053   4.556   3.363 -1.1643  0.8406  0.7604
 9049TIP3    H227070   4.058   4.460   3.480  0.7500 -0.2732 -0.2207
 9050TIP3   OH227071   3.270   5.973   4.389 -0.2824 -0.2642 -0.2545
 9050TIP3    H127072   3.348   5.919   4.379  0.1414 -0.0051  1.4278
 9050TIP3    H227073   3.200   5.922   4.349  0.1458 -2.0142  1.1351
 9051TIP3   OH227074   2.091   5.090   4.805  0.3086 -0.2867 -0.2774
 9051TIP3    H127075   2.100   5.027   4.733 -1.4828 -0.7154 -0.1290
 9051TIP3    H227076   2.005   5.129   4.793  1.0113  1.4776  0.1904
 9052TIP3   OH227077   4.221   5.693   4.271  0.2631 -0.1705  0.1354
 9052TIP3    H127078   4.223   5.771   4.215  0.7930  0.0745  0.4883
 9052TIP3    H227079   4.246   5.622   4.212 -0.2661 -0.0767 -0.1986
 9053TIP3   OH227080   4.735   4.456   3.852  0.2112 -0.1898 -0.1421
 9053TIP3    H127081   4.668   4.499   3.800 -0.0179 -0.6870 -0.2571
 9053TIP3    H227082   4.808   4.519   3.854 -0.6871  0.8494  0.9511
 9054TIP3   OH227083   3.685   5.735   3.992 -0.2434  0.8210 -0.2887
 9054TIP3    H127084   3.737   5.814   3.979  0.5747  0.3134 -0.1230
 9054TIP3    H227085   3.718   5.697   4.073 -1.0879  0.6528 -0.0115
 9055TIP3   OH227086   4.260   5.451   3.414 -0.8127 -0.2002 -0.0920
 9055TIP3    H127087   4.188   5.438   3.476 -0.5729  0.5147  0.3395
 9055TIP3    H227088   4.242   5.536   3.374 -0.0386  0.1176  0.2316
 9056TIP3   OH227089   3.749   7.204   2.693  0.0806 -0.8060 -0.5816
 9056TIP3    H127090   3.719   7.145   2.762  1.6875 -1.5460 -0.4940
 9056TIP3    H227091   3.741   7.292   2.731 -1.6167 -1.0063 -0.4483
 9057TIP3   OH227092   2.518   6.673   4.510 -0.4299 -0.3707  0.1376
 9057TIP3    H127093   2.556   6.750   4.469 -0.6234 -0.1562  0.3542
 9057TIP3    H227094   2.458   6.637   4.444 -1.3112  0.4090  0.4989
 9058TIP3   OH227095   4.743   7.561   2.973 -0.4467  0.2698 -0.0477
 9058TIP3    H127096   4.722   7.582   2.882  1.3726 -0.5706 -0.6813
 9058TIP3    H227097   4.804   7.487   2.967 -0.8364 -0.2357  1.8809
 9059TIP3   OH227098   3.914   4.939   5.425  0.2549  0.1983  0.1068
 9059TIP3    H127099   3.857   4.911   5.354 -0.0535  0.5141  0.2297
 9059TIP3    H227100   3.882   4.893   5.503  1.0188 -0.6800 -0.0848
 9060TIP3   OH227101   2.139   5.742   4.145 -0.1795 -0.3223  0.2717
 9060TIP3    H127102   2.117   5.777   4.058 -0.2396  0.3185  0.5404
 9060TIP3    H227103   2.089   5.797   4.206  0.0657 -0.6048  0.7309
 9061TIP3   OH227104   3.267   6.140   5.113  0.3081 -0.3658 -0.3210
 9061TIP3    H127105   3.224   6.214   5.070 -1.6182 -0.2663  1.6857
 9061TIP3    H227106   3.292   6.082   5.041 -2.6735 -0.1241 -1.6190
 9062TIP3   OH227107   2.296   6.584   5.628 -0.5055 -0.2889 -0.0309
 9062TIP3    H127108   2.230   6.649   5.605 -0.2198 -0.6465 -1.9965
 9062TIP3    H227109   2.376   6.635   5.640 -0.8427 -0.0016  1.0741
 9063TIP3   OH227110   2.005   5.970   4.720  0.3499  0.6163  0.2026
 9063TIP3    H127111   2.056   5.915   4.780 -0.1969  1.5706  1.5568
 9063TIP3    H227112   1.944   5.909   4.678  0.5372 -0.0092  0.8203
 9064TIP3   OH227113   3.913   5.638   5.344  0.5124 -0.0250  0.3231
 9064TIP3    H127114   3.881   5.639   5.254  1.5980  1.1392 -0.0589
 9064TIP3    H227115   4.000   5.598   5.338  0.4687 -0.2187  0.9057
 9065TIP3   OH227116   4.667   6.848   4.473 -0.9428  0.3178 -0.0617
 9065TIP3    H127117   4.761   6.840   4.459 -0.7872 -0.9012  1.5740
 9065TIP3    H227118   4.651   6.942   4.475  0.1030  0.5307 -1.1479
 9066TIP3   OH227119   3.191   7.027   5.225  0.1515 -0.3352  0.3130
 9066TIP3    H127120   3.096   7.018   5.211  0.1135  0.0419  0.3423
 9066TIP3    H227121   3.218   6.940   5.253  0.0254 -0.7823 -0.9103
 9067TIP3   OH227122   1.870   6.750   4.015 -0.3492  0.6402  0.3780
 9067TIP3    H127123   1.803   6.704   3.964 -0.4384 -0.5331  1.5026
 9067TIP3    H227124   1.858   6.842   3.994 -2.3359  0.4420  0.5707
 9068TIP3   OH227125   6.488   0.175   3.829  0.0479 -0.3257  0.1559
 9068TIP3    H127126   6.520   0.254   3.873  1.5038 -1.7264  1.6793
 9068TIP3    H227127   6.560   0.148   3.772 -0.7594 -0.1169 -0.9843
 9069TIP3   OH227128   3.720   4.670   4.360  0.2002 -0.1599  0.1177
 9069TIP3    H127129   3.656   4.693   4.293  0.3042  1.2428  0.4904
 9069TIP3    H227130   3.788   4.737   4.352  1.0988 -1.0233  0.4304
 9070TIP3   OH227131   6.742   7.334   3.311 -0.3519 -0.2354 -0.0949
 9070TIP3    H127132   6.691   7.367   3.385 -0.9106  0.2327 -0.6748
 9070TIP3    H227133   6.695   7.366   3.234  0.2659 -0.6497 -0.6503
 9071TIP3   OH227134   3.636   4.194   3.326 -0.2412  0.3940  0.1214
 9071TIP3    H127135   3.680   4.278   3.341  1.5276 -0.3579 -0.6557
 9071TIP3    H227136   3.555   4.218   3.282 -0.0979  1.7585  0.5557
 9072TIP3   OH227137   1.452   6.561   5.149  0.4425 -0.0420 -0.2179
 9072TIP3    H127138   1.510   6.485   5.161  0.0137 -0.2919  0.3038
 9072TIP3    H227139   1.493   6.611   5.079 -0.0735 -1.5461 -1.6329
 9073TIP3   OH227140   2.787   6.730   2.810 -0.0022  0.1048  0.0273
 9073TIP3    H127141   2.814   6.732   2.718  0.6441  1.7033  0.2389
 9073TIP3    H227142   2.720   6.798   2.817 -2.0277 -1.8466  0.1639
 9074TIP3   OH227143   2.425   6.148   5.367 -0.1219  0.0645 -0.3947
 9074TIP3    H127144   2.346   6.186   5.328  0.4638  0.6776 -0.9860
 9074TIP3    H227145   2.489   6.218   5.365  1.0571 -1.0456 -1.7549
 9075TIP3   OH227146   5.074   4.421   2.823 -0.1429 -0.3479 -0.4478
 9075TIP3    H127147   5.052   4.330   2.846 -2.3051 -0.1860 -1.7887
 9075TIP3    H227148   5.142   4.445   2.886 -0.8052 -2.3127  1.0796
 9076TIP3   OH227149   2.721   6.780   3.296  0.1968 -0.6001  0.1042
 9076TIP3    H127150   2.776   6.841   3.247 -0.8810  0.5063  0.2237
 9076TIP3    H227151   2.714   6.820   3.383 -0.6180 -0.8170  0.1433
 9077TIP3   OH227152   3.689   5.484   5.375 -0.0964 -0.4469  0.5436
 9077TIP3    H127153   3.780   5.515   5.373  0.0091 -0.8098 -0.7457
 9077TIP3    H227154   3.693   5.399   5.419  0.1885 -0.4454  0.5201
 9078TIP3   OH227155   4.616   6.269   4.550 -0.5497 -0.1695 -0.0134
 9078TIP3    H127156   4.627   6.295   4.459 -4.3727  1.6925 -0.0435
 9078TIP3    H227157   4.546   6.203   4.548  0.9726 -1.9055  1.3711
 9079TIP3   OH227158   3.685   5.358   4.197 -0.7057 -0.2966  0.1972
 9079TIP3    H127159   3.742   5.398   4.132 -1.0788 -0.2732 -0.1178
 9079TIP3    H227160   3.661   5.273   4.160 -0.1350 -0.7024  0.7429
 9080TIP3   OH227161   4.590   5.161   3.669 -0.3364  0.0298  0.1743
 9080TIP3    H127162   4.634   5.191   3.749  1.2344 -0.9267 -0.3047
 9080TIP3    H227163   4.500   5.144   3.696 -0.0899  0.7488  1.4997
 9081TIP3   OH227164   1.281   4.408   4.147  0.6236  0.3387  0.1950
 9081TIP3    H127165   1.292   4.419   4.241 -0.5907 -1.5152  0.5574
 9081TIP3    H227166   1.313   4.491   4.110  2.2801  0.6029  2.1284
 9082TIP3   OH227167   3.899   5.256   3.988  0.1248  0.1649  0.4229
 9082TIP3    H127168   3.992   5.280   3.989  0.0831  0.3163  0.7589
 9082TIP3    H227169   3.899   5.161   3.978  0.3344  0.0779  1.2057
 9083TIP3   OH227170   4.179   5.759   1.807  0.0701  0.3001  0.8178
 9083TIP3    H127171   4.140   5.699   1.744 -0.0234  1.7965 -0.5912
 9083TIP3    H227172   4.144   5.732   1.891 -0.8267 -0.9085  0.0748
 9084TIP3   OH227173   3.682   4.657   4.983 -0.3239 -0.1087 -0.0313
 9084TIP3    H127174   3.612   4.680   5.045  2.3364  2.4051  2.1542
 9084TIP3    H227175   3.685   4.731   4.922  0.4920 -0.1553 -0.0504
 9085TIP3   OH227176   2.162   6.814   6.781 -0.6752  0.6109 -0.9132
 9085TIP3    H127177   2.118   6.782   6.703 -1.0145 -0.1993 -0.3951
 9085TIP3    H227178   2.243   6.854   6.748 -0.1456 -0.9568 -1.5484
 9086TIP3   OH227179   4.701   4.089   1.974 -0.4588  0.6123  0.3474
 9086TIP3    H127180   4.744   4.169   1.943  0.8541 -0.4303 -0.5695
 9086TIP3    H227181   4.757   4.056   2.044  0.4021 -0.8834 -1.0164
 9087TIP3   OH227182   2.600   6.433   2.517  0.0633  0.0046  0.5716
 9087TIP3    H127183   2.512   6.399   2.535  0.3550 -0.8053  0.4630
 9087TIP3    H227184   2.585   6.524   2.490 -0.6670  0.1731  1.5042
 9088TIP3   OH227185   5.293   6.117   2.707  0.1482 -0.1810 -0.2435
 9088TIP3    H127186   5.300   6.052   2.776  0.3454 -0.2230 -0.3029
 9088TIP3    H227187   5.256   6.070   2.633  1.6900 -0.5913 -0.7719
 9089TIP3   OH227188   0.895   0.633   0.833  0.2219  0.3036 -0.0537
 9089TIP3    H127189   0.989   0.616   0.832 -0.0025 -1.0176 -1.8290
 9089TIP3    H227190   0.861   0.573   0.900  0.7439  1.4346  1.2337
 9090TIP3   OH227191   4.759   5.434   3.162 -0.0409  0.0793  0.0132
 9090TIP3    H127192   4.771   5.503   3.226  0.0428  0.5308 -0.4869
 9090TIP3    H227193   4.840   5.383   3.167 -0.6407 -0.7809  1.3218
 9091TIP3   OH227194   4.879   4.972   4.606  0.1348 -0.5848  0.3406
 9091TIP3    H127195   4.797   4.960   4.559 -1.5014 -0.2624  2.9864
 9091TIP3    H227196   4.902   4.885   4.638  1.0160 -0.7376 -0.7140
 9092TIP3   OH227197   5.377   7.125   4.115  0.0247  0.5311  0.2734
 9092TIP3    H127198   5.451   7.185   4.108  1.3252 -1.0721 -0.1079
 9092TIP3    H227199   5.413   7.048   4.160 -1.7538  0.2648  1.2790
 9093TIP3   OH227200   4.831   5.640   4.676 -0.0467  0.1867 -0.3008
 9093TIP3    H127201   4.849   5.648   4.770 -2.5984 -0.7867  0.3173
 9093TIP3    H227202   4.750   5.688   4.664 -0.9794 -1.6619 -1.5636
 9094TIP3   OH227203   6.496   8.013   4.011 -0.3202  0.2583 -0.1427
 9094TIP3    H127204   6.580   7.990   3.972 -0.7082 -0.2140 -0.7024
 9094TIP3    H227205   6.467   8.090   3.962 -1.0117 -0.5920 -1.0969
 9095TIP3   OH227206   6.149   6.326   3.639 -0.3161  0.0086  0.0448
 9095TIP3    H127207   6.120   6.414   3.662 -0.4220 -0.0417  0.1005
 9095TIP3    H227208   6.242   6.337   3.615 -0.5003  0.2436 -0.5729
 9096TIP3   OH227209   8.706   0.132   1.689  0.2082  0.1463  0.2474
 9096TIP3    H127210   8.665   0.121   1.603 -0.7884  3.2050  0.2800
 9096TIP3    H227211   8.786   0.181   1.671  0.0908  0.6251  1.0470
 9097TIP3   OH227212   5.230   7.899   5.572 -0.0664  0.1285 -0.4134
 9097TIP3    H127213   5.204   7.830   5.511 -0.4563  1.7304 -2.1016
 9097TIP3    H227214   5.187   7.978   5.539  0.5401  1.2348  1.3615
 9098TIP3   OH227215   7.801   6.114   3.258 -0.2985 -0.2596 -0.2238
 9098TIP3    H127216   7.781   6.023   3.280  2.0435 -1.0651 -1.2663
 9098TIP3    H227217   7.716   6.157   3.254 -1.4204 -2.3441  0.5003
 9099TIP3   OH227218   4.404   6.824   4.725  0.4904 -0.0978 -0.2066
 9099TIP3    H127219   4.435   6.858   4.809  0.5148  0.8490 -0.5964
 9099TIP3    H227220   4.422   6.730   4.730  0.5192 -0.0496  0.8339
 9100TIP3   OH227221   7.812   7.496   3.130  0.3227 -0.2880 -0.0667
 9100TIP3    H127222   7.800   7.582   3.171  0.1166 -0.7808  0.9126
 9100TIP3    H227223   7.778   7.507   3.041  0.3432  0.6597  0.0358
 9101TIP3   OH227224   5.628   7.872   3.111  0.4459  0.0604 -0.4651
 9101TIP3    H127225   5.697   7.814   3.143 -0.7599 -0.7274  0.7431
 9101TIP3    H227226   5.569   7.815   3.063  1.4475  0.9944 -2.8858
 9102TIP3   OH227227   6.082   5.190   2.879 -0.3022 -0.3507 -0.1998
 9102TIP3    H127228   6.138   5.231   2.944 -0.7386 -1.3556  0.8186
 9102TIP3    H227229   6.107   5.231   2.796  1.4723 -0.3097  0.3397
 9103TIP3   OH227230   5.094   5.708   3.911 -0.0205  0.1258  0.3588
 9103TIP3    H127231   5.054   5.653   3.979 -0.1615 -1.7851 -1.2166
 9103TIP3    H227232   5.131   5.782   3.958 -0.2124 -1.1152  2.5182
 9104TIP3   OH227233   8.860   5.152   2.286 -0.2160  0.3800 -0.4869
 9104TIP3    H127234   8.788   5.172   2.346 -1.7625 -0.7604 -1.9398
 9104TIP3    H227235   8.820   5.102   2.216  2.2274 -1.3618 -0.6982
 9105TIP3   OH227236   5.294   6.838   2.717 -0.1511  0.4164  0.0575
 9105TIP3    H127237   5.344   6.873   2.643 -0.3258 -1.7314 -1.1273
 9105TIP3    H227238   5.231   6.778   2.676 -0.5314 -0.4725  1.9144
 9106TIP3   OH227239   3.189   5.949   3.373  0.2245 -0.2909 -0.2956
 9106TIP3    H127240   3.227   5.985   3.293 -0.6485  2.4075  0.4612
 9106TIP3    H227241   3.107   5.909   3.345  0.4097 -0.2576 -0.8885
 9107TIP3   OH227242   7.187   0.800   6.659 -0.0913 -0.1911  0.8931
 9107TIP3    H127243   7.261   0.842   6.615 -0.7888 -1.2272 -1.3037
 9107TIP3    H227244   7.226   0.723   6.701  0.4273  0.3745  1.4671
 9108TIP3   OH227245   8.528   6.693   2.976 -0.1416 -0.3009  0.6867
 9108TIP3    H127246   8.555   6.747   3.051 -0.4262  1.0419 -0.1608
 9108TIP3    H227247   8.495   6.756   2.912  0.1698 -1.4363 -0.6041
 9109TIP3   OH227248   8.179   6.072   2.754  0.4319  0.0971 -0.2112
 9109TIP3    H127249   8.249   6.134   2.774 -0.0748  1.1889 -1.7201
 9109TIP3    H227250   8.221   6.006   2.699  1.1926 -1.4608  2.1412
 9110TIP3   OH227251   5.226   7.454   2.546 -0.1998  0.1185  0.2509
 9110TIP3    H127252   5.161   7.463   2.616 -1.6006  2.6974 -1.3368
 9110TIP3    H227253   5.278   7.534   2.552 -0.0102  0.1151 -1.3207
 9111TIP3   OH227254   5.744   6.702   1.033 -0.5440  0.1166  0.0568
 9111TIP3    H127255   5.767   6.721   0.942 -3.2695  0.3609 -0.6131
 9111TIP3    H227256   5.733   6.607   1.036 -1.2959  0.1942 -0.0918
 9112TIP3   OH227257   4.730   7.272   4.552 -0.2659  0.2027 -0.8582
 9112TIP3    H127258   4.665   7.208   4.582 -0.3072  0.3995 -0.5257
 9112TIP3    H227259   4.712   7.282   4.458 -0.4131 -0.0933 -0.8627
 9113TIP3   OH227260   5.215   6.534   3.424  0.0931  0.3128  0.5094
 9113TIP3    H127261   5.125   6.561   3.442  0.1312  0.3162  0.6961
 9113TIP3    H227262   5.267   6.615   3.433  0.1291  0.2898  0.5128
 9114TIP3   OH227263   5.928   8.170   2.121 -0.0669 -0.7652  0.9211
 9114TIP3    H127264   6.005   8.121   2.152  1.1884  0.1596 -0.6762
 9114TIP3    H227265   5.892   8.116   2.050 -0.3292 -0.7205  1.0174
 9115TIP3   OH227266   4.471   7.348   2.274 -0.0761 -0.1535 -0.2062
 9115TIP3    H127267   4.392   7.342   2.328 -0.7243  0.9849 -1.0123
 9115TIP3    H227268   4.446   7.403   2.200  1.3015 -0.2847 -0.7921
 9116TIP3   OH227269   6.023   5.656   1.453 -0.0977  0.0149  0.0770
 9116TIP3    H127270   6.037   5.657   1.358  0.8488  1.5483  0.2184
 9116TIP3    H227271   5.934   5.690   1.465  0.5462  1.8647 -0.1657
 9117TIP3   OH227272   7.054   4.750   2.559 -0.0517 -0.1218  0.3194
 9117TIP3    H127273   7.065   4.748   2.464  1.4457  2.4306  0.3991
 9117TIP3    H227274   6.959   4.753   2.572 -0.3244 -2.1576 -1.0193
 9118TIP3   OH227275   3.971   6.680   4.710  0.7150  0.2480  0.7345
 9118TIP3    H127276   3.992   6.753   4.652  0.8169  0.3464  0.8964
 9118TIP3    H227277   4.036   6.685   4.780 -0.9478  1.6717  2.2305
 9119TIP3   OH227278   4.774   3.825   2.354  0.0114 -0.1936  0.0602
 9119TIP3    H127279   4.805   3.912   2.328  0.3406 -0.3019  0.0805
 9119TIP3    H227280   4.735   3.789   2.274 -2.3838  0.9345  0.6763
 9120TIP3   OH227281   7.355   6.619   0.692  0.2174  0.5523  0.8073
 9120TIP3    H127282   7.285   6.682   0.674  0.6906  1.2036  1.2140
 9120TIP3    H227283   7.432   6.657   0.649  0.2971 -0.2255  0.2526
 9121TIP3   OH227284   3.886   0.034   7.010  0.5721 -0.5830  0.3303
 9121TIP3    H127285   3.970   0.077   7.026  0.0424  0.2863  0.8014
 9121TIP3    H227286   3.843   0.089   6.945 -0.1967 -0.2658  1.0892
 9122TIP3   OH227287   4.654   6.292   2.829 -0.6110  0.5359 -0.1101
 9122TIP3    H127288   4.664   6.364   2.768 -2.1158  0.8536 -0.0136
 9122TIP3    H227289   4.743   6.267   2.853 -0.0444  1.1113 -1.5943
 9123TIP3   OH227290   6.298   7.530   2.233 -0.1053 -0.1664 -0.6566
 9123TIP3    H127291   6.220   7.565   2.277  1.3252  0.1839  1.6678
 9123TIP3    H227292   6.322   7.453   2.284  2.2723  0.8995 -0.1149
 9124TIP3   OH227293   8.740   0.035   5.420 -0.0286  0.5084 -0.4566
 9124TIP3    H127294   8.770   0.028   5.329  0.5005  0.4611 -0.2812
 9124TIP3    H227295   8.674   0.104   5.418  1.4382  1.9359 -0.5140
 9125TIP3   OH227296   6.525   5.614   2.979  0.5227  0.5044 -0.0229
 9125TIP3    H127297   6.440   5.571   2.968  0.4271  0.7805 -0.3881
 9125TIP3    H227298   6.581   5.548   3.020  0.6073 -0.2421 -1.3119
 9126TIP3   OH227299   5.190   7.532   0.925  0.7284 -0.1829  0.0756
 9126TIP3    H127300   5.170   7.478   1.002 -2.7203 -0.4932 -0.9463
 9126TIP3    H227301   5.118   7.514   0.864  0.7585  3.7544 -1.2740
 9127TIP3   OH227302   7.806   5.401   0.605  0.0518 -0.1825 -0.2124
 9127TIP3    H127303   7.834   5.487   0.635 -1.5847  0.2861 -0.0200
 9127TIP3    H227304   7.886   5.348   0.607  1.4465  1.7846 -2.0143
 9128TIP3   OH227305   4.318   5.533   4.668  0.2598 -0.2626 -0.4247
 9128TIP3    H127306   4.287   5.612   4.712  1.6032 -0.2344  0.5122
 9128TIP3    H227307   4.373   5.564   4.597 -0.7145 -0.3301 -1.2074
 9129TIP3   OH227308   4.161   7.129   3.891  0.6565  0.8207  0.3927
 9129TIP3    H127309   4.138   7.179   3.969  1.6900  1.4238  0.3170
 9129TIP3    H227310   4.254   7.147   3.878  0.7734 -0.2608 -0.2643
 9130TIP3   OH227311   7.927   0.132   4.014  0.4007 -0.3902 -0.3501
 9130TIP3    H127312   7.922   0.213   3.963 -0.1811 -0.9563 -1.2029
 9130TIP3    H227313   7.846   0.085   3.993  1.4566 -1.9252 -1.1275
 9131TIP3   OH227314   4.863   5.650   3.793  0.2001 -0.6246  0.5615
 9131TIP3    H127315   4.949   5.684   3.817 -0.0313  1.7697 -1.7846
 9131TIP3    H227316   4.802   5.695   3.852  0.3674 -0.9592  0.9955
 9132TIP3   OH227317   4.592   8.132   1.893  0.0947 -0.0342  0.1857
 9132TIP3    H127318   4.654   8.203   1.880  0.8954 -0.7829 -0.1116
 9132TIP3    H227319   4.539   8.130   1.813 -0.5488  0.8220  0.5804
 9133TIP3   OH227320   5.204   7.301   3.289 -0.1098  0.2318 -0.8764
 9133TIP3    H127321   5.297   7.281   3.303 -0.3293 -1.8813 -2.1526
 9133TIP3    H227322   5.158   7.221   3.316 -1.7661  1.9710  1.7214
 9134TIP3   OH227323   6.518   5.961   0.494  0.7991 -0.0379 -0.3043
 9134TIP3    H127324   6.566   5.898   0.440 -0.3774 -0.4937 -0.8325
 9134TIP3    H227325   6.495   5.911   0.573 -0.2707 -0.3373 -0.7914
 9135TIP3   OH227326   5.467   4.939   6.103  0.3799  0.2980 -0.1629
 9135TIP3    H127327   5.474   4.853   6.062 -1.5128  0.9452 -1.9498
 9135TIP3    H227328   5.543   4.988   6.070  0.8927 -0.3444  0.0528
 9136TIP3   OH227329   8.593   5.936   2.271  0.2181  0.1112  0.3448
 9136TIP3    H127330   8.663   5.886   2.228  0.0463  0.9478 -0.9175
 9136TIP3    H227331   8.585   6.016   2.219 -0.8037  0.6017  1.2428
 9137TIP3   OH227332   4.732   5.983   4.747  0.5569 -0.4304  0.3001
 9137TIP3    H127333   4.677   5.922   4.697 -0.2537  0.2461  0.3481
 9137TIP3    H227334   4.717   5.960   4.838 -2.6006  2.1535  0.5239
 9138TIP3   OH227335   4.905   5.750   3.308 -0.1803 -0.0364  0.2810
 9138TIP3    H127336   4.981   5.810   3.310 -0.4757  0.3396  0.3044
 9138TIP3    H227337   4.890   5.728   3.400 -1.5327  1.7185  0.5080
 9139TIP3   OH227338   0.770   0.290   3.717 -0.1983 -0.1424 -0.1369
 9139TIP3    H127339   0.718   0.263   3.642 -0.3304  0.6301 -0.3233
 9139TIP3    H227340   0.861   0.281   3.688 -0.1830 -2.2669  0.4532
 9140TIP3   OH227341   5.297   6.258   1.504  0.2879 -0.5294  0.1618
 9140TIP3    H127342   5.223   6.236   1.560  0.3385 -0.6057  0.2004
 9140TIP3    H227343   5.348   6.321   1.555  0.9352 -1.4413  0.6842
 9141TIP3   OH227344   4.972   5.093   4.247 -0.2960  0.1885  0.3116
 9141TIP3    H127345   5.054   5.045   4.235  1.0997  1.9035  2.6426
 9141TIP3    H227346   4.982   5.172   4.193 -0.8932 -0.1349 -0.2822
 9142TIP3   OH227347   4.925   5.150   3.843  0.1883  0.5972 -0.0721
 9142TIP3    H127348   5.017   5.162   3.865  0.9636 -2.3377 -1.5338
 9142TIP3    H227349   4.901   5.066   3.882 -1.5108  0.6852 -0.8579
 9143TIP3   OH227350   4.054   6.033   4.033 -0.1486 -0.4826  0.6760
 9143TIP3    H127351   4.073   6.126   4.044 -0.8018 -0.1345 -0.9723
 9143TIP3    H227352   4.077   5.993   4.117  2.2971  0.8049  0.6757
 9144TIP3   OH227353   6.438   6.417   3.639 -0.5509  0.1703 -0.1506
 9144TIP3    H127354   6.503   6.347   3.642 -1.0758 -0.2661  2.5951
 9144TIP3    H227355   6.472   6.479   3.575  1.4487 -1.1469 -0.3929
 9145TIP3   OH227356   6.514   5.360   6.045 -0.6091  0.2139 -0.4385
 9145TIP3    H127357   6.476   5.431   5.994  0.1017 -0.0496 -1.3524
 9145TIP3    H227358   6.604   5.390   6.063 -0.2874 -0.4792 -0.8858
 9146TIP3   OH227359   5.117   6.026   1.627  0.2096 -0.0155  0.5969
 9146TIP3    H127360   5.155   5.980   1.552 -0.0158 -0.8727  0.9938
 9146TIP3    H227361   5.034   5.982   1.642  0.0054  0.5098  1.0099
 9147TIP3   OH227362   5.487   6.562   3.733  0.2064 -0.7551  0.0700
 9147TIP3    H127363   5.429   6.487   3.725 -0.9282  0.2114 -0.9871
 9147TIP3    H227364   5.428   6.637   3.740  1.3181 -0.0278  1.8283
 9148TIP3   OH227365   6.400   6.610   2.520  0.1907 -0.2154  0.2088
 9148TIP3    H127366   6.371   6.653   2.440 -0.0509  1.4292  1.1540
 9148TIP3    H227367   6.321   6.600   2.573  0.6577  0.5240  1.0682
 9149TIP3   OH227368   4.328   4.658   3.511  0.0618  0.3609  0.2837
 9149TIP3    H127369   4.366   4.580   3.550  1.8079 -0.3415 -2.7094
 9149TIP3    H227370   4.249   4.627   3.467 -1.3409  0.9783  2.2956
 9150TIP3   OH227371   6.089   6.411   3.247 -0.1348 -0.0163  0.2713
 9150TIP3    H127372   6.085   6.490   3.301  0.8659 -0.8095  1.5210
 9150TIP3    H227373   6.153   6.355   3.290 -0.1337 -1.1303 -1.1339
 9151TIP3   OH227374   6.481   6.516   2.083  0.0266 -0.5725 -0.0018
 9151TIP3    H127375   6.457   6.423   2.088 -2.2209 -0.0433 -0.5087
 9151TIP3    H227376   6.426   6.559   2.148  1.8150  0.2856  0.9700
 9152TIP3   OH227377   6.380   5.055   2.025  0.0243  0.3270  0.5932
 9152TIP3    H127378   6.448   5.122   2.015  0.8854 -0.7411 -0.8740
 9152TIP3    H227379   6.424   4.983   2.071  0.1098 -0.6595 -0.9995
 9153TIP3   OH227380   3.542   6.062   5.890 -0.2399  0.3948 -0.1578
 9153TIP3    H127381   3.561   5.988   5.832  0.3230  1.7580 -1.7639
 9153TIP3    H227382   3.627   6.084   5.930 -0.4094  0.1540  0.3348
 9154TIP3   OH227383   5.975   7.890   2.551  0.3566  0.1221 -0.2088
 9154TIP3    H127384   5.941   7.801   2.554  0.9977 -0.2036 -2.2696
 9154TIP3    H227385   5.942   7.925   2.468  0.1440  1.7944  0.5630
 9155TIP3   OH227386   7.574   6.175   2.781  0.0958 -0.0284  0.7313
 9155TIP3    H127387   7.523   6.223   2.715  2.0972  1.2216  0.0764
 9155TIP3    H227388   7.519   6.176   2.859 -1.4381  0.2172 -0.3269
 9156TIP3   OH227389   6.948   4.260   0.986 -0.3016  0.1262 -0.7892
 9156TIP3    H127390   6.927   4.205   1.061  1.1064  1.9619  1.0037
 9156TIP3    H227391   7.036   4.233   0.961 -0.1475  0.6117 -0.7724
 9157TIP3   OH227392   6.094   6.757   3.992 -0.3339 -0.1118  0.1276
 9157TIP3    H127393   6.115   6.690   3.927  0.2687  0.7581 -0.5788
 9157TIP3    H227394   6.064   6.832   3.941  2.2267  1.3589  0.6818
 9158TIP3   OH227395   6.459   7.215   4.159  0.1567  0.0750  0.1289
 9158TIP3    H127396   6.428   7.130   4.190  1.8837 -0.2573  1.0574
 9158TIP3    H227397   6.508   7.195   4.079  0.2263  0.2547  0.1269
 9159TIP3   OH227398   0.821   7.318   3.700 -0.2881 -0.5483  0.4266
 9159TIP3    H127399   0.793   7.395   3.749  0.6405  0.8420 -1.1682
 9159TIP3    H227400   0.761   7.313   3.625  1.8117  0.7495 -1.4134
 9160TIP3   OH227401   6.610   5.194   3.965 -0.3946 -0.2715  0.0396
 9160TIP3    H127402   6.665   5.197   3.887 -1.1437 -0.3302 -0.4936
 9160TIP3    H227403   6.628   5.277   4.010 -0.9731  0.3504 -0.8871
 9161TIP3   OH227404   7.130   7.103   2.126  0.0319  0.3602 -0.5158
 9161TIP3    H127405   7.083   7.177   2.087 -0.0503 -0.5029 -2.1087
 9161TIP3    H227406   7.061   7.049   2.164 -0.0201  0.4744 -0.4450
 9162TIP3   OH227407   6.696   7.239   1.757  0.1164  0.4725  0.1252
 9162TIP3    H127408   6.757   7.196   1.817  0.6628  1.5610  0.3538
 9162TIP3    H227409   6.615   7.248   1.808 -0.4065 -1.3978 -0.3351
 9163TIP3   OH227410   6.986   6.030   2.905 -0.4967 -0.3489 -0.2867
 9163TIP3    H127411   6.969   5.989   2.989  1.0128 -0.6359 -0.1227
 9163TIP3    H227412   6.904   6.018   2.856 -2.1733  1.7346  1.8846
 9164TIP3   OH227413   8.751   0.252   3.930  0.2833  0.1845  0.2037
 9164TIP3    H127414   8.822   0.316   3.928  1.5904 -1.2137  1.3383
 9164TIP3    H227415   8.674   0.302   3.957  1.1006  1.4490  0.2234
 9165TIP3   OH227416   5.211   5.541   1.550  0.5334 -0.4372  0.3019
 9165TIP3    H127417   5.167   5.510   1.630  0.6958 -0.8074  0.2501
 9165TIP3    H227418   5.276   5.604   1.581 -1.3544  1.6267  0.2231
 9166TIP3   OH227419   7.471   4.837   0.591 -0.1280  0.2937  0.1090
 9166TIP3    H127420   7.508   4.920   0.561 -2.5632  1.6728  0.8491
 9166TIP3    H227421   7.476   4.780   0.513  2.5418  0.7298 -0.0993
 9167TIP3   OH227422   1.032   0.286   4.675 -0.2393 -0.3951  0.7896
 9167TIP3    H127423   1.070   0.372   4.695  0.3420 -0.0580 -1.6035
 9167TIP3    H227424   0.938   0.301   4.674 -0.2222 -0.1433  1.9202
 9168TIP3   OH227425   5.094   6.396   3.228  0.5575 -0.3178  0.0141
 9168TIP3    H127426   5.157   6.438   3.287 -0.3573 -0.2760  0.9894
 9168TIP3    H227427   5.012   6.443   3.244  0.1841 -0.6427 -0.9386
 9169TIP3   OH227428   4.008   6.788   2.998  0.1285 -0.3941 -0.0106
 9169TIP3    H127429   4.095   6.750   3.015  0.1853  0.4627  1.7320
 9169TIP3    H227430   4.019   6.881   3.015 -1.4883 -0.4826  1.6463
 9170TIP3   OH227431   3.836   6.916   3.405  0.3733 -0.1182 -0.3223
 9170TIP3    H127432   3.824   6.998   3.357  0.0613 -0.7554 -1.3555
 9170TIP3    H227433   3.826   6.848   3.338  2.1743 -0.9391  0.2132
 9171TIP3   OH227434   8.257   5.079   4.051 -1.2423  0.5739 -0.0290
 9171TIP3    H127435   8.198   5.077   3.975 -0.3645  2.5186 -0.8022
 9171TIP3    H227436   8.325   5.015   4.030 -2.4627 -0.8844  0.3728
 9172TIP3   OH227437   5.834   7.127   2.220 -0.6431 -0.4244 -0.6039
 9172TIP3    H127438   5.916   7.144   2.266  0.2888 -2.5546 -1.4414
 9172TIP3    H227439   5.842   7.176   2.138 -0.3149 -0.4316 -0.5786
 9173TIP3   OH227440   4.578   6.316   3.089  0.2576 -0.6905  0.3726
 9173TIP3    H127441   4.601   6.309   2.996  0.1746 -0.8281  0.3612
 9173TIP3    H227442   4.661   6.333   3.133  0.5781 -2.3925  0.4668
 9174TIP3   OH227443   4.341   8.322   0.284 -0.1687 -0.0127 -0.1532
 9174TIP3    H127444   4.327   8.264   0.359 -1.0867 -1.5790 -1.4945
 9174TIP3    H227445   4.338   8.264   0.208  0.5179  1.5772 -1.4261
 9175TIP3   OH227446   4.599   4.870   3.636  0.2343 -0.4738  0.4162
 9175TIP3    H127447   4.609   4.822   3.554 -1.8846 -0.9711  0.4054
 9175TIP3    H227448   4.602   4.962   3.611  2.5967 -0.5795  0.2048
 9176TIP3   OH227449   4.882   5.744   0.821 -0.2002  0.5371 -0.5342
 9176TIP3    H127450   4.935   5.694   0.883 -1.5245 -0.4839 -0.2028
 9176TIP3    H227451   4.891   5.697   0.738  0.1257  0.8704 -0.6876
 9177TIP3   OH227452   5.761   6.374   1.692  0.2373  0.6470  0.4810
 9177TIP3    H127453   5.828   6.317   1.731 -0.8866 -0.3657  0.9470
 9177TIP3    H227454   5.810   6.430   1.632  1.4054 -0.6377  0.2020
 9178TIP3   OH227455   4.330   8.245   5.639  0.3002 -0.0236 -0.1209
 9178TIP3    H127456   4.280   8.247   5.721  0.4077  2.5903 -0.0871
 9178TIP3    H227457   4.279   8.188   5.581 -0.0689 -1.4499  1.5483
 9179TIP3   OH227458   4.171   8.121   0.412  0.1039 -0.0212  0.0903
 9179TIP3    H127459   4.166   8.194   0.473  2.4439 -0.4059  0.7510
 9179TIP3    H227460   4.086   8.123   0.367 -1.2714  0.8411  2.6415
 9180TIP3   OH227461   5.721   6.111   3.518  0.4890 -0.6495  0.3790
 9180TIP3    H127462   5.808   6.117   3.480 -0.6030 -1.8390 -2.4596
 9180TIP3    H227463   5.720   6.027   3.564  1.3442  0.1259  1.8464
 9181TIP3   OH227464   8.029   0.864   1.665 -0.1194 -0.7960  0.2369
 9181TIP3    H127465   8.119   0.896   1.663 -0.0109 -1.1390 -0.6460
 9181TIP3    H227466   8.034   0.778   1.707 -0.4619  0.4702  2.9747
 9182TIP3   OH227467   7.524   5.328   3.779  0.3525  0.3593  0.2794
 9182TIP3    H127468   7.495   5.389   3.846 -0.7872 -1.4042  1.4366
 9182TIP3    H227469   7.574   5.261   3.827 -1.9149 -1.8646 -0.3193
 9183TIP3   OH227470   5.828   7.619   1.584  0.5582 -0.2251 -0.0077
 9183TIP3    H127471   5.851   7.702   1.541 -1.3261  0.7199  0.7448
 9183TIP3    H227472   5.824   7.555   1.513 -3.1067  1.4310 -1.4179
 9184TIP3   OH227473   4.814   6.518   4.714  0.0700 -0.2940 -0.3710
 9184TIP3    H127474   4.879   6.560   4.771 -1.1527 -0.3065  1.0469
 9184TIP3    H227475   4.854   6.522   4.627  1.4732  0.7412  0.2867
 9185TIP3   OH227476   3.952   5.088   1.044 -0.1605  0.9507 -0.3776
 9185TIP3    H127477   3.903   5.022   0.995  3.1405 -0.9971 -1.2438
 9185TIP3    H227478   3.961   5.052   1.132 -0.0999  1.1775 -0.2891
 9186TIP3   OH227479   4.611   5.538   2.963 -0.1097 -0.2497  0.4059
 9186TIP3    H127480   4.663   5.486   3.025  1.2928  1.3698  0.6493
 9186TIP3    H227481   4.602   5.623   3.006 -1.6279 -0.0090 -0.3554
 9187TIP3   OH227482   4.698   5.568   2.575  0.9086 -0.2915 -0.2607
 9187TIP3    H127483   4.623   5.555   2.517  0.2720  1.5202  0.1218
 9187TIP3    H227484   4.749   5.637   2.533  0.5596  0.8783  1.2034
 9188TIP3   OH227485   6.708   6.682   2.921  0.2749 -0.4599 -0.5052
 9188TIP3    H127486   6.693   6.762   2.972 -0.3459  0.8141 -2.6340
 9188TIP3    H227487   6.742   6.619   2.985  0.3916  1.3700  1.2871
 9189TIP3   OH227488   5.516   7.754   3.893 -0.6553  0.1608 -0.1362
 9189TIP3    H127489   5.585   7.805   3.935  1.2295 -1.4273 -1.1878
 9189TIP3    H227490   5.495   7.685   3.955  0.0992 -0.4849 -0.5762
 9190TIP3   OH227491   6.489   6.866   3.590 -0.3424  0.0610  0.7668
 9190TIP3    H127492   6.457   6.777   3.577 -0.7500  0.2961  0.1423
 9190TIP3    H227493   6.446   6.896   3.670 -0.6427 -0.0988  0.6632
 9191TIP3   OH227494   7.677   8.139   4.512  0.6004  0.4614  0.5728
 9191TIP3    H127495   7.664   8.173   4.423  0.7636  0.1899  0.4415
 9191TIP3    H227496   7.759   8.178   4.541  0.6458  0.3965  0.5302
 9192TIP3   OH227497   4.997   4.912   3.248 -0.0198 -0.0670 -0.1953
 9192TIP3    H127498   5.080   4.956   3.268  0.1740 -0.8969  0.9392
 9192TIP3    H227499   4.947   4.976   3.198  0.0203  1.6919  1.8999
 9193TIP3   OH227500   4.935   8.320   3.593  0.0911 -0.1809  1.1809
 9193TIP3    H127501   4.971   8.233   3.612  1.5805  0.1771  0.1625
 9193TIP3    H227502   4.881   8.308   3.515  1.8255  0.1198 -0.1087
 9194TIP3   OH227503   8.889   0.065   4.097 -0.3568 -0.5194  0.1661
 9194TIP3    H127504   8.813   0.039   4.148 -0.2087  0.9328  1.1357
 9194TIP3    H227505   8.855   0.121   4.028  0.0003  1.3477  1.4918
 9195TIP3   OH227506   6.212   6.975   3.255 -0.5599 -0.5213  0.2319
 9195TIP3    H127507   6.215   6.923   3.175 -1.2502 -0.3929  0.1262
 9195TIP3    H227508   6.270   6.929   3.316 -1.6714 -1.7774  0.3572
 9196TIP3   OH227509   5.909   4.782   3.569  0.1447 -0.3577  0.2469
 9196TIP3    H127510   5.837   4.725   3.598  1.1835 -0.2030  3.3038
 9196TIP3    H227511   5.981   4.722   3.550 -0.3707 -0.4169 -1.5904
 9197TIP3   OH227512   7.465   6.433   4.051  0.5313 -0.0011  0.0235
 9197TIP3    H127513   7.466   6.494   3.977 -0.8974 -1.3606 -1.1562
 9197TIP3    H227514   7.414   6.358   4.019 -0.3759 -0.4785  2.5103
 9198TIP3   OH227515   8.036   5.309   2.414  0.2146  0.1058  0.0545
 9198TIP3    H127516   8.051   5.243   2.482 -0.6031  0.5479  0.6780
 9198TIP3    H227517   7.945   5.296   2.387  0.4382  0.1452 -0.7275
 9199TIP3   OH227518   6.522   6.447   1.244 -0.2330  0.0303 -0.1879
 9199TIP3    H127519   6.504   6.398   1.324 -0.7142  0.3813 -0.0761
 9199TIP3    H227520   6.478   6.531   1.257 -1.9228 -0.6073 -1.6065
 9200TIP3   OH227521   6.104   4.440   4.751  0.1953 -0.2236 -0.0414
 9200TIP3    H127522   6.011   4.418   4.755 -0.6921  2.0238 -5.1619
 9200TIP3    H227523   6.133   4.406   4.667  2.6545  3.7139 -0.8934
 9201TIP3   OH227524   3.323   7.319   4.124  0.9263  0.1372  0.1144
 9201TIP3    H127525   3.238   7.332   4.082  0.1354  2.2128  2.2199
 9201TIP3    H227526   3.387   7.337   4.055 -0.3508  0.7452 -0.9235
 9202TIP3   OH227527   6.059   5.890   4.474 -0.0476 -0.2253  0.1423
 9202TIP3    H127528   6.133   5.944   4.500 -1.6958  1.9910  0.3457
 9202TIP3    H227529   6.094   5.831   4.407  2.2066 -0.1971  1.2442
 9203TIP3   OH227530   6.762   5.716   5.083 -0.5166  0.4298  0.4249
 9203TIP3    H127531   6.809   5.784   5.035  0.2996 -1.8123 -2.0995
 9203TIP3    H227532   6.678   5.708   5.037 -0.7788  0.0480  0.9686
 9204TIP3   OH227533   6.238   5.874   1.494  0.5690  1.0677  0.5678
 9204TIP3    H127534   6.170   5.816   1.529  0.4495  1.0005  0.2321
 9204TIP3    H227535   6.318   5.822   1.497  0.5575  1.0611  0.7365
 9205TIP3   OH227536   7.523   6.545   3.436  0.7115 -0.3448  0.4922
 9205TIP3    H127537   7.464   6.476   3.468  1.7154 -0.7525  1.5209
 9205TIP3    H227538   7.473   6.590   3.368 -0.5744 -1.0423  0.9533
 9206TIP3   OH227539   7.217   7.157   1.541  0.6057  0.6808  0.0986
 9206TIP3    H127540   7.258   7.198   1.618  0.5493  1.1911 -0.1400
 9206TIP3    H227541   7.124   7.151   1.564  0.4907  1.3859 -0.1646
 9207TIP3   OH227542   5.657   5.151   4.277  0.2362 -0.1259 -0.0700
 9207TIP3    H127543   5.627   5.202   4.201  2.1120  1.0592 -0.0303
 9207TIP3    H227544   5.580   5.144   4.333 -0.2773  1.9444 -0.4858
 9208TIP3   OH227545   4.058   4.938   1.252  0.4562 -0.2427 -0.7435
 9208TIP3    H127546   4.067   4.914   1.345  1.5131  0.1334 -0.7427
 9208TIP3    H227547   4.054   4.854   1.206  2.5600 -0.4634 -0.5937
 9209TIP3   OH227548   4.857   8.117   5.761  0.0380 -0.5132  0.2132
 9209TIP3    H127549   4.941   8.163   5.761 -0.6777  0.8572  2.2214
 9209TIP3    H227550   4.794   8.181   5.794 -1.4924 -2.0922  0.4395
 9210TIP3   OH227551   5.807   7.571   0.758  0.0950 -0.3098  0.6328
 9210TIP3    H127552   5.752   7.627   0.703  1.1855  0.5797  0.4384
 9210TIP3    H227553   5.844   7.507   0.697  1.4779  0.8119  0.2789
 9211TIP3   OH227554   7.443   5.625   3.457  0.1616 -0.4692  0.0061
 9211TIP3    H127555   7.492   5.559   3.505 -0.6401 -2.2268 -1.5289
 9211TIP3    H227556   7.507   5.663   3.396  0.2138 -0.9652 -0.2421
 9212TIP3   OH227557   4.986   5.344   1.978  0.5635 -0.2553  0.2271
 9212TIP3    H127558   5.021   5.259   2.007  1.2180  0.1719  0.7092
 9212TIP3    H227559   5.032   5.362   1.896  1.2742  0.1662  0.7094
 9213TIP3   OH227560   8.460   0.127   4.236 -0.0814  0.5182 -0.0245
 9213TIP3    H127561   8.373   0.115   4.275  0.1492  0.5370  0.5019
 9213TIP3    H227562   8.499   0.040   4.236  0.4626  0.7447  1.0989
 9214TIP3   OH227563   4.160   6.175   5.042 -0.4058 -0.0625  0.6694
 9214TIP3    H127564   4.172   6.116   5.116  0.4208 -1.8828 -0.8860
 9214TIP3    H227565   4.248   6.188   5.007 -0.7674  0.9136  0.0993
 9215TIP3   OH227566   5.710   4.670   2.579  0.1895 -0.4208 -0.2178
 9215TIP3    H127567   5.784   4.617   2.609 -0.0728 -0.7352 -0.1243
 9215TIP3    H227568   5.650   4.671   2.653 -0.6655 -1.5736 -0.8757
 9216TIP3   OH227569   5.693   4.924   5.156  0.1437  0.2050  0.2721
 9216TIP3    H127570   5.769   4.884   5.114  0.1514 -1.4546  1.7894
 9216TIP3    H227571   5.716   5.016   5.168  1.3019  0.0379 -0.6416
 9217TIP3   OH227572   4.314   5.177   3.610 -0.5290  0.6726  0.6997
 9217TIP3    H127573   4.291   5.268   3.626 -0.8095  0.7293 -0.0085
 9217TIP3    H227574   4.232   5.129   3.619 -0.7203  0.7235 -0.6719
 9218TIP3   OH227575   6.202   5.524   5.073  0.3505 -0.5599  0.2852
 9218TIP3    H127576   6.179   5.570   4.992  2.6773 -2.5678 -1.6069
 9218TIP3    H227577   6.252   5.587   5.124 -0.6414  0.5370 -0.0827
 9219TIP3   OH227578   5.964   6.550   3.590 -0.4480 -0.2179 -0.0027
 9219TIP3    H127579   5.874   6.524   3.570 -1.1625  1.8364  0.4053
 9219TIP3    H227580   6.003   6.567   3.504 -1.3968  1.8374 -0.0542
 9220TIP3   OH227581   7.579   6.830   3.542 -0.6110 -0.0412  0.4330
 9220TIP3    H127582   7.564   6.741   3.509  1.8515 -0.4632  0.3769
 9220TIP3    H227583   7.506   6.881   3.507 -0.4789 -1.4254 -1.9753
 9221TIP3   OH227584   6.308   6.242   5.563  0.6131 -0.1815  0.4829
 9221TIP3    H127585   6.285   6.331   5.592 -1.9973  0.0392 -2.0200
 9221TIP3    H227586   6.384   6.254   5.507  0.2430  0.5165  0.1140
 9222TIP3   OH227587   4.911   5.458   1.380 -0.9517  0.2059 -0.2160
 9222TIP3    H127588   4.900   5.543   1.337 -0.9158  1.2376  1.7337
 9222TIP3    H227589   4.988   5.420   1.339 -1.5380  0.6813 -1.7908
 9223TIP3   OH227590   7.634   5.569   2.005 -0.4953 -0.2617 -0.3678
 9223TIP3    H127591   7.612   5.492   2.057 -1.8536  0.5962  0.3549
 9223TIP3    H227592   7.708   5.608   2.051 -1.4857  0.3148  0.7686
 9224TIP3   OH227593   7.294   5.602   1.716  0.4923 -0.0713 -0.1205
 9224TIP3    H127594   7.384   5.607   1.747  0.0070  0.4757  1.2296
 9224TIP3    H227595   7.245   5.660   1.774 -0.3614  1.3738 -2.2212
 9225TIP3   OH227596   5.447   5.284   5.217  0.1296 -0.3373 -0.9027
 9225TIP3    H127597   5.447   5.370   5.260 -0.5291 -0.9241  0.2858
 9225TIP3    H227598   5.511   5.293   5.146  0.6955  0.8788 -0.2556
 9226TIP3   OH227599   6.918   5.161   3.946 -0.3449 -0.2866  0.3343
 9226TIP3    H127600   6.924   5.256   3.959  0.6903 -0.5395  1.7491
 9226TIP3    H227601   6.940   5.148   3.854 -1.2524  0.9161 -0.0645
 9227TIP3   OH227602   5.014   6.549   5.046 -0.6471 -0.1493 -0.1038
 9227TIP3    H127603   4.947   6.550   5.115 -0.0801  1.0973  0.4539
 9227TIP3    H227604   5.039   6.457   5.038 -3.5407 -0.8681 -1.4370
 9228TIP3   OH227605   5.143   5.296   4.835  0.0267 -0.0414 -0.0021
 9228TIP3    H127606   5.071   5.263   4.781 -0.1275  0.5330 -0.1617
 9228TIP3    H227607   5.189   5.218   4.865 -1.3187 -0.4647  1.0054
 9229TIP3   OH227608   5.287   5.642   3.744 -0.0329 -0.5240 -0.7997
 9229TIP3    H127609   5.197   5.655   3.773 -0.3197  0.7849 -2.2459
 9229TIP3    H227610   5.318   5.569   3.797 -1.9208 -0.9657 -0.2556
 9230TIP3   OH227611   4.146   3.209   2.316  0.6111 -0.0146 -0.1496
 9230TIP3    H127612   4.079   3.196   2.249  1.6983  1.2483 -1.4956
 9230TIP3    H227613   4.205   3.135   2.306  0.3054 -0.2798 -0.0099
 9231TIP3   OH227614   6.652   6.897   1.850  0.5354 -0.3767 -0.6678
 9231TIP3    H127615   6.649   6.845   1.930 -1.3614 -0.0642 -0.5160
 9231TIP3    H227616   6.678   6.985   1.880  0.0150 -0.3063 -0.4244
 9232TIP3   OH227617   5.664   5.532   2.905 -0.6619  0.1447  0.1691
 9232TIP3    H127618   5.626   5.485   2.831  0.3615  0.0930 -0.3326
 9232TIP3    H227619   5.595   5.593   2.932 -0.1036  2.0726 -2.5572
 9233TIP3   OH227620   3.823   4.555   2.130  0.6175  0.1655 -0.1838
 9233TIP3    H127621   3.887   4.485   2.116  0.9886  0.2169  1.2069
 9233TIP3    H227622   3.810   4.557   2.225 -2.4272 -0.7141 -0.5570
 9234TIP3   OH227623   5.270   5.061   0.277 -0.0098 -0.2857  0.0192
 9234TIP3    H127624   5.235   5.070   0.366 -1.0282 -0.4334 -0.3643
 9234TIP3    H227625   5.244   5.141   0.232 -0.4925 -0.7138 -0.4766
 9235TIP3   OH227626   4.503   6.649   4.305 -0.1070  0.4592 -0.2765
 9235TIP3    H127627   4.517   6.726   4.359 -1.0960 -0.1061  0.7981
 9235TIP3    H227628   4.475   6.580   4.366 -0.0055 -0.5334 -1.3191
 9236TIP3   OH227629   6.088   4.134   4.797 -0.7288  0.9120 -0.1215
 9236TIP3    H127630   6.025   4.182   4.745 -2.2116 -1.1707 -0.3257
 9236TIP3    H227631   6.122   4.067   4.738  0.0306  0.6125  0.6357
 9237TIP3   OH227632   5.999   6.362   6.045 -0.1762  0.1506  0.3279
 9237TIP3    H127633   5.941   6.435   6.069 -0.8758 -1.3214  3.3730
 9237TIP3    H227634   5.950   6.284   6.069  2.1208 -1.1966  0.8239
 9238TIP3   OH227635   6.638   6.244   3.638  0.4072  0.0478 -0.0872
 9238TIP3    H127636   6.639   6.223   3.732  1.7119 -0.9497 -0.3171
 9238TIP3    H227637   6.632   6.159   3.594 -1.2666  0.5754 -0.8938
 9239TIP3   OH227638   7.311   7.033   3.819  0.1465  0.0770  0.1768
 9239TIP3    H127639   7.297   7.017   3.726  2.9735  0.4606 -0.3644
 9239TIP3    H227640   7.328   7.127   3.825  3.1127 -0.4171  0.5645
 9240TIP3   OH227641   6.504   6.740   2.747  1.0298  0.1143  0.0011
 9240TIP3    H127642   6.567   6.696   2.803 -0.9691  1.0735  3.1174
 9240TIP3    H227643   6.491   6.681   2.673  2.5868 -1.8876  1.2948
 9241TIP3   OH227644   5.929   7.754   3.532  0.7424 -0.2485  0.0375
 9241TIP3    H127645   5.981   7.835   3.529  0.6441 -0.1385  1.0152
 9241TIP3    H227646   5.921   7.735   3.626 -0.1729 -0.7848 -0.1480
 9242TIP3   OH227647   6.282   6.599   1.434 -0.2384 -0.3432  0.2599
 9242TIP3    H127648   6.291   6.621   1.342 -1.0303  1.7787  0.6520
 9242TIP3    H227649   6.299   6.681   1.480 -2.0314 -0.8561  1.8960
 9243TIP3   OH227650   5.870   8.026   1.909  0.6035  0.1512  0.1976
 9243TIP3    H127651   5.854   7.943   1.864  0.8076 -0.4675  1.2411
 9243TIP3    H227652   5.841   8.093   1.848 -0.6419 -0.7406 -0.1957
 9244TIP3   OH227653   6.911   6.860   2.843  0.0388  0.1533  0.1146
 9244TIP3    H127654   6.958   6.795   2.790 -2.0600 -0.5975 -0.8629
 9244TIP3    H227655   6.860   6.808   2.905 -0.8811  0.9128 -0.0029
 9245TIP3   OH227656   4.010   6.341   3.039 -0.0164 -0.3703 -0.2027
 9245TIP3    H127657   4.086   6.397   3.053 -0.1136 -0.0115 -1.1017
 9245TIP3    H227658   4.047   6.257   3.013  0.0902 -0.2928 -0.3038
 9246TIP3   OH227659   7.982   7.305   3.209  0.1327 -0.3426  0.7125
 9246TIP3    H127660   7.919   7.373   3.186 -1.2953 -2.2161 -1.1259
 9246TIP3    H227661   7.957   7.231   3.154  1.4923 -2.4295  2.8442
 9247TIP3   OH227662   5.933   5.503   2.797 -0.6047 -0.3127 -0.2862
 9247TIP3    H127663   5.970   5.590   2.779 -0.6005  0.1325  1.7221
 9247TIP3    H227664   5.840   5.520   2.812 -0.5164 -0.5758  0.5861
 9248TIP3   OH227665   7.496   5.278   4.160  0.5557  0.1385  0.3885
 9248TIP3    H127666   7.549   5.337   4.213 -0.6912  2.0404 -0.4406
 9248TIP3    H227667   7.438   5.235   4.223  0.3947  0.9504  0.7973
 9249TIP3   OH227668   0.872   5.071   2.592 -0.1139  0.1978  0.3409
 9249TIP3    H127669   0.777   5.070   2.581  0.0551 -1.5088 -1.2633
 9249TIP3    H227670   0.888   5.134   2.662 -2.5003 -0.1907  1.2794
 9250TIP3   OH227671   7.842   6.268   2.813 -0.4459  0.1299 -0.4639
 9250TIP3    H127672   7.763   6.214   2.815 -0.7236  0.5745  1.4133
 9250TIP3    H227673   7.900   6.229   2.879 -0.3559  1.6616  0.3783
 9251TIP3   OH227674   6.202   4.379   2.161 -0.2107  0.2871 -0.1420
 9251TIP3    H127675   6.230   4.324   2.234 -1.3315 -1.7249 -1.2112
 9251TIP3    H227676   6.110   4.358   2.148 -0.5947  2.2217 -0.7453
 9252TIP3   OH227677   4.401   5.943   4.191 -0.1221  0.2864 -1.1804
 9252TIP3    H127678   4.435   5.977   4.108  0.6751  1.5751 -0.3347
 9252TIP3    H227679   4.461   5.873   4.214  1.1004  1.5587 -0.4557
 9253TIP3   OH227680   5.409   5.349   5.612  0.5314  0.3313 -0.2080
 9253TIP3    H127681   5.498   5.331   5.580  0.6070 -0.6409  0.5286
 9253TIP3    H227682   5.367   5.262   5.617 -0.9285  0.9044 -1.8889
 9254TIP3   OH227683   8.737   5.640   3.940 -0.6119 -0.0203  0.2844
 9254TIP3    H127684   8.818   5.669   3.899 -0.9083  0.1558 -0.1912
 9254TIP3    H227685   8.733   5.690   4.022  0.4920 -1.1354  1.0271
 9255TIP3   OH227686   5.353   4.409   3.225  0.3432  0.3349  0.2038
 9255TIP3    H127687   5.412   4.447   3.290 -2.3369  2.3825  1.5768
 9255TIP3    H227688   5.313   4.335   3.270 -2.2076  2.3118  1.3243
 9256TIP3   OH227689   5.402   5.152   3.782 -0.2119 -0.4913 -0.0106
 9256TIP3    H127690   5.488   5.113   3.799 -0.2286 -1.2118 -1.5310
 9256TIP3    H227691   5.418   5.247   3.785  0.8734 -0.6175 -1.4224
 9257TIP3   OH227692   7.349   5.863   4.758  0.1837  0.5820  0.5289
 9257TIP3    H127693   7.346   5.903   4.671 -0.2405 -0.1704  0.1871
 9257TIP3    H227694   7.442   5.854   4.778  0.2798  0.8588  0.1996
 9258TIP3   OH227695   8.495   5.925   1.074 -0.4607  0.1861 -0.2410
 9258TIP3    H127696   8.422   5.944   1.133 -0.3437 -1.1069  0.3326
 9258TIP3    H227697   8.542   5.853   1.115  0.4693  0.2215 -1.1978
 9259TIP3   OH227698   2.768   4.650   5.108 -0.0186 -0.0542 -0.0300
 9259TIP3    H127699   2.846   4.667   5.160  0.0620 -0.0021 -0.1672
 9259TIP3    H227700   2.700   4.703   5.148 -0.0990 -0.4669  0.3843
 9260TIP3   OH227701   6.601   6.653   4.461  0.0372 -0.4798  0.2678
 9260TIP3    H127702   6.526   6.696   4.503 -0.0512 -1.2438  0.9214
 9260TIP3    H227703   6.580   6.653   4.368  0.2093  1.2028  0.2048
 9261TIP3   OH227704   7.042   6.597   2.972 -0.1380  0.2997  0.6332
 9261TIP3    H127705   7.013   6.558   2.889  0.5934 -1.5265  1.2009
 9261TIP3    H227706   6.972   6.575   3.033 -0.2537  0.8597  0.6990
 9262TIP3   OH227707   5.451   6.894   3.213 -0.2740 -0.0878  1.0488
 9262TIP3    H127708   5.538   6.873   3.249 -0.3925  0.9802  2.0076
 9262TIP3    H227709   5.450   6.854   3.126  1.4673  0.5037  0.7366
 9263TIP3   OH227710   5.145   5.582   3.244 -0.3042 -0.2863 -0.0680
 9263TIP3    H127711   5.069   5.623   3.286  0.4763 -0.1693  1.2563
 9263TIP3    H227712   5.123   5.579   3.151 -1.2626  1.2061  0.1018
 9264TIP3   OH227713   5.684   5.936   3.292 -0.3212  0.4836 -0.0914
 9264TIP3    H127714   5.682   6.019   3.338  2.0959  0.6345 -0.2247
 9264TIP3    H227715   5.741   5.880   3.345 -0.7917 -0.6383 -0.7471
 9265TIP3   OH227716   4.156   7.664   3.181  0.4922 -0.0629 -0.4080
 9265TIP3    H127717   4.124   7.731   3.241 -0.1996  0.2951 -1.1578
 9265TIP3    H227718   4.219   7.614   3.232 -0.8381 -0.4110  0.9173
 9266TIP3   OH227719   5.708   6.147   2.970 -0.2080 -0.1435 -0.0298
 9266TIP3    H127720   5.623   6.189   2.973 -0.4817 -0.7166  0.3338
 9266TIP3    H227721   5.759   6.189   3.040 -0.0214  0.5469 -0.5684
 9267TIP3   OH227722   4.382   6.429   2.856 -0.8624  0.0061  0.2738
 9267TIP3    H127723   4.438   6.370   2.806  1.3643  3.0841 -1.0488
 9267TIP3    H227724   4.295   6.417   2.819 -0.0495 -0.8993 -1.4067
 9268TIP3   OH227725   4.883   6.554   4.449  0.3097  0.2864  1.0496
 9268TIP3    H127726   4.881   6.607   4.369 -1.7400  0.3528  1.0955
 9268TIP3    H227727   4.911   6.468   4.420 -0.6782  0.2313  0.1734
 9269TIP3   OH227728   4.090   6.232   4.645 -0.0753 -0.1607  0.5414
 9269TIP3    H127729   4.145   6.305   4.676 -0.9849  0.4495  0.7460
 9269TIP3    H227730   4.121   6.156   4.693  0.4703  0.2173  0.7884
 9270TIP3   OH227731   4.722   5.310   3.938 -0.0265  0.1591  0.3028
 9270TIP3    H127732   4.798   5.275   3.891 -0.3504 -1.5574  1.0267
 9270TIP3    H227733   4.697   5.241   3.999 -1.6644  1.0350  0.6665
 9271TIP3   OH227734   4.927   5.571   4.077 -0.1163  0.0040  0.3498
 9271TIP3    H127735   4.974   5.488   4.067 -0.2440 -0.0298  0.0003
 9271TIP3    H227736   4.835   5.548   4.066 -0.1066  0.2823 -0.3605
 9272TIP3   OH227737   4.203   4.784   3.255 -0.0822  0.2670  0.6339
 9272TIP3    H127738   4.150   4.782   3.175  2.0096 -1.6622 -0.7682
 9272TIP3    H227739   4.145   4.823   3.321 -2.0586  1.3364 -1.6516
 9273TIP3   OH227740   4.678   5.959   3.527  0.3074 -0.4121  0.2852
 9273TIP3    H127741   4.772   5.976   3.523  0.2098 -0.2240 -1.5939
 9273TIP3    H227742   4.638   6.040   3.496 -0.5272 -0.1487  1.9795
 9274TIP3   OH227743   7.701   4.439   4.088 -0.5632 -0.2151 -0.3717
 9274TIP3    H127744   7.680   4.476   4.174  0.6708 -2.6994  1.0759
 9274TIP3    H227745   7.751   4.508   4.044 -1.5040  1.2216  0.7580
 9275TIP3   OH227746   4.109   7.284   4.129  0.2017 -0.3230  0.1720
 9275TIP3    H127747   4.118   7.314   4.220 -0.0881  0.5459 -0.0786
 9275TIP3    H227748   4.122   7.363   4.077  0.1949 -0.7914 -0.5358
 9276TIP3   OH227749   6.759   4.079   0.725  0.0549 -0.6605  0.2175
 9276TIP3    H127750   6.774   4.169   0.752 -1.9148 -0.1225 -0.4235
 9276TIP3    H227751   6.784   4.078   0.632 -0.3599 -0.6731  0.1084
 9277TIP3   OH227752   4.442   5.007   3.432 -0.1381  0.2777 -0.1599
 9277TIP3    H127753   4.396   5.043   3.508  0.1567 -0.4410  0.3767
 9277TIP3    H227754   4.526   5.054   3.430  0.4954 -0.7666  0.8957
 9278TIP3   OH227755   3.151   5.976   4.660  0.5460  0.5561 -0.0300
 9278TIP3    H127756   3.186   5.950   4.575  0.2574  0.4591 -0.1211
 9278TIP3    H227757   3.090   6.048   4.640  1.0116  1.0081  0.1715
 9279TIP3   OH227758   7.341   6.361   3.462 -0.1894  0.8617  0.2530
 9279TIP3    H127759   7.365   6.321   3.378 -1.0450  1.7378 -0.4188
 9279TIP3    H227760   7.296   6.292   3.510  1.0469  0.0928  0.3504
 9280TIP3   OH227761   7.125   6.775   2.208  0.4623  0.3157  0.0025
 9280TIP3    H127762   7.061   6.770   2.137  1.2991 -0.3390 -0.7174
 9280TIP3    H227763   7.210   6.777   2.164  1.0321 -1.0128  0.9926
 9281TIP3   OH227764   5.483   6.634   2.370 -0.2215 -1.2970  0.1222
 9281TIP3    H127765   5.415   6.611   2.307 -0.2422  0.4162 -0.5193
 9281TIP3    H227766   5.475   6.569   2.440 -0.9124 -2.5557 -1.1177
 9282TIP3   OH227767   4.653   6.509   2.642 -0.2314 -0.2673  0.0240
 9282TIP3    H127768   4.713   6.563   2.590  0.8121 -0.2772  1.1965
 9282TIP3    H227769   4.566   6.540   2.618  0.3313  1.4129  0.0935
 9283TIP3   OH227770   5.563   6.914   3.591  0.2603  0.1211 -0.5660
 9283TIP3    H127771   5.560   6.996   3.640  3.3872  0.6683 -1.1845
 9283TIP3    H227772   5.588   6.849   3.656  0.1905  0.0793 -0.5804
 9284TIP3   OH227773   5.567   4.890   3.458  0.5418  0.0831  0.0518
 9284TIP3    H127774   5.639   4.860   3.403 -0.5494 -1.7693 -0.4265
 9284TIP3    H227775   5.585   4.982   3.474  2.2872 -0.0279 -1.1957
 9285TIP3   OH227776   5.478   6.577   1.465 -0.4218 -0.5010 -0.2112
 9285TIP3    H127777   5.388   6.599   1.442 -0.1425  0.4321 -0.4482
 9285TIP3    H227778   5.470   6.530   1.549 -1.1913 -1.2466 -0.6944
 9286TIP3   OH227779   6.729   7.179   2.997  0.0947  0.2477 -0.0080
 9286TIP3    H127780   6.815   7.189   3.036 -0.3215 -0.3188  1.0511
 9286TIP3    H227781   6.705   7.268   2.970  0.8729  0.4554 -0.0404
 9287TIP3   OH227782   4.335   4.937   4.776 -0.2653 -0.3333  0.1238
 9287TIP3    H127783   4.415   4.889   4.753  0.6169  1.3413 -0.4124
 9287TIP3    H227784   4.292   4.882   4.841  1.1477 -1.4418  0.1459
 9288TIP3   OH227785   8.324   5.519   1.402 -0.3200 -0.5848  0.5173
 9288TIP3    H127786   8.267   5.596   1.399  1.3849  0.6592 -0.5968
 9288TIP3    H227787   8.367   5.517   1.317 -1.1729 -3.4311  0.1191
 9289TIP3   OH227788   5.384   4.458   2.566  0.1821 -0.0831 -0.1363
 9289TIP3    H127789   5.336   4.381   2.536 -1.8889  1.0576  0.1425
 9289TIP3    H227790   5.404   4.507   2.486  1.6589 -0.9678 -0.3311
 9290TIP3   OH227791   6.685   5.846   4.110  0.2637  0.5484  0.2495
 9290TIP3    H127792   6.771   5.872   4.076  0.1828  0.0328 -0.3630
 9290TIP3    H227793   6.649   5.789   4.042 -0.3305  0.3198  0.7527
 9291TIP3   OH227794   6.602   7.808   3.815 -0.1203  0.9367  0.3436
 9291TIP3    H127795   6.521   7.757   3.814 -0.7020  1.8546  0.3303
 9291TIP3    H227796   6.609   7.844   3.727 -0.9705  2.8138  1.0075
 9292TIP3   OH227797   5.869   5.215   0.909  0.0164  0.4432 -0.5547
 9292TIP3    H127798   5.909   5.136   0.872 -0.1639 -0.5351  1.3015
 9292TIP3    H227799   5.787   5.225   0.859  1.0290  0.6772 -2.2182
 9293TIP3   OH227800   7.132   5.767   1.893  0.5443 -0.3315 -0.5961
 9293TIP3    H127801   7.124   5.861   1.875 -1.5321 -0.7273 -1.8541
 9293TIP3    H227802   7.049   5.730   1.866  1.9687 -2.8194 -1.7535
 9294TIP3   OH227803   7.393   4.950   3.560 -0.4246  0.0720 -0.1220
 9294TIP3    H127804   7.394   4.995   3.645 -1.3803 -2.1284  1.0884
 9294TIP3    H227805   7.328   4.881   3.570 -0.2541 -0.4822 -2.5380
 9295TIP3   OH227806   1.791   0.044   1.393  0.2681 -0.9637 -0.1028
 9295TIP3    H127807   1.702   0.012   1.406  0.2769 -0.1435  2.1186
 9295TIP3    H227808   1.838   0.019   1.472  1.7487 -0.4457 -0.7989
 9296TIP3   OH227809   6.380   7.332   1.446  0.0255 -0.5516  0.0367
 9296TIP3    H127810   6.436   7.410   1.445 -0.3207 -0.3032 -0.3291
 9296TIP3    H227811   6.350   7.323   1.355 -0.4162 -0.7607  0.2003
 9297TIP3   OH227812   6.493   6.094   3.168  0.5222 -0.2885  0.0352
 9297TIP3    H127813   6.477   6.023   3.107 -0.6891 -0.1564  0.1946
 9297TIP3    H227814   6.454   6.171   3.127 -1.4050 -0.4469  1.5314
 9298TIP3   OH227815   6.655   7.487   2.392 -0.4509 -0.7452  0.4495
 9298TIP3    H127816   6.592   7.558   2.405 -0.0965 -0.3725  0.1129
 9298TIP3    H227817   6.640   7.428   2.466  0.1669  0.3468  1.4504
 9299TIP3   OH227818   1.063   6.047   3.379 -1.1941 -0.6843 -0.3604
 9299TIP3    H127819   1.032   6.121   3.431 -1.4272 -0.8172 -0.3075
 9299TIP3    H227820   1.056   6.077   3.288  0.3613 -0.0159 -0.2656
 9300TIP3   OH227821   5.743   8.086   5.069  0.2805  0.0403 -0.0711
 9300TIP3    H127822   5.706   8.019   5.127  0.2784  1.1154  1.1985
 9300TIP3    H227823   5.671   8.109   5.010 -0.2370  0.1391  0.5909
 9301TIP3   OH227824   1.288   4.442   3.027  1.0707  0.2925 -0.4973
 9301TIP3    H127825   1.251   4.438   2.939 -0.2836  1.6640 -0.0300
 9301TIP3    H227826   1.230   4.503   3.074  2.8223  0.9815  0.8235
 9302TIP3   OH227827   6.938   8.006   2.747 -0.0785 -0.3902  0.1207
 9302TIP3    H127828   6.935   8.063   2.670  2.8672 -0.8898 -0.4294
 9302TIP3    H227829   6.879   8.047   2.810 -1.2615  0.9192 -1.7845
 9303TIP3   OH227830   7.217   5.747   3.324 -0.1766  0.2926 -0.3463
 9303TIP3    H127831   7.243   5.715   3.410 -0.4653  1.5397  0.2037
 9303TIP3    H227832   7.269   5.695   3.263 -1.0467 -1.6467  0.5084
 9304TIP3   OH227833   6.968   6.300   2.063 -0.4112 -0.0601  0.2144
 9304TIP3    H127834   7.047   6.273   2.110  0.4339 -1.9411 -2.1833
 9304TIP3    H227835   7.000   6.346   1.986 -1.7560  1.7176  0.6728
 9305TIP3   OH227836   7.150   4.334   2.114 -0.0267  0.3059 -0.0093
 9305TIP3    H127837   7.191   4.418   2.138 -1.1810  1.0977 -0.7629
 9305TIP3    H227838   7.223   4.273   2.108  0.7693  1.1213  1.1221
 9306TIP3   OH227839   8.812   6.158   3.994  0.0463  0.3526  0.3086
 9306TIP3    H127840   8.843   6.225   3.933  1.1062  0.4266  0.9159
 9306TIP3    H227841   8.718   6.156   3.981  0.2286  0.5439 -1.1528
 9307TIP3   OH227842   7.860   5.479   2.666 -0.1117 -0.4079  0.5737
 9307TIP3    H127843   7.926   5.540   2.632 -0.8745 -0.6363 -1.3806
 9307TIP3    H227844   7.911   5.405   2.701  0.6707 -1.0935 -1.9213
 9308TIP3   OH227845   7.984   8.050   2.530 -0.1942  0.0508 -0.2735
 9308TIP3    H127846   7.933   8.017   2.456 -0.8837  0.2098  0.1249
 9308TIP3    H227847   8.038   7.976   2.558 -0.6567 -0.3036 -0.3143
 9309TIP3   OH227848   8.545   6.237   4.957 -0.0884 -0.4587  0.0311
 9309TIP3    H127849   8.480   6.235   5.028  0.5246 -3.3891  0.6063
 9309TIP3    H227850   8.594   6.155   4.968  1.9018  0.3984 -2.0674
 9310TIP3   OH227851   8.505   7.680   4.089  0.2494  0.1006 -0.3759
 9310TIP3    H127852   8.548   7.653   4.008 -0.3007  1.7033 -1.2426
 9310TIP3    H227853   8.480   7.771   4.073  1.2760  0.8395  2.0930
 9311TIP3   OH227854   0.340   8.154   4.108  0.3729 -0.2461  0.1230
 9311TIP3    H127855   0.357   8.247   4.092 -0.0208 -0.2291 -0.1913
 9311TIP3    H227856   0.245   8.147   4.110  0.4080 -0.4509  1.2784
 9312TIP3   OH227857   5.630   7.586   3.725  0.4477  0.3480 -0.5248
 9312TIP3    H127858   5.591   7.667   3.757  2.0537  0.8753  0.1424
 9312TIP3    H227859   5.645   7.603   3.632  1.3003  1.0453 -0.2714
 9313TIP3   OH227860   0.214   5.336   2.785 -0.2777  0.0247 -0.0022
 9313TIP3    H127861   0.231   5.252   2.743 -0.6628  1.3987 -3.0618
 9313TIP3    H227862   0.293   5.388   2.768  0.1051  0.1879  2.1750
 9314TIP3   OH227863  -0.009   4.620   3.663  0.0226 -0.3226 -0.0440
 9314TIP3    H127864   0.014   4.703   3.623  0.5934 -0.7273 -0.5741
 9314TIP3    H227865   0.074   4.572   3.669 -0.5977 -1.6142 -1.5317
 9315TIP3   OH227866   7.210   7.306   4.061  0.2104 -0.4108  0.4949
 9315TIP3    H127867   7.126   7.282   4.024  0.2328 -0.0625  0.2209
 9315TIP3    H227868   7.274   7.278   3.995  0.2664 -0.0399  0.3918
 9316TIP3   OH227869   6.202   6.806   4.689 -0.3414 -0.1807 -0.3725
 9316TIP3    H127870   6.118   6.760   4.685 -0.3305 -0.1451 -1.2632
 9316TIP3    H227871   6.267   6.736   4.703 -0.4252 -0.3343 -0.7212
 9317TIP3   OH227872   8.143   6.091   4.065 -0.1996  0.7695 -0.6964
 9317TIP3    H127873   8.082   6.111   3.994 -1.9898  2.3920  1.2469
 9317TIP3    H227874   8.093   6.105   4.145  2.3836  0.9583  0.9514
 9318TIP3   OH227875   8.727   7.767   3.121  0.6702 -0.1779 -0.4600
 9318TIP3    H127876   8.758   7.687   3.163  1.8073 -0.1431 -1.2013
 9318TIP3    H227877   8.632   7.765   3.132  0.9293 -0.2732  1.9147
 9319TIP3   OH227878   1.181   1.361   3.306  0.5771 -0.0438  0.5035
 9319TIP3    H127879   1.238   1.315   3.367 -0.6332 -1.5608  0.5031
 9319TIP3    H227880   1.156   1.441   3.353  1.1293 -0.3107  1.2673
 9320TIP3   OH227881   4.870   7.134   4.738  0.3576 -0.0067  0.3673
 9320TIP3    H127882   4.847   7.045   4.712 -0.6391 -0.4432  2.6265
 9320TIP3    H227883   4.826   7.190   4.674  1.1044 -1.1284 -1.1455
 9321TIP3   OH227884   0.954   6.095   2.912 -0.1136 -0.3829 -0.1967
 9321TIP3    H127885   1.002   6.048   2.844 -0.2306  1.6668 -1.7394
 9321TIP3    H227886   0.995   6.182   2.915 -1.7418  0.3881  0.5927
 9322TIP3   OH227887   8.435   5.737   2.366  0.3419  0.6685  0.1266
 9322TIP3    H127888   8.505   5.681   2.400  0.3633  1.3182  1.1577
 9322TIP3    H227889   8.480   5.814   2.332  0.3133  0.0802 -1.2986
 9323TIP3   OH227890   1.242   4.284   3.277  0.5676 -0.1894  0.1777
 9323TIP3    H127891   1.243   4.380   3.286  1.7882 -0.1005 -0.8466
 9323TIP3    H227892   1.257   4.252   3.366  0.9933  0.5855  0.3891
 9324TIP3   OH227893   6.548   6.562   3.413  0.3469  0.4315 -0.5813
 9324TIP3    H127894   6.507   6.617   3.346 -1.9075 -0.4343  0.0226
 9324TIP3    H227895   6.581   6.486   3.364 -2.2646 -0.7259 -0.6423
 9325TIP3   OH227896   6.589   6.325   2.797  0.1320 -0.0675  0.0275
 9325TIP3    H127897   6.646   6.391   2.836 -0.2152 -0.2328  0.8468
 9325TIP3    H227898   6.502   6.346   2.830 -0.1997 -0.1242 -0.7980
 9326TIP3   OH227899   8.280   7.364   3.215 -0.9960  0.3164  0.6994
 9326TIP3    H127900   8.277   7.454   3.181 -0.4058 -0.3114 -1.0432
 9326TIP3    H227901   8.188   7.338   3.221 -1.0464 -0.3780 -2.6408
 9327TIP3   OH227902   7.870   7.594   3.493  0.0024 -0.1673 -0.2665
 9327TIP3    H127903   7.961   7.624   3.492 -0.9521  2.9667  0.8201
 9327TIP3    H227904   7.860   7.547   3.576 -0.0872  1.9571  0.9509
 9328TIP3   OH227905   4.950   6.609   3.422  0.3349 -0.0514 -0.1055
 9328TIP3    H127906   4.924   6.691   3.382 -0.1991  0.3880  1.1189
 9328TIP3    H227907   4.869   6.560   3.432  0.6039 -0.5816 -0.4996
 9329TIP3   OH227908   8.061   6.549   1.493 -0.5186 -0.5614  0.3643
 9329TIP3    H127909   7.973   6.528   1.462 -0.6294  0.6572 -0.1813
 9329TIP3    H227910   8.048   6.583   1.581 -0.2885 -3.1828  1.4548
 9330TIP3   OH227911   7.673   5.689   4.029 -0.1212 -0.4610 -0.0826
 9330TIP3    H127912   7.673   5.715   3.937 -0.8150 -0.0541  0.0285
 9330TIP3    H227913   7.695   5.596   4.028  0.0586 -0.4102 -0.6520
 9331TIP3   OH227914   6.290   6.764   1.948 -0.4993 -0.0486 -0.2532
 9331TIP3    H127915   6.384   6.772   1.960 -0.7035  0.4425  1.1535
 9331TIP3    H227916   6.259   6.854   1.937 -0.6352 -0.3032 -2.2628
 9332TIP3   OH227917   6.239   8.195   2.503 -0.4483 -0.2710  0.4424
 9332TIP3    H127918   6.219   8.147   2.583 -2.7344 -0.6675 -0.3251
 9332TIP3    H227919   6.153   8.216   2.466  0.5667  1.3791 -1.0304
 9333TIP3   OH227920   8.857   6.659   4.517  0.6158  0.3088 -0.3426
 9333TIP3    H127921   8.857   6.577   4.568  0.9775  0.0159 -0.8114
 9333TIP3    H227922   8.810   6.721   4.572  0.7045 -0.1046  0.2016
 9334TIP3   OH227923   1.062   1.131   2.803 -0.0688 -0.5789  0.5141
 9334TIP3    H127924   0.999   1.196   2.773  0.4789 -0.4828 -0.4480
 9334TIP3    H227925   1.127   1.182   2.853  1.0988 -0.1747 -1.3813
 9335TIP3   OH227926   1.610   0.438   2.816 -0.5254 -0.3624 -0.1338
 9335TIP3    H127927   1.534   0.485   2.783 -1.1692  0.0205  1.8660
 9335TIP3    H227928   1.584   0.405   2.902  1.2579 -0.9768  0.2079
 9336TIP3   OH227929   5.328   8.158   3.963 -0.5668  0.2661 -0.4818
 9336TIP3    H127930   5.249   8.209   3.951 -0.8754  0.2160  1.2383
 9336TIP3    H227931   5.320   8.121   4.050  2.1984  1.7781  0.4790
 9337TIP3   OH227932   6.729   8.327   3.987 -0.1703  0.0432 -0.1368
 9337TIP3    H127933   6.754   8.245   4.030  0.0224  0.3652  0.3643
 9337TIP3    H227934   6.687   8.299   3.905 -1.5658 -0.6177  0.7802
 9338TIP3   OH227935   1.879   7.197   3.203  0.9136 -0.6010  0.4169
 9338TIP3    H127936   1.967   7.199   3.242  0.1688  1.1666  2.0904
 9338TIP3    H227937   1.827   7.256   3.258 -0.6053  0.6670 -2.2886
 9339TIP3   OH227938   0.225   6.906   1.600  0.0868  0.2273 -0.2109
 9339TIP3    H127939   0.140   6.873   1.570 -0.2149 -0.2052  1.0737
 9339TIP3    H227940   0.264   6.832   1.646  0.4829  0.9123  0.5562
 9340TIP3   OH227941   3.933   0.148   3.313 -0.0812  0.2581 -0.4708
 9340TIP3    H127942   4.013   0.105   3.341 -0.8209 -0.6829  0.2647
 9340TIP3    H227943   3.933   0.233   3.356 -0.0809 -0.2449  0.5383
 9341TIP3   OH227944   8.530   7.222   3.237 -0.2724  0.1449  0.5185
 9341TIP3    H127945   8.456   7.184   3.285  0.8284 -1.8639  0.6857
 9341TIP3    H227946   8.532   7.313   3.266 -3.3993  0.5837 -0.4068
 9342TIP3   OH227947   7.637   6.763   2.796  0.4422 -0.0125  0.2857
 9342TIP3    H127948   7.583   6.713   2.857  0.6311 -1.0142 -0.3394
 9342TIP3    H227949   7.619   6.723   2.711 -1.5687  2.8565 -0.6895
 9343TIP3   OH227950   5.623   5.896   3.879 -0.3168  1.1263 -0.5556
 9343TIP3    H127951   5.673   5.848   3.945 -1.8833  0.9919  0.5534
 9343TIP3    H227952   5.617   5.985   3.913 -1.9926  0.8206  0.0029
 9344TIP3   OH227953   4.312   0.345   4.109  0.1164  0.4569  0.0528
 9344TIP3    H127954   4.368   0.299   4.047 -0.8031  1.7936 -1.7959
 9344TIP3    H227955   4.370   0.368   4.181  1.3899 -0.3266 -0.6981
 9345TIP3   OH227956   7.683   7.533   2.881  0.2074 -0.4083 -0.2609
 9345TIP3    H127957   7.587   7.532   2.886  0.1469 -1.2761 -1.3283
 9345TIP3    H227958   7.707   7.443   2.858  1.2486 -0.0746 -0.5138
 9346TIP3   OH227959   8.032   6.475   1.980  0.3350 -0.1097 -0.4563
 9346TIP3    H127960   8.078   6.420   2.044 -0.5952  0.5258  0.7923
 9346TIP3    H227961   7.978   6.414   1.930  0.8799 -0.5813 -0.4785
 9347TIP3   OH227962   8.166   5.007   1.552  0.3146 -0.2787 -0.0396
 9347TIP3    H127963   8.252   5.029   1.517 -0.7156  0.7582 -2.0226
 9347TIP3    H227964   8.170   4.913   1.570  1.5800 -0.4045 -0.9215
 9348TIP3   OH227965   0.027   7.361   4.250 -0.7323  0.1953 -0.0282
 9348TIP3    H127966   0.118   7.387   4.259 -0.5268 -0.1095 -1.1584
 9348TIP3    H227967   0.005   7.321   4.334 -0.0304  0.8863  0.4878
 9349TIP3   OH227968   7.926   6.170   0.494  0.1289 -0.5613  0.5333
 9349TIP3    H127969   8.021   6.159   0.490 -0.0535 -2.4498  0.9269
 9349TIP3    H227970   7.911   6.259   0.463  1.8665 -0.9467 -1.5090
 9350TIP3   OH227971   5.625   4.370   2.659 -0.4853  0.1427  0.1916
 9350TIP3    H127972   5.603   4.277   2.655  1.5431 -0.3196 -0.6923
 9350TIP3    H227973   5.558   4.413   2.606 -2.4096 -0.5914  1.9235
 9351TIP3   OH227974   8.737   5.948   1.912  0.2250 -0.0727 -0.0666
 9351TIP3    H127975   8.728   5.856   1.887  2.3566 -0.0756 -0.9490
 9351TIP3    H227976   8.792   5.947   1.990 -0.8582  0.3881  0.7262
 9352TIP3   OH227977   4.688   6.662   1.483  0.6955 -0.4815  0.0370
 9352TIP3    H127978   4.694   6.677   1.389  1.7694  0.7132  0.2701
 9352TIP3    H227979   4.597   6.636   1.498  0.4416 -0.3918 -1.2831
 9353TIP3   OH227980   7.953   3.627   1.316 -0.4450  0.4163 -0.2517
 9353TIP3    H127981   7.898   3.642   1.239  1.0575  0.1161 -1.3967
 9353TIP3    H227982   7.903   3.563   1.368 -0.8833 -0.3713 -1.6020
 9354TIP3   OH227983   8.896   5.817   3.759 -0.1759 -0.1242  0.2499
 9354TIP3    H127984   8.837   5.887   3.732 -0.2141  0.7471  2.4968
 9354TIP3    H227985   8.938   5.850   3.838  1.0036 -1.9967  0.4305
 9355TIP3   OH227986   7.240   6.340   2.147 -0.2904  0.3075  0.6075
 9355TIP3    H127987   7.300   6.398   2.099 -0.7879  0.4389  0.1432
 9355TIP3    H227988   7.220   6.388   2.228  0.0704  0.3499  0.6733
 9356TIP3   OH227989   8.710   5.429   4.591  0.0948  0.6840  0.6460
 9356TIP3    H127990   8.640   5.489   4.617 -0.9896  0.2990 -1.3209
 9356TIP3    H227991   8.675   5.342   4.610 -0.3207  0.4503 -1.1766
 9357TIP3   OH227992   6.465   3.833   1.955  0.6217 -0.7232  0.0083
 9357TIP3    H127993   6.535   3.883   1.913  0.3697 -0.1297  0.2873
 9357TIP3    H227994   6.385   3.880   1.933  0.3846 -0.9803  0.3121
 9358TIP3   OH227995   6.307   7.185   2.970  0.6794  0.3675  0.0817
 9358TIP3    H127996   6.359   7.192   3.050  0.7355 -1.2979  0.1991
 9358TIP3    H227997   6.354   7.121   2.917 -0.1669  0.3689 -0.6680
 9359TIP3   OH227998   6.086   5.642   3.451 -0.0287  0.7321 -0.2362
 9359TIP3    H127999   6.130   5.562   3.421  1.8065  1.1901  1.1452
 9359TIP3    H228000   6.120   5.710   3.392 -0.8442  0.6730 -0.7848
 9360TIP3   OH228001   8.467   7.423   3.912  0.3322  0.5205 -0.3626
 9360TIP3    H128002   8.557   7.414   3.883  0.3789  1.7959 -0.6278
 9360TIP3    H228003   8.452   7.346   3.968  1.2902 -0.1610 -1.0231
 9361TIP3   OH228004   6.459   5.518   2.393 -0.7480 -0.2241 -0.4704
 9361TIP3    H128005   6.463   5.445   2.454 -0.9448 -0.9121 -1.2646
 9361TIP3    H228006   6.514   5.586   2.432 -0.1666 -0.9820  0.0389
 9362TIP3   OH228007   7.339   5.097   1.588 -0.5409  0.5290 -0.1283
 9362TIP3    H128008   7.388   5.179   1.598  0.1585  0.1609 -0.4817
 9362TIP3    H228009   7.402   5.037   1.548 -1.4382  0.1920 -1.0410
 9363TIP3   OH228010   7.392   5.645   0.892 -0.0118 -0.4653 -0.8478
 9363TIP3    H128011   7.424   5.728   0.856  1.7578 -0.6540  0.2543
 9363TIP3    H228012   7.457   5.581   0.865 -0.4585 -1.1993 -0.1949
 9364TIP3   OH228013   0.266   6.053   1.979  0.6687  0.2471  0.1202
 9364TIP3    H128014   0.325   5.988   2.016  2.3278  1.3565 -0.5124
 9364TIP3    H228015   0.187   6.048   2.033  0.8487 -2.1210  0.2105
 9365TIP3   OH228016   4.726   5.337   3.488 -0.0804 -0.5271  0.0136
 9365TIP3    H128017   4.673   5.293   3.554 -0.7658 -0.2446 -0.3385
 9365TIP3    H228018   4.797   5.276   3.469 -0.1270 -0.7915  0.6895
 9366TIP3   OH228019   8.630   8.133   4.453 -0.6724 -0.0957 -0.6044
 9366TIP3    H128020   8.636   8.223   4.421  0.8050  0.3433  0.8059
 9366TIP3    H228021   8.536   8.118   4.465 -0.8357  2.0297  1.2095
 9367TIP3   OH228022   5.811   7.270   1.973 -0.1986 -0.2932 -0.4261
 9367TIP3    H128023   5.823   7.363   1.955 -0.0513 -0.3433 -0.5852
 9367TIP3    H228024   5.825   7.227   1.888  1.8357 -0.6550  0.0622
 9368TIP3   OH228025   8.839   8.336   4.261  0.2252 -0.5847 -0.4279
 9368TIP3    H128026   8.872   8.274   4.326  1.1362  0.0437 -0.2789
 9368TIP3    H228027   8.882   8.310   4.180 -0.5744 -1.0931 -0.7000
 9369TIP3   OH228028   6.395   7.906   2.253 -0.3678  0.1250  0.3837
 9369TIP3    H128029   6.351   7.869   2.177  1.3556 -0.8006 -0.2036
 9369TIP3    H228030   6.394   7.835   2.318  0.7174 -0.1119  0.1607
 9370TIP3   OH228031   7.904   6.231   1.919 -0.2484  0.0597 -0.6446
 9370TIP3    H128032   7.977   6.241   1.858  0.2460  1.6589  0.1650
 9370TIP3    H228033   7.935   6.169   1.985 -0.2153 -0.4778 -1.1628
 9371TIP3   OH228034   7.539   6.636   2.556  0.3323  0.3150 -0.3593
 9371TIP3    H128035   7.459   6.622   2.607  1.7758  0.5250  2.0443
 9371TIP3    H228036   7.550   6.554   2.507 -1.4188  0.3388 -0.8273
 9372TIP3   OH228037   0.229   6.993   3.341  0.4850  0.5818  0.2350
 9372TIP3    H128038   0.287   7.044   3.398  1.3975  0.2020 -0.3564
 9372TIP3    H228039   0.285   6.924   3.305 -0.7390 -0.8819  1.0687
 9373TIP3   OH228040   7.454   4.966   0.969  0.6160  0.4070  0.0055
 9373TIP3    H128041   7.484   4.876   0.979  1.1921  0.8027  2.0860
 9373TIP3    H228042   7.366   4.967   1.008  0.7222  0.8165  0.2394
 9374TIP3   OH228043   7.140   6.813   3.342 -0.0159 -0.2311  0.0378
 9374TIP3    H128044   7.087   6.856   3.409  2.3956 -0.0078  1.8768
 9374TIP3    H228045   7.101   6.726   3.333 -0.3254 -0.2934  1.7876
 9375TIP3   OH228046   7.336   6.446   1.434  0.0854 -0.2157  0.0363
 9375TIP3    H128047   7.252   6.473   1.399  0.8452  1.0809 -0.8316
 9375TIP3    H228048   7.341   6.352   1.416 -1.1629 -0.2945  0.1052
 9376TIP3   OH228049   6.221   7.624   4.615 -0.0731 -0.0796  0.3033
 9376TIP3    H128050   6.195   7.654   4.702 -1.3745 -0.1407 -0.0617
 9376TIP3    H228051   6.209   7.701   4.559 -0.0287 -0.2797  0.0222
 9377TIP3   OH228052   8.575   7.150   2.483 -0.4468  0.3177  0.0993
 9377TIP3    H128053   8.509   7.104   2.431  0.0233 -0.4338  0.1613
 9377TIP3    H228054   8.553   7.129   2.574 -0.6057  0.7224  0.1522
 9378TIP3   OH228055   5.932   6.449   4.191 -0.0809 -0.2992 -0.1187
 9378TIP3    H128056   5.882   6.381   4.235 -0.2335 -0.5537 -0.6741
 9378TIP3    H228057   5.996   6.478   4.256 -1.0890  0.1782  0.6623
 9379TIP3   OH228058   7.604   4.897   3.399  0.0608 -0.0948  0.6163
 9379TIP3    H128059   7.541   4.885   3.470  1.0710 -0.5521  1.4423
 9379TIP3    H228060   7.616   4.992   3.394  0.3670 -0.0866  1.3996
 9380TIP3   OH228061   0.882   8.407   3.627  0.0353  0.7498  0.5012
 9380TIP3    H128062   0.923   8.332   3.584  0.1470  0.9648  0.2359
 9380TIP3    H228063   0.813   8.368   3.681  1.8626  0.1849  2.5054
 9381TIP3   OH228064   0.411   5.645   1.411 -0.6707  0.1900  0.1175
 9381TIP3    H128065   0.369   5.717   1.363  0.8152  1.0713  0.1154
 9381TIP3    H228066   0.435   5.582   1.343 -2.4791 -0.6079  0.1733
 9382TIP3   OH228067   7.307   7.879   3.395 -0.4096 -0.5218  0.6138
 9382TIP3    H128068   7.248   7.862   3.321 -0.0673  0.1312  0.1901
 9382TIP3    H228069   7.264   7.949   3.444 -1.1713 -1.6923  1.6390
 9383TIP3   OH228070   0.017   7.984   1.533 -0.1521  0.3629 -0.2670
 9383TIP3    H128071   0.033   8.053   1.597 -0.3478 -0.6496  0.8829
 9383TIP3    H228072   0.082   7.999   1.464  1.0255  0.5767  0.8774
 9384TIP3   OH228073   0.818   4.706   1.810  0.0680 -0.1854 -0.1151
 9384TIP3    H128074   0.856   4.793   1.811  0.6691 -0.4503  0.7766
 9384TIP3    H228075   0.773   4.700   1.725  2.0354  0.1289 -1.1992
 9385TIP3   OH228076   5.730   8.050   1.530  0.3034  0.4000 -0.6801
 9385TIP3    H128077   5.731   8.068   1.624  0.1899  0.2151 -0.6413
 9385TIP3    H228078   5.747   7.956   1.524  0.2376  0.3986 -0.8407
 9386TIP3   OH228079   4.881   6.269   3.002  0.4665  0.0729 -0.4548
 9386TIP3    H128080   4.900   6.194   3.059  4.1596  1.4433  0.2045
 9386TIP3    H228081   4.880   6.344   3.061 -1.5870  0.8187 -1.3764
 9387TIP3   OH228082   7.169   4.025   1.601 -0.4619 -0.2065 -0.1031
 9387TIP3    H128083   7.100   4.045   1.538 -0.0006 -1.4397 -1.0183
 9387TIP3    H228084   7.204   3.941   1.573  1.9383  0.7430 -0.1100
 9388TIP3   OH228085   6.782   7.072   4.478 -0.4704 -0.7746 -0.0903
 9388TIP3    H128086   6.789   7.025   4.561  1.6072  0.9749  0.7782
 9388TIP3    H228087   6.869   7.062   4.438 -0.7273  0.3743 -0.9514
 9389TIP3   OH228088   1.500   0.041   3.310 -0.3606 -0.2908  0.6257
 9389TIP3    H128089   1.427   0.100   3.293  1.3508  1.2836 -1.4346
 9389TIP3    H228090   1.525   0.060   3.401  1.2506  3.4494 -0.5084
 9390TIP3   OH228091   8.354   5.128   1.236  0.0957 -0.0425  0.0340
 9390TIP3    H128092   8.268   5.136   1.194  0.2577 -1.2946 -0.5438
 9390TIP3    H228093   8.416   5.159   1.170  0.3054 -1.5426 -0.4871
 9391TIP3   OH228094   6.691   6.135   1.597 -0.1083 -0.6723  0.2492
 9391TIP3    H128095   6.618   6.083   1.630 -0.0004  1.0799  3.4265
 9391TIP3    H228096   6.667   6.226   1.615  1.5042  0.1224 -1.4434
 9392TIP3   OH228097   7.347   8.078   1.735  0.0005  0.2053  0.2152
 9392TIP3    H128098   7.286   8.060   1.664 -1.3492  3.8793  0.3327
 9392TIP3    H228099   7.297   8.131   1.797  1.8911 -0.8329  2.7311
 9393TIP3   OH228100   7.884   7.487   3.737 -0.0820  0.8197  0.5448
 9393TIP3    H128101   7.946   7.529   3.797  0.9222  0.7748 -0.4427
 9393TIP3    H228102   7.851   7.411   3.787  1.1541  0.4685  0.8478
 9394TIP3   OH228103   6.726   6.442   1.640 -0.0741 -0.4045  0.1246
 9394TIP3    H128104   6.737   6.536   1.656 -0.7957 -0.3808  0.4962
 9394TIP3    H228105   6.655   6.437   1.576 -1.8776 -0.8068  2.1066
 9395TIP3   OH228106   7.911   4.457   0.450 -0.7080  0.2220 -0.5730
 9395TIP3    H128107   7.996   4.501   0.457 -0.4316 -0.2219 -1.0961
 9395TIP3    H228108   7.892   4.427   0.539  0.0642 -0.3795 -0.6015
 9396TIP3   OH228109   7.150   8.053   3.766 -0.3494 -0.1053 -0.1648
 9396TIP3    H128110   7.101   8.135   3.759 -0.4818 -0.1358  0.3915
 9396TIP3    H228111   7.202   8.050   3.686  0.6445  1.1775  0.4061
 9397TIP3   OH228112   8.914   6.196   1.910 -0.7372 -0.2216  0.0432
 9397TIP3    H128113   8.851   6.257   1.871 -0.3309 -0.2857 -0.7302
 9397TIP3    H228114   8.900   6.114   1.862  1.1891  0.2723 -1.4252
 9398TIP3   OH228115   4.994   6.416   1.351 -0.0590  0.0228  0.4191
 9398TIP3    H128116   4.972   6.494   1.300 -1.0098  0.0419  0.8457
 9398TIP3    H228117   5.015   6.350   1.286 -0.1697  0.3699  0.0286
 9399TIP3   OH228118   5.985   6.903   3.803 -0.9817  0.2536 -0.2658
 9399TIP3    H128119   6.032   6.984   3.784  1.4152 -1.1420 -0.5906
 9399TIP3    H228120   5.979   6.858   3.719  1.6056 -1.8274  0.5546
 9400TIP3   OH228121   7.254   5.911   4.044 -0.1502  0.2400  0.1898
 9400TIP3    H128122   7.330   5.924   4.100 -0.2287  1.1138  0.0989
 9400TIP3    H228123   7.179   5.938   4.097 -0.0597  2.9066 -0.9395
 9401TIP3   OH228124   7.831   5.576   3.288  0.3019 -0.0668 -0.4126
 9401TIP3    H128125   7.857   5.535   3.370  0.5683 -1.4431 -1.1722
 9401TIP3    H228126   7.914   5.595   3.243  0.1205 -1.7569 -1.5233
 9402TIP3   OH228127   8.798   6.516   2.275 -0.0901 -0.1324  0.2311
 9402TIP3    H128128   8.806   6.543   2.366 -0.6765  2.3438 -0.4261
 9402TIP3    H228129   8.723   6.565   2.241  1.6794  0.9529 -2.2677
 9403TIP3   OH228130   6.474   5.657   2.158 -0.6461 -0.3867 -0.6030
 9403TIP3    H128131   6.479   5.597   2.232  1.1374 -0.2210 -0.5624
 9403TIP3    H228132   6.548   5.631   2.102 -1.4179  0.0893 -1.8574
 9404TIP3   OH228133   6.694   7.362   3.868 -0.1089  0.3590  0.4397
 9404TIP3    H128134   6.758   7.423   3.832 -0.3220  0.8335  0.8624
 9404TIP3    H228135   6.664   7.404   3.948  0.2854 -0.6393  1.1163
 9405TIP3   OH228136   8.581   2.547   3.391  1.1389  0.4552  0.0837
 9405TIP3    H128137   8.570   2.617   3.326 -1.8900  0.5729  0.6435
 9405TIP3    H228138   8.566   2.467   3.342  0.7171  0.4394  0.2338
 9406TIP3   OH228139   7.394   6.640   2.903 -0.4904  0.0062 -0.1572
 9406TIP3    H128140   7.353   6.633   2.817 -2.2342  0.7639  0.5973
 9406TIP3    H228141   7.346   6.578   2.958  1.1532 -1.0753  0.0929
 9407TIP3   OH228142   5.904   5.804   2.524 -0.2118  0.1970 -0.2887
 9407TIP3    H128143   5.827   5.829   2.473  0.2648 -0.8449 -1.5651
 9407TIP3    H228144   5.909   5.868   2.594 -1.5148  1.0232 -0.9394
 9408TIP3   OH228145   8.205   4.576   4.408  0.0150 -0.0857 -0.2804
 9408TIP3    H128146   8.256   4.628   4.470 -0.7807  0.2926  0.0593
 9408TIP3    H228147   8.268   4.550   4.341  0.6321  0.4597  0.0870
 9409TIP3   OH228148   8.198   6.078   3.433  0.2736 -0.0340 -0.0247
 9409TIP3    H128149   8.140   6.092   3.358 -1.3775 -1.1225  1.0198
 9409TIP3    H228150   8.147   6.023   3.493  1.8439  0.2120  1.5777
 9410TIP3   OH228151   6.729   6.134   2.378 -0.6969  0.1436 -0.0011
 9410TIP3    H128152   6.651   6.121   2.432 -0.0104 -1.3175  0.6648
 9410TIP3    H228153   6.709   6.090   2.296 -2.2552  3.4665 -1.5001
 9411TIP3   OH228154   5.561   7.557   2.700 -0.4592 -0.2317 -0.1374
 9411TIP3    H128155   5.510   7.497   2.756 -1.4828 -0.2344 -1.0508
 9411TIP3    H228156   5.496   7.622   2.670  0.3585  0.5394 -0.2548
 9412TIP3   OH228157   1.850   7.318   1.906  0.5273  0.0047 -0.1183
 9412TIP3    H128158   1.773   7.295   1.958  1.8436 -1.9172  1.0138
 9412TIP3    H228159   1.897   7.383   1.959 -0.1583  1.0193 -0.7167
 9413TIP3   OH228160   5.763   7.152   3.344  0.3329 -0.0125  0.0035
 9413TIP3    H128161   5.783   7.214   3.274  1.9767  0.1118  0.5716
 9413TIP3    H228162   5.832   7.165   3.409 -0.7259 -0.6847  1.2926
 9414TIP3   OH228163   0.192   7.555   3.851 -0.6303 -0.1565  0.7129
 9414TIP3    H128164   0.150   7.485   3.900 -0.9886  0.4049  1.2173
 9414TIP3    H228165   0.284   7.553   3.878 -0.9808  0.6404  1.9856
 9415TIP3   OH228166   0.043   8.110   4.450 -0.3554 -0.3687  0.1197
 9415TIP3    H128167   0.005   8.025   4.429  2.4046 -1.7141  0.2626
 9415TIP3    H228168   0.104   8.091   4.521  0.6499  1.6508 -0.1766
 9416TIP3   OH228169   8.213   5.710   0.584  0.3506 -0.4518 -0.2004
 9416TIP3    H128170   8.149   5.759   0.636  0.6890  0.9638 -1.0807
 9416TIP3    H228171   8.182   5.620   0.586 -2.5952  0.4749 -1.9935
 9417TIP3   OH228172   0.289   5.992   3.854  0.1003 -0.5704  0.4160
 9417TIP3    H128173   0.369   5.960   3.812  2.7548  4.3163  1.4181
 9417TIP3    H228174   0.242   6.039   3.785 -1.4160 -2.3986  0.1416
 9418TIP3   OH228175   7.130   4.910   1.602 -0.0755  0.2302 -0.2449
 9418TIP3    H128176   7.127   4.842   1.534  1.6348 -2.6534  2.4445
 9418TIP3    H228177   7.210   4.960   1.582 -0.2094  0.1400 -1.0192
 9419TIP3   OH228178   5.956   6.712   4.655 -0.3756  0.1010 -0.3566
 9419TIP3    H128179   5.884   6.775   4.654 -0.3127  0.1712 -0.4228
 9419TIP3    H228180   5.940   6.660   4.734 -1.6893 -1.2691 -1.4888
 9420TIP3   OH228181   5.933   6.009   2.027  0.1893  0.1368 -0.1870
 9420TIP3    H128182   5.977   5.995   2.111 -0.0672  0.6885  0.0357
 9420TIP3    H228183   5.919   6.103   2.022 -0.6299  0.0030 -0.4396
 9421TIP3   OH228184   8.143   5.502   3.301  0.1572  0.0807  0.1657
 9421TIP3    H128185   8.140   5.594   3.327  0.8468 -0.5658  2.6273
 9421TIP3    H228186   8.179   5.503   3.212  2.3044  2.0354  1.0235
 9422TIP3   OH228187   8.672   7.162   1.711  1.0144  0.1662 -0.4507
 9422TIP3    H128188   8.747   7.144   1.654  0.3946 -1.0122 -0.9063
 9422TIP3    H228189   8.683   7.103   1.785 -0.4790 -1.3886 -1.4440
 9423TIP3   OH228190   7.539   8.174   3.627 -0.5551  0.1370  0.4979
 9423TIP3    H128191   7.616   8.116   3.634 -0.3002  0.1520 -1.8446
 9423TIP3    H228192   7.533   8.216   3.713  1.5945 -0.4600  0.9721
 9424TIP3   OH228193   8.396   4.936   2.205  0.5699 -0.0285  0.1545
 9424TIP3    H128194   8.422   4.941   2.297  0.9269  1.3146 -0.0096
 9424TIP3    H228195   8.326   5.001   2.196 -0.0644 -0.7766 -0.3254
 9425TIP3   OH228196   6.037   7.102   1.307 -1.0086 -0.6627  0.1197
 9425TIP3    H128197   5.960   7.080   1.254 -1.0329 -2.3287  0.7975
 9425TIP3    H228198   6.086   7.020   1.312  1.3158  0.5920 -1.0951
 9426TIP3   OH228199   1.008   7.475   3.129 -0.3656  0.0467  0.6016
 9426TIP3    H128200   1.021   7.415   3.202  1.6104  1.0717  1.1109
 9426TIP3    H228201   0.984   7.558   3.169 -1.2677  0.0958 -0.0162
 9427TIP3   OH228202   7.291   5.916   0.655 -0.5406  0.1093 -0.1198
 9427TIP3    H128203   7.241   5.949   0.729  0.5072  0.9480  0.2355
 9427TIP3    H228204   7.251   5.832   0.633 -1.2977  0.1912  0.9458
 9428TIP3   OH228205   7.037   7.310   2.839 -0.4229 -0.0097  0.4817
 9428TIP3    H128206   6.992   7.284   2.759 -1.6801  0.1190  1.1413
 9428TIP3    H228207   7.070   7.228   2.876 -1.3175 -0.2599  0.7222
 9429TIP3   OH228208   8.499   6.653   2.177 -0.2944  0.5640 -0.3412
 9429TIP3    H128209   8.463   6.618   2.258 -1.5184  1.2835 -0.5696
 9429TIP3    H228210   8.433   6.713   2.145  0.2407  0.3883 -1.8131
 9430TIP3   OH228211   0.371   5.988   4.825  0.4969 -0.4876 -0.7586
 9430TIP3    H128212   0.405   5.932   4.756  0.9279 -0.3459 -0.6644
 9430TIP3    H228213   0.362   6.074   4.785  2.9469  0.1485 -0.0296
 9431TIP3   OH228214   7.966   5.917   3.539  0.3820  0.1579  0.3522
 9431TIP3    H128215   8.019   5.838   3.537  1.0795  0.6526 -1.1608
 9431TIP3    H228216   7.892   5.898   3.481  0.8094  0.7822 -0.4087
 9432TIP3   OH228217   6.740   6.054   4.380  0.9270  0.0207  0.4760
 9432TIP3    H128218   6.697   6.096   4.454 -0.7679 -0.7573 -0.0487
 9432TIP3    H228219   6.749   5.962   4.406  2.6364  0.2415  0.7324
 9433TIP3   OH228220   0.304   5.825   5.035  0.2316 -0.5971  0.5616
 9433TIP3    H128221   0.290   5.741   4.991 -0.5654 -0.7602  1.1155
 9433TIP3    H228222   0.338   5.882   4.967 -2.6331 -0.3400 -0.7512
 9434TIP3   OH228223   8.451   8.065   3.050  0.0120  0.1023  0.2239
 9434TIP3    H128224   8.358   8.058   3.072  0.0413  0.1342  0.3522
 9434TIP3    H228225   8.475   8.155   3.072  0.5736 -0.4816  2.1338
 9435TIP3   OH228226   6.872   5.567   5.705 -0.7199  0.2776  0.2858
 9435TIP3    H128227   6.798   5.555   5.646 -0.0624  1.4322 -0.8001
 9435TIP3    H228228   6.940   5.509   5.671 -0.3369  0.9521 -0.1265
 9436TIP3   OH228229   0.723   6.155   2.392  0.1273 -0.2939  0.7139
 9436TIP3    H128230   0.686   6.124   2.310 -0.1745 -0.5835  0.9577
 9436TIP3    H228231   0.745   6.247   2.376 -0.8680 -0.0730  0.6400
 9437TIP3   OH228232   6.167   4.751   1.739  0.0942 -0.4258 -0.7382
 9437TIP3    H128233   6.161   4.683   1.805 -0.0394  0.7691  0.5048
 9437TIP3    H228234   6.257   4.745   1.707  0.5292 -0.2287  0.4205
 9438TIP3   OH228235   7.463   6.532   5.317  0.2626  0.1204 -0.4264
 9438TIP3    H128236   7.428   6.500   5.400 -0.0725  0.7576 -0.3104
 9438TIP3    H228237   7.432   6.470   5.252 -0.2643  0.1349 -0.1914
 9439TIP3   OH228238   8.698   6.253   5.423  0.2343  0.3799  0.3928
 9439TIP3    H128239   8.658   6.306   5.493 -1.0609  1.6289 -1.2736
 9439TIP3    H228240   8.743   6.183   5.470 -0.8840  1.0104  2.4854
 9440TIP3   OH228241   7.336   6.067   3.146 -0.4385  0.0179  0.0058
 9440TIP3    H128242   7.250   6.110   3.143 -1.0315 -1.2196 -1.5097
 9440TIP3    H228243   7.318   5.977   3.121  1.2493 -0.3535  0.1071
 9441TIP3   OH228244   7.037   6.357   5.359 -0.0431  0.3221  0.0825
 9441TIP3    H128245   6.956   6.324   5.320 -0.5663  0.1558  1.2763
 9441TIP3    H228246   7.090   6.385   5.285  0.3049 -2.9317 -0.9778
 9442TIP3   OH228247   8.808   6.291   2.435 -0.3120 -0.1229 -0.6745
 9442TIP3    H128248   8.894   6.254   2.458 -0.4122  0.9862  1.7125
 9442TIP3    H228249   8.827   6.351   2.362  0.9273 -0.0596 -0.3212
 9443TIP3   OH228250   8.651   8.104   2.416  0.6931  0.0680 -0.3738
 9443TIP3    H128251   8.742   8.077   2.408  0.7519 -0.2074  1.0235
 9443TIP3    H228252   8.604   8.023   2.437  0.1792  0.2584 -0.7825
 9444TIP3   OH228253   4.812   6.147   1.024 -0.1340 -0.3725  0.1767
 9444TIP3    H128254   4.785   6.237   1.038 -0.2808 -0.3273 -0.3667
 9444TIP3    H228255   4.751   6.114   0.958  0.8567 -0.3989 -0.7505
 9445TIP3   OH228256   6.245   7.263   2.072  0.3348 -0.7439  0.0591
 9445TIP3    H128257   6.231   7.224   2.158  1.3519 -0.0585  0.5426
 9445TIP3    H228258   6.188   7.340   2.070  0.8800 -0.3282  0.4164
 9446TIP3   OH228259   8.057   7.303   3.480 -0.0935 -0.0924  0.3190
 9446TIP3    H128260   8.006   7.317   3.400 -0.3434 -0.7271  0.3628
 9446TIP3    H228261   8.020   7.364   3.543  0.7044  1.0580 -0.3135
 9447TIP3   OH228262   8.455   6.951   4.856  0.5549 -0.0791  0.0700
 9447TIP3    H128263   8.377   6.914   4.896 -0.0798  0.8428 -0.3148
 9447TIP3    H228264   8.528   6.903   4.897 -0.2368 -1.6402 -0.3036
 9448TIP3   OH228265   0.724   6.519   3.909 -0.0935 -0.3224 -0.2426
 9448TIP3    H128266   0.738   6.531   4.003 -0.2857 -0.9782 -0.1270
 9448TIP3    H228267   0.688   6.431   3.902  2.6704 -1.4185 -1.1930
 9449TIP3   OH228268   8.588   7.549   2.365 -0.1759 -0.4244 -0.6372
 9449TIP3    H128269   8.677   7.525   2.338 -0.2799 -0.6819 -0.7457
 9449TIP3    H228270   8.579   7.515   2.453  0.2709  0.6781 -0.1557
 9450TIP3   OH228271   7.555   6.376   0.340  0.3268  0.2363  0.3583
 9450TIP3    H128272   7.541   6.293   0.386  1.0578 -0.5953 -0.8879
 9450TIP3    H228273   7.505   6.440   0.390 -0.6832 -1.0592  1.0409
 9451TIP3   OH228274   3.040   0.437   2.172  1.3034 -0.8665 -1.2133
 9451TIP3    H128275   3.121   0.480   2.145  0.9496  0.5632 -0.0711
 9451TIP3    H228276   3.069   0.359   2.219  2.0280 -0.1175 -0.4114
 9452TIP3   OH228277   6.785   7.867   2.997  0.2423 -0.2712  0.2987
 9452TIP3    H128278   6.849   7.925   3.039  0.8776 -0.7634  0.0368
 9452TIP3    H228279   6.833   7.829   2.923 -0.6777  0.1324 -0.5118
 9453TIP3   OH228280   5.191   6.455   2.404 -0.5402  0.0948  0.2464
 9453TIP3    H128281   5.280   6.435   2.432 -0.5074 -1.6232 -1.0053
 9453TIP3    H228282   5.202   6.511   2.327 -0.5419  0.0451  0.2099
 9454TIP3   OH228283   0.998   0.810   3.756 -0.6648  1.0336  0.2922
 9454TIP3    H128284   0.974   0.857   3.836  0.0256 -0.1298  1.2010
 9454TIP3    H228285   1.066   0.864   3.716 -1.2112  1.7664  0.3339
 9455TIP3   OH228286   8.021   5.916   1.500 -0.3835  0.3791 -0.6742
 9455TIP3    H128287   7.969   5.996   1.502  1.0268  1.2884 -0.5090
 9455TIP3    H228288   8.008   5.877   1.587 -2.9876 -0.8374 -1.5457
 9456TIP3   OH228289   7.962   6.215   3.057 -0.1328  0.1107 -0.0073
 9456TIP3    H128290   8.035   6.245   3.112 -0.5014 -0.1516  0.6183
 9456TIP3    H228291   7.912   6.156   3.113 -0.1149 -0.7081 -0.8447
 9457TIP3   OH228292   1.061   4.888   2.074 -0.4702 -0.2901 -0.1852
 9457TIP3    H128293   1.071   4.983   2.061 -2.6639 -0.1023 -0.5724
 9457TIP3    H228294   1.113   4.870   2.152 -1.1849  1.4901  0.7478
 9458TIP3   OH228295   0.126   6.952   4.659 -0.1134 -0.3435 -0.2626
 9458TIP3    H128296   0.136   6.964   4.565  0.4321  1.4884  0.0241
 9458TIP3    H228297   0.046   6.899   4.668  1.1968 -2.6944 -1.8385
 9459TIP3   OH228298   7.932   6.466   0.681  0.2414 -0.2219 -0.4099
 9459TIP3    H128299   7.963   6.513   0.604  0.5916 -0.9885 -0.7351
 9459TIP3    H228300   7.993   6.492   0.751  0.9302 -0.8265 -0.7789
 9460TIP3   OH228301   0.061   5.404   2.350 -0.3597 -0.4296  0.3599
 9460TIP3    H128302   0.041   5.315   2.322  0.9035 -1.1035  1.4829
 9460TIP3    H228303   0.037   5.406   2.443 -0.5498  0.4567  0.2994
 9461TIP3   OH228304   8.339   6.713   3.676  0.2284  0.1837 -0.1024
 9461TIP3    H128305   8.283   6.759   3.738  0.7351  0.6855 -0.0150
 9461TIP3    H228306   8.319   6.753   3.591  0.7497  0.6406 -0.0096
 9462TIP3   OH228307   1.990   7.757   3.553  0.0789 -0.1573  0.5005
 9462TIP3    H128308   2.034   7.811   3.487 -1.8502  0.7404 -0.0758
 9462TIP3    H228309   1.998   7.807   3.634  0.8450 -0.4043  0.5873
 9463TIP3   OH228310   6.095   6.743   2.545 -0.0353 -0.2892 -0.3728
 9463TIP3    H128311   6.030   6.675   2.528 -0.3477  0.1687 -1.0729
 9463TIP3    H228312   6.067   6.816   2.490  0.6123  0.2040 -0.0536
 9464TIP3   OH228313   8.546   6.326   4.636 -0.1191 -0.3910  0.1607
 9464TIP3    H128314   8.482   6.259   4.611 -1.9946  2.3053 -2.5662
 9464TIP3    H228315   8.495   6.406   4.643  2.7038  1.5271 -0.4905
 9465TIP3   OH228316   6.735   6.201   1.076  0.0744 -0.2649  0.4470
 9465TIP3    H128317   6.756   6.294   1.068 -1.4987  0.0800  0.1614
 9465TIP3    H228318   6.742   6.182   1.169 -0.1788  0.2758  0.5760
 9466TIP3   OH228319   7.750   5.830   3.365 -0.2096  0.0540 -0.4166
 9466TIP3    H128320   7.789   5.754   3.322 -0.0011 -0.2171  0.2355
 9466TIP3    H228321   7.660   5.833   3.332 -0.4696 -0.9696  0.1657
 9467TIP3   OH228322   0.467   4.949   2.952  0.2764 -0.4266  0.2826
 9467TIP3    H128323   0.551   4.923   2.988  1.1039  2.2561  0.3830
 9467TIP3    H228324   0.488   5.017   2.888 -1.8688  1.1493  1.1808
 9468TIP3   OH228325   7.622   4.655   2.355 -0.1134 -0.2736 -0.0094
 9468TIP3    H128326   7.603   4.677   2.446  0.0234  1.1053 -0.3161
 9468TIP3    H228327   7.710   4.616   2.358  0.5196  1.1604  0.2454
 9469TIP3   OH228328   7.745   7.619   2.196  0.0376 -0.1738  0.0630
 9469TIP3    H128329   7.754   7.664   2.111 -1.4299 -0.6057 -0.3405
 9469TIP3    H228330   7.706   7.535   2.174  0.5010 -0.6595  1.0851
 9470TIP3   OH228331   6.085   6.280   2.036 -0.1886  0.0309  0.1623
 9470TIP3    H128332   6.115   6.350   2.093  0.6770 -0.6557  0.5694
 9470TIP3    H228333   6.057   6.324   1.956 -0.0453  0.8730  0.5696
 9471TIP3   OH228334   7.606   6.290   1.857 -0.0460  0.4733 -0.3233
 9471TIP3    H128335   7.587   6.224   1.923 -1.1010  1.6201  0.5521
 9471TIP3    H228336   7.702   6.298   1.858 -0.0804  0.8782  1.4980
 9472TIP3   OH228337   8.417   6.869   4.404 -0.1021 -0.3109  0.8671
 9472TIP3    H128338   8.375   6.882   4.489  1.0597 -0.3549  1.4615
 9472TIP3    H228339   8.464   6.786   4.413 -0.1906 -0.4405  0.0991
 9473TIP3   OH228340   4.965   6.664   3.046 -0.3218  0.4839 -0.1930
 9473TIP3    H128341   5.044   6.653   2.993  0.3772  2.9973  0.2465
 9473TIP3    H228342   4.995   6.710   3.124 -2.1464  1.0486  0.1962
 9474TIP3   OH228343   0.388   8.161   3.544  0.3835  0.6172  0.3082
 9474TIP3    H128344   0.368   8.255   3.544  2.2584  1.0297  1.4675
 9474TIP3    H228345   0.323   8.124   3.604  1.5059  1.6187  2.1970
 9475TIP3   OH228346   2.906   1.787   2.770  0.0183 -0.0248 -0.0152
 9475TIP3    H128347   2.861   1.860   2.727  0.8573 -0.1482 -1.0863
 9475TIP3    H228348   2.997   1.814   2.776  0.4111 -1.1443 -0.7626
 9476TIP3   OH228349   6.752   6.550   4.716 -0.1679 -0.1139 -0.1628
 9476TIP3    H128350   6.740   6.640   4.685 -1.1591  0.1961  1.0757
 9476TIP3    H228351   6.805   6.509   4.648 -3.6223  0.0809 -3.1501
 9477TIP3   OH228352   0.076   0.623   2.893 -0.3850  0.4616 -0.0198
 9477TIP3    H128353   0.123   0.555   2.843  0.0567  2.0038 -1.7815
 9477TIP3    H228354   0.140   0.654   2.957  0.4431  1.3102 -1.2313
 9478TIP3   OH228355   1.551   7.254   2.353  0.1598 -0.0733  0.2040
 9478TIP3    H128356   1.585   7.292   2.434 -2.3934 -0.7651  1.6400
 9478TIP3    H228357   1.604   7.176   2.339  1.5185  0.7872  0.4331
 9479TIP3   OH228358   8.138   4.812   1.156  0.1021  0.1522 -0.0102
 9479TIP3    H128359   8.099   4.871   1.221 -1.5599 -0.9939  0.0532
 9479TIP3    H228360   8.159   4.732   1.205  0.3410 -0.1206 -0.5468
 9480TIP3   OH228361   1.515   1.286   3.695  0.0224  0.1749  0.2408
 9480TIP3    H128362   1.501   1.239   3.777  0.0120 -0.8627 -0.3485
 9480TIP3    H228363   1.543   1.373   3.722 -4.1164  1.2487  1.4202
 9481TIP3   OH228364   1.720   0.433   4.318  0.0839 -0.0257  0.3002
 9481TIP3    H128365   1.641   0.485   4.332 -0.2565 -0.2960 -0.6133
 9481TIP3    H228366   1.779   0.491   4.269  0.0290 -0.2079  0.0182
 9482TIP3   OH228367   5.500   7.107   2.680  0.6602  0.0252  0.5779
 9482TIP3    H128368   5.425   7.080   2.628  0.4124  0.6847  0.5805
 9482TIP3    H228369   5.567   7.130   2.615  0.6509  0.0075  0.5621
 9483TIP3   OH228370   4.692   5.429   1.845 -0.0817  0.3216  0.3030
 9483TIP3    H128371   4.772   5.428   1.896  0.7668  0.3335 -0.9966
 9483TIP3    H228372   4.721   5.412   1.755 -1.3527  1.9128 -0.4230
 9484TIP3   OH228373   7.095   5.072   1.860 -0.2691 -0.2430  0.3442
 9484TIP3    H128374   7.130   5.008   1.799 -1.7705  0.8023 -1.6526
 9484TIP3    H228375   7.169   5.094   1.916  2.0837  1.3142 -3.2299
 9485TIP3   OH228376   8.768   6.052   3.682 -0.8127  0.1552  0.5215
 9485TIP3    H128377   8.703   6.090   3.741  1.5903  1.6667  2.3030
 9485TIP3    H228378   8.778   6.117   3.612 -1.0847  0.0033  0.3404
 9486TIP3   OH228379   7.540   6.321   3.031 -0.4661 -0.1327 -0.3864
 9486TIP3    H128380   7.449   6.343   3.011 -0.7882 -0.3180  0.8477
 9486TIP3    H228381   7.539   6.295   3.123  0.6981 -0.9356 -0.5887
 9487TIP3   OH228382   0.417   5.326   1.871 -0.4090 -0.0161 -0.0091
 9487TIP3    H128383   0.381   5.325   1.959  0.1074  0.3927  0.2080
 9487TIP3    H228384   0.500   5.279   1.878 -0.6825 -0.5641 -0.4142
 9488TIP3   OH228385   5.985   4.002   0.547  0.1808 -0.4960 -0.4312
 9488TIP3    H128386   5.942   3.971   0.627  0.2800 -0.1319 -0.2339
 9488TIP3    H228387   6.078   3.998   0.567  0.3141 -2.4722 -1.2940
 9489TIP3   OH228388   8.438   4.558   1.872 -0.0741 -0.5638 -0.7755
 9489TIP3    H128389   8.381   4.625   1.910  1.0200 -0.0855  0.0622
 9489TIP3    H228390   8.414   4.478   1.919  0.6805 -0.1442  0.3659
 9490TIP3   OH228391   6.769   5.005   1.381  0.1307 -0.3012  0.0221
 9490TIP3    H128392   6.849   5.012   1.329  0.0797  0.2211  0.0178
 9490TIP3    H228393   6.794   5.038   1.468  0.8006 -3.1195  0.9668
 9491TIP3   OH228394   0.212   3.500   1.292 -0.1593 -0.5768 -0.3004
 9491TIP3    H128395   0.255   3.449   1.223  1.5867 -2.7675  2.3176
 9491TIP3    H228396   0.282   3.552   1.331 -0.7706 -0.6961  0.9858
 9492TIP3   OH228397   6.276   5.770   1.121 -0.7554 -0.3174  0.4065
 9492TIP3    H128398   6.372   5.772   1.125 -0.6299 -1.3693 -1.7518
 9492TIP3    H228399   6.252   5.850   1.074 -0.8904 -0.5493  0.0828
 9493TIP3   OH228400   5.396   7.724   1.040 -0.0408  0.1339  0.2805
 9493TIP3    H128401   5.361   7.644   1.002  1.4188 -0.2263 -0.3507
 9493TIP3    H228402   5.345   7.795   1.001 -1.5807 -0.4849  1.1133
 9494TIP3   OH228403   7.768   5.666   4.546 -0.0521 -0.3719 -0.4056
 9494TIP3    H128404   7.691   5.718   4.569  2.1246  2.7879 -0.0216
 9494TIP3    H228405   7.763   5.657   4.451  0.2560  1.7842 -0.6551
 9495TIP3   OH228406   8.119   7.664   2.037 -0.0983  0.7115  0.0355
 9495TIP3    H128407   8.214   7.654   2.043 -0.0982  0.8645  0.3015
 9495TIP3    H228408   8.105   7.718   1.959  0.0054  0.2118 -0.3282
 9496TIP3   OH228409   8.718   6.925   2.909 -0.0481  0.3997 -0.3639
 9496TIP3    H128410   8.812   6.942   2.907 -0.4193  2.4274 -1.5646
 9496TIP3    H228411   8.704   6.882   2.993  2.2447 -1.9003 -1.0762
 9497TIP3   OH228412   8.241   5.729   3.144 -0.0635 -0.3909  0.2849
 9497TIP3    H128413   8.166   5.787   3.129 -0.2615 -0.1668  2.1059
 9497TIP3    H228414   8.308   5.785   3.182 -0.2586 -1.3514  2.0771
 9498TIP3   OH228415   8.785   5.305   3.319  0.5577  0.3379 -0.3205
 9498TIP3    H128416   8.815   5.215   3.307 -0.6036 -0.0572 -0.3031
 9498TIP3    H228417   8.740   5.304   3.404  3.1505  1.6360  1.1541
 9499TIP3   OH228418   6.656   6.207   3.914 -0.0557 -0.1383 -0.1115
 9499TIP3    H128419   6.701   6.124   3.926 -3.1256 -1.7299  1.0462
 9499TIP3    H228420   6.670   6.254   3.996  1.3134  0.3428 -0.6020
 9500TIP3   OH228421   7.349   6.389   1.835  0.1422  0.4640  0.1350
 9500TIP3    H128422   7.440   6.358   1.836 -0.0434 -0.0833  1.6130
 9500TIP3    H228423   7.352   6.470   1.886  0.2220  1.7430 -1.8501
 9501TIP3   OH228424   1.381   5.100   2.510  0.8111  0.0615 -0.4050
 9501TIP3    H128425   1.366   5.024   2.454  2.4150  0.0906 -0.8941
 9501TIP3    H228426   1.434   5.066   2.582  0.1542  0.3831  0.2420
 9502TIP3   OH228427   0.401   7.856   2.599  0.6578  0.2404  0.4136
 9502TIP3    H128428   0.348   7.842   2.677  0.2644 -0.0612  0.1000
 9502TIP3    H228429   0.457   7.930   2.621  0.5275  0.1785  0.9684
 9503TIP3   OH228430   0.929   6.780   4.552  0.5106 -0.0684  0.1397
 9503TIP3    H128431   0.885   6.709   4.599 -1.4394  1.0773  0.1268
 9503TIP3    H228432   0.990   6.736   4.493 -1.6985 -1.8069 -0.9115
 9504TIP3   OH228433   0.749   5.769   4.207  0.0208  0.0888 -0.0175
 9504TIP3    H128434   0.806   5.839   4.239 -0.2525  0.1225  0.3971
 9504TIP3    H228435   0.740   5.786   4.114 -0.9397  1.2476  0.2758
 9505TIP3   OH228436   0.782   6.449   2.308  0.0198  0.1090  0.0358
 9505TIP3    H128437   0.776   6.508   2.383 -0.4283 -1.1138  0.9809
 9505TIP3    H228438   0.735   6.494   2.238 -1.1219  0.4548  1.0154
 9506TIP3   OH228439   2.311   6.594   1.318 -0.8495 -1.0640  0.2362
 9506TIP3    H128440   2.280   6.560   1.234 -1.5012 -0.1627  0.1021
 9506TIP3    H228441   2.332   6.686   1.300  0.8823 -1.3644  0.5848
 9507TIP3   OH228442   7.106   7.046   2.880  0.1089 -0.2435 -0.2114
 9507TIP3    H128443   7.036   6.980   2.880  0.9408 -1.1598  1.2981
 9507TIP3    H228444   7.161   7.022   2.955  1.3988  1.1430 -0.6980
 9508TIP3   OH228445   8.864   7.503   2.249  0.2995  0.5056  0.4309
 9508TIP3    H128446   8.955   7.526   2.231  0.4707  0.0164  0.6547
 9508TIP3    H228447   8.814   7.554   2.185  0.6444  1.6877  1.0823
 9509TIP3   OH228448   8.280   7.528   1.761  0.2073  0.1260  0.0648
 9509TIP3    H128449   8.301   7.461   1.696  1.0519  0.6961 -0.2577
 9509TIP3    H228450   8.222   7.484   1.823  1.5560 -1.1997  0.4252
 9510TIP3   OH228451   8.610   7.913   2.840  0.4827 -0.0221 -0.6231
 9510TIP3    H128452   8.569   7.960   2.912 -0.4445  0.0262 -1.1794
 9510TIP3    H228453   8.582   7.822   2.851  1.9487 -0.3813  0.2191
 9511TIP3   OH228454   1.108   5.002   3.401 -0.3324  0.1804  0.4371
 9511TIP3    H128455   1.086   5.091   3.430 -0.5521  0.3895 -0.3442
 9511TIP3    H228456   1.176   5.015   3.335  1.1653 -0.3797  1.8682
 9512TIP3   OH228457   1.738   3.962   2.346  0.8191  0.1647  0.0734
 9512TIP3    H128458   1.816   3.955   2.401 -0.0253 -0.2730  1.2176
 9512TIP3    H228459   1.673   4.006   2.401  0.6614  1.7199 -1.3160
 9513TIP3   OH228460   0.588   5.319   3.254  0.4466 -0.0624  0.9644
 9513TIP3    H128461   0.591   5.341   3.161  0.4021  2.5307  1.5503
 9513TIP3    H228462   0.666   5.266   3.268  0.9785  0.3500 -0.3590
 9514TIP3   OH228463   0.586   5.339   2.639  0.7766 -0.3183  0.7775
 9514TIP3    H128464   0.572   5.354   2.546 -3.9053 -1.4669  1.1696
 9514TIP3    H228465   0.542   5.412   2.682  0.1165 -1.5020  2.1459
 9515TIP3   OH228466   8.098   7.443   4.108  0.4889  0.4803 -0.0163
 9515TIP3    H128467   8.186   7.466   4.138  1.3429  1.3475 -3.0535
 9515TIP3    H228468   8.075   7.511   4.045 -2.9240  1.0013  1.6739
 9516TIP3   OH228469   0.341   5.083   3.794 -0.5185 -0.1607 -0.9600
 9516TIP3    H128470   0.267   5.134   3.759  0.1418  0.2532 -1.7563
 9516TIP3    H228471   0.311   4.992   3.788 -0.3330 -0.1197 -2.8400
 9517TIP3   OH228472   0.410   6.287   4.474  0.7306 -0.0789  0.1084
 9517TIP3    H128473   0.389   6.380   4.479  0.3596 -0.2141  1.3268
 9517TIP3    H228474   0.369   6.256   4.394 -1.6391  0.1903  1.1875
 9518TIP3   OH228475   0.997   4.821   2.593 -0.2661 -0.0851  0.5333
 9518TIP3    H128476   0.941   4.898   2.601 -0.0546  0.2196 -0.7545
 9518TIP3    H228477   1.044   4.815   2.676 -2.6224 -0.6668  1.8590
 9519TIP3   OH228478   8.467   6.049   1.943 -0.0821 -0.5825  0.1455
 9519TIP3    H128479   8.550   6.000   1.942  0.2407 -0.0429 -1.3961
 9519TIP3    H228480   8.493   6.140   1.953 -0.4819 -0.4079 -0.3701
 9520TIP3   OH228481   1.179   6.502   3.214  0.2572  0.1335  0.5631
 9520TIP3    H128482   1.240   6.562   3.171 -0.7368  0.4425 -0.4265
 9520TIP3    H228483   1.105   6.494   3.154 -0.3105 -0.9019  1.3685
 9521TIP3   OH228484   1.671   0.371   3.965  0.3521  0.5699 -0.4281
 9521TIP3    H128485   1.677   0.291   4.017  1.4432  1.5309  0.9745
 9521TIP3    H228486   1.610   0.426   4.013  0.1957  0.8805 -0.9794
 9522TIP3   OH228487   3.956   0.853   3.288 -0.2967 -0.0999  0.2230
 9522TIP3    H128488   4.023   0.812   3.343 -0.3611 -0.9196 -0.3122
 9522TIP3    H228489   3.902   0.903   3.350  0.6667  0.3792  0.6850
 9523TIP3   OH228490   1.136   7.926   4.697 -0.3067 -0.5684 -0.0401
 9523TIP3    H128491   1.068   7.989   4.673  0.3143  0.4097  0.7303
 9523TIP3    H228492   1.088   7.853   4.737 -0.9960 -0.4114 -0.5693
 9524TIP3   OH228493   8.245   6.601   2.565 -0.5864 -0.4811  0.0127
 9524TIP3    H128494   8.285   6.559   2.489 -0.6298  0.1704 -0.3814
 9524TIP3    H228495   8.297   6.681   2.577 -1.0598 -0.1984  0.1972
 9525TIP3   OH228496   0.607   5.426   2.992  0.4165 -0.1321  0.0541
 9525TIP3    H128497   0.642   5.516   2.988  0.9675 -0.4461 -4.0679
 9525TIP3    H228498   0.513   5.436   2.978  0.4777 -0.2008 -0.4033
 9526TIP3   OH228499   6.801   8.087   4.180  0.1236 -0.5414 -0.2221
 9526TIP3    H128500   6.754   8.008   4.152  0.6820 -0.2716 -1.9650
 9526TIP3    H228501   6.892   8.071   4.155 -0.0618  1.3903 -2.2185
 9527TIP3   OH228502   1.566   5.888   4.116 -0.0487 -0.5203  0.5688
 9527TIP3    H128503   1.644   5.841   4.147  0.3604  0.8243  1.6611
 9527TIP3    H228504   1.503   5.819   4.095  0.9948 -1.5885  0.8802
 9528TIP3   OH228505   6.804   4.522   1.480 -0.0132 -0.2724 -0.2041
 9528TIP3    H128506   6.789   4.439   1.434  0.2347 -0.3424 -0.1617
 9528TIP3    H228507   6.832   4.495   1.568  0.5094 -0.1469 -0.3318
 9529TIP3   OH228508   8.235   5.174   2.571  0.6576 -0.3678 -0.3324
 9529TIP3    H128509   8.257   5.178   2.664 -1.6615  1.7049  0.1902
 9529TIP3    H228510   8.286   5.244   2.531  0.4904 -0.2518 -0.3469
 9530TIP3   OH228511   8.865   5.042   3.300 -0.7843 -0.0733  0.4633
 9530TIP3    H128512   8.881   5.010   3.212 -1.2580  2.6414 -0.6423
 9530TIP3    H228513   8.952   5.052   3.339 -0.4951  0.3524 -0.2953
 9531TIP3   OH228514   8.182   5.519   4.687  0.3170  0.1382  0.5452
 9531TIP3    H128515   8.261   5.573   4.694  0.7877 -0.4738 -0.0054
 9531TIP3    H228516   8.160   5.497   4.777  2.5330 -2.2195  0.5608
 9532TIP3   OH228517   2.242   5.802   1.596 -0.2737  0.2993  0.0949
 9532TIP3    H128518   2.167   5.748   1.573  0.6689 -1.2494  0.5906
 9532TIP3    H228519   2.256   5.857   1.519 -1.5851  0.2363 -0.1971
 9533TIP3   OH228520   0.366   5.225   2.409 -0.5351 -0.1428  0.4474
 9533TIP3    H128521   0.322   5.209   2.492  0.8715 -0.2155  1.2030
 9533TIP3    H228522   0.399   5.139   2.381  0.1962  0.1039  0.5280
 9534TIP3   OH228523   7.276   6.570   2.643 -0.8831  0.1442 -0.0065
 9534TIP3    H128524   7.233   6.630   2.582 -0.4689 -0.8008 -1.2328
 9534TIP3    H228525   7.234   6.486   2.628 -0.3401 -0.2325  0.5619
 9535TIP3   OH228526   1.670   8.249   5.753  0.5184  0.2749  0.4687
 9535TIP3    H128527   1.692   8.173   5.699 -1.1131 -0.5282  0.8856
 9535TIP3    H228528   1.614   8.303   5.696 -0.0893  0.0961  0.8937
 9536TIP3   OH228529   5.655   0.297   5.090 -0.6946 -0.1991  0.3766
 9536TIP3    H128530   5.737   0.280   5.136 -0.7081  0.9807  0.8511
 9536TIP3    H228531   5.586   0.275   5.153 -0.7326 -0.0944  0.3713
 9537TIP3   OH228532   2.953   8.148   5.745  0.1994  0.0177 -0.1836
 9537TIP3    H128533   2.953   8.138   5.650 -0.5795 -2.7361  0.0816
 9537TIP3    H228534   3.039   8.119   5.773  0.6382  1.3767 -0.0694
 9538TIP3   OH228535   1.888   7.075   5.166 -0.0606 -0.2527 -0.0042
 9538TIP3    H128536   1.881   7.017   5.090 -0.1291 -0.2456 -0.0031
 9538TIP3    H228537   1.976   7.113   5.159 -0.1497 -0.0840 -0.1987
 9539TIP3   OH228538   4.620   1.224   5.433 -0.4551 -0.3972 -0.3042
 9539TIP3    H128539   4.711   1.247   5.453 -0.0247 -2.0833 -0.1654
 9539TIP3    H228540   4.575   1.307   5.423  1.2475  0.4655 -0.9997
 9540TIP3   OH228541   0.512   7.161   4.794  0.0755  0.4455  0.0550
 9540TIP3    H128542   0.507   7.246   4.839  1.8050  0.5169  0.1768
 9540TIP3    H228543   0.422   7.132   4.787 -0.5557  2.3126  0.0086
 9541TIP3   OH228544   8.351   8.094   2.172  0.1329 -0.2777  0.1118
 9541TIP3    H128545   8.383   8.074   2.261  2.3538  0.6904 -0.4332
 9541TIP3    H228546   8.359   8.011   2.125 -0.3832 -0.6220  0.6226
 9542TIP3   OH228547   3.050   8.212   3.390  0.2426 -0.1429  1.0219
 9542TIP3    H128548   2.987   8.177   3.453  2.2296 -0.6566  2.8245
 9542TIP3    H228549   3.049   8.306   3.404  0.8174 -0.2705  2.0114
 9543TIP3   OH228550   3.000   1.514   5.529  0.2804 -0.1656  0.1640
 9543TIP3    H128551   2.951   1.488   5.606  0.8552 -0.6775  0.3634
 9543TIP3    H228552   2.977   1.449   5.462  0.8609 -0.5530  0.3306
 9544TIP3   OH228553   0.895   6.656   3.735  0.0594  0.5813 -0.3314
 9544TIP3    H128554   0.945   6.692   3.808 -0.1048  0.2457 -0.0508
 9544TIP3    H228555   0.814   6.624   3.775  0.2537 -0.2102 -0.5499
 9545TIP3   OH228556   4.281   0.429   5.235  0.6743  0.1485  1.0111
 9545TIP3    H128557   4.351   0.388   5.285  0.9354  1.3524  1.6398
 9545TIP3    H228558   4.202   0.382   5.261  1.0723 -0.4586  1.1468
 9546TIP3   OH228559   4.876   0.387   5.148 -1.1116  0.6525  0.4845
 9546TIP3    H128560   4.792   0.348   5.126 -0.4352 -0.9289  0.6149
 9546TIP3    H228561   4.911   0.419   5.065 -0.5939 -1.2259 -0.0449
 9547TIP3   OH228562   1.758   0.849   5.004  0.4919  0.0977  0.0311
 9547TIP3    H128563   1.844   0.808   4.989 -0.4858 -2.0024 -0.0381
 9547TIP3    H228564   1.735   0.888   4.920  1.8621  1.6598  0.3495
 9548TIP3   OH228565   1.466   7.482   5.216 -0.1988 -0.1962  0.2601
 9548TIP3    H128566   1.500   7.515   5.299 -1.1231 -0.6131  0.8140
 9548TIP3    H228567   1.518   7.527   5.149 -0.1258  0.8901  1.0348
 9549TIP3   OH228568   4.768   2.507   6.198  0.9947  0.4434  0.2245
 9549TIP3    H128569   4.718   2.527   6.119 -0.3139  0.0387  0.9342
 9549TIP3    H228570   4.849   2.468   6.166 -0.5277 -1.9565 -0.8538
 9550TIP3   OH228571   3.033   0.927   4.276 -0.4784 -0.2735  0.7614
 9550TIP3    H128572   2.969   0.864   4.243 -1.2076  0.4406  0.7865
 9550TIP3    H228573   3.021   1.004   4.220 -0.1548  0.1253  1.2343
 9551TIP3   OH228574   2.889   0.139   0.153  0.9499 -0.1382  0.2297
 9551TIP3    H128575   2.956   0.135   0.221  1.1607 -2.5689 -0.0553
 9551TIP3    H228576   2.915   0.072   0.090  0.0970  1.2420 -1.6468
 9552TIP3   OH228577   1.200   6.814   4.901 -0.3201 -0.3920  0.1584
 9552TIP3    H128578   1.234   6.744   4.845 -0.2540 -0.3536  0.1510
 9552TIP3    H228579   1.111   6.829   4.870  0.2489  0.7389 -0.9966
 9553TIP3   OH228580   8.498   6.201   3.640  0.0593 -0.3182 -0.7514
 9553TIP3    H128581   8.422   6.257   3.658  2.5837  3.1279 -0.2341
 9553TIP3    H228582   8.500   6.194   3.545 -0.9295 -0.4414 -0.7665
 9554TIP3   OH228583   2.037   6.312   4.517 -0.3558  0.2207 -0.5454
 9554TIP3    H128584   1.988   6.249   4.464 -0.7165  0.0082  0.0499
 9554TIP3    H228585   2.081   6.367   4.452 -1.1161  0.2119 -1.0771
 9555TIP3   OH228586   1.511   8.357   4.169  0.1614  0.4203  0.4965
 9555TIP3    H128587   1.556   8.312   4.241  1.0013  2.0903  1.0451
 9555TIP3    H228588   1.581   8.385   4.111 -0.1993  2.5181  1.0490
 9556TIP3   OH228589   3.337   0.071   3.824  0.0693 -0.7572 -0.0029
 9556TIP3    H128590   3.261   0.037   3.777 -0.0869 -0.7779  0.2629
 9556TIP3    H228591   3.352   0.158   3.787 -1.3076  0.0663  1.3170
 9557TIP3   OH228592   3.616   0.723   5.434  0.7710 -0.5350  0.5994
 9557TIP3    H128593   3.611   0.762   5.346  2.0658 -0.6553  0.4556
 9557TIP3    H228594   3.619   0.629   5.418 -1.8846 -0.6872  0.9236
 9558TIP3   OH228595   8.498   5.859   3.919  0.0136 -0.1885  0.5986
 9558TIP3    H128596   8.420   5.843   3.972 -1.1143  1.2453 -0.5971
 9558TIP3    H228597   8.508   5.780   3.866  0.2403 -0.9782  1.7954
 9559TIP3   OH228598   0.492   7.570   3.913  0.3084 -0.5622  0.3447
 9559TIP3    H128599   0.481   7.523   3.996  0.8871 -0.5339  0.4361
 9559TIP3    H228600   0.519   7.658   3.938 -0.1059 -0.3747  0.1455
 9560TIP3   OH228601   0.185   5.935   2.457  0.3427  0.2613 -0.0972
 9560TIP3    H128602   0.154   6.013   2.502 -1.2129  0.0521 -0.7578
 9560TIP3    H228603   0.267   5.962   2.415 -0.4971  1.7331 -0.8356
 9561TIP3   OH228604   1.591   8.102   4.731 -0.0951  0.3110  0.1362
 9561TIP3    H128605   1.500   8.128   4.722 -0.5145 -0.4243  2.0518
 9561TIP3    H228606   1.591   8.008   4.714  0.4112  0.4032 -0.4203
 9562TIP3   OH228607   0.931   7.676   3.781 -0.2988  0.7909 -0.3771
 9562TIP3    H128608   0.939   7.684   3.877 -0.5613 -2.3195 -0.0248
 9562TIP3    H228609   0.845   7.710   3.761 -0.3524  1.2259  0.5499
 9563TIP3   OH228610   8.827   7.324   4.494 -0.6874  0.1029  0.1279
 9563TIP3    H128611   8.746   7.282   4.523  0.0111 -0.4502  1.3218
 9563TIP3    H228612   8.860   7.370   4.571  0.6505 -0.5177 -0.0446
 9564TIP3   OH228613   2.437   6.936   5.246 -0.0135  0.0308 -0.6676
 9564TIP3    H128614   2.443   6.863   5.185 -0.5441 -1.6929  1.2656
 9564TIP3    H228615   2.528   6.960   5.264  0.2297 -1.4280  0.1326
 9565TIP3   OH228616   1.485   6.988   5.963  0.6649 -0.1260 -0.0967
 9565TIP3    H128617   1.473   7.063   5.905  0.7905 -0.5483 -0.6715
 9565TIP3    H228618   1.398   6.949   5.971  0.3702  0.7235  1.1030
 9566TIP3   OH228619   3.646   0.406   4.842  0.2330 -0.1394 -0.2237
 9566TIP3    H128620   3.663   0.429   4.751  1.5351 -0.6865 -0.1352
 9566TIP3    H228621   3.677   0.482   4.892  1.0164 -0.5100 -0.1460
 9567TIP3   OH228622   7.818   7.703   4.134 -0.1507  0.2464 -0.2772
 9567TIP3    H128623   7.903   7.683   4.174  0.2146 -0.0141 -1.1562
 9567TIP3    H228624   7.763   7.731   4.207  0.5199 -0.1465  0.3903
 9568TIP3   OH228625   2.203   7.781   4.690 -0.2292 -0.2979 -0.2123
 9568TIP3    H128626   2.219   7.865   4.732  0.3769  0.1411 -1.3062
 9568TIP3    H228627   2.117   7.754   4.722 -0.7866  1.1267 -0.4927
 9569TIP3   OH228628   2.876   7.841   3.134  0.7552 -0.0548 -0.0304
 9569TIP3    H128629   2.908   7.931   3.135 -1.3580  0.7273  0.1921
 9569TIP3    H228630   2.799   7.843   3.076 -1.2156 -0.9906  2.4220
 9570TIP3   OH228631   1.478   6.985   3.294  0.2725  0.8536  0.2560
 9570TIP3    H128632   1.460   6.892   3.307  0.6803  0.7078 -0.2122
 9570TIP3    H228633   1.527   6.989   3.212 -1.9279  1.7472 -1.0375
 9571TIP3   OH228634   0.096   8.277   4.003  0.1386  0.5419 -0.1032
 9571TIP3    H128635   0.125   8.362   4.038  0.3230  0.2573  0.4555
 9571TIP3    H228636   0.115   8.282   3.910  0.0148  1.1730 -0.0966
 9572TIP3   OH228637   0.656   6.374   4.693 -0.3465 -0.4406 -0.0276
 9572TIP3    H128638   0.587   6.413   4.747  0.8864  0.6645  0.7785
 9572TIP3    H228639   0.681   6.444   4.632 -1.3056 -1.4764 -1.6726
 9573TIP3   OH228640   1.706   5.779   6.044  0.4671 -0.5137 -0.1916
 9573TIP3    H128641   1.618   5.745   6.061  1.4689 -2.2758  1.5476
 9573TIP3    H228642   1.764   5.705   6.057  2.2730  0.7293 -0.9641
 9574TIP3   OH228643   0.997   5.491   6.458  0.2676  0.0866 -0.2697
 9574TIP3    H128644   0.926   5.552   6.442  0.1190  0.4260  1.6199
 9574TIP3    H228645   1.036   5.477   6.371 -1.2754  0.8744 -1.1169
 9575TIP3   OH228646   1.356   6.360   4.090  0.1813 -0.5366 -0.3502
 9575TIP3    H128647   1.277   6.411   4.074  1.9288  1.9968 -1.0819
 9575TIP3    H228648   1.418   6.422   4.128  2.8393 -1.7200 -2.5485
 9576TIP3   OH228649   1.053   5.780   3.988 -0.2340 -0.1136  0.7471
 9576TIP3    H128650   1.062   5.707   4.049 -0.9080 -0.0067  0.9713
 9576TIP3    H228651   1.084   5.856   4.036  0.4699 -0.2490  0.5132
 9577TIP3   OH228652   1.746   5.150   3.282  0.1239 -0.1766  0.2083
 9577TIP3    H128653   1.810   5.084   3.312  0.5715  0.5899  0.9605
 9577TIP3    H228654   1.800   5.222   3.251 -0.3721 -0.0948 -0.4589
 9578TIP3   OH228655   0.457   6.182   6.421 -0.9207 -0.1894  0.0751
 9578TIP3    H128656   0.486   6.273   6.426  0.2786 -0.5073 -0.7949
 9578TIP3    H228657   0.538   6.131   6.420 -1.5389 -1.1906 -0.8056
 9579TIP3   OH228658   3.110   7.621   5.461  0.7773  0.0817  0.4219
 9579TIP3    H128659   3.092   7.715   5.468 -0.4533 -0.1983  1.1732
 9579TIP3    H228660   3.200   7.616   5.430  1.9398  1.4717  3.4285
 9580TIP3   OH228661   3.827   0.138   6.785  0.1515 -0.1406  0.2307
 9580TIP3    H128662   3.802   0.225   6.755  0.8088 -0.4631 -1.3033
 9580TIP3    H228663   3.910   0.121   6.741  0.4058 -1.2417  1.1116
 9581TIP3   OH228664   3.978   7.430   4.720  0.2220 -0.3844  0.4906
 9581TIP3    H128665   4.059   7.395   4.758  0.4110  1.2607  1.6095
 9581TIP3    H228666   4.007   7.480   4.644  0.3202  0.8410  1.3364
 9582TIP3   OH228667   2.578   6.777   4.788 -0.5140 -0.4661  0.7751
 9582TIP3    H128668   2.555   6.719   4.715 -0.9722 -0.8675  1.2392
 9582TIP3    H228669   2.589   6.863   4.747 -0.6869 -0.7091  0.2160
 9583TIP3   OH228670   2.381   2.279   5.604  0.3682  0.0493 -0.6951
 9583TIP3    H128671   2.391   2.357   5.658  0.5330  0.2724 -1.0434
 9583TIP3    H228672   2.439   2.295   5.529  0.5219 -0.4731 -0.6901
 9584TIP3   OH228673   1.343   6.245   4.654  0.0179  0.0693  0.0385
 9584TIP3    H128674   1.311   6.173   4.708 -0.2791 -0.8861 -1.3711
 9584TIP3    H228675   1.265   6.283   4.614  0.1840  1.1176  0.6893
 9585TIP3   OH228676   2.705   0.833   4.507 -0.0439 -0.1993  0.7928
 9585TIP3    H128677   2.724   0.882   4.587  0.1497 -1.7930  1.7634
 9585TIP3    H228678   2.781   0.776   4.495 -0.6953 -0.9864  0.2803
 9586TIP3   OH228679   0.505   3.017   1.728  0.5139  0.0805 -0.1824
 9586TIP3    H128680   0.492   2.972   1.811 -0.5067  0.8641  0.0939
 9586TIP3    H228681   0.458   3.100   1.739  1.7712  0.9018 -0.9306
 9587TIP3   OH228682   1.792   6.426   3.531 -0.3268  0.3821  0.0979
 9587TIP3    H128683   1.871   6.479   3.533 -0.1926  0.2011 -0.3927
 9587TIP3    H228684   1.741   6.455   3.607  0.6675 -0.2002  1.0051
 9588TIP3   OH228685   2.005   7.938   2.172  0.1840  0.4821  0.3157
 9588TIP3    H128686   2.074   7.928   2.238  1.7084  1.1452 -1.1491
 9588TIP3    H228687   1.928   7.961   2.223  0.8783 -0.8371  2.0435
 9589TIP3   OH228688   1.439   7.630   2.482  0.0536 -0.4549  0.4676
 9589TIP3    H128689   1.395   7.661   2.403  0.9335 -2.0387 -0.6579
 9589TIP3    H228690   1.399   7.545   2.500  1.7670 -1.3524  0.1294
 9590TIP3   OH228691   1.241   7.635   4.871  0.2325  0.5227  0.0108
 9590TIP3    H128692   1.175   7.600   4.812  1.1423 -0.2959 -0.5336
 9590TIP3    H228693   1.225   7.590   4.954  0.2775  0.1282 -0.1923
 9591TIP3   OH228694   7.337   0.220   5.964  0.1100  0.0900  0.5135
 9591TIP3    H128695   7.316   0.312   5.978 -0.7949 -0.3112  1.8328
 9591TIP3    H228696   7.422   0.208   6.006  0.8031  0.5895 -0.7068
 9592TIP3   OH228697   0.256   6.344   5.558  0.1411 -0.5195  1.3353
 9592TIP3    H128698   0.306   6.335   5.477  1.0471 -0.8322  1.9244
 9592TIP3    H228699   0.188   6.409   5.537  0.6332 -0.2813  0.4587
 9593TIP3   OH228700   4.966   0.015   5.763 -0.0278  0.0579  0.7413
 9593TIP3    H128701   4.910   0.013   5.841 -2.4179  2.5073 -0.8118
 9593TIP3    H228702   5.018   0.094   5.774 -1.6747  1.4235 -0.9452
 9594TIP3   OH228703   3.628   5.607   3.316  0.4021 -0.1037 -0.0548
 9594TIP3    H128704   3.566   5.662   3.268 -0.6036 -1.6100 -0.5425
 9594TIP3    H228705   3.629   5.643   3.405  0.9559  1.6368 -0.7534
 9595TIP3   OH228706   2.517   5.513   3.538 -0.3193  0.3579 -0.1097
 9595TIP3    H128707   2.605   5.484   3.562  0.4069  1.2942 -1.5778
 9595TIP3    H228708   2.491   5.572   3.610 -0.8722 -2.0161  1.6952
 9596TIP3   OH228709   3.065   8.123   3.872 -0.2991  0.4063  0.1240
 9596TIP3    H128710   3.082   8.084   3.786 -1.1089 -0.3086  0.2918
 9596TIP3    H228711   3.098   8.060   3.935 -2.4889 -0.4733  0.4219
 9597TIP3   OH228712   3.212   7.697   6.194 -0.2439  0.4292 -0.3428
 9597TIP3    H128713   3.120   7.678   6.174 -0.1701  1.8074 -2.0324
 9597TIP3    H228714   3.261   7.630   6.148 -0.4341 -1.5062  2.1191
 9598TIP3   OH228715   4.878   0.614   2.866 -0.3297  0.9506  0.4115
 9598TIP3    H128716   4.826   0.580   2.939  0.1311 -0.6816  0.0108
 9598TIP3    H228717   4.814   0.633   2.798 -0.6067  0.9359  0.6687
 9599TIP3   OH228718   2.264   5.692   5.602  0.1827 -0.0401 -0.0761
 9599TIP3    H128719   2.221   5.764   5.648 -0.6837 -0.5780 -0.0351
 9599TIP3    H228720   2.344   5.731   5.567 -0.6366  1.1466 -0.6900
 9600TIP3   OH228721   2.825   1.834   4.383 -0.5282  0.2714  0.5817
 9600TIP3    H128722   2.824   1.798   4.294  1.2871  1.4570  0.0506
 9600TIP3    H228723   2.744   1.883   4.390 -0.1448  1.1337 -0.8562
 9601TIP3   OH228724   4.989   0.179   3.032  0.1423 -0.3198 -0.1201
 9601TIP3    H128725   4.961   0.270   3.030 -0.6118 -0.5553 -0.2588
 9601TIP3    H228726   4.995   0.158   3.125  0.8725  0.0358 -0.0793
 9602TIP3   OH228727   2.628   7.894   2.498  0.1222 -0.3962  0.0525
 9602TIP3    H128728   2.687   7.875   2.571 -3.2357  0.8261  3.2369
 9602TIP3    H228729   2.560   7.827   2.505 -0.4918  0.0265 -1.7051
 9603TIP3   OH228730   2.971   7.042   3.754  0.1041  0.1713  0.1882
 9603TIP3    H128731   3.029   7.109   3.790 -0.1401  0.3781  0.1979
 9603TIP3    H228732   3.026   6.964   3.747  0.3717  0.3550  0.2368
 9604TIP3   OH228733   1.993   6.221   4.783 -0.0226 -0.0073  0.0393
 9604TIP3    H128734   1.985   6.132   4.750 -0.1860  0.2539 -0.6318
 9604TIP3    H228735   2.052   6.264   4.721 -1.7670  1.0020 -0.9512
 9605TIP3   OH228736   0.417   8.227   3.215 -0.8848 -0.1517 -0.2993
 9605TIP3    H128737   0.443   8.240   3.306 -1.4093  1.5608 -0.3863
 9605TIP3    H228738   0.392   8.314   3.184 -1.3914 -0.8374 -1.8675
 9606TIP3   OH228739   6.496   1.398   5.642 -0.3138  0.4380  0.3688
 9606TIP3    H128740   6.402   1.416   5.635 -0.4758 -0.9808 -1.5618
 9606TIP3    H228741   6.538   1.475   5.605 -0.7476  0.5449  0.0919
 9607TIP3   OH228742   4.082   1.146   4.349  0.3203 -0.3814  0.8505
 9607TIP3    H128743   4.002   1.170   4.397 -0.0789 -0.0460  0.0339
 9607TIP3    H228744   4.135   1.225   4.351  0.6554 -0.6167  1.4262
 9608TIP3   OH228745   3.587   7.367   4.707  0.5119  0.3305  0.9394
 9608TIP3    H128746   3.499   7.374   4.669 -0.1383  0.0546  2.3593
 9608TIP3    H228747   3.645   7.399   4.638 -0.3276 -3.0695 -1.5290
 9609TIP3   OH228748   2.948   8.086   5.373 -0.2454  0.1448 -0.6359
 9609TIP3    H128749   2.892   8.008   5.371 -0.4101  0.2468  0.0196
 9609TIP3    H228750   2.962   8.107   5.281  1.5194 -1.8967 -0.8857
 9610TIP3   OH228751   0.175   7.931   1.964  0.1085  0.0643  0.1578
 9610TIP3    H128752   0.116   7.881   1.907  0.1711  0.7917 -0.5421
 9610TIP3    H228753   0.249   7.954   1.907  0.5127  0.1641  0.7261
 9611TIP3   OH228754   4.339   0.036   3.395  0.6985  0.0188 -0.2122
 9611TIP3    H128755   4.310  -0.021   3.324  2.7092 -1.7375  0.3077
 9611TIP3    H228756   4.258   0.065   3.437 -0.4176 -1.5347 -1.2296
 9612TIP3   OH228757   2.862   7.397   5.699 -0.3687 -0.0735  0.5946
 9612TIP3    H128758   2.888   7.364   5.613 -1.0982 -1.7676  0.9952
 9612TIP3    H228759   2.787   7.454   5.682 -0.0056  0.2387  0.0287
 9613TIP3   OH228760   2.602   7.792   4.382  0.1144 -0.1243  0.5021
 9613TIP3    H128761   2.688   7.806   4.341  0.3192 -2.4774  0.0241
 9613TIP3    H228762   2.541   7.841   4.327  0.8610 -0.4197 -0.6144
 9614TIP3   OH228763   2.317   7.763   3.423  0.6088  0.1672 -0.1281
 9614TIP3    H128764   2.241   7.797   3.375  0.4968  2.9205  1.8731
 9614TIP3    H228765   2.365   7.841   3.449  2.3001 -1.4169  1.5935
 9615TIP3   OH228766   4.655   0.338   4.333 -0.1079 -0.1065 -0.8284
 9615TIP3    H128767   4.706   0.418   4.341 -0.7360  0.2562 -0.4499
 9615TIP3    H228768   4.721   0.268   4.334  0.3999  0.3691 -0.6105
 9616TIP3   OH228769   3.896   0.369   5.128  0.1871 -0.2068  0.0022
 9616TIP3    H128770   3.903   0.313   5.050  0.4765 -0.8524  0.4804
 9616TIP3    H228771   3.957   0.329   5.191  0.7077  0.8962  0.2075
 9617TIP3   OH228772   3.425   7.585   2.430  0.4114 -0.1820  0.4724
 9617TIP3    H128773   3.419   7.678   2.452  0.2874 -0.0785  0.0195
 9617TIP3    H228774   3.383   7.579   2.344  1.4251 -0.4694 -0.0048
 9618TIP3   OH228775   1.787   5.020   4.473 -0.2444  0.2564 -0.6673
 9618TIP3    H128776   1.693   5.039   4.467 -0.5670 -0.4144  1.6297
 9618TIP3    H228777   1.802   4.948   4.412 -1.9381 -1.9428  1.4057
 9619TIP3   OH228778   4.761   0.035   5.270  0.5144 -0.4401  0.3570
 9619TIP3    H128779   4.733  -0.028   5.336  1.2386  1.3335  2.4016
 9619TIP3    H228780   4.838  -0.004   5.230  0.0883 -1.5085  0.5652
 9620TIP3   OH228781   4.495   1.013   4.595  0.5314  0.1230  0.0092
 9620TIP3    H128782   4.572   0.998   4.649 -0.5792 -0.1427  1.5651
 9620TIP3    H228783   4.485   0.933   4.544  1.6543  0.4172 -0.6786
 9621TIP3   OH228784   5.317   0.403   0.920 -0.2092 -0.3292  0.1977
 9621TIP3    H128785   5.381   0.423   0.989 -0.6229 -0.3158  0.5824
 9621TIP3    H228786   5.260   0.336   0.959 -1.3012  0.6811  0.3895
 9622TIP3   OH228787   1.353   8.117   4.458 -0.1812 -0.5929 -0.8658
 9622TIP3    H128788   1.368   8.028   4.424 -0.4593 -0.5804 -1.0179
 9622TIP3    H228789   1.325   8.167   4.382 -0.3915 -0.4634 -0.7027
 9623TIP3   OH228790   3.170   7.864   2.792  0.4664 -0.0957  0.2585
 9623TIP3    H128791   3.254   7.842   2.833  0.4258 -1.3502 -0.3171
 9623TIP3    H228792   3.145   7.947   2.833  1.4212 -0.2988  1.2869
 9624TIP3   OH228793   3.704   0.446   4.589 -0.2261  0.3791  0.2502
 9624TIP3    H128794   3.763   0.516   4.562  0.6299 -1.0210 -1.6394
 9624TIP3    H228795   3.663   0.416   4.508  2.0397 -3.6221  0.4448
 9625TIP3   OH228796   1.205   6.990   5.734  0.3341  0.4044  0.6884
 9625TIP3    H128797   1.291   7.009   5.771  1.2154 -0.4627 -0.8633
 9625TIP3    H228798   1.148   6.978   5.810  1.7294  0.3612  1.7386
 9626TIP3   OH228799   5.786   1.128   4.241  0.2079 -0.0206 -0.0534
 9626TIP3    H128800   5.806   1.219   4.219 -2.7455  1.5696  3.3015
 9626TIP3    H228801   5.695   1.116   4.215 -0.2104 -1.1908  1.8149
 9627TIP3   OH228802   1.693   5.519   4.380  0.5647  0.4466 -0.2128
 9627TIP3    H128803   1.757   5.567   4.328  0.4007 -1.2381 -2.0201
 9627TIP3    H228804   1.736   5.436   4.401 -1.3839 -1.1914 -2.4384
 9628TIP3   OH228805   3.328   1.155   5.958 -0.0766  0.0783  0.1971
 9628TIP3    H128806   3.327   1.099   6.036  1.4298 -0.3214 -0.0587
 9628TIP3    H228807   3.331   1.244   5.993 -2.9875  0.0728  0.6141
 9629TIP3   OH228808   5.562   0.278   2.514  0.0241  0.1693 -0.6323
 9629TIP3    H128809   5.556   0.225   2.594 -0.7151  1.0163 -0.1150
 9629TIP3    H228810   5.607   0.222   2.452 -1.0498 -1.2037 -0.2093
 9630TIP3   OH228811   3.644   7.780   0.259  0.1069  0.2126 -0.2237
 9630TIP3    H128812   3.721   7.784   0.202 -0.7700 -0.7193 -1.5042
 9630TIP3    H228813   3.677   7.750   0.343  1.1207 -0.3295 -0.8145
 9631TIP3   OH228814   3.411   7.074   5.071  0.5336 -0.4487 -0.7378
 9631TIP3    H128815   3.332   7.062   5.124  0.2340  0.3376 -0.9963
 9631TIP3    H228816   3.392   7.026   4.990  0.0387  0.3204 -1.0786
 9632TIP3   OH228817   0.124   4.936   3.868 -0.0384  0.3275  0.9953
 9632TIP3    H128818   0.041   4.980   3.848 -0.6535 -1.7572 -1.2731
 9632TIP3    H228819   0.099   4.864   3.925  0.5196  0.9567  2.0399
 9633TIP3   OH228820   2.127   7.279   3.310  0.2806  0.3384  0.4080
 9633TIP3    H128821   2.088   7.358   3.349  0.0339 -0.3623  1.6069
 9633TIP3    H228822   2.152   7.306   3.222 -1.0452  1.3782  0.3314
 9634TIP3   OH228823   2.864   6.287   2.496  0.5194  0.3328 -0.1046
 9634TIP3    H128824   2.790   6.347   2.492  0.4129  0.3348  1.5603
 9634TIP3    H228825   2.826   6.204   2.525  0.7819 -0.3388 -1.6548
 9635TIP3   OH228826   5.131   0.279   5.260  0.1870 -0.3136  0.4270
 9635TIP3    H128827   5.186   0.355   5.241  0.3853 -0.8777 -1.3694
 9635TIP3    H228828   5.045   0.302   5.223 -0.2182 -0.2889  1.3682
 9636TIP3   OH228829   3.517   8.195   2.180  0.0266  0.2122 -0.0362
 9636TIP3    H128830   3.584   8.161   2.240  1.1687  2.8279  0.2643
 9636TIP3    H228831   3.447   8.226   2.237 -0.1215  0.1704 -0.1947
 9637TIP3   OH228832   1.246   8.226   4.221  0.1261 -0.1110  1.1549
 9637TIP3    H128833   1.318   8.285   4.198  0.7178 -0.4190  2.2254
 9637TIP3    H228834   1.226   8.180   4.139  0.0884  1.0941  0.4625
 9638TIP3   OH228835   2.842   7.748   5.453  0.2396 -0.4652  0.1916
 9638TIP3    H128836   2.887   7.785   5.529  1.1398  0.3860 -0.7531
 9638TIP3    H228837   2.908   7.691   5.413 -0.4140 -1.3412  0.3578
 9639TIP3   OH228838   2.859   6.438   2.141  0.0247 -0.2392  0.2468
 9639TIP3    H128839   2.806   6.375   2.092 -0.4033 -1.0926  1.7757
 9639TIP3    H228840   2.802   6.515   2.148 -0.6429 -0.7845  0.9915
 9640TIP3   OH228841   1.962   7.647   3.151 -0.4029  0.4671  0.3151
 9640TIP3    H128842   2.048   7.641   3.108  0.4562  0.1199  2.0357
 9640TIP3    H228843   1.969   7.588   3.225 -1.5092  1.8085  1.5013
 9641TIP3   OH228844   3.925   7.694   6.677  0.1516  0.4574  0.4795
 9641TIP3    H128845   3.973   7.754   6.621 -0.5809 -0.5237 -1.2516
 9641TIP3    H228846   3.877   7.638   6.616 -0.6590 -0.6472  2.0967
 9642TIP3   OH228847   3.145   0.509   4.579  0.1305  0.5956 -0.4186
 9642TIP3    H128848   3.211   0.475   4.639 -0.1768  0.4159 -0.1815
 9642TIP3    H228849   3.190   0.517   4.495  0.5192  0.7046 -0.1989
 9643TIP3   OH228850   2.849   5.771   4.066 -0.7416 -0.7708  0.3296
 9643TIP3    H128851   2.765   5.817   4.073 -0.7600 -0.1710 -2.7941
 9643TIP3    H228852   2.851   5.740   3.975  1.9198 -1.7529  0.6931
 9644TIP3   OH228853   0.885   7.679   3.241  0.0187 -0.4034  0.0346
 9644TIP3    H128854   0.899   7.765   3.281 -0.4672 -0.5190  0.4537
 9644TIP3    H228855   0.824   7.635   3.300 -0.7033 -0.5807 -0.8360
 9645TIP3   OH228856   1.070   7.660   5.511  0.0687  0.0514  0.6246
 9645TIP3    H128857   1.087   7.656   5.417  1.3581  0.6856  0.8167
 9645TIP3    H228858   1.071   7.754   5.531 -0.4172 -0.0701  1.2385
 9646TIP3   OH228859   0.382   7.468   4.154  0.3460  0.1998 -0.0632
 9646TIP3    H128860   0.369   7.535   4.220  0.2896 -0.1527  0.2882
 9646TIP3    H228861   0.382   7.386   4.203  0.0118 -0.0870 -0.5349
 9647TIP3   OH228862   4.007   0.202   5.403  0.0764  0.0719  0.1465
 9647TIP3    H128863   4.022   0.287   5.445  1.9099 -0.3437  0.3484
 9647TIP3    H228864   3.921   0.175   5.435  0.1105  1.1768  1.2249
 9648TIP3   OH228865   2.223   6.647   3.820  0.0832 -0.3710 -0.9301
 9648TIP3    H128866   2.235   6.741   3.808  1.4807 -0.3763  0.2575
 9648TIP3    H228867   2.294   6.621   3.878 -1.2086 -1.8995  0.0114
 9649TIP3   OH228868   0.975   6.226   4.725 -0.4740  0.4358  0.2281
 9649TIP3    H128869   0.945   6.141   4.692  0.4124 -0.0799  0.7135
 9649TIP3    H228870   1.019   6.205   4.808  1.6268  1.0766 -0.6685
 9650TIP3   OH228871   3.371   7.371   3.254 -0.7191 -0.2905 -0.1541
 9650TIP3    H128872   3.381   7.452   3.203  3.9823 -0.2836  0.5314
 9650TIP3    H228873   3.345   7.305   3.190  0.4180  0.7155 -1.6771
 9651TIP3   OH228874   3.831   6.627   4.060  0.1995  0.0488  0.2068
 9651TIP3    H128875   3.850   6.542   4.021  1.3966  1.4571 -2.4367
 9651TIP3    H228876   3.913   6.676   4.052 -0.1842  1.1350  2.6042
 9652TIP3   OH228877   3.643   0.119   4.065  0.2288 -0.3385  0.5015
 9652TIP3    H128878   3.715   0.075   4.111 -0.8646 -0.2196  2.3452
 9652TIP3    H228879   3.564   0.077   4.098 -0.6751  0.9901  0.0375
 9653TIP3   OH228880   1.386   5.299   5.478  0.2401 -0.4810 -0.1542
 9653TIP3    H128881   1.397   5.204   5.469 -0.6431 -0.3873 -2.4612
 9653TIP3    H228882   1.471   5.335   5.451 -0.1152 -0.5288 -1.3556
 9654TIP3   OH228883   3.715   7.714   3.307 -0.1807 -0.2137 -0.4056
 9654TIP3    H128884   3.744   7.627   3.334 -0.4852  0.2000  1.3200
 9654TIP3    H228885   3.684   7.756   3.388  1.0660  1.9390 -0.9881
 9655TIP3   OH228886   1.138   7.047   5.465 -0.0252 -0.1196  0.4118
 9655TIP3    H128887   1.220   7.009   5.433 -2.1327 -3.9658 -0.6358
 9655TIP3    H228888   1.143   7.038   5.560  0.7672 -0.2751  0.3624
 9656TIP3   OH228889   2.357   6.209   3.145  0.0984  0.4026 -0.1929
 9656TIP3    H128890   2.393   6.182   3.060 -2.8936 -0.2498 -1.2959
 9656TIP3    H228891   2.399   6.150   3.208  1.6974  0.3293 -1.2977
 9657TIP3   OH228892   6.970   0.018   5.647  0.5253 -0.1214  0.0769
 9657TIP3    H128893   6.911  -0.052   5.619  0.9431 -1.0381  1.4008
 9657TIP3    H228894   6.912   0.084   5.685  0.1163  0.3188 -1.2991
 9658TIP3   OH228895   2.069   7.919   3.338 -0.5451  0.6197 -0.4789
 9658TIP3    H128896   2.060   8.014   3.338  0.6929  0.7794 -2.5358
 9658TIP3    H228897   2.007   7.889   3.271  0.3871  0.1421 -1.1331
 9659TIP3   OH228898   5.199   1.407   6.381 -0.2516  0.3554  0.3427
 9659TIP3    H128899   5.150   1.477   6.425 -0.9099 -0.3934  0.7985
 9659TIP3    H228900   5.245   1.452   6.310 -1.8256  1.0162 -0.2903
 9660TIP3   OH228901   6.002   0.081   4.972 -0.3891  0.5387 -0.1826
 9660TIP3    H128902   5.947   0.003   4.963 -2.3714  1.7607  0.9152
 9660TIP3    H228903   6.074   0.054   5.028 -0.4604 -0.7869 -0.7025
 9661TIP3   OH228904   1.981   7.956   3.751 -0.3979  0.2326  0.2664
 9661TIP3    H128905   2.045   8.014   3.711 -0.6803  1.1919  1.1993
 9661TIP3    H228906   1.949   8.003   3.828 -2.1022 -0.3139 -0.0825
 9662TIP3   OH228907   1.018   7.917   3.653 -0.1932  0.0732 -0.3290
 9662TIP3    H128908   1.047   7.917   3.562 -1.6663  0.8657 -0.8138
 9662TIP3    H228909   0.975   7.832   3.665  0.0877 -0.0717 -0.3322
 9663TIP3   OH228910   1.800   7.627   5.589  0.3947 -0.6804 -0.3477
 9663TIP3    H128911   1.856   7.697   5.624 -1.5050 -0.1411  1.7156
 9663TIP3    H228912   1.826   7.549   5.637  0.1709 -0.6711 -0.2102
 9664TIP3   OH228913   6.437   0.252   5.876 -0.2193 -0.1637 -0.1994
 9664TIP3    H128914   6.370   0.261   5.944 -0.6059  0.5355 -0.6650
 9664TIP3    H228915   6.468   0.161   5.884  1.2240  0.5101  2.2549
 9665TIP3   OH228916   5.025   1.078   3.813 -0.2458 -0.0773 -0.1399
 9665TIP3    H128917   4.953   1.075   3.750 -0.8564  0.5884  0.5089
 9665TIP3    H228918   4.985   1.055   3.896 -0.6810  4.5064  1.0502
 9666TIP3   OH228919   2.533   6.726   2.446 -0.2069  0.1272 -0.0003
 9666TIP3    H128920   2.479   6.767   2.379 -0.0673 -1.1218 -0.9032
 9666TIP3    H228921   2.471   6.698   2.513 -0.4817  0.3707 -0.1508
 9667TIP3   OH228922   5.097   2.161   6.246 -0.0845  0.6399 -0.9321
 9667TIP3    H128923   5.078   2.085   6.192  0.1374  0.0162 -0.1305
 9667TIP3    H228924   5.012   2.191   6.277 -0.1213  0.3842 -0.7907
 9668TIP3   OH228925   5.759   0.194   1.082 -0.0433 -0.7439 -0.0309
 9668TIP3    H128926   5.729   0.143   1.157  0.0779  0.1450  0.6312
 9668TIP3    H228927   5.781   0.280   1.118 -2.0851  0.4062 -1.4334
 9669TIP3   OH228928   2.964   7.116   3.145  0.1318  0.5634  0.2568
 9669TIP3    H128929   2.923   7.093   3.061 -1.4714 -0.0220  1.1771
 9669TIP3    H228930   2.906   7.182   3.182  0.6390  0.5528  1.0772
 9670TIP3   OH228931   4.899   0.366   4.639  0.4177 -0.7909 -0.1225
 9670TIP3    H128932   4.851   0.317   4.706 -0.8069  3.1813  2.0656
 9670TIP3    H228933   4.832   0.388   4.574  0.1256  1.1207  0.7959
 9671TIP3   OH228934   4.315   0.139   4.302 -0.5618  0.1221  0.0952
 9671TIP3    H128935   4.291   0.169   4.214 -0.3078  2.9145  0.9441
 9671TIP3    H228936   4.396   0.089   4.289 -0.3358  0.8130 -1.2133
 9672TIP3   OH228937   2.668   7.315   4.346 -0.0291 -0.4418  0.0859
 9672TIP3    H128938   2.627   7.249   4.290 -1.4500  1.7001 -1.4609
 9672TIP3    H228939   2.752   7.332   4.304 -0.3901 -0.0369 -0.4805
 9673TIP3   OH228940   2.702   1.674   6.062 -0.3192 -0.4513  0.2718
 9673TIP3    H128941   2.715   1.761   6.098  0.2170 -0.4955  0.1811
 9673TIP3    H228942   2.630   1.685   6.000  0.2628  0.0901 -0.3167
 9674TIP3   OH228943   1.647   0.562   4.945  0.3537  0.4953 -0.4958
 9674TIP3    H128944   1.723   0.611   4.975  0.5417 -0.1449  0.0918
 9674TIP3    H228945   1.600   0.538   5.025  0.4210 -0.5209 -0.7478
 9675TIP3   OH228946   2.832   8.251   4.983 -0.5111 -0.2318  0.0885
 9675TIP3    H128947   2.867   8.190   5.047  0.1378 -2.6827 -2.4933
 9675TIP3    H228948   2.867   8.221   4.899 -3.8332  0.9454 -1.8316
 9676TIP3   OH228949   4.385   0.086   1.647  0.5110 -0.1799 -0.8777
 9676TIP3    H128950   4.340   0.014   1.692 -1.0978  0.1036 -1.9523
 9676TIP3    H228951   4.466   0.047   1.614  1.5195 -0.4924  1.8520
 9677TIP3   OH228952   3.544   1.522   5.018 -0.5132 -0.1396 -0.0482
 9677TIP3    H128953   3.550   1.440   4.968 -1.4501 -0.9008  1.0468
 9677TIP3    H228954   3.450   1.537   5.027 -0.3426  0.6189  0.4647
 9678TIP3   OH228955   2.614   4.890   2.908  0.3034  0.2606  0.5344
 9678TIP3    H128956   2.668   4.818   2.940  1.2200  0.7570  0.1240
 9678TIP3    H228957   2.578   4.931   2.987 -0.1973 -0.6218  0.7695
 9679TIP3   OH228958   7.914   3.401   1.782 -0.1447  0.2079 -0.0082
 9679TIP3    H128959   7.869   3.433   1.704  1.1727 -0.7655 -1.1969
 9679TIP3    H228960   7.910   3.474   1.844 -3.9897 -0.0904  0.2570
 9680TIP3   OH228961   1.371   7.412   0.794 -0.2431  0.1176  0.1151
 9680TIP3    H128962   1.427   7.476   0.749  2.0135 -2.2325 -0.5249
 9680TIP3    H228963   1.416   7.395   0.877 -0.4107 -1.2142 -0.0619
 9681TIP3   OH228964   3.387   2.380   4.319  0.0388  0.2217 -0.2538
 9681TIP3    H128965   3.419   2.435   4.390 -2.5252 -1.4699  2.3478
 9681TIP3    H228966   3.292   2.380   4.329 -0.1964 -2.5541 -1.7766
 9682TIP3   OH228967   0.765   7.293   3.033 -0.0622 -0.2135 -0.4993
 9682TIP3    H128968   0.812   7.213   3.056 -0.6182 -0.3297  0.2650
 9682TIP3    H228969   0.829   7.363   3.040  0.6684 -0.7030 -2.0815
 9683TIP3   OH228970   4.292   0.771   5.268  0.2652  0.0507 -0.1700
 9683TIP3    H128971   4.207   0.814   5.275  0.0529 -0.0108 -2.0718
 9683TIP3    H228972   4.355   0.842   5.270  0.1425  0.1475  0.5478
 9684TIP3   OH228973   4.233   0.030   2.316 -0.1827 -0.1581 -0.1374
 9684TIP3    H128974   4.145   0.041   2.351 -0.6070 -1.9524 -0.5858
 9684TIP3    H228975   4.282   0.105   2.351 -1.3374 -0.2733  1.8124
 9685TIP3   OH228976   1.711   8.250   5.474  0.3383  0.2461 -0.7011
 9685TIP3    H128977   1.640   8.308   5.502  0.0820  0.3930 -1.6269
 9685TIP3    H228978   1.666   8.170   5.444  0.7891 -1.3411  2.5947
 9686TIP3   OH228979   4.096   6.973   2.761 -0.0897 -0.0852  0.9692
 9686TIP3    H128980   4.025   6.910   2.772  0.2855 -0.1856  3.1464
 9686TIP3    H228981   4.175   6.920   2.762  0.0238 -0.1416 -2.9933
 9687TIP3   OH228982   0.510   5.636   1.885 -0.5151 -0.1180 -0.4974
 9687TIP3    H128983   0.471   5.653   1.800 -1.4496  1.2291  0.1792
 9687TIP3    H228984   0.464   5.559   1.918  0.6657 -1.3606 -1.6914
 9688TIP3   OH228985   3.187   7.615   3.505 -0.8063  0.3021  0.0918
 9688TIP3    H128986   3.141   7.656   3.432 -2.6047 -1.2907  0.2832
 9688TIP3    H228987   3.250   7.681   3.533 -2.3090  2.1953 -0.7996
 9689TIP3   OH228988   1.566   7.100   3.572 -0.3897  0.4160  0.0292
 9689TIP3    H128989   1.553   7.153   3.651  0.2809  0.8706 -0.1565
 9689TIP3    H228990   1.491   7.120   3.516 -0.1362  1.1929 -0.0435
 9690TIP3   OH228991   3.755   6.705   3.767 -0.0846 -0.4279  0.2265
 9690TIP3    H128992   3.836   6.755   3.763  0.9389 -2.0844 -0.4297
 9690TIP3    H228993   3.700   6.740   3.697 -0.2181  1.1647  1.1155
 9691TIP3   OH228994   5.284   0.130   4.482  0.0810 -0.1771 -0.1738
 9691TIP3    H128995   5.259   0.163   4.569  0.9234 -1.7658  0.6940
 9691TIP3    H228996   5.375   0.157   4.472 -0.4240  1.2085 -1.1738
 9692TIP3   OH228997   1.910   6.924   4.834 -0.3286  0.1245  0.0666
 9692TIP3    H128998   1.954   6.893   4.914  1.2425  0.0908 -0.7995
 9692TIP3    H228999   1.826   6.879   4.835 -0.5556  0.5212  1.9849
 9693TIP3   OH229000   1.685   6.224   6.083  0.0853  0.4427  0.9600
 9693TIP3    H129001   1.650   6.313   6.085 -1.2766  0.0421 -1.6951
 9693TIP3    H229002   1.660   6.186   6.167 -2.4265  1.4747  0.7301
 9694TIP3   OH229003   0.830   3.612   0.255 -0.0217 -0.2004  0.2545
 9694TIP3    H129004   0.890   3.603   0.329 -0.2675  0.4007  0.5272
 9694TIP3    H229005   0.745   3.632   0.294  0.1126  1.3779 -0.2469
 9695TIP3   OH229006   2.906   0.782   3.765  0.3671  0.4983  0.7026
 9695TIP3    H129007   2.857   0.851   3.721  0.1171 -0.1736 -0.0768
 9695TIP3    H229008   2.858   0.702   3.746  1.6486 -0.1457  0.0727
 9696TIP3   OH229009   7.402   8.123   4.519  0.0256  0.0705  0.1058
 9696TIP3    H129010   7.491   8.092   4.535  0.3261  1.3589  1.0315
 9696TIP3    H229011   7.376   8.164   4.602 -2.9583 -3.8701  1.2801
 9697TIP3   OH229012   3.001   8.069   5.105  0.0891  0.5434 -0.3202
 9697TIP3    H129013   3.023   7.998   5.044  0.1454  0.8145 -0.6174
 9697TIP3    H229014   3.075   8.129   5.100  0.5846  0.0414  0.8155
 9698TIP3   OH229015   1.831   8.394   2.933 -0.1144  0.8946  0.1262
 9698TIP3    H129016   1.888   8.452   2.984  0.2932  1.0687 -0.5305
 9698TIP3    H229017   1.873   8.308   2.939 -1.0423  0.5243  1.6106
 9699TIP3   OH229018   8.585   7.581   1.805  0.2281  0.2397  0.0264
 9699TIP3    H129019   8.565   7.602   1.713 -1.2748 -0.0657  0.2695
 9699TIP3    H229020   8.499   7.579   1.848  0.7714 -1.4555  1.0615
 9700TIP3   OH229021   4.583   1.817   5.958  0.6960 -0.2226  0.0339
 9700TIP3    H129022   4.528   1.874   6.012  0.2933  0.3374 -0.9529
 9700TIP3    H229023   4.673   1.836   5.987  0.3363 -1.9902  2.4691
 9701TIP3   OH229024   4.558   0.652   6.529  0.6410 -0.4138 -0.0219
 9701TIP3    H129025   4.638   0.632   6.481  1.3288 -1.8926  1.6381
 9701TIP3    H229026   4.559   0.747   6.540  0.8886 -0.1487 -2.1418
 9702TIP3   OH229027   4.037   1.948   3.389 -0.3370 -0.7558  0.4948
 9702TIP3    H129028   4.003   2.024   3.435  0.6373  0.0113 -0.0361
 9702TIP3    H229029   3.961   1.891   3.378 -1.1744  0.3421  0.4704
 9703TIP3   OH229030   2.925   7.861   4.874 -0.3370 -0.2663  0.3239
 9703TIP3    H129031   2.862   7.861   4.946 -1.2361 -1.3200 -0.4471
 9703TIP3    H229032   2.922   7.951   4.840 -0.4903  0.0240  1.0782
 9704TIP3   OH229033   3.164   7.483   3.741  0.1102  0.0145  0.4487
 9704TIP3    H129034   3.252   7.467   3.775  0.3572  0.1980 -0.0995
 9704TIP3    H229035   3.175   7.485   3.646 -0.2959  1.1150  0.4159
 9705TIP3   OH229036   1.222   6.561   4.784  0.0391  0.9286 -0.1999
 9705TIP3    H129037   1.286   6.561   4.713 -0.4082  0.4855 -0.6114
 9705TIP3    H229038   1.137   6.556   4.739 -0.2108 -0.2151  0.3992
 9706TIP3   OH229039   5.598   0.317   4.647 -0.1095  0.2953  0.2948
 9706TIP3    H129040   5.555   0.354   4.569 -0.5929 -1.2058 -0.1510
 9706TIP3    H229041   5.680   0.282   4.614 -0.0802  0.1148  0.5609
 9707TIP3   OH229042   1.407   4.693   4.502  0.5568 -0.0490 -0.0083
 9707TIP3    H129043   1.503   4.695   4.508  0.5465  0.6832 -0.1198
 9707TIP3    H229044   1.384   4.771   4.452 -0.1777  0.4045  1.0115
 9708TIP3   OH229045   2.415   8.206   3.553 -0.1350 -0.0771  0.2934
 9708TIP3    H129046   2.497   8.175   3.515 -1.0549  0.0337 -1.8532
 9708TIP3    H229047   2.429   8.201   3.647  2.8271  1.3217 -0.0397
 9709TIP3   OH229048   3.523   7.694   4.813  0.4437  0.4545 -0.5214
 9709TIP3    H129049   3.603   7.659   4.851 -0.1740 -0.0274  0.3685
 9709TIP3    H229050   3.545   7.711   4.722  1.7544  0.9716 -0.1176
 9710TIP3   OH229051   3.080   7.809   7.252 -0.1786 -0.3727  0.2545
 9710TIP3    H129052   3.141   7.877   7.281 -1.0011  0.8917 -0.9119
 9710TIP3    H229053   3.135   7.733   7.233  0.7624 -0.0243  1.5162
 9711TIP3   OH229054   4.717   7.285   4.009 -0.0101  0.3455  0.4529
 9711TIP3    H129055   4.722   7.204   3.958  2.5508  0.7481 -0.0372
 9711TIP3    H229056   4.805   7.295   4.046 -0.1080  3.1803  0.0344
 9712TIP3   OH229057   3.376   7.735   5.591 -0.2642 -0.7796 -0.0206
 9712TIP3    H129058   3.467   7.765   5.600 -0.5798  0.0592  0.4330
 9712TIP3    H229059   3.383   7.655   5.540  0.7095 -0.5484 -0.2761
 9713TIP3   OH229060   4.576   0.544   5.148 -0.3049  0.0741 -0.8090
 9713TIP3    H129061   4.606   0.454   5.162 -2.3745 -0.5957 -0.5734
 9713TIP3    H229062   4.645   0.583   5.094  0.9732 -1.4251 -0.3170
 9714TIP3   OH229063   1.041   5.830   4.729  0.3974 -0.6873 -0.3248
 9714TIP3    H129064   0.976   5.888   4.691  1.1629  0.3086 -0.1189
 9714TIP3    H229065   1.099   5.806   4.656  1.6646  0.9530  0.1220
 9715TIP3   OH229066   2.500   5.715   2.883 -0.6511 -0.0126 -0.0863
 9715TIP3    H129067   2.551   5.635   2.894 -0.3351 -0.2274 -2.7803
 9715TIP3    H229068   2.556   5.773   2.831 -1.3137  1.5397  0.8826
 9716TIP3   OH229069   2.253   6.511   4.689  0.4197 -0.0495 -0.3664
 9716TIP3    H129070   2.259   6.577   4.619 -2.1219  0.2602 -0.3548
 9716TIP3    H229071   2.253   6.562   4.770  0.9720 -0.2451 -0.2416
 9717TIP3   OH229072   0.438   7.387   4.925 -0.3844 -0.5749 -0.4484
 9717TIP3    H129073   0.463   7.381   5.018  0.4394 -0.5940 -0.6747
 9717TIP3    H229074   0.480   7.467   4.894 -0.8999 -0.4126 -0.7374
 9718TIP3   OH229075   1.300   6.835   4.413  0.1745  0.0998  0.2158
 9718TIP3    H129076   1.348   6.823   4.494 -0.7614 -1.9838  0.4966
 9718TIP3    H229077   1.223   6.778   4.422 -0.4858  0.6538 -1.6745
 9719TIP3   OH229078   2.819   8.141   6.756 -0.2809  0.3812 -0.5021
 9719TIP3    H129079   2.733   8.151   6.716  0.5300 -1.4235 -2.7590
 9719TIP3    H229080   2.815   8.055   6.799  0.1420  0.6246  0.0241
 9720TIP3   OH229081   2.561   8.002   5.139 -0.4649  0.6599  0.1210
 9720TIP3    H129082   2.583   8.095   5.133  1.3821  0.3972  2.1640
 9720TIP3    H229083   2.474   8.000   5.179  0.5710  1.4808  2.5134
 9721TIP3   OH229084   1.931   7.457   4.212  0.3497 -0.4297  0.4521
 9721TIP3    H129085   1.996   7.521   4.242 -0.4048  0.8655 -0.6088
 9721TIP3    H229086   1.851   7.481   4.258  0.0975 -0.6926  0.1489
 9722TIP3   OH229087   1.100   6.819   3.521  0.0999  0.4639 -0.3161
 9722TIP3    H129088   1.177   6.786   3.565  0.1974  0.6279 -0.3614
 9722TIP3    H229089   1.032   6.821   3.589 -0.6065 -2.1968 -0.9131
 9723TIP3   OH229090   7.012   0.386   5.791  0.6143 -0.0601 -0.3820
 9723TIP3    H129091   7.015   0.457   5.855  0.4963  0.0002 -0.4429
 9723TIP3    H229092   7.097   0.342   5.800  0.4625 -0.2665  0.0602
 9724TIP3   OH229093   2.210   6.251   5.233  0.2403 -0.8996 -0.7476
 9724TIP3    H129094   2.155   6.326   5.256  0.2618 -1.0367 -0.2238
 9724TIP3    H229095   2.208   6.247   5.138  0.3584 -0.1430 -0.7825
 9725TIP3   OH229096   7.298   3.034   0.248 -0.9598  0.2362  0.7969
 9725TIP3    H129097   7.271   3.042   0.156  1.4450  0.5017  0.0901
 9725TIP3    H229098   7.274   2.945   0.272 -2.4579  0.4568  0.2188
 9726TIP3   OH229099   2.327   7.638   6.903  0.8288  0.5744  0.4074
 9726TIP3    H129100   2.390   7.698   6.943  1.4672  0.0129  0.2662
 9726TIP3    H229101   2.344   7.646   6.809  2.9791 -2.0098  0.5152
 9727TIP3   OH229102   8.097   7.881   3.400  0.1800  0.0575 -0.5914
 9727TIP3    H129103   8.045   7.877   3.320  0.9240 -0.3622 -1.0526
 9727TIP3    H229104   8.110   7.975   3.415 -1.1965  0.1976 -0.1437
 9728TIP3   OH229105   6.403   7.608   3.787 -0.3288 -0.1070 -0.4620
 9728TIP3    H129106   6.355   7.639   3.864 -0.7026  1.1041 -1.1711
 9728TIP3    H229107   6.350   7.535   3.755 -0.2907 -0.4768  0.3047
 9729TIP3   OH229108   2.294   7.876   3.799 -0.5118  0.2917  0.4367
 9729TIP3    H129109   2.314   7.958   3.755 -1.9022  1.3616  1.7490
 9729TIP3    H229110   2.364   7.865   3.864  0.0121  0.1126 -0.1539
 9730TIP3   OH229111   2.808   7.354   5.255  0.7421  0.2903 -0.5307
 9730TIP3    H129112   2.874   7.298   5.295 -1.1646 -3.4584 -2.3701
 9730TIP3    H229113   2.852   7.438   5.242  3.5021 -0.5267  2.8740
 9731TIP3   OH229114   1.656   8.229   4.364  0.4326 -0.3409 -0.2633
 9731TIP3    H129115   1.681   8.145   4.324  0.2706 -0.7673  0.5178
 9731TIP3    H229116   1.626   8.205   4.452 -0.3559  0.4536 -0.3141
 9732TIP3   OH229117   5.455   7.322   2.849 -0.1351 -0.0438 -0.2851
 9732TIP3    H129118   5.503   7.307   2.930 -0.6885  0.8290  0.2179
 9732TIP3    H229119   5.473   7.245   2.795 -1.1113 -1.4289  1.3295
 9733TIP3   OH229120   1.032   8.266   2.972  0.2621 -0.1535 -0.0994
 9733TIP3    H129121   0.969   8.201   2.942 -0.9607  0.5254  0.9217
 9733TIP3    H229122   1.108   8.255   2.915 -1.5084  0.2939 -2.6098
 9734TIP3   OH229123   3.967   7.992   4.676 -0.4307  0.5571  0.3297
 9734TIP3    H129124   3.886   7.965   4.720 -0.8131  2.6254  0.9604
 9734TIP3    H229125   4.034   7.985   4.743 -0.8300  2.6880  1.0162
 9735TIP3   OH229126   6.273   1.062   4.958  0.0670 -0.0717 -0.2221
 9735TIP3    H129127   6.292   1.004   4.884  0.7242 -0.3899  0.1951
 9735TIP3    H229128   6.348   1.052   5.016  1.4734  3.1317 -1.3341
 9736TIP3   OH229129   7.273   0.245   6.450  0.6875  0.0338  0.4897
 9736TIP3    H129130   7.342   0.179   6.439 -0.0815 -0.7256  0.1177
 9736TIP3    H229131   7.319   0.326   6.471  1.7312 -0.3373 -0.3343
 9737TIP3   OH229132   3.594   0.800   3.744  0.3850 -0.2387  0.0459
 9737TIP3    H129133   3.604   0.822   3.837 -0.2932  0.3007 -0.0081
 9737TIP3    H229134   3.518   0.850   3.716  0.3336 -0.7355 -0.6977
 9738TIP3   OH229135   4.904   0.816   5.389 -0.4607 -0.5891  0.5328
 9738TIP3    H129136   4.941   0.729   5.406  0.2229 -0.6245 -1.0963
 9738TIP3    H229137   4.814   0.798   5.360 -0.0749 -0.8091 -0.5510
 9739TIP3   OH229138   2.946   8.126   4.153  0.0626  0.4109 -0.0691
 9739TIP3    H129139   2.968   8.211   4.190 -1.6752 -0.1910  2.4982
 9739TIP3    H229140   2.954   8.138   4.058  2.8495  2.5285  0.3820
 9740TIP3   OH229141   4.322   0.875   2.858 -0.2513  0.5681  0.5954
 9740TIP3    H129142   4.235   0.890   2.820  0.3132  0.0157 -0.9674
 9740TIP3    H229143   4.374   0.950   2.832 -0.0306  0.4964  0.8223
 9741TIP3   OH229144   4.786   7.161   5.592  0.0502  0.5543 -0.0851
 9741TIP3    H129145   4.739   7.108   5.527  1.1708  0.4264 -0.7996
 9741TIP3    H229146   4.767   7.252   5.566 -0.6224  0.5010  0.2249
 9742TIP3   OH229147   3.011   6.187   3.202 -0.7259  0.3316 -0.1738
 9742TIP3    H129148   3.064   6.133   3.261  1.2166  1.9796 -0.3493
 9742TIP3    H229149   2.984   6.261   3.255 -1.8188  0.1389 -0.4467
 9743TIP3   OH229150   3.743   7.780   3.031 -0.3204  0.7375  0.4120
 9743TIP3    H129151   3.813   7.718   3.008  1.3366  2.6741  0.0522
 9743TIP3    H229152   3.704   7.743   3.110  1.1936 -0.3314  0.7017
 9744TIP3   OH229153   0.136   6.999   4.392  0.0457  0.2709  0.1283
 9744TIP3    H129154   0.063   7.048   4.354  0.2419  1.3041  1.0422
 9744TIP3    H229155   0.212   7.021   4.337 -0.1131  0.0186 -0.1952
 9745TIP3   OH229156   2.784   7.533   3.496  0.4222  0.2853 -0.0068
 9745TIP3    H129157   2.708   7.549   3.553  0.4491  1.1289 -0.2121
 9745TIP3    H229158   2.845   7.484   3.551  0.1206  0.4163  0.4497
 9746TIP3   OH229159   1.011   5.771   7.184  0.2845 -0.0489  0.3446
 9746TIP3    H129160   1.062   5.769   7.103  0.2846 -1.2490  0.3741
 9746TIP3    H229161   0.929   5.728   7.161  0.4975 -0.8835  1.1243
 9747TIP3   OH229162   2.027   5.658   6.593  0.3386  0.0135 -0.1690
 9747TIP3    H129163   2.047   5.752   6.593  0.0795  0.0949  1.8229
 9747TIP3    H229164   1.933   5.653   6.580  0.7940 -0.1388 -3.7669
 9748TIP3   OH229165   1.772   5.919   1.769  0.5622 -0.1478 -0.3719
 9748TIP3    H129166   1.694   5.945   1.719  1.0572  1.2920 -0.4107
 9748TIP3    H229167   1.755   5.951   1.857  1.2776  0.5134 -0.4738
 9749TIP3   OH229168   4.798   0.134   4.770 -0.3022 -0.6563  0.2873
 9749TIP3    H129169   4.704   0.128   4.787 -0.5101 -2.0577 -1.3069
 9749TIP3    H229170   4.817   0.061   4.712  1.6196  0.1193 -0.0960
 9750TIP3   OH229171   3.426   0.718   4.395 -0.6520  0.0582  0.1299
 9750TIP3    H129172   3.407   0.656   4.324  0.8886  0.7200 -0.8763
 9750TIP3    H229173   3.356   0.783   4.390 -0.8058 -0.1569 -0.4783
 9751TIP3   OH229174   3.319   7.491   4.634  0.2160  0.3265  0.2399
 9751TIP3    H129175   3.348   7.469   4.546  1.1180 -0.7336  0.7972
 9751TIP3    H229176   3.250   7.556   4.621  2.0216  2.0377 -1.1632
 9752TIP3   OH229177   3.570   4.919   3.918  0.7159 -0.1729  0.2399
 9752TIP3    H129178   3.627   4.989   3.887  2.0164 -1.3517 -0.0809
 9752TIP3    H229179   3.506   4.907   3.847  0.3834  0.7892  0.3710
 9753TIP3   OH229180   5.257   0.114   2.964  0.2456  0.1830  0.0385
 9753TIP3    H129181   5.319   0.181   2.993  0.6061 -0.7691  1.5432
 9753TIP3    H229182   5.171   0.154   2.977  0.5029  1.1982 -1.2752
 9754TIP3   OH229183   2.563   7.728   2.968  0.0377  0.1303 -0.3011
 9754TIP3    H129184   2.619   7.651   2.978 -0.4932 -0.3820 -1.2052
 9754TIP3    H229185   2.539   7.753   3.057  1.6842  0.3424  0.0986
 9755TIP3   OH229186   1.793   4.342   4.606  0.3170 -0.3539  0.0895
 9755TIP3    H129187   1.784   4.400   4.681  0.1413  2.0277 -1.6845
 9755TIP3    H229188   1.872   4.292   4.623  0.5636  0.5270  1.5969
 9756TIP3   OH229189   4.873   2.560   6.773  0.0479 -0.0145  0.3882
 9756TIP3    H129190   4.853   2.528   6.685 -0.5746  1.5651 -0.0573
 9756TIP3    H229191   4.788   2.572   6.814  0.2737  0.8459  0.6178
 9757TIP3   OH229192   2.276   6.783   3.041 -0.4655  0.2847  0.0592
 9757TIP3    H129193   2.359   6.743   3.014 -0.6590 -0.1017  0.0310
 9757TIP3    H229194   2.284   6.875   3.016 -0.1878  0.1731 -0.2626
 9758TIP3   OH229195   3.100   0.143   4.079  0.2661 -0.2783  0.0933
 9758TIP3    H129196   3.096   0.202   4.004  2.0153  0.4545  0.5390
 9758TIP3    H229197   3.079   0.199   4.154  1.8267 -0.2009  0.5085
 9759TIP3   OH229198   3.432   7.143   5.768 -0.8240  0.7856  0.3562
 9759TIP3    H129199   3.505   7.151   5.706 -1.1306 -2.7081 -0.5778
 9759TIP3    H229200   3.461   7.190   5.846  2.1894  0.0112 -0.2325
 9760TIP3   OH229201   3.908   7.958   5.848 -0.2921 -0.1282  0.1909
 9760TIP3    H129202   3.875   8.025   5.909  0.0496  0.0844  0.1407
 9760TIP3    H229203   3.907   7.877   5.899  0.4909  0.1438  0.6440
 9761TIP3   OH229204   5.574   0.200   5.586  0.0850  0.1706 -0.1061
 9761TIP3    H129205   5.659   0.165   5.613  0.3465  0.0520 -1.0834
 9761TIP3    H229206   5.545   0.252   5.661 -0.1621 -1.8558  1.2631
 9762TIP3   OH229207   8.527   4.099   0.092  0.2936  0.0637 -0.0387
 9762TIP3    H129208   8.562   4.125   0.007  0.0003  0.3907 -0.0591
 9762TIP3    H229209   8.444   4.147   0.100  0.4921  0.3065  0.5857
 9763TIP3   OH229210   3.125   1.071   6.204  0.2278  0.4305 -0.1659
 9763TIP3    H129211   3.082   0.992   6.238  0.8968 -0.2524 -0.8962
 9763TIP3    H229212   3.069   1.143   6.235  0.6439 -0.1721  2.1103
 9764TIP3   OH229213   1.427   5.638   3.982  0.2431 -0.2696  0.4333
 9764TIP3    H129214   1.470   5.560   3.947  0.8020  0.3985 -0.4029
 9764TIP3    H229215   1.397   5.685   3.904  0.7175  0.7972  0.8842
 9765TIP3   OH229216   4.758   0.638   4.958  0.0597  0.1072  0.7681
 9765TIP3    H129217   4.846   0.607   4.936  0.3559  1.4152  0.0309
 9765TIP3    H229218   4.767   0.733   4.962 -1.5618  0.3318 -0.4483
 9766TIP3   OH229219   2.910   7.522   1.289 -0.1953 -0.0965 -0.0722
 9766TIP3    H129220   2.839   7.489   1.233 -1.4171  0.3242  1.1981
 9766TIP3    H229221   2.975   7.555   1.228 -1.3765  0.0697 -1.2583
 9767TIP3   OH229222   2.745   7.741   2.722 -0.0717  0.2437 -0.0336
 9767TIP3    H129223   2.826   7.777   2.756 -0.4616  0.0794  1.0979
 9767TIP3    H229224   2.690   7.728   2.799 -1.1546  0.3085 -0.7759
 9768TIP3   OH229225   8.151   5.042   3.451  0.1383  0.1178  0.0078
 9768TIP3    H129226   8.064   5.068   3.481  0.4338  0.6841  0.4104
 9768TIP3    H229227   8.136   4.975   3.385 -0.5561 -0.6899  0.9843
 9769TIP3   OH229228   2.482   7.080   3.276  0.4110 -0.4555  0.4864
 9769TIP3    H129229   2.445   6.998   3.308 -0.3384 -0.0267  0.7383
 9769TIP3    H229230   2.518   7.122   3.354 -0.1859 -0.0498  0.5540
 9770TIP3   OH229231   1.225   8.315   3.162 -0.2681  0.2360  0.2668
 9770TIP3    H129232   1.278   8.236   3.172 -0.3206 -0.2900 -3.0029
 9770TIP3    H229233   1.159   8.292   3.096  0.0600  3.1266 -1.1741
 9771TIP3   OH229234   0.651   4.837   3.120 -0.2418  0.0255 -0.4581
 9771TIP3    H129235   0.595   4.760   3.130  1.1275 -0.8948  0.2590
 9771TIP3    H229236   0.740   4.802   3.123  0.3797  1.5873 -0.5901
 9772TIP3   OH229237   1.273   8.282   5.286  0.0051  0.2963 -0.2748
 9772TIP3    H129238   1.346   8.340   5.264  1.3441 -1.4089 -0.4046
 9772TIP3    H229239   1.300   8.240   5.368 -1.0027 -0.0655 -0.1211
 9773TIP3   OH229240   1.856   6.924   2.517 -0.7523  0.3979  0.1979
 9773TIP3    H129241   1.838   6.860   2.587 -1.0969 -0.8101 -0.9730
 9773TIP3    H229242   1.775   6.974   2.509 -0.9958 -0.0106  0.0986
 9774TIP3   OH229243   3.870   0.651   3.648 -0.3127  0.7667  0.2788
 9774TIP3    H129244   3.809   0.717   3.682 -1.2913  0.0397 -0.0372
 9774TIP3    H229245   3.869   0.582   3.714 -1.0238  0.0596 -0.4539
 9775TIP3   OH229246   7.996   0.675   2.429  0.2823  0.0544  1.1787
 9775TIP3    H129247   7.950   0.723   2.498 -0.1449  1.3917 -0.0155
 9775TIP3    H229248   7.926   0.639   2.374  0.6522  0.9892  0.0969
 9776TIP3   OH229249   3.095   7.304   3.451  0.2809 -0.7710 -0.0501
 9776TIP3    H129250   3.118   7.396   3.438 -1.6625  0.0273  1.8454
 9776TIP3    H229251   3.171   7.255   3.419  1.1270  1.4590 -1.5708
 9777TIP3   OH229252   1.838   5.109   4.720 -0.1695 -0.1540 -0.1261
 9777TIP3    H129253   1.818   5.077   4.631 -1.0906  1.1099 -0.3867
 9777TIP3    H229254   1.762   5.083   4.772  0.3261 -0.8040  0.2716
 9778TIP3   OH229255   1.588   6.482   5.768  0.3503 -0.1961  0.5111
 9778TIP3    H129256   1.616   6.492   5.677  0.1798 -3.1619  0.0681
 9778TIP3    H229257   1.627   6.556   5.814 -1.5798  2.7343 -2.3888
 9779TIP3   OH229258   2.929   6.640   4.804 -0.4175  0.2999  0.0835
 9779TIP3    H129259   2.863   6.620   4.738  0.1497  0.5466 -0.5637
 9779TIP3    H229260   2.975   6.558   4.817 -1.1754 -0.0044  0.9117
 9780TIP3   OH229261   2.460   6.446   5.006  0.3861  0.4106 -0.6886
 9780TIP3    H129262   2.544   6.440   4.961  1.1157 -0.5957  0.7892
 9780TIP3    H229263   2.402   6.388   4.956  0.1520  2.2129 -2.5697
 9781TIP3   OH229264   4.446   1.990   2.769  0.0919 -0.4799 -0.7225
 9781TIP3    H129265   4.532   1.953   2.792  0.4688 -0.2199 -1.6825
 9781TIP3    H229266   4.404   2.006   2.854  0.1968 -2.4239 -0.2867
 9782TIP3   OH229267   7.955   1.279   1.933 -0.2160 -0.1994 -0.2850
 9782TIP3    H129268   7.873   1.313   1.897 -0.3051 -0.5666 -0.4355
 9782TIP3    H229269   7.935   1.258   2.024 -0.0844  0.4061 -0.1124
 9783TIP3   OH229270   3.141   8.317   4.026  0.2834 -0.5692 -0.7373
 9783TIP3    H129271   3.231   8.329   3.996  0.3760 -2.0839 -1.1387
 9783TIP3    H229272   3.104   8.254   3.964 -0.7764 -0.6278 -0.0504
 9784TIP3   OH229273   5.317   1.166   6.330 -0.1089  0.4186 -0.9909
 9784TIP3    H129274   5.395   1.189   6.380 -1.2112 -1.8225  1.8999
 9784TIP3    H229275   5.262   1.244   6.334  0.2129  0.5822  0.5507
 9785TIP3   OH229276   6.101   0.042   3.632 -0.2656  0.7056  0.2834
 9785TIP3    H129277   6.023   0.016   3.680  0.2364  0.5724  1.0285
 9785TIP3    H229278   6.067   0.082   3.552 -1.0988 -2.7967 -1.2395
 9786TIP3   OH229279   6.167   0.115   4.470 -0.0210 -0.0187 -0.3790
 9786TIP3    H129280   6.141   0.042   4.413  0.7881 -0.1107 -0.6275
 9786TIP3    H229281   6.175   0.190   4.412  0.1762  0.0327 -0.2850
 9787TIP3   OH229282   4.203   7.743   2.938 -0.2048 -0.3216  0.6180
 9787TIP3    H129283   4.214   7.724   3.031  0.3785 -1.7508  0.2525
 9787TIP3    H229284   4.207   7.658   2.895 -2.6318  0.0782 -0.5122
 9788TIP3   OH229285   4.540   7.022   4.879  0.0363  0.1274 -0.2434
 9788TIP3    H129286   4.610   7.083   4.853 -0.6492  0.3845 -1.4941
 9788TIP3    H229287   4.517   7.049   4.968  1.3451  0.2101  0.0874
 9789TIP3   OH229288   3.590   7.638   4.216 -0.1954  0.1624  0.1841
 9789TIP3    H129289   3.586   7.687   4.134  0.0377  0.5191  0.3868
 9789TIP3    H229290   3.662   7.576   4.204  0.3769  0.7773  0.4329
 9790TIP3   OH229291   6.897   0.306   2.875 -0.2530 -0.5511  0.1379
 9790TIP3    H129292   6.859   0.218   2.874 -2.5528  0.3853 -2.1508
 9790TIP3    H229293   6.978   0.298   2.826 -0.1894 -1.5086  0.3855
 9791TIP3   OH229294   3.306   7.005   3.516 -0.1571  0.8748  0.1891
 9791TIP3    H129295   3.216   6.997   3.486  0.3105  1.6477 -1.5546
 9791TIP3    H229296   3.352   6.931   3.476  0.3780  1.6269 -0.6165
 9792TIP3   OH229297   6.853   0.385   3.118 -0.5238 -0.1719  0.4019
 9792TIP3    H129298   6.888   0.340   3.041  2.4241  0.6832  1.1603
 9792TIP3    H229299   6.840   0.475   3.088 -0.5799 -0.1240  0.5721
 9793TIP3   OH229300   4.266   7.329   5.628  1.0012 -0.6696  0.1282
 9793TIP3    H129301   4.281   7.286   5.544  1.0632  0.2208 -0.3254
 9793TIP3    H229302   4.301   7.268   5.693  0.9645 -1.3595 -0.4841
 9794TIP3   OH229303   6.524   0.454   4.234 -0.7199 -0.5175  0.1411
 9794TIP3    H129304   6.579   0.403   4.174  1.2429  0.1531  1.3263
 9794TIP3    H229305   6.586   0.494   4.294 -2.5318  0.3487  1.4547
 9795TIP3   OH229306   5.398   0.838   3.578 -0.2786 -0.0600  0.6647
 9795TIP3    H129307   5.325   0.816   3.521  0.7901 -1.2408 -0.2912
 9795TIP3    H229308   5.360   0.894   3.646 -2.0360 -0.6053  0.1561
 9796TIP3   OH229309   6.654   0.432   2.890  0.0612  0.4709 -0.1886
 9796TIP3    H129310   6.731   0.376   2.900 -0.1441  0.0221 -1.0589
 9796TIP3    H229311   6.654   0.486   2.968  0.2044 -0.8265  0.7330
 9797TIP3   OH229312   5.502   5.036   3.186 -0.5680  0.3477 -0.0156
 9797TIP3    H129313   5.552   5.010   3.109 -1.9260  1.6454 -1.3640
 9797TIP3    H229314   5.530   4.975   3.255  1.2669 -0.2870 -1.2974
 9798TIP3   OH229315   4.268   7.042   4.303 -0.0699  0.0977  0.5411
 9798TIP3    H129316   4.193   7.036   4.243  2.5009 -0.1217 -2.8061
 9798TIP3    H229317   4.278   6.954   4.338  0.4211 -0.6309 -1.3575
 9799TIP3   OH229318   4.944   5.989   4.399 -0.0972 -0.4248 -0.4201
 9799TIP3    H129319   4.925   6.078   4.429  1.6356  0.1238 -0.8654
 9799TIP3    H229320   5.007   5.955   4.463 -0.2188 -1.0735 -0.6398
 9800TIP3   OH229321   1.825   7.135   2.881  0.9918  0.1297  0.5806
 9800TIP3    H129322   1.885   7.187   2.936  0.6238  0.5707  0.5690
 9800TIP3    H229323   1.823   7.183   2.798  0.7233  0.0428  0.5393
 9801TIP3   OH229324   4.467   6.050   3.952 -0.4798  0.4137  0.4918
 9801TIP3    H129325   4.540   6.099   3.914  0.2340  1.9127  3.6681
 9801TIP3    H229326   4.389   6.087   3.910  0.4813 -0.9258 -2.6311
 9802TIP3   OH229327   4.217   8.165   5.854  0.6147  0.6103  0.4415
 9802TIP3    H129328   4.193   8.073   5.841  1.8028  0.2844  0.5023
 9802TIP3    H229329   4.140   8.204   5.895 -0.2810 -0.1184 -0.5157
 9803TIP3   OH229330   3.995   7.930   2.862  0.4299  0.0506 -0.6463
 9803TIP3    H129331   3.935   7.869   2.817 -0.5570  0.5103  0.0159
 9803TIP3    H229332   4.070   7.876   2.886 -1.2386 -1.3643  1.5765
 9804TIP3   OH229333   4.916   8.069   2.058  0.3839 -0.3261 -0.6833
 9804TIP3    H129334   4.898   8.076   2.152  0.6725 -2.5035 -0.4327
 9804TIP3    H229335   4.866   8.140   2.018 -1.3772 -0.6234  0.9353
 9805TIP3   OH229336   5.601   7.318   4.969  0.7686 -0.1430  0.0451
 9805TIP3    H129337   5.550   7.397   4.986  1.7115  0.4382  0.2432
 9805TIP3    H229338   5.689   7.339   5.003  1.2621 -0.9426 -0.7203
 9806TIP3   OH229339   5.173   4.902   3.647 -0.2396  0.0672  0.3175
 9806TIP3    H129340   5.079   4.883   3.638 -0.0056 -0.3776 -1.2004
 9806TIP3    H229341   5.198   4.856   3.728 -0.9094 -1.4562 -0.3187
 9807TIP3   OH229342   3.427   7.079   4.761  1.1683  0.2533 -0.4882
 9807TIP3    H129343   3.477   7.092   4.680  3.2671 -0.2803  0.6863
 9807TIP3    H229344   3.413   6.985   4.765 -0.3947  0.4554 -1.0637
 9808TIP3   OH229345   6.163   1.267   2.916  0.3939 -0.7185 -0.4834
 9808TIP3    H129346   6.206   1.188   2.883 -0.5739 -2.3179  1.9593
 9808TIP3    H229347   6.071   1.242   2.926 -0.1393  1.0615 -0.6799
 9809TIP3   OH229348   2.600   7.350   3.158  0.2715  0.3320  0.3038
 9809TIP3    H129349   2.544   7.274   3.173 -0.1643 -0.1736 -3.4265
 9809TIP3    H229350   2.547   7.425   3.187 -1.0789 -0.4225 -0.1917
 9810TIP3   OH229351   3.450   5.183   4.998  0.1070 -0.1887  0.4334
 9810TIP3    H129352   3.535   5.219   5.025 -0.0641  0.6251 -0.1050
 9810TIP3    H229353   3.472   5.113   4.936  0.3799  0.1696  0.1233
 9811TIP3   OH229354   1.967   8.273   1.820 -0.0534  0.4753 -0.5544
 9811TIP3    H129355   2.003   8.341   1.877 -1.5716  0.8788 -0.0705
 9811TIP3    H229356   2.008   8.192   1.850 -0.5217  0.7447  0.8285
 9812TIP3   OH229357   3.705   6.430   2.385 -0.2713 -0.3486  0.1431
 9812TIP3    H129358   3.632   6.491   2.379 -0.2414 -0.5317 -2.3671
 9812TIP3    H229359   3.781   6.486   2.406 -0.9477 -0.0551  1.8736
 9813TIP3   OH229360   2.791   7.983   2.900 -0.5612 -0.7009 -0.3536
 9813TIP3    H129361   2.815   8.066   2.942  2.4489 -0.5538 -2.2280
 9813TIP3    H229362   2.696   7.990   2.888 -0.5503  1.9393  0.6574
 9814TIP3   OH229363   2.184   7.292   2.055  0.0437 -0.2750 -0.2597
 9814TIP3    H129364   2.110   7.352   2.056  0.0643 -0.2615  1.5092
 9814TIP3    H229365   2.261   7.348   2.063  0.1996 -0.3599 -1.1250
 9815TIP3   OH229366   4.536   7.149   3.177  0.0500  0.1619 -0.1813
 9815TIP3    H129367   4.465   7.107   3.128  1.1047 -1.0564 -0.6868
 9815TIP3    H229368   4.506   7.148   3.268 -1.5024  1.5815 -0.6493
 9816TIP3   OH229369   2.506   4.987   1.560  0.0029 -0.0517 -0.4727
 9816TIP3    H129370   2.490   5.041   1.482  2.0234  1.3941  0.0690
 9816TIP3    H229371   2.567   4.919   1.529  0.1467  0.0258 -0.3618
 9817TIP3   OH229372   1.175   6.973   2.605  0.1230  0.7776 -0.4120
 9817TIP3    H129373   1.127   6.891   2.616  1.4340 -0.2540 -2.0658
 9817TIP3    H229374   1.114   7.041   2.633 -2.0400 -0.5459 -1.7915
 9818TIP3   OH229375   4.053   7.174   3.641 -0.2450 -0.5624  0.0336
 9818TIP3    H129376   4.074   7.147   3.731 -1.4624  1.1925  0.8823
 9818TIP3    H229377   3.972   7.126   3.620 -0.0508 -0.8465 -0.0691
 9819TIP3   OH229378   3.468   6.543   1.883 -0.3659 -0.8689  0.2738
 9819TIP3    H129379   3.482   6.475   1.817  0.3819  0.2151 -0.7094
 9819TIP3    H229380   3.461   6.495   1.966 -2.6212 -2.3511 -0.7225
 9820TIP3   OH229381   5.188   0.288   3.597  0.1680  0.1176 -0.1321
 9820TIP3    H129382   5.259   0.225   3.596 -0.3051 -0.4178 -0.0594
 9820TIP3    H229383   5.231   0.373   3.585  0.8977 -0.1133  0.8722
 9821TIP3   OH229384   8.481   0.431   1.272 -0.3728 -0.1579  0.0732
 9821TIP3    H129385   8.542   0.455   1.341 -0.3861 -0.1067  0.0672
 9821TIP3    H229386   8.524   0.359   1.225  0.6251  1.2844 -1.2684
 9822TIP3   OH229387   7.625   0.345   3.577  0.1602 -0.3243  0.7089
 9822TIP3    H129388   7.595   0.434   3.559  1.5224 -0.0613 -0.3403
 9822TIP3    H229389   7.549   0.289   3.556 -0.3596  0.4975  0.3892
 9823TIP3   OH229390   5.872   0.076   2.990  0.5327  0.0709 -0.0067
 9823TIP3    H129391   5.837   0.150   2.941  0.7407 -1.3063 -2.3370
 9823TIP3    H229392   5.965   0.095   2.999  0.2500  0.9796  1.0919
 9824TIP3   OH229393   7.038   1.079   5.726  0.0292 -1.0091  0.3182
 9824TIP3    H129394   7.089   1.123   5.794  3.1600 -2.3432 -1.0544
 9824TIP3    H229395   7.047   1.135   5.649  0.0631 -1.6594 -0.1538
 9825TIP3   OH229396   4.048   7.459   2.098 -0.2253  0.6007 -0.2842
 9825TIP3    H129397   4.008   7.378   2.067 -1.1346 -0.5374  3.5834
 9825TIP3    H229398   4.142   7.441   2.099 -0.4078 -0.3381  0.3491
 9826TIP3   OH229399   4.392   7.775   3.662  0.7075  0.3576  0.4812
 9826TIP3    H129400   4.433   7.842   3.718 -2.0888  2.1344  0.5056
 9826TIP3    H229401   4.403   7.808   3.573  0.1828  0.3683  0.4179
 9827TIP3   OH229402   4.294   5.842   1.438  0.1683 -0.3763 -0.2132
 9827TIP3    H129403   4.253   5.868   1.356  1.6284 -0.0556 -0.8552
 9827TIP3    H229404   4.374   5.797   1.411  1.2142  0.7112  1.0637
 9828TIP3   OH229405   6.873   1.400   1.848  0.0434 -0.2411 -0.1815
 9828TIP3    H129406   6.850   1.359   1.765 -0.3349 -2.1009  0.8129
 9828TIP3    H229407   6.790   1.438   1.879  0.5215  1.8410 -1.3885
 9829TIP3   OH229408   3.169   8.261   5.474  0.0707 -0.1429  0.5784
 9829TIP3    H129409   3.184   8.171   5.443  1.0857  0.7909 -1.7822
 9829TIP3    H229410   3.077   8.277   5.456 -0.0782 -0.6591  0.8592
 9830TIP3   OH229411   4.749   6.235   3.834  0.0124 -0.1841  0.0867
 9830TIP3    H129412   4.806   6.158   3.834  0.6036  0.2482 -0.4251
 9830TIP3    H229413   4.808   6.308   3.853 -0.2356  0.3697 -1.2474
 9831TIP3   OH229414   4.046   7.238   2.692 -0.0481  0.2926  0.1660
 9831TIP3    H129415   4.064   7.144   2.698 -0.7266  0.1364 -0.0917
 9831TIP3    H229416   3.950   7.243   2.688  0.0101  0.9522 -0.5391
 9832TIP3   OH229417   3.251   7.678   0.886 -0.7050 -0.0755 -0.1531
 9832TIP3    H129418   3.174   7.734   0.898 -1.5827 -0.9839 -1.3353
 9832TIP3    H229419   3.225   7.618   0.815  1.2382 -0.1497 -0.8195
 9833TIP3   OH229420   6.288   0.427   1.870  0.1837  0.1386  0.0519
 9833TIP3    H129421   6.373   0.385   1.858  0.7746  1.1560  0.5894
 9833TIP3    H229422   6.303   0.519   1.849 -0.5296  0.5312  1.1819
 9834TIP3   OH229423   0.612   3.712   6.865 -0.0190 -0.3202 -0.1730
 9834TIP3    H129424   0.537   3.753   6.821 -0.7912  0.1125  1.5397
 9834TIP3    H229425   0.688   3.759   6.829 -0.8109  1.7914  0.8028
 9835TIP3   OH229426   1.791   7.261   6.230 -0.1486  0.4572  0.3426
 9835TIP3    H129427   1.726   7.256   6.161 -0.1815  0.3572  0.3802
 9835TIP3    H229428   1.838   7.343   6.214 -0.3394  0.5715  0.3657
 9836TIP3   OH229429   4.956   0.243   2.711  0.0691 -0.4710 -0.2065
 9836TIP3    H129430   4.880   0.218   2.658  0.8347 -0.7654 -1.1876
 9836TIP3    H229431   4.953   0.184   2.786 -1.9456  1.0231  0.9291
 9837TIP3   OH229432   2.458   5.266   2.546  0.3853  0.4336 -0.0148
 9837TIP3    H129433   2.460   5.238   2.454 -0.4442 -1.0507  0.3904
 9837TIP3    H229434   2.509   5.200   2.592  1.6624  1.7366  0.4757
 9838TIP3   OH229435   3.416   7.875   2.502  0.4683 -0.6691 -0.0821
 9838TIP3    H129436   3.334   7.921   2.518  1.0604 -0.9203  4.3267
 9838TIP3    H229437   3.479   7.944   2.484  0.0894 -0.1686  0.4779
 9839TIP3   OH229438   5.860   0.124   3.907 -0.4314 -0.1205 -0.1814
 9839TIP3    H129439   5.791   0.127   3.973 -0.9514  1.5076 -0.7656
 9839TIP3    H229440   5.941   0.137   3.955 -0.9218  2.5881  0.0034
 9840TIP3   OH229441   5.623   0.462   2.846  0.8742  0.2052 -0.6935
 9840TIP3    H129442   5.645   0.544   2.802 -0.3439 -0.2201 -2.1358
 9840TIP3    H229443   5.532   0.473   2.874  1.2830  0.0375  0.7688
 9841TIP3   OH229444   5.916   0.311   4.164 -0.2141 -0.0521  0.4500
 9841TIP3    H129445   5.997   0.360   4.152 -0.0745 -0.4875 -0.4068
 9841TIP3    H229446   5.847   0.377   4.163  0.0374  0.2060  0.0828
 9842TIP3   OH229447   4.572   7.441   3.188 -0.0280  0.4436 -0.4123
 9842TIP3    H129448   4.595   7.480   3.104  3.8302 -0.9142 -0.0672
 9842TIP3    H229449   4.553   7.349   3.167 -1.4437  0.6497 -0.1050
 9843TIP3   OH229450   7.576   0.910   4.267 -0.1812 -0.8448 -0.3909
 9843TIP3    H129451   7.649   0.943   4.320 -0.4190 -0.9693  0.0183
 9843TIP3    H229452   7.499   0.950   4.305 -0.3062 -0.5205 -0.9803
 9844TIP3   OH229453   2.963   7.586   5.249 -0.1992 -0.1247 -0.1388
 9844TIP3    H129454   3.024   7.605   5.319  0.0182 -0.6640 -0.1763
 9844TIP3    H229455   3.001   7.626   5.171 -1.9147  3.0618  0.5955
 9845TIP3   OH229456   1.066   2.889   0.510 -0.0538 -0.1953 -0.0769
 9845TIP3    H129457   0.989   2.851   0.467 -0.9520  0.1026  1.2491
 9845TIP3    H229458   1.087   2.828   0.581  0.7253 -0.0870 -0.2019
 9846TIP3   OH229459   5.666   7.118   3.777  0.1180 -0.7991 -0.3126
 9846TIP3    H129460   5.590   7.172   3.800 -0.5420 -0.6635 -2.6208
 9846TIP3    H229461   5.727   7.179   3.737  1.0786 -1.0795  0.7044
 9847TIP3   OH229462   6.328   2.466   2.398  0.0556 -0.3747 -0.3687
 9847TIP3    H129463   6.255   2.460   2.461  0.5638 -0.5953  0.2119
 9847TIP3    H229464   6.396   2.513   2.445  0.7200 -1.2028 -0.4801
 9848TIP3   OH229465   2.541   7.055   3.006 -0.2170  0.6844 -0.5725
 9848TIP3    H129466   2.465   7.107   2.978 -1.3229  0.0182  1.1895
 9848TIP3    H229467   2.550   7.073   3.099  0.9223 -0.3738 -0.4651
 9849TIP3   OH229468   2.157   8.222   2.325  0.0723 -0.1867 -0.3130
 9849TIP3    H129469   2.068   8.219   2.289  0.2961 -2.3017 -0.7437
 9849TIP3    H229470   2.214   8.227   2.249  0.3299  1.9163 -0.0183
 9850TIP3   OH229471   0.815   7.024   3.771  0.0176  0.3782  0.2872
 9850TIP3    H129472   0.905   7.027   3.804 -1.3031  0.6544  4.1817
 9850TIP3    H229473   0.800   7.111   3.735  0.4659  1.2677  2.1781
 9851TIP3   OH229474   6.695   1.739   1.733  0.3860  0.1692  0.1803
 9851TIP3    H129475   6.702   1.656   1.781  1.1121 -0.2794 -0.6970
 9851TIP3    H229476   6.730   1.804   1.794  0.2588 -0.2244  0.6877
 9852TIP3   OH229477   4.635   7.219   1.383  0.0536  0.2368 -0.8243
 9852TIP3    H129478   4.687   7.187   1.456  1.9351 -0.0889 -2.2561
 9852TIP3    H229479   4.603   7.140   1.340 -0.5443  0.4157 -0.7147
 9853TIP3   OH229480   2.066   7.138   1.828 -0.5455 -0.2951 -0.2745
 9853TIP3    H129481   1.975   7.131   1.857 -0.2676 -1.3201  0.3823
 9853TIP3    H229482   2.108   7.192   1.895 -0.0403 -2.1667  0.9573
 9854TIP3   OH229483   2.897   6.046   2.982 -0.7562 -0.5534 -0.2338
 9854TIP3    H129484   2.940   6.076   3.063  0.7647  2.0858 -1.9116
 9854TIP3    H229485   2.965   5.997   2.936 -1.1484 -0.7627 -0.5901
 9855TIP3   OH229486   7.320   1.027   3.695 -0.2980 -0.3036  0.4796
 9855TIP3    H129487   7.252   1.066   3.640  0.2747 -0.0942 -0.0895
 9855TIP3    H229488   7.308   1.068   3.781 -1.0460 -0.4540  0.4497
 9856TIP3   OH229489   4.319   6.811   2.798  0.0867 -0.3625 -0.0875
 9856TIP3    H129490   4.315   6.775   2.887  2.0782  1.2144  0.6789
 9856TIP3    H229491   4.310   6.734   2.741 -0.7098 -1.4513  1.4675
 9857TIP3   OH229492   7.413   0.595   4.665 -0.2981  0.3108  0.9411
 9857TIP3    H129493   7.399   0.532   4.594 -0.5908 -1.2172  2.3309
 9857TIP3    H229494   7.393   0.680   4.626  0.5291 -0.4039 -1.0879
 9858TIP3   OH229495   3.796   7.097   3.611  0.1167 -0.5653  0.7863
 9858TIP3    H129496   3.811   7.019   3.557  0.0992  0.8041 -1.2470
 9858TIP3    H229497   3.703   7.116   3.600  0.4835  0.7500 -0.1414
 9859TIP3   OH229498   3.399   1.426   4.157  0.6155 -0.1827  0.4969
 9859TIP3    H129499   3.387   1.430   4.252 -1.5918 -2.1038  0.3405
 9859TIP3    H229500   3.335   1.488   4.122  1.8671  1.0029  0.2618
 9860TIP3   OH229501   7.098   0.475   3.259 -0.4051  1.0720 -0.0456
 9860TIP3    H129502   7.051   0.400   3.220  0.0088  0.2609  0.9849
 9860TIP3    H229503   7.062   0.481   3.347  0.0346  1.6915  0.0849
 9861TIP3   OH229504   2.252   7.702   2.234 -0.4772 -0.3002  0.2355
 9861TIP3    H129505   2.307   7.765   2.187  2.1120 -1.2354  1.8813
 9861TIP3    H229506   2.263   7.620   2.187 -2.0033 -0.0636 -0.5468
 9862TIP3   OH229507   7.131   6.845   3.871  0.1567 -0.2375 -0.3531
 9862TIP3    H129508   7.201   6.908   3.854  2.3154 -2.6048 -0.5219
 9862TIP3    H229509   7.115   6.853   3.965  0.4126  0.5379 -0.3665
 9863TIP3   OH229510   3.025   5.146   1.670 -0.5419  0.0914  0.6024
 9863TIP3    H129511   2.951   5.104   1.713 -1.3890  0.5727 -0.3508
 9863TIP3    H229512   2.991   5.175   1.585  1.1809 -1.1705 -0.5682
 9864TIP3   OH229513   3.489   7.364   3.479  0.2289  0.2988 -0.2487
 9864TIP3    H129514   3.421   7.375   3.412  1.6825  0.7423 -1.6747
 9864TIP3    H229515   3.486   7.446   3.528 -0.4083  0.2264 -0.1513
 9865TIP3   OH229516   5.420   7.522   3.142  0.4186 -0.4003 -0.3527
 9865TIP3    H129517   5.332   7.486   3.147  0.7483 -1.3173 -0.9418
 9865TIP3    H229518   5.474   7.448   3.114  1.4911 -0.0341  0.7017
 9866TIP3   OH229519   2.800   7.852   3.531  0.1320 -0.2057 -0.3475
 9866TIP3    H129520   2.828   7.791   3.599 -0.2819 -1.0421 -0.9232
 9866TIP3    H229521   2.859   7.836   3.458  1.0093  1.1586  0.0302
 9867TIP3   OH229522   3.626   6.819   3.556  0.2418 -0.1066  0.4807
 9867TIP3    H129523   3.696   6.849   3.499  0.1618 -1.7611 -0.5319
 9867TIP3    H229524   3.555   6.794   3.495 -0.7745  0.4414  1.4224
 9868TIP3   OH229525   2.961   8.106   3.163 -0.0181 -0.1113  0.3623
 9868TIP3    H129526   3.031   8.110   3.098  0.5081 -0.6689  0.8776
 9868TIP3    H229527   3.003   8.130   3.245 -0.5459  0.0255  0.5955
 9869TIP3   OH229528   7.073   0.003   4.701  0.4274 -0.8635 -0.7148
 9869TIP3    H129529   7.038   0.091   4.714  0.0075 -1.0353 -0.6635
 9869TIP3    H229530   7.080  -0.034   4.789  2.1395 -0.3037 -0.5998
 9870TIP3   OH229531   3.616   8.003   3.404 -0.2086 -0.1971 -0.5278
 9870TIP3    H129532   3.682   8.045   3.349  1.1920 -1.6135  0.0082
 9870TIP3    H229533   3.576   8.075   3.454  0.7920  0.7036 -1.0132
 9871TIP3   OH229534   6.449   1.435   3.839  0.4153  0.1119 -0.1497
 9871TIP3    H129535   6.405   1.498   3.896  1.5836 -0.2048  1.1115
 9871TIP3    H229536   6.431   1.350   3.878  1.7365 -0.0592  0.1082
 9872TIP3   OH229537   4.019   6.840   3.777  0.3200  0.2596 -0.3912
 9872TIP3    H129538   4.102   6.886   3.787  0.9845 -1.1301  0.7019
 9872TIP3    H229539   4.038   6.751   3.805 -1.4027 -0.2071 -0.6797
 9873TIP3   OH229540   6.821   1.017   2.552  0.6230  0.1726  0.0724
 9873TIP3    H129541   6.861   1.098   2.520  1.1863 -0.0081  0.3248
 9873TIP3    H229542   6.763   0.990   2.480  1.2150  0.2468 -0.4354
 9874TIP3   OH229543   8.048   0.538   3.078  0.1249 -0.4513 -0.1472
 9874TIP3    H129544   7.997   0.533   3.159  0.3451  0.2348  0.0426
 9874TIP3    H229545   8.011   0.614   3.032  2.0887  1.0903  0.7802
 9875TIP3   OH229546   3.151   6.985   4.301 -0.9193 -0.5023 -0.0876
 9875TIP3    H129547   3.205   7.057   4.333  1.1661 -2.3531  0.7716
 9875TIP3    H229548   3.086   6.972   4.370 -1.4737  0.7267 -0.3760
 9876TIP3   OH229549   2.995   6.556   3.637 -0.2276  0.3218  0.0123
 9876TIP3    H129550   2.902   6.567   3.660 -0.6429  1.4083 -2.0865
 9876TIP3    H229551   3.037   6.637   3.667  0.4677 -0.9885  2.7828
 9877TIP3   OH229552   3.019   7.886   2.581  0.6035 -0.0788  0.3692
 9877TIP3    H129553   3.083   7.880   2.652 -1.8244 -0.3487  2.5899
 9877TIP3    H229554   2.992   7.796   2.565  0.1264  0.1148  0.0762
 9878TIP3   OH229555   6.202   0.117   5.181  0.5212  0.1936  0.1258
 9878TIP3    H129556   6.226   0.026   5.197 -1.1161 -0.4191 -0.7717
 9878TIP3    H229557   6.286   0.162   5.169  1.3434 -1.1774  0.6139
 9879TIP3   OH229558   3.096   8.228   1.299  0.0399 -0.2626 -0.1789
 9879TIP3    H129559   3.080   8.320   1.278 -1.7581 -0.2323  1.1549
 9879TIP3    H229560   3.049   8.180   1.231  0.3773 -0.1962 -0.4604
 9880TIP3   OH229561   4.067   5.975   4.327 -0.1585  0.0391 -0.7802
 9880TIP3    H129562   4.011   6.025   4.386  0.5772  1.7592 -1.4953
 9880TIP3    H229563   4.102   5.903   4.381 -0.0124  1.1947  0.6913
 9881TIP3   OH229564   2.934   7.908   1.215 -0.0568  0.2635 -0.5112
 9881TIP3    H129565   2.905   7.993   1.248 -2.5537 -0.7211 -0.1051
 9881TIP3    H229566   3.003   7.882   1.276  0.5055  1.8335 -0.4490
 9882TIP3   OH229567   5.488   7.574   5.029 -0.2425 -0.4683 -0.0391
 9882TIP3    H129568   5.548   7.631   5.077  0.3617 -1.0340 -0.1148
 9882TIP3    H229569   5.486   7.610   4.941  0.6586 -0.9443 -0.2655
 9883TIP3   OH229570   0.526   3.337   7.205  0.0076 -0.7236 -0.5835
 9883TIP3    H129571   0.570   3.296   7.131  0.7390 -0.3994 -0.3286
 9883TIP3    H229572   0.505   3.425   7.174  0.4181 -0.5486 -0.3667
 9884TIP3   OH229573   3.257   7.316   5.281 -0.3530 -0.3372  0.1621
 9884TIP3    H129574   3.258   7.220   5.281  0.6948 -0.3294 -0.5654
 9884TIP3    H229575   3.201   7.339   5.207 -0.1388 -0.3816 -0.0132
 9885TIP3   OH229576   2.915   7.913   1.949 -0.4571  0.2924 -0.4774
 9885TIP3    H129577   2.825   7.888   1.929 -1.1790  1.6848  0.8378
 9885TIP3    H229578   2.960   7.831   1.967 -1.4709 -0.4204 -1.1456
 9886TIP3   OH229579   5.077   0.894   6.391 -0.3781 -0.4369  0.1209
 9886TIP3    H129580   5.018   0.918   6.320 -0.6950 -1.5704 -0.0061
 9886TIP3    H229581   5.135   0.969   6.401 -0.4982 -0.1761 -1.1567
 9887TIP3   OH229582   3.128   6.969   3.325 -0.1343  0.4534 -0.3816
 9887TIP3    H129583   3.061   7.035   3.307  0.6320  1.2527 -0.3152
 9887TIP3    H229584   3.198   6.988   3.263  0.4095  0.1753  0.1445
 9888TIP3   OH229585   5.750   1.014   2.567  0.0737  0.0815  0.0621
 9888TIP3    H129586   5.702   0.983   2.491  0.7892  1.2948 -0.9006
 9888TIP3    H229587   5.823   0.953   2.575 -0.1046 -0.1572 -0.1139
 9889TIP3   OH229588   2.245   5.973   1.346 -0.0018  0.0533 -0.2510
 9889TIP3    H129589   2.222   5.880   1.340 -1.3593  0.3971 -0.5403
 9889TIP3    H229590   2.185   6.017   1.286  2.0576  0.9013 -1.7527
 9890TIP3   OH229591   4.028   7.435   2.368 -0.2292 -0.0331  0.1518
 9890TIP3    H129592   4.014   7.346   2.400  0.7665  0.3955  1.8236
 9890TIP3    H229593   4.019   7.428   2.273  2.4996 -2.4513  0.0047
 9891TIP3   OH229594   2.932   6.524   2.923 -0.3224  0.2787 -0.3715
 9891TIP3    H129595   2.913   6.577   2.846  0.6167  0.4693 -0.4692
 9891TIP3    H229596   2.882   6.443   2.908 -1.2766  0.8744 -0.4982
 9892TIP3   OH229597   4.853   7.107   1.920 -0.3258  0.2028 -0.3569
 9892TIP3    H129598   4.766   7.074   1.939  0.2033 -0.7835  0.4478
 9892TIP3    H229599   4.897   7.109   2.006  0.6549  0.0243 -0.8413
 9893TIP3   OH229600   7.127   1.381   3.656  0.1570 -0.1872  0.0286
 9893TIP3    H129601   7.118   1.461   3.604 -1.2683 -1.2078 -1.3346
 9893TIP3    H229602   7.155   1.314   3.594  0.6632 -0.9180  1.0262
 9894TIP3   OH229603   2.419   7.841   4.189  0.0930 -0.5318 -0.6641
 9894TIP3    H129604   2.429   7.788   4.111  2.4807 -0.2801 -0.5645
 9894TIP3    H229605   2.408   7.931   4.156 -2.3303 -0.8185 -0.7751
 9895TIP3   OH229606   7.236   0.771   3.832 -0.1554 -0.1638  0.9394
 9895TIP3    H129607   7.274   0.815   3.756 -0.7855 -1.2088  0.0163
 9895TIP3    H229608   7.144   0.761   3.811 -0.4234 -0.0431  2.0438
 9896TIP3   OH229609   2.898   8.017   2.195 -0.3398 -0.7446 -0.2402
 9896TIP3    H129610   2.804   8.019   2.214 -0.2620  0.3647  0.0615
 9896TIP3    H229611   2.904   7.991   2.103 -0.9676 -0.0814 -0.4646
 9897TIP3   OH229612   1.261   8.133   2.564 -0.8796  0.2695 -0.4011
 9897TIP3    H129613   1.345   8.086   2.566 -0.4789  0.9226 -1.3855
 9897TIP3    H229614   1.243   8.145   2.471 -2.2941 -0.2480 -0.2021
 9898TIP3   OH229615   3.309   7.773   1.670  0.4508 -0.0002  0.5480
 9898TIP3    H129616   3.400   7.802   1.664  1.2691 -2.1621  2.0073
 9898TIP3    H229617   3.268   7.804   1.588  2.8598 -0.3262 -0.8185
 9899TIP3   OH229618   7.473   0.751   3.134  0.3644 -0.6790  0.1215
 9899TIP3    H129619   7.400   0.813   3.135  1.2723  0.4000  0.4167
 9899TIP3    H229620   7.434   0.668   3.162 -0.6367  0.0144  0.8356
 9900TIP3   OH229621   5.145   0.182   4.755  0.2878 -0.1296  0.2970
 9900TIP3    H129622   5.233   0.189   4.793  1.1431  0.6618 -1.7578
 9900TIP3    H229623   5.103   0.265   4.777  1.6636  1.4118 -2.5237
 9901TIP3   OH229624   1.178   6.971   3.299  0.0904 -0.8684 -0.6940
 9901TIP3    H129625   1.271   6.978   3.317  0.1440  0.3446 -1.3669
 9901TIP3    H229626   1.143   6.918   3.370  0.9025  0.6771  0.8945
 9902TIP3   OH229627   2.321   7.413   2.547  0.1345 -0.3068 -0.0462
 9902TIP3    H129628   2.379   7.337   2.554  0.0095 -0.4476 -0.4853
 9902TIP3    H229629   2.324   7.454   2.633  0.2320 -0.7939  0.1856
 9903TIP3   OH229630   2.513   7.043   4.681 -0.0848  0.4799  0.5978
 9903TIP3    H129631   2.450   7.066   4.613 -1.5083 -0.6666  1.5011
 9903TIP3    H229632   2.495   7.104   4.752 -0.9996 -0.6129  1.3233
 9904TIP3   OH229633   3.872   7.759   2.690  0.5781 -0.0897  0.1090
 9904TIP3    H129634   3.799   7.697   2.688  0.8807 -0.6817  3.7551
 9904TIP3    H229635   3.950   7.704   2.682  0.7258  0.1610 -0.1526
 9905TIP3   OH229636   4.107   7.485   2.804  0.1479  0.0015  0.1665
 9905TIP3    H129637   4.110   7.504   2.710 -1.7911  0.1919  0.1199
 9905TIP3    H229638   4.130   7.392   2.810  0.1523 -0.0436 -0.5117
 9906TIP3   OH229639   4.130   6.652   4.281  0.7854 -0.0641 -0.1026
 9906TIP3    H129640   4.116   6.579   4.342  1.4554 -2.1523 -2.3909
 9906TIP3    H229641   4.209   6.696   4.314 -0.9393  1.1438  2.6551
 9907TIP3   OH229642   2.503   6.085   0.914  0.4474  0.4079 -0.2062
 9907TIP3    H129643   2.531   6.171   0.881  1.1544  0.4936  0.5974
 9907TIP3    H229644   2.479   6.102   1.005 -0.2622 -0.0821 -0.2960
 9908TIP3   OH229645   6.351   0.355   5.603  0.3405  0.4094 -0.9363
 9908TIP3    H129646   6.412   0.327   5.671  1.5831 -0.8889 -2.5248
 9908TIP3    H229647   6.300   0.277   5.583 -1.7080  1.4368  0.2295
 9909TIP3   OH229648   7.432   3.204   6.636 -0.4107 -0.2378  0.2691
 9909TIP3    H129649   7.462   3.196   6.726 -0.8764 -2.2517  0.2660
 9909TIP3    H229650   7.490   3.269   6.597 -1.0714  1.6911  2.3835
 9910TIP3   OH229651   4.260   0.667   6.513  0.0615 -0.0536  0.2900
 9910TIP3    H129652   4.239   0.691   6.422 -1.2136 -0.0920  0.5621
 9910TIP3    H229653   4.346   0.625   6.508  1.2186  2.3376 -0.5382
 9911TIP3   OH229654   4.749   7.857   3.556 -0.6886  0.0142  0.0570
 9911TIP3    H129655   4.833   7.880   3.517  0.9399 -1.7406  2.3721
 9911TIP3    H229656   4.721   7.778   3.510 -0.5252 -0.0142  0.0076
 9912TIP3   OH229657   3.191   7.788   5.263 -0.3552  0.4282 -0.5408
 9912TIP3    H129658   3.280   7.762   5.240  0.4422  1.1858  1.6389
 9912TIP3    H229659   3.199   7.878   5.293 -1.8123  0.3818  0.0295
 9913TIP3   OH229660   8.427   3.397   7.229 -0.3400  0.2534  0.2343
 9913TIP3    H129661   8.360   3.437   7.284 -0.4786  2.0730 -1.1997
 9913TIP3    H229662   8.403   3.423   7.140  1.8127  0.2508 -0.3651
 9914TIP3   OH229663   5.018   6.841   4.801  0.1635  0.1258  0.1048
 9914TIP3    H129664   5.055   6.808   4.719 -0.5650  1.6625 -0.8678
 9914TIP3    H229665   4.924   6.826   4.793 -0.0501  1.3834  0.1224
 9915TIP3   OH229666   8.042   0.070   2.826 -0.0772 -0.1702  0.5579
 9915TIP3    H129667   8.011   0.029   2.745  2.2795 -1.8472  0.4366
 9915TIP3    H229668   7.986   0.034   2.894 -0.7408 -0.3496 -0.0772
 9916TIP3   OH229669   2.725   5.907   4.543 -0.2559 -0.2917 -0.4934
 9916TIP3    H129670   2.707   5.823   4.501  2.0935 -0.6494 -0.8056
 9916TIP3    H229671   2.719   5.972   4.472  1.3779 -0.6185 -0.9405
 9917TIP3   OH229672   3.274   7.120   3.094  0.4283 -0.0670  0.6983
 9917TIP3    H129673   3.181   7.098   3.082  0.3100  0.8063 -0.0608
 9917TIP3    H229674   3.321   7.040   3.071 -0.1067 -0.3237  0.4867
 9918TIP3   OH229675   3.333   5.567   2.269  0.0259  0.2166  0.4518
 9918TIP3    H129676   3.340   5.650   2.222 -1.7700  1.4291  2.2781
 9918TIP3    H229677   3.417   5.558   2.315  0.4535  0.7124 -0.2228
 9919TIP3   OH229678   4.027   7.017   4.159  0.0101 -0.3095  0.2241
 9919TIP3    H129679   4.026   7.106   4.125 -1.9375 -1.2167 -2.2619
 9919TIP3    H229680   3.951   7.013   4.217  0.4228 -0.2208  0.7802
 9920TIP3   OH229681   0.778   2.911   6.382 -0.0138 -0.6877  0.5034
 9920TIP3    H129682   0.724   2.834   6.362  0.8248 -1.3722  0.8240
 9920TIP3    H229683   0.769   2.967   6.305  0.4189 -1.7206 -0.3205
 9921TIP3   OH229684   1.965   7.220   5.537  0.3144  0.7398 -0.0766
 9921TIP3    H129685   1.930   7.156   5.599 -1.2897  2.4486  0.8286
 9921TIP3    H229686   1.899   7.227   5.468  1.5767 -0.3186 -1.4129
 9922TIP3   OH229687   4.152   7.211   2.990 -0.3074 -0.6297  0.4718
 9922TIP3    H129688   4.102   7.213   2.908 -1.0331  0.2256  0.9179
 9922TIP3    H229689   4.231   7.162   2.969  0.2101  0.8277 -1.1641
 9923TIP3   OH229690   3.341   6.912   5.625  0.4556  0.0695  0.5940
 9923TIP3    H129691   3.386   6.970   5.687  0.2737 -1.0466  1.7890
 9923TIP3    H229692   3.252   6.948   5.619  0.4826  0.1999  0.9607
 9924TIP3   OH229693   5.150   7.526   3.567  0.3262 -0.1669  0.4189
 9924TIP3    H129694   5.087   7.524   3.495  1.1029 -0.1921 -0.2684
 9924TIP3    H229695   5.226   7.571   3.531  0.3295  0.7601  1.5492
 9925TIP3   OH229696   7.277   0.566   6.476 -1.0505  1.0900  0.1672
 9925TIP3    H129697   7.366   0.532   6.468 -1.7962 -0.6227 -1.1758
 9925TIP3    H229698   7.278   0.649   6.430  0.2822  1.9312  1.6705
 9926TIP3   OH229699   3.079   5.921   6.086 -0.2409  0.4343 -0.3236
 9926TIP3    H129700   3.173   5.932   6.076 -0.3187  1.2308 -0.2413
 9926TIP3    H229701   3.041   5.977   6.019 -0.6495 -0.6287 -0.9987
 9927TIP3   OH229702   3.216   6.702   4.282  0.1121  0.1555  0.7015
 9927TIP3    H129703   3.200   6.797   4.278  1.4827  0.3604 -0.4359
 9927TIP3    H229704   3.140   6.663   4.239 -0.2010  0.7641  0.6974
 9928TIP3   OH229705   2.985   6.926   5.072  0.1871  0.1997  0.1201
 9928TIP3    H129706   3.055   6.914   5.008  0.0977 -1.3922  0.2893
 9928TIP3    H229707   2.913   6.966   5.023  0.0338 -1.2109 -0.8506
 9929TIP3   OH229708   7.147   0.306   3.669  0.7118 -0.3071 -0.0548
 9929TIP3    H129709   7.092   0.372   3.711  2.7326  0.9699  0.6535
 9929TIP3    H229710   7.212   0.356   3.619  1.0912 -1.7760 -1.0709
 9930TIP3   OH229711   5.170   8.132   2.721  0.0996 -0.4205 -0.5617
 9930TIP3    H129712   5.224   8.190   2.668  0.4530 -1.0961 -0.9435
 9930TIP3    H229713   5.232   8.079   2.771 -0.2273  0.4432  0.8085
 9931TIP3   OH229714   5.025   6.321   6.381 -0.0866  0.1982  0.3432
 9931TIP3    H129715   5.080   6.331   6.459  3.1564  0.5055 -1.8844
 9931TIP3    H229716   4.971   6.244   6.400 -0.4572  1.1333  3.4658
 9932TIP3   OH229717   4.905   4.688   3.374 -0.4862 -0.4352 -0.3589
 9932TIP3    H129718   4.987   4.640   3.386 -0.0856  0.4280  0.4308
 9932TIP3    H229719   4.927   4.756   3.310 -0.3328  0.3840  0.5587
 9933TIP3   OH229720   4.080   6.353   5.873 -0.1882 -0.1932 -0.1736
 9933TIP3    H129721   4.118   6.440   5.887 -2.8710  1.1087 -0.6563
 9933TIP3    H229722   4.078   6.313   5.961  0.6562  0.3931  0.1173
 9934TIP3   OH229723   1.296   7.766   2.669 -0.0894  0.1078  0.3514
 9934TIP3    H129724   1.360   7.745   2.601 -0.7775  1.2509 -0.6723
 9934TIP3    H229725   1.229   7.699   2.660  0.6387 -0.7376  1.0317
 9935TIP3   OH229726   5.538   0.177   4.350 -0.0254 -0.3995  0.5745
 9935TIP3    H129727   5.633   0.175   4.362  0.0843  0.8850  0.0218
 9935TIP3    H229728   5.517   0.089   4.320  1.2198 -0.2596 -0.8001
 9936TIP3   OH229729   3.494   7.579   1.819  0.3441 -0.6329 -0.0465
 9936TIP3    H129730   3.431   7.622   1.762 -1.2729 -1.3504  1.1522
 9936TIP3    H229731   3.519   7.647   1.882  1.2455 -0.1800 -0.8703
 9937TIP3   OH229732   4.304   6.894   3.750 -0.1235 -0.0488 -0.7259
 9937TIP3    H129733   4.347   6.954   3.811 -0.3457  0.4437 -1.0541
 9937TIP3    H229734   4.372   6.874   3.685 -0.2395  0.3479 -0.9722
 9938TIP3   OH229735   5.173   7.937   4.347  0.1135 -0.5259  0.0932
 9938TIP3    H129736   5.099   7.884   4.316 -0.1315  1.8698 -3.7645
 9938TIP3    H229737   5.142   7.975   4.429 -2.9205  0.2172 -1.3217
 9939TIP3   OH229738   4.179   8.075   2.252  0.0142 -0.0289  0.3813
 9939TIP3    H129739   4.157   7.996   2.302  0.8807 -0.7605 -0.3643
 9939TIP3    H229740   4.100   8.094   2.201 -0.1571 -0.4856  0.4749
 9940TIP3   OH229741   4.319   6.519   5.287 -0.4174  0.4286 -0.2018
 9940TIP3    H129742   4.324   6.427   5.313  0.2870 -0.5202 -3.4354
 9940TIP3    H229743   4.232   6.547   5.316 -0.9221 -1.4520  0.1905
 9941TIP3   OH229744   3.467   7.197   1.919  0.1729  0.7134 -0.3468
 9941TIP3    H129745   3.431   7.187   1.831 -1.8112  0.8970  0.4243
 9941TIP3    H229746   3.528   7.271   1.912  2.6860 -1.4883 -2.3412
 9942TIP3   OH229747   4.555   7.065   4.598 -0.3212  0.1078  0.3242
 9942TIP3    H129748   4.474   7.082   4.551 -0.0867  1.7370  0.4821
 9942TIP3    H229749   4.531   7.003   4.666 -1.0416 -0.8592 -0.7880
 9943TIP3   OH229750   5.428   5.892   2.005 -0.0634 -0.3338 -0.1675
 9943TIP3    H129751   5.509   5.847   2.028  0.4039 -0.0777 -1.2841
 9943TIP3    H229752   5.364   5.822   1.992 -0.0539 -0.5323  0.8081
 9944TIP3   OH229753   5.703   0.512   2.500  0.3953 -0.1069 -0.4490
 9944TIP3    H129754   5.650   0.438   2.530 -1.4144  0.6815 -1.6086
 9944TIP3    H229755   5.715   0.567   2.577  1.8046 -1.6105  0.4346
 9945TIP3   OH229756   3.448   7.822   2.928 -0.5480  0.2127 -0.0069
 9945TIP3    H129757   3.454   7.835   3.022 -0.6442 -1.4589  0.2367
 9945TIP3    H229758   3.510   7.885   2.891  0.7560 -0.3103  1.2489
 9946TIP3   OH229759   6.687   0.152   5.279 -0.4560  0.2329  0.1924
 9946TIP3    H129760   6.714   0.240   5.255  1.1464 -0.2847  0.0012
 9946TIP3    H229761   6.658   0.159   5.370  3.2203  0.2946  1.4606
 9947TIP3   OH229762   7.083   0.075   3.503  0.6222 -0.3111  1.0043
 9947TIP3    H129763   7.094   0.163   3.541 -0.2277  0.4650 -0.4696
 9947TIP3    H229764   7.148   0.071   3.433 -0.5877 -0.1137 -0.1595
 9948TIP3   OH229765   5.963   8.207   5.539  0.2476 -0.3854 -0.5750
 9948TIP3    H129766   5.870   8.199   5.556 -0.0732  0.2281 -1.9640
 9948TIP3    H229767   5.976   8.300   5.518  1.3949 -0.1864  0.9201
 9949TIP3   OH229768   3.362   6.116   1.070  0.1613  0.0363  0.6771
 9949TIP3    H129769   3.354   6.186   1.005  0.2092 -0.8420 -0.2894
 9949TIP3    H229770   3.367   6.162   1.154 -0.0376  1.1813  0.0778
 9950TIP3   OH229771   3.880   7.502   3.362  0.1846  0.8998 -0.0631
 9950TIP3    H129772   3.863   7.519   3.269  0.8585 -1.1645 -0.5959
 9950TIP3    H229773   3.968   7.464   3.363 -0.2270 -0.0320  1.3220
 9951TIP3   OH229774   3.134   7.308   2.801  0.2229 -0.2168  0.2096
 9951TIP3    H129775   3.206   7.288   2.861 -0.2918 -0.7898  0.6395
 9951TIP3    H229776   3.086   7.378   2.843 -0.5002 -1.0379  0.7754
 9952TIP3   OH229777   4.674   8.129   2.782  0.2847 -0.1379  0.0390
 9952TIP3    H129778   4.625   8.180   2.718  1.1883 -0.9193 -1.3000
 9952TIP3    H229779   4.631   8.147   2.866 -2.1478 -0.6181 -1.0694
 9953TIP3   OH229780   4.646   0.262   5.098  1.0129  0.0540 -0.6229
 9953TIP3    H129781   4.685   0.185   5.138  0.5422  0.1473  0.0255
 9953TIP3    H229782   4.601   0.229   5.020  1.0995 -0.2751 -0.5332
 9954TIP3   OH229783   4.196   6.767   2.381 -0.1418 -0.2281  0.0401
 9954TIP3    H129784   4.240   6.687   2.350 -0.0585  0.2406 -1.0938
 9954TIP3    H229785   4.143   6.738   2.455 -0.8200 -1.5376 -0.9229
 9955TIP3   OH229786   4.321   5.993   2.792 -0.2329 -0.1522  1.1142
 9955TIP3    H129787   4.286   6.035   2.712  1.1650 -0.8800  0.0957
 9955TIP3    H229788   4.411   6.026   2.798  0.2512 -1.5175  1.3766
 9956TIP3   OH229789   4.182   7.202   2.257  0.0518 -0.1471  0.0569
 9956TIP3    H129790   4.267   7.159   2.267  0.9557  1.9567  1.7195
 9956TIP3    H229791   4.119   7.138   2.291  1.2861 -0.5818  1.5945
 9957TIP3   OH229792   5.515   0.290   3.045 -0.4170  0.2328 -0.1222
 9957TIP3    H129793   5.584   0.353   3.068  0.4072 -0.4031 -0.8072
 9957TIP3    H229794   5.443   0.310   3.104  0.1770  1.2336  0.2738
 9958TIP3   OH229795   6.481   0.465   3.719 -0.3876 -0.4882  0.7052
 9958TIP3    H129796   6.407   0.405   3.709 -0.2845 -0.3523 -0.9326
 9958TIP3    H229797   6.443   0.552   3.709  0.0739 -0.4381 -0.6091
 9959TIP3   OH229798   4.519   6.623   2.994  0.0229 -0.0278 -0.3729
 9959TIP3    H129799   4.594   6.651   2.942  0.2225  1.8037  0.8597
 9959TIP3    H229800   4.464   6.575   2.932  2.0752 -1.2028 -1.3409
 9960TIP3   OH229801   1.605   7.021   2.522  0.4810 -0.1695  0.0992
 9960TIP3    H129802   1.560   7.038   2.604 -0.0440  2.9534 -0.7680
 9960TIP3    H229803   1.537   6.988   2.463  0.7987 -2.1194  0.7741
 9961TIP3   OH229804   7.061   1.053   4.911 -0.4171 -0.0388  0.0521
 9961TIP3    H129805   7.096   1.056   5.000 -0.4234  1.2313  0.0253
 9961TIP3    H229806   7.134   1.078   4.856 -1.0597  1.5935 -0.0901
 9962TIP3   OH229807   7.502  -0.010   5.305 -0.3528  0.1484  0.2660
 9962TIP3    H129808   7.527   0.071   5.350 -0.4581  1.2704 -1.6179
 9962TIP3    H229809   7.573  -0.027   5.244 -1.0161 -0.3666 -0.3766
 9963TIP3   OH229810   5.354   0.524   3.879 -0.0452 -0.1731 -0.1473
 9963TIP3    H129811   5.284   0.547   3.817  1.1977  1.4183 -1.0132
 9963TIP3    H229812   5.314   0.459   3.937 -2.7452  1.8142  0.3476
 9964TIP3   OH229813   4.836   0.472   3.119 -0.1870  0.4265 -0.2404
 9964TIP3    H129814   4.750   0.482   3.078  0.3247 -1.0281 -1.7199
 9964TIP3    H229815   4.826   0.397   3.177  0.0745  0.2764 -0.3899
 9965TIP3   OH229816   4.263   8.148   3.901  0.1062 -0.7653 -0.5283
 9965TIP3    H129817   4.240   8.225   3.953  0.8905 -0.5924 -0.4279
 9965TIP3    H229818   4.307   8.090   3.963 -0.5974 -1.3564 -0.5737
 9966TIP3   OH229819   7.924   1.392   4.690  0.4716  0.1053 -0.5969
 9966TIP3    H129820   7.994   1.387   4.624  1.1485  1.3923  0.0074
 9966TIP3    H229821   7.963   1.356   4.769 -0.1752 -0.9473 -0.7438
 9967TIP3   OH229822   4.842   8.160   3.188 -0.0468 -0.2458 -0.1229
 9967TIP3    H129823   4.918   8.213   3.167  0.5848 -0.3922  1.6864
 9967TIP3    H229824   4.870   8.070   3.172 -0.5396 -0.1600 -1.4936
 9968TIP3   OH229825   4.759   8.315   5.129  0.2038 -0.0433 -0.3646
 9968TIP3    H129826   4.778   8.372   5.054  0.8041 -0.3732 -0.4630
 9968TIP3    H229827   4.789   8.228   5.101  1.3627  0.0189  0.6396
 9969TIP3   OH229828   2.164   8.161   3.656  0.4721 -0.6693  0.3040
 9969TIP3    H129829   2.252   8.171   3.621  0.1126 -0.3410 -0.5024
 9969TIP3    H229830   2.164   8.214   3.736  0.2787  1.3153 -0.9729
 9970TIP3   OH229831   3.516   6.725   4.752 -0.2934  0.6268 -0.2112
 9970TIP3    H129832   3.564   6.744   4.671  0.1773  0.5197  0.0411
 9970TIP3    H229833   3.447   6.665   4.725 -0.4039  0.9332 -0.6135
 9971TIP3   OH229834   4.402   6.336   1.842 -0.0040  0.4291 -0.0891
 9971TIP3    H129835   4.353   6.256   1.862 -0.1894  0.2625 -1.2278
 9971TIP3    H229836   4.380   6.356   1.752  1.5326  0.7008 -0.4161
 9972TIP3   OH229837   3.726   3.301   2.176 -0.3993 -0.0313  0.7747
 9972TIP3    H129838   3.663   3.294   2.104 -0.4347  0.3649  0.7621
 9972TIP3    H229839   3.751   3.394   2.176 -0.1965 -0.0867  1.1012
 9973TIP3   OH229840   3.920   6.291   2.672 -0.5172 -0.5961  0.0564
 9973TIP3    H129841   3.910   6.196   2.682 -0.4802 -0.7188 -1.0165
 9973TIP3    H229842   3.959   6.302   2.586 -0.1112  0.3785  0.3636
 9974TIP3   OH229843   3.741   0.498   2.157  0.1458 -0.5655  0.4406
 9974TIP3    H129844   3.788   0.446   2.223  1.7513  1.2482  0.7637
 9974TIP3    H229845   3.731   0.584   2.196 -1.7584 -0.3618 -0.4313
 9975TIP3   OH229846   3.404   5.956   3.565  0.6672  0.4316  0.8570
 9975TIP3    H129847   3.475   6.016   3.543  0.3955 -0.4086 -2.7779
 9975TIP3    H229848   3.332   5.981   3.506  0.0450 -2.4158  0.3089
 9976TIP3   OH229849   3.672   7.945   2.826  0.2248 -0.2310  0.2773
 9976TIP3    H129850   3.728   7.931   2.903 -0.0610 -0.9107  0.3649
 9976TIP3    H229851   3.688   7.868   2.771  0.4414  0.2617 -0.3539
 9977TIP3   OH229852   2.806   6.152   1.660  0.2563  0.4826  0.2266
 9977TIP3    H129853   2.897   6.174   1.680  0.5555 -0.8355  0.3770
 9977TIP3    H229854   2.789   6.073   1.711 -2.0962  2.6397  2.9408
 9978TIP3   OH229855   3.853   0.349   1.007 -0.6105 -0.5833 -0.0965
 9978TIP3    H129856   3.785   0.286   1.029 -0.5795 -1.5838 -2.6515
 9978TIP3    H229857   3.917   0.299   0.957  0.9742  0.8154  0.4679
 9979TIP3   OH229858   2.243   7.341   4.350  0.2825  0.2727  0.6267
 9979TIP3    H129859   2.310   7.408   4.360  1.2166 -0.2707 -1.7058
 9979TIP3    H229860   2.242   7.321   4.256  0.4888 -3.3833  1.3059
 9980TIP3   OH229861   2.002   7.485   2.093 -0.5432 -0.0143  0.2326
 9980TIP3    H129862   2.018   7.574   2.061  0.3371 -0.4350 -0.5289
 9980TIP3    H229863   2.001   7.493   2.188  2.4560  0.3530  0.2600
 9981TIP3   OH229864   5.929   1.604   2.342  0.2378 -0.3772 -0.0249
 9981TIP3    H129865   6.017   1.588   2.376  0.1906 -0.6427 -0.0217
 9981TIP3    H229866   5.888   1.517   2.340 -0.2263 -0.1724  0.5263
 9982TIP3   OH229867   7.597   1.197   2.430  0.0967 -0.2258 -0.4616
 9982TIP3    H129868   7.530   1.141   2.469 -0.4806 -0.3100 -1.5475
 9982TIP3    H229869   7.677   1.177   2.479 -0.4513 -0.8704  0.1737
 9983TIP3   OH229870   3.106   7.360   5.049 -0.0577  0.2570  0.9613
 9983TIP3    H129871   3.162   7.329   4.977 -1.0565  0.1956  0.2082
 9983TIP3    H229872   3.114   7.456   5.046 -0.6909  0.2923  0.2832
 9984TIP3   OH229873   2.506   8.314   4.249  0.5111 -0.2650  0.5182
 9984TIP3    H129874   2.461   8.247   4.197  0.1624  1.3529 -1.2843
 9984TIP3    H229875   2.577   8.266   4.292 -0.7134 -2.1200  0.5588
 9985TIP3   OH229876   6.863   0.321   1.432  0.0056  0.2015  0.1837
 9985TIP3    H129877   6.812   0.327   1.512  1.7477 -1.1488  1.4506
 9985TIP3    H229878   6.931   0.389   1.442  0.0377  0.2410 -0.2884
 9986TIP3   OH229879   3.398   7.399   3.855  0.0470  0.0495  0.5385
 9986TIP3    H129880   3.451   7.477   3.842 -1.3520  0.8215 -0.7851
 9986TIP3    H229881   3.438   7.332   3.800 -0.7303  0.8270 -1.0030
 9987TIP3   OH229882   5.133   8.209   2.391  0.0916 -0.3670  0.2004
 9987TIP3    H129883   5.222   8.242   2.394  1.0090 -2.7474  0.7910
 9987TIP3    H229884   5.077   8.286   2.401  2.1107  0.9238  1.7446
 9988TIP3   OH229885   5.180   7.496   4.023  0.2833 -0.0817 -0.1259
 9988TIP3    H129886   5.258   7.517   4.075 -0.6655  0.0483  1.2675
 9988TIP3    H229887   5.214   7.480   3.935  1.4339  4.5878 -0.6771
 9989TIP3   OH229888   4.964   6.852   3.280 -0.2511  0.4165  0.1261
 9989TIP3    H129889   5.016   6.922   3.319 -1.1279  0.3352  1.4772
 9989TIP3    H229890   4.895   6.898   3.232 -1.4248  0.5116  1.8387
 9990TIP3   OH229891   5.365   5.810   3.554 -0.2594 -0.4275  0.0225
 9990TIP3    H129892   5.324   5.768   3.630 -1.8679  0.9450 -0.0434
 9990TIP3    H229893   5.458   5.788   3.561 -0.5524 -1.1666  1.8303
 9991TIP3   OH229894   0.153   0.372   0.345 -0.0772 -0.2897  0.3271
 9991TIP3    H129895   0.059   0.391   0.343 -0.2883 -1.2447  1.2162
 9991TIP3    H229896   0.178   0.366   0.253 -1.4052 -2.6072  0.0951
 9992TIP3   OH229897   0.139   0.337   4.402 -0.0829 -0.3539  0.2025
 9992TIP3    H129898   0.151   0.432   4.394  0.0097 -0.3498  0.4008
 9992TIP3    H229899   0.135   0.307   4.312 -0.4973 -0.1117  0.1382
 9993TIP3   OH229900   5.123   6.513   1.567  0.7080 -0.4297 -0.2646
 9993TIP3    H129901   5.042   6.508   1.617  0.2381  0.3539 -0.9471
 9993TIP3    H229902   5.099   6.483   1.479  1.2103 -0.3965 -0.4140
 9994TIP3   OH229903   6.221   1.231   1.881  0.7397  0.4374  0.0680
 9994TIP3    H129904   6.237   1.298   1.815  1.1067  1.1172  0.8387
 9994TIP3    H229905   6.309   1.207   1.912  0.6532 -0.8199 -0.6103
 9995TIP3   OH229906   0.545   0.324   2.108  0.1707 -0.3899 -0.0971
 9995TIP3    H129907   0.626   0.375   2.100 -0.5694  0.5825 -1.6891
 9995TIP3    H229908   0.478   0.390   2.128 -0.1328 -1.2760  1.9294
 9996TIP3   OH229909   2.550   0.084   1.314 -0.2360  0.3630  0.4433
 9996TIP3    H129910   2.569   0.177   1.327 -1.5533  0.6133  0.6573
 9996TIP3    H229911   2.532   0.075   1.221  2.3542 -0.1654 -0.0690
 9997TIP3   OH229912   5.457   6.442   2.600 -0.3901  0.2248  0.6277
 9997TIP3    H129913   5.520   6.480   2.661 -0.0435  0.7107 -0.0280
 9997TIP3    H229914   5.375   6.439   2.649 -0.5809  2.4532  0.4667
 9998TIP3   OH229915   3.779   7.551   1.143  0.1527 -0.0370  0.2961
 9998TIP3    H129916   3.780   7.456   1.155  2.6224 -0.0713 -0.0364
 9998TIP3    H229917   3.698   7.568   1.094  0.6708 -2.1860 -1.3828
 9999TIP3   OH229918   2.249   7.061   2.975  0.7673 -0.2226 -0.7887
 9999TIP3    H129919   2.231   7.152   2.999  1.8532 -0.4787  1.0833
 9999TIP3    H229920   2.279   7.066   2.884  1.1102  1.3366 -0.6041
10000TIP3   OH229921   5.867   6.291   3.130  0.1271  0.6840  0.5321
10000TIP3    H129922   5.791   6.319   3.181 -0.3079  0.2428  0.1259
10000TIP3    H229923   5.934   6.357   3.150 -1.3817  2.9981 -1.6406
10001TIP3   OH229924   3.726   5.709   1.944  0.4346  0.0812  0.5484
10001TIP3    H129925   3.662   5.661   1.890  1.9530  0.2049 -1.4111
10001TIP3    H229926   3.674   5.778   1.986 -0.8869 -0.3423 -0.3354
10002TIP3   OH229927   4.488   7.428   0.672  0.4020 -0.3002 -0.4947
10002TIP3    H129928   4.507   7.436   0.766 -0.4697 -2.1316 -0.1438
10002TIP3    H229929   4.395   7.408   0.668  0.1196  1.1800 -1.8512
10003TIP3   OH229930   4.774   6.474   4.166 -0.6533 -0.0809 -0.2511
10003TIP3    H129931   4.800   6.563   4.189  0.9618 -0.6100  0.0564
10003TIP3    H229932   4.718   6.484   4.089 -0.2744  1.1673 -0.3726
10004TIP3   OH229933   0.464   0.658   2.813  0.7284 -0.7627 -0.3625
10004TIP3    H129934   0.528   0.729   2.812  0.3575 -0.4178  0.2674
10004TIP3    H229935   0.476   0.614   2.729 -0.1253  1.0300 -1.4531
10005TIP3   OH229936   8.388   0.274   2.385  0.0106  0.8120 -1.0111
10005TIP3    H129937   8.387   0.367   2.360 -2.1707  0.8560 -0.8618
10005TIP3    H229938   8.375   0.275   2.480  1.7096  0.4058 -0.7647
10006TIP3   OH229939   3.932   8.236   3.462 -0.3992  0.0096  0.7922
10006TIP3    H129940   3.854   8.279   3.427 -0.0219 -1.0944 -1.4480
10006TIP3    H229941   3.989   8.309   3.490 -1.4430  0.8554  0.7265
10007TIP3   OH229942   4.589   7.149   2.790 -0.3260 -0.3103 -0.1656
10007TIP3    H129943   4.670   7.101   2.775  0.2827  0.5559  0.3350
10007TIP3    H229944   4.605   7.236   2.754 -0.1286  0.6712  2.1977
10008TIP3   OH229945   2.740   8.371   4.662  0.0697 -0.2286  0.4915
10008TIP3    H129946   2.835   8.382   4.657  0.1518 -0.5680  1.2070
10008TIP3    H229947   2.718   8.394   4.753 -0.7352  1.3744 -0.0983
10009TIP3   OH229948   6.232   1.911   2.901 -0.1605  1.0327  0.2865
10009TIP3    H129949   6.259   2.001   2.915 -0.6040  1.0467  1.0773
10009TIP3    H229950   6.143   1.906   2.936 -0.3328  0.4174 -0.2138
10010TIP3   OH229951   7.108   7.256   3.413  0.0352  0.6902 -0.6850
10010TIP3    H129952   7.134   7.281   3.501  1.3287  0.6537 -1.0462
10010TIP3    H229953   7.179   7.288   3.357 -0.9711  1.0700 -1.7549
10011TIP3   OH229954   5.001   7.568   3.320  0.6380  0.0624  0.5745
10011TIP3    H129955   5.056   7.522   3.257  0.7473  0.7993  0.1234
10011TIP3    H229956   5.025   7.661   3.309  0.6882  0.1923  1.7158
10012TIP3   OH229957   4.614   5.645   4.160  0.3809  0.8149  0.4960
10012TIP3    H129958   4.637   5.724   4.208 -2.1295  2.3169 -0.7317
10012TIP3    H229959   4.600   5.673   4.070 -1.1319 -0.8940  0.1534
10013TIP3   OH229960   0.444   1.798   3.164  0.0652 -0.4483  0.0060
10013TIP3    H129961   0.491   1.867   3.117 -0.8622 -0.2398 -0.6245
10013TIP3    H229962   0.395   1.844   3.232 -0.4890 -0.4835 -0.3626
10014TIP3   OH229963   0.580   1.522   2.006 -0.2254  0.4500 -0.1069
10014TIP3    H129964   0.498   1.560   2.040 -0.6568 -0.4168 -0.1580
10014TIP3    H229965   0.573   1.532   1.911 -0.5288 -0.1157 -0.1490
10015TIP3   OH229966   0.886   0.438   3.378 -0.1844  0.4171 -0.6727
10015TIP3    H129967   0.834   0.437   3.297 -3.3157 -0.2260  1.2802
10015TIP3    H229968   0.886   0.530   3.405  0.4906  0.5628 -1.1600
10016TIP3   OH229969   6.783   7.686   3.243  0.0873  0.0399  0.1520
10016TIP3    H129970   6.748   7.606   3.204 -0.0338  0.9423 -1.6696
10016TIP3    H229971   6.778   7.751   3.173  2.1267  1.1136  0.9395
10017TIP3   OH229972   7.435   7.164   2.176 -0.3143 -0.1333 -0.0265
10017TIP3    H129973   7.488   7.113   2.115  0.6320  0.6018  0.1614
10017TIP3    H229974   7.402   7.237   2.124 -0.2325  0.0145  0.1277
10018TIP3   OH229975   5.160   6.682   4.319  0.3827  0.1033  0.0709
10018TIP3    H129976   5.152   6.678   4.224  0.1120 -0.0999  0.1031
10018TIP3    H229977   5.212   6.605   4.342  1.9395  1.0926 -0.0790
10019TIP3   OH229978   3.879   6.601   3.501 -0.3654 -0.0411 -0.4254
10019TIP3    H129979   3.793   6.560   3.490  0.1985 -0.9190 -1.6837
10019TIP3    H229980   3.884   6.622   3.594 -2.1839  0.5679 -0.4486
10020TIP3   OH229981   5.562   7.269   3.097  0.3567 -0.0854 -0.2967
10020TIP3    H129982   5.655   7.278   3.116  0.8035 -2.1626 -1.3768
10020TIP3    H229983   5.525   7.230   3.177  0.1942  1.7492  0.5450
10021TIP3   OH229984   4.819   7.645   2.323 -0.0545  0.0102  0.2254
10021TIP3    H129985   4.744   7.586   2.334 -0.4056  0.1687 -1.2514
10021TIP3    H229986   4.794   7.725   2.368  0.1063 -0.6730  1.5693
10022TIP3   OH229987   0.657   1.646   3.460  0.0248  0.5908 -0.4235
10022TIP3    H129988   0.633   1.732   3.424 -0.7589  1.2042  1.4414
10022TIP3    H229989   0.707   1.667   3.539  1.1264 -0.6999 -0.7559
10023TIP3   OH229990   8.741   0.964   3.270  0.2298 -0.1468  0.2591
10023TIP3    H129991   8.762   1.048   3.310  1.9253 -0.3970 -0.0591
10023TIP3    H229992   8.699   0.986   3.187 -0.6300  0.3815  0.8354
10024TIP3   OH229993   4.699   5.654   2.066  0.1366 -0.0544 -0.1003
10024TIP3    H129994   4.690   5.742   2.102 -0.1186 -0.5510  1.0551
10024TIP3    H229995   4.622   5.643   2.010 -1.0637 -0.4102  1.5909
10025TIP3   OH229996   3.347   7.578   4.311  0.0363  0.2589  0.4293
10025TIP3    H129997   3.441   7.585   4.294  0.2108 -2.4388  0.0834
10025TIP3    H229998   3.315   7.523   4.240 -2.1907  2.8852 -0.6573
10026TIP3   OH229999   4.492   5.975   4.446  0.4576 -0.0028 -0.0777
10026TIP3    H130000   4.440   5.991   4.366  0.1023  1.1002  0.3659
10026TIP3    H230001   4.445   6.023   4.514  0.5508 -1.2647  0.8752
10027TIP3   OH230002   0.029   0.599   1.657 -0.5829 -0.2416  0.0156
10027TIP3    H130003  -0.025   0.540   1.604  0.7571  0.1810 -1.8739
10027TIP3    H230004   0.118   0.570   1.641 -0.1301  0.1782  1.7339
10028TIP3   OH230005   5.930   6.023   4.272  0.1735 -0.1435 -0.1694
10028TIP3    H130006   5.987   6.007   4.347  1.1751  1.9889 -0.4353
10028TIP3    H230007   5.988   6.023   4.197 -0.6502 -1.0312 -0.8119
10029TIP3   OH230008   8.866   0.707   2.363  0.1971  0.3632 -0.2106
10029TIP3    H130009   8.795   0.752   2.409  0.6789  0.1600  0.7365
10029TIP3    H230010   8.828   0.624   2.336  0.0584  0.2713  0.2604
10030TIP3   OH230011   1.298   0.309   2.613  0.1594  0.1833  0.2357
10030TIP3    H130012   1.267   0.318   2.703  0.4598 -0.3409  0.3921
10030TIP3    H230013   1.242   0.368   2.562 -1.3523 -1.0331  0.4555
10031TIP3   OH230014   4.749   8.085   4.205 -0.3720  0.1659  0.4096
10031TIP3    H130015   4.755   8.176   4.177  2.0798  0.5362  1.9164
10031TIP3    H230016   4.715   8.038   4.129  2.9906  1.5780 -2.0885
10032TIP3   OH230017   3.275   8.118   3.255 -0.0632 -0.3125  0.5455
10032TIP3    H130018   3.352   8.173   3.265 -1.8936  2.6589 -0.8848
10032TIP3    H230019   3.213   8.150   3.321 -1.2343 -0.4669 -0.4500
10033TIP3   OH230020   8.778   0.248   4.729  0.1686  0.7404  0.1331
10033TIP3    H130021   8.857   0.303   4.724 -0.0321  1.0134 -0.0377
10033TIP3    H230022   8.721   0.282   4.661  0.4125 -0.2815 -0.6034
10034TIP3   OH230023   5.645   7.089   4.825 -0.4650  0.1390 -0.3066
10034TIP3    H130024   5.646   7.175   4.867  2.1786 -0.2479  0.4845
10034TIP3    H230025   5.573   7.042   4.867  1.7750 -0.0614  3.4604
10035TIP3   OH230026   4.377   6.631   1.457  0.1421  0.0978 -0.1155
10035TIP3    H130027   4.351   6.645   1.366 -0.3177 -0.1854 -0.0285
10035TIP3    H230028   4.325   6.695   1.506  0.5980  0.4425 -0.0829
10036TIP3   OH230029   1.041   0.661   4.111  0.6403  0.3979 -0.1711
10036TIP3    H130030   1.055   0.576   4.153  0.9548  0.9597  0.8763
10036TIP3    H230031   0.946   0.669   4.104  0.6397 -0.5686 -1.3756
10037TIP3   OH230032   4.719   7.513   1.038  0.4309  0.7291  0.2103
10037TIP3    H130033   4.665   7.471   1.104  0.7897 -0.5056 -0.2586
10037TIP3    H230034   4.708   7.607   1.053 -0.1955  0.4645  1.4302
10038TIP3   OH230035   6.079   8.046   4.001 -0.5302  0.0105  0.4473
10038TIP3    H130036   5.998   8.035   4.051 -0.0185  0.1772  1.3249
10038TIP3    H230037   6.107   8.136   4.018  1.2394 -0.8506  2.2999
10039TIP3   OH230038   7.212   0.915   4.213  0.1548 -0.4414 -0.4387
10039TIP3    H130039   7.260   0.833   4.208  1.4736  0.2597  0.5781
10039TIP3    H230040   7.255   0.964   4.282  0.7357  2.0096 -2.4857
10040TIP3   OH230041   5.863   7.691   3.807 -0.0084  0.1158 -0.0767
10040TIP3    H130042   5.794   7.625   3.791 -0.2055  0.2927  0.0463
10040TIP3    H230043   5.826   7.748   3.874 -0.0819  0.7240 -0.6365
10041TIP3   OH230044   6.707   0.047   3.163  0.3770  0.0369 -0.3151
10041TIP3    H130045   6.638   0.097   3.121  1.7516  1.6228 -0.7410
10041TIP3    H230046   6.787   0.072   3.116  1.1142 -2.5284 -0.5223
10042TIP3   OH230047   3.392   7.596   3.100  0.2050 -0.0707  0.9579
10042TIP3    H130048   3.431   7.659   3.160  1.1975 -0.1192  0.3657
10042TIP3    H230049   3.412   7.629   3.013 -0.5983 -0.3913  0.6463
10043TIP3   OH230050   3.536   6.926   1.786 -0.1672  0.3181  0.1098
10043TIP3    H130051   3.523   6.873   1.865 -1.0650  0.5035  0.1004
10043TIP3    H230052   3.510   7.014   1.812 -2.2670  0.0306 -0.8775
10044TIP3   OH230053   5.700   8.196   2.274 -0.5274  0.4625 -0.4690
10044TIP3    H130054   5.779   8.176   2.223 -0.5209 -0.4929 -0.1006
10044TIP3    H230055   5.629   8.154   2.225 -0.4012 -1.2816  0.7780
10045TIP3   OH230056   6.389   5.233   2.516  0.1195 -0.4378  0.5558
10045TIP3    H130057   6.360   5.256   2.604 -0.0589 -0.8590  0.6114
10045TIP3    H230058   6.315   5.188   2.477  0.6185 -1.3532  0.6351
10046TIP3   OH230059   8.903   0.851   1.541 -0.5875  0.0708  0.4303
10046TIP3    H130060   8.897   0.762   1.576 -0.4918  0.1363  0.6133
10046TIP3    H230061   8.821   0.864   1.493 -0.3251 -0.3456 -0.1394
10047TIP3   OH230062   8.528   0.039   5.197 -1.2112  0.1849  0.2573
10047TIP3    H130063   8.616   0.002   5.195 -1.3680 -0.1360 -1.7042
10047TIP3    H230064   8.473  -0.033   5.229 -0.9711 -0.0852  0.0695
10048TIP3   OH230065   0.124   0.171   3.464 -0.2271  0.1352 -0.0641
10048TIP3    H130066   0.089   0.260   3.459 -2.5469 -0.7783 -0.6996
10048TIP3    H230067   0.051   0.118   3.496  1.3591 -1.4348  1.0392
10049TIP3   OH230068   4.941   8.079   5.050 -0.4274 -0.3300 -0.0758
10049TIP3    H130069   4.947   7.999   5.103 -2.8216 -0.8100 -0.4776
10049TIP3    H230070   4.929   8.048   4.960 -1.7174  0.4496 -0.1917
10050TIP3   OH230071   4.072   6.827   1.887 -0.1342 -0.5749 -0.0979
10050TIP3    H130072   3.980   6.824   1.915  0.1919 -0.7581  0.9582
10050TIP3    H230073   4.121   6.843   1.967  0.6956  0.4384 -0.8006
10051TIP3   OH230074   5.311   6.146   3.939  0.1210 -0.3441 -0.0415
10051TIP3    H130075   5.302   6.053   3.917  0.0151 -0.2432 -0.4230
10051TIP3    H230076   5.268   6.154   4.025 -0.9274 -0.4195 -0.5468
10052TIP3   OH230077   5.757   6.618   1.879 -0.3360 -0.4338  0.1404
10052TIP3    H130078   5.778   6.553   1.812  0.1227  0.5211 -0.6604
10052TIP3    H230079   5.837   6.628   1.930 -0.3575 -0.3819  0.1636
10053TIP3   OH230080   7.269   6.464   3.143 -0.8588  0.0800  0.3313
10053TIP3    H130081   7.186   6.505   3.116 -0.2858  0.9083 -0.2216
10053TIP3    H230082   7.318   6.535   3.184 -0.8989 -0.7020  1.7552
10054TIP3   OH230083   6.075   7.750   2.162 -0.3153 -0.0920 -0.4298
10054TIP3    H130084   6.064   7.656   2.142  0.4759 -0.2027 -0.3592
10054TIP3    H230085   6.145   7.778   2.103 -0.5202  0.4472 -0.4140
10055TIP3   OH230086   5.313   6.793   3.747  0.1618  0.1532 -0.7856
10055TIP3    H130087   5.264   6.711   3.758 -1.8181  1.1122 -2.0894
10055TIP3    H230088   5.294   6.843   3.827 -0.3195  0.1910 -0.9238
10056TIP3   OH230089   4.277   6.493   2.391  0.0980 -0.2032 -0.3574
10056TIP3    H130090   4.290   6.517   2.299  1.0196  0.1367 -0.1354
10056TIP3    H230091   4.192   6.448   2.391  0.2017 -0.4270 -1.4161
10057TIP3   OH230092   5.372   6.870   4.524  0.1282 -0.6104 -0.2681
10057TIP3    H130093   5.385   6.779   4.549  2.2874  0.2601  1.9273
10057TIP3    H230094   5.327   6.910   4.598 -0.6894  0.1586 -1.1550
10058TIP3   OH230095   3.001   5.814   3.233 -0.0141 -0.0270 -0.0955
10058TIP3    H130096   2.918   5.858   3.254  0.5120  0.1917  1.5578
10058TIP3    H230097   2.974   5.735   3.186 -1.2610 -0.6633  1.6204
10059TIP3   OH230098   5.526   6.050   5.970  0.2479  0.3499 -0.5899
10059TIP3    H130099   5.549   6.007   6.052 -2.0277 -0.7710 -0.5117
10059TIP3    H230100   5.502   6.139   5.994 -1.8592 -0.4083  0.1706
10060TIP3   OH230101   4.433   5.694   4.458 -0.7391  0.2231 -0.4062
10060TIP3    H130102   4.345   5.676   4.426  0.1253 -1.6146 -1.8621
10060TIP3    H230103   4.454   5.781   4.425 -2.4637  1.2365  1.0564
10061TIP3   OH230104   6.447   7.265   1.880  0.4552  0.6773  0.7916
10061TIP3    H130105   6.382   7.236   1.944 -0.0371 -0.9210 -0.3774
10061TIP3    H230106   6.396   7.284   1.801  1.4680 -1.5284 -0.4378
10062TIP3   OH230107   3.657   7.150   3.882 -0.1954  0.2974  0.3111
10062TIP3    H130108   3.627   7.120   3.796  1.2211 -0.1759 -0.0474
10062TIP3    H230109   3.578   7.155   3.935 -1.0205  0.0817 -0.8715
10063TIP3   OH230110   4.936   6.253   4.247 -0.2069 -0.0952 -0.1114
10063TIP3    H130111   4.884   6.182   4.207 -0.7532 -0.2868  0.9288
10063TIP3    H230112   4.879   6.330   4.240  0.3924  0.2562 -1.2541
10064TIP3   OH230113   0.026   8.088   2.147  0.3495  0.2719  0.1179
10064TIP3    H130114   0.085   8.026   2.103  0.8568  0.8719 -0.0592
10064TIP3    H230115  -0.051   8.092   2.089  0.4739  0.0999 -0.0635
10065TIP3   OH230116   6.979   6.744   2.000 -0.2843 -0.0876 -0.2126
10065TIP3    H130117   6.884   6.732   2.006 -0.0256 -1.6195  1.3573
10065TIP3    H230118   6.990   6.820   1.944 -2.4006 -0.8447 -1.7258
10066TIP3   OH230119   4.672   6.955   2.323  0.1699 -0.2859  0.3270
10066TIP3    H130120   4.737   6.910   2.377 -0.0287 -1.4933 -0.4328
10066TIP3    H230121   4.695   7.048   2.331  1.9903 -0.6899  0.0726
10067TIP3   OH230122   4.666   5.859   0.646  0.2314 -0.2625 -0.4184
10067TIP3    H130123   4.642   5.905   0.566 -0.2529  1.4721  0.6802
10067TIP3    H230124   4.761   5.848   0.640  0.0957 -0.8971 -1.5891
10068TIP3   OH230125   1.079   0.422   2.385 -0.3959  0.4271  0.3912
10068TIP3    H130126   1.150   0.424   2.321 -0.6773  3.5135  0.1073
10068TIP3    H230127   1.003   0.393   2.335  0.6040 -2.9207  0.7025
10069TIP3   OH230128   3.663   5.983   3.115 -0.0630  0.2938  0.1891
10069TIP3    H130129   3.686   5.966   3.206 -0.7771 -1.1311  0.1077
10069TIP3    H230130   3.671   5.898   3.072 -0.0888  0.8882 -1.0054
10070TIP3   OH230131   7.583   1.043   3.011 -0.3339  0.2150  0.3060
10070TIP3    H130132   7.528   1.085   2.945  1.1869  0.4662 -0.8381
10070TIP3    H230133   7.524   0.985   3.059 -1.0276 -1.8135 -2.8348
10071TIP3   OH230134   4.841   5.831   5.429  0.2659 -0.2199 -0.3860
10071TIP3    H130135   4.906   5.796   5.490 -1.2178 -0.6203  1.0031
10071TIP3    H230136   4.820   5.917   5.465  2.1861  1.1769 -2.4949
10072TIP3   OH230137   5.247   8.062   2.181 -0.5479  0.2047  0.4731
10072TIP3    H130138   5.190   8.113   2.238  1.4948  3.3272 -0.1376
10072TIP3    H230139   5.223   8.090   2.093  0.3296 -0.1717  0.1114
10073TIP3   OH230140   7.115   7.913   2.391  0.5938 -0.3291 -0.4502
10073TIP3    H130141   7.205   7.931   2.418  0.9819 -0.7063 -1.4713
10073TIP3    H230142   7.065   7.989   2.423  1.1424 -0.4584  0.7461
10074TIP3   OH230143   1.766   0.968   3.906  0.0949 -0.1785 -0.1529
10074TIP3    H130144   1.734   0.937   3.991 -3.2194  0.4855 -1.0621
10074TIP3    H230145   1.777   0.889   3.854 -1.8726 -0.3418 -0.3645
10075TIP3   OH230146   8.931   1.039   3.017 -0.2391  0.1893  0.0616
10075TIP3    H130147   8.903   0.950   2.996 -0.1633 -0.3372  2.0808
10075TIP3    H230148   8.854   1.080   3.055 -0.2138  0.9242 -0.6719
10076TIP3   OH230149   6.138   8.073   1.831  0.4455 -0.4035 -0.3073
10076TIP3    H130150   6.163   8.166   1.827  0.6520 -0.3795  1.1215
10076TIP3    H230151   6.046   8.074   1.857  0.5032 -0.5960 -0.0900
10077TIP3   OH230152   5.981   1.300   3.727 -0.2085 -0.3589  0.4013
10077TIP3    H130153   5.962   1.290   3.634 -1.6850 -3.2476  0.9586
10077TIP3    H230154   5.896   1.291   3.771  0.6637 -0.5988  2.1008
10078TIP3   OH230155   6.827   0.765   2.289  0.0925  0.0420  0.5388
10078TIP3    H130156   6.813   0.688   2.235  0.5890 -0.7304  1.4936
10078TIP3    H230157   6.742   0.810   2.289  0.3608  0.6010 -1.6933
10079TIP3   OH230158   5.624   7.757   1.190 -0.3130 -0.0206  0.1552
10079TIP3    H130159   5.561   7.713   1.133  0.0069  0.0537 -0.2592
10079TIP3    H230160   5.708   7.747   1.146 -0.3139  1.4741 -0.2305
10080TIP3   OH230161   0.229   0.681   2.383  0.3741 -0.2402  0.6573
10080TIP3    H130162   0.261   0.738   2.452 -0.5774  0.2362  0.7198
10080TIP3    H230163   0.134   0.681   2.394  0.4079 -2.5016  1.1726
10081TIP3   OH230164   8.194   2.642   1.352  0.2299 -0.2854  0.2204
10081TIP3    H130165   8.270   2.603   1.395 -0.8895 -0.6923  1.8751
10081TIP3    H230166   8.142   2.679   1.424 -1.3460 -0.3915 -0.8394
10082TIP3   OH230167   6.193   7.936   3.525 -0.2759  0.1566 -0.3216
10082TIP3    H130168   6.185   7.966   3.615 -1.2021 -1.1323  0.0478
10082TIP3    H230169   6.284   7.907   3.517 -0.5301 -0.9095  0.5796
10083TIP3   OH230170   5.463   7.158   3.337  0.0867 -0.2018  0.7872
10083TIP3    H130171   5.462   7.071   3.296  1.3233 -0.4630  1.2870
10083TIP3    H230172   5.548   7.163   3.380 -0.4793  0.7819  1.8075
10084TIP3   OH230173   1.384   0.117   2.298  0.0591 -0.3132  0.1856
10084TIP3    H130174   1.293   0.142   2.282  0.2091 -0.8251 -1.5829
10084TIP3    H230175   1.433   0.199   2.288  0.0530 -0.4756 -1.1531
10085TIP3   OH230176   0.048   0.270   1.920  0.1342 -0.2910 -0.3987
10085TIP3    H130177   0.040   0.179   1.948  0.0164 -1.3263 -3.6314
10085TIP3    H230178   0.048   0.266   1.825 -2.0285  3.2899 -0.6461
10086TIP3   OH230179   4.704   7.640   2.704  0.8593 -0.4227  0.0731
10086TIP3    H130180   4.740   7.722   2.669  0.8904 -1.1552 -1.6737
10086TIP3    H230181   4.621   7.665   2.744  1.4529  0.6591  0.6514
10087TIP3   OH230182   5.846   7.626   2.600 -1.1128 -0.2432 -0.0128
10087TIP3    H130183   5.764   7.576   2.591 -0.7096 -0.8436 -0.3467
10087TIP3    H230184   5.908   7.581   2.543 -0.9007  0.9803 -0.7526
10088TIP3   OH230185   0.885   0.661   2.689 -0.0183 -0.0846 -0.5353
10088TIP3    H130186   0.957   0.611   2.727  0.2254  0.9313  0.3578
10088TIP3    H230187   0.924   0.745   2.663 -0.7711  0.2975 -0.4691
10089TIP3   OH230188   5.086   1.279   2.363  0.2580 -0.0317 -0.7072
10089TIP3    H130189   5.174   1.241   2.355  0.6965  0.8628 -0.1757
10089TIP3    H230190   5.046   1.231   2.436  1.0999  1.0664  0.4947
10090TIP3   OH230191   6.402   1.090   3.664  0.7043 -0.1225 -0.3164
10090TIP3    H130192   6.413   1.039   3.744  2.5493  1.5440  0.5485
10090TIP3    H230193   6.486   1.081   3.618  0.4410  0.7319 -0.9771
10091TIP3   OH230194   5.629   6.354   2.145 -0.5765  0.1467 -0.4548
10091TIP3    H130195   5.617   6.346   2.050 -0.7798  2.2153 -0.6274
10091TIP3    H230196   5.636   6.448   2.160 -0.3283 -0.1790  1.5701
10092TIP3   OH230197   5.158   7.339   2.015  0.2378  0.4526 -0.9283
10092TIP3    H130198   5.216   7.289   2.073 -0.2849  0.1923 -0.6164
10092TIP3    H230199   5.101   7.387   2.075 -0.1437  0.3762 -1.2260
10093TIP3   OH230200   4.336   8.151   3.207 -0.2027  0.1690 -0.3640
10093TIP3    H130201   4.285   8.137   3.127  1.2680 -0.4154 -1.2456
10093TIP3    H230202   4.279   8.123   3.278 -0.9365 -0.9164 -1.3518
10094TIP3   OH230203   2.131   6.829   1.893 -0.1171  0.7631  0.6883
10094TIP3    H130204   2.191   6.895   1.858  2.0022 -0.8396  1.1970
10094TIP3    H230205   2.082   6.799   1.816  1.0147  0.8221 -0.0738
10095TIP3   OH230206   5.588   7.357   1.762  0.1214 -0.4635 -0.2604
10095TIP3    H130207   5.498   7.386   1.778 -0.2999 -0.9570 -1.6703
10095TIP3    H230208   5.579   7.266   1.734  1.2504 -1.2454  1.8081
10096TIP3   OH230209   4.832   7.028   2.884  0.3478  0.0431  0.0788
10096TIP3    H130210   4.795   6.940   2.880  0.6525 -0.0718 -0.2780
10096TIP3    H230211   4.917   7.020   2.840  0.2021  0.6019 -0.3180
10097TIP3   OH230212   5.175   7.778   3.150  0.4563  0.2298 -0.2300
10097TIP3    H130213   5.245   7.835   3.180 -0.5805  1.7469 -0.6117
10097TIP3    H230214   5.173   7.790   3.055  1.1838 -1.5748 -0.4919
10098TIP3   OH230215   4.279   8.339   2.154 -0.4252 -0.1951  0.3480
10098TIP3    H130216   4.227   8.377   2.084  0.0980 -0.5745 -0.2435
10098TIP3    H230217   4.249   8.248   2.160 -0.6015 -0.1159  0.7473
10099TIP3   OH230218   3.698   6.588   0.862 -0.3441  0.6514  0.2642
10099TIP3    H130219   3.707   6.633   0.778  3.3452  1.2157  0.8437
10099TIP3    H230220   3.632   6.639   0.910 -0.9263  1.5799 -1.5089
10100TIP3   OH230221   0.400   0.602   5.986  0.5376 -0.6297 -0.2245
10100TIP3    H130222   0.466   0.614   5.918 -0.8749 -0.6872 -1.6191
10100TIP3    H230223   0.406   0.681   6.040 -0.4339  0.8606 -2.2287
10101TIP3   OH230224   6.018   4.979   3.387  0.4009 -0.5443 -0.1724
10101TIP3    H130225   5.941   5.012   3.340 -0.6327 -0.3561  1.6086
10101TIP3    H230226   5.983   4.918   3.451  1.4979  1.1759  2.1351
10102TIP3   OH230227   5.131   8.154   0.701 -0.2234  0.7539  0.9562
10102TIP3    H130228   5.175   8.216   0.643  0.7348 -0.6474  0.1693
10102TIP3    H230229   5.039   8.156   0.673  0.4527 -0.8867 -1.5328
10103TIP3   OH230230   4.997   5.078   2.075 -0.2177 -0.2379  0.0492
10103TIP3    H130231   4.956   4.994   2.056  0.6424 -0.6197 -0.1376
10103TIP3    H230232   5.019   5.074   2.168 -0.5280 -0.0613  0.1323
10104TIP3   OH230233   5.635   6.555   2.836  0.0958  0.4582 -0.3626
10104TIP3    H130234   5.639   6.469   2.878 -1.3304  0.3721 -0.3836
10104TIP3    H230235   5.592   6.611   2.900  1.0765  1.1751 -0.3288
10105TIP3   OH230236   5.395   7.729   2.943  0.4359 -0.2487  0.0994
10105TIP3    H130237   5.328   7.683   2.892  0.7621  0.4626 -0.9961
10105TIP3    H230238   5.419   7.668   3.012  0.7873 -1.6733 -1.2783
10106TIP3   OH230239   7.450   1.401   3.365  0.1505 -0.0721 -0.2929
10106TIP3    H130240   7.514   1.445   3.311 -0.6698  0.4114 -0.8815
10106TIP3    H230241   7.491   1.394   3.451 -0.1172  2.8085  0.0944
10107TIP3   OH230242   4.919   7.899   3.153 -0.1587 -0.3322  0.2260
10107TIP3    H130243   4.847   7.838   3.169 -1.1566  0.4819 -1.0446
10107TIP3    H230244   4.995   7.857   3.192 -0.9840 -2.0292  0.0516
10108TIP3   OH230245   5.269   7.506   6.091  0.9120 -0.1597 -0.2200
10108TIP3    H130246   5.280   7.523   6.185  1.2126 -2.9303  0.2743
10108TIP3    H230247   5.188   7.552   6.068  1.6099  1.7689  1.0402
10109TIP3   OH230248   5.175   5.402   1.331  0.2967 -0.2224  0.6354
10109TIP3    H130249   5.177   5.445   1.417 -1.2323  1.8209 -0.2754
10109TIP3    H230250   5.265   5.408   1.298  0.5824  0.2672  1.5030
10110TIP3   OH230251   5.751   6.680   3.142 -0.3168 -0.5365  0.0457
10110TIP3    H130252   5.683   6.724   3.192 -0.4931 -0.2097 -0.4828
10110TIP3    H230253   5.750   6.590   3.174 -1.2176 -0.6093 -0.1849
10111TIP3   OH230254   6.703   7.514   2.853  0.4430 -0.0870  0.3501
10111TIP3    H130255   6.696   7.476   2.765 -1.0844  0.4122  0.2279
10111TIP3    H230256   6.789   7.557   2.854  0.2898  0.3094 -1.0748
10112TIP3   OH230257   5.727   8.040   2.645  0.0982  0.2666 -0.0645
10112TIP3    H130258   5.718   7.953   2.684  1.1259 -0.5069 -1.4927
10112TIP3    H230259   5.722   8.024   2.550  1.4471  1.6082 -0.3757
10113TIP3   OH230260   1.046   3.465   6.988 -0.3490  0.0967 -0.2621
10113TIP3    H130261   1.098   3.402   6.937  2.0081 -0.2330  2.4511
10113TIP3    H230262   0.960   3.424   6.996  0.3435 -1.5185 -0.8896
10114TIP3   OH230263   5.320   7.607   4.649 -0.5191  0.1450  0.3416
10114TIP3    H130264   5.253   7.667   4.681 -0.7074 -0.3330  0.8649
10114TIP3    H230265   5.301   7.524   4.693  0.8649  0.2017  1.0912
10115TIP3   OH230266   0.569   0.588   2.329 -0.4570  0.0932 -0.2336
10115TIP3    H130267   0.527   0.655   2.275  3.4169  2.3890 -0.5827
10115TIP3    H230268   0.608   0.636   2.402 -1.6423 -2.4031  2.1469
10116TIP3   OH230269   6.597   7.284   2.184  0.3097  0.0184  0.1551
10116TIP3    H130270   6.582   7.355   2.246 -0.1247 -0.5212  0.6709
10116TIP3    H230271   6.571   7.320   2.100 -0.1160  0.3961  0.4452
10117TIP3   OH230272   5.408   6.345   3.271  0.1411 -0.3979  0.4979
10117TIP3    H130273   5.376   6.419   3.324 -1.0241  0.2345 -1.0432
10117TIP3    H230274   5.357   6.270   3.300 -0.5031 -0.0474  0.2876
10118TIP3   OH230275   5.586   0.168   2.781  0.6604 -0.2608 -0.2116
10118TIP3    H130276   5.560   0.083   2.817 -1.9322 -0.4063 -2.3217
10118TIP3    H230277   5.563   0.231   2.848 -2.7075 -0.6823 -0.8805
10119TIP3   OH230278   4.226   6.907   3.279 -0.4174  0.2729  0.1928
10119TIP3    H130279   4.201   6.863   3.361 -1.0113 -0.4452 -0.3677
10119TIP3    H230280   4.287   6.976   3.307  0.0505 -0.5098  1.1506
10120TIP3   OH230281   4.636   7.538   3.702 -0.2538  0.4520  0.2491
10120TIP3    H130282   4.556   7.485   3.706  0.4282 -0.6352 -0.3509
10120TIP3    H230283   4.631   7.582   3.617  0.5181 -0.8049 -0.4601
10121TIP3   OH230284   5.811   7.408   5.567  0.2891  0.3490 -0.7201
10121TIP3    H130285   5.785   7.321   5.598 -2.4121  1.6383  0.8166
10121TIP3    H230286   5.756   7.424   5.491  2.5193 -0.2483 -2.5089
10122TIP3   OH230287   5.402   6.873   4.227  0.3715 -0.1865  0.1011
10122TIP3    H130288   5.334   6.817   4.190  1.6209 -1.0218 -0.9468
10122TIP3    H230289   5.390   6.867   4.322 -0.0065 -1.5847 -0.0350
10123TIP3   OH230290   1.286   2.122   5.304  0.3767 -0.3721  0.0225
10123TIP3    H130291   1.229   2.143   5.378 -0.0031 -0.6988 -0.1804
10123TIP3    H230292   1.227   2.111   5.230  0.4871 -2.7973  0.2555
10124TIP3   OH230293   5.456   6.173   3.599  0.6529 -0.2645  0.6451
10124TIP3    H130294   5.550   6.194   3.605  0.7326 -1.1204  2.9759
10124TIP3    H230295   5.453   6.078   3.593 -0.0645 -0.1951 -0.2086
10125TIP3   OH230296   5.501   7.900   4.841  0.2541  0.0193 -0.2011
10125TIP3    H130297   5.527   7.813   4.811  2.3571  0.5393  0.0126
10125TIP3    H230298   5.443   7.933   4.772  3.0917  0.2410 -2.5814
10126TIP3   OH230299   4.730   8.268   3.429  0.2258  0.3907 -0.1966
10126TIP3    H130300   4.766   8.238   3.345 -1.0212  0.6957 -0.8488
10126TIP3    H230301   4.667   8.201   3.454  1.5465 -0.3594  1.1662
10127TIP3   OH230302   4.412   7.541   1.617 -0.1426 -0.1056  0.4689
10127TIP3    H130303   4.481   7.601   1.645 -0.3867  0.9498 -1.1319
10127TIP3    H230304   4.440   7.511   1.530 -1.0908 -0.6420  0.3401
10128TIP3   OH230305   4.767   7.710   3.891 -0.5067  0.1407  0.2050
10128TIP3    H130306   4.702   7.646   3.862 -0.1573  0.4725 -1.3395
10128TIP3    H230307   4.815   7.734   3.811  1.5092 -0.0944  1.3058
10129TIP3   OH230308   3.131   1.990   0.725  0.4824 -0.3326  0.3990
10129TIP3    H130309   3.093   2.041   0.653  0.3010  0.2076  0.8680
10129TIP3    H230310   3.204   2.044   0.756  0.7302 -0.6932  0.4374
10130TIP3   OH230311   3.790   7.230   3.086  0.0747 -0.3023  0.4747
10130TIP3    H130312   3.814   7.319   3.060  1.7348 -0.2611  2.0362
10130TIP3    H230313   3.778   7.235   3.181 -0.6920 -1.5655  0.4589
10131TIP3   OH230314   3.665   7.456   4.466 -0.5795  0.3700 -0.6263
10131TIP3    H130315   3.666   7.524   4.398  1.6595 -0.0036 -1.0054
10131TIP3    H230316   3.700   7.378   4.423  0.5911  0.0454  0.8451
10132TIP3   OH230317   8.299   0.903   5.182 -0.6150  0.0178  0.0959
10132TIP3    H130318   8.272   0.877   5.270  1.7703  2.9768  1.8049
10132TIP3    H230319   8.382   0.858   5.168  0.7154  2.1792  0.7943
10133TIP3   OH230320   3.389   6.773   0.254  0.2539  0.5991 -0.3256
10133TIP3    H130321   3.481   6.796   0.242  0.2267  0.7110 -0.3233
10133TIP3    H230322   3.359   6.745   0.168  0.4271  0.0609 -0.2155
10134TIP3   OH230323   3.062   7.769   4.138 -0.3395  0.0794  0.1203
10134TIP3    H130324   2.985   7.792   4.085 -0.4972 -0.4917  0.1003
10134TIP3    H230325   3.060   7.674   4.142  0.0688  0.0926  0.5744
10135TIP3   OH230326   7.425   1.129   2.780  0.2258  0.2807  0.1722
10135TIP3    H130327   7.438   1.223   2.783  0.7639  0.2337 -0.6741
10135TIP3    H230328   7.333   1.117   2.805  0.7491  0.8588  2.5298
10136TIP3   OH230329   0.667   1.195   4.174 -0.3801 -0.2355 -1.1337
10136TIP3    H130330   0.674   1.166   4.265 -2.0933 -0.1592 -0.9680
10136TIP3    H230331   0.730   1.139   4.127  0.4205 -0.3680  0.0606
10137TIP3   OH230332   0.508   0.951   3.779  0.1099  0.5410  0.0386
10137TIP3    H130333   0.433   0.959   3.720  1.0337 -0.5133 -1.3224
10137TIP3    H230334   0.565   0.887   3.737  0.3913 -0.9261  2.5367
10138TIP3   OH230335   8.742   1.081   4.005 -0.0864 -0.1091  0.0522
10138TIP3    H130336   8.693   1.146   3.954  0.4224 -0.3050 -0.7023
10138TIP3    H230337   8.816   1.057   3.948  0.8552  0.1527  1.1513
10139TIP3   OH230338   6.953   7.186   2.484 -0.5971  0.0478 -0.8096
10139TIP3    H130339   7.007   7.247   2.432 -1.5174  1.1409 -0.4997
10139TIP3    H230340   6.870   7.181   2.437 -0.4556 -1.1300 -0.9335
10140TIP3   OH230341   5.225   8.279   0.482  0.0967  0.6134  0.6237
10140TIP3    H130342   5.315   8.310   0.483  0.5580 -0.6414 -0.4305
10140TIP3    H230343   5.191   8.306   0.397  0.0969 -0.6194  0.2256
10141TIP3   OH230344   8.513   0.179   3.109  0.6406  0.5066 -0.6272
10141TIP3    H130345   8.425   0.170   3.144  0.6995  2.8192  0.1947
10141TIP3    H230346   8.545   0.089   3.099 -1.0370 -0.2854  0.9988
10142TIP3   OH230347   0.543   0.105   1.045 -0.1366 -0.9005 -0.5988
10142TIP3    H130348   0.521   0.168   0.976  1.2127  1.6309  1.2048
10142TIP3    H230349   0.601   0.042   1.002 -0.9988 -0.5905 -2.2798
10143TIP3   OH230350   1.224   0.518   5.298 -0.5743  0.0044 -0.8184
10143TIP3    H130351   1.273   0.587   5.342 -0.1858 -0.3010 -0.7705
10143TIP3    H230352   1.196   0.459   5.368 -1.1851  0.2835 -0.8231
10144TIP3   OH230353   6.788   7.376   1.461 -0.0189  0.8504  0.0979
10144TIP3    H130354   6.830   7.462   1.469 -0.8787  1.1633  1.4915
10144TIP3    H230355   6.695   7.396   1.451 -0.0059  0.1266 -1.6427
10145TIP3   OH230356   4.471   7.468   2.636 -0.7697 -0.3777  0.7513
10145TIP3    H130357   4.398   7.413   2.606 -0.6482  0.0444 -0.3382
10145TIP3    H230358   4.455   7.554   2.596  0.4093 -0.3304  0.3470
10146TIP3   OH230359   5.259   7.398   5.277  0.3087  0.4740 -0.4130
10146TIP3    H130360   5.210   7.355   5.346  1.6150 -1.0962 -0.4472
10146TIP3    H230361   5.219   7.366   5.196  1.8602 -1.4199 -0.4574
10147TIP3   OH230362   7.850   1.142   5.231 -0.0418  0.6172  0.9100
10147TIP3    H130363   7.941   1.163   5.250  0.3103  0.7482 -0.8806
10147TIP3    H230364   7.854   1.057   5.188 -0.7294  0.8195  0.4459
10148TIP3   OH230365   4.795   5.363   1.015  0.5372 -0.4231  0.1766
10148TIP3    H130366   4.784   5.354   0.920 -1.2558 -0.3505  0.3535
10148TIP3    H230367   4.839   5.447   1.026  0.8920 -0.4998 -0.5968
10149TIP3   OH230368   7.186   5.207   1.098  0.6386 -0.5189 -0.3167
10149TIP3    H130369   7.147   5.156   1.027  1.7765  1.5279 -2.4950
10149TIP3    H230370   7.147   5.294   1.089  0.8914 -0.2063  1.5062
10150TIP3   OH230371   5.141   5.141   2.793 -0.7321  0.2720  0.2325
10150TIP3    H130372   5.068   5.151   2.855 -0.6128  0.4106  0.3515
10150TIP3    H230373   5.218   5.134   2.849 -0.8516 -1.7437  0.1692
10151TIP3   OH230374   5.092   7.427   3.085  0.0302 -0.1367  0.3108
10151TIP3    H130375   5.038   7.390   3.016 -1.2858  0.7211  0.8631
10151TIP3    H230376   5.109   7.354   3.145 -0.7198 -0.3568  0.2541
10152TIP3   OH230377   6.967   5.395   4.369  0.5196 -0.0658 -0.4630
10152TIP3    H130378   6.994   5.366   4.456  2.1739  1.6971 -0.3378
10152TIP3    H230379   6.924   5.319   4.330  1.9779 -1.6627  0.9649
10153TIP3   OH230380   0.757   0.855   3.610  0.0344  0.0797 -0.4227
10153TIP3    H130381   0.747   0.786   3.544  0.1969  0.3654 -0.7426
10153TIP3    H230382   0.848   0.848   3.639  0.0483  0.1582 -0.4485
10154TIP3   OH230383   6.745   7.844   4.078  0.3633  0.5134 -0.2663
10154TIP3    H130384   6.821   7.790   4.100  0.6651  0.1740 -2.0297
10154TIP3    H230385   6.709   7.803   3.999  0.0237  2.3184 -1.0654
10155TIP3   OH230386   4.866   6.722   4.227  0.5100  0.1199  0.2218
10155TIP3    H130387   4.898   6.750   4.142 -0.6749 -0.4662 -0.4232
10155TIP3    H230388   4.872   6.801   4.282  0.0532  0.8373 -0.7552
10156TIP3   OH230389   4.484   7.639   2.139 -0.7023  0.4360  0.5324
10156TIP3    H130390   4.502   7.561   2.087 -0.2786 -0.0301  1.3548
10156TIP3    H230391   4.538   7.707   2.100 -0.3747  0.0869  0.3741
10157TIP3   OH230392   4.443   7.241   4.223  0.4636  0.8970  0.1740
10157TIP3    H130393   4.528   7.203   4.248  0.7128  0.3321 -1.5236
10157TIP3    H230394   4.379   7.188   4.269  0.8610 -0.9442 -1.3318
10158TIP3   OH230395   5.651   7.710   3.441 -0.5052  0.1863 -0.4933
10158TIP3    H130396   5.740   7.743   3.454 -0.7035  1.0479 -1.3070
10158TIP3    H230397   5.652   7.674   3.353 -1.0484  0.4636 -0.6114
10159TIP3   OH230398   4.921   6.351   2.402 -0.1431  0.1333 -0.1795
10159TIP3    H130399   5.013   6.372   2.383 -0.1521  1.7386  1.3749
10159TIP3    H230400   4.914   6.363   2.497 -1.5519 -1.6583 -0.0460
10160TIP3   OH230401   7.996   0.694   1.401 -0.5751 -0.4133  0.6814
10160TIP3    H130402   7.936   0.760   1.434 -1.0350 -0.0878 -0.8114
10160TIP3    H230403   8.070   0.744   1.366 -1.2954 -0.6256 -1.2027
10161TIP3   OH230404   5.385   6.931   2.459 -0.3295 -0.3024 -0.2067
10161TIP3    H130405   5.471   6.898   2.434  0.3882  1.5741 -0.3311
10161TIP3    H230406   5.333   6.927   2.379  0.2315  0.3357 -0.6105
10162TIP3   OH230407   3.762   8.164   3.243 -0.1755  0.0790 -0.2713
10162TIP3    H130408   3.856   8.149   3.236 -0.1615 -0.2456  0.6260
10162TIP3    H230409   3.744   8.234   3.180  0.5105 -0.4930 -1.1147
10163TIP3   OH230410   5.246   7.776   2.173  0.1900  0.0715  0.2491
10163TIP3    H130411   5.296   7.778   2.091 -0.5235  1.0928 -0.1690
10163TIP3    H230412   5.225   7.868   2.191  1.3498 -0.0237  2.2166
10164TIP3   OH230413   4.284   8.379   1.659  0.1510  0.3979  0.4587
10164TIP3    H130414   4.271   8.289   1.689  0.8566 -0.5291 -1.8867
10164TIP3    H230415   4.361   8.409   1.707 -1.5943  0.6751  3.1583
10165TIP3   OH230416   4.298   6.456   4.140  0.2564 -0.1110 -0.2279
10165TIP3    H130417   4.218   6.489   4.180  0.5188  0.8805 -0.5241
10165TIP3    H230418   4.268   6.398   4.070 -0.2010 -0.1818  0.0273
10166TIP3   OH230419   5.878   6.887   2.784 -0.5790 -0.0795 -0.2202
10166TIP3    H130420   5.884   6.959   2.721  1.3908 -1.0071 -1.1438
10166TIP3    H230421   5.826   6.922   2.856 -0.8625  1.7802 -1.3039
10167TIP3   OH230422   6.804   0.673   3.050 -0.0980  0.4560  0.5116
10167TIP3    H130423   6.818   0.662   2.956  0.0972 -0.5489  0.6551
10167TIP3    H230424   6.873   0.734   3.077  1.4571 -1.2096  0.4485
10168TIP3   OH230425   5.411   8.174   4.417  0.0586 -0.2613 -0.2107
10168TIP3    H130426   5.355   8.138   4.486 -0.3178 -0.9116 -0.8508
10168TIP3    H230427   5.370   8.258   4.394 -0.0431 -0.2316  0.0742
10169TIP3   OH230428   5.682   2.483   2.170 -0.7135 -0.2269  0.7778
10169TIP3    H130429   5.707   2.555   2.228 -2.0549  0.5196  0.4390
10169TIP3    H230430   5.677   2.522   2.083 -1.3414 -0.7419  0.5748
10170TIP3   OH230431   6.848   0.983   3.837  0.5974  0.2461  0.1843
10170TIP3    H130432   6.836   1.010   3.928 -0.7966 -1.1135  0.4321
10170TIP3    H230433   6.875   1.062   3.791  1.2403  0.9561  1.7752
10171TIP3   OH230434   7.049   6.375   3.988  0.4718  0.4549 -0.2435
10171TIP3    H130435   7.053   6.360   3.894  1.0603  1.5112 -0.3878
10171TIP3    H230436   6.956   6.394   4.005  0.3591  0.2327 -0.5934
10172TIP3   OH230437   5.585   7.656   4.733  0.1435 -0.1396  0.3920
10172TIP3    H130438   5.651   7.589   4.718  1.0560  0.6135  0.9473
10172TIP3    H230439   5.510   7.630   4.679  0.7359 -1.2309  0.0955
10173TIP3   OH230440   5.270   5.608   2.840 -0.0750 -0.8763  0.4521
10173TIP3    H130441   5.321   5.665   2.898 -1.2053 -0.4994  1.0970
10173TIP3    H230442   5.326   5.532   2.825  1.3423  0.2774 -0.1978
10174TIP3   OH230443   2.495   7.241   0.694  0.1516  0.1175 -0.1862
10174TIP3    H130444   2.452   7.326   0.689 -0.3233 -0.0709  0.5339
10174TIP3    H230445   2.546   7.234   0.613 -0.5267  0.6961 -0.6605
10175TIP3   OH230446   4.912   7.420   3.776 -0.4799 -0.0052  0.2684
10175TIP3    H130447   4.832   7.470   3.793 -0.5338 -0.6668  2.0410
10175TIP3    H230448   4.980   7.487   3.765 -0.9316  0.5106  0.5857
10176TIP3   OH230449   5.943   7.461   3.488 -0.8033  0.5635 -0.2436
10176TIP3    H130450   6.004   7.453   3.415 -0.5922 -1.7550  0.1450
10176TIP3    H230451   5.926   7.554   3.495  1.4107  1.0943 -1.4268
10177TIP3   OH230452   6.912   8.390   2.363  0.0811 -0.1529 -0.1708
10177TIP3    H130453   6.930   8.297   2.355 -0.5120 -0.4754  1.9316
10177TIP3    H230454   6.816   8.396   2.361  0.1425  0.7239 -3.0854
10178TIP3   OH230455   4.827   7.066   0.661 -0.5067 -0.2290 -0.1316
10178TIP3    H130456   4.756   7.108   0.613 -1.2541 -0.2624  0.9269
10178TIP3    H230457   4.785   6.998   0.713 -0.1189  1.5272  2.5966
10179TIP3   OH230458   3.667   7.041   2.044  0.1955 -0.0444 -0.1888
10179TIP3    H130459   3.668   7.049   2.139  1.5530 -2.0917 -0.0016
10179TIP3    H230460   3.585   7.082   2.017 -0.2174  0.5164  1.8561
10180TIP3   OH230461   5.704   8.301   2.761 -0.1063 -0.2657  0.6885
10180TIP3    H130462   5.739   8.213   2.766  0.6597  0.0144  0.2803
10180TIP3    H230463   5.673   8.310   2.671 -0.7274 -0.3187  0.8913
10181TIP3   OH230464   8.356   1.714   2.970 -0.5481 -0.2347 -0.3398
10181TIP3    H130465   8.446   1.695   2.994 -0.3007  1.5444  0.1664
10181TIP3    H230466   8.318   1.755   3.047 -0.7922  2.1781 -1.7049
10182TIP3   OH230467   5.259   7.893   3.484 -0.3904  0.4634  0.0686
10182TIP3    H130468   5.341   7.898   3.434  0.3473  0.0376  1.2272
10182TIP3    H230469   5.217   7.813   3.453  0.6335 -0.4389  0.9562
10183TIP3   OH230470   5.613   7.279   4.085  1.0207  0.1949 -1.0416
10183TIP3    H130471   5.595   7.264   3.992  1.7150 -1.1119 -0.9779
10183TIP3    H230472   5.686   7.221   4.106  1.1994  0.8396  0.2068
10184TIP3   OH230473   5.706   6.842   4.592  0.5942 -0.1020 -0.4964
10184TIP3    H130474   5.692   6.791   4.513 -0.7679  0.8730 -0.9126
10184TIP3    H230475   5.752   6.920   4.562 -0.3447  0.4926 -0.4221
10185TIP3   OH230476   8.210   1.549   1.183  0.1968  0.7940  0.0384
10185TIP3    H130477   8.121   1.583   1.190  0.5581  1.4118  2.1989
10185TIP3    H230478   8.229   1.513   1.270  1.6830 -0.2757 -0.6938
10186TIP3   OH230479   0.242   0.400   2.807  0.6948  0.1357 -0.1113
10186TIP3    H130480   0.332   0.376   2.783  0.5918 -1.7489  1.2933
10186TIP3    H230481   0.216   0.334   2.872 -1.0834  1.6741  0.7866
10187TIP3   OH230482   7.939   0.315   3.813  0.1414 -0.8093  0.1372
10187TIP3    H130483   7.935   0.305   3.718 -1.3146  0.2247  0.0711
10187TIP3    H230484   8.006   0.382   3.827 -2.1852  1.7669 -0.4262
10188TIP3   OH230485   2.682   0.143   2.181 -0.2998  0.1393  0.4272
10188TIP3    H130486   2.605   0.156   2.126  0.5413  0.2976 -0.7393
10188TIP3    H230487   2.723   0.063   2.148  0.2760  0.2891  0.7538
10189TIP3   OH230488   2.015   0.070   2.441  0.3364  0.2697  0.2259
10189TIP3    H130489   2.110   0.055   2.446  0.2290 -0.2455  0.7320
10189TIP3    H230490   1.981   0.035   2.523 -0.2821  0.5529  0.0879
10190TIP3   OH230491   7.675   7.354   2.150  0.1923  0.1297 -0.1609
10190TIP3    H130492   7.608   7.294   2.117  0.0959  0.1538 -0.0140
10190TIP3    H230493   7.743   7.298   2.186 -0.8151  0.0983  1.7938
10191TIP3   OH230494   5.675   5.892   3.026 -0.1769  0.1454  0.5140
10191TIP3    H130495   5.701   5.982   3.008 -1.9030  0.6281  0.3293
10191TIP3    H230496   5.652   5.892   3.119  0.8972 -0.3716  0.7790
10192TIP3   OH230497   7.093   7.844   2.894 -0.3434 -0.3447  0.5599
10192TIP3    H130498   7.128   7.905   2.960  3.9531 -1.4888 -0.4515
10192TIP3    H230499   7.067   7.900   2.822  1.1559  0.5324  0.6659
10193TIP3   OH230500   2.374   1.111   1.577  0.7852 -0.9829 -0.5558
10193TIP3    H130501   2.390   1.185   1.635 -0.3815 -0.7623 -0.5046
10193TIP3    H230502   2.337   1.043   1.634 -0.1876 -0.8290 -0.9868
10194TIP3   OH230503   3.050   0.924   1.364  0.1413 -0.1168  0.3299
10194TIP3    H130504   3.004   0.976   1.430  0.9538  0.4578  0.4521
10194TIP3    H230505   3.128   0.893   1.410 -0.9071 -2.4647  0.6420
10195TIP3   OH230506   8.160   7.956   1.198 -0.1755  0.1355 -0.3285
10195TIP3    H130507   8.155   7.872   1.245 -0.1064 -0.0995 -0.7411
10195TIP3    H230508   8.069   7.984   1.190 -0.0800  1.0416  1.5010
10196TIP3   OH230509   7.590   8.047   3.356  0.0739 -0.1361  0.0197
10196TIP3    H130510   7.558   8.100   3.429 -0.0399  1.2644 -1.0418
10196TIP3    H230511   7.623   7.967   3.397  1.0763  1.1330  1.7098
10197TIP3   OH230512   5.714   6.817   3.800  0.4945  0.5136  0.0262
10197TIP3    H130513   5.689   6.909   3.805 -0.7711  0.1429  1.0131
10197TIP3    H230514   5.792   6.810   3.855  0.1871  0.8621  0.5079
10198TIP3   OH230515   6.186   7.592   2.609  0.1419  0.6575  0.1835
10198TIP3    H130516   6.221   7.507   2.583 -0.7100  0.4325 -0.2237
10198TIP3    H230517   6.188   7.644   2.529 -3.1798 -0.2638 -0.5695
10199TIP3   OH230518   6.090   7.215   4.077 -0.4106 -0.2364  0.4645
10199TIP3    H130519   6.094   7.235   4.171  0.9074  1.7408  0.0153
10199TIP3    H230520   6.120   7.124   4.071  0.0481 -0.1917  1.8976
10200TIP3   OH230521   2.321   0.129   0.845 -0.0529 -0.0947  0.3190
10200TIP3    H130522   2.232   0.117   0.881 -0.4773 -0.7399 -0.9354
10200TIP3    H230523   2.320   0.082   0.762  0.6807  2.0406 -0.9549
10201TIP3   OH230524   6.963   7.686   2.417  0.0680 -0.6083  0.1203
10201TIP3    H130525   6.995   7.621   2.480 -1.3550  1.1581  2.7705
10201TIP3    H230526   7.032   7.751   2.412  0.3837 -0.9911 -0.5215
10202TIP3   OH230527   4.404   7.016   2.333  0.2172  0.4030 -0.6231
10202TIP3    H130528   4.499   7.018   2.341  0.3384  0.3032 -2.0042
10202TIP3    H230529   4.373   6.987   2.419  1.3794  1.4544  0.1657
10203TIP3   OH230530   8.620   7.800   2.530 -0.0211  0.5747  0.4959
10203TIP3    H130531   8.620   7.761   2.442 -1.3950 -3.8013  2.2988
10203TIP3    H230532   8.708   7.785   2.563 -0.1677  0.1468  0.6978
10204TIP3   OH230533   0.630   1.344   2.451  0.0270 -0.1279 -0.2217
10204TIP3    H130534   0.681   1.415   2.491  0.5971 -0.0949 -0.9879
10204TIP3    H230535   0.552   1.337   2.506 -1.2979  2.8478 -1.5890
10205TIP3   OH230536   0.645   1.113   2.629 -0.1172 -0.6741  0.5544
10205TIP3    H130537   0.712   1.174   2.598 -0.9632  0.1777  0.3803
10205TIP3    H230538   0.564   1.142   2.587 -0.2951 -2.7550 -0.6072
10206TIP3   OH230539   1.207   6.413   2.022 -0.4765 -0.8457 -0.1028
10206TIP3    H130540   1.255   6.428   1.940 -0.2016  0.6649  0.3260
10206TIP3    H230541   1.224   6.321   2.042  0.2484 -0.9805 -1.2391
10207TIP3   OH230542   0.452   1.290   3.507  0.4751  0.4383 -0.6966
10207TIP3    H130543   0.364   1.277   3.470  0.4581  1.7164 -1.1151
10207TIP3    H230544   0.504   1.218   3.470 -0.0367  0.5314 -1.6263
10208TIP3   OH230545   5.340   6.821   1.667 -0.1922  0.0314  0.1796
10208TIP3    H130546   5.310   6.897   1.717 -1.0772 -1.2758  1.6910
10208TIP3    H230547   5.282   6.818   1.591 -0.5722  0.4924  0.4475
10209TIP3   OH230548   7.886   7.015   3.555  0.3618  0.1492  0.5253
10209TIP3    H130549   7.970   7.061   3.543  1.1063 -0.9229  1.5207
10209TIP3    H230550   7.907   6.923   3.539 -0.9906  0.0566 -0.8254
10210TIP3   OH230551   1.576   1.441   2.429  0.4150  0.0944 -0.6537
10210TIP3    H130552   1.580   1.495   2.509  0.3651 -0.6727 -0.1306
10210TIP3    H230553   1.541   1.500   2.363 -0.5290  0.4439  0.1430
10211TIP3   OH230554   8.167   7.284   1.671 -0.0614  0.3824 -0.2221
10211TIP3    H130555   8.190   7.229   1.746  0.6616  0.1016 -0.6511
10211TIP3    H230556   8.225   7.256   1.601 -0.5008  0.8794 -0.7958
10212TIP3   OH230557   7.715   8.236   2.935 -0.5428  0.2225 -0.5057
10212TIP3    H130558   7.713   8.141   2.946 -2.3799  0.3737  0.5239
10212TIP3    H230559   7.678   8.251   2.848 -0.6891  0.0255 -0.4777
10213TIP3   OH230560   0.903   1.108   1.618 -0.1556  0.1050 -0.6688
10213TIP3    H130561   0.811   1.135   1.630 -0.4607 -1.9186  1.8806
10213TIP3    H230562   0.899   1.040   1.551 -0.7229 -0.8910  0.3487
10214TIP3   OH230563   1.475   0.580   3.112 -0.4210  0.1540 -0.3999
10214TIP3    H130564   1.500   0.504   3.059 -2.2152  0.0249 -1.0894
10214TIP3    H230565   1.522   0.569   3.195 -0.4102 -1.5235 -0.6271
10215TIP3   OH230566   8.356   7.631   2.655 -0.9031  0.5921 -0.5521
10215TIP3    H130567   8.349   7.536   2.643  4.2162 -0.2256  1.4398
10215TIP3    H230568   8.393   7.663   2.572  2.1739 -0.0232  0.4998
10216TIP3   OH230569   2.359   0.232   3.352 -0.3504 -0.7368  0.1978
10216TIP3    H130570   2.358   0.171   3.426 -1.9079 -1.5697 -0.4839
10216TIP3    H230571   2.352   0.177   3.274  0.7793  0.1607 -0.5659
10217TIP3   OH230572   0.834   0.990   4.139  0.4925 -0.0886  0.1130
10217TIP3    H130573   0.881   1.025   4.063 -0.8637  0.8366 -0.3365
10217TIP3    H230574   0.854   0.897   4.139 -0.0970 -0.2536 -1.8785
10218TIP3   OH230575   0.645   1.241   1.630 -0.1565  0.0114  0.0041
10218TIP3    H130576   0.571   1.198   1.672 -0.7744  0.7191 -0.3430
10218TIP3    H230577   0.645   1.209   1.540 -0.7773  0.9249 -0.3274
10219TIP3   OH230578   7.770   7.257   2.540  0.3606 -0.6033  0.2125
10219TIP3    H130579   7.808   7.284   2.456 -0.9689 -0.4791 -0.3598
10219TIP3    H230580   7.735   7.170   2.523 -0.1019 -0.4905  0.5879
10220TIP3   OH230581   7.691   7.983   2.884 -0.3024 -0.3802  0.3237
10220TIP3    H130582   7.752   7.915   2.857 -1.5366 -1.5937  0.5388
10220TIP3    H230583   7.622   7.983   2.817 -0.9745 -0.2422  1.0033
10221TIP3   OH230584   8.059   8.025   2.113 -0.4431 -0.8632  0.1684
10221TIP3    H130585   8.143   8.060   2.143 -0.7059  0.2639 -0.3941
10221TIP3    H230586   8.078   7.984   2.029 -0.0324 -2.5609  1.0761
10222TIP3   OH230587   8.644   6.335   2.996 -0.4308  0.1275 -0.1232
10222TIP3    H130588   8.678   6.394   2.928 -0.6012  0.8332  0.3977
10222TIP3    H230589   8.718   6.321   3.054 -0.1916 -0.7444 -0.6291
10223TIP3   OH230590   7.123   5.811   1.097  0.1544  0.1815 -0.0646
10223TIP3    H130591   7.133   5.719   1.072 -0.5941 -0.3739  1.5791
10223TIP3    H230592   7.038   5.837   1.062  0.1542  0.1028 -0.1201
10224TIP3   OH230593   3.040   3.449   6.876 -0.2055 -0.2190 -1.0857
10224TIP3    H130594   2.981   3.520   6.901 -0.1070 -0.4303 -0.2641
10224TIP3    H230595   3.027   3.440   6.781 -1.0084  0.1730 -1.0154
10225TIP3   OH230596   5.982   7.972   4.535 -0.1107  0.1601 -0.1716
10225TIP3    H130597   5.995   8.050   4.482 -1.4903 -0.3946 -1.3570
10225TIP3    H230598   5.892   7.979   4.567 -0.4866 -1.2811 -0.8696
10226TIP3   OH230599   0.623   0.598   1.847  0.0560 -0.2503  0.8377
10226TIP3    H130600   0.547   0.553   1.809 -0.6120 -0.1814  2.0903
10226TIP3    H230601   0.656   0.653   1.775 -1.6382  0.4347  0.5639
10227TIP3   OH230602   0.932   0.547   1.600  0.1389 -0.2545  0.0024
10227TIP3    H130603   0.865   0.489   1.636  0.0334  1.4601  2.7156
10227TIP3    H230604   1.002   0.546   1.665  0.4307  2.1018 -0.2341
10228TIP3   OH230605   8.595   6.412   3.960  0.1914 -0.2642  0.1772
10228TIP3    H130606   8.569   6.320   3.950  0.1713  0.0168 -3.2543
10228TIP3    H230607   8.585   6.448   3.872  0.2257  3.0381  1.4847
10229TIP3   OH230608   8.710   5.655   1.052  0.0838  0.1534 -0.6138
10229TIP3    H130609   8.718   5.707   0.973 -1.2812  2.8936  0.9701
10229TIP3    H230610   8.793   5.669   1.098  0.3167 -0.3157 -0.8820
10230TIP3   OH230611   6.277   6.983   4.080 -0.2559  0.5596  0.1037
10230TIP3    H130612   6.211   6.915   4.097 -1.5954  1.7027 -0.4219
10230TIP3    H230613   6.352   6.957   4.133 -1.5834 -0.1045  1.7146
10231TIP3   OH230614   3.371   4.341   7.162  0.4512  0.4106  0.0702
10231TIP3    H130615   3.431   4.269   7.144  1.9532  0.9000  2.8449
10231TIP3    H230616   3.360   4.385   7.078  3.4456 -0.0950 -0.6325
10232TIP3   OH230617   5.527   8.092   2.107  0.3368 -0.1197 -0.1563
10232TIP3    H130618   5.522   8.138   2.023 -1.8673 -1.2582 -0.6912
10232TIP3    H230619   5.436   8.089   2.137  1.0038 -0.5271  1.8396
10233TIP3   OH230620   7.711   6.762   0.797  0.3648  0.1768 -0.5195
10233TIP3    H130621   7.631   6.806   0.768 -0.0265 -1.2821 -1.7052
10233TIP3    H230622   7.757   6.828   0.848 -0.6878  1.6475 -1.4271
10234TIP3   OH230623   6.742   7.870   2.377 -0.1498  0.3921  0.3990
10234TIP3    H130624   6.804   7.797   2.368  0.1525  0.7019 -0.0359
10234TIP3    H230625   6.657   7.829   2.364  0.1102  0.3676 -1.4231
10235TIP3   OH230626   7.865   5.742   2.135  0.3775 -0.8217  0.0045
10235TIP3    H130627   7.809   5.740   2.212  1.2364 -2.2118  0.6040
10235TIP3    H230628   7.954   5.743   2.169  0.7654 -1.4718 -0.9694
10236TIP3   OH230629   0.993   0.894   2.639 -0.3663 -0.2070  0.4521
10236TIP3    H130630   1.030   0.920   2.555  0.1704  1.8122  1.2746
10236TIP3    H230631   1.035   0.952   2.703 -0.9215 -1.5541  2.0855
10237TIP3   OH230632   8.029   7.549   2.270  0.2022 -0.0571  1.0264
10237TIP3    H130633   7.934   7.544   2.259  0.4095 -0.0828 -1.1611
10237TIP3    H230634   8.056   7.615   2.205  1.5722  0.6811  2.3320
10238TIP3   OH230635   8.288   6.556   3.007  0.5384 -0.2681 -0.0286
10238TIP3    H130636   8.366   6.605   2.980  0.0662  0.3972 -0.1981
10238TIP3    H230637   8.255   6.516   2.926  0.5423 -0.3179 -0.0056
10239TIP3   OH230638   5.418   7.281   1.002 -0.8001  0.2697 -0.3468
10239TIP3    H130639   5.458   7.327   0.929  1.0726  0.9558  1.0620
10239TIP3    H230640   5.392   7.351   1.063 -1.5767 -0.3242  0.0088
10240TIP3   OH230641   7.397   7.561   2.421 -0.1044 -0.2810 -0.0907
10240TIP3    H130642   7.382   7.606   2.504  1.6715 -0.4044  0.3108
10240TIP3    H230643   7.415   7.470   2.446  0.4210 -0.3193 -0.5956
10241TIP3   OH230644   8.281   0.170   3.242  0.2273 -0.5221 -0.0245
10241TIP3    H130645   8.303   0.253   3.285  0.3420 -0.1353 -0.8099
10241TIP3    H230646   8.311   0.102   3.303  1.8512  0.0017 -0.2138
10242TIP3   OH230647   7.991   6.826   1.473 -0.1849 -0.1783  0.1011
10242TIP3    H130648   8.043   6.874   1.409  2.5312 -1.8168  1.0317
10242TIP3    H230649   7.930   6.775   1.420 -1.1248  1.9862 -0.9799
10243TIP3   OH230650   8.072   8.005   4.083  0.1638 -0.6330  0.0937
10243TIP3    H130651   8.047   7.963   4.164  0.0120  1.0968  0.9645
10243TIP3    H230652   8.144   8.064   4.107 -0.4435  0.5280 -0.8514
10244TIP3   OH230653   1.537   1.206   2.276  0.1583 -0.7844  0.2974
10244TIP3    H130654   1.469   1.251   2.224  0.0986 -1.0466  0.1489
10244TIP3    H230655   1.573   1.275   2.332 -1.4085 -0.9966  1.6111
10245TIP3   OH230656   6.089   5.603   1.206  0.2811  0.4264  0.1450
10245TIP3    H130657   6.154   5.654   1.157 -0.0762 -2.5988 -3.7280
10245TIP3    H230658   6.141   5.548   1.264  1.0618 -0.2352 -1.1685
10246TIP3   OH230659   7.301   7.338   2.623  0.1812  0.0557 -0.4734
10246TIP3    H130660   7.378   7.323   2.569 -0.8997 -0.9898 -1.7433
10246TIP3    H230661   7.236   7.276   2.591 -0.7140 -0.1131  1.5755
10247TIP3   OH230662   7.448   6.657   2.243 -0.2345  0.5498 -0.6728
10247TIP3    H130663   7.449   6.724   2.311 -0.2586 -0.3298  0.2123
10247TIP3    H230664   7.470   6.576   2.289  0.1947  0.0179 -1.7985
10248TIP3   OH230665   0.044   8.337   3.245  0.3812  0.4307 -0.0093
10248TIP3    H130666  -0.039   8.358   3.288  0.2334  1.6543 -0.8736
10248TIP3    H230667   0.025   8.344   3.152  1.2640 -0.0361 -0.2276
10249TIP3   OH230668   8.043   6.622   1.755  0.2329 -0.3147 -0.3300
10249TIP3    H130669   8.014   6.566   1.827  0.2520 -0.3239 -0.3293
10249TIP3    H230670   8.009   6.709   1.776 -1.8703 -0.8067 -1.5596
10250TIP3   OH230671   7.392   0.861   4.608  0.4927 -0.6460 -0.2297
10250TIP3    H130672   7.297   0.855   4.608  0.3643  1.0348  0.6177
10250TIP3    H230673   7.412   0.927   4.541  1.1155 -1.7212 -1.1074
10251TIP3   OH230674   5.624   8.360   2.488  1.0131  0.0043  0.2530
10251TIP3    H130675   5.626   8.296   2.417  1.6568 -0.9740  1.1145
10251TIP3    H230676   5.659   8.440   2.450  2.0617 -0.7204 -0.3481
10252TIP3   OH230677   6.185   8.049   1.337 -0.3565  0.3545  0.5720
10252TIP3    H130678   6.177   8.001   1.255  1.6663 -0.7320  0.9607
10252TIP3    H230679   6.120   8.010   1.395  0.4356 -1.0876  0.4938
10253TIP3   OH230680   2.764   0.330   3.086  0.4055 -0.0359 -0.0675
10253TIP3    H130681   2.855   0.324   3.058  0.1914 -0.1628 -0.7484
10253TIP3    H230682   2.729   0.242   3.074 -0.0771  0.2441 -0.7780
10254TIP3   OH230683   1.694   1.013   4.790 -0.8734  0.5917  0.5374
10254TIP3    H130684   1.656   1.097   4.764 -1.2268  0.5864  1.0382
10254TIP3    H230685   1.684   0.957   4.712 -1.9772  0.5577  0.6921
10255TIP3   OH230686   2.327   1.686   3.029 -0.1197  0.0026  0.4769
10255TIP3    H130687   2.385   1.731   3.090  2.1425 -0.1572 -1.4677
10255TIP3    H230688   2.358   1.596   3.028 -3.2739 -1.1717  2.7393
10256TIP3   OH230689   6.949   6.377   1.261  0.6655 -0.2116  0.1612
10256TIP3    H130690   7.028   6.369   1.207  1.0453 -1.1680  0.8349
10256TIP3    H230691   6.973   6.336   1.344  0.2710  1.7430  1.2651
10257TIP3   OH230692   0.358   7.082   2.808 -0.1943  0.2048  0.9338
10257TIP3    H130693   0.351   7.139   2.731 -1.0630  0.5318  1.2510
10257TIP3    H230694   0.434   7.027   2.790  0.2867  1.0492  0.3453
10258TIP3   OH230695   7.888   8.280   2.639 -0.0639 -0.5189  0.4099
10258TIP3    H130696   7.794   8.260   2.639 -0.1242 -0.2554  1.4993
10258TIP3    H230697   7.930   8.196   2.623 -0.4193 -1.0109  1.9765
10259TIP3   OH230698   7.839   6.948   2.846  0.7205 -0.2664 -0.1530
10259TIP3    H130699   7.776   6.877   2.840 -1.1987  1.4352 -0.5383
10259TIP3    H230700   7.900   6.933   2.774  0.3673 -1.5348 -0.1963
10260TIP3   OH230701   6.066   7.122   3.059 -0.6034  0.3116 -0.5979
10260TIP3    H130702   6.119   7.094   3.134 -1.9903 -0.4759  0.1249
10260TIP3    H230703   6.129   7.142   2.990  0.6474  0.0424  0.4502
10261TIP3   OH230704  -0.017   7.629   2.533 -0.0673 -0.2343 -0.2347
10261TIP3    H130705  -0.020   7.582   2.449  1.3647 -0.6020 -0.1028
10261TIP3    H230706   0.055   7.691   2.523 -0.6938  0.5729  0.2893
10262TIP3   OH230707   7.813   8.269   3.229 -0.4812 -0.4185  0.1727
10262TIP3    H130708   7.773   8.262   3.142 -1.6118  0.4260  0.6142
10262TIP3    H230709   7.757   8.216   3.286 -1.1794  1.0318  0.8617
10263TIP3   OH230710   6.322   8.259   1.053 -0.1867 -0.2481  0.5797
10263TIP3    H130711   6.392   8.195   1.044  0.3722  0.3193  0.7914
10263TIP3    H230712   6.365   8.343   1.039 -1.2397 -0.0167 -1.4274
10264TIP3   OH230713   5.645   8.053   3.524 -0.8075  0.1419 -0.3827
10264TIP3    H130714   5.606   7.981   3.574  0.1143 -0.7729 -0.9719
10264TIP3    H230715   5.609   8.044   3.436 -0.6396  0.3650 -0.4748
10265TIP3   OH230716   6.606   6.882   2.312 -1.1401  0.2824 -0.2061
10265TIP3    H130717   6.523   6.914   2.346 -0.8644 -0.0807  0.8093
10265TIP3    H230718   6.626   6.804   2.364 -0.9106 -0.5024 -1.4545
10266TIP3   OH230719   2.749   1.501   3.331 -0.0639  0.2377 -0.3089
10266TIP3    H130720   2.655   1.499   3.316 -0.1631 -0.1140  0.3536
10266TIP3    H230721   2.761   1.465   3.419  0.5534  1.8062  0.2753
10267TIP3   OH230722   5.969   7.918   2.955  0.0671 -0.2919  0.8203
10267TIP3    H130723   5.973   7.961   3.040  1.9412  0.0303  0.5941
10267TIP3    H230724   6.038   7.852   2.958  0.2694 -0.1599 -0.5044
10268TIP3   OH230725   6.949   7.129   1.597  0.0365 -0.0249 -0.4213
10268TIP3    H130726   6.907   7.099   1.516  0.2218 -0.2941 -0.4160
10268TIP3    H230727   6.894   7.202   1.626  0.0779  0.1926 -0.8874
10269TIP3   OH230728   7.419   0.634   1.828 -0.1561  0.0263  0.1072
10269TIP3    H130729   7.465   0.592   1.755 -0.3982 -0.4770  0.2427
10269TIP3    H230730   7.384   0.715   1.791 -0.3206 -0.2507 -0.3457
10270TIP3   OH230731   8.573   0.600   3.021 -0.0511  0.1923  0.1703
10270TIP3    H130732   8.486   0.568   2.998  0.1030 -0.5344  0.5892
10270TIP3    H230733   8.633   0.532   2.990  0.4420  1.1347 -0.9791
10271TIP3   OH230734   6.489   7.730   2.449 -0.4296 -0.7577 -0.0990
10271TIP3    H130735   6.523   7.793   2.512 -1.1089  0.2513 -0.7146
10271TIP3    H230736   6.399   7.715   2.476 -0.2709 -1.4517  0.0372
10272TIP3   OH230737   7.053   6.129   4.121 -0.5589 -0.0448  0.2668
10272TIP3    H130738   6.992   6.081   4.065 -1.4818 -1.9543  2.7643
10272TIP3    H230739   7.043   6.220   4.096  0.9823 -1.0327 -4.3945
10273TIP3   OH230740   6.951   7.630   2.827 -0.1539  0.2513 -0.3233
10273TIP3    H130741   7.000   7.712   2.819  0.8256 -0.2483  0.3861
10273TIP3    H230742   7.007   7.565   2.783 -1.7727  0.2825 -2.5011
10274TIP3   OH230743   3.528   2.936   6.375  0.0611 -0.3695 -0.4302
10274TIP3    H130744   3.452   2.989   6.352 -2.6267 -3.0431  1.7753
10274TIP3    H230745   3.570   2.983   6.446 -1.5811 -0.5485  0.6794
10275TIP3   OH230746   8.856   7.074   4.216  1.0229 -0.2943  0.0584
10275TIP3    H130747   8.770   7.044   4.244  0.1900 -1.8060 -3.7732
10275TIP3    H230748   8.850   7.170   4.220  0.3633 -0.4409  3.0736
10276TIP3   OH230749   2.445   0.496   3.335  0.2328 -0.1314  0.5599
10276TIP3    H130750   2.491   0.515   3.253 -1.4058  1.9853  0.0895
10276TIP3    H230751   2.392   0.419   3.314  3.1299 -2.3306  0.9840
10277TIP3   OH230752   2.166   1.280   3.551  0.2064 -0.0504 -0.6756
10277TIP3    H130753   2.216   1.264   3.631 -0.7096  0.7701  0.0792
10277TIP3    H230754   2.136   1.371   3.560  1.0581  0.4408 -2.4860
10278TIP3   OH230755   2.034   0.441   3.276  0.1064 -0.1084 -0.4434
10278TIP3    H130756   2.041   0.364   3.331 -0.0326  0.1549 -0.0522
10278TIP3    H230757   1.953   0.429   3.226  0.3787 -0.4779 -0.7951
10279TIP3   OH230758   2.706   0.601   2.983 -0.3421  0.1182 -0.4487
10279TIP3    H130759   2.641   0.649   3.034 -0.7784 -0.4723 -0.4479
10279TIP3    H230760   2.726   0.524   3.035 -0.4981 -0.2855 -0.9797
10280TIP3   OH230761   7.320   7.731   2.716 -0.0925 -0.2448  0.0676
10280TIP3    H130762   7.381   7.695   2.781 -0.1671  0.2578  0.4207
10280TIP3    H230763   7.261   7.786   2.768  0.1265  0.5211 -0.4963
10281TIP3   OH230764   6.680   6.707   1.603 -0.2988  0.0624  0.1154
10281TIP3    H130765   6.700   6.761   1.679 -3.5239  0.8574  0.4437
10281TIP3    H230766   6.757   6.717   1.547  1.5474  0.5322  2.6304
10282TIP3   OH230767   6.671   8.047   2.045 -0.0696  0.3111  0.2395
10282TIP3    H130768   6.623   8.066   2.126 -0.8841  0.0876 -0.1771
10282TIP3    H230769   6.646   7.957   2.024  0.7999  0.0779  0.1869
10283TIP3   OH230770   3.181   0.506   3.473  0.1616  0.4644 -0.3931
10283TIP3    H130771   3.093   0.546   3.474  0.1359  0.5967 -2.8854
10283TIP3    H230772   3.239   0.578   3.448  0.6805 -0.1073 -0.8454
10284TIP3   OH230773   5.983   7.532   4.147  0.4454  0.0260  0.0585
10284TIP3    H130774   5.964   7.503   4.236 -0.9050 -0.8606 -0.5017
10284TIP3    H230775   6.063   7.484   4.124 -0.7260 -1.9026 -0.1704
10285TIP3   OH230776   7.664   6.841   4.141 -0.9575  0.3346  0.3220
10285TIP3    H130777   7.729   6.788   4.095 -0.1459  0.4215  1.3636
10285TIP3    H230778   7.595   6.855   4.076  0.8409  1.6863 -1.3442
10286TIP3   OH230779   2.519   0.021   2.811  0.1234  0.2330  0.4458
10286TIP3    H130780   2.556   0.007   2.898  1.0119 -0.9339 -0.0979
10286TIP3    H230781   2.593   0.052   2.758 -0.3758  0.8083  0.0739
10287TIP3   OH230782   1.281   1.092   1.665 -0.6239 -0.5195 -0.2935
10287TIP3    H130783   1.327   1.018   1.704 -1.0240 -0.7434 -0.2396
10287TIP3    H230784   1.206   1.107   1.724 -0.1547  0.3779  0.0848
10288TIP3   OH230785   7.702   5.906   1.527 -0.1525 -0.4064 -0.2281
10288TIP3    H130786   7.630   5.926   1.586  0.0401 -0.3900  0.0009
10288TIP3    H230787   7.765   5.859   1.581 -0.4901 -1.4105 -0.6997
10289TIP3   OH230788   8.718   0.376   2.939  0.7780  0.0723  0.0842
10289TIP3    H130789   8.716   0.360   3.033 -0.0796  0.1495  0.0889
10289TIP3    H230790   8.763   0.300   2.902 -2.4239 -1.9823  0.1868
10290TIP3   OH230791   5.084   8.088   3.626 -0.3772 -0.6721 -0.2929
10290TIP3    H130792   5.074   8.046   3.711 -0.1475 -1.0156 -0.4340
10290TIP3    H230793   5.140   8.028   3.576 -1.8447 -1.2708 -1.2438
10291TIP3   OH230794   8.908   0.474   3.981 -0.1254 -0.1508 -0.1991
10291TIP3    H130795   8.857   0.523   4.046 -1.1861  1.0282 -1.8656
10291TIP3    H230796   8.908   0.531   3.903  0.5293 -1.8252 -1.4554
10292TIP3   OH230797   7.176   7.487   3.248  0.2981 -0.0624 -0.0800
10292TIP3    H130798   7.258   7.455   3.213  0.5760 -0.3074  0.7820
10292TIP3    H230799   7.182   7.582   3.240  0.7404 -0.0703  0.1535
10293TIP3   OH230800   3.170   6.181   2.734  0.0322  0.0019  0.0388
10293TIP3    H130801   3.094   6.188   2.791  0.8101 -0.7365  1.1882
10293TIP3    H230802   3.160   6.253   2.671 -1.2350  0.3357  0.6174
10294TIP3   OH230803   0.966   0.820   1.802  0.0556  0.2930 -0.6245
10294TIP3    H130804   0.907   0.801   1.730 -2.4351 -1.8857  1.8808
10294TIP3    H230805   0.975   0.738   1.849 -1.5631  2.4772  3.7924
10295TIP3   OH230806   5.687   5.313   5.023  0.0315 -0.3739 -0.1868
10295TIP3    H130807   5.743   5.264   5.083  0.7434 -0.6034 -1.0353
10295TIP3    H230808   5.688   5.262   4.942 -0.8566 -0.0216 -0.4247
10296TIP3   OH230809   1.324   2.957   3.570 -0.3576 -0.1224 -0.0237
10296TIP3    H130810   1.400   3.001   3.608  0.0342 -1.2493  0.5251
10296TIP3    H230811   1.269   2.934   3.645 -0.1715 -1.2698 -0.2269
10297TIP3   OH230812   0.245   8.216   1.060  0.2938  0.6846  0.2185
10297TIP3    H130813   0.294   8.257   0.989 -0.6966  3.2916  1.0050
10297TIP3    H230814   0.167   8.180   1.017  1.4634 -0.9691 -0.5699
10298TIP3   OH230815   8.312   6.499   1.805 -0.1661 -0.6403 -0.2122
10298TIP3    H130816   8.252   6.556   1.757 -0.0842 -0.7418 -0.4350
10298TIP3    H230817   8.255   6.435   1.848 -0.3359  0.1576  0.7951
10299TIP3   OH230818   7.225   7.550   2.187 -0.0311  0.3111 -0.0858
10299TIP3    H130819   7.265   7.541   2.273 -3.3943  0.7042  1.6007
10299TIP3    H230820   7.209   7.644   2.177  0.3687  0.2766 -1.1594
10300TIP3   OH230821   0.423   5.546   2.756 -0.2570 -0.8347 -0.0298
10300TIP3    H130822   0.371   5.555   2.677 -1.3460 -0.6332  0.7091
10300TIP3    H230823   0.420   5.632   2.798  1.4621 -0.5434 -0.4623
10301TIP3   OH230824   8.368   7.489   4.198 -0.1326  0.8884  0.2263
10301TIP3    H130825   8.395   7.414   4.145 -1.4827  1.9270 -2.0178
10301TIP3    H230826   8.428   7.559   4.171 -2.4441  2.1315 -1.9261
10302TIP3   OH230827   5.349   7.616   3.418 -0.0208 -0.3561 -0.2772
10302TIP3    H130828   5.369   7.582   3.331  0.0297  0.6511 -0.6597
10302TIP3    H230829   5.427   7.665   3.443 -0.3381 -0.0099  0.0231
10303TIP3   OH230830   6.710   6.313   1.927  0.0250  0.2553  0.3636
10303TIP3    H130831   6.800   6.306   1.961  0.0977  1.4856  0.4520
10303TIP3    H230832   6.713   6.385   1.864 -0.5457 -0.7692 -0.8604
10304TIP3   OH230833   8.341   7.642   3.780 -0.2858 -0.1404  0.7068
10304TIP3    H130834   8.343   7.635   3.685  0.3796  0.6466  0.6593
10304TIP3    H230835   8.412   7.586   3.810  0.1468  0.3939  0.6878
10305TIP3   OH230836   0.627   5.993   2.885 -0.1431  0.4233  0.2826
10305TIP3    H130837   0.709   6.041   2.892  0.8805 -1.2698  0.2388
10305TIP3    H230838   0.588   6.000   2.972 -0.1654  1.5827  0.1894
10306TIP3   OH230839   1.516   5.919   1.599  0.2821  0.1335 -0.3057
10306TIP3    H130840   1.508   5.832   1.561 -1.8935  0.4230 -0.6060
10306TIP3    H230841   1.425   5.951   1.605  1.0202  2.2639  0.0316
10307TIP3   OH230842   6.444   6.282   1.052 -0.2779 -0.6552 -0.0487
10307TIP3    H130843   6.475   6.345   1.117 -1.0886 -0.6775  0.3697
10307TIP3    H230844   6.477   6.198   1.083  1.7095 -0.3163 -1.1820
10308TIP3   OH230845   1.807   0.628   3.003 -0.3702  0.2850 -0.5224
10308TIP3    H130846   1.732   0.641   2.946 -0.8973  0.5240  0.2137
10308TIP3    H230847   1.796   0.541   3.041 -0.6789  0.6130  0.1608
10309TIP3   OH230848   6.668   6.741   2.080  0.0888 -0.0197 -0.5626
10309TIP3    H130849   6.653   6.777   2.167  0.7535  0.6228 -0.7141
10309TIP3    H230850   6.611   6.664   2.076  0.7991 -0.6292  0.8137
10310TIP3   OH230851   0.509   0.964   3.019  0.0857  0.3363 -0.0353
10310TIP3    H130852   0.592   0.988   2.979  0.6834  0.8227  1.4710
10310TIP3    H230853   0.442   0.999   2.960  0.9571  1.7883 -0.1683
10311TIP3   OH230854   0.712   1.193   3.259  0.1210 -0.5677  0.1440
10311TIP3    H130855   0.678   1.195   3.170 -0.3303  0.9001  0.3339
10311TIP3    H230856   0.642   1.153   3.311  0.3636 -1.3721 -0.1485
10312TIP3   OH230857   1.494   1.143   3.924 -0.1782 -0.0055  0.0081
10312TIP3    H130858   1.556   1.073   3.906 -0.2435  0.0743 -0.5153
10312TIP3    H230859   1.431   1.104   3.985 -1.2459 -0.9567 -1.6686
10313TIP3   OH230860   8.875   7.331   2.841 -0.1451  0.2784 -0.0709
10313TIP3    H130861   8.860   7.415   2.798  1.2005  1.0398  0.9247
10313TIP3    H230862   8.820   7.335   2.920  1.0078  0.8111  0.7117
10314TIP3   OH230863   2.048   1.293   6.456 -0.4163 -0.1127  0.0611
10314TIP3    H130864   2.075   1.207   6.423  2.7756  0.4408  1.0740
10314TIP3    H230865   2.017   1.340   6.379 -0.2311 -1.4502 -0.8457
10315TIP3   OH230866   3.617   6.347   0.492 -0.0210  0.0267  0.5456
10315TIP3    H130867   3.610   6.406   0.417 -1.6268  2.0076  2.2019
10315TIP3    H230868   3.527   6.335   0.523  0.5306 -1.3999  1.6745
10316TIP3   OH230869   5.501   5.852   1.370  0.2360  0.1968  0.0803
10316TIP3    H130870   5.410   5.820   1.375  0.5970 -0.6528  1.5142
10316TIP3    H230871   5.496   5.943   1.398 -0.3996  0.5905 -1.3126
10317TIP3   OH230872   0.193   0.923   6.634 -0.2084  0.4054  0.1256
10317TIP3    H130873   0.220   1.004   6.591 -0.4080  1.0373  1.1684
10317TIP3    H230874   0.156   0.951   6.717 -0.9093 -0.7089  0.2091
10318TIP3   OH230875   1.812   0.596   6.907 -0.4702 -0.1942 -0.3526
10318TIP3    H130876   1.754   0.668   6.885 -1.5262 -0.9867 -0.2244
10318TIP3    H230877   1.763   0.517   6.881  0.5739 -0.8707 -0.3135
10319TIP3   OH230878   4.828   5.583   1.622  0.1019 -0.1819 -0.2423
10319TIP3    H130879   4.872   5.506   1.586  0.4713  0.3027 -0.8108
10319TIP3    H230880   4.875   5.602   1.703 -0.2637 -0.8114  0.1309
10320TIP3   OH230881   0.789   0.498   5.448 -0.2186 -0.1544  0.4162
10320TIP3    H130882   0.808   0.533   5.534  1.1317 -0.4893  0.2576
10320TIP3    H230883   0.707   0.449   5.460 -1.6142  2.2240  0.8315
10321TIP3   OH230884   6.929   7.581   1.144 -0.1917  0.4044 -0.1593
10321TIP3    H130885   6.945   7.550   1.055  1.5812 -1.2528  0.7203
10321TIP3    H230886   6.852   7.533   1.173  0.5555 -0.7441 -0.0219
10322TIP3   OH230887   6.862   5.666   1.795 -0.3537  0.0128 -0.2740
10322TIP3    H130888   6.785   5.705   1.836  0.4264  0.2815  0.9587
10322TIP3    H230889   6.833   5.580   1.766 -1.3801  0.4975 -0.7020
10323TIP3   OH230890   0.285   1.580   5.386 -0.6515 -0.0871 -0.2958
10323TIP3    H130891   0.362   1.539   5.346 -0.3958 -1.6943  1.7888
10323TIP3    H230892   0.311   1.670   5.401  0.9380 -0.6706  0.5888
10324TIP3   OH230893   5.110   4.562   1.647 -0.2231 -0.3429 -0.6093
10324TIP3    H130894   5.122   4.570   1.552  1.2394 -2.0060 -0.6038
10324TIP3    H230895   5.154   4.638   1.684  1.6253 -1.1341 -1.1474
10325TIP3   OH230896   4.345   4.109   0.181 -0.0763 -0.4538  0.0560
10325TIP3    H130897   4.286   4.184   0.194  2.5134  1.5208  0.7489
10325TIP3    H230898   4.389   4.127   0.098 -0.1308 -1.7241 -0.2620
10326TIP3   OH230899   6.510   3.751   2.217 -0.2409  0.1437  0.6948
10326TIP3    H130900   6.494   3.766   2.124 -0.0229 -0.4389  0.5622
10326TIP3    H230901   6.497   3.657   2.229 -1.8294  0.4608  1.5634
10327TIP3   OH230902   5.106   4.686   0.233  0.4394 -0.1025  0.0922
10327TIP3    H130903   5.013   4.705   0.246 -0.3127 -2.3917 -1.4948
10327TIP3    H230904   5.134   4.749   0.167  0.2093  1.0411  1.0643
10328TIP3   OH230905   4.041   6.504   0.415  0.6657 -0.2922  0.2494
10328TIP3    H130906   3.990   6.426   0.393 -1.5339  0.9536  0.8128
10328TIP3    H230907   4.034   6.513   0.510 -0.7378  1.6629 -0.0026
10329TIP3   OH230908   4.479   2.985   1.120 -0.4151 -0.1844 -0.6783
10329TIP3    H130909   4.400   2.938   1.145  0.4057 -0.4699  1.4470
10329TIP3    H230910   4.474   3.068   1.166  1.0607 -0.6629  0.3770
10330TIP3   OH230911   2.984   1.742   6.480 -0.2260 -0.0275  0.4529
10330TIP3    H130912   2.992   1.794   6.400  3.2408  1.0054  1.3752
10330TIP3    H230913   2.890   1.738   6.498 -0.8446  2.1231 -2.0862
10331TIP3   OH230914   1.009   1.514   5.901 -0.1664 -0.1010 -0.0425
10331TIP3    H130915   0.995   1.602   5.935 -1.0161  0.2893 -1.3594
10331TIP3    H230916   1.095   1.518   5.858  0.2795 -0.2216  0.8232
10332TIP3   OH230917   0.677   0.866   6.025  1.0778 -0.4421  0.7016
10332TIP3    H130918   0.751   0.806   6.033  2.5086  1.2353  0.3430
10332TIP3    H230919   0.715   0.946   5.988 -1.0571  0.1674 -0.2440
10333TIP3   OH230920   6.031   4.237   1.848  0.8709 -0.4644 -0.2124
10333TIP3    H130921   5.949   4.222   1.802  0.8108 -0.8487  0.0162
10333TIP3    H230922   6.006   4.284   1.928  0.6028 -2.4960  0.9354
10334TIP3   OH230923   1.207   1.617   5.746  0.6989 -0.2281  0.0953
10334TIP3    H130924   1.134   1.606   5.685  0.0447 -0.0865  0.8471
10334TIP3    H230925   1.266   1.678   5.702 -1.1443  2.1221  0.8355
10335TIP3   OH230926   0.597   1.522   6.084 -0.3090 -0.1441  0.3115
10335TIP3    H130927   0.628   1.434   6.105  0.0668 -0.1645 -0.3225
10335TIP3    H230928   0.527   1.508   6.019 -0.1351  0.0325  0.0853
10336TIP3   OH230929   0.400   2.735   6.768 -0.1405 -0.2795 -1.0724
10336TIP3    H130930   0.444   2.812   6.731 -0.0266 -0.4103 -1.2120
10336TIP3    H230931   0.398   2.752   6.862  1.6262 -0.9743 -0.8732
10337TIP3   OH230932   2.271   0.650   7.080  0.1364  0.1033 -0.7588
10337TIP3    H130933   2.198   0.610   7.031  0.6415 -2.1657  0.2784
10337TIP3    H230934   2.341   0.585   7.074  1.7265  1.8045 -0.8184
10338TIP3   OH230935   4.064   5.434   2.897  0.1053 -0.0922 -0.1339
10338TIP3    H130936   4.136   5.492   2.872 -0.2060  0.5714  0.5016
10338TIP3    H230937   3.998   5.449   2.830  0.3488 -0.3122 -0.4245
10339TIP3   OH230938   3.759   1.400   4.729 -0.4738 -0.0667 -0.1770
10339TIP3    H130939   3.794   1.389   4.641  2.3370  0.2296  0.8277
10339TIP3    H230940   3.749   1.494   4.740 -2.9788 -0.2184 -0.9327
10340TIP3   OH230941   4.599   5.998   1.514 -0.0753 -0.3670  0.5033
10340TIP3    H130942   4.565   5.960   1.595 -1.1170  1.2566  0.8604
10340TIP3    H230943   4.604   6.092   1.532  1.4065 -0.2045 -0.7125
10341TIP3   OH230944   5.977   6.414   1.250  0.1407 -0.3847  0.3268
10341TIP3    H130945   5.982   6.507   1.271 -0.2681 -0.0840 -0.8353
10341TIP3    H230946   5.883   6.395   1.245  0.1769 -0.1237 -2.3949
10342TIP3   OH230947   5.372   2.905   1.274  0.2539  0.6386 -0.3447
10342TIP3    H130948   5.345   2.959   1.200 -1.1248  2.0317  1.1356
10342TIP3    H230949   5.383   2.967   1.346  1.0938 -0.7509  0.7447
10343TIP3   OH230950   5.744   4.011   0.378  0.5109  0.2076 -0.0866
10343TIP3    H130951   5.817   3.977   0.430  0.3590 -1.8250 -1.1485
10343TIP3    H230952   5.766   4.103   0.363  3.4713 -0.6465 -1.3836
10344TIP3   OH230953   5.179   5.050   1.669 -0.1024  0.3173 -0.7455
10344TIP3    H130954   5.127   5.009   1.600  1.8357  1.1102 -2.7296
10344TIP3    H230955   5.269   5.045   1.638  0.8959  0.2780  1.9621
10345TIP3   OH230956   4.599   1.543   6.757  0.6196 -0.4964 -0.7462
10345TIP3    H130957   4.693   1.551   6.773  0.5917  0.7286 -1.0664
10345TIP3    H230958   4.561   1.525   6.842  0.8143  2.4271  0.0098
10346TIP3   OH230959   4.363   6.609   1.154  0.3133 -0.0582 -0.2836
10346TIP3    H130960   4.336   6.517   1.148 -0.2184  0.1847 -1.8325
10346TIP3    H230961   4.282   6.656   1.174  0.4543  0.1493 -0.2078
10347TIP3   OH230962   3.725   5.960   1.511  0.0357  0.1221 -0.1433
10347TIP3    H130963   3.650   5.962   1.451 -0.7910  0.0143  0.8725
10347TIP3    H230964   3.775   6.038   1.489  0.6078 -0.7494 -2.0551
10348TIP3   OH230965   4.246   4.337   0.460  0.1421  0.2817  0.1273
10348TIP3    H130966   4.336   4.333   0.491 -0.2102  2.4452  1.5139
10348TIP3    H230967   4.253   4.378   0.373  0.4815  0.7071  0.3508
10349TIP3   OH230968   3.853   2.863   5.249  0.0000  0.2384  0.0000
10349TIP3    H130969   3.763   2.870   5.280  0.1193 -0.9820  0.6238
10349TIP3    H230970   3.889   2.951   5.260 -1.1920  0.8083 -0.5260
10350TIP3   OH230971   1.939   1.630   5.731  0.5264 -0.4400  0.3323
10350TIP3    H130972   1.891   1.646   5.650 -0.8666 -0.4203  1.1508
10350TIP3    H230973   1.987   1.711   5.746  1.3236 -0.6801 -0.8172
10351TIP3   OH230974   5.563   5.496   0.614  0.5142 -0.8486 -0.1797
10351TIP3    H130975   5.493   5.551   0.647  2.8461  0.2380  3.3002
10351TIP3    H230976   5.615   5.553   0.557  0.7454 -0.5272  0.3483
10352TIP3   OH230977   3.564   4.027   6.596 -0.2252  0.2447  0.3865
10352TIP3    H130978   3.511   4.105   6.579 -0.1451 -0.0014 -1.0774
10352TIP3    H230979   3.510   3.974   6.654 -0.4017  1.2508  1.1666
10353TIP3   OH230980   1.620   7.958   6.422 -0.0283  0.0238 -0.0867
10353TIP3    H130981   1.540   7.981   6.374  0.2374 -0.6814 -0.8731
10353TIP3    H230982   1.687   7.951   6.355  0.0980 -2.1413  0.2401
10354TIP3   OH230983   7.365   4.389   0.026 -0.0744 -0.3136  0.2565
10354TIP3    H130984   7.301   4.376   0.096 -1.3190  0.7576 -0.6600
10354TIP3    H230985   7.429   4.318   0.038 -2.1912 -2.2508  0.3525
10355TIP3   OH230986   2.426   2.076   5.075  0.7792 -0.4641  0.2274
10355TIP3    H130987   2.459   1.986   5.081  1.2027 -0.4060 -1.1392
10355TIP3    H230988   2.502   2.131   5.092  0.1605 -0.3365  2.8719
10356TIP3   OH230989   1.814   3.624   6.117  0.1024  0.3679 -0.4867
10356TIP3    H130990   1.879   3.610   6.049 -0.2907  1.7114 -1.1498
10356TIP3    H230991   1.864   3.660   6.191  0.2629  0.5174 -0.6675
10357TIP3   OH230992   2.411   0.879   4.643  0.3903  0.4211 -0.5877
10357TIP3    H130993   2.488   0.824   4.630  0.6349  0.6098  0.0408
10357TIP3    H230994   2.445   0.962   4.677 -0.1352  0.2513  0.3950
10358TIP3   OH230995   2.355   0.913   7.156  0.5069  0.5048 -0.1192
10358TIP3    H130996   2.376   0.964   7.078  3.9053 -0.5457  0.0582
10358TIP3    H230997   2.335   0.826   7.124  0.4552  0.4462  0.0680
10359TIP3   OH230998   8.770   6.389   1.815 -0.4014  0.0431 -0.0877
10359TIP3    H130999   8.777   6.426   1.727  0.5552  2.2267  0.8569
10359TIP3    H231000   8.687   6.424   1.849  0.5710  1.4634  0.8606
10360TIP3   OH231001   5.720   7.864   0.121  0.1053 -0.2393  0.0482
10360TIP3    H131002   5.716   7.798   0.190 -0.1576 -0.6192 -0.3250
10360TIP3    H231003   5.650   7.926   0.144  1.5331  0.9035  1.3914
10361TIP3   OH231004   7.952   3.819   0.274 -0.8974  0.2206  0.0215
10361TIP3    H131005   8.033   3.847   0.317 -0.2714 -1.7679  0.2046
10361TIP3    H231006   7.978   3.744   0.222 -2.3027  0.6487 -1.3168
10362TIP3   OH231007   4.764   0.559   6.161 -0.5181 -0.0426  0.4430
10362TIP3    H131008   4.676   0.532   6.186 -0.6251  0.9023  1.1138
10362TIP3    H231009   4.808   0.576   6.244  0.9250 -2.4145  0.2106
10363TIP3   OH231010   4.110   2.801   4.442 -0.4315  0.0201  0.1569
10363TIP3    H131011   4.072   2.785   4.356  0.8600 -1.6224 -0.1352
10363TIP3    H231012   4.200   2.828   4.424 -0.9445  2.3459  0.8999
10364TIP3   OH231013   0.472   4.496   0.899  0.0942  0.3906 -0.0102
10364TIP3    H131014   0.406   4.525   0.962  0.1992  0.8170 -0.0991
10364TIP3    H231015   0.549   4.549   0.918 -0.3908  1.7078 -1.6010
10365TIP3   OH231016   5.251   0.574   5.923  0.2674 -0.1011 -0.0658
10365TIP3    H131017   5.196   0.569   6.001 -0.4471 -0.7603 -0.6061
10365TIP3    H231018   5.193   0.550   5.851  1.5800 -2.0687 -0.5002
10366TIP3   OH231019   3.705   2.046   6.987 -0.0423  0.1068 -0.5257
10366TIP3    H131020   3.735   1.960   7.014  0.6232 -0.1553 -2.0285
10366TIP3    H231021   3.619   2.031   6.949  0.0678  0.1078 -0.7753
10367TIP3   OH231022   5.405   5.081   0.657  0.2929  0.0482 -0.7593
10367TIP3    H131023   5.403   5.101   0.750  1.2479 -2.1977 -0.2204
10367TIP3    H231024   5.315   5.090   0.628 -0.2526 -0.6176  0.7041
10368TIP3   OH231025   6.089   3.921   1.200  0.0414 -0.2011  0.3037
10368TIP3    H131026   6.175   3.944   1.236 -0.0252 -0.0277  0.3549
10368TIP3    H231027   6.076   3.829   1.224 -0.4674  0.2169  1.6650
10369TIP3   OH231028   2.185   1.948   6.505  0.0712 -0.2834  0.1913
10369TIP3    H131029   2.236   1.901   6.439  3.4096  1.2354  1.6119
10369TIP3    H231030   2.174   1.884   6.575 -0.3647 -0.7520 -0.2967
10370TIP3   OH231031   5.536   2.611   0.715 -0.4683  0.1642  0.6056
10370TIP3    H131032   5.574   2.656   0.640  0.1529  1.4832  1.6834
10370TIP3    H231033   5.471   2.673   0.750  1.2443  0.7861  2.8213
10371TIP3   OH231034   2.348   2.867   7.029 -0.0006 -0.3214  0.4007
10371TIP3    H131035   2.272   2.925   7.037  0.1140 -0.2746  1.2777
10371TIP3    H231036   2.311   2.780   7.017 -0.1858 -0.1851 -0.0077
10372TIP3   OH231037   5.545   7.422   0.186  0.1216 -0.2051  0.6191
10372TIP3    H131038   5.520   7.336   0.150 -0.3471  0.0440  0.3479
10372TIP3    H231039   5.579   7.402   0.273 -0.4760 -0.6147  0.7611
10373TIP3   OH231040   3.677   3.170   6.474 -0.5720  0.0749  0.3256
10373TIP3    H131041   3.681   3.231   6.400  0.7993 -0.5196 -0.1084
10373TIP3    H231042   3.763   3.178   6.515  0.0574 -2.4021 -0.4089
10374TIP3   OH231043   8.017   7.884   0.899  0.3172  0.5871  0.3645
10374TIP3    H131044   7.998   7.969   0.859  1.7430  1.2230  0.9872
10374TIP3    H231045   7.983   7.891   0.988 -0.6477  0.0651  0.0359
10375TIP3   OH231046   6.002   5.841   0.619 -0.5009 -0.1966  0.0043
10375TIP3    H131047   5.974   5.806   0.704  1.2303 -0.4115  0.5131
10375TIP3    H231048   5.935   5.905   0.596  0.2667  1.6499  2.7102
10376TIP3   OH231049   7.597   3.590   0.714  0.1184 -0.8212  0.3531
10376TIP3    H131050   7.567   3.564   0.627  0.0258 -0.5305  0.2964
10376TIP3    H231051   7.597   3.686   0.712 -0.9720 -0.7921  1.0415
10377TIP3   OH231052   3.721   1.219   5.933  0.3347 -0.0780 -0.1618
10377TIP3    H131053   3.665   1.142   5.944  0.5279  0.0579  1.8551
10377TIP3    H231054   3.681   1.266   5.860 -1.6598 -0.4585  0.6533
10378TIP3   OH231055   4.219   5.132   1.464  0.7724  0.1280  0.3296
10378TIP3    H131056   4.142   5.186   1.482  1.7750  1.6311  0.1646
10378TIP3    H231057   4.183   5.044   1.448 -1.2209  1.4527 -3.0208
10379TIP3   OH231058   3.455   0.797   4.896  0.1433 -0.1017 -0.3747
10379TIP3    H131059   3.376   0.743   4.905  1.0618 -1.3089  0.5242
10379TIP3    H231060   3.500   0.760   4.820  0.0250  0.3619 -0.6713
10380TIP3   OH231061   8.246   2.979   0.491 -0.0980 -0.1495 -0.1362
10380TIP3    H131062   8.319   3.040   0.503 -0.0174 -0.3047  0.1848
10380TIP3    H231063   8.263   2.908   0.554  0.5641 -1.2255 -1.5170
10381TIP3   OH231064   4.264   1.268   7.043  0.3060  0.1613  0.3198
10381TIP3    H131065   4.264   1.304   6.954  0.1994 -0.2726  0.1384
10381TIP3    H231066   4.175   1.235   7.056 -0.4028  2.4703  1.5402
10382TIP3   OH231067   4.333   5.443   0.044 -0.0060  0.4832 -0.6201
10382TIP3    H131068   4.401   5.509   0.028 -0.1009  0.6858 -0.2032
10382TIP3    H231069   4.252   5.493   0.047  0.0694  0.5314  1.0009
10383TIP3   OH231070   3.206   1.808   6.938 -0.0132  1.0239 -0.0568
10383TIP3    H131071   3.149   1.811   6.861  0.3656  0.5475 -0.3586
10383TIP3    H231072   3.167   1.871   6.998 -0.6738  0.9432 -0.3872
10384TIP3   OH231073   8.471   6.660   0.771 -0.2017  0.2803  0.5497
10384TIP3    H131074   8.516   6.619   0.845 -0.3088  1.0087  1.0310
10384TIP3    H231075   8.532   6.726   0.739 -0.9018  1.2555  1.1906
10385TIP3   OH231076   5.038   5.427   0.706  0.0649 -0.5815  0.5069
10385TIP3    H131077   5.015   5.367   0.636 -1.1981  0.5884 -0.1053
10385TIP3    H231078   5.028   5.514   0.668  3.2914  0.0209  0.9459
10386TIP3   OH231079   3.790   1.625   5.711 -0.1880 -0.3897  0.1578
10386TIP3    H131080   3.726   1.681   5.756 -1.8857 -2.3855  0.3464
10386TIP3    H231081   3.833   1.683   5.649 -1.1614  1.3521  1.0447
10387TIP3   OH231082   3.021   1.816   6.733  0.2429 -0.4754 -0.5497
10387TIP3    H131083   3.008   1.810   6.639 -1.4922  0.8906 -0.4188
10387TIP3    H231084   2.936   1.793   6.771  1.0518 -1.4983  0.7180
10388TIP3   OH231085   4.908   5.667   1.877  0.5274  0.3667  0.2885
10388TIP3    H131086   4.849   5.627   1.940 -0.1918  1.1777  0.1406
10388TIP3    H231087   4.864   5.748   1.851  1.2718  0.5203 -0.5174
10389TIP3   OH231088   5.851   5.062   0.450  0.1377  0.6434  0.2465
10389TIP3    H131089   5.756   5.054   0.440  0.1833 -1.2928  1.1719
10389TIP3    H231090   5.875   5.135   0.392 -1.7973  0.6385 -0.5980
10390TIP3   OH231091   5.889   4.787   0.319 -0.0586  0.2878 -0.3282
10390TIP3    H131092   5.939   4.868   0.311  0.0043  0.3824  0.9665
10390TIP3    H231093   5.921   4.733   0.246  0.3320  1.1792 -0.8370
10391TIP3   OH231094   2.631   2.710   7.140  0.4672  0.0246 -0.0536
10391TIP3    H131095   2.643   2.702   7.045  1.9349  0.7622  0.0494
10391TIP3    H231096   2.668   2.796   7.162  0.4340 -0.2740  1.2254
10392TIP3   OH231097   4.803   2.014   6.826 -0.0776  0.2753  0.6011
10392TIP3    H131098   4.745   1.971   6.762 -0.6401  0.2866  1.1018
10392TIP3    H231099   4.862   1.944   6.856  2.2225  0.9216 -2.1925
10393TIP3   OH231100   2.500   2.075   6.527 -0.2025 -0.0719  0.8707
10393TIP3    H131101   2.527   2.123   6.605 -0.2578 -0.7981  1.3423
10393TIP3    H231102   2.409   2.051   6.542 -0.2408 -0.1412  0.5485
10394TIP3   OH231103   6.303   5.235   0.353 -0.5271  0.2826 -0.1689
10394TIP3    H131104   6.391   5.263   0.330 -0.2542 -1.7317 -1.6857
10394TIP3    H231105   6.258   5.316   0.380  0.9951  1.7177 -1.8653
10395TIP3   OH231106   3.478   2.567   5.724  0.0684  0.3503 -0.4951
10395TIP3    H131107   3.549   2.628   5.745  0.9150 -0.6691 -0.3872
10395TIP3    H231108   3.407   2.623   5.694  0.8318  1.4003 -0.3689
10396TIP3   OH231109   3.268   1.144   6.984 -0.1106 -0.0040  0.0209
10396TIP3    H131110   3.291   1.116   7.073  1.6987 -0.4976 -0.5738
10396TIP3    H231111   3.304   1.233   6.977 -0.0219 -0.0627 -0.2920
10397TIP3   OH231112   3.998   1.523   4.121 -0.1243 -0.1469 -0.0875
10397TIP3    H131113   3.968   1.587   4.185  1.0607  0.6671 -0.3154
10397TIP3    H231114   4.075   1.483   4.161 -0.1023 -0.5117 -0.4863
10398TIP3   OH231115   5.732   3.219   5.941  0.7280  0.0159 -0.1916
10398TIP3    H131116   5.730   3.134   5.985 -0.3826 -0.3797 -0.9762
10398TIP3    H231117   5.750   3.198   5.849 -0.0083  0.5890 -0.4691
10399TIP3   OH231118   8.824   4.516   1.122  0.2060  0.5782 -0.1599
10399TIP3    H131119   8.862   4.586   1.174  0.2044 -1.0263  2.0816
10399TIP3    H231120   8.741   4.496   1.164  0.4682 -1.1377 -0.3833
10400TIP3   OH231121   3.888   1.612   4.890  0.0289 -0.0900  0.0436
10400TIP3    H131122   3.813   1.647   4.841  1.4205  1.3970 -1.0948
10400TIP3    H231123   3.899   1.673   4.963 -0.1276 -0.5484  0.4502
10401TIP3   OH231124   2.207   8.270   5.397 -0.0238  0.8161  0.5104
10401TIP3    H131125   2.142   8.258   5.465  1.5657 -1.0892  1.7552
10401TIP3    H231126   2.283   8.308   5.442  0.3025  1.5232 -0.6090
10402TIP3   OH231127   4.758   0.015   5.957 -0.5664  0.2549 -0.1780
10402TIP3    H131128   4.713  -0.033   5.888 -0.0658  1.1946 -1.1671
10402TIP3    H231129   4.747   0.107   5.934 -0.6286  0.5884  1.1408
10403TIP3   OH231130   5.406   2.282   6.717  0.2359 -0.3062  0.0107
10403TIP3    H131131   5.351   2.272   6.794 -0.0497  0.3188 -0.1120
10403TIP3    H231132   5.344   2.280   6.643  0.4481 -0.3189 -0.1680
10404TIP3   OH231133   5.348   4.798   1.471  0.1564 -0.7063 -0.3208
10404TIP3    H131134   5.361   4.881   1.425 -1.4240  0.1256  0.7185
10404TIP3    H231135   5.287   4.749   1.417  1.0977 -1.2119 -0.9398
10405TIP3   OH231136   1.937   7.440   5.719  0.3669 -0.9268 -0.3018
10405TIP3    H131137   1.989   7.435   5.799 -0.1070  0.8576  0.1359
10405TIP3    H231138   1.980   7.379   5.659  2.1892 -0.4505  0.4819
10406TIP3   OH231139   4.233   5.178   1.783  0.4547  0.4211 -0.3852
10406TIP3    H131140   4.186   5.261   1.776 -0.5730 -0.0417  0.8225
10406TIP3    H231141   4.318   5.201   1.819  1.1490  1.2535 -2.4786
10407TIP3   OH231142   4.257   1.893   7.021  0.6147 -0.9142  0.1726
10407TIP3    H131143   4.296   1.811   7.054  0.8458 -0.5745  0.7536
10407TIP3    H231144   4.296   1.961   7.076 -0.3792 -0.5150  0.3786
10408TIP3   OH231145   6.512   4.358   0.687  0.2226  0.5572 -0.3517
10408TIP3    H131146   6.607   4.349   0.677  0.0306 -1.1623 -0.8311
10408TIP3    H231147   6.476   4.301   0.619 -1.1556 -1.1501  1.7611
10409TIP3   OH231148   4.332   3.332   2.490 -0.2251  0.1017  0.1879
10409TIP3    H131149   4.414   3.361   2.450 -0.0284  1.0075  1.2108
10409TIP3    H231150   4.275   3.311   2.416  0.6067  0.3945 -0.5439
10410TIP3   OH231151   5.920   5.743   0.887  0.8076 -0.3596 -0.3435
10410TIP3    H131152   5.972   5.665   0.907 -0.2666 -0.8655  0.5796
10410TIP3    H231153   5.851   5.743   0.953 -0.4391  0.2265 -1.6142
10411TIP3   OH231154   4.834   4.325   1.912 -0.3887  0.0101  0.1541
10411TIP3    H131155   4.800   4.414   1.904  1.3457  0.6537 -0.4501
10411TIP3    H231156   4.902   4.332   1.979 -0.6336 -0.9860  0.5092
10412TIP3   OH231157   5.196   2.930   5.576  0.3870 -0.3572  0.3925
10412TIP3    H131158   5.160   2.887   5.498  0.7173 -0.0115  0.0468
10412TIP3    H231159   5.291   2.926   5.564  0.4089  1.7355 -0.3662
10413TIP3   OH231160   6.181   3.974   0.070 -0.7399  0.4945 -0.2707
10413TIP3    H131161   6.250   4.039   0.087 -0.5630  0.4631 -0.8610
10413TIP3    H231162   6.228   3.893   0.055 -1.0123 -0.0862  1.7789
10414TIP3   OH231163   7.071   7.593   0.088 -0.7594 -0.4626 -0.0800
10414TIP3    H131164   7.106   7.505   0.101 -0.5869 -0.4926 -0.7202
10414TIP3    H231165   6.977   7.584   0.106 -0.8793 -0.9541 -0.9478
10415TIP3   OH231166   6.420   5.076   0.050  0.7210  0.4942 -0.7858
10415TIP3    H131167   6.411   5.160   0.005  3.8143  0.1633 -2.1726
10415TIP3    H231168   6.371   5.014  -0.004 -2.8455  1.6086  1.0548
10416TIP3   OH231169   6.036   4.040   2.356  0.4000 -0.1640 -0.7180
10416TIP3    H131170   6.130   4.024   2.345  0.5967 -0.3147  1.0233
10416TIP3    H231171   6.031   4.113   2.417 -0.5969 -1.7650  1.1892
10417TIP3   OH231172   3.698   0.562   6.926 -0.4915  0.2088  0.4783
10417TIP3    H131173   3.744   0.645   6.927  1.4173 -0.8405  2.8091
10417TIP3    H231174   3.653   0.558   7.010  0.4001 -1.6131  0.8945
10418TIP3   OH231175   1.270   8.192   5.568 -0.7213 -0.2389 -0.2254
10418TIP3    H131176   1.279   8.286   5.548 -0.8140 -0.1513  0.1355
10418TIP3    H231177   1.288   8.186   5.662 -1.2246 -0.5137 -0.1445
10419TIP3   OH231178   4.092   2.213   6.448 -0.1995  0.3831  0.0872
10419TIP3    H131179   4.050   2.296   6.424 -0.3171  0.1490 -0.5336
10419TIP3    H231180   4.035   2.146   6.411  0.1285  0.0355  0.2106
10420TIP3   OH231181   6.541   5.779   1.143  0.4191  0.1995  0.3240
10420TIP3    H131182   6.531   5.779   1.238 -0.2676  1.9339  0.2654
10420TIP3    H231183   6.628   5.743   1.128  0.3253 -0.5905  1.5744
10421TIP3   OH231184   4.081   0.393   6.323  0.0375 -0.6025  0.1414
10421TIP3    H131185   4.119   0.480   6.330  1.2838 -1.3008  3.0247
10421TIP3    H231186   4.045   0.389   6.235 -0.5116  2.9921  0.1511
10422TIP3   OH231187   6.908   4.623   0.285  0.4575 -0.1557 -0.5362
10422TIP3    H131188   6.815   4.600   0.293  0.8805 -2.1590 -1.0771
10422TIP3    H231189   6.915   4.709   0.326 -1.2735 -0.8409  1.2632
10423TIP3   OH231190   6.227   5.876   0.072 -0.4388  0.0892  0.0454
10423TIP3    H131191   6.216   5.949   0.132 -0.1409  0.0885  0.1049
10423TIP3    H231192   6.145   5.872   0.022 -2.2740 -2.2596  3.0263
10424TIP3   OH231193   6.264   5.139   0.601  0.1900 -0.6154  0.0244
10424TIP3    H131194   6.312   5.198   0.543  3.9182 -1.6796  1.8885
10424TIP3    H231195   6.207   5.196   0.652  1.1346  0.9476 -0.6421
10425TIP3   OH231196   4.635   3.482   6.205  0.5045  0.0536  0.2969
10425TIP3    H131197   4.604   3.526   6.126  0.0358 -0.8132 -0.0016
10425TIP3    H231198   4.558   3.474   6.261  0.7935  0.4860  0.7697
10426TIP3   OH231199   4.368   0.658   5.847  0.1282 -0.1173  0.1250
10426TIP3    H131200   4.449   0.619   5.879 -1.0364 -1.0533  1.9937
10426TIP3    H231201   4.383   0.752   5.851  1.1188 -0.2876  0.4645
10427TIP3   OH231202   6.950   1.327   5.357  0.0407  0.6090  0.7641
10427TIP3    H131203   6.920   1.354   5.444  1.0587  1.2427  0.9198
10427TIP3    H231204   6.990   1.405   5.320  0.7500 -0.0133  0.2200
10428TIP3   OH231205   2.648   1.549   6.750  0.0082 -0.5570 -0.2634
10428TIP3    H131206   2.562   1.583   6.773  0.4231 -0.2048  0.8090
10428TIP3    H231207   2.631   1.463   6.712 -0.8112 -0.5040 -0.0202
10429TIP3   OH231208   4.502   0.235   6.350  0.9927 -0.2130  0.7651
10429TIP3    H131209   4.573   0.277   6.399  1.9559  0.9903 -1.5219
10429TIP3    H231210   4.524   0.253   6.258 -1.1975 -1.6050 -0.0636
10430TIP3   OH231211   5.669   6.755   1.368 -0.0795 -0.4927 -0.4661
10430TIP3    H131212   5.601   6.688   1.372  0.2648 -0.7798  1.2676
10430TIP3    H231213   5.747   6.708   1.339  0.1448 -0.8554  0.6800
10431TIP3   OH231214   5.230   4.390   0.353  0.0255  0.1206  0.2186
10431TIP3    H131215   5.163   4.330   0.319 -0.2891  0.2734  0.5666
10431TIP3    H231216   5.311   4.338   0.353  0.0880  0.2083 -1.0202
10432TIP3   OH231217   3.401   0.677   7.108 -0.1739  0.3758 -0.8262
10432TIP3    H131218   3.310   0.651   7.118 -0.0198 -0.0621 -0.5487
10432TIP3    H231219   3.420   0.664   7.015 -0.0961 -0.5276 -0.6894
10433TIP3   OH231220   3.873   3.138   5.593  0.3703 -0.2006  0.9932
10433TIP3    H131221   3.819   3.147   5.672 -0.4970  1.1929  0.2550
10433TIP3    H231222   3.869   3.044   5.573  0.1649 -0.4883  2.2910
10434TIP3   OH231223   7.821   6.394   0.358  0.1064 -0.0420 -0.2325
10434TIP3    H131224   7.827   6.477   0.407 -0.5069  0.0844 -0.3711
10434TIP3    H231225   7.730   6.389   0.330  0.2489 -0.5495 -0.6120
10435TIP3   OH231226   2.301   8.314   5.905  0.1062  0.3663  0.3391
10435TIP3    H131227   2.301   8.388   5.844  0.2738 -0.1843 -0.3416
10435TIP3    H231228   2.226   8.329   5.962 -0.7512  0.2932 -0.7457
10436TIP3   OH231229   3.554   2.252   4.642  0.4535 -0.3266 -0.0178
10436TIP3    H131230   3.573   2.246   4.549 -1.6599 -0.8371 -0.4389
10436TIP3    H231231   3.578   2.166   4.677  1.8242  0.0647  0.0453
10437TIP3   OH231232   0.417   6.678   0.618 -0.7103 -0.2374  0.2945
10437TIP3    H131233   0.467   6.646   0.693  1.0367  0.4911 -0.5408
10437TIP3    H231234   0.394   6.600   0.569  1.3335 -0.4611 -0.3645
10438TIP3   OH231235   3.386   2.182   7.126  0.1213  0.2793  0.4426
10438TIP3    H131236   3.448   2.148   7.062 -0.1858  3.1785 -1.4738
10438TIP3    H231237   3.431   2.256   7.166 -1.7729  1.9794 -0.4572
10439TIP3   OH231238   4.819   1.798   5.363  0.0745 -0.0946 -0.1657
10439TIP3    H131239   4.742   1.741   5.355 -0.7118  0.6199  1.9650
10439TIP3    H231240   4.886   1.741   5.400 -0.6590  0.3080  1.8033
10440TIP3   OH231241   6.038   4.921   0.132  0.0357 -0.1297  0.1755
10440TIP3    H131242   5.946   4.912   0.105  0.2536 -0.7517 -0.3764
10440TIP3    H231243   6.054   5.016   0.131 -0.4587 -0.0461 -0.2095
10441TIP3   OH231244   5.359   4.135   1.546  0.2302 -0.3163 -0.4363
10441TIP3    H131245   5.272   4.095   1.554  0.0900  0.2710  1.4392
10441TIP3    H231246   5.345   4.211   1.489 -0.8363  0.6212  1.0154
10442TIP3   OH231247   1.959   1.433   6.234  0.1127 -0.1705 -0.3934
10442TIP3    H131248   1.911   1.473   6.162  1.7070  0.1618 -1.3046
10442TIP3    H231249   2.004   1.505   6.277  0.3694 -0.5592 -0.0017
10443TIP3   OH231250   4.891   4.393   0.355  0.5769 -0.6034  0.2678
10443TIP3    H131251   4.935   4.334   0.294  1.5405  0.6364 -0.2520
10443TIP3    H231252   4.852   4.460   0.299  1.3002  0.4339  1.0002
10444TIP3   OH231253   2.108   3.164   6.782  0.2273  0.2836  0.2694
10444TIP3    H131254   2.150   3.089   6.741  1.0066  1.3958 -1.0448
10444TIP3    H231255   2.020   3.135   6.804  0.4500 -0.9353 -0.4420
10445TIP3   OH231256   6.530   7.707   6.874  0.2146  0.7783  0.3643
10445TIP3    H131257   6.573   7.622   6.878 -0.3159  0.5148  0.5242
10445TIP3    H231258   6.587   7.760   6.818 -0.9714 -0.6029 -2.2419
10446TIP3   OH231259   7.272   5.346   0.290  0.1385  0.1528 -0.0123
10446TIP3    H131260   7.352   5.358   0.239  0.0449  1.5319  0.1407
10446TIP3    H231261   7.285   5.400   0.369 -0.3328 -0.7655  0.7054
10447TIP3   OH231262   3.563   5.283   0.032  0.3045 -0.2678  0.3776
10447TIP3    H131263   3.529   5.323  -0.048 -0.1348  0.0126  0.6990
10447TIP3    H231264   3.517   5.328   0.103  1.3471  0.1267  0.8247
10448TIP3   OH231265   2.308   8.009   6.844 -0.3663  0.0651  0.1853
10448TIP3    H131266   2.287   7.977   6.931  0.7379  2.0438  1.2152
10448TIP3    H231267   2.247   8.081   6.829 -0.0529  0.2184 -0.3762
10449TIP3   OH231268   2.809   1.717   5.744  0.1262  0.2134 -0.0057
10449TIP3    H131269   2.786   1.624   5.739 -0.8574  0.2769  2.5216
10449TIP3    H231270   2.724   1.762   5.752  0.7326  1.0628  1.9378
10450TIP3   OH231271   5.761   3.673   0.972 -0.0256 -0.4994 -0.3259
10450TIP3    H131272   5.770   3.716   1.057  0.7490  0.1900 -0.7406
10450TIP3    H231273   5.850   3.650   0.947 -0.1575  0.0094 -1.3053
10451TIP3   OH231274   8.514   6.405   0.306  0.0430  0.3043 -0.3091
10451TIP3    H131275   8.603   6.422   0.274  0.1424 -0.8369 -0.6580
10451TIP3    H231276   8.457   6.450   0.243  0.2995 -0.6628 -1.2620
10452TIP3   OH231277   5.701   4.897   0.082 -0.2268 -0.3744 -0.1476
10452TIP3    H131278   5.638   4.969   0.077 -0.8432 -0.8347  0.7717
10452TIP3    H231279   5.683   4.856   0.167 -0.2465 -1.9553 -0.9163
10453TIP3   OH231280   2.501   0.896   6.697  0.2695 -0.4451 -0.6066
10453TIP3    H131281   2.455   0.946   6.630  0.0441  0.8278  0.4894
10453TIP3    H231282   2.583   0.870   6.655  1.4554  2.8423 -0.4747
10454TIP3   OH231283   5.003   7.673   0.146  0.2929 -0.1190 -0.2464
10454TIP3    H131284   5.069   7.740   0.126 -0.1529  0.3239 -0.2394
10454TIP3    H231285   4.922   7.723   0.162  0.0197 -0.6437  0.0020
10455TIP3   OH231286   5.017   5.550   0.976 -0.8286 -0.5886  0.0689
10455TIP3    H131287   5.099   5.582   1.014 -0.3913  0.6095 -1.7791
10455TIP3    H231288   5.042   5.467   0.934 -0.7956 -0.7532  0.4142
10456TIP3   OH231289   5.829   4.310   1.215 -0.0321  0.2519  0.5276
10456TIP3    H131290   5.838   4.226   1.260 -2.2488 -0.5897 -0.5122
10456TIP3    H231291   5.735   4.330   1.221 -0.0024  1.2120 -1.7456
10457TIP3   OH231292   6.071   4.931   0.555 -0.2108  0.7144  0.0546
10457TIP3    H131293   6.009   4.971   0.494  1.3387  1.0775 -1.2846
10457TIP3    H231294   6.150   4.984   0.549  1.4487 -1.7459 -0.8188
10458TIP3   OH231295   1.533   1.772   6.822 -0.6031 -0.1453 -0.4288
10458TIP3    H131296   1.614   1.762   6.771  0.6395  1.4748  1.1513
10458TIP3    H231297   1.492   1.685   6.818  0.8415 -0.8006 -1.8596
10459TIP3   OH231298   2.975   1.438   4.897  0.5456  0.0493  0.1842
10459TIP3    H131299   2.943   1.517   4.940  1.1548 -0.8910  2.4240
10459TIP3    H231300   3.064   1.459   4.869 -0.4835  1.2690 -2.3153
10460TIP3   OH231301   3.471   4.671   6.448 -0.0605 -0.2815  0.1867
10460TIP3    H131302   3.493   4.598   6.506 -1.8678 -0.0743  1.1603
10460TIP3    H231303   3.377   4.662   6.432 -0.8220  3.1548  2.2207
10461TIP3   OH231304   1.540   2.272   6.478 -0.0234 -0.3577  0.2976
10461TIP3    H131305   1.480   2.198   6.488 -0.9584  0.5072  1.1922
10461TIP3    H231306   1.483   2.349   6.480  0.8988  0.3721 -1.0218
10462TIP3   OH231307   6.173   7.028   0.031  0.9273  0.2343  0.1053
10462TIP3    H131308   6.246   7.060   0.085  0.9873  1.2702 -0.5746
10462TIP3    H231309   6.099   7.023   0.091  1.5426 -0.7652  0.7903
10463TIP3   OH231310   2.125   1.404   5.739  0.3984  0.1827  0.6365
10463TIP3    H131311   2.089   1.492   5.736  0.1356  0.1173  1.5191
10463TIP3    H231312   2.076   1.355   5.673  1.7795  1.1242 -1.1145
10464TIP3   OH231313   6.025   4.494   1.290 -0.3042 -0.0026 -0.3121
10464TIP3    H131314   6.031   4.459   1.379  0.2987  0.0572 -0.3308
10464TIP3    H231315   5.957   4.442   1.249  0.2342 -0.8140 -0.1795
10465TIP3   OH231316   3.164   2.206   6.024  0.1755 -0.2139  0.3273
10465TIP3    H131317   3.111   2.268   5.974  0.2756 -0.7050 -0.4073
10465TIP3    H231318   3.106   2.131   6.037  0.7074 -0.7934 -0.5621
10466TIP3   OH231319   3.824   5.598   1.446  0.0501 -0.2089  0.3034
10466TIP3    H131320   3.834   5.659   1.519  0.5422  0.6045 -0.4308
10466TIP3    H231321   3.732   5.606   1.420  0.2397  0.6162 -0.1261
10467TIP3   OH231322   5.144   4.131   1.246 -0.2373 -0.3673  0.0438
10467TIP3    H131323   5.109   4.064   1.304 -0.1866 -1.2493 -0.9179
10467TIP3    H231324   5.087   4.207   1.258 -0.2514 -0.5612  1.1888
10468TIP3   OH231325   6.125   7.731   0.232 -0.1407  0.5845 -0.0239
10468TIP3    H131326   6.068   7.659   0.204 -0.7721  1.7865 -1.9770
10468TIP3    H231327   6.213   7.693   0.230 -0.4260 -0.0723 -1.3659
10469TIP3   OH231328   2.671   3.244   6.063 -0.1543 -0.2890 -0.3653
10469TIP3    H131329   2.740   3.195   6.018  0.9686  0.0389  0.9600
10469TIP3    H231330   2.685   3.225   6.156  0.3329  2.5759  0.1912
10470TIP3   OH231331   4.861   5.221   0.363 -0.5960 -0.0584 -0.1484
10470TIP3    H131332   4.879   5.168   0.285 -0.8307 -0.4676  0.0706
10470TIP3    H231333   4.934   5.202   0.422  0.2787  1.2802 -0.7914
10471TIP3   OH231334   5.115   6.234   0.819  0.3568 -0.2146 -0.6873
10471TIP3    H131335   5.166   6.163   0.782  0.0588  0.2005 -1.9287
10471TIP3    H231336   5.036   6.237   0.765 -0.2343  0.2028  0.1852
10472TIP3   OH231337   5.631   6.330   0.433  0.0089  0.0989  0.6890
10472TIP3    H131338   5.691   6.400   0.407  0.7393 -1.1537 -1.1063
10472TIP3    H231339   5.689   6.259   0.462 -0.6400 -0.6952  0.0542
10473TIP3   OH231340   4.671   2.027   4.990  0.7759  0.3645  0.0978
10473TIP3    H131341   4.760   2.046   5.020  0.1775  1.8085  0.9906
10473TIP3    H231342   4.622   2.008   5.069 -0.2785  1.9736 -0.1382
10474TIP3   OH231343   5.495   1.671   6.408  0.2216  0.5468  0.3691
10474TIP3    H131344   5.588   1.651   6.396  0.1787  0.6493 -0.1636
10474TIP3    H231345   5.492   1.727   6.485  0.5025 -0.2453  0.9665
10475TIP3   OH231346   2.101   1.492   6.806  0.2769 -0.3808 -0.6546
10475TIP3    H131347   2.102   1.588   6.804 -1.0680 -0.3350  0.1979
10475TIP3    H231348   2.026   1.468   6.753 -0.3278 -0.8962  0.4147
10476TIP3   OH231349   4.838   1.394   5.772 -0.3468 -0.4219 -0.3335
10476TIP3    H131350   4.843   1.299   5.783 -1.5239 -0.2449  2.0219
10476TIP3    H231351   4.744   1.412   5.767 -0.1755  0.7735  0.6864
10477TIP3   OH231352   0.713   7.952   7.150 -0.3244  0.2859  0.5410
10477TIP3    H131353   0.711   8.021   7.084  0.7663  0.9218  1.1494
10477TIP3    H231354   0.760   7.879   7.109  1.6472  1.2074  1.0776
10478TIP3   OH231355   4.199   3.148   7.257  0.1511 -0.1383 -0.5962
10478TIP3    H131356   4.289   3.134   7.228 -0.1335  0.0602 -1.5904
10478TIP3    H231357   4.167   3.060   7.278  0.8955 -0.1108  0.7640
10479TIP3   OH231358   7.285   5.805   0.237 -0.2184  0.6208  0.9367
10479TIP3    H131359   7.216   5.743   0.214  0.3926  0.7253 -1.2554
10479TIP3    H231360   7.254   5.890   0.205  0.0736  1.0215  1.6852
10480TIP3   OH231361   5.222   0.303   6.987  0.2955  0.2225  0.2781
10480TIP3    H131362   5.262   0.366   7.047 -1.5555  1.2423  0.4993
10480TIP3    H231363   5.153   0.352   6.942 -0.6759 -1.4257 -0.1137
10481TIP3   OH231364   7.767   5.220   0.077  0.2440 -0.1355 -0.0039
10481TIP3    H131365   7.758   5.254   0.166  2.6513 -0.2684  0.3211
10481TIP3    H231366   7.851   5.175   0.077  0.8265  0.8478 -2.6540
10482TIP3   OH231367   3.242   2.059   5.350 -0.3143 -0.1403 -0.7218
10482TIP3    H131368   3.172   2.046   5.286 -1.9190 -0.4184  1.0788
10482TIP3    H231369   3.209   2.020   5.431  2.3796 -1.3052 -0.1248
10483TIP3   OH231370   4.582   5.588   0.042  0.3045 -0.0596  0.1686
10483TIP3    H131371   4.677   5.574   0.039  0.6459  2.1584 -0.6097
10483TIP3    H231372   4.557   5.563   0.131  1.7124 -0.1482  0.5487
10484TIP3   OH231373   4.366   3.071   6.369 -0.3876 -0.1327 -0.5412
10484TIP3    H131374   4.452   3.093   6.335  0.5560  1.7073  2.7736
10484TIP3    H231375   4.323   3.156   6.383 -2.3020 -0.9810 -1.0397
10485TIP3   OH231376   6.051   1.789   6.653 -0.2660  0.4751  0.1703
10485TIP3    H131377   6.055   1.884   6.665  0.2591  0.2572  1.8248
10485TIP3    H231378   6.142   1.761   6.656 -0.4055 -0.0811 -0.5019
10486TIP3   OH231379   3.869   8.315   7.218  0.3185 -0.0751 -0.1319
10486TIP3    H131380   3.854   8.331   7.124  0.0759 -0.2696 -0.1277
10486TIP3    H231381   3.851   8.399   7.260 -0.1520 -0.1371 -0.1990
10487TIP3   OH231382   1.669   6.692   5.464 -0.1783  0.2117  0.1014
10487TIP3    H131383   1.699   6.606   5.494  0.3527  0.9253  1.7236
10487TIP3    H231384   1.749   6.741   5.447 -0.4755  0.4599 -0.5987
10488TIP3   OH231385   2.003   7.792   5.713 -0.6570 -0.6581  0.2361
10488TIP3    H131386   2.085   7.747   5.689 -1.8080 -1.2528 -2.8795
10488TIP3    H231387   1.975   7.749   5.794  0.0994 -3.2135 -0.7954
10489TIP3   OH231388   4.847   5.058   0.760 -0.5932 -0.6814  0.0509
10489TIP3    H131389   4.926   5.104   0.730 -0.9607  0.6465  1.0802
10489TIP3    H231390   4.863   4.966   0.737  2.1769 -0.7840  2.1324
10490TIP3   OH231391   3.955   2.588   5.325  0.2910 -0.1914 -0.4904
10490TIP3    H131392   4.036   2.638   5.312  0.1862 -0.6050 -3.0236
10490TIP3    H231393   3.886   2.649   5.300 -0.0009 -0.6918 -0.9202
10491TIP3   OH231394   8.269   6.866   1.239  0.0029  0.1831 -0.1341
10491TIP3    H131395   8.285   6.821   1.156  1.1149 -1.0386  0.7177
10491TIP3    H231396   8.178   6.894   1.234 -0.5300 -1.6014 -0.9696
10492TIP3   OH231397   3.588   4.200   7.109  0.3911 -0.3115  0.3024
10492TIP3    H131398   3.647   4.228   7.039  1.0085 -1.4935  0.3381
10492TIP3    H231399   3.622   4.245   7.187 -1.5027  2.5964 -0.4826
10493TIP3   OH231400   7.084   7.839   0.190 -0.7424  0.5243 -0.4515
10493TIP3    H131401   7.064   7.829   0.283  1.4311  1.4649  0.1552
10493TIP3    H231402   7.098   7.749   0.159  0.1958  0.3219  0.5320
10494TIP3   OH231403   6.389   7.671   0.137  0.0719 -0.1540  0.1056
10494TIP3    H131404   6.452   7.739   0.160  0.0224  0.1369 -0.5977
10494TIP3    H231405   6.357   7.697   0.050 -1.3256 -0.0587  0.6310
10495TIP3   OH231406   5.897   8.121   0.416  0.0498  0.7949 -0.1932
10495TIP3    H131407   5.851   8.128   0.333 -1.0947 -0.5425  0.2994
10495TIP3    H231408   5.905   8.211   0.448 -0.2588  1.2311 -1.3367
10496TIP3   OH231409   4.693   5.312   0.739  0.2383  0.3516  0.3519
10496TIP3    H131410   4.657   5.321   0.651 -1.1350  2.5098  1.0819
10496TIP3    H231411   4.711   5.219   0.749  0.2261  0.0565 -2.1338
10497TIP3   OH231412   8.473   7.282   0.291 -0.1510 -0.3390 -0.5021
10497TIP3    H131413   8.541   7.344   0.315 -0.0432 -0.2054 -1.1585
10497TIP3    H231414   8.475   7.216   0.361 -2.0173  1.7529  1.6021
10498TIP3   OH231415   5.945   7.525   0.175  0.0680 -0.2807  0.1163
10498TIP3    H131416   5.861   7.568   0.190 -0.0009 -0.0632 -0.8235
10498TIP3    H231417   5.955   7.525   0.079  1.2608 -0.0614  0.2317
10499TIP3   OH231418   3.150   1.410   6.746 -0.0023  0.5679 -0.3158
10499TIP3    H131419   3.081   1.476   6.753 -1.7417 -1.1481 -1.1360
10499TIP3    H231420   3.157   1.374   6.835 -0.7071  0.1939 -0.4107
10500TIP3   OH231421   7.512   6.422   2.365 -0.1593  0.0587 -0.2395
10500TIP3    H131422   7.475   6.350   2.417 -0.9787 -0.1623 -1.1138
10500TIP3    H231423   7.596   6.389   2.334  0.3993  0.2481  1.0656
10501TIP3   OH231424   5.787   6.105   0.525  0.5196  0.1355 -0.4259
10501TIP3    H131425   5.825   6.060   0.450  0.4984  0.6676 -0.7580
10501TIP3    H231426   5.862   6.135   0.576  0.5298 -1.1792  0.3414
10502TIP3   OH231427   1.244   1.318   6.759 -0.3753  0.1022 -0.1835
10502TIP3    H131428   1.224   1.238   6.807 -1.7712  0.0445 -0.8311
10502TIP3    H231429   1.319   1.296   6.705  0.1362 -0.3416  0.7031
10503TIP3   OH231430   2.490   1.919   6.190  0.3982 -0.2342  0.0428
10503TIP3    H131431   2.561   1.931   6.253 -0.6405  1.6558  0.8994
10503TIP3    H231432   2.497   1.995   6.132 -0.2338 -0.6378 -0.5689
10504TIP3   OH231433   0.931   7.415   5.520  0.2167  0.0479 -0.3197
10504TIP3    H131434   0.989   7.488   5.543 -2.4252  2.2515 -0.4508
10504TIP3    H231435   0.901   7.381   5.605  2.1339 -1.5071 -0.2341
10505TIP3   OH231436   6.307   5.824   0.810  0.7131  0.1750 -0.0999
10505TIP3    H131437   6.358   5.884   0.865  1.2630  0.6229 -1.0837
10505TIP3    H231438   6.217   5.832   0.842  1.0730  0.2040  0.9253
10506TIP3   OH231439   8.148   4.532   0.534  0.1795 -0.1704  0.3991
10506TIP3    H131440   8.200   4.500   0.608  0.0650 -0.3920  0.3860
10506TIP3    H231441   8.209   4.583   0.481  0.2764 -0.0657  0.6130
10507TIP3   OH231442   7.713   0.548   5.989 -0.0522 -0.4817 -0.2681
10507TIP3    H131443   7.713   0.531   5.895 -1.9608 -0.6615 -0.2658
10507TIP3    H231444   7.805   0.545   6.014  0.5596  0.5871 -2.2994
10508TIP3   OH231445   7.873   4.900   0.133  0.5170 -0.0402 -0.2255
10508TIP3    H131446   7.884   4.863   0.220  0.6738  0.6280  0.0410
10508TIP3    H231447   7.921   4.983   0.135 -0.3420  0.4743 -0.6244
10509TIP3   OH231448   2.550   7.207   6.957  0.5119 -0.0473  0.3481
10509TIP3    H131449   2.568   7.259   7.035  0.3941 -0.1485  0.4421
10509TIP3    H231450   2.491   7.138   6.987  3.2765 -2.2452  0.9964
10510TIP3   OH231451   8.295   3.531   1.546 -0.0214  0.3903 -0.4480
10510TIP3    H131452   8.321   3.622   1.534  0.2750  0.4833  0.8640
10510TIP3    H231453   8.242   3.511   1.468 -1.0104  2.0201 -0.2237
10511TIP3   OH231454   4.413   1.287   5.941 -0.2444 -0.1085  0.2215
10511TIP3    H131455   4.406   1.374   5.980 -0.7456  0.1876 -0.5148
10511TIP3    H231456   4.385   1.227   6.011 -0.6779  0.3839  0.4728
10512TIP3   OH231457   3.269   2.188   6.502  0.3278  0.1977 -0.1601
10512TIP3    H131458   3.346   2.170   6.449  2.8614  0.3547  3.2835
10512TIP3    H231459   3.259   2.110   6.557 -2.5751 -0.2320 -1.2364
10513TIP3   OH231460   6.616   1.527   6.804  0.6589  0.4028 -0.1727
10513TIP3    H131461   6.575   1.569   6.880 -0.2355 -0.6803 -0.0446
10513TIP3    H231462   6.639   1.599   6.746  0.1769  1.1445  0.5498
10514TIP3   OH231463   1.546   5.019   0.141 -0.6060  0.1638  0.7370
10514TIP3    H131464   1.455   4.990   0.135 -0.2459 -0.6176 -1.6702
10514TIP3    H231465   1.591   4.948   0.186 -0.5036 -1.2668 -1.5121
10515TIP3   OH231466   0.668   5.355   1.104 -0.0884 -0.1004 -0.1505
10515TIP3    H131467   0.721   5.433   1.119 -1.8420  1.3322 -1.1572
10515TIP3    H231468   0.721   5.300   1.046 -0.1434  1.8595 -2.1450
10516TIP3   OH231469   8.086   4.612   0.112 -0.2591  0.8297  0.0510
10516TIP3    H131470   8.112   4.661   0.190  0.8546 -0.0745  0.2651
10516TIP3    H231471   8.153   4.544   0.102 -1.4931 -0.3561 -0.5101
10517TIP3   OH231472   7.888   3.845   0.866 -0.6998 -0.0239  0.4781
10517TIP3    H131473   7.832   3.882   0.797 -1.8577  2.3279  2.5971
10517TIP3    H231474   7.858   3.755   0.874 -0.4443 -0.3980 -2.1627
10518TIP3   OH231475   8.155   3.070   0.872 -0.2602 -0.3906 -0.8298
10518TIP3    H131476   8.074   3.043   0.916  0.5152  0.7499  1.3342
10518TIP3    H231477   8.128   3.141   0.813 -0.7478  0.4048  0.3348
10519TIP3   OH231478   0.966   4.138   1.138  0.0053 -0.5697  0.4810
10519TIP3    H131479   0.883   4.090   1.144  0.0256 -0.2964  4.0829
10519TIP3    H231480   1.027   4.076   1.098 -1.7377 -0.9876 -1.6422
10520TIP3   OH231481   0.203   2.773   0.765 -0.5845 -0.5871  0.1526
10520TIP3    H131482   0.271   2.839   0.778  0.2081 -1.0041 -1.7918
10520TIP3    H231483   0.198   2.727   0.849 -1.6794  2.3931  1.7815
10521TIP3   OH231484   1.351   5.859   0.216  0.3232 -0.1941 -0.4731
10521TIP3    H131485   1.338   5.805   0.293 -1.8797  0.6935 -0.1906
10521TIP3    H231486   1.412   5.927   0.244  0.5279 -0.6157  0.1063
10522TIP3   OH231487   1.024   5.160   2.170  0.2211  1.0120 -0.6502
10522TIP3    H131488   1.033   5.151   2.265  0.0969  0.4038 -0.6952
10522TIP3    H231489   1.087   5.229   2.147 -0.0216  1.4298 -0.0806
10523TIP3   OH231490   6.168   3.601   0.182  0.2409  0.3554  0.1153
10523TIP3    H131491   6.117   3.528   0.219 -0.1393 -0.2581 -1.5726
10523TIP3    H231492   6.110   3.640   0.118  1.6312  0.1011 -1.3282
10524TIP3   OH231493   0.545   4.867   0.615  0.3733 -0.1038  0.8604
10524TIP3    H131494   0.465   4.916   0.632 -0.2539 -0.5406 -0.7465
10524TIP3    H231495   0.519   4.775   0.624  0.3891 -0.2907 -0.8670
10525TIP3   OH231496   6.216   0.729   4.374  0.3649 -0.2867 -0.1398
10525TIP3    H131497   6.172   0.813   4.362 -0.9243 -1.0023 -0.5046
10525TIP3    H231498   6.223   0.719   4.469  0.4502  0.1929 -0.0924
10526TIP3   OH231499   7.548   1.554   6.653 -0.2252 -0.4868 -0.5063
10526TIP3    H131500   7.564   1.459   6.656 -0.0367 -0.4130  1.6323
10526TIP3    H231501   7.516   1.576   6.741 -0.3118  1.4345 -0.9940
10527TIP3   OH231502   5.450   8.189   6.643  0.0286  0.5208 -0.2516
10527TIP3    H131503   5.481   8.104   6.611 -2.0996 -0.6318  0.6797
10527TIP3    H231504   5.516   8.252   6.612  1.7477 -1.4843 -0.7504
10528TIP3   OH231505   1.754   4.832   2.238  0.2092  0.1615  0.1292
10528TIP3    H131506   1.823   4.779   2.278  0.2464  0.1328  0.0266
10528TIP3    H231507   1.754   4.913   2.288 -1.6155 -0.9617  1.9991
10529TIP3   OH231508   4.308   1.151   6.650  0.4533 -0.2185 -0.8243
10529TIP3    H131509   4.247   1.082   6.622  0.4318  0.0738 -1.5026
10529TIP3    H231510   4.393   1.108   6.652  0.3788 -0.3697 -0.8534
10530TIP3   OH231511   6.001   1.462   6.902  0.5573  0.0937 -0.3383
10530TIP3    H131512   6.037   1.382   6.940 -2.9431 -0.3026  2.4773
10530TIP3    H231513   6.074   1.523   6.898  2.1393 -1.5184  2.5701
10531TIP3   OH231514   8.137   5.727   1.102 -0.2208 -0.4987 -0.1114
10531TIP3    H131515   8.124   5.669   1.177  1.1156 -0.7369 -0.0458
10531TIP3    H231516   8.052   5.768   1.088 -0.7939 -1.3692  0.7712
10532TIP3   OH231517   1.594   4.248   0.401  0.3038 -0.3357 -0.2181
10532TIP3    H131518   1.612   4.202   0.483  1.4224 -0.5631 -0.5862
10532TIP3    H231519   1.652   4.207   0.337  1.2425  1.4967 -0.5826
10533TIP3   OH231520   0.817   5.615   0.772 -0.6797 -0.3776  0.6749
10533TIP3    H131521   0.784   5.689   0.721 -3.0088 -0.4114  2.0401
10533TIP3    H231522   0.837   5.548   0.707 -0.6833  0.6513 -0.4122
10534TIP3   OH231523   2.402   1.892   7.200  0.1748  0.4607 -0.3275
10534TIP3    H131524   2.373   1.855   7.117  0.2771  0.8304 -0.5315
10534TIP3    H231525   2.407   1.818   7.260  1.1350  0.0227 -0.9357
10535TIP3   OH231526   8.848   5.135   0.579  0.2134  0.1471  0.1581
10535TIP3    H131527   8.914   5.094   0.635 -0.7527 -0.0924  1.1533
10535TIP3    H231528   8.868   5.228   0.582  0.5336  0.0718  0.4208
10536TIP3   OH231529   3.642   2.742   6.575  0.1719  0.0220 -0.7241
10536TIP3    H131530   3.711   2.805   6.596  0.9261 -1.3421  0.9490
10536TIP3    H231531   3.561   2.788   6.595  0.7558 -0.0053  1.9183
10537TIP3   OH231532   5.434   1.259   7.223 -0.1233 -0.2142  0.2014
10537TIP3    H131533   5.523   1.294   7.223 -0.5026  0.8815 -2.3896
10537TIP3    H231534   5.378   1.336   7.222 -1.0783 -0.9041 -0.0634
10538TIP3   OH231535   1.622   4.038   0.603  0.1909  0.4608  0.6202
10538TIP3    H131536   1.675   3.959   0.593 -0.0399  0.1640  1.5997
10538TIP3    H231537   1.552   4.029   0.539  0.6659  0.2871  0.1290
10539TIP3   OH231538   6.232   2.523   5.431 -0.6833  0.2328 -0.0974
10539TIP3    H131539   6.223   2.565   5.345 -1.5152  1.9971  0.8318
10539TIP3    H231540   6.307   2.568   5.471 -1.2398  0.4579  0.6923
10540TIP3   OH231541   7.208   4.840   0.739  0.0446 -0.1515 -0.6747
10540TIP3    H131542   7.275   4.843   0.671 -0.5710 -2.4231 -1.4158
10540TIP3    H231543   7.127   4.816   0.693 -1.4222  2.9273  0.1287
10541TIP3   OH231544   8.828   4.709   1.556  0.1392 -0.1853 -0.1942
10541TIP3    H131545   8.740   4.735   1.585  1.0121  0.8541  1.5649
10541TIP3    H231546   8.819   4.616   1.535 -1.2570 -0.2337  0.5428
10542TIP3   OH231547   5.495   1.006   7.162 -0.5148 -0.9345  0.2712
10542TIP3    H131548   5.463   1.089   7.197 -1.5066 -1.2519  0.1546
10542TIP3    H231549   5.474   1.010   7.068 -1.4629 -1.7006  0.4344
10543TIP3   OH231550   5.026   0.945   5.152 -0.0952 -0.3926  0.1686
10543TIP3    H131551   5.077   1.024   5.167  3.3813 -2.3829 -0.6907
10543TIP3    H231552   5.002   0.915   5.240  0.1319  0.6106  0.5821
10544TIP3   OH231553   8.100   0.443   4.532 -0.0698  0.4771 -0.1124
10544TIP3    H131554   8.044   0.433   4.610  0.2622  1.0173  0.1954
10544TIP3    H231555   8.130   0.534   4.536  1.0655  0.1107 -0.1220
10545TIP3   OH231556   6.440   6.227   0.409 -0.3109  0.0539 -0.2951
10545TIP3    H131557   6.508   6.284   0.444 -1.8729  0.3074  2.4783
10545TIP3    H231558   6.454   6.144   0.453 -2.0551  0.2490  0.6584
10546TIP3   OH231559   5.602   2.834   5.655  0.2617  0.0840  0.1886
10546TIP3    H131560   5.647   2.863   5.734  0.0038 -0.4068  0.5188
10546TIP3    H231561   5.659   2.767   5.618  0.6329  0.6731 -0.3252
10547TIP3   OH231562   8.106   7.358   0.395 -0.5221  0.2329  0.2856
10547TIP3    H131563   8.022   7.313   0.390 -0.0904 -0.4191 -1.8922
10547TIP3    H231564   8.164   7.297   0.439 -0.9894  0.3545  1.0701
10548TIP3   OH231565   8.617   4.889   0.625 -0.0217  0.1517  0.7792
10548TIP3    H131566   8.534   4.860   0.587 -0.3202 -1.4405  2.5883
10548TIP3    H231567   8.683   4.846   0.571 -0.3592  0.9179 -0.2720
10549TIP3   OH231568   3.427   1.176   5.390  0.3373  0.0314 -0.1774
10549TIP3    H131569   3.435   1.154   5.297 -0.5915 -1.8467  0.1505
10549TIP3    H231570   3.510   1.218   5.412  0.3344  1.0549 -1.9884
10550TIP3   OH231571   3.523   8.280   6.934 -0.4472 -0.3408  0.4181
10550TIP3    H131572   3.463   8.214   6.970 -1.9673 -0.7488 -2.6963
10550TIP3    H231573   3.600   8.230   6.906 -1.1091 -0.6419 -0.8776
10551TIP3   OH231574   3.787   2.055   6.272  0.4313 -0.4278 -0.1727
10551TIP3    H131575   3.870   2.010   6.257  0.4348 -0.4158 -0.1907
10551TIP3    H231576   3.765   2.037   6.363 -0.9916 -2.8389 -0.9406
10552TIP3   OH231577   2.003   5.324   0.358  0.8090  0.0244 -0.3668
10552TIP3    H131578   1.961   5.340   0.443 -1.1233 -0.0713 -1.2818
10552TIP3    H231579   2.078   5.383   0.357  1.2214 -0.4257  1.6687
10553TIP3   OH231580   5.306   0.800   6.633 -0.4839  0.0624  0.5481
10553TIP3    H131581   5.365   0.810   6.708 -0.6438 -0.1694  0.7070
10553TIP3    H231582   5.265   0.885   6.624 -0.5244  0.0687  0.7785
10554TIP3   OH231583   3.877   1.362   4.461  0.1576 -0.4535  0.3188
10554TIP3    H131584   3.840   1.395   4.379  1.1160 -1.5212 -0.5468
10554TIP3    H231585   3.823   1.286   4.483 -1.4429  1.0536  1.8154
10555TIP3   OH231586   0.795   6.565   1.092 -0.2835 -0.2172 -0.3591
10555TIP3    H131587   0.758   6.637   1.143  0.0497 -0.7306  0.6113
10555TIP3    H231588   0.879   6.598   1.061 -0.4766  0.0860 -0.5675
10556TIP3   OH231589   1.409   8.168   6.600  0.2180 -0.0043 -0.6553
10556TIP3    H131590   1.344   8.181   6.531  0.0773  2.9824 -0.0391
10556TIP3    H231591   1.493   8.193   6.560  0.2980  0.6127 -0.1219
10557TIP3   OH231592   3.826   1.736   6.025 -0.3161  0.0241  0.3414
10557TIP3    H131593   3.866   1.687   5.954 -1.1642  1.0522 -0.8704
10557TIP3    H231594   3.821   1.826   5.992  0.0920  0.6893  2.0423
10558TIP3   OH231595   5.774   3.148   5.688  0.0183 -0.0642  0.1206
10558TIP3    H131596   5.809   3.209   5.623  2.4642 -2.0719 -0.5503
10558TIP3    H231597   5.683   3.137   5.663  1.0955 -1.4716 -3.6446
10559TIP3   OH231598   4.856   1.890   5.993  0.4589 -0.1572  0.3751
10559TIP3    H131599   4.935   1.945   5.997  0.7473 -0.4688 -1.0099
10559TIP3    H231600   4.889   1.800   5.995 -0.0006 -0.3108  2.2913
10560TIP3   OH231601   8.640   5.690   1.811  0.2645 -0.1228  0.1960
10560TIP3    H131602   8.617   5.622   1.875 -0.8263 -0.1441 -0.1971
10560TIP3    H231603   8.616   5.653   1.727 -2.1364  1.4385  0.1252
10561TIP3   OH231604   5.704   0.626   6.218  0.1224  0.0871 -0.4830
10561TIP3    H131605   5.732   0.717   6.208 -0.2955  0.2406 -0.2708
10561TIP3    H231606   5.627   0.619   6.161 -0.8803  0.3303  0.8263
10562TIP3   OH231607   6.861   5.363   0.063  0.0289  0.0619 -0.0045
10562TIP3    H131608   6.788   5.355   0.002 -0.2382  1.0463  0.1850
10562TIP3    H231609   6.886   5.455   0.059  1.2681 -0.2691 -0.0722
10563TIP3   OH231610   1.699   7.655   6.361 -0.2070 -0.5573  0.6287
10563TIP3    H131611   1.718   7.747   6.341 -1.7140  0.0689  1.9128
10563TIP3    H231612   1.661   7.620   6.280 -1.1456  0.4066  0.6471
10564TIP3   OH231613   0.462   6.458   1.055 -0.3168 -0.7424  0.5657
10564TIP3    H131614   0.440   6.517   0.983  0.5569 -1.7669 -0.5574
10564TIP3    H231615   0.473   6.515   1.131 -1.4327  0.3297 -0.0673
10565TIP3   OH231616   5.999   3.363   1.084  0.4267 -0.1524 -0.1597
10565TIP3    H131617   6.086   3.371   1.124  0.1228  0.2857  0.4301
10565TIP3    H231618   5.987   3.445   1.037 -0.6543  0.8211  1.7632
10566TIP3   OH231619   4.741   1.170   6.859 -0.2126  0.6818  0.1216
10566TIP3    H131620   4.764   1.169   6.952  0.2660  2.1169  0.0451
10566TIP3    H231621   4.825   1.158   6.813 -0.0875  2.3691 -0.1299
10567TIP3   OH231622   6.671   4.911   0.598 -0.5625  0.4213 -0.0200
10567TIP3    H131623   6.633   4.827   0.623 -0.7111  0.4280 -0.2275
10567TIP3    H231624   6.638   4.972   0.665 -1.1851  0.4902 -0.3814
10568TIP3   OH231625   6.246   1.869   6.212  0.0214 -0.9576 -0.2162
10568TIP3    H131626   6.200   1.838   6.290 -0.5259  0.0290 -0.1465
10568TIP3    H231627   6.291   1.791   6.179  0.4352 -1.3316  1.1941
10569TIP3   OH231628   1.512   5.178   0.357  0.2946  0.4851  0.5722
10569TIP3    H131629   1.510   5.158   0.264  0.2130  1.5203  0.3526
10569TIP3    H231630   1.497   5.272   0.362 -2.0318  0.0909  1.7396
10570TIP3   OH231631   1.104   8.388   4.799 -0.0530 -0.2245  0.2235
10570TIP3    H131632   1.075   8.424   4.716  0.8798 -0.8298 -0.3726
10570TIP3    H231633   1.141   8.302   4.777 -1.6973 -1.3149  1.5397
10571TIP3   OH231634   3.631   0.756   6.430 -0.5656 -0.2104 -0.2805
10571TIP3    H131635   3.645   0.767   6.336 -2.8658 -2.2522 -0.9143
10571TIP3    H231636   3.592   0.838   6.459  1.5645  0.9998 -0.7898
10572TIP3   OH231637   8.215   6.156   0.139  0.2496  0.0434 -0.1616
10572TIP3    H131638   8.265   6.133   0.217 -0.2392  0.9144  0.4232
10572TIP3    H231639   8.125   6.164   0.170  0.1587  1.1116 -0.6620
10573TIP3   OH231640   0.762   5.185   0.392 -0.2496 -0.1594 -0.4651
10573TIP3    H131641   0.797   5.197   0.304 -0.5979  0.1540 -0.5643
10573TIP3    H231642   0.792   5.098   0.418  1.1589  0.3822 -0.2732
10574TIP3   OH231643   0.947   4.820   1.450 -0.2182 -0.1170 -0.1870
10574TIP3    H131644   0.865   4.845   1.407 -0.3341  0.3539  0.3068
10574TIP3    H231645   0.969   4.736   1.410  0.2940  0.8585 -2.0090
10575TIP3   OH231646   0.925   4.335   0.962  0.1285  0.2026 -0.2570
10575TIP3    H131647   0.884   4.413   1.000  1.1563  1.3837 -1.4813
10575TIP3    H231648   0.912   4.266   1.027 -0.9203  1.3686  0.7924
10576TIP3   OH231649   5.295   1.640   6.826 -0.6171 -0.0576 -0.2905
10576TIP3    H131650   5.271   1.656   6.918  0.8753  0.4774  0.0250
10576TIP3    H231651   5.224   1.587   6.791 -0.4052 -1.6751  1.6317
10577TIP3   OH231652   0.002   3.962   0.359  0.1298 -0.2106  0.0248
10577TIP3    H131653  -0.045   3.882   0.383 -2.6604  1.6826  1.0765
10577TIP3    H231654   0.092   3.947   0.388  0.0915 -3.6753 -1.4591
10578TIP3   OH231655   0.533   5.971   0.065 -1.0118 -0.2492 -0.7211
10578TIP3    H131656   0.492   5.893   0.102 -2.4464 -0.1303 -2.0075
10578TIP3    H231657   0.466   6.039   0.073  0.1224  0.7862  0.1338
10579TIP3   OH231658   0.980   8.188   7.152 -0.1564  0.6122  0.3407
10579TIP3    H131659   1.045   8.178   7.082 -0.1321  0.0622  0.4418
10579TIP3    H231660   0.912   8.243   7.114 -0.0958  0.3938 -0.0794
10580TIP3   OH231661   0.638   5.846   3.219 -0.4174 -0.4104 -1.1142
10580TIP3    H131662   0.599   5.780   3.275  0.6163 -0.6934 -0.7208
10580TIP3    H231663   0.593   5.927   3.242 -0.1018 -0.5507  0.0124
10581TIP3   OH231664   1.631   8.016   5.335  0.1326 -0.4554  0.3526
10581TIP3    H131665   1.552   7.967   5.356  0.3368 -0.3902  1.2998
10581TIP3    H231666   1.648   7.996   5.244 -0.4989 -1.1446  0.3816
10582TIP3   OH231667   6.149   1.256   6.570  0.1915 -0.1732  0.0605
10582TIP3    H131668   6.183   1.213   6.492 -0.4581  0.2405 -0.4527
10582TIP3    H231669   6.206   1.332   6.583 -0.0724  0.0962 -0.3592
10583TIP3   OH231670   7.079   0.323   5.002  0.1075  0.4302  0.3370
10583TIP3    H131671   7.115   0.358   5.084 -0.0203  0.8984  0.1954
10583TIP3    H231672   7.147   0.338   4.937  0.6492 -0.9301  0.5757
10584TIP3   OH231673   5.943   2.973   5.838 -0.1977 -0.2843 -0.2251
10584TIP3    H131674   6.030   2.946   5.810 -1.2035 -1.9123 -1.8681
10584TIP3    H231675   5.915   3.037   5.772 -0.1242  0.5147  0.5009
10585TIP3   OH231676   5.779   0.044   6.585  0.4074  0.4398 -0.2646
10585TIP3    H131677   5.826  -0.028   6.627  1.4465  1.5203  0.4527
10585TIP3    H231678   5.782   0.023   6.492 -1.2119 -1.5570  0.1126
10586TIP3   OH231679   6.427   0.960   6.046  0.0846 -0.3029  0.3469
10586TIP3    H131680   6.448   1.051   6.066 -1.4936 -0.2075  1.7447
10586TIP3    H231681   6.462   0.946   5.958  1.5119  1.2478  0.6364
10587TIP3   OH231682   6.128   1.220   6.107 -0.4053 -0.4102  1.0774
10587TIP3    H131683   6.148   1.167   6.184  0.4354  0.0651  1.1885
10587TIP3    H231684   6.038   1.251   6.122 -0.1237 -0.0221  2.0480
10588TIP3   OH231685   3.888   7.939   7.001 -0.1237  0.7008  0.1954
10588TIP3    H131686   3.863   7.964   7.090 -0.8854  0.6963 -0.0120
10588TIP3    H231687   3.861   7.847   6.993 -2.2231  1.3748 -0.8123
10589TIP3   OH231688   7.758   5.786   0.860 -0.2984 -0.0977  0.3514
10589TIP3    H131689   7.805   5.864   0.831  0.6210 -0.8415 -0.1929
10589TIP3    H231690   7.669   5.797   0.827 -0.3287  0.9856  0.7753
10590TIP3   OH231691   3.109   1.046   6.785  0.4031 -0.0130  0.1700
10590TIP3    H131692   3.057   0.979   6.830 -0.8662  0.2806 -0.7984
10590TIP3    H231693   3.175   1.073   6.848 -0.2865 -0.8014  1.2457
10591TIP3   OH231694   0.295   6.232   0.627  0.0145 -0.1891  0.2587
10591TIP3    H131695   0.357   6.299   0.657 -2.2674  2.6799 -1.1312
10591TIP3    H231696   0.240   6.215   0.704  1.6240 -1.7982  1.1118
10592TIP3   OH231697   5.197   2.286   6.517 -1.0671  0.3903 -0.0515
10592TIP3    H131698   5.146   2.367   6.521 -1.9311 -0.1173 -0.5695
10592TIP3    H231699   5.146   2.228   6.460 -0.7618 -0.7371  0.8127
10593TIP3   OH231700   7.242   2.572   6.592  0.1260 -0.3948  0.7402
10593TIP3    H131701   7.329   2.586   6.631 -0.6256 -1.3083  2.8278
10593TIP3    H231702   7.230   2.646   6.532  2.5534 -0.5262  0.0147
10594TIP3   OH231703   0.112   6.424   0.003 -0.6256 -1.1993  0.2569
10594TIP3    H131704   0.129   6.513   0.034 -0.2584 -1.0357 -0.4019
10594TIP3    H231705   0.080   6.377   0.080 -3.1846  0.1574  0.0774
10595TIP3   OH231706   1.743   4.343   0.063  0.4335 -0.4696  0.0604
10595TIP3    H131707   1.653   4.341   0.094  0.8935 -0.8672  1.3861
10595TIP3    H231708   1.735   4.354  -0.032 -0.9874  0.2513  0.2480
10596TIP3   OH231709   5.137   2.231   5.633  0.3468 -0.2324 -0.1123
10596TIP3    H131710   5.206   2.173   5.667 -0.7577 -1.3732  0.2411
10596TIP3    H231711   5.167   2.256   5.546  0.9354 -1.1967 -0.1966
10597TIP3   OH231712   4.992   1.177   4.508  0.3017 -0.1109  0.1417
10597TIP3    H131713   4.965   1.166   4.599 -2.0648 -1.2309 -0.6461
10597TIP3    H231714   4.915   1.152   4.457  1.2129  1.6122 -2.1644
10598TIP3   OH231715   7.479   5.196   0.020  0.5331  0.4106 -0.1918
10598TIP3    H131716   7.527   5.142   0.083  0.1739 -0.9497 -1.0498
10598TIP3    H231717   7.490   5.286   0.052  2.8273  0.0492  0.1627
10599TIP3   OH231718   5.683   0.557   5.779  0.0510  0.5063  0.6425
10599TIP3    H131719   5.696   0.638   5.829 -0.6636  0.7454  0.4384
10599TIP3    H231720   5.720   0.576   5.693 -0.0608  0.5989  0.6144
10600TIP3   OH231721   4.546   0.770   4.464  0.1886 -0.1522 -0.0334
10600TIP3    H131722   4.472   0.714   4.440 -0.4504  0.6950 -0.0846
10600TIP3    H231723   4.600   0.773   4.384  0.8527 -1.6357  0.3414
10601TIP3   OH231724   3.594   1.274   4.923 -0.1077 -0.5363  0.0325
10601TIP3    H131725   3.544   1.217   4.864  0.3007  0.5276 -1.3717
10601TIP3    H231726   3.671   1.299   4.873  0.3640  0.2066  1.1102
10602TIP3   OH231727   2.006   6.056   1.667  0.0886  0.3316 -0.0245
10602TIP3    H131728   1.968   5.972   1.694 -0.7818  1.2713  1.7374
10602TIP3    H231729   1.974   6.070   1.578 -1.6618 -0.0952  0.5250
10603TIP3   OH231730   3.200   1.553   6.500  0.4380  0.0967 -0.0321
10603TIP3    H131731   3.133   1.621   6.493 -0.0423 -0.4191 -0.5159
10603TIP3    H231732   3.195   1.524   6.591  1.7019  1.7717  0.5907
10604TIP3   OH231733   4.212   7.798   7.071 -0.5764 -0.0034  0.6473
10604TIP3    H131734   4.194   7.714   7.115 -1.0778 -1.1426 -1.6661
10604TIP3    H231735   4.299   7.822   7.102 -0.2314 -1.6223  1.0134
10605TIP3   OH231736   8.628   5.085   0.110  0.2455 -0.4923  0.1212
10605TIP3    H131737   8.553   5.123   0.064 -0.3244 -0.1292  1.3472
10605TIP3    H231738   8.700   5.146   0.093  1.0074 -2.1791 -3.2957
10606TIP3   OH231739   4.335   0.616   5.511  0.5385 -0.7732  0.6103
10606TIP3    H131740   4.419   0.662   5.505  1.4343 -2.4598 -0.1367
10606TIP3    H231741   4.290   0.637   5.430 -0.5339  1.5417  1.7549
10607TIP3   OH231742   7.808   5.955   0.123  0.3627 -0.0013 -0.1312
10607TIP3    H131743   7.744   5.991   0.062 -1.4748 -0.9389  1.1939
10607TIP3    H231744   7.786   5.862   0.129  1.8559 -0.3453  0.3353
10608TIP3   OH231745   5.062   1.487   6.749  0.2494 -0.2279  0.3442
10608TIP3    H131746   4.992   1.469   6.812 -0.0629 -1.5060 -0.3523
10608TIP3    H231747   5.113   1.406   6.746  1.2627  0.3994  0.2025
10609TIP3   OH231748   5.291   2.553   6.186  0.3224  0.0027 -0.5105
10609TIP3    H131749   5.343   2.629   6.158  2.6404 -1.0435  0.8644
10609TIP3    H231750   5.331   2.479   6.142  0.6505 -0.9576  1.3709
10610TIP3   OH231751   4.795   3.301   6.085  0.2947  0.0538 -0.2880
10610TIP3    H131752   4.745   3.364   6.135  0.0680 -0.0292 -0.4081
10610TIP3    H231753   4.855   3.354   6.032 -0.1727  0.1884 -0.6865
10611TIP3   OH231754   6.032   1.960   4.556 -0.0485  0.2678  0.2758
10611TIP3    H131755   6.080   1.904   4.495 -1.0231 -2.0284  1.5446
10611TIP3    H231756   6.098   1.990   4.618  0.1763 -1.0518  0.6978
10612TIP3   OH231757   4.884   2.737   3.011  0.4355  0.2275 -0.1636
10612TIP3    H131758   4.926   2.810   2.967 -0.1326  1.3590  1.1425
10612TIP3    H231759   4.956   2.680   3.039  0.8904  0.4112 -0.9565
10613TIP3   OH231760   5.506   0.358   5.822 -0.0102 -0.1667 -0.2146
10613TIP3    H131761   5.503   0.344   5.917 -3.4470 -0.9979 -0.4112
10613TIP3    H231762   5.569   0.430   5.811 -1.0952  1.3450  2.8604
10614TIP3   OH231763   2.119   2.836   6.311 -0.7213 -0.1723  0.0001
10614TIP3    H131764   2.202   2.790   6.312 -1.1071 -0.8640  0.2711
10614TIP3    H231765   2.114   2.875   6.223 -0.7115 -1.2231 -0.4742
10615TIP3   OH231766   8.418   5.638   0.242  1.0089 -0.9957  0.0468
10615TIP3    H131767   8.427   5.543   0.244  1.3008 -0.9506  2.9109
10615TIP3    H231768   8.464   5.669   0.320  1.1031  1.5308 -0.9383
10616TIP3   OH231769   0.109   5.623   1.104 -0.1726  0.1444  0.2151
10616TIP3    H131770   0.096   5.560   1.175  0.8382  0.4977  0.7088
10616TIP3    H231771   0.134   5.569   1.029 -1.6106 -0.2676  0.0097
10617TIP3   OH231772   5.696   1.719   5.978 -0.5423  0.3494  0.1048
10617TIP3    H131773   5.622   1.780   5.976 -1.9629 -1.3803 -0.8088
10617TIP3    H231774   5.657   1.633   5.992  1.1284 -0.7830 -1.8146
10618TIP3   OH231775   6.438   1.918   5.922  0.6289  0.5858  0.2061
10618TIP3    H131776   6.501   1.971   5.874  0.9552  0.4076  0.4357
10618TIP3    H231777   6.375   1.982   5.957  0.5859  0.7449 -0.1630
10619TIP3   OH231778   2.462   7.613   6.243  0.5242 -0.2423  0.0737
10619TIP3    H131779   2.448   7.531   6.195 -0.9234  0.1355 -0.1728
10619TIP3    H231780   2.383   7.624   6.295  1.1894  0.4405  0.9477
10620TIP3   OH231781   5.169   2.120   4.930  0.3603 -0.3257 -0.2689
10620TIP3    H131782   5.137   2.105   4.841  0.2657 -2.0572  0.0414
10620TIP3    H231783   5.121   2.057   4.984 -1.0532  2.0419  1.3529
10621TIP3   OH231784   3.667   1.762   6.425  0.5206 -0.3129  0.3018
10621TIP3    H131785   3.719   1.683   6.411  1.4050  0.6079 -1.9048
10621TIP3    H231786   3.619   1.774   6.343  1.5397  2.2689  0.0401
10622TIP3   OH231787   4.246   0.895   6.733  0.5008  0.0415 -0.3516
10622TIP3    H131788   4.259   0.824   6.670  1.0575  1.6068 -2.0315
10622TIP3    H231789   4.156   0.923   6.719 -0.5416 -1.9296  2.0317
10623TIP3   OH231790   6.854   5.825   1.345  0.3447  0.3805  0.1733
10623TIP3    H131791   6.829   5.917   1.336  2.0403  0.6517 -2.0534
10623TIP3    H231792   6.917   5.824   1.417 -0.1112  0.8541  0.5831
10624TIP3   OH231793   5.236   1.067   6.580 -0.4649 -0.2982 -0.0560
10624TIP3    H131794   5.245   1.148   6.631 -1.3084 -0.9663  1.1689
10624TIP3    H231795   5.259   1.093   6.491  0.9515  0.9030  0.6349
10625TIP3   OH231796   6.244   6.531   0.295 -0.3626 -0.0175  0.0993
10625TIP3    H131797   6.155   6.530   0.261 -0.0834  1.1005 -0.6920
10625TIP3    H231798   6.293   6.473   0.236 -0.1946  0.7541 -0.5229
10626TIP3   OH231799   7.260   1.091   6.734  0.2867 -0.0719 -0.5004
10626TIP3    H131800   7.215   1.008   6.748  0.6050  0.0083  1.0386
10626TIP3    H231801   7.191   1.157   6.740  0.3209 -0.0878  0.1124
10627TIP3   OH231802   3.935   5.888   1.031  0.5665 -0.1351 -0.2993
10627TIP3    H131803   3.969   5.850   0.951  0.7448 -1.4851  0.4058
10627TIP3    H231804   3.886   5.966   1.002  0.9425 -0.4014 -1.6628
10628TIP3   OH231805   0.874   5.570   1.030 -0.4008 -0.0356 -0.1571
10628TIP3    H131806   0.840   5.611   0.950 -0.6402 -0.5121 -0.2972
10628TIP3    H231807   0.945   5.513   0.999  0.3206  0.7138  0.1006
10629TIP3   OH231808   0.850   4.338   0.686 -0.4188  0.1554 -0.9741
10629TIP3    H131809   0.772   4.286   0.706 -0.8588  1.5594  1.1914
10629TIP3    H231810   0.891   4.352   0.771  0.9406  1.3749 -1.8167
10630TIP3   OH231811   1.837   5.418   0.788  0.5867 -0.2235  0.1646
10630TIP3    H131812   1.923   5.389   0.756  0.5287 -1.6055  1.2301
10630TIP3    H231813   1.834   5.511   0.767  2.3270 -0.1769  0.0670
10631TIP3   OH231814   5.691   1.149   6.062  0.5948 -0.0953  0.1811
10631TIP3    H131815   5.598   1.172   6.055  0.0404 -2.4261 -0.7648
10631TIP3    H231816   5.723   1.156   5.972  0.3108 -3.1666 -0.2213
10632TIP3   OH231817   5.501   1.206   5.618  0.1194 -0.7376 -0.0488
10632TIP3    H131818   5.575   1.265   5.601 -0.8653  1.3536  2.5838
10632TIP3    H231819   5.457   1.198   5.534 -0.7466  3.7837 -0.1694
10633TIP3   OH231820   3.399   0.409   4.706  0.7054  0.1352  0.2231
10633TIP3    H131821   3.429   0.319   4.697 -0.3742 -0.1903 -0.2488
10633TIP3    H231822   3.412   0.430   4.799 -0.4241 -1.0131  0.6549
10634TIP3   OH231823   5.093   1.682   5.188  0.1583  0.8568  0.3003
10634TIP3    H131824   5.097   1.776   5.202 -0.4154  0.9825 -0.3191
10634TIP3    H231825   5.125   1.643   5.269  1.9657  1.6017 -0.0405
10635TIP3   OH231826   5.972   6.539   0.751 -0.1401  0.0184 -0.4918
10635TIP3    H131827   6.022   6.586   0.685  0.9559 -0.5580 -0.0838
10635TIP3    H231828   6.011   6.452   0.754 -1.2508 -0.4821 -0.2523
10636TIP3   OH231829   7.382   2.422   5.929  0.5792  0.0560  0.4375
10636TIP3    H131830   7.334   2.366   5.867  3.2215 -0.5608 -1.1508
10636TIP3    H231831   7.365   2.511   5.898 -0.0957 -0.1119  0.3083
10637TIP3   OH231832   6.521   1.253   6.420  0.1975 -0.0544  0.4641
10637TIP3    H131833   6.478   1.274   6.337 -0.0810 -1.2488  0.2928
10637TIP3    H231834   6.569   1.332   6.443  1.3894 -0.1698 -1.5361
10638TIP3   OH231835   6.861   2.149   6.656 -0.0965 -0.2198  0.1654
10638TIP3    H131836   6.928   2.123   6.593 -0.3999 -0.8976  0.1160
10638TIP3    H231837   6.829   2.066   6.692 -1.8451  0.0389 -0.7632
10639TIP3   OH231838   5.299   3.391   5.998  0.5683 -0.1864 -0.3395
10639TIP3    H131839   5.348   3.459   6.045 -0.6945  0.5344 -0.0327
10639TIP3    H231840   5.255   3.342   6.067 -1.1248  0.7392 -0.7353
10640TIP3   OH231841   5.505   1.981   4.450 -0.5634  0.8918 -0.5919
10640TIP3    H131842   5.505   2.051   4.515  0.6967  1.7242 -1.4586
10640TIP3    H231843   5.430   1.927   4.473 -0.3846  1.3943  1.3054
10641TIP3   OH231844   0.814   6.526   0.055 -0.5550 -0.5204 -0.0788
10641TIP3    H131845   0.813   6.430   0.058 -0.6222 -0.5040  0.4060
10641TIP3    H231846   0.736   6.549   0.004  0.0504 -0.7542 -1.1324
10642TIP3   OH231847   8.768   3.900   1.498 -0.0771 -0.3927  1.4267
10642TIP3    H131848   8.797   3.973   1.553 -0.5619 -0.7097  2.1021
10642TIP3    H231849   8.796   3.822   1.546 -2.1184 -0.7073  2.1186
10643TIP3   OH231850   8.410   1.643   6.597 -0.5263  0.0060 -0.3238
10643TIP3    H131851   8.488   1.588   6.592  0.6968  1.4274  2.4204
10643TIP3    H231852   8.416   1.701   6.522  1.6914  0.8760  0.5047
10644TIP3   OH231853   5.577   0.728   7.124  0.5285  1.0739 -0.2067
10644TIP3    H131854   5.642   0.691   7.183  0.2903  0.1598 -0.5078
10644TIP3    H231855   5.600   0.820   7.118  1.7719  0.7723 -0.2676
10645TIP3   OH231856   1.183   5.949   0.626 -0.1616 -0.0668  0.2649
10645TIP3    H131857   1.255   5.894   0.594 -1.2751 -1.7982  0.6796
10645TIP3    H231858   1.197   5.955   0.720 -0.0659  0.3666  0.2277
10646TIP3   OH231859   1.501   7.770   0.262  0.0409 -0.5137  0.8273
10646TIP3    H131860   1.576   7.825   0.287  1.0849 -1.0737 -1.0124
10646TIP3    H231861   1.425   7.819   0.292  1.0278  1.3289  0.4065
10647TIP3   OH231862   0.871   3.662   1.314 -0.0311  0.1226 -0.4746
10647TIP3    H131863   0.853   3.593   1.377  0.0035 -1.1454 -1.8245
10647TIP3    H231864   0.851   3.744   1.360 -0.3230 -0.8035  1.0426
10648TIP3   OH231865   7.719   5.378   1.425  0.2490 -0.1252 -0.2985
10648TIP3    H131866   7.742   5.376   1.519 -0.3475  0.6703 -0.1362
10648TIP3    H231867   7.764   5.455   1.392 -0.1502  0.0091 -0.5183
10649TIP3   OH231868   7.176   4.919   0.199  0.0579  0.0311 -0.6185
10649TIP3    H131869   7.125   5.000   0.190 -1.0644 -0.4094  1.5233
10649TIP3    H231870   7.125   4.854   0.152 -0.2053  0.0846 -0.4116
10650TIP3   OH231871   6.745   2.125   6.092  0.1733  0.4403 -0.8003
10650TIP3    H131872   6.806   2.177   6.040  0.7404 -1.7473 -2.4182
10650TIP3    H231873   6.675   2.102   6.032 -0.3548 -0.1546  0.0276
10651TIP3   OH231874   5.462   3.595   6.088  0.1438 -0.7987 -0.0785
10651TIP3    H131875   5.471   3.681   6.047 -0.2887 -0.7160 -0.0107
10651TIP3    H231876   5.551   3.563   6.098  0.3754  0.0864  0.8251
10652TIP3   OH231877   6.134   2.814   7.240 -0.5916 -0.2618  0.5557
10652TIP3    H131878   6.118   2.796   7.147 -2.6708  1.9066  0.4459
10652TIP3    H231879   6.079   2.751   7.286 -3.6811  2.0983  0.2261
10653TIP3   OH231880   7.356   7.240   0.493  0.7959 -0.0185  0.1333
10653TIP3    H131881   7.389   7.185   0.564  2.5939 -0.1471 -0.7667
10653TIP3    H231882   7.311   7.179   0.433  0.7707 -0.1607  0.2975
10654TIP3   OH231883   4.455   3.256   6.025  0.2999  1.0884  0.1924
10654TIP3    H131884   4.532   3.270   5.969  1.1177 -0.2993  0.9318
10654TIP3    H231885   4.485   3.279   6.113  1.1216 -3.1501  1.1475
10655TIP3   OH231886   4.399   5.024   6.679  0.4198 -0.1675 -0.1733
10655TIP3    H131887   4.406   4.937   6.640 -0.1824 -0.3825  0.1995
10655TIP3    H231888   4.447   5.017   6.762  0.6761 -0.0470 -0.3126
10656TIP3   OH231889   4.875   1.764   6.974  0.6675  0.8078  0.0660
10656TIP3    H131890   4.944   1.804   7.027 -0.9277  1.5792  1.6098
10656TIP3    H231891   4.828   1.707   7.034  0.5601 -0.4802 -1.2205
10657TIP3   OH231892   6.365   2.680   6.336  0.3639 -0.0965 -0.2794
10657TIP3    H131893   6.288   2.722   6.372  0.6868 -1.0326  1.5346
10657TIP3    H231894   6.332   2.603   6.290  0.1728 -0.1229 -0.0926
10658TIP3   OH231895   3.764   0.819   6.989 -0.2150  0.1315  0.1591
10658TIP3    H131896   3.703   0.880   6.949 -1.0236 -0.3237  0.6784
10658TIP3    H231897   3.740   0.818   7.082 -0.0631 -0.8010  0.1940
10659TIP3   OH231898   1.388   5.422   0.246 -0.0437 -0.2077  0.4056
10659TIP3    H131899   1.453   5.432   0.176 -0.2441 -2.1341 -0.0817
10659TIP3    H231900   1.352   5.510   0.258  2.2534  0.8000  0.3045
10660TIP3   OH231901   4.257   1.668   6.537  0.4822  0.7142 -0.2417
10660TIP3    H131902   4.285   1.730   6.604  0.6285 -0.0159  0.3810
10660TIP3    H231903   4.285   1.582   6.570 -0.0236  0.2782 -0.9249
10661TIP3   OH231904   4.861   2.725   5.828 -0.6159  0.6606  0.6280
10661TIP3    H131905   4.947   2.766   5.818  0.8600 -2.0905  1.4994
10661TIP3    H231906   4.832   2.752   5.916 -0.3246  0.9627  0.6332
10662TIP3   OH231907   7.456   0.888   6.577  0.9808 -0.5524 -0.1102
10662TIP3    H131908   7.501   0.908   6.659 -0.2737  0.5679  0.3280
10662TIP3    H231909   7.507   0.933   6.510  0.9578  0.0903  0.2968
10663TIP3   OH231910   3.913   1.978   5.866  0.1252 -0.7798 -0.2647
10663TIP3    H131911   3.930   2.072   5.866 -2.5247 -0.2171  2.1235
10663TIP3    H231912   3.975   1.943   5.930 -0.4740 -0.3047  0.5819
10664TIP3   OH231913   3.777   6.572   5.391 -0.3596  0.4027 -0.4637
10664TIP3    H131914   3.749   6.620   5.469 -1.1934 -1.0090  0.1268
10664TIP3    H231915   3.697   6.564   5.338 -0.4245 -1.0137 -0.1747
10665TIP3   OH231916   4.022   0.673   5.985  0.1245 -0.3972  0.2730
10665TIP3    H131917   3.949   0.617   5.958  1.7754 -1.4053 -2.2554
10665TIP3    H231918   3.986   0.761   5.984 -0.7602 -0.7448 -2.2012
10666TIP3   OH231919   3.616   1.989   6.043 -0.1682  0.4171  0.3618
10666TIP3    H131920   3.541   1.975   6.100  0.0046 -2.7092 -0.0478
10666TIP3    H231921   3.681   2.031   6.099 -1.8353  2.2473  0.9808
10667TIP3   OH231922   7.455   0.992   5.556 -0.1152 -0.3860 -0.2420
10667TIP3    H131923   7.509   1.024   5.484  0.6463 -0.0091  0.4972
10667TIP3    H231924   7.488   0.904   5.573 -0.8376 -0.7954 -0.8846
10668TIP3   OH231925   1.394   5.040   0.888  0.1500 -0.4324  0.1246
10668TIP3    H131926   1.447   5.067   0.962 -2.2749  0.4485  1.5992
10668TIP3    H231927   1.457   5.012   0.822  2.4137  0.5772  1.8031
10669TIP3   OH231928   8.379   0.519   5.374 -0.7359  0.6683 -0.3627
10669TIP3    H131929   8.388   0.565   5.290 -2.1341 -0.0312 -0.9031
10669TIP3    H231930   8.334   0.438   5.353  0.7196 -0.4657  0.7719
10670TIP3   OH231931   0.969   4.821   0.746  0.1245 -0.1854 -0.1420
10670TIP3    H131932   0.920   4.873   0.809 -0.7790 -2.0397  0.7413
10670TIP3    H231933   1.033   4.773   0.799  1.1543  0.2359 -0.9786
10671TIP3   OH231934   8.134   1.605   5.015  0.3507 -0.0313 -0.3967
10671TIP3    H131935   8.046   1.631   4.988 -0.1468  0.1142  1.3624
10671TIP3    H231936   8.138   1.511   4.997 -0.8003 -0.4014  1.2576
10672TIP3   OH231937   4.518   2.073   6.493 -0.0926 -0.0610 -0.0172
10672TIP3    H131938   4.431   2.101   6.522  0.4724  1.9732 -0.2322
10672TIP3    H231939   4.533   1.990   6.539 -0.8508  1.1378  2.4656
10673TIP3   OH231940   5.607   0.593   5.162 -0.8669  0.1627  0.2247
10673TIP3    H131941   5.595   0.509   5.119 -1.2810  0.9670 -1.2685
10673TIP3    H231942   5.646   0.571   5.247 -1.5754 -1.5673  0.1225
10674TIP3   OH231943   5.453   2.346   5.040  0.3231  1.0900 -0.0267
10674TIP3    H131944   5.545   2.360   5.063  0.2499  0.8471  0.4147
10674TIP3    H231945   5.445   2.384   4.953  0.2009  3.5187  1.0240
10675TIP3   OH231946   0.226   2.555   6.844 -0.5137  0.4009  0.3206
10675TIP3    H131947   0.164   2.525   6.778  0.7462 -1.3936 -0.0750
10675TIP3    H231948   0.286   2.612   6.796 -1.2811  1.4026  0.5220
10676TIP3   OH231949   5.777   1.315   6.501 -0.6098 -0.0243 -0.1060
10676TIP3    H131950   5.822   1.284   6.423 -1.5285 -0.8330 -0.3300
10676TIP3    H231951   5.816   1.267   6.573  1.1107  1.6379  0.0958
10677TIP3   OH231952   0.170   1.300   4.658  0.2943  0.5041 -0.1125
10677TIP3    H131953   0.095   1.240   4.658  0.4401  0.3225  0.2461
10677TIP3    H231954   0.205   1.295   4.569  1.0525 -0.8618  0.2673
10678TIP3   OH231955   1.232   1.995   3.693 -0.2548 -0.1664 -0.2105
10678TIP3    H131956   1.161   2.000   3.629 -0.6386  4.2608  0.4056
10678TIP3    H231957   1.312   1.996   3.640 -0.5734 -2.7735 -0.8028
10679TIP3   OH231958   7.200   2.202   6.102  0.8419  0.0668 -0.1230
10679TIP3    H131959   7.189   2.214   6.007 -0.4520 -1.3274 -0.1844
10679TIP3    H231960   7.135   2.260   6.141 -0.7403 -1.5691 -0.2177
10680TIP3   OH231961   3.996   7.621   7.210 -0.0087 -0.1803 -0.0338
10680TIP3    H131962   3.951   7.706   7.208 -0.5748 -0.4857 -0.6262
10680TIP3    H231963   3.987   7.588   7.120 -0.5514 -1.2638  0.4155
10681TIP3   OH231964   8.192   2.080   6.637 -0.0374  0.0928 -0.4024
10681TIP3    H131965   8.139   2.052   6.562  0.9214  0.9934 -1.4221
10681TIP3    H231966   8.187   2.176   6.636  0.7485  0.1424  0.1312
10682TIP3   OH231967   8.056   0.299   6.620 -0.0589 -0.5138 -0.5273
10682TIP3    H131968   7.967   0.268   6.636 -0.4287  1.2961  1.1398
10682TIP3    H231969   8.063   0.380   6.671  2.3507 -0.3187 -1.0924
10683TIP3   OH231970   6.980   2.494   7.005 -0.0560 -0.4745 -0.2144
10683TIP3    H131971   7.004   2.564   7.067 -2.2785 -0.6855  0.9259
10683TIP3    H231972   6.969   2.417   7.060  1.0618 -1.4346 -1.3145
10684TIP3   OH231973   5.545   1.441   6.690 -0.3570 -0.4764 -0.0317
10684TIP3    H131974   5.575   1.531   6.700 -1.5081  0.0312 -1.0233
10684TIP3    H231975   5.620   1.388   6.717  0.1091  0.7730  1.1838
10685TIP3   OH231976   1.283   7.609   0.449  0.0955  0.1882  0.1292
10685TIP3    H131977   1.274   7.520   0.415 -0.9168 -0.0187  0.9121
10685TIP3    H231978   1.234   7.664   0.388  0.4198  0.1628 -0.1553
10686TIP3   OH231979   0.903   4.348   0.229 -0.0610 -0.5802 -0.0354
10686TIP3    H131980   0.838   4.279   0.215  0.2291 -0.7241 -0.6937
10686TIP3    H231981   0.852   4.428   0.233 -0.3896 -0.8218  0.5989
10687TIP3   OH231982   8.148   0.401   5.704 -0.2588 -0.7281  0.5999
10687TIP3    H131983   8.169   0.309   5.714  0.9706 -0.7684 -2.0077
10687TIP3    H231984   8.086   0.404   5.631 -1.1981  0.4250  1.4044
10688TIP3   OH231985   7.672   2.985   6.330 -0.0279 -0.5291  0.0684
10688TIP3    H131986   7.667   3.020   6.241 -3.0088 -3.0008 -0.8223
10688TIP3    H231987   7.589   3.009   6.370  0.0031 -2.1108  1.1275
10689TIP3   OH231988   8.818   1.921   4.710  0.1320 -0.4452  0.0676
10689TIP3    H131989   8.783   1.873   4.785 -1.2255  0.4364  0.0051
10689TIP3    H231990   8.784   2.010   4.721  0.5065 -0.1428 -1.2224
10690TIP3   OH231991   4.488   7.812   6.159 -0.4557  0.1010 -0.1823
10690TIP3    H131992   4.452   7.856   6.082  0.3694  1.6177  0.2765
10690TIP3    H231993   4.473   7.874   6.231 -0.4502 -0.9391  0.7258
10691TIP3   OH231994   0.021   2.175   5.872 -0.1877  0.3235  0.1238
10691TIP3    H131995  -0.011   2.165   5.782 -0.6503  0.4148  0.2810
10691TIP3    H231996   0.106   2.217   5.862 -0.0784  0.0134 -0.2936
10692TIP3   OH231997   6.952   3.303   4.982 -0.1796  0.0825  0.9235
10692TIP3    H131998   6.873   3.354   5.001 -0.4431 -0.3319  0.9438
10692TIP3    H231999   6.926   3.212   4.998  0.6417  0.0392  2.1008
10693TIP3   OH232000   5.528   5.118   0.063  0.1504  0.5812  0.1423
10693TIP3    H132001   5.505   5.085   0.150 -2.3446 -1.6140 -1.2711
10693TIP3    H232002   5.446   5.116   0.014  1.8592  0.0295 -2.8330
10694TIP3   OH232003   8.495   2.148   5.982 -0.3735  0.0328 -0.3686
10694TIP3    H132004   8.550   2.194   5.919 -1.4472 -0.5438 -1.7608
10694TIP3    H232005   8.468   2.215   6.044  1.0434  0.5268 -0.2652
10695TIP3   OH232006   5.749   0.521   5.369 -0.7192  0.2535 -0.0959
10695TIP3    H132007   5.809   0.481   5.430 -0.9523 -0.2301 -0.1833
10695TIP3    H232008   5.723   0.604   5.410 -0.3063  0.2738  0.1178
10696TIP3   OH232009   8.747   1.139   5.639 -0.0667  1.2763  0.4441
10696TIP3    H132010   8.827   1.137   5.693 -0.7504  0.6640  1.4356
10696TIP3    H232011   8.675   1.141   5.702 -0.8535  1.7306 -0.4506
10697TIP3   OH232012   7.635   2.224   4.667 -0.0897 -0.1119  0.6127
10697TIP3    H132013   7.724   2.244   4.698  0.3641 -0.3874 -0.4844
10697TIP3    H232014   7.645   2.212   4.573 -1.0324 -1.6617  0.7023
10698TIP3   OH232015   1.587   6.884   0.272  0.3638 -0.3075 -0.2811
10698TIP3    H132016   1.554   6.965   0.233 -0.8253 -0.3706  0.5587
10698TIP3    H232017   1.516   6.821   0.260  0.6889 -0.8115  0.4135
10699TIP3   OH232018   0.605   2.307   6.180 -0.0653  0.1543 -0.0644
10699TIP3    H132019   0.564   2.385   6.144 -0.6335 -0.5696 -1.0129
10699TIP3    H232020   0.562   2.293   6.264 -0.6255  0.3253 -0.3204
10700TIP3   OH232021   8.359   6.521   0.490  0.3984  0.0026  0.2293
10700TIP3    H132022   8.411   6.454   0.447  1.5792  1.7451 -1.1176
10700TIP3    H232023   8.398   6.530   0.577  0.6017 -0.6322  0.2050
10701TIP3   OH232024   7.863   0.616   3.992  0.1683  0.1634  0.3549
10701TIP3    H132025   7.884   0.704   4.024 -0.1721  0.6893 -0.8529
10701TIP3    H232026   7.789   0.588   4.045  2.1320 -0.6231  2.8162
10702TIP3   OH232027   5.746   1.806   6.925 -0.1250 -0.5264  0.1267
10702TIP3    H132028   5.735   1.743   6.854  0.4330  0.1672 -0.5900
10702TIP3    H232029   5.768   1.752   7.002 -1.0869 -1.3049 -0.1383
10703TIP3   OH232030   7.400   2.758   4.972  0.3250 -0.5324  0.2402
10703TIP3    H132031   7.360   2.822   4.912  1.0046  0.2216  0.5831
10703TIP3    H232032   7.494   2.775   4.965  0.4330 -0.7121  1.2142
10704TIP3   OH232033   7.885   7.410   1.732 -0.0483 -0.1790  0.3661
10704TIP3    H132034   7.970   7.415   1.775  0.3960  0.9306 -0.6032
10704TIP3    H232035   7.906   7.398   1.639 -0.8942  2.3498 -0.1760
10705TIP3   OH232036   0.466   2.079   5.397 -0.0696 -0.1403  0.2800
10705TIP3    H132037   0.543   2.136   5.406  0.6759 -1.3569  1.8092
10705TIP3    H232038   0.391   2.138   5.407  0.6881  0.7557  0.7300
10706TIP3   OH232039   7.512   2.406   3.478  0.1717 -0.5247  0.5678
10706TIP3    H132040   7.587   2.435   3.529 -0.4853  0.0912  1.2145
10706TIP3    H232041   7.455   2.484   3.474  0.6680 -0.2274 -1.9794
10707TIP3   OH232042   4.948   8.333   6.510 -0.3239  0.1392  0.1334
10707TIP3    H132043   4.962   8.309   6.601 -1.1868  2.5188  0.9397
10707TIP3    H232044   5.007   8.406   6.495  0.7038 -1.0051 -1.6018
10708TIP3   OH232045   8.125   0.599   4.978  0.5408  0.2340 -1.0221
10708TIP3    H132046   8.211   0.574   4.944  0.8657  0.0497 -0.0998
10708TIP3    H232047   8.132   0.693   4.991 -0.1254  0.5664 -2.9480
10709TIP3   OH232048   3.212   5.537   0.353  0.4193 -0.0784 -0.0322
10709TIP3    H132049   3.159   5.459   0.341 -1.7678  1.1486  1.2913
10709TIP3    H232050   3.152   5.603   0.388  2.4200  1.9049 -0.1379
10710TIP3   OH232051   1.307   6.853   0.260  0.1032  0.3596  0.1279
10710TIP3    H132052   1.328   6.944   0.238  0.8962  0.2981  0.6266
10710TIP3    H232053   1.228   6.860   0.315 -0.6959  0.6430 -1.0466
10711TIP3   OH232054   6.331   3.165   6.967  0.3288 -0.6116 -0.0486
10711TIP3    H132055   6.325   3.081   6.923  0.4752 -0.0505 -1.1410
10711TIP3    H232056   6.309   3.229   6.900  1.3046  0.2985  0.4805
10712TIP3   OH232057   5.297   2.100   7.171 -0.2195  0.4571 -0.0655
10712TIP3    H132058   5.378   2.066   7.135 -0.3426  0.8617 -0.7323
10712TIP3    H232059   5.281   2.047   7.249  0.7488  0.4604  0.1341
10713TIP3   OH232060   7.219   0.732   5.143  0.5565 -0.9083  0.6752
10713TIP3    H132061   7.284   0.799   5.165 -0.4871  0.2522  0.2639
10713TIP3    H232062   7.214   0.677   5.222  2.8998 -1.7527  0.2832
10714TIP3   OH232063   1.353   3.878   5.539  0.3337  0.2626  0.8522
10714TIP3    H132064   1.265   3.884   5.577 -0.1669 -0.5651 -0.1531
10714TIP3    H232065   1.338   3.860   5.446  1.5454  1.7705  0.3417
10715TIP3   OH232066   1.030   3.277   1.361  0.3402  0.3593  0.3158
10715TIP3    H132067   1.011   3.231   1.443  0.3566  1.4681  0.9564
10715TIP3    H232068   1.101   3.337   1.383  0.4033  0.5980 -0.5308
10716TIP3   OH232069   0.142   5.187   0.079 -0.0943  0.2378 -0.0861
10716TIP3    H132070   0.076   5.201   0.010  0.5957  0.5923 -0.6913
10716TIP3    H232071   0.091   5.162   0.156 -0.9036  0.0612 -0.6629
10717TIP3   OH232072   1.174   6.846   1.105  0.5944  0.7884 -0.2968
10717TIP3    H132073   1.222   6.913   1.055  1.6851  0.5324  0.3950
10717TIP3    H232074   1.223   6.838   1.187 -0.6833  0.5700  0.4425
10718TIP3   OH232075   6.715   2.184   3.369  0.4070  0.0939 -0.0083
10718TIP3    H132076   6.760   2.155   3.448 -0.6187  1.0090  0.9243
10718TIP3    H232077   6.772   2.253   3.333  1.2536 -0.8518 -0.4964
10719TIP3   OH232078   6.825   0.619   7.066  0.0391  0.4752  0.1717
10719TIP3    H132079   6.742   0.584   7.033  0.3757  0.6809 -0.9000
10719TIP3    H232080   6.801   0.699   7.112 -0.4061  0.2992  0.2512
10720TIP3   OH232081   7.246   2.641   5.800 -0.1143 -0.0880  0.5273
10720TIP3    H132082   7.264   2.735   5.792  2.2688 -0.7089 -2.3422
10720TIP3    H232083   7.152   2.633   5.782 -0.4259  1.7762  1.2322
10721TIP3   OH232084   7.522   0.436   6.400  0.0794 -0.5768  0.5669
10721TIP3    H132085   7.543   0.389   6.480  0.5255 -2.1223 -0.4320
10721TIP3    H232086   7.599   0.424   6.344  0.3010  1.5546  0.3732
10722TIP3   OH232087   3.038   4.833   0.112  0.1907  0.7245  0.0849
10722TIP3    H132088   3.027   4.776   0.036 -0.6118 -0.4180  1.0357
10722TIP3    H232089   3.019   4.777   0.187  0.7930  1.8828  1.1281
10723TIP3   OH232090   8.268   1.491   5.254 -0.3719  0.5757 -0.6163
10723TIP3    H132091   8.185   1.464   5.293 -0.3007  0.6746 -0.3906
10723TIP3    H232092   8.246   1.566   5.199 -0.8860 -1.1243 -2.7741
10724TIP3   OH232093   2.498   4.856   0.731 -0.6767 -0.3238  0.3452
10724TIP3    H132094   2.421   4.911   0.749 -0.5247 -0.3754  1.1591
10724TIP3    H232095   2.478   4.772   0.772 -1.2064 -1.1268 -1.4976
10725TIP3   OH232096   1.575   5.464   0.064  0.2058 -0.5981  0.2154
10725TIP3    H132097   1.662   5.430   0.086  1.7013  1.8207 -1.7552
10725TIP3    H232098   1.543   5.405  -0.004  0.4221 -1.2950  0.7073
10726TIP3   OH232099   0.752   3.370   0.122  0.3338 -0.0014 -0.0008
10726TIP3    H132100   0.812   3.310   0.166  0.7716  1.0532  0.8643
10726TIP3    H232101   0.779   3.457   0.151  1.0886  0.7912 -2.9468
10727TIP3   OH232102   7.256   1.590   4.924  0.3982 -0.2560  0.1991
10727TIP3    H132103   7.288   1.674   4.891 -1.0358 -0.3742 -1.5961
10727TIP3    H232104   7.313   1.525   4.884 -1.0587 -0.3689 -1.7919
10728TIP3   OH232105   7.440   1.349   6.332 -0.2072  0.4858 -0.1235
10728TIP3    H132106   7.422   1.298   6.411 -1.4871  2.5236  0.9303
10728TIP3    H232107   7.535   1.357   6.330  0.0217 -1.8350 -0.2685
10729TIP3   OH232108   6.440   0.310   4.876  0.4288 -1.1139  0.4216
10729TIP3    H132109   6.515   0.346   4.831 -0.2457  0.6588  0.6645
10729TIP3    H232110   6.406   0.242   4.817  1.4943 -1.0965 -0.2166
10730TIP3   OH232111   5.296   8.253   6.917  0.0240 -0.0324 -0.4054
10730TIP3    H132112   5.220   8.279   6.865  0.7387 -0.0850 -1.4893
10730TIP3    H232113   5.363   8.232   6.853  0.9715  0.0468  0.5436
10731TIP3   OH232114   0.567   5.946   0.894  0.0354 -0.1862  0.3436
10731TIP3    H132115   0.499   5.933   0.828 -0.1786 -2.2650  0.9552
10731TIP3    H232116   0.578   5.861   0.935  1.5332  0.6272  1.6968
10732TIP3   OH232117   7.142   0.773   5.829  0.3569 -0.0436 -0.3038
10732TIP3    H132118   7.104   0.852   5.791 -0.0693 -0.1712 -0.1454
10732TIP3    H232119   7.068   0.725   5.864  0.6046 -0.5629 -0.4813
10733TIP3   OH232120   0.307   1.018   4.475  1.0460  0.1651  0.1889
10733TIP3    H132121   0.339   0.940   4.430  0.6868 -0.3280  0.7823
10733TIP3    H232122   0.292   1.081   4.405 -0.4168 -0.9074 -0.4866
10734TIP3   OH232123   6.838   1.407   5.590 -0.4837  0.6405  0.4494
10734TIP3    H132124   6.929   1.434   5.601  0.4001 -1.2707 -1.7931
10734TIP3    H232125   6.795   1.484   5.552  0.5725  0.9890 -0.0641
10735TIP3   OH232126   2.199   5.870   1.024  0.4396  0.4381 -0.2886
10735TIP3    H132127   2.263   5.878   0.953  0.1484  0.1179 -0.5894
10735TIP3    H232128   2.249   5.836   1.098 -0.1711 -3.8888 -1.7183
10736TIP3   OH232129   6.805   2.842   5.290 -0.2004  0.2274 -0.9321
10736TIP3    H132130   6.875   2.905   5.273 -1.1323  2.0318  1.5209
10736TIP3    H232131   6.845   2.777   5.348  0.0246  0.0898 -1.2436
10737TIP3   OH232132   8.402   4.642   0.065  0.7937 -0.1961  0.3718
10737TIP3    H132133   8.453   4.622  -0.014 -0.1519 -0.3871 -0.1885
10737TIP3    H232134   8.447   4.593   0.135  0.6378 -1.3816 -0.3481
10738TIP3   OH232135   0.615   2.445   4.694  0.1294  0.6386 -0.0440
10738TIP3    H132136   0.555   2.492   4.752 -1.6201 -3.6158  1.8300
10738TIP3    H232137   0.693   2.430   4.748  1.2283  2.4883 -1.0827
10739TIP3   OH232138   5.259   7.442   6.841  0.3883  0.1536  0.1144
10739TIP3    H132139   5.240   7.524   6.796 -0.1697 -0.3177 -0.5187
10739TIP3    H232140   5.209   7.447   6.923 -0.4837  0.0010 -0.4007
10740TIP3   OH232141   8.189   1.710   3.738  0.3046  0.0390  0.1017
10740TIP3    H132142   8.136   1.635   3.711 -0.2105  0.4709 -0.0975
10740TIP3    H232143   8.128   1.784   3.735  0.7710  0.4372  0.4476
10741TIP3   OH232144   7.668   0.569   4.840  0.0828  0.3322 -0.2387
10741TIP3    H132145   7.614   0.562   4.919  0.9938 -0.0394  0.3578
10741TIP3    H232146   7.606   0.558   4.768 -0.4527 -1.4342  0.4710
10742TIP3   OH232147   8.002   1.800   7.121 -0.5277 -0.1631 -0.3741
10742TIP3    H132148   8.007   1.838   7.033 -1.3841  1.2760  0.1841
10742TIP3    H232149   7.940   1.727   7.111 -0.5825 -0.0409 -0.9696
10743TIP3   OH232150   1.709   5.354   1.049  0.6996  0.1373 -0.1115
10743TIP3    H132151   1.783   5.351   0.989  0.4655  0.0556 -0.3947
10743TIP3    H232152   1.651   5.421   1.014  0.0864 -0.5989 -0.5374
10744TIP3   OH232153   0.148   1.328   4.928 -0.0949  0.1609  0.4384
10744TIP3    H132154   0.130   1.309   4.836 -0.8234 -0.2123  0.6555
10744TIP3    H232155   0.154   1.242   4.969 -1.1583  0.3524  1.0039
10745TIP3   OH232156   2.258   6.430   0.289 -0.7476 -0.3943 -0.0735
10745TIP3    H132157   2.244   6.440   0.195 -3.3605 -1.4481  0.1471
10745TIP3    H232158   2.351   6.412   0.299 -0.2431  0.8935 -2.3563
10746TIP3   OH232159   7.816   2.393   7.239 -0.1235  0.1437 -0.7216
10746TIP3    H132160   7.721   2.388   7.235 -0.0742 -0.2495 -1.6230
10746TIP3    H232161   7.841   2.434   7.156  0.4252  1.2924 -0.0034
10747TIP3   OH232162   7.662   0.988   6.042  0.2604 -0.3458  0.4293
10747TIP3    H132163   7.625   1.026   5.962 -0.3540  0.5029  1.0995
10747TIP3    H232164   7.724   0.922   6.011  0.1164  0.0567 -0.7482
10748TIP3   OH232165   7.720   1.771   6.681  0.3603  0.7455 -0.1324
10748TIP3    H132166   7.660   1.700   6.658  0.2738  1.1258 -1.1101
10748TIP3    H232167   7.671   1.851   6.663  1.4998  1.0675 -1.9379
10749TIP3   OH232168   3.895   8.071   6.741 -0.5522 -0.4648  0.3831
10749TIP3    H132169   3.887   8.030   6.828  0.7269  1.6798  1.5640
10749TIP3    H232170   3.986   8.056   6.716 -0.4812  0.3164  0.1522
10750TIP3   OH232171   0.928   3.740   0.047 -0.2987 -0.4516  0.1982
10750TIP3    H132172   0.907   3.690   0.126 -1.2777 -0.0559  0.1934
10750TIP3    H232173   1.012   3.782   0.067 -1.2079  0.7779  1.5960
10751TIP3   OH232174   5.539   1.887   7.174 -0.8010  0.1613 -0.4855
10751TIP3    H132175   5.617   1.938   7.153 -0.9614  1.0655  1.0137
10751TIP3    H232176   5.541   1.813   7.113  1.0138  0.3765 -0.7169
10752TIP3   OH232177   6.701   2.403   5.646 -0.2528  0.2095  0.6623
10752TIP3    H132178   6.773   2.342   5.634  1.3824  2.0336  0.8995
10752TIP3    H232179   6.651   2.398   5.565  2.2516  1.5915 -1.0284
10753TIP3   OH232180   1.705   6.573   0.423  0.4594  0.4186 -0.0789
10753TIP3    H132181   1.677   6.645   0.367  0.3005  0.0274 -0.5060
10753TIP3    H232182   1.732   6.504   0.362  0.4817  0.0664  0.3257
10754TIP3   OH232183   5.731   7.918   5.288  0.1127 -0.3689 -0.3257
10754TIP3    H132184   5.772   7.879   5.364  1.9351  0.2754 -0.9602
10754TIP3    H232185   5.688   7.996   5.322 -0.3577 -0.8879  0.2899
10755TIP3   OH232186   1.279   6.368   0.231 -0.0746  0.2675 -0.0653
10755TIP3    H132187   1.270   6.377   0.137  0.4791 -1.9604 -0.3667
10755TIP3    H232188   1.361   6.319   0.243 -0.8880 -0.7830  1.4792
10756TIP3   OH232189   1.749   1.773   5.592  0.1671 -0.2098 -0.1857
10756TIP3    H132190   1.708   1.815   5.516 -0.7541  1.4572  1.2078
10756TIP3    H232191   1.823   1.829   5.614  1.0701 -1.2627 -0.4706
10757TIP3   OH232192   6.836   1.002   6.638 -0.0701 -0.8906 -0.5063
10757TIP3    H132193   6.890   0.947   6.581 -1.1718 -1.2266 -1.2401
10757TIP3    H232194   6.850   1.091   6.605  1.0432 -0.8241  0.1331
10758TIP3   OH232195   8.613   1.475   6.969 -0.2214  0.0355  0.2491
10758TIP3    H132196   8.636   1.521   7.050 -1.2531 -1.3914  1.3944
10758TIP3    H232197   8.534   1.518   6.939  0.4786  0.9358 -0.3127
10759TIP3   OH232198   0.570   3.258   4.497 -0.2593  0.2434 -0.4859
10759TIP3    H132199   0.616   3.245   4.414  1.6245 -1.7723  0.7997
10759TIP3    H232200   0.619   3.328   4.541  0.3634 -0.4959  0.0150
10760TIP3   OH232201   8.028   0.791   5.419 -0.2852  0.7287 -0.5734
10760TIP3    H132202   8.008   0.844   5.342 -2.1049  3.6426  1.7752
10760TIP3    H232203   8.124   0.797   5.428 -0.3791  3.1194 -0.7840
10761TIP3   OH232204   8.219   1.052   5.641 -0.1819  0.3579  0.3163
10761TIP3    H132205   8.219   1.112   5.565  0.5477  0.9449  0.7726
10761TIP3    H232206   8.132   1.063   5.679 -0.5998 -0.0310 -0.5064
10762TIP3   OH232207   7.537   1.945   5.582 -0.1720 -0.5428  0.6410
10762TIP3    H132208   7.574   1.856   5.583 -0.2044 -0.5576  1.6969
10762TIP3    H232209   7.518   1.963   5.674 -0.3154  0.5019  0.4074
10763TIP3   OH232210   4.491   7.966   5.611 -0.6145  0.3114 -0.5609
10763TIP3    H132211   4.497   7.922   5.527  0.1421 -1.4836  0.4073
10763TIP3    H232212   4.554   8.039   5.604 -0.0318 -0.2569 -1.2857
10764TIP3   OH232213   4.665   7.441   5.886 -0.1711  0.2770 -0.0635
10764TIP3    H132214   4.640   7.520   5.838 -0.1571  1.2832  1.5136
10764TIP3    H232215   4.756   7.427   5.863 -0.4047  0.2668 -0.9772
10765TIP3   OH232216   7.901   1.137   6.084 -0.3755 -0.1296 -0.3297
10765TIP3    H132217   7.893   1.160   6.177  0.5827 -0.5375 -0.1360
10765TIP3    H232218   7.819   1.094   6.062 -0.9430  0.7227  0.1124
10766TIP3   OH232219   4.793   8.150   5.354  0.6569  0.1964  0.0546
10766TIP3    H132220   4.816   8.228   5.304  2.0193  0.5401  1.2082
10766TIP3    H232221   4.732   8.181   5.420  0.3046  0.0683 -0.2067
10767TIP3   OH232222   7.160   2.949   3.650 -0.1619  0.5185 -0.3735
10767TIP3    H132223   7.114   2.876   3.609 -1.4666  1.0268  0.1197
10767TIP3    H232224   7.106   3.025   3.629  2.2544  1.6623 -2.5650
10768TIP3   OH232225   8.361   0.773   6.634 -0.2108 -0.2292 -1.1595
10768TIP3    H132226   8.456   0.766   6.643 -0.0015  1.0441 -2.1183
10768TIP3    H232227   8.340   0.719   6.558 -0.1694 -0.0719 -1.2849
10769TIP3   OH232228   7.299   4.193   3.829  0.2956 -0.1737  0.1546
10769TIP3    H132229   7.274   4.101   3.822 -3.7563  1.0636 -3.6753
10769TIP3    H232230   7.375   4.202   3.772 -0.4849 -0.7794 -0.9910
10770TIP3   OH232231   6.557   1.226   6.105  0.1390 -0.0750  0.2944
10770TIP3    H132232   6.567   1.265   6.018  0.4332 -1.3582 -0.2595
10770TIP3    H232233   6.623   1.156   6.108  0.2282  0.0546  1.6003
10771TIP3   OH232234   6.180   2.768   4.823  0.0683 -0.1761  0.2907
10771TIP3    H132235   6.130   2.826   4.764  1.1526 -0.3969 -0.8756
10771TIP3    H232236   6.219   2.827   4.887  1.1356  0.4028 -0.8678
10772TIP3   OH232237   8.564   5.640   0.488  0.1210 -0.7188 -0.0993
10772TIP3    H132238   8.543   5.550   0.515  2.8501 -1.3490  0.1365
10772TIP3    H232239   8.623   5.672   0.556 -2.2643  1.9507  0.7686
10773TIP3   OH232240   8.189   1.851   5.150 -0.0451  0.2205  0.3131
10773TIP3    H132241   8.142   1.860   5.234  0.0201 -1.2217  0.5161
10773TIP3    H232242   8.139   1.785   5.102  0.8598 -0.1476 -0.1279
10774TIP3   OH232243   7.199   1.057   6.350 -0.7151 -0.0857  0.1207
10774TIP3    H132244   7.175   1.077   6.259 -0.8858 -1.1384 -0.0665
10774TIP3    H232245   7.125   1.086   6.402 -0.5771  0.6124 -0.0648
10775TIP3   OH232246   8.697   1.748   6.160  0.0127  0.7059  0.0187
10775TIP3    H132247   8.792   1.745   6.157 -0.0114 -1.2289  0.3003
10775TIP3    H232248   8.676   1.806   6.233  1.0389 -2.2703  2.8178
10776TIP3   OH232249   8.093   0.071   5.360  0.0539  0.2263  0.9479
10776TIP3    H132250   8.106  -0.022   5.342  0.1375  0.8439 -2.5871
10776TIP3    H232251   7.999   0.083   5.360  0.0448  0.1432  1.2735
10777TIP3   OH232252   8.268   2.994   3.776  0.0028 -0.3805  0.5342
10777TIP3    H132253   8.194   3.000   3.836  0.1836 -0.9611  0.8199
10777TIP3    H232254   8.229   2.996   3.689 -0.1627  1.7978  0.6546
10778TIP3   OH232255   0.213   1.425   5.731 -0.0816 -0.4267  0.1426
10778TIP3    H132256   0.145   1.491   5.718  1.0403  0.4872 -1.2388
10778TIP3    H232257   0.166   1.347   5.761 -1.4957  0.7960  1.1510
10779TIP3   OH232258   7.025   2.511   4.103  0.8192  0.4447  0.1316
10779TIP3    H132259   7.066   2.463   4.175 -0.1955 -1.0156 -0.2268
10779TIP3    H232260   7.097   2.555   4.059  1.6804 -0.1013  0.9705
10780TIP3   OH232261   5.197   7.417   5.723 -0.5319 -0.4127  0.3252
10780TIP3    H132262   5.168   7.422   5.632 -1.6415  0.3130  0.7075
10780TIP3    H232263   5.290   7.393   5.717 -0.4290  0.2516 -1.0182
10781TIP3   OH232264   7.636   1.826   7.063 -0.0443 -0.1922  0.4456
10781TIP3    H132265   7.698   1.754   7.070  0.7142  0.4417  0.2205
10781TIP3    H232266   7.688   1.901   7.034 -1.0831  0.1022 -0.7071
10782TIP3   OH232267   7.107   2.722   5.136  0.1720  0.7652  0.4827
10782TIP3    H132268   7.049   2.706   5.061  0.5619 -0.6036  0.4559
10782TIP3    H232269   7.175   2.781   5.101  0.7514 -0.4262 -0.4569
10783TIP3   OH232270   1.237   4.210   1.934  0.2323 -0.4990 -0.0237
10783TIP3    H132271   1.329   4.231   1.921  0.3127 -0.8828 -0.0887
10783TIP3    H232272   1.193   4.246   1.857  0.4709 -1.2132 -0.5007
10784TIP3   OH232273   8.880   3.035   3.464 -0.0895 -0.8311 -0.3004
10784TIP3    H132274   8.874   3.060   3.372  1.6100 -1.1010 -0.5019
10784TIP3    H232275   8.828   3.101   3.510  0.6857  0.4989 -1.2667
10785TIP3   OH232276   2.505   6.321   0.334  0.2925 -0.3051 -0.2943
10785TIP3    H132277   2.500   6.361   0.421 -0.9263 -0.9097 -0.0780
10785TIP3    H232278   2.591   6.347   0.300  0.0323  1.4630  0.3475
10786TIP3   OH232279   3.423   8.344   4.937 -0.5994 -0.1208  0.1159
10786TIP3    H132280   3.368   8.284   4.886 -1.3623 -0.5191  1.3607
10786TIP3    H232281   3.382   8.429   4.927  0.4798  0.2156 -1.6502
10787TIP3   OH232282   1.917   3.927   0.296  0.7454 -0.1565  0.2658
10787TIP3    H132283   1.988   3.968   0.345  0.0926 -0.6324  1.6127
10787TIP3    H232284   1.954   3.911   0.209  2.1346 -0.0037  0.8270
10788TIP3   OH232285   7.167   1.262   5.872  0.2168 -0.0440  0.3604
10788TIP3    H132286   7.174   1.333   5.809  0.3964  0.7235  1.2387
10788TIP3    H232287   7.093   1.287   5.928 -1.3580 -1.7687 -0.8586
10789TIP3   OH232288   1.083   8.228   0.313  0.7279 -0.5040  0.3068
10789TIP3    H132289   1.046   8.214   0.226  0.7904  0.0082  0.1976
10789TIP3    H232290   1.009   8.214   0.373  0.2913  0.7801  0.0712
10790TIP3   OH232291   5.173   1.749   7.063  0.6974  0.0057 -0.1681
10790TIP3    H132292   5.152   1.834   7.100  1.6946 -0.1007  0.6817
10790TIP3    H232293   5.159   1.688   7.136  3.3301 -0.1314  0.2790
10791TIP3   OH232294   4.546   7.665   6.408  0.3269 -0.0410 -0.0481
10791TIP3    H132295   4.514   7.703   6.326  0.2178  0.6384  0.3070
10791TIP3    H232296   4.471   7.614   6.441 -0.2290  1.1344  0.5232
10792TIP3   OH232297   7.102   1.481   4.293 -0.1194 -0.0136  0.5069
10792TIP3    H132298   7.094   1.563   4.246  0.3933 -0.5069 -0.4608
10792TIP3    H232299   7.030   1.482   4.356  0.1782  1.3894  0.8412
10793TIP3   OH232300   7.290   2.313   6.366  0.5426 -0.2233 -0.2913
10793TIP3    H132301   7.339   2.257   6.307  0.7214  0.1438 -0.4907
10793TIP3    H232302   7.316   2.402   6.343  0.0212 -0.0391 -0.1880
10794TIP3   OH232303   7.717   0.241   5.809  0.0854  0.2165  0.4583
10794TIP3    H132304   7.696   0.245   5.903 -1.0300  0.7040  0.1791
10794TIP3    H232305   7.653   0.181   5.773  1.3486 -1.0347  0.2229
10795TIP3   OH232306   5.401   1.244   6.076  0.3357 -0.8840  0.2876
10795TIP3    H132307   5.365   1.230   6.163  0.0571 -2.8070 -0.1157
10795TIP3    H232308   5.327   1.274   6.024  0.0292 -1.7409  0.2240
10796TIP3   OH232309   8.107   1.816   5.399  0.3547  0.7442  0.4121
10796TIP3    H132310   8.194   1.782   5.419  1.0374  1.4412 -1.2336
10796TIP3    H232311   8.049   1.740   5.405  1.2437  0.0745  0.5725
10797TIP3   OH232312   3.738   3.565   0.862 -0.5387  0.3906  0.0057
10797TIP3    H132313   3.687   3.641   0.890 -0.1800 -0.0006  1.7694
10797TIP3    H232314   3.819   3.602   0.827 -0.0111  0.8082  1.6152
10798TIP3   OH232315   0.952   2.073   7.277 -0.3586 -0.4796  0.5817
10798TIP3    H132316   0.915   1.997   7.322  0.4307 -0.4575  1.2770
10798TIP3    H232317   0.968   2.043   7.187  0.5015 -1.3084  1.0115
10799TIP3   OH232318   7.330   1.467   6.899  0.1059 -0.4662 -0.2638
10799TIP3    H132319   7.413   1.482   6.944 -0.2704 -0.0304  0.2885
10799TIP3    H232320   7.298   1.554   6.877 -0.3798 -0.6119 -0.1506
10800TIP3   OH232321   2.132   2.319   1.385 -0.6782  0.3137  0.1332
10800TIP3    H132322   2.084   2.273   1.316 -1.4715  0.8329  0.3254
10800TIP3    H232323   2.222   2.286   1.378 -1.2711 -1.4244  0.4215
10801TIP3   OH232324   0.110   1.910   4.192  0.0450 -0.0195 -0.1438
10801TIP3    H132325   0.139   1.963   4.118  0.6278 -1.3201 -0.8586
10801TIP3    H232326   0.168   1.936   4.264  0.8564 -0.2871 -0.7043
10802TIP3   OH232327   2.192   5.534   0.273 -0.4833  0.2171 -0.2128
10802TIP3    H132328   2.195   5.508   0.181 -0.2088  0.1904 -0.1971
10802TIP3    H232329   2.284   5.542   0.299 -0.5533 -0.2846  0.2087
10803TIP3   OH232330   8.557   2.311   4.054  0.1885 -0.2379 -0.2525
10803TIP3    H132331   8.607   2.298   4.135 -0.3642  2.9593  0.6371
10803TIP3    H232332   8.623   2.333   3.989  0.2637  1.1038  0.2591
10804TIP3   OH232333   3.881   5.542   0.939  0.1218 -0.1084 -0.3290
10804TIP3    H132334   3.970   5.549   0.905  0.2544  0.4541  0.1362
10804TIP3    H232335   3.883   5.590   1.022 -0.5692 -0.2385 -0.2366
10805TIP3   OH232336   1.170   6.219   1.164  0.1730  0.4088 -0.5192
10805TIP3    H132337   1.157   6.276   1.088  1.3360  0.6415 -0.5622
10805TIP3    H232338   1.258   6.242   1.196  1.1645 -2.1712 -1.2368
10806TIP3   OH232339   5.819   2.135   5.669  0.4635  0.2544 -0.4249
10806TIP3    H132340   5.842   2.123   5.761  1.4591  1.5331 -0.4957
10806TIP3    H232341   5.809   2.046   5.636  2.1447 -0.2893  0.4204
10807TIP3   OH232342   8.571   2.164   7.129 -0.4159  0.1438 -0.0084
10807TIP3    H132343   8.606   2.105   7.062  0.9378  1.0516 -0.1230
10807TIP3    H232344   8.491   2.199   7.091 -0.5987 -0.6984 -0.4247
10808TIP3   OH232345   5.970   6.233   5.080 -0.4611  0.2087  0.0074
10808TIP3    H132346   6.027   6.309   5.073 -1.0102  0.5285 -1.1238
10808TIP3    H232347   5.932   6.223   4.993  0.5933 -2.1576 -0.2258
10809TIP3   OH232348   8.501   1.220   7.025  0.0877  0.1922  0.4823
10809TIP3    H132349   8.567   1.154   7.047  0.5038  0.2700 -0.5007
10809TIP3    H232350   8.552   1.299   7.006 -0.1835 -0.0547 -1.4046
10810TIP3   OH232351   1.275   7.337   0.399  0.0992  0.5302 -0.5279
10810TIP3    H132352   1.352   7.294   0.437  1.0084  1.3322 -1.4294
10810TIP3    H232353   1.281   7.317   0.306 -0.2785  1.3744 -0.7301
10811TIP3   OH232354   1.808   5.101   0.507  0.2753 -0.4678  0.0380
10811TIP3    H132355   1.795   5.173   0.446 -1.5702 -1.5727 -0.9211
10811TIP3    H232356   1.848   5.032   0.455  1.9414 -0.1987  0.9315
10812TIP3   OH232357   1.357   5.982   6.697  0.4300  0.0514  0.1309
10812TIP3    H132358   1.314   5.939   6.623 -0.8507  1.1515  0.2210
10812TIP3    H232359   1.286   6.001   6.758  1.2656  0.5178  0.9710
10813TIP3   OH232360   6.942   1.998   6.242 -0.3225 -0.2966  0.3050
10813TIP3    H132361   6.988   1.945   6.177 -2.7920 -0.6622 -1.1819
10813TIP3    H232362   6.868   2.036   6.195 -0.6040  1.6614  2.2293
10814TIP3   OH232363   7.236   1.682   5.953  0.3900  0.0777  0.0084
10814TIP3    H132364   7.258   1.752   6.014 -2.9474 -0.9150  2.5338
10814TIP3    H232365   7.188   1.725   5.882  0.6452  0.6945  0.2081
10815TIP3   OH232366   6.764   2.105   4.382 -1.3724  0.3288 -0.8707
10815TIP3    H132367   6.811   2.185   4.406 -1.3850  0.6099 -1.7668
10815TIP3    H232368   6.770   2.101   4.287 -1.2697 -0.8072 -0.8234
10816TIP3   OH232369   0.667   6.814   1.249  0.7133  0.5072 -0.8677
10816TIP3    H132370   0.603   6.862   1.301  1.5028  1.6308 -0.9229
10816TIP3    H232371   0.684   6.870   1.174 -0.1439 -0.9414 -2.1717
10817TIP3   OH232372   5.141   1.253   5.934  0.2384 -0.4785  0.3705
10817TIP3    H132373   5.089   1.283   6.009  2.0674  1.4309  0.9109
10817TIP3    H232374   5.133   1.157   5.936 -1.1714 -0.3431  1.9431
10818TIP3   OH232375   0.764   1.075   6.267 -0.7525  0.6652  0.2320
10818TIP3    H132376   0.804   1.110   6.188  0.8542 -1.7041 -0.0632
10818TIP3    H232377   0.811   1.118   6.339  0.6345 -0.2384 -0.1180
10819TIP3   OH232378   8.615   2.422   7.116 -0.1664 -0.2678  0.0395
10819TIP3    H132379   8.708   2.428   7.097 -0.1639 -0.3115  0.0339
10819TIP3    H232380   8.604   2.335   7.154 -1.0375 -2.4010 -4.7659
10820TIP3   OH232381   7.933   1.239   5.606  0.1883 -0.2600 -0.1209
10820TIP3    H132382   7.935   1.152   5.645  2.7030 -0.1279  0.1305
10820TIP3    H232383   8.013   1.281   5.637 -0.6775  1.9438 -0.7336
10821TIP3   OH232384   7.420   1.755   6.848  0.5097  0.6024  0.0949
10821TIP3    H132385   7.480   1.745   6.922  1.2115  0.1084 -0.5333
10821TIP3    H232386   7.411   1.850   6.838  1.7797  0.6993 -0.2640
10822TIP3   OH232387   2.427   6.158   0.630 -0.5055 -0.3088  0.0213
10822TIP3    H132388   2.370   6.223   0.672 -1.4326  0.4130 -2.2653
10822TIP3    H232389   2.371   6.082   0.615 -0.0654 -0.7306  0.5267
10823TIP3   OH232390   5.904   3.289   6.558 -0.3178 -0.3634 -0.1504
10823TIP3    H132391   5.924   3.196   6.548 -2.4095 -0.8583  0.0411
10823TIP3    H232392   5.809   3.293   6.568 -0.1809  1.7248  0.7447
10824TIP3   OH232393   7.413   2.297   6.645 -0.0057  0.3556 -0.4212
10824TIP3    H132394   7.328   2.326   6.612  0.1990  0.9792 -0.4109
10824TIP3    H232395   7.459   2.266   6.567 -0.1231  0.3192 -0.4758
10825TIP3   OH232396   7.284   4.684   5.968  0.4223 -0.2457  0.1284
10825TIP3    H132397   7.286   4.622   5.895  0.2882 -0.2154  0.0990
10825TIP3    H232398   7.337   4.642   6.036  2.4453  0.7431 -0.7930
10826TIP3   OH232399   7.004   2.049   5.405  0.5910 -0.0477 -0.3997
10826TIP3    H132400   7.005   2.107   5.328  1.9213 -0.9089 -1.0345
10826TIP3    H232401   6.991   1.962   5.369 -2.1928 -0.0918  0.6212
10827TIP3   OH232402   6.122   3.145   4.645  0.4028  0.4815  0.1827
10827TIP3    H132403   6.178   3.128   4.569  0.6023 -0.4152  0.5181
10827TIP3    H232404   6.060   3.212   4.616  0.6544  0.3352 -0.6867
10828TIP3   OH232405   7.556   4.112   3.628  0.3851 -0.3629 -0.2988
10828TIP3    H132406   7.582   4.169   3.701  0.1556 -0.0698 -0.4465
10828TIP3    H232407   7.613   4.035   3.636  0.4520 -0.2722  0.1119
10829TIP3   OH232408   7.296   2.327   6.950 -0.4474 -0.6479 -0.2997
10829TIP3    H132409   7.219   2.349   6.898 -1.1464  3.2319  2.2317
10829TIP3    H232410   7.368   2.373   6.907 -0.2089 -1.0815 -0.3722
10830TIP3   OH232411   6.751   0.866   7.120 -0.2734  0.2557  0.0598
10830TIP3    H132412   6.755   0.913   7.036  0.6128  0.5654  0.2709
10830TIP3    H232413   6.732   0.934   7.185 -0.3593  0.1081  0.1909
10831TIP3   OH232414   2.852   6.097   0.365  0.0897  0.3622  0.0109
10831TIP3    H132415   2.795   6.130   0.434  0.1741 -0.3777  0.4310
10831TIP3    H232416   2.864   6.172   0.306 -2.1542  0.2470 -0.6395
10832TIP3   OH232417   7.355   1.465   4.467  0.6053 -0.1855  0.0091
10832TIP3    H132418   7.377   1.377   4.435  1.9483  0.5419 -1.1212
10832TIP3    H232419   7.428   1.488   4.525  0.8280  0.6048 -0.5641
10833TIP3   OH232420   1.013   3.122   6.446  0.1327  0.1290 -0.2837
10833TIP3    H132421   0.920   3.139   6.430 -0.2851  0.0739  1.9052
10833TIP3    H232422   1.053   3.122   6.359 -1.7814  0.9216 -1.1911
10834TIP3   OH232423  -0.012   0.843   7.209  0.3831  0.0495  0.1793
10834TIP3    H132424   0.075   0.866   7.176  0.0771 -0.8953 -1.3640
10834TIP3    H232425   0.003   0.767   7.265  0.5497 -0.1843 -0.1784
10835TIP3   OH232426   0.833   1.092   5.915 -0.4422 -0.3547  0.7167
10835TIP3    H132427   0.771   1.136   5.858  0.7053 -0.6043 -0.7308
10835TIP3    H232428   0.890   1.161   5.948 -1.3417 -0.1519  1.9097
10836TIP3   OH232429   0.478   0.363   6.143  0.1087 -0.6530  0.6776
10836TIP3    H132430   0.409   0.360   6.208  0.7052  1.4455  1.4431
10836TIP3    H232431   0.459   0.441   6.091  0.1342 -1.8070 -1.1103
10837TIP3   OH232432   0.266   1.446   6.352 -0.0911 -0.0869 -0.4179
10837TIP3    H132433   0.276   1.412   6.263  0.0663 -0.3114 -0.3115
10837TIP3    H232434   0.294   1.375   6.409 -0.4427 -0.0375 -0.1791
10838TIP3   OH232435   7.726   2.211   6.025  0.2163  0.1068  0.7746
10838TIP3    H132436   7.660   2.225   6.093 -1.0835 -0.0024 -0.4404
10838TIP3    H232437   7.696   2.263   5.951 -0.2772 -2.5253 -0.9532
10839TIP3   OH232438   8.232   1.437   6.102 -0.0662 -0.8164  0.6250
10839TIP3    H132439   8.257   1.430   6.194 -0.8162 -1.4897  0.7820
10839TIP3    H232440   8.140   1.464   6.103  0.3155  0.5723  0.0581
10840TIP3   OH232441   7.537   1.822   4.271 -0.6823  0.5860  0.2227
10840TIP3    H132442   7.453   1.792   4.306 -0.9942  0.3086 -0.7533
10840TIP3    H232443   7.529   1.810   4.177 -0.4355  2.8059 -0.0958
10841TIP3   OH232444   6.727   3.035   5.593 -0.1869  0.4162  0.0671
10841TIP3    H132445   6.769   2.957   5.630  1.0137  1.8131  1.7009
10841TIP3    H232446   6.783   3.061   5.521 -2.0697 -1.8048 -2.3045
10842TIP3   OH232447   7.759   0.833   4.930  0.3261 -0.0564  0.2785
10842TIP3    H132448   7.748   0.859   4.838  0.8003  1.9536  0.7551
10842TIP3    H232449   7.712   0.750   4.937  0.5852 -0.4171 -1.8636
10843TIP3   OH232450   3.356   4.911   1.447  0.4221 -0.1115  0.0511
10843TIP3    H132451   3.363   4.815   1.443  1.7908 -0.0166 -0.0188
10843TIP3    H232452   3.334   4.937   1.358  0.0282 -0.3577  0.0734
10844TIP3   OH232453   8.795   1.239   6.463  0.5542  0.1543  0.3956
10844TIP3    H132454   8.703   1.255   6.442  0.3195 -0.1932  1.1657
10844TIP3    H232455   8.798   1.148   6.493  1.8406 -1.2692 -3.7033
10845TIP3   OH232456   8.756   1.532   4.559  0.1537 -0.2831  0.1905
10845TIP3    H132457   8.676   1.584   4.560  0.1040 -0.2921 -2.1839
10845TIP3    H232458   8.826   1.596   4.549  0.2676 -0.4941 -0.3321
10846TIP3   OH232459   5.678   2.224   2.087 -0.3723 -0.1122 -0.2680
10846TIP3    H132460   5.695   2.189   2.174  1.5141  0.2770 -0.4605
10846TIP3    H232461   5.659   2.317   2.102 -1.4093 -0.3272 -0.1608
10847TIP3   OH232462   6.164   1.722   7.233  0.0535 -0.2102 -0.0418
10847TIP3    H132463   6.144   1.629   7.218  0.4590 -0.3726  0.4038
10847TIP3    H232464   6.129   1.740   7.320  0.4169 -0.0780  0.0769
10848TIP3   OH232465   7.856   0.827   6.782  0.4482  0.2462 -0.0043
10848TIP3    H132466   7.763   0.822   6.804  0.6475  0.0831  0.8169
10848TIP3    H232467   7.885   0.735   6.778  0.3830  0.2645 -1.1063
10849TIP3   OH232468   7.940   2.997   6.379  0.1739  0.0215  0.0784
10849TIP3    H132469   7.849   2.972   6.369  0.4856 -0.9041 -0.5547
10849TIP3    H232470   7.960   2.983   6.472  0.0577 -1.0890 -0.0689
10850TIP3   OH232471   3.220   5.189   0.821 -0.3045 -0.1570 -0.4895
10850TIP3    H132472   3.189   5.279   0.810  0.0484 -0.0003 -0.2066
10850TIP3    H232473   3.155   5.136   0.774 -0.8372  0.1933 -0.1597
10851TIP3   OH232474   0.687   2.902   7.139 -0.4542  0.1375  0.1201
10851TIP3    H132475   0.599   2.866   7.145 -0.0076 -0.9764  0.1106
10851TIP3    H232476   0.742   2.828   7.113  0.3484  1.0210 -0.7518
10852TIP3   OH232477   1.071   2.562   5.881  0.5177  0.5097 -0.1844
10852TIP3    H132478   0.990   2.522   5.913 -0.1191  0.3351 -1.9583
10852TIP3    H232479   1.128   2.565   5.958 -0.5437 -0.9564  0.7003
10853TIP3   OH232480   8.773   0.937   4.924 -0.4641 -0.0197 -0.8524
10853TIP3    H132481   8.825   0.873   4.973 -0.2572 -0.0613 -1.1262
10853TIP3    H232482   8.834   0.974   4.861 -0.8242 -0.2268 -1.3229
10854TIP3   OH232483   0.410   1.572   3.503  0.2745 -0.1165  0.7795
10854TIP3    H132484   0.402   1.485   3.462 -1.0089  0.9066 -1.2173
10854TIP3    H232485   0.504   1.589   3.503  0.4481 -1.0227  0.0876
10855TIP3   OH232486   8.548   1.859   3.434  0.0116  0.4518 -0.0755
10855TIP3    H132487   8.509   1.828   3.516  0.1946 -0.1336 -0.2137
10855TIP3    H232488   8.542   1.955   3.440 -1.4189  0.3715 -0.0708
10856TIP3   OH232489   0.322   2.382   7.033 -0.4965 -0.1139  0.2343
10856TIP3    H132490   0.324   2.441   7.109  1.5697  0.7404 -0.4608
10856TIP3    H232491   0.304   2.439   6.959  0.4246 -0.5335 -0.3095
10857TIP3   OH232492   4.313   4.662   0.632 -0.1846  0.1612 -0.0585
10857TIP3    H132493   4.311   4.700   0.544  1.9851  1.1706  0.2922
10857TIP3    H232494   4.244   4.708   0.679 -0.7680  0.2514 -0.9900
10858TIP3   OH232495   8.777   1.377   6.766  0.1382 -0.1319  0.0453
10858TIP3    H132496   8.730   1.421   6.837 -0.2336 -0.7687  0.1936
10858TIP3    H232497   8.727   1.298   6.749  0.0369  0.1744 -1.1578
10859TIP3   OH232498   2.038   2.884   6.000 -0.4520  0.0327  0.0132
10859TIP3    H132499   2.060   2.801   5.959  0.5910  0.2128  0.1916
10859TIP3    H232500   1.944   2.879   6.015 -0.1588 -1.7714  1.4367
10860TIP3   OH232501   8.190   2.072   4.183  0.1892  0.4809 -0.0654
10860TIP3    H132502   8.250   2.134   4.224 -1.6708  0.2763  3.1109
10860TIP3    H232503   8.132   2.126   4.129  0.3974  1.1835  0.4094
10861TIP3   OH232504   8.733   0.065   4.482 -0.5251  0.2481  0.2294
10861TIP3    H132505   8.668   0.048   4.413 -1.6832 -0.5412  1.4930
10861TIP3    H232506   8.702   0.145   4.525 -0.4423  0.1026  0.5636
10862TIP3   OH232507   7.932   2.196   4.939  0.5844 -0.1238  0.1855
10862TIP3    H132508   7.932   2.199   4.843 -0.4424  1.4315  0.2105
10862TIP3    H232509   7.955   2.285   4.966  2.3700 -0.9230  1.4061
10863TIP3   OH232510   6.793   1.633   3.656  0.1138  0.3494  0.2668
10863TIP3    H132511   6.698   1.623   3.644 -0.1535  1.6759  1.1269
10863TIP3    H232512   6.830   1.617   3.569 -0.8886 -0.3397 -0.0373
10864TIP3   OH232513   8.017   4.172   5.657 -0.0970 -0.1373  0.1946
10864TIP3    H132514   7.987   4.210   5.575 -0.7324 -2.3270 -0.6210
10864TIP3    H232515   8.103   4.136   5.637 -0.9174 -2.0551  0.0531
10865TIP3   OH232516   7.741   4.868   6.328  0.2840  0.7577 -0.0181
10865TIP3    H132517   7.724   4.841   6.237 -1.5250 -0.4588  0.6638
10865TIP3    H232518   7.667   4.834   6.378  1.6856  0.6839  2.0747
10866TIP3   OH232519   0.776   0.343   3.983 -0.0463  0.3299 -0.2424
10866TIP3    H132520   0.762   0.437   3.973 -2.4409  0.0670  0.4884
10866TIP3    H232521   0.772   0.309   3.894 -1.4060  0.6274 -0.2993
10867TIP3   OH232522   0.345   1.968   5.780 -0.2017 -0.3711  0.7159
10867TIP3    H132523   0.367   1.990   5.871 -0.8316 -2.1306  1.3268
10867TIP3    H232524   0.271   2.026   5.759  1.1305  1.3553  0.6694
10868TIP3   OH232525   7.561   1.663   2.471 -0.1690  0.0119 -0.2475
10868TIP3    H132526   7.520   1.615   2.399  0.3757  0.9249 -1.1778
10868TIP3    H232527   7.622   1.723   2.429  0.2376  0.4936  0.9860
10869TIP3   OH232528   0.106   1.929   5.474  0.1501  0.3266  0.3431
10869TIP3    H132529   0.178   1.894   5.421  1.3599  2.0654  0.8020
10869TIP3    H232530   0.093   1.863   5.542  1.7470  0.2640  0.6196
10870TIP3   OH232531   8.227   0.922   4.898  0.0430 -0.1410 -0.3355
10870TIP3    H132532   8.283   0.865   4.951  0.4219 -0.5929 -1.1995
10870TIP3    H232533   8.266   1.009   4.908  0.8269 -0.4235 -0.7934
10871TIP3   OH232534   8.839   1.161   4.704 -0.2602  0.5348  0.3697
10871TIP3    H132535   8.819   1.190   4.615  0.3684 -1.7620 -0.5564
10871TIP3    H232536   8.787   1.218   4.761 -2.4625  0.5009 -1.5748
10872TIP3   OH232537   8.856   3.408   6.802 -0.9721 -0.4374 -0.0738
10872TIP3    H132538   8.884   3.488   6.760 -1.2173 -0.2309  0.1488
10872TIP3    H232539   8.844   3.432   6.894 -1.1394 -0.7014 -0.0240
10873TIP3   OH232540   7.676   1.371   6.020 -0.6226 -0.0572 -0.0686
10873TIP3    H132541   7.585   1.341   6.012 -0.7556  0.2838  0.1621
10873TIP3    H232542   7.718   1.341   5.940 -0.7184 -0.9810  0.2176
10874TIP3   OH232543   3.502   7.437   0.185 -0.1705  0.4921 -0.3730
10874TIP3    H132544   3.488   7.462   0.094  1.9177  0.0725 -0.8360
10874TIP3    H232545   3.548   7.513   0.223 -1.3554  0.8186  0.4339
10875TIP3   OH232546   0.050   3.635   6.691 -0.2418  1.0825 -0.4684
10875TIP3    H132547   0.143   3.622   6.710 -0.0691  1.4209 -1.0729
10875TIP3    H232548   0.032   3.723   6.725 -0.5503  0.6827  0.4168
10876TIP3   OH232549   5.658   8.353   3.892  0.4264  0.0922  0.3244
10876TIP3    H132550   5.713   8.430   3.877  0.2763  0.0568 -0.4147
10876TIP3    H232551   5.568   8.385   3.880  0.2857  0.1028  1.3204
10877TIP3   OH232552   0.394   0.834   4.903  0.1732  0.4777  0.0278
10877TIP3    H132553   0.338   0.903   4.939  0.7052  0.6804  0.4709
10877TIP3    H232554   0.374   0.757   4.956  0.1395  0.4922  0.0357
10878TIP3   OH232555   8.205   2.644   3.594  0.1953 -0.0688 -0.6851
10878TIP3    H132556   8.240   2.565   3.637 -0.1729  0.2138  0.1257
10878TIP3    H232557   8.283   2.696   3.573  0.3954 -0.3612 -0.6701
10879TIP3   OH232558   7.627   3.221   1.957  0.3814  0.6228  0.0106
10879TIP3    H132559   7.635   3.250   1.866  0.3622 -0.5944 -0.3883
10879TIP3    H232560   7.546   3.260   1.989  1.1613  2.2998 -0.0168
10880TIP3   OH232561   8.850   2.213   3.697  0.0307 -0.5957  0.2725
10880TIP3    H132562   8.800   2.219   3.778  0.5599 -2.5673  0.7802
10880TIP3    H232563   8.814   2.282   3.641 -0.6539  0.4808  2.0027
10881TIP3   OH232564   7.621   2.070   6.612  0.2430 -0.5556 -0.3308
10881TIP3    H132565   7.703   2.115   6.633 -1.9671  3.2447  0.4409
10881TIP3    H232566   7.606   2.090   6.519 -0.5717  0.0224 -0.0763
10882TIP3   OH232567   4.368   8.389   7.208  0.4610  0.3313 -0.1012
10882TIP3    H132568   4.353   8.331   7.283 -0.6269 -0.4871 -0.9541
10882TIP3    H232569   4.463   8.387   7.196  0.6318  0.3934  1.2011
10883TIP3   OH232570   8.731   1.760   3.266 -0.1093 -0.3818 -0.0722
10883TIP3    H132571   8.809   1.733   3.314  0.8496  3.2806  0.6033
10883TIP3    H232572   8.666   1.779   3.334  0.3921  2.2689 -0.2693
10884TIP3   OH232573   0.483   2.979   6.685  0.3028 -0.7166  0.0643
10884TIP3    H132574   0.471   2.982   6.780  2.3754 -1.2924  0.3665
10884TIP3    H232575   0.568   3.021   6.670 -0.2699 -0.1283 -1.5955
10885TIP3   OH232576   8.806   2.008   5.080 -0.1810 -0.0935 -0.9252
10885TIP3    H132577   8.752   1.945   5.127  1.3251 -1.8128 -1.4308
10885TIP3    H232578   8.814   2.083   5.139 -1.0877 -0.8350  0.1476
10886TIP3   OH232579   7.945   1.807   5.783  0.0016 -0.0352 -0.2099
10886TIP3    H132580   7.977   1.860   5.710  1.4153 -0.1856  0.2954
10886TIP3    H232581   7.926   1.871   5.852  0.7939 -0.0908  0.0644
10887TIP3   OH232582   8.592   2.896   6.426 -0.4373 -0.3978  0.4266
10887TIP3    H132583   8.615   2.956   6.497  0.4454  0.7443 -0.7806
10887TIP3    H232584   8.524   2.942   6.377 -1.0094 -1.1559  0.5106
10888TIP3   OH232585   0.225   1.584   4.936  0.3166  0.4356 -0.1740
10888TIP3    H132586   0.190   1.623   5.016  0.6197  0.8490 -0.2416
10888TIP3    H232587   0.200   1.491   4.941 -1.3869  0.8518 -0.5391
10889TIP3   OH232588   8.685   3.114   4.644 -0.2712  0.0209  0.1836
10889TIP3    H132589   8.751   3.180   4.663 -1.2948  1.2463 -0.4789
10889TIP3    H232590   8.688   3.055   4.720  2.1542 -0.4420 -0.2281
10890TIP3   OH232591   8.230   3.011   4.916 -0.2184 -0.6505  0.3161
10890TIP3    H132592   8.187   2.939   4.962 -1.1059 -0.2265  0.1633
10890TIP3    H232593   8.182   3.089   4.943 -0.3163 -0.3143 -0.7863
10891TIP3   OH232594   0.103   2.714   4.892  0.8246 -0.0132 -0.0896
10891TIP3    H132595   0.180   2.660   4.878  1.1033  0.5566 -0.8156
10891TIP3    H232596   0.068   2.728   4.804 -0.4658 -0.7910  0.2861
10892TIP3   OH232597   0.214   4.145   6.556  0.4239  0.6464  0.3278
10892TIP3    H132598   0.243   4.217   6.501 -0.1815  2.2915  2.1281
10892TIP3    H232599   0.243   4.168   6.644 -0.2560 -1.0388  1.0192
10893TIP3   OH232600   1.106   3.884   3.373  0.0673 -0.1754 -0.7091
10893TIP3    H132601   1.193   3.911   3.346 -0.2469  1.7577  0.1433
10893TIP3    H232602   1.109   3.882   3.468 -0.1533 -2.4524 -0.7134
10894TIP3   OH232603   0.643   2.333   7.218  0.5411  0.4960 -0.1796
10894TIP3    H132604   0.662   2.384   7.139  0.7157 -1.3828 -1.3624
10894TIP3    H232605   0.720   2.345   7.273  1.4784 -0.1402 -1.3280
10895TIP3   OH232606   6.016   6.309   1.756  0.7712  0.2069 -0.5488
10895TIP3    H132607   6.033   6.227   1.709  2.4916  0.3915 -0.2805
10895TIP3    H232608   6.053   6.377   1.700  0.2366  0.7030 -0.2994
10896TIP3   OH232609   0.745   1.107   7.027  0.5780  0.2871 -0.1026
10896TIP3    H132610   0.651   1.104   7.046  0.1443 -0.5344 -2.1999
10896TIP3    H232611   0.779   1.177   7.083 -0.8626 -0.8763  2.3555
10897TIP3   OH232612   2.990   6.937   0.026  0.2855 -0.3940 -0.0405
10897TIP3    H132613   2.998   6.986   0.108 -0.0463 -2.4033  1.2325
10897TIP3    H232614   2.922   6.871   0.044 -0.1703 -0.5385 -2.1057
10898TIP3   OH232615   3.722   6.913   1.399 -0.1574  0.1189  0.0785
10898TIP3    H132616   3.800   6.914   1.454  0.1956  0.0243 -0.4249
10898TIP3    H232617   3.750   6.948   1.315 -0.5142 -0.4913 -0.2980
10899TIP3   OH232618   5.800   8.283   1.278  0.4255 -0.1310  0.4493
10899TIP3    H132619   5.798   8.194   1.245  1.7268 -0.0035  0.0276
10899TIP3    H232620   5.862   8.281   1.351  1.3014  0.6585 -0.2615
10900TIP3   OH232621   1.593   2.617   6.850 -0.3580  0.3922 -0.0870
10900TIP3    H132622   1.651   2.544   6.875  0.9158  0.4497 -2.7438
10900TIP3    H232623   1.643   2.667   6.786 -1.4424  3.3339  1.2819
10901TIP3   OH232624   3.438   5.128   0.972  0.3089 -0.2252 -0.3776
10901TIP3    H132625   3.359   5.150   0.923  1.2184  3.1891 -0.4018
10901TIP3    H232626   3.502   5.102   0.906 -0.5941 -2.5842 -0.3861
10902TIP3   OH232627   3.916   7.201   0.263  0.5984  0.0111 -0.4806
10902TIP3    H132628   3.972   7.140   0.311  1.5260  1.0120 -0.3004
10902TIP3    H232629   3.943   7.191   0.172 -0.4830 -1.1520 -0.6977
10903TIP3   OH232630   3.857   5.452   2.016 -0.0027 -0.2835  0.1761
10903TIP3    H132631   3.835   5.541   1.992  0.1612 -0.2922 -0.0082
10903TIP3    H232632   3.844   5.448   2.111  0.3745  0.0493  0.2442
10904TIP3   OH232633   1.580   1.693   5.989  0.0680  0.8182  0.2526
10904TIP3    H132634   1.492   1.729   5.986 -1.1034 -1.9501 -0.1172
10904TIP3    H232635   1.597   1.677   6.082 -0.2654  0.3458  0.2352
10905TIP3   OH232636   0.269   4.919   6.885 -0.0474 -0.2029  0.8084
10905TIP3    H132637   0.320   4.993   6.852 -0.2897 -0.6894 -0.7011
10905TIP3    H232638   0.308   4.899   6.969  0.4064  1.2587  0.9649
10906TIP3   OH232639   5.560   6.851   0.135 -0.0807  0.1870 -0.0069
10906TIP3    H132640   5.576   6.840   0.042  2.3741  1.3111  0.2310
10906TIP3    H232641   5.537   6.764   0.167  0.6072 -0.5108 -1.3806
10907TIP3   OH232642   2.107   6.702   0.093 -0.1021  0.3734  0.3773
10907TIP3    H132643   2.090   6.691   0.186 -0.5831 -2.1427  0.0308
10907TIP3    H232644   2.031   6.664   0.049  1.1576 -0.5639 -1.0536
10908TIP3   OH232645   1.719   4.341   6.983 -0.5820 -0.0633 -0.1467
10908TIP3    H132646   1.756   4.285   6.915 -1.9408 -0.9192 -0.1941
10908TIP3    H232647   1.779   4.332   7.057 -0.6123 -1.3199 -0.2694
10909TIP3   OH232648   5.093   3.925   1.625  0.0455  0.2478  0.6232
10909TIP3    H132649   5.052   3.964   1.702 -1.8507  1.2279 -0.8426
10909TIP3    H232650   5.103   3.833   1.647 -2.9178 -0.0019  1.0816
10910TIP3   OH232651   8.099   2.596   5.615 -0.0393 -0.1891  0.0550
10910TIP3    H132652   8.005   2.582   5.608  0.1052 -1.7290  1.0639
10910TIP3    H232653   8.112   2.684   5.580 -1.8325  0.0076 -0.1857
10911TIP3   OH232654   2.946   7.792   1.649 -0.1967  0.1425  0.1431
10911TIP3    H132655   2.982   7.861   1.594  1.4918 -1.8808 -1.3633
10911TIP3    H232656   3.001   7.792   1.727  0.4634 -0.1961 -0.3211
10912TIP3   OH232657   8.394   4.459   6.334  0.1164  0.7487  0.2334
10912TIP3    H132658   8.322   4.518   6.358 -0.3828  0.7779 -1.3164
10912TIP3    H232659   8.351   4.378   6.308  0.7685 -0.0512  1.5699
10913TIP3   OH232660   7.113   5.058   0.887  0.4200 -0.0117  0.7004
10913TIP3    H132661   7.024   5.026   0.875  0.3071  0.6394 -0.2507
10913TIP3    H232662   7.169   4.989   0.851  0.3024 -0.3040  1.0654
10914TIP3   OH232663   8.844   2.817   6.192  0.2561 -0.6768  0.0498
10914TIP3    H132664   8.796   2.756   6.249  0.0798  1.9646  2.8329
10914TIP3    H232665   8.936   2.794   6.205  0.1195 -1.3893 -0.1839
10915TIP3   OH232666   6.905   5.082   0.617  0.5389  0.1258 -0.3794
10915TIP3    H132667   6.839   5.151   0.619  0.6388  0.1885  1.9893
10915TIP3    H232668   6.856   5.001   0.624  0.6334  0.1224  0.2710
10916TIP3   OH232669   1.275   2.482   6.159  0.0678 -0.8763 -0.0696
10916TIP3    H132670   1.348   2.422   6.144  1.2921  0.5479  0.1394
10916TIP3    H232671   1.296   2.525   6.242  1.5651  3.2041 -2.4210
10917TIP3   OH232672   2.012   4.639   6.564 -0.1980  0.0434 -0.0664
10917TIP3    H132673   1.999   4.657   6.471  0.1284 -1.3356 -0.3886
10917TIP3    H232674   1.950   4.569   6.584  0.2152 -0.1426  0.5885
10918TIP3   OH232675   4.351   6.705   0.253 -0.3630  0.0130  0.0480
10918TIP3    H132676   4.412   6.775   0.231 -3.5602  2.3336 -1.9345
10918TIP3    H232677   4.368   6.636   0.189  0.3508  0.5402 -0.3317
10919TIP3   OH232678   1.638   3.527   7.047 -0.3246  0.0651  0.2749
10919TIP3    H132679   1.602   3.443   7.075 -2.7595  1.2014  0.7528
10919TIP3    H232680   1.732   3.520   7.064 -0.5162 -2.4694  0.4761
10920TIP3   OH232681   2.531   1.226   6.972 -0.0115  0.4443 -0.4413
10920TIP3    H132682   2.535   1.274   6.889  1.4482 -0.0161 -0.6417
10920TIP3    H232683   2.474   1.151   6.953  0.2924  0.3573 -1.0122
10921TIP3   OH232684   6.256   6.075   1.275  0.1119 -0.2689  0.1673
10921TIP3    H132685   6.242   6.148   1.336 -2.5664 -1.4764  1.0748
10921TIP3    H232686   6.249   5.997   1.330  0.7159 -1.2896 -1.1976
10922TIP3   OH232687   2.257   7.801   1.126 -0.4330 -0.0620 -0.4044
10922TIP3    H132688   2.178   7.766   1.087 -0.6481 -1.6147  1.3548
10922TIP3    H232689   2.227   7.875   1.180 -0.3910  0.7630 -1.5009
10923TIP3   OH232690   5.536   6.654   0.754  0.5093 -0.1202  0.1745
10923TIP3    H132691   5.500   6.591   0.691  1.0906  1.2035 -1.5165
10923TIP3    H232692   5.604   6.605   0.799 -0.6187 -1.4130  0.5417
10924TIP3   OH232693   2.681   7.855   1.663 -0.0205  0.0920 -0.9626
10924TIP3    H132694   2.657   7.778   1.714  0.6140  0.1763 -0.5290
10924TIP3    H232695   2.775   7.845   1.647 -0.1218  0.3110 -1.7027
10925TIP3   OH232696   8.176   0.704   7.027  1.0957 -0.3821 -0.2159
10925TIP3    H132697   8.179   0.724   7.121 -2.1552 -0.5012 -0.0312
10925TIP3    H232698   8.201   0.612   7.021 -1.8339 -1.2980  0.9282
10926TIP3   OH232699   8.397   0.036   7.096  0.3324  0.0087 -0.1297
10926TIP3    H132700   8.338  -0.011   7.038 -0.9984  1.2103  0.2081
10926TIP3    H232701   8.383  -0.004   7.182 -1.2715  1.3893  0.2850
10927TIP3   OH232702   1.189   4.159   7.229  0.2488 -0.3186  0.1622
10927TIP3    H132703   1.150   4.112   7.155  1.8823 -1.4757  0.0028
10927TIP3    H232704   1.195   4.250   7.200 -3.8188  0.2417  0.8137
10928TIP3   OH232705   1.801   8.087   7.093  0.0435  0.2293 -0.2863
10928TIP3    H132706   1.767   8.076   7.004  0.1124  1.8569 -0.5215
10928TIP3    H232707   1.890   8.121   7.081  0.3434 -0.2886  0.4056
10929TIP3   OH232708   2.476   2.911   6.799 -0.1123  0.4553  0.3555
10929TIP3    H132709   2.482   3.004   6.820 -0.5078  0.9249 -1.5100
10929TIP3    H232710   2.440   2.871   6.878 -2.2019  2.2526  0.3732
10930TIP3   OH232711   1.357   1.364   5.387 -0.2605 -0.8629 -0.4976
10930TIP3    H132712   1.436   1.310   5.391  1.4819  1.6480  0.2822
10930TIP3    H232713   1.307   1.338   5.465 -0.8282 -3.2979 -1.6092
10931TIP3   OH232714   2.112   1.917   4.743 -0.1438 -0.3182  0.0982
10931TIP3    H132715   2.121   1.995   4.688 -1.0953  0.2583  0.7400
10931TIP3    H232716   2.197   1.910   4.787  0.2078 -0.0827 -0.5371
10932TIP3   OH232717   2.865   0.506   7.178 -0.2598 -0.4029 -0.6991
10932TIP3    H132718   2.796   0.441   7.162  0.0231 -1.8063  3.2646
10932TIP3    H232719   2.820   0.577   7.223  0.2211  0.2643 -1.2728
10933TIP3   OH232720   4.198   6.847   0.518  0.0164 -0.0475 -0.5821
10933TIP3    H132721   4.256   6.830   0.592 -1.3792 -0.1398  0.5134
10933TIP3    H232722   4.247   6.817   0.441  0.9734 -1.1225  0.4318
10934TIP3   OH232723   1.028   3.392   6.564 -0.0861 -0.1891  0.3096
10934TIP3    H132724   0.972   3.451   6.614  1.5512  1.7995 -0.1472
10934TIP3    H232725   0.967   3.336   6.516 -1.6745  1.7412  0.0269
10935TIP3   OH232726   4.521   5.062   0.993  0.3155 -0.1060 -0.6398
10935TIP3    H132727   4.557   5.151   0.993 -0.7635  0.3432 -0.5666
10935TIP3    H232728   4.428   5.074   1.016 -0.1401 -1.1331 -1.8767
10936TIP3   OH232729   8.624   0.068   2.032  0.1694 -0.3042  0.3717
10936TIP3    H132730   8.585   0.143   1.986  0.2007  0.1705  1.1228
10936TIP3    H232731   8.711   0.058   1.992  1.2294  1.7280  2.1027
10937TIP3   OH232732   0.389   3.724   6.434  0.2400 -0.5383  0.1857
10937TIP3    H132733   0.314   3.665   6.430 -0.1685  0.0395 -0.7383
10937TIP3    H232734   0.393   3.751   6.526 -1.4964  0.4379  0.0097
10938TIP3   OH232735   0.736   5.145   5.981  0.0178  0.1977  0.6437
10938TIP3    H132736   0.762   5.077   6.043 -3.4905 -2.2379 -0.4255
10938TIP3    H232737   0.746   5.104   5.895 -1.9051  1.1110 -0.0370
10939TIP3   OH232738   7.842   2.676   5.508 -0.5426  0.2789 -0.6626
10939TIP3    H132739   7.830   2.642   5.419  1.7158  0.8696 -1.2216
10939TIP3    H232740   7.805   2.608   5.565  1.4579 -1.8923 -1.8787
10940TIP3   OH232741   2.557   2.425   6.111  0.7083 -0.1090 -0.5948
10940TIP3    H132742   2.465   2.440   6.092  0.3735 -1.6246 -0.1845
10940TIP3    H232743   2.602   2.448   6.029 -0.1080 -0.2264 -1.0767
10941TIP3   OH232744   3.429   1.671   6.934 -0.3478  0.0282  0.4594
10941TIP3    H132745   3.347   1.720   6.937  0.6620  1.7876  0.3428
10941TIP3    H232746   3.471   1.700   6.853  0.6510 -0.3928  0.8180
10942TIP3   OH232747   3.496   6.304   1.252  0.3961  0.2667  0.1699
10942TIP3    H132748   3.490   6.345   1.339  4.3485  0.6670  0.3539
10942TIP3    H232749   3.474   6.375   1.191 -0.2079  0.5894  0.7462
10943TIP3   OH232750   4.555   7.742   0.608 -0.0298 -0.6927 -0.0059
10943TIP3    H132751   4.523   7.655   0.581 -2.6717 -0.3096  1.7014
10943TIP3    H232752   4.558   7.738   0.703  1.8901  0.4327  0.0006
10944TIP3   OH232753   5.048   6.537   0.926  0.8499  0.2677  0.0160
10944TIP3    H132754   5.133   6.573   0.903  0.3358  0.7096 -1.2179
10944TIP3    H232755   5.055   6.443   0.909  0.9720  0.3591 -0.4236
10945TIP3   OH232756   3.657   5.543   0.418  0.4629 -0.4840  0.1713
10945TIP3    H132757   3.568   5.569   0.445  0.1200 -1.9368  0.5033
10945TIP3    H232758   3.709   5.552   0.497  0.5034 -0.1344  0.1068
10946TIP3   OH232759   3.405   4.628   1.462 -0.3308 -0.0479  0.4586
10946TIP3    H132760   3.407   4.591   1.373 -1.6108  1.8835 -0.4009
10946TIP3    H232761   3.493   4.613   1.496  0.8524  1.1866 -1.9779
10947TIP3   OH232762   8.348   2.926   6.603 -0.1830  0.3014 -0.1329
10947TIP3    H132763   8.367   2.996   6.664 -0.2779 -0.5998  0.9429
10947TIP3    H232764   8.416   2.860   6.619  0.7262  0.7172 -2.0779
10948TIP3   OH232765   5.451   6.665   1.955 -0.6804 -0.2050 -0.3024
10948TIP3    H132766   5.538   6.626   1.960 -0.5409 -0.4667 -3.7086
10948TIP3    H232767   5.466   6.759   1.960 -0.4083 -0.3100  1.0759
10949TIP3   OH232768   1.356   2.542   5.570  0.0983 -0.3769 -0.2082
10949TIP3    H132769   1.329   2.453   5.550  0.5564 -0.6812  0.5115
10949TIP3    H232770   1.398   2.574   5.489  1.0727 -1.2539 -0.0573
10950TIP3   OH232771   3.947   6.153   1.466 -0.3160  0.2212 -0.3299
10950TIP3    H132772   3.906   6.212   1.529  0.3127 -0.1659  0.4410
10950TIP3    H232773   3.995   6.089   1.519 -1.8548 -1.6434 -1.1176
10951TIP3   OH232774   2.568   2.111   7.115  0.7682  0.4061  0.8563
10951TIP3    H132775   2.662   2.091   7.116  0.6687 -0.0666  0.8837
10951TIP3    H232776   2.526   2.028   7.139  0.2974  0.3522 -0.1177
10952TIP3   OH232777   2.469   1.347   7.219 -0.1948  0.2154  0.4791
10952TIP3    H132778   2.493   1.289   7.291  0.4724  0.3691  0.3853
10952TIP3    H232779   2.492   1.297   7.140  1.9192  1.2322  0.4112
10953TIP3   OH232780   5.252   6.778   1.408 -0.1011  0.0428 -0.4237
10953TIP3    H132781   5.245   6.731   1.324  0.8114 -1.4301  0.2892
10953TIP3    H232782   5.326   6.838   1.396  0.1542 -0.3055 -0.6250
10954TIP3   OH232783   0.832   2.099   6.124 -0.1721  0.0188  0.3351
10954TIP3    H132784   0.820   2.194   6.122 -2.0785 -0.1968  0.6695
10954TIP3    H232785   0.753   2.066   6.166 -0.5262 -1.8973 -1.7551
10955TIP3   OH232786   6.115   7.748   1.676 -0.4221 -0.2743  0.3395
10955TIP3    H132787   6.202   7.751   1.716 -0.9366 -1.5174  1.5759
10955TIP3    H232788   6.062   7.697   1.737 -1.4483 -1.4885 -1.5334
10956TIP3   OH232789   8.719   3.323   5.975  0.0006  0.2371  0.3286
10956TIP3    H132790   8.687   3.362   5.893  0.7622 -1.1812 -0.6610
10956TIP3    H232791   8.749   3.236   5.950  2.1745  0.5564  1.7266
10957TIP3   OH232792   4.095   5.681   2.068  0.6900 -0.4260 -0.0676
10957TIP3    H132793   4.137   5.613   2.120 -0.4756 -0.1779  1.2185
10957TIP3    H232794   4.005   5.686   2.101  0.6679  1.5486 -0.3201
10958TIP3   OH232795   0.601   5.109   5.312  0.1788 -0.0767  0.1782
10958TIP3    H132796   0.597   5.201   5.285  0.5381 -0.1985 -0.3118
10958TIP3    H232797   0.689   5.080   5.284 -0.9419 -1.3276 -2.2176
10959TIP3   OH232798   6.096   4.622   1.061 -0.4684 -0.0567 -0.8238
10959TIP3    H132799   6.056   4.694   1.110 -0.8632 -0.3733 -0.6754
10959TIP3    H232800   6.092   4.548   1.120  2.5108  0.4555  0.1175
10960TIP3   OH232801   1.913   5.036   6.766 -0.0774 -0.4338  0.0493
10960TIP3    H132802   1.870   4.972   6.822 -0.0994 -1.2342 -0.8673
10960TIP3    H232803   1.984   4.987   6.724  0.3574  0.3217 -0.1073
10961TIP3   OH232804   2.682   7.295   0.502 -0.3728  0.3534  0.8445
10961TIP3    H132805   2.749   7.357   0.532  0.0780  0.3665 -0.1671
10961TIP3    H232806   2.728   7.213   0.492 -0.4642  0.4109 -0.0603
10962TIP3   OH232807   1.126   2.318   6.677  0.6935 -0.1207 -0.1538
10962TIP3    H132808   1.066   2.392   6.671 -0.1379 -1.0035 -4.3799
10962TIP3    H232809   1.206   2.355   6.715 -0.5695  2.3334  0.2288
10963TIP3   OH232810   4.078   5.580   0.086 -0.2884 -0.4247  0.2178
10963TIP3    H132811   4.012   5.562   0.153 -0.6144 -0.8274 -0.2056
10963TIP3    H232812   4.071   5.674   0.071  0.3355 -0.1942  1.3183
10964TIP3   OH232813   2.540   3.344   4.929 -0.3825  0.3727  0.0849
10964TIP3    H132814   2.463   3.383   4.887 -0.6034  1.4341  1.4145
10964TIP3    H232815   2.587   3.300   4.858 -1.0510  1.5920 -1.1396
10965TIP3   OH232816   3.918   8.053   0.166  0.4514 -0.3171  0.5851
10965TIP3    H132817   3.831   8.052   0.204  0.2608 -0.6325  0.1591
10965TIP3    H232818   3.955   8.138   0.190  0.0225 -0.1782  0.7560
10966TIP3   OH232819   2.511   3.036   7.160  0.2631  0.1664  0.1585
10966TIP3    H132820   2.453   2.971   7.119 -0.0416 -0.6792  1.8935
10966TIP3    H232821   2.598   2.996   7.154  0.0032 -0.6661  1.6972
10967TIP3   OH232822   2.175   4.892   6.274  0.1742 -0.1122  0.5247
10967TIP3    H132823   2.255   4.887   6.327  0.5539 -0.0340 -0.0347
10967TIP3    H232824   2.157   4.801   6.250 -0.5192 -0.2550  1.5468
10968TIP3   OH232825   4.335   8.239   1.036 -0.0165 -0.2615  0.1743
10968TIP3    H132826   4.261   8.179   1.044  0.4456 -0.8608 -0.0161
10968TIP3    H232827   4.350   8.271   1.125 -0.4868 -0.1510  0.2158
10969TIP3   OH232828   5.011   7.229   0.551 -0.3173  0.0572 -0.4855
10969TIP3    H132829   5.069   7.194   0.484 -0.1464 -0.3956 -0.0999
10969TIP3    H232830   4.952   7.157   0.573  0.1521 -0.0515  0.4363
10970TIP3   OH232831   6.778   0.843   6.318  0.3738 -0.7805  0.5089
10970TIP3    H132832   6.754   0.751   6.308  0.5668 -0.7706 -0.0692
10970TIP3    H232833   6.858   0.841   6.372 -0.2301 -0.8816  1.4107
10971TIP3   OH232834   0.941   1.762   6.798 -0.2083  0.3382 -0.3467
10971TIP3    H132835   0.881   1.707   6.748  0.4419 -1.1122  0.4220
10971TIP3    H232836   1.017   1.773   6.741 -0.6467  1.0453 -0.7898
10972TIP3   OH232837   7.200   1.613   3.052 -0.7576  0.1683  0.3917
10972TIP3    H132838   7.190   1.521   3.075  1.6428 -0.4409 -0.8303
10972TIP3    H232839   7.125   1.633   2.996 -0.6096 -1.3956 -0.3810
10973TIP3   OH232840   1.283   1.700   5.993  0.0561  0.3793 -0.0053
10973TIP3    H132841   1.237   1.783   6.005  0.6661  0.4675  1.8086
10973TIP3    H232842   1.256   1.670   5.906 -2.1404  1.2241  0.3622
10974TIP3   OH232843   2.672   6.824   0.377 -0.0198 -0.6555  0.4090
10974TIP3    H132844   2.737   6.811   0.308  0.1139  1.8392  0.0165
10974TIP3    H232845   2.602   6.762   0.357  0.0735 -0.0506 -1.9080
10975TIP3   OH232846   0.974   2.772   6.777 -0.2020  0.4943  0.2980
10975TIP3    H132847   0.968   2.699   6.716 -0.9151  1.9321 -1.4016
10975TIP3    H232848   1.037   2.832   6.736  0.9867  0.4838  2.0643
10976TIP3   OH232849   0.772   4.891   6.105 -0.3116  0.1802  0.4950
10976TIP3    H132850   0.812   4.806   6.121  0.4251  0.5305  0.5523
10976TIP3    H232851   0.692   4.872   6.057  0.6365 -0.4427 -0.8633
10977TIP3   OH232852   4.222   7.594   0.034 -0.2367 -0.2424 -0.0107
10977TIP3    H132853   4.266   7.597   0.119  0.7349 -0.1401 -0.5129
10977TIP3    H232854   4.172   7.675   0.031  0.9207  0.4818 -0.1634
10978TIP3   OH232855   3.240   1.519   4.861  0.1768 -0.0713  0.1802
10978TIP3    H132856   3.230   1.512   4.956 -0.1897  0.1552  0.1577
10978TIP3    H232857   3.232   1.612   4.842  0.7078 -0.0599 -0.0259
10979TIP3   OH232858   2.107   2.995   7.047 -0.1060  0.7505 -0.5897
10979TIP3    H132859   2.032   2.994   6.988 -2.1432 -1.7963  1.8602
10979TIP3    H232860   2.082   3.056   7.117  0.5209  0.6858 -0.3088
10980TIP3   OH232861   7.503   3.195   6.914 -0.5931  0.0603  0.0558
10980TIP3    H132862   7.513   3.231   7.001 -0.3447 -0.1798  0.1276
10980TIP3    H232863   7.537   3.106   6.921  2.2421  1.0185 -1.0324
10981TIP3   OH232864   4.078   7.802   1.084 -0.3894 -0.0345 -0.1830
10981TIP3    H132865   4.042   7.718   1.112  0.7994 -0.9536 -1.3535
10981TIP3    H232866   4.157   7.780   1.036 -0.4174  1.7191 -1.0974
10982TIP3   OH232867   1.758   8.220   0.815  0.3981  0.3750 -0.4409
10982TIP3    H132868   1.715   8.267   0.887  0.1425  0.6263 -0.7569
10982TIP3    H232869   1.746   8.277   0.739 -0.7417 -0.6248 -1.0394
10983TIP3   OH232870   4.287   3.826   5.191  0.0519  0.2891 -0.9084
10983TIP3    H132871   4.238   3.855   5.114 -0.4809 -0.0649 -0.7087
10983TIP3    H232872   4.376   3.811   5.159 -0.0748  0.5124 -1.3717
10984TIP3   OH232873   0.049   1.976   6.888 -0.3247  0.2800 -0.4036
10984TIP3    H132874   0.087   2.001   6.972  1.3129  0.8264 -1.2757
10984TIP3    H232875   0.104   1.904   6.857  0.1811  1.2247 -1.7869
10985TIP3   OH232876   4.826   4.664   1.527  0.3672  0.5894  0.3409
10985TIP3    H132877   4.904   4.619   1.493  0.1283  1.0492 -0.8454
10985TIP3    H232878   4.847   4.681   1.619  0.9215 -0.9247  0.5106
10986TIP3   OH232879   1.777   2.590   6.493  0.1900  0.3174 -0.1593
10986TIP3    H132880   1.850   2.596   6.431 -0.4803  0.0363 -0.9814
10986TIP3    H232881   1.771   2.496   6.513 -0.8613  0.1526 -1.2063
10987TIP3   OH232882   1.274   2.900   5.633 -0.0266 -0.1762 -0.0952
10987TIP3    H132883   1.270   2.820   5.685  1.4641  0.3213  0.7976
10987TIP3    H232884   1.190   2.902   5.587 -0.4383 -1.7928  0.5419
10988TIP3   OH232885   6.049   8.204   4.397 -0.7585 -0.1827  0.2175
10988TIP3    H132886   5.997   8.182   4.320  1.5504  1.4631 -1.8588
10988TIP3    H232887   6.026   8.295   4.417  1.8232  0.8315 -1.2014
10989TIP3   OH232888   8.414   2.606   6.611  0.1073  0.2031  0.0842
10989TIP3    H132889   8.507   2.630   6.614 -0.0436  0.6736  1.0710
10989TIP3    H232890   8.397   2.591   6.518  1.3795 -0.7341 -0.0261
10990TIP3   OH232891   4.714   4.977   1.563  0.0805 -0.5007  0.0517
10990TIP3    H132892   4.752   4.937   1.485 -2.9303  0.1951 -1.8457
10990TIP3    H232893   4.653   4.911   1.597 -0.3401  0.0908  0.4703
10991TIP3   OH232894   1.367   2.973   7.117  0.3504  0.0884 -0.5033
10991TIP3    H132895   1.417   3.027   7.056  0.6083 -0.4858 -0.7926
10991TIP3    H232896   1.365   2.886   7.078 -1.1038  0.1629 -0.6415
10992TIP3   OH232897   3.966   4.692   1.683 -0.3075  0.3666  0.0896
10992TIP3    H132898   4.001   4.777   1.657 -1.2427  0.8567  0.3791
10992TIP3    H232899   3.976   4.689   1.778 -1.6215  0.7938  0.2549
10993TIP3   OH232900   2.363   7.416   1.268  0.0638 -0.4635  0.5107
10993TIP3    H132901   2.444   7.366   1.274  0.6496  0.2571 -1.1797
10993TIP3    H232902   2.381   7.497   1.316  0.2010 -0.4897  0.5041
10994TIP3   OH232903   7.641   3.648   6.352  0.0255  0.2221  0.5916
10994TIP3    H132904   7.689   3.582   6.302  1.6359  1.7522  0.0313
10994TIP3    H232905   7.608   3.709   6.286  0.0422  0.8989  1.1993
10995TIP3   OH232906   0.273   2.265   5.368 -0.5778  0.0690  0.2967
10995TIP3    H132907   0.231   2.311   5.442 -0.3055  0.7479  0.0329
10995TIP3    H232908   0.296   2.335   5.307 -0.2901 -0.4427 -0.1780
10996TIP3   OH232909   2.997   6.445   0.010  0.3638 -0.2627 -0.1622
10996TIP3    H132910   3.044   6.393  -0.054  1.8062  0.5391  0.2198
10996TIP3    H232911   3.058   6.453   0.084  0.5270  2.6540 -0.5568
10997TIP3   OH232912   4.949   8.202   1.658  0.2027 -0.2803 -0.5890
10997TIP3    H132913   4.919   8.111   1.664 -1.2102  0.1642 -0.7893
10997TIP3    H232914   4.970   8.213   1.565  3.2812 -1.2865 -0.0609
10998TIP3   OH232915   1.178   1.602   6.932 -0.3185  0.0233 -0.0631
10998TIP3    H132916   1.112   1.620   6.866 -0.3862  0.0510  0.0121
10998TIP3    H232917   1.261   1.601   6.884 -0.4283 -0.5490 -0.2465
10999TIP3   OH232918   1.245   0.800   6.512 -0.6154 -0.5039  0.2920
10999TIP3    H132919   1.274   0.801   6.421  0.0859 -0.5375  0.5135
10999TIP3    H232920   1.304   0.739   6.555  1.6235  2.4901  1.6282
11000TIP3   OH232921   0.733   1.471   5.340 -0.4028 -0.0757 -0.1532
11000TIP3    H132922   0.763   1.506   5.256 -1.3455 -1.4212 -1.0630
11000TIP3    H232923   0.638   1.466   5.332 -0.4598 -0.7271  0.7949
11001TIP3   OH232924   3.935   7.639   0.203  0.0340 -0.2122  0.3833
11001TIP3    H132925   3.996   7.655   0.275  0.9102  0.4971 -0.5138
11001TIP3    H232926   3.911   7.547   0.212  0.2148 -0.1543  1.5206
11002TIP3   OH232927   4.981   7.126   0.164  0.0410  0.2986  0.1402
11002TIP3    H132928   4.936   7.095   0.085  0.8341  1.4300 -0.7596
11002TIP3    H232929   4.965   7.220   0.165  0.3826  0.3464  1.1165
11003TIP3   OH232930   1.660   1.921   5.366 -0.5729  0.1620  0.3334
11003TIP3    H132931   1.570   1.900   5.341 -0.7401  0.7566  0.4211
11003TIP3    H232932   1.714   1.857   5.319 -1.1167 -0.9644  1.2045
11004TIP3   OH232933   1.755   1.102   6.106  0.1233  0.1257 -0.1184
11004TIP3    H132934   1.706   1.176   6.072  2.0637  0.7280 -1.6571
11004TIP3    H232935   1.847   1.125   6.092  0.8127 -1.7277  1.1446
11005TIP3   OH232936   4.510   8.009   1.643 -0.4038  0.0800 -0.0551
11005TIP3    H132937   4.535   7.922   1.674 -1.6883  0.1323  1.1315
11005TIP3    H232938   4.481   7.994   1.553  0.8387 -0.4633 -0.3845
11006TIP3   OH232939   6.453   5.438   1.032 -0.1825  0.2670 -0.7441
11006TIP3    H132940   6.498   5.386   1.099 -3.3282  0.1509  1.3809
11006TIP3    H232941   6.441   5.524   1.073  0.5073  1.1424 -2.3360
11007TIP3   OH232942   6.559   2.319   4.278  0.2666  0.2354 -0.4069
11007TIP3    H132943   6.610   2.318   4.360  0.5211  1.8164 -0.5437
11007TIP3    H232944   6.539   2.411   4.263 -2.5500 -0.3529 -0.4325
11008TIP3   OH232945   5.553   5.877   0.297  0.2407 -0.1802 -0.9655
11008TIP3    H132946   5.644   5.860   0.273  0.8280  0.6933  0.5960
11008TIP3    H232947   5.541   5.971   0.279 -0.1264 -0.1335 -0.4783
11009TIP3   OH232948   0.538   7.743   0.338 -0.1074 -0.5867 -0.2121
11009TIP3    H132949   0.499   7.830   0.350 -0.4086 -0.7808  0.2558
11009TIP3    H232950   0.463   7.684   0.329  0.0435 -1.1145  1.8088
11010TIP3   OH232951   7.208   4.850   5.291 -0.3725  0.3219 -1.2609
11010TIP3    H132952   7.125   4.877   5.332 -0.4442 -0.2687 -1.0171
11010TIP3    H232953   7.207   4.893   5.205 -1.9743 -1.5003 -2.1779
11011TIP3   OH232954   1.372   5.218   6.128  0.7090 -0.1054  0.4284
11011TIP3    H132955   1.389   5.153   6.196 -1.0056  0.1816  1.1608
11011TIP3    H232956   1.278   5.211   6.111  0.6466  1.6399 -0.0434
11012TIP3   OH232957   2.937   7.833   0.316  0.3246  0.6406 -0.3741
11012TIP3    H132958   3.024   7.873   0.309 -0.1465  1.8630  0.4820
11012TIP3    H232959   2.877   7.906   0.300 -0.5427 -0.1231 -0.5920
11013TIP3   OH232960   8.240   1.205   1.601  0.4903  0.1823 -0.0661
11013TIP3    H132961   8.321   1.243   1.633  0.8526 -1.4925  1.0974
11013TIP3    H232962   8.261   1.113   1.587 -0.9575 -0.0742 -0.6116
11014TIP3   OH232963   0.771   3.207   6.359  0.8385 -0.6646  0.2051
11014TIP3    H132964   0.686   3.191   6.318 -0.3122  0.8021  1.9410
11014TIP3    H232965   0.802   3.288   6.319 -0.1538  0.6129  1.9397
11015TIP3   OH232966   1.627   3.782   7.190  0.1690 -0.3091 -0.8722
11015TIP3    H132967   1.532   3.785   7.191  0.1708 -0.6132 -0.2581
11015TIP3    H232968   1.649   3.717   7.123 -0.0490 -0.1585 -1.0896
11016TIP3   OH232969   6.025   5.527   0.154 -0.0758  0.3255  0.0962
11016TIP3    H132970   6.023   5.498   0.063  0.8344  0.5288  0.0099
11016TIP3    H232971   5.987   5.454   0.203 -1.7001  0.7000 -0.5692
11017TIP3   OH232972   3.882   6.730   0.703  0.7502 -0.2117  0.2938
11017TIP3    H132973   3.936   6.655   0.679  0.7946 -0.4147  1.0013
11017TIP3    H232974   3.858   6.770   0.620 -0.2167 -1.6656 -0.1377
11018TIP3   OH232975   4.084   5.974   0.225 -0.3197  0.0039 -0.5054
11018TIP3    H132976   4.142   6.036   0.182  0.4049 -0.0868  0.3193
11018TIP3    H232977   4.138   5.895   0.235 -0.2593  0.2231  1.1036
11019TIP3   OH232978   1.207   3.617   4.082 -0.0548  0.0865 -0.2683
11019TIP3    H132979   1.146   3.665   4.137 -1.3099 -1.8141  0.0487
11019TIP3    H232980   1.293   3.633   4.121 -0.5935  1.1250  0.4871
11020TIP3   OH232981   1.620   2.353   7.003 -0.0100  0.4930  0.3965
11020TIP3    H132982   1.599   2.429   7.058 -1.0359 -1.6675  3.0901
11020TIP3    H232983   1.701   2.318   7.039  0.7779  0.6056 -1.1996
11021TIP3   OH232984   8.797   0.489   6.819 -0.5245 -0.4594 -0.2358
11021TIP3    H132985   8.724   0.453   6.769 -1.1982 -0.3526  0.6642
11021TIP3    H232986   8.809   0.577   6.783 -1.7532  0.0424  0.5485
11022TIP3   OH232987   6.223   6.685   0.024 -0.2024 -0.5465  0.3860
11022TIP3    H132988   6.298   6.742   0.038 -0.2008 -0.2864 -0.6605
11022TIP3    H232989   6.161   6.710   0.093  0.2327 -0.0339  0.5929
11023TIP3   OH232990   1.541   3.112   6.941  0.0350  0.0385 -0.3884
11023TIP3    H132991   1.520   3.189   6.994  3.6875 -0.4353  1.9499
11023TIP3    H232992   1.583   3.147   6.863  0.3988  0.4574 -0.0043
11024TIP3   OH232993   5.190   5.283   0.173  0.3445 -0.4555 -0.6643
11024TIP3    H132994   5.185   5.289   0.078 -1.2779 -0.1022 -0.5689
11024TIP3    H232995   5.170   5.371   0.205  0.6640 -0.6181  0.0083
11025TIP3   OH232996   0.111   2.060   6.269  0.4744 -0.5004  0.6347
11025TIP3    H132997   0.195   2.052   6.226  0.3876  1.1554  0.0966
11025TIP3    H232998   0.047   2.033   6.203  0.2743  2.9457 -0.6770
11026TIP3   OH232999   5.028   6.930   1.524 -0.4026 -0.5792  0.0693
11026TIP3    H133000   5.089   6.870   1.481  1.0764  1.3096 -0.5306
11026TIP3    H233001   5.074   6.956   1.604  0.1922  1.8760 -1.0236
11027TIP3   OH233002   2.878   7.532   2.226  0.0934  0.1368 -0.3258
11027TIP3    H133003   2.793   7.568   2.200 -0.8764 -0.6492  1.6659
11027TIP3    H233004   2.881   7.543   2.321  2.6653  1.0494 -0.4670
11028TIP3   OH233005   2.433   1.476   6.284  0.2100  0.5200  0.3222
11028TIP3    H133006   2.518   1.433   6.291  0.8356  1.6403 -0.1911
11028TIP3    H233007   2.426   1.498   6.191 -0.2857  1.1261  0.5003
11029TIP3   OH233008   3.644   6.955   0.871 -0.4374  0.0179 -0.2237
11029TIP3    H133009   3.724   6.902   0.875 -1.1833 -1.2341 -1.2801
11029TIP3    H233010   3.665   7.035   0.920  1.3658 -0.4056 -0.2747
11030TIP3   OH233011   4.931   5.084   0.135 -0.3348 -0.3808  0.4050
11030TIP3    H133012   4.965   5.118   0.052 -0.2438 -0.2278  0.5059
11030TIP3    H233013   4.993   5.016   0.160 -0.1206 -0.1247  0.5711
11031TIP3   OH233014   0.967   2.282   7.026  0.0386 -0.3849 -0.2937
11031TIP3    H133015   0.900   2.346   7.002 -1.3006 -1.2787  0.9721
11031TIP3    H233016   1.038   2.334   7.063 -0.4230  0.4891 -0.6324
11032TIP3   OH233017   6.830   8.375   0.590  0.1584 -0.0435  0.9629
11032TIP3    H133018   6.837   8.287   0.626 -0.6282 -0.8465 -0.7912
11032TIP3    H233019   6.743   8.405   0.614  0.1785 -0.0079  0.9905
11033TIP3   OH233020   6.998   0.588   1.865  0.0845 -0.0604 -0.2834
11033TIP3    H133021   7.066   0.603   1.931  0.2628  0.2294 -0.5333
11033TIP3    H233022   7.028   0.636   1.788 -2.0995  2.9664  0.6727
11034TIP3   OH233023   6.984   0.703   0.953 -0.2717  0.3848 -0.3899
11034TIP3    H133024   6.906   0.758   0.961  0.9068  2.2004 -0.9200
11034TIP3    H233025   7.022   0.728   0.868 -0.2278 -1.9576 -1.0859
11035TIP3   OH233026   8.875   1.490   6.471  0.6091 -0.1380 -0.0290
11035TIP3    H133027   8.865   1.395   6.479 -0.4816 -0.0647 -0.3754
11035TIP3    H233028   8.959   1.502   6.427  1.0197 -0.9193  0.5188
11036TIP3   OH233029   3.020   7.265   0.283 -0.0468 -0.2117 -0.3926
11036TIP3    H133030   2.931   7.235   0.265  0.0134 -1.2033  0.9230
11036TIP3    H233031   3.010   7.331   0.352  0.2068  0.0022 -0.5558
11037TIP3   OH233032   1.073   2.814   6.414 -0.5301 -0.4910 -0.1441
11037TIP3    H133033   1.024   2.874   6.470  1.0991  0.8613 -0.1251
11037TIP3    H233034   1.018   2.803   6.336 -1.3691  0.1180  0.3595
11038TIP3   OH233035   3.708   7.112   0.494 -0.1600 -0.0050 -0.3466
11038TIP3    H133036   3.674   7.176   0.556 -0.0759 -0.8917  0.6081
11038TIP3    H233037   3.684   7.148   0.408 -1.7038  0.3840  0.2400
11039TIP3   OH233038   1.161   3.147   7.199  0.6813  0.1950  0.8158
11039TIP3    H133039   1.186   3.212   7.264  0.9543 -0.8805  1.8003
11039TIP3    H233040   1.241   3.096   7.183  0.2105 -0.5763  0.8625
11040TIP3   OH233041   3.037   4.655   5.928  0.2441  0.5478  0.0407
11040TIP3    H133042   3.030   4.560   5.934  2.4151  0.3204 -0.5129
11040TIP3    H233043   3.091   4.670   5.851 -0.0078  2.2315  0.1764
11041TIP3   OH233044   8.102   2.055   6.898 -0.8508 -0.6538 -0.0464
11041TIP3    H133045   8.075   1.969   6.867  1.9751 -1.9143  0.8191
11041TIP3    H233046   8.121   2.104   6.818  0.5084 -1.8746 -0.4947
11042TIP3   OH233047   4.098   5.972   1.609  0.8522  0.6475 -0.2609
11042TIP3    H133048   4.061   5.909   1.671  1.0958  1.7579  1.0384
11042TIP3    H233049   4.168   5.923   1.564 -2.1857 -1.5195 -2.8464
11043TIP3   OH233050   7.246   6.300   0.274  0.2968  0.2985 -0.8455
11043TIP3    H133051   7.262   6.216   0.231 -2.6627 -0.0915 -1.3370
11043TIP3    H233052   7.211   6.276   0.360  0.4234  1.0296 -0.5878
11044TIP3   OH233053   4.607   5.941   1.241 -0.2951 -0.0337 -0.3468
11044TIP3    H133054   4.577   6.020   1.198 -0.8921 -0.6142 -1.0030
11044TIP3    H233055   4.568   5.945   1.329  1.3066  1.3753  0.3117
11045TIP3   OH233056   5.858   7.951   0.882  0.0135  0.0788 -1.4477
11045TIP3    H133057   5.896   7.944   0.794 -0.6639  2.2499 -1.9510
11045TIP3    H233058   5.913   8.014   0.927  0.7876 -1.5631 -0.0278
11046TIP3   OH233059   2.400   1.684   7.011 -0.5905  0.3211  0.3568
11046TIP3    H133060   2.362   1.751   6.954 -0.7461 -0.6637 -0.7009
11046TIP3    H233061   2.405   1.606   6.957 -0.0331 -0.4270  1.4679
11047TIP3   OH233062   1.298   2.124   6.520 -0.1739 -0.5677 -0.2949
11047TIP3    H133063   1.230   2.092   6.460 -1.0746 -0.3021  0.5739
11047TIP3    H233064   1.250   2.174   6.586  0.8239 -0.8216  0.6309
11048TIP3   OH233065   2.714   5.418   3.249 -0.3231 -0.1212 -0.1133
11048TIP3    H133066   2.747   5.411   3.159 -0.2752 -0.4957 -0.0687
11048TIP3    H233067   2.671   5.503   3.252 -1.0545 -0.4658 -0.7343
11049TIP3   OH233068   4.609   6.521   1.234 -0.0511 -0.4301 -0.2342
11049TIP3    H133069   4.523   6.555   1.209  0.0256  0.2472  0.3892
11049TIP3    H233070   4.589   6.445   1.288 -0.2780 -0.0490  0.2323
11050TIP3   OH233071   7.361   3.056   4.845  0.0333 -0.1126 -0.4725
11050TIP3    H133072   7.369   3.010   4.761  0.4006  2.4897 -1.9048
11050TIP3    H233073   7.290   3.119   4.831  0.2633  0.5085  1.1073
11051TIP3   OH233074   2.747   4.984   0.592  0.3839  0.5898 -0.0652
11051TIP3    H133075   2.764   4.903   0.545  1.7407  1.0604 -0.3928
11051TIP3    H233076   2.693   4.957   0.667 -1.0212 -0.2833 -1.3685
11052TIP3   OH233077   0.164   1.745   6.779  0.3227  0.0014 -0.1434
11052TIP3    H133078   0.252   1.715   6.754  0.3732  0.3788 -0.4151
11052TIP3    H233079   0.129   1.785   6.700 -0.5446 -1.1652 -0.3547
11053TIP3   OH233080   5.161   8.318   0.169 -0.4414 -0.0915  0.1155
11053TIP3    H133081   5.069   8.291   0.174  0.1687 -2.3305 -0.1411
11053TIP3    H233082   5.158   8.413   0.178 -3.1123  0.3390 -3.9182
11054TIP3   OH233083   8.110   3.945   5.839 -0.0841  0.4753 -0.0633
11054TIP3    H133084   8.042   4.013   5.837 -1.0653 -0.4965  0.0254
11054TIP3    H233085   8.165   3.965   5.763 -2.1382 -0.4222 -1.8452
11055TIP3   OH233086   1.516   3.813   4.646 -0.1199  0.0450 -0.2601
11055TIP3    H133087   1.567   3.736   4.672  1.5767  0.7625 -1.3747
11055TIP3    H233088   1.431   3.778   4.619  0.1923 -1.2928  0.4495
11056TIP3   OH233089   3.096   2.818   6.960  0.1898  0.4477 -0.0568
11056TIP3    H133090   3.061   2.806   6.871  0.3767  0.9356 -0.1955
11056TIP3    H233091   3.071   2.907   6.984  0.0704  0.2883  0.4157
11057TIP3   OH233092   8.325   0.863   0.229  0.1549 -0.2553  0.1669
11057TIP3    H133093   8.277   0.874   0.147  1.4484 -1.8468 -0.8503
11057TIP3    H233094   8.279   0.918   0.292 -0.9321  0.9008 -1.5958
11058TIP3   OH233095   8.719   1.124   1.563  0.4018  0.3105  0.3725
11058TIP3    H133096   8.744   1.205   1.608  0.1641  0.4401  0.2720
11058TIP3    H233097   8.744   1.139   1.472  1.0680 -0.0291  0.4946
11059TIP3   OH233098   1.253   0.749   0.108  0.1697 -0.1661 -0.1179
11059TIP3    H133099   1.176   0.784   0.064  0.2780 -0.8799 -0.8997
11059TIP3    H233100   1.273   0.813   0.177 -1.0851  0.0349  0.0635
11060TIP3   OH233101   6.312   6.735   0.775 -0.4448  0.0852 -0.2600
11060TIP3    H133102   6.300   6.663   0.837  1.3724  0.2454  0.2925
11060TIP3    H233103   6.406   6.738   0.759 -0.4020  2.7926  0.2661
11061TIP3   OH233104   1.299   3.382   6.881 -0.1372  0.0300 -0.1300
11061TIP3    H133105   1.334   3.469   6.902 -1.6825  1.0456 -1.6290
11061TIP3    H233106   1.349   3.355   6.804  1.8560 -1.3990  1.6010
11062TIP3   OH233107   3.048   4.242   6.363 -0.1000  0.5566 -0.8302
11062TIP3    H133108   3.087   4.317   6.318  1.4645  0.1677 -0.1475
11062TIP3    H233109   2.971   4.220   6.310 -1.0242  3.1009 -0.6428
11063TIP3   OH233110   1.129   1.101   6.914 -0.4534 -0.0787 -0.1440
11063TIP3    H133111   1.044   1.064   6.889 -0.4955  1.4298 -2.3530
11063TIP3    H233112   1.106   1.182   6.959 -0.1947  0.1941 -0.5063
11064TIP3   OH233113   0.603   4.049   6.938 -0.2962  0.1909  0.0479
11064TIP3    H133114   0.520   4.058   6.891  0.1468  1.2005 -0.5429
11064TIP3    H233115   0.600   4.116   7.005 -1.3442 -1.8613  2.1314
11065TIP3   OH233116   8.049   7.487   0.149  0.2423  0.2109  0.5876
11065TIP3    H133117   8.089   7.574   0.146 -1.7143  1.0937 -0.7309
11065TIP3    H233118   8.069   7.455   0.237  2.1534  1.4186  0.6171
11066TIP3   OH233119   3.181   3.062   5.028  0.1175  0.0211  0.3137
11066TIP3    H133120   3.172   3.030   4.938  0.7831  0.7555 -0.0192
11066TIP3    H233121   3.115   3.131   5.036  0.4369  0.3465  0.1984
11067TIP3   OH233122   5.244   7.167   0.813  0.0774 -0.3929 -0.1577
11067TIP3    H133123   5.277   7.143   0.900 -1.9994  1.4548  1.2137
11067TIP3    H233124   5.149   7.167   0.823 -0.1806  0.2817 -2.3320
11068TIP3   OH233125   6.855   1.761   6.465  0.0427  0.3473  0.2087
11068TIP3    H133126   6.878   1.747   6.556 -0.9708 -3.5846 -0.0524
11068TIP3    H233127   6.938   1.755   6.418  0.1679 -0.8372  0.5689
11069TIP3   OH233128   6.414   8.186   2.284  0.6141 -0.0465  0.7782
11069TIP3    H133129   6.414   8.091   2.276 -2.9340  0.0644 -1.4255
11069TIP3    H233130   6.361   8.203   2.362  0.5966  0.1625  0.7200
11070TIP3   OH233131   4.968   8.043  -0.003 -0.1055 -0.2500 -0.6553
11070TIP3    H133132   4.967   8.116   0.060  2.0764 -1.3136  0.6828
11070TIP3    H233133   4.917   7.974   0.040  1.0061 -0.8190 -0.2274
11071TIP3   OH233134   4.228   2.834   6.331 -0.0714  0.6432 -0.2786
11071TIP3    H133135   4.275   2.911   6.363  1.6627  0.1378 -1.5189
11071TIP3    H233136   4.146   2.869   6.297  0.0601  1.7517  0.4961
11072TIP3   OH233137   5.966   6.545   0.206 -0.3286 -0.7755 -0.4433
11072TIP3    H133138   5.898   6.542   0.138  0.4549 -1.1089 -1.2228
11072TIP3    H233139   5.917   6.543   0.288 -1.4896  2.6790 -0.9439
11073TIP3   OH233140   3.516   1.956   5.389  0.4459  0.3427 -0.9236
11073TIP3    H133141   3.464   1.875   5.390  1.0318 -0.0245  0.3641
11073TIP3    H233142   3.463   2.019   5.436 -0.1698  0.8265 -2.2367
11074TIP3   OH233143   2.516   5.432   6.943  0.0181 -0.5169  0.1549
11074TIP3    H133144   2.435   5.381   6.951 -0.5021  0.3312  0.3835
11074TIP3    H233145   2.486   5.520   6.918  1.0321 -0.9586 -2.8964
11075TIP3   OH233146   4.456   3.018   7.175  0.2648  0.2384 -0.4898
11075TIP3    H133147   4.503   3.005   7.092  1.2472  1.1303 -0.0990
11075TIP3    H233148   4.428   2.931   7.201  0.9920 -0.2091 -1.1736
11076TIP3   OH233149   5.988   7.123   0.692  0.5178  1.0439  0.0537
11076TIP3    H133150   5.949   7.048   0.648  1.3946 -0.2795  1.5118
11076TIP3    H233151   5.945   7.126   0.778  0.5011  2.1954  0.0160
11077TIP3   OH233152   5.315   7.003   0.160  0.5036  0.2134 -0.1751
11077TIP3    H133153   5.257   6.937   0.125  0.6720  0.4037 -0.8103
11077TIP3    H233154   5.402   6.962   0.159  0.2571 -0.4091  1.6340
11078TIP3   OH233155   2.434   3.297   5.196 -0.6873  0.2533  0.0256
11078TIP3    H133156   2.473   3.333   5.115 -2.1347 -0.4096 -0.9810
11078TIP3    H233157   2.340   3.300   5.180 -0.9198 -1.5714  0.9830
11079TIP3   OH233158   1.326   0.967   0.280 -0.2121 -0.4933 -0.0690
11079TIP3    H133159   1.247   1.020   0.280  0.3022  0.3407 -2.0048
11079TIP3    H233160   1.398   1.031   0.283  0.3959 -1.1477 -0.4906
11080TIP3   OH233161   3.685   2.518   7.234 -0.2930  0.3789  0.4613
11080TIP3    H133162   3.679   2.423   7.231  1.3040  0.2765  0.0884
11080TIP3    H233163   3.671   2.546   7.143  0.4391  0.4109  0.3534
11081TIP3   OH233164   7.220   5.626   0.670  0.0809  0.1649 -0.4141
11081TIP3    H133165   7.137   5.652   0.710  0.1207 -0.0481 -0.1978
11081TIP3    H233166   7.283   5.627   0.742  0.3729  0.8217 -0.6752
11082TIP3   OH233167   2.928   4.787   7.187 -0.7565  0.4852  0.5322
11082TIP3    H133168   2.987   4.771   7.114 -0.4089 -1.6131  1.2443
11082TIP3    H233169   2.856   4.837   7.149  0.9502  2.1855 -0.5514
11083TIP3   OH233170   3.723   2.326   5.259 -0.2767  0.3833  0.0812
11083TIP3    H133171   3.627   2.321   5.257 -0.2342 -0.1090 -0.9651
11083TIP3    H233172   3.750   2.251   5.313 -0.5100  1.0723  1.1803
11084TIP3   OH233173   4.371   2.094   7.176 -0.4638  0.2442 -0.0253
11084TIP3    H133174   4.458   2.091   7.217  0.8918 -1.1486 -2.8904
11084TIP3    H233175   4.383   2.149   7.099 -2.3090  0.5573 -0.0996
11085TIP3   OH233176   5.905   5.315   0.326 -0.0999 -0.2937  0.3860
11085TIP3    H133177   5.959   5.346   0.398  1.0038 -0.9818 -0.1404
11085TIP3    H233178   5.819   5.355   0.342  1.3298  3.2950 -0.4160
11086TIP3   OH233179   2.702   3.561   5.203  0.3023  0.2147  0.2615
11086TIP3    H133180   2.660   3.633   5.156  0.5226  0.8319  1.0036
11086TIP3    H233181   2.792   3.589   5.214  0.6871 -0.7079 -0.5154
11087TIP3   OH233182   4.232   3.030   5.126  0.2825  0.5450 -0.3426
11087TIP3    H133183   4.223   3.043   5.221  2.3398  2.7387 -0.4111
11087TIP3    H233184   4.315   2.984   5.116  1.3557  2.6098 -1.2135
11088TIP3   OH233185   7.292   8.002   0.466  0.1516 -0.1838 -0.1101
11088TIP3    H133186   7.358   7.934   0.480 -0.0352 -0.9740 -2.8358
11088TIP3    H233187   7.340   8.073   0.422  0.0246  0.8931  1.4377
11089TIP3   OH233188   8.108   6.078   0.912 -0.0001 -0.3432 -0.1659
11089TIP3    H133189   8.172   6.147   0.895  0.6459 -1.2092 -1.3104
11089TIP3    H233190   8.119   6.058   1.004  0.0896  0.7967  0.0869
11090TIP3   OH233191   0.504   4.757   6.213  0.2250 -0.7202  0.0640
11090TIP3    H133192   0.487   4.716   6.128 -0.6754 -1.5063  0.6124
11090TIP3    H233193   0.417   4.776   6.249  0.6212  1.1213  0.0976
11091TIP3   OH233194   1.196   2.387   0.077  0.3901  0.0400 -0.0734
11091TIP3    H133195   1.130   2.455   0.089 -0.1170 -0.5765  0.6954
11091TIP3    H233196   1.146   2.305   0.080  1.3165 -0.4851  1.6502
11092TIP3   OH233197   3.826   3.625   5.450  0.5417 -0.4832 -0.3577
11092TIP3    H133198   3.779   3.661   5.525  1.6957 -2.2955  1.2570
11092TIP3    H233199   3.766   3.562   5.412  0.5479 -0.6766 -0.0447
11093TIP3   OH233200   3.552   3.093   6.022 -0.3651  1.1560 -0.2791
11093TIP3    H133201   3.470   3.143   6.022 -1.1183 -0.0568 -0.2542
11093TIP3    H233202   3.524   3.002   6.015  1.0701  0.8598 -2.5957
11094TIP3   OH233203   3.290   3.960   6.419  0.6766  0.2012 -0.1638
11094TIP3    H133204   3.338   3.880   6.436 -1.7679 -1.0543  1.0802
11094TIP3    H233205   3.200   3.931   6.403  0.0105  2.5826 -1.0000
11095TIP3   OH233206   4.539   2.978   5.368  0.8192  0.2383  0.2270
11095TIP3    H133207   4.620   3.028   5.362 -0.3154  2.1149  0.1511
11095TIP3    H233208   4.531   2.935   5.283  1.6493  0.1668  0.1835
11096TIP3   OH233209   3.022   2.389   5.880 -0.0040  0.1328  0.5316
11096TIP3    H133210   3.050   2.430   5.798 -1.1531  1.6219  0.8578
11096TIP3    H233211   2.941   2.343   5.858  1.3121 -2.1022  0.1519
11097TIP3   OH233212   5.445   3.487   5.327  0.2538 -0.3390 -0.7164
11097TIP3    H133213   5.352   3.499   5.312  0.1793  1.6196  1.0854
11097TIP3    H233214   5.460   3.520   5.416  2.8490  0.4285 -1.3801
11098TIP3   OH233215   0.069   1.013   0.828  0.3428 -0.1098 -0.2511
11098TIP3    H133216  -0.020   1.009   0.863  1.3939 -3.0312  2.2970
11098TIP3    H233217   0.058   1.029   0.734 -2.8735 -1.4602 -0.1451
11099TIP3   OH233218   4.194   2.007   5.888 -0.0256  0.0967  0.1743
11099TIP3    H133219   4.210   1.931   5.945  0.4939  0.7893  0.9660
11099TIP3    H233220   4.235   2.080   5.934 -1.3989  1.0525 -0.1000
11100TIP3   OH233221   0.692   1.882   5.465 -0.0079 -0.3119 -0.2179
11100TIP3    H133222   0.734   1.886   5.379  0.3061  1.9358  0.0239
11100TIP3    H233223   0.623   1.948   5.461  1.0489  0.9449  1.8043
11101TIP3   OH233224   4.772   2.362   7.083  0.5210  0.2366 -0.6404
11101TIP3    H133225   4.736   2.426   7.022  1.9754  2.1489  0.4642
11101TIP3    H233226   4.715   2.366   7.159  0.8769  0.5710 -0.3875
11102TIP3   OH233227   6.296   7.949  -0.026  0.4138 -0.0665  0.6427
11102TIP3    H133228   6.344   8.024   0.010 -3.2086  2.6049  0.1331
11102TIP3    H233229   6.222   7.937   0.033  1.4067 -3.9579  1.2701
11103TIP3   OH233230   4.430   7.050   0.797 -0.6368 -0.2214  0.3538
11103TIP3    H133231   4.418   7.078   0.707 -1.6853 -0.2335  0.4816
11103TIP3    H233232   4.479   7.121   0.838 -1.5553  0.5294  0.1736
11104TIP3   OH233233   0.050   1.941   1.437  0.5435  0.1695 -0.2871
11104TIP3    H133234   0.084   1.853   1.417  0.4590  0.2925 -0.9825
11104TIP3    H233235   0.108   1.974   1.506  0.9467 -0.1924 -0.4508
11105TIP3   OH233236   8.297   6.682   1.440  0.4422 -0.6828 -0.1360
11105TIP3    H133237   8.275   6.738   1.366 -2.2044  1.3549  2.0709
11105TIP3    H233238   8.218   6.631   1.456  0.1680  0.5310  2.6196
11106TIP3   OH233239   1.264   3.829   5.932  0.1450  0.2169 -0.6344
11106TIP3    H133240   1.255   3.760   5.998 -3.5124  3.8879  3.0267
11106TIP3    H233241   1.206   3.801   5.861  0.5357 -1.6049 -0.2647
11107TIP3   OH233242   6.021   8.277   0.057  0.2563  0.0503  0.3810
11107TIP3    H133243   5.999   8.240   0.143 -3.9796  1.0030 -0.1517
11107TIP3    H233244   6.084   8.345   0.075 -1.9308  1.4729  3.0572
11108TIP3   OH233245   6.730   7.212   1.243  0.3313 -0.2916  0.2582
11108TIP3    H133246   6.782   7.246   1.316  0.9913  1.0858 -0.8211
11108TIP3    H233247   6.703   7.290   1.195  0.6667 -1.2125 -1.4746
11109TIP3   OH233248   5.682   5.560   0.295 -0.0601 -0.5676  0.6780
11109TIP3    H133249   5.715   5.626   0.234 -1.0821  1.5628  2.3218
11109TIP3    H233250   5.617   5.511   0.244 -0.8263  1.1038 -0.0000
11110TIP3   OH233251   3.034   1.907   5.846 -0.6859  0.2065 -0.5566
11110TIP3    H133252   2.951   1.954   5.854 -1.4969 -1.5801  3.0557
11110TIP3    H233253   3.009   1.815   5.854  1.6183 -0.3641  0.4687
11111TIP3   OH233254   3.055   4.093   6.617  0.3815 -0.0806  0.2832
11111TIP3    H133255   3.048   4.137   6.532 -0.6992  0.0214  0.4204
11111TIP3    H233256   3.104   4.154   6.672  0.1704  0.3063  0.0406
11112TIP3   OH233257   5.252   5.562   0.492  0.2750  0.4858  0.1387
11112TIP3    H133258   5.295   5.576   0.576  1.6740  1.1893 -0.6737
11112TIP3    H233259   5.159   5.554   0.513  0.2085  4.0000  1.3850
11113TIP3   OH233260   4.773   2.784   7.140 -0.1813 -0.1565  0.2736
11113TIP3    H133261   4.868   2.787   7.156 -0.2444 -1.0441  0.8556
11113TIP3    H233262   4.734   2.800   7.226 -0.6076  3.0385 -0.4611
11114TIP3   OH233263   6.380   7.673   0.510 -0.1265  0.1327 -0.7706
11114TIP3    H133264   6.444   7.689   0.580  0.3098  1.5244 -1.4830
11114TIP3    H233265   6.310   7.624   0.553  0.0001  1.2166  0.6984
11115TIP3   OH233266   1.998   2.555   6.346  0.2618  0.0924 -0.1049
11115TIP3    H133267   2.006   2.649   6.365 -1.0823 -0.1122  1.6039
11115TIP3    H233268   2.084   2.519   6.368  0.3135  0.6956  0.7356
11116TIP3   OH233269   3.068   3.559   5.909  0.2447  0.3264  0.0505
11116TIP3    H133270   3.029   3.584   5.993  1.8876  3.1543  0.0461
11116TIP3    H233271   2.994   3.532   5.856 -1.1675  1.1822  1.5180
11117TIP3   OH233272   3.083   5.490   6.380 -0.4280 -0.7584 -0.0486
11117TIP3    H133273   3.026   5.542   6.436  0.5859 -0.9230  1.1552
11117TIP3    H233274   3.097   5.544   6.303 -1.8584 -0.5365 -0.1612
11118TIP3   OH233275   1.213   2.706   4.820  0.2784 -0.5966 -0.4616
11118TIP3    H133276   1.125   2.738   4.801  1.1910  0.9485 -2.1811
11118TIP3    H233277   1.254   2.693   4.735  2.5966  1.2494  0.3031
11119TIP3   OH233278   2.058   1.837   5.341 -0.5272 -0.3472  0.4034
11119TIP3    H133279   1.983   1.805   5.291  0.1215 -1.3773  0.0905
11119TIP3    H233280   2.097   1.759   5.379  0.8793  0.0938 -0.1151
11120TIP3   OH233281   0.937   0.632   1.136 -0.0699  0.0053 -0.1537
11120TIP3    H133282   0.894   0.550   1.111 -0.9953  0.8318 -1.3551
11120TIP3    H233283   0.976   0.614   1.221 -1.1972 -1.3526  0.0896
11121TIP3   OH233284   3.121   3.344   6.116 -0.2259 -0.2099 -0.2290
11121TIP3    H133285   3.120   3.430   6.074 -0.1659 -0.3919 -0.6031
11121TIP3    H233286   3.195   3.299   6.077  0.8195  0.2015  1.2500
11122TIP3   OH233287   6.222   6.554   1.769  0.7391 -0.1203 -0.2832
11122TIP3    H133288   6.268   6.622   1.818  1.6672 -1.2176  0.4193
11122TIP3    H233289   6.220   6.586   1.679  2.0466  0.3818 -0.1453
11123TIP3   OH233290   0.475   2.162   7.076 -0.0195  0.0062 -0.1517
11123TIP3    H133291   0.569   2.178   7.063  0.1671  0.9500  2.1197
11123TIP3    H233292   0.432   2.239   7.039  0.1991  0.4001  0.4200
11124TIP3   OH233293   4.601   4.768   1.140 -0.3377 -0.3684 -0.0373
11124TIP3    H133294   4.647   4.720   1.070  0.6414  1.1403 -0.4533
11124TIP3    H233295   4.555   4.838   1.094 -0.2052  0.2454  0.7606
11125TIP3   OH233296   4.783   7.792   1.178  0.4068  0.2808 -0.1577
11125TIP3    H133297   4.735   7.742   1.244 -1.3078  1.5488 -0.4054
11125TIP3    H233298   4.874   7.789   1.207 -0.3453  0.9930  2.4134
11126TIP3   OH233299   3.020   0.000   0.800  0.0470 -0.3003 -0.2406
11126TIP3    H133300   3.066   0.077   0.834 -0.0662  0.0813 -0.9365
11126TIP3    H233301   3.049  -0.006   0.709 -1.2019 -0.1118 -0.6568
11127TIP3   OH233302   2.552   3.301   5.635 -0.3673  0.0826  0.1585
11127TIP3    H133303   2.539   3.359   5.560  2.3195 -1.6465 -1.7480
11127TIP3    H233304   2.637   3.327   5.670 -1.0366  0.0390  1.8555
11128TIP3   OH233305   3.970   0.907   6.828  0.0888  0.3602 -0.7044
11128TIP3    H133306   3.882   0.884   6.798  0.9530 -2.7061 -1.1233
11128TIP3    H233307   3.962   0.913   6.923 -0.4290 -0.7433 -0.6676
11129TIP3   OH233308   3.975   4.756   2.010 -0.1873 -0.6105 -0.2141
11129TIP3    H133309   3.916   4.686   2.041  0.4149 -0.5543  1.0825
11129TIP3    H233310   3.990   4.810   2.087 -1.0754  1.2880 -1.3370
11130TIP3   OH233311   6.001   8.210   0.708 -0.1033 -0.0958  0.0165
11130TIP3    H133312   5.963   8.136   0.660  0.8918  0.2859 -1.3932
11130TIP3    H233313   5.985   8.189   0.800  1.1614 -2.6702 -0.2819
11131TIP3   OH233314   2.832   3.534   6.641 -0.2659 -0.4038 -0.1645
11131TIP3    H133315   2.751   3.492   6.611 -0.8887 -0.6214  1.7472
11131TIP3    H233316   2.816   3.628   6.629 -0.2795 -0.5140 -1.0355
11132TIP3   OH233317   7.931   7.182   1.531  0.2645  0.2886 -0.2738
11132TIP3    H133318   7.908   7.130   1.608  0.6443 -2.0242 -1.6607
11132TIP3    H233319   8.011   7.228   1.556  1.0761 -1.3986  0.2993
11133TIP3   OH233320   7.784   8.007   1.357  0.4042  0.0467  0.6155
11133TIP3    H133321   7.709   8.024   1.413  0.2305 -0.6918  0.6230
11133TIP3    H233322   7.849   7.968   1.416  0.4532 -0.1510  0.4325
11134TIP3   OH233323   2.384   2.649   6.309  0.7670 -0.0661 -0.0467
11134TIP3    H133324   2.454   2.583   6.305 -0.5086 -1.5887  1.7854
11134TIP3    H233325   2.410   2.707   6.380  0.8761  0.2215 -0.3206
11135TIP3   OH233326   4.779   0.361   6.739 -0.3774  0.1892  0.1147
11135TIP3    H133327   4.835   0.401   6.806 -1.3484 -0.9845  1.6684
11135TIP3    H233328   4.709   0.319   6.789 -0.2705 -2.0463 -1.5514
11136TIP3   OH233329   1.633   2.119   5.903  0.3148 -0.4188  0.2861
11136TIP3    H133330   1.644   2.083   5.815 -0.4592  0.7820 -0.3191
11136TIP3    H233331   1.722   2.136   5.934  0.5527  0.4242 -0.8192
11137TIP3   OH233332   8.579   0.401   0.164  0.0331 -0.2852 -0.0574
11137TIP3    H133333   8.508   0.446   0.209  0.2314 -0.1520  0.1213
11137TIP3    H233334   8.535   0.333   0.112 -0.2206 -0.2214  0.0732
11138TIP3   OH233335   0.393   1.689   5.737  0.6180 -0.2860  0.5082
11138TIP3    H133336   0.469   1.661   5.688 -0.4135 -2.8892  0.3429
11138TIP3    H233337   0.390   1.784   5.724  1.5145 -0.6437 -2.7893
11139TIP3   OH233338   1.580   1.612   5.727 -0.2975  0.0839 -0.2146
11139TIP3    H133339   1.654   1.651   5.679 -0.4448 -0.0966 -0.5883
11139TIP3    H233340   1.582   1.655   5.813 -0.8044  1.3337 -0.8226
11140TIP3   OH233341   7.264   7.198   1.289 -0.7836 -0.1242  0.1698
11140TIP3    H133342   7.234   7.174   1.376 -0.3283 -3.0273 -0.4142
11140TIP3    H233343   7.189   7.179   1.232 -0.1486 -1.0042 -0.4042
11141TIP3   OH233344   2.804   4.968   5.740  0.1574  0.6482  0.2644
11141TIP3    H133345   2.897   4.986   5.747  0.0947  0.6359  1.1944
11141TIP3    H233346   2.770   5.040   5.687  0.6265  0.8649  0.2556
11142TIP3   OH233347   1.723   3.563   6.544 -0.5878 -0.2764 -0.0452
11142TIP3    H133348   1.765   3.647   6.562 -0.8063  0.2056 -1.7395
11142TIP3    H233349   1.630   3.580   6.558 -0.7831  0.1640 -1.8187
11143TIP3   OH233350   4.976   2.207   6.976 -0.9343  0.6916  0.0156
11143TIP3    H133351   4.927   2.170   6.903 -0.7236 -1.2389  0.8102
11143TIP3    H233352   4.920   2.276   7.011 -1.4359  0.9969 -1.3761
11144TIP3   OH233353   5.692   8.301   0.688  0.1589  0.2524  0.0654
11144TIP3    H133354   5.754   8.343   0.629 -0.9191  1.2923 -0.3484
11144TIP3    H233355   5.714   8.336   0.774 -0.3349  1.2062 -0.1891
11145TIP3   OH233356   4.218   5.591   5.980  0.7567 -0.5624  0.7342
11145TIP3    H133357   4.228   5.620   5.890 -0.6253  0.0275  0.7634
11145TIP3    H233358   4.291   5.632   6.027  1.8353 -1.3555 -0.2037
11146TIP3   OH233359   7.285   5.873   1.439 -0.2969  0.6417  0.3671
11146TIP3    H133360   7.251   5.857   1.351 -1.2420 -0.1953  0.8611
11146TIP3    H233361   7.276   5.789   1.483  3.3259  0.1485  0.2674
11147TIP3   OH233362   2.279   2.570   7.277 -0.1391  0.4194  0.0816
11147TIP3    H133363   2.210   2.533   7.331  0.9798 -2.4016 -0.3396
11147TIP3    H233364   2.244   2.568   7.188  1.5373 -3.9939 -0.6089
11148TIP3   OH233365   7.852   6.174   1.441  0.1553  0.1132 -0.2986
11148TIP3    H133366   7.784   6.164   1.508  1.2412 -1.0343  0.6509
11148TIP3    H233367   7.803   6.183   1.359 -1.1592 -0.1045  0.4407
11149TIP3   OH233368   5.012   2.625   3.843 -0.2047 -0.1469  0.4122
11149TIP3    H133369   4.917   2.616   3.855 -0.2618 -0.0328  0.0614
11149TIP3    H233370   5.046   2.640   3.931 -0.4956 -0.3523  0.5615
11150TIP3   OH233371   6.278   7.860   1.982  0.7395  0.1630  0.2417
11150TIP3    H133372   6.326   7.795   1.931 -2.5059 -1.1904 -1.2049
11150TIP3    H233373   6.267   7.935   1.923 -0.8311 -0.4198 -0.2334
11151TIP3   OH233374   1.192   4.153   5.645  0.4034 -0.5119 -0.4938
11151TIP3    H133375   1.264   4.091   5.663  0.1507 -0.7818 -0.4047
11151TIP3    H233376   1.119   4.121   5.698  0.5386  0.3859  0.2303
11152TIP3   OH233377   1.401   4.071   3.743  0.6575 -0.3503 -0.1403
11152TIP3    H133378   1.419   4.149   3.795 -0.1656  0.0564 -0.4576
11152TIP3    H233379   1.447   4.001   3.788  0.2799  0.0714  0.9124
11153TIP3   OH233380   2.250   4.026   6.955 -0.1674  0.1614  0.1496
11153TIP3    H133381   2.324   4.087   6.950 -0.7069  0.8234  0.0445
11153TIP3    H233382   2.238   4.010   7.048 -0.2359  0.4883  0.1978
11154TIP3   OH233383   8.005   8.249   1.092 -0.1867  0.2632 -0.0493
11154TIP3    H133384   7.940   8.216   1.154 -0.4364 -0.0127 -0.4595
11154TIP3    H233385   8.089   8.238   1.137 -0.4010  0.4091  0.3861
11155TIP3   OH233386   7.727   0.794   1.307 -0.4967  0.0528  0.2324
11155TIP3    H133387   7.631   0.796   1.298 -0.6621 -2.2465  1.2335
11155TIP3    H233388   7.743   0.806   1.400  0.0935 -1.3199  0.3249
11156TIP3   OH233389   1.399   1.873   5.306 -0.4012 -0.2598  0.6760
11156TIP3    H133390   1.352   1.957   5.305 -1.9838 -1.1240  0.8398
11156TIP3    H233391   1.363   1.825   5.232  0.1529 -0.9813  0.8770
11157TIP3   OH233392   4.578   1.643   5.346 -0.0554  0.1468  0.5149
11157TIP3    H133393   4.543   1.565   5.388  0.9951 -0.8599 -0.4375
11157TIP3    H233394   4.611   1.612   5.261 -1.1551  1.9270 -0.5908
11158TIP3   OH233395   6.790   7.963   0.322 -0.2504  0.6615  0.0372
11158TIP3    H133396   6.854   7.950   0.252 -1.1245 -0.2477 -0.6087
11158TIP3    H233397   6.821   7.908   0.394  0.3049  1.1020  0.1358
11159TIP3   OH233398   2.277   4.320   6.654  0.1857  0.2766  1.1177
11159TIP3    H133399   2.238   4.323   6.741 -0.3517 -0.2695  0.8965
11159TIP3    H233400   2.203   4.326   6.593 -0.0472 -4.7943  0.6563
11160TIP3   OH233401   4.938   6.628   1.215 -0.5123  0.0603 -0.0506
11160TIP3    H133402   4.924   6.722   1.207  0.6390  0.2582  0.1022
11160TIP3    H233403   4.930   6.595   1.125  0.3341  0.4952 -0.2937
11161TIP3   OH233404   5.678   7.108   0.225 -0.5124  0.0858 -0.2974
11161TIP3    H133405   5.639   7.135   0.308 -1.0689 -2.5987  0.3572
11161TIP3    H233406   5.639   7.023   0.206  2.1521 -0.9184 -1.5905
11162TIP3   OH233407   6.615   5.167   1.095 -0.0948  0.1061 -0.4209
11162TIP3    H133408   6.603   5.096   1.159 -1.1556 -0.4851 -1.2526
11162TIP3    H233409   6.701   5.203   1.115  0.5638 -1.5782 -0.1537
11163TIP3   OH233410   0.979   2.168   5.577 -0.5414 -0.8600 -0.1945
11163TIP3    H133411   0.985   2.077   5.550  1.2846 -0.5399 -0.9824
11163TIP3    H233412   0.966   2.165   5.672 -2.1609 -1.9389 -0.4385
11164TIP3   OH233413   1.653   3.076   5.898 -0.1460  0.1441  0.0332
11164TIP3    H133414   1.685   3.053   5.811  3.5537 -1.2431  1.6793
11164TIP3    H233415   1.675   3.001   5.953 -2.8205  0.8078  2.1161
11165TIP3   OH233416   6.086   6.639   0.520  0.3722 -0.5782 -0.0339
11165TIP3    H133417   6.150   6.569   0.533 -0.0995 -0.8068  1.1365
11165TIP3    H233418   6.109   6.678   0.436  2.1036 -0.5908  0.4329
11166TIP3   OH233419   2.972   2.084   6.772  0.2284 -0.2869 -0.7199
11166TIP3    H133420   2.989   2.003   6.820  0.7555 -0.6142 -1.4590
11166TIP3    H233421   3.046   2.141   6.793  0.0512 -0.1327 -0.5064
11167TIP3   OH233422   7.979   7.015   0.412  0.6321  0.1623  0.3041
11167TIP3    H133423   8.049   7.013   0.476  0.8061  2.4986  0.2268
11167TIP3    H233424   7.905   7.055   0.458  0.0392 -0.2709 -0.2615
11168TIP3   OH233425   4.659   3.113   4.875  0.0995 -0.8525 -0.0164
11168TIP3    H133426   4.569   3.085   4.892 -0.6166  0.1394 -2.0627
11168TIP3    H233427   4.689   3.059   4.803  0.9203 -0.6993  0.1948
11169TIP3   OH233428   3.740   3.686   4.121 -0.2031 -0.2787  0.4573
11169TIP3    H133429   3.649   3.656   4.117 -0.2866  0.0333 -0.0450
11169TIP3    H233430   3.771   3.656   4.206 -0.8214 -0.2568  0.6953
11170TIP3   OH233431   7.660   0.309   0.498  0.6058 -0.3172 -0.0174
11170TIP3    H133432   7.659   0.223   0.456  0.7548  0.5139 -1.7802
11170TIP3    H233433   7.750   0.320   0.528  0.3916 -1.1075  0.9552
11171TIP3   OH233434   5.150   1.093   7.085 -0.0629 -0.5405 -0.3650
11171TIP3    H133435   5.225   1.151   7.069 -0.2802 -0.4716 -1.1613
11171TIP3    H233436   5.156   1.072   7.178  0.4234  0.2013 -0.2189
11172TIP3   OH233437   5.766   8.211   0.202 -0.6937 -0.3930 -0.0810
11172TIP3    H133438   5.673   8.187   0.204 -0.3608 -2.0303 -2.1420
11172TIP3    H233439   5.767   8.305   0.183 -1.9455 -0.2670  0.4907
11173TIP3   OH233440   4.243   2.295   5.147 -0.7472  0.6473 -0.2100
11173TIP3    H133441   4.172   2.299   5.211 -1.3848  1.7317 -0.9737
11173TIP3    H233442   4.199   2.291   5.062  0.0608  2.5600 -0.7614
11174TIP3   OH233443   2.974   2.557   6.151  0.8821 -0.1697 -0.1274
11174TIP3    H133444   3.063   2.570   6.119  0.9214  0.3675  0.1964
11174TIP3    H233445   2.960   2.462   6.144  1.1203 -0.1361 -1.0988
11175TIP3   OH233446   5.084   2.556   6.552  0.3536  0.4743  0.4756
11175TIP3    H133447   4.999   2.513   6.548  0.2953  0.5091  1.2097
11175TIP3    H233448   5.085   2.616   6.477 -0.2322  0.4051  0.4136
11176TIP3   OH233449   5.998   6.293   0.998  0.1619 -0.1602 -0.0914
11176TIP3    H133450   5.936   6.227   1.030  1.1397 -1.1422 -0.2123
11176TIP3    H233451   6.021   6.344   1.076  0.1218 -0.5527  0.1797
11177TIP3   OH233452   0.186   2.075   7.099 -0.5374 -0.1067  0.5924
11177TIP3    H133453   0.215   1.994   7.141  0.1726  0.3588  0.9991
11177TIP3    H233454   0.266   2.117   7.069 -1.0068 -0.2897 -0.9917
11178TIP3   OH233455   5.867   2.126   5.943  0.8713 -0.4849 -0.0491
11178TIP3    H133456   5.898   2.207   5.983 -0.6873 -0.7543  1.7920
11178TIP3    H233457   5.913   2.056   5.991  0.4981 -0.7452 -0.0673
11179TIP3   OH233458   6.172   6.321   1.424  0.2171 -0.5114  0.1381
11179TIP3    H133459   6.226   6.401   1.424 -2.3415  1.3416  2.4699
11179TIP3    H233460   6.104   6.338   1.358 -0.2874 -0.7758  0.5845
11180TIP3   OH233461   8.650   0.678   0.149 -0.1799 -0.3352 -0.3698
11180TIP3    H133462   8.700   0.596   0.158 -2.5715 -2.0793 -2.1277
11180TIP3    H233463   8.571   0.664   0.201  0.3432  1.7529  1.0564
11181TIP3   OH233464   0.178   0.755   0.336 -0.2099  0.0495  0.1923
11181TIP3    H133465   0.106   0.732   0.394  0.2088  0.8616  1.0397
11181TIP3    H233466   0.137   0.804   0.265 -0.5633  0.0750  0.4126
11182TIP3   OH233467   5.607   7.707   2.088 -0.4053  0.1001 -0.1653
11182TIP3    H133468   5.549   7.631   2.084 -0.1987 -0.1535  1.2183
11182TIP3    H233469   5.587   7.757   2.009 -2.4469 -0.0263  0.2416
11183TIP3   OH233470   1.804   3.312   5.923 -0.0555  0.3561  0.2287
11183TIP3    H133471   1.768   3.226   5.901 -1.2719  0.9597 -0.1449
11183TIP3    H233472   1.894   3.309   5.891 -0.3452 -0.4914 -0.5126
11184TIP3   OH233473   6.216   6.920   1.352 -0.0548  0.1738 -0.1424
11184TIP3    H133474   6.279   6.880   1.291 -0.9334 -1.4262 -0.0201
11184TIP3    H233475   6.251   6.901   1.438  0.4282  1.1932 -0.1021
11185TIP3   OH233476   4.466   4.299   5.947  0.0713  0.1616  0.3310
11185TIP3    H133477   4.426   4.242   5.881  1.3237 -0.9415  0.4791
11185TIP3    H233478   4.393   4.329   6.001 -0.7312 -0.5151 -0.3636
11186TIP3   OH233479   3.852   1.969   6.718  0.5895 -0.4224 -0.0580
11186TIP3    H133480   3.891   1.986   6.804  1.1969 -0.3569 -0.3446
11186TIP3    H233481   3.922   1.929   6.667  0.6305  0.7088 -0.9246
11187TIP3   OH233482   1.332   4.775   5.935  0.4630 -0.6559  0.7190
11187TIP3    H133483   1.377   4.769   6.020  0.4129 -1.2651  0.7085
11187TIP3    H233484   1.365   4.856   5.896  0.8580 -0.6262  1.1066
11188TIP3   OH233485   5.991   2.283   6.547  0.1511  0.0001  0.0549
11188TIP3    H133486   6.020   2.208   6.600  2.1954 -0.9402 -2.2786
11188TIP3    H233487   6.055   2.288   6.476 -0.1023  3.8326  0.0060
11189TIP3   OH233488   4.537   3.813   5.092 -0.5402 -0.3615 -0.7900
11189TIP3    H133489   4.597   3.882   5.122  0.9366 -1.7808 -0.3677
11189TIP3    H233490   4.542   3.818   4.996  0.6338 -0.7704 -0.7591
11190TIP3   OH233491   2.725   2.157   6.851  0.0717 -0.2950 -0.6991
11190TIP3    H133492   2.815   2.159   6.819 -0.1133  1.2044 -1.1565
11190TIP3    H233493   2.728   2.211   6.930 -0.1750 -1.2513 -0.0321
11191TIP3   OH233494   6.686   7.718   0.925  0.1521 -0.4116  0.1907
11191TIP3    H133495   6.652   7.790   0.979 -0.4918 -0.6188  0.0632
11191TIP3    H233496   6.700   7.646   0.987 -2.0583 -1.1637 -0.1431
11192TIP3   OH233497   0.190   3.355   7.205  0.5404 -0.3620  0.7889
11192TIP3    H133498   0.134   3.403   7.266  1.1701 -0.5106  1.4944
11192TIP3    H233499   0.255   3.311   7.261  0.2383 -1.6824  0.1312
11193TIP3   OH233500   1.125   4.244   5.364  0.2973  0.3745  0.0646
11193TIP3    H133501   1.102   4.163   5.319 -0.5847 -0.1037  1.3684
11193TIP3    H233502   1.167   4.216   5.445  1.0781  1.2346 -0.0279
11194TIP3   OH233503   6.427   6.679   0.455 -0.1896  0.5849  0.0927
11194TIP3    H133504   6.357   6.629   0.413  1.3926 -1.6897  0.0701
11194TIP3    H233505   6.507   6.649   0.411  1.1092  0.9606  2.1261
11195TIP3   OH233506   7.370   0.979   0.419  0.5206 -0.0257  0.6663
11195TIP3    H133507   7.299   0.995   0.482  0.7822  0.9978  0.7199
11195TIP3    H233508   7.327   0.983   0.333  0.3698 -0.1942  0.7353
11196TIP3   OH233509   1.410   4.989   5.800 -0.5295 -0.3810 -0.2458
11196TIP3    H133510   1.479   5.050   5.774 -1.6065  0.4680 -1.1755
11196TIP3    H233511   1.329   5.039   5.791 -1.6940 -2.6063 -3.3458
11197TIP3   OH233512   5.966   8.284   1.492 -0.1556 -0.6538  0.0559
11197TIP3    H133513   6.042   8.325   1.533 -0.3421 -0.1320 -0.1194
11197TIP3    H233514   5.986   8.191   1.494  0.8424 -0.4614 -0.7054
11198TIP3   OH233515   4.677   2.432   5.944 -0.1340 -0.0579 -0.0199
11198TIP3    H133516   4.637   2.486   5.876  0.0475 -0.7650 -0.6931
11198TIP3    H233517   4.743   2.380   5.899 -1.8058 -2.4727  0.1775
11199TIP3   OH233518   6.903   8.054   1.048  0.5686 -0.2489 -0.0188
11199TIP3    H133519   6.910   8.149   1.059  1.2556 -0.3639  0.6267
11199TIP3    H233520   6.892   8.020   1.137 -1.2660 -0.6685 -0.3789
11200TIP3   OH233521   2.536   0.880   0.977 -0.3863  0.0688 -0.0702
11200TIP3    H133522   2.464   0.944   0.985  0.2573  0.6821  0.8152
11200TIP3    H233523   2.505   0.803   1.023 -0.0718  0.6962  1.2269
11201TIP3   OH233524   3.245   2.617   6.114 -0.1450  0.0847 -0.1601
11201TIP3    H133525   3.258   2.689   6.176 -1.0100  0.4697 -0.4159
11201TIP3    H233526   3.308   2.551   6.141 -0.5552  0.2187  1.1879
11202TIP3   OH233527   4.074   5.964   0.634 -0.3932  0.1971  0.4106
11202TIP3    H133528   4.010   5.974   0.564 -1.7684  2.8552  1.9513
11202TIP3    H233529   4.057   5.878   0.671  0.6636 -1.4558 -2.7402
11203TIP3   OH233530   7.372   7.405   1.992  0.4602  0.0735 -0.0243
11203TIP3    H133531   7.446   7.461   2.015  1.1561 -0.9081  0.1510
11203TIP3    H233532   7.295   7.456   2.016  1.0810  1.0474 -0.0779
11204TIP3   OH233533   4.761   6.426   1.017 -0.0427  0.1612  0.1175
11204TIP3    H133534   4.702   6.470   1.079  3.6626  2.3480  2.3279
11204TIP3    H233535   4.766   6.485   0.942  0.4311  0.7035  0.5686
11205TIP3   OH233536   8.792   4.415   0.424 -0.6791  0.7159 -0.0718
11205TIP3    H133537   8.763   4.386   0.510 -0.4688 -1.1975 -0.6259
11205TIP3    H233538   8.775   4.341   0.366  2.1849  0.7547 -1.0540
11206TIP3   OH233539   5.614   5.275   0.447  0.0161 -0.0538 -0.1983
11206TIP3    H133540   5.523   5.249   0.429  0.0796  0.4108 -1.2171
11206TIP3    H233541   5.607   5.366   0.477  0.1950  0.1798 -0.8527
11207TIP3   OH233542   6.118   5.204   1.629 -0.1664 -0.0335  0.2094
11207TIP3    H133543   6.141   5.139   1.562  0.3409  1.6290 -1.2599
11207TIP3    H233544   6.065   5.269   1.583  0.4249  1.2806  1.3341
11208TIP3   OH233545   7.931   7.609   1.083 -0.3560  0.3359  0.7432
11208TIP3    H133546   7.986   7.538   1.117 -0.6874  0.2574  1.1258
11208TIP3    H233547   7.968   7.688   1.123 -0.3146  0.3211  0.7338
11209TIP3   OH233548   8.046   0.614   0.166  0.0399 -0.3201 -0.5037
11209TIP3    H133549   8.006   0.572   0.241  0.8585 -0.6219 -0.2347
11209TIP3    H233550   7.989   0.689   0.147  0.2184  0.1599  0.8446
11210TIP3   OH233551   2.844   3.946   6.943  0.4025 -0.7809 -0.2983
11210TIP3    H133552   2.857   3.941   7.038  1.0660  0.5617 -0.2937
11210TIP3    H233553   2.929   3.922   6.906  0.4427 -0.3319 -0.5107
11211TIP3   OH233554   1.739   4.908   6.460  0.3882  0.3652 -0.1839
11211TIP3    H133555   1.815   4.957   6.491  0.1270  0.9770 -0.4904
11211TIP3    H233556   1.709   4.860   6.537  0.1047  1.4081  0.3785
11212TIP3   OH233557   6.730   6.963   1.152  0.0596 -0.0897  0.1237
11212TIP3    H133558   6.739   6.961   1.056 -0.0578 -1.4175  0.1264
11212TIP3    H233559   6.720   7.055   1.173 -1.9500  0.0550 -1.3299
11213TIP3   OH233560   5.034   3.469   6.839 -0.5993  0.1401  0.0755
11213TIP3    H133561   5.056   3.457   6.932  0.2085 -0.2514 -0.1618
11213TIP3    H233562   5.009   3.382   6.809  0.5293 -0.0284 -0.4256
11214TIP3   OH233563   7.136   8.328   0.778  0.5430  0.2705 -0.4351
11214TIP3    H133564   7.202   8.259   0.770  1.7500  1.3163  0.2500
11214TIP3    H233565   7.069   8.305   0.714  0.6946 -1.7824  0.1026
11215TIP3   OH233566   7.314   7.391   0.890 -0.0089 -0.1768  0.7037
11215TIP3    H133567   7.338   7.462   0.831  2.5993 -0.5245  1.2796
11215TIP3    H233568   7.299   7.315   0.833 -0.4045  0.2277  0.2718
11216TIP3   OH233569   3.447   1.430   6.490  0.5599  0.3702  0.6637
11216TIP3    H133570   3.438   1.351   6.437 -0.3819  1.6774 -1.1849
11216TIP3    H233571   3.370   1.482   6.468  1.8060  2.3568  0.8997
11217TIP3   OH233572   3.855   2.228   7.122  0.3112  0.0836 -0.4610
11217TIP3    H133573   3.823   2.167   7.056  0.4643  0.9079 -1.3081
11217TIP3    H233574   3.851   2.314   7.079 -0.9489  0.8218  1.0863
11218TIP3   OH233575   7.666   7.519   0.683  0.3690  0.2749 -0.0977
11218TIP3    H133576   7.688   7.606   0.716  0.5303  0.6953 -1.2846
11218TIP3    H233577   7.678   7.461   0.758  1.3648  1.1139  0.4045
11219TIP3   OH233578   7.999   7.640   0.810 -0.1308 -0.6464 -0.2564
11219TIP3    H133579   7.996   7.733   0.831 -0.5706 -0.8247  0.4980
11219TIP3    H233580   7.949   7.598   0.881  1.5048 -1.6210  0.3422
11220TIP3   OH233581   2.752   4.217   6.866 -0.1711 -1.0100 -0.1404
11220TIP3    H133582   2.820   4.256   6.812 -0.2360  0.7566  1.0086
11220TIP3    H233583   2.786   4.131   6.892  1.1035 -0.6213 -0.5398
11221TIP3   OH233584   3.294   2.875   3.929 -0.1952  0.0420 -0.0271
11221TIP3    H133585   3.270   2.800   3.984 -0.1197  0.5149  0.6622
11221TIP3    H233586   3.389   2.873   3.927 -0.1623  0.6018  0.6850
11222TIP3   OH233587   5.266   1.932   4.685  0.1840 -0.1666  1.0263
11222TIP3    H133588   5.224   1.856   4.645  0.1983  0.4386 -0.1582
11222TIP3    H233589   5.218   2.007   4.649  1.9999  0.5156 -0.0303
11223TIP3   OH233590   1.445   5.486   6.864 -0.4603  0.1370  0.4241
11223TIP3    H133591   1.367   5.535   6.837  0.0241  0.0419 -1.2599
11223TIP3    H233592   1.421   5.394   6.849 -0.4785  0.0205  1.1605
11224TIP3   OH233593   5.681   7.651   0.344 -0.0467 -0.3703  0.3625
11224TIP3    H133594   5.709   7.681   0.430 -1.4420 -1.0457  1.0692
11224TIP3    H233595   5.690   7.556   0.347  0.0935 -0.3795 -0.3026
11225TIP3   OH233596   2.673   6.041   6.326 -0.3905 -0.0770  0.2207
11225TIP3    H133597   2.579   6.034   6.313 -0.7304 -1.2244  2.8439
11225TIP3    H233598   2.697   5.959   6.370  1.8216  0.2088 -0.3754
11226TIP3   OH233599   2.474   1.851   6.764  0.1133  0.0839  0.6139
11226TIP3    H133600   2.408   1.814   6.705  1.1946 -1.7143  0.5040
11226TIP3    H233601   2.424   1.908   6.822 -1.3693 -0.3034 -0.2506
11227TIP3   OH233602   3.605   3.007   5.270  0.7454  0.1826 -0.0901
11227TIP3    H133603   3.666   3.074   5.238  0.9083 -0.0466 -0.2570
11227TIP3    H233604   3.535   3.006   5.204  1.8104 -1.3274 -1.2264
11228TIP3   OH233605   4.397   2.552   5.183 -0.4196 -0.0396  0.2581
11228TIP3    H133606   4.357   2.467   5.167 -0.2745  0.2325 -1.6398
11228TIP3    H233607   4.471   2.533   5.242 -1.1595 -1.0277  0.8878
11229TIP3   OH233608   6.606   8.185   0.299 -0.3462 -0.3228 -0.0791
11229TIP3    H133609   6.643   8.101   0.274 -0.0387  0.1439 -1.2106
11229TIP3    H233610   6.664   8.250   0.260 -0.3054  0.4298  1.1819
11230TIP3   OH233611   8.209   0.417   0.368  0.0092  0.6779 -0.5811
11230TIP3    H133612   8.249   0.407   0.455  1.8604 -0.8108 -1.5595
11230TIP3    H233613   8.116   0.428   0.385  0.5303  1.8230  1.6697
11231TIP3   OH233614   6.500   1.119   7.065 -0.3995  0.5972 -0.2026
11231TIP3    H133615   6.589   1.140   7.095 -0.1843  1.3989 -1.3980
11231TIP3    H233616   6.447   1.121   7.145  0.3722  1.6869  0.2926
11232TIP3   OH233617   3.487   2.864   5.800 -0.0413  0.8449 -0.1219
11232TIP3    H133618   3.413   2.915   5.835 -1.4717 -0.9465 -0.4727
11232TIP3    H233619   3.509   2.909   5.718 -1.8078  0.4589 -0.8311
11233TIP3   OH233620   3.723   1.331   5.689  0.5438  0.1770  0.1381
11233TIP3    H133621   3.815   1.309   5.674  0.5892 -1.5623  2.6540
11233TIP3    H233622   3.724   1.423   5.715  1.8618 -0.4088  2.3004
11234TIP3   OH233623   4.061   7.821   0.057 -0.1835  0.4352  0.3218
11234TIP3    H133624   4.006   7.749   0.089 -1.7721  1.4033 -0.1881
11234TIP3    H233625   4.025   7.899   0.098  0.0388  1.2383 -1.0032
11235TIP3   OH233626   4.769   0.499   7.020 -0.2920 -0.0316  0.1586
11235TIP3    H133627   4.733   0.468   7.103  0.2754  0.3756  0.5618
11235TIP3    H233628   4.732   0.586   7.009 -1.6744 -0.7302 -0.8438
11236TIP3   OH233629   3.359   1.981   4.296  0.0543  0.7517 -0.1308
11236TIP3    H133630   3.439   1.933   4.316  1.0665  2.4675  0.0610
11236TIP3    H233631   3.290   1.916   4.302  1.5415 -0.9665 -1.2755
11237TIP3   OH233632   3.781   3.732   7.211 -0.1636  0.7801 -0.2601
11237TIP3    H133633   3.860   3.678   7.209 -0.5127  0.3097 -1.9546
11237TIP3    H233634   3.813   3.819   7.232  0.8333  0.6103 -1.0090
11238TIP3   OH233635   2.423   2.256   6.313 -0.4245 -0.2252  0.3560
11238TIP3    H133636   2.425   2.327   6.377  0.5638  0.1997 -0.1276
11238TIP3    H233637   2.460   2.181   6.360 -0.5037 -0.1418  0.5518
11239TIP3   OH233638   3.916   6.617   2.272  0.1544 -0.0787 -0.7369
11239TIP3    H133639   3.983   6.603   2.206 -0.0435 -1.5922 -0.6174
11239TIP3    H233640   3.851   6.673   2.229  0.2780 -0.6241 -1.6364
11240TIP3   OH233641   4.892   7.442   0.242  0.3489  0.1044  0.0574
11240TIP3    H133642   4.974   7.485   0.219 -0.4624  0.4309 -2.3530
11240TIP3    H233643   4.885   7.453   0.337  1.8669  2.2340 -0.0466
11241TIP3   OH233644   6.684   6.359   0.532 -0.2066  0.1349 -0.2900
11241TIP3    H133645   6.737   6.438   0.538  0.9618 -0.4998 -1.9910
11241TIP3    H233646   6.689   6.320   0.620  1.9426  0.2091 -0.3573
11242TIP3   OH233647   3.922   5.162   0.560  0.1423 -0.5972  0.2322
11242TIP3    H133648   3.939   5.187   0.651 -1.4413 -0.9099  0.6153
11242TIP3    H233649   4.010   5.146   0.523  0.7980 -0.3481  1.6539
11243TIP3   OH233650   0.897   1.302   2.678 -0.5530  0.8258 -0.6647
11243TIP3    H133651   0.907   1.229   2.617 -1.7111  1.0266 -1.1156
11243TIP3    H233652   0.884   1.378   2.621 -0.3412  1.2213 -0.1805
11244TIP3   OH233653   5.906   0.902   7.107  0.1315  0.9504 -0.4294
11244TIP3    H133654   5.917   0.817   7.149  1.6442  0.3447 -1.9899
11244TIP3    H233655   5.980   0.909   7.047 -0.2897  3.1255 -0.7376
11245TIP3   OH233656   1.790   4.727   7.150 -0.3472  0.8550 -0.5183
11245TIP3    H133657   1.702   4.697   7.174 -0.9601  1.8332 -1.5167
11245TIP3    H233658   1.819   4.666   7.082  0.1129  0.0070  0.4165
11246TIP3   OH233659   7.950   0.127   0.603  0.2786  0.1146 -0.0907
11246TIP3    H133660   7.995   0.066   0.661  1.5810  0.9833 -0.1697
11246TIP3    H233661   7.971   0.214   0.638 -0.3861  0.5793 -0.8240
11247TIP3   OH233662   2.387   3.398   6.757 -0.2080  0.0531  0.3636
11247TIP3    H133663   2.308   3.390   6.703  0.9744 -1.3483 -1.1942
11247TIP3    H233664   2.384   3.322   6.815  0.3577 -0.4014 -0.1955
11248TIP3   OH233665   8.576   8.373   0.389  0.4797 -0.6548 -1.0090
11248TIP3    H133666   8.642   8.316   0.429  1.1467 -0.2377 -1.4918
11248TIP3    H233667   8.599   8.461   0.420 -0.1418 -0.5658 -0.7962
11249TIP3   OH233668   4.816   8.156   0.414  0.0128  0.0776 -0.3384
11249TIP3    H133669   4.757   8.102   0.362 -1.9273  0.5303  1.3572
11249TIP3    H233670   4.843   8.099   0.486  0.3007  0.4386 -0.1617
11250TIP3   OH233671   1.849   3.932   6.851 -0.1134  0.2501  0.0020
11250TIP3    H133672   1.906   3.898   6.920  0.8536 -0.0195 -0.9293
11250TIP3    H233673   1.771   3.876   6.855 -0.5425  0.9215  1.5828
11251TIP3   OH233674   8.808  -0.011   0.467  0.1254  0.0353 -0.3949
11251TIP3    H133675   8.831   0.053   0.534  0.4148 -1.4026  0.9152
11251TIP3    H233676   8.774   0.041   0.394  0.8668  1.7008  0.4239
11252TIP3   OH233677   1.900   2.987   6.855 -0.8816  1.1636 -0.3526
11252TIP3    H133678   1.828   2.949   6.904 -0.0614  0.7466  0.5443
11252TIP3    H233679   1.863   3.009   6.770 -2.2813  1.7310  0.3893
11253TIP3   OH233680   3.929   3.527   3.578 -0.2965  0.3186 -0.2086
11253TIP3    H133681   3.933   3.551   3.485 -0.8725  1.9649  0.1653
11253TIP3    H233682   4.020   3.513   3.603 -0.3076 -2.6633 -1.6203
11254TIP3   OH233683   1.767   8.347   6.835 -0.1720 -0.3888 -0.2563
11254TIP3    H133684   1.752   8.402   6.758  0.3165 -1.3124 -1.0195
11254TIP3    H233685   1.779   8.410   6.907  1.7984  0.5550 -1.3713
11255TIP3   OH233686   3.646   3.451   5.369 -0.4935  0.3367 -0.4715
11255TIP3    H133687   3.564   3.461   5.321 -1.0979 -1.1340  0.2239
11255TIP3    H233688   3.676   3.362   5.349  0.5954  0.6286 -0.2014
11256TIP3   OH233689   1.411   1.850   7.067 -0.0806 -0.4794 -0.4376
11256TIP3    H133690   1.333   1.899   7.040  0.1850  0.4054  0.3683
11256TIP3    H233691   1.452   1.823   6.985 -2.1976 -2.5336 -0.8708
11257TIP3   OH233692   5.759   5.744   1.385  0.5267  0.2253  0.1926
11257TIP3    H133693   5.688   5.782   1.436  1.9629  0.7117  1.8839
11257TIP3    H233694   5.724   5.662   1.353 -1.1741  0.9702  0.0670
11258TIP3   OH233695   4.455   2.267   6.755 -0.1335  0.7217 -0.0796
11258TIP3    H133696   4.528   2.315   6.715 -0.2386  0.2389 -0.8579
11258TIP3    H233697   4.493   2.227   6.833 -0.1716  2.4976  0.8830
11259TIP3   OH233698   5.976   6.691   1.281  0.1541 -0.2978  0.5172
11259TIP3    H133699   5.965   6.718   1.190 -1.1519  1.3789  1.1335
11259TIP3    H233700   6.013   6.768   1.325 -0.1173 -0.7613  1.5931
11260TIP3   OH233701   7.362   3.773   0.420  0.5865  0.0859  0.2261
11260TIP3    H133702   7.311   3.845   0.383 -0.2131 -0.1328  0.8819
11260TIP3    H233703   7.367   3.709   0.350 -1.3406 -0.5407  0.6137
11261TIP3   OH233704   1.586   5.160   6.456 -0.0973  0.3796 -0.4094
11261TIP3    H133705   1.513   5.129   6.509 -0.6165  0.8431 -0.8497
11261TIP3    H233706   1.620   5.081   6.414 -0.3386  0.1609 -0.1937
11262TIP3   OH233707   5.320   7.946   0.594 -0.1613 -0.1295  0.9411
11262TIP3    H133708   5.308   7.977   0.504 -1.2937 -1.0618  0.7635
11262TIP3    H233709   5.266   8.005   0.647 -0.6059 -0.4563  0.8507
11263TIP3   OH233710   8.573   6.075   0.169 -0.0968 -0.1505 -0.0162
11263TIP3    H133711   8.515   6.068   0.093 -0.4749 -1.6144  0.3802
11263TIP3    H233712   8.517   6.107   0.240  0.5672  2.5845 -0.6578
11264TIP3   OH233713   1.785   3.102   5.373 -0.4628  0.5529  0.0543
11264TIP3    H133714   1.827   3.126   5.290 -1.9516  0.6404 -0.6949
11264TIP3    H233715   1.854   3.108   5.438  0.2899  2.2751 -0.8906
11265TIP3   OH233716   4.863   3.823   5.348 -0.0206 -0.1435 -0.9713
11265TIP3    H133717   4.823   3.843   5.263  1.8001 -1.8177 -2.2610
11265TIP3    H233718   4.939   3.880   5.352 -1.7739  2.1478  0.9393
11266TIP3   OH233719   6.456   6.841   0.126  0.3971  0.1336  0.2874
11266TIP3    H133720   6.517   6.796   0.067  0.7856  1.4123 -0.2994
11266TIP3    H233721   6.512   6.877   0.195  0.0941 -0.2181  0.7183
11267TIP3   OH233722   4.927   7.931   0.608  0.1176  0.4615  0.0319
11267TIP3    H133723   5.003   7.923   0.665  0.1973  1.5502  0.0979
11267TIP3    H233724   4.853   7.942   0.668  0.1191  0.9769 -0.0584
11268TIP3   OH233725   2.007   3.593   6.807 -0.5700 -0.0538 -0.2919
11268TIP3    H133726   2.013   3.662   6.874 -1.7120  0.5908 -0.8345
11268TIP3    H233727   2.024   3.638   6.725  1.3980 -0.9568 -0.4022
11269TIP3   OH233728   0.421   8.142   0.163 -0.1244 -0.1635  0.1337
11269TIP3    H133729   0.444   8.233   0.185 -1.0440  0.4301 -1.2949
11269TIP3    H233730   0.330   8.146   0.135 -0.2429 -1.5770  0.2749
11270TIP3   OH233731   6.841   7.122   1.960  0.0148  0.1872 -0.7774
11270TIP3    H133732   6.827   7.085   2.047  0.8585  0.0713 -0.6871
11270TIP3    H233733   6.906   7.191   1.973 -0.0567  0.3534 -1.2701
11271TIP3   OH233734   4.981   3.490   5.533 -0.2725  0.2380  0.4769
11271TIP3    H133735   5.057   3.512   5.587  0.0166  0.1026  0.1285
11271TIP3    H233736   4.906   3.509   5.589 -0.0037  1.0799  0.5583
11272TIP3   OH233737   5.303   1.838   4.964 -0.7643 -0.5530 -0.1698
11272TIP3    H133738   5.345   1.917   4.998  1.5793 -1.2504 -1.3342
11272TIP3    H233739   5.296   1.853   4.870 -2.0583 -0.9707 -0.1621
11273TIP3   OH233740   8.382   6.859   0.531  0.5716  0.2684 -0.2301
11273TIP3    H133741   8.476   6.861   0.550  0.5789  0.5286 -0.2773
11273TIP3    H233742   8.377   6.826   0.441  0.6220  0.2687 -0.2333
11274TIP3   OH233743   7.516   5.825   5.112 -0.5298  0.3431 -0.1333
11274TIP3    H133744   7.485   5.843   5.201 -0.2486  0.4094 -0.0465
11274TIP3    H233745   7.612   5.822   5.121 -0.5732 -1.5550 -0.0694
11275TIP3   OH233746   6.992   1.542   4.862  0.1625  0.4594 -0.2138
11275TIP3    H133747   7.085   1.561   4.875  0.3890 -0.5084 -0.3912
11275TIP3    H233748   6.956   1.535   4.950  0.4800 -0.1948 -0.1308
11276TIP3   OH233749   5.043   1.701   4.853  0.0361  0.5525  0.1165
11276TIP3    H133750   4.972   1.700   4.917  0.7997  3.2102  1.0860
11276TIP3    H233751   5.002   1.733   4.773 -0.3921 -0.3584 -0.0317
11277TIP3   OH233752   4.962   2.872   4.530  0.0248  0.3637  0.5001
11277TIP3    H133753   4.979   2.887   4.623 -1.5184  1.4158  0.6305
11277TIP3    H233754   5.026   2.926   4.485  0.1477  0.6091  0.9639
11278TIP3   OH233755   6.264   4.041   5.574  0.2013 -0.2780  0.0240
11278TIP3    H133756   6.230   4.099   5.505  0.0011 -1.0891 -0.5659
11278TIP3    H233757   6.325   4.096   5.623  1.4274 -0.0779 -1.6647
11279TIP3   OH233758   2.570   3.685   6.360  0.3518  0.2229  0.4906
11279TIP3    H133759   2.550   3.623   6.290 -2.2802 -0.8582  2.1199
11279TIP3    H233760   2.581   3.769   6.316 -1.0476 -0.4635 -1.2289
11280TIP3   OH233761   6.298   3.297   4.142 -0.7607  0.0799 -0.2874
11280TIP3    H133762   6.318   3.238   4.070 -0.6702 -0.6916  0.3514
11280TIP3    H233763   6.214   3.336   4.119 -1.8786 -1.8963  0.2554
11281TIP3   OH233764   3.065   1.881   6.231  0.1767  0.1532 -0.0675
11281TIP3    H133765   3.140   1.938   6.213  0.0520 -0.1966 -1.7617
11281TIP3    H233766   2.994   1.916   6.177 -0.2200 -0.9306 -0.2742
11282TIP3   OH233767   5.248   1.682   4.551 -0.1154  0.4555  0.1504
11282TIP3    H133768   5.286   1.715   4.469  1.2948  0.9483  0.9790
11282TIP3    H233769   5.182   1.619   4.523  1.1236 -0.2125 -1.3535
11283TIP3   OH233770   6.894   0.626   5.563 -0.2640 -0.4288 -0.7962
11283TIP3    H133771   6.906   0.616   5.658  1.2647 -0.9519 -1.0290
11283TIP3    H233772   6.890   0.720   5.548 -0.6191 -0.3491 -0.1977
11284TIP3   OH233773   5.322   3.366   6.577 -0.2452 -0.1789  0.1479
11284TIP3    H133774   5.361   3.349   6.662  1.2684 -1.3455 -0.7500
11284TIP3    H233775   5.320   3.281   6.534 -0.3616  0.4966 -1.2215
11285TIP3   OH233776   5.904   2.529   3.469 -0.1428 -0.5623  0.0012
11285TIP3    H133777   5.932   2.598   3.410 -1.0347 -0.7378 -0.6481
11285TIP3    H233778   5.925   2.562   3.556 -0.7600  0.6321 -0.2859
11286TIP3   OH233779   8.101   0.058   6.037  0.0200  0.2650 -0.2573
11286TIP3    H133780   8.036   0.046   6.106  2.0849  1.9266  2.0174
11286TIP3    H233781   8.080   0.143   5.998  0.7512  0.7483  0.3997
11287TIP3   OH233782   1.301   5.423   6.531 -0.0479 -0.0707  0.2633
11287TIP3    H133783   1.294   5.351   6.468 -1.0944  0.8867 -0.7227
11287TIP3    H233784   1.218   5.423   6.578 -0.5396  1.2405 -0.5693
11288TIP3   OH233785   5.403   2.951   3.839 -0.2471 -0.1079  0.8374
11288TIP3    H133786   5.315   2.983   3.858 -0.6754 -0.4573 -0.5027
11288TIP3    H233787   5.435   3.009   3.770 -0.2513 -1.2931 -0.1729
11289TIP3   OH233788   4.736   3.494   5.712  0.0245  0.4993 -0.1073
11289TIP3    H133789   4.682   3.564   5.749  0.7118  0.5088  0.8832
11289TIP3    H233790   4.685   3.414   5.727 -0.4818  0.7145 -0.6896
11290TIP3   OH233791   5.028   1.966   5.656 -0.0662  0.0543  0.5744
11290TIP3    H133792   4.967   1.895   5.678 -1.1333  0.2953 -1.5015
11290TIP3    H233793   5.111   1.921   5.641 -0.7304 -0.8101 -0.7164
11291TIP3   OH233794   6.212   7.499   0.648  0.3996 -0.2041  0.1425
11291TIP3    H133795   6.175   7.495   0.736  1.2076  0.8978  0.5426
11291TIP3    H233796   6.270   7.423   0.643 -0.3704 -0.7943  0.2275
11292TIP3   OH233797   4.451   2.726   7.234 -0.1884 -0.2135  0.0184
11292TIP3    H133798   4.534   2.695   7.271 -0.6349  0.4581  1.6277
11292TIP3    H233799   4.414   2.649   7.192  0.3369 -1.0158  0.9980
11293TIP3   OH233800   2.848   2.360   4.916  0.1150 -0.0633 -0.3535
11293TIP3    H133801   2.926   2.395   4.872 -0.4390  1.3365 -0.2407
11293TIP3    H233802   2.791   2.436   4.927 -0.1894 -0.5881  1.8855
11294TIP3   OH233803   6.216   3.333   6.792  0.2520 -0.2984 -0.1744
11294TIP3    H133804   6.190   3.338   6.700  1.7295 -0.0659 -0.5975
11294TIP3    H233805   6.282   3.402   6.802  0.6405 -0.8093  0.8693
11295TIP3   OH233806   8.360   5.348   2.389 -0.2501  0.1634  0.0152
11295TIP3    H133807   8.380   5.419   2.451 -1.0367  1.1019 -0.7875
11295TIP3    H233808   8.306   5.390   2.322 -3.5931 -1.9306  1.2612
11296TIP3   OH233809   8.761   5.338   0.209  0.3677  1.0468  0.2890
11296TIP3    H133810   8.730   5.410   0.264 -1.7682 -1.3142  2.3108
11296TIP3    H233811   8.811   5.282   0.269 -0.5691 -0.7076 -0.5423
11297TIP3   OH233812   7.577   0.994   6.304 -0.1301 -0.7751 -0.0192
11297TIP3    H133813   7.590   1.001   6.210 -1.1690 -0.0182 -0.1226
11297TIP3    H233814   7.606   0.906   6.327  0.4345 -0.8448 -0.9863
11298TIP3   OH233815   6.702   0.829   5.144 -0.1749 -0.0764 -0.4770
11298TIP3    H133816   6.777   0.775   5.164 -0.5783  0.1917  1.9763
11298TIP3    H233817   6.738   0.904   5.096  0.5114 -1.9377 -2.9688
11299TIP3   OH233818   8.276   1.771   7.156 -0.3581  0.1285  0.6290
11299TIP3    H133819   8.329   1.803   7.083 -1.7354 -1.8437 -1.2712
11299TIP3    H233820   8.188   1.804   7.138 -0.4726  0.6022  2.0173
11300TIP3   OH233821   7.594   1.112   5.325  0.3137  0.1951 -0.2720
11300TIP3    H133822   7.689   1.117   5.318  0.3364  0.7562  0.3700
11300TIP3    H233823   7.562   1.127   5.236  0.8473 -0.5775 -0.5886
11301TIP3   OH233824   5.409   3.042   4.940 -0.1964  0.0898 -0.5048
11301TIP3    H133825   5.501   3.042   4.913  0.2077  0.4676  0.8405
11301TIP3    H233826   5.360   3.052   4.859  1.0139  2.2395 -1.0077
11302TIP3   OH233827   3.649   3.687   6.413 -0.2931 -0.0168  0.1699
11302TIP3    H133828   3.638   3.646   6.499 -2.5580 -0.4846 -0.3033
11302TIP3    H233829   3.571   3.740   6.401 -0.3243 -0.4670 -1.8777
11303TIP3   OH233830   5.124   1.941   5.242 -0.0061  0.4068  0.1319
11303TIP3    H133831   5.094   1.927   5.331 -0.6600  2.2396  0.2215
11303TIP3    H233832   5.214   1.972   5.251  0.5437 -1.1063  0.0506
11304TIP3   OH233833   4.691   3.417   4.785  0.2360  0.1852 -0.2797
11304TIP3    H133834   4.633   3.387   4.715  0.2697  2.0706 -1.1734
11304TIP3    H233835   4.638   3.480   4.834  0.5398 -0.3935  0.8031
11305TIP3   OH233836   8.039   6.298   1.160 -0.1791 -0.1943 -0.4329
11305TIP3    H133837   7.975   6.356   1.203 -2.0857 -3.6478  1.6088
11305TIP3    H233838   8.101   6.276   1.229  0.4722 -0.6939 -1.1682
11306TIP3   OH233839   2.825   2.711   4.713 -0.8205  1.1301  0.1272
11306TIP3    H133840   2.796   2.626   4.678 -1.4171  1.4025 -0.0505
11306TIP3    H233841   2.751   2.741   4.765 -0.3308  1.2120  0.7760
11307TIP3   OH233842   5.737   3.265   4.949 -0.0363 -0.6741  0.7289
11307TIP3    H133843   5.807   3.328   4.934  0.4421 -1.0835  1.2077
11307TIP3    H233844   5.665   3.317   4.986 -0.8214  0.1437 -1.8905
11308TIP3   OH233845   6.306   1.686   5.388 -0.4048 -0.2867 -0.0787
11308TIP3    H133846   6.300   1.701   5.482 -0.1549 -1.9666  0.2217
11308TIP3    H233847   6.238   1.741   5.350 -0.6882  0.1890  1.1012
11309TIP3   OH233848   7.563   1.508   7.062  0.3052  0.5234  0.4535
11309TIP3    H133849   7.655   1.521   7.039  0.3260 -0.2745  0.0716
11309TIP3    H233850   7.560   1.517   7.157  0.5317  2.0067  0.3224
11310TIP3   OH233851   4.815   4.152   6.289 -0.1711  0.1778  0.0911
11310TIP3    H133852   4.879   4.091   6.253 -1.5283 -0.4719 -1.2241
11310TIP3    H233853   4.866   4.232   6.304  1.5721 -1.1878  1.6734
11311TIP3   OH233854   5.101   0.629   6.462  0.0125  0.0561 -0.0653
11311TIP3    H133855   5.130   0.720   6.456  1.7448 -0.5934 -2.3267
11311TIP3    H233856   5.166   0.586   6.519  0.0468 -0.0804 -0.2058
11312TIP3   OH233857   2.887   3.900   7.205  0.2190  0.4964 -0.1631
11312TIP3    H133858   2.907   3.979   7.256 -1.1324  0.2160  0.8272
11312TIP3    H233859   2.928   3.829   7.254 -0.5223  0.3041  0.1732
11313TIP3   OH233860   4.648   3.355   7.247  0.2732 -0.1805  0.2006
11313TIP3    H133861   4.567   3.401   7.223  1.7143  1.2438 -2.1383
11313TIP3    H233862   4.696   3.417   7.301 -0.1612 -1.0100  1.5559
11314TIP3   OH233863   5.700   2.264   4.514 -0.0520 -0.3457 -0.1540
11314TIP3    H133864   5.761   2.221   4.573  1.0209  0.7893 -0.4162
11314TIP3    H233865   5.615   2.225   4.534  0.3516 -0.2319  1.8700
11315TIP3   OH233866   6.940   2.179   5.888  0.2810  0.9898  0.4910
11315TIP3    H133867   6.935   2.085   5.906  2.8386  1.0626  1.8221
11315TIP3    H233868   6.915   2.187   5.796 -0.5594 -0.9152  0.5297
11316TIP3   OH233869   6.111   2.166   6.262 -0.0296  0.5819  0.6485
11316TIP3    H133870   6.194   2.117   6.257 -0.0658  0.7785 -2.7310
11316TIP3    H233871   6.049   2.113   6.211 -1.5426  1.3157  1.6972
11317TIP3   OH233872   2.404   5.033   6.985  1.4493  0.4434  0.0916
11317TIP3    H133873   2.417   4.939   7.001 -3.7852 -0.3241  0.6407
11317TIP3    H233874   2.349   5.037   6.907  0.5750  3.0228  0.8043
11318TIP3   OH233875   7.445   7.063   0.695  0.1974  0.2466  0.5507
11318TIP3    H133876   7.392   7.048   0.774  0.5442 -0.6735  0.6201
11318TIP3    H233877   7.520   7.113   0.725  0.1242  0.2468  0.7346
11319TIP3   OH233878   5.270   2.647   6.789  0.1526 -0.6032  0.4226
11319TIP3    H133879   5.285   2.584   6.860  1.4438 -0.4314  0.3019
11319TIP3    H233880   5.223   2.596   6.723 -2.0573 -0.4811  1.8320
11320TIP3   OH233881   1.608   0.733   0.972  0.2701 -0.0072 -0.2297
11320TIP3    H133882   1.570   0.805   0.923  0.2441 -0.0424 -0.2612
11320TIP3    H233883   1.658   0.776   1.042 -0.4390  0.0309  0.2649
11321TIP3   OH233884   4.502   4.191   5.712 -0.0834 -0.5523  0.3976
11321TIP3    H133885   4.545   4.240   5.642  1.6512 -1.0592  1.0686
11321TIP3    H233886   4.571   4.135   5.747 -1.7167 -2.5347  0.4990
11322TIP3   OH233887   4.645   3.239   5.801 -0.4899 -0.0689  0.0627
11322TIP3    H133888   4.607   3.179   5.736  0.2678 -0.6853  0.1685
11322TIP3    H233889   4.721   3.191   5.835 -0.6332  0.4312  1.0924
11323TIP3   OH233890   2.794   3.051   5.929 -0.3809  0.1769  0.2930
11323TIP3    H133891   2.831   2.991   5.994 -1.4461 -0.3321  0.4321
11323TIP3    H233892   2.726   3.000   5.885  1.5571 -0.1150 -2.5236
11324TIP3   OH233893   6.501   2.734   2.791 -0.4947  0.5225  0.1877
11324TIP3    H133894   6.423   2.679   2.784 -0.6495  0.7745 -0.0968
11324TIP3    H233895   6.467   2.822   2.809 -0.2214  0.4035  1.2997
11325TIP3   OH233896   6.379   2.901   6.881  0.1218 -0.1581  0.1658
11325TIP3    H133897   6.343   2.932   6.798 -0.7269  1.4286  1.1042
11325TIP3    H233898   6.436   2.828   6.857 -2.5725 -1.8168 -1.5101
11326TIP3   OH233899   5.034   4.679   5.925  0.2720  0.3866  0.3138
11326TIP3    H133900   4.949   4.672   5.969 -0.3372  2.1760 -0.5263
11326TIP3    H233901   5.013   4.680   5.832  1.1180  1.8238  0.1218
11327TIP3   OH233902   5.927   6.575   1.546 -0.6507 -0.4675  0.1037
11327TIP3    H133903   5.965   6.608   1.465 -0.4504  0.4722  0.5786
11327TIP3    H233904   5.940   6.645   1.610 -2.0704 -0.6227  0.5959
11328TIP3   OH233905   7.869   2.187   6.704 -0.0634 -0.0387  0.1486
11328TIP3    H133906   7.831   2.272   6.730 -0.2813  0.4419 -1.6902
11328TIP3    H233907   7.936   2.210   6.639 -0.5400 -1.3177 -0.8053
11329TIP3   OH233908   7.697   6.302   0.691 -0.5533  0.6225 -0.2357
11329TIP3    H133909   7.775   6.355   0.675 -0.1671  0.4355  0.9617
11329TIP3    H233910   7.719   6.216   0.657  0.1143  0.3312  0.8958
11330TIP3   OH233911   5.514   4.083   5.853  0.1061  0.2486 -0.1012
11330TIP3    H133912   5.495   4.012   5.915 -0.3656  1.2499  0.9163
11330TIP3    H233913   5.462   4.062   5.776 -1.1299  0.2394  0.7288
11331TIP3   OH233914   5.633   0.794   5.929  0.1246 -0.2696 -0.2774
11331TIP3    H133915   5.616   0.768   6.019  0.1277  0.6058 -0.0216
11331TIP3    H233916   5.714   0.845   5.933  0.4333 -0.6987 -0.8611
11332TIP3   OH233917   2.932   2.574   7.016 -0.2667 -0.0346  0.1904
11332TIP3    H133918   2.990   2.500   7.000 -0.1430  0.1367 -0.1630
11332TIP3    H233919   2.989   2.650   7.017 -0.6403  0.2790 -1.4589
11333TIP3   OH233920   3.431   2.271   5.310  0.1104  0.1153  0.1689
11333TIP3    H133921   3.403   2.313   5.392  1.5396  1.2276  0.1133
11333TIP3    H233922   3.384   2.188   5.309  0.2240 -0.0188  2.2454
11334TIP3   OH233923   5.500   1.748   6.668  0.3435  0.5080 -0.0499
11334TIP3    H133924   5.431   1.693   6.704  0.1560 -0.1628 -1.3738
11334TIP3    H233925   5.492   1.831   6.715  0.1723 -0.3615  1.4679
11335TIP3   OH233926   5.422   1.712   4.256  0.0535 -0.0696 -0.2734
11335TIP3    H133927   5.432   1.618   4.246 -1.7603 -0.2142 -0.9923
11335TIP3    H233928   5.384   1.741   4.173  0.1083  1.2118  0.1348
11336TIP3   OH233929   5.447   4.343   4.554  0.3063 -0.7908 -0.1646
11336TIP3    H133930   5.377   4.366   4.492  1.5750 -1.8078 -2.0179
11336TIP3    H233931   5.523   4.325   4.499  2.6121  2.1197  1.9031
11337TIP3   OH233932   6.860   5.659   0.501 -0.5375  0.2544  0.3794
11337TIP3    H133933   6.767   5.649   0.478 -0.5437  1.4828 -0.1796
11337TIP3    H233934   6.891   5.729   0.444  1.5892 -2.3425 -1.7718
11338TIP3   OH233935   4.771   2.302   5.554  0.1364  0.0219 -0.1140
11338TIP3    H133936   4.739   2.256   5.476  1.1182 -1.2663  0.2371
11338TIP3    H233937   4.700   2.362   5.577 -1.0983 -1.2084 -0.6706
11339TIP3   OH233938   6.219   7.210   0.591 -0.1635  0.3143  0.5176
11339TIP3    H133939   6.135   7.181   0.627  0.8503 -0.8772  2.0173
11339TIP3    H233940   6.229   7.160   0.510 -0.8175  0.3320  0.4235
11340TIP3   OH233941   2.561   4.028   7.165 -0.3380  0.2740 -0.0554
11340TIP3    H133942   2.655   4.014   7.163 -0.4683 -0.4726 -0.8885
11340TIP3    H233943   2.543   4.084   7.090 -0.4944  0.8869  0.4264
11341TIP3   OH233944   8.337   7.193   0.085  0.1023  0.0176  0.5901
11341TIP3    H133945   8.276   7.130   0.123 -0.6109  0.4840  0.2369
11341TIP3    H233946   8.384   7.230   0.160  0.1561 -0.5550  0.8378
11342TIP3   OH233947   6.771   4.558   4.444  0.4725 -0.3389 -0.4986
11342TIP3    H133948   6.758   4.616   4.369 -0.8319 -1.5998 -1.2818
11342TIP3    H233949   6.759   4.614   4.521  0.3447  0.6490 -1.2343
11343TIP3   OH233950   3.503   3.020   6.659 -0.5668 -0.2941 -0.0569
11343TIP3    H133951   3.559   3.095   6.638 -0.0820  0.6095  4.0725
11343TIP3    H233952   3.421   3.059   6.689 -1.2341 -1.4845 -0.3003
11344TIP3   OH233953   2.097   2.798   4.317  0.0169  0.7633 -0.1168
11344TIP3    H133954   2.129   2.845   4.240  1.1366  0.0026 -0.1195
11344TIP3    H233955   2.003   2.785   4.300 -0.0488  1.9212 -0.6627
11345TIP3   OH233956   7.278   1.645   5.188  0.0060  0.3320  0.0059
11345TIP3    H133957   7.233   1.641   5.104 -0.5309 -1.4925  0.3364
11345TIP3    H233958   7.321   1.559   5.196 -2.5002 -0.7607  2.9291
11346TIP3   OH233959   3.535   3.349   1.967 -0.4359 -0.2085 -0.5337
11346TIP3    H133960   3.485   3.425   1.936 -0.3872 -0.1978 -0.5865
11346TIP3    H233961   3.531   3.286   1.895 -1.8920 -0.9287  0.1647
11347TIP3   OH233962   6.780   3.007   3.751  0.8736 -0.1051  0.1330
11347TIP3    H133963   6.837   3.079   3.778  1.7527 -0.9408  0.5359
11347TIP3    H233964   6.742   3.036   3.668 -0.9760  2.0266  1.6753
11348TIP3   OH233965   8.113   6.853   0.827  0.2666 -0.2683  0.2175
11348TIP3    H133966   8.193   6.859   0.880  0.8631 -1.6131 -0.5151
11348TIP3    H233967   8.118   6.767   0.786  0.2866  1.0653 -2.7423
11349TIP3   OH233968   8.183   6.113   0.588 -0.4708 -0.0916  0.0769
11349TIP3    H133969   8.259   6.055   0.583 -0.8347 -0.6246  0.6356
11349TIP3    H233970   8.215   6.191   0.633  0.3632  0.7160 -1.8554
11350TIP3   OH233971   8.127   5.703   1.391 -0.0617 -0.4057 -0.0867
11350TIP3    H133972   8.107   5.782   1.440  0.3919 -0.8470  0.8152
11350TIP3    H233973   8.041   5.665   1.371 -0.2447 -0.2001  0.3155
11351TIP3   OH233974   4.121   1.918   6.310  0.1530  0.0159  0.0935
11351TIP3    H133975   4.136   1.874   6.226  0.1732  3.2631 -1.6862
11351TIP3    H233976   4.178   1.995   6.307 -0.9458  0.9650  2.4789
11352TIP3   OH233977   3.488   3.938   5.502  1.1791 -0.4866  0.2720
11352TIP3    H133978   3.582   3.927   5.492  1.0786 -0.9983 -0.1201
11352TIP3    H233979   3.451   3.854   5.475  0.5410  0.0746 -0.6161
11353TIP3   OH233980   8.121   3.723   5.984  0.1906  0.2891 -0.2898
11353TIP3    H133981   8.118   3.779   5.906 -0.6376  0.0736 -0.4186
11353TIP3    H233982   8.199   3.752   6.031  1.5755 -0.6115 -1.9715
11354TIP3   OH233983   5.021   1.971   7.138  0.1849 -0.3734 -0.0272
11354TIP3    H133984   5.061   2.001   7.220 -1.9062 -0.2397  0.9608
11354TIP3    H233985   5.021   2.049   7.082  0.9122 -0.2752  0.0976
11355TIP3   OH233986   5.486   1.648   7.043  0.1305  0.4998 -0.1832
11355TIP3    H133987   5.429   1.687   6.976 -1.3244 -0.2523  0.5810
11355TIP3    H233988   5.432   1.647   7.122  0.9259 -1.0100  0.3544
11356TIP3   OH233989   8.635   6.243   0.898 -0.0172  0.1581  0.1817
11356TIP3    H133990   8.624   6.291   0.817 -0.6918 -0.5631 -0.1674
11356TIP3    H233991   8.701   6.291   0.947  0.5108  0.4947 -0.8707
11357TIP3   OH233992   4.693   0.820   7.119 -0.1452  0.0033 -0.3493
11357TIP3    H133993   4.717   0.894   7.174  0.3993 -0.1584 -0.3620
11357TIP3    H233994   4.676   0.749   7.181  3.6778 -1.1232 -0.4537
11358TIP3   OH233995   4.887   3.331   2.633 -0.3731  0.1541 -0.2684
11358TIP3    H133996   4.823   3.398   2.655 -1.0858 -0.7260  0.3744
11358TIP3    H233997   4.962   3.380   2.598 -0.6334  1.3257  0.7784
11359TIP3   OH233998   4.472   3.339   4.989  0.7690 -0.3385  0.2858
11359TIP3    H133999   4.539   3.395   5.030  0.7116  1.3891 -1.8855
11359TIP3    H234000   4.518   3.258   4.967  1.4516 -0.2339  1.2925
11360TIP3   OH234001   8.762   6.459   0.207 -0.3869  0.1750 -0.4404
11360TIP3    H134002   8.759   6.542   0.255 -1.2154 -0.4843  0.6849
11360TIP3    H234003   8.813   6.401   0.263 -1.4111 -0.6205 -0.3149
11361TIP3   OH234004   2.902   4.318   7.205 -0.4478  0.0585 -0.2795
11361TIP3    H134005   2.944   4.235   7.226  2.4449  1.1777 -1.4498
11361TIP3    H234006   2.942   4.381   7.264 -0.6267  1.1264 -1.2922
11362TIP3   OH234007   7.549   0.843   5.263  0.1337 -0.1183 -0.0213
11362TIP3    H134008   7.561   0.938   5.254  0.3974 -0.1957 -0.5072
11362TIP3    H234009   7.562   0.827   5.356 -0.2357  0.3668  0.1183
11363TIP3   OH234010   1.026   1.129  -0.028 -0.4509  0.1919 -0.0159
11363TIP3    H134011   1.089   1.190   0.012 -0.5471  1.1210 -1.2748
11363TIP3    H234012   0.945   1.143   0.022  0.0004 -0.1768  0.8434
11364TIP3   OH234013   6.059   3.502   6.281  0.3425  0.2285 -0.1474
11364TIP3    H134014   6.003   3.564   6.327  2.0938  0.3855  1.8720
11364TIP3    H234015   5.999   3.437   6.244 -1.2216  0.9694  1.0391
11365TIP3   OH234016   6.024   0.610   6.086 -0.7663 -0.0463  0.6187
11365TIP3    H134017   5.950   0.667   6.105  0.4438  1.2436  1.5974
11365TIP3    H234018   6.055   0.581   6.171  0.4720  0.2447  0.2870
11366TIP3   OH234019   5.988   3.552   5.411 -0.0835 -0.0423 -0.5997
11366TIP3    H134020   5.984   3.463   5.377  1.6023 -0.2181 -0.3710
11366TIP3    H234021   6.079   3.579   5.398 -0.0445  0.8443  1.3311
11367TIP3   OH234022   2.345   3.020   2.871 -0.3228  0.2207 -0.4191
11367TIP3    H134023   2.340   3.106   2.829  0.4290  0.4194 -0.0996
11367TIP3    H234024   2.288   2.965   2.818  0.0940  0.6360 -1.3133
11368TIP3   OH234025   4.992   3.325   3.737  0.1689 -0.7064 -0.0226
11368TIP3    H134026   4.964   3.387   3.806 -0.7916 -2.0178  0.7944
11368TIP3    H234027   5.087   3.334   3.735  0.0110  1.2596 -0.3591
11369TIP3   OH234028   5.816   2.747   5.870 -0.1910 -0.4659 -0.4639
11369TIP3    H134029   5.831   2.683   5.800  0.8577 -0.5929 -0.1449
11369TIP3    H234030   5.890   2.808   5.862 -0.8319  0.3237 -0.3536
11370TIP3   OH234031   5.108   2.523   5.745  0.1845  0.7904  0.1644
11370TIP3    H134032   5.080   2.444   5.791 -3.2811  0.4000 -2.4312
11370TIP3    H234033   5.122   2.495   5.655  5.1849  1.8995  0.4508
11371TIP3   OH234034   5.534   2.069   6.201 -0.0481 -0.9005  0.0958
11371TIP3    H134035   5.628   2.058   6.217  0.0813 -4.6500 -2.4914
11371TIP3    H234036   5.491   2.030   6.277  0.4833 -0.5994  0.5528
11372TIP3   OH234037   3.900   2.951   5.981  0.3691  0.2118  0.3861
11372TIP3    H134038   3.906   2.922   6.072  2.4351 -0.1505  0.1717
11372TIP3    H234039   3.950   3.033   5.978  0.9995 -0.1902 -0.5711
11373TIP3   OH234040   6.633   8.091   0.571 -0.3256 -0.0693  0.7580
11373TIP3    H134041   6.663   8.043   0.494 -0.8755 -0.7216  0.9494
11373TIP3    H234042   6.576   8.159   0.536  0.0397  0.1196  0.5278
11374TIP3   OH234043   8.674   1.990   4.118  0.5925  0.0986 -0.8729
11374TIP3    H134044   8.719   2.070   4.090 -1.4047  1.3049 -0.7401
11374TIP3    H234045   8.595   2.022   4.162 -0.3333 -1.9709 -1.0228
11375TIP3   OH234046   3.962   2.644   7.211  0.2535 -0.0379  0.4453
11375TIP3    H134047   3.968   2.677   7.122  0.8609 -0.8412  0.1883
11375TIP3    H234048   3.869   2.645   7.231  0.1498  0.5002 -0.0649
11376TIP3   OH234049   4.988   0.494   4.897  0.1854  0.2360 -0.5596
11376TIP3    H134050   5.079   0.490   4.868  0.2387  1.0438 -0.5252
11376TIP3    H234051   4.937   0.480   4.817  0.3229 -2.9418 -0.1391
11377TIP3   OH234052   7.151   7.780   1.076 -0.5543 -0.3059 -0.0088
11377TIP3    H134053   7.065   7.767   1.037 -1.5407  1.1502  1.5870
11377TIP3    H234054   7.140   7.751   1.167  0.7321 -0.4332  0.1067
11378TIP3   OH234055   4.256   2.705   4.086 -0.6126  0.2927 -0.0552
11378TIP3    H134056   4.162   2.715   4.101 -0.4446 -0.6083  1.7003
11378TIP3    H234057   4.285   2.643   4.153  1.3796  1.1627 -0.0759
11379TIP3   OH234058   5.744   3.046   3.853  0.4736  0.1225  0.0601
11379TIP3    H134059   5.820   2.987   3.853 -0.2286 -0.8529  2.3964
11379TIP3    H234060   5.727   3.063   3.946 -0.4733  2.5646 -0.5121
11380TIP3   OH234061   1.535   2.898   6.184  0.6589  0.4679 -0.3611
11380TIP3    H134062   1.480   2.887   6.261  4.3970  0.2388  2.3917
11380TIP3    H234063   1.514   2.986   6.151 -0.0772  1.0672  1.6524
11381TIP3   OH234064   5.997   1.434   5.118  0.1091 -0.1088 -0.2745
11381TIP3    H134065   5.969   1.363   5.175  0.5498 -0.7160 -0.8017
11381TIP3    H234066   6.065   1.395   5.063 -0.5855  0.3538 -1.4770
11382TIP3   OH234067   5.930   1.023   5.367 -0.3198  0.6460  0.0216
11382TIP3    H134068   5.975   1.010   5.451 -0.6552  0.4326  0.1691
11382TIP3    H234069   5.999   1.051   5.307  0.5859 -2.5104 -0.4777
11383TIP3   OH234070   6.968   2.700   3.589 -0.1523 -0.1207  0.5924
11383TIP3    H134071   6.875   2.709   3.609  0.0491 -1.7266  2.3406
11383TIP3    H234072   7.005   2.650   3.662  2.1799  0.8646  0.1588
11384TIP3   OH234073   5.682   2.353   5.200  0.1391  0.5475  0.2950
11384TIP3    H134074   5.670   2.304   5.281  0.7697  0.0174  0.0677
11384TIP3    H234075   5.729   2.432   5.226  1.0120  0.0155  0.3273
11385TIP3   OH234076   8.332   6.409   1.127 -0.7664 -0.3477  0.3793
11385TIP3    H134077   8.403   6.363   1.172  0.7471  1.6319  0.0887
11385TIP3    H234078   8.260   6.345   1.124  0.5434 -1.9482  1.8251
11386TIP3   OH234079   7.202   0.617   5.429  0.0370  0.0769  0.5355
11386TIP3    H134080   7.219   0.555   5.500 -0.8254 -1.8402 -0.8626
11386TIP3    H234081   7.258   0.692   5.448 -0.2517 -0.3373  3.2731
11387TIP3   OH234082   6.037   3.116   6.822 -0.1181  0.5445 -0.3627
11387TIP3    H134083   5.947   3.131   6.851 -0.1896 -0.8774  0.1994
11387TIP3    H234084   6.079   3.201   6.829 -1.0535  0.9330  0.7245
11388TIP3   OH234085   6.557   1.028   6.589  0.1421 -0.3393 -0.2660
11388TIP3    H134086   6.549   1.086   6.514  2.2325 -2.2500 -2.0246
11388TIP3    H234087   6.650   1.026   6.609 -0.5894  1.8020  3.7820
11389TIP3   OH234088   8.821   6.726   0.309  0.2258 -0.2495  0.6747
11389TIP3    H134089   8.903   6.750   0.352 -0.4619 -0.5354  2.1851
11389TIP3    H234090   8.765   6.802   0.320  0.6378  0.3454 -1.2840
11390TIP3   OH234091   8.354   5.827   0.013  0.6927  0.2363  0.0604
11390TIP3    H134092   8.426   5.795   0.067  1.3859  1.2442 -0.2278
11390TIP3    H234093   8.333   5.913   0.050 -0.9558 -0.4170  0.6730
11391TIP3   OH234094   3.942   3.522   6.379 -0.1070 -0.1716  0.3151
11391TIP3    H134095   3.940   3.555   6.468 -0.3467  1.3521 -0.2401
11391TIP3    H234096   3.911   3.595   6.325  1.3931 -0.5893 -1.1592
11392TIP3   OH234097   2.777   3.038   6.819 -0.0860  0.0183  0.1103
11392TIP3    H134098   2.791   3.061   6.911 -0.1762  0.6320 -0.0308
11392TIP3    H234099   2.830   2.959   6.806  1.9689  1.3633  0.0164
11393TIP3   OH234100   5.975   2.920   4.704 -0.3776  0.2653  0.0429
11393TIP3    H134101   5.932   2.895   4.623  0.7738 -0.4553 -0.3629
11393TIP3    H234102   5.995   3.013   4.693  0.4323 -0.0008 -0.8135
11394TIP3   OH234103   3.704   1.494   4.292  0.2383  0.1141 -0.0299
11394TIP3    H134104   3.673   1.533   4.211  0.9482  2.1538  0.6501
11394TIP3    H234105   3.625   1.482   4.345 -0.0807 -0.1845 -0.5599
11395TIP3   OH234106   4.273   4.772   4.963 -0.3765  0.1212 -0.1129
11395TIP3    H134107   4.183   4.746   4.945 -0.6587  1.0487 -0.0767
11395TIP3    H234108   4.275   4.788   5.058  0.2320 -1.4221  0.1514
11396TIP3   OH234109   6.643   2.487   6.293  0.4412  0.3893 -0.5701
11396TIP3    H134110   6.595   2.559   6.333  1.2335  0.3617  0.4571
11396TIP3    H234111   6.652   2.511   6.201 -1.0235  0.6625 -0.6456
11397TIP3   OH234112   7.664   7.208   0.718 -0.3617 -0.4520 -0.3519
11397TIP3    H134113   7.739   7.247   0.674  0.7025 -1.1492  0.8208
11397TIP3    H234114   7.653   7.259   0.798 -0.3275 -1.1606  0.1110
11398TIP3   OH234115   7.454   2.459   4.370 -0.4601 -0.3489  0.2873
11398TIP3    H134116   7.460   2.366   4.394  2.0427 -0.0674  0.8534
11398TIP3    H234117   7.427   2.503   4.451  0.0172 -0.3707  0.4559
11399TIP3   OH234118   5.962   2.312   5.055  0.2205 -0.0174 -0.1495
11399TIP3    H134119   5.968   2.376   4.984 -0.7997 -0.5043 -0.6893
11399TIP3    H234120   5.868   2.295   5.064  0.4429 -0.9963  0.3926
11400TIP3   OH234121   6.098   2.789   6.399 -0.2654  0.2875 -0.3367
11400TIP3    H134122   6.064   2.791   6.309  0.1149 -0.3029 -0.4958
11400TIP3    H234123   6.038   2.845   6.448 -1.2664 -0.4849 -0.6793
11401TIP3   OH234124   3.304   3.467   6.738  0.2548 -1.0540 -0.2838
11401TIP3    H134125   3.221   3.420   6.734 -0.5145  0.2965 -0.6003
11401TIP3    H234126   3.281   3.558   6.719  1.9223 -0.7909 -1.1497
11402TIP3   OH234127   6.224   2.333   4.122 -0.4863  0.3002  0.3446
11402TIP3    H134128   6.214   2.403   4.186  0.0655  0.4781  0.2357
11402TIP3    H234129   6.278   2.370   4.053 -1.4944  0.2745 -0.4793
11403TIP3   OH234130   5.060   4.098   5.819 -0.2995 -0.2395  0.0812
11403TIP3    H134131   5.115   4.037   5.869  0.1387  0.1438  0.0784
11403TIP3    H234132   5.113   4.121   5.743 -1.3119 -1.4669 -0.9971
11404TIP3   OH234133   6.701   2.780   4.702 -0.1806 -0.1759 -0.6188
11404TIP3    H134134   6.684   2.852   4.640 -1.2111 -0.1641 -0.3159
11404TIP3    H234135   6.619   2.767   4.748  0.8330  0.4685  1.4574
11405TIP3   OH234136   7.811   5.274   0.362  0.0159  0.6900  0.0743
11405TIP3    H134137   7.771   5.326   0.432 -1.5438  0.3264 -0.5446
11405TIP3    H234138   7.803   5.184   0.392 -2.6694  0.3423 -1.5507
11406TIP3   OH234139   5.162   2.947   3.929 -0.1399 -0.1491  0.0934
11406TIP3    H134140   5.145   2.859   3.962  0.2694 -0.2336  0.0713
11406TIP3    H234141   5.080   2.995   3.946  1.0581  0.6820  4.0343
11407TIP3   OH234142   7.890   5.005   1.014  0.3338 -0.5193  0.0471
11407TIP3    H134143   7.825   5.061   1.057  0.3589  0.5038 -1.1853
11407TIP3    H234144   7.965   5.006   1.073 -0.7423 -1.6946  1.4720
11408TIP3   OH234145   3.549   0.106   4.649 -0.1045 -0.6843  0.7773
11408TIP3    H134146   3.508   0.118   4.564 -0.0206 -0.0979  0.8165
11408TIP3    H234147   3.643   0.108   4.632 -0.0875 -0.6243  0.8766
11409TIP3   OH234148   4.133   3.290   6.410 -0.2979  0.1506 -0.3153
11409TIP3    H134149   4.094   3.377   6.417 -1.4996 -0.4351  0.5156
11409TIP3    H234150   4.089   3.250   6.335  0.0879  0.1660 -0.5532
11410TIP3   OH234151   5.397   2.334   5.748 -0.5307 -0.0141  0.2149
11410TIP3    H134152   5.417   2.391   5.674  1.5054 -0.8966  0.0501
11410TIP3    H234153   5.449   2.369   5.820 -0.8168 -0.4571  0.6396
11411TIP3   OH234154   4.598   3.868   6.624  0.3207 -0.0488  0.2212
11411TIP3    H134155   4.600   3.877   6.529 -2.0077 -0.0760  0.1388
11411TIP3    H234156   4.603   3.773   6.638  1.8078  0.0201  0.1743
11412TIP3   OH234157   6.703   2.753   7.055 -0.1733 -0.0155  0.0755
11412TIP3    H134158   6.739   2.840   7.038  0.3037 -0.3975 -0.9326
11412TIP3    H234159   6.722   2.736   7.147  0.7998  0.4547 -0.0333
11413TIP3   OH234160   4.093   3.808   4.783  0.8124 -0.1708  0.4681
11413TIP3    H134161   4.067   3.729   4.830 -2.2957  0.7030  0.3807
11413TIP3    H234162   4.123   3.776   4.698 -0.9192 -1.2777  0.2298
11414TIP3   OH234163   6.976   2.586   5.740  0.3453 -0.3202  0.1083
11414TIP3    H134164   6.974   2.516   5.674 -0.8207 -1.0904  0.9402
11414TIP3    H234165   6.970   2.539   5.824 -1.3904  0.8343  0.6375
11415TIP3   OH234166   0.923   7.276   0.183  0.5693 -0.2787 -0.9860
11415TIP3    H134167   0.891   7.318   0.103  0.5725  0.0068 -0.8377
11415TIP3    H234168   0.862   7.203   0.198 -1.4868  1.7070  0.6393
11416TIP3   OH234169   6.640   1.732   6.634 -0.0955 -0.4084  0.1653
11416TIP3    H134170   6.701   1.759   6.565 -2.1496  0.2617 -1.4058
11416TIP3    H234171   6.655   1.794   6.705  0.8401 -0.0660 -0.3246
11417TIP3   OH234172   4.605   3.568   6.644 -0.2677  0.2038 -0.1004
11417TIP3    H134173   4.628   3.552   6.735 -1.0590 -0.4903 -0.0148
11417TIP3    H234174   4.664   3.512   6.594  0.7797  1.2630 -0.0608
11418TIP3   OH234175   7.252   6.741   1.254 -0.0664 -0.3643 -0.4209
11418TIP3    H134176   7.344   6.716   1.262 -0.3710 -1.0390  1.2032
11418TIP3    H234177   7.238   6.802   1.327 -0.7668  0.1922 -1.0094
11419TIP3   OH234178   5.886   1.311   7.243 -0.0815  0.0181 -0.1345
11419TIP3    H134179   5.811   1.342   7.192  0.0699  0.3199 -0.1751
11419TIP3    H234180   5.849   1.283   7.326 -0.6178 -2.4049 -1.1513
11420TIP3   OH234181   8.737   7.307   1.056  0.0173  0.1324  1.1278
11420TIP3    H134182   8.644   7.312   1.031  0.8681 -0.0889 -2.3490
11420TIP3    H234183   8.756   7.392   1.095 -0.7117  1.7691 -1.8587
11421TIP3   OH234184   4.386   4.287   6.978 -0.3936 -0.0347 -0.0910
11421TIP3    H134185   4.294   4.281   6.950 -0.0009 -3.2787 -0.9100
11421TIP3    H234186   4.435   4.244   6.908  1.3141 -2.1092  2.2659
11422TIP3   OH234187   4.883   2.810   6.563  0.0398  0.8667 -0.6092
11422TIP3    H134188   4.918   2.778   6.480  1.0126  0.4350 -0.0423
11422TIP3    H234189   4.897   2.738   6.624  1.0390  1.8619  0.3593
11423TIP3   OH234190   6.002   2.905   6.177  0.5138  0.3128 -0.2846
11423TIP3    H134191   6.060   2.959   6.124  2.4281 -0.1900  1.2456
11423TIP3    H234192   5.919   2.903   6.128  1.6111  1.4606 -2.2353
11424TIP3   OH234193   5.384   2.744   5.796 -0.0673 -0.1182  0.1846
11424TIP3    H134194   5.298   2.716   5.764  0.5766 -0.6284 -1.1502
11424TIP3    H234195   5.428   2.777   5.718  0.2752  1.8737  1.2165
11425TIP3   OH234196   3.787   3.759   4.444  0.0338 -0.2917 -0.3184
11425TIP3    H134197   3.693   3.776   4.445  0.1233  0.2287 -0.8691
11425TIP3    H234198   3.794   3.664   4.444 -0.4863 -0.3354  0.2169
11426TIP3   OH234199   4.203   2.684   5.328 -0.4969  0.2134  0.3048
11426TIP3    H134200   4.281   2.663   5.277 -0.8348  1.2077 -0.6726
11426TIP3    H234201   4.210   2.778   5.344 -1.5101  0.3156  0.1744
11427TIP3   OH234202   5.893   2.144   4.708  0.2871  0.3346  0.1901
11427TIP3    H134203   5.987   2.160   4.702  0.1427  0.8075 -0.9410
11427TIP3    H234204   5.884   2.051   4.684  0.3710  0.5637 -0.7832
11428TIP3   OH234205   7.104   3.727   6.229 -0.1813  0.4038 -0.5623
11428TIP3    H134206   7.037   3.794   6.237 -1.2577 -0.7534  0.2353
11428TIP3    H234207   7.146   3.724   6.315 -2.1084 -1.9728  0.3454
11429TIP3   OH234208   7.557   5.248   5.074 -0.1760 -0.3820  0.2927
11429TIP3    H134209   7.578   5.232   5.166  0.9927  0.2484  0.1513
11429TIP3    H234210   7.498   5.322   5.075  1.8968  1.3138  0.4052
11430TIP3   OH234211   6.182   3.075   6.378  0.2309 -0.0150  0.4408
11430TIP3    H134212   6.110   3.018   6.351 -0.2165 -0.3867  2.3457
11430TIP3    H234213   6.260   3.021   6.368  0.1670  0.1171 -0.8439
11431TIP3   OH234214   7.027   3.469   4.098 -0.1161 -0.9885  0.2094
11431TIP3    H134215   6.957   3.475   4.163  0.0220 -3.0132  0.5931
11431TIP3    H234216   7.076   3.550   4.107 -2.6932  0.7081 -0.4182
11432TIP3   OH234217   5.836   2.777   7.068  0.3091  0.9449  0.0594
11432TIP3    H134218   5.918   2.769   7.019 -0.2871  1.3166 -1.0355
11432TIP3    H234219   5.804   2.687   7.076  0.0570  0.9379 -0.8868
11433TIP3   OH234220   6.939   2.633   4.902 -0.0783 -0.1518  0.3055
11433TIP3    H134221   6.861   2.584   4.928 -0.4113 -0.3404 -1.0196
11433TIP3    H234222   6.905   2.712   4.861  0.4451  1.9776  3.7225
11434TIP3   OH234223   6.440   0.904   6.320  0.0147 -0.0646 -0.0679
11434TIP3    H134224   6.451   0.904   6.225  1.7156 -2.7904  0.0770
11434TIP3    H234225   6.529   0.904   6.354 -0.5866 -0.4548  1.5243
11435TIP3   OH234226   7.217   2.665   3.993 -0.4316 -0.3304 -0.4577
11435TIP3    H134227   7.252   2.746   3.957  0.1710  0.1158  1.0690
11435TIP3    H234228   7.295   2.617   4.023 -0.9568 -0.3017  1.0039
11436TIP3   OH234229   4.596   4.215   4.263  0.1227  0.0030  0.3649
11436TIP3    H134230   4.653   4.153   4.217 -0.0921  0.2522 -0.2418
11436TIP3    H234231   4.650   4.248   4.335  0.5080 -0.2889  0.2130
11437TIP3   OH234232   5.339   0.153   6.740  0.1758 -0.2168 -0.6456
11437TIP3    H134233   5.245   0.169   6.730  0.0050 -0.5755  0.3524
11437TIP3    H234234   5.374   0.238   6.767 -0.1104 -0.4599  0.5471
11438TIP3   OH234235   5.789   4.132   5.770 -0.6405 -0.0707  0.2975
11438TIP3    H134236   5.722   4.069   5.746 -0.2556 -0.1781 -0.5084
11438TIP3    H234237   5.767   4.158   5.860 -0.6755 -1.5042  0.7181
11439TIP3   OH234238   7.399   3.258   5.059  0.1152  0.1583  0.0270
11439TIP3    H134239   7.476   3.260   5.115  0.6051  1.4392 -0.6509
11439TIP3    H234240   7.423   3.202   4.986  0.5438  0.8254 -0.3532
11440TIP3   OH234241   7.356   3.871   5.986  0.2510  0.3178  0.4542
11440TIP3    H134242   7.264   3.888   6.009 -0.9144 -1.5253 -2.5377
11440TIP3    H234243   7.372   3.925   5.909  0.8689 -1.2543 -0.5555
11441TIP3   OH234244   3.422   2.547   4.571 -0.1194  0.2617  0.0930
11441TIP3    H134245   3.354   2.496   4.614 -0.8867  0.5096 -0.8323
11441TIP3    H234246   3.473   2.584   4.643  0.3521 -1.6464  0.7850
11442TIP3   OH234247   5.469   3.233   3.728 -0.1294 -0.7190 -0.5514
11442TIP3    H134248   5.556   3.209   3.695 -0.0869 -0.6861 -0.4659
11442TIP3    H234249   5.455   3.322   3.696  0.1619 -0.4678  0.0032
11443TIP3   OH234250   4.104   2.764   5.738  0.2265 -0.9379 -0.1493
11443TIP3    H134251   4.019   2.798   5.711  0.6418 -0.1168 -0.4406
11443TIP3    H234252   4.099   2.759   5.834  0.1586 -0.0580 -0.1029
11444TIP3   OH234253   4.389   1.251   4.867 -0.0879  0.0128  0.1266
11444TIP3    H134254   4.481   1.266   4.845  0.3944 -1.0482  1.3385
11444TIP3    H234255   4.353   1.204   4.791  0.4132  0.2707 -0.2722
11445TIP3   OH234256   4.991   4.159   7.164 -0.5241  0.7547 -0.6176
11445TIP3    H134257   5.065   4.215   7.141  1.3804 -1.1469  0.6601
11445TIP3    H234258   4.992   4.090   7.097  0.3651 -0.5940  0.7598
11446TIP3   OH234259   2.159   4.612   0.054  0.0711  0.0908 -0.0256
11446TIP3    H134260   2.229   4.677   0.063  0.1330  0.0964 -0.5690
11446TIP3    H234261   2.079   4.660   0.077  0.0855  0.4287 -0.6807
11447TIP3   OH234262   6.923   4.468   5.021 -0.0383  0.2096 -0.2887
11447TIP3    H134263   6.878   4.453   5.103 -0.3035 -1.1685 -0.6742
11447TIP3    H234264   6.855   4.497   4.961 -0.3893 -1.6311 -0.8041
11448TIP3   OH234265   5.817   7.701   1.012 -0.4191 -0.1982 -0.0899
11448TIP3    H134266   5.787   7.648   0.938  0.0824  0.1087 -0.5160
11448TIP3    H234267   5.809   7.791   0.982 -0.7184 -0.0493  0.4250
11449TIP3   OH234268   4.806   2.776   5.541  0.3439 -0.5577 -0.0877
11449TIP3    H134269   4.863   2.702   5.519  1.1007  0.4282 -1.5468
11449TIP3    H234270   4.785   2.763   5.633  2.6571 -1.1384  0.3941
11450TIP3   OH234271   8.249   1.187   6.910 -0.4099 -0.2294  0.3529
11450TIP3    H134272   8.343   1.175   6.928 -0.3461  0.8997  0.7813
11450TIP3    H234273   8.211   1.100   6.923  0.3472 -0.3892  1.6263
11451TIP3   OH234274   7.035   1.582   5.323  0.6031  0.2409 -0.6896
11451TIP3    H134275   6.983   1.662   5.325  1.7577  0.9564  2.1567
11451TIP3    H234276   7.121   1.610   5.292  0.7281 -0.0714 -0.6226
11452TIP3   OH234277   2.759   2.649   5.710 -0.0216 -0.2232 -0.3057
11452TIP3    H134278   2.723   2.584   5.651  0.9603  0.1481 -1.3258
11452TIP3    H234279   2.799   2.598   5.781 -1.7178 -0.6533  0.3643
11453TIP3   OH234280   8.303   2.396   4.011  0.1088  0.3335  0.2071
11453TIP3    H134281   8.396   2.377   4.016  0.1439  0.5650  0.4194
11453TIP3    H234282   8.290   2.437   3.926  0.2264  0.4487  0.2456
11454TIP3   OH234283   4.581   1.494   5.724  0.1198  0.1394  0.1254
11454TIP3    H134284   4.504   1.444   5.696 -0.4262  1.1066 -0.1185
11454TIP3    H234285   4.551   1.585   5.725  1.1195  0.4642  0.5275
11455TIP3   OH234286   8.511   0.769   0.448 -0.2295  0.2185  0.3095
11455TIP3    H134287   8.463   0.688   0.432 -0.3699  0.6141 -1.4813
11455TIP3    H234288   8.491   0.824   0.372 -0.5951  2.1597  1.7645
11456TIP3   OH234289   8.465   7.062   2.137  0.3106 -0.3681 -0.4905
11456TIP3    H134290   8.555   7.030   2.131  0.3467  0.0387 -2.4983
11456TIP3    H234291   8.470   7.152   2.104 -0.4804  0.3622  1.3534
11457TIP3   OH234292   4.503   2.199   5.808  0.4267 -0.0691  0.8627
11457TIP3    H134293   4.532   2.253   5.734  0.5690 -0.2629  0.7766
11457TIP3    H234294   4.411   2.223   5.821  0.4872  0.1869  0.8183
11458TIP3   OH234295   6.252   4.027   6.168 -0.2092  0.1502 -0.3747
11458TIP3    H134296   6.290   4.104   6.210  0.1814  0.1636 -0.7420
11458TIP3    H234297   6.310   3.955   6.193 -0.2386  0.0802 -0.5065
11459TIP3   OH234298   2.063   5.726   0.420 -0.5753 -0.6798  0.1547
11459TIP3    H134299   1.992   5.675   0.459 -1.0485 -1.3816 -1.5581
11459TIP3    H234300   2.118   5.661   0.377 -1.0945  0.2036 -1.9173
11460TIP3   OH234301   7.668   8.148   0.075  0.1838  0.3369 -0.3297
11460TIP3    H134302   7.621   8.087   0.019  0.3425 -0.1218  0.0286
11460TIP3    H234303   7.737   8.095   0.115  1.2027  1.0695 -1.0887
11461TIP3   OH234304   4.831   4.587   7.147 -0.0901  0.1069 -0.2792
11461TIP3    H134305   4.736   4.578   7.155  0.1379 -2.1901  0.3898
11461TIP3    H234306   4.852   4.552   7.061  0.0117  2.0521 -1.0654
11462TIP3   OH234307   3.101   5.005   6.586  0.2203  0.0500 -0.0882
11462TIP3    H134308   3.159   5.023   6.513 -0.5096 -1.9709 -1.1952
11462TIP3    H234309   3.045   5.083   6.592  0.5882  0.4163 -1.3727
11463TIP3   OH234310   7.325   2.139   5.355  0.2487  0.1853  0.7010
11463TIP3    H134311   7.364   2.055   5.334 -0.5708 -0.2164  0.7752
11463TIP3    H234312   7.287   2.170   5.273 -1.5401 -0.6376  1.1820
11464TIP3   OH234313   3.786   4.371   5.893  0.1121 -0.2128 -0.6451
11464TIP3    H134314   3.709   4.426   5.907  0.3187 -0.0168 -0.2802
11464TIP3    H234315   3.818   4.396   5.806 -0.3476 -0.4290 -0.8763
11465TIP3   OH234316   7.001   7.335   0.373 -0.2457  0.2668  0.4211
11465TIP3    H134317   7.076   7.394   0.370 -1.1281  1.5080  1.9815
11465TIP3    H234318   6.925   7.392   0.356 -1.0708 -0.4803  1.5230
11466TIP3   OH234319   4.876   3.602   4.628 -0.2588  0.1150 -0.0950
11466TIP3    H134320   4.814   3.644   4.688 -1.6623 -0.7782 -0.9167
11466TIP3    H234321   4.868   3.508   4.647 -0.6746 -0.1753 -1.6340
11467TIP3   OH234322   6.797   7.558   0.111  0.1598 -0.0234 -0.0171
11467TIP3    H134323   6.727   7.623   0.121 -0.5649 -0.9673  1.1332
11467TIP3    H234324   6.755   7.485   0.066  0.0098 -1.1985  1.9830
11468TIP3   OH234325   0.661   7.714   0.589 -0.3418 -0.3864 -0.0178
11468TIP3    H134326   0.640   7.734   0.498 -0.4381 -1.3404 -0.2167
11468TIP3    H234327   0.715   7.635   0.583  0.9315  0.4141  0.6613
11469TIP3   OH234328   0.727   5.568   0.338  0.4819 -0.1614  0.1718
11469TIP3    H134329   0.713   5.520   0.257 -0.7411 -0.2362  0.4162
11469TIP3    H234330   0.716   5.660   0.313  0.7641 -0.1446  0.1157
11470TIP3   OH234331   0.844   4.880   0.195  0.6140  0.1869 -0.0172
11470TIP3    H134332   0.819   4.787   0.188 -3.1738  1.1287 -0.1426
11470TIP3    H234333   0.834   4.900   0.288  0.1441  0.7939 -0.1972
11471TIP3   OH234334   4.965   1.594   6.498  0.0189  0.1718  0.1721
11471TIP3    H134335   5.022   1.575   6.573 -2.7569  1.0896  2.6063
11471TIP3    H234336   4.891   1.642   6.536 -0.8300  1.8337 -3.3766
11472TIP3   OH234337   5.836   1.605   7.149 -0.4271  0.0470  0.0393
11472TIP3    H134338   5.823   1.522   7.104 -0.0033  0.7849 -1.4737
11472TIP3    H234339   5.931   1.618   7.149 -0.5248  0.7561 -0.1265
11473TIP3   OH234340   6.401   2.322   6.540  0.0141  0.7487 -0.2653
11473TIP3    H134341   6.468   2.312   6.607 -3.8626 -0.4003  3.6404
11473TIP3    H234342   6.378   2.415   6.542 -1.9147  0.2623  1.9426
11474TIP3   OH234343   7.117   5.541   0.064 -0.5095  0.0118  0.1673
11474TIP3    H134344   7.091   5.477  -0.003  0.1043  1.8035 -1.8415
11474TIP3    H234345   7.165   5.489   0.129 -1.2186 -1.7977 -0.7126
11475TIP3   OH234346   5.888   2.490   5.321  0.5025 -0.0488 -0.5796
11475TIP3    H134347   5.936   2.407   5.323 -1.3406 -1.1807 -2.5480
11475TIP3    H234348   5.934   2.543   5.256  0.3151 -0.3780 -0.9814
11476TIP3   OH234349   5.191   4.362   6.316  0.1703  0.5672 -0.2265
11476TIP3    H134350   5.240   4.392   6.392 -0.0436  0.0806  0.1056
11476TIP3    H234351   5.143   4.439   6.285  1.3776  1.1275 -0.7343
11477TIP3   OH234352   3.380   4.455   5.350 -0.1907 -0.8939  0.2099
11477TIP3    H134353   3.450   4.434   5.288 -0.0643 -0.8674  0.3457
11477TIP3    H234354   3.308   4.395   5.325 -0.4853 -0.2213 -0.5758
11478TIP3   OH234355   6.132   1.256   5.462  0.3989 -0.3797  0.2301
11478TIP3    H134356   6.137   1.342   5.503 -0.0540 -0.4493  0.4366
11478TIP3    H234357   6.223   1.227   5.453  0.6828  1.1258 -1.9443
11479TIP3   OH234358   5.283   3.490   3.275  0.1969 -0.2118  0.5269
11479TIP3    H134359   5.379   3.492   3.268  0.0241  0.3583 -2.6381
11479TIP3    H234360   5.256   3.426   3.210 -1.6054  0.1294  0.9271
11480TIP3   OH234361   5.039   3.667   5.009  0.2989 -0.1347 -0.0491
11480TIP3    H134362   4.999   3.588   4.973  0.7892 -0.0112 -0.8709
11480TIP3    H234363   5.004   3.673   5.098 -0.7352 -0.5650 -0.4262
11481TIP3   OH234364   6.126   1.206   6.978 -0.1878 -0.0132  0.0315
11481TIP3    H134365   6.091   1.119   6.959  0.1903 -0.0888 -0.3188
11481TIP3    H234366   6.221   1.198   6.964  0.2039 -0.2297  2.4837
11482TIP3   OH234367   0.373   6.177   0.158 -0.1190 -0.7307  0.7751
11482TIP3    H134368   0.412   6.254   0.116  1.8746 -1.6912  0.8022
11482TIP3    H234369   0.299   6.212   0.209  0.6136  1.1230  0.5989
11483TIP3   OH234370   3.050   2.716   4.908  0.5919  0.1636  0.1422
11483TIP3    H134371   3.032   2.784   4.972 -1.6024  0.3030 -0.5608
11483TIP3    H234372   2.963   2.693   4.872  1.7003 -0.1821 -2.4668
11484TIP3   OH234373   0.703   5.892   0.581  0.1405 -0.1321  0.0040
11484TIP3    H134374   0.791   5.927   0.568  0.0504 -0.4868 -1.6145
11484TIP3    H234375   0.671   5.937   0.659  1.2084  1.0587 -0.2249
11485TIP3   OH234376   6.035   3.596   4.173 -0.7335 -0.6011  0.0950
11485TIP3    H134377   6.047   3.527   4.108 -1.4639 -0.0314 -0.6378
11485TIP3    H234378   5.976   3.659   4.132 -0.1648  0.4089  0.8051
11486TIP3   OH234379   6.930   3.376   7.210  0.2247 -0.3310  0.1616
11486TIP3    H134380   6.870   3.324   7.263 -2.6649  2.1033 -0.5261
11486TIP3    H234381   6.913   3.349   7.120 -0.5510  0.9687 -0.1097
11487TIP3   OH234382   6.572   3.484   6.913 -0.1661 -0.1136  0.2202
11487TIP3    H134383   6.650   3.470   6.859  0.7393  0.3278  1.3807
11487TIP3    H234384   6.606   3.492   7.002 -1.7044 -1.5527  0.9551
11488TIP3   OH234385   6.338   1.819   6.646 -0.1547  0.2151  0.3012
11488TIP3    H134386   6.349   1.908   6.614 -2.0520 -1.0121 -4.0806
11488TIP3    H234387   6.422   1.776   6.626 -0.3902  0.1564 -0.5490
11489TIP3   OH234388   6.820   3.552   4.261 -0.0589  0.9863  0.3263
11489TIP3    H134389   6.740   3.520   4.303  0.0029  1.6242  0.9399
11489TIP3    H234390   6.848   3.625   4.315  1.3662  0.3011  0.5452
11490TIP3   OH234391   7.054   2.157   6.451  0.2668  0.1171 -0.0222
11490TIP3    H134392   7.015   2.133   6.367 -0.3494  2.4173 -0.4391
11490TIP3    H234393   7.119   2.223   6.429  0.0361  0.8106  1.3109
11491TIP3   OH234394   5.510   2.234   4.055 -0.2136 -0.0173 -0.4202
11491TIP3    H134395   5.529   2.147   4.019 -1.6517  0.7859 -3.2448
11491TIP3    H234396   5.583   2.289   4.025 -0.0565  0.1031  0.1574
11492TIP3   OH234397   6.550   0.939   5.391  0.0912 -0.3615 -0.1358
11492TIP3    H134398   6.581   0.945   5.481  2.5726  0.6374 -1.0257
11492TIP3    H234399   6.628   0.922   5.339 -1.1929 -0.1981 -2.1930
11493TIP3   OH234400   6.539   2.626   6.878 -0.2275  0.1942 -0.0430
11493TIP3    H134401   6.600   2.609   6.807 -0.8183  2.0159 -1.0287
11493TIP3    H234402   6.591   2.671   6.945  0.0585 -0.4698  0.1859
11494TIP3   OH234403   6.107   0.879   3.744  1.1447 -0.2600  0.3130
11494TIP3    H134404   6.044   0.839   3.804  0.4465 -0.0487 -0.2730
11494TIP3    H234405   6.137   0.957   3.789  0.7080 -0.1656  0.4425
11495TIP3   OH234406   8.898   3.892   6.864  0.0470  0.3771 -0.8241
11495TIP3    H134407   8.961   3.927   6.926 -0.2168  0.5063 -0.6251
11495TIP3    H234408   8.825   3.863   6.918 -0.8762  1.9478 -1.1887
11496TIP3   OH234409   6.648   3.295   2.529  0.0915  0.0207  0.3204
11496TIP3    H134410   6.553   3.296   2.540  0.1562 -0.0944  0.9077
11496TIP3    H234411   6.664   3.223   2.467  0.0021 -1.8209  2.3593
11497TIP3   OH234412   6.678   0.142   6.815 -0.3431 -0.1402 -0.6454
11497TIP3    H134413   6.676   0.172   6.724 -0.4497 -1.2877 -1.0187
11497TIP3    H234414   6.589   0.112   6.833 -0.7784  1.6948  0.3910
11498TIP3   OH234415   0.682   4.527   4.908 -0.2191  0.1338  0.3145
11498TIP3    H134416   0.757   4.480   4.943 -1.0837  0.1578  2.2372
11498TIP3    H234417   0.690   4.517   4.813  1.1216 -1.5229  0.5754
11499TIP3   OH234418   7.222   3.457   5.757 -0.3009  0.6507 -0.1021
11499TIP3    H134419   7.181   3.477   5.673 -0.1259 -0.0745 -0.3629
11499TIP3    H234420   7.282   3.385   5.738 -0.4835  0.2795  0.7086
11500TIP3   OH234421   7.349   2.201   4.672  0.5196 -0.6678 -0.1931
11500TIP3    H134422   7.430   2.189   4.721  0.2869 -0.4719  0.2520
11500TIP3    H234423   7.369   2.171   4.583  0.5817 -2.2165  0.3265
11501TIP3   OH234424   8.294   2.658   5.840 -0.2720  0.1100  0.0582
11501TIP3    H134425   8.235   2.599   5.794 -1.2413  0.5374  0.7463
11501TIP3    H234426   8.310   2.616   5.924 -1.1423  0.9090  0.6416
11502TIP3   OH234427   7.601   2.708   6.457  0.1770 -0.1955  0.6393
11502TIP3    H134428   7.553   2.786   6.429  0.3573 -0.0699  0.6776
11502TIP3    H234429   7.690   2.723   6.426  0.3712 -0.0717  1.2452
11503TIP3   OH234430   7.363   3.258   5.590 -0.7480 -0.0684  0.7294
11503TIP3    H134431   7.450   3.218   5.595 -1.2601 -1.2207  0.3944
11503TIP3    H234432   7.344   3.263   5.496 -0.4753  1.4306  0.7412
11504TIP3   OH234433   5.449   1.856   5.954 -0.1001 -0.0026 -0.3266
11504TIP3    H134434   5.414   1.885   6.039 -1.2789  1.2092 -1.2153
11504TIP3    H234435   5.386   1.791   5.924  0.8889 -1.2187  0.2152
11505TIP3   OH234436   8.401   1.910   6.936 -0.0563 -0.0003  0.3479
11505TIP3    H134437   8.489   1.912   6.900  0.0769 -1.5931  0.5346
11505TIP3    H234438   8.362   1.994   6.910  1.8690  1.1761  1.2062
11506TIP3   OH234439   6.041   3.137   3.889  0.1862  0.2381 -0.4584
11506TIP3    H134440   6.062   3.045   3.875 -0.6532 -0.3084  1.6728
11506TIP3    H234441   6.053   3.151   3.983 -2.2172  1.6178 -0.2976
11507TIP3   OH234442   5.405   2.766   5.027  0.0094 -0.3737  0.1837
11507TIP3    H134443   5.399   2.856   4.995 -0.0231 -0.3444  0.2720
11507TIP3    H234444   5.498   2.747   5.029 -0.0570 -1.0075 -1.7225
11508TIP3   OH234445   5.466   2.526   5.544  0.3881  0.1204 -0.0279
11508TIP3    H134446   5.412   2.555   5.471  0.9522  1.0047 -0.0906
11508TIP3    H234447   5.553   2.515   5.506  0.6465  0.4266  0.4789
11509TIP3   OH234448   7.462   5.860   4.217 -0.0337 -0.3766 -0.1065
11509TIP3    H134449   7.531   5.820   4.164  2.1627  0.6451  1.8890
11509TIP3    H234450   7.489   5.951   4.227 -1.4763 -0.0655  1.0346
11510TIP3   OH234451   7.546   2.605   4.667 -0.7800 -0.5005  0.4725
11510TIP3    H134452   7.636   2.575   4.678 -0.9324 -1.4140 -0.7174
11510TIP3    H234453   7.555   2.689   4.620 -0.5316 -0.4293  0.6458
11511TIP3   OH234454   5.818   3.019   6.393 -0.3118  0.0046 -0.8512
11511TIP3    H134455   5.802   2.927   6.376 -0.5673 -0.1962  0.3824
11511TIP3    H234456   5.755   3.042   6.461  2.5361 -0.0064  1.9297
11512TIP3   OH234457   6.817   3.053   5.010 -0.0032  0.1850  0.0964
11512TIP3    H134458   6.742   3.098   5.050  0.2087 -0.1551  0.8904
11512TIP3    H234459   6.778   3.000   4.940 -0.7769 -1.5281  1.7680
11513TIP3   OH234460   5.782   1.802   4.886  0.2944  0.1861 -0.3738
11513TIP3    H134461   5.737   1.865   4.943 -1.1687 -2.5039  1.5786
11513TIP3    H234462   5.864   1.782   4.931  0.1604 -0.2736 -0.3316
11514TIP3   OH234463   6.498   4.020   6.355  0.0854  0.2650  0.5820
11514TIP3    H134464   6.559   4.094   6.354 -0.3065  0.5876  0.2582
11514TIP3    H234465   6.516   3.975   6.438  1.1893 -0.0001  0.2093
11515TIP3   OH234466   7.822   1.677   6.395 -0.0453 -0.2899  0.2180
11515TIP3    H134467   7.834   1.764   6.356  0.8252  0.5371  2.2560
11515TIP3    H234468   7.788   1.695   6.483  1.6172 -1.9415  1.2240
11516TIP3   OH234469   5.165   1.412   4.990 -0.1937  0.4487 -0.4166
11516TIP3    H134470   5.161   1.374   4.903  3.1087  0.4389 -0.5909
11516TIP3    H234471   5.157   1.337   5.049  1.7040 -0.0426 -0.7492
11517TIP3   OH234472   8.357   3.853   6.805 -0.0488  0.5663 -0.5047
11517TIP3    H134473   8.344   3.895   6.890  0.4054 -1.9210  0.8672
11517TIP3    H234474   8.269   3.823   6.780 -0.1417  1.0656 -0.7689
11518TIP3   OH234475   8.633   3.574   2.113  0.7103  0.0398 -0.2046
11518TIP3    H134476   8.587   3.494   2.087 -0.6837  0.6533  0.3275
11518TIP3    H234477   8.725   3.554   2.098  0.3472 -1.5102 -0.5070
11519TIP3   OH234478   8.654   1.985   6.888  0.4285  0.5119  0.2081
11519TIP3    H134479   8.636   2.028   6.804 -0.5435  1.4283  0.8736
11519TIP3    H234480   8.750   1.979   6.892  0.4823  0.4169 -0.9756
11520TIP3   OH234481   6.530   2.083   7.161  0.5223 -1.2138  0.4746
11520TIP3    H134482   6.439   2.103   7.185  0.8620  0.9152  0.0547
11520TIP3    H234483   6.574   2.068   7.244  0.2802 -0.0593  0.8141
11521TIP3   OH234484   8.258   0.468   4.316  0.2478 -0.2494  0.0793
11521TIP3    H134485   8.258   0.389   4.261 -0.5403 -0.4450  0.3559
11521TIP3    H234486   8.198   0.448   4.387  1.5482 -0.1376  1.2362
11522TIP3   OH234487   5.878   2.832   4.952 -0.4758  0.0243 -0.1916
11522TIP3    H134488   5.881   2.918   4.994 -2.1896  0.5849 -1.1827
11522TIP3    H234489   5.928   2.843   4.871 -3.3097  1.0001 -1.8737
11523TIP3   OH234490   7.609   2.303   5.797  0.6388  0.0137 -0.2554
11523TIP3    H134491   7.539   2.350   5.843  0.7485  1.2923 -1.3638
11523TIP3    H234492   7.571   2.280   5.712  0.6173 -1.8699  0.2326
11524TIP3   OH234493   7.796   1.881   6.159 -0.4751  0.2384 -0.2841
11524TIP3    H134494   7.849   1.907   6.084  1.2535 -0.3326  0.7228
11524TIP3    H234495   7.735   1.816   6.123 -0.8106  1.2210 -1.5388
11525TIP3   OH234496   7.307   4.846   4.600  0.6001 -0.4515 -0.2696
11525TIP3    H134497   7.378   4.855   4.537  0.3788 -2.2639 -0.8125
11525TIP3    H234498   7.239   4.798   4.552 -0.0735 -0.7452  0.9574
11526TIP3   OH234499   3.711   0.068   0.207 -0.6842 -0.4441 -0.5974
11526TIP3    H134500   3.790   0.084   0.156 -0.6361 -0.9038 -0.6757
11526TIP3    H234501   3.684  -0.020   0.181 -0.0424 -1.1383  0.9495
11527TIP3   OH234502   7.818   5.449   4.021  0.0386  0.5458  0.6332
11527TIP3    H134503   7.865   5.395   3.959 -1.6738  0.9897 -1.0974
11527TIP3    H234504   7.819   5.399   4.103 -0.7753 -1.7053 -0.6915
11528TIP3   OH234505   6.046   3.040   3.290 -0.0908  0.8655 -0.1748
11528TIP3    H134506   5.977   2.974   3.293  0.7541 -0.1367 -2.0785
11528TIP3    H234507   6.085   3.038   3.377 -0.5848 -0.5964  0.0149
11529TIP3   OH234508   6.761   0.557   4.355  0.3606  0.1059  0.5596
11529TIP3    H134509   6.824   0.526   4.420  1.3255  1.2608  0.1942
11529TIP3    H234510   6.775   0.652   4.351 -0.7259  0.2466 -0.2375
11530TIP3   OH234511   0.516   2.297   5.628 -0.4736  0.5425 -0.7740
11530TIP3    H134512   0.605   2.332   5.633 -0.6384  0.7290  2.0256
11530TIP3    H234513   0.527   2.203   5.641 -0.8668  0.9188  2.8883
11531TIP3   OH234514   6.619   4.934   3.346 -0.2732  0.5109 -0.4133
11531TIP3    H134515   6.589   5.019   3.380 -0.2862  0.7343 -0.9863
11531TIP3    H234516   6.683   4.957   3.278 -0.3779  0.0627 -0.6613
11532TIP3   OH234517   5.090   3.057   5.100  0.0230 -0.0539  0.0461
11532TIP3    H134518   5.109   3.052   5.193  1.6461 -0.3135 -0.2895
11532TIP3    H234519   5.142   3.131   5.068  0.0990 -0.4618 -0.8019
11533TIP3   OH234520   4.956   3.381   5.837 -0.4856 -0.1554 -0.2127
11533TIP3    H134521   4.983   3.289   5.847 -0.8864 -0.3693 -1.0671
11533TIP3    H234522   4.867   3.376   5.801 -0.7039  0.5671  0.2150
11534TIP3   OH234523   5.987   4.554   6.458 -0.1153 -0.4225 -0.1741
11534TIP3    H134524   6.041   4.491   6.504 -0.3258 -1.6880 -1.6244
11534TIP3    H234525   6.042   4.632   6.451  0.5163 -0.7789  0.7473
11535TIP3   OH234526   8.196   8.100   0.539  0.1188 -0.1573 -0.0868
11535TIP3    H134527   8.114   8.150   0.547  1.3705  2.3091 -1.7860
11535TIP3    H234528   8.169   8.010   0.524 -2.2840  0.5684 -0.2563
11536TIP3   OH234529   7.506   1.807   5.035  0.0251  0.2498  0.6333
11536TIP3    H134530   7.472   1.818   4.946 -0.2927  2.2203  0.9533
11536TIP3    H234531   7.525   1.714   5.043  1.3189  0.2491 -1.9358
11537TIP3   OH234532   5.841   3.743   4.714 -0.5773 -0.2366  0.1425
11537TIP3    H134533   5.767   3.795   4.745 -0.4367  0.7664 -1.1940
11537TIP3    H234534   5.830   3.658   4.758 -1.3844  0.5630  1.5246
11538TIP3   OH234535   7.464   4.867   4.939 -0.0851  0.6372  0.4305
11538TIP3    H134536   7.429   4.786   4.901 -0.1715  0.2076  1.4149
11538TIP3    H234537   7.537   4.838   4.994 -0.2898  1.2056  1.0072
11539TIP3   OH234538   5.711   0.320   6.131 -0.5007  0.1763 -0.0425
11539TIP3    H134539   5.617   0.328   6.147 -0.3823  0.5789  0.5129
11539TIP3    H234540   5.743   0.411   6.132 -0.0332  0.0134  0.2804
11540TIP3   OH234541   6.315   3.336   6.180 -0.3612  0.1225  0.0333
11540TIP3    H134542   6.234   3.386   6.186 -1.7948 -2.0024 -0.7001
11540TIP3    H234543   6.330   3.325   6.086  1.4625  1.5476  0.1456
11541TIP3   OH234544   7.726   1.692   5.676 -0.1100 -0.1107 -0.0513
11541TIP3    H134545   7.803   1.740   5.706  0.1198  0.3582 -1.3222
11541TIP3    H234546   7.688   1.654   5.755  1.7565 -0.8431  0.5165
11542TIP3   OH234547   2.074   5.313   0.952  0.0794  0.0295  0.0150
11542TIP3    H134548   2.060   5.330   0.859 -0.3048  0.3361  0.1275
11542TIP3    H234549   2.146   5.250   0.954  0.3530  0.3226 -0.4736
11543TIP3   OH234550   8.231   2.204   4.527 -0.5964  0.3902 -0.8896
11543TIP3    H134551   8.206   2.263   4.456  0.8695  0.3076 -1.4929
11543TIP3    H234552   8.215   2.116   4.492 -1.5071  0.3875 -0.4804
11544TIP3   OH234553   8.768   8.278   0.543 -0.4569  0.3342 -0.3371
11544TIP3    H134554   8.839   8.337   0.568 -0.8989  1.3261 -1.3764
11544TIP3    H234555   8.703   8.287   0.612 -1.5484  2.8463 -1.6467
11545TIP3   OH234556   7.921   2.345   2.684 -0.4616 -0.1745 -0.1567
11545TIP3    H134557   7.887   2.366   2.771  0.4421 -1.5798  0.5683
11545TIP3    H234558   7.854   2.289   2.645 -1.1151  0.9009 -0.5790
11546TIP3   OH234559   6.737   1.372   3.751  0.3542 -0.0442 -0.1591
11546TIP3    H134560   6.738   1.465   3.727 -1.9186  0.4937  1.6434
11546TIP3    H234561   6.734   1.326   3.668 -0.1260  1.5327 -1.0382
11547TIP3   OH234562   8.550   4.005   5.434 -0.0165 -0.0173  0.2498
11547TIP3    H134563   8.601   3.936   5.477 -0.2984 -0.6143 -0.3587
11547TIP3    H234564   8.478   4.023   5.494 -1.8494 -2.6412 -1.0925
11548TIP3   OH234565   7.453   2.135   4.136 -0.3620  0.1688  0.0903
11548TIP3    H134566   7.360   2.150   4.121 -1.1864 -2.0165  2.7381
11548TIP3    H234567   7.494   2.151   4.051 -3.5651 -2.1240 -1.9609
11549TIP3   OH234568   6.919   0.667   5.147 -0.0437  0.0688 -0.2384
11549TIP3    H134569   7.012   0.676   5.126  0.2996  1.4290  1.6834
11549TIP3    H234570   6.881   0.623   5.071  2.1937 -0.6352 -0.9891
11550TIP3   OH234571   7.861   3.992   6.100 -0.3549  0.1440  0.0162
11550TIP3    H134572   7.810   4.068   6.130 -0.1564  0.6405 -0.8747
11550TIP3    H234573   7.811   3.956   6.027 -0.5138 -0.6673  0.5218
11551TIP3   OH234574   2.523   6.028   0.103 -0.1077 -0.0356  0.1805
11551TIP3    H134575   2.463   5.985   0.042  1.7156 -1.6913 -0.4908
11551TIP3    H234576   2.468   6.052   0.177 -2.0099  0.4146 -1.3398
11552TIP3   OH234577   7.164   6.396   0.553  0.3406 -0.6366 -0.4089
11552TIP3    H134578   7.164   6.490   0.535  0.1715 -0.6971 -0.7355
11552TIP3    H234579   7.247   6.380   0.598  0.0005 -0.1939  0.3856
11553TIP3   OH234580   3.978   1.280   5.056  0.2363  0.3533  0.8682
11553TIP3    H134581   3.951   1.188   5.056 -1.7069  0.8683 -0.9359
11553TIP3    H234582   4.069   1.278   5.084  1.1498 -2.4421 -1.9312
11554TIP3   OH234583   7.901   3.765   4.310  0.2744 -0.4291 -0.5207
11554TIP3    H134584   7.862   3.710   4.378  0.0142  1.4142  0.8711
11554TIP3    H234585   7.827   3.792   4.256  0.4980 -1.9999 -1.6384
11555TIP3   OH234586   7.507   0.109   4.570 -0.8897  0.1463  0.2770
11555TIP3    H134587   7.491   0.026   4.615  0.6343 -0.3668 -0.0757
11555TIP3    H234588   7.540   0.083   4.484 -2.4930  1.1169 -0.6485
11556TIP3   OH234589   6.482   4.725   6.817 -0.5080 -0.2808  0.3546
11556TIP3    H134590   6.394   4.764   6.822 -1.2923 -1.7244 -1.4037
11556TIP3    H234591   6.493   4.678   6.899 -0.3080  2.0250  1.6988
11557TIP3   OH234592   5.699   1.738   4.317  0.2791 -0.8238 -0.0888
11557TIP3    H134593   5.605   1.743   4.300  0.2085 -2.6977 -0.3736
11557TIP3    H234594   5.709   1.773   4.405 -0.9492 -2.2792  0.6716
11558TIP3   OH234595   7.905   4.528   4.649 -0.0949 -0.6524  0.4523
11558TIP3    H134596   7.839   4.459   4.647 -0.0171 -0.8349  2.4964
11558TIP3    H234597   7.987   4.484   4.627 -0.3837 -0.7820 -0.3557
11559TIP3   OH234598   6.937   1.367   6.693 -0.2870  0.0116  0.3027
11559TIP3    H134599   7.006   1.364   6.760 -2.2591 -0.1615  2.4052
11559TIP3    H234600   6.945   1.454   6.654  1.3208 -0.1275  0.3143
11560TIP3   OH234601   8.886   2.283   4.874  0.5477 -0.2349 -0.7933
11560TIP3    H134602   8.798   2.247   4.862  0.0641  0.7944 -0.3466
11560TIP3    H234603   8.903   2.274   4.967 -0.2040  2.0912 -0.3983
11561TIP3   OH234604   4.511   1.750   5.623 -0.1506  0.6550  0.1843
11561TIP3    H134605   4.553   1.733   5.538 -0.3572 -1.4559  0.4946
11561TIP3    H234606   4.421   1.776   5.600 -0.3900 -0.5098 -0.2192
11562TIP3   OH234607   8.026   5.090   4.195 -0.7965 -0.1177  0.1763
11562TIP3    H134608   8.098   5.133   4.148 -1.1445  1.2608  0.8589
11562TIP3    H234609   8.036   4.997   4.175  0.6475  0.1548 -0.4501
11563TIP3   OH234610   7.025   2.923   6.700 -0.2607  0.5690  0.0638
11563TIP3    H134611   7.028   2.925   6.604 -1.0433  0.2575  0.0313
11563TIP3    H234612   6.976   2.844   6.721  1.3009 -0.2351  0.7678
11564TIP3   OH234613   5.632   2.710   4.880 -0.0730  0.4355  0.3160
11564TIP3    H134614   5.659   2.643   4.817  0.6253  0.6906  0.3380
11564TIP3    H234615   5.714   2.741   4.918 -0.3990  1.2903  0.3199
11565TIP3   OH234616   4.636   2.758   6.290  0.2949 -0.4379  0.3043
11565TIP3    H134617   4.681   2.792   6.213 -0.2536 -0.0923  0.1361
11565TIP3    H234618   4.682   2.677   6.310  0.4161 -0.5541 -0.4175
11566TIP3   OH234619   8.339   0.650   4.727  0.2610  0.1495 -0.3552
11566TIP3    H134620   8.402   0.719   4.747  0.1947  0.8046 -2.2691
11566TIP3    H234621   8.389   0.569   4.732  0.1904  0.2398  2.5893
11567TIP3   OH234622   5.953   1.769   5.819 -0.4736 -0.4245 -0.0390
11567TIP3    H134623   5.862   1.752   5.844 -0.4150 -0.3517  0.2273
11567TIP3    H234624   5.956   1.752   5.725 -0.8570 -0.0181 -0.1250
11568TIP3   OH234625   0.046   2.166   6.513 -0.4702 -0.2835  0.1186
11568TIP3    H134626   0.049   2.142   6.420  0.5080  0.0582  0.0464
11568TIP3    H234627   0.124   2.125   6.550 -1.5463 -1.4895  1.0725
11569TIP3   OH234628   7.354   0.496   7.106 -0.6020  0.7965 -0.3874
11569TIP3    H134629   7.331   0.467   7.194  0.5946  2.0340  0.3534
11569TIP3    H234630   7.280   0.550   7.077 -2.1282 -1.6264 -1.1549
11570TIP3   OH234631   7.094   3.222   4.384 -0.1784  0.4960 -0.2109
11570TIP3    H134632   7.012   3.175   4.370 -0.2837 -0.3965  2.9184
11570TIP3    H234633   7.068   3.306   4.424  0.3104  1.0873 -1.1167
11571TIP3   OH234634   7.828   2.451   4.023 -0.6578 -0.1418  0.8117
11571TIP3    H134635   7.818   2.539   3.986 -0.8587 -0.9742 -1.2328
11571TIP3    H234636   7.796   2.458   4.112 -1.5271  1.6554  0.3858
11572TIP3   OH234637   7.821   2.702   6.315  0.5318  0.3389 -0.0001
11572TIP3    H134638   7.883   2.751   6.260 -1.3449  1.5775 -1.0566
11572TIP3    H234639   7.743   2.692   6.260 -0.9527  0.5639  2.0150
11573TIP3   OH234640   7.792   0.474   6.591  0.1991 -0.8038  0.3199
11573TIP3    H134641   7.703   0.461   6.622 -0.6483  2.8945 -0.3472
11573TIP3    H234642   7.844   0.483   6.671 -0.5447  0.1017  0.7144
11574TIP3   OH234643   6.443   3.781   5.288  0.5477 -0.0265 -0.2929
11574TIP3    H134644   6.378   3.806   5.222  0.6357  0.4810 -0.1904
11574TIP3    H234645   6.478   3.864   5.320 -1.1897 -0.1704  2.1016
11575TIP3   OH234646   7.126   3.183   4.787  0.5694  0.4763  0.0079
11575TIP3    H134647   7.100   3.246   4.720  0.1820  1.5836  1.1552
11575TIP3    H234648   7.083   3.215   4.867  1.6210 -0.3782  0.9302
11576TIP3   OH234649   0.448   6.943   1.366  0.0833 -0.1890 -0.0092
11576TIP3    H134650   0.438   7.038   1.357 -1.9727 -0.4979 -1.4710
11576TIP3    H234651   0.383   6.918   1.432 -0.9495 -0.8148 -1.2204
11577TIP3   OH234652   7.538   1.168   4.682 -0.1633 -0.3543 -0.3908
11577TIP3    H134653   7.499   1.146   4.598 -1.5629 -0.8327  0.3701
11577TIP3    H234654   7.504   1.102   4.743  1.9699 -0.8960  0.2663
11578TIP3   OH234655   8.324   5.337   4.498 -0.0523  0.4872 -0.0526
11578TIP3    H134656   8.283   5.413   4.541  0.1050  1.0326 -0.8532
11578TIP3    H234657   8.291   5.262   4.547 -0.9944  1.0081  0.1333
11579TIP3   OH234658   8.433   4.249   4.000  0.8927  0.2338  0.3092
11579TIP3    H134659   8.404   4.174   3.949 -1.2667  1.2235  0.0234
11579TIP3    H234660   8.484   4.302   3.939 -0.8466  0.9214 -0.5433
11580TIP3   OH234661   6.548   3.000   3.157 -0.1876 -0.1141 -0.2655
11580TIP3    H134662   6.492   2.952   3.095  1.1650 -0.0232 -1.5817
11580TIP3    H234663   6.571   2.936   3.224  0.5775 -0.9863 -1.3450
11581TIP3   OH234664   6.537   2.888   4.348 -0.2733 -0.3729  0.5952
11581TIP3    H134665   6.501   2.974   4.327  1.3735  0.1093 -0.3939
11581TIP3    H234666   6.613   2.908   4.404 -1.9006 -1.3896  3.2439
11582TIP3   OH234667   6.172   3.270   4.902  0.1086  0.2197 -0.4609
11582TIP3    H134668   6.174   3.175   4.894 -1.2980  0.0402  1.1031
11582TIP3    H234669   6.183   3.302   4.812  0.2683 -1.4040 -1.0399
11583TIP3   OH234670   7.635   4.846   4.135  0.5195  0.6143 -0.2694
11583TIP3    H134671   7.715   4.879   4.175 -0.4332  1.5344  0.8889
11583TIP3    H234672   7.572   4.841   4.206 -0.0088 -1.6655 -0.8323
11584TIP3   OH234673   8.004   3.518   6.125 -0.3138 -0.7678  0.7875
11584TIP3    H134674   8.033   3.432   6.096 -2.0427 -0.2276 -2.9120
11584TIP3    H234675   8.054   3.579   6.071 -1.4891  0.4222  1.0229
11585TIP3   OH234676   6.839   5.864   3.110 -0.0742 -0.1678  0.5687
11585TIP3    H134677   6.782   5.925   3.157  0.0658  0.0348  0.4728
11585TIP3    H234678   6.785   5.785   3.099 -0.5626  0.2594 -0.0998
11586TIP3   OH234679   6.774   3.485   5.101 -0.3476  0.1455 -0.9540
11586TIP3    H134680   6.747   3.566   5.144 -0.6732 -0.5191  0.1054
11586TIP3    H234681   6.692   3.440   5.080 -0.1378 -0.5267 -0.3424
11587TIP3   OH234682   7.478   0.684   6.017  0.1510 -0.7124 -0.3750
11587TIP3    H134683   7.553   0.625   6.007  0.0992 -1.0301  0.9212
11587TIP3    H234684   7.481   0.709   6.110 -0.8010  0.0109 -0.5422
11588TIP3   OH234685   5.671   4.722   6.166  0.0271 -0.0409 -0.0184
11588TIP3    H134686   5.690   4.784   6.237 -0.5348  0.6470 -0.4661
11588TIP3    H234687   5.600   4.668   6.200  0.8528 -0.7655  0.5641
11589TIP3   OH234688   8.353   4.027   6.590  0.3869 -0.6861  0.2827
11589TIP3    H134689   8.310   4.107   6.620 -0.3961 -0.2623 -1.9334
11589TIP3    H234690   8.361   3.974   6.669  1.2536  1.7141  1.8772
11590TIP3   OH234691   0.840   6.266   0.053  0.4289 -0.4861 -0.2751
11590TIP3    H134692   0.892   6.215  -0.010  0.8856  1.3777 -1.4451
11590TIP3    H234693   0.875   6.240   0.139  2.4933 -0.1637 -0.9890
11591TIP3   OH234694   8.106   2.783   4.999 -0.2399 -0.1651  0.1991
11591TIP3    H134695   8.117   2.702   4.949  1.7471  0.3485 -0.2579
11591TIP3    H234696   8.144   2.763   5.085 -1.0621 -0.1636  0.5655
11592TIP3   OH234697   6.590   3.477   5.671  0.4204 -0.2139 -0.1387
11592TIP3    H134698   6.683   3.460   5.687  0.5658 -0.4080 -1.1556
11592TIP3    H234699   6.589   3.540   5.599 -0.2307 -0.0155  0.0380
11593TIP3   OH234700   6.179   2.634   4.517 -0.3368  0.1525 -0.1035
11593TIP3    H134701   6.097   2.587   4.504 -1.0986  1.5111 -0.2434
11593TIP3    H234702   6.198   2.624   4.610 -1.1487  0.6299  0.1156
11594TIP3   OH234703   6.330   2.035   5.138 -0.3645 -0.1301 -0.5107
11594TIP3    H134704   6.388   2.056   5.212  0.3247  0.4170 -1.1949
11594TIP3    H234705   6.270   2.110   5.133 -1.8393 -1.1875  0.8651
11595TIP3   OH234706   7.740   2.048   5.433  0.0875 -0.1509  0.0315
11595TIP3    H134707   7.675   2.010   5.491 -0.2139  0.3261  0.0050
11595TIP3    H234708   7.731   1.999   5.351  0.3230 -0.6350  0.2907
11596TIP3   OH234709   8.230   2.998   6.381  0.2372 -0.4644  0.2006
11596TIP3    H134710   8.277   2.961   6.456  0.6038  0.4348  0.4165
11596TIP3    H234711   8.139   2.976   6.397  0.3337 -0.4093  0.8307
11597TIP3   OH234712   6.901   3.921   5.574 -0.0235 -0.0842 -0.0392
11597TIP3    H134713   6.950   3.874   5.642  0.1681  0.0180 -0.1064
11597TIP3    H234714   6.859   3.852   5.523  2.2830 -0.3144 -1.6877
11598TIP3   OH234715   6.740   0.315   7.158 -0.5278  0.3188  0.0942
11598TIP3    H134716   6.731   0.346   7.248  0.2343 -1.0711  0.6764
11598TIP3    H234717   6.676   0.244   7.151 -0.8546  0.6767 -0.5888
11599TIP3   OH234718   6.995   3.713   5.768  0.0523 -0.0564  0.7698
11599TIP3    H134719   7.063   3.646   5.761  0.3149  0.2818  0.0773
11599TIP3    H234720   6.920   3.667   5.807 -0.3298 -1.1687 -1.2070
11600TIP3   OH234721   7.778   2.962   5.242 -0.1095 -0.6897  0.4687
11600TIP3    H134722   7.712   2.897   5.268  0.9566 -1.6121  0.9066
11600TIP3    H234723   7.862   2.918   5.257  0.6386  0.9869  1.2568
11601TIP3   OH234724   7.262   3.609   5.394  0.0450 -0.6359  0.7161
11601TIP3    H134725   7.196   3.540   5.406 -0.9004 -0.2112 -1.7350
11601TIP3    H234726   7.287   3.602   5.302  0.5919  1.7104  0.6504
11602TIP3   OH234727   6.196   2.014   5.519 -0.0565 -0.7911  0.4940
11602TIP3    H134728   6.132   2.085   5.521  0.0437 -0.7023  2.5087
11602TIP3    H234729   6.160   1.950   5.458  0.4062  1.4591 -2.2562
11603TIP3   OH234730   8.053   2.874   6.624  0.0411  0.2235  0.6291
11603TIP3    H134731   8.016   2.788   6.643  0.5175  0.0334  0.7164
11603TIP3    H234732   8.147   2.862   6.635  0.2336  0.3988 -0.7398
11604TIP3   OH234733   6.745   2.377   4.986  0.5714 -0.2007  0.6051
11604TIP3    H134734   6.751   2.330   4.903  0.8182  1.7190 -0.4872
11604TIP3    H234735   6.804   2.329   5.045  0.4985 -1.4862 -0.3493
11605TIP3   OH234736   6.699   3.714   5.208  0.1941 -0.1621  0.6399
11605TIP3    H134737   6.605   3.709   5.221  0.4136 -0.7953  2.1259
11605TIP3    H234738   6.710   3.763   5.127 -1.3906  0.5996  0.8724
11606TIP3   OH234739   0.055   3.899   6.213 -0.4991  0.2494  0.4012
11606TIP3    H134740   0.022   3.828   6.269  0.2476 -1.4735 -1.3059
11606TIP3    H234741   0.003   3.893   6.133  1.4367 -0.1657 -0.8670
11607TIP3   OH234742   6.120   0.934   6.925  0.5306  0.2795 -0.1264
11607TIP3    H134743   6.200   0.914   6.876 -0.5365 -3.4138 -0.5018
11607TIP3    H234744   6.049   0.922   6.861 -0.5778 -0.1013  1.1480
11608TIP3   OH234745   4.647   4.758   5.190 -0.0107 -0.1648 -0.0965
11608TIP3    H134746   4.635   4.817   5.116  1.4125 -0.4295 -0.5672
11608TIP3    H234747   4.628   4.812   5.267 -0.0970  0.5137 -0.5888
11609TIP3   OH234748   4.557   3.769   5.527 -0.3522 -0.2840  0.7204
11609TIP3    H134749   4.610   3.742   5.602  0.9080 -0.0225 -0.0742
11609TIP3    H234750   4.556   3.865   5.531  1.2328 -0.1996 -0.6340
11610TIP3   OH234751   8.716   7.436   0.080 -0.5827  0.2678 -0.3260
11610TIP3    H134752   8.701   7.342   0.079 -0.6731  0.2439  1.5360
11610TIP3    H234753   8.628   7.474   0.079 -0.6917  0.2412  3.0946
11611TIP3   OH234754   6.570   2.617   4.283  0.0973  0.3220  0.5010
11611TIP3    H134755   6.539   2.697   4.326  2.2166  1.3941  0.1012
11611TIP3    H234756   6.664   2.632   4.270  0.2021 -1.5614 -1.0774
11612TIP3   OH234757   7.541   2.683   5.637  0.2080 -0.5224 -0.0877
11612TIP3    H134758   7.536   2.710   5.728 -1.1438  0.4735 -0.4398
11612TIP3    H234759   7.614   2.621   5.634  0.8030  0.0902  1.4894
11613TIP3   OH234760   8.045   1.956   3.054 -0.8337  0.2369  0.7896
11613TIP3    H134761   8.123   1.946   3.108 -0.5622 -0.9560  0.1936
11613TIP3    H234762   8.053   1.888   2.987 -0.6138  2.3953 -1.4311
11614TIP3   OH234763   4.510   5.455   5.984  0.2543  0.1928  0.7711
11614TIP3    H134764   4.576   5.454   5.915 -0.3476  0.2672  0.1876
11614TIP3    H234765   4.489   5.548   5.996 -1.6609  0.0363 -0.9216
11615TIP3   OH234766   6.626   2.278   6.699  0.3371 -0.3993 -0.1368
11615TIP3    H134767   6.671   2.300   6.781  0.9574 -0.5195 -0.4463
11615TIP3    H234768   6.683   2.215   6.656  0.2553  0.0451 -0.9046
11616TIP3   OH234769   6.874   1.914   2.955 -0.3746 -0.2816 -0.3913
11616TIP3    H134770   6.851   2.002   2.923  0.2403  0.1078  0.2162
11616TIP3    H234771   6.884   1.926   3.050  0.2223 -0.8993 -0.3748
11617TIP3   OH234772   8.260   4.418   5.322 -0.2749  0.0409  0.1119
11617TIP3    H134773   8.227   4.494   5.371 -0.3416  0.4980 -0.6261
11617TIP3    H234774   8.355   4.426   5.326 -0.2370  2.4154 -3.3197
11618TIP3   OH234775   1.264   5.989   1.357  0.3327 -0.1078 -0.1685
11618TIP3    H134776   1.292   5.913   1.306 -1.4502 -0.7229 -0.2280
11618TIP3    H234777   1.171   5.999   1.339 -0.5317 -0.7311  3.4714
11619TIP3   OH234778   0.192   1.054   5.070 -0.1211 -0.2721  0.3997
11619TIP3    H134779   0.116   1.016   5.114 -0.2214 -2.7332 -1.7923
11619TIP3    H234780   0.181   1.029   4.978  2.6552  0.4757 -0.1683
11620TIP3   OH234781   5.681   2.022   5.030  0.0473  0.5030  0.3059
11620TIP3    H134782   5.710   2.105   4.993  1.3044 -0.5806 -1.1914
11620TIP3    H234783   5.587   2.018   5.008  0.3795  0.6940 -1.2524
11621TIP3   OH234784   6.831   3.434   3.545  0.0946  0.3288  0.3369
11621TIP3    H134785   6.777   3.473   3.613 -0.1964 -1.8195  1.3672
11621TIP3    H234786   6.774   3.369   3.504  0.3539  1.3845 -1.7996
11622TIP3   OH234787   0.643   7.120   0.845 -0.0017  0.3471  0.3621
11622TIP3    H134788   0.721   7.165   0.875 -0.2710  0.7858  0.4038
11622TIP3    H234789   0.666   7.088   0.757  0.2526  0.3988  0.4111
11623TIP3   OH234790   8.567   4.291   2.017  0.0227 -0.0622  0.4425
11623TIP3    H134791   8.562   4.221   2.082  0.6728 -0.5775 -0.0495
11623TIP3    H234792   8.661   4.308   2.006 -0.1094  0.5235  0.1776
11624TIP3   OH234793   0.191   6.134   0.394  0.0618 -0.4088  0.6615
11624TIP3    H134794   0.247   6.179   0.457 -0.2498  1.5557 -0.4434
11624TIP3    H234795   0.114   6.191   0.384  0.0915 -0.7029 -1.4638
11625TIP3   OH234796   6.422   1.981   4.891  0.0156 -0.5545  0.2026
11625TIP3    H134797   6.404   1.889   4.869  1.1983 -0.8414  0.3867
11625TIP3    H234798   6.404   1.987   4.984 -0.0999 -0.5940  0.1830
11626TIP3   OH234799   5.634   2.704   6.208 -0.0311 -0.4932  0.3400
11626TIP3    H134800   5.718   2.659   6.218  0.0186 -0.4483  0.1411
11626TIP3    H234801   5.598   2.670   6.126  0.2236  0.1640 -0.0540
11627TIP3   OH234802   0.707   6.905   0.597 -0.0220 -0.6007 -0.4691
11627TIP3    H134803   0.614   6.929   0.595  0.5597  1.7417 -0.9066
11627TIP3    H234804   0.737   6.918   0.508  0.6265 -1.8829 -0.4494
11628TIP3   OH234805   6.910   3.253   3.829 -0.1557  0.2775 -0.1274
11628TIP3    H134806   6.838   3.298   3.873 -0.2741  0.5855 -0.6366
11628TIP3    H234807   6.988   3.283   3.876 -0.3795 -0.2699  0.6014
11629TIP3   OH234808   6.406   2.958   6.196  0.5047 -0.1490 -0.4824
11629TIP3    H134809   6.462   2.982   6.123  1.4421 -0.7576  0.0214
11629TIP3    H234810   6.438   2.872   6.224  0.3847  0.2285  0.8498
11630TIP3   OH234811   1.273   5.668   0.011  0.3008  0.0712 -0.4075
11630TIP3    H134812   1.287   5.743  -0.047 -0.1436 -0.0599 -0.6894
11630TIP3    H234813   1.297   5.700   0.098  2.3875 -0.1727 -0.8779
11631TIP3   OH234814   1.057   4.569   2.058  0.0375  0.2093 -0.7769
11631TIP3    H134815   1.015   4.490   2.092  0.4320  0.5036  0.3932
11631TIP3    H234816   0.990   4.638   2.069  0.7528  0.6445  0.9358
11632TIP3   OH234817   6.980   3.205   6.156 -0.7130  0.2953 -0.2105
11632TIP3    H134818   7.042   3.260   6.108 -0.0842 -0.0905  0.1467
11632TIP3    H234819   6.994   3.229   6.248 -1.3668  0.4815 -0.1586
11633TIP3   OH234820   1.087   8.000   1.269  0.2909 -0.2205 -0.0847
11633TIP3    H134821   1.036   8.006   1.189  1.2760  1.0246 -0.6255
11633TIP3    H234822   1.146   8.076   1.267  2.0932 -1.5519  0.5805
11634TIP3   OH234823   6.330   0.641   6.719  0.7263 -0.3351  0.0903
11634TIP3    H134824   6.309   0.569   6.659  1.0161 -0.5506  0.2511
11634TIP3    H234825   6.319   0.604   6.806  1.2217 -0.2834  0.1761
11635TIP3   OH234826   1.530   6.292   0.217 -0.1197  0.1980  0.0471
11635TIP3    H134827   1.591   6.261   0.285 -0.2758 -0.3463 -0.0578
11635TIP3    H234828   1.577   6.277   0.135 -0.0079  0.6790  0.0231
11636TIP3   OH234829   1.458   6.160   0.720  0.5348 -0.4286  0.4578
11636TIP3    H134830   1.385   6.156   0.782 -0.5606 -3.9924 -0.9030
11636TIP3    H234831   1.530   6.116   0.766  0.8655  0.2435  0.5889
11637TIP3   OH234832   5.958   4.681   5.721 -0.0117 -0.0963 -0.1567
11637TIP3    H134833   5.907   4.601   5.712  0.7091 -0.6175  0.3303
11637TIP3    H234834   5.986   4.681   5.813  2.3923 -0.7675 -0.8336
11638TIP3   OH234835   6.214   2.515   3.575 -0.4831 -0.3229  0.2791
11638TIP3    H134836   6.209   2.473   3.489 -0.4851  0.6858 -0.2194
11638TIP3    H234837   6.277   2.585   3.564 -0.0720 -0.5356  1.2586
11639TIP3   OH234838   3.801   2.942   6.678 -0.2461 -1.2336  0.7449
11639TIP3    H134839   3.892   2.931   6.649  0.3494  1.8856  1.2295
11639TIP3    H234840   3.793   3.035   6.697 -4.5719 -0.7195 -2.6695
11640TIP3   OH234841   5.910   2.070   4.050  0.2808  0.7495 -0.4785
11640TIP3    H134842   5.846   2.079   4.121 -0.9759 -2.3824 -1.1165
11640TIP3    H234843   5.890   2.142   3.990 -0.4640  1.7554  0.9465
11641TIP3   OH234844   6.677   2.021   4.790  0.1393  0.0032 -0.0774
11641TIP3    H134845   6.596   1.999   4.836 -0.5730 -0.7309 -1.6273
11641TIP3    H234846   6.685   1.954   4.722  2.1230 -0.0123  0.1153
11642TIP3   OH234847   6.277   3.103   5.656  0.1265  0.2413 -0.1064
11642TIP3    H134848   6.369   3.113   5.681  0.1685 -1.7372  0.6201
11642TIP3    H234849   6.229   3.162   5.713  0.8809  0.8286 -0.0715
11643TIP3   OH234850   1.387   8.004   1.236 -0.0810  0.4685  0.3256
11643TIP3    H134851   1.471   7.962   1.220  0.6079  1.0478  2.1895
11643TIP3    H234852   1.410   8.092   1.266 -1.4554  1.7699 -2.3173
11644TIP3   OH234853   8.792   4.217   5.765 -0.0486 -0.2145  0.1341
11644TIP3    H134854   8.719   4.174   5.810 -0.1462 -1.2639 -1.0078
11644TIP3    H234855   8.794   4.305   5.801  0.2103 -1.1730  2.5979
11645TIP3   OH234856   6.690   5.617   6.477 -0.7326 -1.0999 -0.1285
11645TIP3    H134857   6.757   5.559   6.513  0.6928  0.4937 -0.2116
11645TIP3    H234858   6.693   5.695   6.532 -1.1179 -0.1909 -1.3764
11646TIP3   OH234859   7.121   2.405   4.327 -0.4121  0.6821 -0.8027
11646TIP3    H134860   7.149   2.445   4.409  0.3034  0.3079 -0.8633
11646TIP3    H234861   7.031   2.375   4.345  0.6443 -1.7273  0.6817
11647TIP3   OH234862   8.728   2.418   6.527 -0.1866 -0.5091  0.3495
11647TIP3    H134863   8.818   2.413   6.560  0.2448 -1.0843 -0.8629
11647TIP3    H234864   8.675   2.440   6.603  0.8664 -1.1317  1.2696
11648TIP3   OH234865   7.059   4.509   5.799  0.1296  0.2033  0.5715
11648TIP3    H134866   7.069   4.568   5.724  0.4481  0.1994  0.6097
11648TIP3    H234867   6.978   4.461   5.781  0.9569 -0.8357 -0.4997
11649TIP3   OH234868   7.211   1.983   4.764  0.0317  0.2545  0.2334
11649TIP3    H134869   7.253   2.047   4.707 -0.4793  1.1563  0.8575
11649TIP3    H234870   7.225   2.016   4.852  0.5258 -0.9571  0.6200
11650TIP3   OH234871   8.015   3.613   3.240 -0.0285  0.2827 -0.0875
11650TIP3    H134872   7.929   3.634   3.204 -0.6592 -0.0675  1.1877
11650TIP3    H234873   8.016   3.657   3.326  0.6906 -0.5007  0.3083
11651TIP3   OH234874   5.121   2.592   4.463  0.2452  0.4246 -0.3384
11651TIP3    H134875   5.187   2.641   4.414  0.4617 -0.3230 -0.8035
11651TIP3    H234876   5.047   2.653   4.471  0.4983  0.8167 -0.9227
11652TIP3   OH234877   7.732   3.806   5.908  0.1396  0.1154 -0.4902
11652TIP3    H134878   7.808   3.785   5.853 -1.2439 -3.4578 -1.1716
11652TIP3    H234879   7.661   3.820   5.845 -0.1994  1.6357  0.2195
11653TIP3   OH234880   7.986   1.426   6.512  0.5599  0.6102  0.0791
11653TIP3    H134881   7.899   1.417   6.474  1.0775 -0.9118 -0.7581
11653TIP3    H234882   7.981   1.378   6.595  0.4367  1.0196  0.3106
11654TIP3   OH234883   6.713   1.823   4.070  0.9827 -0.4041 -0.8364
11654TIP3    H134884   6.702   1.826   3.975 -0.7496 -1.6101 -0.7079
11654TIP3    H234885   6.745   1.735   4.087  1.0494 -0.2741 -0.2894
11655TIP3   OH234886   8.767   1.689   5.404 -0.1680  0.3794 -0.2926
11655TIP3    H134887   8.743   1.666   5.314  1.3775 -0.7031 -0.4505
11655TIP3    H234888   8.721   1.624   5.458  0.6498 -0.3685 -0.4660
11656TIP3   OH234889   0.262   2.253   5.757  0.5169  0.5642 -0.0814
11656TIP3    H134890   0.219   2.308   5.692  1.8574  1.6807 -0.0455
11656TIP3    H234891   0.354   2.249   5.728  0.5665 -1.1356  0.2647
11657TIP3   OH234892   5.573   2.528   3.960 -0.6899 -0.2188  0.0386
11657TIP3    H134893   5.521   2.603   3.931  0.9415  0.8397 -0.2317
11657TIP3    H234894   5.663   2.549   3.933 -0.0720 -1.8844  0.7108
11658TIP3   OH234895   7.745   5.699   0.149  0.1026 -0.0282  0.3723
11658TIP3    H134896   7.830   5.656   0.160  0.4919  0.3862 -0.9956
11658TIP3    H234897   7.699   5.647   0.084 -0.9050 -0.5306  1.4537
11659TIP3   OH234898   7.418   1.892   7.224 -0.7512 -0.0374  0.4393
11659TIP3    H134899   7.440   1.867   7.313 -0.1059 -1.4496 -0.1023
11659TIP3    H234900   7.487   1.853   7.170 -2.5406 -1.3980 -0.9170
11660TIP3   OH234901   2.514   8.270   5.175 -0.1410  0.2846  0.5233
11660TIP3    H134902   2.419   8.264   5.182 -0.1203 -0.0247  0.5570
11660TIP3    H234903   2.529   8.343   5.114 -0.3634  1.3339  1.6961
11661TIP3   OH234904   5.976   2.989   5.311  0.7042 -0.0064 -0.5064
11661TIP3    H134905   5.907   3.032   5.363 -0.2248  0.4337 -2.0722
11661TIP3    H234906   5.929   2.941   5.244  1.8626 -1.4210 -0.3212
11662TIP3   OH234907   6.105   3.484   4.683 -0.0940 -0.2646  0.5078
11662TIP3    H134908   6.083   3.524   4.599 -2.1165 -1.0904  0.6164
11662TIP3    H234909   6.152   3.553   4.731 -3.8673  2.2013  0.8746
11663TIP3   OH234910   7.775   0.751   5.724  0.0716 -0.2176 -0.3007
11663TIP3    H134911   7.823   0.769   5.804 -1.3231  0.9304  0.2910
11663TIP3    H234912   7.780   0.656   5.714  0.0744 -0.3907  1.2570
11664TIP3   OH234913   7.229   3.327   3.428 -0.3588  0.1685 -0.5674
11664TIP3    H134914   7.258   3.272   3.355  2.0344 -0.0988  0.5269
11664TIP3    H234915   7.181   3.267   3.485  1.3530 -0.5868  0.1115
11665TIP3   OH234916   7.629   2.152   7.275 -0.0925 -0.1240  0.4457
11665TIP3    H134917   7.589   2.216   7.216  1.7886  0.7492  0.0759
11665TIP3    H234918   7.674   2.090   7.217  0.4933 -0.1301  0.8953
11666TIP3   OH234919   7.708   5.834   5.771  0.2869 -0.2451  0.1210
11666TIP3    H134920   7.777   5.825   5.705  0.7995  0.7679  0.5033
11666TIP3    H234921   7.681   5.744   5.790  0.1470 -0.5402 -1.4500
11667TIP3   OH234922   6.690   3.031   6.446 -0.0396 -0.3698  0.0185
11667TIP3    H134923   6.615   3.058   6.394 -0.5347 -0.4453  0.6977
11667TIP3    H234924   6.673   2.938   6.465  1.2065 -0.9646 -1.5389
11668TIP3   OH234925   7.887   0.799   5.984  0.3706 -0.0436 -0.6396
11668TIP3    H134926   7.898   0.719   6.035 -0.0799  1.7634  2.4540
11668TIP3    H234927   7.973   0.816   5.946  0.6387 -1.5995 -0.7373
11669TIP3   OH234928   6.040   3.814   4.923 -0.2389  0.3736 -0.6402
11669TIP3    H134929   6.025   3.731   4.879  0.0628  1.0724 -2.0960
11669TIP3    H234930   5.980   3.875   4.880  1.0408  1.3739 -1.0331
11670TIP3   OH234931   6.288   3.917   6.666 -0.4575 -0.1333 -0.1648
11670TIP3    H134932   6.293   3.992   6.607  0.0180  0.6689  0.8686
11670TIP3    H234933   6.197   3.889   6.662 -0.5809  0.3543 -0.7503
11671TIP3   OH234934   7.459   5.732   4.455 -0.4329 -0.3741 -0.0598
11671TIP3    H134935   7.472   5.757   4.364  1.6093 -1.6426 -0.1689
11671TIP3    H234936   7.461   5.815   4.504 -0.7892  0.2421 -1.0806
11672TIP3   OH234937   6.119   1.579   5.935 -0.0946 -0.2565 -0.4872
11672TIP3    H134938   6.035   1.556   5.974  0.0321  1.1168  0.6023
11672TIP3    H234939   6.099   1.655   5.880  0.5925  0.5466  0.3848
11673TIP3   OH234940   5.574   3.821   4.749 -0.1232  0.1312 -0.0341
11673TIP3    H134941   5.527   3.904   4.745 -0.8346 -0.2642  0.1011
11673TIP3    H234942   5.544   3.780   4.831 -0.9632 -0.9676 -0.8807
11674TIP3   OH234943   7.475   6.207   5.254 -0.4128 -0.0990 -0.4505
11674TIP3    H134944   7.492   6.113   5.260 -3.2875 -0.7641 -1.7620
11674TIP3    H234945   7.451   6.221   5.162  1.7886  2.2770 -0.7264
11675TIP3   OH234946   7.269   5.087   4.783 -0.2481 -0.2637  0.1484
11675TIP3    H134947   7.280   5.139   4.704 -1.1874  1.9832  1.4311
11675TIP3    H234948   7.280   4.996   4.755 -0.0648  0.5383 -2.4385
11676TIP3   OH234949   7.425   4.472   3.820 -0.6496  0.0785 -0.0194
11676TIP3    H134950   7.427   4.521   3.738  0.1899  0.2593  0.0992
11676TIP3    H234951   7.507   4.422   3.819  0.5374  1.9136  1.8066
11677TIP3   OH234952   7.293   2.511   3.676  0.1981  0.0044  0.8571
11677TIP3    H134953   7.207   2.490   3.712  0.2951 -1.9996 -0.0556
11677TIP3    H234954   7.277   2.531   3.584  0.8249 -1.3467  0.4415
11678TIP3   OH234955   6.036   7.412   3.854  0.6462 -0.5435 -0.0099
11678TIP3    H134956   5.987   7.459   3.921 -1.4073 -1.7936 -0.5836
11678TIP3    H234957   6.126   7.438   3.867 -0.2885  2.6654  0.4184
11679TIP3   OH234958   6.645   3.291   4.475  0.4174 -0.0417  0.4821
11679TIP3    H134959   6.628   3.383   4.492  2.0650  0.3346  0.1632
11679TIP3    H234960   6.578   3.265   4.411 -0.9591  0.5299  1.6499
11680TIP3   OH234961   6.122   1.952   5.958  0.4819 -0.6910  0.0662
11680TIP3    H134962   6.068   1.887   5.915  0.4518 -0.0266 -0.9158
11680TIP3    H234963   6.153   1.909   6.038 -1.6154 -1.0051  0.7209
11681TIP3   OH234964   6.807   3.450   6.780  0.0967 -0.3805  0.1561
11681TIP3    H134965   6.825   3.439   6.687 -0.9900 -1.6938  0.0833
11681TIP3    H234966   6.847   3.374   6.822 -0.3742 -0.3716  0.6267
11682TIP3   OH234967   7.335   2.435   4.111 -0.5225 -0.6740  0.4036
11682TIP3    H134968   7.278   2.377   4.162 -0.5941 -0.2902  0.7627
11682TIP3    H234969   7.377   2.491   4.177  0.1722 -0.8675  0.1360
11683TIP3   OH234970   2.326   4.065   5.786 -0.2091 -0.3372 -0.1992
11683TIP3    H134971   2.304   3.981   5.826  2.2517 -0.3705  1.2513
11683TIP3    H234972   2.319   4.051   5.692 -2.0060 -1.5050  0.0975
11684TIP3   OH234973   4.831   2.298   4.891  0.3638  0.4818  0.3972
11684TIP3    H134974   4.762   2.255   4.941 -1.0751  1.3826 -0.7679
11684TIP3    H234975   4.913   2.271   4.934 -0.5276 -2.7799  0.1777
11685TIP3   OH234976   3.764   8.014   4.288 -0.1553  0.2419  0.4879
11685TIP3    H134977   3.749   7.920   4.278  2.2295 -0.0629 -0.6055
11685TIP3    H234978   3.851   8.029   4.250 -1.1345  3.1369 -0.7780
11686TIP3   OH234979   1.438   5.814   0.514 -0.0212 -0.0989  0.1132
11686TIP3    H134980   1.410   5.772   0.595  0.7144 -0.7038  0.0652
11686TIP3    H234981   1.463   5.741   0.457 -0.6550  0.3126 -0.7072
11687TIP3   OH234982   0.188   2.723   6.113 -0.4673  0.5123 -0.6534
11687TIP3    H134983   0.150   2.656   6.056 -0.3306 -0.7214  0.6550
11687TIP3    H234984   0.224   2.788   6.053 -0.1060 -0.8655 -1.9797
11688TIP3   OH234985   6.847   2.432   6.484 -0.3366 -0.0096 -0.5638
11688TIP3    H134986   6.763   2.446   6.442 -1.9161  0.5081  2.6734
11688TIP3    H234987   6.838   2.347   6.528  1.1389 -0.3505 -0.8862
11689TIP3   OH234988   5.704   3.190   3.599 -0.4614  0.3085  0.1787
11689TIP3    H134989   5.757   3.161   3.672 -2.4049 -0.0529  1.4840
11689TIP3    H234990   5.762   3.247   3.548  1.4074 -0.7671  1.0708
11690TIP3   OH234991   2.223   3.828   0.599 -0.4172  0.3909 -0.2195
11690TIP3    H134992   2.230   3.924   0.595 -0.7089  0.4882  1.3339
11690TIP3    H234993   2.204   3.809   0.690  1.0989 -1.2686 -0.2232
11691TIP3   OH234994   5.794   1.125   4.544 -0.3474 -0.0038  0.3469
11691TIP3    H134995   5.782   1.138   4.450  0.0585 -0.4035  0.2420
11691TIP3    H234996   5.844   1.202   4.572  2.0303 -1.2965 -0.2713
11692TIP3   OH234997   6.415   4.043   3.589  0.0306 -0.4264 -0.0747
11692TIP3    H134998   6.466   3.971   3.626 -0.7997 -1.1529 -0.3257
11692TIP3    H234999   6.458   4.062   3.506 -1.0062 -2.0868 -1.0220
11693TIP3   OH235000   7.556   2.790   5.901  0.4088  0.0014  0.0708
11693TIP3    H135001   7.641   2.830   5.888 -0.2553  1.7760  1.0272
11693TIP3    H235002   7.512   2.846   5.965 -0.6553 -2.1158  1.2597
11694TIP3   OH235003   7.202   2.624   6.915  0.0311 -0.1509 -0.0332
11694TIP3    H135004   7.174   2.674   6.839 -0.2453  0.6716  0.5971
11694TIP3    H235005   7.133   2.558   6.927  0.1453 -0.3661 -0.5754
11695TIP3   OH235006   7.854   0.731   6.385 -0.2286 -0.1934  0.2815
11695TIP3    H135007   7.856   0.682   6.468 -0.6878  0.8248  0.9039
11695TIP3    H235008   7.942   0.768   6.378 -0.6386  0.9976  1.1148
11696TIP3   OH235009   5.279   3.983   3.900  0.4152  0.0721 -0.4997
11696TIP3    H135010   5.343   3.913   3.895  1.2188  0.7630 -0.0578
11696TIP3    H235011   5.198   3.945   3.866  1.1780 -0.6621 -1.5165
11697TIP3   OH235012   8.633   3.559   5.524  0.2946  0.2699 -0.2418
11697TIP3    H135013   8.631   3.652   5.548  1.0042  0.0264  0.7802
11697TIP3    H235014   8.726   3.538   5.515  0.2447 -0.9117  1.8184
11698TIP3   OH235015   5.803   5.079   4.847 -0.2397  0.1193  0.4270
11698TIP3    H135016   5.879   5.117   4.891  2.8340 -1.7457 -3.0286
11698TIP3    H235017   5.803   5.119   4.760 -0.6778 -2.9997 -1.0753
11699TIP3   OH235018   1.017   4.470   4.641 -0.2330  0.2270 -0.3293
11699TIP3    H135019   0.973   4.410   4.700  0.8455 -0.9121 -0.6625
11699TIP3    H235020   0.950   4.494   4.576 -0.6154 -0.7669 -0.3009
11700TIP3   OH235021   2.228   2.296   6.729  0.2380 -0.7260  0.0114
11700TIP3    H135022   2.247   2.345   6.809 -2.7024 -2.7139  2.0529
11700TIP3    H235023   2.220   2.362   6.661 -0.5206  1.3307  2.0418
11701TIP3   OH235024   8.802   4.480   5.404  0.0509 -0.0701  0.6696
11701TIP3    H135025   8.788   4.511   5.315  0.9240 -1.3716  0.0517
11701TIP3    H235026   8.871   4.536   5.439  2.1583 -1.7139 -0.6982
11702TIP3   OH235027   1.184   5.175   2.909 -0.0321 -0.2581 -0.4196
11702TIP3    H135028   1.097   5.211   2.894 -0.2273 -0.6114 -0.1390
11702TIP3    H235029   1.175   5.082   2.890  0.0346 -0.4780  0.6170
11703TIP3   OH235030   5.732   0.623   0.043  0.3506 -0.1141 -0.3557
11703TIP3    H135031   5.715   0.547  -0.013 -0.9909  0.3824 -0.6390
11703TIP3    H235032   5.754   0.693  -0.019 -0.3006  0.2143 -0.2202
11704TIP3   OH235033   0.491   3.505   3.333 -0.8297 -0.2233  0.1934
11704TIP3    H135034   0.508   3.564   3.260  0.3637 -1.2119 -0.3480
11704TIP3    H235035   0.576   3.495   3.376 -0.9590 -1.7272  0.1379
11705TIP3   OH235036   6.663   2.432   5.346 -0.2156 -0.0155  0.9739
11705TIP3    H135037   6.619   2.517   5.349  0.3308  0.2755  0.8778
11705TIP3    H235038   6.753   2.453   5.321 -0.4687 -0.7638 -0.6500
11706TIP3   OH235039   0.995   3.295   5.634  0.6327  0.0993 -0.1534
11706TIP3    H135040   0.942   3.335   5.703 -1.2141 -2.0704 -0.2366
11706TIP3    H235041   1.085   3.298   5.667  0.3243  2.6486  0.5676
11707TIP3   OH235042   0.122   2.205   4.479  0.1157 -0.2036 -0.8102
11707TIP3    H135043   0.209   2.191   4.517 -0.4795 -0.9334  0.3286
11707TIP3    H235044   0.126   2.161   4.394  1.8114  2.3949 -2.1110
11708TIP3   OH235045   8.427   4.466   4.268  0.3811 -0.1341  0.4060
11708TIP3    H135046   8.466   4.467   4.180 -1.7830 -0.0130 -0.5776
11708TIP3    H235047   8.498   4.494   4.326  1.6511  0.4302 -1.3792
11709TIP3   OH235048   6.663   4.743   4.632 -0.2504 -0.3677 -0.2805
11709TIP3    H135049   6.568   4.728   4.626  0.0103 -1.8741 -0.7593
11709TIP3    H235050   6.671   4.837   4.649 -1.8528 -0.3179  0.3223
11710TIP3   OH235051   7.576   2.099   3.880 -0.9072  0.4720  0.2770
11710TIP3    H135052   7.548   2.178   3.834  1.1097  0.6058 -0.7847
11710TIP3    H235053   7.664   2.120   3.912 -0.2091 -1.4532 -0.3166
11711TIP3   OH235054   1.048   3.132   6.180  0.3151  0.0906  0.7218
11711TIP3    H135055   0.989   3.060   6.158  1.4370 -0.5398 -0.2585
11711TIP3    H235056   1.009   3.208   6.136  0.2617 -0.3353  0.0129
11712TIP3   OH235057   7.793   3.144   4.454  0.0116 -0.2339  0.3425
11712TIP3    H135058   7.772   3.097   4.534 -0.5485  0.3615  0.5483
11712TIP3    H235059   7.794   3.236   4.479 -0.1124 -0.0456 -0.3167
11713TIP3   OH235060   1.304   4.433   5.314 -0.2708  0.3669  0.4059
11713TIP3    H135061   1.230   4.374   5.301  0.7529 -1.1374  1.2784
11713TIP3    H235062   1.321   4.470   5.228 -0.6983 -0.8862 -0.2275
11714TIP3   OH235063   6.136   2.912   5.532  0.0548 -0.4208 -0.0897
11714TIP3    H135064   6.205   2.971   5.562 -1.1971  0.6435  0.7124
11714TIP3    H235065   6.100   2.954   5.454 -2.2367  0.9382  1.6760
11715TIP3   OH235066   7.637   4.421   4.825 -0.1959 -0.1610  0.3558
11715TIP3    H135067   7.578   4.491   4.852 -0.3839 -0.1568 -0.0652
11715TIP3    H235068   7.624   4.414   4.730 -2.0730 -2.5104  0.7507
11716TIP3   OH235069   8.737   4.269   6.202  0.4532  0.3382  0.3876
11716TIP3    H135070   8.817   4.256   6.253  0.5009 -1.0099 -0.0065
11716TIP3    H235071   8.671   4.218   6.248 -0.2715  1.7620  0.9246
11717TIP3   OH235072   8.837   2.677   5.125 -0.0445 -0.2964  0.5433
11717TIP3    H135073   8.905   2.678   5.057  0.6909  2.6870  1.2226
11717TIP3    H235074   8.756   2.695   5.077  0.2526  0.2506  0.2295
11718TIP3   OH235075   8.326   2.608   4.631  0.0799  0.0770  0.4703
11718TIP3    H135076   8.254   2.619   4.569 -0.7970 -0.1405  1.4322
11718TIP3    H235077   8.387   2.548   4.587 -0.0573  0.6982 -0.5724
11719TIP3   OH235078   7.677   5.057   3.146  0.3096 -0.2666 -0.2626
11719TIP3    H135079   7.638   5.083   3.063  0.6908  0.5365 -0.1950
11719TIP3    H235080   7.699   5.140   3.189  0.4986 -0.6836  0.4527
11720TIP3   OH235081   0.888   4.512   3.696  0.3080 -0.2695  0.5108
11720TIP3    H135082   0.847   4.466   3.769 -0.6496 -0.9284 -0.4284
11720TIP3    H235083   0.975   4.472   3.689  0.5074 -0.0144  1.4561
11721TIP3   OH235084   7.106   4.720   4.458  0.3976 -0.3251 -0.3616
11721TIP3    H135085   7.049   4.736   4.534  0.5619 -0.2414 -0.2540
11721TIP3    H235086   7.121   4.626   4.459 -0.5674 -0.4870 -0.9914
11722TIP3   OH235087   1.445   4.412   3.520 -0.1532  0.4533  0.4061
11722TIP3    H135088   1.497   4.369   3.452 -0.7384  0.3430  0.0261
11722TIP3    H235089   1.504   4.417   3.595  0.1861 -0.3039  0.2031
11723TIP3   OH235090   7.302   3.930   3.994  0.5590 -0.4900 -0.4733
11723TIP3    H135091   7.248   3.992   4.045  0.7940  0.1669 -1.0209
11723TIP3    H235092   7.392   3.951   4.019  0.6377 -0.6364 -0.6332
11724TIP3   OH235093   7.287   1.936   6.080 -0.4676  0.0732 -0.7257
11724TIP3    H135094   7.303   1.958   6.172 -1.7897 -0.8296 -0.2772
11724TIP3    H235095   7.251   2.017   6.043  0.3728  0.5419 -0.5420
11725TIP3   OH235096   0.290   4.042   5.060  0.0389  0.0924 -0.5904
11725TIP3    H135097   0.289   3.961   5.111 -1.8593  1.9531  2.4366
11725TIP3    H235098   0.202   4.049   5.024  0.5688  0.2256 -1.9185
11726TIP3   OH235099   7.261   3.619   6.885 -0.0697  0.0984  0.4023
11726TIP3    H135100   7.349   3.606   6.919  0.3459  2.6419  0.4104
11726TIP3    H235101   7.204   3.577   6.949  1.1047 -1.5081  0.4348
11727TIP3   OH235102   0.574   4.801   4.613  0.4363 -0.6769  0.6049
11727TIP3    H135103   0.633   4.795   4.688  1.1340 -0.9096  0.0415
11727TIP3    H235104   0.631   4.810   4.537 -0.2722 -0.1534  0.1174
11728TIP3   OH235105   1.522   2.652   3.658  0.0066  0.4762  0.4715
11728TIP3    H135106   1.513   2.626   3.566  0.8600  0.4571  0.3891
11728TIP3    H235107   1.481   2.581   3.708 -3.3114  1.9644 -0.0149
11729TIP3   OH235108   7.662   4.179   6.199 -0.4474  0.1510 -0.4914
11729TIP3    H135109   7.656   4.188   6.294  2.0027  0.0777 -0.2909
11729TIP3    H235110   7.649   4.268   6.166  0.7321  0.5412  0.0557
11730TIP3   OH235111   7.746   4.324   4.590  0.0895 -0.2500  0.2817
11730TIP3    H135112   7.767   4.231   4.580  1.5351  0.3182 -2.6467
11730TIP3    H235113   7.655   4.331   4.560  0.4577 -0.4968 -0.9115
11731TIP3   OH235114   8.240   6.802   4.941 -0.5223  0.1566  0.0247
11731TIP3    H135115   8.219   6.802   5.035  1.8821 -0.5377  0.6146
11731TIP3    H235116   8.189   6.730   4.905 -1.1428  0.1566  0.8788
11732TIP3   OH235117   6.629   4.646   5.593 -0.0745 -0.2124 -0.0945
11732TIP3    H135118   6.613   4.693   5.511  0.5895 -1.1862 -0.8035
11732TIP3    H235119   6.656   4.714   5.655 -2.0981  0.7482 -0.2337
11733TIP3   OH235120   7.155   2.864   6.416  0.1750 -0.0567  0.3620
11733TIP3    H135121   7.193   2.879   6.329  0.1751  2.1623  0.7193
11733TIP3    H235122   7.091   2.793   6.403  1.8426 -1.3579 -0.9534
11734TIP3   OH235123   4.869   5.844   7.150 -0.3101  0.2379 -0.0207
11734TIP3    H135124   4.804   5.773   7.150  2.2460 -2.2138 -1.3039
11734TIP3    H235125   4.826   5.916   7.105 -2.1190 -1.3294 -0.8977
11735TIP3   OH235126   8.523   2.590   5.165  0.5557  0.2463 -0.2535
11735TIP3    H135127   8.527   2.543   5.248 -3.0161  0.2607 -0.0051
11735TIP3    H235128   8.555   2.527   5.100 -0.5204 -1.2299  0.6083
11736TIP3   OH235129   0.924   4.411   5.003 -0.6155  0.0933 -0.3202
11736TIP3    H135130   0.887   4.342   4.948 -1.0536  1.7112 -2.1049
11736TIP3    H235131   1.015   4.417   4.976 -0.8679  0.9903 -1.0060
11737TIP3   OH235132   6.492   3.783   4.967  0.5218  0.5131 -0.4463
11737TIP3    H135133   6.532   3.870   4.966 -0.9395  1.1968 -1.8367
11737TIP3    H235134   6.400   3.800   4.987  0.2846 -0.7368 -0.4610
11738TIP3   OH235135   0.153   1.572   4.674 -0.2249  0.1519  0.1091
11738TIP3    H135136   0.144   1.478   4.660  1.3946  0.0726 -0.4332
11738TIP3    H235137   0.194   1.580   4.760 -1.3855  0.4120  0.6579
11739TIP3   OH235138   8.741   2.423   3.567  0.3324  0.1150  0.2689
11739TIP3    H135139   8.659   2.454   3.528 -0.4326 -0.0093  1.7365
11739TIP3    H235140   8.809   2.470   3.520 -0.6913  2.0590  0.6630
11740TIP3   OH235141   8.371   6.291   4.193 -0.8033 -0.1560  0.8370
11740TIP3    H135142   8.447   6.252   4.237  1.1925  1.9501 -0.6658
11740TIP3    H235143   8.364   6.242   4.110  0.0987  0.9259  0.1180
11741TIP3   OH235144   6.729   3.005   4.502 -0.0572  0.1045 -0.1244
11741TIP3    H135145   6.663   3.073   4.511 -1.1543 -1.0521  0.8707
11741TIP3    H235146   6.792   3.040   4.440 -0.2366  2.2862  0.8843
11742TIP3   OH235147   1.618   4.421   5.267 -0.2986  0.5133  0.6946
11742TIP3    H135148   1.628   4.353   5.333  2.4227 -1.1209 -1.2585
11742TIP3    H235149   1.526   4.418   5.243 -0.6589 -1.0075  2.1702
11743TIP3   OH235150   0.534   1.153   6.631 -0.0205  0.2035 -0.3101
11743TIP3    H135151   0.508   1.061   6.646 -1.7843  0.7527  0.1813
11743TIP3    H235152   0.497   1.175   6.546 -0.4152  0.7314 -0.0064
11744TIP3   OH235153   8.216   2.079   5.961 -0.1235  0.1043  0.2065
11744TIP3    H135154   8.309   2.094   5.947  0.2097 -3.0229 -1.3271
11744TIP3    H235155   8.209   2.051   6.053  0.9546 -2.8122 -0.5339
11745TIP3   OH235156   6.913   4.040   3.761  0.1557 -0.1359  0.0708
11745TIP3    H135157   6.896   4.098   3.835  0.9012 -1.6811  1.4830
11745TIP3    H235158   7.008   4.042   3.750  0.1015 -0.3873 -0.4652
11746TIP3   OH235159   6.947   3.992   5.939  0.6219 -0.1523  0.5116
11746TIP3    H135160   6.999   3.917   5.909  1.4942  0.3248  0.8172
11746TIP3    H235161   7.012   4.060   5.959 -0.1480  0.6049  0.4682
11747TIP3   OH235162   2.083   3.312   5.910 -0.8294 -0.3929  0.0130
11747TIP3    H135163   2.095   3.226   5.869 -0.1078 -0.5504  0.5426
11747TIP3    H235164   2.161   3.362   5.883 -0.0798 -0.6754  1.6311
11748TIP3   OH235165   1.544   2.280   5.266  0.0122 -0.2773 -0.1408
11748TIP3    H135166   1.466   2.227   5.284 -0.6988  0.0241 -2.1780
11748TIP3    H235167   1.511   2.354   5.216  1.6052 -0.1237 -0.9927
11749TIP3   OH235168   7.789   2.932   4.666 -0.0559 -0.0817  0.3181
11749TIP3    H135169   7.725   2.900   4.601 -0.7325  0.1201  0.8792
11749TIP3    H235170   7.738   2.941   4.746  0.8811 -0.7581  0.9965
11750TIP3   OH235171   8.635   2.235   6.300 -0.3997 -0.1638  0.0302
11750TIP3    H135172   8.720   2.234   6.256 -0.4057  0.6872 -0.0087
11750TIP3    H235173   8.650   2.288   6.379 -0.0763 -2.6458  1.6952
11751TIP3   OH235174   7.861   4.022   5.376 -0.0446 -0.2930 -0.1957
11751TIP3    H135175   7.766   4.028   5.371 -0.0405  0.0218  0.1240
11751TIP3    H235176   7.884   4.068   5.457  0.3682 -0.4688 -0.2127
11752TIP3   OH235177   7.783   2.810   4.293  0.0154  0.7428 -0.2242
11752TIP3    H135178   7.776   2.856   4.210 -1.0924  1.4014  0.2153
11752TIP3    H235179   7.853   2.854   4.340  0.5846  0.4245 -0.7758
11753TIP3   OH235180   0.195   3.869   6.577 -0.4963  0.0718  0.5067
11753TIP3    H135181   0.100   3.859   6.566 -0.5691  0.8946  0.3078
11753TIP3    H235182   0.209   3.964   6.575  0.4911 -0.0855 -0.8797
11754TIP3   OH235183   8.610   3.341   4.019 -0.5453  0.2095 -0.6311
11754TIP3    H135184   8.536   3.306   3.970 -1.3952  0.2125  0.6357
11754TIP3    H235185   8.636   3.269   4.077 -0.7642  0.8557  0.2668
11755TIP3   OH235186   7.836   2.818   5.908  0.0899 -0.1920  0.3842
11755TIP3    H135187   7.873   2.872   5.978  0.9730 -1.4017  0.8696
11755TIP3    H235188   7.871   2.730   5.924 -1.4925 -0.9675 -0.2610
11756TIP3   OH235189   7.891   3.460   5.780  0.2167 -0.0717  0.4318
11756TIP3    H135190   7.971   3.409   5.791 -0.7214 -1.4434  0.9606
11756TIP3    H235191   7.825   3.396   5.754 -0.7705  1.0123  0.2449
11757TIP3   OH235192   8.249   3.185   4.146 -0.0997 -0.9770 -0.5871
11757TIP3    H135193   8.233   3.096   4.114 -1.9681 -0.5722 -0.8544
11757TIP3    H235194   8.162   3.223   4.156  0.6444  0.5351  0.3772
11758TIP3   OH235195   6.770   4.070   5.113  0.3966  0.1172 -0.0302
11758TIP3    H135196   6.688   4.059   5.162  0.3568  2.4838  0.4931
11758TIP3    H235197   6.838   4.077   5.179  0.5769  1.5543 -0.3558
11759TIP3   OH235198   8.423   3.376   5.357 -0.1037  0.3787  0.0994
11759TIP3    H135199   8.442   3.441   5.425 -0.1786  0.9137 -0.3854
11759TIP3    H235200   8.496   3.314   5.362 -0.6596 -0.1843  1.3739
11760TIP3   OH235201   1.635   3.311   6.479 -0.1484  0.6306 -0.0016
11760TIP3    H135202   1.608   3.313   6.387  1.6891  0.1016 -0.5664
11760TIP3    H235203   1.687   3.390   6.490 -0.2078  0.5948  0.5327
11761TIP3   OH235204   6.737   1.868   5.019  0.8525  0.4749  0.4154
11761TIP3    H135205   6.686   1.787   5.015  0.1831  0.9710 -1.8899
11761TIP3    H235206   6.742   1.898   4.928  3.1130  1.7838  0.9245
11762TIP3   OH235207   8.124   3.269   6.638  0.0916 -0.4226  0.0702
11762TIP3    H135208   8.135   3.242   6.729 -0.4757 -0.8743  0.0121
11762TIP3    H235209   8.202   3.238   6.593 -0.3828 -1.6596  0.0793
11763TIP3   OH235210   7.831   1.165   6.340 -0.3264  0.3481 -0.0989
11763TIP3    H135211   7.818   1.258   6.359 -1.3447  0.0573  0.6280
11763TIP3    H235212   7.743   1.126   6.346  0.1847 -0.7762  0.2204
11764TIP3   OH235213   8.574   4.012   6.153  0.4885 -0.0480 -0.8248
11764TIP3    H135214   8.579   3.916   6.157 -0.8202 -0.1237 -0.5502
11764TIP3    H235215   8.486   4.032   6.186  1.1933  1.3289  0.2579
11765TIP3   OH235216   1.540   0.071   4.687 -0.2000 -0.0508 -0.2345
11765TIP3    H135217   1.613   0.116   4.730 -1.4229  1.7989 -0.0284
11765TIP3    H235218   1.515   0.129   4.615 -0.3238 -1.5257 -1.3980
11766TIP3   OH235219   0.095   1.714   5.170 -0.4273  0.3426 -0.6268
11766TIP3    H135220   0.118   1.664   5.249  1.4270 -1.7096 -2.4259
11766TIP3    H235221   0.115   1.805   5.194 -0.6285 -0.1347  1.5267
11767TIP3   OH235222   7.148   3.415   6.076  0.2321  0.2590  0.4682
11767TIP3    H135223   7.198   3.493   6.100 -0.2195  0.4527  0.8066
11767TIP3    H235224   7.147   3.415   5.980 -2.5062  2.4922  0.4103
11768TIP3   OH235225   8.129   3.943   4.107  0.1652  0.1535  0.5146
11768TIP3    H135226   8.105   3.912   4.020 -0.0357 -0.4367  0.7815
11768TIP3    H235227   8.158   3.865   4.154  1.8037  0.7237  0.4754
11769TIP3   OH235228   7.743   4.856   5.856 -0.4116  0.4262 -0.7581
11769TIP3    H135229   7.799   4.793   5.811  0.4349 -0.3431  1.3273
11769TIP3    H235230   7.789   4.939   5.847  0.6827 -0.0585  0.2716
11770TIP3   OH235231   0.636   5.583   4.840 -0.3359  0.1743  0.2669
11770TIP3    H135232   0.655   5.491   4.855 -0.5248 -0.1367 -1.3144
11770TIP3    H235233   0.720   5.622   4.816 -0.6578 -0.0838 -1.3569
11771TIP3   OH235234   7.418   4.189   4.275  0.6142 -0.1257  0.7650
11771TIP3    H135235   7.472   4.114   4.249  2.1962  1.5460 -0.9171
11771TIP3    H235236   7.396   4.232   4.193 -0.2956  1.2503  1.7223
11772TIP3   OH235237   2.016   3.284   5.490 -0.3458  0.6351 -0.4390
11772TIP3    H135238   1.941   3.329   5.528 -0.4780  1.1635 -1.3290
11772TIP3    H235239   2.065   3.353   5.444  0.3694  0.1886 -0.3574
11773TIP3   OH235240   1.738   3.339   5.594 -0.0105  0.4779  0.3865
11773TIP3    H135241   1.765   3.256   5.632 -0.1428  0.2838  0.0610
11773TIP3    H235242   1.702   3.389   5.667  1.2723  0.7663  0.8460
11774TIP3   OH235243   7.988   3.216   4.256  0.5466 -0.0193  0.1579
11774TIP3    H135244   8.030   3.206   4.341 -0.0855 -2.4490  0.2353
11774TIP3    H235245   7.896   3.197   4.272  0.2153  0.6432 -0.8642
11775TIP3   OH235246   8.052   3.198   4.983  0.1937  0.3442 -0.1883
11775TIP3    H135247   8.062   3.292   5.000  1.6430  0.0774  0.4981
11775TIP3    H235248   7.967   3.176   5.020  0.4484  1.1167  0.8760
11776TIP3   OH235249   1.093   4.433   7.233 -0.3005 -0.5639 -0.1191
11776TIP3    H135250   1.184   4.452   7.213  0.1758 -0.7102  1.8545
11776TIP3    H235251   1.044   4.471   7.160  1.3004 -0.1443 -0.9854
11777TIP3   OH235252   8.724   4.627   5.037 -0.0002  0.8552 -0.2612
11777TIP3    H135253   8.726   4.714   5.078  2.4487  0.6580  0.0894
11777TIP3    H235254   8.816   4.602   5.028 -0.6703 -2.1824  0.6413
11778TIP3   OH235255   8.348   3.012   4.681  0.0173 -0.4934 -0.4654
11778TIP3    H135256   8.286   3.009   4.754 -0.6654 -0.2569 -1.0323
11778TIP3    H235257   8.415   2.948   4.704  0.5257  0.5404  1.0188
11779TIP3   OH235258   0.145   2.579   5.856  0.2315  0.3095  0.3947
11779TIP3    H135259   0.181   2.626   5.780  0.4663  1.3424  1.1347
11779TIP3    H235260   0.050   2.579   5.841  0.3062  0.1351 -0.1065
11780TIP3   OH235261   5.777   4.354   3.971 -0.9237  0.6944 -0.6140
11780TIP3    H135262   5.746   4.360   3.880 -1.4273  0.7842 -0.4395
11780TIP3    H235263   5.737   4.429   4.014 -1.0638  0.3833 -0.2034
11781TIP3   OH235264   8.491   4.948   2.475  0.2420  0.1540  0.8956
11781TIP3    H135265   8.571   4.909   2.510  0.0873  0.5970  1.7840
11781TIP3    H235266   8.436   4.961   2.552 -0.3302  0.6619  0.4058
11782TIP3   OH235267   7.950   5.357   4.524 -0.4954 -0.2136  0.0136
11782TIP3    H135268   7.989   5.378   4.609  0.7128  0.3679 -0.6838
11782TIP3    H235269   7.902   5.435   4.500 -0.3345 -0.1583 -0.1253
11783TIP3   OH235270   0.127   6.169   3.694 -0.3432 -0.5995 -0.4471
11783TIP3    H135271   0.172   6.237   3.645  0.4066  0.5936  1.8207
11783TIP3    H235272   0.036   6.199   3.700 -0.4357 -0.7484 -1.0930
11784TIP3   OH235273   0.616   4.141   4.999 -0.1366 -0.2600 -0.3811
11784TIP3    H135274   0.578   4.112   4.916 -0.1239  0.0330 -0.4887
11784TIP3    H235275   0.703   4.100   5.002 -0.1346 -0.2649 -0.5129
11785TIP3   OH235276   2.126   2.325   4.423 -0.8104  0.6561 -0.5464
11785TIP3    H135277   2.153   2.410   4.390 -3.1923  1.3284 -0.8418
11785TIP3    H235278   2.082   2.283   4.348 -0.8844 -0.2537  0.0013
11786TIP3   OH235279   7.569   3.850   6.163 -0.3406  0.4118  0.4836
11786TIP3    H135280   7.637   3.877   6.102  0.2621 -0.5057  0.7417
11786TIP3    H235281   7.494   3.828   6.108  0.4918 -1.2984 -0.0044
11787TIP3   OH235282   8.255   1.807   4.106 -0.3084  0.2053 -0.2685
11787TIP3    H135283   8.222   1.897   4.111  0.7633  0.5512  0.8036
11787TIP3    H235284   8.186   1.759   4.060 -1.8505  1.1386  0.9914
11788TIP3   OH235285   7.909   6.715   3.517 -0.6960  0.4469  0.2767
11788TIP3    H135286   7.847   6.659   3.564  1.7488 -2.3191  0.3694
11788TIP3    H235287   7.885   6.705   3.425 -1.7754  1.1631  0.4755
11789TIP3   OH235288   0.800   2.106   2.997  0.0312 -0.4636 -0.4330
11789TIP3    H135289   0.827   2.196   2.983  0.2553 -0.8234 -2.4381
11789TIP3    H235290   0.831   2.085   3.086  0.9833  1.0454 -0.3903
11790TIP3   OH235291   7.566   3.058   5.587  0.0082 -0.9707 -0.3038
11790TIP3    H135292   7.492   2.998   5.582 -0.0112 -0.9304 -0.4689
11790TIP3    H235293   7.643   3.000   5.589 -0.1152 -1.1560  2.5889
11791TIP3   OH235294   0.272   1.145   3.111  0.4360  0.4267  0.1236
11791TIP3    H135295   0.191   1.128   3.062  0.9925 -2.8200  0.1801
11791TIP3    H235296   0.244   1.153   3.202  0.0769 -0.0335  0.0593
11792TIP3   OH235297   0.983   3.386   5.306  0.4918 -0.3415  0.0482
11792TIP3    H135298   0.955   3.295   5.316 -1.5400  0.0879 -1.4497
11792TIP3    H235299   0.919   3.424   5.247  2.4427  1.5783 -0.8785
11793TIP3   OH235300   7.273   1.974   6.369  0.1273  0.2200 -1.1051
11793TIP3    H135301   7.222   2.038   6.419 -2.2432 -2.7831  0.5338
11793TIP3    H235302   7.333   1.936   6.433 -2.0322 -2.7403 -0.7456
11794TIP3   OH235303   7.796   4.045   4.592  0.0842 -0.6229  0.3288
11794TIP3    H135304   7.718   3.995   4.569 -0.4498  0.8566 -1.1406
11794TIP3    H235305   7.869   3.993   4.560 -0.5490  0.3893 -2.9397
11795TIP3   OH235306   7.369   5.150   4.393  0.3017 -0.0470  0.1656
11795TIP3    H135307   7.321   5.207   4.453  1.4054  2.4972 -1.2640
11795TIP3    H235308   7.441   5.115   4.444  1.4132  2.3439  0.2800
11796TIP3   OH235309   8.588   4.084   5.866  0.1228 -0.2228 -0.1599
11796TIP3    H135310   8.499   4.116   5.853 -0.0531 -0.5174  0.2839
11796TIP3    H235311   8.595   4.073   5.961  0.1404 -1.5917 -0.3083
11797TIP3   OH235312   8.428   3.399   3.151  0.1274 -0.4701  0.2205
11797TIP3    H135313   8.444   3.492   3.165  2.6616 -1.0302  1.3219
11797TIP3    H235314   8.347   3.396   3.101  1.3102  2.4234 -2.0147
11798TIP3   OH235315   8.319   5.042   5.446  0.0724  0.4494 -0.5743
11798TIP3    H135316   8.241   5.054   5.499 -0.2635 -0.5125 -0.8450
11798TIP3    H235317   8.286   5.016   5.360  0.5711  2.6841 -1.4750
11799TIP3   OH235318   8.463   5.530   1.164  0.1017  0.4441  0.1558
11799TIP3    H135319   8.544   5.490   1.195  0.1157 -1.1806 -1.8343
11799TIP3    H235320   8.491   5.586   1.091 -0.1751  2.5751  1.6312
11800TIP3   OH235321   7.241   4.838   5.738  0.1192  0.0664 -0.3193
11800TIP3    H135322   7.197   4.777   5.680 -0.7527  0.1450  0.2494
11800TIP3    H235323   7.268   4.785   5.813  0.8831  0.0425 -0.6113
11801TIP3   OH235324   7.720   2.744   3.490  0.9125  0.5167  0.4805
11801TIP3    H135325   7.681   2.814   3.543 -1.2057  1.0292 -1.6682
11801TIP3    H235326   7.785   2.787   3.436 -0.5637  0.9291 -1.0205
11802TIP3   OH235327   7.874   2.197   5.207 -0.0258  0.1945 -0.1125
11802TIP3    H135328   7.908   2.135   5.143 -1.5888 -0.0546 -0.7185
11802TIP3    H235329   7.784   2.215   5.178 -0.2837  1.1396  1.2266
11803TIP3   OH235330   1.099   3.254   4.586 -0.1371 -0.3850 -0.4216
11803TIP3    H135331   1.102   3.188   4.655  0.2444  0.3975  0.3282
11803TIP3    H235332   1.053   3.328   4.626  3.3249  1.4841  0.2804
11804TIP3   OH235333   8.479   1.912   5.907  0.2360 -0.1276  0.1819
11804TIP3    H135334   8.473   2.005   5.928 -0.5057  0.0771 -0.9083
11804TIP3    H235335   8.485   1.869   5.993  2.3688  1.0178  0.6265
11805TIP3   OH235336   3.366   7.129   0.137 -0.4516  0.4010  0.2448
11805TIP3    H135337   3.426   7.178   0.192  1.3446 -0.2015 -1.1443
11805TIP3    H235338   3.369   7.040   0.173  0.7712 -0.0078 -0.8211
11806TIP3   OH235339   8.400   2.566   4.345 -0.3678 -0.0236 -0.3032
11806TIP3    H135340   8.475   2.625   4.351 -0.1109 -0.2243 -1.3451
11806TIP3    H235341   8.427   2.487   4.391 -0.6512  0.6019  0.9527
11807TIP3   OH235342   7.548   4.269   5.856  0.6867 -0.0165 -0.3973
11807TIP3    H135343   7.493   4.341   5.826 -1.5332 -1.8792 -0.9169
11807TIP3    H235344   7.637   4.305   5.854 -0.5070  3.3107  1.2143
11808TIP3   OH235345   0.123   4.521   5.092  0.4810 -0.0555 -0.2858
11808TIP3    H135346   0.068   4.451   5.057  0.9445 -1.3390  1.4499
11808TIP3    H235347   0.186   4.475   5.148 -1.8081  2.0984  4.2513
11809TIP3   OH235348   7.553   3.635   4.034 -0.1598  0.3523 -0.4556
11809TIP3    H135349   7.618   3.661   3.968  0.4221 -0.1285 -0.0738
11809TIP3    H235350   7.487   3.586   3.984 -0.0270  0.4876 -0.7702
11810TIP3   OH235351   7.177   4.519   5.209 -0.0992  0.0475 -0.5406
11810TIP3    H135352   7.126   4.570   5.146 -0.0736 -0.7230 -1.1839
11810TIP3    H235353   7.253   4.488   5.160  1.5538  2.0485  0.6856
11811TIP3   OH235354   8.398   2.208   5.156  0.3979 -0.6129  0.2269
11811TIP3    H135355   8.410   2.204   5.250 -1.3833 -1.6940  0.4279
11811TIP3    H235356   8.467   2.152   5.120  3.0842  2.2342  0.6493
11812TIP3   OH235357   8.439   4.742   5.246 -0.4299 -0.3319  0.1170
11812TIP3    H135358   8.504   4.771   5.310 -1.2109 -0.4421  0.9626
11812TIP3    H235359   8.481   4.756   5.161  0.3386  0.4690  0.6283
11813TIP3   OH235360   7.872   4.309   5.455  0.0473  0.0983 -0.4213
11813TIP3    H135361   7.872   4.295   5.361  2.5658 -0.8185 -0.3309
11813TIP3    H235362   7.907   4.397   5.467  0.0745  0.0765 -0.3365
11814TIP3   OH235363   5.816   0.321   0.210 -0.1650  0.1977 -0.1199
11814TIP3    H135364   5.809   0.226   0.203  1.7724  0.0406 -0.1868
11814TIP3    H235365   5.910   0.339   0.201 -0.4305  2.0555  0.6168
11815TIP3   OH235366   8.271   3.610   5.471 -0.0524 -0.1109  0.3738
11815TIP3    H135367   8.209   3.680   5.452  0.7102  1.1956  2.5606
11815TIP3    H235368   8.227   3.530   5.442 -2.7550  0.7911  1.8603
11816TIP3   OH235369   1.558   3.388   4.923 -0.0336  0.4049 -0.4516
11816TIP3    H135370   1.626   3.450   4.895  0.3370  0.6497  0.9331
11816TIP3    H235371   1.595   3.302   4.903  1.8737  0.4015  2.6248
11817TIP3   OH235372   7.957   1.176   4.892 -0.1230 -0.2202  0.0015
11817TIP3    H135373   7.907   1.157   4.971  0.0881  0.3332  0.2686
11817TIP3    H235374   7.893   1.166   4.821  0.1398 -2.5953  0.0575
11818TIP3   OH235375   7.888   0.858   3.817  0.6229 -0.2440 -0.5518
11818TIP3    H135376   7.803   0.889   3.786  1.0533  0.1367 -1.3731
11818TIP3    H235377   7.889   0.881   3.910 -0.4632 -0.9088 -0.3574
11819TIP3   OH235378   7.876   3.520   5.191  0.2576 -0.1270  0.7674
11819TIP3    H135379   7.800   3.569   5.222 -0.5435  0.2119 -1.6077
11819TIP3    H235380   7.936   3.587   5.158  0.9078 -0.5018  1.1697
11820TIP3   OH235381   7.993   1.468   4.329  0.3665 -0.4013 -0.0856
11820TIP3    H135382   7.967   1.434   4.244  2.0975 -0.2921 -0.6931
11820TIP3    H235383   7.988   1.563   4.320  1.2084 -0.3705 -0.3033
11821TIP3   OH235384   8.609   1.534   5.580  0.2920 -0.7456  0.6278
11821TIP3    H135385   8.549   1.461   5.594 -0.5757  0.3938  3.3283
11821TIP3    H235386   8.552   1.609   5.561  0.9143  0.0673  1.8938
11822TIP3   OH235387   1.522   4.800   5.039  0.2788  0.6003 -0.5645
11822TIP3    H135388   1.548   4.756   5.120  1.2569  2.0325 -0.0813
11822TIP3    H235389   1.451   4.859   5.066  1.0787  1.5916 -0.6046
11823TIP3   OH235390   8.526   3.598   5.889  0.2017  0.2376  0.2297
11823TIP3    H135391   8.555   3.520   5.842 -0.5169 -0.0509  0.2646
11823TIP3    H235392   8.456   3.634   5.834  0.2060  0.5843  0.4538
11824TIP3   OH235393   8.464   3.523   4.682 -0.3090  0.1733  0.4373
11824TIP3    H135394   8.422   3.442   4.655  0.1557  0.2407 -0.5278
11824TIP3    H235395   8.459   3.523   4.778 -1.9709 -0.0865  0.3562
11825TIP3   OH235396   6.603   3.891   6.887  0.4442 -0.2376 -0.3374
11825TIP3    H135397   6.574   3.982   6.882  2.8007  0.6764  1.4457
11825TIP3    H235398   6.552   3.853   6.958  0.2777  0.0034 -0.3269
11826TIP3   OH235399   8.535   3.799   4.219 -0.3672 -0.0169  0.5046
11826TIP3    H135400   8.491   3.757   4.146  0.6075 -0.0665 -0.0685
11826TIP3    H235401   8.569   3.727   4.272 -0.5841  0.0245  0.6999
11827TIP3   OH235402   0.465   4.093   5.304 -0.2769  0.1704 -0.1829
11827TIP3    H135403   0.509   4.020   5.348 -1.2161 -1.5101 -1.9694
11827TIP3    H235404   0.416   4.137   5.373 -0.6997 -1.6485  0.6852
11828TIP3   OH235405   6.390   5.384   5.375 -0.2426 -0.2981  0.0350
11828TIP3    H135406   6.333   5.411   5.446  1.8377  2.5259  0.6942
11828TIP3    H235407   6.340   5.402   5.296 -1.1714 -0.0986  0.6617
11829TIP3   OH235408   8.809   3.604   4.768 -0.2809 -0.4082 -0.0214
11829TIP3    H135409   8.753   3.556   4.830  0.4170 -1.3396 -0.1047
11829TIP3    H235410   8.862   3.536   4.726  0.7681  0.4435 -0.0934
11830TIP3   OH235411   0.447   0.848   6.656  0.1245 -0.0480 -0.3546
11830TIP3    H135412   0.356   0.860   6.629  0.5146  0.6549 -1.4085
11830TIP3    H235413   0.472   0.763   6.618 -0.2134 -0.4415  0.2939
11831TIP3   OH235414   4.860   1.265   0.081 -0.0054 -0.3413 -0.3745
11831TIP3    H135415   4.801   1.335   0.053  1.2336  0.6384 -0.5332
11831TIP3    H235416   4.834   1.190   0.028 -0.6361  0.2756 -0.9516
11832TIP3   OH235417   7.072   3.792   4.943 -0.0025  0.0715 -0.1848
11832TIP3    H135418   7.091   3.700   4.924 -0.4264 -0.6240  2.4879
11832TIP3    H235419   6.976   3.798   4.938 -0.0480  0.1122  0.6168
11833TIP3   OH235420   8.033   3.910   4.825  0.3380 -0.4531 -0.4159
11833TIP3    H135421   7.946   3.874   4.841 -0.4039  1.0961 -0.8691
11833TIP3    H235422   8.050   3.892   4.732 -0.1836  0.6583 -0.7326
11834TIP3   OH235423   8.817   6.425   4.644 -0.0771  0.2594  0.0507
11834TIP3    H135424   8.861   6.383   4.718 -2.0324 -1.9375  0.0362
11834TIP3    H235425   8.724   6.424   4.669 -0.6763  0.0955 -2.1430
11835TIP3   OH235426   7.561   2.824   5.360  0.5552 -0.4889  0.6153
11835TIP3    H135427   7.483   2.876   5.341  1.4132  1.3371  1.9750
11835TIP3    H235428   7.534   2.765   5.430  0.0498 -0.7344  0.2204
11836TIP3   OH235429   6.356   6.572   6.181 -0.3581  0.1540 -0.1754
11836TIP3    H135430   6.435   6.587   6.233  0.4075 -0.2610 -1.2098
11836TIP3    H235431   6.368   6.485   6.143 -0.9825  0.3948 -0.9288
11837TIP3   OH235432   6.836   4.859   5.571 -0.6055  0.1205 -0.4373
11837TIP3    H135433   6.816   4.913   5.648 -0.2314 -0.4271  0.0458
11837TIP3    H235434   6.750   4.842   5.532 -0.6052  2.3021 -1.4433
11838TIP3   OH235435   1.125   4.093   6.123 -0.3880 -0.6699  0.1120
11838TIP3    H135436   1.184   4.046   6.063  0.3795 -0.4502  0.6767
11838TIP3    H235437   1.147   4.058   6.210  0.6550  1.1617  0.6253
11839TIP3   OH235438   8.333   4.873   3.823 -0.3634 -0.7435  0.0415
11839TIP3    H135439   8.377   4.947   3.781 -1.5474  0.6431  1.1959
11839TIP3    H235440   8.277   4.837   3.755 -2.8550  1.9642  0.5848
11840TIP3   OH235441   8.058   5.835   4.303  0.2179  0.1051  0.1355
11840TIP3    H135442   8.032   5.758   4.354 -0.2950  0.0082 -0.2738
11840TIP3    H235443   7.999   5.904   4.333 -0.6983 -0.1796 -0.9776
11841TIP3   OH235444   6.885   5.470   3.888 -0.7095 -0.3553  0.0824
11841TIP3    H135445   6.814   5.444   3.948 -2.3489  1.0533 -1.2330
11841TIP3    H235446   6.846   5.535   3.831  2.1360  1.7267  0.4153
11842TIP3   OH235447   8.332   4.209   5.825  0.1945  0.3965 -0.1814
11842TIP3    H135448   8.312   4.161   5.744  1.5695 -0.2761 -0.1473
11842TIP3    H235449   8.269   4.280   5.827 -0.8207 -0.4604 -1.0872
11843TIP3   OH235450   6.207   0.733   4.663 -0.2495 -0.3920 -0.0575
11843TIP3    H135451   6.152   0.693   4.731  0.7124 -0.4969  0.6675
11843TIP3    H235452   6.280   0.772   4.711 -0.3317  0.8285 -0.9091
11844TIP3   OH235453   7.521   2.677   4.110  0.0741 -0.0245  0.4937
11844TIP3    H135454   7.585   2.723   4.056 -0.1074  0.1734  0.4437
11844TIP3    H235455   7.493   2.742   4.175 -0.3670  0.0130  0.2692
11845TIP3   OH235456   8.243   5.322   3.476  0.2402 -0.0615 -0.1479
11845TIP3    H135457   8.214   5.380   3.406 -2.6566  0.1216  1.1598
11845TIP3    H235458   8.207   5.236   3.453  2.3620 -0.8429 -0.7378
11846TIP3   OH235459   7.305   3.585   4.224 -0.4855 -0.1700  0.0648
11846TIP3    H135460   7.320   3.597   4.130  1.0574  0.2772  0.3475
11846TIP3    H235461   7.317   3.491   4.237  0.7250 -0.0287  0.0390
11847TIP3   OH235462   6.326   2.635   1.197  0.1339 -0.2146  0.1073
11847TIP3    H135463   6.339   2.544   1.171 -1.0748 -0.4925  0.4541
11847TIP3    H235464   6.328   2.634   1.292  0.9695  0.2615  0.1032
11848TIP3   OH235465   7.597   1.670   4.520 -1.0248 -0.1160 -0.4095
11848TIP3    H135466   7.576   1.718   4.440 -0.6702 -1.1486 -1.1322
11848TIP3    H235467   7.675   1.713   4.555 -0.0933 -0.8030 -1.6089
11849TIP3   OH235468   0.549   2.139   3.553 -0.1356  0.5239  0.9200
11849TIP3    H135469   0.469   2.182   3.523  0.1610 -0.2007 -1.0097
11849TIP3    H235470   0.600   2.209   3.594 -1.3319  1.1995  1.2610
11850TIP3   OH235471   5.496   1.989   3.741  0.5624  0.2448 -0.3176
11850TIP3    H135472   5.580   2.035   3.743  0.1888  0.9286 -0.2214
11850TIP3    H235473   5.445   2.035   3.675  0.4799 -0.5638 -0.8187
11851TIP3   OH235474   1.103   1.660   6.615  0.2581 -0.1051  0.2016
11851TIP3    H135475   1.173   1.618   6.565  0.1602 -0.0966  0.0546
11851TIP3    H235476   1.046   1.587   6.641 -1.1507  0.1683 -2.0212
11852TIP3   OH235477   0.128   3.239   6.453  0.2823 -0.1085 -0.1602
11852TIP3    H135478   0.091   3.180   6.388 -1.0420  1.2141 -0.6355
11852TIP3    H235479   0.073   3.227   6.531  0.0362  0.4741 -0.2445
11853TIP3   OH235480   7.707   5.500   5.255  0.4906 -0.3183 -0.1961
11853TIP3    H135481   7.735   5.577   5.206  0.7230 -0.8537 -0.9089
11853TIP3    H235482   7.634   5.531   5.309 -1.1511 -0.1863 -2.4087
11854TIP3   OH235483   0.086   4.213   7.261 -0.2025 -0.0392 -0.2293
11854TIP3    H135484   0.053   4.207   7.171  1.6972  1.2933 -1.0347
11854TIP3    H235485   0.181   4.210   7.252  0.0015 -2.1053  1.9290
11855TIP3   OH235486   0.810   4.600   6.964 -0.1788  0.0111  0.0758
11855TIP3    H135487   0.796   4.661   7.037  0.4324 -0.2093  0.3810
11855TIP3    H235488   0.730   4.607   6.912 -0.3887  0.5877  0.4636
11856TIP3   OH235489   5.081   7.658   1.864 -0.0229 -0.1307  0.3527
11856TIP3    H135490   5.052   7.568   1.883  0.0254 -0.1737  0.2268
11856TIP3    H235491   5.008   7.713   1.891  0.5549 -0.0894  1.9092
11857TIP3   OH235492   0.404   2.009   6.192 -0.5496 -0.3956  0.0231
11857TIP3    H135493   0.437   2.051   6.113  0.3028 -2.2020 -0.6203
11857TIP3    H235494   0.478   2.008   6.253 -1.1622  0.8688  0.8095
11858TIP3   OH235495   2.308   3.944   6.152 -0.3871 -0.3072  0.2232
11858TIP3    H135496   2.305   3.940   6.056  0.5752 -0.6816  0.2091
11858TIP3    H235497   2.259   4.024   6.173 -0.4969 -0.1495 -0.5879
11859TIP3   OH235498   3.629   7.317   1.402  0.1768  0.2091  0.4673
11859TIP3    H135499   3.541   7.290   1.375 -0.1015  0.1145  1.4497
11859TIP3    H235500   3.627   7.413   1.397 -0.0609  0.2178  0.7469
11860TIP3   OH235501   8.029   0.196   6.371  0.0373  0.0968 -0.0070
11860TIP3    H135502   8.096   0.207   6.304 -0.3665  1.1290 -0.2435
11860TIP3    H235503   8.075   0.210   6.454  0.1618  0.5313 -0.1536
11861TIP3   OH235504   2.638   8.191   0.672 -0.0986 -0.0127  0.3769
11861TIP3    H135505   2.559   8.227   0.632  0.0683 -0.1987 -0.1279
11861TIP3    H235506   2.625   8.203   0.766 -1.4058 -1.3887  0.3952
11862TIP3   OH235507   8.507   4.696   5.653 -0.3130 -0.3437  0.2670
11862TIP3    H135508   8.438   4.639   5.686 -0.2597  0.1530  1.2397
11862TIP3    H235509   8.494   4.780   5.698 -0.5747  0.5124 -1.3747
11863TIP3   OH235510   4.539   6.871   0.187 -0.1772  0.9401  0.6319
11863TIP3    H135511   4.608   6.911   0.239 -1.2122 -0.1648  2.9436
11863TIP3    H235512   4.509   6.941   0.129  3.6029  1.1263 -1.2539
11864TIP3   OH235513   6.403   6.349   1.775 -0.1197 -0.2377 -0.9492
11864TIP3    H135514   6.464   6.356   1.849 -1.4162  0.6623  0.0648
11864TIP3    H235515   6.337   6.417   1.792 -0.3074  0.1402 -3.0706
11865TIP3   OH235516   2.230   7.741   0.291 -0.4336 -0.0117  0.0913
11865TIP3    H135517   2.198   7.770   0.206 -1.4723 -1.6965 -0.1111
11865TIP3    H235518   2.151   7.728   0.344  0.0842 -0.8138  0.6917
11866TIP3   OH235519   0.772   1.148   0.132  0.0673  0.2025  0.4269
11866TIP3    H135520   0.751   1.077   0.072  1.5766  1.4428 -1.6316
11866TIP3    H235521   0.739   1.227   0.089 -2.3231  0.7567  3.0410
11867TIP3   OH235522   1.050   4.484   6.219 -0.1899  0.2279 -0.1342
11867TIP3    H135523   1.081   4.436   6.296  0.9423 -1.0736 -1.3711
11867TIP3    H235524   0.974   4.533   6.250  0.6093  0.2111  1.9602
11868TIP3   OH235525   8.547   3.696   6.677 -0.2636 -0.1153  0.3883
11868TIP3    H135526   8.490   3.751   6.731 -1.2109 -0.3173 -0.3970
11868TIP3    H235527   8.574   3.753   6.605  0.6577  0.0270  0.8446
11869TIP3   OH235528   6.605   7.839   1.200  0.1560  0.6914  0.1403
11869TIP3    H135529   6.534   7.775   1.207  1.7607 -1.1582  0.1029
11869TIP3    H235530   6.642   7.844   1.289  1.1355  0.2409 -0.2309
11870TIP3   OH235531   5.376   7.976   0.878 -0.1168  0.1248 -0.1026
11870TIP3    H135532   5.372   8.038   0.950 -2.8405 -0.5514  0.4034
11870TIP3    H235533   5.454   8.001   0.829  0.5152  2.0228  1.7771
11871TIP3   OH235534   1.199   4.879   5.559  0.0220  0.0772 -0.0544
11871TIP3    H135535   1.184   4.962   5.603  0.4358  1.0508 -1.7051
11871TIP3    H235536   1.285   4.851   5.589 -0.6169 -0.3707  1.4226
11872TIP3   OH235537   1.185   2.924   6.749 -0.5162 -0.5667 -0.4798
11872TIP3    H135538   1.185   3.018   6.730 -1.5953 -0.2298  1.0269
11872TIP3    H235539   1.275   2.896   6.730  0.4711  1.2552  1.2049
11873TIP3   OH235540   2.423   6.060   6.218  0.5355  0.9113  0.4186
11873TIP3    H135541   2.375   5.977   6.212  0.1168  1.1587  0.3197
11873TIP3    H235542   2.373   6.120   6.163  0.4548  1.4161  1.0483
11874TIP3   OH235543   6.272   0.524   0.092 -0.0483  0.3408 -0.1203
11874TIP3    H135544   6.253   0.583   0.165 -0.3485  2.1405 -1.6055
11874TIP3    H235545   6.361   0.492   0.110 -0.5836 -0.2094  1.6496
11875TIP3   OH235546   6.821   1.779   1.064  0.0710  0.4934  0.1003
11875TIP3    H135547   6.881   1.775   0.990 -2.1162 -1.2160 -1.6542
11875TIP3    H235548   6.810   1.688   1.091 -1.2861  0.8233  0.7433
11876TIP3   OH235549   0.895   4.222   6.945 -0.4625 -0.7957  0.1727
11876TIP3    H135550   0.872   4.220   6.852  0.6764 -0.2221 -0.1322
11876TIP3    H235551   0.811   4.221   6.991 -1.0793  0.3312 -0.8982
11877TIP3   OH235552   0.755   0.399   0.594 -0.0894  0.0780 -0.3464
11877TIP3    H135553   0.717   0.390   0.506  0.4689  1.2711 -0.7236
11877TIP3    H235554   0.765   0.493   0.606 -1.0512 -0.0095  1.3977
11878TIP3   OH235555   4.854   7.890   0.911 -0.4921  0.0728  0.1268
11878TIP3    H135556   4.845   7.858   1.000  0.4114 -0.2967  0.0888
11878TIP3    H235557   4.948   7.884   0.892 -0.6341  0.4330 -0.7369
11879TIP3   OH235558   4.847   1.244   2.187 -0.6313 -0.3019 -0.3914
11879TIP3    H135559   4.796   1.300   2.247  0.3619  0.7853 -0.5514
11879TIP3    H235560   4.930   1.230   2.232 -0.6107 -1.1060 -0.6671
11880TIP3   OH235561   2.280   6.910   0.760 -0.2767  0.2885  0.2569
11880TIP3    H135562   2.276   6.997   0.799 -1.4308  0.6522 -0.6221
11880TIP3    H235563   2.326   6.922   0.677 -1.1707  0.2305 -0.2595
11881TIP3   OH235564   2.838   5.279   7.012  0.0800 -0.1699 -0.0762
11881TIP3    H135565   2.873   5.208   7.066  1.3552  0.6478  0.1947
11881TIP3    H235566   2.912   5.305   6.957 -0.4025  0.8957 -0.2306
11882TIP3   OH235567   6.730   0.011   0.695 -0.2260 -0.7668 -0.3753
11882TIP3    H135568   6.726   0.043   0.605 -0.1904 -1.9652 -0.8099
11882TIP3    H235569   6.655  -0.048   0.703  0.2142 -1.2577  0.1502
11883TIP3   OH235570   3.024   6.940   0.731 -0.1296 -0.5408 -0.2515
11883TIP3    H135571   2.980   6.902   0.807  2.3620 -1.2554  0.9037
11883TIP3    H235572   2.969   7.014   0.706 -2.3474 -1.8594  0.6471
11884TIP3   OH235573   8.542   1.509   0.918 -0.2121 -0.5948 -0.1941
11884TIP3    H135574   8.450   1.524   0.940  0.1569 -0.6532  1.5319
11884TIP3    H235575   8.545   1.420   0.884 -0.8458 -0.4616 -0.6078
11885TIP3   OH235576   2.452   6.960   0.526 -0.0376 -0.2959  0.0266
11885TIP3    H135577   2.467   7.055   0.525 -0.8376 -0.1680 -0.2017
11885TIP3    H235578   2.540   6.922   0.532  0.2163  0.4742  1.3393
11886TIP3   OH235579   8.718   1.417   1.552 -0.2143 -0.1218  0.1572
11886TIP3    H135580   8.778   1.397   1.480 -3.1505 -0.1954 -2.3448
11886TIP3    H235581   8.707   1.512   1.549  0.7023  0.0421  1.4159
11887TIP3   OH235582   8.059   0.169   0.862  0.0139 -0.0719  0.1155
11887TIP3    H135583   8.141   0.130   0.831  1.3187  0.8673  2.2600
11887TIP3    H235584   8.086   0.250   0.904 -2.3875  1.9177 -2.0173
11888TIP3   OH235585   3.764   7.756   1.777  0.2019 -0.1625  0.1150
11888TIP3    H135586   3.712   7.835   1.793  0.4224  0.0703 -0.2920
11888TIP3    H235587   3.770   7.713   1.862 -1.2480 -0.5524  0.0197
11889TIP3   OH235588   3.693   7.448   0.592 -0.1705 -0.1859 -0.1032
11889TIP3    H135589   3.738   7.422   0.512 -1.9137 -0.9209 -0.8669
11889TIP3    H235590   3.685   7.543   0.585 -0.1112 -0.2232 -0.6777
11890TIP3   OH235591   7.166   2.006   0.131  0.1415 -0.0476  0.2482
11890TIP3    H135592   7.071   2.012   0.127  0.2936  1.6382 -1.6337
11890TIP3    H235593   7.189   1.941   0.064  0.4744  1.6876 -1.3517
11891TIP3   OH235594   7.513   3.520   2.727  0.3728  0.0689 -0.2065
11891TIP3    H135595   7.451   3.507   2.798 -0.5755 -0.4651 -1.1155
11891TIP3    H235596   7.589   3.466   2.750 -0.1788 -0.5820  0.0833
11892TIP3   OH235597   6.551   0.833   1.345  0.4362 -0.1336  0.7271
11892TIP3    H135598   6.578   0.854   1.434 -1.5356  1.7661  0.9122
11892TIP3    H235599   6.574   0.911   1.294 -1.7233  0.2464  0.2896
11893TIP3   OH235600   5.938   1.729   2.605 -0.5288  0.4205 -0.7751
11893TIP3    H135601   6.024   1.761   2.632 -0.5972  0.5009 -0.6482
11893TIP3    H235602   5.949   1.702   2.514  0.2275 -1.7360 -0.0807
11894TIP3   OH235603   3.679   8.297   1.973  0.2548  0.1235 -0.1133
11894TIP3    H135604   3.621   8.326   2.043  0.1339 -2.2700  0.8047
11894TIP3    H235605   3.631   8.317   1.893 -1.9166 -1.9179  0.6277
11895TIP3   OH235606   8.822   5.947   5.933 -0.1369  0.0517 -0.0435
11895TIP3    H135607   8.889   5.878   5.924  0.3734  0.4838  0.3691
11895TIP3    H235608   8.872   6.026   5.955 -0.8305  0.2633  0.8158
11896TIP3   OH235609   6.232   6.345   0.106  0.3296 -0.1649  0.1659
11896TIP3    H135610   6.214   6.396   0.027 -1.7551 -2.4445 -0.9259
11896TIP3    H235611   6.324   6.321   0.099  0.5857  1.0276 -0.7231
11897TIP3   OH235612   7.833   3.270   6.036 -0.3087 -0.2620  0.1794
11897TIP3    H135613   7.789   3.352   6.059 -0.4044  0.0926 -1.1913
11897TIP3    H235614   7.921   3.296   6.010 -0.7612 -0.4168 -1.5753
11898TIP3   OH235615   7.614   2.900   6.956 -0.0244  0.0631  0.0497
11898TIP3    H135616   7.661   2.839   6.899  0.4450 -0.7418  1.2704
11898TIP3    H235617   7.547   2.846   6.998 -0.4068  0.6631  0.2080
11899TIP3   OH235618   8.289   1.279   1.298  0.5529 -0.1693  0.2378
11899TIP3    H135619   8.380   1.308   1.310  0.5426  0.2981 -0.7249
11899TIP3    H235620   8.239   1.330   1.362  1.0221 -0.6886  1.0115
11900TIP3   OH235621   7.612   1.673   0.722  0.3661  0.4966 -0.1647
11900TIP3    H135622   7.634   1.646   0.633 -1.5635 -2.4372  0.1707
11900TIP3    H235623   7.555   1.749   0.711  0.0044  0.0448 -1.4394
11901TIP3   OH235624   2.631   5.281   6.710 -0.6918  0.3032  0.4185
11901TIP3    H135625   2.689   5.315   6.641 -0.5980 -1.0414 -0.2027
11901TIP3    H235626   2.613   5.356   6.766  1.6119  0.7759  0.5916
11902TIP3   OH235627   1.425   3.641   6.921 -0.5164 -0.0056  0.1274
11902TIP3    H135628   1.487   3.608   6.987 -0.2738  0.4582  0.1323
11902TIP3    H235629   1.475   3.707   6.873 -0.4604 -0.8418 -0.9937
11903TIP3   OH235630   0.993   4.603   5.824  0.2284  0.0780  0.3200
11903TIP3    H135631   1.006   4.580   5.732 -0.0365 -0.2663  0.3709
11903TIP3    H235632   1.028   4.529   5.873 -0.5222 -0.1689  0.4829
11904TIP3   OH235633   3.050   2.370   6.464  0.2798 -0.3235  0.0712
11904TIP3    H135634   3.027   2.403   6.551  1.4372  0.9467 -0.0800
11904TIP3    H235635   3.117   2.303   6.481  2.0688  1.4098  0.0658
11905TIP3   OH235636   8.024   1.926   2.520 -0.5395 -0.0110 -0.4831
11905TIP3    H135637   8.021   1.832   2.535 -1.4913  0.2229  0.9698
11905TIP3    H235638   8.103   1.955   2.566 -0.3672 -0.0719 -0.7432
11906TIP3   OH235639   1.338   4.700   6.217 -0.4137  0.0564 -0.3531
11906TIP3    H135640   1.318   4.610   6.190 -1.8185  0.3915 -0.4961
11906TIP3    H235641   1.358   4.693   6.311  0.6667 -0.5654 -0.6236
11907TIP3   OH235642   4.654   7.865   2.415 -0.5225  0.1381 -0.0562
11907TIP3    H135643   4.691   7.887   2.500  1.9746  0.5379 -1.2032
11907TIP3    H235644   4.616   7.947   2.382  0.0193  0.3902 -0.0553
11908TIP3   OH235645   1.028   3.761   6.438 -0.1665  0.4177  0.1101
11908TIP3    H135646   1.024   3.760   6.534  0.4189  0.0359  0.1316
11908TIP3    H235647   0.937   3.770   6.411 -0.3177  0.7321  0.7063
11909TIP3   OH235648   3.165   4.720   6.700  0.8813  0.4037  0.2345
11909TIP3    H135649   3.237   4.676   6.745  1.3697  0.3879 -0.5363
11909TIP3    H235650   3.203   4.803   6.670  0.5532  0.4378 -0.0895
11910TIP3   OH235651   3.594   3.581   6.659 -0.1851  0.2191 -0.0617
11910TIP3    H135652   3.643   3.501   6.677 -0.3631  0.3140  0.8958
11910TIP3    H235653   3.514   3.573   6.712 -1.4413 -0.1636 -1.9876
11911TIP3   OH235654   1.063   3.872   6.721 -0.3601  0.3102 -0.1515
11911TIP3    H135655   0.995   3.892   6.785 -0.4330 -0.9502  0.1847
11911TIP3    H235656   1.097   3.786   6.749 -0.5069 -0.3281 -1.9037
11912TIP3   OH235657   1.532   2.670   6.392  0.1307 -0.0443  0.2934
11912TIP3    H135658   1.544   2.648   6.300 -2.2798 -2.4010  0.4980
11912TIP3    H235659   1.609   2.632   6.435  0.2415 -0.7073 -0.4719
11913TIP3   OH235660   8.789   2.679   5.889 -0.4515 -0.1676  0.4900
11913TIP3    H135661   8.720   2.634   5.936 -1.8794  1.1744 -0.2869
11913TIP3    H235662   8.780   2.771   5.914  0.3992  0.1770 -0.4208
11914TIP3   OH235663   4.237   7.869   0.860 -0.0072 -0.0782  0.3276
11914TIP3    H135664   4.297   7.932   0.898  1.0390  0.1792 -1.7226
11914TIP3    H235665   4.174   7.922   0.811 -1.3023 -0.4176  1.5670
11915TIP3   OH235666   2.114   5.042   7.013 -0.3834  0.0667  0.0519
11915TIP3    H135667   2.119   4.947   7.025  2.0359 -0.0519 -1.4242
11915TIP3    H235668   2.140   5.056   6.922 -1.0146  2.1248  0.1649
11916TIP3   OH235669   1.840   2.478   6.140  0.2883  0.0803  0.1377
11916TIP3    H135670   1.824   2.386   6.160 -2.1571  0.6720  1.1799
11916TIP3    H235671   1.884   2.513   6.217 -1.0691  0.3387  0.8075
11917TIP3   OH235672   4.462   5.677   0.687 -0.0974  0.4690  0.4728
11917TIP3    H135673   4.543   5.723   0.665  0.5410 -0.7703  0.2043
11917TIP3    H235674   4.433   5.637   0.605 -0.2402 -0.2381  0.8644
11918TIP3   OH235675   0.841   2.698   7.032 -0.7974  0.0902 -0.1821
11918TIP3    H135676   0.921   2.682   7.081 -0.6335 -0.1441 -0.5245
11918TIP3    H235677   0.869   2.748   6.955 -0.8964 -0.4827 -0.5958
11919TIP3   OH235678   2.037   7.956   0.380  0.3145  0.1084 -0.0213
11919TIP3    H135679   2.125   7.978   0.411  0.1857  0.4025  0.1417
11919TIP3    H235680   1.981   8.023   0.418 -0.0953 -0.5240  0.5003
11920TIP3   OH235681   1.704   2.902   7.030  0.2478 -0.1583  0.0351
11920TIP3    H135682   1.628   2.911   6.972 -1.1052 -3.0934  1.2783
11920TIP3    H235683   1.715   2.989   7.068 -0.7257  1.0355 -2.3225
11921TIP3   OH235684   7.875   2.363   1.512 -0.6329 -0.0847  0.3205
11921TIP3    H135685   7.895   2.357   1.419  1.3768  2.2777  0.5680
11921TIP3    H235686   7.780   2.376   1.516 -0.6343  0.5124 -1.4269
11922TIP3   OH235687   3.472   7.868   1.384  0.6000 -0.1951  0.5490
11922TIP3    H135688   3.522   7.791   1.413 -0.1846 -0.2334  1.7906
11922TIP3    H235689   3.531   7.942   1.400  0.4952 -0.3041  1.4410
11923TIP3   OH235690   0.149   3.633   6.160  0.3660  0.1196 -0.2026
11923TIP3    H135691   0.078   3.645   6.097 -0.1632  1.5640  0.6456
11923TIP3    H235692   0.109   3.587   6.234  0.7345 -0.6248 -0.4595
11924TIP3   OH235693   7.128   0.223   1.706  0.4665  0.1028 -0.0522
11924TIP3    H135694   7.138   0.134   1.673 -1.5147  0.2897 -1.2866
11924TIP3    H235695   7.206   0.269   1.675  0.9422 -0.9165 -0.3921
11925TIP3   OH235696   0.749   5.884   5.848 -0.6873 -0.1963 -0.2791
11925TIP3    H135697   0.655   5.867   5.837 -0.7487 -0.5031  0.6318
11925TIP3    H235698   0.786   5.799   5.869 -0.3505  0.0745  0.2461
11926TIP3   OH235699   6.869   2.127   1.110 -0.6485  0.3602  0.2223
11926TIP3    H135700   6.827   2.048   1.144 -0.3403 -0.4106 -1.1265
11926TIP3    H235701   6.918   2.163   1.184 -0.6932 -0.7779  0.8108
11927TIP3   OH235702   6.365   1.082   2.762  0.0049  0.3415 -0.1713
11927TIP3    H135703   6.446   1.052   2.802  0.3247 -1.4429 -2.1283
11927TIP3    H235704   6.389   1.160   2.713  0.2060  0.7080  0.4946
11928TIP3   OH235705   2.540   4.775   7.214  0.5090  0.0409 -0.1570
11928TIP3    H135706   2.601   4.781   7.141  0.9781 -0.4911  0.1904
11928TIP3    H235707   2.570   4.841   7.276 -0.2411  0.9066 -0.6927
11929TIP3   OH235708   0.535   4.340   5.664 -0.3477  0.3078  0.5676
11929TIP3    H135709   0.589   4.388   5.726 -1.0878  1.0224  0.6638
11929TIP3    H235710   0.478   4.285   5.719 -0.4284  0.3187  0.4955
11930TIP3   OH235711   7.415   0.624   0.735  0.1079  0.1882  0.3449
11930TIP3    H135712   7.407   0.613   0.830  0.2541  0.3486  0.3759
11930TIP3    H235713   7.402   0.536   0.700  0.0049  0.1367  0.5109
11931TIP3   OH235714   7.330   2.187   0.542  0.2424 -0.5592 -0.2838
11931TIP3    H135715   7.395   2.240   0.496  0.9542  0.0932  1.4387
11931TIP3    H235716   7.248   2.236   0.533  0.7260  0.4214  0.5708
11932TIP3   OH235717   0.099   5.614   4.330  0.1301  0.5269  0.0931
11932TIP3    H135718   0.076   5.645   4.418  0.0693 -0.1044  0.3090
11932TIP3    H235719   0.028   5.645   4.274  0.1589  0.9196  0.2755
11933TIP3   OH235720   4.127   8.327   0.574  0.4257  0.6337  0.4011
11933TIP3    H135721   4.124   8.418   0.544 -0.4762  0.7165  0.7429
11933TIP3    H235722   4.122   8.333   0.670  1.6209  0.2853  0.4921
11934TIP3   OH235723   5.098   7.838   2.891 -0.2920 -0.0993  0.5917
11934TIP3    H135724   5.011   7.857   2.926 -1.3842 -0.8621 -1.6106
11934TIP3    H235725   5.126   7.920   2.851  0.0897  0.1838  1.4138
11935TIP3   OH235726   8.451   3.016   5.082 -0.3672  0.3047  0.3110
11935TIP3    H135727   8.405   3.053   5.157 -1.0774  1.4237 -0.6692
11935TIP3    H235728   8.382   2.982   5.026  0.1669 -0.6041  0.1941
11936TIP3   OH235729   6.271   0.484   1.526  0.0534 -0.4676  0.1945
11936TIP3    H135730   6.227   0.564   1.500  2.0815  0.4884 -0.4110
11936TIP3    H235731   6.205   0.415   1.515 -1.2873  0.9182 -0.6029
11937TIP3   OH235732   4.353   8.172   0.032 -0.2151 -0.0328  0.0415
11937TIP3    H135733   4.328   8.081   0.012  1.0945 -0.3894 -0.0383
11937TIP3    H235734   4.271   8.221   0.027 -0.7452 -1.0056 -1.1046
11938TIP3   OH235735   0.668   2.682   0.471  0.3367 -0.4511  0.2491
11938TIP3    H135736   0.582   2.667   0.431  0.3954 -1.4416  0.4916
11938TIP3    H235737   0.648   2.719   0.558  0.1431 -1.1741  0.5137
11939TIP3   OH235738   1.597   2.241   0.447 -0.1783 -0.0904 -0.1779
11939TIP3    H135739   1.688   2.238   0.418 -0.0810 -0.0446  0.1204
11939TIP3    H235740   1.559   2.161   0.412  0.8465 -1.8255  2.5593
11940TIP3   OH235741   1.038   3.574   6.201 -1.0494 -0.3791  0.2720
11940TIP3    H135742   1.098   3.520   6.254  0.7098 -0.2999 -1.5870
11940TIP3    H235743   1.037   3.659   6.246  1.9362  0.2948 -0.7922
11941TIP3   OH235744   0.695   0.796   1.651 -0.0286  0.1423  0.3028
11941TIP3    H135745   0.639   0.874   1.656 -0.8870 -0.4392 -0.2523
11941TIP3    H235746   0.761   0.819   1.586 -0.1229  0.5044  0.3297
11942TIP3   OH235747   1.245   0.073   1.065  0.1008 -0.1486 -0.4867
11942TIP3    H135748   1.278   0.154   1.105  2.2681 -0.5860 -1.2868
11942TIP3    H235749   1.278   0.076   0.975  0.1835 -1.8964 -0.5377
11943TIP3   OH235750   8.856   3.658   7.152  0.4312  0.0526  0.1872
11943TIP3    H135751   8.818   3.733   7.106 -2.9764 -2.6087 -1.6308
11943TIP3    H235752   8.929   3.631   7.097  0.9594  1.3198  0.2459
11944TIP3   OH235753   1.467   7.636   1.436 -0.0384  0.5001 -0.0211
11944TIP3    H135754   1.384   7.675   1.407 -0.7671  1.0651  2.6589
11944TIP3    H235755   1.442   7.551   1.472  0.9054 -0.3689 -1.3573
11945TIP3   OH235756   5.541   0.184   0.368 -0.6946 -0.2067  0.0902
11945TIP3    H135757   5.536   0.246   0.295 -1.0502 -0.5676 -0.1911
11945TIP3    H235758   5.571   0.102   0.329  2.2447  0.4427  0.8685
11946TIP3   OH235759   7.757   0.543   1.162  0.0053 -0.2681 -0.5339
11946TIP3    H135760   7.670   0.560   1.126  0.5138  0.7052 -1.3194
11946TIP3    H235761   7.801   0.628   1.160  1.3391 -0.9517 -1.1378
11947TIP3   OH235762   5.457   6.769   1.042 -0.7270 -0.4363 -0.0034
11947TIP3    H135763   5.398   6.695   1.032  0.0442 -0.7557 -2.5005
11947TIP3    H235764   5.545   6.731   1.040 -0.3335  0.4797 -0.8713
11948TIP3   OH235765   3.298   7.435   0.399 -0.2299 -0.0774 -0.3330
11948TIP3    H135766   3.351   7.423   0.320  1.0631 -1.0986  0.6666
11948TIP3    H235767   3.252   7.352   0.410 -1.5113  0.5577 -0.7879
11949TIP3   OH235768   2.712   8.060   0.421  0.0416  0.3572 -0.1737
11949TIP3    H135769   2.679   8.025   0.504 -1.2717 -0.4721 -1.0297
11949TIP3    H235770   2.793   8.105   0.445  0.4479 -1.1251  1.3395
11950TIP3   OH235771   7.581   1.235   0.507 -0.3991  0.1971  0.1848
11950TIP3    H135772   7.618   1.148   0.498 -0.4786  0.1887 -0.0727
11950TIP3    H235773   7.513   1.239   0.440 -0.2232  0.5474  0.0268
11951TIP3   OH235774   1.007   6.017   5.574  0.5855 -0.6480 -0.0253
11951TIP3    H135775   1.083   6.010   5.516 -0.2094 -1.4308 -1.0041
11951TIP3    H235776   0.932   6.004   5.516 -0.3268  0.7538  0.8177
11952TIP3   OH235777   8.412   2.951   5.448 -0.4549 -0.1456  0.1450
11952TIP3    H135778   8.375   3.016   5.388 -0.6019 -0.8586 -0.5328
11952TIP3    H235779   8.471   2.899   5.394 -2.3451 -2.2919  0.1022
11953TIP3   OH235780   7.522   0.850   0.960  0.1825 -0.4256  0.0441
11953TIP3    H135781   7.514   0.859   0.865  1.8949 -1.3656 -0.2187
11953TIP3    H235782   7.513   0.939   0.994  1.8588  0.2372 -1.1935
11954TIP3   OH235783   0.481   5.369   7.192 -0.0586  0.3713  0.0965
11954TIP3    H135784   0.393   5.405   7.207 -0.9843 -1.9496  0.5037
11954TIP3    H235785   0.539   5.444   7.196 -2.0285  1.9291 -0.0346
11955TIP3   OH235786   5.850   1.102   0.856 -1.1276 -0.4778 -0.2890
11955TIP3    H135787   5.849   1.043   0.781  0.1729 -0.8321 -0.0328
11955TIP3    H235788   5.935   1.146   0.851 -1.4920  0.3062  0.3488
11956TIP3   OH235789   1.547   1.600   5.330  0.5062  0.2273 -0.3751
11956TIP3    H135790   1.528   1.602   5.237 -0.8204 -0.3740 -0.1208
11956TIP3    H235791   1.509   1.518   5.361 -2.5450  2.2087  1.4081
11957TIP3   OH235792   2.541   3.319   7.187  0.2493 -0.4871  0.2600
11957TIP3    H135793   2.566   3.321   7.280  0.6273 -0.5419  0.1597
11957TIP3    H235794   2.566   3.232   7.157 -1.9330 -1.2987  0.6691
11958TIP3   OH235795   5.721   8.028   1.167  0.3993  0.3549  0.2776
11958TIP3    H135796   5.669   7.952   1.193  0.7361  0.2840  0.7369
11958TIP3    H235797   5.699   8.041   1.075  0.1179 -0.1199  0.2764
11959TIP3   OH235798   6.402   1.077   0.369 -0.0418  0.0394  0.1687
11959TIP3    H135799   6.393   0.991   0.410  1.1052 -0.4754 -0.6105
11959TIP3    H235800   6.429   1.058   0.279  0.2240  1.2164 -0.0140
11960TIP3   OH235801   4.664   6.128   0.773 -0.2580 -0.4533  0.1717
11960TIP3    H135802   4.648   6.033   0.773 -0.5029 -0.4294  1.6261
11960TIP3    H235803   4.577   6.166   0.758 -0.7111 -0.4244  2.6477
11961TIP3   OH235804   3.637   6.575   0.294 -0.6586 -0.3034 -0.2112
11961TIP3    H135805   3.718   6.562   0.245 -1.9419 -0.1118 -2.4165
11961TIP3    H235806   3.629   6.670   0.303  0.4210 -0.3784  1.8629
11962TIP3   OH235807   2.242   4.313   5.877  0.0403 -0.2632 -0.0283
11962TIP3    H135808   2.296   4.246   5.835 -0.1031 -1.2817  1.3675
11962TIP3    H235809   2.304   4.366   5.926  0.1734  0.7483 -1.2678
11963TIP3   OH235810   5.782   0.759   0.286  0.0495 -0.1069  0.2584
11963TIP3    H135811   5.712   0.731   0.347  1.6789 -0.9891  1.7772
11963TIP3    H235812   5.770   0.702   0.210  0.5144 -1.8677  1.4661
11964TIP3   OH235813   4.596   6.461   2.036  0.5312 -0.4695 -0.6622
11964TIP3    H135814   4.531   6.421   1.978 -1.0056  1.1205 -0.0736
11964TIP3    H235815   4.658   6.503   1.976  0.3867 -1.0192 -1.2068
11965TIP3   OH235816   8.221   0.274   1.168 -0.1968  0.1013 -0.2735
11965TIP3    H135817   8.157   0.346   1.166 -0.5716 -0.2301 -0.2580
11965TIP3    H235818   8.300   0.313   1.206  0.2762  1.0579 -2.1777
11966TIP3   OH235819   2.958   7.401   0.496  0.0931 -0.1240 -0.0360
11966TIP3    H135820   3.022   7.439   0.556 -0.7623 -1.1504  1.5577
11966TIP3    H235821   2.895   7.471   0.480  0.6764  0.3532 -0.2463
11967TIP3   OH235822   8.271   3.521   6.940  0.4131  0.0589  0.3989
11967TIP3    H135823   8.187   3.509   6.895  0.1807 -2.3562  1.3912
11967TIP3    H235824   8.254   3.593   7.001 -1.0117 -0.5418  0.7425
11968TIP3   OH235825   3.642   7.220   0.255  0.1515 -0.5594  0.3749
11968TIP3    H135826   3.596   7.300   0.230 -0.8354 -1.5771 -1.1589
11968TIP3    H235827   3.735   7.242   0.248 -0.1231  0.2129 -0.8141
11969TIP3   OH235828   3.403   8.187   0.826 -0.1469  0.0465  0.0128
11969TIP3    H135829   3.437   8.202   0.915 -1.2979  0.9183  0.3171
11969TIP3    H235830   3.427   8.266   0.778 -1.9903  0.8112  0.3149
11970TIP3   OH235831   7.849   3.658   7.026  0.0194 -0.5116  0.5422
11970TIP3    H135832   7.838   3.735   6.971  1.4610 -1.5159 -1.2018
11970TIP3    H235833   7.863   3.692   7.114  1.2162  1.2302 -0.3098
11971TIP3   OH235834   0.701   3.717   6.567  0.2551 -0.0641  0.7861
11971TIP3    H135835   0.638   3.677   6.507  0.3889 -0.6600  1.0374
11971TIP3    H235836   0.751   3.643   6.602  1.7047  0.4815 -0.0833
11972TIP3   OH235837   0.002   4.881   6.833 -0.2678  0.4927 -0.2805
11972TIP3    H135838  -0.030   4.970   6.819  0.6142  1.2173  2.1047
11972TIP3    H235839   0.097   4.890   6.835 -0.1526 -0.6094 -0.6888
11973TIP3   OH235840   4.231   7.909   1.717  0.3636  0.2710 -0.4481
11973TIP3    H135841   4.279   7.914   1.799 -0.5088  0.2309  0.0747
11973TIP3    H235842   4.256   7.989   1.670  1.8994 -0.3657 -0.7289
11974TIP3   OH235843   7.999   5.067   6.975  0.8818 -0.3629  0.2147
11974TIP3    H135844   7.997   5.092   6.882  1.9419  1.6014  0.6930
11974TIP3    H235845   7.983   5.149   7.022 -1.1994 -1.5942  1.7672
11975TIP3   OH235846   7.791   2.903   5.640 -0.2409  0.1770  0.1560
11975TIP3    H135847   7.813   2.894   5.733 -1.2639  0.2774  0.4106
11975TIP3    H235848   7.805   2.816   5.603  1.0407  0.3451  0.2065
11976TIP3   OH235849   7.438   0.742   2.261  0.1721 -0.1794 -0.4282
11976TIP3    H135850   7.477   0.667   2.216  0.4719 -0.8771  0.9630
11976TIP3    H235851   7.394   0.704   2.336 -1.5667  0.8199 -0.9284
11977TIP3   OH235852   1.597   1.562   0.501  0.3024 -0.4517  0.0151
11977TIP3    H135853   1.541   1.584   0.427 -0.8213  2.4721  1.6917
11977TIP3    H235854   1.551   1.595   0.578  2.3732 -1.6909  1.8512
11978TIP3   OH235855   2.444   7.012   0.215  0.1644  0.5007 -0.2966
11978TIP3    H135856   2.498   6.941   0.251 -0.0105  0.5040 -0.0281
11978TIP3    H235857   2.354   6.982   0.229  0.0911  0.7686 -0.1961
11979TIP3   OH235858   3.496   6.727   0.980 -0.2887 -0.3961 -0.2659
11979TIP3    H135859   3.403   6.745   0.973 -0.1546 -0.1255 -1.4254
11979TIP3    H235860   3.539   6.812   0.973  0.1599 -0.7388 -2.3811
11980TIP3   OH235861   7.614   4.614   6.519 -0.8553  0.5512  0.3256
11980TIP3    H135862   7.560   4.682   6.479 -2.1947 -0.6628  0.0085
11980TIP3    H235863   7.574   4.532   6.490  0.4994 -0.3718  1.0103
11981TIP3   OH235864   1.941   4.579   6.905  0.7429 -0.1260  0.0866
11981TIP3    H135865   1.867   4.520   6.893  1.2101 -1.1429  2.1393
11981TIP3    H235866   1.969   4.600   6.815 -1.4493 -0.4260 -0.6987
11982TIP3   OH235867   4.531   6.308   0.463 -0.1191  0.3286  0.2622
11982TIP3    H135868   4.464   6.338   0.401 -0.7648 -1.6629 -0.0137
11982TIP3    H235869   4.570   6.389   0.496 -0.7613  1.4600 -1.6474
11983TIP3   OH235870   2.305   7.775   0.603 -0.6206  0.3060  0.2820
11983TIP3    H135871   2.234   7.738   0.654  0.0253 -0.0304  0.9439
11983TIP3    H235872   2.342   7.700   0.555  0.4571  0.1342  1.3494
11984TIP3   OH235873   2.138   4.158   6.068  0.5823 -0.3296  0.5562
11984TIP3    H135874   2.176   4.197   5.989  0.5596 -0.0745  0.6687
11984TIP3    H235875   2.056   4.118   6.038  1.2908 -1.5105  0.1753
11985TIP3   OH235876   5.546   0.796   1.258  0.0222 -0.3034  0.4758
11985TIP3    H135877   5.601   0.818   1.183 -1.9015 -2.0838 -1.5241
11985TIP3    H235878   5.607   0.769   1.326  1.8439  2.0230 -0.1859
11986TIP3   OH235879   8.898   4.875   5.917 -0.1991 -0.3680  0.0291
11986TIP3    H135880   8.927   4.914   5.999 -1.2272  0.3398  0.0657
11986TIP3    H235881   8.864   4.948   5.866  1.8484 -0.5414 -1.6775
11987TIP3   OH235882   8.736   1.291   1.071 -0.3594 -0.0577 -0.1570
11987TIP3    H135883   8.688   1.305   0.989 -0.9299 -0.5129  0.0959
11987TIP3    H235884   8.685   1.225   1.118  1.0777 -1.3265 -0.3498
11988TIP3   OH235885   0.286   1.480   3.175 -0.1893 -0.2964 -0.1987
11988TIP3    H135886   0.335   1.562   3.171 -0.5387  0.1110  2.5855
11988TIP3    H235887   0.342   1.416   3.131  0.2871  1.3249 -1.9919
11989TIP3   OH235888   6.355   1.794   2.310  0.1639 -0.2779  0.3786
11989TIP3    H135889   6.426   1.763   2.255  0.5232  0.4396  0.4320
11989TIP3    H235890   6.293   1.835   2.249  0.8791  1.1118  0.5671
11990TIP3   OH235891   4.455   2.335   0.046  0.1523 -0.0533  0.4619
11990TIP3    H135892   4.433   2.426   0.064 -0.6173 -0.1807  0.1859
11990TIP3    H235893   4.485   2.334  -0.044  0.7235  0.0217  0.6497
11991TIP3   OH235894   3.500   7.848   0.694 -0.2142  0.1771  0.2687
11991TIP3    H135895   3.467   7.772   0.742 -0.3852 -0.9595 -1.6127
11991TIP3    H235896   3.426   7.909   0.692 -0.4400 -0.0753  0.7672
11992TIP3   OH235897   6.753   6.843   0.897 -0.1208 -0.2038 -0.1907
11992TIP3    H135898   6.717   6.768   0.849 -1.4015  0.0629  0.3473
11992TIP3    H235899   6.832   6.808   0.939  0.1341 -0.8503 -1.1977
11993TIP3   OH235900   6.682   0.657   1.565  0.0074 -0.1293 -0.3587
11993TIP3    H135901   6.613   0.594   1.545  0.2638 -0.6068  0.2757
11993TIP3    H235902   6.694   0.651   1.659  0.6922  0.1915 -0.4239
11994TIP3   OH235903   4.915   7.125   2.226  0.1787  0.0946  0.8088
11994TIP3    H135904   4.836   7.169   2.257 -1.2025 -1.5047 -0.3796
11994TIP3    H235905   4.986   7.165   2.277 -1.4186  1.2623  2.1763
11995TIP3   OH235906   4.141   7.239   0.870  0.1909  0.2184  0.5319
11995TIP3    H135907   4.136   7.234   0.966  0.0083  2.2712  0.6628
11995TIP3    H235908   4.066   7.189   0.840 -0.4883  0.6188  1.5149
11996TIP3   OH235909   4.544   8.242   1.343 -0.2165 -0.3838  0.1788
11996TIP3    H135910   4.602   8.291   1.286 -1.4870  0.3725 -0.4991
11996TIP3    H235911   4.553   8.285   1.429 -2.2035  1.8912 -0.6635
11997TIP3   OH235912   8.145   4.820   6.606 -0.3853 -0.0334  0.5044
11997TIP3    H135913   8.054   4.836   6.582 -0.7253  0.0025  1.7512
11997TIP3    H235914   8.142   4.800   6.700  0.8406 -0.4661  0.4653
11998TIP3   OH235915   5.143   8.103   1.918 -0.4200 -0.1212  1.0270
11998TIP3    H135916   5.063   8.097   1.971 -1.3543  1.0016 -0.2237
11998TIP3    H235917   5.127   8.177   1.859  0.6929 -1.1922 -0.6541
11999TIP3   OH235918   7.536   1.310   1.236 -0.4586  0.6472  0.2797
11999TIP3    H135919   7.500   1.353   1.313  1.0948  0.5126  1.0994
11999TIP3    H235920   7.631   1.321   1.245 -0.2414  0.2402 -1.3803
12000TIP3   OH235921   7.502   0.592   1.086 -0.2228 -0.2723  0.4547
12000TIP3    H135922   7.413   0.571   1.058  0.2856 -0.8597 -0.7692
12000TIP3    H235923   7.522   0.674   1.042 -0.4681  0.3155  1.4274
12001TIP3   OH235924   0.418   5.133   6.727  0.3964  0.1567  0.3870
12001TIP3    H135925   0.502   5.176   6.710 -0.2454  0.7395 -1.4250
12001TIP3    H235926   0.422   5.052   6.677 -0.3061  0.4160 -0.0974
12002TIP3   OH235927   7.357   2.558   0.696 -0.5297  0.4682  0.2225
12002TIP3    H135928   7.386   2.578   0.607 -3.0820  0.7220 -0.5873
12002TIP3    H235929   7.332   2.465   0.693 -0.2556  0.3683  0.7929
12003TIP3   OH235930   0.988   3.113   6.905 -0.3203  0.4721  0.1723
12003TIP3    H135931   1.029   3.029   6.884 -0.6296 -0.1813  2.1273
12003TIP3    H235932   1.048   3.154   6.967  0.0795  1.9458 -1.1400
12004TIP3   OH235933   7.820   2.123   0.179  0.5160 -0.5358 -0.4290
12004TIP3    H135934   7.844   2.030   0.181 -0.5928 -0.8113  0.2691
12004TIP3    H235935   7.727   2.124   0.154 -0.2966  0.2122  2.3995
12005TIP3   OH235936   1.290   6.093   7.159  0.0932  0.2074  0.2465
12005TIP3    H135937   1.338   6.106   7.078  0.2157  2.1594  0.6184
12005TIP3    H235938   1.305   6.001   7.182  2.1292  0.3183 -0.5964
12006TIP3   OH235939   2.423   5.921   1.753  0.6508 -0.0777 -0.2075
12006TIP3    H135940   2.352   5.902   1.692 -0.1841 -1.5247  1.1929
12006TIP3    H235941   2.495   5.951   1.697 -0.1896 -1.1066 -1.8772
12007TIP3   OH235942   7.754   2.797   2.171  0.3823 -0.5153  0.0288
12007TIP3    H135943   7.779   2.827   2.083 -1.8762 -0.5898 -0.6764
12007TIP3    H235944   7.719   2.709   2.156  0.8214 -0.8868  1.1504
12008TIP3   OH235945   3.379   5.586   6.752  0.5684  0.1967  0.5054
12008TIP3    H135946   3.457   5.588   6.807  0.3015 -0.3990  0.9119
12008TIP3    H235947   3.309   5.618   6.809  0.4533  0.4207  0.2409
12009TIP3   OH235948   5.305   0.002   0.186  0.0249  0.1043  0.0937
12009TIP3    H135949   5.364   0.059   0.235  1.4835 -0.9120 -0.4848
12009TIP3    H235950   5.238  -0.023   0.250 -0.3372  2.0148  0.4989
12010TIP3   OH235951   3.288   4.227   6.523 -0.1701 -0.0206  0.1610
12010TIP3    H135952   3.219   4.277   6.479 -1.3672 -0.6911  1.2458
12010TIP3    H235953   3.285   4.141   6.481 -1.6582 -0.8268  1.8543
12011TIP3   OH235954   3.849   7.413   0.857  0.5584 -0.3038 -1.2888
12011TIP3    H135955   3.790   7.409   0.782 -1.2100  1.7786 -0.0717
12011TIP3    H235956   3.902   7.491   0.842 -0.2864  0.5333 -0.0832
12012TIP3   OH235957   7.169   1.401   0.107 -0.5726 -0.6089  0.4167
12012TIP3    H135958   7.131   1.342   0.172  1.8522 -0.1455  2.3042
12012TIP3    H235959   7.148   1.360   0.023 -1.3624 -2.6772  1.5831
12013TIP3   OH235960   4.609   7.460   0.435  0.0845 -0.7393  0.4056
12013TIP3    H135961   4.696   7.446   0.471  0.1344 -1.1795  0.1125
12013TIP3    H235962   4.550   7.441   0.509  0.1736 -2.0002  0.1694
12014TIP3   OH235963   2.300   7.853   1.894  0.4412  0.5579  0.5008
12014TIP3    H135964   2.366   7.907   1.849  1.8117 -0.7593  0.9230
12014TIP3    H235965   2.334   7.764   1.889 -2.0549 -0.3907 -0.6449
12015TIP3   OH235966   0.293   2.931   6.460 -0.8485 -0.3961  0.3001
12015TIP3    H135967   0.315   2.964   6.373 -0.2901  3.0786  1.6569
12015TIP3    H235968   0.369   2.952   6.514 -0.6804 -3.5988  1.4243
12016TIP3   OH235969   0.284   3.476   6.766  0.8101  0.8591 -0.3115
12016TIP3    H135970   0.330   3.445   6.688  0.0262  0.7015 -0.7193
12016TIP3    H235971   0.311   3.416   6.836  2.1008  1.4574 -0.2856
12017TIP3   OH235972   3.830   7.973   1.030 -0.5310  0.1850  0.3082
12017TIP3    H135973   3.812   8.017   1.113 -0.0411  0.9789  0.0012
12017TIP3    H235974   3.847   7.882   1.054 -0.9824  0.2811  1.0140
12018TIP3   OH235975   3.919   7.425   0.428  0.2741 -0.0062 -0.2023
12018TIP3    H135976   4.004   7.462   0.453  0.2310  0.7022 -1.0874
12018TIP3    H235977   3.938   7.369   0.353 -0.1561  0.7987 -0.9201
12019TIP3   OH235978   0.475   4.159   6.282  0.5104 -0.2985  0.0583
12019TIP3    H135979   0.435   4.073   6.290  0.7219 -0.2685  1.6923
12019TIP3    H235980   0.402   4.221   6.284  0.3038 -0.4489 -1.8197
12020TIP3   OH235981   7.170   2.062   1.173 -0.6966 -0.0202  0.0417
12020TIP3    H135982   7.121   2.100   1.246 -1.3084 -1.2580  0.3003
12020TIP3    H235983   7.144   2.113   1.097 -0.9133  0.5665  0.5102
12021TIP3   OH235984   2.490   6.864   0.933 -0.5058  0.5272  0.0202
12021TIP3    H135985   2.411   6.864   0.879  0.8093 -1.0417 -1.9883
12021TIP3    H235986   2.537   6.942   0.906  0.2312 -0.3454 -1.2723
12022TIP3   OH235987   1.521   5.615   7.081  0.1840  0.1745 -0.4997
12022TIP3    H135988   1.511   5.566   7.000 -0.4583  0.1404 -0.4016
12022TIP3    H235989   1.521   5.549   7.150 -1.7803  0.3926 -0.2859
12023TIP3   OH235990   8.788   1.337   2.259  0.3983 -0.0540 -0.1593
12023TIP3    H135991   8.759   1.426   2.239  1.5846  0.7289  1.4776
12023TIP3    H235992   8.872   1.328   2.213  1.3156  0.4449  1.3806
12024TIP3   OH235993   7.926   1.121   0.229  0.4369 -0.1396 -0.3219
12024TIP3    H135994   7.927   1.189   0.162 -2.2850  0.6749  0.4018
12024TIP3    H235995   7.848   1.069   0.208  0.1246 -0.4730  1.6073
12025TIP3   OH235996   4.208   5.748   1.058 -0.1183 -0.4728 -0.3179
12025TIP3    H135997   4.302   5.730   1.067  0.3102  1.6705 -0.2846
12025TIP3    H235998   4.187   5.806   1.131 -1.8396 -2.2110  0.6035
12026TIP3   OH235999   6.410   2.778   0.949 -0.1834  0.2869  0.3487
12026TIP3    H136000   6.319   2.760   0.927 -0.4152 -0.1962  1.6785
12026TIP3    H236001   6.416   2.764   1.043  1.6878 -1.4709  0.0057
12027TIP3   OH236002   2.546   4.425   6.659 -0.8504 -0.2208 -0.0337
12027TIP3    H136003   2.614   4.397   6.599 -0.0380  3.2369 -0.8322
12027TIP3    H236004   2.470   4.372   6.636  0.2216 -0.8109 -2.3055
12028TIP3   OH236005   8.535   5.911   5.945 -0.0512 -0.2078  0.3073
12028TIP3    H136006   8.629   5.915   5.931 -0.0143 -1.9181 -0.1712
12028TIP3    H236007   8.497   5.943   5.863  0.1406 -1.5936 -0.3431
12029TIP3   OH236008   7.659   1.095   1.419  0.3895  0.2079 -0.1872
12029TIP3    H136009   7.633   1.178   1.458  2.5644  0.8612 -0.0542
12029TIP3    H236010   7.607   1.030   1.465 -0.0447  1.3376  0.9654
12030TIP3   OH236011   4.081   7.645   2.530  0.3271  0.2286  0.0644
12030TIP3    H136012   4.056   7.717   2.472 -0.1804 -0.8698 -1.1016
12030TIP3    H236013   4.066   7.566   2.478  0.9818 -0.7179  1.2911
12031TIP3   OH236014   7.611   0.229   1.378  0.4294  0.4274 -0.4697
12031TIP3    H136015   7.647   0.159   1.325  0.3531 -0.4066  0.5587
12031TIP3    H236016   7.565   0.286   1.316 -0.3474 -0.9553 -1.1714
12032TIP3   OH236017   5.258   6.618   1.188 -0.3538  0.1741  0.5271
12032TIP3    H136018   5.331   6.558   1.206 -0.6000 -1.2819 -2.7990
12032TIP3    H236019   5.181   6.562   1.189 -0.9843  1.0378  0.5446
12033TIP3   OH236020   1.304   3.554   6.009  0.0962 -0.0013 -0.0873
12033TIP3    H136021   1.389   3.547   5.964  0.4296 -2.3258  0.8505
12033TIP3    H236022   1.266   3.467   6.002 -2.4272  1.1137 -0.8282
12034TIP3   OH236023   8.352   3.507   6.632 -0.2085 -0.2186  0.5029
12034TIP3    H136024   8.323   3.489   6.721 -2.7391  1.8375  0.1391
12034TIP3    H236025   8.433   3.557   6.643 -1.2868  1.3186  1.7118
12035TIP3   OH236026   7.734   2.558   5.259  0.3589 -0.2509 -0.4010
12035TIP3    H136027   7.658   2.612   5.282 -0.0481 -1.5700  1.4490
12035TIP3    H236028   7.700   2.469   5.254  1.3020 -0.5315 -2.0680
12036TIP3   OH236029   1.402   2.416   6.686  0.3602 -0.1745 -0.6985
12036TIP3    H136030   1.449   2.335   6.707 -0.8228 -0.5887  0.3771
12036TIP3    H236031   1.415   2.473   6.762 -1.3731 -0.5296 -0.1023
12037TIP3   OH236032   1.593   4.597   6.950 -0.0165  0.3744 -0.4228
12037TIP3    H136033   1.620   4.508   6.973 -1.0046  0.4338  0.9901
12037TIP3    H236034   1.590   4.597   6.854 -0.2972 -1.2014 -0.4268
12038TIP3   OH236035   5.701   6.819   0.509 -0.2016  0.0015 -0.1451
12038TIP3    H136036   5.670   6.899   0.466  1.1314  0.7979  0.3618
12038TIP3    H236037   5.621   6.772   0.532 -1.0118  1.5071  0.1603
12039TIP3   OH236038   1.371   4.702   6.516  0.5579  0.1414 -0.3440
12039TIP3    H136039   1.277   4.686   6.508  0.1628  0.5423  3.0334
12039TIP3    H236040   1.409   4.616   6.532  0.5978  0.1718 -0.2762
12040TIP3   OH236041   3.186   8.077   1.052 -0.2577  0.4326  0.0289
12040TIP3    H136042   3.279   8.095   1.041 -0.3613 -0.1241 -1.9258
12040TIP3    H236043   3.180   8.036   1.139  1.6669 -1.7576 -0.8259
12041TIP3   OH236044   1.953   5.310   6.725  0.3376  0.4713 -0.5518
12041TIP3    H136045   1.969   5.221   6.692 -0.6279  0.7741 -1.8771
12041TIP3    H236046   1.946   5.364   6.647 -2.3424  1.1549  0.0925
12042TIP3   OH236047   1.261   4.891   7.049  0.0131  0.2736  0.4033
12042TIP3    H136048   1.310   4.826   7.100  0.1282 -1.6704 -2.1055
12042TIP3    H236049   1.232   4.955   7.114  1.5034 -1.2761  2.6751
12043TIP3   OH236050   6.902   5.965   0.958 -0.3184 -0.0340 -0.0981
12043TIP3    H136051   6.860   6.043   0.993 -0.1170 -1.5649  3.8277
12043TIP3    H236052   6.849   5.892   0.992  0.5987 -1.6829 -2.0698
12044TIP3   OH236053   5.608   1.231   0.924 -0.3149 -0.0122  0.0151
12044TIP3    H136054   5.596   1.274   1.008  0.7536  0.5251 -0.0972
12044TIP3    H236055   5.687   1.178   0.935  0.0660  0.3750 -0.7679
12045TIP3   OH236056   1.457   2.105   0.764  0.4062 -0.1499  0.4008
12045TIP3    H136057   1.493   2.038   0.705  0.6462  0.0209  0.3546
12045TIP3    H236058   1.424   2.173   0.706  0.9966  0.2008  0.4723
12046TIP3   OH236059   5.170   7.862   0.057 -0.1730  0.2080 -0.0971
12046TIP3    H136060   5.248   7.854   0.002 -0.2186  0.3350 -0.1807
12046TIP3    H236061   5.124   7.939   0.023 -0.1936  0.2977  0.1279
12047TIP3   OH236062   4.106   4.269   6.929 -0.0365 -0.6167  0.0887
12047TIP3    H136063   4.066   4.350   6.898  0.6596 -0.3696 -0.1623
12047TIP3    H236064   4.056   4.247   7.008  0.2671  0.4735  0.5964
12048TIP3   OH236065   7.978   8.306   0.601  0.1945  0.4388  0.1994
12048TIP3    H136066   7.892   8.343   0.619  0.0612 -0.5069  1.5439
12048TIP3    H236067   8.006   8.268   0.684  1.1244 -0.8520 -0.6862
12049TIP3   OH236068   2.423   6.808   6.294 -0.3710  0.9004 -0.8635
12049TIP3    H136069   2.372   6.737   6.334  2.6239  0.4407  2.4148
12049TIP3    H236070   2.489   6.763   6.241 -0.5694  1.3388 -1.4796
12050TIP3   OH236071   0.734   5.518   6.289 -0.4357  0.0494  0.1677
12050TIP3    H136072   0.784   5.581   6.237  1.3001 -0.7020  0.8953
12050TIP3    H236073   0.645   5.553   6.290 -0.3478  0.4808 -2.6780
12051TIP3   OH236074   0.351   4.947   5.812 -0.1258  0.2580 -0.1806
12051TIP3    H136075   0.415   4.882   5.841  0.0482  0.0127 -1.1058
12051TIP3    H236076   0.275   4.897   5.785  0.1237  0.4121 -1.1899
12052TIP3   OH236077   4.453   4.765   6.588 -0.2185 -0.2985  0.2643
12052TIP3    H136078   4.410   4.686   6.621 -0.8885  0.1241  0.4128
12052TIP3    H236079   4.470   4.747   6.496 -0.6151 -0.5046  0.2328
12053TIP3   OH236080   7.651   0.700   0.150 -0.0309 -0.0131 -0.5059
12053TIP3    H136081   7.687   0.674   0.065 -0.8489 -0.9877 -0.5639
12053TIP3    H236082   7.619   0.619   0.188 -2.3455  0.8488 -0.5452
12054TIP3   OH236083   4.409   3.664   4.881  0.2191 -0.2844 -0.3020
12054TIP3    H136084   4.360   3.604   4.825 -1.0240  0.5816 -0.1739
12054TIP3    H236085   4.478   3.611   4.919  0.2302 -1.2116 -1.5765
12055TIP3   OH236086   3.765   6.034   6.680  0.1596  0.0246 -0.1158
12055TIP3    H136087   3.684   6.080   6.658  0.5085  1.0088  0.6561
12055TIP3    H236088   3.745   5.989   6.763  0.5015  0.5445  0.2546
12056TIP3   OH236089   2.933   5.681   6.547  0.3016  0.6078 -0.7250
12056TIP3    H136090   2.921   5.744   6.618  1.7986  2.3253 -1.9563
12056TIP3    H236091   2.890   5.722   6.471 -1.4198 -1.2792 -0.8089
12057TIP3   OH236092   0.946   5.018   6.527 -0.3123 -0.9175  0.1030
12057TIP3    H136093   0.995   5.027   6.609  0.0540  0.4497 -0.2524
12057TIP3    H236094   0.956   4.926   6.503  0.2431 -1.1447  1.1819
12058TIP3   OH236095   2.745   5.540   7.046  0.2958 -0.5520 -0.2516
12058TIP3    H136096   2.659   5.524   7.008  0.8145  0.1955 -1.7956
12058TIP3    H236097   2.786   5.454   7.051 -0.0566 -0.7486 -0.7417
12059TIP3   OH236098   0.523   0.491   1.009 -0.5670  0.0936  0.3914
12059TIP3    H136099   0.529   0.499   0.914 -0.2863  1.7434  0.5442
12059TIP3    H236100   0.484   0.573   1.038 -0.1842 -0.1917  1.7496
12060TIP3   OH236101   4.613   4.208   6.489 -0.2386 -0.0002 -0.3871
12060TIP3    H136102   4.603   4.302   6.509 -0.6153  0.1352 -1.1776
12060TIP3    H236103   4.704   4.199   6.462 -0.0544  0.0371  0.2124
12061TIP3   OH236104   1.371   0.878   1.819 -0.0261  0.6918  0.1128
12061TIP3    H136105   1.368   0.904   1.911 -1.4401 -0.3992  0.3995
12061TIP3    H236106   1.366   0.782   1.822  0.7446  0.6181 -1.0683
12062TIP3   OH236107   2.949   2.822   6.698 -0.3044 -0.3723  0.2523
12062TIP3    H136108   3.030   2.849   6.654 -1.7437  1.5164 -1.3454
12062TIP3    H236109   2.900   2.775   6.630 -1.7111  0.8722  0.3942
12063TIP3   OH236110   0.772   6.233   5.044 -0.0495 -0.3915  0.3119
12063TIP3    H136111   0.794   6.196   5.130  2.2656 -1.1873 -0.5697
12063TIP3    H236112   0.855   6.229   4.995 -0.9874  1.3613 -1.4805
12064TIP3   OH236113   2.150   3.831   6.332  0.7087 -0.0768 -0.2094
12064TIP3    H136114   2.073   3.844   6.278  0.0878  0.4032  0.7733
12064TIP3    H236115   2.223   3.863   6.279  0.1691 -0.0394 -0.9299
12065TIP3   OH236116   1.481   5.360   7.181 -0.2020  0.1201 -0.7763
12065TIP3    H136117   1.540   5.341   7.109 -0.6020 -0.8925 -0.8406
12065TIP3    H236118   1.505   5.296   7.249 -1.0554 -0.1295 -0.7108
12066TIP3   OH236119   8.193   0.019   1.284  0.0522 -0.3033  0.4547
12066TIP3    H136120   8.186   0.086   1.216 -1.2722  0.2724  1.1397
12066TIP3    H236121   8.245  -0.051   1.244  0.0577  0.4243 -0.8242
12067TIP3   OH236122  -0.009   2.773   1.323  0.0294 -0.3695 -0.2104
12067TIP3    H136123   0.020   2.709   1.389  2.2395 -0.7184 -1.4732
12067TIP3    H236124  -0.008   2.857   1.369 -0.3511 -0.8681  0.7349
12068TIP3   OH236125   1.766   5.937   6.468  0.3800 -0.0734 -0.2192
12068TIP3    H136126   1.841   5.934   6.408 -0.0502 -1.4272 -0.6916
12068TIP3    H236127   1.762   5.850   6.507  0.9563  0.9271  2.1865
12069TIP3   OH236128   4.900   2.960   6.875  0.0263  1.0189 -0.7869
12069TIP3    H136129   4.880   2.963   6.968  2.1506  0.7607 -0.2867
12069TIP3    H236130   4.955   2.882   6.865 -0.8711  0.5693 -2.4026
12070TIP3   OH236131   0.417   3.812   5.161 -0.0596  0.4667  0.1124
12070TIP3    H136132   0.409   3.887   5.220 -1.5977 -1.1866  2.0827
12070TIP3    H236133   0.497   3.768   5.189  0.2120  0.7274 -0.2607
12071TIP3   OH236134   1.967   6.723   6.200  0.0997 -0.1417 -0.4187
12071TIP3    H136135   1.889   6.680   6.166  0.6240 -1.2606 -0.2322
12071TIP3    H236136   2.036   6.700   6.137  0.6404 -0.5643  0.3153
12072TIP3   OH236137   2.623   5.513   6.347 -0.2543  0.5489  0.3032
12072TIP3    H136138   2.540   5.554   6.322  1.2652  2.1240 -2.3028
12072TIP3    H236139   2.632   5.440   6.286  1.4944  1.9422 -1.1579
12073TIP3   OH236140   5.502   5.452   6.511  0.6270 -0.7909  0.2151
12073TIP3    H136141   5.460   5.386   6.566 -0.6731  0.0224  0.2229
12073TIP3    H236142   5.493   5.417   6.422 -2.4339  0.5681 -0.0726
12074TIP3   OH236143   4.000   6.214   5.647 -0.2912  0.2199 -0.2290
12074TIP3    H136144   4.011   6.270   5.723 -0.1275  1.2108 -0.9691
12074TIP3    H236145   4.017   6.271   5.572  2.0208 -1.3257 -0.9559
12075TIP3   OH236146   0.189   3.515   6.469  0.0366  0.0643  0.1447
12075TIP3    H136147   0.131   3.560   6.530  0.8684  0.9742  0.2728
12075TIP3    H236148   0.167   3.422   6.479 -0.5804  0.3016  1.0264
12076TIP3   OH236149   0.513   0.983   0.169 -0.8714 -0.5093  0.5775
12076TIP3    H136150   0.563   0.913   0.211  0.1786  0.3073  0.7326
12076TIP3    H236151   0.506   1.050   0.237  2.5496  1.6678 -1.0700
12077TIP3   OH236152   3.434   5.838   6.492  0.3934  0.5687 -0.0094
12077TIP3    H136153   3.357   5.886   6.521  1.0796  1.3835  0.4887
12077TIP3    H236154   3.409   5.746   6.498 -0.2346  0.8034  0.9934
12078TIP3   OH236155   1.397   0.281   0.298 -0.0252 -0.4473  0.2359
12078TIP3    H136156   1.347   0.210   0.338  0.5954 -1.3641 -0.5866
12078TIP3    H236157   1.473   0.238   0.258  1.2148  0.8578  1.1033
12079TIP3   OH236158   3.762   7.072   6.297  0.0382  0.1437 -0.1380
12079TIP3    H136159   3.737   6.997   6.243  1.5248  0.2607 -0.9979
12079TIP3    H236160   3.777   7.143   6.235 -0.7331  0.9837  0.6256
12080TIP3   OH236161   6.057   8.098   0.969 -0.2332 -0.3906 -0.2038
12080TIP3    H136162   6.127   8.161   0.985  0.4079 -0.8506 -1.1237
12080TIP3    H236163   6.103   8.017   0.948 -1.0378 -1.3791  1.7039
12081TIP3   OH236164   4.214   5.716   6.574  0.2229 -0.5014 -0.1271
12081TIP3    H136165   4.305   5.737   6.592  0.5198 -3.1204  1.6836
12081TIP3    H236166   4.164   5.779   6.627  0.9748  0.4305 -0.5156
12082TIP3   OH236167   1.007   2.265   1.478  0.0979 -0.8188  0.2513
12082TIP3    H136168   1.019   2.176   1.513 -0.4334 -0.8971  0.2387
12082TIP3    H236169   0.935   2.301   1.530  1.3772  0.1878  1.3615
12083TIP3   OH236170   7.500   1.851   0.295 -0.1664  0.1416  0.3951
12083TIP3    H136171   7.478   1.850   0.202  1.1227  2.3861  0.0268
12083TIP3    H236172   7.437   1.912   0.334 -0.0232  0.0358  0.7962
12084TIP3   OH236173   3.032   3.935   5.272 -0.0683  0.0973 -0.5784
12084TIP3    H136174   2.980   3.976   5.203 -0.1307 -1.9255 -1.7536
12084TIP3    H236175   3.122   3.959   5.251 -0.2421  1.0925 -0.2432
12085TIP3   OH236176   4.002   4.032   5.674 -0.1674 -0.3514 -0.1317
12085TIP3    H136177   3.993   3.976   5.597  0.7825  0.2522 -0.6845
12085TIP3    H236178   4.062   4.101   5.647 -0.0771  0.0442  1.0523
12086TIP3   OH236179   2.362   5.434   5.734  0.3753 -0.1918 -0.2666
12086TIP3    H136180   2.357   5.355   5.679 -0.3016 -0.0315 -0.4338
12086TIP3    H236181   2.295   5.492   5.699  0.8953  0.4723 -0.1555
12087TIP3   OH236182   1.419   6.340   6.437  0.2027 -0.1772 -0.1180
12087TIP3    H136183   1.345   6.396   6.459 -0.3330 -1.5439  1.6472
12087TIP3    H236184   1.494   6.382   6.479  0.1877  0.4005 -0.6582
12088TIP3   OH236185   1.247   1.069   4.106  0.5245 -0.0235  0.3106
12088TIP3    H136186   1.188   1.053   4.180 -2.1345  0.8396 -1.5576
12088TIP3    H236187   1.190   1.101   4.037  3.2313  0.8449 -1.5793
12089TIP3   OH236188   8.752   1.055   1.278 -0.4266  0.9364  0.7361
12089TIP3    H136189   8.779   0.982   1.222 -2.6052 -1.1599  2.2670
12089TIP3    H236190   8.663   1.074   1.249 -1.0771  0.7220  2.5489
12090TIP3   OH236191   4.714   4.213   7.170  0.3606  0.1338 -0.1855
12090TIP3    H136192   4.807   4.212   7.149  0.1382  0.1817 -1.1979
12090TIP3    H236193   4.700   4.133   7.220  0.8107 -0.2414 -0.6488
12091TIP3   OH236194   2.653   5.839   7.117  0.2568 -0.2587 -0.2895
12091TIP3    H136195   2.603   5.794   7.185  1.0045  0.2336  0.6030
12091TIP3    H236196   2.733   5.868   7.162  0.0005  1.5334 -0.9452
12092TIP3   OH236197   4.545   3.973   6.062 -0.5519 -0.3189  0.6661
12092TIP3    H136198   4.471   4.025   6.093 -0.3958  0.3973 -0.1333
12092TIP3    H236199   4.600   4.036   6.015  0.0253 -1.0557  0.3486
12093TIP3   OH236200   5.817   7.708   6.639  0.4522 -0.0493 -0.9022
12093TIP3    H136201   5.880   7.637   6.646 -0.0571 -0.5226 -1.1645
12093TIP3    H236202   5.799   7.717   6.546 -0.1666 -0.1733 -0.7985
12094TIP3   OH236203   2.664   4.417   7.098  0.1298 -0.6114  0.5461
12094TIP3    H136204   2.741   4.375   7.136 -0.3395 -2.2621 -0.3025
12094TIP3    H236205   2.671   4.400   7.004 -1.1392 -0.5451  0.4391
12095TIP3   OH236206   6.629   2.386   0.270 -0.5778 -0.3047  0.0097
12095TIP3    H136207   6.662   2.384   0.359  0.3278  1.4144 -0.2663
12095TIP3    H236208   6.580   2.468   0.264 -0.8020 -0.4976 -1.0000
12096TIP3   OH236209   1.328   3.712   7.242  0.4285  0.1673  0.0380
12096TIP3    H136210   1.373   3.630   7.261  1.5398  1.3623  2.8897
12096TIP3    H236211   1.245   3.706   7.291 -1.3710 -0.8663 -2.9798
12097TIP3   OH236212   1.428   5.031   5.434  0.7970 -0.0983 -0.4238
12097TIP3    H136213   1.433   5.021   5.339  1.5753 -0.2956 -0.3618
12097TIP3    H236214   1.367   4.963   5.462  0.1088  0.3359 -0.8386
12098TIP3   OH236215   3.133   5.670   6.175 -0.1559  0.0141  0.2084
12098TIP3    H136216   3.083   5.747   6.147 -0.8487 -0.4819  0.0482
12098TIP3    H236217   3.202   5.661   6.109  0.4163  0.9579  0.6672
12099TIP3   OH236218   2.714   5.083   6.469  0.1859  0.3918 -0.5932
12099TIP3    H136219   2.740   5.018   6.403 -1.4545  0.3139 -1.1848
12099TIP3    H236220   2.692   5.161   6.418  0.3971  0.8264 -0.0203
12100TIP3   OH236221   8.300   1.076   0.918  0.0167 -0.2245  0.4171
12100TIP3    H136222   8.269   0.998   0.872 -1.8479  1.2313 -0.9160
12100TIP3    H236223   8.250   1.077   0.999 -1.2135  0.4521 -0.3279
12101TIP3   OH236224   7.510   0.060   0.197 -0.1726  0.1732  0.0303
12101TIP3    H136225   7.432   0.017   0.232  0.3922  0.0683  1.2011
12101TIP3    H236226   7.583   0.018   0.243  0.5546  0.5416 -0.7668
12102TIP3   OH236227   6.169   8.155   0.454 -0.1912  0.2133  0.2476
12102TIP3    H136228   6.206   8.072   0.424  0.8950  1.4979 -2.1944
12102TIP3    H236229   6.074   8.144   0.445 -0.1299 -1.2551  1.3601
12103TIP3   OH236230   4.800   5.024   5.970  0.1860 -0.0596 -0.0920
12103TIP3    H136231   4.834   5.098   5.919  0.0490 -0.8487 -1.3460
12103TIP3    H236232   4.777   4.958   5.904  0.7204 -1.3941  1.0363
12104TIP3   OH236233   3.682   4.933   5.221  0.5611 -0.5865  0.2307
12104TIP3    H136234   3.634   4.856   5.190 -2.1236  1.3779 -0.6661
12104TIP3    H236235   3.647   4.948   5.309  0.1783  0.3358 -0.0787
12105TIP3   OH236236   3.902   2.896   7.069 -0.0563  0.4178 -0.9288
12105TIP3    H136237   3.845   2.960   7.027 -1.5706 -0.1469  0.2046
12105TIP3    H236238   3.933   2.840   6.997 -0.3441  1.1764 -1.6475
12106TIP3   OH236239   6.637   7.808   0.161  0.1794  0.2416 -0.3061
12106TIP3    H136240   6.672   7.839   0.078 -0.4405 -0.5048 -0.8460
12106TIP3    H236241   6.665   7.875   0.225  2.9014 -0.5073 -0.6340
12107TIP3   OH236242   3.799   3.745   6.721  0.0136  0.2871 -0.0953
12107TIP3    H136243   3.877   3.695   6.696 -0.1979 -0.0085 -0.1678
12107TIP3    H236244   3.727   3.684   6.708 -0.5951  1.5804 -3.0754
12108TIP3   OH236245   3.364   5.974   6.059  0.6425  0.4819  0.1734
12108TIP3    H136246   3.392   6.017   5.978 -0.7415 -0.4782 -0.8501
12108TIP3    H236247   3.423   5.900   6.069  1.0103  0.7791  0.2029
12109TIP3   OH236248   4.669   7.776   1.615 -0.0349  0.2069  0.2810
12109TIP3    H136249   4.681   7.685   1.639  2.4328  0.1314 -1.0061
12109TIP3    H236250   4.621   7.773   1.532  0.5240  0.0367 -0.0411
12110TIP3   OH236251   2.964   3.687   5.224  0.1031 -0.1464 -0.6812
12110TIP3    H136252   2.950   3.693   5.129  2.5525  2.0336 -0.9479
12110TIP3    H236253   2.997   3.773   5.249  2.5426 -1.6670  1.6146
12111TIP3   OH236254   5.247   7.479   0.472 -0.5502 -0.3590 -0.2075
12111TIP3    H136255   5.231   7.479   0.377  0.5977 -0.5806 -0.4033
12111TIP3    H236256   5.183   7.543   0.506 -2.7635 -2.1938 -0.7928
12112TIP3   OH236257   8.691   5.648   7.043  0.0070 -0.7292  0.6761
12112TIP3    H136258   8.769   5.625   6.993 -0.3156 -1.9029  0.6840
12112TIP3    H236259   8.707   5.737   7.074  0.7289 -0.4481 -0.4963
12113TIP3   OH236260   1.090   2.136   0.035  0.2270  0.9764 -0.0377
12113TIP3    H136261   1.019   2.123  -0.027  1.3152  0.9507 -1.2933
12113TIP3    H236262   1.161   2.080   0.003  0.3601 -0.0447  1.9597
12114TIP3   OH236263   8.296   3.288   3.811 -0.5985 -0.4445  0.4084
12114TIP3    H136264   8.236   3.270   3.738  0.2734 -1.3136 -0.1068
12114TIP3    H236265   8.344   3.206   3.824  0.5096  0.2428  0.7818
12115TIP3   OH236266   5.378   3.863   5.173  0.1961 -0.0168 -0.3624
12115TIP3    H136267   5.400   3.784   5.124 -3.1207 -0.7915 -0.7393
12115TIP3    H236268   5.380   3.933   5.108  1.4002 -0.0686 -0.3936
12116TIP3   OH236269   0.666   3.802   4.761  0.0661 -0.2625 -0.5239
12116TIP3    H136270   0.624   3.728   4.806  1.2036 -1.0966 -0.8058
12116TIP3    H236271   0.672   3.774   4.670  2.3880 -0.7251 -0.2762
12117TIP3   OH236272   5.770   2.398   0.228 -0.2971  0.8717  0.3284
12117TIP3    H136273   5.675   2.386   0.219 -0.3205  1.7460 -0.5666
12117TIP3    H236274   5.804   2.394   0.139  0.4205  1.3229  0.5764
12118TIP3   OH236275   0.262   1.087   0.363  0.1543  0.0428 -0.3659
12118TIP3    H136276   0.252   1.035   0.283  1.4646  1.3030 -1.3779
12118TIP3    H236277   0.222   1.034   0.432  2.0406 -2.5993 -1.2487
12119TIP3   OH236278   0.431   1.737   1.206  0.1960  0.9768 -0.1864
12119TIP3    H136279   0.361   1.673   1.222 -0.7355  2.1642  0.6072
12119TIP3    H236280   0.457   1.767   1.293  0.1367  2.1723 -0.5610
12120TIP3   OH236281   1.340   4.999   5.076  0.0788  0.2400 -0.1844
12120TIP3    H136282   1.253   4.969   5.104 -0.0641  1.5486  0.7769
12120TIP3    H236283   1.323   5.079   5.026  0.6479 -0.1233 -0.9721
12121TIP3   OH236284   0.948   2.332   0.818  0.2431  0.0026  0.4196
12121TIP3    H136285   0.914   2.417   0.791  2.9775  0.9424 -0.2112
12121TIP3    H236286   0.967   2.286   0.736  2.1588  0.2175  0.7198
12122TIP3   OH236287   0.358   0.434   2.377  0.0741  0.0659 -0.6989
12122TIP3    H136288   0.306   0.514   2.388  0.3541  0.4976 -2.3485
12122TIP3    H236289   0.445   0.466   2.354  0.4309 -0.7037 -0.4134
12123TIP3   OH236290   8.042   1.532   0.811 -0.3569  0.5790  0.4364
12123TIP3    H136291   8.061   1.541   0.718  0.9397  1.3279  0.7618
12123TIP3    H236292   7.954   1.568   0.821 -1.8197 -2.4352 -1.0062
12124TIP3   OH236293   2.037   5.343   7.106  0.4672 -0.2798  0.3310
12124TIP3    H136294   2.112   5.313   7.055  1.5011  0.4960  1.3962
12124TIP3    H236295   1.965   5.345   7.042  1.5942  0.0674 -0.9615
12125TIP3   OH236296   6.078   8.413   2.286  0.1401 -0.4270  0.2777
12125TIP3    H136297   6.069   8.325   2.324 -2.2155 -0.8139 -1.0730
12125TIP3    H236298   6.039   8.406   2.199 -0.0236  1.9447  0.1209
12126TIP3   OH236299   8.405   1.484   0.040  0.1453 -0.4607  0.1138
12126TIP3    H136300   8.413   1.401  -0.007 -0.5304 -0.3989 -0.1174
12126TIP3    H236301   8.334   1.470   0.102  1.4543 -0.7435  1.5689
12127TIP3   OH236302   2.699   5.703   6.059  0.0262  0.5961  0.3804
12127TIP3    H136303   2.686   5.651   5.980 -3.5095  0.8868  0.6648
12127TIP3    H236304   2.669   5.791   6.035  1.0843  1.2367  1.3807
12128TIP3   OH236305   3.279   2.776   6.351 -0.0851 -0.3438  0.2139
12128TIP3    H136306   3.227   2.812   6.423  1.5450  0.9304  0.8119
12128TIP3    H236307   3.362   2.825   6.355 -0.1893  0.2020 -2.9320
12129TIP3   OH236308   5.982   3.755   6.364  0.6910  0.4089 -0.9392
12129TIP3    H136309   5.990   3.838   6.316 -0.2073  1.4130  0.5980
12129TIP3    H236310   5.888   3.742   6.373  0.8432  0.0252  0.1594
12130TIP3   OH236311   5.621   4.291   4.320 -0.2467 -0.3329 -0.8216
12130TIP3    H136312   5.693   4.352   4.303 -0.7156  1.3927  2.8919
12130TIP3    H236313   5.658   4.205   4.301  2.4436  0.6160 -0.0911
12131TIP3   OH236314   1.727   6.845   5.944  0.1909  0.1119 -0.5328
12131TIP3    H136315   1.798   6.909   5.951  0.3069 -0.2864  2.9544
12131TIP3    H236316   1.648   6.898   5.940  0.3932  0.5415  0.7406
12132TIP3   OH236317   6.970   0.738   0.098 -0.1852 -0.2103 -0.5855
12132TIP3    H136318   7.052   0.692   0.114 -0.9518 -1.2871  0.3356
12132TIP3    H236319   6.987   0.791   0.020  2.0024  1.1421  0.7505
12133TIP3   OH236320   6.865   8.122   0.712 -0.6040 -1.2536 -0.0498
12133TIP3    H136321   6.777   8.097   0.683 -0.3063 -1.2261 -1.0218
12133TIP3    H236322   6.852   8.162   0.798 -1.6303 -0.6264 -0.4854
12134TIP3   OH236323   2.055   5.054   6.457  0.0500  0.1907  0.2490
12134TIP3    H136324   2.137   5.089   6.493  1.0293 -4.2935  2.6507
12134TIP3    H236325   2.081   5.018   6.372 -0.0599  1.3427 -0.2818
12135TIP3   OH236326   0.363   2.273  -0.013  0.4720  0.2609  0.1751
12135TIP3    H136327   0.267   2.273  -0.009  0.4895 -1.8726  0.9402
12135TIP3    H236328   0.389   2.352   0.035 -0.8430 -0.1290  1.5675
12136TIP3   OH236329   3.357   5.542   6.474 -0.6707 -0.1508  0.1334
12136TIP3    H136330   3.265   5.557   6.454 -0.9223 -1.2528  0.4267
12136TIP3    H236331   3.357   5.517   6.567 -0.2404 -1.5444 -0.2307
12137TIP3   OH236332   1.964   0.206   1.811 -0.3728 -0.5870  0.9582
12137TIP3    H136333   1.993   0.152   1.738 -0.6129 -0.4744  0.7773
12137TIP3    H236334   2.034   0.270   1.823  0.1275 -1.2375  1.4827
12138TIP3   OH236335   1.170   0.393   0.074 -0.8425 -0.3272  0.0609
12138TIP3    H136336   1.221   0.330   0.023 -3.2460 -1.3147 -1.2204
12138TIP3    H236337   1.171   0.473   0.022 -1.1069 -0.5412 -0.2781
12139TIP3   OH236338   5.948   7.936   0.632  0.2834 -0.8588  0.3592
12139TIP3    H136339   5.887   7.957   0.562 -0.5043 -0.3224  1.1831
12139TIP3    H236340   6.032   7.922   0.588  0.1803  1.1211 -0.5313
12140TIP3   OH236341   3.463   5.246   5.441 -0.0463 -0.0500  0.0589
12140TIP3    H136342   3.454   5.340   5.422  0.0099  0.2137  1.3078
12140TIP3    H236343   3.556   5.235   5.463 -0.3642 -0.1355  1.3435
12141TIP3   OH236344   0.203   5.298   5.794  0.3236 -0.3125  0.0766
12141TIP3    H136345   0.209   5.241   5.871 -0.3870 -0.5287 -0.0251
12141TIP3    H236346   0.283   5.350   5.797  0.9346 -1.2413  0.2260
12142TIP3   OH236347   3.460   8.265   0.070 -0.3442 -0.5560  0.3256
12142TIP3    H136348   3.421   8.310  -0.004  0.8440 -1.4995 -0.8946
12142TIP3    H236349   3.477   8.176   0.039  0.9936 -0.7051  1.4119
12143TIP3   OH236350   1.097   5.024   6.777 -0.2843 -0.4577  0.0805
12143TIP3    H136351   1.129   4.960   6.841 -1.2300  1.0284  2.0852
12143TIP3    H236352   1.176   5.066   6.743  0.1249  2.2187  3.9784
12144TIP3   OH236353   8.743   1.836   1.200 -0.2265 -0.0024 -0.2704
12144TIP3    H136354   8.735   1.873   1.288  1.2726 -2.0168  0.7625
12144TIP3    H236355   8.670   1.774   1.194 -0.2055 -0.0172 -0.3681
12145TIP3   OH236356   3.404   5.530   5.545  0.0498 -0.5592 -0.4857
12145TIP3    H136357   3.418   5.585   5.622  1.2481 -2.3888  0.6410
12145TIP3    H236358   3.382   5.592   5.475  3.1793  1.5666  0.2889
12146TIP3   OH236359   2.162   0.368   1.975  0.4169  0.4286 -0.3284
12146TIP3    H136360   2.236   0.309   1.990  0.0768 -0.2421 -1.2273
12146TIP3    H236361   2.107   0.357   2.053  1.6454  1.5327  0.7150
12147TIP3   OH236362   1.785   5.928   7.022  0.2144 -0.2889 -0.5238
12147TIP3    H136363   1.739   5.932   6.938  0.5962  1.4485 -0.6708
12147TIP3    H236364   1.819   6.016   7.035  0.2538 -0.5753  1.4182
12148TIP3   OH236365   2.278   6.066   5.607  0.0145 -0.0054 -0.5010
12148TIP3    H136366   2.328   6.086   5.528  0.2267  1.1286 -0.0951
12148TIP3    H236367   2.335   6.095   5.678 -1.2710  1.4345 -0.0387
12149TIP3   OH236368   1.504   4.048   7.046  0.4100  0.2608  0.1498
12149TIP3    H136369   1.566   4.112   7.083 -0.1636  0.4297  0.8343
12149TIP3    H236370   1.441   4.034   7.116  0.7260 -1.3264  0.1160
12150TIP3   OH236371   5.427   7.694   0.234  0.4351  0.5096 -0.0843
12150TIP3    H136372   5.365   7.624   0.215 -0.7205  1.0196  1.6869
12150TIP3    H236373   5.503   7.649   0.270 -0.5385  0.1715  1.6192
12151TIP3   OH236374   5.224   8.303   0.916 -0.0410  0.1504 -0.0700
12151TIP3    H136375   5.276   8.260   0.984  2.5819  0.1245 -1.9733
12151TIP3    H236376   5.211   8.235   0.849 -2.2508  0.2708  0.2130
12152TIP3   OH236377   0.787   6.848   6.467  0.3065 -0.0304  0.1106
12152TIP3    H136378   0.766   6.756   6.485  0.1508 -0.0755 -0.2904
12152TIP3    H236379   0.749   6.865   6.380 -0.8061  0.7737  0.7390
12153TIP3   OH236380   7.104   1.647   0.307 -0.6578 -0.4379 -0.3949
12153TIP3    H136381   7.067   1.727   0.345 -1.6632 -0.3822 -1.4693
12153TIP3    H236382   7.037   1.580   0.320 -0.4438 -0.7481 -0.8599
12154TIP3   OH236383   1.724   5.313   6.236  0.2078 -0.9651  0.0752
12154TIP3    H136384   1.682   5.294   6.320  0.4964 -0.6748  0.2888
12154TIP3    H236385   1.702   5.238   6.181 -0.7322 -0.7329  0.1274
12155TIP3   OH236386   7.817   1.254   1.259  0.2482 -0.4826  0.8879
12155TIP3    H136387   7.772   1.171   1.280 -2.5935  0.7916  0.1250
12155TIP3    H236388   7.856   1.282   1.342  0.7097 -2.2655  1.2914
12156TIP3   OH236389   6.796   0.044   0.953 -0.4447 -1.0482  0.0465
12156TIP3    H136390   6.728   0.103   0.985 -0.2409  0.2004 -1.7520
12156TIP3    H236391   6.779   0.036   0.859  0.8135 -2.1646 -0.1102
12157TIP3   OH236392   3.947   4.416   6.120 -0.2322 -0.3623  0.4943
12157TIP3    H136393   3.925   4.388   6.031  1.1319  0.7241 -0.1990
12157TIP3    H236394   4.007   4.349   6.152  1.5722  0.7529 -0.4872
12158TIP3   OH236395   3.966   6.211   6.497  0.0712 -0.3670  0.6438
12158TIP3    H136396   4.043   6.263   6.518  1.2598 -2.0655  0.5623
12158TIP3    H236397   3.994   6.120   6.509 -1.5291 -1.0527 -0.6038
12159TIP3   OH236398   2.224   2.626   6.972 -0.3691  0.2190  0.1216
12159TIP3    H136399   2.301   2.599   6.921 -1.1064 -1.3723 -0.1954
12159TIP3    H236400   2.168   2.672   6.909 -1.6831 -2.5066 -0.8059
12160TIP3   OH236401   1.971   4.873   5.575 -0.4508 -0.6400 -0.3545
12160TIP3    H136402   2.062   4.895   5.556 -0.8222  0.3233 -1.0514
12160TIP3    H236403   1.928   4.874   5.489 -1.7968  2.0455  0.3090
12161TIP3   OH236404   2.292   4.617   6.139  0.4838 -0.0946 -0.2377
12161TIP3    H136405   2.353   4.545   6.123 -0.3849 -0.9341  0.1732
12161TIP3    H236406   2.338   4.673   6.202  1.5477  0.2065 -1.2612
12162TIP3   OH236407   5.964   6.245   0.069 -0.1395 -0.5865  0.4742
12162TIP3    H136408   6.042   6.275   0.022 -1.5431 -0.2638 -1.7725
12162TIP3    H236409   5.956   6.303   0.144 -0.3201  1.8494 -1.3627
12163TIP3   OH236410   1.882   1.186   1.110 -0.2447  0.5362  0.0566
12163TIP3    H136411   1.850   1.269   1.146  1.1693  1.2405 -0.2937
12163TIP3    H236412   1.812   1.159   1.049 -1.6049  0.4646  1.6149
12164TIP3   OH236413   5.661   3.869   6.264 -0.0546 -0.0333 -0.1358
12164TIP3    H136414   5.707   3.893   6.184  0.3046  1.7342  0.5863
12164TIP3    H236415   5.676   3.942   6.324 -1.7880 -0.5211  0.9449
12165TIP3   OH236416   1.115   5.317   6.953 -0.5958  0.2761  0.3322
12165TIP3    H136417   1.125   5.225   6.928  2.2873  0.4836  0.5531
12165TIP3    H236418   1.106   5.364   6.870  4.3312  0.4549 -0.1976
12166TIP3   OH236419   0.979   7.076   6.269  0.4737 -0.4688 -0.5082
12166TIP3    H136420   1.074   7.059   6.271  0.7092  1.0078  1.2005
12166TIP3    H236421   0.969   7.145   6.204  0.7991  0.7273  0.7018
12167TIP3   OH236422   4.276   4.131   5.549 -0.5075 -0.5566  0.1649
12167TIP3    H136423   4.326   4.144   5.629 -0.7791 -1.0194  0.4194
12167TIP3    H236424   4.336   4.085   5.490 -0.6823 -1.2780  0.5358
12168TIP3   OH236425   5.207   0.123   0.774  0.4923  0.0588 -0.0033
12168TIP3    H136426   5.174   0.187   0.837 -0.9849 -1.8881  1.2492
12168TIP3    H236427   5.292   0.158   0.748 -0.1933  2.4324  0.7816
12169TIP3   OH236428   1.014   5.257   5.835 -0.2223  0.3007 -0.3580
12169TIP3    H136429   0.960   5.325   5.876 -1.3782  0.5083 -2.1757
12169TIP3    H236430   0.954   5.185   5.817  0.5068 -0.2515 -0.6440
12170TIP3   OH236431   6.427   8.161   1.461 -0.2779 -0.4957  0.3110
12170TIP3    H136432   6.362   8.126   1.400  0.3694 -0.0354 -0.6576
12170TIP3    H236433   6.379   8.224   1.514  0.0181  2.2690 -2.5478
12171TIP3   OH236434   8.124   1.024   0.361 -0.2721  0.0034 -0.1816
12171TIP3    H136435   8.053   1.038   0.299  0.2952  0.0584 -0.8292
12171TIP3    H236436   8.154   1.112   0.383  0.0827 -0.0400 -0.4866
12172TIP3   OH236437   2.072   4.783   7.062 -0.7458 -0.1284 -0.0355
12172TIP3    H136438   2.006   4.717   7.041  0.2411  0.0393 -4.0398
12172TIP3    H236439   2.154   4.733   7.069 -0.6317  0.1831  0.8704
12173TIP3   OH236440   0.755   1.545   2.583  0.0313 -0.3703  0.2595
12173TIP3    H136441   0.837   1.580   2.549  0.9298 -1.2924  1.4299
12173TIP3    H236442   0.756   1.568   2.676 -1.6201  0.6756  0.0435
12174TIP3   OH236443   1.591   6.465   6.164  0.6296 -0.1647  0.1949
12174TIP3    H136444   1.573   6.442   6.255  2.4974  1.2231  0.9436
12174TIP3    H236445   1.525   6.531   6.143  2.4465  2.2754  1.7879
12175TIP3   OH236446   0.904   2.293   1.089 -0.0269  0.0461  0.3493
12175TIP3    H136447   0.911   2.200   1.109  2.8596  0.2309  0.4826
12175TIP3    H236448   0.927   2.300   0.997 -0.3008  0.6232  0.3168
12176TIP3   OH236449   0.789   4.559   6.310 -0.5062  0.1431  0.1058
12176TIP3    H136450   0.762   4.468   6.324 -1.3414  0.4444  0.5396
12176TIP3    H236451   0.714   4.599   6.264  0.6841  0.1043 -1.9216
12177TIP3   OH236452   3.209   5.396   6.061  0.4953  0.6205  0.0761
12177TIP3    H136453   3.267   5.428   6.130  1.5164 -0.9687 -0.0099
12177TIP3    H236454   3.252   5.422   5.980  0.1734  0.9859  0.0210
12178TIP3   OH236455   0.684   4.463   4.316  0.7102  0.0162 -0.2400
12178TIP3    H136456   0.638   4.378   4.321  0.5446 -0.0612 -2.2715
12178TIP3    H236457   0.776   4.439   4.303  0.8650  0.1590  0.5914
12179TIP3   OH236458   0.816   4.251   6.686  0.0359  0.0546 -0.2365
12179TIP3    H136459   0.722   4.256   6.670 -0.1826 -0.6025  0.8277
12179TIP3    H236460   0.855   4.257   6.598 -1.0012 -0.0615 -0.7180
12180TIP3   OH236461   1.694   2.237   0.105 -0.5270  0.2678  0.2496
12180TIP3    H136462   1.671   2.156   0.150 -2.1308  1.1389  1.0190
12180TIP3    H236463   1.716   2.209   0.016  3.0201 -1.5062  1.6089
12181TIP3   OH236464   8.577   0.291   0.474  0.4662  0.3404 -0.2153
12181TIP3    H136465   8.620   0.252   0.398  2.3746  0.7779  0.5945
12181TIP3    H236466   8.617   0.377   0.482 -0.9728  0.9728  0.2648
12182TIP3   OH236467   5.957   7.010   0.219 -0.0846 -0.3130  0.0912
12182TIP3    H136468   5.961   6.968   0.305 -0.5280 -0.4351  0.0543
12182TIP3    H236469   5.879   7.066   0.223 -0.3585 -0.6504 -0.3778
12183TIP3   OH236470   1.993   5.209   6.007 -0.7194 -0.7016 -0.1950
12183TIP3    H136471   1.967   5.237   5.920  1.8439 -3.0580 -1.7785
12183TIP3    H236472   1.941   5.130   6.024 -1.3503 -0.1471  0.5285
12184TIP3   OH236473   6.419   8.255   0.495  0.1410 -0.2549 -0.5167
12184TIP3    H136474   6.454   8.214   0.416  1.5997  0.5976 -0.3379
12184TIP3    H236475   6.324   8.246   0.487  0.2563  0.0246 -2.4823
12185TIP3   OH236476   2.031   3.353   6.944  0.6408 -0.6570  0.8026
12185TIP3    H136477   2.084   3.285   6.902  0.1461 -0.6782  0.2114
12185TIP3    H236478   2.042   3.430   6.888 -0.0697 -0.7031  0.6047
12186TIP3   OH236479   1.266   3.884   6.398  0.0686  0.8294  0.4409
12186TIP3    H136480   1.308   3.813   6.349 -1.6538  1.5952 -2.2853
12186TIP3    H236481   1.176   3.854   6.412 -0.9177  2.7462 -1.4476
12187TIP3   OH236482   1.818   4.434   6.382  0.4127 -0.1015 -0.3435
12187TIP3    H136483   1.830   4.372   6.311 -1.1941 -1.2198  0.3338
12187TIP3    H236484   1.764   4.503   6.344  1.1551  0.2729 -0.7374
12188TIP3   OH236485   0.239   0.389   0.083  0.3994  0.3295 -0.6692
12188TIP3    H136486   0.266   0.297   0.078  0.3406  0.3308 -1.0042
12188TIP3    H236487   0.158   0.393   0.032 -0.0447  0.3969  0.0476
12189TIP3   OH236488   7.014   8.334   1.229 -0.2824  0.0051 -0.5841
12189TIP3    H136489   7.082   8.355   1.165  0.1711 -1.6690 -0.6787
12189TIP3    H236490   7.061   8.330   1.312 -0.3655 -0.5615 -0.5621
12190TIP3   OH236491   2.377   4.732   6.863 -0.3029 -0.1292  0.6654
12190TIP3    H136492   2.460   4.750   6.819 -1.4687 -2.2878 -2.6143
12190TIP3    H236493   2.386   4.643   6.896 -1.6761 -0.8715 -0.8258
12191TIP3   OH236494   1.322   0.598   1.812 -0.2299  0.1332 -0.5062
12191TIP3    H136495   1.244   0.599   1.866  1.0750  0.3981  1.4064
12191TIP3    H236496   1.340   0.505   1.798  0.1809  0.0327  0.6448
12192TIP3   OH236497   2.998   5.959   6.337  0.5192 -0.3522 -0.3664
12192TIP3    H136498   3.044   5.937   6.256  0.3372 -0.5228 -0.4224
12192TIP3    H236499   2.946   6.036   6.314  1.3832  0.3231 -0.0898
12193TIP3   OH236500   6.721   7.388   0.408 -0.0985 -0.9376  0.0847
12193TIP3    H136501   6.740   7.295   0.392  0.6384 -0.8356  0.3469
12193TIP3    H236502   6.627   7.390   0.426 -0.2075 -1.5743 -0.3683
12194TIP3   OH236503   1.327   1.925   0.145  0.0498 -0.1394  0.1021
12194TIP3    H136504   1.296   1.874   0.220  0.1479 -0.5917 -0.1586
12194TIP3    H236505   1.299   1.874   0.069 -0.1782  0.3913 -0.1716
12195TIP3   OH236506   2.477   4.210   6.956 -0.3706 -0.2946 -0.5311
12195TIP3    H136507   2.558   4.218   6.904 -0.6014 -0.5273 -0.9249
12195TIP3    H236508   2.451   4.301   6.972 -0.2130 -0.2187 -0.6933
12196TIP3   OH236509   0.851   1.812   0.936 -0.7353  0.1682  0.0804
12196TIP3    H136510   0.884   1.890   0.890 -0.9986 -0.7120 -1.6606
12196TIP3    H236511   0.826   1.752   0.866  0.6686 -2.0164  1.3627
12197TIP3   OH236512   4.044   3.639   6.620  0.0130  0.6068 -0.1232
12197TIP3    H136513   4.128   3.607   6.653  0.4817 -0.6820 -2.4139
12197TIP3    H236514   4.068   3.704   6.554 -0.5737 -2.2877 -3.3593
12198TIP3   OH236515   8.728   0.480   2.297 -0.2640 -0.0723 -0.6247
12198TIP3    H136516   8.644   0.511   2.332  0.5940  1.0873  0.4837
12198TIP3    H236517   8.716   0.478   2.202 -1.7567 -0.5802 -0.4398
12199TIP3   OH236518   1.511   7.100   6.251  0.2197  0.0540  0.6824
12199TIP3    H136519   1.595   7.089   6.297 -0.0368  0.1312  1.1725
12199TIP3    H236520   1.525   7.058   6.166  0.9398  0.5584  0.5388
12200TIP3   OH236521   2.279   4.411   5.288 -0.2203 -0.0017  0.3512
12200TIP3    H136522   2.284   4.324   5.250 -0.1221 -0.2721  0.9732
12200TIP3    H236523   2.206   4.453   5.243  1.1346  0.3706 -1.5155
12201TIP3   OH236524   7.314   7.457   1.355 -0.6655  0.2334  0.3248
12201TIP3    H136525   7.290   7.373   1.317  0.4696 -1.3941  3.0711
12201TIP3    H236526   7.409   7.458   1.354 -0.6714  1.4673  0.3597
12202TIP3   OH236527   7.359   0.219   2.595  0.3246  0.1564  0.0803
12202TIP3    H136528   7.436   0.277   2.595 -1.2591  2.3293 -1.0129
12202TIP3    H236529   7.343   0.202   2.502  0.8651 -2.2198  0.3926
12203TIP3   OH236530   3.411   5.486   7.115 -0.4059 -0.5571 -0.2547
12203TIP3    H136531   3.449   5.403   7.143  0.1627  0.1301  1.0976
12203TIP3    H236532   3.464   5.513   7.040  0.1918 -0.8243  0.0654
12204TIP3   OH236533   2.166   1.612   0.789  0.0298 -0.1029  0.2146
12204TIP3    H136534   2.177   1.574   0.876  2.3625  0.9477  0.4168
12204TIP3    H236535   2.074   1.598   0.768 -0.8675  0.6743  3.3479
12205TIP3   OH236536   4.901   3.821   6.424 -0.3012 -0.2788 -0.0716
12205TIP3    H136537   4.809   3.845   6.412 -0.0492  0.2296 -1.0870
12205TIP3    H236538   4.939   3.897   6.469  0.1692  0.6278 -1.9468
12206TIP3   OH236539   3.750   3.797   5.707 -0.3371  0.0783  0.7153
12206TIP3    H136540   3.667   3.825   5.745  0.3082  0.7033  1.6770
12206TIP3    H236541   3.757   3.847   5.625  0.2822  1.9456  1.8809
12207TIP3   OH236542   7.387   7.894   0.997 -0.0985 -0.5541 -0.1079
12207TIP3    H136543   7.321   7.830   1.023 -0.8534 -0.0592 -0.7678
12207TIP3    H236544   7.347   7.979   1.018  1.3578 -0.3266  1.8376
12208TIP3   OH236545   5.154   5.798   6.651 -0.0147  0.0896  0.3242
12208TIP3    H136546   5.200   5.774   6.571 -0.0487  1.2491 -0.0459
12208TIP3    H236547   5.219   5.844   6.704  0.2107 -1.2788  1.2856
12209TIP3   OH236548   4.684   5.861   5.856 -0.2655  0.3087 -0.3787
12209TIP3    H136549   4.673   5.954   5.836 -4.7259  0.2800  1.3234
12209TIP3    H236550   4.681   5.856   5.952  3.1643 -1.3292 -0.2744
12210TIP3   OH236551   4.773   3.964   5.139  0.5255  0.5309 -0.4296
12210TIP3    H136552   4.845   3.966   5.077 -0.2591  1.1804 -1.3342
12210TIP3    H236553   4.781   4.045   5.189 -1.1121  1.9408 -2.3399
12211TIP3   OH236554   3.382   5.209   6.477  0.4156 -0.1299  0.3391
12211TIP3    H136555   3.392   5.125   6.523  0.0233 -0.2248  0.2548
12211TIP3    H236556   3.291   5.208   6.445 -0.4383  1.4348  2.5787
12212TIP3   OH236557   3.652   4.052   6.309  0.0722 -0.4762  0.3431
12212TIP3    H136558   3.723   4.115   6.309 -1.3457  1.1637  0.7360
12212TIP3    H236559   3.612   4.060   6.396 -0.8455 -1.0792 -0.0055
12213TIP3   OH236560   6.985   0.141   0.399 -0.0622 -0.2181  0.0340
12213TIP3    H136561   6.938   0.220   0.426 -0.0252 -0.1460 -0.1160
12213TIP3    H236562   7.074   0.170   0.382  0.3872 -0.5894  1.6198
12214TIP3   OH236563   8.325   6.334   0.728 -0.4667  0.4680  0.2404
12214TIP3    H136564   8.329   6.276   0.804  1.0322 -1.7452 -1.4653
12214TIP3    H236565   8.417   6.346   0.702 -0.9202  1.7246 -0.8286
12215TIP3   OH236566   5.728   6.831   6.732  0.5390  0.5339 -0.1113
12215TIP3    H136567   5.726   6.926   6.724 -1.5950  0.6090  0.9191
12215TIP3    H236568   5.820   6.810   6.750  0.9893  2.4047 -0.1690
12216TIP3   OH236569   3.381   2.804   4.807 -0.4576  0.1492  0.1907
12216TIP3    H136570   3.382   2.753   4.888  0.1038  0.7908  0.5909
12216TIP3    H236571   3.292   2.793   4.774 -0.9213  0.5060  1.2916
12217TIP3   OH236572   4.865   3.864   5.612 -0.1634  0.3812 -0.2366
12217TIP3    H136573   4.834   3.854   5.522  1.4281 -2.6099 -0.5307
12217TIP3    H236574   4.953   3.902   5.603 -0.6445  1.6297  0.1793
12218TIP3   OH236575   4.337   4.344   6.207 -0.1865  0.0766 -0.0929
12218TIP3    H136576   4.244   4.335   6.226  0.1199  1.8449  2.5148
12218TIP3    H236577   4.380   4.283   6.268  0.4255  0.1748 -0.4198
12219TIP3   OH236578   0.137   0.199   1.362 -0.0820  0.3344 -0.5706
12219TIP3    H136579   0.215   0.152   1.389 -0.5548 -0.9086 -1.3286
12219TIP3    H236580   0.067   0.133   1.362 -0.7704  1.0287 -1.5827
12220TIP3   OH236581   5.496   8.137   0.181 -0.7410 -0.2324  0.8948
12220TIP3    H136582   5.460   8.157   0.095 -0.2210 -2.4213  0.1511
12220TIP3    H236583   5.433   8.077   0.220  0.6021 -1.7381  0.7717
12221TIP3   OH236584   5.509   7.664   1.713 -0.2793 -0.4702  0.5126
12221TIP3    H136585   5.422   7.631   1.733 -0.2722 -0.4046  0.6607
12221TIP3    H236586   5.563   7.586   1.703 -0.8972 -0.5975 -2.1887
12222TIP3   OH236587   4.645   1.575   4.107  0.8539 -0.2593  0.1510
12222TIP3    H136588   4.562   1.600   4.068 -0.0697 -0.2801  2.0309
12222TIP3    H236589   4.694   1.656   4.113  1.4141 -0.4289 -1.9641
12223TIP3   OH236590   1.450   5.312   5.897  0.4612  0.0012  0.2353
12223TIP3    H136591   1.415   5.266   5.974  0.2897 -0.5479 -0.1666
12223TIP3    H236592   1.515   5.252   5.861  0.8213  0.4267  0.1711
12224TIP3   OH236593   8.670   0.200   1.425 -0.3737 -0.2091  0.1774
12224TIP3    H136594   8.690   0.190   1.332  0.4196 -2.3466  0.5423
12224TIP3    H236595   8.576   0.180   1.431  0.0446 -2.3074  0.1173
12225TIP3   OH236596   3.525   3.032   5.575  0.0814 -0.2036  0.1454
12225TIP3    H136597   3.601   3.048   5.519  0.8176 -1.6593  0.7075
12225TIP3    H236598   3.452   3.020   5.514  0.6811 -0.7600 -0.4782
12226TIP3   OH236599   2.134   4.407   7.088 -0.2141 -0.1501 -0.0486
12226TIP3    H136600   2.176   4.440   7.167 -0.3913 -1.0164  0.4161
12226TIP3    H236601   2.190   4.437   7.016 -1.0965  2.2960  0.2475
12227TIP3   OH236602   7.542   0.444   0.209  0.0202 -0.0618 -0.7870
12227TIP3    H136603   7.512   0.381   0.143  1.1261 -1.1317 -0.2795
12227TIP3    H236604   7.480   0.435   0.281  0.7959 -1.3892 -0.2545
12228TIP3   OH236605   2.401   3.725   0.423  0.6047 -0.2187  0.0023
12228TIP3    H136606   2.483   3.772   0.407  0.9454 -0.5252  0.8059
12228TIP3    H236607   2.359   3.773   0.494 -0.3600  0.4793 -1.0263
12229TIP3   OH236608   5.938   5.889   1.264 -0.3462  0.2550  0.2546
12229TIP3    H136609   6.026   5.876   1.300 -0.8533 -0.0316  1.3992
12229TIP3    H236610   5.881   5.839   1.322 -1.6155  2.6773  1.1737
12230TIP3   OH236611   1.923   1.949   2.059 -0.6157  0.0869 -0.3461
12230TIP3    H136612   1.914   1.920   1.968 -0.4344  0.8692 -0.6192
12230TIP3    H236613   1.984   1.886   2.098 -1.2693 -0.6835 -0.5645
12231TIP3   OH236614   7.507   1.457   1.017  0.3251 -0.0667  0.0677
12231TIP3    H136615   7.574   1.436   0.951  1.5747  0.0905  1.2672
12231TIP3    H236616   7.537   1.413   1.096 -1.7036 -1.0990  0.2991
12232TIP3   OH236617   7.946   0.743   1.022 -0.6632  0.7715 -0.3218
12232TIP3    H136618   7.908   0.687   0.954 -1.0258  2.5989 -1.6375
12232TIP3    H236619   8.033   0.764   0.989 -0.8070  1.5976 -0.1673
12233TIP3   OH236620   1.755   6.335   6.463 -0.6215  0.3313 -0.0043
12233TIP3    H136621   1.713   6.406   6.512  0.4475  0.0971  1.2377
12233TIP3    H236622   1.787   6.378   6.383  0.7634  1.4293  1.1245
12234TIP3   OH236623   7.146   8.281   0.210 -1.0122  0.1565  0.2128
12234TIP3    H136624   7.170   8.335   0.134  0.8994  0.4931  1.0406
12234TIP3    H236625   7.174   8.192   0.186 -0.1484  0.3128  0.6279
12235TIP3   OH236626   6.874   8.353   0.893 -0.4686  0.1527  0.3656
12235TIP3    H136627   6.866   8.423   0.828  2.8843  2.1513  2.0392
12235TIP3    H236628   6.968   8.342   0.905 -1.0229 -1.6305  3.3770
12236TIP3   OH236629   6.940   0.907   0.327 -0.4901  0.1096 -0.4465
12236TIP3    H136630   6.933   0.891   0.421 -0.0628 -0.3968 -0.4974
12236TIP3    H236631   6.943   0.820   0.288 -0.4240  0.3178 -0.9067
12237TIP3   OH236632   3.144   5.471   7.026  0.4270  0.4004  0.5587
12237TIP3    H136633   3.128   5.390   6.978 -1.2126 -0.6759  2.8195
12237TIP3    H236634   3.239   5.482   7.023  0.8157 -2.4034  1.4122
12238TIP3   OH236635   3.914   4.240   7.141  0.2728 -0.0505 -0.1303
12238TIP3    H136636   3.884   4.312   7.195  0.3608 -1.3022  1.6341
12238TIP3    H236637   3.850   4.235   7.069 -1.3439  0.0001  1.2744
12239TIP3   OH236638   0.702   1.231   2.903 -0.3226 -0.5486  0.1064
12239TIP3    H136639   0.694   1.175   2.825 -0.6444 -0.1180 -0.1701
12239TIP3    H236640   0.744   1.311   2.871 -2.1736  0.4016 -0.0207
12240TIP3   OH236641   3.813   5.526   5.770 -0.0219  0.0096 -0.2771
12240TIP3    H136642   3.842   5.586   5.702 -0.0962  0.4359  0.0619
12240TIP3    H236643   3.862   5.446   5.754  0.0826  0.1646 -0.7317
12241TIP3   OH236644   1.645   5.961   7.275  0.0310  0.2806 -0.3757
12241TIP3    H136645   1.709   5.929   7.211 -0.1182  1.9768 -1.3942
12241TIP3    H236646   1.560   5.936   7.238  0.0207 -0.4511  0.1294
12242TIP3   OH236647   8.404   0.586   0.252  0.0386  0.3997 -0.2469
12242TIP3    H136648   8.339   0.521   0.278  0.5221 -0.8766 -2.0808
12242TIP3    H236649   8.354   0.665   0.236 -0.8588 -0.1297 -0.0740
12243TIP3   OH236650   4.518   3.251   6.630  0.2503  0.1355 -0.0154
12243TIP3    H136651   4.570   3.174   6.653  0.9407  1.1826  2.0954
12243TIP3    H236652   4.485   3.283   6.714 -0.2437  1.9824 -0.8954
12244TIP3   OH236653   1.204   0.065   0.420 -0.1132 -0.7694  0.3148
12244TIP3    H136654   1.121   0.114   0.422  0.5688  0.3506  1.4264
12244TIP3    H236655   1.182  -0.015   0.371 -2.2218 -1.1587  1.8137
12245TIP3   OH236656   8.612   1.108   0.482 -0.2092 -0.4000  0.1722
12245TIP3    H136657   8.523   1.090   0.510 -0.6669  0.3033 -0.7843
12245TIP3    H236658   8.615   1.081   0.390  0.5790 -0.4990  0.2201
12246TIP3   OH236659   2.133   7.497   5.152  0.1960 -0.5322 -0.2051
12246TIP3    H136660   2.151   7.405   5.170  0.1568 -0.3037  1.0094
12246TIP3    H236661   2.219   7.539   5.150  0.2915 -0.7784 -1.8193
12247TIP3   OH236662   2.137   3.754   5.202 -0.2928  0.0559 -1.0379
12247TIP3    H136663   2.107   3.720   5.118  3.9737 -2.2780 -1.7481
12247TIP3    H236664   2.174   3.839   5.182 -2.4390  1.0603 -0.8650
12248TIP3   OH236665   7.736   2.086   0.746  0.2996  0.3205  0.1221
12248TIP3    H136666   7.736   2.029   0.669 -0.7945  0.6577 -0.1419
12248TIP3    H236667   7.664   2.148   0.730 -0.6009 -0.2266  1.8548
12249TIP3   OH236668   6.574   6.752   0.704 -0.3526  0.0533 -0.7445
12249TIP3    H136669   6.584   6.845   0.684 -1.8311 -0.0524 -2.0861
12249TIP3    H236670   6.527   6.716   0.629 -0.4736 -1.6319  0.1058
12250TIP3   OH236671   3.566   3.941   7.153 -0.1365 -0.2684 -0.6270
12250TIP3    H136672   3.659   3.915   7.153 -0.0634 -0.0257  0.2173
12250TIP3    H236673   3.564   4.024   7.105  0.6591  1.6478  2.5094
12251TIP3   OH236674   0.572   3.705   6.243  0.3516  0.0530  0.2023
12251TIP3    H136675   0.492   3.719   6.293  0.3791  0.0343  0.2510
12251TIP3    H236676   0.604   3.793   6.224  1.2149  0.0508  1.6113
12252TIP3   OH236677   7.401   0.797   0.074 -0.0730 -0.0223 -0.0256
12252TIP3    H136678   7.477   0.765   0.122 -0.0346 -0.1736 -0.1830
12252TIP3    H236679   7.436   0.864   0.015  0.1408 -0.9396 -0.9585
12253TIP3   OH236680   8.772   5.131   6.814  0.8764  0.5040 -0.3670
12253TIP3    H136681   8.832   5.196   6.851  0.9295  0.1437  0.1958
12253TIP3    H236682   8.699   5.129   6.876 -0.1831  1.6557 -1.5644
12254TIP3   OH236683   7.101   8.306   1.497  0.6755  0.3692  0.9876
12254TIP3    H136684   7.137   8.361   1.567 -0.4650 -0.7605  2.5156
12254TIP3    H236685   7.134   8.218   1.518 -0.4124 -0.1313  0.6170
12255TIP3   OH236686   4.515   5.188   7.212 -0.4572  0.8235  0.0401
12255TIP3    H136687   4.487   5.098   7.201 -0.1853  0.7557 -0.1125
12255TIP3    H236688   4.607   5.188   7.185  0.1037  0.7522  1.9438
12256TIP3   OH236689   8.727   1.699   1.562 -0.2779 -0.3243  0.2100
12256TIP3    H136690   8.673   1.777   1.549 -1.3473 -1.2732 -1.2197
12256TIP3    H236691   8.817   1.730   1.549 -0.6511  0.7816  0.1875
12257TIP3   OH236692   2.099   5.543   5.440 -0.3359  0.2422  0.0122
12257TIP3    H136693   2.141   5.578   5.519  0.7329  0.2283 -0.5419
12257TIP3    H236694   2.062   5.620   5.397  0.5362  0.4706 -0.3317
12258TIP3   OH236695   3.626   4.644   6.085  0.0467 -0.0517  0.1222
12258TIP3    H136696   3.603   4.619   5.996  0.9503 -0.6817  0.0604
12258TIP3    H236697   3.641   4.738   6.081  2.8996 -0.5237 -1.0126
12259TIP3   OH236698   4.903   3.103   5.826  0.6681  0.3536 -0.3769
12259TIP3    H136699   4.942   3.085   5.912  2.5972  2.8867 -0.6593
12259TIP3    H236700   4.952   3.047   5.766  1.5590  0.9785 -0.2467
12260TIP3   OH236701   1.119   0.825   1.101 -0.7061  0.0845  0.1537
12260TIP3    H136702   1.164   0.844   1.183  1.9158 -1.7416 -0.7525
12260TIP3    H236703   1.063   0.749   1.121 -1.2297  0.5923  0.6137
12261TIP3   OH236704   5.091   4.603   6.614 -0.2151  0.6043  0.0517
12261TIP3    H136705   5.067   4.662   6.542 -1.6472  0.0753  0.0659
12261TIP3    H236706   5.007   4.578   6.652  0.4083 -1.1116  0.3230
12262TIP3   OH236707   2.142   1.831   0.084 -0.2515  0.4677 -0.4259
12262TIP3    H136708   2.117   1.851   0.174  1.3143 -1.0443  0.3891
12262TIP3    H236709   2.131   1.736   0.078 -0.2829  0.5576 -1.8136
12263TIP3   OH236710   3.959   5.343   5.106 -0.1751 -0.8377 -0.2777
12263TIP3    H136711   3.935   5.435   5.092 -0.4380 -0.8369  0.1626
12263TIP3    H236712   4.054   5.344   5.114 -0.3505 -0.2237  2.3978
12264TIP3   OH236713   4.983   5.223   5.132 -0.4138  0.0872 -0.1613
12264TIP3    H136714   4.916   5.189   5.192 -1.5950  2.0127 -0.3260
12264TIP3    H236715   4.958   5.188   5.047  0.5418 -1.6297  0.2385
12265TIP3   OH236716   5.749   3.370   5.519 -0.1487  0.1190 -0.0342
12265TIP3    H136717   5.663   3.394   5.555 -0.8160  0.4604 -1.8395
12265TIP3    H236718   5.796   3.453   5.514  0.3204 -0.0773  1.0151
12266TIP3   OH236719   2.710   3.108   5.490  0.0313 -0.1966 -0.5127
12266TIP3    H136720   2.774   3.109   5.561 -0.8283 -2.4568  0.3341
12266TIP3    H236721   2.634   3.154   5.525 -0.5226 -1.6175  0.1858
12267TIP3   OH236722   2.950   3.137   6.196  0.1983  0.2479  0.5279
12267TIP3    H136723   2.975   3.064   6.140 -0.7511 -0.9290  1.6060
12267TIP3    H236724   3.015   3.205   6.177 -1.6488  0.8923 -3.9111
12268TIP3   OH236725   2.759   5.319   5.900 -0.1172 -0.4255 -0.1371
12268TIP3    H136726   2.786   5.384   5.965  0.8802  0.4176 -1.3872
12268TIP3    H236727   2.812   5.338   5.823 -2.0901 -0.7139 -1.5894
12269TIP3   OH236728   4.607   5.073   6.161  0.3563  0.3488 -0.0183
12269TIP3    H136729   4.680   5.071   6.099  0.1526 -0.2972 -0.2430
12269TIP3    H236730   4.535   5.115   6.113  1.1091  2.6387  0.8018
12270TIP3   OH236731   6.925   4.792   3.338  0.1940 -0.0834  0.2743
12270TIP3    H136732   6.919   4.877   3.294 -1.6756 -1.0673 -1.5176
12270TIP3    H236733   7.005   4.753   3.304  0.0165  0.1667 -0.4462
12271TIP3   OH236734   8.562   6.978   0.118  0.5017 -0.2025  0.0263
12271TIP3    H136735   8.532   6.935   0.038  1.1972  0.8424 -0.8105
12271TIP3    H236736   8.527   7.067   0.112 -0.5905 -0.5114  1.5536
12272TIP3   OH236737   6.415   7.441   0.301  0.0783 -0.0472  0.2720
12272TIP3    H136738   6.392   7.500   0.372  2.0276  0.0615  0.8502
12272TIP3    H236739   6.440   7.499   0.229 -0.4593 -0.1577 -0.0018
12273TIP3   OH236740   5.780   5.789   4.095 -0.0945  0.8285 -0.3137
12273TIP3    H136741   5.833   5.841   4.155  0.1089 -0.2649  0.4594
12273TIP3    H236742   5.777   5.702   4.134 -0.9660  0.4155 -1.2732
12274TIP3   OH236743   0.232   1.524   1.260 -0.1335  0.2692 -0.4509
12274TIP3    H136744   0.250   1.517   1.166  0.4282  0.8674 -0.3908
12274TIP3    H236745   0.249   1.437   1.295 -0.8663 -0.0980 -0.9924
12275TIP3   OH236746   7.160   4.169   6.008 -0.3115 -0.6150  0.3469
12275TIP3    H136747   7.243   4.199   6.045 -0.3017 -0.1306 -0.0716
12275TIP3    H236748   7.127   4.244   5.959 -0.1432 -1.3726 -0.9625
12276TIP3   OH236749   5.145   3.827   5.975  0.0563  0.3101 -0.2232
12276TIP3    H136750   5.091   3.772   5.918  0.5538  0.2670 -0.6537
12276TIP3    H236751   5.083   3.860   6.041 -0.5039  0.2966 -0.7349
12277TIP3   OH236752   4.392   4.866   5.935 -0.1592 -0.1189  0.2076
12277TIP3    H136753   4.347   4.927   5.994  1.2319 -0.6662  1.8954
12277TIP3    H236754   4.341   4.786   5.939 -0.5599  0.1266 -0.0011
12278TIP3   OH236755   2.667   5.181   5.677 -0.3908  0.2916 -0.0287
12278TIP3    H136756   2.691   5.242   5.748  0.1386  1.1206 -0.9030
12278TIP3    H236757   2.582   5.146   5.703  0.5858 -0.7396  1.8784
12279TIP3   OH236758   3.940   5.288   6.183  0.3067  0.0583  0.2573
12279TIP3    H136759   4.006   5.314   6.248 -0.0023  1.6736 -0.0465
12279TIP3    H236760   3.867   5.253   6.235  0.0150  1.4397  0.8022
12280TIP3   OH236761   4.576   2.658   5.797  0.3250  0.1249 -0.2088
12280TIP3    H136762   4.536   2.743   5.814  1.5768  0.7220 -0.1512
12280TIP3    H236763   4.670   2.675   5.801  0.5860 -1.2512 -0.2744
12281TIP3   OH236764   5.905   5.651   5.080 -0.0232  0.2025 -0.0216
12281TIP3    H136765   5.936   5.735   5.045 -0.8766  0.7451  0.5172
12281TIP3    H236766   5.958   5.638   5.159 -0.3689  0.5680  0.2700
12282TIP3   OH236767   5.385   5.641   5.824 -0.4061 -0.3312 -0.7103
12282TIP3    H136768   5.400   5.733   5.802  1.1500 -0.6803 -1.1395
12282TIP3    H236769   5.321   5.611   5.759  0.8437 -0.1703 -2.0348
12283TIP3   OH236770   4.480   4.650   4.868 -0.1074  0.4110  0.0998
12283TIP3    H136771   4.531   4.720   4.828  0.6949  0.4810  1.2256
12283TIP3    H236772   4.399   4.691   4.897  0.6848  1.0596  1.4531
12284TIP3   OH236773   1.057   4.471   5.595  0.0401  0.2629  0.0358
12284TIP3    H136774   1.142   4.428   5.589 -0.4598 -0.6212 -0.8995
12284TIP3    H236775   0.999   4.418   5.539 -0.2804  2.8700 -2.2372
12285TIP3   OH236776   5.980   4.106   5.098 -0.6516  0.2345 -0.0803
12285TIP3    H136777   6.026   4.179   5.055  0.3111 -0.7518 -0.7721
12285TIP3    H236778   5.987   4.034   5.035 -1.8949 -0.3593  0.4492
12286TIP3   OH236779   3.625   3.543   7.080  0.1250 -0.2691 -0.2164
12286TIP3    H136780   3.665   3.615   7.129 -0.9224  0.7028 -0.7832
12286TIP3    H236781   3.689   3.472   7.086  1.0775  0.6339  0.5099
12287TIP3   OH236782   6.468   5.711   3.555  0.3762  0.0691  0.0977
12287TIP3    H136783   6.416   5.748   3.626  0.0325 -1.6471  0.7735
12287TIP3    H236784   6.432   5.751   3.475 -0.9240  0.1150  0.6909
12288TIP3   OH236785   5.965   4.208   5.609 -0.5129  0.0756  0.3358
12288TIP3    H136786   5.897   4.182   5.671  0.3679 -0.9005  0.8985
12288TIP3    H236787   6.034   4.246   5.663  0.4519 -1.1856 -0.0047
12289TIP3   OH236788   6.716   6.332   6.115  0.0694  0.6001  0.7128
12289TIP3    H136789   6.722   6.241   6.084 -0.4307  0.8325 -0.0838
12289TIP3    H236790   6.799   6.372   6.092 -0.6395  1.0284 -1.1954
12290TIP3   OH236791   2.977   6.050   4.013  0.2398  0.9201 -0.2715
12290TIP3    H136792   2.936   5.972   4.051  0.4735  0.4943 -0.8883
12290TIP3    H236793   2.905   6.109   3.995  0.1193  1.1029  0.7841
12291TIP3   OH236794   2.238   5.708   5.199 -0.5906  0.7353  0.6616
12291TIP3    H136795   2.234   5.617   5.227 -1.4511  0.5591  0.0059
12291TIP3    H236796   2.284   5.706   5.115 -0.7988  0.8708  0.5423
12292TIP3   OH236797   4.180   4.124   4.580 -0.0947  0.0281  0.4018
12292TIP3    H136798   4.132   4.042   4.569  0.6982  0.0439 -4.1451
12292TIP3    H236799   4.113   4.192   4.573 -0.2084 -0.1131  0.1190
12293TIP3   OH236800   3.384   5.722   5.737  0.0460  0.2453  0.1885
12293TIP3    H136801   3.318   5.767   5.684 -0.2012  1.0958  1.2150
12293TIP3    H236802   3.457   5.784   5.743  0.4265 -0.1914  0.1259
12294TIP3   OH236803   6.896   4.888   3.980  0.5501 -0.1704 -0.4185
12294TIP3    H136804   6.898   4.983   3.968  0.6850 -0.0170  0.7171
12294TIP3    H236805   6.981   4.867   4.019 -1.1564 -0.1161  3.5624
12295TIP3   OH236806   6.505   2.926   3.864 -0.2441 -0.2928  0.2724
12295TIP3    H136807   6.426   2.909   3.916  0.2079  1.0081  1.4042
12295TIP3    H236808   6.576   2.921   3.927  0.3267  1.1958 -0.2314
12296TIP3   OH236809   6.140   3.767   6.032  0.0691 -0.0202 -0.0688
12296TIP3    H136810   6.195   3.770   6.110  0.7366 -0.5089 -0.5157
12296TIP3    H236811   6.190   3.812   5.964 -0.3725  0.1330 -0.2990
12297TIP3   OH236812   3.828   5.630   5.071 -0.1593 -0.1075  0.2989
12297TIP3    H136813   3.747   5.679   5.084 -1.2349 -1.2086 -1.9411
12297TIP3    H236814   3.851   5.646   4.979  2.3896  0.4858  0.9854
12298TIP3   OH236815   4.155   8.069   7.062 -0.2003 -0.2445  0.1215
12298TIP3    H136816   4.070   8.044   7.026 -0.8140 -0.4548  1.6929
12298TIP3    H236817   4.202   7.986   7.073 -0.8429 -0.4042  1.8393
12299TIP3   OH236818   1.334   1.237   0.977 -0.0364 -0.1882 -0.7475
12299TIP3    H136819   1.258   1.180   0.970 -1.2072  1.2007  0.2661
12299TIP3    H236820   1.383   1.204   1.053 -1.2287  0.7190  0.4416
12300TIP3   OH236821   4.492   4.625   5.460  0.3273  0.3889 -1.0004
12300TIP3    H136822   4.443   4.643   5.541  2.8670 -2.8026  1.3710
12300TIP3    H236823   4.571   4.678   5.468  0.7383 -0.1943 -1.2246
12301TIP3   OH236824   4.529   5.812   6.893 -0.0911  0.5616 -0.1743
12301TIP3    H136825   4.614   5.774   6.914 -0.8211 -0.7687  0.4339
12301TIP3    H236826   4.473   5.736   6.874 -1.0669  1.4353 -0.8397
12302TIP3   OH236827   4.048   5.037   6.326 -0.2676 -0.0917  0.5242
12302TIP3    H136828   3.998   5.097   6.271 -0.1245 -0.0686  0.4187
12302TIP3    H236829   4.140   5.060   6.310 -0.2584  1.0049  2.0023
12303TIP3   OH236830   3.497   2.660   3.007  0.2383 -0.1655  0.0034
12303TIP3    H136831   3.540   2.666   2.922  1.4365 -0.5924  0.5636
12303TIP3    H236832   3.567   2.635   3.068 -0.5897  0.1624  1.1182
12304TIP3   OH236833   6.815   3.654   4.761 -0.6023  0.2391 -0.1183
12304TIP3    H136834   6.808   3.723   4.827 -5.0023 -1.1193  1.0303
12304TIP3    H236835   6.877   3.591   4.798  0.9696  1.9751  0.2753
12305TIP3   OH236836   1.644   5.847   6.799 -0.0481 -0.1657 -0.0155
12305TIP3    H136837   1.681   5.775   6.747  0.2114  0.5293 -0.7946
12305TIP3    H236838   1.556   5.859   6.763 -0.1405 -0.1798  0.2047
12306TIP3   OH236839   4.698   2.902   4.648  0.5308 -0.6911  0.2843
12306TIP3    H136840   4.730   2.833   4.589  0.7674 -1.0177  0.7971
12306TIP3    H236841   4.698   2.981   4.594  0.1310 -1.1180 -0.3474
12307TIP3   OH236842   0.415   2.401   1.687 -0.2241  0.4141 -0.0181
12307TIP3    H136843   0.406   2.320   1.738 -0.4379  1.4223  1.5829
12307TIP3    H236844   0.369   2.383   1.605 -0.3609 -1.0445  0.3539
12308TIP3   OH236845   2.687   3.453   6.904  0.6262 -0.1532 -0.6589
12308TIP3    H136846   2.708   3.537   6.944 -1.7528  0.1654 -0.0509
12308TIP3    H236847   2.747   3.447   6.829  2.0248  1.2535  0.3152
12309TIP3   OH236848   6.570   5.111   6.118 -0.3807  0.6330  0.3265
12309TIP3    H136849   6.499   5.068   6.165 -0.0280  0.0586  0.3409
12309TIP3    H236850   6.542   5.202   6.110 -0.1195  0.9089  2.2715
12310TIP3   OH236851   5.081   5.892   5.601  0.1609  0.3684  1.0222
12310TIP3    H136852   5.139   5.857   5.534 -0.6148  2.6258 -0.9219
12310TIP3    H236853   5.138   5.938   5.662  0.4073  3.6590 -1.5639
12311TIP3   OH236854   3.400   5.508   5.891  0.5249  0.2383  0.1362
12311TIP3    H136855   3.374   5.591   5.851 -0.7579  0.1912  0.8306
12311TIP3    H236856   3.491   5.520   5.916  0.8120  0.8827 -1.1877
12312TIP3   OH236857   0.706   0.836   0.378 -0.6926 -0.2751  0.1170
12312TIP3    H136858   0.703   0.792   0.463  2.4334 -3.7281 -1.4150
12312TIP3    H236859   0.740   0.923   0.398  1.0153 -1.3964  2.3481
12313TIP3   OH236860   2.623   6.074   4.340  0.4062  0.5813  0.2579
12313TIP3    H136861   2.529   6.059   4.331  0.4291 -0.4136  1.5809
12313TIP3    H236862   2.639   6.153   4.288 -1.1319  0.6961 -0.0763
12314TIP3   OH236863   3.852   5.257   6.658  0.2631 -0.5458 -0.8121
12314TIP3    H136864   3.777   5.268   6.600 -1.2149  1.1683  1.3214
12314TIP3    H236865   3.893   5.343   6.660  2.7342 -1.6483 -2.4913
12315TIP3   OH236866   1.766   1.398   0.365  0.4391  0.5062  0.5274
12315TIP3    H136867   1.713   1.430   0.437  0.9481  0.8612  0.7413
12315TIP3    H236868   1.727   1.438   0.287 -0.6426 -0.5522  0.5081
12316TIP3   OH236869   5.150   3.427   4.807  0.5491  0.6977  0.4013
12316TIP3    H136870   5.185   3.367   4.873  1.3879  1.4927  0.6906
12316TIP3    H236871   5.223   3.485   4.787 -0.1757  1.4401 -0.0916
12317TIP3   OH236872   6.319   2.470   3.898 -0.1161 -0.7726  0.3570
12317TIP3    H136873   6.238   2.502   3.858  0.2180  0.6428  0.7965
12317TIP3    H236874   6.355   2.410   3.833  0.2415  1.2375 -1.3445
12318TIP3   OH236875   4.984   3.664   5.787  0.6048 -0.3640 -0.0396
12318TIP3    H136876   4.940   3.603   5.846  0.7891 -0.3651  0.0991
12318TIP3    H236877   4.914   3.719   5.752  0.5809  0.1388  0.7713
12319TIP3   OH236878   5.912   2.669   6.638  0.0582 -0.3640 -0.2199
12319TIP3    H136879   5.854   2.743   6.656 -0.7848 -1.2067  0.6262
12319TIP3    H236880   5.982   2.676   6.703  0.5907  0.3173 -0.8595
12320TIP3   OH236881   3.720   3.394   6.796  0.4989 -0.4627  0.3172
12320TIP3    H136882   3.797   3.362   6.750  0.1974 -0.5177 -0.1504
12320TIP3    H236883   3.751   3.412   6.885  0.9596 -0.8434  0.2335
12321TIP3   OH236884   3.581   5.091   6.025 -0.5179 -0.0788  0.5957
12321TIP3    H136885   3.638   5.017   6.004  2.2238  1.7509  1.3659
12321TIP3    H236886   3.529   5.060   6.100 -0.0513 -1.5188  0.3458
12322TIP3   OH236887   5.292   3.150   5.869  0.1225 -0.1262  0.2797
12322TIP3    H136888   5.289   3.230   5.922 -0.3933 -0.1759  0.3378
12322TIP3    H236889   5.384   3.125   5.867  0.2955  0.5182  0.1847
12323TIP3   OH236890   4.742   4.069   5.819 -0.2258 -0.1116 -0.0535
12323TIP3    H136891   4.789   4.004   5.767 -0.3730 -0.2425 -0.0242
12323TIP3    H236892   4.809   4.131   5.847 -0.1323 -0.0933 -0.3220
12324TIP3   OH236893   5.414   3.433   7.064 -0.3338 -0.3747 -0.4480
12324TIP3    H136894   5.330   3.475   7.083 -0.2901 -0.5138  0.0568
12324TIP3    H236895   5.435   3.383   7.143  1.6569  2.0397  0.6456
12325TIP3   OH236896   1.261   0.842   1.323  0.0796  0.1512  0.0881
12325TIP3    H136897   1.223   0.826   1.409  0.1432 -1.8059 -0.2268
12325TIP3    H236898   1.305   0.927   1.331 -1.8671  1.1018  1.2910
12326TIP3   OH236899   4.826   4.516   6.655  0.0154  0.4751  0.6528
12326TIP3    H136900   4.799   4.498   6.745 -2.9931 -0.6242 -0.4157
12326TIP3    H236901   4.753   4.485   6.601  1.6553  1.3324 -2.1618
12327TIP3   OH236902   2.947   1.136   5.155 -0.4048 -0.3351 -0.1230
12327TIP3    H136903   2.913   1.112   5.241 -1.0002 -0.4410 -0.3842
12327TIP3    H236904   2.915   1.225   5.140 -0.7878 -0.5281 -0.4790
12328TIP3   OH236905   2.573   3.584   7.148 -0.0271  0.5499 -0.2798
12328TIP3    H136906   2.554   3.491   7.134  2.6480 -0.0130 -0.2960
12328TIP3    H236907   2.621   3.587   7.230  1.5120  1.6894 -1.1950
12329TIP3   OH236908   2.107   2.092   6.186 -0.7219  0.0420  0.3031
12329TIP3    H136909   2.054   2.126   6.258 -0.7563  1.1123 -0.2151
12329TIP3    H236910   2.190   2.068   6.226 -0.3829  1.5706  0.5454
12330TIP3   OH236911   4.839   4.902   7.067  0.6523 -0.2752  0.2806
12330TIP3    H136912   4.927   4.865   7.062  0.3414 -0.7476 -3.2200
12330TIP3    H236913   4.781   4.826   7.059 -0.0690  0.1681  1.2550
12331TIP3   OH236914   4.112   4.246   5.930  0.1586 -0.5957 -0.1428
12331TIP3    H136915   4.023   4.214   5.948  0.0385  1.0409  2.4715
12331TIP3    H236916   4.168   4.193   5.987  0.7342 -0.7394 -0.8363
12332TIP3   OH236917   7.076   8.182   0.526 -0.2532 -0.5860 -0.0765
12332TIP3    H136918   7.004   8.134   0.568 -0.4283 -0.5236 -0.3021
12332TIP3    H236919   7.143   8.116   0.510  0.1401 -0.4596  1.0205
12333TIP3   OH236920   3.891   4.588   5.169 -0.0172 -1.0522 -0.4722
12333TIP3    H136921   3.828   4.602   5.098  0.7565 -2.7178 -1.5097
12333TIP3    H236922   3.962   4.539   5.129  1.7092  0.3109  0.8242
12334TIP3   OH236923   1.271   2.164   0.294 -0.2788  0.0280  0.0298
12334TIP3    H136924   1.280   2.214   0.212 -0.6216 -0.5574 -0.3666
12334TIP3    H236925   1.255   2.074   0.265 -1.6776  0.0419  0.7336
12335TIP3   OH236926   3.268   4.438   6.822  0.0020 -0.7533  0.7519
12335TIP3    H136927   3.288   4.344   6.818 -3.1061 -1.3747 -2.0550
12335TIP3    H236928   3.198   4.444   6.887 -0.9041 -0.5914 -0.2409
12336TIP3   OH236929   4.708   5.617   7.068  0.4046  0.3240  0.4363
12336TIP3    H136930   4.683   5.545   7.010  2.6926  0.4823 -0.8313
12336TIP3    H236931   4.684   5.587   7.156  1.7431 -2.2028 -0.0174
12337TIP3   OH236932   4.570   3.994   4.854 -0.0928  0.0475 -0.2689
12337TIP3    H136933   4.481   3.992   4.889 -0.0336 -0.6781 -0.1524
12337TIP3    H236934   4.562   4.039   4.770 -0.4217  0.7582  0.1376
12338TIP3   OH236935   5.486   4.532   6.255 -0.1306 -0.1990 -0.3242
12338TIP3    H136936   5.431   4.477   6.198  0.8696 -2.9541  1.2549
12338TIP3    H236937   5.439   4.535   6.338  0.6653 -0.1265  0.1294
12339TIP3   OH236938   3.526   4.674   5.468 -0.1062  0.3531 -0.4304
12339TIP3    H136939   3.606   4.622   5.457  0.8637  1.7212  0.0068
12339TIP3    H236940   3.455   4.611   5.454  1.0332 -0.9785 -0.4180
12340TIP3   OH236941   4.667   6.512   5.416  0.1488 -0.2779  0.0459
12340TIP3    H136942   4.615   6.441   5.378  0.1068  0.1496 -0.6910
12340TIP3    H236943   4.697   6.477   5.500 -0.6461 -0.8326  0.1088
12341TIP3   OH236944   5.569   2.637   4.213 -0.3004  0.1212  0.3635
12341TIP3    H136945   5.531   2.711   4.165 -1.9685 -1.4796 -0.8506
12341TIP3    H236946   5.562   2.563   4.152 -0.1071 -1.4006  2.1492
12342TIP3   OH236947   6.483   3.453   4.764 -0.6441 -0.8481  0.1515
12342TIP3    H136948   6.568   3.486   4.736 -1.0789  1.5981  1.5655
12342TIP3    H236949   6.432   3.445   4.684  0.9933 -2.6772 -0.7545
12343TIP3   OH236950   5.049   4.221   4.447 -0.2522 -0.0479 -0.1067
12343TIP3    H136951   5.123   4.161   4.438  0.6387  1.1324 -0.8511
12343TIP3    H236952   4.996   4.205   4.368 -0.8711 -0.9658  0.4769
12344TIP3   OH236953   2.751   0.215   0.545 -0.3443  0.0969 -0.0353
12344TIP3    H136954   2.804   0.294   0.530 -0.0033  0.1543  1.3718
12344TIP3    H236955   2.722   0.224   0.636 -0.2434 -1.4355  0.1492
12345TIP3   OH236956   4.167   4.494   4.745 -0.3732 -0.4170  0.2806
12345TIP3    H136957   4.256   4.460   4.744 -0.8773 -1.8593  1.3788
12345TIP3    H236958   4.119   4.440   4.683 -0.7725 -0.5055  0.6602
12346TIP3   OH236959   1.728   1.263   0.708 -0.3587 -0.4786 -0.2450
12346TIP3    H136960   1.649   1.317   0.707 -1.6642 -2.3149  0.4648
12346TIP3    H236961   1.727   1.221   0.794  1.7133 -0.0642 -0.0071
12347TIP3   OH236962   8.783   1.197   1.835 -0.3304 -0.1780  0.0876
12347TIP3    H136963   8.796   1.128   1.769 -0.5740 -0.0478 -0.0972
12347TIP3    H236964   8.872   1.223   1.859 -0.2334  0.8947 -1.3763
12348TIP3   OH236965   4.726   5.418   6.876 -0.1308  0.0242 -0.1605
12348TIP3    H136966   4.798   5.365   6.844 -0.4974  0.0684 -1.0633
12348TIP3    H236967   4.647   5.374   6.844 -0.4134  1.6824 -1.8312
12349TIP3   OH236968   1.570   0.556   0.529  0.1354  0.2693  0.1404
12349TIP3    H136969   1.601   0.646   0.516  0.0944  0.3151  0.3648
12349TIP3    H236970   1.481   0.566   0.561 -0.8963  0.1183 -2.5250
12350TIP3   OH236971   6.425   4.152   5.749 -0.1438 -0.2962 -0.2449
12350TIP3    H136972   6.449   4.244   5.743 -0.8030 -0.0861  0.2985
12350TIP3    H236973   6.499   4.111   5.795  0.5887 -0.2239 -1.3388
12351TIP3   OH236974   6.318   4.901   5.280 -0.1707  0.0837  0.1042
12351TIP3    H136975   6.334   4.972   5.218 -0.1561  1.0476  1.1922
12351TIP3    H236976   6.234   4.864   5.253  0.3573 -0.2185 -1.1474
12352TIP3   OH236977   4.540   6.458   5.138 -0.5105  0.9970 -0.4428
12352TIP3    H136978   4.448   6.480   5.123 -0.2341  1.4335 -1.4969
12352TIP3    H236979   4.537   6.384   5.200 -1.5007  2.4420  1.2996
12353TIP3   OH236980   4.380   4.522   6.825 -0.3138  0.6480 -0.2828
12353TIP3    H136981   4.285   4.520   6.818 -0.3216  0.2265 -0.0778
12353TIP3    H236982   4.401   4.459   6.894  0.1291  0.5324 -0.5188
12354TIP3   OH236983   3.753   6.736   6.974  0.3566 -0.0366 -0.2616
12354TIP3    H136984   3.723   6.685   7.049 -1.0180  1.4552  0.2490
12354TIP3    H236985   3.780   6.671   6.909 -0.9036 -1.3962  0.5497
12355TIP3   OH236986   3.031   3.000   7.174 -0.1356 -0.2354 -0.2997
12355TIP3    H136987   3.083   3.058   7.230 -2.1544 -1.5373  3.0994
12355TIP3    H236988   3.090   2.927   7.153  0.6485  0.2486  0.1959
12356TIP3   OH236989   7.779   5.227   4.187 -0.0191  0.4367  0.2707
12356TIP3    H136990   7.725   5.230   4.266 -0.5441  0.1614 -0.0763
12356TIP3    H236991   7.858   5.180   4.214 -0.4084 -0.0950  0.5119
12357TIP3   OH236992   3.301   5.009   6.141 -0.0433 -0.0185 -0.1665
12357TIP3    H136993   3.245   4.987   6.066  3.4141  0.1397 -2.9315
12357TIP3    H236994   3.312   5.104   6.135  0.3425 -0.0242  0.4794
12358TIP3   OH236995   4.554   5.247   4.987  0.0878  0.2540  1.1456
12358TIP3    H136996   4.609   5.231   5.063 -0.7329  0.8746  1.8788
12358TIP3    H236997   4.552   5.342   4.978 -0.4108  0.2114  0.7818
12359TIP3   OH236998   7.232   1.708   6.652  0.1243 -0.3627  0.0942
12359TIP3    H136999   7.276   1.719   6.567 -0.2789  2.2353  0.1950
12359TIP3    H237000   7.300   1.720   6.717  0.1697 -1.0069  0.1683
12360TIP3   OH237001   1.448   2.422   1.050  0.0413 -0.2946 -0.0845
12360TIP3    H137002   1.523   2.435   1.108 -0.8614  1.0269  0.8259
12360TIP3    H237003   1.393   2.358   1.095  1.1844 -2.1736 -1.3208
12361TIP3   OH237004   5.223   4.640   4.945 -0.0313  0.2620  0.1903
12361TIP3    H137005   5.153   4.703   4.963 -0.2338  0.0948 -0.0220
12361TIP3    H237006   5.182   4.572   4.892  0.5092  0.6345 -0.7189
12362TIP3   OH237007   5.753   2.657   5.503  0.5223 -0.3318  0.1182
12362TIP3    H137008   5.841   2.664   5.541  1.0702 -1.1171 -0.9979
12362TIP3    H237009   5.764   2.600   5.427 -0.5889  1.1249 -1.1665
12363TIP3   OH237010   3.952   6.166   5.305 -0.4049 -0.2170 -0.1398
12363TIP3    H137011   4.020   6.154   5.370 -1.5981 -0.0821  1.1578
12363TIP3    H237012   3.910   6.081   5.296 -0.6653 -0.0803 -0.2513
12364TIP3   OH237013   5.635   5.785   5.247 -0.7958  0.4098  0.0288
12364TIP3    H137014   5.630   5.720   5.177 -0.0934  0.0822  0.2847
12364TIP3    H237015   5.563   5.763   5.305  0.2002 -0.9212  0.7866
12365TIP3   OH237016   4.356   3.820   5.815 -0.0897 -0.1681 -0.1491
12365TIP3    H137017   4.265   3.791   5.817 -0.1273 -0.0351  0.0678
12365TIP3    H237018   4.356   3.902   5.863 -0.1793  0.7693 -1.7109
12366TIP3   OH237019   5.528   5.245   6.019  0.5100  0.1123  0.5265
12366TIP3    H137020   5.617   5.221   6.046  0.7376  0.0648 -0.2527
12366TIP3    H237021   5.541   5.310   5.950 -0.0798  0.9897  1.2324
12367TIP3   OH237022   4.477   4.825   6.264  0.2061  0.1826  0.4298
12367TIP3    H137023   4.571   4.843   6.268  0.4255 -1.1426  1.6018
12367TIP3    H237024   4.471   4.741   6.220 -0.6431  1.7508 -2.5357
12368TIP3   OH237025   4.999   2.743   6.318  0.5334 -0.0211 -0.0569
12368TIP3    H137026   5.014   2.702   6.233  0.5086 -0.7423  0.2853
12368TIP3    H237027   5.049   2.824   6.314 -0.6541  0.6917 -1.3264
12369TIP3   OH237028   3.847   2.437   5.566  0.3270 -0.0262 -0.0171
12369TIP3    H137029   3.850   2.468   5.475  0.0583 -0.4143 -0.1601
12369TIP3    H237030   3.819   2.346   5.559  0.5916 -0.1448  0.4365
12370TIP3   OH237031   3.901   1.622   6.315 -0.2569 -0.7666  0.1315
12370TIP3    H137032   3.988   1.582   6.317  0.2130  0.2637  0.9423
12370TIP3    H237033   3.899   1.671   6.233 -0.9596 -2.6858 -1.0270
12371TIP3   OH237034   3.309   4.866   5.546 -0.0488  0.4951 -0.2911
12371TIP3    H137035   3.396   4.838   5.520 -0.8189 -0.2129 -2.1623
12371TIP3    H237036   3.268   4.896   5.465 -2.1046 -0.6752  0.2942
12372TIP3   OH237037   5.369   2.046   5.464 -0.1311  0.0765 -1.3187
12372TIP3    H137038   5.400   1.955   5.459  0.2933  0.1218  0.2092
12372TIP3    H237039   5.362   2.063   5.558  4.1222  3.0737 -1.3780
12373TIP3   OH237040   5.894   3.337   7.081  0.0592 -0.0745 -0.2157
12373TIP3    H137041   5.968   3.393   7.107 -0.2158  0.8659 -1.4153
12373TIP3    H237042   5.842   3.328   7.161  1.5079 -0.8211  0.6725
12374TIP3   OH237043   5.145   6.384   5.676 -0.0212 -0.2297 -0.6947
12374TIP3    H137044   5.123   6.382   5.769 -1.6619  1.7287 -1.0065
12374TIP3    H237045   5.208   6.455   5.667 -1.9685  1.4490 -1.4634
12375TIP3   OH237046   4.393   2.657   6.185 -0.2990 -0.6105  0.2947
12375TIP3    H137047   4.476   2.685   6.224 -0.8396  2.2771 -0.5009
12375TIP3    H237048   4.328   2.717   6.221 -1.0944  0.9966 -3.4973
12376TIP3   OH237049   5.692   4.106   6.439 -0.3513 -0.2258  0.4848
12376TIP3    H137050   5.612   4.147   6.474  0.0608  1.7099 -0.7490
12376TIP3    H237051   5.757   4.119   6.509 -0.9404 -1.2254  1.2256
12377TIP3   OH237052   4.742   3.634   7.100  0.7206 -0.3787 -0.6487
12377TIP3    H137053   4.670   3.687   7.134  0.0836 -2.8729  2.1423
12377TIP3    H237054   4.815   3.695   7.093 -0.8133  1.5142 -0.4862
12378TIP3   OH237055   6.803   7.669   0.432 -0.0297  0.0949  0.7511
12378TIP3    H137056   6.717   7.707   0.420  0.2242  1.0415  1.8681
12378TIP3    H237057   6.788   7.574   0.430 -0.8499  0.2434 -0.6488
12379TIP3   OH237058   4.925   2.835   4.251 -0.1789  0.3926 -0.1902
12379TIP3    H137059   4.858   2.888   4.208 -1.3894 -1.0717 -0.1493
12379TIP3    H237060   4.923   2.863   4.343 -1.2898 -0.1787 -0.0288
12380TIP3   OH237061   5.768   3.659   5.230  0.2612  0.1090 -0.8085
12380TIP3    H137062   5.733   3.728   5.287  0.3231  1.0935 -1.9526
12380TIP3    H237063   5.827   3.609   5.287 -0.9365  0.0671  0.4272
12381TIP3   OH237064   5.612   3.460   5.089 -0.5126  0.1804  0.6834
12381TIP3    H137065   5.556   3.437   5.163 -1.5902  1.8891  0.4216
12381TIP3    H237066   5.657   3.539   5.116  1.1280 -0.6741  0.5338
12382TIP3   OH237067   5.425   5.134   4.435  0.2110 -0.4014  0.3415
12382TIP3    H137068   5.345   5.130   4.382  0.3463 -0.2708  0.1230
12382TIP3    H237069   5.408   5.203   4.499  0.2955 -0.0972  0.0422
12383TIP3   OH237070   8.805   0.427   0.789  0.2272  0.1657 -0.5641
12383TIP3    H137071   8.723   0.426   0.839 -0.1435  0.7848 -1.1462
12383TIP3    H237072   8.873   0.428   0.856 -0.2708  1.2862 -0.0437
12384TIP3   OH237073   4.971   3.902   6.160 -0.2954  0.3742  0.3723
12384TIP3    H137074   4.966   3.868   6.249  0.8832  2.5341  1.2862
12384TIP3    H237075   5.007   3.990   6.169 -0.0965  0.6126 -2.2457
12385TIP3   OH237076   3.978   4.220   6.534  0.2528  0.1427  0.3449
12385TIP3    H137077   3.946   4.130   6.523 -0.9202  0.2616  2.4910
12385TIP3    H237078   3.902   4.269   6.563  0.8878  1.8747 -0.8492
12386TIP3   OH237079   2.922   5.207   6.653  0.5769  0.0959  0.0034
12386TIP3    H137080   2.853   5.149   6.620  2.5744 -1.0819 -2.2198
12386TIP3    H237081   2.897   5.294   6.621 -0.2729 -0.1905 -0.1306
12387TIP3   OH237082   4.035   4.653   6.205  0.1270  0.2463 -0.1405
12387TIP3    H137083   4.012   4.564   6.177  0.0088 -0.1820  1.3046
12387TIP3    H237084   3.950   4.694   6.224  0.1914  0.6185 -0.6520
12388TIP3   OH237085   4.540   5.138   6.423  0.4756  0.0177 -0.0367
12388TIP3    H137086   4.573   5.123   6.335  0.0774 -1.5572  0.0833
12388TIP3    H237087   4.446   5.123   6.417  0.5556 -0.8840  0.8278
12389TIP3   OH237088   3.777   4.759   5.586  0.3981  0.2784 -0.4982
12389TIP3    H137089   3.777   4.674   5.542  2.1466  0.7863 -1.5119
12389TIP3    H237090   3.703   4.806   5.548 -0.5935 -0.7815  0.0843
12390TIP3   OH237091   2.431   1.318   0.999  0.0795  0.6957  0.4912
12390TIP3    H137092   2.428   1.279   1.086 -0.6038  0.0394  0.1762
12390TIP3    H237093   2.503   1.271   0.955  1.1852  1.8137  1.0638
12391TIP3   OH237094   4.269   5.990   5.602  0.0531 -0.0229 -0.2322
12391TIP3    H137095   4.179   5.980   5.635 -0.3901 -0.0943 -1.4402
12391TIP3    H237096   4.277   6.084   5.584 -0.0077 -0.1133 -0.7441
12392TIP3   OH237097   3.213   0.557   1.310 -0.1599  0.1903  0.5884
12392TIP3    H137098   3.171   0.494   1.250  0.5160 -1.2898  1.6363
12392TIP3    H237099   3.242   0.628   1.253 -0.0201 -0.9329 -0.7857
12393TIP3   OH237100   6.426   4.075   4.356 -0.5309  0.1419  0.0759
12393TIP3    H137101   6.427   4.107   4.446 -1.2469 -0.1671  0.2053
12393TIP3    H237102   6.374   3.994   4.360 -1.6939  0.8218 -0.8401
12394TIP3   OH237103   5.938   4.356   5.911  0.1885 -0.0981 -0.0977
12394TIP3    H137104   5.944   4.260   5.918  0.1430 -0.3494 -2.9917
12394TIP3    H237105   6.006   4.379   5.847  0.4957  1.8670  0.9101
12395TIP3   OH237106   1.997   5.551   5.829  0.0325  0.1322 -0.0687
12395TIP3    H137107   1.950   5.607   5.768  0.4188  1.0907  0.5047
12395TIP3    H237108   2.047   5.611   5.884 -0.3756 -0.7114  1.2500
12396TIP3   OH237109   8.757   6.994   1.906 -0.2378 -0.1417  0.4924
12396TIP3    H137110   8.744   6.905   1.872 -0.4527 -0.0529  0.3442
12396TIP3    H237111   8.764   6.982   2.001  3.1378 -0.7243  0.2557
12397TIP3   OH237112   5.794   4.111   6.735 -0.2411 -0.7467  0.3961
12397TIP3    H137113   5.831   4.031   6.773 -1.3459  0.3152  3.9036
12397TIP3    H237114   5.700   4.092   6.725 -0.5733  0.1950  1.5813
12398TIP3   OH237115   8.393   7.828   0.026 -0.1599 -0.1820  0.1137
12398TIP3    H137116   8.457   7.874   0.079  0.1291 -0.4145 -0.0353
12398TIP3    H237117   8.412   7.735   0.039 -2.3283 -0.3696  2.4258
12399TIP3   OH237118   5.238   4.422   4.432 -0.1730  0.1795  1.2032
12399TIP3    H137119   5.212   4.483   4.363  1.0531  0.4332  0.9652
12399TIP3    H237120   5.162   4.364   4.441  0.2820 -0.9228 -1.5326
12400TIP3   OH237121   2.663   2.540   1.538 -0.0853 -0.0767 -0.0846
12400TIP3    H137122   2.707   2.490   1.607 -1.7952 -0.1350  0.9948
12400TIP3    H237123   2.584   2.489   1.518  0.2128  0.1135 -1.8648
12401TIP3   OH237124   4.328   3.625   6.679  0.4050 -0.1985 -0.0218
12401TIP3    H137125   4.364   3.712   6.697  0.6161 -0.6494  1.8578
12401TIP3    H237126   4.387   3.587   6.615  1.4701  0.2792  0.6584
12402TIP3   OH237127   5.533   2.564   5.925  0.2741  0.2423 -0.7925
12402TIP3    H137128   5.627   2.573   5.908  0.4968 -0.1906  0.1782
12402TIP3    H237129   5.492   2.627   5.867  1.1763  0.4833 -1.1741
12403TIP3   OH237130   5.216   3.764   7.176 -0.0213 -0.6533 -0.0425
12403TIP3    H137131   5.196   3.780   7.268 -1.1350 -0.9600 -0.2258
12403TIP3    H237132   5.302   3.720   7.178  1.1146  1.5221  0.6770
12404TIP3   OH237133   5.753   4.951   6.376 -0.1652  0.1305 -0.6020
12404TIP3    H137134   5.687   5.020   6.389  1.9239  2.4054 -1.6463
12404TIP3    H237135   5.782   4.930   6.465  0.1300  1.5517 -0.3545
12405TIP3   OH237136   1.994   1.386   0.512 -0.0163  0.3526  0.4051
12405TIP3    H137137   1.917   1.388   0.455  0.3252  0.9392 -0.0518
12405TIP3    H237138   2.024   1.295   0.510 -1.4533 -0.1703  1.6313
12406TIP3   OH237139   4.836   3.281   7.058  0.6709 -0.0648 -0.0447
12406TIP3    H137140   4.789   3.298   7.139  1.4645  0.7102  0.2635
12406TIP3    H237141   4.877   3.195   7.071  1.4108  0.3897  0.6682
12407TIP3   OH237142   4.571   3.679   5.825 -0.2035  0.0525 -0.1552
12407TIP3    H137143   4.488   3.722   5.805 -0.1688  0.0180 -0.3720
12407TIP3    H237144   4.591   3.705   5.915 -1.2002 -1.1080  0.4329
12408TIP3   OH237145   2.249   0.294   1.154  0.1243 -0.0024 -0.1226
12408TIP3    H137146   2.221   0.367   1.099  1.7898 -0.2422 -1.2966
12408TIP3    H237147   2.173   0.236   1.158 -0.0350  0.0509 -2.1200
12409TIP3   OH237148   3.993   7.609   4.500  0.0441 -0.4136  0.0540
12409TIP3    H137149   4.055   7.655   4.443 -1.0704  0.9177 -0.1074
12409TIP3    H237150   3.917   7.667   4.505 -0.6874 -1.4461  1.2709
12410TIP3   OH237151   4.327   4.171   7.210  0.2672 -0.6301  0.9616
12410TIP3    H137152   4.279   4.101   7.166 -0.4501 -0.8350  2.0573
12410TIP3    H237153   4.355   4.229   7.140 -1.2546 -0.7110  0.2740
12411TIP3   OH237154   3.787   4.296   6.891  0.0803 -0.0443  0.3640
12411TIP3    H137155   3.771   4.246   6.812  0.8980  0.1241  0.0847
12411TIP3    H237156   3.729   4.372   6.885  2.2558  1.5438 -1.5354
12412TIP3   OH237157   2.477   5.345   7.285 -0.0199 -0.1614 -0.4134
12412TIP3    H137158   2.520   5.310   7.207  0.1145 -1.9544  0.4415
12412TIP3    H237159   2.392   5.300   7.288 -0.6604  1.0420 -0.3727
12413TIP3   OH237160   4.252   5.729   6.267 -0.2007  0.3100 -0.0524
12413TIP3    H137161   4.235   5.802   6.208 -1.4349 -0.0957 -0.2047
12413TIP3    H237162   4.178   5.727   6.327 -0.0212 -0.6187  0.1563
12414TIP3   OH237163   3.539   6.774   6.699  0.5633  0.3930 -0.1188
12414TIP3    H137164   3.621   6.776   6.750  0.7369  1.9705 -0.4259
12414TIP3    H237165   3.502   6.688   6.717  2.0456 -0.1539  0.4297
12415TIP3   OH237166   2.456   0.617   0.477 -0.1994 -0.0246 -0.1880
12415TIP3    H137167   2.446   0.623   0.572 -1.8263  0.7259 -0.4014
12415TIP3    H237168   2.406   0.690   0.443  0.1944 -0.4286 -1.6464
12416TIP3   OH237169   5.335   4.489   5.146 -0.6895 -0.3110  0.0812
12416TIP3    H137170   5.325   4.538   5.064 -0.2994 -0.3455  0.0155
12416TIP3    H237171   5.340   4.398   5.119 -0.8850 -0.3462  0.1668
12417TIP3   OH237172   5.136   3.444   2.922  0.2313 -0.4902  0.0662
12417TIP3    H137173   5.073   3.501   2.966  2.0677  0.4280  1.6090
12417TIP3    H237174   5.150   3.485   2.837  0.8396  0.9241  0.8101
12418TIP3   OH237175   3.413   4.030   6.178 -0.1612  0.0006  0.0259
12418TIP3    H137176   3.350   4.027   6.250 -0.1096  2.8574  0.2521
12418TIP3    H237177   3.498   4.041   6.222  0.5936 -4.0055 -0.2615
12419TIP3   OH237178   6.160   4.361   5.712  0.1028  1.0240 -0.3113
12419TIP3    H137179   6.192   4.375   5.623 -0.8454 -1.3905 -1.0778
12419TIP3    H237180   6.235   4.324   5.759 -0.4844 -1.2399 -1.1330
12420TIP3   OH237181   6.562   2.687   5.333  0.3720  0.0096 -0.0830
12420TIP3    H137182   6.555   2.705   5.426  0.7972  0.4415 -0.1287
12420TIP3    H237183   6.643   2.732   5.306  2.0133 -2.8162 -0.0257
12421TIP3   OH237184   6.856   5.147   4.223 -0.4025 -0.7640 -0.3076
12421TIP3    H137185   6.918   5.114   4.158  1.1655 -0.0710  0.7863
12421TIP3    H237186   6.786   5.082   4.226  0.1602 -1.4502 -1.7426
12422TIP3   OH237187   4.209   3.115   5.977 -0.0606  0.3415  0.3931
12422TIP3    H137188   4.288   3.166   5.998 -0.6890  1.3393  0.3543
12422TIP3    H237189   4.218   3.094   5.884  0.5504 -0.2553  0.5775
12423TIP3   OH237190   4.495   5.279   6.901  0.1991  0.2271 -0.0508
12423TIP3    H137191   4.443   5.273   6.821 -1.4126 -0.2907  1.0164
12423TIP3    H237192   4.518   5.189   6.923  1.2248  0.4216 -0.2962
12424TIP3   OH237193   2.213   2.212   0.232  0.4511  0.0177 -0.1629
12424TIP3    H137194   2.159   2.202   0.311  1.8450  1.6672  1.0361
12424TIP3    H237195   2.183   2.294   0.193  0.3906 -0.3378 -0.8727
12425TIP3   OH237196   5.988   4.919   5.253  0.5748 -0.4049  0.3538
12425TIP3    H137197   5.983   4.921   5.349  0.9891  0.1357  0.3657
12425TIP3    H237198   5.973   5.010   5.226  1.0064 -0.4528 -0.0613
12426TIP3   OH237199   6.741   2.197   3.802  0.3739  0.4900  0.0920
12426TIP3    H137200   6.733   2.192   3.897 -0.0727 -0.1328  0.0219
12426TIP3    H237201   6.650   2.206   3.772  0.3658 -1.2439 -0.3973
12427TIP3   OH237202   5.857   2.528   6.168  0.0294 -0.2279 -0.3069
12427TIP3    H137203   5.876   2.482   6.087 -1.3211  2.2471 -2.0801
12427TIP3    H237204   5.943   2.553   6.202  0.6595 -2.2453 -0.3236
12428TIP3   OH237205   5.344   5.873   3.859  0.4212  0.3733  0.2123
12428TIP3    H137206   5.343   5.777   3.855  1.0029  0.2429  2.6972
12428TIP3    H237207   5.437   5.896   3.851  0.3056  0.7392 -0.1288
12429TIP3   OH237208   5.365   4.026   5.614  0.6731  0.5561 -0.1977
12429TIP3    H137209   5.394   4.101   5.561 -0.5615  0.8346 -0.4917
12429TIP3    H237210   5.366   3.953   5.552 -0.3488  0.7952 -0.5064
12430TIP3   OH237211   3.266   1.090   0.430  0.1619 -0.3945  0.1753
12430TIP3    H137212   3.264   1.185   0.436  1.7067 -0.4467  1.9101
12430TIP3    H237213   3.212   1.060   0.504 -0.5919 -0.8865 -0.5534
12431TIP3   OH237214   5.272   4.444   5.929  0.4253  0.2407 -0.0405
12431TIP3    H137215   5.188   4.462   5.969 -0.3198 -1.8121 -0.6379
12431TIP3    H237216   5.253   4.434   5.836  1.4499  0.5056 -0.2908
12432TIP3   OH237217   5.079   4.210   3.799  0.0893  0.3201  0.1866
12432TIP3    H137218   5.012   4.162   3.848 -0.8216 -0.2156 -1.5774
12432TIP3    H237219   5.050   4.207   3.708  3.1082 -0.9314 -0.7910
12433TIP3   OH237220   6.378   5.725   5.377 -0.2562  0.1111 -0.5024
12433TIP3    H137221   6.430   5.696   5.452 -0.6601  0.5277 -0.0568
12433TIP3    H237222   6.291   5.688   5.392 -0.7252  1.3707 -0.0278
12434TIP3   OH237223   7.050   7.874   0.472  0.0996 -0.2822  0.4734
12434TIP3    H137224   7.140   7.899   0.450  0.3401 -0.6973  0.9732
12434TIP3    H237225   7.042   7.893   0.566 -0.2688 -0.4499  0.4778
12435TIP3   OH237226   6.850   2.230   4.745 -0.4286  0.1454  0.2957
12435TIP3    H137227   6.779   2.171   4.771 -1.4891  1.1602 -0.2118
12435TIP3    H237228   6.928   2.194   4.785 -1.2915 -0.8427  1.1052
12436TIP3   OH237229   2.977   3.357   7.168 -1.2302 -0.0590  0.1071
12436TIP3    H137230   3.019   3.355   7.082 -1.3362 -1.3712  0.0874
12436TIP3    H237231   2.895   3.405   7.154 -0.0164  2.1028  0.0460
12437TIP3   OH237232   4.603   4.486   5.141 -0.2766  0.1144  0.2265
12437TIP3    H137233   4.699   4.482   5.135 -0.1941  1.0501  0.9723
12437TIP3    H237234   4.584   4.575   5.170 -1.4640  0.4740 -1.5819
12438TIP3   OH237235   4.142   3.931   7.133 -0.1130 -0.0018  0.0898
12438TIP3    H137236   4.064   3.875   7.129 -0.0306 -0.1571  0.5451
12438TIP3    H237237   4.182   3.909   7.217 -0.3446  1.1108  0.4970
12439TIP3   OH237238   7.006   7.813   1.905  0.2787 -0.4287  0.9654
12439TIP3    H137239   7.097   7.787   1.893 -0.5030 -2.4417 -0.8192
12439TIP3    H237240   6.997   7.895   1.855  0.6591 -1.2089 -0.3976
12440TIP3   OH237241   4.946   3.476   4.353 -0.0313 -0.1415  0.1797
12440TIP3    H137242   4.877   3.439   4.298  0.7203 -1.6133  0.1877
12440TIP3    H237243   4.937   3.430   4.437  1.1957 -0.6524  0.0493
12441TIP3   OH237244   5.535   4.746   6.586 -0.2333 -0.1815  0.2198
12441TIP3    H137245   5.536   4.702   6.671 -2.8577 -0.6855  0.0466
12441TIP3    H237246   5.600   4.699   6.534  2.2516  0.8638  2.2584
12442TIP3   OH237247   4.178   5.311   5.901  0.1853  0.3607 -0.2161
12442TIP3    H137248   4.187   5.401   5.933 -1.7233  0.7511 -0.7401
12442TIP3    H237249   4.086   5.289   5.917 -0.0331 -0.5420 -2.5350
12443TIP3   OH237250   5.673   6.332   7.047  0.7005  0.2256 -0.8166
12443TIP3    H137251   5.654   6.360   6.957  1.1220 -0.6816 -1.1950
12443TIP3    H237252   5.627   6.395   7.102 -1.7812 -0.7702 -1.6874
12444TIP3   OH237253   4.315   3.453   4.693 -0.1177  0.0269  0.1518
12444TIP3    H137254   4.377   3.409   4.636  0.4804  1.7475 -0.5671
12444TIP3    H237255   4.317   3.402   4.774  1.6392 -0.4151 -0.1412
12445TIP3   OH237256   4.316   5.450   6.232  0.3023  0.6284  0.1743
12445TIP3    H137257   4.288   5.539   6.214  1.7182  1.3557  1.4999
12445TIP3    H237258   4.398   5.440   6.184 -2.2256 -1.5988 -3.9718
12446TIP3   OH237259   5.422   6.198   5.106 -0.1324  0.3944 -0.3564
12446TIP3    H137260   5.341   6.160   5.140  0.3510  0.0442  0.3916
12446TIP3    H237261   5.484   6.126   5.105  0.3308  0.7907 -0.4402
12447TIP3   OH237262   4.277   6.005   5.233 -0.2430 -0.0927 -0.0603
12447TIP3    H137263   4.348   5.990   5.172  1.3888  3.4458  0.8306
12447TIP3    H237264   4.271   5.924   5.284  1.4375 -1.3511 -1.8066
12448TIP3   OH237265   3.110   6.297   6.654  0.1528 -0.3389 -0.4977
12448TIP3    H137266   3.075   6.300   6.743 -2.1591  0.5011 -1.4095
12448TIP3    H237267   3.168   6.373   6.649 -0.9823  0.5582 -0.2117
12449TIP3   OH237268   3.863   7.220   7.204  0.1730  0.5223  0.2167
12449TIP3    H137269   3.839   7.148   7.262 -0.8034  1.9882  1.6881
12449TIP3    H237270   3.784   7.237   7.152 -0.0007  1.3314  0.7388
12450TIP3   OH237271   1.822   2.355   0.337  0.2327 -0.1436  0.1107
12450TIP3    H137272   1.811   2.450   0.337 -0.5698 -0.2348  0.6861
12450TIP3    H237273   1.781   2.327   0.255 -2.8321 -0.3480  1.6344
12451TIP3   OH237274   3.842   6.996   5.981 -0.1585 -0.6389 -0.0108
12451TIP3    H137275   3.887   6.917   5.953 -0.0623 -0.5938  0.0183
12451TIP3    H237276   3.910   7.063   5.983  0.0371 -0.8689  1.3190
12452TIP3   OH237277   3.210   4.892   5.296 -0.1791  0.1301  0.3683
12452TIP3    H137278   3.210   4.959   5.228 -1.0569  0.7727  0.9994
12452TIP3    H237279   3.120   4.890   5.328 -0.3601 -1.9399 -0.2172
12453TIP3   OH237280   5.035   2.280   5.232  0.1575 -0.2131 -0.0546
12453TIP3    H137281   5.105   2.276   5.298  0.7051  0.4545 -0.5922
12453TIP3    H237282   5.060   2.352   5.174 -0.3257 -0.7944 -0.9977
12454TIP3   OH237283   5.582   0.974   3.768  0.2647  0.8523  0.3102
12454TIP3    H137284   5.487   0.965   3.761  0.1881  0.0438  1.9938
12454TIP3    H237285   5.596   1.036   3.840  1.0012  1.2929 -0.2046
12455TIP3   OH237286   7.089   4.219   5.730  0.1331 -0.3383  0.3523
12455TIP3    H137287   7.126   4.135   5.704 -1.2503 -0.4814 -1.2575
12455TIP3    H237288   7.138   4.283   5.678  1.2920 -0.1142  1.6918
12456TIP3   OH237289   2.113   5.042   5.147 -0.1216  0.5402 -0.1302
12456TIP3    H137290   2.172   4.974   5.112 -1.1707 -0.2182 -0.4309
12456TIP3    H237291   2.084   5.090   5.070 -1.2631 -0.1905 -0.1652
12457TIP3   OH237292   2.531   3.967   6.304  0.3101 -0.4878  0.5060
12457TIP3    H137293   2.511   3.969   6.397  1.8386 -2.6159  0.9331
12457TIP3    H237294   2.448   3.948   6.261 -0.0976 -1.2200  1.5983
12458TIP3   OH237295   4.146   4.894   6.529  0.2086  0.8198  0.0418
12458TIP3    H137296   4.092   4.930   6.458 -1.2575 -0.3913  0.5062
12458TIP3    H237297   4.169   4.806   6.499  2.4803  1.5509 -0.4190
12459TIP3   OH237298   3.887   4.100   5.904  0.8207 -0.2651 -0.2975
12459TIP3    H137299   3.843   4.180   5.876  1.7555  0.7741  1.0841
12459TIP3    H237300   3.918   4.059   5.823  0.0288  0.5974 -1.0389
12460TIP3   OH237301   3.251   1.498   5.845 -0.2672 -0.3726 -0.2532
12460TIP3    H137302   3.321   1.449   5.802 -2.0656 -1.5871 -1.8593
12460TIP3    H237303   3.260   1.477   5.938  1.3653 -0.6674 -0.4653
12461TIP3   OH237304   4.451   5.469   5.475  0.5775  0.3880 -0.0949
12461TIP3    H137305   4.376   5.424   5.515  0.2147  2.5008  1.7023
12461TIP3    H237306   4.522   5.405   5.480 -0.6866 -1.0696 -0.3821
12462TIP3   OH237307   0.571   0.145   0.338 -0.3485 -0.0921 -0.1233
12462TIP3    H137308   0.560   0.102   0.422  1.8523 -0.4000  0.0247
12462TIP3    H237309   0.591   0.236   0.360  1.8434 -0.5156 -0.2280
12463TIP3   OH237310   5.692   3.898   5.020 -0.2497 -0.3059  0.3350
12463TIP3    H137311   5.694   3.919   5.114  1.5024 -1.7004  0.6160
12463TIP3    H237312   5.669   3.805   5.017  3.3956 -1.2615 -0.4339
12464TIP3   OH237313   3.064   5.011   4.628 -0.3928  0.2321 -0.2995
12464TIP3    H137314   3.123   4.952   4.581 -0.7623 -1.0502  0.8046
12464TIP3    H237315   2.989   5.022   4.569 -0.5145 -0.7618 -0.3364
12465TIP3   OH237316   5.582   4.629   5.228 -0.0955  0.0687  0.1767
12465TIP3    H137317   5.583   4.582   5.311  0.6730 -0.9110 -0.3801
12465TIP3    H237318   5.530   4.574   5.170 -1.4366  1.2126  0.2589
12466TIP3   OH237319   0.488   7.573   0.072 -0.7448 -0.2364  0.2661
12466TIP3    H137320   0.539   7.651   0.048  0.9631 -0.9050  1.6206
12466TIP3    H237321   0.404   7.607   0.102 -1.7321  0.8161 -3.4181
12467TIP3   OH237322   6.023   3.525   6.614  0.3217  0.0157 -0.0136
12467TIP3    H137323   5.939   3.481   6.629  0.0282  0.3686 -0.6263
12467TIP3    H237324   6.066   3.471   6.548  1.3880 -1.2349  1.6552
12468TIP3   OH237325   6.739   4.194   6.394 -0.6365 -0.4392  0.6126
12468TIP3    H137326   6.713   4.182   6.486  0.7558  0.6244  1.1791
12468TIP3    H237327   6.820   4.246   6.399 -1.5048  1.1657 -1.2892
12469TIP3   OH237328   5.109   2.882   5.833 -0.0176  0.0410  0.1544
12469TIP3    H137329   5.139   2.900   5.743  2.4942 -2.0006  0.5317
12469TIP3    H237330   5.141   2.957   5.883 -0.4094  0.6192 -0.4463
12470TIP3   OH237331   2.734   1.874   0.203 -0.0356  0.4088  0.4868
12470TIP3    H137332   2.774   1.897   0.120 -1.4780 -0.1545 -0.3859
12470TIP3    H237333   2.719   1.958   0.246  2.7873  0.5882  1.2075
12471TIP3   OH237334   6.067   4.705   4.566  0.3593 -0.1706 -0.3497
12471TIP3    H137335   6.115   4.630   4.531  1.8570  1.2401 -1.4165
12471TIP3    H237336   5.988   4.667   4.605  1.5505 -2.3743 -0.0080
12472TIP3   OH237337   6.166   5.790   5.173 -0.4397  0.4766  0.1216
12472TIP3    H137338   6.141   5.779   5.081 -1.6367  0.2685  0.4545
12472TIP3    H237339   6.174   5.884   5.185 -0.2352  0.5014 -0.2162
12473TIP3   OH237340   7.046   6.046   4.387 -0.0128  0.6350  0.5231
12473TIP3    H137341   6.957   6.012   4.399  0.6499 -1.5008 -0.4415
12473TIP3    H237342   7.049   6.071   4.295  0.5059  0.3277  0.4564
12474TIP3   OH237343   5.529   6.236   6.379  0.7282  0.3920 -0.2204
12474TIP3    H137344   5.521   6.261   6.287  0.3622  1.2037  0.0301
12474TIP3    H237345   5.449   6.187   6.398  1.5581 -1.2454 -0.7800
12475TIP3   OH237346   5.879   4.225   4.640  0.1386 -0.0339  0.6643
12475TIP3    H137347   5.854   4.310   4.604  0.7212 -0.1601 -0.0362
12475TIP3    H237348   5.817   4.211   4.712 -1.7819 -0.3007 -1.0101
12476TIP3   OH237349   6.407   2.282   6.195  0.3900  0.2556 -0.6225
12476TIP3    H137350   6.500   2.300   6.205  0.8521 -1.3777 -1.7286
12476TIP3    H237351   6.371   2.290   6.283  1.6777  0.3573 -0.0965
12477TIP3   OH237352   6.765   4.747   4.250 -0.3879 -0.4814  0.2274
12477TIP3    H137353   6.848   4.785   4.220  0.3190 -0.8144  1.7165
12477TIP3    H237354   6.704   4.820   4.252  0.3058  0.0798  0.6958
12478TIP3   OH237355   6.406   5.705   4.960  0.1727  0.2926 -0.4588
12478TIP3    H137356   6.398   5.706   4.865 -1.1096 -0.4459 -0.3708
12478TIP3    H237357   6.455   5.626   4.980 -1.8419 -0.9588 -0.3647
12479TIP3   OH237358   7.026   5.407   5.524  0.1491 -0.0651  0.2498
12479TIP3    H137359   7.122   5.409   5.528  0.1049  3.6188  1.4640
12479TIP3    H237360   7.006   5.426   5.432  0.5838 -1.1556 -0.0724
12480TIP3   OH237361   6.826   3.899   7.112  0.1155 -0.6123 -0.1476
12480TIP3    H137362   6.885   3.967   7.081  0.0809 -0.8771 -0.7975
12480TIP3    H237363   6.804   3.848   7.034  0.0519 -1.2966  0.3097
12481TIP3   OH237364   5.998   4.056   6.304 -0.4675 -0.0841  0.5838
12481TIP3    H137365   6.082   4.050   6.258 -0.4314 -1.7064  0.8459
12481TIP3    H237366   5.981   4.150   6.309  0.5703  0.2062 -0.8497
12482TIP3   OH237367   5.732   3.981   4.561 -0.7425 -0.2372 -0.1508
12482TIP3    H137368   5.781   3.900   4.568  0.5682  0.3098 -2.5181
12482TIP3    H237369   5.761   4.033   4.636  0.0771 -1.0965  0.1343
12483TIP3   OH237370   6.941   4.875   6.007 -1.2570  0.2462  0.3486
12483TIP3    H137371   6.877   4.885   6.077  0.9024  2.3202  2.1181
12483TIP3    H237372   6.981   4.790   6.024 -1.6759  0.1403  0.8338
12484TIP3   OH237373   8.165   6.303   4.387 -0.2774  0.4627  0.0818
12484TIP3    H137374   8.104   6.234   4.361  2.0841 -1.4703 -0.5086
12484TIP3    H237375   8.203   6.334   4.305 -0.3643  1.5698  0.4518
12485TIP3   OH237376   6.131   3.851   3.346  0.2330 -0.2391  0.1260
12485TIP3    H137377   6.144   3.756   3.345  1.5235 -0.0596 -0.8780
12485TIP3    H237378   6.057   3.866   3.287  1.5344 -0.4235 -1.5931
12486TIP3   OH237379   6.337   2.558   6.069 -0.3390  0.1030  0.7150
12486TIP3    H137380   6.300   2.550   5.981 -0.3395  2.0281  0.5332
12486TIP3    H237381   6.265   2.534   6.127 -0.6015 -0.2938  0.2322
12487TIP3   OH237382   8.409   4.727   4.971  0.3040 -0.1659  0.1753
12487TIP3    H137383   8.389   4.749   4.880  1.0848 -0.9152 -0.1879
12487TIP3    H237384   8.328   4.745   5.019 -0.4992 -0.9208 -0.8695
12488TIP3   OH237385   5.364   5.648   4.958 -0.3097  0.2065 -0.3156
12488TIP3    H137386   5.352   5.607   4.873  0.2693 -1.9494  0.6202
12488TIP3    H237387   5.455   5.630   4.982 -0.5238  0.6095  0.8553
12489TIP3   OH237388   6.348   5.628   4.148  0.5930 -0.2012 -0.2239
12489TIP3    H137389   6.363   5.586   4.063  0.5111  0.6464 -0.6578
12489TIP3    H237390   6.359   5.722   4.132 -1.0795  0.1140  0.3417
12490TIP3   OH237391   0.243   5.224   5.261  0.4145 -0.1204 -0.0393
12490TIP3    H137392   0.302   5.254   5.330  0.7090 -0.2527 -0.2309
12490TIP3    H237393   0.226   5.302   5.208 -1.3829  0.4442  1.3005
12491TIP3   OH237394   4.845   3.060   6.429 -0.1323 -0.7238  0.0398
12491TIP3    H137395   4.874   3.026   6.514  1.5261 -0.3077 -0.3392
12491TIP3    H237396   4.916   3.119   6.402 -1.7147  0.9375 -0.5634
12492TIP3   OH237397   7.219   5.122   5.853 -0.1968 -0.1337 -0.1910
12492TIP3    H137398   7.128   5.100   5.836 -0.9442  1.3745  1.7313
12492TIP3    H237399   7.217   5.209   5.892  2.0778  0.0010 -0.2692
12493TIP3   OH237400   6.153   4.066   3.533  0.3981  0.2155  0.4907
12493TIP3    H137401   6.243   4.075   3.566  0.6446  0.4067 -0.2414
12493TIP3    H237402   6.150   3.977   3.496  0.3771  0.3298  0.2214
12494TIP3   OH237403   4.978   4.924   5.564  0.2182 -0.3356 -0.2355
12494TIP3    H137404   4.926   4.853   5.602  1.5298  0.0396  2.3992
12494TIP3    H237405   5.068   4.906   5.592  0.7044  1.8408 -0.2974
12495TIP3   OH237406   8.421   7.545   0.593  0.5190  0.2165 -0.2604
12495TIP3    H137407   8.326   7.549   0.587  0.5082 -0.7180 -0.7415
12495TIP3    H237408   8.440   7.559   0.686  0.1738  4.7511 -0.7878
12496TIP3   OH237409   6.357   2.451   4.660 -0.0957 -0.0918 -0.7255
12496TIP3    H137410   6.282   2.396   4.639  0.8200 -1.4337 -0.5163
12496TIP3    H237411   6.432   2.405   4.622  0.5801  1.4127 -1.2375
12497TIP3   OH237412   6.553   2.718   6.050  0.6397  0.1150  0.3315
12497TIP3    H137413   6.597   2.667   5.982  1.6239 -0.1856  1.1874
12497TIP3    H237414   6.470   2.672   6.064  0.5615  0.0083 -0.4355
12498TIP3   OH237415   7.822   5.673   6.151  0.4471  0.3630  1.0531
12498TIP3    H137416   7.759   5.744   6.154  1.4413  1.3144  0.0043
12498TIP3    H237417   7.813   5.629   6.236 -1.7757  0.3135  0.8231
12499TIP3   OH237418   8.264   5.253   5.002 -0.0575 -0.1061  0.3301
12499TIP3    H137419   8.341   5.198   4.986  0.6343  0.6566  0.9915
12499TIP3    H237420   8.208   5.239   4.925  0.9332 -0.3533 -0.3571
12500TIP3   OH237421   7.684   6.298   4.443  0.5556  0.0770 -0.0954
12500TIP3    H137422   7.634   6.371   4.407  1.2135  0.1246 -0.9066
12500TIP3    H237423   7.722   6.333   4.524  1.6329  0.9147 -0.9621
12501TIP3   OH237424   7.304   5.997   4.510  0.4756  0.4916 -0.0978
12501TIP3    H137425   7.337   5.976   4.423 -0.1912 -0.3262 -0.1570
12501TIP3    H237426   7.210   6.012   4.497  0.1037 -1.0860  0.7240
12502TIP3   OH237427   6.329   5.738   4.671  0.5490 -0.1117  0.3885
12502TIP3    H137428   6.354   5.799   4.601 -0.3859  0.0740  0.2048
12502TIP3    H237429   6.235   5.723   4.657 -0.1161  1.4467  2.7381
12503TIP3   OH237430   4.570   5.767   4.720  0.2938 -0.2713 -0.0469
12503TIP3    H137431   4.518   5.714   4.660 -0.1870  1.5188 -1.2660
12503TIP3    H237432   4.505   5.815   4.772  0.7183 -0.9645  1.1426
12504TIP3   OH237433   6.997   5.362   4.654  0.1457 -0.1632 -0.0590
12504TIP3    H137434   7.075   5.307   4.659  0.5269  0.4814  1.3886
12504TIP3    H237435   6.995   5.409   4.738 -0.3602  1.7519 -1.1202
12505TIP3   OH237436   4.067   3.206   6.849 -0.5786 -0.2822 -0.5136
12505TIP3    H137437   4.151   3.161   6.849  0.4317  1.4677  2.0744
12505TIP3    H237438   4.036   3.198   6.940 -1.8412  1.4829 -0.7599
12506TIP3   OH237439   5.419   4.836   5.036  0.2245 -0.3025 -0.2664
12506TIP3    H137440   5.367   4.791   4.969 -0.3983  0.5352 -0.3442
12506TIP3    H237441   5.507   4.840   4.999 -0.0820  0.0177 -0.9684
12507TIP3   OH237442   3.706   5.211   5.093 -0.2763  0.7048  0.3670
12507TIP3    H137443   3.724   5.134   5.147  0.8690  1.3276  0.8896
12507TIP3    H237444   3.784   5.267   5.103 -0.8210  1.6466 -0.4976
12508TIP3   OH237445   4.433   6.636   6.581  0.3170  0.1496  0.0648
12508TIP3    H137446   4.384   6.608   6.658  0.8424  1.7095  1.0003
12508TIP3    H237447   4.367   6.655   6.515 -0.0978 -2.1017 -0.2091
12509TIP3   OH237448   6.696   5.553   3.653  0.7735  0.0948 -0.6976
12509TIP3    H137449   6.734   5.477   3.608  2.2750  1.3006 -1.5378
12509TIP3    H237450   6.661   5.608   3.582  0.9243  0.8239 -0.2183
12510TIP3   OH237451   5.922   4.808   5.014 -0.5388  0.0765  0.0519
12510TIP3    H137452   5.957   4.860   5.087 -0.5430  2.6639 -1.7079
12510TIP3    H237453   5.988   4.818   4.945 -1.6127 -0.4595 -1.0585
12511TIP3   OH237454   5.633   5.589   5.012  0.2913  0.0236 -0.0115
12511TIP3    H137455   5.630   5.494   4.998  1.5983 -0.0242 -0.0352
12511TIP3    H237456   5.723   5.606   5.042  0.0804  1.2585 -0.0637
12512TIP3   OH237457   4.709   6.099   4.187  0.2481  0.0761  0.1977
12512TIP3    H137458   4.647   6.162   4.225 -0.4266 -0.5957  0.2148
12512TIP3    H237459   4.686   6.015   4.227 -0.5783 -0.6776 -1.7649
12513TIP3   OH237460   6.621   4.527   2.447 -0.1393 -0.0035  0.3866
12513TIP3    H137461   6.559   4.468   2.488  1.2076 -1.1715  0.7622
12513TIP3    H237462   6.675   4.471   2.391  1.0206  0.8835  0.5848
12514TIP3   OH237463   7.031   4.662   5.585 -0.8140 -0.1861  0.7851
12514TIP3    H137464   7.017   4.597   5.516 -2.5824 -1.1796  2.0543
12514TIP3    H237465   6.950   4.712   5.588 -0.6018  0.1108  1.8732
12515TIP3   OH237466   7.942   6.192   4.270  0.0922 -0.6816 -0.2802
12515TIP3    H137467   7.889   6.142   4.332 -1.7963  0.2547 -1.1170
12515TIP3    H237468   7.879   6.242   4.218  1.6294 -1.5608 -3.0712
12516TIP3   OH237469   6.738   5.399   4.097 -0.2142  0.1995 -0.1028
12516TIP3    H137470   6.673   5.427   4.161 -0.3446 -0.8561  0.2438
12516TIP3    H237471   6.775   5.319   4.135  0.1207 -0.1087 -1.0729
12517TIP3   OH237472   2.533   3.890   0.113  0.0569  0.7214 -0.5560
12517TIP3    H137473   2.468   3.836   0.068 -1.3197  1.4501  0.5376
12517TIP3    H237474   2.614   3.876   0.063 -1.1383  0.5363 -2.4842
12518TIP3   OH237475   1.808   1.616   0.192 -0.6482  0.1697  0.0167
12518TIP3    H137476   1.886   1.604   0.246  0.1157  0.1660 -1.0678
12518TIP3    H237477   1.808   1.540   0.134 -0.8044  0.7757 -0.7768
12519TIP3   OH237478   6.403   4.999   4.625  0.0150 -0.3057  0.2482
12519TIP3    H137479   6.329   5.051   4.592  0.0564 -0.0811  0.5027
12519TIP3    H237480   6.440   5.053   4.695  0.2142 -0.5685  0.3455
12520TIP3   OH237481   4.588   5.794   3.936  0.5527  0.0062 -0.3646
12520TIP3    H137482   4.582   5.763   3.845 -0.9258 -1.4010  0.1959
12520TIP3    H237483   4.539   5.876   3.937 -1.4200 -1.1573 -0.3287
12521TIP3   OH237484   6.532   5.475   4.274  0.7959 -0.5240 -0.5613
12521TIP3    H137485   6.479   5.398   4.295 -0.1994  0.6043  1.2297
12521TIP3    H237486   6.468   5.546   4.266  1.8010  0.3221 -1.1353
12522TIP3   OH237487   7.103   2.461   5.529 -0.0578 -0.4669 -1.0557
12522TIP3    H137488   7.131   2.420   5.446 -0.8833  2.0045 -2.6072
12522TIP3    H237489   7.181   2.505   5.561  0.3813 -1.7936 -0.2582
12523TIP3   OH237490   8.043   4.465   6.667  0.0406  0.6742 -0.0599
12523TIP3    H137491   7.948   4.467   6.654  0.1690  0.4234 -1.0526
12523TIP3    H237492   8.060   4.534   6.731 -1.0602 -0.6872  1.7360
12524TIP3   OH237493   6.695   4.668   5.232  0.2774  0.6173  0.2362
12524TIP3    H137494   6.669   4.751   5.274 -0.0968  1.6578 -1.9847
12524TIP3    H237495   6.645   4.666   5.151 -0.6639 -2.4384  0.8393
12525TIP3   OH237496   7.075   2.917   3.190  0.1401 -0.5560  0.0602
12525TIP3    H137497   7.053   2.938   3.100  1.0208 -0.2504 -0.0942
12525TIP3    H237498   7.171   2.913   3.191  0.1423 -0.4706  0.9972
12526TIP3   OH237499   6.574   2.990   5.292 -0.3734 -0.3742 -0.5494
12526TIP3    H137500   6.609   2.969   5.379 -1.4563 -1.7635 -0.4187
12526TIP3    H237501   6.599   2.915   5.238 -0.7739 -0.0947 -1.1212
12527TIP3   OH237502   6.048   3.557   5.858 -0.0456 -0.0971  0.2600
12527TIP3    H137503   6.083   3.632   5.907  0.5630  1.1882 -2.0980
12527TIP3    H237504   6.124   3.499   5.847  0.8111  1.4477 -2.5136
12528TIP3   OH237505   7.187   5.029   3.386 -0.3855  0.0729  0.0730
12528TIP3    H137506   7.261   5.049   3.443 -0.8360  2.3924 -0.0772
12528TIP3    H237507   7.211   4.948   3.342  1.9369  0.6122  0.2817
12529TIP3   OH237508   7.796   5.096   5.349 -0.6105 -0.2762  0.1884
12529TIP3    H137509   7.815   5.004   5.367  1.6443  0.2930  0.8664
12529TIP3    H237510   7.819   5.107   5.257  0.4718 -0.0870  0.4675
12530TIP3   OH237511   5.466   4.091   4.676  0.4304 -0.0299 -0.3715
12530TIP3    H137512   5.514   4.064   4.597 -2.5275  1.2753 -2.6806
12530TIP3    H237513   5.450   4.184   4.663 -2.5110 -0.3919  0.4573
12531TIP3   OH237514   4.366   2.521   5.921  0.5866 -0.0891 -0.1082
12531TIP3    H137515   4.362   2.549   6.012 -1.4171  0.7457 -0.4245
12531TIP3    H237516   4.445   2.562   5.886  1.9889 -1.3281  1.5304
12532TIP3   OH237517   5.453   5.606   4.346 -0.3053  0.2696 -0.0295
12532TIP3    H137518   5.413   5.599   4.433  2.3376 -0.7497  1.1433
12532TIP3    H237519   5.511   5.682   4.353 -0.4599  0.4793 -1.0576
12533TIP3   OH237520   5.322   5.482   4.723 -0.3522  0.1406 -0.5730
12533TIP3    H137521   5.248   5.519   4.676  0.7332  1.5709 -1.2213
12533TIP3    H237522   5.284   5.416   4.780 -2.3229  1.8348  0.1606
12534TIP3   OH237523   7.696   5.721   2.399  0.2059 -0.0124 -0.0859
12534TIP3    H137524   7.633   5.726   2.328 -0.0667 -0.9333  0.0881
12534TIP3    H237525   7.660   5.655   2.459  1.3551 -0.5946 -0.0204
12535TIP3   OH237526   5.135   5.230   6.156  0.0126 -0.3494  0.6255
12535TIP3    H137527   5.156   5.136   6.160 -0.9408 -0.6185 -0.2952
12535TIP3    H237528   5.048   5.236   6.197  0.1443  0.1587  0.8280
12536TIP3   OH237529   5.011   4.403   3.226  0.0567  0.1177 -0.0877
12536TIP3    H137530   5.067   4.414   3.149  1.5497 -1.6946  0.6788
12536TIP3    H237531   5.051   4.459   3.293 -0.4332  0.6320 -0.2230
12537TIP3   OH237532   7.004   2.443   3.749  0.0768 -0.2992 -0.3346
12537TIP3    H137533   6.936   2.418   3.686 -1.5548  2.1795  0.3362
12537TIP3    H237534   6.961   2.434   3.834  0.2285  2.1650  0.0478
12538TIP3   OH237535   8.093   4.175   5.052 -0.5355  0.9258 -0.2375
12538TIP3    H137536   7.999   4.184   5.037 -1.0299 -2.0806  0.6521
12538TIP3    H237537   8.100   4.151   5.145  1.1702  1.9268 -0.0861
12539TIP3   OH237538   6.677   3.245   5.374  0.1183  0.2726  0.1975
12539TIP3    H137539   6.642   3.334   5.373 -1.5295 -0.3386  0.3488
12539TIP3    H237540   6.599   3.190   5.380  0.9619 -1.2697 -2.2019
12540TIP3   OH237541   6.612   4.270   5.479 -0.0407 -0.1659 -0.2154
12540TIP3    H137542   6.705   4.261   5.499 -0.0044 -1.0348 -0.7399
12540TIP3    H237543   6.578   4.325   5.549  0.6589 -0.7195  0.5740
12541TIP3   OH237544   3.437   2.970   4.330 -0.4622 -0.3750  0.1718
12541TIP3    H137545   3.424   2.882   4.293  0.6191 -0.0309 -1.0545
12541TIP3    H237546   3.456   2.954   4.423  0.1600 -1.4586 -0.1323
12542TIP3   OH237547   6.848   2.690   4.228  0.3024  0.0193  0.7504
12542TIP3    H137548   6.896   2.623   4.179  3.5188  0.5003  3.1127
12542TIP3    H237549   6.838   2.762   4.166 -1.5876 -1.8852 -1.2491
12543TIP3   OH237550   7.576   4.006   5.372 -0.0026  0.5318 -0.2780
12543TIP3    H137551   7.559   3.931   5.316 -1.3987 -0.3309  1.2410
12543TIP3    H237552   7.502   4.065   5.357 -0.5442  0.1617  0.8168
12544TIP3   OH237553   6.174   3.305   3.258 -0.3296  0.5596  0.7902
12544TIP3    H137554   6.242   3.243   3.284  0.5473  1.5749  0.9347
12544TIP3    H237555   6.093   3.256   3.266  0.3697 -0.6135  0.7884
12545TIP3   OH237556   4.678   4.928   6.572  0.1843 -0.2128 -0.0729
12545TIP3    H137557   4.639   5.003   6.526  0.3632 -0.0874 -0.0212
12545TIP3    H237558   4.603   4.872   6.593 -0.0063  0.1691  0.2857
12546TIP3   OH237559   5.676   4.553   5.940  0.2646 -0.3639 -0.2451
12546TIP3    H137560   5.621   4.477   5.960  0.1044  0.1068  1.1159
12546TIP3    H237561   5.638   4.624   5.991  2.7081 -0.2487  1.4711
12547TIP3   OH237562   7.054   3.843   3.508  0.0662  0.0892 -0.2604
12547TIP3    H137563   7.101   3.859   3.590  1.1162  1.5913 -1.1245
12547TIP3    H237564   7.056   3.748   3.497  1.9919  0.0341  0.2760
12548TIP3   OH237565   6.716   4.088   4.275  0.3150 -0.4021  0.0457
12548TIP3    H137566   6.621   4.084   4.264  0.3163 -0.4821  0.0688
12548TIP3    H237567   6.736   4.182   4.269  0.2255 -0.3772  0.1135
12549TIP3   OH237568   6.548   6.439   4.849  0.1287 -0.2687 -0.3329
12549TIP3    H137569   6.625   6.481   4.809 -0.7002  0.8834 -0.7522
12549TIP3    H237570   6.584   6.372   4.907  1.5664  1.9935  1.4720
12550TIP3   OH237571   7.564   2.354   4.950  0.1230 -0.1070 -0.3406
12550TIP3    H137572   7.558   2.268   4.993 -2.2047  0.0594 -0.2814
12550TIP3    H237573   7.574   2.333   4.857 -1.8487 -0.4782 -0.4934
12551TIP3   OH237574   7.374   5.646   4.950  0.1952  0.1959 -0.1794
12551TIP3    H137575   7.438   5.693   5.004 -3.2638  2.3409  2.2726
12551TIP3    H237576   7.328   5.715   4.903 -0.7946 -1.2417 -1.3458
12552TIP3   OH237577   5.233   0.840   4.240 -0.4681 -0.1220 -0.6330
12552TIP3    H137578   5.273   0.909   4.292  2.2800 -2.4262  0.4799
12552TIP3    H237579   5.148   0.825   4.280  0.2355  0.4400  1.1163
12553TIP3   OH237580   8.590   4.543   7.190 -0.4580 -0.1927  0.2682
12553TIP3    H137581   8.635   4.466   7.156 -0.4200 -0.5435  1.1092
12553TIP3    H237582   8.561   4.590   7.112  2.8862  0.9509 -0.3628
12554TIP3   OH237583   6.387   4.736   4.628  0.1493 -0.7133 -0.3929
12554TIP3    H137584   6.389   4.831   4.621 -0.9190 -0.5858  0.7422
12554TIP3    H237585   6.358   4.719   4.718 -0.8237 -2.0997 -0.9477
12555TIP3   OH237586   5.356   4.506   6.478  0.0407 -0.0904 -0.3232
12555TIP3    H137587   5.317   4.570   6.538 -0.4233 -0.8388  0.1937
12555TIP3    H237588   5.391   4.438   6.535 -0.2991 -0.7551 -0.8961
12556TIP3   OH237589   1.703   1.843   0.097  0.0838  0.4390  0.2381
12556TIP3    H137590   1.694   1.759   0.141 -0.1493 -0.2432 -1.1203
12556TIP3    H237591   1.796   1.848   0.073  0.2460  0.8856  0.9477
12557TIP3   OH237592   5.835   5.795   6.185 -0.1120 -0.4852  0.6059
12557TIP3    H137593   5.911   5.751   6.224 -1.4152 -2.5142  0.9293
12557TIP3    H237594   5.765   5.785   6.249 -1.0746  0.0378 -0.3458
12558TIP3   OH237595   4.326   5.368   7.093  0.3762 -0.6251 -0.3164
12558TIP3    H137596   4.355   5.379   7.003  0.7355 -0.8008 -0.2208
12558TIP3    H237597   4.390   5.309   7.133  0.9519  0.4617  0.4101
12559TIP3   OH237598   0.112   7.382   0.360 -0.1344 -0.1472 -0.0390
12559TIP3    H137599   0.155   7.320   0.301  1.8984  0.0833  1.1664
12559TIP3    H237600   0.064   7.441   0.302 -1.5862 -2.4393 -1.2440
12560TIP3   OH237601   8.334   3.916   4.821 -0.1258  0.5062  0.2440
12560TIP3    H137602   8.375   3.890   4.738 -1.0668  0.2231 -0.1416
12560TIP3    H237603   8.363   3.849   4.884  0.3813  0.5745  0.0805
12561TIP3   OH237604   5.518   4.057   6.732  0.2493  0.8174  0.6677
12561TIP3    H137605   5.480   3.974   6.759  3.3807 -0.7402  0.4506
12561TIP3    H237606   5.459   4.089   6.664 -0.3305 -1.8329 -0.1283
12562TIP3   OH237607   6.034   4.968   4.447  0.5949 -0.3657  0.0113
12562TIP3    H137608   5.973   4.940   4.378  1.2511 -0.3593 -0.5727
12562TIP3    H237609   6.044   4.892   4.503 -3.3608  0.8563  2.6482
12563TIP3   OH237610   5.956   3.945   5.529  0.2371 -0.5197  0.3790
12563TIP3    H137611   5.987   3.873   5.584 -0.6850 -2.3523 -1.4299
12563TIP3    H237612   5.978   4.024   5.578  3.3084 -1.9212  1.3953
12564TIP3   OH237613   6.169   4.699   6.223  0.2692  0.1484 -0.0637
12564TIP3    H137614   6.194   4.606   6.225  0.4766  0.1942 -0.3982
12564TIP3    H237615   6.085   4.700   6.177  0.3045  0.1357 -0.1286
12565TIP3   OH237616   7.361   4.346   4.056 -0.3998  0.4557 -0.6402
12565TIP3    H137617   7.370   4.438   4.082 -1.2841  0.8359 -1.6204
12565TIP3    H237618   7.370   4.347   3.961 -3.0468 -0.1085 -0.9421
12566TIP3   OH237619   7.115   5.820   5.239 -0.4401  0.0349  0.0097
12566TIP3    H137620   7.094   5.737   5.196  0.0700 -0.4975  0.7781
12566TIP3    H237621   7.155   5.873   5.170  1.9113 -1.4139  0.2050
12567TIP3   OH237622   4.686   5.469   5.769 -0.6332 -0.7230  0.3063
12567TIP3    H137623   4.665   5.423   5.688  0.7026 -1.8343  0.5743
12567TIP3    H237624   4.774   5.439   5.792 -0.1936  1.0942  1.1104
12568TIP3   OH237625   7.127   5.990   3.562 -0.4530 -0.3422  0.4194
12568TIP3    H137626   7.219   5.976   3.541 -0.9681 -0.4900 -1.8629
12568TIP3    H237627   7.082   5.987   3.478 -2.4432  0.6071  1.3970
12569TIP3   OH237628   6.476   3.202   6.331  0.7815 -0.2364 -0.1691
12569TIP3    H137629   6.406   3.265   6.314  0.9203  0.2794  1.0927
12569TIP3    H237630   6.441   3.118   6.303 -0.2298  0.0607  0.2178
12570TIP3   OH237631   2.267   0.994   0.088  0.0313 -0.2799  0.4512
12570TIP3    H137632   2.215   0.975   0.165 -0.4091  1.3352  0.5621
12570TIP3    H237633   2.207   1.039   0.028  0.8330  0.0405 -0.1274
12571TIP3   OH237634   6.600   5.972   3.696  0.3517 -0.8212 -0.1129
12571TIP3    H137635   6.537   5.954   3.626 -2.5372  0.6935  1.9729
12571TIP3    H237636   6.624   5.885   3.729 -1.5140 -1.4191 -0.2375
12572TIP3   OH237637   7.846   6.649   4.912 -0.2694  0.3287  0.2003
12572TIP3    H137638   7.828   6.559   4.937  0.4600 -0.4061 -1.8241
12572TIP3    H237639   7.760   6.692   4.914 -0.5614 -0.3103  1.5134
12573TIP3   OH237640   6.520   3.505   4.228 -0.4657  0.7574 -0.0734
12573TIP3    H137641   6.468   3.584   4.242 -0.5886  0.6081  0.3090
12573TIP3    H237642   6.455   3.436   4.215 -0.3860  0.3905  1.3527
12574TIP3   OH237643   8.013   2.522   3.788 -0.4062 -0.3141  0.4297
12574TIP3    H137644   8.105   2.503   3.773 -0.3527 -0.9703  1.5132
12574TIP3    H237645   8.012   2.607   3.832 -0.4649  0.7904 -1.6532
12575TIP3   OH237646   5.619   4.454   5.447  0.1346  0.1593 -0.0762
12575TIP3    H137647   5.690   4.397   5.418 -0.1926  0.5017 -1.6261
12575TIP3    H237648   5.660   4.514   5.509  1.3860  0.8228 -1.4992
12576TIP3   OH237649   7.026   4.414   5.415  0.1330  0.3105 -0.2312
12576TIP3    H137650   6.945   4.376   5.382 -0.0029 -0.3122  0.7763
12576TIP3    H237651   7.070   4.448   5.338 -0.2636 -0.9294 -1.0268
12577TIP3   OH237652   6.559   5.908   4.609  0.3818 -0.1410 -0.6637
12577TIP3    H137653   6.580   5.957   4.688 -0.2596  2.0467 -1.8054
12577TIP3    H237654   6.608   5.826   4.618  2.5399  1.2332  0.6969
12578TIP3   OH237655   4.448   5.762   6.019 -0.2840 -0.0613  0.5405
12578TIP3    H137656   4.468   5.740   6.110 -1.4707  0.9080  1.0389
12578TIP3    H237657   4.460   5.856   6.013 -0.3996 -0.0862 -0.2657
12579TIP3   OH237658   8.001   5.497   5.214 -0.2034  0.3599  0.3992
12579TIP3    H137659   7.943   5.422   5.198  0.6764 -0.4096  0.7689
12579TIP3    H237660   7.956   5.571   5.174 -1.6581 -0.1469  1.0412
12580TIP3   OH237661   5.371   3.593   4.733 -1.1404 -0.5793 -0.3129
12580TIP3    H137662   5.392   3.566   4.644 -0.0632 -0.4130 -0.1180
12580TIP3    H237663   5.333   3.680   4.723 -1.7323 -0.8793 -0.6766
12581TIP3   OH237664   5.885   5.501   5.463 -0.1566 -0.6710 -0.1854
12581TIP3    H137665   5.870   5.564   5.392 -0.4733 -1.1890 -0.5842
12581TIP3    H237666   5.980   5.497   5.471 -0.1667  1.2234  1.0838
12582TIP3   OH237667   5.573   3.657   7.010  0.5515 -0.4068 -0.5471
12582TIP3    H137668   5.510   3.597   7.050  1.1640 -0.1668  0.7859
12582TIP3    H237669   5.522   3.703   6.943 -0.6093 -0.4823  0.2589
12583TIP3   OH237670   6.538   4.202   6.628  0.1162 -0.1386  0.4189
12583TIP3    H137671   6.558   4.294   6.616  1.6653 -0.6490 -1.1039
12583TIP3    H237672   6.608   4.169   6.684 -0.2428 -0.4634  0.6844
12584TIP3   OH237673   6.017   5.350   6.245 -0.4879  0.4913 -0.2361
12584TIP3    H137674   6.056   5.272   6.205  1.0535  0.6871  0.8375
12584TIP3    H237675   5.952   5.316   6.306  0.8066 -0.0042  0.8908
12585TIP3   OH237676   5.942   5.158   5.549  0.1887 -0.6182 -0.2628
12585TIP3    H137677   5.959   5.067   5.522 -0.5003 -0.4716 -1.2159
12585TIP3    H237678   5.921   5.203   5.467 -1.7443 -0.1030  0.4941
12586TIP3   OH237679   6.587   3.388   2.925 -0.1074  0.3076  0.0790
12586TIP3    H137680   6.509   3.355   2.881 -1.3851  1.0601  1.7113
12586TIP3    H237681   6.615   3.463   2.873  0.2765 -0.7265 -1.2165
12587TIP3   OH237682   2.326   0.818   1.804 -0.0808  0.1416 -0.6930
12587TIP3    H137683   2.281   0.901   1.792 -1.2469 -0.2935  0.6341
12587TIP3    H237684   2.257   0.752   1.808  0.8962 -1.1667 -3.6185
12588TIP3   OH237685   5.877   5.779   4.677  0.1339 -0.2475 -0.2418
12588TIP3    H137686   5.852   5.690   4.653  2.6805 -0.8059 -0.9980
12588TIP3    H237687   5.950   5.800   4.619  1.7071  1.1099  2.1210
12589TIP3   OH237688   5.729   2.255   4.908 -0.1530  0.1915  0.1485
12589TIP3    H137689   5.699   2.342   4.883 -1.9541 -0.3187  0.4334
12589TIP3    H237690   5.793   2.231   4.840 -0.4290  1.3059 -0.5113
12590TIP3   OH237691   5.642   3.282   6.634 -0.3293  0.2148  0.0188
12590TIP3    H137692   5.608   3.198   6.604  0.3056 -0.1570  0.3207
12590TIP3    H237693   5.590   3.303   6.712  1.2065 -1.1543  1.4495
12591TIP3   OH237694   7.309   6.124   3.860  0.6276  0.0447 -0.1424
12591TIP3    H137695   7.402   6.106   3.871  0.4770 -0.9485 -0.4615
12591TIP3    H237696   7.266   6.074   3.930  0.1697 -1.2357 -1.3250
12592TIP3   OH237697   6.038   3.286   5.274 -0.0545  0.0390 -0.2164
12592TIP3    H137698   6.001   3.200   5.252 -0.8996  0.0786  0.9599
12592TIP3    H237699   6.114   3.266   5.329  0.5632  0.0115 -1.0718
12593TIP3   OH237700   5.333   6.508   6.076  0.3803  0.4939 -0.0918
12593TIP3    H137701   5.268   6.539   6.139  1.1781 -0.8978  1.4701
12593TIP3    H237702   5.379   6.587   6.048 -0.2202  1.1808  0.8121
12594TIP3   OH237703   5.703   3.448   6.077 -0.0803 -0.0319 -0.2029
12594TIP3    H137704   5.752   3.516   6.032 -0.5030  0.6407  0.3383
12594TIP3    H237705   5.721   3.368   6.028  0.0810  0.5472 -1.0929
12595TIP3   OH237706   5.763   5.288   6.370 -0.0544  0.0912  0.0710
12595TIP3    H137707   5.750   5.382   6.382 -1.9572  0.4857 -4.1285
12595TIP3    H237708   5.685   5.248   6.408 -0.6117  0.4534 -0.6700
12596TIP3   OH237709   8.171   7.697   4.217  0.1239  0.2572  0.1495
12596TIP3    H137710   8.212   7.735   4.139 -1.2321 -0.5356 -0.9618
12596TIP3    H237711   8.232   7.629   4.246  0.3771  0.1871 -0.5450
12597TIP3   OH237712   7.231   5.264   6.924  0.0447 -0.8636 -0.3556
12597TIP3    H137713   7.261   5.227   7.007 -0.0525 -0.3096 -0.0756
12597TIP3    H237714   7.171   5.334   6.948  0.6923 -0.1189 -0.8795
12598TIP3   OH237715   7.030   6.246   4.897 -0.5574  0.0421 -0.4481
12598TIP3    H137716   7.034   6.234   4.802  0.6825 -2.5996 -0.0977
12598TIP3    H237717   7.088   6.320   4.914 -1.2166  0.8929 -1.7712
12599TIP3   OH237718   6.124   5.328   5.228 -0.2611  0.0614  0.1318
12599TIP3    H137719   6.132   5.392   5.157  0.2103  0.6841  0.7378
12599TIP3    H237720   6.036   5.292   5.218  0.5887 -1.4966 -2.1311
12600TIP3   OH237721   6.004   3.534   4.448  0.0975  0.0022 -0.3279
12600TIP3    H137722   6.008   3.628   4.463 -1.5208 -0.1151  1.0554
12600TIP3    H237723   6.018   3.524   4.354  0.9943  1.5534 -0.3802
12601TIP3   OH237724   6.965   4.996   5.781 -0.1296 -0.1541 -0.4085
12601TIP3    H137725   7.028   4.948   5.726  1.5943 -0.4555  1.7831
12601TIP3    H237726   6.964   4.948   5.863 -1.8180  0.9797  0.2483
12602TIP3   OH237727   6.282   3.564   5.403 -0.1902  0.3291  0.2704
12602TIP3    H137728   6.294   3.635   5.467 -0.9127  1.4362 -0.7968
12602TIP3    H237729   6.308   3.603   5.320  1.2169 -1.2547 -0.0506
12603TIP3   OH237730   7.247   2.604   6.293  0.0328  0.4200 -0.0219
12603TIP3    H137731   7.152   2.613   6.287 -0.1922 -0.8298  1.5906
12603TIP3    H237732   7.281   2.680   6.245 -1.7630  0.3488 -1.4301
12604TIP3   OH237733   8.492   4.489   6.721  0.8684  0.5464 -0.0782
12604TIP3    H137734   8.516   4.417   6.780  1.3834 -0.0257 -0.9719
12604TIP3    H237735   8.497   4.451   6.634  3.0502  2.1862 -0.6988
12605TIP3   OH237736   5.258   3.189   4.730  0.5054 -0.1509 -0.1821
12605TIP3    H137737   5.271   3.167   4.638 -1.8144 -2.9214  0.0813
12605TIP3    H237738   5.216   3.276   4.728  0.7801 -0.0370 -1.7016
12606TIP3   OH237739   6.006   4.891   5.519 -0.3730 -0.3897 -0.0816
12606TIP3    H137740   5.964   4.833   5.582 -0.2817 -0.3520  0.0151
12606TIP3    H237741   6.088   4.917   5.562  0.3392 -1.4359 -0.7706
12607TIP3   OH237742   6.653   4.267   3.857  0.0353  0.1770 -1.0347
12607TIP3    H137743   6.732   4.260   3.911 -1.4355  0.9795  1.2956
12607TIP3    H237744   6.682   4.317   3.780  1.3289  2.4530  0.8492
12608TIP3   OH237745   0.589   3.029   6.192  0.0097 -0.1171 -0.0501
12608TIP3    H137746   0.511   3.078   6.219  0.1341 -1.1406  2.2730
12608TIP3    H237747   0.555   2.945   6.161  0.2417 -1.3506  2.8259
12609TIP3   OH237748   8.584   8.340   4.148  0.8916  0.0221 -0.1912
12609TIP3    H137749   8.657   8.342   4.210  0.6519  0.5312  0.0751
12609TIP3    H237750   8.577   8.429   4.115  0.7507 -0.1558 -0.6436
12610TIP3   OH237751   5.129   4.917   6.027  0.8207  0.4164  0.3133
12610TIP3    H137752   5.146   4.831   5.989  0.2398  1.0906 -1.5869
12610TIP3    H237753   5.057   4.952   5.973  0.8971  1.9778  1.2102
12611TIP3   OH237754   4.436   4.307   4.744  0.4560 -0.0376  0.4568
12611TIP3    H137755   4.371   4.237   4.758  1.1715 -1.0350 -1.0197
12611TIP3    H237756   4.505   4.265   4.691  1.2138  1.6128  0.1095
12612TIP3   OH237757   6.447   6.334   6.079  0.7083 -0.2380  0.1704
12612TIP3    H137758   6.539   6.327   6.102  0.9302 -0.0152 -0.6583
12612TIP3    H237759   6.442   6.310   5.987 -0.0010  0.1426  0.0984
12613TIP3   OH237760   5.541   5.120   6.440  0.7573 -0.2814 -0.3708
12613TIP3    H137761   5.478   5.049   6.456  0.9867 -0.6482 -1.0826
12613TIP3    H237762   5.493   5.184   6.388  0.5154  0.1500  0.3684
12614TIP3   OH237763   7.773   4.412   6.305  0.1091  0.4749  0.1644
12614TIP3    H137764   7.824   4.474   6.358  1.3397 -1.1046  0.8895
12614TIP3    H237765   7.693   4.459   6.283  0.9786  2.2889  0.7578
12615TIP3   OH237766   6.941   2.243   5.621 -0.0354 -0.2572 -0.2411
12615TIP3    H137767   6.953   2.172   5.558 -0.7306  0.2091 -0.9163
12615TIP3    H237768   6.998   2.313   5.590  0.7537 -0.5646  0.5007
12616TIP3   OH237769   8.237   5.982   5.137  0.1970 -0.2221  0.0684
12616TIP3    H137770   8.178   5.945   5.202  0.4111 -1.6027 -0.5029
12616TIP3    H237771   8.324   5.953   5.165  0.5383  1.2776  0.5614
12617TIP3   OH237772   6.263   2.219   5.958 -0.3785  0.5384  0.4195
12617TIP3    H137773   6.312   2.233   6.040  1.8566 -0.8797 -0.6372
12617TIP3    H237774   6.191   2.162   5.983 -0.0673  0.6118  1.5299
12618TIP3   OH237775   0.619   3.665   5.294 -0.2565 -0.2334  0.4391
12618TIP3    H137776   0.706   3.665   5.255  0.0516  1.4099  1.0948
12618TIP3    H237777   0.606   3.575   5.325  1.7989 -0.1500  1.6401
12619TIP3   OH237778   7.258   3.267   5.323  0.2365  0.2749  0.0132
12619TIP3    H137779   7.170   3.300   5.343  0.3475  0.9942 -0.6795
12619TIP3    H237780   7.295   3.331   5.263  1.2525 -0.0136  0.3180
12620TIP3   OH237781   2.423   0.228   0.556 -0.0170 -0.0298  0.6059
12620TIP3    H137782   2.512   0.246   0.522  0.1451 -1.1174  0.4470
12620TIP3    H237783   2.434   0.224   0.651  0.5394 -2.4643  0.4638
12621TIP3   OH237784   6.189   2.193   3.866 -0.3125 -0.0259  0.6318
12621TIP3    H137785   6.216   2.101   3.873 -0.7484 -0.1869  0.2455
12621TIP3    H237786   6.196   2.227   3.955  0.3561 -0.2905  0.6814
12622TIP3   OH237787   5.358   5.923   5.790 -0.0239 -0.3748 -0.0321
12622TIP3    H137788   5.402   5.967   5.863  1.6663 -1.2993 -0.4844
12622TIP3    H237789   5.376   5.978   5.714 -0.8226 -0.0239  0.0274
12623TIP3   OH237790   6.417   3.702   4.010  0.1280  0.1681 -0.1994
12623TIP3    H137791   6.486   3.745   4.059 -0.2171  2.4533 -1.6636
12623TIP3    H237792   6.342   3.761   4.016 -0.4721 -0.3774 -1.9416
12624TIP3   OH237793   6.194   3.294   2.171  0.6566  0.4800  0.1151
12624TIP3    H137794   6.158   3.249   2.248  0.3948  1.6858  0.7097
12624TIP3    H237795   6.119   3.310   2.115  0.7193  0.3469 -0.0068
12625TIP3   OH237796   6.385   4.262   6.232  0.4738 -0.5514 -0.1785
12625TIP3    H137797   6.409   4.333   6.291 -1.8440 -0.0844  0.2361
12625TIP3    H237798   6.336   4.303   6.162  0.3491 -1.5575 -0.6981
12626TIP3   OH237799   6.110   4.091   5.337  0.6752 -0.0487  0.6968
12626TIP3    H137800   6.052   4.066   5.266  0.4726  0.3719  0.7104
12626TIP3    H237801   6.077   4.044   5.414 -0.8552  1.7033  1.1399
12627TIP3   OH237802   6.032   7.330   5.383  0.5073 -0.3255  0.0544
12627TIP3    H137803   5.969   7.378   5.436  0.1807  0.0820 -0.7026
12627TIP3    H237804   6.113   7.381   5.390 -0.3808  1.5177 -2.4343
12628TIP3   OH237805   6.727   5.345   5.188 -0.2886 -0.1586  0.7459
12628TIP3    H137806   6.796   5.408   5.207  2.1150 -2.1811 -0.9072
12628TIP3    H237807   6.715   5.296   5.269  1.0292 -0.4858  0.7591
12629TIP3   OH237808   8.302   4.764   4.583 -0.0263  0.3579  0.0840
12629TIP3    H137809   8.217   4.772   4.626  0.9676 -1.3436  2.5055
12629TIP3    H237810   8.346   4.847   4.600  0.1539 -0.1009  1.9728
12630TIP3   OH237811   6.261   3.835   5.099 -0.1907 -0.1873  0.5359
12630TIP3    H137812   6.218   3.900   5.154  0.1268  0.5435 -0.0817
12630TIP3    H237813   6.193   3.803   5.040 -0.0582  0.4606  0.0303
12631TIP3   OH237814   6.834   5.168   6.045 -0.3333  0.2741  0.0552
12631TIP3    H137815   6.747   5.129   6.060 -0.2322  0.1178  0.2329
12631TIP3    H237816   6.880   5.102   5.993 -0.1848  0.1869  0.2970
12632TIP3   OH237817   7.172   4.023   6.564  0.0913  0.2904 -0.2107
12632TIP3    H137818   7.257   3.984   6.587 -0.9609 -2.2491 -0.4640
12632TIP3    H237819   7.182   4.050   6.473 -0.2050 -2.5733 -1.1577
12633TIP3   OH237820   5.568   5.694   6.057 -0.6340  0.1745  0.4351
12633TIP3    H137821   5.528   5.747   6.126  0.0663  0.7670  0.3909
12633TIP3    H237822   5.496   5.676   5.996 -0.2469  3.9116 -1.3155
12634TIP3   OH237823   6.768   6.809   4.604 -0.2367  0.6027 -0.4138
12634TIP3    H137824   6.713   6.855   4.667  1.4693  2.6964 -0.3795
12634TIP3    H237825   6.707   6.778   4.536 -1.9211 -0.6477  1.6155
12635TIP3   OH237826   6.494   5.301   4.807 -0.2759 -0.2542  0.3955
12635TIP3    H137827   6.573   5.260   4.771 -0.0661  0.9833 -0.5978
12635TIP3    H237828   6.467   5.364   4.740 -1.5474  0.0325  1.1587
12636TIP3   OH237829   8.802   6.411   5.217  0.3174  0.4578  0.2003
12636TIP3    H137830   8.736   6.386   5.281  0.3398 -0.2568 -0.0455
12636TIP3    H237831   8.865   6.339   5.219  0.2575  0.3724 -0.7073
12637TIP3   OH237832   7.765   5.641   3.743  0.0145  0.1922  0.3199
12637TIP3    H137833   7.720   5.603   3.668  0.4480  3.1037 -1.4893
12637TIP3    H237834   7.837   5.581   3.761 -1.8058 -2.0698  0.3157
12638TIP3   OH237835   4.746   4.828   6.232  0.3453  0.6132 -0.1633
12638TIP3    H137836   4.749   4.919   6.202 -0.9705  1.0384  0.9686
12638TIP3    H237837   4.766   4.832   6.325  0.6684 -0.3127 -0.1833
12639TIP3   OH237838   6.164   6.682   6.363  0.0903 -0.4560 -0.0733
12639TIP3    H137839   6.171   6.775   6.341  1.7139  0.0708  2.4208
12639TIP3    H237840   6.213   6.638   6.294 -0.7015  0.5220 -1.2896
12640TIP3   OH237841   8.202   4.522   3.814 -0.1735 -0.5504  0.1990
12640TIP3    H137842   8.148   4.447   3.791  0.2274 -1.1219  1.0632
12640TIP3    H237843   8.210   4.517   3.910 -2.8171  2.4303  0.6400
12641TIP3   OH237844   7.141   4.529   2.787 -0.2738 -0.0920  0.2573
12641TIP3    H137845   7.082   4.591   2.830  0.0551  0.0923  0.4449
12641TIP3    H237846   7.219   4.527   2.843  0.5881  0.9564 -0.8649
12642TIP3   OH237847   3.550   8.132   4.114  0.2436  0.3191 -0.5842
12642TIP3    H137848   3.540   8.038   4.127 -0.7426  0.7219  1.8196
12642TIP3    H237849   3.628   8.155   4.165 -0.4267  1.0342  0.1461
12643TIP3   OH237850   7.651   3.903   5.641  0.5902 -0.2395 -0.6773
12643TIP3    H137851   7.731   3.854   5.618 -0.9771 -3.1267 -0.2078
12643TIP3    H237852   7.620   3.937   5.557 -0.0403 -2.8383 -1.5493
12644TIP3   OH237853   6.047   3.795   6.654 -0.1315  0.3308  1.2502
12644TIP3    H137854   6.056   3.706   6.685  2.8918  0.5748  1.2568
12644TIP3    H237855   6.049   3.787   6.558 -1.0699  0.2953  1.2312
12645TIP3   OH237856   4.746   0.163   0.342 -0.3532  0.8406 -0.3144
12645TIP3    H137857   4.725   0.070   0.331 -1.8466  1.1427 -0.1619
12645TIP3    H237858   4.837   0.170   0.314 -0.0048 -0.7904  0.3133
12646TIP3   OH237859   8.381   4.049   3.126 -0.3539 -0.1522 -0.4485
12646TIP3    H137860   8.346   3.960   3.118 -0.5625  0.1723 -3.9239
12646TIP3    H237861   8.475   4.040   3.113 -0.2257  0.0022  0.3486
12647TIP3   OH237862   5.425   3.841   5.979 -0.4880  0.4351  0.3450
12647TIP3    H137863   5.459   3.806   5.896 -0.3835  1.9765 -0.2823
12647TIP3    H237864   5.330   3.827   5.974 -0.3153 -1.0005  0.7193
12648TIP3   OH237865   6.096   3.550   7.006 -0.5766 -0.0122 -0.1179
12648TIP3    H137866   6.180   3.511   7.032 -0.1905  0.8027 -0.1308
12648TIP3    H237867   6.083   3.521   6.916 -0.0337  0.3057 -0.3034
12649TIP3   OH237868   7.509   2.314   6.163 -0.1701  0.4793  0.6730
12649TIP3    H137869   7.553   2.394   6.195  0.4673  0.8386 -1.0401
12649TIP3    H237870   7.441   2.347   6.104  1.0968 -0.2753 -1.2464
12650TIP3   OH237871   4.679   2.850   2.874 -0.2058  0.4641  0.1227
12650TIP3    H137872   4.758   2.813   2.915 -1.4586 -1.7350  0.6606
12650TIP3    H237873   4.668   2.798   2.794 -1.2279  0.6428  0.1495
12651TIP3   OH237874   5.908   2.267   6.990 -0.1360 -0.7949  0.1242
12651TIP3    H137875   5.924   2.237   7.079 -1.0119  0.5202  0.7355
12651TIP3    H237876   5.849   2.202   6.953 -0.8517 -0.6127  0.9492
12652TIP3   OH237877   5.866   7.411   4.903 -0.1878  0.2185  0.6084
12652TIP3    H137878   5.863   7.345   4.835  1.3525 -0.0658  0.7988
12652TIP3    H237879   5.883   7.493   4.857 -2.2407  0.5451  0.3564
12653TIP3   OH237880   7.327   2.319   5.134  0.2731 -0.5246 -0.5171
12653TIP3    H137881   7.294   2.270   5.058  0.1920 -1.2962  0.0067
12653TIP3    H237882   7.381   2.389   5.096  1.2088 -1.6253 -1.2483
12654TIP3   OH237883   6.224   6.470   5.724 -0.3945 -0.4048  0.3277
12654TIP3    H137884   6.140   6.434   5.751 -0.0757 -0.2436  1.5605
12654TIP3    H237885   6.251   6.525   5.797  0.2438  0.4542 -0.5407
12655TIP3   OH237886   6.648   4.624   6.060 -0.2007  0.0113 -0.0799
12655TIP3    H137887   6.724   4.593   6.109 -0.0891  1.1768  0.5020
12655TIP3    H237888   6.596   4.672   6.124 -2.8606 -3.0516  0.2114
12656TIP3   OH237889   0.438   1.673   4.497  0.2511  0.1449  0.2107
12656TIP3    H137890   0.422   1.585   4.531  0.3972  0.9574  2.4607
12656TIP3    H237891   0.440   1.729   4.574  1.6612  1.9166 -1.0573
12657TIP3   OH237892   6.260   6.327   4.896 -0.1092  1.0065  0.0802
12657TIP3    H137893   6.290   6.338   4.986  2.4220 -0.9271 -0.4621
12657TIP3    H237894   6.317   6.382   4.844  0.3054 -0.0608 -0.6227
12658TIP3   OH237895   6.684   4.047   5.844 -0.3650 -0.8509 -0.8860
12658TIP3    H137896   6.779   4.034   5.852 -0.1702  0.2571 -1.3365
12658TIP3    H237897   6.663   4.108   5.914 -0.8867 -1.7101 -0.2838
12659TIP3   OH237898   4.970   5.548   7.048  0.2887  0.5062  0.1422
12659TIP3    H137899   5.011   5.579   6.968  0.8816 -0.2056  0.1696
12659TIP3    H237900   4.878   5.574   7.039  0.3537  0.4426 -0.7576
12660TIP3   OH237901   5.393   5.254   6.650 -0.3512 -0.2148  0.3282
12660TIP3    H137902   5.389   5.159   6.636 -0.2551 -0.1303 -0.2822
12660TIP3    H237903   5.304   5.285   6.632  0.1862  0.1211 -1.8145
12661TIP3   OH237904   5.832   6.053   4.614 -0.0800  0.4921 -0.4841
12661TIP3    H137905   5.840   5.960   4.638  1.4300  0.6150 -0.4817
12661TIP3    H237906   5.794   6.052   4.527  0.3600 -0.1528 -0.6742
12662TIP3   OH237907   5.837   6.592   4.886 -0.1751 -0.1930  0.6986
12662TIP3    H137908   5.815   6.539   4.963 -1.0105 -0.2700  0.4059
12662TIP3    H237909   5.757   6.640   4.866 -0.3568 -1.1064 -0.8852
12663TIP3   OH237910   6.885   6.248   5.156 -0.0649  0.0688 -0.0982
12663TIP3    H137911   6.811   6.189   5.170 -0.7591  0.5814 -1.4471
12663TIP3    H237912   6.884   6.265   5.062 -0.6230  3.1282  0.4037
12664TIP3   OH237913   5.741   4.144   6.090  0.4122 -0.1603  0.1699
12664TIP3    H137914   5.806   4.184   6.147  0.6950  0.3515 -0.4934
12664TIP3    H237915   5.659   4.189   6.110  1.4350  3.5288 -3.2143
12665TIP3   OH237916   5.773   6.234   4.329 -0.4090  0.0838  0.5936
12665TIP3    H137917   5.688   6.203   4.297 -0.5713  1.2403 -0.1399
12665TIP3    H237918   5.827   6.156   4.333 -1.5469 -0.6892  1.1762
12666TIP3   OH237919   4.219   7.183   6.851  0.2968 -0.1151 -0.3882
12666TIP3    H137920   4.309   7.156   6.832  0.8964  1.4261  0.1480
12666TIP3    H237921   4.209   7.166   6.945  0.3932  0.7122 -0.2267
12667TIP3   OH237922   6.902   4.239   3.965 -0.0497  0.2332  0.6088
12667TIP3    H137923   6.931   4.330   3.969 -1.2156  0.5889  1.2757
12667TIP3    H237924   6.965   4.191   4.019  1.2023  0.4546 -0.6237
12668TIP3   OH237925   7.921   3.864   5.144  0.2277  0.3585  0.0350
12668TIP3    H137926   7.867   3.890   5.069  0.9266  0.2605 -0.5075
12668TIP3    H237927   7.911   3.936   5.207 -0.5584  0.3267 -0.0471
12669TIP3   OH237928   7.266   5.028   5.090  0.0209 -0.1148 -0.0947
12669TIP3    H137929   7.189   5.069   5.050 -1.1178 -0.9989  1.1605
12669TIP3    H237930   7.314   4.991   5.016 -0.1642  1.4313 -0.9994
12670TIP3   OH237931   7.431   4.033   5.790 -0.1629  0.1033 -0.2549
12670TIP3    H137932   7.479   4.109   5.822  1.3761 -1.3104  0.8904
12670TIP3    H237933   7.492   3.991   5.729 -0.1029 -1.4861  0.8942
12671TIP3   OH237934   4.220   4.471   5.793 -0.2008  0.8238 -0.2763
12671TIP3    H137935   4.311   4.461   5.821 -0.2326  0.2155 -0.3877
12671TIP3    H237936   4.177   4.391   5.823 -0.7014  1.1115 -0.2220
12672TIP3   OH237937   7.585   3.204   2.821  0.1364 -0.7426 -0.2280
12672TIP3    H137938   7.624   3.154   2.892  2.2109  0.6344 -0.3466
12672TIP3    H237939   7.521   3.261   2.864 -0.2365 -1.5088  0.2420
12673TIP3   OH237940   8.157   4.395   5.867  0.5461 -0.2881 -0.1037
12673TIP3    H137941   8.076   4.345   5.882  1.4694 -1.7488  0.1233
12673TIP3    H237942   8.173   4.439   5.950  1.6204 -2.4408  0.8696
12674TIP3   OH237943   6.929   3.865   4.253 -0.2634 -0.5503 -0.3242
12674TIP3    H137944   6.856   3.927   4.245  0.2825  0.0768 -0.5443
12674TIP3    H237945   6.924   3.833   4.343  0.1169  0.6702  0.1380
12675TIP3   OH237946   5.551   6.063   4.323 -0.5208  0.1004  0.3301
12675TIP3    H137947   5.564   5.969   4.334 -0.2162  0.2672  1.4730
12675TIP3    H237948   5.514   6.092   4.407  0.7640  1.2348  0.5290
12676TIP3   OH237949   6.945   1.320   6.035  0.0658  0.6578 -0.0123
12676TIP3    H137950   6.887   1.377   5.984  0.5554  2.3278  1.2602
12676TIP3    H237951   6.947   1.360   6.122 -1.3184 -2.5557  1.5522
12677TIP3   OH237952   7.199   4.770   3.206 -0.6850 -0.3991 -0.1381
12677TIP3    H137953   7.295   4.768   3.214 -0.7302 -0.0865  0.5677
12677TIP3    H237954   7.177   4.688   3.162 -0.1162 -0.6468  0.0245
12678TIP3   OH237955   6.186   4.128   5.915 -0.2617  0.0599 -0.2202
12678TIP3    H137956   6.259   4.104   5.857  1.2292  1.4835  1.0186
12678TIP3    H237957   6.214   4.099   6.002 -1.1336  0.7202  0.2914
12679TIP3   OH237958   8.095   5.749   5.995 -0.0797  0.4133  0.1744
12679TIP3    H137959   8.014   5.740   6.046 -0.0173  1.0719  0.3995
12679TIP3    H237960   8.142   5.667   6.008  0.3708  0.9384  1.9247
12680TIP3   OH237961   4.734   2.072   5.792 -0.6617  0.0630 -0.5460
12680TIP3    H137962   4.651   2.117   5.803  0.7845  2.1831  2.3063
12680TIP3    H237963   4.738   2.010   5.865 -0.3545 -1.0935 -1.5128
12681TIP3   OH237964   5.787   1.898   5.526  0.2132  0.3990  0.5966
12681TIP3    H137965   5.763   1.905   5.434  2.4571  1.4236  0.0685
12681TIP3    H237966   5.797   1.804   5.541 -2.0516  0.0711  0.3384
12682TIP3   OH237967   5.852   5.290   3.791  0.3302  0.7108 -0.0160
12682TIP3    H137968   5.795   5.226   3.834  1.3561  0.2035  0.6092
12682TIP3    H237969   5.850   5.266   3.699 -0.5113  0.7276 -0.0040
12683TIP3   OH237970   6.190   4.668   5.540  0.4149 -1.1636  0.0291
12683TIP3    H137971   6.234   4.738   5.589 -0.7466 -0.2025 -0.2920
12683TIP3    H237972   6.104   4.659   5.581 -0.7509 -0.0400 -2.0884
12684TIP3   OH237973   1.306   5.133   4.370 -0.6123 -0.1514  0.3760
12684TIP3    H137974   1.217   5.146   4.404 -1.0597 -2.0830 -0.0015
12684TIP3    H237975   1.302   5.169   4.281 -0.8863  0.1407  0.4999
12685TIP3   OH237976   0.959   5.601   4.391  0.2370  0.4477 -0.0846
12685TIP3    H137977   0.917   5.514   4.393 -0.7980  0.8766 -1.9010
12685TIP3    H237978   0.886   5.663   4.395  0.7230  1.2133 -2.2836
12686TIP3   OH237979   0.303   7.333   4.391 -0.0032  1.1898 -0.7222
12686TIP3    H137980   0.363   7.382   4.447 -1.1104  1.3190  0.3532
12686TIP3    H237981   0.241   7.292   4.452  0.9284 -1.6045 -1.5625
12687TIP3   OH237982   7.588   6.288   5.672  0.1870 -0.0016  0.0199
12687TIP3    H137983   7.600   6.258   5.762 -0.1260 -1.3650 -0.3839
12687TIP3    H237984   7.515   6.350   5.677  0.0758 -0.1868  0.6882
12688TIP3   OH237985   7.630   3.104   3.332 -0.0355  0.3979 -0.0182
12688TIP3    H137986   7.556   3.087   3.390 -0.6410  0.1348 -0.8596
12688TIP3    H237987   7.648   3.197   3.342  0.4465  0.1723  1.2727
12689TIP3   OH237988   8.063   3.782   3.903  0.2301  0.0057  0.5133
12689TIP3    H137989   8.097   3.694   3.918  0.6760  0.3380  1.5426
12689TIP3    H237990   7.970   3.769   3.882  0.0350 -0.6395  1.7159
12690TIP3   OH237991   7.713   3.909   4.970  0.0228 -0.4829 -0.2077
12690TIP3    H137992   7.715   3.843   4.900 -0.8322 -0.3776 -0.3365
12690TIP3    H237993   7.702   3.992   4.924  2.5687 -0.0882 -0.1383
12691TIP3   OH237994   8.614   6.062   5.191  0.0046  0.2941 -0.0130
12691TIP3    H137995   8.540   6.116   5.219 -1.1858 -0.7160 -1.1501
12691TIP3    H237996   8.681   6.078   5.257 -0.1350  3.5518 -0.5959
12692TIP3   OH237997   7.893   4.898   6.549  0.0491 -0.5172 -0.0889
12692TIP3    H137998   7.850   4.984   6.553  1.3002  0.2249 -1.7191
12692TIP3    H237999   7.853   4.855   6.474  2.3190  0.3519 -1.9038
12693TIP3   OH238000   0.724   3.490   6.331 -0.8631  0.0293  0.0900
12693TIP3    H138001   0.670   3.434   6.387 -0.2516 -0.4542  0.1893
12693TIP3    H238002   0.660   3.549   6.289 -1.4295 -0.2762  0.5078
12694TIP3   OH238003   8.048   4.995   5.564 -0.9499  0.3241  0.0400
12694TIP3    H138004   8.017   5.053   5.633  0.0748 -0.4354  1.1416
12694TIP3    H238005   8.012   4.909   5.587 -1.1633  0.1942 -0.7448
12695TIP3   OH238006   6.435   5.875   3.035  0.5318  0.2408 -0.2725
12695TIP3    H138007   6.475   5.788   3.044  0.0312  0.0299 -0.0723
12695TIP3    H238008   6.414   5.882   2.942  0.2784  0.0186 -0.2318
12696TIP3   OH238009   0.349   5.405   4.628  0.5690  0.1566 -0.0789
12696TIP3    H138010   0.268   5.455   4.615  1.4426  2.1246  1.8184
12696TIP3    H238011   0.320   5.314   4.624 -1.6622  0.8084  0.0599
12697TIP3   OH238012   0.645   7.349   4.263 -0.3844  0.6539  0.3717
12697TIP3    H138013   0.677   7.258   4.260  0.6832  1.0708 -2.1214
12697TIP3    H238014   0.696   7.390   4.333  0.0624 -0.3422  0.6363
12698TIP3   OH238015   6.876   3.767   4.516 -0.3660 -0.4512  0.6061
12698TIP3    H138016   6.816   3.841   4.524 -2.2219 -2.0727  2.0508
12698TIP3    H238017   6.866   3.719   4.598  0.4743 -2.5597 -0.4843
12699TIP3   OH238018   2.572   5.593   5.832  0.2407  0.1587 -0.0350
12699TIP3    H138019   2.605   5.644   5.758  0.7086 -1.4374 -0.9338
12699TIP3    H238020   2.521   5.523   5.793 -0.6778  0.1111  1.2133
12700TIP3   OH238021   8.264   4.570   5.605  0.5896 -0.0863 -0.2205
12700TIP3    H138022   8.194   4.633   5.622  0.3620 -0.3746 -0.1019
12700TIP3    H238023   8.232   4.488   5.641  0.9003 -0.2656 -0.3550
12701TIP3   OH238024   4.385   1.611   0.055 -0.0613  0.0033  0.2267
12701TIP3    H138025   4.373   1.546  -0.015 -1.1538 -0.2112  0.6035
12701TIP3    H238026   4.480   1.624   0.060  0.2846 -2.6096  1.1111
12702TIP3   OH238027   7.998   6.611   4.344  0.3460  0.4302  0.8374
12702TIP3    H138028   8.033   6.562   4.269 -0.4202  0.9499  0.1365
12702TIP3    H238029   8.029   6.562   4.421  1.3095  0.0047  0.1930
12703TIP3   OH238030   7.714   6.049   5.140 -0.0680 -0.4284  0.2587
12703TIP3    H138031   7.756   6.092   5.215 -1.1282  1.0238  0.0376
12703TIP3    H238032   7.752   5.961   5.138  0.1035 -0.4173  2.3927
12704TIP3   OH238033   5.621   4.102   6.990  0.0561  0.0063  0.4993
12704TIP3    H138034   5.598   4.075   6.901 -0.2537  0.0662  0.5600
12704TIP3    H238035   5.540   4.139   7.025  0.2721  0.2956  0.6887
12705TIP3   OH238036   7.075   1.920   4.293  0.1792  0.3069 -0.2460
12705TIP3    H138037   7.050   1.900   4.383 -1.2865 -1.1092 -0.9416
12705TIP3    H238038   6.999   1.894   4.240  0.7212  1.8172 -1.8205
12706TIP3   OH238039   6.482   5.104   3.515 -0.5438 -0.6639 -0.6911
12706TIP3    H138040   6.402   5.059   3.545 -1.0456  0.4206 -0.3950
12706TIP3    H238041   6.460   5.197   3.519  0.9448 -0.3359 -0.0688
12707TIP3   OH238042   1.174   7.917   5.548  1.1751  0.0284 -0.4832
12707TIP3    H138043   1.233   7.919   5.472  2.3092 -0.3607  0.3642
12707TIP3    H238044   1.169   8.008   5.577  1.9211 -0.0249 -0.1568
12708TIP3   OH238045   0.779   7.726   5.102  0.2877 -0.2981 -0.0918
12708TIP3    H138046   0.750   7.662   5.037 -2.3710 -1.3922  2.0590
12708TIP3    H238047   0.812   7.799   5.050 -1.1336 -1.4125 -2.6702
12709TIP3   OH238048   7.844   5.302   5.038 -0.6023 -0.3736 -0.3592
12709TIP3    H138049   7.757   5.332   5.063  0.2757  0.3921  1.8486
12709TIP3    H238050   7.852   5.215   5.077 -0.0226 -0.0526  0.2429
12710TIP3   OH238051   8.648   4.359   4.851  0.2052  0.2165 -0.1587
12710TIP3    H138052   8.716   4.334   4.914  0.1016 -1.1825 -0.5635
12710TIP3    H238053   8.616   4.275   4.817 -0.3571  0.9285 -1.4126
12711TIP3   OH238054   1.563   6.830   5.661 -0.4253 -0.3900  0.1906
12711TIP3    H138055   1.542   6.901   5.601  1.2793  0.8935  1.0528
12711TIP3    H238056   1.613   6.768   5.609  0.1153  0.2033 -0.0087
12712TIP3   OH238057   8.337   5.971   6.748 -0.5902  0.3593  0.0137
12712TIP3    H138058   8.381   5.981   6.663 -0.5151 -0.8430 -0.1038
12712TIP3    H238059   8.255   5.926   6.727 -0.0967 -0.8776  0.6997
12713TIP3   OH238060   8.756   6.852   4.676 -0.2363  0.0153  0.0181
12713TIP3    H138061   8.718   6.832   4.762  1.3553  1.1172  1.0284
12713TIP3    H238062   8.732   6.943   4.660  1.2067  0.4468  0.2614
12714TIP3   OH238063   7.126   2.903   4.887  0.0681 -0.2063 -0.4387
12714TIP3    H138064   7.115   2.878   4.795  0.8917 -1.2785 -0.2481
12714TIP3    H238065   7.102   2.995   4.889 -0.1691 -0.2268 -1.6910
12715TIP3   OH238066   7.021   6.145   4.632  0.8709 -0.2600 -0.1447
12715TIP3    H138067   7.021   6.141   4.536  0.6986  0.4358 -0.1774
12715TIP3    H238068   6.961   6.075   4.659  1.6659 -1.1025 -0.5046
12716TIP3   OH238069   4.019   0.618   0.105 -0.4934  0.2593  0.3154
12716TIP3    H138070   3.929   0.652   0.107 -0.6053 -0.0714  1.0627
12716TIP3    H238071   4.070   0.688   0.064 -1.3473 -0.1786 -1.5673
12717TIP3   OH238072   8.054   6.425   4.592 -0.4549  0.2880  0.2049
12717TIP3    H138073   8.109   6.365   4.541 -1.3029 -2.0770  1.9927
12717TIP3    H238074   7.967   6.384   4.592 -1.9645  3.2684 -1.4131
12718TIP3   OH238075   8.306   6.142   4.546  0.4325  0.6294  0.6591
12718TIP3    H138076   8.233   6.106   4.596  0.8479 -0.8550  0.2279
12718TIP3    H238077   8.265   6.204   4.485 -0.9418 -2.6069 -1.8953
12719TIP3   OH238078   6.730   6.844   4.222  1.0907  0.5576 -0.1934
12719TIP3    H138079   6.819   6.877   4.230  1.8218 -1.0446 -1.3942
12719TIP3    H238080   6.728   6.799   4.137 -0.2210 -1.3459  0.7818
12720TIP3   OH238081   6.570   6.845   6.665 -0.2816 -0.0112 -0.2248
12720TIP3    H138082   6.580   6.839   6.570 -1.5877 -0.8347 -0.3205
12720TIP3    H238083   6.478   6.821   6.681  0.0802 -0.4306  1.2850
12721TIP3   OH238084   5.589   4.881   4.825 -0.0936 -0.2108  0.0182
12721TIP3    H138085   5.520   4.906   4.764 -0.0865 -1.0246 -0.3170
12721TIP3    H238086   5.652   4.954   4.820  0.0229 -0.3807 -1.1100
12722TIP3   OH238087   1.885  -0.030   4.598  0.4185  0.3938 -0.3174
12722TIP3    H138088   1.863   0.057   4.566  0.3502  0.8505  0.9438
12722TIP3    H238089   1.873  -0.025   4.693 -1.3378 -1.5179 -0.4123
12723TIP3   OH238090   8.267   5.986   3.777 -0.2554  0.2021 -0.2720
12723TIP3    H138091   8.220   6.038   3.712  0.5178 -0.3784 -1.3210
12723TIP3    H238092   8.206   5.977   3.850 -1.5980 -0.1427 -1.4106
12724TIP3   OH238093   7.905   6.718   4.015 -0.0387  0.1588 -0.0220
12724TIP3    H138094   7.950   6.735   3.932 -0.7352  0.7382 -0.2929
12724TIP3    H238095   7.946   6.778   4.077  1.4507 -1.2696  0.4000
12725TIP3   OH238096   8.541   5.281   4.349 -0.3253  0.7789 -0.2443
12725TIP3    H138097   8.471   5.300   4.412  1.3452  2.7290  1.1113
12725TIP3    H238098   8.604   5.228   4.398  0.3315  1.1487 -0.6858
12726TIP3   OH238099   5.692   6.474   5.121 -0.5462  0.0233  0.1621
12726TIP3    H138100   5.741   6.404   5.165 -0.8246  0.8521  1.8517
12726TIP3    H238101   5.735   6.555   5.148 -2.0914  0.6913  0.7182
12727TIP3   OH238102   7.985   2.805   3.684 -0.2172  0.4712  0.2075
12727TIP3    H138103   8.023   2.829   3.768  1.3227 -0.2037 -0.2807
12727TIP3    H238104   8.044   2.738   3.650 -0.1681  1.5914 -1.9544
12728TIP3   OH238105   7.974   5.966   3.874  0.0580 -0.0136  0.0444
12728TIP3    H138106   7.967   5.884   3.922 -0.7885  0.0740  0.0753
12728TIP3    H238107   7.893   5.970   3.822  1.1618 -0.3492 -1.7501
12729TIP3   OH238108   8.531   5.392   4.858  0.0122 -0.1969  0.2726
12729TIP3    H138109   8.589   5.406   4.932  0.5868  0.4349 -0.2953
12729TIP3    H238110   8.524   5.477   4.815 -2.0374 -0.0474  0.8362
12730TIP3   OH238111   7.542   4.853   5.632 -0.1045  0.0288 -0.1375
12730TIP3    H138112   7.466   4.815   5.587  0.1635  1.1627 -1.5636
12730TIP3    H238113   7.558   4.793   5.705 -2.0822 -0.4890 -0.0826
12731TIP3   OH238114   6.666   6.056   5.206 -0.0810 -0.0930 -0.0722
12731TIP3    H138115   6.582   6.010   5.207  1.3722 -2.8190  2.1778
12731TIP3    H238116   6.723   6.002   5.151  0.5270  1.2244 -0.7827
12732TIP3   OH238117   1.501   5.378   4.909 -0.2823  0.0817  0.6907
12732TIP3    H138118   1.448   5.455   4.889  1.1749  0.7523 -0.6715
12732TIP3    H238119   1.556   5.365   4.831  0.1105 -1.8117  1.2531
12733TIP3   OH238120   7.837   6.288   5.558 -0.1756 -0.2477  0.4017
12733TIP3    H138121   7.895   6.292   5.633 -2.4238  0.8108  2.1411
12733TIP3    H238122   7.749   6.304   5.594 -1.3089  0.2385 -2.4184
12734TIP3   OH238123   8.175   7.076   3.390 -0.7567  0.8414  0.6833
12734TIP3    H138124   8.184   7.089   3.295  1.2610  1.6934  0.9636
12734TIP3    H238125   8.130   7.155   3.421  1.3599  2.0382  0.8282
12735TIP3   OH238126   6.469   6.853   3.322 -0.6452 -0.0116  0.6444
12735TIP3    H138127   6.509   6.888   3.402 -0.2279  1.0379 -0.0020
12735TIP3    H238128   6.541   6.852   3.259 -1.1093 -0.2970  0.1244
12736TIP3   OH238129   6.712   6.395   4.410  0.4170 -0.3394 -0.0765
12736TIP3    H138130   6.798   6.403   4.451 -0.1028  1.9022  0.6381
12736TIP3    H238131   6.660   6.466   4.447 -0.9827 -0.0680 -2.4000
12737TIP3   OH238132   2.202   5.435   5.134 -0.0016  0.1687 -0.4307
12737TIP3    H138133   2.262   5.362   5.122 -1.6962 -1.4543  0.6028
12737TIP3    H238134   2.162   5.419   5.220 -3.6134 -0.1300 -2.0602
12738TIP3   OH238135   7.577   3.719   6.669 -0.2680  0.1362  0.1536
12738TIP3    H138136   7.574   3.634   6.711  0.3993  0.5014  0.9641
12738TIP3    H238137   7.669   3.730   6.644 -0.7424 -0.2805 -1.8236
12739TIP3   OH238138   0.343   6.439   3.867 -0.6918  1.1636 -0.2871
12739TIP3    H138139   0.409   6.483   3.814 -0.7660  2.1190  0.3938
12739TIP3    H238140   0.377   6.443   3.957 -1.0668  0.5132 -0.1055
12740TIP3   OH238141   6.957   5.419   6.323 -0.3650 -0.1675 -0.2397
12740TIP3    H138142   6.934   5.327   6.333 -0.2294 -0.1749  0.0209
12740TIP3    H238143   6.944   5.457   6.410 -1.5028  0.3082 -0.6022
12741TIP3   OH238144   8.222   4.262   6.246  0.2179 -0.0488 -0.3829
12741TIP3    H138145   8.195   4.206   6.173  1.1084  0.5838 -1.2102
12741TIP3    H238146   8.140   4.300   6.278 -0.2900 -1.0919 -0.4146
12742TIP3   OH238147   8.014   6.577   5.133  0.1596  0.3470 -0.6588
12742TIP3    H138148   7.922   6.583   5.160  0.2602  0.4199 -0.3373
12742TIP3    H238149   8.011   6.574   5.037 -0.2111 -0.2246 -0.6275
12743TIP3   OH238150   7.620   5.960   4.595 -0.2182 -0.7175 -0.5107
12743TIP3    H138151   7.607   5.987   4.686 -1.6196  0.7484 -1.1251
12743TIP3    H238152   7.603   6.039   4.543  0.2837 -1.6041 -2.0765
12744TIP3   OH238153   0.075   4.663   5.449  0.1639  0.1242 -0.2641
12744TIP3    H138154   0.100   4.708   5.530  1.6845  0.5204 -0.9280
12744TIP3    H238155   0.115   4.716   5.380  3.0334 -2.8824 -1.0227
12745TIP3   OH238156   6.518   5.855   6.037  0.2281  0.1924 -0.1215
12745TIP3    H138157   6.489   5.815   5.955 -0.0179 -1.3652  0.7107
12745TIP3    H238158   6.547   5.782   6.091 -3.1793  0.7391  2.6291
12746TIP3   OH238159   0.301   4.537   2.095 -0.2163 -0.2063 -0.1269
12746TIP3    H138160   0.225   4.551   2.039 -0.3901  0.8295  0.3514
12746TIP3    H238161   0.375   4.531   2.034 -0.3108  1.5836 -0.4428
12747TIP3   OH238162   0.884   4.035   4.461 -0.2593 -0.8208 -0.0449
12747TIP3    H138163   0.814   4.097   4.480  1.0521  0.5985  0.3466
12747TIP3    H238164   0.849   3.978   4.393 -0.8829  1.5376 -1.7733
12748TIP3   OH238165   0.977   3.598   5.544 -0.2866 -0.7693 -0.4023
12748TIP3    H138166   1.044   3.572   5.607 -0.0613 -0.1282 -0.3699
12748TIP3    H238167   0.980   3.530   5.476  2.4941  0.7964 -1.9492
12749TIP3   OH238168   0.733   5.058   4.619  0.4723 -0.5258 -0.5114
12749TIP3    H138169   0.713   5.069   4.526 -1.1368 -1.4118 -0.2881
12749TIP3    H238170   0.650   5.075   4.664  1.0328 -0.9255  0.7066
12750TIP3   OH238171   0.827   5.716   6.138 -0.0756  0.2725  0.1860
12750TIP3    H138172   0.787   5.797   6.170  0.9731  0.7645  0.2503
12750TIP3    H238173   0.891   5.744   6.073  0.1426 -0.5211  0.0519
12751TIP3   OH238174   8.072   6.502   3.417 -0.2465 -0.3228 -0.3226
12751TIP3    H138175   8.000   6.439   3.426  0.5180 -1.3790 -1.3401
12751TIP3    H238176   8.038   6.584   3.453 -0.7905 -1.6713  2.3498
12752TIP3   OH238177   8.570   4.244   3.458  0.6786 -0.4516 -0.0057
12752TIP3    H138178   8.604   4.155   3.451 -0.1934 -0.7923  0.0173
12752TIP3    H238179   8.621   4.283   3.529  1.4203 -0.7580 -0.3621
12753TIP3   OH238180   0.175   6.239   6.288 -0.5279 -0.3317  0.3209
12753TIP3    H138181   0.138   6.317   6.329  1.6243  0.8789  0.0132
12753TIP3    H238182   0.221   6.194   6.359 -1.0508 -0.8871  0.3134
12754TIP3   OH238183   0.728   6.297   6.265 -0.5662  0.6033 -0.0822
12754TIP3    H138184   0.779   6.275   6.343 -0.4547 -1.6013 -0.7505
12754TIP3    H238185   0.640   6.316   6.299 -0.6902 -0.9944  0.5367
12755TIP3   OH238186   8.410   3.140   3.498  0.6021 -0.1328  0.1639
12755TIP3    H138187   8.320   3.107   3.495  0.9340 -1.0219 -0.1483
12755TIP3    H238188   8.463   3.064   3.522  1.3555  0.1923 -0.4422
12756TIP3   OH238189   8.230   7.088   3.110  0.4843  0.0817 -0.2409
12756TIP3    H138190   8.287   7.164   3.108 -0.1512  0.5567 -0.6350
12756TIP3    H238191   8.188   7.087   3.024  0.8246 -0.9693 -0.3911
12757TIP3   OH238192   7.388   5.764   3.858 -0.2853  0.1589 -0.3501
12757TIP3    H138193   7.343   5.810   3.929 -1.2580  0.2363 -1.0137
12757TIP3    H238194   7.396   5.674   3.890  0.8534  0.5818  0.5900
12758TIP3   OH238195   7.030   5.601   5.922 -0.6216  0.0927  0.3003
12758TIP3    H138196   6.951   5.596   5.868  0.7743  1.8241 -2.0031
12758TIP3    H238197   7.096   5.638   5.864  0.7617  2.8080  3.4585
12759TIP3   OH238198   7.347   4.654   4.272 -0.2918 -0.1059 -0.2766
12759TIP3    H138199   7.265   4.684   4.311 -0.6608 -0.5169 -0.7200
12759TIP3    H238200   7.409   4.726   4.286 -1.2536  0.9979 -1.6226
12760TIP3   OH238201   2.043   7.701   3.878  0.3044  0.6874 -0.1388
12760TIP3    H138202   2.091   7.670   3.955  0.5192 -0.4219 -0.7031
12760TIP3    H238203   2.100   7.766   3.838 -0.1878  1.9184  1.1160
12761TIP3   OH238204   7.956   5.939   6.408  0.3425  0.3743  0.6729
12761TIP3    H138205   8.012   5.967   6.335  0.2482 -3.0995 -0.8416
12761TIP3    H238206   7.874   5.987   6.395  0.5754  0.3368 -1.0899
12762TIP3   OH238207   7.573   5.572   5.497  0.1616  0.0036 -0.3344
12762TIP3    H138208   7.628   5.512   5.547  0.0054  0.1912  0.0693
12762TIP3    H238209   7.549   5.640   5.560 -2.3343 -1.2217  0.1014
12763TIP3   OH238210   8.488   4.960   4.518  0.3823  0.4008  0.6891
12763TIP3    H138211   8.427   4.981   4.448 -1.2915 -0.5834  1.8266
12763TIP3    H238212   8.548   4.896   4.479 -1.2950 -1.0808  0.5044
12764TIP3   OH238213   7.730   6.608   4.434  0.2851 -0.1540  0.0834
12764TIP3    H138214   7.655   6.638   4.383  1.1588  0.0058 -1.1417
12764TIP3    H238215   7.803   6.608   4.372  1.6246  1.1048  1.6118
12765TIP3   OH238216   8.124   6.247   5.347 -0.2907  0.6175  0.4060
12765TIP3    H138217   8.191   6.315   5.343  0.4154 -0.1193 -0.5955
12765TIP3    H238218   8.125   6.217   5.438  1.2625  0.1027  0.2262
12766TIP3   OH238219   8.362   3.731   5.688 -0.0070 -0.2583  0.0714
12766TIP3    H138220   8.335   3.691   5.605 -2.3208 -1.2286  1.2489
12766TIP3    H238221   8.354   3.825   5.673  0.7572 -0.3766 -1.1820
12767TIP3   OH238222   7.666   4.786   3.720 -0.1764 -0.6153 -0.1044
12767TIP3    H138223   7.726   4.797   3.647 -1.2712  1.4413 -0.7479
12767TIP3    H238224   7.715   4.736   3.785  3.0763  2.9413  0.3554
12768TIP3   OH238225   7.533   3.569   5.689  0.1073 -0.4141 -0.3450
12768TIP3    H138226   7.539   3.474   5.692 -0.3729 -0.4196  0.7758
12768TIP3    H238227   7.624   3.599   5.686  0.2468 -0.9202 -1.4650
12769TIP3   OH238228   5.052   7.685   4.324 -0.5066 -0.4595  0.7152
12769TIP3    H138229   5.135   7.671   4.278 -1.0629 -1.9778  0.1206
12769TIP3    H238230   5.030   7.599   4.359 -3.5046 -0.9190 -2.0550
12770TIP3   OH238231   6.783   4.424   5.288 -0.4773 -0.0103 -0.6950
12770TIP3    H138232   6.722   4.370   5.338  0.9120 -0.9203  0.0268
12770TIP3    H238233   6.748   4.513   5.295 -1.4988 -0.4661  0.0511
12771TIP3   OH238234   7.897   3.451   4.919 -0.6270 -0.4103 -0.5800
12771TIP3    H138235   7.983   3.494   4.922  0.0138 -1.7545  0.3589
12771TIP3    H238236   7.873   3.438   5.010 -1.7877 -0.1581 -0.8398
12772TIP3   OH238237   7.767   5.299   7.042 -0.2597 -0.0367 -0.5765
12772TIP3    H138238   7.841   5.285   7.101 -0.3776  0.5642 -0.2752
12772TIP3    H238239   7.795   5.372   6.987 -0.0200 -0.8125 -1.4803
12773TIP3   OH238240   0.214   6.527   4.947 -0.1836 -0.0242  0.4151
12773TIP3    H138241   0.197   6.553   5.037  0.2195  0.0233  0.4745
12773TIP3    H238242   0.127   6.504   4.912 -0.3796  0.2660  0.7141
12774TIP3   OH238243   0.195   5.945   7.251  0.1094  0.3048 -0.1748
12774TIP3    H138244   0.263   5.885   7.281 -0.3146 -0.0003  0.1861
12774TIP3    H238245   0.145   5.894   7.187  0.2509  0.5439 -0.4752
12775TIP3   OH238246   2.719   4.666   2.991  0.1491  0.1652  0.5591
12775TIP3    H138247   2.755   4.580   3.014 -0.5625  0.1533  1.6550
12775TIP3    H238248   2.625   4.652   2.986  0.0257  0.8964  0.7734
12776TIP3   OH238249   8.002   7.779   2.999 -0.4763 -0.1691  0.1966
12776TIP3    H138250   7.955   7.757   2.919  0.0040 -2.2406  0.4429
12776TIP3    H238251   7.934   7.803   3.062 -0.9052  0.6648 -0.5879
12777TIP3   OH238252   6.783   5.195   4.945 -0.6775  0.6725 -0.4128
12777TIP3    H138253   6.755   5.241   5.024 -1.6719 -0.1840 -0.2614
12777TIP3    H238254   6.878   5.208   4.942 -0.4062 -0.5877  1.7518
12778TIP3   OH238255   7.341   7.308   3.817 -0.7279 -0.4760 -0.6823
12778TIP3    H138256   7.407   7.321   3.750 -0.8850 -1.5099 -1.0414
12778TIP3    H238257   7.263   7.351   3.782 -0.0541  1.4507  0.0969
12779TIP3   OH238258   7.881   5.756   5.583 -0.1784  0.1300  0.3159
12779TIP3    H138259   7.930   5.779   5.505 -1.7631  0.2836 -0.6570
12779TIP3    H238260   7.931   5.686   5.624  0.3788 -0.3333 -1.1324
12780TIP3   OH238261   6.677   5.733   5.517 -0.0712 -0.6436  0.2471
12780TIP3    H138262   6.623   5.809   5.496 -1.9250 -1.7295  0.9663
12780TIP3    H238263   6.767   5.764   5.509 -0.7927  1.9807  1.7787
12781TIP3   OH238264   7.776   6.306   4.728 -0.3195 -0.3702  0.1635
12781TIP3    H138265   7.785   6.341   4.816 -0.5494  0.7019 -0.2370
12781TIP3    H238266   7.816   6.219   4.733 -1.7695 -0.9799  1.7252
12782TIP3   OH238267   7.598   4.907   6.086 -0.0582  0.5827  0.3998
12782TIP3    H138268   7.649   4.883   6.009 -0.9470 -0.2768  0.0808
12782TIP3    H238269   7.510   4.924   6.052 -0.6318 -0.5072  1.3243
12783TIP3   OH238270   0.258   6.241   4.240 -0.5131  0.1103 -0.0388
12783TIP3    H138271   0.188   6.306   4.247  0.1399  0.7112  1.0549
12783TIP3    H238272   0.214   6.160   4.214 -1.4100  0.8418 -0.8534
12784TIP3   OH238273   0.557   7.205   4.542  0.3781  0.0848 -0.2200
12784TIP3    H138274   0.563   7.191   4.636 -0.1442 -0.6917 -0.2943
12784TIP3    H238275   0.465   7.226   4.526  0.3690 -0.2375 -0.6110
12785TIP3   OH238276   8.194   4.160   5.322  0.8243  0.6293 -0.2136
12785TIP3    H138277   8.212   4.251   5.298 -2.4383  1.6559  1.0151
12785TIP3    H238278   8.224   4.153   5.413  0.9505  0.5058 -0.2644
12786TIP3   OH238279   6.895   5.906   4.598 -0.6078 -0.0595 -0.4114
12786TIP3    H138280   6.897   5.877   4.689 -3.6873  0.8700  0.0146
12786TIP3    H238281   6.899   5.826   4.546  2.8817 -0.5135  0.4494
12787TIP3   OH238282   8.060   4.181   4.326 -0.0500  0.4595 -0.4110
12787TIP3    H138283   8.149   4.170   4.292 -0.4894 -1.5309 -1.0171
12787TIP3    H238284   8.047   4.105   4.383 -0.8432  1.5163  0.8421
12788TIP3   OH238285   6.095   3.982   3.977 -0.0671  0.1487 -0.0807
12788TIP3    H138286   6.051   3.974   4.062 -1.3320  1.4708 -0.5887
12788TIP3    H238287   6.188   3.974   3.998 -0.4196 -0.5055  1.3075
12789TIP3   OH238288   8.631   6.249   4.356  0.2308 -0.2925  0.5204
12789TIP3    H138289   8.607   6.283   4.443 -2.9547 -1.6129  0.2182
12789TIP3    H238290   8.703   6.189   4.374 -0.8113 -1.0534  2.3838
12790TIP3   OH238291   1.733   6.334   4.322  0.2733  0.7979 -0.1321
12790TIP3    H138292   1.802   6.351   4.258 -0.8967  0.2372 -1.5730
12790TIP3    H238293   1.750   6.246   4.354  1.2885  1.3556  0.8971
12791TIP3   OH238294   7.710   5.685   4.288  0.2584  0.2161  0.2796
12791TIP3    H138295   7.698   5.723   4.202 -0.0010 -1.5257 -0.4763
12791TIP3    H238296   7.673   5.597   4.281  3.3037 -1.2141  1.1506
12792TIP3   OH238297   7.807   3.175   5.054  0.8527  0.1960  0.2356
12792TIP3    H138298   7.744   3.237   5.092  0.4230 -1.0935  1.6993
12792TIP3    H238299   7.782   3.090   5.091  0.3648 -1.1597 -3.0196
12793TIP3   OH238300   6.793   3.895   4.900 -0.3030  0.2368  0.0891
12793TIP3    H138301   6.795   3.955   4.826 -1.6563  0.5048  0.2602
12793TIP3    H238302   6.795   3.952   4.977 -2.3276  0.1004  0.2513
12794TIP3   OH238303   1.631   3.890   3.580  0.2464 -0.2185 -0.2954
12794TIP3    H138304   1.679   3.814   3.547 -1.3058 -1.1213 -0.5363
12794TIP3    H238305   1.608   3.867   3.670  0.8270  0.4790  0.0338
12795TIP3   OH238306   8.660   4.861   5.433 -0.2787 -0.0024 -0.0839
12795TIP3    H138307   8.665   4.950   5.469 -1.5369  1.0100 -2.3150
12795TIP3    H238308   8.647   4.805   5.510 -2.3221  2.0323  1.1269
12796TIP3   OH238309   8.540   2.144   3.462 -0.2973 -0.7681 -0.3108
12796TIP3    H138310   8.445   2.135   3.457 -0.2483 -2.0128  0.7217
12796TIP3    H238311   8.555   2.196   3.541 -0.1017 -0.9934 -0.1997
12797TIP3   OH238312   0.146   6.270   6.573  0.2593  0.3432  0.1245
12797TIP3    H138313   0.099   6.279   6.656  2.3091 -1.2119  1.5212
12797TIP3    H238314   0.228   6.317   6.587  1.4365 -1.5064 -0.3213
12798TIP3   OH238315   1.566   6.036   4.825  0.2838 -0.6276  0.0730
12798TIP3    H138316   1.651   6.000   4.852  1.1158  1.0579 -0.2086
12798TIP3    H238317   1.580   6.131   4.825 -1.2548 -0.3912 -1.1603
12799TIP3   OH238318   7.455   5.925   2.548  0.7805  0.0574  0.9266
12799TIP3    H138319   7.439   5.834   2.572  0.2981 -0.0523  0.2168
12799TIP3    H238320   7.539   5.923   2.501  0.1075 -0.2388 -0.2877
12800TIP3   OH238321   8.702   4.945   4.930  0.1046 -0.2714  0.1343
12800TIP3    H138322   8.743   4.936   5.016  0.1430  2.1344  0.3960
12800TIP3    H238323   8.775   4.949   4.868  0.0624 -2.6027 -0.1018
12801TIP3   OH238324   8.140   5.492   6.114 -0.1265 -0.0870 -0.8274
12801TIP3    H138325   8.063   5.437   6.131 -0.1557  0.0256 -0.5899
12801TIP3    H238326   8.161   5.530   6.199 -0.6247  0.9468 -1.1594
12802TIP3   OH238327   0.872   6.526   3.125  0.3159  0.3572  0.2478
12802TIP3    H138328   0.921   6.557   3.049  0.3435 -1.8012 -0.6478
12802TIP3    H238329   0.811   6.461   3.090  0.1758 -0.5183  2.0325
12803TIP3   OH238330   8.197   7.170   4.204  0.3518 -0.1115  0.0737
12803TIP3    H138331   8.170   7.255   4.239 -0.2944  0.2584 -1.2904
12803TIP3    H238332   8.125   7.111   4.226  0.2312 -0.0250 -0.0917
12804TIP3   OH238333   0.451   5.732   5.670  0.4541  0.7459 -0.7048
12804TIP3    H138334   0.435   5.805   5.609  0.7302  1.2046 -0.2252
12804TIP3    H238335   0.501   5.669   5.619 -0.0307  0.7600 -1.2101
12805TIP3   OH238336   0.327   6.356   3.552  0.9478 -0.1975 -0.0441
12805TIP3    H138337   0.258   6.414   3.519  0.2192 -0.8255  0.3309
12805TIP3    H238338   0.400   6.414   3.572 -0.0386  0.6987  1.0676
12806TIP3   OH238339   7.171   5.992   2.400  0.3702 -0.1528 -0.0466
12806TIP3    H138340   7.257   5.959   2.427 -0.6583 -4.3722 -1.5420
12806TIP3    H238341   7.110   5.947   2.458 -1.0659 -0.0425 -1.4663
12807TIP3   OH238342   6.642   5.469   5.453  0.4538 -0.1709  0.2163
12807TIP3    H138343   6.592   5.446   5.374 -1.7634 -0.7671  1.7451
12807TIP3    H238344   6.658   5.563   5.445 -1.5780  0.1809  0.0236
12808TIP3   OH238345   7.482   4.973   3.821  0.2852 -0.2051 -0.1748
12808TIP3    H138346   7.530   5.033   3.879  0.1175  0.8231 -1.0790
12808TIP3    H238347   7.548   4.910   3.792  0.7052  0.1532 -0.0150
12809TIP3   OH238348   7.355   6.292   4.980  0.3018 -0.8234  0.3165
12809TIP3    H138349   7.294   6.365   4.991  0.4094 -0.6384 -0.2693
12809TIP3    H238350   7.358   6.278   4.885  0.2817 -1.5905  0.4276
12810TIP3   OH238351   0.532   6.042   4.081  0.3299 -0.1590 -0.0789
12810TIP3    H138352   0.515   6.110   4.016  0.7829  1.7725  1.7592
12810TIP3    H238353   0.488   6.073   4.160  3.4281 -0.2159  1.7843
12811TIP3   OH238354   8.016   6.143   4.803  0.5809 -1.0227  0.3358
12811TIP3    H138355   7.978   6.157   4.890 -1.1522 -1.9112 -0.2553
12811TIP3    H238356   8.101   6.186   4.807 -0.9003  1.9551  1.3534
12812TIP3   OH238357   6.564   6.623   5.538  0.9111 -0.1311  0.0564
12812TIP3    H138358   6.469   6.621   5.545  0.9188 -1.9784 -0.0572
12812TIP3    H238359   6.582   6.683   5.466 -0.1797 -0.0300 -0.1307
12813TIP3   OH238360   7.909   6.156   6.016  0.3435 -0.3380  0.1052
12813TIP3    H138361   7.928   6.075   5.969 -2.1664 -1.0273  0.2438
12813TIP3    H238362   7.939   6.140   6.106  1.6670 -0.3707 -0.3323
12814TIP3   OH238363   6.324   5.238   3.062 -0.0661  0.3008 -0.2741
12814TIP3    H138364   6.369   5.314   3.099 -1.3004  1.2749 -0.7157
12814TIP3    H238365   6.291   5.190   3.137 -0.3741  0.8910 -0.0332
12815TIP3   OH238366   1.390   7.471   5.642 -0.2541  0.5128 -0.4964
12815TIP3    H138367   1.349   7.421   5.572  0.5601  2.2368 -2.2614
12815TIP3    H238368   1.319   7.490   5.704 -0.6821 -2.2596 -0.0880
12816TIP3   OH238369   2.361   7.341   3.700  0.4692 -0.1533 -0.3971
12816TIP3    H138370   2.332   7.432   3.707  2.5132  0.5267 -0.5535
12816TIP3    H238371   2.445   7.345   3.654  1.5425 -1.9198  1.2957
12817TIP3   OH238372   7.019   4.637   6.106  0.3610 -0.0796 -0.0624
12817TIP3    H138373   6.952   4.575   6.134 -0.0704  0.3529 -0.1315
12817TIP3    H238374   7.052   4.601   6.023  0.4248 -0.4495  0.1269
12818TIP3   OH238375   7.979   7.220   3.996 -0.3976 -0.0546  0.6498
12818TIP3    H138376   8.050   7.158   4.012  0.3287  0.6625  0.2078
12818TIP3    H238377   8.010   7.303   4.032 -0.0331  0.8142 -1.5809
12819TIP3   OH238378   8.851   6.002   4.298 -0.0398 -0.0943  0.1274
12819TIP3    H138379   8.933   6.043   4.268 -0.8091  0.9057 -0.6213
12819TIP3    H238380   8.793   6.007   4.223  0.1537 -3.4964 -0.3207
12820TIP3   OH238381   0.509   4.026   4.738  0.3249  0.1704 -0.1110
12820TIP3    H138382   0.426   3.991   4.770  0.3655 -0.0448 -0.2381
12820TIP3    H238383   0.572   3.955   4.752  0.7898  0.8539  1.3373
12821TIP3   OH238384   0.876   4.002   5.437 -0.2843 -0.1518 -0.1143
12821TIP3    H138385   0.827   4.058   5.498 -1.0056 -0.8839 -0.0130
12821TIP3    H238386   0.887   3.920   5.484  1.5665  0.1912  0.0876
12822TIP3   OH238387   6.956   2.664   6.378  0.3425 -0.4069 -0.2673
12822TIP3    H138388   6.878   2.678   6.324 -0.0955 -1.2143  0.1491
12822TIP3    H238389   6.927   2.605   6.448  1.4367 -1.0659 -0.3578
12823TIP3   OH238390   8.683   2.906   3.647  0.0067 -0.0070  0.5393
12823TIP3    H138391   8.763   2.856   3.665  0.4993  1.2092  1.7872
12823TIP3    H238392   8.714   2.995   3.629 -0.9975  0.2505  0.0624
12824TIP3   OH238393   7.799   3.178   5.407  0.0764  0.2302  0.5614
12824TIP3    H138394   7.805   3.103   5.348 -0.2699  1.6346 -1.2798
12824TIP3    H238395   7.725   3.158   5.464 -0.3038 -0.6112 -0.2204
12825TIP3   OH238396   6.831   4.469   6.188 -0.1144 -0.1584  0.9379
12825TIP3    H138397   6.768   4.398   6.195 -1.0813  0.7154  1.1793
12825TIP3    H238398   6.904   4.442   6.244 -0.5866 -0.8393  1.2279
12826TIP3   OH238399   8.099   6.525   4.092  0.8022  0.2758  0.1436
12826TIP3    H138400   8.129   6.499   4.005 -0.5745 -1.1767  0.0939
12826TIP3    H238401   8.059   6.611   4.078 -1.7620 -1.0738 -1.1649
12827TIP3   OH238402   8.366   5.852   3.576  0.7199  0.4197  0.1801
12827TIP3    H138403   8.426   5.787   3.613 -0.8260 -1.8785 -1.2030
12827TIP3    H238404   8.330   5.898   3.652  0.1190 -1.9235  1.3597
12828TIP3   OH238405   7.126   5.549   3.029 -0.0861  0.2736 -0.4771
12828TIP3    H138406   7.192   5.483   3.009 -1.4968 -1.2317 -0.3020
12828TIP3    H238407   7.175   5.632   3.035  1.5247 -0.5495 -1.9302
12829TIP3   OH238408   5.688   6.817   4.298  0.1675  0.7536  0.0458
12829TIP3    H138409   5.602   6.834   4.259 -0.2100 -2.1137 -0.5114
12829TIP3    H238410   5.743   6.792   4.224  0.9256  0.5484  0.6691
12830TIP3   OH238411   1.140   6.095   4.437 -1.6020 -0.4415  0.1774
12830TIP3    H138412   1.148   6.015   4.489  0.9102  0.5165  1.3141
12830TIP3    H238413   1.179   6.074   4.353 -1.9788 -0.7419  0.0755
12831TIP3   OH238414   1.407   6.162   5.343 -0.4646  0.0634 -0.1417
12831TIP3    H138415   1.432   6.217   5.269  0.1961  0.2185  0.1921
12831TIP3    H238416   1.458   6.082   5.332  0.0624  0.3136  0.4521
12832TIP3   OH238417   8.337   5.005   5.789  0.3672  0.0507  0.0880
12832TIP3    H138418   8.279   5.024   5.716 -0.5866 -1.1732  0.5121
12832TIP3    H238419   8.294   5.044   5.865  0.1038 -0.8157  0.3936
12833TIP3   OH238420   0.612   6.769   4.690 -0.0158 -0.0674  0.1148
12833TIP3    H138421   0.522   6.788   4.715  0.1670  0.4881  0.3576
12833TIP3    H238422   0.663   6.840   4.728 -0.0125  2.3047 -3.9717
12834TIP3   OH238423   8.508   5.618   4.682  0.4675 -0.0063  0.1075
12834TIP3    H138424   8.482   5.683   4.747 -0.8852  0.4246 -0.8222
12834TIP3    H238425   8.545   5.670   4.610  1.1681 -0.4074  0.1828
12835TIP3   OH238426   8.361   5.177   2.822 -0.4449  0.8794  0.0599
12835TIP3    H138427   8.305   5.178   2.900 -1.3723 -0.0693 -0.5703
12835TIP3    H238428   8.437   5.230   2.846 -0.2290 -0.2426  1.9770
12836TIP3   OH238429   0.439   6.441   5.377 -0.9133  0.0300 -0.1019
12836TIP3    H138430   0.495   6.466   5.303 -1.0115 -3.8915 -1.6445
12836TIP3    H238431   0.494   6.452   5.454  0.4429  0.6570 -1.1315
12837TIP3   OH238432   8.344   5.685   1.766 -0.4011 -0.0447 -0.0864
12837TIP3    H138433   8.410   5.725   1.823 -0.5769  0.8671 -0.5270
12837TIP3    H238434   8.262   5.728   1.791 -0.6941 -0.5767 -0.1279
12838TIP3   OH238435   8.733   6.476   6.931  0.1590 -0.2609  0.1038
12838TIP3    H138436   8.752   6.559   6.887  0.7954  0.1695  1.1703
12838TIP3    H238437   8.695   6.502   7.014  0.0617 -1.0513  0.3035
12839TIP3   OH238438   5.403   1.695   0.129 -0.2684  0.0202 -0.1545
12839TIP3    H138439   5.488   1.737   0.130 -0.8755  1.2720  0.1900
12839TIP3    H238440   5.415   1.615   0.179  1.1462 -0.7322 -1.6390
12840TIP3   OH238441   7.770   5.734   6.420  0.1440  0.0881  0.3965
12840TIP3    H138442   7.772   5.716   6.514  1.3586  0.7242  0.4998
12840TIP3    H238443   7.805   5.823   6.412  3.3091 -1.1801 -0.9029
12841TIP3   OH238444   8.790   4.829   5.201 -0.4060  0.2084  0.0531
12841TIP3    H138445   8.885   4.826   5.212 -0.3935  2.1766  0.5887
12841TIP3    H238446   8.756   4.837   5.291 -0.9514  2.1283 -0.3176
12842TIP3   OH238447   6.969   4.511   3.582 -0.2246  0.8213 -0.1760
12842TIP3    H138448   6.936   4.585   3.633 -0.0531  0.9003 -0.1811
12842TIP3    H238449   7.045   4.479   3.630 -1.5803 -0.7395  1.0002
12843TIP3   OH238450   8.727   6.104   5.697 -0.1697  0.3979 -0.3639
12843TIP3    H138451   8.638   6.123   5.727 -0.1868 -0.1776 -0.0339
12843TIP3    H238452   8.767   6.057   5.770  0.0989 -0.1756 -0.8712
12844TIP3   OH238453   8.786   5.979   5.446  0.4659 -0.2704  0.0548
12844TIP3    H138454   8.839   5.900   5.436 -0.1168 -0.6501 -0.0848
12844TIP3    H238455   8.819   6.020   5.526 -0.6097 -1.7655  1.3168
12845TIP3   OH238456   7.577   5.277   5.359 -1.0115  0.1267 -0.4490
12845TIP3    H138457   7.624   5.359   5.343 -1.3392  0.8735  2.2603
12845TIP3    H238458   7.646   5.211   5.367 -0.7802 -0.1055 -3.5817
12846TIP3   OH238459   7.841   5.856   6.924 -0.1077  0.1862 -0.3341
12846TIP3    H138460   7.919   5.906   6.947  0.6427 -1.7716  1.5964
12846TIP3    H238461   7.776   5.881   6.990 -0.1415 -0.4188 -0.1380
12847TIP3   OH238462   8.557   5.396   6.221 -0.2310 -0.0091  0.5345
12847TIP3    H138463   8.462   5.406   6.225 -0.2606 -0.5936  1.6455
12847TIP3    H238464   8.586   5.409   6.312  0.5200 -1.9139  0.5944
12848TIP3   OH238465   7.465   4.176   3.360  0.1236 -0.2808  0.1478
12848TIP3    H138466   7.490   4.168   3.452  0.1497  1.5321  0.3240
12848TIP3    H238467   7.524   4.117   3.314  0.4670 -0.8114  1.2419
12849TIP3   OH238468   7.283   2.277   3.446  0.1179  0.1232  0.0716
12849TIP3    H138469   7.361   2.328   3.471  1.1013 -1.1812 -0.2789
12849TIP3    H238470   7.318   2.195   3.412 -1.4256 -0.4599 -0.1490
12850TIP3   OH238471   8.013   4.553   5.398 -0.6347  0.8136 -0.6345
12850TIP3    H138472   7.993   4.593   5.483  0.5630  2.0123 -0.9025
12850TIP3    H238473   8.051   4.624   5.347  0.1548 -0.3131 -1.6255
12851TIP3   OH238474   7.778   4.841   5.448 -0.7799 -0.3135 -0.7731
12851TIP3    H138475   7.696   4.851   5.496 -0.4262 -0.3637 -0.1456
12851TIP3    H238476   7.837   4.798   5.510 -0.0934  0.2788 -1.0027
12852TIP3   OH238477   7.638   7.483   4.033  0.2636  0.4750 -0.4119
12852TIP3    H138478   7.684   7.566   4.036  1.1197  0.1276 -2.7520
12852TIP3    H238479   7.694   7.426   3.980 -0.2122 -1.6636  1.2593
12853TIP3   OH238480   5.608   4.751   5.486  0.6070 -0.5267 -0.0854
12853TIP3    H138481   5.651   4.833   5.511 -0.0466  0.1011 -1.0017
12853TIP3    H238482   5.576   4.714   5.569  1.3113 -0.0929  0.3801
12854TIP3   OH238483   7.295   6.218   4.714 -0.3399 -0.0246 -0.4083
12854TIP3    H138484   7.346   6.172   4.647 -0.9284 -0.3817 -0.6162
12854TIP3    H238485   7.212   6.169   4.719 -0.3215  0.0369  0.5374
12855TIP3   OH238486   4.283   2.943   0.681 -0.1297  0.2492  0.2298
12855TIP3    H138487   4.258   2.872   0.741  0.5229  1.8973  2.4997
12855TIP3    H238488   4.370   2.920   0.650 -0.3443 -0.4514  0.1440
12856TIP3   OH238489   4.650   3.840   0.462 -0.1839  0.3996  0.1783
12856TIP3    H138490   4.579   3.888   0.420  0.9902  1.5251 -0.5646
12856TIP3    H238491   4.658   3.880   0.549 -1.2578 -0.5639  0.7414
12857TIP3   OH238492   4.021   0.194   3.806  0.3222  0.3781 -0.0997
12857TIP3    H138493   3.960   0.137   3.759  0.6382  1.5621 -2.0124
12857TIP3    H238494   4.053   0.141   3.879 -0.4336 -1.3928 -1.0368
12858TIP3   OH238495   0.332   4.207   5.886 -0.0869 -0.3496  0.4323
12858TIP3    H138496   0.263   4.166   5.833 -0.2384 -0.9489  1.0865
12858TIP3    H238497   0.375   4.134   5.931 -0.5777  0.2120  1.8589
12859TIP3   OH238498   7.139   3.579   7.126  0.2599  0.3042  0.1316
12859TIP3    H138499   7.057   3.532   7.142  0.7908 -1.4180 -2.0483
12859TIP3    H238500   7.113   3.672   7.127 -1.3926 -0.1377  1.0634
12860TIP3   OH238501   6.124   5.929   6.429 -0.2894  0.0761  0.1136
12860TIP3    H138502   6.170   5.848   6.453  2.2194  0.8701 -1.8167
12860TIP3    H238503   6.140   5.939   6.336 -1.4170  2.3091  0.1307
12861TIP3   OH238504   8.498   6.031   5.477 -0.0965  0.5524 -0.6044
12861TIP3    H138505   8.585   6.009   5.445  0.8670  0.7981  1.7441
12861TIP3    H238506   8.512   6.108   5.532 -1.8102  0.5732 -0.1752
12862TIP3   OH238507   7.997   6.197   2.580 -0.4767  1.1879  0.1622
12862TIP3    H138508   7.963   6.232   2.662 -0.9782 -1.5369  1.1709
12862TIP3    H238509   8.046   6.119   2.605  0.1176  0.8109 -2.0480
12863TIP3   OH238510   6.999   6.477   6.208 -0.3460 -0.5213 -0.3113
12863TIP3    H138511   7.073   6.417   6.221  0.5870  0.6495 -0.1332
12863TIP3    H238512   7.023   6.528   6.131 -0.8812  0.0049 -0.1318
12864TIP3   OH238513   5.826   6.183   5.356 -0.2099  0.4230  0.2552
12864TIP3    H138514   5.841   6.096   5.319 -1.6905  0.2814 -0.0316
12864TIP3    H238515   5.800   6.237   5.282 -0.3317  0.8544  0.6111
12865TIP3   OH238516   6.045   6.069   3.156 -0.0539 -0.7605 -0.4166
12865TIP3    H138517   5.991   6.143   3.128 -0.8772 -1.2091 -0.0086
12865TIP3    H238518   6.018   5.996   3.100 -1.5041 -1.5846  1.3178
12866TIP3   OH238519   8.691   3.744   5.298 -0.4044 -0.4010 -0.2779
12866TIP3    H138520   8.769   3.699   5.332 -0.2230 -0.0311 -0.1989
12866TIP3    H238521   8.715   3.766   5.208  0.1334  0.9756  0.1809
12867TIP3   OH238522   8.872   5.084   5.490 -0.3326  0.0157  0.4338
12867TIP3    H138523   8.876   5.174   5.459 -0.3209  0.1505  0.8142
12867TIP3    H238524   8.939   5.038   5.440 -1.4826 -0.1592 -0.9696
12868TIP3   OH238525   3.042   6.404   4.756 -0.3678  1.1611 -0.2612
12868TIP3    H138526   2.998   6.324   4.785 -0.3158  1.6946  1.3269
12868TIP3    H238527   3.053   6.392   4.661  2.3023 -2.0055  0.3731
12869TIP3   OH238528   6.826   5.848   3.438 -0.2179 -0.1524 -0.1907
12869TIP3    H138529   6.859   5.766   3.400 -1.3823 -0.4487 -0.6032
12869TIP3    H238530   6.845   5.841   3.531  1.0815 -0.2039 -0.4515
12870TIP3   OH238531   7.332   5.334   5.526 -0.1452 -0.0747  0.0704
12870TIP3    H138532   7.302   5.246   5.550  0.3646  0.0329  1.1190
12870TIP3    H238533   7.420   5.321   5.492 -0.3037 -0.0436 -0.3526
12871TIP3   OH238534   0.823   3.824   2.284  0.6015 -0.1019 -0.0710
12871TIP3    H138535   0.835   3.894   2.348  0.5592  0.4046 -0.6179
12871TIP3    H238536   0.887   3.758   2.310 -0.7757 -0.7842  1.6960
12872TIP3   OH238537   0.910   5.297   3.646 -0.5560  0.3863  0.0129
12872TIP3    H138538   0.874   5.260   3.726  2.6362  0.5797  1.6327
12872TIP3    H238539   0.919   5.390   3.664 -0.1216  0.4826 -0.6693
12873TIP3   OH238540   8.249   5.525   5.064  0.4241 -0.2774 -0.4967
12873TIP3    H138541   8.277   5.437   5.040  0.0069 -0.4085 -0.4997
12873TIP3    H238542   8.169   5.513   5.114  1.0333  0.0278  0.5694
12874TIP3   OH238543   7.159   3.928   5.369  0.2530 -0.1922 -0.0286
12874TIP3    H138544   7.203   3.940   5.453 -2.1420  1.2485  1.0734
12874TIP3    H238545   7.125   3.838   5.373 -0.3622  0.0645  0.8255
12875TIP3   OH238546   0.147   4.200   4.777  0.1959 -0.4691 -0.2757
12875TIP3    H138547   0.104   4.136   4.720 -1.7014  1.8145 -1.4965
12875TIP3    H238548   0.210   4.243   4.721 -1.2827  1.3978 -0.5432
12876TIP3   OH238549   8.379   2.893   6.167 -0.2054  0.4220  0.1295
12876TIP3    H138550   8.302   2.930   6.210 -1.5160  0.2254 -1.9835
12876TIP3    H238551   8.384   2.940   6.084  1.7023  0.0985  0.0537
12877TIP3   OH238552   8.467   5.829   5.236  0.0325  0.1962  0.2038
12877TIP3    H138553   8.537   5.888   5.212 -1.6984  2.7421  1.2047
12877TIP3    H238554   8.431   5.865   5.317 -0.8555 -2.4366  1.0512
12878TIP3   OH238555   0.213   6.550   4.542  0.5018 -0.2489  0.0900
12878TIP3    H138556   0.146   6.617   4.529  0.1938 -0.9845 -2.4119
12878TIP3    H238557   0.234   6.554   4.636 -0.0613  2.7848  0.1304
12879TIP3   OH238558   5.396   5.053   5.346  0.0484  0.3267  0.6070
12879TIP3    H138559   5.409   5.134   5.297  0.2348  0.2105  0.4651
12879TIP3    H238560   5.379   5.081   5.435 -0.2794  0.5368  0.4755
12880TIP3   OH238561   8.542   5.843   6.216  0.5178 -0.2566 -0.0339
12880TIP3    H138562   8.544   5.843   6.120  0.9760 -0.2527 -0.0257
12880TIP3    H238563   8.603   5.773   6.241 -1.5431 -2.0112  0.2211
12881TIP3   OH238564   1.177   7.470   5.076 -0.1832  0.6749  0.2466
12881TIP3    H138565   1.131   7.504   5.152 -0.1016 -0.3775  0.7703
12881TIP3    H238566   1.268   7.462   5.105 -0.2296 -0.1331  0.1815
12882TIP3   OH238567   1.468   7.699   4.750 -0.0665 -0.3720 -0.1453
12882TIP3    H138568   1.378   7.688   4.779 -0.7926  3.7876 -0.5935
12882TIP3    H238569   1.520   7.690   4.830 -0.9298 -1.7810  0.2756
12883TIP3   OH238570   1.486   4.286   3.885  0.3924 -0.1448 -0.6775
12883TIP3    H138571   1.519   4.371   3.856  0.0060  0.0116 -0.6671
12883TIP3    H238572   1.534   4.268   3.966 -0.3684  0.6202 -0.0365
12884TIP3   OH238573   0.126   5.749   3.999 -0.5862  0.1358  0.3188
12884TIP3    H138574   0.124   5.829   4.051 -0.2308 -0.7284  1.7054
12884TIP3    H238575   0.218   5.723   3.998 -0.7549 -0.4781  0.2546
12885TIP3   OH238576   7.766   4.656   6.752 -0.4215  0.1753 -0.5759
12885TIP3    H138577   7.732   4.730   6.802 -0.9082 -0.5666  0.2032
12885TIP3    H238578   7.698   4.639   6.686 -0.1758  0.6093 -0.9391
12886TIP3   OH238579   0.798   6.076   4.061 -0.2220  0.5545  0.5462
12886TIP3    H138580   0.833   6.087   4.150 -1.1161 -1.8397  1.2330
12886TIP3    H238581   0.706   6.054   4.075 -0.2558 -0.2844 -0.9666
12887TIP3   OH238582   6.957   7.231   7.249  0.3510 -0.3214  0.9957
12887TIP3    H138583   6.884   7.228   7.187  1.7270 -0.4039 -0.6461
12887TIP3    H238584   6.916   7.216   7.335 -1.9357  2.2217  0.4268
12888TIP3   OH238585   0.900   6.209   5.340 -0.0050 -0.3697 -0.0004
12888TIP3    H138586   0.975   6.163   5.304 -1.4177 -1.5266 -1.5594
12888TIP3    H238587   0.909   6.299   5.308  1.7049 -0.0210  1.4075
12889TIP3   OH238588   7.903   6.919   1.720 -0.2998  0.6573  0.3080
12889TIP3    H138589   7.977   6.961   1.765  1.9240 -2.1865 -0.5109
12889TIP3    H238590   7.939   6.892   1.636 -2.5273 -0.0629 -0.4319
12890TIP3   OH238591   3.309   6.213   4.485  0.1107  0.4827  0.1718
12890TIP3    H138592   3.290   6.125   4.451 -1.1973  1.2007 -0.9985
12890TIP3    H238593   3.405   6.216   4.491  0.1888 -0.8391 -0.2506
12891TIP3   OH238594   7.123   0.482   0.612  0.1743  0.3816  0.2996
12891TIP3    H138595   7.048   0.504   0.667 -1.3446 -1.1648 -1.0947
12891TIP3    H238596   7.180   0.429   0.668  0.0705  1.2522  1.2466
12892TIP3   OH238597   8.600   6.788   3.653 -0.6438  0.2269  0.4140
12892TIP3    H138598   8.513   6.753   3.672 -0.6816 -0.6479 -1.3116
12892TIP3    H238599   8.609   6.863   3.712 -2.0428 -0.4410  1.5164
12893TIP3   OH238600   8.520   5.640   3.702  0.3038  0.5906  0.6219
12893TIP3    H138601   8.470   5.559   3.696  0.0712  0.8112 -0.6173
12893TIP3    H238602   8.608   5.611   3.727  0.3332 -0.0870 -0.2369
12894TIP3   OH238603   0.592   4.524   3.077 -0.2489  0.1470  0.4712
12894TIP3    H138604   0.581   4.449   3.018 -0.1645 -0.6666  1.4770
12894TIP3    H238605   0.618   4.485   3.160  5.2676  1.5646 -0.3469
12895TIP3   OH238606   1.552   6.797   4.293  0.2806  0.1289  0.3565
12895TIP3    H138607   1.463   6.833   4.285  0.9111  1.7086  0.2216
12895TIP3    H238608   1.598   6.859   4.349  1.5247 -0.2478 -0.2316
12896TIP3   OH238609   1.531   6.860   4.736  0.1043 -0.2073  0.0363
12896TIP3    H138610   1.617   6.823   4.717  0.3879  0.6497 -0.3931
12896TIP3    H238611   1.533   6.946   4.694 -0.9428 -0.1659  0.0707
12897TIP3   OH238612   6.943   5.782   5.464 -0.1685  0.1558  0.8561
12897TIP3    H138613   6.992   5.772   5.546 -1.0402  0.7809  1.4574
12897TIP3    H238614   7.008   5.807   5.400  0.1754  1.8505  1.8383
12898TIP3   OH238615   3.679   8.416   0.161 -0.6119 -0.4095 -0.3856
12898TIP3    H138616   3.760   8.366   0.151  0.0881  0.6015  0.1209
12898TIP3    H238617   3.609   8.354   0.142  0.2069 -1.7534  0.9371
12899TIP3   OH238618   0.800   7.085   4.212 -0.1026 -0.3097  0.4955
12899TIP3    H138619   0.728   7.069   4.150  0.0405 -0.0921  0.2695
12899TIP3    H238620   0.790   7.017   4.278  0.3662 -1.1736 -0.3158
12900TIP3   OH238621   7.394   7.445   2.896 -0.2549 -0.6150  0.4132
12900TIP3    H138622   7.376   7.358   2.931 -0.5477 -0.8198 -0.2318
12900TIP3    H238623   7.360   7.442   2.806 -0.7135  0.3138  0.5445
12901TIP3   OH238624   6.902   5.179   2.310  0.3843  0.7086 -0.8488
12901TIP3    H138625   6.848   5.161   2.233 -1.7137  1.6216  0.3590
12901TIP3    H238626   6.886   5.272   2.329 -0.3892  0.1194  1.6014
12902TIP3   OH238627   0.795   5.564   7.107 -0.7090  0.0554  0.3396
12902TIP3    H138628   0.825   5.539   7.194 -1.4870  1.0806  0.9136
12902TIP3    H238629   0.746   5.488   7.075  1.7812 -1.3238 -0.2870
12903TIP3   OH238630   8.425   3.374   2.066  0.8736  0.4669  0.0466
12903TIP3    H138631   8.373   3.308   2.112  0.7521  0.7608  0.3324
12903TIP3    H238632   8.360   3.425   2.017  1.0902 -0.4567 -1.2370
12904TIP3   OH238633   4.959   0.389   0.601 -0.7858  0.4731 -0.3318
12904TIP3    H138634   5.005   0.354   0.525 -0.8298 -2.0562  0.7555
12904TIP3    H238635   5.027   0.436   0.650 -0.3762  0.5872 -0.9913
12905TIP3   OH238636   5.026   2.239   0.333 -0.1196 -0.3769  0.0633
12905TIP3    H138637   5.116   2.214   0.357  0.9510  1.3399 -1.9814
12905TIP3    H238638   5.036   2.290   0.253 -2.9030  0.3251  0.1123
12906TIP3   OH238639   8.752   4.730   6.669 -0.1161 -0.1206  0.2039
12906TIP3    H138640   8.815   4.796   6.696  1.6466 -1.9987  0.7445
12906TIP3    H238641   8.801   4.671   6.612 -0.9658 -2.4746  1.8340
12907TIP3   OH238642   1.907   5.296   5.754  0.3647  0.0959 -0.2407
12907TIP3    H138643   1.938   5.383   5.779  2.6558 -0.7618  0.0033
12907TIP3    H238644   1.878   5.307   5.663 -1.9039  1.6964  0.6086
12908TIP3   OH238645   0.772   5.355   6.912  0.2209 -0.1657  0.3595
12908TIP3    H138646   0.803   5.265   6.922 -0.1391 -0.3117  0.2161
12908TIP3    H238647   0.844   5.401   6.869 -0.6056 -1.0587 -2.1021
12909TIP3   OH238648   2.192   6.146   6.019  0.0889  0.4102  0.7887
12909TIP3    H138649   2.099   6.128   6.031 -0.1160  0.3523 -0.7615
12909TIP3    H238650   2.194   6.210   5.948  1.3283 -0.9799 -0.4552
12910TIP3   OH238651   7.715   0.972   0.194 -0.9227 -0.6005  0.1944
12910TIP3    H138652   7.684   1.006   0.110 -2.1025  0.7182  1.1430
12910TIP3    H238653   7.708   0.877   0.185 -1.6230 -0.4519 -0.9721
12911TIP3   OH238654   8.355   4.510   7.003 -0.8394  0.0012 -0.0814
12911TIP3    H138655   8.325   4.519   7.094  1.7877 -0.4416  0.8679
12911TIP3    H238656   8.375   4.600   6.976 -0.1480 -0.0317  0.3106
12912TIP3   OH238657   2.824   6.192   6.526 -0.1874  0.0200 -0.6931
12912TIP3    H138658   2.779   6.122   6.479  1.0550 -0.6966 -0.8457
12912TIP3    H238659   2.913   6.158   6.540  0.0361  1.0283  0.4076
12913TIP3   OH238660   6.703   0.561   0.406 -0.4258  0.1078 -0.8520
12913TIP3    H138661   6.670   0.511   0.331 -3.1700  0.7308 -0.1458
12913TIP3    H238662   6.637   0.630   0.418  1.3104  1.5659  0.5486
12914TIP3   OH238663   8.456   0.688   1.200 -0.3013 -0.5341  0.3580
12914TIP3    H138664   8.464   0.609   1.254 -1.7828 -0.5303  0.5918
12914TIP3    H238665   8.407   0.660   1.123 -2.0803  0.4699  1.1109
12915TIP3   OH238666   7.512   1.056   1.125 -1.0974  0.7069 -0.7042
12915TIP3    H138667   7.604   1.035   1.136 -1.6484 -0.8306  1.2337
12915TIP3    H238668   7.503   1.142   1.166 -0.8520  0.0783  0.6984
12916TIP3   OH238669   5.441   1.997   0.496 -0.4915 -0.0042  0.0326
12916TIP3    H138670   5.404   1.930   0.553  2.0440 -0.3485  1.3270
12916TIP3    H238671   5.535   1.989   0.507 -0.0024  1.1800 -2.7906
12917TIP3   OH238672   0.062   5.475   5.626 -0.3213 -0.0551 -0.4220
12917TIP3    H138673   0.029   5.556   5.665  0.8938  0.1967  0.1147
12917TIP3    H238674   0.072   5.415   5.700  0.9471  0.0612 -0.4885
12918TIP3   OH238675   2.386   6.963   6.996  0.3732 -0.5574 -0.5442
12918TIP3    H138676   2.354   6.893   7.053 -0.6988  0.0487 -0.3835
12918TIP3    H238677   2.419   6.918   6.919 -0.0415 -1.2692 -0.3164
12919TIP3   OH238678   7.713   5.111   6.578 -0.0379  0.9467 -0.4501
12919TIP3    H138679   7.660   5.139   6.504 -1.3294 -1.8335 -0.6315
12919TIP3    H238680   7.649   5.090   6.647  0.7807 -1.7823 -0.4416
12920TIP3   OH238681   8.214   5.296   5.609  0.3476  0.0121  0.1340
12920TIP3    H138682   8.130   5.264   5.577 -0.1441  2.0900 -0.7004
12920TIP3    H238683   8.191   5.364   5.673  1.3783  1.3100 -0.8494
12921TIP3   OH238684   8.208   3.925   0.041 -0.5461 -0.5874 -0.2932
12921TIP3    H138685   8.292   3.962   0.015  0.8428 -1.3609  2.8372
12921TIP3    H238686   8.162   3.997   0.084 -1.0348 -0.4613 -1.0197
12922TIP3   OH238687   1.224   6.854   5.982  0.5772 -0.1124  0.6683
12922TIP3    H138688   1.261   6.779   5.935 -0.6138  0.5474 -1.4086
12922TIP3    H238689   1.137   6.825   6.010  1.1300 -0.3689  2.1720
12923TIP3   OH238690   7.448   2.754   1.439  0.4922  0.3237  0.2428
12923TIP3    H138691   7.465   2.691   1.369 -2.2850  1.5227 -1.5932
12923TIP3    H238692   7.514   2.823   1.426  1.5801 -0.6852  0.3706
12924TIP3   OH238693   7.878   3.319   0.635  0.4062  0.9804  0.7148
12924TIP3    H138694   7.881   3.363   0.550  1.8489 -0.1848  0.1448
12924TIP3    H238695   7.821   3.243   0.621  1.6117  0.1158  0.4539
12925TIP3   OH238696   1.061   4.836   6.264 -0.2402  0.1296 -0.1758
12925TIP3    H138697   1.134   4.775   6.257  0.6741  1.3938 -1.7832
12925TIP3    H238698   1.049   4.870   6.176 -0.5613  2.4768  0.7380
12926TIP3   OH238699   3.575   8.246   0.434 -0.4476 -0.1744 -0.3466
12926TIP3    H138700   3.501   8.301   0.411  0.2157 -0.2118 -2.7012
12926TIP3    H238701   3.605   8.210   0.351  2.4415  0.1267  0.5080
12927TIP3   OH238702   2.919   6.018   6.866  0.0770  0.5423  0.2065
12927TIP3    H138703   2.974   6.028   6.788  0.5817  0.0647  0.5071
12927TIP3    H238704   2.874   5.935   6.854 -0.1416  0.6532  0.2435
12928TIP3   OH238705   8.779   5.684   6.215  0.4207 -0.3318 -0.1650
12928TIP3    H138706   8.783   5.590   6.228 -0.5952 -0.5040 -0.9986
12928TIP3    H238707   8.810   5.697   6.125 -1.1669 -0.0681 -0.6946
12929TIP3   OH238708   0.328   6.858   7.269  0.2935 -0.2071  0.1098
12929TIP3    H138709   0.355   6.896   7.185  0.4781 -0.9112 -0.1520
12929TIP3    H238710   0.270   6.785   7.245  1.2147 -1.0938  0.5597
12930TIP3   OH238711   2.635   5.966   5.249 -0.5527  0.6167  0.6888
12930TIP3    H138712   2.626   5.873   5.225 -1.6757  1.2981 -1.6605
12930TIP3    H238713   2.557   5.985   5.302 -0.4724  0.3085  0.9218
12931TIP3   OH238714   7.470   5.286   5.798  0.6437  0.3006 -0.2674
12931TIP3    H138715   7.386   5.289   5.843  0.5220  0.9074 -0.5291
12931TIP3    H238716   7.467   5.205   5.747 -0.0417  0.6336 -0.7657
12932TIP3   OH238717   1.307   3.472   0.524  0.0503 -1.1393 -0.3115
12932TIP3    H138718   1.335   3.444   0.611  1.3868 -0.8625 -0.6411
12932TIP3    H238719   1.230   3.418   0.505  0.7449 -2.3952  0.3449
12933TIP3   OH238720   7.256   2.786   0.381 -0.3631  0.5597 -0.5843
12933TIP3    H138721   7.252   2.705   0.331 -2.2650 -0.8266  1.7012
12933TIP3    H238722   7.332   2.776   0.437  1.9282  2.2270 -3.2587
12934TIP3   OH238723   4.327   7.914   2.011  1.0408 -0.2941  0.0353
12934TIP3    H138724   4.301   7.987   2.067  1.3034  0.7980 -1.2227
12934TIP3    H238725   4.421   7.906   2.024  0.5380 -2.6891  2.7740
12935TIP3   OH238726   2.405   7.294   6.168  0.6001 -0.6362 -0.5095
12935TIP3    H138727   2.466   7.296   6.242  1.0769  0.8044 -0.9350
12935TIP3    H238728   2.347   7.221   6.188  1.6432 -1.2030  0.5600
12936TIP3   OH238729   6.559   1.694   0.206 -0.0924 -0.4587 -0.1182
12936TIP3    H138730   6.482   1.641   0.185  1.4172 -2.4885 -0.6921
12936TIP3    H238731   6.633   1.639   0.182  1.5646  1.0991  1.2967
12937TIP3   OH238732   6.561   0.781   0.329  0.4609  0.3147 -0.2269
12937TIP3    H138733   6.562   0.831   0.247 -0.5709 -0.5959 -0.8063
12937TIP3    H238734   6.479   0.807   0.371 -0.1394 -0.9759 -0.5899
12938TIP3   OH238735   0.669   4.236   7.135  0.5306  0.3106 -0.4041
12938TIP3    H138736   0.678   4.270   7.224 -2.8873 -1.0685  0.5466
12938TIP3    H238737   0.651   4.314   7.082 -1.1880  0.7298  0.7632
12939TIP3   OH238738   0.415   6.682   6.536  0.1215 -0.1198  0.3527
12939TIP3    H138739   0.466   6.686   6.617 -0.8171  0.6620  0.9266
12939TIP3    H238740   0.357   6.758   6.541 -0.8632 -0.8035 -0.4334
12940TIP3   OH238741   8.857   6.029   4.681 -0.2262  0.3146 -0.1031
12940TIP3    H138742   8.855   5.979   4.762 -1.3158  1.7801  0.7968
12940TIP3    H238743   8.851   5.963   4.612 -2.3562 -0.7725  1.0698
12941TIP3   OH238744   6.952   2.975   2.337  0.0818  1.0106  0.1641
12941TIP3    H138745   6.884   2.947   2.276 -1.0343  2.1757  0.8432
12941TIP3    H238746   7.028   2.993   2.283  0.5087 -2.2343 -0.4239
12942TIP3   OH238747   7.958   1.570   0.117 -0.2371  0.3718 -0.1503
12942TIP3    H138748   7.867   1.554   0.141  0.1711  0.6560  1.6726
12942TIP3    H238749   7.963   1.548   0.024 -1.7478 -1.3769  0.1617
12943TIP3   OH238750   4.475   1.277   0.036 -0.3241 -0.0802  0.2778
12943TIP3    H138751   4.500   1.285   0.128  0.6200 -2.0058  0.2102
12943TIP3    H238752   4.537   1.332  -0.011  0.2984 -0.4909  0.6250
12944TIP3   OH238753   1.448   4.989   6.616 -0.0750 -0.1273  0.1908
12944TIP3    H138754   1.426   4.940   6.536 -2.1007  1.4271 -0.2571
12944TIP3    H238755   1.415   4.934   6.687  1.4946 -1.3938 -0.0405
12945TIP3   OH238756   3.400   5.731   5.324  0.2128 -0.2801 -0.0012
12945TIP3    H138757   3.369   5.810   5.368 -2.5961 -2.4816  2.0746
12945TIP3    H238758   3.334   5.713   5.257  1.8650  0.1689 -1.8174
12946TIP3   OH238759   1.383   4.412   5.572  0.0901 -0.3764  0.5421
12946TIP3    H138760   1.386   4.318   5.589 -1.9824 -0.5623 -0.0101
12946TIP3    H238761   1.395   4.421   5.478  0.6979 -0.0461  0.6437
12947TIP3   OH238762   6.586   1.493   0.992 -0.1162 -0.3615  0.2039
12947TIP3    H138763   6.512   1.525   1.044 -0.3951 -0.5469 -0.0731
12947TIP3    H238764   6.663   1.507   1.047 -0.5261 -1.4867  1.0811
12948TIP3   OH238765   1.465   6.613   7.234  0.3697 -0.0359 -0.1384
12948TIP3    H138766   1.523   6.613   7.158  0.4903 -0.6024 -0.0492
12948TIP3    H238767   1.420   6.528   7.231 -0.1361  0.2256  0.0312
12949TIP3   OH238768   0.551   3.338   5.990  0.1100 -0.5529  0.2697
12949TIP3    H138769   0.618   3.350   6.058  2.9561 -0.9697 -2.3668
12949TIP3    H238770   0.536   3.426   5.955  1.6390 -0.9114 -1.2986
12950TIP3   OH238771   8.719   2.430   1.026  0.1828  0.3344  0.0175
12950TIP3    H138772   8.791   2.438   1.088 -0.7027  0.3434  1.0614
12950TIP3    H238773   8.657   2.498   1.052 -0.0686  0.5162 -1.0547
12951TIP3   OH238774   5.668   1.865   0.998 -0.3354 -0.1064  0.6163
12951TIP3    H138775   5.737   1.835   0.941 -0.4376 -1.3221  1.1222
12951TIP3    H238776   5.703   1.944   1.039  0.3244 -0.1042  0.0426
12952TIP3   OH238777   1.910   4.975   7.221 -0.6201 -0.1443  0.1687
12952TIP3    H138778   1.912   4.879   7.221  1.0240 -0.1342  1.8743
12952TIP3    H238779   1.970   5.000   7.150 -0.3218 -0.3816  0.3352
12953TIP3   OH238780   8.043   5.212   6.472 -0.1830 -0.1286 -0.3341
12953TIP3    H138781   7.995   5.293   6.459  1.3823  0.3637 -3.6454
12953TIP3    H238782   8.008   5.152   6.407  0.6596 -1.1918  0.1629
12954TIP3   OH238783   6.123   0.526   1.131  0.0194  0.3285  0.2543
12954TIP3    H138784   6.127   0.456   1.066 -2.1824 -0.7220  1.1944
12954TIP3    H238785   6.131   0.482   1.215 -1.5131  1.1470  0.8632
12955TIP3   OH238786   0.461   6.103   6.156 -0.2818  0.0033 -0.6383
12955TIP3    H138787   0.425   6.016   6.169 -1.7251  0.8162  1.0296
12955TIP3    H238788   0.401   6.161   6.202  1.0532  1.8123 -1.1007
12956TIP3   OH238789   1.891   6.615   6.702 -0.2290  0.0737  0.2943
12956TIP3    H138790   1.952   6.650   6.638 -0.9139 -0.7430 -0.8281
12956TIP3    H238791   1.805   6.643   6.671 -0.4517  1.1721  1.8273
12957TIP3   OH238792   1.995   6.556   4.668  0.3247 -0.4839 -0.1847
12957TIP3    H138793   2.088   6.534   4.662  0.5374  0.7448 -1.5096
12957TIP3    H238794   1.950   6.477   4.637  1.0142 -0.0959 -2.2618
12958TIP3   OH238795   7.784   1.784   1.170  0.3709  0.1971 -0.0667
12958TIP3    H138796   7.761   1.876   1.154  0.2548 -0.0938 -1.6551
12958TIP3    H238797   7.715   1.752   1.228  0.9631  1.3707  1.3134
12959TIP3   OH238798   0.849   5.099   6.916  0.2536  0.0078 -0.0844
12959TIP3    H138799   0.930   5.086   6.866 -0.0028  0.5028 -0.6353
12959TIP3    H238800   0.791   5.028   6.886  0.3423 -0.1143  0.0293
12960TIP3   OH238801   8.070   5.975   6.665  0.2517  0.7450  0.6769
12960TIP3    H138802   7.998   6.023   6.705  0.2811  1.6987 -0.3908
12960TIP3    H238803   8.040   5.955   6.577  0.9310  0.3191  0.5358
12961TIP3   OH238804   7.649   1.548   0.184 -0.1391 -0.3216 -0.8564
12961TIP3    H138805   7.572   1.605   0.184  1.3190  1.6705 -0.8190
12961TIP3    H238806   7.656   1.518   0.093 -0.2950  0.3853 -1.1044
12962TIP3   OH238807   0.803   7.523   4.097 -0.0319  0.2449  0.1300
12962TIP3    H138808   0.728   7.472   4.129  0.7602 -1.1255 -0.1594
12962TIP3    H238809   0.765   7.607   4.071 -1.8614 -1.1971 -2.0862
12963TIP3   OH238810   1.371   6.636   6.841 -0.3472 -0.0640 -0.5791
12963TIP3    H138811   1.461   6.667   6.835 -0.3795 -0.0493 -1.0191
12963TIP3    H238812   1.324   6.707   6.885 -0.3622  0.3972 -1.3325
12964TIP3   OH238813   6.449   1.834   0.434  0.0283  0.2055 -0.0477
12964TIP3    H138814   6.481   1.924   0.434  0.2503  0.1268  0.2989
12964TIP3    H238815   6.495   1.792   0.361  1.3141 -0.1133  0.9182
12965TIP3   OH238816   8.909   5.555   5.998  0.1643 -0.2612 -0.3970
12965TIP3    H138817   8.887   5.610   5.923 -0.0680 -0.9173 -0.8144
12965TIP3    H238818   8.894   5.465   5.967  0.1362 -0.5373  0.4082
12966TIP3   OH238819   1.448   2.835   6.652 -0.0954  0.2711  0.1725
12966TIP3    H138820   1.531   2.869   6.686 -1.3687  3.0850  0.6817
12966TIP3    H238821   1.473   2.775   6.582  2.3858  0.5651  0.7637
12967TIP3   OH238822   6.973   2.993   0.263 -0.2059  0.1467  0.3205
12967TIP3    H138823   6.930   3.040   0.191 -1.9326  1.0868  1.9046
12967TIP3    H238824   6.938   3.035   0.342  1.3684 -1.1129  1.7035
12968TIP3   OH238825   1.764   5.684   7.145 -0.3362 -0.0021 -0.0749
12968TIP3    H138826   1.673   5.664   7.122 -0.4461 -0.6094  0.8885
12968TIP3    H238827   1.785   5.761   7.093 -1.4867  0.2975 -0.1059
12969TIP3   OH238828   0.421   5.521   6.191  0.1861 -0.1722  0.2526
12969TIP3    H138829   0.445   5.430   6.174 -1.0203 -0.6328  0.9202
12969TIP3    H238830   0.461   5.570   6.120  3.3823 -0.8192  1.5114
12970TIP3   OH238831   1.334   4.387   7.119  0.4649 -0.4353 -0.4144
12970TIP3    H138832   1.417   4.367   7.163 -0.2089 -1.4237  0.4355
12970TIP3    H238833   1.333   4.329   7.042  0.6658 -0.2538 -0.5541
12971TIP3   OH238834   8.175   4.750   5.286 -0.6075  0.1473 -0.3074
12971TIP3    H138835   8.159   4.804   5.363 -0.0444  0.8064 -0.6468
12971TIP3    H238836   8.267   4.726   5.291 -0.8450 -0.7389 -0.1873
12972TIP3   OH238837   7.022   0.213   0.981 -0.3559 -0.1011 -0.2895
12972TIP3    H138838   6.945   0.156   0.992  0.3330 -0.5437  2.7623
12972TIP3    H238839   7.032   0.256   1.066  2.1158  0.7671 -0.9810
12973TIP3   OH238840   7.341   4.379   5.044  0.2513  0.2032 -0.5571
12973TIP3    H138841   7.340   4.385   4.949 -1.2282  0.0897 -0.5492
12973TIP3    H238842   7.433   4.364   5.066  0.6957  0.8388 -1.9257
12974TIP3   OH238843   7.400   6.207   6.732  0.3625  0.0033  0.9796
12974TIP3    H138844   7.456   6.255   6.792  0.3589 -0.9000  1.7079
12974TIP3    H238845   7.318   6.256   6.731  0.6437  0.4790  1.0636
12975TIP3   OH238846   2.088   7.204   4.817 -0.0678 -0.0213  0.4612
12975TIP3    H138847   2.141   7.270   4.772  0.9730 -0.5916  0.8282
12975TIP3    H238848   2.102   7.221   4.910 -2.2495  1.1803  0.6116
12976TIP3   OH238849   7.894   1.678   1.674  1.0543  0.3129  0.2969
12976TIP3    H138850   7.854   1.764   1.686  0.3355  0.2451 -1.4501
12976TIP3    H238851   7.954   1.690   1.600  0.2625 -0.9089 -0.5587
12977TIP3   OH238852   4.578   2.508   1.817  1.1769 -0.1042 -0.3386
12977TIP3    H138853   4.588   2.557   1.734  0.4188  1.5022  0.4861
12977TIP3    H238854   4.654   2.533   1.869 -1.2249  3.5421  1.6861
12978TIP3   OH238855   5.983   0.943   1.301  0.1698  0.2079 -0.3054
12978TIP3    H138856   6.004   0.850   1.294  0.4517  0.1476  1.1401
12978TIP3    H238857   6.068   0.986   1.311 -0.0156  0.5438 -0.1764
12979TIP3   OH238858   4.033   1.038   7.119  0.1150  0.0077 -0.3165
12979TIP3    H138859   3.961   1.059   7.178  0.1879 -0.2974 -0.1168
12979TIP3    H238860   4.069   0.956   7.153  1.0255  0.5407  0.0160
12980TIP3   OH238861   0.587   7.468   5.164 -0.3400  0.4636 -0.7307
12980TIP3    H138862   0.641   7.390   5.163  1.0756  1.4296 -2.0875
12980TIP3    H238863   0.549   7.470   5.252 -1.8792 -2.7080 -1.2485
12981TIP3   OH238864   8.550   6.201   5.896  0.1734 -0.1467  0.3381
12981TIP3    H138865   8.594   6.177   5.978  1.5555  2.3756  0.4141
12981TIP3    H238866   8.457   6.190   5.914  0.3303  2.1993  2.9638
12982TIP3   OH238867   8.633   5.157   6.084 -0.3436 -0.7816  0.1913
12982TIP3    H138868   8.611   5.224   6.149 -2.6442 -0.3043 -1.0179
12982TIP3    H238869   8.621   5.074   6.130  0.1052 -0.4075  0.9862
12983TIP3   OH238870   5.935   2.605   1.110  0.8302  0.5304  0.0685
12983TIP3    H138871   5.884   2.648   1.042  1.0138  1.0977  0.2741
12983TIP3    H238872   5.969   2.526   1.070 -0.4354  0.0136  0.0161
12984TIP3   OH238873   0.149   2.829   1.082 -0.1682 -0.3937  0.1791
12984TIP3    H138874   0.087   2.776   1.132 -0.0728 -0.5962  0.0853
12984TIP3    H238875   0.178   2.897   1.143 -0.0099 -0.6729  0.4184
12985TIP3   OH238876   2.609   7.397   5.450  0.1215  0.2625 -0.4912
12985TIP3    H138877   2.561   7.317   5.472 -0.6734  0.7492 -0.4213
12985TIP3    H238878   2.662   7.374   5.374  0.6782 -0.6190  0.1574
12986TIP3   OH238879   6.184   1.444   0.992  0.9535 -0.9256  0.7390
12986TIP3    H138880   6.175   1.359   0.950 -0.9025 -0.7473  0.7221
12986TIP3    H238881   6.138   1.505   0.934  1.0582 -0.1507  1.4489
12987TIP3   OH238882   3.378   8.220   1.366 -0.0780 -0.4940  0.0322
12987TIP3    H138883   3.378   8.176   1.452 -0.4517  2.9263  1.8838
12987TIP3    H238884   3.285   8.229   1.345 -0.0288  0.0952  0.0597
12988TIP3   OH238885   1.180   0.713   0.867 -0.5145  0.3305 -0.2165
12988TIP3    H138886   1.127   0.766   0.808 -1.5868 -1.7071 -1.1125
12988TIP3    H238887   1.189   0.767   0.946 -1.3539  1.9436 -1.2066
12989TIP3   OH238888   7.485   2.292   2.313  0.4186  0.5533 -0.3666
12989TIP3    H138889   7.539   2.328   2.384  0.5480  1.0667 -0.7248
12989TIP3    H238890   7.399   2.331   2.325  0.0542 -0.4501  0.3468
12990TIP3   OH238891   8.189   1.440   0.191  0.0332  0.7850  0.3604
12990TIP3    H138892   8.094   1.446   0.185  0.0452 -0.3032 -1.2371
12990TIP3    H238893   8.206   1.350   0.220  0.5724  0.9697  0.6354
12991TIP3   OH238894   5.501   0.359   0.166  0.2000  0.0024  0.6582
12991TIP3    H138895   5.551   0.355   0.085 -0.2412  1.7590  0.2793
12991TIP3    H238896   5.553   0.416   0.223  0.4227 -1.0823  1.5564
12992TIP3   OH238897   1.308   6.715   6.560 -0.3032 -0.4100 -0.7937
12992TIP3    H138898   1.223   6.760   6.560  0.0698  0.3568  1.5076
12992TIP3    H238899   1.290   6.629   6.598 -0.1632 -0.5066 -0.9448
12993TIP3   OH238900   7.898   5.495   6.902  0.1118 -0.0281  0.4576
12993TIP3    H138901   7.942   5.503   6.986  0.7637  1.8616 -0.0354
12993TIP3    H238902   7.948   5.551   6.843 -2.5449  1.6468 -0.2894
12994TIP3   OH238903   7.361   2.413   0.963  0.1210 -0.5939 -0.2589
12994TIP3    H138904   7.373   2.502   0.932 -0.1143 -0.0435  1.1842
12994TIP3    H238905   7.404   2.411   1.049 -1.2546 -1.3945  0.4365
12995TIP3   OH238906   7.916   6.518   2.716 -0.0877  0.3518  0.0598
12995TIP3    H138907   7.851   6.449   2.726  0.3313 -0.1131 -0.3631
12995TIP3    H238908   7.909   6.570   2.796 -0.6170 -0.0037  0.2457
12996TIP3   OH238909   3.901   0.283   6.512  0.3045  0.2331 -0.1283
12996TIP3    H138910   3.938   0.332   6.439 -0.4568  0.0153 -0.6716
12996TIP3    H238911   3.946   0.317   6.589 -1.2018  2.7820 -0.3230
12997TIP3   OH238912   5.605   0.886   0.701 -0.1218 -0.1622  0.1522
12997TIP3    H138913   5.539   0.902   0.633 -1.1162  1.0480  1.3932
12997TIP3    H238914   5.567   0.817   0.755 -1.3307  2.0037  2.1138
12998TIP3   OH238915   1.177   7.293   6.457 -0.1120 -0.3657 -0.3737
12998TIP3    H138916   1.130   7.280   6.374 -1.1608  0.7955  0.0122
12998TIP3    H238917   1.268   7.306   6.431 -0.4886  0.3416 -1.3833
12999TIP3   OH238918   7.794   4.935   6.831  0.2115  0.1103  0.1564
12999TIP3    H138919   7.847   4.944   6.752  0.0867 -0.1867  0.0344
12999TIP3    H238920   7.855   4.944   6.903  0.1174  1.7244  0.0530
13000TIP3   OH238921   1.500   5.707   5.390  0.1613 -0.4466  0.2659
13000TIP3    H138922   1.543   5.733   5.472 -2.2991  0.4013  1.3554
13000TIP3    H238923   1.510   5.612   5.387  1.8307 -0.2955  0.6335
13001TIP3   OH238924   1.367   7.743   5.891  0.0435  0.3173  0.1035
13001TIP3    H138925   1.288   7.690   5.884 -0.6598  1.3185  0.2658
13001TIP3    H238926   1.377   7.783   5.804 -0.7280  1.7037  0.6361
13002TIP3   OH238927   0.577   1.854   1.412  0.0541  0.1334  0.2124
13002TIP3    H138928   0.653   1.906   1.388 -1.1027  1.7980  0.0158
13002TIP3    H238929   0.526   1.912   1.469 -0.7947 -1.1413  0.7707
13003TIP3   OH238930   5.128   2.997   1.643 -0.1274 -0.3083  0.4049
13003TIP3    H138931   5.209   2.963   1.605 -0.0656 -2.5355  2.4555
13003TIP3    H238932   5.156   3.049   1.718 -0.6010 -1.1121  1.1404
13004TIP3   OH238933   3.247   6.801   0.939  0.1938 -0.0597 -0.0319
13004TIP3    H138934   3.215   6.788   0.850  1.5320  0.8291 -0.6563
13004TIP3    H238935   3.185   6.862   0.978 -0.4383 -0.5061 -0.3328
13005TIP3   OH238936   4.132   7.592   0.388  0.3201  0.0601  0.1182
13005TIP3    H138937   4.113   7.679   0.424  1.6673 -0.0633  1.1631
13005TIP3    H238938   4.213   7.603   0.339 -0.8404 -0.0670 -1.8850
13006TIP3   OH238939   6.530   3.143   0.750 -0.1225 -0.1695  0.1967
13006TIP3    H138940   6.537   3.127   0.844  0.0480 -0.4411  0.1365
13006TIP3    H238941   6.620   3.158   0.721 -0.1572 -0.2548  0.0455
13007TIP3   OH238942   8.677   2.670   1.600  0.6968 -0.5682 -0.4518
13007TIP3    H138943   8.756   2.695   1.647  0.3984  0.0416 -0.2700
13007TIP3    H238944   8.607   2.718   1.644  0.2796 -0.8169 -0.8454
13008TIP3   OH238945   0.240   0.718   0.948 -0.2994  0.2233  0.2746
13008TIP3    H138946   0.164   0.669   0.979  0.1785  0.1884  1.4255
13008TIP3    H238947   0.204   0.779   0.884 -1.3938  0.6171  1.2424
13009TIP3   OH238948   1.002   6.054   7.199  0.0088 -0.7872 -0.1926
13009TIP3    H138949   1.088   6.076   7.162  0.4592 -0.1090  1.2297
13009TIP3    H238950   1.007   5.960   7.218  1.5042 -0.1864  2.6085
13010TIP3   OH238951   6.498   1.246   1.621  0.1429 -0.0832  0.1055
13010TIP3    H138952   6.496   1.225   1.714  2.2214 -4.4875 -0.7274
13010TIP3    H238953   6.579   1.295   1.609  0.5927 -0.7496  0.3966
13011TIP3   OH238954   1.463   4.085   5.745  0.0589  0.1866 -0.3869
13011TIP3    H138955   1.535   4.137   5.781 -0.8166  1.8376 -0.9535
13011TIP3    H238956   1.500   4.044   5.667  0.6561  0.2999 -0.1651
13012TIP3   OH238957   0.834   6.854   5.051 -0.2152 -0.3703 -0.3307
13012TIP3    H138958   0.779   6.909   4.996  0.1536  1.8008  1.4056
13012TIP3    H238959   0.910   6.908   5.072  0.5955 -1.8453  0.6776
13013TIP3   OH238960   6.643   4.014   0.975 -0.0148 -0.3669  0.1488
13013TIP3    H138961   6.607   4.087   1.026  0.0942 -0.1387 -0.1007
13013TIP3    H238962   6.660   4.051   0.889 -2.2778 -1.3101 -0.7393
13014TIP3   OH238963   7.179   1.845   2.817  0.4134 -0.0087 -0.0658
13014TIP3    H138964   7.105   1.825   2.760 -0.1013  2.4004 -0.2917
13014TIP3    H238965   7.256   1.837   2.761 -0.0036  1.3443 -0.8410
13015TIP3   OH238966   6.169   2.812   0.283 -0.3724  0.4873 -0.0938
13015TIP3    H138967   6.189   2.778   0.196 -0.4249  2.3474 -0.8595
13015TIP3    H238968   6.253   2.845   0.316  0.0961 -2.1340  1.4714
13016TIP3   OH238969   6.014   1.684   1.507  0.4599  0.1562 -0.1339
13016TIP3    H138970   5.946   1.751   1.519  0.3365 -0.1560  1.0112
13016TIP3    H238971   5.992   1.617   1.572  0.8604 -0.7674 -0.9560
13017TIP3   OH238972   1.650   4.709   6.675  0.0405 -0.1689  0.1189
13017TIP3    H138973   1.555   4.722   6.685  0.4007  2.1630  0.7876
13017TIP3    H238974   1.657   4.625   6.628 -2.3902  0.1923 -1.0306
13018TIP3   OH238975   7.749   6.496   5.254  0.4813 -0.1617 -0.4966
13018TIP3    H138976   7.790   6.468   5.336  0.8811 -0.5516 -0.8256
13018TIP3    H238977   7.664   6.531   5.281  0.4362 -0.6667  0.0449
13019TIP3   OH238978   8.489   5.990   6.527 -0.4569  0.0790  0.1024
13019TIP3    H138979   8.573   5.968   6.485  1.3119  2.0267  2.4964
13019TIP3    H238980   8.446   6.048   6.464  1.5936  1.9302  0.3578
13020TIP3   OH238981   1.727   4.592   6.164 -0.0611  0.1014 -0.3883
13020TIP3    H138982   1.805   4.595   6.108  0.8136  0.8590  0.8422
13020TIP3    H238983   1.702   4.684   6.173  1.3775  0.2421  2.5985
13021TIP3   OH238984   4.394   7.663   0.246  0.4235 -0.0932 -0.0696
13021TIP3    H138985   4.472   7.614   0.273  0.4632  0.4091  0.7425
13021TIP3    H238986   4.413   7.754   0.269  0.0138  0.1880 -0.8112
13022TIP3   OH238987   1.362   8.374   7.011 -0.2738 -0.0228  0.0556
13022TIP3    H138988   1.408   8.328   6.941  1.2446  1.8593 -0.2332
13022TIP3    H238989   1.365   8.314   7.085  1.4545 -0.4977 -0.3714
13023TIP3   OH238990   4.029   0.728   1.114 -0.4193  0.2630 -0.2684
13023TIP3    H138991   4.020   0.788   1.188 -0.0872  0.7337 -0.6081
13023TIP3    H238992   4.119   0.696   1.119 -0.8910 -1.0033  0.5076
13024TIP3   OH238993   0.124   1.763   2.119 -0.1009  0.0183  0.3455
13024TIP3    H138994   0.040   1.718   2.125  0.4143 -0.7820  2.0500
13024TIP3    H238995   0.101   1.854   2.103 -1.2016 -0.5890 -1.6817
13025TIP3   OH238996   2.526   8.146   6.729 -0.4128 -0.0849  0.0539
13025TIP3    H138997   2.503   8.108   6.645  0.1285 -1.5770  0.5621
13025TIP3    H238998   2.523   8.073   6.791  2.7228  0.2188  0.6792
13026TIP3   OH238999   6.431   0.961   0.121 -0.2204 -0.3441  0.2915
13026TIP3    H139000   6.439   1.031   0.056  1.1361 -0.7996 -0.0661
13026TIP3    H239001   6.352   0.913   0.096  0.5979 -0.8643 -1.4027
13027TIP3   OH239002   1.530   5.069   7.050  0.3117 -0.1390  0.0624
13027TIP3    H139003   1.515   4.976   7.068 -3.2557 -0.5468 -3.9929
13027TIP3    H239004   1.614   5.071   7.005 -0.4392 -1.7451 -1.5005
13028TIP3   OH239005   1.716   2.729   0.061 -0.2496  0.4293  0.1167
13028TIP3    H139006   1.690   2.659   0.000  0.6083 -0.7652  1.0982
13028TIP3    H239007   1.635   2.752   0.107 -0.3769 -0.4716  0.3483
13029TIP3   OH239008   2.567   6.060   6.964 -0.4711 -0.4528  0.9883
13029TIP3    H139009   2.589   5.980   7.011 -0.5927 -0.6212  0.7545
13029TIP3    H239010   2.592   6.043   6.873  0.3681  0.1122  1.1145
13030TIP3   OH239011   6.012   0.434   6.996 -0.3118 -0.0114  0.2103
13030TIP3    H139012   6.000   0.356   7.051 -1.1950  0.2800  0.4357
13030TIP3    H239013   5.928   0.479   7.000 -0.3887  0.0230 -1.3721
13031TIP3   OH239014   0.449   6.444   4.851 -0.2799 -0.1375  0.2625
13031TIP3    H139015   0.500   6.440   4.932 -0.9872 -1.1826  0.6787
13031TIP3    H239016   0.366   6.484   4.878 -0.1429  0.4163 -0.1486
13032TIP3   OH239017   0.578   5.945   7.039  0.2419 -0.5790 -0.0576
13032TIP3    H139018   0.509   5.901   6.990  0.0050  0.6251 -0.8105
13032TIP3    H239019   0.564   6.038   7.023  0.4995 -0.1933  1.8381
13033TIP3   OH239020   1.391   8.034   6.829 -0.3509  0.2576 -0.9429
13033TIP3    H139021   1.395   8.094   6.754  0.0268  2.2204  0.5922
13033TIP3    H239022   1.482   8.022   6.856 -0.3137 -2.0803 -2.0335
13034TIP3   OH239023   8.808   2.246   0.374 -0.0701  0.4022  0.2749
13034TIP3    H139024   8.780   2.332   0.341 -1.0114 -0.4267 -1.1433
13034TIP3    H239025   8.902   2.244   0.359 -0.1834  0.8274 -0.5286
13035TIP3   OH239026   2.209   7.594   5.689 -0.1169  0.6078  0.5764
13035TIP3    H139027   2.294   7.611   5.648  0.4703  2.5195  2.4971
13035TIP3    H239028   2.216   7.504   5.721  0.8326  0.4353 -0.0714
13036TIP3   OH239029   1.285   6.405   7.192 -0.6802 -0.2496 -0.7301
13036TIP3    H139030   1.209   6.459   7.172 -0.2627  0.8547  0.5702
13036TIP3    H239031   1.254   6.348   7.263  0.2175  1.4819  1.1010
13037TIP3   OH239032   2.315   5.413   6.333  0.0790 -0.3754 -0.2458
13037TIP3    H139033   2.280   5.496   6.364 -0.1963 -0.5276 -0.1542
13037TIP3    H239034   2.243   5.373   6.284  0.1582 -0.6381 -0.1457
13038TIP3   OH239035   3.870   4.965   7.007 -0.2314  0.2493  0.6383
13038TIP3    H139036   3.944   4.984   7.064  0.3156 -0.3839  0.1450
13038TIP3    H239037   3.821   5.047   7.003  0.3783  0.6359  1.0578
13039TIP3   OH239038   8.078   1.929   0.427 -0.2762  0.2001  0.4237
13039TIP3    H139039   8.159   1.882   0.445 -0.7266 -0.7449 -0.0081
13039TIP3    H239040   8.015   1.861   0.404 -0.5781  1.1099 -1.5540
13040TIP3   OH239041   0.552   1.330   0.499  0.2617 -0.1517 -0.0346
13040TIP3    H139042   0.487   1.325   0.430 -0.7163 -0.3839  0.8965
13040TIP3    H239043   0.573   1.423   0.505 -0.7075  0.0474  0.3225
13041TIP3   OH239044   0.705   3.069   0.176 -0.1782 -0.0901  0.3878
13041TIP3    H139045   0.800   3.062   0.173 -0.1042  0.9365  0.0419
13041TIP3    H239046   0.674   2.990   0.132  0.5115 -0.5609  0.7448
13042TIP3   OH239047   7.463   3.428   0.512 -0.0175 -0.3370  0.1321
13042TIP3    H139048   7.370   3.433   0.533  0.0761 -0.3459  0.5520
13042TIP3    H239049   7.492   3.345   0.548  0.0988 -0.4515 -0.2236
13043TIP3   OH239050   2.005   6.497   5.813  0.2309  0.4021 -0.3967
13043TIP3    H139051   1.922   6.507   5.858 -0.7105 -0.5097 -1.8645
13043TIP3    H239052   2.011   6.404   5.793  1.5434  0.4762 -0.4170
13044TIP3   OH239053   2.419   5.699   6.356  0.7034 -0.1708  0.0682
13044TIP3    H139054   2.422   5.670   6.447  0.1844  0.4381  0.2769
13044TIP3    H239055   2.387   5.789   6.359  1.0672 -0.0017 -0.6858
13045TIP3   OH239056   1.890   1.010   1.761  0.3798 -0.2359  0.4252
13045TIP3    H139057   1.823   0.950   1.728  1.6693 -0.4556 -1.8593
13045TIP3    H239058   1.852   1.097   1.749  1.0740 -0.2658 -2.3374
13046TIP3   OH239059   8.816   4.269   6.607 -0.6916 -1.2453 -0.5029
13046TIP3    H139060   8.746   4.321   6.567 -0.5878 -1.9805 -1.6872
13046TIP3    H239061   8.868   4.238   6.532  1.6265  0.2881  0.4122
13047TIP3   OH239062   1.995   7.530   4.716 -0.1681 -0.2225 -0.1943
13047TIP3    H139063   2.085   7.497   4.725  0.1746  0.2777 -1.6468
13047TIP3    H239064   1.995   7.576   4.632 -1.1838  1.7328  0.8635
13048TIP3   OH239065   2.157   6.725   4.483 -0.1046  0.2999 -0.7104
13048TIP3    H139066   2.066   6.754   4.473  0.0574  0.4280 -1.9480
13048TIP3    H239067   2.168   6.659   4.415  0.5294 -0.2283 -0.0924
13049TIP3   OH239068   0.029   5.919   5.120  0.2297  0.8222 -0.1198
13049TIP3    H139069   0.026   6.014   5.131  0.5381  0.8855 -0.5343
13049TIP3    H239070   0.118   5.902   5.088  0.7740  0.1966  1.7034
13050TIP3   OH239071   1.333   1.327   0.192 -0.1541  0.0500 -0.4920
13050TIP3    H139072   1.299   1.355   0.107 -0.9702 -0.4666 -0.3387
13050TIP3    H239073   1.259   1.286   0.235 -0.1927  1.7315  1.1208
13051TIP3   OH239074   5.124   5.574   6.811 -0.0969 -0.2473 -0.3091
13051TIP3    H139075   5.216   5.559   6.832  0.1846  0.5646 -0.9135
13051TIP3    H239076   5.126   5.646   6.747 -0.9928 -1.6914 -2.0118
13052TIP3   OH239077   4.168   7.847   5.836  0.3616  0.1474  0.2230
13052TIP3    H139078   4.074   7.863   5.851  0.1798 -3.0954  3.1133
13052TIP3    H239079   4.171   7.792   5.758 -0.0312  1.3977 -0.6826
13053TIP3   OH239080   2.239   5.133   7.271 -0.0751 -0.3413 -0.3823
13053TIP3    H139081   2.212   5.083   7.194  1.5657  1.5204 -2.2508
13053TIP3    H239082   2.162   5.185   7.294 -1.0242 -1.9255  0.1348
13054TIP3   OH239083   4.632   7.859   4.402 -0.1690  0.4707 -0.0801
13054TIP3    H139084   4.615   7.774   4.362 -1.7963  1.4193 -1.4765
13054TIP3    H239085   4.663   7.914   4.330  0.1261  1.2640  0.6451
13055TIP3   OH239086   0.861   6.089   4.326 -0.1083  0.6152 -0.3664
13055TIP3    H139087   0.780   6.106   4.375  0.4249  0.2196  0.6650
13055TIP3    H239088   0.923   6.061   4.393  0.4357 -0.6083 -1.3757
13056TIP3   OH239089   2.869   5.967   5.667 -0.3937 -0.2092  0.0700
13056TIP3    H139090   2.879   5.982   5.573  1.3639 -3.3253 -0.3062
13056TIP3    H239091   2.945   6.010   5.707  1.5165 -2.9779 -0.4535
13057TIP3   OH239092   6.466   0.349   6.432 -0.2733  0.6694 -0.3618
13057TIP3    H139093   6.464   0.405   6.510  1.6005 -0.8136  0.7860
13057TIP3    H239094   6.399   0.283   6.449 -0.5288  0.8985 -0.4605
13058TIP3   OH239095   4.284   3.976   6.552  0.0208  0.0940  0.1599
13058TIP3    H139096   4.248   4.008   6.634 -1.3684  1.6188 -1.0163
13058TIP3    H239097   4.220   3.912   6.521  0.0226  0.2951 -0.2601
13059TIP3   OH239098   3.227   4.017   5.610 -0.1539 -0.1679 -0.6214
13059TIP3    H139099   3.321   4.002   5.610  0.2750  2.3277  0.5468
13059TIP3    H239100   3.208   4.057   5.695 -2.1471  0.0370 -1.1251
13060TIP3   OH239101   0.089   5.933   6.588  0.3492 -0.7711  0.3217
13060TIP3    H139102   0.002   5.939   6.549  0.3328 -1.3011  0.2684
13060TIP3    H239103   0.077   5.965   6.678  0.0267 -1.1687  0.4223
13061TIP3   OH239104   5.424   1.446   0.272  0.4378 -0.3425 -0.0335
13061TIP3    H139105   5.496   1.383   0.279  0.2872 -0.5148 -0.0346
13061TIP3    H239106   5.423   1.490   0.357 -0.1898 -1.1356  0.3808
13062TIP3   OH239107   1.229   1.806   0.763  0.0849  0.2316  0.1633
13062TIP3    H139108   1.313   1.807   0.810  0.8653 -0.5905 -1.1973
13062TIP3    H239109   1.243   1.747   0.690 -1.8490 -0.2774  0.1874
13063TIP3   OH239110   1.568   8.360   6.280  0.1045 -0.4746 -0.1329
13063TIP3    H139111   1.560   8.455   6.289 -1.3836 -0.3920 -1.9385
13063TIP3    H239112   1.660   8.342   6.300  0.4215  1.3280  0.2110
13064TIP3   OH239113   5.860   1.324   0.556 -0.4504  0.1918 -0.0657
13064TIP3    H139114   5.790   1.259   0.552  0.0761 -0.4819  1.6755
13064TIP3    H239115   5.855   1.361   0.644 -1.0530  2.8867 -1.1495
13065TIP3   OH239116   8.565   2.192   1.868  0.7589  0.0528 -0.1533
13065TIP3    H139117   8.509   2.256   1.823  2.3955 -1.2341 -4.2873
13065TIP3    H239118   8.504   2.128   1.904 -0.6021  0.7839 -1.0870
13066TIP3   OH239119   8.533   2.177   0.285 -0.6223 -0.4717 -0.1378
13066TIP3    H139120   8.522   2.106   0.221  1.1281 -0.2880 -0.6430
13066TIP3    H239121   8.602   2.146   0.343  0.4432  1.0113 -0.6140
13067TIP3   OH239122   0.905   7.160   6.932 -0.8655  0.4992 -0.2216
13067TIP3    H139123   0.987   7.112   6.929 -1.1637 -0.0616  0.3435
13067TIP3    H239124   0.844   7.108   6.879 -1.1418  0.3431  0.2442
13068TIP3   OH239125   2.047   6.016   7.230 -0.1480  0.9572  0.2387
13068TIP3    H139126   2.016   6.105   7.246  1.4688  1.5153  0.3404
13068TIP3    H239127   2.014   5.965   7.303 -1.3840  1.3995 -0.0068
13069TIP3   OH239128   1.442   6.121   6.910 -0.3691 -0.2986  0.2568
13069TIP3    H139129   1.435   6.077   6.825 -0.5573  0.7880 -0.2973
13069TIP3    H239130   1.411   6.210   6.893 -1.4569 -0.3872  1.7166
13070TIP3   OH239131   3.146   5.514   5.714  0.2388 -0.0837 -0.0302
13070TIP3    H139132   3.229   5.523   5.668  0.0015 -0.8278 -0.6379
13070TIP3    H239133   3.118   5.603   5.733  0.4661  0.2263 -1.1296
13071TIP3   OH239134   2.823   5.730   3.801  0.2256 -0.4887  0.0785
13071TIP3    H139135   2.765   5.793   3.757 -1.6206 -2.0104  0.2527
13071TIP3    H239136   2.839   5.663   3.735  0.9012 -0.6376  0.3928
13072TIP3   OH239137   5.270   0.086   5.114 -0.0854  0.0803  0.5183
13072TIP3    H139138   5.191   0.074   5.060 -0.4243  1.3786  0.7074
13072TIP3    H239139   5.248   0.160   5.171  1.5917  1.0001 -0.0205
13073TIP3   OH239140   1.549   7.445   5.888  0.0503 -0.4003 -0.0881
13073TIP3    H139141   1.543   7.489   5.803  0.6804 -1.3267 -0.6149
13073TIP3    H239142   1.554   7.517   5.951 -0.8017  0.2946 -0.8043
13074TIP3   OH239143   1.008   5.189   1.215 -0.0531 -0.1500 -0.0409
13074TIP3    H139144   0.966   5.106   1.191  0.1783 -1.3201  3.3670
13074TIP3    H239145   1.094   5.163   1.249 -0.4725  1.3421  2.2201
13075TIP3   OH239146   1.850   7.640   5.902  0.2528  0.1365  0.6992
13075TIP3    H139147   1.775   7.697   5.889 -0.8113 -0.7365  2.7914
13075TIP3    H239148   1.839   7.570   5.837 -0.0271  0.7329  0.1067
13076TIP3   OH239149   2.544   6.575   7.047 -0.1231  0.0722  0.5378
13076TIP3    H139150   2.491   6.497   7.035  0.1216  0.2060 -1.5236
13076TIP3    H239151   2.482   6.643   7.072 -0.7964 -0.0231 -0.8401
13077TIP3   OH239152   1.067   6.235   5.726  0.6228  0.1022 -0.0030
13077TIP3    H139153   1.027   6.308   5.680  0.7704  0.4427  0.3995
13077TIP3    H239154   1.042   6.157   5.676  0.4620  0.4286 -0.4277
13078TIP3   OH239155   1.789   7.939   5.129  0.1508 -0.0095 -0.0181
13078TIP3    H139156   1.867   7.938   5.074 -0.9875  1.4751 -1.7229
13078TIP3    H239157   1.744   7.857   5.108 -0.3036  0.5760 -1.3559
13079TIP3   OH239158   3.293   6.224   4.809 -0.1149 -0.3712 -0.7566
13079TIP3    H139159   3.283   6.129   4.799 -1.6024 -0.2275 -0.6933
13079TIP3    H239160   3.313   6.255   4.720  0.3446 -0.7292 -0.7839
13080TIP3   OH239161   2.080   2.262   0.449  0.4906 -0.5802  0.1462
13080TIP3    H139162   2.061   2.327   0.516 -0.0523 -0.8349  0.2455
13080TIP3    H239163   1.997   2.251   0.402  0.9262 -0.2257 -0.7212
13081TIP3   OH239164   8.069   3.079   1.476  0.4097 -0.0179  0.4941
13081TIP3    H139165   8.030   3.166   1.463 -1.9985 -1.1323 -0.1452
13081TIP3    H239166   8.163   3.094   1.478  0.0194  2.6005  0.3711
13082TIP3   OH239167   4.988   6.797   6.831  0.0139  0.1560  0.1379
13082TIP3    H139168   4.921   6.789   6.763 -0.0263 -1.3510  0.3338
13082TIP3    H239169   4.939   6.814   6.911  0.0177  1.2329 -0.0780
13083TIP3   OH239170   4.543   7.126   6.289 -0.4009  0.6875  0.0689
13083TIP3    H139171   4.537   7.069   6.365  0.3643 -1.0850 -1.1717
13083TIP3    H239172   4.501   7.077   6.219 -0.7510  2.1329 -0.7499
13084TIP3   OH239173   1.147   0.366   0.710  0.0505  0.3791  0.2006
13084TIP3    H139174   1.145   0.302   0.782 -0.1762 -1.2120 -1.1917
13084TIP3    H239175   1.115   0.317   0.634  0.0578  2.1137 -0.9325
13085TIP3   OH239176   4.216   5.203   5.257  0.0368 -0.0720  0.4013
13085TIP3    H139177   4.240   5.292   5.233 -0.1057 -0.4733 -1.3452
13085TIP3    H239178   4.141   5.212   5.315 -0.5037  0.9126 -0.4454
13086TIP3   OH239179   5.647   1.816   0.131  0.1193  0.0514  0.7146
13086TIP3    H139180   5.668   1.904   0.099  3.2097 -0.4816  1.1409
13086TIP3    H239181   5.718   1.794   0.191 -1.0740 -2.4046  1.3178
13087TIP3   OH239182   1.705   5.668   6.550 -0.1427  0.2569 -0.1835
13087TIP3    H139183   1.661   5.584   6.561 -2.0073  1.4478  1.8423
13087TIP3    H239184   1.658   5.711   6.478 -0.7071  0.4951  0.3195
13088TIP3   OH239185   3.428   4.933   4.827 -0.0539 -0.2032 -0.4328
13088TIP3    H139186   3.370   4.861   4.851 -1.7418  0.3940 -2.5004
13088TIP3    H239187   3.480   4.898   4.755  0.8629 -0.1332  0.1877
13089TIP3   OH239188   2.374   5.702   6.826 -0.1620  0.3050 -0.0283
13089TIP3    H139189   2.343   5.713   6.916 -0.1581 -1.2666  0.1810
13089TIP3    H239190   2.312   5.641   6.786  0.9397 -0.5289 -0.4997
13090TIP3   OH239191   0.159   1.875   1.688 -0.1167  0.3786 -0.6474
13090TIP3    H139192   0.159   1.780   1.675  0.6003  0.3964 -0.7948
13090TIP3    H239193   0.155   1.887   1.782 -1.6129  0.2134 -0.6851
13091TIP3   OH239194   1.361   2.773   1.016  0.4078 -0.3092  0.4122
13091TIP3    H139195   1.269   2.750   1.008  0.5225 -1.0901  1.3070
13091TIP3    H239196   1.396   2.766   0.927  0.0002 -1.6704  0.3605
13092TIP3   OH239197   7.629   2.365   1.000 -0.2143 -0.1488 -0.1887
13092TIP3    H139198   7.639   2.459   0.987  0.7661 -0.3301 -0.8086
13092TIP3    H239199   7.660   2.326   0.919 -1.2292 -0.9887 -0.1905
13093TIP3   OH239200   0.522   4.355   6.570 -0.4644  0.1077  0.0194
13093TIP3    H139201   0.540   4.430   6.626 -1.7606 -0.0088  0.6149
13093TIP3    H239202   0.467   4.297   6.624 -3.1568  0.7699 -1.9084
13094TIP3   OH239203   0.749   6.531   6.742  0.4962 -0.6036 -0.0024
13094TIP3    H139204   0.692   6.595   6.786  0.0637  0.3052 -1.8204
13094TIP3    H239205   0.723   6.447   6.778  0.3880  0.1479  1.7236
13095TIP3   OH239206   0.128   1.465   0.158 -0.4696 -0.0930 -0.3891
13095TIP3    H139207   0.128   1.470   0.062 -0.7159 -0.0368 -0.3877
13095TIP3    H239208   0.107   1.554   0.186  2.7208  0.6521 -0.2209
13096TIP3   OH239209   8.104   1.343   1.039  0.3511  0.1370 -0.0745
13096TIP3    H139210   8.158   1.407   1.085  3.5995 -2.3008 -0.3661
13096TIP3    H239211   8.109   1.368   0.947  0.7996  0.0296 -0.0771
13097TIP3   OH239212   5.962   0.255   6.210 -0.0892  0.2954 -0.1803
13097TIP3    H139213   5.875   0.265   6.172 -0.8479 -1.4709  1.0202
13097TIP3    H239214   5.949   0.268   6.304  0.9730  0.1559 -0.0025
13098TIP3   OH239215   0.720   4.887   5.124  0.2191  0.3612 -0.8182
13098TIP3    H139216   0.741   4.978   5.104  0.6551  0.4866  0.1749
13098TIP3    H239217   0.785   4.836   5.077  2.0634  0.7038  1.3122
13099TIP3   OH239218   7.260   1.934   0.439  0.0942 -0.3593 -0.2842
13099TIP3    H139219   7.179   1.949   0.390  0.7734  0.5861 -1.1399
13099TIP3    H239220   7.281   2.020   0.477  2.1180  0.0555 -2.2708
13100TIP3   OH239221   1.080   5.982   6.741 -0.3237  0.1004  0.1184
13100TIP3    H139222   0.998   5.986   6.790 -0.0516  1.7741  0.4524
13100TIP3    H239223   1.075   6.053   6.678  1.1262  0.6277  0.5706
13101TIP3   OH239224   1.701   4.791   0.284 -0.1775  0.3444 -0.0468
13101TIP3    H139225   1.633   4.756   0.340  1.3429 -2.1012  0.3128
13101TIP3    H239226   1.760   4.838   0.343  0.2020 -0.3107  0.0982
13102TIP3   OH239227   3.766   7.505   5.702  0.5038  0.3427  0.3246
13102TIP3    H139228   3.807   7.427   5.666 -0.8336  0.3070 -1.1466
13102TIP3    H239229   3.774   7.571   5.633  3.5149  2.2022  2.3214
13103TIP3   OH239230   3.145   6.596   6.356  0.1201 -0.3444 -0.5174
13103TIP3    H139231   3.237   6.570   6.347  0.7918  2.4211 -2.1716
13103TIP3    H239232   3.108   6.587   6.268 -0.8329 -0.1349 -0.1482
13104TIP3   OH239233   1.815   5.322   5.039 -0.0777  0.3131  0.4827
13104TIP3    H139234   1.836   5.360   5.124  0.9045 -2.5238  1.5605
13104TIP3    H239235   1.786   5.233   5.058  1.6139 -0.9081 -2.2340
13105TIP3   OH239236   8.562   1.417   1.330  0.0991 -0.4237  0.0437
13105TIP3    H139237   8.638   1.360   1.316  0.5441  0.1667 -0.0142
13105TIP3    H239238   8.568   1.442   1.422  0.7248  0.6588 -0.2758
13106TIP3   OH239239   2.288   4.886   5.536 -0.0405 -0.1109 -0.4659
13106TIP3    H139240   2.365   4.865   5.484  1.2069  0.9088  0.9335
13106TIP3    H239241   2.318   4.880   5.627 -2.0271 -1.3091  0.1541
13107TIP3   OH239242   7.281   1.677   0.091 -0.2269 -0.3300  0.3318
13107TIP3    H139243   7.206   1.683   0.151 -1.3075  0.2280 -1.0629
13107TIP3    H239244   7.277   1.588   0.057 -1.4174  0.2941 -1.2139
13108TIP3   OH239245   2.801   5.447   6.554  0.3574  0.0229 -0.2263
13108TIP3    H139246   2.770   5.445   6.464  0.8077 -0.0856 -0.3787
13108TIP3    H239247   2.870   5.513   6.555 -0.3493  0.7726  0.2676
13109TIP3   OH239248   4.572   6.863   6.457  0.6552 -0.5237  0.4402
13109TIP3    H139249   4.554   6.779   6.500 -1.0733 -0.1134  0.5553
13109TIP3    H239250   4.545   6.929   6.521 -0.7729  0.0967 -0.7690
13110TIP3   OH239251   6.149   1.922   0.251 -0.1676  0.0889  0.3964
13110TIP3    H139252   6.174   1.832   0.232  0.4871  0.8109 -2.4667
13110TIP3    H239253   6.211   1.975   0.200 -1.2230  2.1276  1.1692
13111TIP3   OH239254   4.542   8.402   6.863 -0.2121 -1.0259  0.2120
13111TIP3    H139255   4.597   8.378   6.788 -1.3299 -0.0525 -0.9532
13111TIP3    H239256   4.508   8.319   6.896  0.6365 -1.4989 -0.1058
13112TIP3   OH239257   8.621   2.034   0.022  0.0048 -0.1531  0.0956
13112TIP3    H139258   8.626   1.974   0.096  0.1516  0.5779  0.6818
13112TIP3    H239259   8.698   2.014  -0.031  0.9029  0.5967  1.1094
13113TIP3   OH239260   3.382   6.515   6.272 -0.0644 -0.1022 -0.3238
13113TIP3    H139261   3.441   6.590   6.276 -0.4865  0.3687 -2.3305
13113TIP3    H239262   3.390   6.483   6.182 -1.8324 -0.8770 -0.2241
13114TIP3   OH239263   8.769   2.134   1.498  0.0986  0.2483  0.1636
13114TIP3    H139264   8.711   2.159   1.425  0.0575 -1.4304 -0.4007
13114TIP3    H239265   8.808   2.052   1.470 -0.4146 -0.7655  2.3391
13115TIP3   OH239266   4.352   6.735   6.077 -0.5168  0.2493 -0.0068
13115TIP3    H139267   4.321   6.751   6.166  0.0746  1.0787  0.0598
13115TIP3    H239268   4.447   6.729   6.085 -0.1614  3.4902 -0.9878
13116TIP3   OH239269   1.442   5.880   7.041 -0.5079 -0.2759 -0.1365
13116TIP3    H139270   1.473   5.789   7.039 -1.7986 -0.7120 -0.7983
13116TIP3    H239271   1.483   5.921   6.965 -2.8122 -1.2801 -1.9526
13117TIP3   OH239272   8.125   1.488   2.762 -0.0189 -0.1094  0.2866
13117TIP3    H139273   8.047   1.470   2.814  0.0824 -0.0014  0.4752
13117TIP3    H239274   8.186   1.418   2.786 -0.5287 -0.9583 -0.8373
13118TIP3   OH239275   1.675   6.770   6.602 -0.5462  0.1201 -0.0310
13118TIP3    H139276   1.733   6.828   6.553  1.2167 -1.1477  0.5139
13118TIP3    H239277   1.609   6.828   6.640 -1.8830  1.1354 -3.7623
13119TIP3   OH239278   4.263   6.507   6.796  0.0699  0.9658  0.7467
13119TIP3    H139279   4.255   6.412   6.795 -0.3801  1.0056 -0.3908
13119TIP3    H239280   4.174   6.539   6.778  0.7127  1.5557 -1.5650
13120TIP3   OH239281   2.184   8.272   6.768  0.1376  0.0906  0.2725
13120TIP3    H139282   2.147   8.360   6.764 -0.1322 -0.0257  0.1952
13120TIP3    H239283   2.278   8.285   6.756  0.1701  0.4254  0.8372
13121TIP3   OH239284   8.676   5.662   6.670  0.5139  0.1302  0.4911
13121TIP3    H139285   8.593   5.616   6.682 -0.3057  0.4002 -3.3044
13121TIP3    H239286   8.742   5.594   6.681 -0.3510 -0.6193  1.1672
13122TIP3   OH239287   2.864   7.805   6.289 -0.2259 -0.0454 -0.0568
13122TIP3    H139288   2.774   7.819   6.319  0.0105  0.5029  0.3981
13122TIP3    H239289   2.919   7.846   6.356  0.3159  1.0051 -1.1186
13123TIP3   OH239290   3.734   7.115   5.329  0.7358 -0.8238 -0.0055
13123TIP3    H139291   3.806   7.134   5.270 -0.0049 -1.1656 -1.0408
13123TIP3    H239292   3.660   7.164   5.293  0.5033 -0.3107  1.1619
13124TIP3   OH239293   1.385   5.891   6.077 -0.2969  0.1974 -0.0835
13124TIP3    H139294   1.399   5.818   6.016 -1.3951  0.2784 -0.4504
13124TIP3    H239295   1.458   5.886   6.138 -0.6475 -1.5480  0.2182
13125TIP3   OH239296   1.692   3.520   0.370 -0.1421 -0.4148 -0.2088
13125TIP3    H139297   1.615   3.574   0.386  1.3047  1.7818 -0.5572
13125TIP3    H239298   1.712   3.481   0.456 -0.3834  0.7091  0.3692
13126TIP3   OH239299   8.702   1.448   0.103  0.3634  0.1337 -0.3828
13126TIP3    H139300   8.683   1.354   0.105  0.5944  0.0996  0.1631
13126TIP3    H239301   8.774   1.456   0.040  0.7835 -0.1329  0.0651
13127TIP3   OH239302   5.132   4.472   5.446  0.0327  0.3672 -0.0365
13127TIP3    H139303   5.070   4.534   5.407 -2.0839 -2.5051 -1.4127
13127TIP3    H239304   5.199   4.459   5.379 -0.7298 -0.5138 -0.6359
13128TIP3   OH239305   7.117   1.468   5.698  0.2408  0.6671 -0.3239
13128TIP3    H139306   7.137   1.460   5.604 -2.3134  0.8564 -0.9165
13128TIP3    H239307   7.136   1.560   5.718 -0.0983  0.8686 -0.8911
13129TIP3   OH239308   8.122   1.261   0.558  0.1167 -0.0892 -0.4445
13129TIP3    H139309   8.047   1.232   0.610  1.5460 -0.4993  1.4378
13129TIP3    H239310   8.113   1.356   0.554 -0.5375 -0.1430 -0.3059
13130TIP3   OH239311   2.160   7.417   6.337  0.1434  0.5477 -0.4892
13130TIP3    H139312   2.079   7.404   6.386  1.7343 -0.1075  2.0561
13130TIP3    H239313   2.170   7.512   6.333 -2.0648  0.7157 -3.1212
13131TIP3   OH239314   1.364   4.780   6.801  0.2972 -0.6088  0.1385
13131TIP3    H139315   1.323   4.802   6.885  0.1408  0.4819 -0.2226
13131TIP3    H239316   1.344   4.687   6.789  1.4735 -1.1306  1.9594
13132TIP3   OH239317   2.556   6.382   5.308 -0.1289  0.3746 -0.0324
13132TIP3    H139318   2.517   6.404   5.223  0.4006  1.8530  0.0868
13132TIP3    H239319   2.586   6.466   5.343  2.0361 -0.5527  0.4398
13133TIP3   OH239320   2.926   6.850   5.460  0.0901 -0.0867  0.8667
13133TIP3    H139321   3.013   6.890   5.466  0.6304 -1.1237  0.0273
13133TIP3    H239322   2.931   6.774   5.517  0.7718 -1.9674 -1.6352
13134TIP3   OH239323   0.881   6.557   5.844  0.1194  0.2873  0.1014
13134TIP3    H139324   0.874   6.470   5.883  0.3305  0.2565  0.0678
13134TIP3    H239325   0.876   6.541   5.749  0.9180  0.2421  0.0657
13135TIP3   OH239326   1.471   6.922   6.657 -0.8217 -0.2718 -0.0247
13135TIP3    H139327   1.430   7.007   6.644 -0.2407 -0.0921 -0.7149
13135TIP3    H239328   1.406   6.858   6.628 -1.9375 -0.1528  2.1402
13136TIP3   OH239329   4.747   4.473   5.636  0.3895 -0.6417  0.3086
13136TIP3    H139330   4.704   4.420   5.569  0.5412 -1.6016  0.9742
13136TIP3    H239331   4.726   4.431   5.719  3.1125 -1.5105  0.6205
13137TIP3   OH239332   0.913   5.629   6.840  0.2944 -0.4025 -0.2518
13137TIP3    H139333   0.886   5.621   6.931  0.3834  1.5484 -0.0222
13137TIP3    H239334   0.873   5.711   6.810  2.6708  0.5151 -1.0782
13138TIP3   OH239335   8.632   1.874   0.250 -0.0104 -0.0966  0.5843
13138TIP3    H139336   8.704   1.838   0.301  1.4687  1.0243 -0.6539
13138TIP3    H239337   8.576   1.799   0.231  0.9998 -1.0469  1.2900
13139TIP3   OH239338   8.803   0.490   0.525  0.4442  0.4076  0.2778
13139TIP3    H139339   8.814   0.582   0.498 -0.4794  0.5964  0.5354
13139TIP3    H239340   8.798   0.494   0.620  0.5267  0.0705  0.2970
13140TIP3   OH239341   3.253   5.509   5.017  0.1106 -0.2691 -0.1114
13140TIP3    H139342   3.315   5.480   5.084  0.6977 -1.0579 -0.9853
13140TIP3    H239343   3.225   5.596   5.047 -0.2781 -0.9446  1.5841
13141TIP3   OH239344   2.598   8.000   4.769 -0.4284  0.0634 -0.1359
13141TIP3    H139345   2.545   8.079   4.760 -1.9811 -0.7990  1.1189
13141TIP3    H239346   2.648   7.994   4.687 -0.0943  2.4685 -0.1190
13142TIP3   OH239347   2.122   4.902   4.610  0.1166  0.4890  0.0770
13142TIP3    H139348   2.137   4.834   4.544  1.0998 -0.5776  1.3939
13142TIP3    H239349   2.209   4.928   4.638 -0.2567  2.2124 -0.3033
13143TIP3   OH239350   7.002   1.601   2.029 -0.2128 -0.4228 -0.0040
13143TIP3    H139351   6.981   1.527   1.972  2.8027 -1.2847 -0.0490
13143TIP3    H239352   7.029   1.671   1.970 -1.8867  0.3648  0.1182
13144TIP3   OH239353   8.737   2.743   0.147 -0.0645  0.0864  0.2704
13144TIP3    H139354   8.652   2.739   0.105  0.9218 -2.1287 -1.6319
13144TIP3    H239355   8.790   2.798   0.089  0.6835 -1.1734 -0.2591
13145TIP3   OH239356   2.266   5.612   4.416 -0.5999  0.1019 -0.3649
13145TIP3    H139357   2.178   5.578   4.401 -0.6734  0.3654 -0.5301
13145TIP3    H239358   2.267   5.639   4.507 -0.5523 -0.3183 -0.2407
13146TIP3   OH239359   0.106   3.158   0.946  0.0354  0.3306 -0.1194
13146TIP3    H139360   0.125   3.167   0.853  0.3349 -0.8033 -0.1760
13146TIP3    H239361   0.015   3.129   0.949 -0.2066  1.1097 -0.0343
13147TIP3   OH239362   0.709   7.220   5.902  0.5378 -0.0633  0.1472
13147TIP3    H139363   0.773   7.149   5.913  0.9442  0.4357  1.1180
13147TIP3    H239364   0.694   7.252   5.991 -0.2131  0.5666 -0.2050
13148TIP3   OH239365   1.388   8.310   4.943  0.1311 -0.6524 -0.0835
13148TIP3    H139366   1.396   8.240   4.878 -1.9890  1.2629 -2.5472
13148TIP3    H239367   1.306   8.291   4.988  0.1466 -0.4112  0.0478
13149TIP3   OH239368   3.223   6.803   5.379 -0.6292  0.1011  0.0921
13149TIP3    H139369   3.214   6.726   5.324 -1.6670 -1.0609  1.8447
13149TIP3    H239370   3.296   6.784   5.437  0.3406  1.2396 -0.7445
13150TIP3   OH239371   3.798   7.466   4.182 -0.3294 -0.6608  0.5734
13150TIP3    H139372   3.863   7.454   4.112 -2.3840 -1.1298 -1.2959
13150TIP3    H239373   3.792   7.379   4.223 -1.0894 -1.0827 -0.4242
13151TIP3   OH239374   3.453   6.773   5.957  0.5665 -0.0139  0.0569
13151TIP3    H139375   3.402   6.717   5.897  2.0757 -0.4307 -0.8767
13151TIP3    H239376   3.506   6.712   6.007  0.9463  0.4870  0.2648
13152TIP3   OH239377   6.833   0.370   5.441 -0.0325  0.1622 -0.4968
13152TIP3    H139378   6.756   0.416   5.408  1.2093  2.0385 -0.8096
13152TIP3    H239379   6.879   0.434   5.495  1.9141 -0.5794 -1.2184
13153TIP3   OH239380   2.244   5.063   6.768  0.0745  0.2314 -0.0034
13153TIP3    H139381   2.287   5.104   6.693 -1.6461  2.0586 -0.0214
13153TIP3    H239382   2.208   4.982   6.732  1.7705 -0.3594 -0.4393
13154TIP3   OH239383   3.248   6.895   7.002  0.2744 -0.5128 -0.0976
13154TIP3    H139384   3.194   6.819   7.024  1.2023 -1.2194 -0.2387
13154TIP3    H239385   3.246   6.898   6.906 -0.2939  0.0365 -0.0724
13155TIP3   OH239386   3.103   8.357   6.225 -0.5448 -0.4318  0.1001
13155TIP3    H139387   3.039   8.425   6.203 -0.3213 -0.7035 -1.4873
13155TIP3    H239388   3.069   8.279   6.181  0.6871 -0.6562 -0.4663
13156TIP3   OH239389   0.699   5.052   6.372  0.1515 -0.2512 -0.0438
13156TIP3    H139390   0.778   5.053   6.426  0.0414 -0.3859  0.1217
13156TIP3    H239391   0.725   5.007   6.292  0.7039  1.2076 -0.7112
13157TIP3   OH239392   1.783   7.042   5.695  0.1750 -0.8931 -0.3186
13157TIP3    H139393   1.701   7.067   5.651  1.5020  0.7809 -1.9117
13157TIP3    H239394   1.777   6.947   5.705 -1.8261 -0.8217 -0.6990
13158TIP3   OH239395   1.048   5.396   6.194  0.1983  0.5371  0.6949
13158TIP3    H139396   0.967   5.441   6.169  0.4871  1.0958  0.7502
13158TIP3    H239397   1.111   5.423   6.128  0.1492 -0.4979  0.2132
13159TIP3   OH239398   6.991   2.520   0.685 -0.1924 -0.1230  0.3711
13159TIP3    H139399   6.999   2.488   0.595 -0.0690 -0.9600  0.6771
13159TIP3    H239400   7.055   2.591   0.691 -0.9263  0.6297 -0.5059
13160TIP3   OH239401   1.412   6.743   5.352 -0.2951  0.2820 -0.5340
13160TIP3    H139402   1.488   6.741   5.409  0.0952  2.9637 -0.8959
13160TIP3    H239403   1.420   6.664   5.298  1.0476 -0.5795  0.8789
13161TIP3   OH239404   4.244   6.103   6.442 -0.6607  0.1638  0.0518
13161TIP3    H139405   4.220   6.027   6.495 -1.5972 -0.1548 -0.8120
13161TIP3    H239406   4.331   6.082   6.408 -0.5826 -0.1749  0.4602
13162TIP3   OH239407   3.718   5.601   6.524  0.2238 -0.2445  0.1175
13162TIP3    H139408   3.808   5.575   6.544  0.7762  1.6011  0.1310
13162TIP3    H239409   3.670   5.519   6.518  1.7696 -1.2177  0.8017
13163TIP3   OH239410   8.667   2.040   0.520 -0.2055 -0.3557 -0.7890
13163TIP3    H139411   8.731   2.090   0.470 -1.9560  3.2696  0.3860
13163TIP3    H239412   8.662   2.086   0.604 -2.8408 -1.7527 -0.1284
13164TIP3   OH239413   5.292   4.472   7.133 -0.2719 -0.1229  0.1500
13164TIP3    H139414   5.293   4.538   7.063 -0.9083 -0.8506 -0.5525
13164TIP3    H239415   5.280   4.523   7.213 -0.4348  0.6493 -0.3573
13165TIP3   OH239416   0.687   2.757   1.158  0.1640 -0.0278  0.1081
13165TIP3    H139417   0.609   2.807   1.132  0.0168  0.0332  0.6672
13165TIP3    H239418   0.754   2.824   1.174  0.8525 -0.1568 -2.0539
13166TIP3   OH239419   4.603   7.058   5.419  0.9650 -0.1507 -0.2124
13166TIP3    H139420   4.549   6.979   5.419  1.0358 -0.2093  0.7794
13166TIP3    H239421   4.543   7.128   5.445  1.4565 -0.2960  1.3810
13167TIP3   OH239422   0.630   2.299   0.659 -0.1879  0.1666 -0.1476
13167TIP3    H139423   0.631   2.362   0.731 -0.0764  0.8886 -0.7726
13167TIP3    H239424   0.633   2.213   0.702 -0.5404  0.5813  0.7151
13168TIP3   OH239425   1.465   0.354   0.784  0.3015  0.4116 -0.0475
13168TIP3    H139426   1.405   0.280   0.782  0.9367 -0.3574  3.9462
13168TIP3    H239427   1.421   0.423   0.735 -1.5292 -1.7369 -1.4950
13169TIP3   OH239428   2.584   5.970   5.728 -0.0276  0.3696 -0.2162
13169TIP3    H139429   2.678   5.972   5.713  0.4467 -1.0434  2.2108
13169TIP3    H239430   2.552   5.899   5.672  0.3644  0.7982 -0.9851
13170TIP3   OH239431   0.493   0.752   1.054 -1.0954  0.0086  0.4383
13170TIP3    H139432   0.543   0.765   0.973 -0.5051 -0.5922  0.7021
13170TIP3    H239433   0.402   0.766   1.028 -0.9455 -0.5601 -0.4156
13171TIP3   OH239434   8.540   2.463   0.290  0.4110 -0.9480  0.6479
13171TIP3    H139435   8.634   2.469   0.272  0.2101 -0.8411 -0.4247
13171TIP3    H239436   8.520   2.371   0.279  0.1852 -0.7986 -0.2143
13172TIP3   OH239437   0.181   1.901   2.545  0.2481  0.3596 -0.2436
13172TIP3    H139438   0.256   1.848   2.570  0.1462 -0.4200 -1.5539
13172TIP3    H239439   0.212   1.992   2.554  1.1538  0.0525 -0.2434
13173TIP3   OH239440   1.169   5.824   6.962 -0.5884  0.2292 -0.4767
13173TIP3    H139441   1.125   5.880   6.898 -0.5030  2.3990  1.3124
13173TIP3    H239442   1.258   5.859   6.967 -0.4650 -0.2034  0.4966
13174TIP3   OH239443   8.327   1.913   1.758 -0.0843  0.4057  0.3249
13174TIP3    H139444   8.256   1.940   1.700 -0.7802  0.4160  1.1720
13174TIP3    H239445   8.324   1.817   1.758  0.3855  0.3863 -0.2228
13175TIP3   OH239446   2.498   6.713   5.123  0.4683 -0.4997 -0.5530
13175TIP3    H139447   2.459   6.638   5.077  0.8247 -0.9038 -0.2003
13175TIP3    H239448   2.591   6.692   5.129  0.2642 -0.9662  1.3087
13176TIP3   OH239449   0.698   5.822   4.490 -0.1680  0.2703 -0.3064
13176TIP3    H139450   0.662   5.792   4.406 -1.8993 -1.1680  0.9027
13176TIP3    H239451   0.624   5.818   4.551  1.3968 -0.1267  1.6281
13177TIP3   OH239452   5.150   0.058   7.286  0.2074  0.0500  0.1885
13177TIP3    H139453   5.219   0.102   7.235  0.0819 -0.8848 -0.8115
13177TIP3    H239454   5.101   0.007   7.221 -0.1294 -0.9519  1.2111
13178TIP3   OH239455   6.260   3.148   0.426 -0.1836 -0.8040 -0.6918
13178TIP3    H139456   6.279   3.106   0.510 -1.6718  0.8281  0.5001
13178TIP3    H239457   6.344   3.179   0.394  0.3026 -0.9397  0.4669
13179TIP3   OH239458   1.709   4.074   0.210  0.1004  0.2226  0.5179
13179TIP3    H139459   1.704   4.063   0.115  0.8116  2.0523  0.2354
13179TIP3    H239460   1.784   4.021   0.236  0.2061  0.1014 -0.0241
13180TIP3   OH239461   2.892   6.614   6.501  0.4388  0.0916  0.0266
13180TIP3    H139462   2.949   6.568   6.439  2.0489  1.3808  0.4883
13180TIP3    H239463   2.953   6.652   6.565 -0.8136  2.7575 -0.2931
13181TIP3   OH239464   4.845   4.996   6.780 -0.4796 -0.8338 -0.2011
13181TIP3    H139465   4.938   4.978   6.764 -0.3395 -0.1953 -0.1063
13181TIP3    H239466   4.803   4.977   6.696  0.0662  1.1883 -0.9630
13182TIP3   OH239467   5.276   7.952   6.851  0.8127  0.2261  0.5661
13182TIP3    H139468   5.294   8.038   6.887  1.7983  0.5806 -0.7437
13182TIP3    H239469   5.357   7.926   6.808 -0.0294 -0.5678 -0.6058
13183TIP3   OH239470   3.959   6.610   6.759  0.2235  0.2885 -0.0604
13183TIP3    H139471   3.907   6.529   6.764 -0.2036  0.6201  1.0434
13183TIP3    H239472   3.986   6.615   6.667 -0.3385 -0.7377 -0.2963
13184TIP3   OH239473   7.720   1.367   3.865  0.1487  0.3478 -0.1675
13184TIP3    H139474   7.657   1.368   3.937 -1.2764  2.0465 -1.4047
13184TIP3    H239475   7.770   1.448   3.875 -0.1696  0.6762 -1.1725
13185TIP3   OH239476   1.846   6.579   4.977  0.7229 -0.2435  0.1387
13185TIP3    H139477   1.874   6.606   4.890  0.4233 -0.3430  0.0122
13185TIP3    H239478   1.814   6.660   5.018 -0.5380 -0.4729 -0.3795
13186TIP3   OH239479   1.970   1.763   0.902  0.1248  0.4730 -0.1596
13186TIP3    H139480   1.989   1.854   0.879  0.0626  0.0224 -2.1057
13186TIP3    H239481   1.919   1.730   0.828 -0.8443 -0.8174  1.0635
13187TIP3   OH239482   8.829   0.786   0.467 -0.4944  0.0749  0.0418
13187TIP3    H139483   8.769   0.817   0.399 -0.5688 -0.3091 -0.0667
13187TIP3    H239484   8.784   0.808   0.549 -0.9022 -0.4471 -0.0427
13188TIP3   OH239485   2.712   5.018   6.781 -0.2454  0.2213  0.1468
13188TIP3    H139486   2.686   5.110   6.771  2.0587  0.9339  0.3793
13188TIP3    H239487   2.653   4.970   6.724 -0.4854  2.0416 -1.1855
13189TIP3   OH239488   7.698   6.131   7.159  0.0826 -0.4041 -0.0913
13189TIP3    H139489   7.626   6.188   7.188  0.3551 -1.1026  2.0216
13189TIP3    H239490   7.658   6.075   7.093 -0.9614  0.1914  0.0135
13190TIP3   OH239491   4.201   7.738   6.795 -0.1716  0.5148  0.3941
13190TIP3    H139492   4.236   7.753   6.883 -1.0293  0.8441  0.6816
13190TIP3    H239493   4.112   7.706   6.810  0.2683 -1.0653 -0.3193
13191TIP3   OH239494   2.599   5.982   6.714 -0.2246  0.1570 -0.3172
13191TIP3    H139495   2.617   6.051   6.650  0.5140  0.7921  0.5635
13191TIP3    H239496   2.623   5.901   6.668  0.0165  0.5767 -0.9530
13192TIP3   OH239497   4.188   5.166   4.984  0.8785  0.1050 -0.5644
13192TIP3    H139498   4.094   5.185   4.979  1.0202  0.5976 -1.5791
13192TIP3    H239499   4.203   5.142   5.075 -0.0401  1.0570 -0.1504
13193TIP3   OH239500   2.886   7.032   5.997  0.1507 -0.3007 -0.0991
13193TIP3    H139501   2.862   6.941   5.981  2.1815 -1.0892  1.1548
13193TIP3    H239502   2.974   7.040   5.961  0.2999  0.9569  0.5370
13194TIP3   OH239503   4.172   6.931   6.659 -0.1140  0.0293 -0.0440
13194TIP3    H139504   4.258   6.951   6.624  0.0323  1.0117  0.8527
13194TIP3    H239505   4.161   6.991   6.734 -1.3355 -0.4576  0.1911
13195TIP3   OH239506   1.830   6.701   4.291 -0.4747  0.3228 -0.0104
13195TIP3    H139507   1.863   6.684   4.203 -0.6190  0.9201 -0.1795
13195TIP3    H239508   1.745   6.744   4.278 -0.0455  1.3236  0.4093
13196TIP3   OH239509   7.531   2.305   1.268 -0.3198  0.0258  0.2231
13196TIP3    H139510   7.509   2.215   1.243  1.2377 -0.2989 -0.0543
13196TIP3    H239511   7.565   2.345   1.188 -1.6798  1.1079  0.1580
13197TIP3   OH239512   1.939   8.113   6.827  0.0696 -0.0614 -0.3415
13197TIP3    H139513   1.881   8.165   6.772 -0.9170  0.7020  1.3717
13197TIP3    H239514   2.023   8.159   6.824 -0.4103  0.8542  0.0455
13198TIP3   OH239515   5.817   3.069   5.099  0.0941  0.2034 -0.0745
13198TIP3    H139516   5.794   3.149   5.052  0.4762  0.6519  0.5019
13198TIP3    H239517   5.803   3.090   5.192  0.0417 -0.4458  0.0698
13199TIP3   OH239518   1.597   2.035   0.271  0.3166 -0.2739  0.3713
13199TIP3    H139519   1.512   2.010   0.236  0.7743 -0.4217 -0.6570
13199TIP3    H239520   1.657   1.966   0.242  0.7618 -0.2668  1.2351
13200TIP3   OH239521   8.544   5.416   3.468  0.5739 -0.7780 -0.5609
13200TIP3    H139522   8.450   5.414   3.450  0.3608 -0.4682  0.4562
13200TIP3    H239523   8.574   5.497   3.427  0.0674 -0.0006  0.5388
13201TIP3   OH239524   1.049   1.414   0.357  0.3277  0.4373  0.3016
13201TIP3    H139525   0.964   1.442   0.390 -0.6998  0.1851 -2.0173
13201TIP3    H239526   1.092   1.496   0.329 -0.2420  0.3371 -0.9271
13202TIP3   OH239527   2.733   6.579   5.675  0.4093  0.1645  0.6608
13202TIP3    H139528   2.821   6.572   5.714 -0.0897 -0.2914  1.7372
13202TIP3    H239529   2.674   6.580   5.750 -0.4842  1.0374 -0.0430
13203TIP3   OH239530   0.777   4.802   7.177  0.1839  0.2733  0.3381
13203TIP3    H139531   0.867   4.828   7.196  0.9508 -1.0222 -1.3780
13203TIP3    H239532   0.726   4.882   7.188  1.3182  0.7210  2.6643
13204TIP3   OH239533   3.796   7.506   6.232  0.1993  0.9382 -0.8839
13204TIP3    H139534   3.886   7.537   6.243  0.7820 -0.7385 -0.7579
13204TIP3    H239535   3.764   7.493   6.321  0.7100 -0.8546 -0.9362
13205TIP3   OH239536   8.146   0.860   0.858  0.1037  0.2011 -0.2131
13205TIP3    H139537   8.140   0.846   0.763 -0.7109 -1.9530  0.1262
13205TIP3    H239538   8.207   0.793   0.888  0.1630  0.7087  0.8170
13206TIP3   OH239539   8.132   3.223   0.466  0.1850 -0.1765 -0.9205
13206TIP3    H139540   8.161   3.227   0.375  0.8674 -1.7847 -0.7873
13206TIP3    H239541   8.177   3.147   0.502  2.1671  2.0972  1.5755
13207TIP3   OH239542   2.776   7.782   4.004  0.1955 -0.4153  0.0423
13207TIP3    H139543   2.739   7.701   4.040 -0.3172 -0.3534 -0.3347
13207TIP3    H239544   2.827   7.754   3.929  0.4529 -0.4420  0.2270
13208TIP3   OH239545   4.798   8.175   6.207  0.5882 -0.1085 -0.2786
13208TIP3    H139546   4.813   8.118   6.282 -2.6204 -0.7113 -0.0427
13208TIP3    H239547   4.809   8.118   6.131 -0.8751 -0.6555 -0.0941
13209TIP3   OH239548   1.955   5.874   6.176 -0.0607  0.3110 -0.6508
13209TIP3    H139549   1.882   5.812   6.178  0.5128 -0.3390  2.9466
13209TIP3    H239550   2.032   5.820   6.156 -0.1893  0.6077 -1.9882
13210TIP3   OH239551   1.414   0.105   1.601  0.4022  0.2328  0.4947
13210TIP3    H139552   1.416   0.146   1.515 -0.9271  0.2637  0.4745
13210TIP3    H239553   1.476   0.032   1.595  0.6613  0.5193 -0.3311
13211TIP3   OH239554   4.506   7.509   6.104 -0.0176  0.4070 -0.1080
13211TIP3    H139555   4.584   7.557   6.132 -0.0565  0.0200  0.6955
13211TIP3    H239556   4.523   7.487   6.012  1.0882 -0.1809  0.2175
13212TIP3   OH239557   2.166   7.806   5.229  0.3774 -0.2826  0.4898
13212TIP3    H139558   2.145   7.713   5.230 -0.4281 -0.1202 -0.7618
13212TIP3    H239559   2.085   7.849   5.258  0.9885 -0.0030  1.8345
13213TIP3   OH239560   7.076   0.063   5.935 -0.3070 -0.1594  0.5098
13213TIP3    H139561   7.146   0.128   5.929 -0.5926  0.1377  0.4066
13213TIP3    H239562   7.058   0.040   5.844 -0.1692 -0.4238  0.5487
13214TIP3   OH239563   1.136   3.819   0.655  0.2037 -0.3823  0.1352
13214TIP3    H139564   1.147   3.772   0.738 -0.2711 -0.8820 -0.0879
13214TIP3    H239565   1.084   3.896   0.678  2.0204  0.7003  0.7362
13215TIP3   OH239566   3.985   7.403   5.591  0.3952 -0.5604 -0.2123
13215TIP3    H139567   4.060   7.389   5.649 -1.1681 -0.5932  1.8561
13215TIP3    H239568   4.018   7.381   5.504  3.5440  1.8522  0.2556
13216TIP3   OH239569   8.638   5.944   6.770 -0.4792 -0.6298  0.1591
13216TIP3    H139570   8.636   5.854   6.801 -0.8475 -0.4514  0.6610
13216TIP3    H239571   8.591   5.942   6.687 -1.7535 -0.6430  0.8672
13217TIP3   OH239572   2.815   6.926   6.674 -0.4785 -0.6283  0.4570
13217TIP3    H139573   2.866   6.847   6.692 -0.4455 -0.8363 -0.4991
13217TIP3    H239574   2.815   6.932   6.578  1.0121  1.5059  0.5603
13218TIP3   OH239575   1.455   7.060   7.189  0.0852  0.1347  0.3538
13218TIP3    H139576   1.501   7.053   7.105  0.2684 -1.8289  0.6007
13218TIP3    H239577   1.524   7.073   7.254  0.1604 -0.9384  0.4986
13219TIP3   OH239578   0.217   2.329   0.338 -0.0490  0.1052  0.4546
13219TIP3    H139579   0.221   2.376   0.255 -1.4424 -0.7163 -0.1111
13219TIP3    H239580   0.270   2.381   0.398  1.0926  0.6338 -0.9838
13220TIP3   OH239581   7.104   2.307   0.468 -0.4843  0.8624  0.0554
13220TIP3    H139582   7.049   2.236   0.433 -0.3730  0.1883  1.2255
13220TIP3    H239583   7.104   2.373   0.399 -2.4821  0.7234 -0.1019
13221TIP3   OH239584   0.738   1.853   0.177  0.0552  0.5050 -0.1552
13221TIP3    H139585   0.723   1.941   0.142 -2.5131  0.2937  0.2847
13221TIP3    H239586   0.755   1.866   0.270  1.1613  0.6265 -0.3644
13222TIP3   OH239587   8.755   1.590   0.326  0.2531  0.2952 -0.8691
13222TIP3    H139588   8.750   1.552   0.238 -0.9300  0.0959 -0.7191
13222TIP3    H239589   8.700   1.533   0.380 -1.8073  2.3921 -0.6892
13223TIP3   OH239590   1.220   5.371   7.214  0.1774  0.6291 -0.1886
13223TIP3    H139591   1.203   5.371   7.119 -0.6009 -2.7103 -0.1106
13223TIP3    H239592   1.315   5.375   7.220  0.2707  0.1997 -1.1432
13224TIP3   OH239593   7.805   1.319   0.971 -0.5479  0.3651 -0.0916
13224TIP3    H139594   7.738   1.298   0.906  0.7139 -0.2432 -1.2313
13224TIP3    H239595   7.826   1.411   0.955 -0.2016  0.2027 -0.5956
13225TIP3   OH239596   3.023   5.193   6.068 -0.2018 -0.0505 -0.4894
13225TIP3    H139597   3.069   5.128   6.014  0.5620 -1.8939  2.2615
13225TIP3    H239598   3.078   5.271   6.063  1.6808 -1.2835  0.3217
13226TIP3   OH239599   7.406   2.380   0.333 -0.3614 -0.7393 -0.4906
13226TIP3    H139600   7.456   2.459   0.314 -1.1095  0.5398  2.4716
13226TIP3    H239601   7.315   2.404   0.315 -0.6834 -0.6390  1.2180
13227TIP3   OH239602   8.701   5.118   6.541  0.0666  0.3154 -0.3438
13227TIP3    H139603   8.609   5.094   6.551  0.0472  1.0580  1.4954
13227TIP3    H239604   8.735   5.116   6.630  1.3549  1.9690 -0.7907
13228TIP3   OH239605   6.515   0.245   0.634  0.1500  0.0590  0.2214
13228TIP3    H139606   6.588   0.248   0.573  1.9674 -0.7894  2.2835
13228TIP3    H239607   6.505   0.334   0.666 -0.1911  0.3103 -0.5665
13229TIP3   OH239608   3.061   6.343   6.996  0.3874 -0.0703  0.0109
13229TIP3    H139609   3.006   6.418   7.017 -0.5162 -0.2234 -1.7478
13229TIP3    H239610   3.026   6.271   7.049 -0.0313  0.2524  0.1711
13230TIP3   OH239611   2.721   7.791   5.115 -0.2585  0.7187  0.0908
13230TIP3    H139612   2.713   7.729   5.188 -0.5935 -0.8167 -1.2112
13230TIP3    H239613   2.690   7.874   5.151 -3.4228 -0.6853  0.8640
13231TIP3   OH239614   2.181   6.358   6.199  0.0991 -0.7737  0.5417
13231TIP3    H139615   2.197   6.279   6.147  1.0735 -0.4983  0.4148
13231TIP3    H239616   2.229   6.427   6.154  0.4279 -0.3996  1.4462
13232TIP3   OH239617   0.100   1.657   1.456  0.4740 -0.0432  0.0321
13232TIP3    H139618   0.176   1.650   1.397  1.0860 -2.0317  1.0142
13232TIP3    H239619   0.062   1.569   1.455  0.4039 -0.0507  2.4881
13233TIP3   OH239620   0.640   1.662   0.030 -0.5297 -0.4741  0.6033
13233TIP3    H139621   0.545   1.662   0.021 -0.5248  1.3530  0.3745
13233TIP3    H239622   0.659   1.736   0.087  0.8100 -0.3953  0.0708
13234TIP3   OH239623   1.448   7.188   5.798  0.2015  0.1382 -0.5267
13234TIP3    H139624   1.450   7.270   5.847  1.3142 -0.4936  0.5218
13234TIP3    H239625   1.458   7.215   5.706 -2.1231  1.3447 -0.4575
13235TIP3   OH239626   0.447   4.104   0.630  0.3948 -0.5278 -0.3737
13235TIP3    H139627   0.467   4.085   0.722 -1.1715 -0.3303  0.0220
13235TIP3    H239628   0.493   4.186   0.612  1.8654 -1.3106 -0.1802
13236TIP3   OH239629   2.975   2.725   0.593  0.5050  0.5337 -0.4688
13236TIP3    H139630   2.949   2.637   0.565  0.1255  0.7314 -0.7275
13236TIP3    H239631   2.900   2.780   0.573  0.0576  0.6046  1.2890
13237TIP3   OH239632   2.631   5.502   4.772  0.0245  0.3188  0.0278
13237TIP3    H139633   2.548   5.549   4.777  0.7051  1.5284  0.1939
13237TIP3    H239634   2.624   5.449   4.692 -0.8914  0.4199  0.0367
13238TIP3   OH239635   4.411   5.211   6.054  0.2516 -0.5843  0.0788
13238TIP3    H139636   4.449   5.295   6.028  1.5176 -0.3224  2.6635
13238TIP3    H239637   4.317   5.222   6.036  0.3618  1.4563  0.5709
13239TIP3   OH239638   2.938   2.076   0.523 -1.1405 -0.3045 -0.8472
13239TIP3    H139639   2.955   2.010   0.455 -0.0514  0.0885 -0.9650
13239TIP3    H239640   2.908   2.153   0.474  2.0886  0.8369 -1.1534
13240TIP3   OH239641   3.660   7.164   5.596 -0.1342 -0.0045 -0.2610
13240TIP3    H139642   3.676   7.082   5.641 -0.2761 -0.0441 -0.2822
13240TIP3    H239643   3.706   7.155   5.512  0.4321  0.2108  0.0244
13241TIP3   OH239644   4.448   7.830   5.366  0.1932 -0.2763  0.2506
13241TIP3    H139645   4.372   7.790   5.323  0.2487  0.1059 -0.2116
13241TIP3    H239646   4.492   7.758   5.409 -1.0247 -0.3489  1.4232
13242TIP3   OH239647   0.514   2.558   1.958  0.1941  0.2349 -0.1824
13242TIP3    H139648   0.553   2.504   1.890  0.6437  1.5355 -0.9539
13242TIP3    H239649   0.580   2.623   1.979 -0.4495  0.6578  0.5698
13243TIP3   OH239650   4.712   7.063   5.849 -0.0954 -0.3283 -0.3678
13243TIP3    H139651   4.786   7.085   5.906 -1.2722  0.7781  0.8016
13243TIP3    H239652   4.745   7.075   5.760  1.1353  0.0910  0.1344
13244TIP3   OH239653   1.989   2.649   0.138 -0.2085  0.2911 -0.3043
13244TIP3    H139654   1.991   2.688   0.225 -0.8565 -1.3943  0.4915
13244TIP3    H239655   1.896   2.649   0.113 -0.2899 -1.1917 -0.0623
13245TIP3   OH239656   4.888   6.982   6.113 -0.0114 -0.0077  0.4103
13245TIP3    H139657   4.947   7.050   6.083 -1.2215  0.4789 -0.9292
13245TIP3    H239658   4.945   6.914   6.150  1.4146  0.1614 -1.4458
13246TIP3   OH239659   4.839   6.099   6.448 -0.0031 -0.1407 -0.1552
13246TIP3    H139660   4.794   6.109   6.365  1.3361 -0.6014 -0.9488
13246TIP3    H239661   4.780   6.043   6.500  0.5746 -2.4900 -1.9227
13247TIP3   OH239662   2.958   5.705   5.354 -0.0043  0.7479  0.0288
13247TIP3    H139663   2.918   5.664   5.277  0.4358  1.6673 -0.6965
13247TIP3    H239664   3.044   5.664   5.361  0.4569  1.5645 -0.7286
13248TIP3   OH239665   5.726   5.132   4.553  0.6631  0.0230  0.2809
13248TIP3    H139666   5.728   5.153   4.459  0.4286 -0.2264  0.2180
13248TIP3    H239667   5.638   5.159   4.581 -0.8143 -3.6170 -0.4623
13249TIP3   OH239668   1.618   1.879   0.589 -0.7500 -0.2324 -0.4441
13249TIP3    H139669   1.653   1.860   0.676  0.1214  0.4558 -0.6367
13249TIP3    H239670   1.548   1.815   0.577 -1.1630 -0.0685  0.9388
13250TIP3   OH239671   4.498   6.232   5.641 -0.3757  0.0724 -0.2657
13250TIP3    H139672   4.531   6.175   5.710 -0.8379  0.2730  0.1276
13250TIP3    H239673   4.533   6.319   5.663  0.6515 -0.1200 -1.0789
13251TIP3   OH239674   6.837   2.081   0.059 -0.4324  0.1121 -0.1444
13251TIP3    H139675   6.769   2.042   0.114 -0.3123  0.9853  0.6390
13251TIP3    H239676   6.873   2.008   0.009 -1.1902 -0.5363  0.2551
13252TIP3   OH239677   4.891   6.103   6.791 -0.3618 -0.5701  0.2527
13252TIP3    H139678   4.891   6.137   6.701 -1.2092 -2.0141 -0.3008
13252TIP3    H239679   4.979   6.070   6.804 -0.2118 -0.2800 -0.0124
13253TIP3   OH239680   3.708   5.198   6.996 -0.3439 -0.6270  0.7636
13253TIP3    H139681   3.657   5.155   7.065 -1.6295 -0.7408 -0.2288
13253TIP3    H239682   3.643   5.248   6.946  0.6893  0.0966  0.1188
13254TIP3   OH239683   2.391   1.439   0.774 -0.3718 -0.5465  0.3891
13254TIP3    H139684   2.305   1.480   0.785  0.3409  0.6399  1.5979
13254TIP3    H239685   2.391   1.367   0.838  0.2321  0.6010  1.6906
13255TIP3   OH239686   3.837   7.149   4.640 -0.3885 -0.2135 -0.1865
13255TIP3    H139687   3.809   7.143   4.549  0.6621 -0.8475 -0.4691
13255TIP3    H239688   3.869   7.239   4.649 -0.8537 -0.0279 -0.3262
13256TIP3   OH239689   2.282   5.031   0.716 -0.0046 -0.1269 -0.0332
13256TIP3    H139690   2.296   5.111   0.665  0.3535 -0.5072 -0.5394
13256TIP3    H239691   2.280   5.060   0.807 -0.8918  0.5959 -0.2694
13257TIP3   OH239692   8.548   0.361   0.881  0.3071  0.1254 -0.0591
13257TIP3    H139693   8.503   0.445   0.891 -0.0678  0.0832 -1.3153
13257TIP3    H239694   8.518   0.327   0.797  0.5264 -1.2380  0.4002
13258TIP3   OH239695   5.610   6.812   5.375  0.5661  0.8702 -0.0347
13258TIP3    H139696   5.524   6.826   5.414 -0.0123 -0.1376 -0.9231
13258TIP3    H239697   5.592   6.791   5.284  1.6294 -1.2109  0.2083
13259TIP3   OH239698   6.542   3.191   5.730  0.1721  0.0746  0.1836
13259TIP3    H139699   6.591   3.143   5.664 -0.6135  0.2298 -0.5276
13259TIP3    H239700   6.568   3.282   5.718 -1.0690  0.2968 -0.8976
13260TIP3   OH239701   5.081   5.982   6.386  0.5047  0.0855 -0.2554
13260TIP3    H139702   5.072   5.887   6.395  0.2959  0.1668  0.4352
13260TIP3    H239703   4.991   6.015   6.382  0.5904  0.1401 -1.7585
13261TIP3   OH239704   5.205   6.964   3.958 -0.1005 -0.5048 -0.3446
13261TIP3    H139705   5.264   7.019   4.009  0.6514  0.1572 -1.8753
13261TIP3    H239706   5.161   7.025   3.898  0.1601 -1.4314 -1.5081
13262TIP3   OH239707   4.355   4.980   5.695 -0.4814 -0.1154  0.3808
13262TIP3    H139708   4.369   4.938   5.780 -2.7566  0.3387  1.0112
13262TIP3    H239709   4.341   4.908   5.634 -0.9655 -0.3819  0.8037
13263TIP3   OH239710   3.105   3.352   1.173  0.0779 -0.4343  0.2836
13263TIP3    H139711   3.118   3.353   1.079 -0.7702 -0.8763  0.1525
13263TIP3    H239712   3.186   3.387   1.210  1.1125 -1.9215 -0.5386
13264TIP3   OH239713   3.515   6.778   5.145  0.1454  0.3627 -0.2383
13264TIP3    H139714   3.583   6.792   5.080  0.8134 -1.2894  0.0781
13264TIP3    H239715   3.495   6.865   5.180  0.6124  1.1005 -1.8062
13265TIP3   OH239716   3.212   5.082   5.082 -0.3002  0.0652 -0.2928
13265TIP3    H139717   3.155   5.079   5.006  1.6451  0.4803 -1.8076
13265TIP3    H239718   3.294   5.118   5.049  1.1807 -1.4581  1.6065
13266TIP3   OH239719   3.839   6.086   6.177 -0.1951  0.2941 -0.0940
13266TIP3    H139720   3.761   6.070   6.230 -0.9323 -1.2981 -1.6227
13266TIP3    H239721   3.819   6.048   6.092  2.5829 -0.9951 -0.2578
13267TIP3   OH239722   4.383   6.637   3.831 -0.0383  0.5810  0.2048
13267TIP3    H139723   4.436   6.638   3.911 -0.5375  0.9550  0.5323
13267TIP3    H239724   4.333   6.718   3.835 -2.1820 -0.7307  0.9483
13268TIP3   OH239725   5.343   4.984   4.729  0.3194 -0.1172 -0.2127
13268TIP3    H139726   5.340   5.003   4.636 -1.2868  0.1939 -0.1025
13268TIP3    H239727   5.271   4.922   4.744  1.6423 -1.5120  0.5176
13269TIP3   OH239728   3.994   7.409   6.562  0.8072 -0.0458  0.2393
13269TIP3    H139729   3.977   7.317   6.543 -1.3339  0.0413  1.5593
13269TIP3    H239730   3.908   7.451   6.555  1.3476  1.4173  1.9171
13270TIP3   OH239731   2.894   7.602   4.435 -0.2659  0.8445 -0.4347
13270TIP3    H139732   2.963   7.654   4.474  0.6026 -0.0613 -0.7463
13270TIP3    H239733   2.933   7.516   4.420 -1.3743  0.3924 -0.8435
13271TIP3   OH239734   2.598   5.719   5.555 -0.1120  0.3124  0.6474
13271TIP3    H139735   2.632   5.646   5.504 -0.8657 -1.0273  2.0049
13271TIP3    H239736   2.531   5.758   5.499 -0.6263 -0.8711  0.4045
13272TIP3   OH239737   6.484   7.105   6.983  0.1905 -0.1142 -0.1031
13272TIP3    H139738   6.444   7.031   6.936 -2.0926  1.5728 -0.9378
13272TIP3    H239739   6.523   7.066   7.061  1.0367 -2.5013 -1.6694
13273TIP3   OH239740   4.262   6.767   6.418 -0.1897  0.2573  0.3120
13273TIP3    H139741   4.200   6.781   6.490  0.2331  1.0352  0.5279
13273TIP3    H239742   4.220   6.810   6.343 -0.3814 -0.0868  0.2242
13274TIP3   OH239743   4.966   4.688   4.530  0.1413  0.1770  0.1479
13274TIP3    H139744   4.878   4.682   4.568  0.4048 -1.0623  0.5730
13274TIP3    H239745   4.965   4.625   4.458  0.6266  0.2936  0.0387
13275TIP3   OH239746   0.056   2.768   1.758  0.0015 -0.0794  0.1668
13275TIP3    H139747   0.052   2.863   1.761  1.1802 -0.0160 -0.0916
13275TIP3    H239748   0.147   2.747   1.779 -0.6438 -1.2254  1.9442
13276TIP3   OH239749   4.088   5.915   4.589 -0.0957  0.3469 -0.1114
13276TIP3    H139750   4.020   5.939   4.652 -1.6691 -3.3597 -0.2450
13276TIP3    H239751   4.164   5.893   4.644 -0.5471 -0.1246  0.3320
13277TIP3   OH239752   4.406   7.998   6.322  0.2733  0.1470 -0.1286
13277TIP3    H139753   4.318   8.036   6.315  0.9922  2.0556  1.0608
13277TIP3    H239754   4.417   7.979   6.415  0.9529 -0.5179 -0.3393
13278TIP3   OH239755   4.275   4.694   5.626 -0.6625 -0.4138 -0.2920
13278TIP3    H139756   4.197   4.693   5.572 -0.5140 -0.6600 -0.5058
13278TIP3    H239757   4.265   4.618   5.684 -1.2251  0.3422  0.6103
13279TIP3   OH239758   2.876   5.961   5.405  0.1083 -0.1276  0.8147
13279TIP3    H139759   2.902   5.870   5.391 -1.1689 -0.8823  3.0135
13279TIP3    H239760   2.802   5.974   5.346  1.7064  0.2279 -1.1716
13280TIP3   OH239761   3.463   6.823   4.400  0.2161 -0.6632 -0.4538
13280TIP3    H139762   3.517   6.777   4.464  1.1483 -0.2279 -0.9229
13280TIP3    H239763   3.382   6.772   4.396  0.2458 -0.8362  0.8857
13281TIP3   OH239764   4.376   0.929   5.832 -0.0822 -0.0033 -0.2809
13281TIP3    H139765   4.432   1.007   5.832  0.3037 -0.2715 -1.6560
13281TIP3    H239766   4.321   0.938   5.754  0.0442 -1.1572 -0.5172
13282TIP3   OH239767   3.294   4.915   6.395  0.1921  0.2886 -0.1502
13282TIP3    H139768   3.265   4.954   6.312 -0.5636  0.9720  0.4247
13282TIP3    H239769   3.236   4.839   6.407  0.5302 -0.0134 -0.4161
13283TIP3   OH239770   5.623   7.897   6.204  0.0198 -0.5452 -0.1824
13283TIP3    H139771   5.561   7.827   6.187 -0.2133 -0.6640  1.1090
13283TIP3    H239772   5.683   7.896   6.130 -0.6359 -1.4009 -0.6924
13284TIP3   OH239773   4.698   5.360   6.483  0.3634 -0.4795 -0.3633
13284TIP3    H139774   4.740   5.318   6.408  0.9503 -0.2751 -0.1524
13284TIP3    H239775   4.634   5.296   6.514  0.1300 -0.5688 -1.0268
13285TIP3   OH239776   2.876   7.766   6.017 -0.2310 -0.2418 -0.0103
13285TIP3    H139777   2.888   7.787   6.109  0.8100 -0.1789 -0.1469
13285TIP3    H239778   2.781   7.766   6.003 -0.3386  1.1105  0.7343
13286TIP3   OH239779   4.130   6.618   5.981  0.6222 -0.1094 -0.1492
13286TIP3    H139780   4.210   6.667   5.995 -0.1805  0.6721  1.8109
13286TIP3    H239781   4.082   6.668   5.915 -0.5317  2.1994  2.3740
13287TIP3   OH239782   5.581   6.754   4.837 -0.0276 -0.2151 -0.2189
13287TIP3    H139783   5.489   6.746   4.810 -0.7692  1.1349  1.7498
13287TIP3    H239784   5.617   6.823   4.781 -0.9190  0.9970  0.6838
13288TIP3   OH239785   2.391   7.738   4.941  0.1179 -0.3590  0.9429
13288TIP3    H139786   2.307   7.739   4.895  0.5140  0.4148  0.2314
13288TIP3    H239787   2.387   7.659   4.995  1.1551 -3.4773 -3.2672
13289TIP3   OH239788   2.611   3.437   0.957  0.0218  0.6095 -0.2656
13289TIP3    H139789   2.698   3.457   0.923  0.8857  0.5839  1.8491
13289TIP3    H239790   2.598   3.344   0.936  0.3793  0.6902 -0.8505
13290TIP3   OH239791   4.133   7.166   7.128 -0.2846  0.2830  0.4675
13290TIP3    H139792   4.161   7.081   7.162  1.8752  0.3136 -1.1079
13290TIP3    H239793   4.040   7.172   7.150 -0.4129 -2.3849  0.7880
13291TIP3   OH239794   1.726   1.506   0.883  0.0559  0.5388 -0.3629
13291TIP3    H139795   1.665   1.468   0.819 -0.6439 -0.6829  0.9981
13291TIP3    H239796   1.796   1.544   0.830 -1.2269  0.8046 -1.9099
13292TIP3   OH239797   6.291   5.579   5.592 -0.0223 -0.1330 -0.2646
13292TIP3    H139798   6.220   5.516   5.576 -0.3762 -0.0326  0.8420
13292TIP3    H239799   6.283   5.600   5.685  0.0832  1.5681 -0.6238
13293TIP3   OH239800   4.646   7.937   3.981 -0.3200  0.3526 -0.1860
13293TIP3    H139801   4.640   7.957   3.887  0.6872  1.5488 -0.0129
13293TIP3    H239802   4.694   7.854   3.984 -2.7833 -1.1608 -0.8275
13294TIP3   OH239803   4.254   6.807   4.489 -0.2688 -0.5621  0.0309
13294TIP3    H139804   4.320   6.798   4.558  0.4411 -0.8146 -0.6823
13294TIP3    H239805   4.197   6.878   4.520 -0.4621 -1.2440  1.2921
13295TIP3   OH239806   3.863   6.297   7.051 -0.5327  0.0966 -0.2804
13295TIP3    H139807   3.792   6.234   7.063  2.2678 -2.8119  1.7791
13295TIP3    H239808   3.922   6.255   6.989  0.7418  1.2766  0.1157
13296TIP3   OH239809   4.150   4.637   6.453 -0.4910 -0.2687  0.6707
13296TIP3    H139810   4.071   4.604   6.498 -0.5421 -1.3968 -0.2175
13296TIP3    H239811   4.133   4.620   6.361  0.5228  0.0923  0.4214
13297TIP3   OH239812   3.703   4.732   7.007 -0.6008 -0.4546  0.8471
13297TIP3    H139813   3.691   4.691   7.093 -1.2066  0.3599  1.1618
13297TIP3    H239814   3.729   4.821   7.027  0.8951 -0.7325  0.1581
13298TIP3   OH239815   3.852   6.387   5.132 -0.0878 -0.4441 -0.0961
13298TIP3    H139816   3.779   6.413   5.187 -0.8196  0.9153 -1.6643
13298TIP3    H239817   3.882   6.304   5.168 -1.3499 -0.1849  1.5583
13299TIP3   OH239818   3.023   3.649   0.467  0.4829  0.3757  0.1661
13299TIP3    H139819   3.012   3.558   0.439  0.4869  0.5240 -0.3377
13299TIP3    H239820   3.064   3.643   0.553 -2.1095 -0.1612  1.4057
13300TIP3   OH239821   4.646   5.615   5.321 -0.0816 -0.2460 -0.0341
13300TIP3    H139822   4.639   5.701   5.363  1.1992  0.1261 -0.5622
13300TIP3    H239823   4.578   5.563   5.364 -0.9399  1.0433  0.2302
13301TIP3   OH239824   1.914   6.176   6.949  0.6168 -0.5752  0.1998
13301TIP3    H139825   2.000   6.187   6.989  0.2152 -1.2379  1.2605
13301TIP3    H239826   1.932   6.157   6.857  1.5187  2.3890 -0.2976
13302TIP3   OH239827   4.380   5.580   6.840  0.1424  0.3698  0.0613
13302TIP3    H139828   4.363   5.527   6.762 -0.2805  0.1656  0.2892
13302TIP3    H239829   4.296   5.582   6.887 -0.0995  2.0147 -0.4022
13303TIP3   OH239830   3.726   5.239   5.520  0.0790  0.2226 -0.1454
13303TIP3    H139831   3.680   5.172   5.570  1.9144 -2.0559 -1.4391
13303TIP3    H239832   3.811   5.247   5.562  0.3062  0.8826 -0.7197
13304TIP3   OH239833   5.171   4.513   4.713  0.3074 -0.1428 -0.3041
13304TIP3    H139834   5.234   4.475   4.652  1.7780 -0.1156  1.1472
13304TIP3    H239835   5.130   4.584   4.664  2.0545  0.4132 -1.0204
13305TIP3   OH239836   5.952   6.614   2.951  0.0302  0.0202  0.4695
13305TIP3    H139837   5.878   6.631   3.009 -1.1231  1.1776 -1.3196
13305TIP3    H239838   5.942   6.676   2.879  2.7871  0.2654  0.2239
13306TIP3   OH239839   5.200   6.378   6.597 -0.2734 -0.3669  0.1613
13306TIP3    H139840   5.226   6.470   6.592  2.2396 -0.9924  0.7884
13306TIP3    H239841   5.229   6.350   6.684 -0.8053 -1.8204 -0.1203
13307TIP3   OH239842   2.831   5.221   5.404 -0.3156  0.1170 -0.2261
13307TIP3    H139843   2.925   5.205   5.412 -0.3778 -0.2218 -0.1599
13307TIP3    H239844   2.803   5.241   5.493 -0.4553 -0.6100 -0.1022
13308TIP3   OH239845   3.309   6.152   6.326 -0.5064 -0.0025 -0.3644
13308TIP3    H139846   3.260   6.217   6.275 -0.2169 -0.5698 -1.3673
13308TIP3    H239847   3.311   6.075   6.270  2.0069  0.1739 -0.5554
13309TIP3   OH239848   0.982   1.635   1.513 -0.2430 -0.2849  0.2377
13309TIP3    H139849   1.010   1.696   1.445 -0.5747 -0.3137  0.0743
13309TIP3    H239850   1.056   1.574   1.523 -0.0920 -0.1260  0.0853
13310TIP3   OH239851   5.713   3.125   5.357 -0.3992 -0.6434 -1.1806
13310TIP3    H139852   5.740   3.215   5.371  0.5342 -0.7110 -2.4244
13310TIP3    H239853   5.646   3.109   5.424  0.1323  0.6437 -0.3240
13311TIP3   OH239854   1.078   2.829   1.221 -0.1958  0.1760  0.2670
13311TIP3    H139855   1.073   2.827   1.317  2.4184 -0.1122  0.4448
13311TIP3    H239856   1.093   2.738   1.196  2.4953  0.7106 -0.1532
13312TIP3   OH239857   5.238   6.712   5.106  0.1778 -0.4069  0.2031
13312TIP3    H139858   5.157   6.677   5.068  0.4654 -1.7471  0.8191
13312TIP3    H239859   5.303   6.643   5.093  0.4587 -0.5878  2.4533
13313TIP3   OH239860   1.831   2.180   0.642 -0.1899 -0.2680  0.2565
13313TIP3    H139861   1.867   2.268   0.633  0.6331 -0.2783  3.0327
13313TIP3    H239862   1.736   2.192   0.635 -0.1627  1.0250  1.9458
13314TIP3   OH239863   4.199   4.701   5.982 -0.1442 -0.2251  0.1531
13314TIP3    H139864   4.169   4.699   6.073  2.7781 -1.4302  1.1442
13314TIP3    H239865   4.180   4.614   5.948 -0.8058  0.0785 -0.2727
13315TIP3   OH239866   2.721   7.570   4.188  0.6760  0.1260 -0.0580
13315TIP3    H139867   2.786   7.500   4.192  1.8855  1.2306  0.1651
13315TIP3    H239868   2.711   7.600   4.278 -1.1878 -0.9508  0.1101
13316TIP3   OH239869   2.445   5.835   5.008  0.2678 -0.1087  0.1812
13316TIP3    H139870   2.501   5.783   5.066  1.4153  0.2828 -0.5567
13316TIP3    H239871   2.466   5.926   5.029 -0.2086  0.0426  0.0087
13317TIP3   OH239872   3.634   5.060   5.731 -0.1312  0.0842  0.1807
13317TIP3    H139873   3.574   5.115   5.781 -0.7448  0.0826 -0.5468
13317TIP3    H239874   3.647   4.982   5.785  0.5125  0.8137  1.0817
13318TIP3   OH239875   3.937   6.246   3.674  0.0810  0.7456 -0.1328
13318TIP3    H139876   3.984   6.166   3.698 -0.1483  0.4842 -0.5421
13318TIP3    H239877   3.919   6.290   3.757 -1.2249 -0.4306  0.2141
13319TIP3   OH239878   0.706   4.010   1.745  0.2711 -0.1031 -0.5950
13319TIP3    H139879   0.649   4.049   1.812  0.3146  0.5396 -0.9252
13319TIP3    H239880   0.700   4.070   1.671  1.3268 -0.0597 -0.6565
13320TIP3   OH239881   3.727   7.395   3.775 -0.0511 -0.0294 -0.0033
13320TIP3    H139882   3.819   7.419   3.762 -0.5572  1.0599 -1.6874
13320TIP3    H239883   3.729   7.302   3.795  1.5257  0.2519  1.2498
13321TIP3   OH239884   4.431   7.898   5.901  0.4015  0.3255  0.0555
13321TIP3    H139885   4.341   7.870   5.884 -0.1039  0.8028  1.8774
13321TIP3    H239886   4.449   7.961   5.832 -0.4014 -0.3195 -0.7643
13322TIP3   OH239887   6.351   7.288   6.316 -0.1829  0.0431  0.7307
13322TIP3    H139888   6.431   7.254   6.357 -0.1319  3.1863  3.5369
13322TIP3    H239889   6.382   7.356   6.257 -0.6818  0.0799  0.5098
13323TIP3   OH239890   2.260   6.565   0.638 -0.0658 -0.0579 -0.0390
13323TIP3    H139891   2.187   6.515   0.603  0.1676 -0.3410 -0.1300
13323TIP3    H239892   2.221   6.646   0.670 -0.2446  0.3075 -1.1694
13324TIP3   OH239893   3.258   4.454   5.624 -0.3310 -0.9021 -0.2291
13324TIP3    H139894   3.289   4.376   5.671  3.4139 -0.0843 -1.1599
13324TIP3    H239895   3.321   4.465   5.553  0.3212  3.9574  0.9109
13325TIP3   OH239896   4.055   7.633   5.377  0.5054 -0.0954  0.8426
13325TIP3    H139897   4.013   7.555   5.340  0.5036  0.2734  0.0447
13325TIP3    H239898   3.989   7.670   5.435  0.4053 -0.5409  1.0186
13326TIP3   OH239899   3.979   5.660   4.802 -0.2587 -0.1099  0.1691
13326TIP3    H139900   4.058   5.715   4.809 -0.3146  0.1339 -1.0268
13326TIP3    H239901   3.958   5.661   4.709 -1.2579 -0.7767  0.3885
13327TIP3   OH239902   3.023   6.737   6.719  0.5430  0.1179 -0.4998
13327TIP3    H139903   3.103   6.790   6.716  0.3769  0.5286  1.4537
13327TIP3    H239904   3.018   6.706   6.810 -1.4828  0.0519 -0.5991
13328TIP3   OH239905   7.273   0.779   6.315 -0.6623  0.0200  0.3755
13328TIP3    H139906   7.366   0.798   6.307 -0.4087 -0.8867  1.0965
13328TIP3    H239907   7.232   0.865   6.327 -0.1394  0.6012 -1.7932
13329TIP3   OH239908   2.858   7.274   4.957  0.1245  0.2870 -0.1561
13329TIP3    H139909   2.927   7.284   5.023  1.5507  0.1751 -1.5854
13329TIP3    H239910   2.826   7.363   4.943  0.4523  0.4372  0.0202
13330TIP3   OH239911   0.899   6.058   5.995 -0.0009 -0.4773  0.5798
13330TIP3    H139912   0.877   6.009   5.916  1.4926  0.7226 -0.6397
13330TIP3    H239913   0.992   6.038   6.010  0.7289  2.1416 -0.1365
13331TIP3   OH239914   7.138   1.164   0.261 -0.0261 -0.4475 -0.0022
13331TIP3    H139915   7.139   1.091   0.322  1.5125 -1.5611 -1.2995
13331TIP3    H239916   7.096   1.129   0.182 -2.1705  1.0313  0.4417
13332TIP3   OH239917   0.883   1.582   0.506 -0.4242 -0.1152  0.1480
13332TIP3    H139918   0.927   1.667   0.510 -0.3097 -0.1539 -0.2579
13332TIP3    H239919   0.857   1.564   0.596  0.4568 -0.1255  0.4001
13333TIP3   OH239920   6.063   5.427   6.700  0.2838 -0.3260 -0.1506
13333TIP3    H139921   6.093   5.506   6.655  1.3250 -0.1751  0.7651
13333TIP3    H239922   6.098   5.355   6.649 -1.2404 -0.2177 -1.3733
13334TIP3   OH239923   3.231   7.554   7.264  0.3658 -0.1224 -0.3266
13334TIP3    H139924   3.232   7.494   7.338  1.0060  1.0681  0.6422
13334TIP3    H239925   3.287   7.512   7.198 -1.4861 -1.9554 -0.7932
13335TIP3   OH239926   3.588   4.976   5.483 -0.0662 -0.3592  0.4321
13335TIP3    H139927   3.598   4.996   5.576  0.3217 -0.1395  0.3418
13335TIP3    H239928   3.515   5.031   5.455  1.3679  1.3575  0.0512
13336TIP3   OH239929   3.052   6.079   5.868  0.4946 -0.0185 -0.0202
13336TIP3    H139930   3.135   6.122   5.849  1.3838 -0.2599  2.9635
13336TIP3    H239931   2.988   6.150   5.870  0.9776  0.4320 -0.4780
13337TIP3   OH239932   4.673   7.166   7.205 -0.6799  0.6557 -0.7602
13337TIP3    H139933   4.580   7.186   7.213 -0.6725  0.0436  1.0832
13337TIP3    H239934   4.679   7.073   7.225  0.0462  0.1586 -3.2018
13338TIP3   OH239935   3.357   6.029   3.193  0.0735  0.3101  0.0073
13338TIP3    H139936   3.347   6.106   3.138  1.2370  0.2664 -0.2716
13338TIP3    H239937   3.450   6.007   3.188 -0.3728 -1.5845 -0.5634
13339TIP3   OH239938   0.088   1.969   0.437 -0.0220  0.3011 -0.1675
13339TIP3    H139939   0.078   2.030   0.510  1.4870  1.5316 -0.9664
13339TIP3    H239940   0.081   1.882   0.478 -0.2673  0.9758  1.2683
13340TIP3   OH239941   3.243   6.655   5.145 -0.3958 -0.2551 -0.1937
13340TIP3    H139942   3.333   6.687   5.136 -0.3183 -0.3659  0.1630
13340TIP3    H239943   3.232   6.592   5.073 -0.7190  0.9379 -1.2113
13341TIP3   OH239944   3.459   8.091   6.290  0.2163  0.1620  0.2500
13341TIP3    H139945   3.434   8.150   6.362 -2.0802 -0.4277 -0.0303
13341TIP3    H239946   3.382   8.036   6.276  1.6682 -1.6644 -0.7602
13342TIP3   OH239947   0.312   4.418   0.048  0.6751  0.3339 -0.5963
13342TIP3    H139948   0.256   4.394   0.122 -0.5309  2.3913 -0.8075
13342TIP3    H239949   0.327   4.335   0.002  0.5470 -0.7881  1.3162
13343TIP3   OH239950   1.933   6.507   7.168 -0.3364  0.7015  0.7481
13343TIP3    H139951   1.986   6.538   7.095  0.0938 -0.9012  0.3659
13343TIP3    H239952   1.856   6.466   7.127 -1.2255  1.8327  1.2609
13344TIP3   OH239953   2.835   6.266   5.915 -0.3181 -0.2236  0.4639
13344TIP3    H139954   2.837   6.360   5.933 -0.9141 -0.4045  1.5120
13344TIP3    H239955   2.774   6.256   5.843  0.8544  0.3456 -0.6194
13345TIP3   OH239956   1.260   1.367   0.563  0.3468  0.5207 -0.1134
13345TIP3    H139957   1.191   1.351   0.498 -0.4519 -0.7850  1.0300
13345TIP3    H239958   1.214   1.370   0.647  1.6351  0.0102  0.6293
13346TIP3   OH239959   0.913   3.317   0.892 -0.5151  0.4735  0.1855
13346TIP3    H139960   0.842   3.254   0.882  1.2243 -1.2722 -1.6530
13346TIP3    H239961   0.900   3.355   0.978 -2.5446 -1.2471  0.6660
13347TIP3   OH239962   1.135   3.886   7.117  0.5195  0.1920  0.7245
13347TIP3    H139963   1.208   3.824   7.127  0.8985  0.8207  1.9447
13347TIP3    H239964   1.058   3.831   7.106  1.1426 -0.4860 -0.2681
13348TIP3   OH239965   3.421   3.698   6.989 -0.1072 -0.3663 -0.8838
13348TIP3    H139966   3.390   3.738   7.070 -1.4775 -0.4167 -1.3676
13348TIP3    H239967   3.501   3.651   7.014  0.7361  1.4811 -0.0299
13349TIP3   OH239968   2.091   2.827   1.724  0.3334 -0.2068 -0.1114
13349TIP3    H139969   2.156   2.822   1.654  2.3752  1.8824  1.5272
13349TIP3    H239970   2.089   2.738   1.761  1.4005 -0.5838 -0.9503
13350TIP3   OH239971   4.047   5.065   6.731 -0.1495  0.0263  0.0240
13350TIP3    H139972   3.969   5.120   6.727 -0.2631 -0.0659  0.7918
13350TIP3    H239973   4.058   5.031   6.642 -0.6485  0.4982 -0.2194
13351TIP3   OH239974   7.773   0.191   6.727 -0.1486  0.1781  0.0531
13351TIP3    H139975   7.685   0.227   6.712 -0.3358  0.2759  1.2861
13351TIP3    H239976   7.765   0.098   6.706 -0.2401  0.4156 -0.9792
13352TIP3   OH239977   2.180   6.288   6.898 -0.9018  0.4498  0.1105
13352TIP3    H139978   2.153   6.368   6.854  0.4206  0.3180 -0.9596
13352TIP3    H239979   2.227   6.238   6.832  1.7553  0.5629  1.8132
13353TIP3   OH239980   4.616   5.055   5.692  0.3695  0.8722 -0.0123
13353TIP3    H139981   4.658   4.974   5.720  1.1232  1.2594  0.0192
13353TIP3    H239982   4.523   5.036   5.691  0.5947 -0.1807 -0.6524
13354TIP3   OH239983   5.019   7.732   3.694  1.1435  0.6661 -0.6627
13354TIP3    H139984   5.085   7.667   3.669  1.8210  0.7109  0.9456
13354TIP3    H239985   5.067   7.795   3.748 -0.1761  0.7455  0.4547
13355TIP3   OH239986   2.054   5.952   6.605 -0.0034  0.3249 -0.0221
13355TIP3    H139987   2.001   6.031   6.594  0.1148  0.4179  0.0644
13355TIP3    H239988   2.062   5.941   6.700 -1.5515 -0.8385 -0.0224
13356TIP3   OH239989   1.550   5.739   5.649 -0.0142  0.1229 -0.2607
13356TIP3    H139990   1.546   5.811   5.712  0.6399  1.2134 -1.4424
13356TIP3    H239991   1.462   5.702   5.649 -0.2775  0.7352  0.5748
13357TIP3   OH239992   4.863   5.738   4.964  0.2606 -0.5779 -0.5257
13357TIP3    H139993   4.948   5.748   5.007 -1.2515  1.9648  2.0813
13357TIP3    H239994   4.831   5.653   4.994  0.5169 -0.1150  1.1192
13358TIP3   OH239995   4.724   5.951   5.021 -0.1962  0.6689  0.0875
13358TIP3    H139996   4.784   5.877   5.007  0.6639  1.0973  1.4525
13358TIP3    H239997   4.781   6.027   5.027 -0.8528  1.0640  1.5464
13359TIP3   OH239998   3.040   5.752   5.761  0.3487 -0.2356 -0.1023
13359TIP3    H139999   2.965   5.781   5.710 -0.8156 -1.4550  0.8979
13359TIP3    H240000   3.046   5.815   5.833 -0.4329 -0.8195  0.4745
13360TIP3   OH240001   4.007   6.584   6.488  0.4896  0.5010 -0.6064
13360TIP3    H140002   3.928   6.549   6.446  0.7266 -0.1718 -0.5002
13360TIP3    H240003   4.074   6.519   6.469  1.5492  2.1203 -2.5459
13361TIP3   OH240004   4.091   7.497   6.941  0.0727  0.0772  0.2328
13361TIP3    H140005   4.062   7.406   6.935  1.0767 -0.1979 -0.5796
13361TIP3    H240006   4.172   7.493   6.992  1.6215  0.1537 -2.1461
13362TIP3   OH240007   4.411   6.244   4.931  0.0603 -0.1615  0.1302
13362TIP3    H140008   4.505   6.265   4.930 -0.4985  2.6832  1.4332
13362TIP3    H240009   4.369   6.323   4.896 -2.0389 -0.1704  2.5062
13363TIP3   OH240010   8.735   0.288   6.255  0.5826 -0.3066  0.1432
13363TIP3    H140011   8.750   0.242   6.338 -0.0846  0.3948  0.6642
13363TIP3    H240012   8.811   0.345   6.245  0.0668  0.5302  0.9133
13364TIP3   OH240013   2.658   5.143   4.486 -0.0666 -0.1743  0.1564
13364TIP3    H140014   2.660   5.230   4.526  0.1377 -0.7790  1.5116
13364TIP3    H240015   2.746   5.129   4.452  0.0354 -0.0392  0.3673
13365TIP3   OH240016   2.208   6.381   7.174 -0.5187 -0.5571 -0.5385
13365TIP3    H140017   2.172   6.403   7.088 -0.9330 -1.7071 -0.6621
13365TIP3    H240018   2.278   6.319   7.156  0.2041  0.1284 -0.1335
13366TIP3   OH240019   4.228   5.152   6.545 -0.6474 -0.4832 -0.2699
13366TIP3    H140020   4.293   5.107   6.600 -0.3262 -0.2727 -0.4743
13366TIP3    H240021   4.193   5.083   6.489  1.5247 -0.0874 -2.2144
13367TIP3   OH240022   2.452   5.357   6.017 -0.3028  0.3429  0.2205
13367TIP3    H140023   2.415   5.412   5.948  0.6153  0.8134  0.0965
13367TIP3    H240024   2.537   5.329   5.983 -0.3540 -0.3814  0.6770
13368TIP3   OH240025   3.800   5.974   3.993 -0.0564  0.5281  0.0919
13368TIP3    H140026   3.889   6.004   4.011 -0.1429  1.2722 -0.6757
13368TIP3    H240027   3.761   6.045   3.942 -0.8362 -0.1320 -0.2360
13369TIP3   OH240028   2.439   2.353   0.835 -0.0900  0.2537 -0.1099
13369TIP3    H140029   2.511   2.315   0.885  1.4832  2.0493 -0.9675
13369TIP3    H240030   2.363   2.344   0.892  0.9298 -1.1467  1.0422
13370TIP3   OH240031   1.592   0.478   0.065 -0.1889  0.4737 -0.3400
13370TIP3    H140032   1.599   0.410  -0.003  0.8190  0.1584  0.0648
13370TIP3    H240033   1.595   0.561   0.017  0.1011  0.2455 -0.7129
13371TIP3   OH240034   2.949   4.855   5.437  0.0341 -0.3198  0.0845
13371TIP3    H140035   2.928   4.761   5.436 -0.5548 -0.1788 -1.8933
13371TIP3    H240036   2.866   4.898   5.422  0.5457  0.4856 -0.4460
13372TIP3   OH240037   2.794   6.763   6.932 -0.1622  0.5593 -0.3142
13372TIP3    H140038   2.762   6.740   6.845 -0.5918  1.4836 -0.4074
13372TIP3    H240039   2.721   6.745   6.991  0.3110 -0.5819 -0.0657
13373TIP3   OH240040   4.840   3.756   4.349 -0.6304 -0.2840  0.2389
13373TIP3    H140041   4.847   3.782   4.441  0.7048  1.1935 -0.2490
13373TIP3    H240042   4.897   3.680   4.341 -2.0224 -1.4277  0.9759
13374TIP3   OH240043   6.028   6.838   6.804  0.8321 -0.2668  0.0959
13374TIP3    H140044   6.103   6.798   6.762  0.8897 -1.0096  0.8963
13374TIP3    H240045   6.038   6.817   6.897  0.6155  1.1860  0.4608
13375TIP3   OH240046   5.776   4.686   4.728 -0.1837 -0.1354 -0.4687
13375TIP3    H140047   5.706   4.752   4.725  1.7168  2.0042  0.8936
13375TIP3    H240048   5.764   4.643   4.813 -0.9968 -1.0963 -1.0597
13376TIP3   OH240049   6.882   3.262   4.613  0.0146 -0.0386  0.0808
13376TIP3    H140050   6.803   3.260   4.558 -1.9718  0.4067  2.8369
13376TIP3    H240051   6.876   3.183   4.666  3.0455 -1.5943 -1.7986
13377TIP3   OH240052   4.054   3.599   0.488  0.2237 -0.4695 -0.8830
13377TIP3    H140053   3.983   3.608   0.424 -1.1884 -3.4252  0.1823
13377TIP3    H240054   4.126   3.560   0.439  0.7710  1.5192 -1.7075
13378TIP3   OH240055   5.991   6.364   5.452  0.1763  0.0386 -0.8009
13378TIP3    H140056   5.995   6.344   5.545 -0.2258  3.2190 -0.0294
13378TIP3    H240057   5.931   6.299   5.415  0.3436 -1.2464  1.1310
13379TIP3   OH240058   5.402   6.222   7.050  0.1254 -0.1541 -0.0133
13379TIP3    H140059   5.475   6.167   7.080 -0.2050 -0.7408 -0.2591
13379TIP3    H240060   5.335   6.213   7.118  0.0777 -0.0451 -0.0460
13380TIP3   OH240061   4.918   4.936   5.262 -0.4591 -0.0226  0.1822
13380TIP3    H140062   4.965   4.948   5.344 -0.4685  1.6506 -0.0510
13380TIP3    H240063   4.842   4.994   5.269 -2.2964 -2.3799  0.3854
13381TIP3   OH240064   1.990   2.133   1.257  0.5068 -0.0288 -0.0548
13381TIP3    H140065   1.902   2.124   1.293  0.2249 -0.9029 -0.9343
13381TIP3    H240066   2.007   2.050   1.212  1.9850 -0.0645  0.5257
13382TIP3   OH240067   3.582   1.947   1.146  0.7309 -0.1335 -0.4807
13382TIP3    H140068   3.637   1.880   1.107 -0.9776 -1.8500 -0.0028
13382TIP3    H240069   3.510   1.899   1.186  0.0841  1.9068  0.8839
13383TIP3   OH240070   2.441   3.879   1.209 -0.1418  0.2499 -0.0123
13383TIP3    H140071   2.454   3.814   1.140  0.6366  3.4849 -3.0188
13383TIP3    H240072   2.528   3.897   1.243  0.0782  2.1188 -1.4990
13384TIP3   OH240073   2.066   1.573   0.077  0.1367 -0.2913  0.3231
13384TIP3    H140074   2.100   1.483   0.082 -1.0893 -0.7068  1.4797
13384TIP3    H240075   2.035   1.582  -0.014 -0.2229 -1.2188  0.3503
13385TIP3   OH240076   6.220   6.567   7.002  0.4324 -0.3371 -0.0606
13385TIP3    H140077   6.147   6.553   6.942 -0.6542  0.7561  0.9993
13385TIP3    H240078   6.277   6.630   6.956  0.1819 -0.3763 -0.4267
13386TIP3   OH240079   4.031   4.818   6.835  0.0495 -0.0311  0.3752
13386TIP3    H140080   3.964   4.840   6.900  0.9923  1.4775  0.8770
13386TIP3    H240081   4.051   4.901   6.793  2.3233 -0.2490  0.9423
13387TIP3   OH240082   5.569   4.466   7.030 -0.2098  0.3417  0.3433
13387TIP3    H140083   5.571   4.543   7.087  0.0692  0.8079 -0.2902
13387TIP3    H240084   5.476   4.443   7.024 -0.1507 -0.3278  1.7997
13388TIP3   OH240085   0.807   0.594   0.286  0.4538  0.9317 -0.0920
13388TIP3    H140086   0.891   0.618   0.324 -0.2297  3.7198 -0.2475
13388TIP3    H240087   0.761   0.677   0.275 -2.6315 -0.5899  0.7156
13389TIP3   OH240088   6.606   0.082   5.563 -0.2920 -0.0641  0.6988
13389TIP3    H140089   6.620   0.110   5.653  0.0011  0.3376  0.5333
13389TIP3    H240090   6.643  -0.006   5.558 -1.8439 -0.7575  1.4054
13390TIP3   OH240091   0.832   2.815   0.104 -0.4267  0.9155  0.0145
13390TIP3    H140092   0.886   2.810   0.183 -0.4893  1.2388  0.0799
13390TIP3    H240093   0.800   2.726   0.091  1.4971  0.3474 -0.9893
13391TIP3   OH240094   1.084   5.536   5.694  0.5205 -0.0356  0.4067
13391TIP3    H140095   1.020   5.467   5.711  0.1797  0.6026  1.7082
13391TIP3    H240096   1.031   5.615   5.684  1.0940  0.4730  1.3828
13392TIP3   OH240097   1.080   5.780   6.552  0.3621  0.2712 -0.0382
13392TIP3    H140098   0.995   5.785   6.508  0.5369 -0.1517 -0.4177
13392TIP3    H240099   1.071   5.841   6.626  0.4152  1.7495 -1.2252
13393TIP3   OH240100   3.122   6.259   6.149 -0.1485  0.2917 -0.4852
13393TIP3    H140101   3.104   6.316   6.075 -0.9409  0.3511 -0.2515
13393TIP3    H240102   3.036   6.223   6.174  0.3071 -0.8246 -0.4891
13394TIP3   OH240103   1.246   2.384   1.582  0.2819  0.0994 -0.0627
13394TIP3    H140104   1.189   2.340   1.519 -0.0746  0.7961 -0.2307
13394TIP3    H240105   1.204   2.369   1.667  1.7691 -2.4670  0.2573
13395TIP3   OH240106   7.271   5.963   6.002 -0.5257 -0.1350  0.1345
13395TIP3    H140107   7.321   6.020   6.061  0.7026 -2.0390  1.0174
13395TIP3    H240108   7.213   5.914   6.061 -2.7845  1.3849 -0.7940
13396TIP3   OH240109   4.311   6.938   5.448 -0.8504 -0.7210 -0.4424
13396TIP3    H140110   4.276   6.908   5.364 -0.5017 -1.5323 -0.3018
13396TIP3    H240111   4.373   6.869   5.474  0.1148  0.2198 -0.2120
13397TIP3   OH240112   6.162   6.118   2.778  0.3915 -0.9297 -0.0100
13397TIP3    H140113   6.075   6.080   2.783 -0.0981  0.2565  0.9126
13397TIP3    H240114   6.146   6.213   2.780  1.6196 -0.6920 -1.2348
13398TIP3   OH240115   2.369   1.725   1.703  0.2148  0.8034 -0.1117
13398TIP3    H140116   2.367   1.708   1.798  0.2785  1.4303  0.0080
13398TIP3    H240117   2.452   1.688   1.674 -0.8654 -1.4897 -0.3446
13399TIP3   OH240118   1.148   2.389   1.848 -1.0925 -0.0006  0.4865
13399TIP3    H140119   1.113   2.476   1.871  0.5031 -0.1559  3.7825
13399TIP3    H240120   1.087   2.328   1.889 -0.3776 -0.3628  1.0156
13400TIP3   OH240121   4.454   7.132   5.747 -0.0559  0.0184  0.0456
13400TIP3    H140122   4.528   7.096   5.796  0.4244 -1.1548 -1.5136
13400TIP3    H240123   4.494   7.180   5.674 -0.8115 -1.7034 -1.5593
13401TIP3   OH240124   4.418   5.706   2.232 -0.1240 -0.5839  0.1761
13401TIP3    H140125   4.487   5.772   2.243 -0.1660 -0.2240 -1.5116
13401TIP3    H240126   4.432   5.644   2.304  0.1480  1.0482  1.5501
13402TIP3   OH240127   4.134   7.869   4.909 -0.1278  0.5263 -0.5767
13402TIP3    H140128   4.194   7.805   4.870 -0.4445  0.5523 -1.1127
13402TIP3    H240129   4.171   7.887   4.995 -1.1779 -1.9721  0.4484
13403TIP3   OH240130   0.387   1.611   0.370  0.2232 -1.0430 -0.0480
13403TIP3    H140131   0.401   1.517   0.361  1.7022 -0.8331 -0.0848
13403TIP3    H240132   0.455   1.640   0.432 -0.8980 -0.1819  0.8049
13404TIP3   OH240133   2.510   1.723   0.146  0.1916  0.2857  0.0924
13404TIP3    H140134   2.490   1.691   0.234  0.6737 -0.3380 -0.0196
13404TIP3    H240135   2.591   1.774   0.157  0.2483  0.2129  0.0094
13405TIP3   OH240136   4.937   7.469   5.813  0.6410 -0.4183  0.2495
13405TIP3    H140137   5.029   7.444   5.800  0.7008  0.7834 -1.7283
13405TIP3    H240138   4.941   7.542   5.876  1.4401  2.4713 -3.0085
13406TIP3   OH240139   3.525   6.495   2.949 -0.2863  0.2884  0.0744
13406TIP3    H140140   3.607   6.458   2.917  0.0807  0.8773  0.3161
13406TIP3    H240141   3.458   6.433   2.921  0.4210 -1.1498  1.4776
13407TIP3   OH240142   4.457   5.848   5.449 -0.0253  0.5969  0.0531
13407TIP3    H140143   4.477   5.778   5.512 -2.3701 -2.0483 -2.0426
13407TIP3    H240144   4.398   5.907   5.497  0.9794  0.5309  1.4251
13408TIP3   OH240145   5.721   5.585   6.522 -0.6707  0.3779 -0.8249
13408TIP3    H140146   5.633   5.549   6.512 -0.8382  0.8740 -1.1535
13408TIP3    H240147   5.707   5.678   6.539 -0.2404  0.2774  0.1042
13409TIP3   OH240148   5.289   6.336   3.738  0.2479  0.1626  0.1512
13409TIP3    H140149   5.330   6.302   3.658  1.3276 -1.1931  1.2352
13409TIP3    H240150   5.306   6.268   3.804 -1.5321  0.7687  1.2807
13410TIP3   OH240151   0.157   0.023   0.967 -0.3115 -0.0849  0.3901
13410TIP3    H140152   0.175   0.044   0.875 -0.2096  0.5272  0.5467
13410TIP3    H240153   0.236  -0.022   0.997  0.2178  0.9428  0.5593
13411TIP3   OH240154   3.321   7.566   4.969  0.4021  0.8377 -0.0873
13411TIP3    H140155   3.385   7.599   4.908  0.6041 -0.3791 -0.5522
13411TIP3    H240156   3.373   7.530   5.042  0.2285  0.5275 -0.1150
13412TIP3   OH240157   4.711   4.486   4.768  0.4793 -0.1545  0.0541
13412TIP3    H140158   4.796   4.448   4.747  1.0130  0.2280  1.4892
13412TIP3    H240159   4.713   4.573   4.729  0.7495 -0.1398  0.1020
13413TIP3   OH240160   3.603   6.142   6.329  0.3086  0.0855 -0.5855
13413TIP3    H140161   3.510   6.118   6.334  0.4323 -0.2962 -0.1834
13413TIP3    H240162   3.634   6.137   6.419  0.6199  0.6290 -0.6591
13414TIP3   OH240163   8.061   2.518   0.884  0.5562 -0.1618  0.6492
13414TIP3    H140164   8.040   2.426   0.902  0.5738 -0.3891 -0.4980
13414TIP3    H240165   8.153   2.527   0.907  0.9820 -0.8296 -0.7657
13415TIP3   OH240166   3.627   1.687   0.046  0.0223  0.0794  0.2177
13415TIP3    H140167   3.673   1.760   0.004  2.6051 -1.5411  0.2000
13415TIP3    H240168   3.671   1.675   0.130 -2.4910  0.6058  1.6872
13416TIP3   OH240169   7.381   6.707   3.240 -0.3493  0.3001 -0.3015
13416TIP3    H140170   7.448   6.759   3.196 -0.2606  0.5877  0.1676
13416TIP3    H240171   7.329   6.771   3.289 -0.9943  0.0838 -0.6964
13417TIP3   OH240172   2.948   4.882   6.818  0.0310  0.2071  0.0068
13417TIP3    H140173   2.991   4.893   6.733 -1.5385 -1.8211 -1.1067
13417TIP3    H240174   2.865   4.929   6.809 -0.1964 -0.1245  0.3466
13418TIP3   OH240175   5.312   5.976   6.813 -0.4286  0.1238 -0.4037
13418TIP3    H140176   5.344   5.921   6.885 -1.9071 -0.2164  0.0225
13418TIP3    H240177   5.389   5.993   6.759  0.7902  0.6626  1.4429
13419TIP3   OH240178   2.828   1.952   6.106  0.2101  0.0203  0.1712
13419TIP3    H140179   2.824   2.028   6.047 -1.5273  0.6152  1.0045
13419TIP3    H240180   2.779   1.981   6.184 -0.5669 -1.9994  0.4494
13420TIP3   OH240181   3.549   6.168   6.610 -0.2645  0.6074  0.2122
13420TIP3    H140182   3.494   6.102   6.653  2.0778  0.2167  2.6875
13420TIP3    H240183   3.491   6.245   6.601 -2.6935 -1.3604 -1.7783
13421TIP3   OH240184   3.173   7.682   4.500  0.2692  0.2450  0.1803
13421TIP3    H140185   3.210   7.770   4.503 -0.7689  0.7148 -0.5468
13421TIP3    H240186   3.226   7.636   4.435  0.0085  0.7138 -0.3659
13422TIP3   OH240187   2.710   6.938   5.301 -0.0476 -0.1105 -0.2661
13422TIP3    H140188   2.796   6.912   5.332 -1.2950 -1.7022  2.0093
13422TIP3    H240189   2.718   6.938   5.205  2.8898  1.3942 -0.0860
13423TIP3   OH240190   5.283   7.637   6.586 -0.2113  0.3541  0.4989
13423TIP3    H140191   5.307   7.648   6.494  0.7471 -2.9473  0.3194
13423TIP3    H240192   5.192   7.665   6.590 -0.8789 -1.3338 -1.8653
13424TIP3   OH240193   5.662   6.536   6.848 -0.2139 -0.0032  0.0684
13424TIP3    H140194   5.736   6.584   6.811 -0.2272 -0.9520 -1.1896
13424TIP3    H240195   5.602   6.604   6.877  0.2142  0.7421 -0.7890
13425TIP3   OH240196   1.154   3.872   0.199  0.2811 -0.6207 -0.3896
13425TIP3    H140197   1.185   3.808   0.263  1.7788 -0.3254 -0.8054
13425TIP3    H240198   1.233   3.904   0.157 -0.6240 -0.1272 -1.7468
13426TIP3   OH240199   4.383   7.001   6.084 -0.3372 -0.2988  0.0992
13426TIP3    H140200   4.362   7.061   6.013 -1.1274  0.4110  0.9279
13426TIP3    H240201   4.373   6.914   6.045 -0.8149  0.0814 -0.6479
13427TIP3   OH240202   1.077   5.375   1.020 -0.2344  0.2408 -0.0470
13427TIP3    H140203   1.082   5.305   0.955  0.8038  0.1046  0.1768
13427TIP3    H240204   1.045   5.331   1.099  0.2311  0.0506  0.0385
13428TIP3   OH240205   4.528   6.616   4.869  0.4524  0.4097 -0.0901
13428TIP3    H140206   4.574   6.582   4.792 -0.4197 -0.3711 -0.2910
13428TIP3    H240207   4.530   6.543   4.932 -1.1016  0.0973 -0.3783
13429TIP3   OH240208   0.112   1.128   5.737  0.2410 -0.1791  0.1367
13429TIP3    H140209   0.157   1.078   5.668  1.3583 -1.5753  1.8047
13429TIP3    H240210   0.181   1.145   5.802 -1.2501 -0.8295  1.9298
13430TIP3   OH240211   4.851   0.200   6.305 -0.4722 -0.2780  0.2842
13430TIP3    H140212   4.804   0.120   6.284 -1.0766  0.5126 -1.5133
13430TIP3    H240213   4.798   0.243   6.372 -1.6826 -0.0050 -0.8213
13431TIP3   OH240214   4.022   8.075   4.153  0.1963  0.4817 -0.5460
13431TIP3    H140215   4.070   8.002   4.191  0.1870 -0.4645 -2.2937
13431TIP3    H240216   4.089   8.128   4.109 -0.0594  0.3974 -1.0397
13432TIP3   OH240217   3.733   6.838   4.964  0.4615 -0.0734  0.6279
13432TIP3    H140218   3.737   6.932   4.945 -2.0821 -0.5463 -2.6886
13432TIP3    H240219   3.824   6.813   4.977  1.1155  3.0084  2.5006
13433TIP3   OH240220   8.271   1.715   0.432  0.0855  0.5110 -0.5013
13433TIP3    H140221   8.321   1.666   0.497  0.0702  2.0213  0.6512
13433TIP3    H240222   8.305   1.683   0.348 -0.2377 -1.7950  0.2005
13434TIP3   OH240223   5.566   6.790   5.105 -0.3614  0.1226  0.3514
13434TIP3    H140224   5.535   6.700   5.093 -1.2214  0.6469 -1.4041
13434TIP3    H240225   5.551   6.832   5.021 -1.7721  2.4549  1.7132
13435TIP3   OH240226   5.509   5.645   3.986 -0.6849 -0.0732 -0.3463
13435TIP3    H140227   5.589   5.652   3.935 -1.4135  0.5007 -1.4279
13435TIP3    H240228   5.490   5.735   4.014  1.2983 -0.7476  3.4665
13436TIP3   OH240229   8.463   1.663   0.216 -0.7406  0.9651 -0.0483
13436TIP3    H140230   8.488   1.587   0.164 -1.6317  0.5922  0.0577
13436TIP3    H240231   8.376   1.688   0.183 -0.7685  1.4917  0.4049
13437TIP3   OH240232   4.768   3.410   6.444  0.4653 -0.0172 -0.3288
13437TIP3    H140233   4.793   3.318   6.440 -0.0158 -0.1979  0.7391
13437TIP3    H240234   4.721   3.426   6.362  2.0486 -0.2710 -1.2955
13438TIP3   OH240235   6.292   3.653   6.272  0.4794  0.2216 -0.2768
13438TIP3    H140236   6.205   3.613   6.279 -0.3710  2.2426  1.2119
13438TIP3    H240237   6.329   3.645   6.359  1.2286  0.5845 -0.5624
13439TIP3   OH240238   6.046   4.408   5.280 -0.4052  0.0027 -0.1856
13439TIP3    H140239   6.045   4.384   5.188  0.0021 -1.2910  0.1319
13439TIP3    H240240   6.005   4.494   5.283 -0.3099  0.1072 -1.5852
13440TIP3   OH240241   4.925   5.493   5.038 -0.1244  0.3662 -0.6658
13440TIP3    H140242   4.983   5.420   5.063  0.3271 -0.3122 -3.5009
13440TIP3    H240243   4.838   5.462   5.062  0.1797 -0.6244 -0.7817
13441TIP3   OH240244   4.803   6.866   6.632 -0.2309  0.1733  0.4235
13441TIP3    H140245   4.821   6.816   6.552 -0.9669 -1.9508  1.5304
13441TIP3    H240246   4.812   6.957   6.606  0.4242 -0.5034 -1.8691
13442TIP3   OH240247   2.746   5.267   6.227 -0.6304 -0.0681 -0.3662
13442TIP3    H140248   2.819   5.205   6.230 -1.0681 -0.6528 -1.3716
13442TIP3    H240249   2.765   5.323   6.152 -0.7144  0.4176 -0.0259
13443TIP3   OH240250   3.978   5.560   6.135  0.4256 -0.2874 -0.3100
13443TIP3    H140251   3.973   5.465   6.145 -0.0120 -0.4368 -1.7642
13443TIP3    H240252   4.052   5.574   6.077 -0.4819  0.1516 -1.3825
13444TIP3   OH240253   4.109   5.386   6.422  0.0777 -0.0108  0.6440
13444TIP3    H140254   4.135   5.307   6.471  1.0069 -1.4051 -1.9755
13444TIP3    H240255   4.189   5.415   6.380 -0.9189  0.4535 -0.9788
13445TIP3   OH240256   4.858   7.784   4.173  0.0154  0.0524  0.4022
13445TIP3    H140257   4.847   7.738   4.090  0.4561  0.6398  0.0120
13445TIP3    H240258   4.926   7.734   4.220  0.8240  0.5657 -0.2131
13446TIP3   OH240259   4.291   3.640   6.994  0.5967 -0.3583 -0.2467
13446TIP3    H140260   4.293   3.712   6.931  1.3151 -0.2847 -0.1516
13446TIP3    H240261   4.319   3.563   6.944  1.9391 -0.1479  0.1577
13447TIP3   OH240262   4.259   5.867   7.269  0.1256 -0.3639 -0.2112
13447TIP3    H140263   4.345   5.895   7.238 -0.1957 -0.1013 -0.8899
13447TIP3    H240264   4.251   5.777   7.239 -0.0041 -0.2545 -0.5046
13448TIP3   OH240265   1.647   7.580   4.580 -0.4304  0.6632  0.7264
13448TIP3    H140266   1.687   7.514   4.636  1.0694  0.2846 -0.7607
13448TIP3    H240267   1.587   7.627   4.638  0.5172 -0.2101  2.4553
13449TIP3   OH240268   3.243   7.280   4.790 -0.4185  0.7690  0.0374
13449TIP3    H140269   3.303   7.208   4.771  0.8795  0.8183  3.5947
13449TIP3    H240270   3.282   7.356   4.747  1.1690  0.4306  0.8563
13450TIP3   OH240271   6.332   6.114   6.561 -0.0163 -0.8511  0.5409
13450TIP3    H140272   6.240   6.138   6.563  0.5458  1.3618  0.5121
13450TIP3    H240273   6.351   6.100   6.469 -0.2584 -1.0710  0.5234
13451TIP3   OH240274   7.120   7.414   3.696  0.3702  0.0429 -0.2909
13451TIP3    H140275   7.046   7.444   3.747  0.6593  0.7381 -0.2753
13451TIP3    H240276   7.163   7.494   3.666  0.0204 -0.3344 -1.8929
13452TIP3   OH240277   7.626   6.514   4.667  0.5835 -0.7555  0.0337
13452TIP3    H140278   7.665   6.562   4.593  0.3892 -0.1305  0.3356
13452TIP3    H240279   7.677   6.433   4.672  0.8224 -0.6479 -0.5712
13453TIP3   OH240280   3.342   6.028   6.739  0.2092  0.3595 -0.0530
13453TIP3    H140281   3.259   5.983   6.720  0.5672 -1.6096  2.6942
13453TIP3    H240282   3.341   6.040   6.834  2.8120  0.8649 -0.0674
13454TIP3   OH240283   4.455   5.880   5.076  0.4930 -0.4257  0.1243
13454TIP3    H140284   4.400   5.856   5.002  0.7888 -0.4243 -0.0969
13454TIP3    H240285   4.529   5.926   5.036 -0.5388  1.7039  0.5961
13455TIP3   OH240286   3.288   5.915   5.532  0.0821  0.3694  0.1655
13455TIP3    H140287   3.232   5.970   5.478  0.3526 -0.7760 -1.3076
13455TIP3    H240288   3.354   5.975   5.567 -0.2457  1.1693 -0.5598
13456TIP3   OH240289   1.840   2.892   0.250  0.6613 -0.3706 -0.4055
13456TIP3    H140290   1.773   2.866   0.186 -0.5122 -1.8141  1.3368
13456TIP3    H240291   1.829   2.830   0.322  2.6917  0.5282  0.7215
13457TIP3   OH240292   6.528   4.737   5.014 -0.2001 -0.2095 -0.6163
13457TIP3    H140293   6.440   4.716   4.985 -0.1241 -0.7323 -0.4672
13457TIP3    H240294   6.530   4.833   5.016 -0.6056 -0.1891 -1.0900
13458TIP3   OH240295   0.474   1.411   5.280 -0.0956  0.0139 -0.1753
13458TIP3    H140296   0.449   1.341   5.341 -1.1805 -0.1047 -0.7394
13458TIP3    H240297   0.464   1.371   5.193 -0.9774  0.9604 -0.5114
13459TIP3   OH240298   8.262   6.334   3.563  0.2503  0.0877 -0.2628
13459TIP3    H140299   8.204   6.397   3.520 -0.1543 -1.1581 -1.5821
13459TIP3    H240300   8.263   6.259   3.504  0.4134 -1.3094  1.4947
13460TIP3   OH240301   7.580   5.106   4.818  0.0025 -0.5740  0.2635
13460TIP3    H140302   7.526   5.030   4.843 -1.0699 -0.2519 -0.9986
13460TIP3    H240303   7.572   5.166   4.892 -0.9444 -0.7651  0.3243
13461TIP3   OH240304   5.665   6.533   3.506  0.2010  0.0342  0.6916
13461TIP3    H140305   5.663   6.623   3.472 -0.5519 -0.1770  0.1733
13461TIP3    H240306   5.606   6.535   3.581 -0.0537 -0.1068  0.4933
13462TIP3   OH240307   5.463   5.353   6.270 -0.3343  0.0621  0.6424
13462TIP3    H140308   5.494   5.299   6.197 -1.4702 -0.2860  0.4102
13462TIP3    H240309   5.377   5.384   6.242 -0.5737  0.3119  1.6432
13463TIP3   OH240310   7.081   5.735   6.172 -0.6911 -0.0567  0.5468
13463TIP3    H140311   7.148   5.686   6.220  1.1114  0.3687 -1.4461
13463TIP3    H240312   7.077   5.692   6.086 -2.2543  0.5729  0.2927
13464TIP3   OH240313   4.370   6.081   4.679 -0.1487  0.1571 -0.1671
13464TIP3    H140314   4.379   5.985   4.678 -2.2964 -0.0659 -0.0668
13464TIP3    H240315   4.396   6.107   4.767  1.0737 -0.2343 -0.3890
13465TIP3   OH240316   3.811   7.788   4.512  0.1185 -0.2578  0.0338
13465TIP3    H140317   3.720   7.813   4.527  0.0928  1.8039 -3.1798
13465TIP3    H240318   3.862   7.864   4.543  0.6788 -0.7258  0.2845
13466TIP3   OH240319   5.346   7.280   5.933 -0.5600 -0.4594 -0.0584
13466TIP3    H140320   5.277   7.214   5.940 -0.0378 -0.7649  2.7550
13466TIP3    H240321   5.323   7.347   5.998 -0.5308  1.6517 -2.1517
13467TIP3   OH240322   2.735   4.990   5.320  1.0480  0.5944 -0.0332
13467TIP3    H140323   2.791   4.998   5.243 -1.5490  0.8749 -1.9499
13467TIP3    H240324   2.758   5.066   5.374  1.3934  1.5866 -1.5466
13468TIP3   OH240325   6.107   7.151   3.749 -0.1780 -0.3259 -0.1909
13468TIP3    H140326   6.037   7.215   3.760  1.1112  0.7387  2.2420
13468TIP3    H240327   6.182   7.189   3.795  1.6822 -1.9494 -1.7725
13469TIP3   OH240328   6.176   6.957   6.349  0.1312 -0.4303 -0.3438
13469TIP3    H140329   6.130   6.943   6.432 -0.6890  0.1345 -0.6970
13469TIP3    H240330   6.152   7.045   6.323  1.6532 -0.0193 -0.4043
13470TIP3   OH240331   6.686   7.848   4.534 -0.6641 -0.0345 -0.0117
13470TIP3    H140332   6.630   7.787   4.487  0.0288 -0.0549 -0.8244
13470TIP3    H240333   6.769   7.800   4.545 -0.1301  0.7522 -0.6233
13471TIP3   OH240334   1.154   3.030   0.171 -0.1932  0.1137  0.0575
13471TIP3    H140335   1.203   3.064   0.246  0.4128 -2.5755  0.9086
13471TIP3    H240336   1.173   2.936   0.170 -0.5072  0.0278 -3.2199
13472TIP3   OH240337   5.501   6.861   6.556  0.2473  0.3738  0.1741
13472TIP3    H140338   5.571   6.823   6.608  1.0081  1.4185 -0.0747
13472TIP3    H240339   5.457   6.922   6.616  0.0082  0.2669  0.1104
13473TIP3   OH240340   4.426   6.276   7.103  0.6210 -1.0035  0.0906
13473TIP3    H140341   4.416   6.213   7.174  0.9330 -1.2081 -0.0448
13473TIP3    H240342   4.339   6.285   7.065  0.8893 -2.5819 -0.9414
13474TIP3   OH240343   4.022   5.998   4.867 -0.8740 -0.2495  0.3470
13474TIP3    H140344   4.105   5.951   4.864 -0.7012  0.0070  1.1282
13474TIP3    H240345   4.024   6.046   4.950 -1.8839 -0.4037  0.4688
13475TIP3   OH240346   6.395   5.480   4.635  0.3955 -0.0573 -0.0794
13475TIP3    H140347   6.302   5.469   4.614  0.1380 -1.5860  1.6862
13475TIP3    H240348   6.410   5.574   4.628 -1.7661  0.4475  1.4103
13476TIP3   OH240349   6.446   7.298   3.745  0.0279 -0.3084  0.2282
13476TIP3    H140350   6.529   7.310   3.791 -0.1106  0.5232  0.2735
13476TIP3    H240351   6.380   7.330   3.806 -0.1555  0.8628 -0.5724
13477TIP3   OH240352   5.841   6.684   4.082  0.6385 -0.3256  0.5508
13477TIP3    H140353   5.932   6.703   4.059 -0.0098  1.7309 -0.3857
13477TIP3    H240354   5.846   6.603   4.134  2.9334 -0.5129  0.0881
13478TIP3   OH240355   6.887   6.422   2.791  0.6621 -0.4111  0.2967
13478TIP3    H140356   6.895   6.500   2.735  0.8576  0.4837  1.5316
13478TIP3    H240357   6.901   6.348   2.732 -0.7096  0.4330 -1.1395
13479TIP3   OH240358   4.764   5.942   6.125 -0.2942  0.6187 -0.5099
13479TIP3    H140359   4.700   5.983   6.183 -0.4492  0.0773 -0.2954
13479TIP3    H240360   4.813   6.015   6.088 -0.1901  0.9668  0.3058
13480TIP3   OH240361   4.875   5.690   5.745 -0.0766 -0.0815  0.0200
13480TIP3    H140362   4.919   5.769   5.714 -2.2809 -0.2328 -3.8603
13480TIP3    H240363   4.788   5.719   5.771 -0.3855 -0.9895  0.0035
13481TIP3   OH240364   7.188   7.004   3.160 -0.6669  0.0001  0.4475
13481TIP3    H140365   7.256   6.962   3.106 -0.2598  1.5376 -0.2584
13481TIP3    H240366   7.164   6.937   3.224 -0.4036 -1.4878 -0.9849
13482TIP3   OH240367   6.639   6.279   6.441 -0.3770  0.1582 -0.2298
13482TIP3    H140368   6.675   6.199   6.402  1.3116  0.1318  1.3118
13482TIP3    H240369   6.551   6.254   6.469  0.3860 -1.3979  0.8763
13483TIP3   OH240370   8.073   6.900   4.328  0.2032 -0.3010 -0.1584
13483TIP3    H140371   8.019   6.834   4.370 -0.7923 -0.9712 -2.3966
13483TIP3    H240372   8.158   6.895   4.373 -0.0280 -2.7353  0.0581
13484TIP3   OH240373   0.701   0.293   4.303 -0.1410  0.3333 -0.3344
13484TIP3    H140374   0.662   0.340   4.229 -0.6987 -0.1740 -0.3567
13484TIP3    H240375   0.708   0.359   4.372 -0.5653  0.5504 -0.4959
13485TIP3   OH240376   4.942   5.248   4.635  0.2451  0.5055 -0.1757
13485TIP3    H140377   4.862   5.299   4.624 -1.1407 -2.0253 -2.1824
13485TIP3    H240378   4.920   5.160   4.604  3.0099 -0.9732  1.7967
13486TIP3   OH240379   4.995   7.586   6.052  0.1555  0.0961 -0.1109
13486TIP3    H140380   4.933   7.655   6.074 -0.6616 -0.3478 -0.9788
13486TIP3    H240381   5.017   7.546   6.136 -0.9659  0.0646  0.1755
13487TIP3   OH240382   7.099   6.457   4.275  0.0020  0.1505 -0.1614
13487TIP3    H140383   7.149   6.538   4.288  0.8180 -0.5604  1.2438
13487TIP3    H240384   7.091   6.449   4.180  2.6559  0.2386 -0.4379
13488TIP3   OH240385   5.836   6.563   6.136  0.2978  0.2238  0.0297
13488TIP3    H140386   5.768   6.507   6.174  0.6747 -0.3033 -0.0725
13488TIP3    H240387   5.846   6.634   6.199 -0.3814  0.3267  0.0284
13489TIP3   OH240388   6.151   6.890   2.778  0.3625  0.4201 -0.2591
13489TIP3    H140389   6.057   6.882   2.798  0.2526  1.1307 -0.4702
13489TIP3    H240390   6.165   6.831   2.705  0.3719 -0.7639  0.6838
13490TIP3   OH240391   5.259   5.460   6.133 -0.6051 -0.4481 -0.3320
13490TIP3    H140392   5.231   5.502   6.051  0.8238  0.3724 -0.4238
13490TIP3    H240393   5.214   5.376   6.133 -2.2137  0.3967 -0.9691
13491TIP3   OH240394   4.417   5.619   5.060 -0.0343 -0.1637 -0.6750
13491TIP3    H140395   4.362   5.653   4.989  0.0372  0.5025 -0.4116
13491TIP3    H240396   4.450   5.697   5.105  1.4448 -0.5388 -1.0739
13492TIP3   OH240397   3.633   4.251   0.105  0.4382 -0.7443  0.0639
13492TIP3    H140398   3.638   4.173   0.159  0.8398 -0.5010  0.3832
13492TIP3    H240399   3.598   4.318   0.164  0.2599 -0.6441 -0.1582
13493TIP3   OH240400   6.781   5.867   2.468 -0.2421 -0.1809  0.1028
13493TIP3    H140401   6.861   5.850   2.518  1.1045  1.2005 -1.5132
13493TIP3    H240402   6.781   5.962   2.456 -1.7936 -0.2488 -0.4645
13494TIP3   OH240403   6.423   7.258   2.689 -0.4886  0.3715  0.0855
13494TIP3    H140404   6.385   7.284   2.774 -0.0493  0.6378  0.2022
13494TIP3    H240405   6.412   7.163   2.686 -0.1929  0.3205  0.5928
13495TIP3   OH240406   5.675   8.334   6.604  0.3782 -0.1044  0.1932
13495TIP3    H140407   5.722   8.360   6.524 -2.3344  1.0590 -1.0818
13495TIP3    H240408   5.719   8.383   6.674  3.2165 -1.6364 -0.4103
13496TIP3   OH240409   5.326   7.053   5.387 -0.5049 -0.2235  0.6991
13496TIP3    H140410   5.261   6.985   5.403  1.2456 -2.1621 -0.2074
13496TIP3    H240411   5.338   7.053   5.292 -1.0948  1.9552  0.5944
13497TIP3   OH240412   5.752   5.062   5.710  0.1323 -0.4995 -0.1475
13497TIP3    H140413   5.829   5.098   5.668  0.1370 -1.0192 -0.5945
13497TIP3    H240414   5.691   5.044   5.638  0.6251 -2.5617 -0.0889
13498TIP3   OH240415   6.376   5.031   6.667 -0.0092  0.7731  0.2281
13498TIP3    H140416   6.335   5.115   6.689 -1.6128  0.2584 -0.6868
13498TIP3    H240417   6.363   4.977   6.744 -0.8740  0.6889  0.0303
13499TIP3   OH240418   7.123   6.774   2.499 -0.2304  0.6483 -0.0895
13499TIP3    H140419   7.121   6.793   2.406  1.9614  1.7607  0.0577
13499TIP3    H240420   7.128   6.859   2.542 -0.2745  0.1244  0.9978
13500TIP3   OH240421   5.471   7.825   6.704 -0.1512  0.0537 -0.2127
13500TIP3    H140422   5.419   7.767   6.649  0.2129 -1.2285  0.7741
13500TIP3    H240423   5.526   7.873   6.642  0.2528 -1.3653 -0.9920
13501TIP3   OH240424   4.881   6.369   5.255 -0.2904 -0.0799 -0.9388
13501TIP3    H140425   4.903   6.457   5.285 -2.5193  0.6505 -1.3407
13501TIP3    H240426   4.936   6.311   5.306 -0.4491  1.4265  0.9915
13502TIP3   OH240427   5.201   7.924   5.147 -0.1238  0.0210  0.0754
13502TIP3    H140428   5.173   7.867   5.219 -0.1021  1.4871  1.2702
13502TIP3    H240429   5.206   7.866   5.071 -1.4769 -1.2866  0.9517
13503TIP3   OH240430   5.660   5.012   5.450 -0.0742  0.0413 -0.2039
13503TIP3    H140431   5.578   5.051   5.422  0.9930  1.8445 -0.8929
13503TIP3    H240432   5.728   5.071   5.417  1.4420 -0.6305  1.5898
13504TIP3   OH240433   3.814   5.958   7.176 -0.4340  0.5643 -0.1862
13504TIP3    H140434   3.750   5.919   7.236 -0.0255 -1.2864 -0.9293
13504TIP3    H240435   3.787   5.928   7.089  1.1718  0.1359 -0.5474
13505TIP3   OH240436   6.750   6.444   5.433  0.5311 -0.0847 -0.2824
13505TIP3    H140437   6.784   6.383   5.499 -2.5947 -0.4691  1.0942
13505TIP3    H240438   6.700   6.508   5.484 -1.1983  0.1312 -2.2014
13506TIP3   OH240439   5.137   7.165   4.786 -0.0461  0.4242 -0.5013
13506TIP3    H140440   5.060   7.163   4.729 -0.7849  1.4011  0.4445
13506TIP3    H240441   5.173   7.076   4.780 -0.8937  0.1282 -1.4107
13507TIP3   OH240442   5.649   6.516   3.956  0.3370 -0.7489 -0.2896
13507TIP3    H140443   5.720   6.579   3.966  2.1722 -2.7984  0.2302
13507TIP3    H240444   5.605   6.541   3.875  0.5202  1.6197  0.3037
13508TIP3   OH240445   6.844   5.578   3.049 -0.6180  0.1503  0.1188
13508TIP3    H140446   6.792   5.498   3.055 -0.2814 -0.0301  0.5947
13508TIP3    H240447   6.934   5.548   3.033 -0.4185  0.4197  0.7324
13509TIP3   OH240448   6.105   6.041   5.532 -0.0306 -0.3329 -0.0231
13509TIP3    H140449   6.107   5.993   5.449  0.3980 -0.0676 -0.1709
13509TIP3    H240450   6.168   6.112   5.519  0.2764 -0.4858  0.6503
13510TIP3   OH240451   5.983   5.481   4.866  0.2483 -0.0199  0.1382
13510TIP3    H140452   5.991   5.401   4.918 -1.3788 -1.2724 -1.4951
13510TIP3    H240453   5.951   5.546   4.928 -0.7248 -1.2472  0.9622
13511TIP3   OH240454   4.909   8.026   4.433 -0.5427 -0.5060  0.5342
13511TIP3    H140455   4.819   8.058   4.445  0.2380  2.5317 -1.2748
13511TIP3    H240456   4.917   8.010   4.339  0.7018 -1.2248  0.7507
13512TIP3   OH240457   6.213   6.059   4.778 -0.5333  0.2834 -0.0027
13512TIP3    H140458   6.231   6.044   4.685  4.5005 -0.7056  0.9718
13512TIP3    H240459   6.247   6.146   4.795 -0.1942 -0.0855  1.2067
13513TIP3   OH240460   4.594   6.859   3.315 -0.3336 -0.1107 -0.2467
13513TIP3    H140461   4.646   6.891   3.241  0.1993  0.5743  0.4223
13513TIP3    H240462   4.550   6.781   3.281  0.7971 -0.4626 -0.9519
13514TIP3   OH240463   6.415   6.122   4.294  0.1003 -0.1191 -0.6861
13514TIP3    H140464   6.381   6.197   4.245 -0.4526  1.1919  1.6225
13514TIP3    H240465   6.507   6.117   4.269 -0.5326 -0.4767 -3.0567
13515TIP3   OH240466   6.646   6.329   3.315 -0.3105 -0.2013 -0.0027
13515TIP3    H140467   6.659   6.284   3.232  1.7912  0.0742  0.1645
13515TIP3    H240468   6.644   6.259   3.380 -1.2546 -0.3585 -0.1886
13516TIP3   OH240469   4.640   5.151   4.127  0.3485 -0.6415 -0.6621
13516TIP3    H140470   4.546   5.134   4.118  0.2762 -0.1782 -0.8292
13516TIP3    H240471   4.667   5.097   4.200 -0.1744 -0.3358 -0.2353
13517TIP3   OH240472   5.710   7.512   4.178 -0.0909 -0.7316  0.2887
13517TIP3    H140473   5.655   7.434   4.174 -0.4171 -0.5488  1.0754
13517TIP3    H240474   5.776   7.499   4.110 -1.4874 -0.6638 -1.1148
13518TIP3   OH240475   3.921   5.254   5.913  0.3948 -0.5673  0.5957
13518TIP3    H140476   3.933   5.236   6.006  0.8037 -0.0626  0.6415
13518TIP3    H240477   3.842   5.206   5.889  1.7499 -2.8952  0.6041
13519TIP3   OH240478   4.642   5.491   5.087  0.3964 -0.5128 -0.3894
13519TIP3    H140479   4.653   5.533   5.173  2.9131 -1.5392 -0.1693
13519TIP3    H240480   4.566   5.534   5.049  0.7533  1.7107  1.3189
13520TIP3   OH240481   0.432   5.444   5.741 -0.0068 -0.0467 -0.2645
13520TIP3    H140482   0.399   5.533   5.728 -2.0091 -0.7168  0.1266
13520TIP3    H240483   0.521   5.457   5.776 -1.3040  1.8632  2.5932
13521TIP3   OH240484   4.099   4.555   6.810 -0.6711 -0.1823  0.2553
13521TIP3    H140485   4.070   4.565   6.719  0.9968  1.0158 -0.1664
13521TIP3    H240486   4.077   4.638   6.852 -2.2882 -1.0600  1.2338
13522TIP3   OH240487   6.234   7.590   5.675  0.0694 -0.5808  0.1077
13522TIP3    H140488   6.233   7.597   5.580  0.9632  2.3443  0.2747
13522TIP3    H240489   6.142   7.576   5.698 -0.0410 -2.1758 -1.2102
13523TIP3   OH240490   4.764   7.630   6.262  0.1366 -0.5987  0.1778
13523TIP3    H140491   4.815   7.705   6.295  0.6887  0.1485 -2.3215
13523TIP3    H240492   4.687   7.628   6.319  1.5782 -0.0382  2.2339
13524TIP3   OH240493   6.914   6.034   3.893  0.2910  0.4431 -0.1780
13524TIP3    H140494   6.962   6.096   3.839 -1.1352  0.7481 -1.1207
13524TIP3    H240495   6.907   5.955   3.840 -2.6651  1.3352 -1.2190
13525TIP3   OH240496   0.579   1.016   3.429  0.2710 -0.2337 -0.2310
13525TIP3    H140497   0.648   0.958   3.461  1.0273  0.2357 -1.0010
13525TIP3    H240498   0.530   0.962   3.367  0.1436 -0.4622  0.0646
13526TIP3   OH240499   5.006   5.702   4.300 -0.3571 -0.9129  0.4400
13526TIP3    H140500   4.975   5.793   4.301  0.2134 -0.7011 -0.8424
13526TIP3    H240501   4.987   5.671   4.212 -1.0208 -2.2256  1.0258
13527TIP3   OH240502   5.040   5.881   4.662  0.4120 -0.8660  0.1752
13527TIP3    H140503   4.954   5.847   4.686  0.8602 -1.1119  1.4999
13527TIP3    H240504   5.073   5.922   4.742  0.9138  0.5406 -0.7224
13528TIP3   OH240505   5.495   6.119   4.615 -0.8629 -0.0523  0.2477
13528TIP3    H140506   5.489   6.035   4.661  0.1888  0.7221  1.8659
13528TIP3    H240507   5.533   6.178   4.680 -0.3090  1.3391 -1.3246
13529TIP3   OH240508   5.741   4.107   4.832  0.4978  0.0997  0.0417
13529TIP3    H140509   5.734   4.175   4.898  0.9286  1.3638 -1.1787
13529TIP3    H240510   5.712   4.027   4.876 -0.2133  1.1027  1.4331
13530TIP3   OH240511   6.143   7.127   4.913 -0.3364 -0.2296  0.0673
13530TIP3    H140512   6.124   7.138   4.820  0.9983  0.9619 -0.0948
13530TIP3    H240513   6.118   7.037   4.933 -2.9238  0.2533 -0.8605
13531TIP3   OH240514   5.077   7.641   5.525 -0.1755  0.2890 -0.6636
13531TIP3    H140515   5.078   7.613   5.433 -0.7905 -0.5914 -0.3977
13531TIP3    H240516   5.170   7.652   5.547  0.1006 -2.0094 -0.6127
13532TIP3   OH240517   8.369   6.574   4.205 -0.5180 -0.8176 -0.4766
13532TIP3    H140518   8.376   6.483   4.235 -0.4847 -1.2582 -1.8023
13532TIP3    H240519   8.276   6.593   4.209 -0.5281 -0.9103 -0.2270
13533TIP3   OH240520   6.258   7.141   7.201 -0.3092  0.0598 -0.0994
13533TIP3    H140521   6.334   7.116   7.148 -1.2426 -1.3952 -0.7818
13533TIP3    H240522   6.225   7.058   7.236 -2.1751  0.5724 -0.6232
13534TIP3   OH240523   7.000   8.063   3.376 -0.3321  0.0274  0.5511
13534TIP3    H140524   7.080   8.116   3.375  0.9258 -1.8053  0.5766
13534TIP3    H240525   6.979   8.051   3.284  0.5299 -1.0752  0.4864
13535TIP3   OH240526   5.343   5.963   5.449  0.1138 -0.0581 -0.3841
13535TIP3    H140527   5.291   6.016   5.389 -0.8429  0.0553  0.5375
13535TIP3    H240528   5.375   6.025   5.514  0.4633 -0.3277 -0.2973
13536TIP3   OH240529   6.324   6.406   3.895 -0.0605  0.0458  0.0694
13536TIP3    H140530   6.242   6.452   3.875 -1.2358 -2.7335 -1.7493
13536TIP3    H240531   6.377   6.415   3.816  0.4496 -0.1506  0.3872
13537TIP3   OH240532   4.255   5.655   5.720 -0.0253  0.1848 -0.9197
13537TIP3    H140533   4.350   5.643   5.719  0.1235  0.3797  2.9199
13537TIP3    H240534   4.244   5.750   5.718  0.0019  0.2600  1.3346
13538TIP3   OH240535   6.907   6.647   2.644  0.6308 -0.7020  0.4460
13538TIP3    H140536   6.981   6.687   2.599  1.9029 -2.2357  1.0842
13538TIP3    H240537   6.831   6.664   2.588  2.5039 -4.6173 -3.6187
13539TIP3   OH240538   5.354   7.428   7.150  0.3721 -0.3600 -0.0262
13539TIP3    H140539   5.359   7.514   7.109  0.4035  0.1271  0.9807
13539TIP3    H240540   5.260   7.408   7.152  0.4454 -0.8437 -1.2605
13540TIP3   OH240541   0.245   6.033   2.860  0.3076 -0.3477  0.2858
13540TIP3    H140542   0.222   6.034   2.953 -0.9503  2.2007 -0.0187
13540TIP3    H240543   0.161   6.027   2.814  0.7552  0.6866 -0.7163
13541TIP3   OH240544   0.960   1.227   5.264 -0.5089 -0.2223  0.5375
13541TIP3    H140545   0.890   1.170   5.232 -1.1037  0.4388  0.6418
13541TIP3    H240546   0.938   1.242   5.356 -1.6460  2.0532 -0.0729
13542TIP3   OH240547   6.211   7.420   6.541 -0.3301 -0.5775  0.3871
13542TIP3    H140548   6.274   7.434   6.612  0.8959  1.3354 -1.0402
13542TIP3    H240549   6.255   7.360   6.481 -0.8091 -1.0557  0.4980
13543TIP3   OH240550   6.055   5.951   3.684 -0.6007 -0.0264  0.7586
13543TIP3    H140551   6.039   6.017   3.751 -2.6322 -1.2763  1.5452
13543TIP3    H240552   6.025   5.992   3.602  2.3490  1.6904  0.4604
13544TIP3   OH240553   5.132   7.246   5.035  0.1039 -0.2760 -0.4704
13544TIP3    H140554   5.101   7.161   5.066 -2.5764  1.6245  2.3728
13544TIP3    H240555   5.124   7.241   4.940 -1.9522 -2.5020 -0.2374
13545TIP3   OH240556   5.349   4.453   5.639  0.2816  0.8075  0.0195
13545TIP3    H140557   5.263   4.433   5.602 -0.2746  3.8194 -0.4137
13545TIP3    H240558   5.411   4.403   5.586 -1.0521  0.1254 -0.8914
13546TIP3   OH240559   4.250   7.487   6.615  0.2193  0.0732 -1.0356
13546TIP3    H140560   4.163   7.461   6.586  0.7949 -4.5419  0.9619
13546TIP3    H240561   4.235   7.524   6.702  0.1943 -0.3790 -0.8457
13547TIP3   OH240562   5.124   6.336   5.973 -0.2314  0.2798  0.4690
13547TIP3    H140563   5.172   6.257   5.997  0.9525  0.8462 -0.0212
13547TIP3    H240564   5.051   6.339   6.035  0.5456 -0.4066  1.4399
13548TIP3   OH240565   4.521   5.678   5.735  0.4856 -0.5218  0.5663
13548TIP3    H140566   4.582   5.606   5.752  0.6700 -0.3483  0.6511
13548TIP3    H240567   4.564   5.755   5.773 -0.0516 -0.4998  1.1362
13549TIP3   OH240568   1.446   0.827   5.647  0.1690 -0.1006  0.1086
13549TIP3    H140569   1.470   0.784   5.729  0.2562  0.4517  0.3764
13549TIP3    H240570   1.380   0.892   5.673 -1.3123 -1.3119 -0.5541
13550TIP3   OH240571   1.862   0.237   4.490  0.6628 -0.2309  0.0929
13550TIP3    H140572   1.804   0.264   4.419 -1.1282  0.5115  1.7650
13550TIP3    H240573   1.950   0.247   4.455 -0.2038 -0.4460 -2.1963
13551TIP3   OH240574   8.486   0.151   6.396  0.9487  0.0953  0.4323
13551TIP3    H140575   8.562   0.154   6.338  0.2672 -0.5505 -0.4965
13551TIP3    H240576   8.504   0.078   6.455  0.3023 -1.0948 -0.8319
13552TIP3   OH240577   8.137   7.831   2.612 -0.0626 -0.5800 -0.2454
13552TIP3    H140578   8.209   7.863   2.667  0.3812  1.0241 -1.7444
13552TIP3    H240579   8.180   7.786   2.539 -0.5668  0.5827 -1.2705
13553TIP3   OH240580   5.785   5.501   4.646  0.1381 -0.2898  0.4262
13553TIP3    H140581   5.793   5.434   4.578 -2.5826 -2.3120  2.0275
13553TIP3    H240582   5.850   5.477   4.712  1.3571  0.5155 -0.4463
13554TIP3   OH240583   8.471   5.811   4.860  0.5232  0.2476 -0.3699
13554TIP3    H140584   8.408   5.824   4.931  0.7802 -1.1557  0.1432
13554TIP3    H240585   8.555   5.835   4.898  0.6094 -0.1418 -0.3065
13555TIP3   OH240586   5.521   7.425   6.714 -0.2219  0.3083 -0.5581
13555TIP3    H140587   5.576   7.502   6.728  0.0095  0.3509 -1.7315
13555TIP3    H240588   5.447   7.438   6.774  1.6308 -0.3584  1.9823
13556TIP3   OH240589   7.880   0.021   6.194  0.5241  0.1157 -0.0716
13556TIP3    H140590   7.827  -0.056   6.216 -0.2392  0.3940 -0.9222
13556TIP3    H240591   7.923   0.045   6.276  0.6464 -1.1265  0.2318
13557TIP3   OH240592   5.125   6.946   5.044 -0.2423  0.0609  0.0687
13557TIP3    H140593   5.111   6.907   4.958 -1.2438  0.8034 -0.1161
13557TIP3    H240594   5.170   6.878   5.094 -0.7579 -0.8290 -0.6561
13558TIP3   OH240595   6.635   5.412   3.113 -0.1739 -0.0451 -0.3492
13558TIP3    H140596   6.597   5.408   3.201 -0.2973  0.3106 -0.3830
13558TIP3    H240597   6.625   5.324   3.077 -1.8559  0.2928 -0.7379
13559TIP3   OH240598   7.200   6.289   6.203  0.1112 -0.4117 -0.0092
13559TIP3    H140599   7.169   6.236   6.276 -0.5073 -0.1091 -0.0560
13559TIP3    H240600   7.285   6.250   6.180  0.2614 -0.5733  0.7986
13560TIP3   OH240601   5.484   7.752   6.002 -0.7064  0.1047  0.5291
13560TIP3    H140602   5.471   7.660   6.025 -0.0576 -0.3335 -0.8304
13560TIP3    H240603   5.400   7.780   5.967 -0.4655 -0.3983 -0.4650
13561TIP3   OH240604   7.415   5.901   5.369  0.2558  0.2805  0.0622
13561TIP3    H140605   7.447   5.920   5.457  2.2662 -0.3001 -0.5182
13561TIP3    H240606   7.327   5.867   5.382  1.6919 -2.8914  2.1437
13562TIP3   OH240607   4.238   5.311   5.620  0.3381 -0.6802  0.0329
13562TIP3    H140608   4.308   5.251   5.594 -0.0257 -1.0378 -0.1291
13562TIP3    H240609   4.229   5.299   5.714  0.7542 -0.3551  0.1148
13563TIP3   OH240610   7.499   5.740   6.508  0.1503 -0.1505 -0.6963
13563TIP3    H140611   7.475   5.654   6.543  1.7328 -0.5729 -0.5968
13563TIP3    H240612   7.585   5.758   6.548  0.6800  0.6279 -2.1655
13564TIP3   OH240613   5.830   6.898   5.530  0.8211 -0.0318  0.3137
13564TIP3    H140614   5.749   6.891   5.480  0.6933  0.3662  0.4704
13564TIP3    H240615   5.874   6.814   5.515  0.0803 -0.4996  0.7616
13565TIP3   OH240616   4.714   7.039   4.213 -0.5161 -0.3253 -0.8814
13565TIP3    H140617   4.744   7.117   4.260  0.4010 -1.7601  0.9379
13565TIP3    H240618   4.792   7.008   4.167 -0.6696 -0.6754 -0.9044
13566TIP3   OH240619   4.965   2.501   5.473 -0.3128  0.8473 -0.4190
13566TIP3    H140620   4.919   2.462   5.399  0.3107  0.9765 -0.8728
13566TIP3    H240621   4.928   2.457   5.550  0.5615 -0.8364 -0.9404
13567TIP3   OH240622   6.324   7.646   4.219 -0.2141  0.1221 -0.0070
13567TIP3    H140623   6.335   7.738   4.239  2.2446 -0.3712  1.0371
13567TIP3    H240624   6.333   7.641   4.123  1.7562  0.7088  0.1268
13568TIP3   OH240625   7.102   6.246   6.733 -0.1871 -0.1428 -0.2162
13568TIP3    H140626   7.024   6.280   6.690 -0.5060 -2.2887 -1.4045
13568TIP3    H240627   7.136   6.320   6.784 -3.2151  0.7021  0.6715
13569TIP3   OH240628   4.629   7.129   3.757 -0.3952 -0.4470  0.0402
13569TIP3    H140629   4.627   7.060   3.690 -1.5134 -1.5092  1.1511
13569TIP3    H240630   4.701   7.186   3.730  1.2196 -2.6184 -0.3228
13570TIP3   OH240631   6.310   5.829   3.744 -0.8337 -0.4726 -0.0257
13570TIP3    H140632   6.333   5.905   3.797 -1.0146 -0.2944 -0.2034
13570TIP3    H240633   6.227   5.853   3.702 -1.5975 -1.2904  0.9709
13571TIP3   OH240634   4.925   5.212   5.828 -0.2232  0.6012 -0.0411
13571TIP3    H140635   5.005   5.227   5.879  1.3939 -1.7127 -1.7438
13571TIP3    H240636   4.931   5.275   5.756  0.4076  0.0162 -0.5097
13572TIP3   OH240637   3.576   6.308   6.939  0.0224 -0.0787  0.3880
13572TIP3    H140638   3.562   6.213   6.934 -0.6389  0.0367 -0.1048
13572TIP3    H240639   3.491   6.342   6.968  0.7731  0.2106  2.3331
13573TIP3   OH240640   4.576   7.203   6.884 -0.4256  0.7036  0.1893
13573TIP3    H140641   4.633   7.234   6.954  1.4575  0.8879 -1.3855
13573TIP3    H240642   4.561   7.111   6.903  0.7184  0.5628  0.3996
13574TIP3   OH240643   3.753   6.556   4.800  0.1542 -0.9179 -0.0609
13574TIP3    H140644   3.816   6.613   4.755  0.5221 -0.0959  1.4788
13574TIP3    H240645   3.696   6.616   4.847  0.3993 -1.8177  1.3899
13575TIP3   OH240646   4.568   3.895   1.731  0.3603 -0.2941  0.3790
13575TIP3    H140647   4.477   3.875   1.707  1.1636 -0.6108 -2.6652
13575TIP3    H240648   4.563   3.979   1.776 -1.7530 -1.7032  2.8666
13576TIP3   OH240649   5.325   7.401   6.429  0.4012 -0.1078  0.5430
13576TIP3    H140650   5.373   7.426   6.507  0.9807 -0.7155  0.3837
13576TIP3    H240651   5.387   7.412   6.357 -0.7134  2.3956 -0.1260
13577TIP3   OH240652   4.425   8.098   6.715 -0.1333 -0.1067  0.4287
13577TIP3    H140653   4.466   8.020   6.677  3.0418  1.0590  1.3318
13577TIP3    H240654   4.418   8.159   6.642  0.9154  0.1411  0.5288
13578TIP3   OH240655   5.637   5.806   4.423 -0.0710  0.0137 -0.2292
13578TIP3    H140656   5.732   5.798   4.427 -0.1084  0.1196  0.9871
13578TIP3    H240657   5.607   5.774   4.508 -1.1959 -1.0647 -1.0258
13579TIP3   OH240658   4.747   6.394   5.651 -0.4306 -0.2178  0.3407
13579TIP3    H140659   4.715   6.429   5.734 -1.2475 -3.6092  1.5397
13579TIP3    H240660   4.842   6.385   5.664 -0.2884  0.9214  0.2108
13580TIP3   OH240661   6.506   6.232   5.347  0.2971 -0.1432  0.2978
13580TIP3    H140662   6.591   6.196   5.321  1.0140  0.3689  1.8581
13580TIP3    H240663   6.471   6.270   5.266  2.3606  1.2041 -0.0220
13581TIP3   OH240664   4.009   2.117   0.028  0.1548 -0.2847  0.1294
13581TIP3    H140665   4.008   2.075   0.114  0.0143  0.9327  0.7309
13581TIP3    H240666   4.057   2.198   0.042 -0.1640  0.0723 -0.8712
13582TIP3   OH240667   6.616   5.161   5.412 -0.3305  0.6959 -0.2042
13582TIP3    H140668   6.557   5.224   5.454 -0.2204  0.1440  0.7905
13582TIP3    H240669   6.695   5.162   5.467  0.6989  1.6054 -1.6520
13583TIP3   OH240670   5.086   6.481   4.777 -0.4615  0.1789  0.7326
13583TIP3    H140671   5.050   6.472   4.865 -1.8863 -0.7160  0.0942
13583TIP3    H240672   5.112   6.392   4.752  2.0129  0.7725  1.0721
13584TIP3   OH240673   3.053   1.356   0.514  0.3912 -0.3780  0.2692
13584TIP3    H140674   2.994   1.300   0.464  1.9343 -1.5479 -0.2938
13584TIP3    H240675   3.071   1.306   0.594 -0.5587  0.6403  1.1278
13585TIP3   OH240676   6.377   6.487   6.648 -0.0839 -0.1788 -0.6075
13585TIP3    H140677   6.425   6.407   6.670  1.4655  0.6888 -0.7297
13585TIP3    H240678   6.285   6.461   6.646  0.3955 -1.9128 -0.4808
13586TIP3   OH240679   4.880   6.180   4.613 -0.1925 -0.3398  0.4069
13586TIP3    H140680   4.855   6.090   4.636 -1.3819 -0.3745 -0.9988
13586TIP3    H240681   4.797   6.226   4.602  0.4151  0.8725  0.8512
13587TIP3   OH240682   7.745   5.342   2.305 -0.0738 -0.1714 -0.6281
13587TIP3    H140683   7.660   5.354   2.262 -1.0965 -2.3613  0.6882
13587TIP3    H240684   7.805   5.321   2.234 -0.9828 -0.2225 -1.4000
13588TIP3   OH240685   2.796   2.538   0.873  0.1100  0.2577 -0.6061
13588TIP3    H140686   2.878   2.540   0.823 -0.5070  0.3822 -1.6291
13588TIP3    H240687   2.745   2.610   0.838  1.1225  2.7508  2.7906
13589TIP3   OH240688   5.061   7.118   3.796 -0.2151 -0.3741  0.4641
13589TIP3    H140689   5.021   7.193   3.754  1.1852  1.0682  1.6457
13589TIP3    H240690   5.054   7.048   3.731  1.1665  1.5558 -1.8636
13590TIP3   OH240691   5.106   5.360   3.479 -0.0294  0.3758 -0.2575
13590TIP3    H140692   5.155   5.443   3.474 -1.1743  1.1402  0.8157
13590TIP3    H240693   5.061   5.353   3.395  0.4005  0.6350 -0.5099
13591TIP3   OH240694   2.813   2.840   0.861  0.0482 -0.5492  0.4530
13591TIP3    H140695   2.903   2.815   0.879  0.0568 -0.9116 -0.0750
13591TIP3    H240696   2.817   2.933   0.841  0.2700 -0.5121  0.6773
13592TIP3   OH240697   5.328   6.633   4.793 -0.2362  0.3097 -0.4662
13592TIP3    H140698   5.379   6.595   4.721  0.8784 -0.3990  0.6809
13592TIP3    H240699   5.258   6.569   4.809 -0.1076  0.1640 -0.4876
13593TIP3   OH240700   4.282   0.145   0.117  0.1673  0.7871 -0.5070
13593TIP3    H140701   4.310   0.142   0.208  0.6613 -0.6314 -0.7035
13593TIP3    H240702   4.283   0.238   0.095  2.0346  0.9700  0.3195
13594TIP3   OH240703   8.767   5.062   3.806  0.4630  0.1195  0.3045
13594TIP3    H140704   8.731   5.081   3.893  0.9538  0.1993  0.4908
13594TIP3    H240705   8.723   5.124   3.748  0.3003  0.2176  0.5299
13595TIP3   OH240706   2.303   1.315   0.203  0.1802  0.1724 -0.4136
13595TIP3    H140707   2.245   1.281   0.135 -1.8706 -2.2932  2.3812
13595TIP3    H240708   2.390   1.281   0.180 -0.7586 -1.9253 -1.0399
13596TIP3   OH240709   4.593   6.646   6.139 -0.8113  0.2493  0.1199
13596TIP3    H140710   4.676   6.691   6.154 -1.4862  0.9178  2.0807
13596TIP3    H240711   4.608   6.557   6.172 -1.0019  0.5105  0.9350
13597TIP3   OH240712   6.361   7.179   4.507  0.6786 -0.3733  0.0179
13597TIP3    H140713   6.339   7.269   4.530 -0.5356 -0.7174  0.2355
13597TIP3    H240714   6.361   7.178   4.411 -1.5172 -0.6524  0.0010
13598TIP3   OH240715   6.531   7.486   7.171  0.4395  0.1074 -0.5336
13598TIP3    H140716   6.535   7.458   7.080  1.6489  0.8285 -0.7071
13598TIP3    H240717   6.531   7.405   7.222  1.8914 -0.2589 -1.1031
13599TIP3   OH240718   6.846   7.397   6.829 -0.4070  0.1782  0.0313
13599TIP3    H140719   6.930   7.429   6.797 -0.8709  0.1980 -1.1931
13599TIP3    H240720   6.852   7.405   6.924  0.1637  2.2029 -0.1510
13600TIP3   OH240721   5.616   7.061   6.314 -0.1325 -0.2918  0.8994
13600TIP3    H140722   5.570   7.004   6.376 -3.3928  0.6000 -0.5708
13600TIP3    H240723   5.640   7.002   6.241 -3.1703  0.0357 -0.4490
13601TIP3   OH240724   6.664   6.471   5.152 -0.4886  0.5210  0.2698
13601TIP3    H140725   6.719   6.398   5.122  0.7074  1.0493  1.1575
13601TIP3    H240726   6.662   6.462   5.247 -1.7582  0.6435  0.2603
13602TIP3   OH240727   3.835   3.861   0.956  0.7139  0.1529 -0.8494
13602TIP3    H140728   3.742   3.840   0.950  0.9079 -0.8742 -0.3247
13602TIP3    H240729   3.873   3.787   1.003  1.5892  1.1334  0.0231
13603TIP3   OH240730   5.869   7.050   4.544 -0.3246 -0.1249  0.4995
13603TIP3    H140731   5.949   7.045   4.597 -0.1952  2.4672  0.6151
13603TIP3    H240732   5.900   7.067   4.455 -0.6850 -0.6343  0.2772
13604TIP3   OH240733   5.500   5.276   4.643  0.0003 -0.5649  0.1731
13604TIP3    H140734   5.470   5.243   4.728  2.9081 -0.2509  1.3751
13604TIP3    H240735   5.453   5.359   4.631 -0.3630 -0.5683  1.5056
13605TIP3   OH240736   5.563   5.283   4.059 -0.1168 -0.0720 -0.2348
13605TIP3    H140737   5.512   5.350   4.013 -0.5233  0.4115  0.9172
13605TIP3    H240738   5.603   5.232   3.988 -4.3026 -2.1397 -1.3128
13606TIP3   OH240739   4.890   6.909   5.171 -0.2242  0.4406  0.0586
13606TIP3    H140740   4.974   6.916   5.127  0.5692  0.0887  1.5057
13606TIP3    H240741   4.861   6.819   5.154 -0.5807  0.7392 -0.9213
13607TIP3   OH240742   4.435   7.035   3.919  0.4035 -0.3477 -0.0844
13607TIP3    H140743   4.498   7.083   3.865  1.6787 -1.4673  0.3845
13607TIP3    H240744   4.477   7.027   4.004 -1.4908  1.1613  1.0362
13608TIP3   OH240745   0.346   0.838   4.234  0.0746 -0.1011  0.2500
13608TIP3    H140746   0.398   0.906   4.191 -1.0652 -0.3860 -1.6583
13608TIP3    H240747   0.323   0.778   4.163 -0.0958 -1.7510  1.6616
13609TIP3   OH240748   5.791   6.941   7.002 -0.3081  0.2056  0.7171
13609TIP3    H140749   5.788   7.036   7.012 -0.1468  0.2060  0.7539
13609TIP3    H240750   5.875   6.924   6.959 -1.7973  0.3841 -2.4145
13610TIP3   OH240751   8.240   7.600   3.129 -0.0953 -0.1945  0.5013
13610TIP3    H140752   8.310   7.626   3.069 -1.1119  0.2137 -0.5253
13610TIP3    H240753   8.160   7.613   3.079 -0.8386 -1.9592  1.1820
13611TIP3   OH240754   5.458   6.270   3.016  0.0282 -0.7689 -0.1832
13611TIP3    H140755   5.425   6.303   3.100  0.1563 -2.7895  0.7050
13611TIP3    H240756   5.390   6.211   2.985  0.2167 -0.4238 -1.2569
13612TIP3   OH240757   5.441   8.257   5.583  0.5476 -0.5651  0.4415
13612TIP3    H140758   5.470   8.333   5.634  0.5828 -0.6039  0.4790
13612TIP3    H240759   5.411   8.194   5.648 -0.4890 -0.1685  0.3631
13613TIP3   OH240760   5.983   6.925   4.284  0.3077 -0.4926 -0.4757
13613TIP3    H140761   5.910   6.887   4.333  0.4945  0.6541  0.7381
13613TIP3    H240762   6.055   6.864   4.296  0.1804 -0.5149  0.2064
13614TIP3   OH240763   6.172   6.068   5.242 -0.1719  0.1438  0.0342
13614TIP3    H140764   6.107   6.126   5.205 -0.7119 -0.3039  0.2674
13614TIP3    H240765   6.246   6.071   5.181  0.0473  1.5423  0.3696
13615TIP3   OH240766   5.967   6.939   6.521 -0.6318 -0.3624 -0.0106
13615TIP3    H140767   5.993   6.921   6.612 -0.6811  1.0780  0.3123
13615TIP3    H240768   5.901   7.008   6.529  1.0313  1.4170 -1.2557
13616TIP3   OH240769   6.653   6.989   4.753  0.1661  0.3071 -0.6215
13616TIP3    H140770   6.682   6.975   4.843  0.3991 -1.0251 -0.8956
13616TIP3    H240771   6.583   7.054   4.761 -0.4855 -0.5138  0.6435
13617TIP3   OH240772   4.613   3.112   6.270 -0.6264 -0.6184 -0.2437
13617TIP3    H140773   4.661   3.174   6.215  0.6723 -2.3728 -1.1742
13617TIP3    H240774   4.681   3.065   6.319 -1.5965 -1.0355  0.7414
13618TIP3   OH240775   7.323   5.390   6.553 -0.2113  0.0604  0.0281
13618TIP3    H140776   7.319   5.446   6.630  0.6369  0.6279 -0.3399
13618TIP3    H240777   7.338   5.302   6.588 -0.9272  0.1408  0.5651
13619TIP3   OH240778   6.254   4.856   6.882 -0.4862  0.0152  0.0973
13619TIP3    H140779   6.206   4.937   6.899  1.1648  0.7125  1.5334
13619TIP3    H240780   6.228   4.798   6.953 -0.1415 -0.0340  0.1812
13620TIP3   OH240781   5.854   6.301   2.316 -0.0481  0.2274 -0.0359
13620TIP3    H140782   5.776   6.310   2.263 -1.9433 -3.2487  1.9748
13620TIP3    H240783   5.879   6.391   2.339 -3.3060  1.3814 -0.8493
13621TIP3   OH240784   7.871   6.714   3.227 -0.4154  0.2924 -0.2239
13621TIP3    H140785   7.855   6.620   3.219 -1.4306  0.0696  3.3962
13621TIP3    H240786   7.967   6.721   3.230 -0.2222 -0.2664 -3.4287
13622TIP3   OH240787   5.663   3.725   5.817 -0.2906 -0.0126  0.1970
13622TIP3    H140788   5.710   3.763   5.891 -0.1101  0.2968 -0.0719
13622TIP3    H240789   5.731   3.703   5.754 -0.1653 -3.0356  1.3150
13623TIP3   OH240790   7.419   7.880   2.983 -0.6081 -0.3028 -0.1467
13623TIP3    H140791   7.422   7.956   2.924 -0.3853 -0.9818 -1.0200
13623TIP3    H240792   7.509   7.847   2.984 -0.7588 -0.7043  0.0401
13624TIP3   OH240793   6.535   6.281   7.122  0.1816 -0.2097  0.5400
13624TIP3    H140794   6.508   6.367   7.154  0.6122  1.7826 -4.0319
13624TIP3    H240795   6.453   6.234   7.107 -0.1162 -0.0834  1.7665
13625TIP3   OH240796   6.077   5.057   6.935  0.5523  0.3784 -0.5477
13625TIP3    H140797   6.003   5.117   6.926  1.0120  0.8809 -1.0283
13625TIP3    H240798   6.038   4.974   6.963  0.0715  1.3339  1.7746
13626TIP3   OH240799   6.409   6.512   7.202  0.7684  0.2588 -0.2650
13626TIP3    H140800   6.384   6.591   7.251 -2.8623 -1.8535  1.4897
13626TIP3    H240801   6.356   6.516   7.123 -0.0179 -0.7967  0.2021
13627TIP3   OH240802   5.408   4.237   5.092 -0.1866  0.2505  0.7400
13627TIP3    H140803   5.387   4.155   5.046 -0.7434  0.1206  1.2277
13627TIP3    H240804   5.500   4.252   5.071  0.4874 -1.5559  2.2580
13628TIP3   OH240805   8.469   5.484   6.605 -0.5705  0.1101 -0.2664
13628TIP3    H140806   8.388   5.439   6.580 -0.1001 -0.4024 -0.8691
13628TIP3    H240807   8.536   5.446   6.549  0.4135 -0.6758  1.4388
13629TIP3   OH240808   7.218   7.843   4.098 -0.8056  0.3818 -0.1543
13629TIP3    H140809   7.275   7.829   4.022 -1.1559 -1.4524 -0.1072
13629TIP3    H240810   7.272   7.889   4.162 -0.3295  1.4136 -1.2840
13630TIP3   OH240811   5.840   4.524   4.284 -0.9422 -0.0999 -0.5689
13630TIP3    H140812   5.866   4.432   4.285  2.1630  0.7166  2.2206
13630TIP3    H240813   5.861   4.553   4.195  3.3208 -0.7505  0.1425
13631TIP3   OH240814   0.051   0.248   5.452  0.1992  0.1218  0.3466
13631TIP3    H140815   0.103   0.185   5.501  1.5172  0.8000 -0.1526
13631TIP3    H240816   0.014   0.197   5.380  1.2416 -0.0954 -0.0460
13632TIP3   OH240817   6.377   5.901   4.093  0.1271  0.2660  0.1656
13632TIP3    H140818   6.398   5.955   4.017 -0.4220  0.9871  0.5212
13632TIP3    H240819   6.456   5.905   4.148  0.5156 -0.2371 -0.3477
13633TIP3   OH240820   1.585   0.842   0.544  0.2633  0.2820  1.1620
13633TIP3    H140821   1.505   0.888   0.568 -0.7875 -0.5632 -0.6549
13633TIP3    H240822   1.655   0.896   0.580 -1.0943  1.1404  2.5863
13634TIP3   OH240823   5.336   5.936   4.948 -0.2941 -0.2234 -0.1378
13634TIP3    H140824   5.362   5.850   4.982  2.0871 -0.3332 -2.1472
13634TIP3    H240825   5.396   5.953   4.876 -2.5641  1.8697 -1.6240
13635TIP3   OH240826   6.752   6.528   6.387 -0.1898 -0.3291 -0.1052
13635TIP3    H140827   6.737   6.440   6.352 -0.0769 -0.2469 -0.3636
13635TIP3    H240828   6.833   6.557   6.345  1.1516 -1.0974  1.9065
13636TIP3   OH240829   0.262   1.713  -0.007  0.3406  0.7535 -0.3599
13636TIP3    H140830   0.257   1.737   0.085  3.1065  0.4823 -0.0987
13636TIP3    H240831   0.308   1.629  -0.008  0.5834  0.8786 -1.9992
13637TIP3   OH240832   5.503   6.309   6.808 -0.1015 -0.1974  0.0031
13637TIP3    H140833   5.463   6.275   6.888  0.6745 -0.9670  0.0791
13637TIP3    H240834   5.512   6.403   6.823  1.7718 -0.6003  1.5982
13638TIP3   OH240835   0.306   3.728   0.328  0.3279  0.4124  0.0062
13638TIP3    H140836   0.303   3.783   0.250 -0.0383 -0.8100 -0.8662
13638TIP3    H240837   0.358   3.778   0.391  1.9122  0.7637 -1.5317
13639TIP3   OH240838   8.130   5.021   5.995 -0.4883 -0.9381  0.2938
13639TIP3    H140839   8.166   4.952   6.050  0.2068 -1.4258 -0.7487
13639TIP3    H240840   8.137   5.100   6.047  2.2761 -0.9856  0.0544
13640TIP3   OH240841   5.826   7.704   5.957  0.1473 -0.3289 -0.2368
13640TIP3    H140842   5.732   7.693   5.973  0.0109 -1.4318 -1.6692
13640TIP3    H240843   5.858   7.755   6.032 -1.7744  0.9366 -0.2495
13641TIP3   OH240844   8.617   0.890   4.173 -0.2021 -0.1801 -0.4066
13641TIP3    H140845   8.655   0.911   4.259  1.2959 -1.9751 -0.6114
13641TIP3    H240846   8.661   0.949   4.112  1.1528 -1.1496 -0.4011
13642TIP3   OH240847   7.564   0.230   2.916  0.2266 -0.6129  0.2941
13642TIP3    H140848   7.601   0.302   2.967  1.7632  0.2033 -1.8751
13642TIP3    H240849   7.589   0.250   2.825 -2.1037 -2.1913 -0.7389
13643TIP3   OH240850   5.705   5.595   3.813  0.3467 -0.0327 -0.4470
13643TIP3    H140851   5.779   5.566   3.866  0.4520 -0.9188 -1.0535
13643TIP3    H240852   5.744   5.624   3.731  0.2501  2.0006  0.2013
13644TIP3   OH240853   6.918   5.983   5.000 -0.2449 -0.2967  0.1499
13644TIP3    H140854   6.947   6.070   5.025 -0.3958 -0.8429  2.3763
13644TIP3    H240855   6.999   5.931   4.994 -0.3775 -0.7173  1.8256
13645TIP3   OH240856   6.982   7.600   7.056  0.0692 -0.2762 -0.0332
13645TIP3    H140857   6.903   7.632   7.099 -0.6705 -1.3148 -0.6088
13645TIP3    H240858   7.020   7.538   7.118  0.4655  0.2464  0.2573
13646TIP3   OH240859   6.077   7.330   7.144 -0.2613  0.3808 -0.0567
13646TIP3    H140860   6.139   7.270   7.185  0.1536  1.3394  0.7520
13646TIP3    H240861   6.043   7.282   7.069  2.1217  0.1417 -1.0477
13647TIP3   OH240862   6.770   7.000   3.354  0.1885  0.2839 -0.2071
13647TIP3    H140863   6.720   7.038   3.427  2.1636  0.8477  0.8897
13647TIP3    H240864   6.801   6.916   3.389 -0.4773 -0.3365 -1.0948
13648TIP3   OH240865   7.411   5.501   3.969 -0.4797  0.1293 -0.2393
13648TIP3    H140866   7.319   5.473   3.967 -1.0507  1.8216  0.9453
13648TIP3    H240867   7.445   5.466   4.051 -0.0119 -0.6303 -0.7542
13649TIP3   OH240868   6.274   3.266   5.421  0.4216  0.2839  0.6442
13649TIP3    H140869   6.296   3.356   5.443 -0.9274  1.0455 -1.0136
13649TIP3    H240870   6.271   3.220   5.505 -2.6143  2.6148  1.8841
13650TIP3   OH240871   3.784   4.943   4.251  0.0709  0.2462 -0.8705
13650TIP3    H140872   3.826   4.999   4.316  0.0220  1.5793 -1.9453
13650TIP3    H240873   3.691   4.944   4.275  0.4961 -1.9467  0.9599
13651TIP3   OH240874   7.423   7.227   3.372  0.1075 -0.2590  0.0151
13651TIP3    H140875   7.499   7.207   3.317  0.2447  1.2116 -0.3533
13651TIP3    H240876   7.458   7.238   3.460  0.1527 -0.6814  0.0541
13652TIP3   OH240877   6.251   6.169   3.353  0.3487 -0.0345 -0.4179
13652TIP3    H140878   6.223   6.121   3.276 -2.7102 -0.0922  0.6700
13652TIP3    H240879   6.326   6.119   3.386  0.9492 -0.6529 -2.6511
13653TIP3   OH240880   6.935   6.285   5.607  0.3731  0.2469  0.1028
13653TIP3    H140881   7.002   6.249   5.665  0.9472  1.7623  0.3968
13653TIP3    H240882   6.983   6.319   5.533 -0.1505  0.5972 -0.0767
13654TIP3   OH240883   6.065   5.183   4.914  0.4376  0.1383 -0.7949
13654TIP3    H140884   6.156   5.181   4.941  0.6840  0.8818 -1.5620
13654TIP3    H240885   6.064   5.137   4.830  0.2920  1.0681 -1.3095
13655TIP3   OH240886   6.577   4.892   5.383  0.7158  0.0609 -0.4374
13655TIP3    H140887   6.483   4.888   5.363  1.3199 -0.3554 -3.5420
13655TIP3    H240888   6.593   4.983   5.405 -0.7632 -0.2709  2.3105
13656TIP3   OH240889   4.185   6.371   6.415 -0.2683  0.3131  0.5308
13656TIP3    H140890   4.257   6.394   6.356 -0.0982  0.5131  0.8168
13656TIP3    H240891   4.212   6.287   6.453 -0.3602  0.2035  0.3555
13657TIP3   OH240892   8.385   1.144   4.948 -0.1530 -0.1233 -0.3737
13657TIP3    H140893   8.474   1.136   4.982 -0.0758 -1.0894 -0.8073
13657TIP3    H240894   8.393   1.207   4.876  0.4856 -1.3974 -1.4573
13658TIP3   OH240895   5.844   6.698   5.237  0.4919  0.2986  0.2936
13658TIP3    H140896   5.914   6.745   5.191 -0.0564 -0.5756 -1.4788
13658TIP3    H240897   5.772   6.761   5.240  0.4643  0.2973 -0.2377
13659TIP3   OH240898   5.744   7.255   6.783  0.1839 -0.0855 -0.3427
13659TIP3    H140899   5.769   7.252   6.691  2.0894  2.3447  0.0618
13659TIP3    H240900   5.664   7.306   6.785  1.1851  1.5114 -0.4639
13660TIP3   OH240901   6.162   5.923   5.758 -0.1179 -0.0573 -0.3068
13660TIP3    H140902   6.153   5.997   5.817  0.9133  0.8990 -1.3157
13660TIP3    H240903   6.146   5.960   5.671 -1.3877 -1.3907 -0.6658
13661TIP3   OH240904   4.626   8.237   7.199  0.0428  0.3740  0.1516
13661TIP3    H140905   4.717   8.264   7.189  0.5890 -0.8063  1.8364
13661TIP3    H240906   4.599   8.211   7.111  1.8159 -0.7679 -0.0684
13662TIP3   OH240907   7.574   5.093   7.072  0.0303  0.1181  0.5958
13662TIP3    H140908   7.517   5.155   7.116 -0.2339  1.8581 -2.0569
13662TIP3    H240909   7.650   5.145   7.045  1.0777 -1.3198  0.7256
13663TIP3   OH240910   6.409   6.067   3.882 -0.3212 -0.2157  0.0254
13663TIP3    H140911   6.489   6.064   3.829 -1.4112 -0.6909 -1.6382
13663TIP3    H240912   6.393   6.160   3.896 -0.4319 -0.0399 -1.1671
13664TIP3   OH240913   7.245   6.498   4.681  0.1377  0.0934  0.4858
13664TIP3    H140914   7.261   6.404   4.668 -1.4352 -0.0001 -1.0408
13664TIP3    H240915   7.332   6.538   4.675  0.8036 -1.2578  0.9951
13665TIP3   OH240916   7.678   7.161   3.298 -0.8516  0.1461 -0.3779
13665TIP3    H140917   7.718   7.119   3.222  0.4177  2.7234 -1.2026
13665TIP3    H240918   7.737   7.138   3.371  1.6740  3.0609 -1.4029
13666TIP3   OH240919   8.093   7.598   3.903 -0.0961  0.0871 -0.6681
13666TIP3    H140920   8.189   7.591   3.898  0.0164  0.5540  0.7986
13666TIP3    H240921   8.074   7.684   3.866 -0.0426 -0.4224 -1.9110
13667TIP3   OH240922   8.819   7.477   3.625 -0.3679 -0.0545 -0.5751
13667TIP3    H140923   8.773   7.393   3.614 -1.4461  0.4861 -0.2517
13667TIP3    H240924   8.911   7.454   3.618 -0.6063 -1.4352  0.4546
13668TIP3   OH240925   7.072   5.818   5.708 -0.2619 -0.5356 -0.1442
13668TIP3    H140926   7.163   5.848   5.715  0.0665 -1.0956 -1.8752
13668TIP3    H240927   7.021   5.899   5.702  0.0953 -0.2173  0.9504
13669TIP3   OH240928   7.946   0.910   5.140  0.3599 -0.3642  0.5342
13669TIP3    H140929   8.018   0.927   5.079 -0.7391  0.6126 -0.5067
13669TIP3    H240930   7.875   0.878   5.085 -0.5089  0.1358  1.3637
13670TIP3   OH240931   4.076   0.711   3.476 -0.4684  0.0815 -0.7092
13670TIP3    H140932   4.171   0.705   3.473 -0.3993  0.8945 -0.0933
13670TIP3    H240933   4.053   0.691   3.567 -0.8713  0.1554 -0.7918
13671TIP3   OH240934   7.364   6.992   3.489  0.4068  0.2812  1.0483
13671TIP3    H140935   7.360   7.067   3.429  0.8823 -0.5900 -0.0774
13671TIP3    H240936   7.276   6.954   3.485  1.4529 -1.9599 -1.9413
13672TIP3   OH240937   0.314   5.583   3.097 -0.0604  0.4549 -0.0431
13672TIP3    H140938   0.279   5.623   3.017 -0.1763 -1.7643 -1.1394
13672TIP3    H240939   0.271   5.630   3.168  1.2134  3.5322 -1.2278
13673TIP3   OH240940   1.056   7.586   4.204 -0.1044 -0.3840 -0.0627
13673TIP3    H140941   0.992   7.527   4.165  0.3215 -0.7858 -0.1741
13673TIP3    H240942   1.139   7.563   4.160 -0.0267  0.6521 -0.4751
13674TIP3   OH240943   5.740   5.911   5.871  0.0857 -0.5104  0.0507
13674TIP3    H140944   5.669   5.959   5.912  0.9652  0.3453  0.5789
13674TIP3    H240945   5.789   5.977   5.822  1.2250 -0.8759  0.6733
13675TIP3   OH240946   1.284   0.448   4.413 -0.0765 -0.1052  0.1912
13675TIP3    H140947   1.237   0.513   4.466  0.5305 -0.1432  0.7924
13675TIP3    H240948   1.220   0.380   4.395  0.0017 -0.6302  1.8244
13676TIP3   OH240949   5.543   7.221   5.583  0.2379  0.4442 -0.2660
13676TIP3    H140950   5.515   7.302   5.542  1.7159  1.0874 -0.0568
13676TIP3    H240951   5.485   7.154   5.548 -1.1952  1.6447 -0.2056
13677TIP3   OH240952   7.316   6.649   5.102 -0.3630  0.3989 -0.0267
13677TIP3    H140953   7.327   6.677   5.192  0.9714 -1.2943  0.3578
13677TIP3    H240954   7.405   6.637   5.069 -0.8507  0.0745 -1.2612
13678TIP3   OH240955   7.915   4.758   3.576 -0.2076 -0.7313  0.2133
13678TIP3    H140956   7.928   4.792   3.488 -0.1345 -2.8609 -0.6311
13678TIP3    H240957   8.002   4.732   3.606 -0.4835 -1.7106  0.1853
13679TIP3   OH240958   6.738   6.869   6.877 -0.0883 -0.6625  0.1554
13679TIP3    H140959   6.819   6.904   6.841 -0.0671 -1.3383 -0.4681
13679TIP3    H240960   6.680   6.858   6.801 -0.7288 -0.2786  0.5797
13680TIP3   OH240961   2.271   0.437   3.542  0.4786  0.3197 -0.1438
13680TIP3    H140962   2.237   0.371   3.481 -0.8037  0.1006  0.7723
13680TIP3    H240963   2.341   0.480   3.494 -0.4522  0.1062 -1.7534
13681TIP3   OH240964   5.351   7.713   2.636 -0.2763  0.0932  0.3900
13681TIP3    H140965   5.279   7.730   2.575  0.2056 -0.8384 -0.4514
13681TIP3    H240966   5.364   7.797   2.681 -0.7396  0.7532 -0.6788
13682TIP3   OH240967   1.832   7.769   6.724  0.3387  0.5482  0.4718
13682TIP3    H140968   1.768   7.718   6.675 -1.2991  3.7533 -0.9091
13682TIP3    H240969   1.907   7.710   6.736 -1.8170 -2.4111 -0.1751
13683TIP3   OH240970   6.403   4.136   4.645  0.0713 -0.3703 -0.2203
13683TIP3    H140971   6.456   4.214   4.633  0.1044 -0.4546 -0.6137
13683TIP3    H240972   6.411   4.116   4.739  0.8156 -0.4444 -0.3014
13684TIP3   OH240973   6.420   5.801   5.764  0.1863  0.1690  0.5272
13684TIP3    H140974   6.459   5.851   5.693  0.0303 -1.4214 -0.7188
13684TIP3    H240975   6.326   5.818   5.756 -0.0152 -1.3955 -0.8012
13685TIP3   OH240976   8.775   0.801   2.960 -0.2757  0.6282  0.5712
13685TIP3    H140977   8.837   0.743   2.916 -1.3245  0.3048 -0.4888
13685TIP3    H240978   8.696   0.748   2.971 -0.8570  1.5048  0.6177
13686TIP3   OH240979   1.459   6.272   3.668 -0.2038 -0.0702  0.4302
13686TIP3    H140980   1.437   6.347   3.723 -0.3811  1.4741 -1.6605
13686TIP3    H240981   1.411   6.288   3.586  0.5742 -1.9369 -0.4210
13687TIP3   OH240982   8.655   7.984   3.563 -0.0506  0.7630 -0.0160
13687TIP3    H140983   8.563   7.977   3.538 -0.3685  0.3811  1.2254
13687TIP3    H240984   8.678   7.898   3.597  1.4891  0.0903 -2.6264
13688TIP3   OH240985   6.988   5.939   6.579 -0.0588 -0.0320 -0.1401
13688TIP3    H140986   6.968   5.889   6.500 -0.2080 -1.0357  0.5277
13688TIP3    H240987   7.043   5.881   6.631 -2.4141 -0.5542  1.8405
13689TIP3   OH240988   2.174  -0.012   2.019 -0.3213 -0.0797  0.7749
13689TIP3    H140989   2.089  -0.025   1.977 -0.1064  0.9161  0.0298
13689TIP3    H240990   2.159   0.057   2.084 -0.3661 -0.7754  1.5234
13690TIP3   OH240991   8.776   5.710   4.208  0.2348  0.2115  0.0005
13690TIP3    H140992   8.705   5.647   4.222 -0.0497  0.5224 -0.0256
13690TIP3    H240993   8.737   5.795   4.231  0.6235  0.3735  0.0689
13691TIP3   OH240994   7.344   7.225   3.059  0.4861  0.2630  0.1346
13691TIP3    H140995   7.291   7.180   3.126  1.4552 -0.3839  0.4803
13691TIP3    H240996   7.432   7.227   3.096  0.9494  0.2541 -0.9653
13692TIP3   OH240997   8.453   5.900   3.235 -0.0624 -0.9087 -0.3487
13692TIP3    H140998   8.440   5.951   3.314  0.9649  0.1237 -0.8421
13692TIP3    H240999   8.472   5.964   3.167  0.7420 -1.9062 -1.0813
13693TIP3   OH241000   6.435   7.526   6.194  0.9270 -0.7444  0.4960
13693TIP3    H141001   6.469   7.616   6.202  0.9742 -0.5301 -1.7029
13693TIP3    H241002   6.406   7.520   6.103 -0.1639 -2.5989  0.9548
13694TIP3   OH241003   6.190   7.706   2.859 -0.8585  0.0547 -0.1559
13694TIP3    H141004   6.242   7.782   2.832  0.2125 -0.4078  0.6075
13694TIP3    H241005   6.156   7.670   2.777  0.3479  0.1223 -0.6871
13695TIP3   OH241006   5.849   5.925   4.921 -0.3889  0.6448 -0.1973
13695TIP3    H141007   5.855   5.858   4.853  1.1779  0.4426  0.1176
13695TIP3    H241008   5.870   6.007   4.876  1.4413  0.4094  0.1667
13696TIP3   OH241009   8.216   0.208   3.562 -0.1878  0.3854 -0.0480
13696TIP3    H141010   8.280   0.158   3.612  1.2456  1.3780 -0.8566
13696TIP3    H241011   8.141   0.149   3.553  0.7140 -0.8879  0.6870
13697TIP3   OH241012   7.478   6.831   4.356 -0.1383 -0.1467 -0.1078
13697TIP3    H141013   7.541   6.843   4.285  1.3218  0.7540  1.2786
13697TIP3    H241014   7.511   6.888   4.426 -2.5677  0.4157  0.6260
13698TIP3   OH241015   6.966   6.460   4.524 -0.0492  0.1643  0.3402
13698TIP3    H141016   7.038   6.448   4.586  0.7063  1.7452 -0.2125
13698TIP3    H241017   7.007   6.457   4.438 -0.5568  1.4745  0.0330
13699TIP3   OH241018   1.586   6.568   4.904 -0.0093 -0.1867  0.1646
13699TIP3    H141019   1.682   6.567   4.913  0.2914 -2.1829 -2.5605
13699TIP3    H241020   1.568   6.652   4.861  0.3463  0.8894  2.0804
13700TIP3   OH241021   0.545   6.233   3.808 -0.2572 -0.2807 -0.0833
13700TIP3    H141022   0.453   6.258   3.800  0.1932  0.9271 -1.7894
13700TIP3    H241023   0.587   6.270   3.730  1.5441 -1.4286  0.3062
13701TIP3   OH241024   8.251   7.207   3.798 -0.5050  0.1307 -0.4748
13701TIP3    H141025   8.270   7.239   3.710  2.3006 -0.3449 -0.0975
13701TIP3    H241026   8.226   7.286   3.847  0.9820  0.9179 -0.9396
13702TIP3   OH241027   4.900   6.659   3.716 -0.1584 -0.4781  0.4182
13702TIP3    H141028   4.811   6.656   3.752 -0.6889  2.0651 -0.5558
13702TIP3    H241029   4.895   6.609   3.635 -0.6547 -0.5068  0.4644
13703TIP3   OH241030   0.990   0.398   4.168  0.1167  0.0118  0.1103
13703TIP3    H141031   0.926   0.357   4.110 -0.4171 -0.2508  0.8736
13703TIP3    H241032   0.990   0.342   4.246 -0.3981  1.3013  1.0447
13704TIP3   OH241033   1.533   6.316   4.844  0.6937  0.1004  0.8959
13704TIP3    H141034   1.469   6.301   4.774 -0.6660 -1.9276  2.5069
13704TIP3    H241035   1.518   6.406   4.872 -3.8252 -1.3008  3.4601
13705TIP3   OH241036   6.745   5.717   4.358  0.2538  0.5726  0.0015
13705TIP3    H141037   6.696   5.634   4.354  1.0431  0.0922  0.3118
13705TIP3    H241038   6.712   5.767   4.283  1.7494 -1.1303 -1.8574
13706TIP3   OH241039   0.623   6.931   3.588 -0.4645 -0.2842  0.2957
13706TIP3    H141040   0.631   6.835   3.584  1.1938 -0.1336 -0.3228
13706TIP3    H241041   0.663   6.955   3.672 -1.3523 -0.1831  0.6874
13707TIP3   OH241042   5.774   7.528   6.897  0.0164 -0.3443 -0.2022
13707TIP3    H141043   5.703   7.590   6.881  1.7258  1.6149 -0.4274
13707TIP3    H241044   5.825   7.530   6.816  0.2150 -1.8979 -0.1207
13708TIP3   OH241045   0.267   0.155   3.223  0.6074 -0.1126 -0.2539
13708TIP3    H141046   0.214   0.141   3.301  0.6245  1.5745  0.0735
13708TIP3    H241047   0.342   0.097   3.234 -0.5326 -1.5931 -0.1317
13709TIP3   OH241048   2.554   7.176   3.518 -0.4670 -0.0947 -0.6515
13709TIP3    H141049   2.624   7.237   3.540 -0.7264  0.2522 -0.7965
13709TIP3    H241050   2.545   7.121   3.596  0.6051 -0.7448 -0.9678
13710TIP3   OH241051   0.195   6.786   1.977 -0.3847  0.2753  0.1687
13710TIP3    H141052   0.155   6.700   1.966  0.8412 -0.1027 -1.5394
13710TIP3    H241053   0.271   6.785   1.918  0.4376  2.0256  1.1544
13711TIP3   OH241054   0.704   6.614   3.531 -0.0847 -0.3973  0.3942
13711TIP3    H141055   0.669   6.629   3.443 -0.2051  0.6845  0.6145
13711TIP3    H241056   0.791   6.577   3.516 -1.0321 -2.4894 -0.1580
13712TIP3   OH241057   8.441   7.696   2.898  0.4556  0.1865 -0.3241
13712TIP3    H141058   8.390   7.675   2.819  2.2776  0.1656 -1.5229
13712TIP3    H241059   8.466   7.611   2.934  1.9722  0.2084 -1.2960
13713TIP3   OH241060   2.325   0.413   4.374 -0.0617 -0.1884  0.0712
13713TIP3    H141061   2.357   0.453   4.455  1.0652 -1.1722  0.1321
13713TIP3    H241062   2.396   0.354   4.347 -0.5960 -0.1785 -1.4107
13714TIP3   OH241063   8.019   6.736   3.782  0.4635  0.1631 -0.1522
13714TIP3    H141064   8.058   6.820   3.805 -0.5281  1.0020 -1.5096
13714TIP3    H241065   7.986   6.748   3.693 -1.6390 -0.9700  0.4582
13715TIP3   OH241066   7.666   7.811   3.493 -0.5501  0.0089  0.6073
13715TIP3    H141067   7.598   7.787   3.556  0.2056 -2.8268  0.3804
13715TIP3    H241068   7.737   7.749   3.509 -0.4904 -1.0311 -3.2891
13716TIP3   OH241069   0.059   6.391   4.361  0.1037 -0.4056 -0.4413
13716TIP3    H141070  -0.029   6.426   4.371 -0.2545 -1.6954  0.9582
13716TIP3    H241071   0.103   6.410   4.444  0.1373 -2.5968  0.0610
13717TIP3   OH241072   1.805   6.573   6.023  0.5628  0.1794  0.6086
13717TIP3    H141073   1.737   6.528   6.074  0.0270 -0.6030 -0.7846
13717TIP3    H241074   1.772   6.663   6.013 -1.2137 -0.6835 -1.6931
13718TIP3   OH241075   6.312   4.496   4.505 -0.4559  0.0386 -0.0777
13718TIP3    H141076   6.323   4.584   4.540  0.1971 -0.4289  0.8924
13718TIP3    H241077   6.391   4.449   4.532 -1.0070 -0.9733 -0.2049
13719TIP3   OH241078   8.831   5.812   4.495 -0.4385 -0.0425  0.5141
13719TIP3    H141079   8.738   5.788   4.506 -0.1299 -2.4570 -1.6861
13719TIP3    H241080   8.832   5.873   4.422 -0.1477 -1.1453 -0.4078
13720TIP3   OH241081   0.490   6.592   3.713  0.5308  0.1189  0.1547
13720TIP3    H141082   0.571   6.599   3.663  0.1732 -2.3177 -0.8349
13720TIP3    H241083   0.429   6.649   3.667  1.0167  0.1019 -0.5287
13721TIP3   OH241084   5.228   6.679   5.370 -0.3896  0.2207  0.5406
13721TIP3    H141085   5.225   6.650   5.279  0.4340  0.2903  0.4922
13721TIP3    H241086   5.185   6.764   5.369 -0.8461 -0.0092  0.3089
13722TIP3   OH241087   0.751   5.979   6.227 -0.3053 -0.5022 -0.0777
13722TIP3    H141088   0.821   6.019   6.176  0.0595 -0.3400  0.5486
13722TIP3    H241089   0.670   6.011   6.186 -0.0169  0.6503  0.2530
13723TIP3   OH241090   7.793   7.805   3.859 -0.2735  0.2592  0.5922
13723TIP3    H141091   7.739   7.738   3.817  2.4053 -1.7230  0.1605
13723TIP3    H241092   7.808   7.772   3.947  1.5636 -0.0702  0.1816
13724TIP3   OH241093   8.258   6.481   5.245  0.0999 -0.3454 -0.6896
13724TIP3    H141094   8.313   6.560   5.249 -1.7720  0.9718 -0.0062
13724TIP3    H241095   8.175   6.512   5.209 -2.5675 -0.7971  4.5518
13725TIP3   OH241096   1.330   6.449   5.847  0.2089  0.4704 -0.2920
13725TIP3    H141097   1.417   6.425   5.816  0.3879  3.3376 -2.2653
13725TIP3    H241098   1.330   6.545   5.845 -2.0250  0.5975  2.4998
13726TIP3   OH241099   8.421   5.396   4.022 -0.1388  0.3118 -0.7035
13726TIP3    H141100   8.343   5.439   3.988 -1.3276 -1.6843 -0.6083
13726TIP3    H241101   8.468   5.365   3.945  0.7810  1.8049 -0.7787
13727TIP3   OH241102   1.228   1.201   5.200 -0.2356 -0.0825 -0.0689
13727TIP3    H141103   1.144   1.245   5.214  0.4636  1.5826 -0.9994
13727TIP3    H241104   1.289   1.243   5.261  0.5416  0.5825 -1.2794
13728TIP3   OH241105   6.695   6.153   5.709  0.5891 -0.6808 -0.7755
13728TIP3    H141106   6.769   6.205   5.678  2.1143 -2.6536 -0.5353
13728TIP3    H241107   6.733   6.094   5.775 -1.6402 -0.0954  1.0901
13729TIP3   OH241108   8.583   5.662   5.637  0.0778  0.0691  0.3193
13729TIP3    H141109   8.580   5.578   5.593 -0.0583  0.1307  0.2136
13729TIP3    H241110   8.497   5.672   5.677  0.1170  0.1244  0.3931
13730TIP3   OH241111   6.957   6.278   3.045  0.0801 -0.0430  0.2747
13730TIP3    H141112   6.962   6.184   3.029 -0.6681 -0.2244  1.1254
13730TIP3    H241113   6.955   6.317   2.957 -1.1476 -0.8931 -0.0825
13731TIP3   OH241114   8.051   5.233   4.844  0.4586  0.0010 -0.3164
13731TIP3    H141115   7.989   5.197   4.908  2.0256  0.4000  1.4708
13731TIP3    H241116   8.004   5.305   4.803 -1.0894 -1.1890 -0.6740
13732TIP3   OH241117   7.009   6.887   4.204  0.2073  0.0082  0.1437
13732TIP3    H141118   7.078   6.953   4.195  0.9631 -0.9000 -0.8835
13732TIP3    H241119   7.024   6.850   4.291 -0.5658  1.5604  0.9477
13733TIP3   OH241120   8.079   6.647   4.792 -0.0227  0.0667 -0.3992
13733TIP3    H141121   8.066   6.571   4.735  0.0826 -0.7967  0.7254
13733TIP3    H241122   7.990   6.677   4.812 -0.0634  0.2303 -0.8189
13734TIP3   OH241123   7.547   6.190   3.283  0.2360  0.6712  0.0758
13734TIP3    H141124   7.556   6.197   3.378 -0.9032  0.3884  0.2174
13734TIP3    H241125   7.473   6.130   3.271  0.5386  0.5068 -0.9911
13735TIP3   OH241126   6.933   7.518   3.444  0.2451  0.4006  0.3644
13735TIP3    H141127   6.961   7.546   3.531  0.3304  0.2031  0.4004
13735TIP3    H241128   6.873   7.587   3.415  1.2220  1.1417  0.0415
13736TIP3   OH241129   8.455   7.098   3.493 -0.9700 -0.8776  0.0239
13736TIP3    H141130   8.404   7.175   3.521 -2.3967 -1.1482 -1.7635
13736TIP3    H241131   8.391   7.027   3.489 -0.2890 -1.4112 -1.4817
13737TIP3   OH241132   7.711   4.640   5.268 -0.1523  0.0608 -0.2002
13737TIP3    H141133   7.619   4.660   5.251  0.2680  1.9362 -0.3777
13737TIP3    H241134   7.735   4.700   5.339  1.4332  0.9725 -1.4622
13738TIP3   OH241135   0.936   5.715   3.247  0.1044 -0.8020 -0.4299
13738TIP3    H141136   0.855   5.718   3.195 -0.9446 -1.9132  1.1010
13738TIP3    H241137   0.917   5.771   3.322  0.7845 -1.0337 -0.0855
13739TIP3   OH241138   6.034   7.516   3.001  0.2949 -0.2890 -0.5037
13739TIP3    H141139   5.959   7.507   2.943  0.7174  0.2913 -1.1425
13739TIP3    H241140   6.093   7.577   2.956  0.1947  0.9321  0.9736
13740TIP3   OH241141   6.405   7.907   4.247  0.1409 -0.1211 -0.6788
13740TIP3    H141142   6.428   7.930   4.157 -0.8201  0.9402 -0.6718
13740TIP3    H241143   6.425   7.986   4.297  0.2209 -0.5457 -0.0427
13741TIP3   OH241144   8.613   7.010   4.260  0.3404  0.0008  0.3235
13741TIP3    H141145   8.635   6.931   4.210  0.8853 -0.7400  1.6927
13741TIP3    H241146   8.556   6.978   4.330  0.5460  0.8297  0.8669
13742TIP3   OH241147   5.117   5.922   4.093  0.1519  0.1251 -0.4303
13742TIP3    H141148   5.195   5.877   4.124 -0.4231 -0.4198  0.2081
13742TIP3    H241149   5.124   6.010   4.129 -0.7965 -0.6662  1.7135
13743TIP3   OH241150   6.007   7.438   2.365 -0.1803  0.3519 -0.0349
13743TIP3    H141151   6.049   7.355   2.388 -2.2499 -1.0315 -1.0857
13743TIP3    H241152   5.935   7.413   2.308 -1.6398  2.7882  0.6815
13744TIP3   OH241153   8.203   6.196   5.624  0.0278  0.0353  0.2315
13744TIP3    H141154   8.140   6.213   5.694 -0.5263 -1.2372  0.0516
13744TIP3    H241155   8.240   6.110   5.645  0.1261 -0.1900 -0.8456
13745TIP3   OH241156   1.119   6.518   4.080 -0.0125 -0.1027 -0.2454
13745TIP3    H141157   1.087   6.591   4.027  0.1786 -0.8249 -1.3821
13745TIP3    H241158   1.053   6.450   4.069  0.2434 -0.4066  0.1089
13746TIP3   OH241159   6.106   5.725   4.277  0.1076 -0.1426 -0.1793
13746TIP3    H141160   6.193   5.691   4.254  0.7535  1.6140 -0.4466
13746TIP3    H241161   6.045   5.673   4.225  1.0485 -1.0435 -0.3936
13747TIP3   OH241162   6.217   5.144   4.244  0.4926 -0.1138 -0.3274
13747TIP3    H141163   6.161   5.169   4.170 -0.5426 -0.2777  0.3978
13747TIP3    H241164   6.191   5.054   4.264  0.6613 -0.0156  0.3334
13748TIP3   OH241165   6.051   6.136   6.589  0.5935 -0.4312 -0.2543
13748TIP3    H141166   5.996   6.196   6.538  1.3172  0.2349 -0.2593
13748TIP3    H241167   6.047   6.053   6.540 -0.5127 -0.4302 -0.1790
13749TIP3   OH241168   7.819   7.766   2.555 -0.0810  0.2676 -0.4736
13749TIP3    H141169   7.743   7.765   2.497 -0.0299 -1.0714 -0.5398
13749TIP3    H241170   7.883   7.822   2.511 -1.0887  1.5586 -0.3239
13750TIP3   OH241171   6.708   5.722   2.800  0.5085 -0.2021  0.1969
13750TIP3    H141172   6.782   5.662   2.786 -0.9286 -1.7164 -1.0779
13750TIP3    H241173   6.662   5.685   2.875  0.0833 -0.2268 -0.0766
13751TIP3   OH241174   7.434   8.001   4.261  0.0576 -0.2047  0.4898
13751TIP3    H141175   7.407   8.016   4.352  0.8071 -0.9131  0.8290
13751TIP3    H241176   7.513   7.947   4.267  1.5574  1.8172 -0.5052
13752TIP3   OH241177   0.018   0.417   3.421 -0.3079 -0.2840  0.2271
13752TIP3    H141178   0.063   0.489   3.376 -0.6467 -0.3882 -0.2728
13752TIP3    H241179  -0.057   0.397   3.366 -2.2596  1.3947  2.1902
13753TIP3   OH241180   6.239   4.423   3.081 -0.3390  0.1847  0.4558
13753TIP3    H141181   6.270   4.513   3.094  0.5694  0.0384 -0.6448
13753TIP3    H241182   6.145   4.429   3.093 -0.1019  0.9328  2.2735
13754TIP3   OH241183   1.727   0.166   4.206  0.1021 -0.1735  0.7417
13754TIP3    H141184   1.692   0.253   4.224 -1.6187 -0.7893  0.4827
13754TIP3    H241185   1.664   0.105   4.245  1.1653 -1.3232  0.7357
13755TIP3   OH241186   6.956   7.178   3.160  0.1564  0.2250  0.2428
13755TIP3    H141187   7.036   7.125   3.163  0.4550  0.5948 -0.8071
13755TIP3    H241188   6.914   7.163   3.244  0.8889 -0.6688  0.4605
13756TIP3   OH241189   7.606   7.757   2.381  0.4478 -0.5310  0.6612
13756TIP3    H141190   7.634   7.678   2.335  2.0756  0.8754 -0.8422
13756TIP3    H241191   7.511   7.761   2.365  0.4187 -1.9392  0.4075
13757TIP3   OH241192   1.070   0.104   3.406 -1.0641  0.5494  0.1085
13757TIP3    H141193   1.110   0.156   3.476  2.2848 -0.1833 -1.1529
13757TIP3    H241194   1.008   0.047   3.451  0.1870  0.8872  2.3428
13758TIP3   OH241195   1.916   0.291   2.959  0.1431  0.3970  0.2194
13758TIP3    H141196   1.854   0.339   2.905 -0.1230  1.1419  1.1757
13758TIP3    H241197   1.871   0.279   3.043 -0.0066 -1.9872 -0.1764
13759TIP3   OH241198   0.170   8.042   3.661 -0.0557 -0.2041 -0.0495
13759TIP3    H141199   0.088   8.085   3.687 -0.1592 -0.7437  0.5143
13759TIP3    H241200   0.145   7.986   3.588 -0.3914 -1.1192  0.7546
13760TIP3   OH241201   5.440   6.262   6.104 -0.1105  0.3136  0.2033
13760TIP3    H141202   5.370   6.199   6.088  0.1550  0.3676 -1.2384
13760TIP3    H241203   5.398   6.348   6.094 -0.6346  0.4042  2.8598
13761TIP3   OH241204   0.421   1.339   5.012 -0.9341 -0.7736  0.9756
13761TIP3    H141205   0.464   1.290   4.941 -0.7472 -2.2478  2.0918
13761TIP3    H241206   0.337   1.366   4.975  0.1910  0.6410 -0.6424
13762TIP3   OH241207   4.306   5.745   3.733 -0.0596 -0.2626  0.0415
13762TIP3    H141208   4.304   5.690   3.812  0.0557 -0.4084 -0.0558
13762TIP3    H241209   4.396   5.738   3.702  0.6975  2.2398  1.6058
13763TIP3   OH241210   0.459   7.721   3.641  0.5721  0.0678  0.3563
13763TIP3    H141211   0.451   7.657   3.711 -1.6872 -0.4484 -0.3322
13763TIP3    H241212   0.441   7.805   3.683  0.7865 -0.0569  0.7010
13764TIP3   OH241213   8.547   7.841   4.307  0.2945  0.1411  0.0618
13764TIP3    H141214   8.632   7.884   4.317 -0.1479  1.2277 -0.6849
13764TIP3    H241215   8.558   7.783   4.232  0.2848  0.5291 -0.2417
13765TIP3   OH241216   5.896   5.033   4.201 -0.4690  0.2701 -0.0357
13765TIP3    H141217   5.808   5.051   4.236 -0.6929  0.0106 -0.4631
13765TIP3    H241218   5.884   5.032   4.106 -0.1863 -0.7034 -0.0663
13766TIP3   OH241219   7.901   5.123   3.500  0.1295  0.6503  0.0625
13766TIP3    H141220   7.898   5.163   3.586  0.7751 -0.9081  0.8317
13766TIP3    H241221   7.810   5.124   3.469 -0.4609 -0.7061  1.6801
13767TIP3   OH241222   1.201   7.588   3.752  0.3263  0.2498 -0.2759
13767TIP3    H141223   1.108   7.606   3.744  0.1335  0.2680  1.6138
13767TIP3    H241224   1.244   7.658   3.703 -0.6004  1.9752  1.2870
13768TIP3   OH241225   8.452   8.203   1.651 -0.1344  0.5544  0.2008
13768TIP3    H141226   8.538   8.243   1.638  0.0834  0.5012  1.4012
13768TIP3    H241227   8.393   8.277   1.669 -0.4053  0.6162 -0.8820
13769TIP3   OH241228   0.757   5.208   3.855  0.3538  0.0109 -0.1404
13769TIP3    H141229   0.721   5.132   3.900  3.4403 -0.8437  0.9900
13769TIP3    H241230   0.744   5.281   3.916 -2.4200  0.4226 -1.1415
13770TIP3   OH241231   6.366   6.513   4.653 -0.5269  0.9872  0.3545
13770TIP3    H141232   6.351   6.429   4.609  0.7272 -0.2732  2.2903
13770TIP3    H241233   6.439   6.497   4.712 -0.2139  3.4861  0.7032
13771TIP3   OH241234   0.770   7.250   5.124 -0.2618 -0.0481  0.3358
13771TIP3    H141235   0.817   7.188   5.068 -0.6989 -0.1211  0.0567
13771TIP3    H241236   0.789   7.220   5.213 -0.6652 -0.7202  0.1957
13772TIP3   OH241237   1.975   4.659   2.309  0.3185 -0.0272 -0.8075
13772TIP3    H141238   1.968   4.605   2.230  0.8305 -2.3822  0.7313
13772TIP3    H241239   2.068   4.676   2.318  0.3794 -0.7429 -0.0655
13773TIP3   OH241240   8.456   7.221   4.107 -0.3910 -0.0480  0.5803
13773TIP3    H141241   8.519   7.161   4.145 -1.3189  0.6921  3.4691
13773TIP3    H241242   8.371   7.181   4.125 -0.8989  0.7278 -0.0489
13774TIP3   OH241243   8.795   7.903   3.850 -0.2744  0.5919 -0.2363
13774TIP3    H141244   8.883   7.866   3.857 -0.1274  1.1147  0.7133
13774TIP3    H241245   8.737   7.827   3.843  0.1962  0.2400 -0.2895
13775TIP3   OH241246   7.486   6.475   4.326 -0.2645  0.2563  0.4175
13775TIP3    H141247   7.482   6.470   4.231  0.0474 -0.2882  0.4306
13775TIP3    H241248   7.399   6.507   4.352 -0.9628 -1.3068  0.0598
13776TIP3   OH241249   5.972   7.166   6.065  0.9413  0.3216 -0.2578
13776TIP3    H141250   6.023   7.221   6.125 -1.7244  2.4303  0.1786
13776TIP3    H241251   5.937   7.228   6.001 -1.5628 -0.9780 -0.1889
13777TIP3   OH241252   7.259   6.652   4.338  0.1748 -0.0243  0.2570
13777TIP3    H141253   7.335   6.709   4.352 -1.4375  2.8546 -2.2829
13777TIP3    H241254   7.193   6.685   4.399 -0.8821  1.0912 -1.4616
13778TIP3   OH241255   1.811   0.490   1.948  0.0901  0.2756  0.0185
13778TIP3    H141256   1.814   0.469   1.855  0.7481  1.0500 -0.1406
13778TIP3    H241257   1.727   0.536   1.960 -0.1166 -0.0655 -0.1412
13779TIP3   OH241258   5.281   3.598   6.842 -0.2804  0.0610 -0.1683
13779TIP3    H141259   5.188   3.581   6.827 -0.1063 -1.4624  0.3560
13779TIP3    H241260   5.322   3.512   6.835  1.2684  0.8896 -1.6240
13780TIP3   OH241261   7.035   6.668   1.037  0.3393  0.5175  0.6131
13780TIP3    H141262   7.040   6.576   1.012  0.6120 -0.0516  2.6408
13780TIP3    H241263   7.090   6.675   1.116  0.1553  2.3666  0.6149
13781TIP3   OH241264   5.075   7.189   6.107  0.0563  0.6639 -0.7933
13781TIP3    H141265   5.077   7.225   6.196 -1.8365 -0.6292 -0.1915
13781TIP3    H241266   5.034   7.258   6.054 -0.0485  0.8977 -0.4084
13782TIP3   OH241267   3.865   1.281   4.022 -0.1324  0.2146 -0.0148
13782TIP3    H141268   3.774   1.305   4.001  0.2011  1.1981 -0.3624
13782TIP3    H241269   3.899   1.357   4.069 -0.2554 -1.1407  2.3902
13783TIP3   OH241270   0.263   5.694   6.659  0.1511  0.6918 -0.0919
13783TIP3    H141271   0.254   5.633   6.586 -0.5126 -0.0969  0.6384
13783TIP3    H241272   0.195   5.760   6.642  0.4139  0.8542 -0.5191
13784TIP3   OH241273   5.467   7.971   5.109 -0.3216 -1.1755  0.3957
13784TIP3    H141274   5.377   7.940   5.120 -1.6199  1.8439 -1.2151
13784TIP3    H241275   5.492   7.941   5.021 -0.9242  0.7205 -0.4343
13785TIP3   OH241276   6.829   7.524   2.194  0.8152  0.1930  0.5089
13785TIP3    H141277   6.881   7.596   2.230  1.2676 -0.3151  0.8774
13785TIP3    H241278   6.769   7.500   2.265  0.7126  0.1646  0.4119
13786TIP3   OH241279   8.858   5.483   2.895 -0.0093  0.4256  0.2618
13786TIP3    H141280   8.945   5.525   2.894  0.0192  0.3772 -1.3504
13786TIP3    H241281   8.871   5.402   2.944  0.5590  1.0187  1.1152
13787TIP3   OH241282   6.336   8.346   2.078  0.4748 -0.3381  0.4527
13787TIP3    H141283   6.357   8.413   2.144  1.3877 -1.0544  0.9092
13787TIP3    H241284   6.352   8.263   2.123 -0.5512 -0.8610 -0.1467
13788TIP3   OH241285   7.570   6.552   4.938  0.1141  0.4775 -0.0524
13788TIP3    H141286   7.609   6.470   4.969 -1.3087 -0.0583  0.3972
13788TIP3    H241287   7.573   6.546   4.843  2.1675  0.9679 -0.0253
13789TIP3   OH241288   5.753   5.648   5.688  0.3879 -0.4783 -0.1647
13789TIP3    H141289   5.793   5.596   5.618 -1.4663 -0.0986 -1.5204
13789TIP3    H241290   5.679   5.692   5.647  1.2195  2.3574  1.2315
13790TIP3   OH241291   6.509   7.587   1.491  0.2881  0.7642  0.2067
13790TIP3    H141292   6.447   7.659   1.500  0.6819  0.9958  1.2068
13790TIP3    H241293   6.553   7.583   1.576  0.4970 -0.4472  0.0564
13791TIP3   OH241294   6.525   6.676   6.436  0.1621 -0.1889 -0.0705
13791TIP3    H141295   6.593   6.609   6.429  0.8445  0.4702  0.1485
13791TIP3    H241296   6.456   6.635   6.488  0.6095 -0.6866  0.1347
13792TIP3   OH241297   5.950   5.501   3.944 -0.5544 -0.0946  0.3951
13792TIP3    H141298   6.009   5.548   3.885  1.1820 -1.9847  0.5682
13792TIP3    H241299   5.924   5.423   3.895 -0.7234 -0.6505  1.3520
13793TIP3   OH241300   7.720   6.552   3.632  0.2237 -0.2008  0.1187
13793TIP3    H141301   7.655   6.537   3.564 -0.3153  0.3477  0.5070
13793TIP3    H241302   7.791   6.491   3.611  0.3963  0.4999 -1.3497
13794TIP3   OH241303   7.259   5.263   5.259  0.1683  0.4133  0.5205
13794TIP3    H141304   7.250   5.174   5.226 -3.5634  1.2306 -0.8997
13794TIP3    H241305   7.285   5.253   5.350 -0.0985 -2.1324  0.3380
13795TIP3   OH241306   8.040   7.926   3.816 -0.4171 -0.5416 -0.2245
13795TIP3    H141307   8.042   7.987   3.890  0.9233 -0.4205 -0.3467
13795TIP3    H241308   7.958   7.877   3.828 -0.4973 -0.1336  1.0224
13796TIP3   OH241309   7.312   7.670   3.584  0.3168  0.9138  0.4989
13796TIP3    H141310   7.221   7.700   3.582  0.5081  1.4613 -0.0351
13796TIP3    H241311   7.359   7.732   3.528  0.7421 -0.3012 -0.5188
13797TIP3   OH241312   7.368   5.475   4.419 -0.2725 -0.5393  0.0037
13797TIP3    H141313   7.289   5.485   4.367  0.4717 -0.3150 -1.0953
13797TIP3    H241314   7.403   5.564   4.428  0.0284 -0.6733  0.1967
13798TIP3   OH241315   0.084   5.098   6.475  0.1091  0.0575  0.0237
13798TIP3    H141316  -0.011   5.086   6.475  0.0410  0.5799 -0.5876
13798TIP3    H241317   0.100   5.160   6.546 -0.1343  0.9037 -0.6497
13799TIP3   OH241318   7.844   8.313   4.294 -0.3366  0.5516 -0.1416
13799TIP3    H141319   7.810   8.359   4.217 -0.4032  0.5547 -0.1105
13799TIP3    H241320   7.786   8.340   4.365 -1.5665 -1.0840 -0.4966
13800TIP3   OH241321   7.785   7.134   3.043 -0.2102 -0.3036  0.3159
13800TIP3    H141322   7.768   7.202   2.978  0.0904 -1.5018 -1.0515
13800TIP3    H241323   7.815   7.059   2.991 -0.8404 -1.5739  1.7485
13801TIP3   OH241324   0.352   5.842   6.189 -0.0501  0.6619  0.2614
13801TIP3    H141325   0.418   5.802   6.132 -1.0059 -1.8621  0.8538
13801TIP3    H241326   0.274   5.787   6.178 -0.9744  1.5309  2.2091
13802TIP3   OH241327   6.481   6.949   4.258 -0.2036  0.2380 -0.2792
13802TIP3    H141328   6.490   6.951   4.353 -0.7559  1.4966 -0.2476
13802TIP3    H241329   6.550   6.890   4.228 -1.2575 -1.7408  1.0452
13803TIP3   OH241330   0.862   7.997   0.224  0.0456 -0.2335 -0.2052
13803TIP3    H141331   0.887   8.043   0.144  0.8409 -0.5258 -0.1275
13803TIP3    H241332   0.830   8.066   0.282 -1.3737 -0.1301 -1.0876
13804TIP3   OH241333   6.399   6.406   5.146  0.2912  0.0433  0.7636
13804TIP3    H141334   6.487   6.444   5.148 -0.0329  0.7541  1.5939
13804TIP3    H241335   6.348   6.458   5.208 -0.6160 -0.6219  0.5938
13805TIP3   OH241336   4.872   5.947   3.912 -0.8039 -0.0540 -0.4482
13805TIP3    H141337   4.906   5.927   3.999  1.1861  0.7672 -1.0011
13805TIP3    H241338   4.787   5.988   3.928 -0.3183  0.3830  1.1313
13806TIP3   OH241339   8.206   8.162   4.492  0.1777 -0.3052  0.5413
13806TIP3    H141340   8.207   8.123   4.579  1.7301  1.6549  1.4297
13806TIP3    H241341   8.172   8.250   4.505  0.4441  0.0145 -0.8321
13807TIP3   OH241342   5.190   6.115   3.016 -0.4609  0.1285 -0.3570
13807TIP3    H141343   5.214   6.074   3.099  2.4614 -0.1009 -1.2630
13807TIP3    H241344   5.127   6.183   3.040  1.3832  0.9883  2.2306
13808TIP3   OH241345   5.908   6.927   4.876  0.3280  0.4565  0.0049
13808TIP3    H141346   5.879   6.935   4.967 -1.8748 -1.0484 -0.5298
13808TIP3    H241347   5.831   6.949   4.824  1.1549 -0.1119 -1.5035
13809TIP3   OH241348   2.011   8.065   4.513 -0.3342  0.5591  0.1957
13809TIP3    H141349   1.969   8.023   4.438 -1.1727 -0.2199  1.0951
13809TIP3    H241350   2.100   8.030   4.513  0.6869  2.9325 -2.2801
13810TIP3   OH241351   8.697   7.724   3.577 -0.3285 -1.2050 -0.0763
13810TIP3    H141352   8.759   7.691   3.642  0.2061  1.1815  0.6764
13810TIP3    H241353   8.731   7.691   3.493  2.2109  0.4043  0.2845
13811TIP3   OH241354   6.231   7.407   3.185  0.1958 -0.2380 -0.0352
13811TIP3    H141355   6.297   7.391   3.117  0.1812  1.0752 -0.3756
13811TIP3    H241356   6.158   7.447   3.138 -1.1722 -2.3527  0.2167
13812TIP3   OH241357   5.545   7.804   5.709 -0.1677 -0.1261 -0.0269
13812TIP3    H141358   5.537   7.899   5.701 -0.0100 -0.2778 -2.5190
13812TIP3    H241359   5.555   7.788   5.803 -0.1929  2.3155  0.4193
13813TIP3   OH241360   2.413   0.617   2.773  0.2050  0.1454 -0.0610
13813TIP3    H141361   2.366   0.577   2.700 -0.4890 -2.8965  1.9940
13813TIP3    H241362   2.503   0.626   2.741 -0.0681 -1.2104 -1.2753
13814TIP3   OH241363   7.552   6.103   2.073  0.0453  0.4511 -0.0927
13814TIP3    H141364   7.468   6.102   2.119 -0.3586  1.6791 -0.7860
13814TIP3    H241365   7.607   6.162   2.125  0.6525 -0.7202  0.6279
13815TIP3   OH241366   1.765   0.007   3.525 -0.0727  0.0939  0.1386
13815TIP3    H141367   1.710   0.085   3.520 -0.3067 -0.1287 -0.7905
13815TIP3    H241368   1.708  -0.061   3.560  0.0894  0.2997  0.8047
13816TIP3   OH241369   5.774   6.986   1.253  0.2974 -0.1187 -0.1128
13816TIP3    H141370   5.701   7.036   1.217  0.4150 -0.3924 -0.7385
13816TIP3    H241371   5.740   6.897   1.262  0.9609 -0.5677 -1.7272
13817TIP3   OH241372   0.640   5.330   6.533 -0.3945 -0.1048 -0.7204
13817TIP3    H141373   0.708   5.385   6.493  1.3896 -0.6524  1.4544
13817TIP3    H241374   0.655   5.243   6.496  1.4228 -0.6695  1.2394
13818TIP3   OH241375   2.628   0.790   5.007 -0.2582  0.0463  0.0672
13818TIP3    H141376   2.588   0.838   4.934 -0.1032 -0.5492 -0.4087
13818TIP3    H241377   2.723   0.800   4.993 -0.2240  0.8128  0.7707
13819TIP3   OH241378   4.082   0.907   4.835  0.2200 -0.2428 -0.2010
13819TIP3    H141379   4.122   0.925   4.749 -1.5431  0.9509 -0.8066
13819TIP3    H241380   4.020   0.978   4.847  0.2772 -0.5379  1.9959
13820TIP3   OH241381   1.711   7.566   4.319 -0.2300 -0.0323  0.5862
13820TIP3    H141382   1.696   7.652   4.281 -0.8417 -0.0209  0.8417
13820TIP3    H241383   1.712   7.582   4.414  1.3842 -0.0409  0.5776
13821TIP3   OH241384   2.337   1.735   5.613  0.3175  0.0199 -1.1195
13821TIP3    H141385   2.283   1.691   5.548 -1.0323 -1.2645  0.8488
13821TIP3    H241386   2.302   1.824   5.617 -1.8947 -0.8701  0.3324
13822TIP3   OH241387   6.644   5.638   2.538  0.3608 -0.2994 -0.4657
13822TIP3    H141388   6.631   5.634   2.633 -1.5278  1.2511 -0.6231
13822TIP3    H241389   6.688   5.722   2.524 -0.9641  0.3028 -1.1031
13823TIP3   OH241390   5.850   5.480   6.016 -0.4371  0.4304 -0.7767
13823TIP3    H141391   5.868   5.447   6.104  0.7456  0.0952 -1.1330
13823TIP3    H241392   5.802   5.409   5.973  1.3080 -0.4912 -1.2488
13824TIP3   OH241393   0.416   0.159   5.326 -0.7975  0.7736 -0.0700
13824TIP3    H141394   0.433   0.247   5.361  1.8059  0.5922 -0.7633
13824TIP3    H241395   0.418   0.102   5.403  0.2582  0.9785  0.0588
13825TIP3   OH241396   2.187   8.078   5.832  0.0366  0.2228  0.3671
13825TIP3    H141397   2.236   8.160   5.832  0.3316  0.0586 -0.8275
13825TIP3    H241398   2.189   8.048   5.923  0.9885  0.9102  0.5798
13826TIP3   OH241399   8.530   6.138   3.910 -0.2432 -0.0869 -0.1101
13826TIP3    H141400   8.522   6.141   3.815  1.8254 -1.2069 -0.3583
13826TIP3    H241401   8.495   6.052   3.934  0.7729 -0.5018 -0.0647
13827TIP3   OH241402   7.523   8.394   3.825 -0.1182  0.3481 -0.2557
13827TIP3    H141403   7.443   8.373   3.873 -0.3930 -0.9965 -1.2596
13827TIP3    H241404   7.593   8.351   3.873  0.4780  3.9695  2.3319
13828TIP3   OH241405   3.426   1.399   5.654 -0.1550 -0.5519 -0.4699
13828TIP3    H141406   3.384   1.313   5.646  0.6320 -0.9560 -0.2815
13828TIP3    H241407   3.502   1.394   5.595  0.8719 -0.5844  0.8418
13829TIP3   OH241408   7.338   6.228   7.019  0.4046 -0.3412 -0.5249
13829TIP3    H141409   7.297   6.162   6.963  0.9729 -1.6904  0.6447
13829TIP3    H241410   7.430   6.230   6.990  0.9338 -1.7641  1.0259
13830TIP3   OH241411   7.193   8.368   3.598 -0.0189  0.2199 -0.4785
13830TIP3    H141412   7.102   8.339   3.604 -0.1509  0.4280 -1.4008
13830TIP3    H241413   7.202   8.435   3.666 -0.4146 -0.1690 -0.0473
13831TIP3   OH241414   5.524   6.310   4.878 -0.8139  0.5845 -0.1553
13831TIP3    H141415   5.499   6.402   4.874 -0.7096  0.5538 -2.1146
13831TIP3    H241416   5.473   6.274   4.951 -0.4163  2.3101  0.9939
13832TIP3   OH241417   4.731   0.937   4.752 -0.3917 -0.3166  0.4201
13832TIP3    H141418   4.806   0.879   4.738 -0.1115 -0.4473  2.3160
13832TIP3    H241419   4.710   0.928   4.845 -3.3959 -1.0221 -0.2590
13833TIP3   OH241420   0.671   1.081   4.491 -0.3664  0.5361 -0.5257
13833TIP3    H141421   0.592   1.057   4.538 -0.9558  2.4391 -0.5424
13833TIP3    H241422   0.740   1.078   4.558 -0.5070 -0.6630 -0.4152
13834TIP3   OH241423   4.099   8.061   3.327 -0.3012  0.1458 -0.3412
13834TIP3    H141424   4.049   8.118   3.385 -0.8995 -0.4954 -0.2171
13834TIP3    H241425   4.074   7.972   3.353  0.5195 -0.1743 -0.6159
13835TIP3   OH241426   7.365   6.327   5.498 -0.0671  0.4674  0.5114
13835TIP3    H141427   7.417   6.292   5.426  0.4817  2.8522 -0.2722
13835TIP3    H241428   7.274   6.307   5.473  0.1081  1.3728 -0.9082
13836TIP3   OH241429   0.819   1.009   5.194  0.3082 -0.0467  0.4510
13836TIP3    H141430   0.758   1.042   5.129 -0.2954 -0.2180  0.9275
13836TIP3    H241431   0.797   0.916   5.203 -1.1354  0.4733  2.5649
13837TIP3   OH241432   0.127   7.809   3.948  0.3997  0.0512 -0.0867
13837TIP3    H141433   0.209   7.857   3.938  0.3977  0.3910  1.3095
13837TIP3    H241434   0.146   7.721   3.916  2.0695 -0.5924  2.5174
13838TIP3   OH241435   0.411   6.822   4.229  0.4997  0.2325 -0.8149
13838TIP3    H141436   0.438   6.898   4.281 -0.8523 -0.4959  0.9955
13838TIP3    H241437   0.380   6.859   4.146  1.1054  1.5406 -0.4641
13839TIP3   OH241438   8.182   6.954   3.824  0.6871  0.2061 -0.1519
13839TIP3    H141439   8.201   7.043   3.794 -0.1978 -0.0580 -1.5706
13839TIP3    H241440   8.224   6.948   3.910 -1.0705  2.7275  0.9845
13840TIP3   OH241441   7.151   6.506   4.932  0.0941  0.1281 -0.0095
13840TIP3    H141442   7.171   6.532   4.842  2.2386  0.1786  0.4449
13840TIP3    H241443   7.194   6.572   4.987 -0.5117 -0.3505  1.0647
13841TIP3   OH241444   1.316   4.663   3.583 -0.2891  0.0925  0.1938
13841TIP3    H141445   1.376   4.593   3.555  2.3437  1.7143  1.5119
13841TIP3    H241446   1.371   4.741   3.586 -2.4369  1.5912  1.7896
13842TIP3   OH241447   8.819   6.332   3.765 -0.2268  0.1345 -0.3866
13842TIP3    H141448   8.737   6.377   3.742 -0.5014 -1.2804 -2.3041
13842TIP3    H241449   8.884   6.403   3.771 -1.2786  1.1082 -0.2762
13843TIP3   OH241450   8.517   4.921   3.163 -0.3532  0.0497 -0.6202
13843TIP3    H141451   8.572   4.850   3.196 -0.3452  0.7227  0.8785
13843TIP3    H241452   8.449   4.877   3.111 -1.0053 -1.1599  1.1954
13844TIP3   OH241453   6.691   4.782   3.552  0.0144  0.2381 -0.0741
13844TIP3    H141454   6.766   4.731   3.522 -0.7919 -0.8789 -0.2320
13844TIP3    H241455   6.645   4.805   3.471 -0.7052 -0.4934  0.1239
13845TIP3   OH241456   6.648   7.928   6.769  0.3726  0.5084  0.4599
13845TIP3    H141457   6.738   7.897   6.781 -0.1815 -0.8195  1.2875
13845TIP3    H241458   6.632   7.984   6.845  0.3933  0.4843  0.4818
13846TIP3   OH241459   0.104   5.857   5.617  0.0064 -0.4815  0.0915
13846TIP3    H141460   0.170   5.924   5.633 -1.3447  0.9993 -0.3466
13846TIP3    H241461   0.138   5.806   5.544  0.8800 -0.0349  0.1806
13847TIP3   OH241462   8.538   5.641   3.285 -0.5216 -0.4843  0.4388
13847TIP3    H141463   8.633   5.637   3.295 -0.6279 -0.0750  1.7370
13847TIP3    H241464   8.518   5.734   3.284 -0.6378 -0.4828 -2.9079
13848TIP3   OH241465   6.515   7.375   3.482 -0.0286 -0.6096  0.5341
13848TIP3    H141466   6.422   7.384   3.461  0.0639  0.1052  0.4083
13848TIP3    H241467   6.517   7.351   3.575 -0.3508 -1.1068  0.4141
13849TIP3   OH241468   6.678   6.245   4.190  0.4056  0.2282  0.3205
13849TIP3    H141469   6.675   6.159   4.231  0.5415  0.6825  1.3050
13849TIP3    H241470   6.708   6.304   4.260  1.1528  0.9339 -0.5809
13850TIP3   OH241471   8.773   5.529   5.204 -0.0969  0.1107  0.0831
13850TIP3    H141472   8.680   5.548   5.213  0.0147  0.3282  0.8604
13850TIP3    H241473   8.777   5.442   5.165 -0.6373 -0.3869  1.1136
13851TIP3   OH241474   7.385   6.942   2.394  0.4792 -0.2332 -0.6712
13851TIP3    H141475   7.366   7.011   2.330  0.0084  0.0802 -0.1998
13851TIP3    H241476   7.320   6.955   2.464  3.2590  1.7400  1.6547
13852TIP3   OH241477   7.007   6.749   4.435  0.6643  0.7859  0.2314
13852TIP3    H141478   6.938   6.683   4.430 -0.3346  1.8833 -0.7260
13852TIP3    H241479   7.001   6.784   4.524 -0.4306  1.3032 -0.0384
13853TIP3   OH241480   5.530   4.310   5.990  0.1743 -0.5763 -0.5138
13853TIP3    H141481   5.447   4.354   5.975  0.2152 -1.5329 -3.9025
13853TIP3    H241482   5.521   4.225   5.949  1.5413 -2.2125  2.3967
13854TIP3   OH241483   6.865   5.573   5.297  0.0952 -0.0975  0.2262
13854TIP3    H141484   6.894   5.637   5.362  0.4826  0.3903 -0.4297
13854TIP3    H241485   6.826   5.625   5.227  0.6756 -0.5586 -0.4426
13855TIP3   OH241486   5.015   8.215   4.723 -0.0629  0.1783  0.3591
13855TIP3    H141487   5.065   8.185   4.799  0.5876  0.0985 -0.0933
13855TIP3    H241488   4.959   8.284   4.758 -0.7835 -0.8036  1.1910
13856TIP3   OH241489   7.069   5.705   4.773  0.7258 -0.2717 -0.1346
13856TIP3    H141490   7.155   5.747   4.768  0.6873 -0.3848 -2.0750
13856TIP3    H241491   7.041   5.695   4.682 -2.0425  1.1358  0.5150
13857TIP3   OH241492   3.765   0.352   4.140 -0.0656 -0.7539  0.3157
13857TIP3    H141493   3.762   0.274   4.085 -1.5806 -0.5268  0.0447
13857TIP3    H241494   3.686   0.345   4.194 -1.8983  2.1285 -1.8527
13858TIP3   OH241495   0.101   6.197   4.858  0.4282  0.1533 -0.5532
13858TIP3    H141496   0.061   6.158   4.780 -0.4376  0.5799 -0.3293
13858TIP3    H241497   0.193   6.209   4.834 -0.2048  1.9508 -2.1667
13859TIP3   OH241498   7.835   8.402   4.882 -0.5024  0.1952 -0.3583
13859TIP3    H141499   7.762   8.455   4.912 -0.6102 -1.0473  1.6597
13859TIP3    H241500   7.809   8.312   4.900  1.7435 -0.2434  0.8989
13860TIP3   OH241501   0.294   6.735   4.721 -0.3148  0.1930  0.2790
13860TIP3    H141502   0.293   6.754   4.815  1.5550  1.0238  0.1621
13860TIP3    H241503   0.230   6.795   4.683 -0.3486  0.5544  0.9011
13861TIP3   OH241504   1.990   0.249   4.081 -0.0947  0.0621  0.7941
13861TIP3    H141505   1.898   0.242   4.107 -0.3685 -1.0588 -0.4372
13861TIP3    H241506   1.992   0.321   4.019 -0.5588 -1.3423 -0.8984
13862TIP3   OH241507   1.343   5.875   3.832  0.5644 -0.1904  0.6576
13862TIP3    H141508   1.249   5.854   3.831  0.3943  0.4375  2.1606
13862TIP3    H241509   1.347   5.963   3.868  1.5645  0.9137 -2.0485
13863TIP3   OH241510   0.513   6.107   5.082 -0.5320 -0.1448 -0.4247
13863TIP3    H141511   0.596   6.136   5.045 -0.5728 -1.0861 -1.2773
13863TIP3    H241512   0.456   6.095   5.007 -1.2743 -0.0206  0.1151
13864TIP3   OH241513   3.351   0.049   4.082  0.0909 -1.2216  0.2843
13864TIP3    H141514   3.265   0.080   4.111 -0.8151 -3.7096  0.3637
13864TIP3    H241515   3.343   0.043   3.987  0.6689 -0.0447  0.1582
13865TIP3   OH241516   0.775   1.768   3.676 -0.5708 -0.1819 -0.3705
13865TIP3    H141517   0.684   1.796   3.678 -0.6347 -0.4366  1.2430
13865TIP3    H241518   0.820   1.828   3.736  0.1003 -0.7909 -0.2550
13866TIP3   OH241519   3.843   1.832   5.025 -0.2905 -0.5523 -0.4232
13866TIP3    H141520   3.865   1.890   4.952  0.0637 -1.3065 -0.9216
13866TIP3    H241521   3.910   1.850   5.091 -0.6318  0.1552 -0.2689
13867TIP3   OH241522   1.047   7.860   4.059  0.2805  0.2670 -0.1845
13867TIP3    H141523   1.133   7.832   4.026  0.0898  0.3403 -0.7432
13867TIP3    H241524   1.029   7.801   4.132  0.5426 -0.1230 -0.4361
13868TIP3   OH241525   1.616   5.740   0.072 -0.2810  0.3827 -0.0797
13868TIP3    H141526   1.638   5.647   0.059  0.3777  0.4284  0.6889
13868TIP3    H241527   1.538   5.739   0.127 -0.7213  0.2725 -0.6987
13869TIP3   OH241528   8.553   6.736   4.135 -0.2659  0.0618  0.0730
13869TIP3    H141529   8.628   6.695   4.178 -0.4265 -0.8186 -0.4865
13869TIP3    H241530   8.481   6.674   4.146 -0.5493  0.2547 -0.6311
13870TIP3   OH241531   2.225   7.915   4.440  0.2368  0.3017  0.1421
13870TIP3    H141532   2.268   7.991   4.479  1.9728 -1.3623  1.5632
13870TIP3    H241533   2.273   7.899   4.359 -0.1488  0.6917 -0.1733
13871TIP3   OH241534   0.884   5.450   5.429 -0.2490  0.1426  0.4549
13871TIP3    H141535   0.853   5.434   5.339 -1.3032 -0.1484  0.8640
13871TIP3    H241536   0.850   5.537   5.451  1.0080  0.7163  0.1509
13872TIP3   OH241537   1.741   7.665   3.944  0.0701 -0.0753  0.0968
13872TIP3    H141538   1.826   7.630   3.917  1.4225  1.0744  2.6594
13872TIP3    H241539   1.715   7.723   3.872 -0.1607 -2.9489 -2.2137
13873TIP3   OH241540   1.772   7.999   5.624 -0.3025  0.4802 -0.2130
13873TIP3    H141541   1.735   7.922   5.668  1.4620 -1.9041 -2.7262
13873TIP3    H241542   1.721   8.007   5.543  0.3119  1.2455 -0.5324
13874TIP3   OH241543   1.337   5.977   2.543 -0.0237 -0.0040  0.2033
13874TIP3    H141544   1.357   5.979   2.637 -2.1571  1.2425  0.6506
13874TIP3    H241545   1.242   5.965   2.539  0.0981 -0.3565 -1.8100
13875TIP3   OH241546   0.758   5.732   5.464 -0.2486  0.1899  0.4613
13875TIP3    H141547   0.673   5.703   5.429 -0.4615 -0.6692  1.6630
13875TIP3    H241548   0.760   5.826   5.446 -1.4054  0.1931  0.2899
13876TIP3   OH241549   0.291   5.084   2.695 -0.0664 -0.2647 -0.0529
13876TIP3    H141550   0.328   5.001   2.666  0.1484  0.1623 -1.0240
13876TIP3    H241551   0.196   5.071   2.693 -0.0855 -0.0162 -1.6796
13877TIP3   OH241552   7.904   4.867   1.753  0.4905 -0.0655 -0.4154
13877TIP3    H141553   7.867   4.803   1.814  1.0054 -0.3338 -0.3812
13877TIP3    H241554   7.958   4.815   1.693 -0.7617  0.0675 -1.6994
13878TIP3   OH241555   0.287   5.497   2.536  0.2865 -0.4369  0.0617
13878TIP3    H141556   0.222   5.566   2.549  1.4281  0.9093 -1.1932
13878TIP3    H241557   0.276   5.471   2.445  0.7479 -0.9841  0.1609
13879TIP3   OH241558   7.161   2.727   0.754  0.1409  0.6130 -0.1668
13879TIP3    H141559   7.240   2.675   0.744 -1.0602 -0.9888 -1.6211
13879TIP3    H241560   7.172   2.801   0.694  0.5176  0.3768 -0.3882
13880TIP3   OH241561   1.587   7.473   4.057 -0.1432  0.8020  0.2863
13880TIP3    H141562   1.629   7.552   4.023  0.3791  0.6249  0.5125
13880TIP3    H241563   1.625   7.461   4.144 -2.8742  2.3373  1.7702
13881TIP3   OH241564   6.299   3.384   0.942 -0.6462 -0.3942 -0.0510
13881TIP3    H141565   6.385   3.341   0.943 -0.3900  0.1084  0.0356
13881TIP3    H241566   6.311   3.458   0.882 -1.3866 -1.0470 -1.0283
13882TIP3   OH241567   1.734   4.883   6.914 -0.2644  0.3852 -0.0002
13882TIP3    H141568   1.765   4.828   6.986  2.0935 -0.6635 -1.7537
13882TIP3    H241569   1.670   4.829   6.868 -2.5948  1.4554  1.8781
13883TIP3   OH241570   0.544   1.596   0.999 -0.0997 -0.1882 -0.2779
13883TIP3    H141571   0.519   1.669   1.055  1.0600 -0.5282  0.7028
13883TIP3    H241572   0.461   1.555   0.975 -0.5535 -0.8438  2.2816
13884TIP3   OH241573   4.840   1.190   7.108  0.6897  0.3441  0.0722
13884TIP3    H141574   4.935   1.183   7.098  0.7144 -1.6641  1.3234
13884TIP3    H241575   4.823   1.160   7.197 -1.1661  0.1454 -0.3265
13885TIP3   OH241576   6.788   4.067   0.454  0.4754  0.0252  0.1463
13885TIP3    H141577   6.809   4.144   0.400 -0.3314  0.2206  0.1081
13885TIP3    H241578   6.826   3.993   0.407 -0.4372  0.1648 -0.8150
13886TIP3   OH241579   1.342   4.419   6.097 -0.2477  0.4072  0.3757
13886TIP3    H141580   1.298   4.335   6.110  0.1074  0.1023 -0.3114
13886TIP3    H241581   1.328   4.439   6.004  1.3720  0.1045  0.0388
13887TIP3   OH241582   3.359   8.044   5.699  0.0672 -0.1455 -0.3421
13887TIP3    H141583   3.331   7.971   5.643  0.7644 -1.2808  0.7591
13887TIP3    H241584   3.396   8.108   5.638  0.4608 -1.2009 -1.2299
13888TIP3   OH241585   0.983   7.692   4.767 -0.3746  0.6358 -0.1773
13888TIP3    H141586   0.932   7.772   4.777 -0.7940  0.2771  0.6351
13888TIP3    H241587   0.947   7.632   4.832 -0.1817 -0.2731 -0.8924
13889TIP3   OH241588   7.234   3.000   0.547  0.1135 -0.1041  0.2129
13889TIP3    H141589   7.241   2.930   0.482 -0.7141  0.2918 -0.3092
13889TIP3    H241590   7.201   3.075   0.498  1.7140  0.8863  0.6142
13890TIP3   OH241591   4.494   0.027   5.606  0.5538 -0.0339 -0.0621
13890TIP3    H141592   4.404   0.053   5.590  0.7885  1.6299  1.2567
13890TIP3    H241593   4.540   0.108   5.628  1.8235 -1.1882  1.7345
13891TIP3   OH241594   3.931   0.928   4.525  0.2514 -0.4613 -0.4851
13891TIP3    H141595   4.001   0.913   4.461 -0.4327 -1.6727 -0.9746
13891TIP3    H241596   3.973   0.976   4.596  1.5224 -0.9829 -0.8744
13892TIP3   OH241597   2.491   7.210   4.933  0.3919 -0.4932 -0.1664
13892TIP3    H141598   2.549   7.285   4.949  1.1437 -0.8768 -1.0903
13892TIP3    H241599   2.423   7.219   5.000  0.5569  0.9303 -0.1583
13893TIP3   OH241600   3.249   7.704   5.825 -0.5045  0.1990 -0.0307
13893TIP3    H141601   3.299   7.731   5.748  1.1585  0.9387  1.2736
13893TIP3    H241602   3.245   7.608   5.818  2.1371  0.0122  0.4115
13894TIP3   OH241603   3.383   1.389   6.924 -0.2912  0.1090 -0.6137
13894TIP3    H141604   3.366   1.483   6.932  0.6859  0.2654 -0.3803
13894TIP3    H241605   3.476   1.383   6.903 -0.9830 -0.6550 -3.7564
13895TIP3   OH241606   6.431   0.431   7.230  0.5441 -0.2866 -0.4223
13895TIP3    H141607   6.495   0.419   7.301 -0.4520 -0.6030  0.4348
13895TIP3    H241608   6.379   0.351   7.232 -0.9082  0.6472 -0.0529
13896TIP3   OH241609   4.498   0.147   4.883  0.3116  0.3072  0.3178
13896TIP3    H141610   4.413   0.190   4.886 -0.1917 -0.6994  0.7628
13896TIP3    H241611   4.478   0.054   4.893  1.6307  0.2463  2.7373
13897TIP3   OH241612   7.590   3.081   0.329  0.0843  0.1861  0.5465
13897TIP3    H141613   7.499   3.090   0.302 -0.1797  0.9457  1.6388
13897TIP3    H241614   7.626   3.170   0.322  0.4922  0.0585  0.9745
13898TIP3   OH241615   1.329   6.369   6.885 -0.3336 -0.2890 -1.1014
13898TIP3    H141616   1.365   6.455   6.864  2.1331 -0.6539  1.2381
13898TIP3    H241617   1.292   6.379   6.972 -1.3310 -1.2441 -1.4094
13899TIP3   OH241618   2.084   7.124   5.827 -0.2488 -0.2630 -1.0582
13899TIP3    H141619   2.035   7.065   5.769 -1.2780  0.2695 -0.7381
13899TIP3    H241620   2.059   7.097   5.915 -0.1729  0.1782 -0.9000
13900TIP3   OH241621   2.032   6.473   5.133  0.2839 -0.6526 -0.3880
13900TIP3    H141622   2.084   6.548   5.160 -1.4154 -0.0451  1.2443
13900TIP3    H241623   1.971   6.508   5.067  0.2443 -0.8315 -0.4484
13901TIP3   OH241624   4.272   2.259   5.957 -0.0871 -0.2017 -0.3757
13901TIP3    H141625   4.199   2.271   5.897 -1.7648  1.6441  1.8895
13901TIP3    H241626   4.309   2.347   5.967  1.3630 -0.8190 -0.1675
13902TIP3   OH241627   6.236   0.770   6.220 -0.1504  0.0565 -0.0865
13902TIP3    H141628   6.314   0.814   6.255 -0.9523  0.7212  0.9051
13902TIP3    H241629   6.263   0.679   6.208  1.0240  0.4521 -0.5469
13903TIP3   OH241630   3.310   2.472   6.361  0.6644  0.2682  0.1570
13903TIP3    H141631   3.215   2.463   6.368  0.3770  2.0192 -1.3779
13903TIP3    H241632   3.343   2.434   6.443 -1.3949  0.6433  1.1974
13904TIP3   OH241633   8.570   4.485   0.249 -0.2951 -0.1835 -0.2366
13904TIP3    H141634   8.522   4.403   0.264 -0.2285 -0.1170  0.3770
13904TIP3    H241635   8.604   4.508   0.336 -2.0430  1.5893  0.0301
13905TIP3   OH241636   2.568   7.720   7.038 -0.3214 -0.7674 -0.1284
13905TIP3    H141637   2.630   7.666   7.087  1.6900  2.7155  1.4236
13905TIP3    H241638   2.622   7.762   6.971 -1.6588 -0.1159 -0.7992
13906TIP3   OH241639   7.148   2.462   1.217  0.4077  0.3035  0.0630
13906TIP3    H141640   7.140   2.491   1.126 -0.1739  2.2152  0.6870
13906TIP3    H241641   7.058   2.457   1.249  0.5240 -1.8256  0.1188
13907TIP3   OH241642   4.222   0.912   6.327 -0.5536  0.2041  0.2308
13907TIP3    H141643   4.304   0.948   6.361  0.2685 -2.2405  0.9113
13907TIP3    H241644   4.156   0.937   6.392 -0.0214  0.5395  0.6427
13908TIP3   OH241645   1.836   6.874   5.332 -0.5596 -0.1664  0.3617
13908TIP3    H141646   1.924   6.841   5.350 -1.2481 -0.8733  2.6466
13908TIP3    H241647   1.850   6.953   5.279  1.4731  0.0576  1.1832
13909TIP3   OH241648   8.450   3.852   0.227 -0.4887 -0.0079 -0.2674
13909TIP3    H141649   8.477   3.944   0.221  1.9910 -0.7178 -0.5260
13909TIP3    H241650   8.434   3.827   0.136 -1.5296  0.2451 -0.1652
13910TIP3   OH241651   5.433   0.793   4.496 -0.2955  0.5817 -0.4856
13910TIP3    H141652   5.353   0.845   4.495 -1.3519 -1.0104 -0.9688
13910TIP3    H241653   5.456   0.786   4.588 -1.2401  0.2802 -0.2679
13911TIP3   OH241654   2.058   5.886   5.070 -0.0659  0.4382  0.8463
13911TIP3    H141655   2.126   5.909   5.007 -0.5602  0.1274  0.1881
13911TIP3    H241656   2.101   5.826   5.131  0.3038  0.3911  0.5417
13912TIP3   OH241657   4.630   3.096   0.441 -1.1998 -0.1101 -0.5514
13912TIP3    H141658   4.611   3.030   0.508 -0.9812 -0.2623 -0.6368
13912TIP3    H241659   4.589   3.176   0.473  0.8566  0.3968  0.8971
13913TIP3   OH241660   3.645   1.740   4.788  0.6654 -0.6333  0.5351
13913TIP3    H141661   3.600   1.782   4.862  1.6608  0.0382  0.7736
13913TIP3    H241662   3.583   1.746   4.716 -0.3397 -1.3330  1.3149
13914TIP3   OH241663   8.324   2.615   0.956 -0.4535 -0.0950 -0.3580
13914TIP3    H141664   8.273   2.674   1.011 -0.9164  0.3372 -1.2523
13914TIP3    H241665   8.408   2.606   1.002 -1.1095 -0.3260  0.7963
13915TIP3   OH241666   0.577   6.426   5.103 -0.1723  0.1143 -0.0677
13915TIP3    H141667   0.626   6.509   5.104 -0.3154  0.2127  1.5666
13915TIP3    H241668   0.642   6.359   5.084  0.1809  0.4925 -0.1841
13916TIP3   OH241669   1.536   6.297   7.129 -0.7550 -0.5616  0.0844
13916TIP3    H141670   1.520   6.221   7.073 -1.4418  0.5071 -1.1773
13916TIP3    H241671   1.449   6.327   7.155 -0.5438  0.6880 -0.6298
13917TIP3   OH241672   0.681   6.709   4.128  0.4506 -0.0252  0.4004
13917TIP3    H141673   0.616   6.642   4.150 -0.0626  0.8702  1.6243
13917TIP3    H241674   0.697   6.755   4.210  1.7780  0.5162 -0.1484
13918TIP3   OH241675   1.573   5.458   5.317 -0.7743  0.0518  0.5119
13918TIP3    H141676   1.655   5.495   5.285 -1.6783  1.1931 -0.5479
13918TIP3    H241677   1.591   5.365   5.326  1.1229  0.5306  1.8855
13919TIP3   OH241678   8.898   6.029   6.862  0.2771 -0.3861 -0.0393
13919TIP3    H141679   8.901   6.122   6.883  1.6639 -0.4229 -0.0558
13919TIP3    H241680   8.812   6.016   6.822  0.3240  1.0015 -0.6083
13920TIP3   OH241681   3.191   7.368   5.952  0.6024 -0.3555  0.3084
13920TIP3    H141682   3.180   7.400   5.862  0.3331 -0.8718  0.1581
13920TIP3    H241683   3.186   7.273   5.945  0.0393 -0.3760  0.9435
13921TIP3   OH241684   0.322   3.932   6.288 -0.2301 -0.0945 -0.1034
13921TIP3    H141685   0.367   3.866   6.341  1.4924 -1.3492 -3.0083
13921TIP3    H241686   0.229   3.910   6.295  0.0883 -1.0158  1.3174
13922TIP3   OH241687   2.062   7.725   6.193  0.1762 -1.0309  0.1479
13922TIP3    H141688   1.980   7.771   6.208  1.3307  0.2071  3.1155
13922TIP3    H241689   2.083   7.741   6.101 -0.6955  2.3911  0.4702
13923TIP3   OH241690   3.728   5.880   6.907  0.0908  0.3989 -0.2592
13923TIP3    H141691   3.656   5.938   6.931  0.9218  0.5798  1.9225
13923TIP3    H241692   3.692   5.792   6.914 -0.5378  0.5583 -1.3851
13924TIP3   OH241693   3.327   7.471   6.403  0.2779 -0.7041  0.1114
13924TIP3    H141694   3.351   7.560   6.430  0.0543 -0.8049  0.6363
13924TIP3    H241695   3.324   7.476   6.307  0.4856 -0.2028  0.1255
13925TIP3   OH241696   3.778   6.393   6.402 -0.3125 -0.1026  0.2476
13925TIP3    H141697   3.836   6.322   6.429 -1.0697 -0.6124  0.5446
13925TIP3    H241698   3.739   6.363   6.320 -0.0627  0.2950 -0.0187
13926TIP3   OH241699   1.781   6.211   4.969  0.3853  0.6536  0.2978
13926TIP3    H141700   1.866   6.215   4.927  0.6582  1.8600  0.9385
13926TIP3    H241701   1.730   6.281   4.929 -0.3473 -0.1207 -0.1514
13927TIP3   OH241702   3.949   7.103   2.364 -0.4233  0.3558  0.1354
13927TIP3    H141703   3.854   7.096   2.352  0.0089 -0.3245 -3.8845
13927TIP3    H241704   3.973   7.022   2.409 -1.6387 -0.0427  0.1097
13928TIP3   OH241705   1.266   6.842   4.141  0.8342  0.6867 -0.1165
13928TIP3    H141706   1.218   6.760   4.128  1.5750  0.3070 -0.4975
13928TIP3    H241707   1.267   6.855   4.236 -1.6238  1.6673 -0.1895
13929TIP3   OH241708   7.495   3.308   0.160  0.4990  0.2432  0.1984
13929TIP3    H141709   7.420   3.285   0.105  1.0059  0.1898 -0.4809
13929TIP3    H241710   7.548   3.367   0.105  0.6780  0.7162  0.8687
13930TIP3   OH241711   6.243   4.730   0.077  0.8134 -0.2473  0.2610
13930TIP3    H141712   6.282   4.761   0.159 -1.6808  0.0653  1.3966
13930TIP3    H241713   6.159   4.776   0.072  0.1672 -1.5711 -1.5903
13931TIP3   OH241714   3.678   2.021   6.534  0.8582  0.4199  0.3715
13931TIP3    H141715   3.752   2.020   6.595  2.0961 -0.4419 -1.1317
13931TIP3    H241716   3.669   1.930   6.505  0.4651  0.8782 -0.9727
13932TIP3   OH241717   3.093   7.604   2.650 -0.7662 -0.1053 -0.5388
13932TIP3    H141718   3.084   7.693   2.683 -2.5057 -0.8444  1.0377
13932TIP3    H241719   3.182   7.578   2.676 -1.4614 -0.0357  2.1023
13933TIP3   OH241720   8.160   1.199   5.986 -0.4724  0.0099  0.1436
13933TIP3    H141721   8.070   1.183   6.016 -1.3660  2.4407 -1.1403
13933TIP3    H241722   8.201   1.246   6.058 -0.2898 -0.8683  0.6226
13934TIP3   OH241723   5.906   1.161   6.692  0.5298  0.1400  0.2268
13934TIP3    H141724   5.912   1.066   6.678  0.6496  0.1949 -0.1004
13934TIP3    H241725   5.994   1.194   6.671  1.3257 -0.0252  3.1174
13935TIP3   OH241726   7.894   5.467   0.171 -0.1226 -0.0008 -0.0256
13935TIP3    H141727   7.984   5.500   0.176 -0.4907  1.0914 -0.3925
13935TIP3    H241728   7.893   5.392   0.230  1.3722 -0.8172 -0.9907
13936TIP3   OH241729   4.048   7.299   4.399 -0.5127 -0.0814 -0.4471
13936TIP3    H141730   4.030   7.385   4.437 -0.1980 -0.1495 -0.1393
13936TIP3    H241731   3.963   7.257   4.394 -0.4045 -0.5748  1.4232
13937TIP3   OH241732   1.393   7.302   6.838 -0.0255  0.4570  0.5340
13937TIP3    H141733   1.344   7.254   6.905  0.0267  0.6120  0.6839
13937TIP3    H241734   1.437   7.372   6.887  1.3799 -0.4672  0.5861
13938TIP3   OH241735   0.825   8.265   4.777  0.0136 -0.0224 -0.0557
13938TIP3    H141736   0.850   8.232   4.864 -1.1213 -0.6012  0.0620
13938TIP3    H241737   0.794   8.354   4.794 -0.6179 -0.2840  0.2167
13939TIP3   OH241738   4.480   0.011   5.218 -0.1299  0.0526  0.5328
13939TIP3    H141739   4.573   0.018   5.239 -0.2157  0.2160  0.8584
13939TIP3    H241740   4.478  -0.010   5.125  0.2434 -0.2433  0.5897
13940TIP3   OH241741   7.748   2.016   1.058  0.0737  0.1720 -0.3411
13940TIP3    H141742   7.793   2.094   1.089  1.6172 -0.4446 -0.9913
13940TIP3    H241743   7.734   2.032   0.964 -2.2143  0.8923  0.0815
13941TIP3   OH241744   8.353   0.820   0.665  0.3392  0.3422  0.2099
13941TIP3    H141745   8.365   0.765   0.742  1.3136  1.1666  0.6621
13941TIP3    H241746   8.438   0.818   0.622  0.3197  1.3394  0.1274
13942TIP3   OH241747   6.167   1.436   7.199  0.2496 -0.4090  0.1743
13942TIP3    H141748   6.102   1.368   7.185 -0.9630  0.9661 -1.0029
13942TIP3    H241749   6.241   1.410   7.143 -0.0374 -0.9616  0.0492
13943TIP3   OH241750   1.325   2.989   1.190  0.1341  0.2932  0.5936
13943TIP3    H141751   1.356   2.931   1.122  2.1692  2.4230 -0.3560
13943TIP3    H241752   1.229   2.981   1.187  0.1560  0.7605 -2.8808
13944TIP3   OH241753   1.420   4.745   5.330 -0.0499 -0.1266  0.5256
13944TIP3    H141754   1.489   4.766   5.392  0.7049 -0.3256 -0.2400
13944TIP3    H241755   1.395   4.655   5.351 -0.3876  0.0909  1.0824
13945TIP3   OH241756   4.434   3.396   6.393 -0.0203  0.1930  0.7723
13945TIP3    H141757   4.484   3.365   6.468 -1.6909  0.4572  2.0294
13945TIP3    H241758   4.343   3.385   6.419 -0.6386 -0.1747 -1.4253
13946TIP3   OH241759   7.314   0.263   6.807  0.6680 -0.4743  0.0997
13946TIP3    H141760   7.324   0.251   6.901 -0.5623  0.7243  0.3849
13946TIP3    H241761   7.274   0.181   6.777 -1.0491  0.0216  0.9747
13947TIP3   OH241762   5.555   0.280   6.409 -0.0726 -0.3932  0.2071
13947TIP3    H141763   5.519   0.210   6.463  0.3983 -0.7813  0.0214
13947TIP3    H241764   5.618   0.237   6.352 -0.3018  0.0729 -0.4089
13948TIP3   OH241765   2.943   7.064   6.281 -0.4828  0.1107 -0.3587
13948TIP3    H141766   2.941   7.034   6.190  0.0106 -0.1847 -0.2744
13948TIP3    H241767   2.998   7.001   6.326 -1.4583 -0.2520  0.3381
13949TIP3   OH241768   1.968   7.402   6.576  0.0415  0.1793 -0.4060
13949TIP3    H141769   1.886   7.440   6.544 -0.8084 -0.9408  0.4366
13949TIP3    H241770   2.005   7.470   6.632 -1.2953 -0.0658  0.7982
13950TIP3   OH241771   2.792   1.362   5.133 -0.3358  0.1700  0.1064
13950TIP3    H141772   2.715   1.400   5.092 -1.2072 -2.1188 -0.4802
13950TIP3    H241773   2.773   1.363   5.227 -1.5971 -1.3870 -0.1051
13951TIP3   OH241774   5.231   0.420   6.660  0.2697 -0.0507  0.0393
13951TIP3    H141775   5.194   0.447   6.744  0.5117 -1.0413  0.4736
13951TIP3    H241776   5.324   0.409   6.678 -0.3105 -4.6817  0.8402
13952TIP3   OH241777   6.755   1.080   5.832 -0.2055 -0.5579 -0.9053
13952TIP3    H141778   6.760   1.059   5.925 -0.2352 -0.5781 -0.9089
13952TIP3    H241779   6.841   1.118   5.812 -0.2731 -0.3580 -0.8227
13953TIP3   OH241780   5.299   0.666   5.504  0.1047  0.0978  0.1415
13953TIP3    H141781   5.352   0.743   5.522 -1.8402  1.6067 -0.3386
13953TIP3    H241782   5.319   0.642   5.413 -0.0267  0.6589 -0.0347
13954TIP3   OH241783   2.326   8.161   4.536 -0.4041  0.0921  0.0199
13954TIP3    H141784   2.268   8.214   4.591 -1.1393 -1.2640  0.5659
13954TIP3    H241785   2.363   8.223   4.473 -1.1627  1.2731  0.7261
13955TIP3   OH241786   5.237   0.315   6.234 -0.2106 -0.5738  0.6122
13955TIP3    H141787   5.288   0.311   6.315  1.8700  0.1491 -0.6632
13955TIP3    H241788   5.180   0.237   6.239  1.7706 -2.0024  1.5240
13956TIP3   OH241789   0.378   5.366   0.085 -0.1296  0.3213 -0.1721
13956TIP3    H141790   0.307   5.306   0.060 -1.3500  1.9834 -0.7563
13956TIP3    H241791   0.368   5.376   0.179  0.0357 -0.3463 -0.0818
13957TIP3   OH241792   2.516   8.301   6.108  0.5577  0.4747 -0.0038
13957TIP3    H141793   2.449   8.326   6.044  0.3777 -0.2003 -0.0800
13957TIP3    H241794   2.596   8.344   6.078  0.5044  0.0533 -0.7503
13958TIP3   OH241795   3.514   6.078   5.571  0.9014  0.1683  0.5331
13958TIP3    H141796   3.518   6.109   5.480  0.0216 -0.0861  0.4088
13958TIP3    H241797   3.606   6.073   5.598  1.1711  0.2295 -0.3491
13959TIP3   OH241798   2.708   6.643   6.271 -0.1554 -0.5786 -0.8023
13959TIP3    H141799   2.705   6.549   6.256 -1.7506 -0.5748 -0.5994
13959TIP3    H241800   2.764   6.654   6.348  0.0723 -1.3623 -0.8573
13960TIP3   OH241801   4.178   2.626   6.545  0.3984  0.0642 -0.0956
13960TIP3    H141802   4.192   2.689   6.474 -0.3337  1.0350  0.6082
13960TIP3    H241803   4.091   2.590   6.528  0.5703 -0.3339 -0.1552
13961TIP3   OH241804   4.341   1.619   5.900  0.2919  0.2399 -0.3566
13961TIP3    H141805   4.411   1.682   5.884  1.4384 -1.2393 -1.2653
13961TIP3    H241806   4.365   1.577   5.982  1.2079 -1.2159 -1.3482
13962TIP3   OH241807   8.179   2.719   0.275 -0.0156  0.0803  0.0776
13962TIP3    H141808   8.096   2.763   0.295 -0.3018  0.0859 -1.0940
13962TIP3    H241809   8.165   2.681   0.188  0.9954 -0.4590  0.1489
13963TIP3   OH241810   4.318   0.417   6.010 -0.0202  0.0516  0.0075
13963TIP3    H141811   4.337   0.449   5.921 -0.5143 -0.9460 -0.4562
13963TIP3    H241812   4.223   0.415   6.015  0.0031 -1.9554 -0.1863
13964TIP3   OH241813   1.149   7.291   6.147  0.1007  0.2849  0.0253
13964TIP3    H141814   1.213   7.362   6.156  0.5532  0.2893 -2.7216
13964TIP3    H241815   1.201   7.211   6.153  0.0074  0.2365  0.1965
13965TIP3   OH241816   2.862   5.389   4.185  0.0627  0.4777  0.4792
13965TIP3    H141817   2.877   5.467   4.239  1.5487  1.1609 -0.8801
13965TIP3    H241818   2.901   5.410   4.101 -0.6860 -1.2510 -0.3282
13966TIP3   OH241819   1.100   7.053   5.176 -0.9602  0.2163 -0.3441
13966TIP3    H141820   1.106   7.019   5.266 -0.2330  1.8980  0.2623
13966TIP3    H241821   1.169   7.119   5.171 -2.6408  1.9478 -1.3269
13967TIP3   OH241822   3.188   6.750   3.957  0.1903 -0.2024  0.0993
13967TIP3    H141823   3.271   6.709   3.982  1.0392  1.5814  0.2864
13967TIP3    H241824   3.121   6.687   3.984  1.4387 -1.3176  0.6579
13968TIP3   OH241825   8.884   3.990   0.068 -0.6388  0.1296 -0.0601
13968TIP3    H141826   8.910   3.951   0.151 -0.7965 -0.6874 -0.3902
13968TIP3    H241827   8.893   4.084   0.082  1.5380 -0.0978  0.1338
13969TIP3   OH241828   1.028   5.755   5.932  0.2572  0.1401 -0.3167
13969TIP3    H141829   1.012   5.749   5.837 -0.5134 -2.2868 -0.0817
13969TIP3    H241830   1.089   5.684   5.950  1.1257  1.1781  0.8900
13970TIP3   OH241831   3.569   7.982   5.285  0.4249 -0.5494 -0.2059
13970TIP3    H141832   3.650   7.938   5.310  0.3648 -0.5038  0.0667
13970TIP3    H241833   3.504   7.912   5.276  0.4903 -0.5846 -0.4131
13971TIP3   OH241834   1.586   6.548   6.477 -0.1759  0.6098  0.3274
13971TIP3    H141835   1.600   6.603   6.400  1.5984 -0.0474  0.1505
13971TIP3    H241836   1.581   6.609   6.550  2.6526  1.0229  0.2469
13972TIP3   OH241837   0.975   7.121   4.927  0.1480 -0.0021  0.7701
13972TIP3    H141838   1.016   7.197   4.887 -1.9818  0.8668  0.1651
13972TIP3    H241839   1.032   7.098   5.000  1.7066  1.1249 -0.0826
13973TIP3   OH241840   1.808   6.131   0.335 -0.2297  1.0099 -0.1549
13973TIP3    H141841   1.756   6.135   0.415  0.8052  0.9706  0.5274
13973TIP3    H241842   1.882   6.190   0.351  1.0886 -0.5554 -0.2569
13974TIP3   OH241843   6.586   0.467   6.981 -0.0431  0.6077 -0.2965
13974TIP3    H141844   6.643   0.445   7.054  1.6555  0.8024 -1.5295
13974TIP3    H241845   6.560   0.382   6.945 -2.5905  0.4604  1.7817
13975TIP3   OH241846   3.833   7.824   3.894  0.0094 -0.3324  0.0818
13975TIP3    H141847   3.914   7.827   3.842 -0.5326 -1.8499 -0.9019
13975TIP3    H241848   3.786   7.904   3.870  0.1661 -0.5893 -1.1292
13976TIP3   OH241849   3.111   0.635   7.078  0.2396 -0.3734 -0.3831
13976TIP3    H141850   3.098   0.723   7.113  2.2273  0.2293 -1.1063
13976TIP3    H241851   3.035   0.585   7.109 -0.7320  1.4977  0.3103
13977TIP3   OH241852   2.237   7.348   5.790 -0.2847 -0.0245  0.0359
13977TIP3    H141853   2.315   7.332   5.845 -0.4746  1.1681  0.6786
13977TIP3    H241854   2.175   7.281   5.818  0.5391 -1.0543 -0.5515
13978TIP3   OH241855   3.926   8.059   3.679 -0.6596  0.3532  0.4082
13978TIP3    H141856   3.886   8.124   3.737 -2.4222  1.4173 -1.9152
13978TIP3    H241857   3.899   8.085   3.591 -2.2720 -4.0792 -0.5631
13979TIP3   OH241858   8.774   3.056   0.372  0.0048  0.0265  0.5673
13979TIP3    H141859   8.831   3.030   0.300 -1.9198  0.0913 -1.0353
13979TIP3    H241860   8.735   2.974   0.403  1.1398 -0.0482  1.8171
13980TIP3   OH241861   1.912   5.778   5.398 -0.5674  0.4588 -0.2630
13980TIP3    H141862   1.864   5.755   5.477  0.0785 -0.7650 -0.2238
13980TIP3    H241863   1.910   5.874   5.396 -1.0117  0.4811  0.9699
13981TIP3   OH241864   0.418   5.739   0.170 -0.3934  0.2237 -0.5748
13981TIP3    H141865   0.378   5.680   0.233 -2.4670  2.6804  0.4987
13981TIP3    H241866   0.355   5.743   0.098  0.1714  0.4164 -1.0622
13982TIP3   OH241867   4.699   6.532   5.903 -0.0348 -0.6146  0.4580
13982TIP3    H141868   4.642   6.568   5.970  1.1420  0.4154  0.9127
13982TIP3    H241869   4.731   6.608   5.854  0.6367 -1.2070 -0.0432
13983TIP3   OH241870   0.687   6.654   5.207 -0.0362  0.1638 -0.0924
13983TIP3    H141871   0.763   6.652   5.265 -0.0383  1.1485 -0.0358
13983TIP3    H241872   0.707   6.725   5.145 -0.0085 -0.9054 -1.3286
13984TIP3   OH241873   8.328   5.228   0.803  0.5117 -0.2280 -0.2419
13984TIP3    H141874   8.322   5.208   0.709 -0.1943  0.6506 -0.3918
13984TIP3    H241875   8.387   5.304   0.807  0.9710 -0.5999  0.0764
13985TIP3   OH241876   7.342   1.249   5.519  0.0995  0.2102 -0.5878
13985TIP3    H141877   7.360   1.155   5.514  2.5138  0.6526 -0.8537
13985TIP3    H241878   7.362   1.273   5.609 -0.0964  0.5560 -0.6361
13986TIP3   OH241879   4.089   6.091   7.133 -0.4699 -0.0258  0.1890
13986TIP3    H141880   4.158   6.046   7.083  0.1518  0.8854  0.2165
13986TIP3    H241881   4.009   6.042   7.112  0.2193 -1.2480  0.3494
13987TIP3   OH241882   2.607   7.399   7.171 -0.7673  0.4110 -0.3019
13987TIP3    H141883   2.681   7.351   7.209 -0.6359  1.8180  1.3114
13987TIP3    H241884   2.648   7.471   7.123 -1.0575  0.9574  0.2583
13988TIP3   OH241885   1.711   7.234   5.966 -0.4542 -0.2410 -0.0858
13988TIP3    H141886   1.664   7.312   5.938 -2.6752 -1.8498 -1.0069
13988TIP3    H241887   1.722   7.182   5.886 -1.7113 -2.2321  0.9778
13989TIP3   OH241888   1.220   4.719   0.866 -0.0447 -0.0988  0.2779
13989TIP3    H141889   1.240   4.791   0.925 -0.9008  1.2900 -1.0981
13989TIP3    H241890   1.282   4.727   0.794 -0.0270 -0.8435  0.1994
13990TIP3   OH241891   3.898   2.551   6.757 -0.2058  0.2835 -0.2885
13990TIP3    H141892   3.910   2.565   6.663 -0.0566 -0.9888 -0.4678
13990TIP3    H241893   3.842   2.474   6.763 -0.1267  0.2933  0.6698
13991TIP3   OH241894   1.782   7.853   6.174  1.0099  0.0735  0.5130
13991TIP3    H141895   1.755   7.771   6.134  1.0727 -0.3473  1.3190
13991TIP3    H241896   1.734   7.920   6.125  0.1540 -0.5154  0.5285
13992TIP3   OH241897   2.117   5.908   5.746 -0.4557  0.3602  0.0180
13992TIP3    H141898   2.041   5.930   5.692  0.5207  2.5321 -0.5245
13992TIP3    H241899   2.188   5.963   5.711  0.5441  0.7916  2.6183
13993TIP3   OH241900   4.009   0.443   5.541 -0.5163 -0.0005  0.8146
13993TIP3    H141901   4.070   0.487   5.599 -1.2658  1.0640  0.8176
13993TIP3    H241902   3.967   0.514   5.492 -1.4042 -0.7432  0.4781
13994TIP3   OH241903   2.542   7.916   3.926  0.2373  0.1735  0.2863
13994TIP3    H141904   2.522   8.009   3.930  0.4926  0.3290 -1.4254
13994TIP3    H241905   2.626   7.907   3.972 -0.1073  0.6776  1.0183
13995TIP3   OH241906   2.464   7.774   5.614 -0.2589 -0.5448 -0.0960
13995TIP3    H141907   2.456   7.831   5.538  0.2396 -0.7429 -0.2967
13995TIP3    H241908   2.478   7.834   5.688  2.0427 -0.4598 -0.5465
13996TIP3   OH241909   2.951   6.995   4.531  0.4535 -0.2524  0.1290
13996TIP3    H141910   2.862   6.999   4.496  0.8430 -0.8602 -0.9566
13996TIP3    H241911   2.952   7.060   4.601 -0.9179 -0.4131  0.3148
13997TIP3   OH241912   8.181   4.623   6.401 -0.0285 -0.1296 -0.1283
13997TIP3    H141913   8.103   4.568   6.412 -0.7597  1.1067  1.1056
13997TIP3    H241914   8.177   4.684   6.474  0.0674  2.3740 -2.1259
13998TIP3   OH241915   7.207   3.722   0.028 -0.0828  0.3768  0.2144
13998TIP3    H141916   7.154   3.800   0.046  0.3671  0.6526  0.3612
13998TIP3    H241917   7.158   3.674  -0.039 -0.1698  0.9829 -0.1578
13999TIP3   OH241918   3.585   1.693   6.142 -0.2811  0.4127 -0.4467
13999TIP3    H141919   3.579   1.597   6.145 -1.2483  0.4698 -0.3516
13999TIP3    H241920   3.678   1.710   6.125 -0.1811 -0.5490 -0.9497
14000TIP3   OH241921   1.379   7.014   5.364 -0.9488  0.2096 -0.4790
14000TIP3    H141922   1.385   7.050   5.276 -0.3125 -0.0795 -0.5630
14000TIP3    H241923   1.400   6.921   5.353  1.2033  0.5706  0.2525
14001TIP3   OH241924   4.137   6.918   6.216  0.1259  0.1495 -0.4999
14001TIP3    H141925   4.181   6.990   6.172  1.1569  1.3687  2.3797
14001TIP3    H241926   4.047   6.947   6.226  0.4766  0.9579  0.4110
14002TIP3   OH241927   3.089   7.928   5.870 -0.0396 -0.3637  0.0352
14002TIP3    H141928   3.146   7.851   5.865 -0.7445 -1.1006  2.6208
14002TIP3    H241929   3.027   7.907   5.940  0.4655  3.0162  1.5866
14003TIP3   OH241930   1.331   6.718   5.765  0.1455  0.4088  0.6355
14003TIP3    H141931   1.280   6.756   5.693  1.3087 -0.9370 -0.9458
14003TIP3    H241932   1.420   6.750   5.750  0.3739  0.1979  1.5380
14004TIP3   OH241933   3.138   7.480   5.689 -0.3913 -0.7546  0.2681
14004TIP3    H141934   3.044   7.483   5.709 -0.4670 -1.2151 -0.0368
14004TIP3    H241935   3.146   7.524   5.604 -0.4500 -1.5743 -0.1631
14005TIP3   OH241936   8.014   2.685   0.659  0.1204 -0.2330  0.0138
14005TIP3    H141937   8.072   2.748   0.701 -2.4033  0.9972  1.7761
14005TIP3    H241938   8.020   2.606   0.713  0.4903 -0.2520 -0.0584
14006TIP3   OH241939   3.585   1.819   5.762  0.3703 -0.0236 -0.0207
14006TIP3    H141940   3.619   1.908   5.752  2.5577 -0.6681  1.1397
14006TIP3    H241941   3.574   1.809   5.857 -0.3886 -0.8008 -0.1907
14007TIP3   OH241942   2.652   5.057   1.027 -0.2801  0.6539  0.0267
14007TIP3    H141943   2.747   5.059   1.013 -0.5802  1.2994 -1.9369
14007TIP3    H241944   2.632   4.965   1.042  0.7746  0.6249  1.3690
14008TIP3   OH241945   4.927   6.618   2.682 -0.3547 -0.7434  0.0155
14008TIP3    H141946   4.936   6.523   2.692  1.9973 -0.3418  2.0855
14008TIP3    H241947   4.988   6.640   2.612 -2.2608 -0.9629 -1.7537
14009TIP3   OH241948   1.063   4.988   0.072 -0.0145 -0.0019  0.3257
14009TIP3    H141949   0.974   4.971   0.102 -0.6162 -0.5960 -1.6917
14009TIP3    H241950   1.113   4.912   0.102 -0.2217  0.2437  1.3004
14010TIP3   OH241951   6.333   0.496   6.155 -0.1074 -0.2424 -0.2876
14010TIP3    H141952   6.424   0.465   6.154  0.5038  1.4655 -2.5611
14010TIP3    H241953   6.281   0.420   6.130  0.8436 -0.8744 -0.3656
14011TIP3   OH241954   1.586   4.016   0.913 -0.4443  0.7329 -0.1566
14011TIP3    H141955   1.517   4.077   0.886 -1.1152  0.0929  0.0865
14011TIP3    H241956   1.586   3.949   0.845 -1.7104 -0.5512  1.0807
14012TIP3   OH241957   3.910   0.443   6.794 -0.1887  0.5735 -0.3819
14012TIP3    H141958   3.839   0.452   6.730 -0.2518  3.4258  0.0104
14012TIP3    H241959   3.866   0.446   6.879  0.0023 -2.1221 -0.1584
14013TIP3   OH241960   3.763   1.415   5.191  0.0450  0.3139 -0.0146
14013TIP3    H141961   3.689   1.425   5.131  0.8237  0.6015 -0.9238
14013TIP3    H241962   3.835   1.385   5.136  0.3554 -0.9250  1.0308
14014TIP3   OH241963   2.762   6.697   5.013  0.0038 -0.4451 -0.6645
14014TIP3    H141964   2.695   6.714   4.947  1.1789 -0.8414 -1.9808
14014TIP3    H241965   2.840   6.675   4.963  1.5761  1.6058  0.7877
14015TIP3   OH241966   1.253   7.160   7.036 -0.1446 -0.2175 -0.2577
14015TIP3    H141967   1.327   7.145   7.095 -0.1738  0.6509  0.0013
14015TIP3    H241968   1.176   7.148   7.092 -0.1851 -0.2475 -0.3206
14016TIP3   OH241969   3.557   0.866   3.090  0.2894 -0.4858  0.2824
14016TIP3    H141970   3.636   0.916   3.108  0.6796 -1.1517  0.4287
14016TIP3    H241971   3.577   0.816   3.011  0.1165 -0.8499  0.4622
14017TIP3   OH241972   3.620   7.779   6.153 -0.2016  0.1022 -0.0900
14017TIP3    H141973   3.669   7.700   6.132  0.5012  0.5853 -0.3205
14017TIP3    H241974   3.565   7.795   6.076  1.5445  1.2474 -1.1400
14018TIP3   OH241975   6.044   0.360   4.888 -0.4927 -0.1913 -0.4049
14018TIP3    H141976   6.007   0.272   4.900 -0.3376 -0.2978 -0.7005
14018TIP3    H241977   6.136   0.350   4.909 -0.9411  0.4304  1.9189
14019TIP3   OH241978   2.114   4.243   0.831 -0.2412  0.2080  0.4177
14019TIP3    H141979   2.053   4.259   0.903 -0.5347 -0.9749  0.4519
14019TIP3    H241980   2.132   4.329   0.794  0.6542  0.9361  2.4980
14020TIP3   OH241981   8.177   7.013   0.216 -0.0211 -0.3558 -0.0580
14020TIP3    H141982   8.097   7.017   0.269 -0.6515  0.0151 -1.0307
14020TIP3    H241983   8.217   6.929   0.240 -0.7947 -0.6268  0.2967
14021TIP3   OH241984   1.177   7.797   7.060  1.1485 -0.0105 -0.0986
14021TIP3    H141985   1.203   7.777   6.970 -1.3309 -1.6270 -0.5280
14021TIP3    H241986   1.128   7.719   7.088 -1.6742  2.1363  1.1778
14022TIP3   OH241987   2.380   7.036   5.778  0.5070  0.3170  0.1109
14022TIP3    H141988   2.417   7.115   5.817 -0.3262  0.6504  0.2142
14022TIP3    H241989   2.286   7.045   5.788  0.3464 -0.1454 -0.9150
14023TIP3   OH241990   2.785   7.291   5.965 -0.0514  0.0168  0.5913
14023TIP3    H141991   2.818   7.325   5.882  0.4457  1.4998  1.3646
14023TIP3    H241992   2.812   7.200   5.966 -0.4500 -0.1412 -1.0647
14024TIP3   OH241993   3.617   5.744   5.490  0.2540  0.0748  0.3458
14024TIP3    H141994   3.644   5.656   5.464  0.4062 -0.0809  1.0179
14024TIP3    H241995   3.532   5.756   5.448  0.2823 -0.3521  0.1615
14025TIP3   OH241996   7.105   0.643   6.140 -0.2739 -0.2376  0.1054
14025TIP3    H141997   7.163   0.709   6.178  1.0661 -1.3814  0.1154
14025TIP3    H241998   7.098   0.576   6.208  0.9670 -1.6032 -1.0667
14026TIP3   OH241999   1.755   8.145   6.616  0.1935 -0.5063 -0.1924
14026TIP3    H142000   1.723   8.193   6.692  0.2851 -0.3381 -0.2609
14026TIP3    H242001   1.691   8.074   6.604 -0.5404  0.2465 -0.7599
14027TIP3   OH242002   4.278   7.673   5.230  0.5151  0.5445  0.0257
14027TIP3    H142003   4.289   7.608   5.160  2.5553  0.4873  0.3727
14027TIP3    H242004   4.205   7.640   5.282  0.8853 -0.9683 -0.3850
14028TIP3   OH242005   3.061   8.113   6.085  0.3834 -0.8176 -0.2963
14028TIP3    H142006   3.064   8.110   5.989 -0.8025  1.3728 -0.4185
14028TIP3    H242007   2.968   8.109   6.106  0.6751 -2.0377  0.8093
14029TIP3   OH242008   1.341   7.926   4.990  0.5236  0.2223  0.2661
14029TIP3    H142009   1.325   7.878   4.909 -1.4082  0.8084  0.2776
14029TIP3    H242010   1.411   7.877   5.034  2.0123  0.2538 -2.0168
14030TIP3   OH242011   1.698   7.215   5.004  0.4409 -0.2426  0.3941
14030TIP3    H142012   1.787   7.179   5.006  0.1362 -1.0926 -0.5128
14030TIP3    H242013   1.706   7.303   5.040  1.7853 -0.0342 -0.3960
14031TIP3   OH242014   2.842   7.318   6.239 -0.4903 -0.1773 -0.2473
14031TIP3    H142015   2.823   7.320   6.146  0.3302 -1.7917 -0.4661
14031TIP3    H242016   2.873   7.229   6.256 -0.6652  0.0731  1.5702
14032TIP3   OH242017   5.674   2.740   0.484  0.4324  0.0090 -0.0671
14032TIP3    H142018   5.751   2.699   0.443  0.3691  0.5087 -0.6988
14032TIP3    H242019   5.608   2.741   0.415 -0.1189 -0.3446  0.4538
14033TIP3   OH242020   5.629   1.572   5.318  0.6057 -0.0900  0.2858
14033TIP3    H142021   5.720   1.598   5.307  0.4132  0.5631  0.2104
14033TIP3    H242022   5.633   1.482   5.350  1.3653  1.1274  3.8792
14034TIP3   OH242023   4.518   0.266   6.085 -0.1589  0.1271 -0.2302
14034TIP3    H142024   4.439   0.318   6.071 -1.1484 -1.7777 -1.9313
14034TIP3    H242025   4.542   0.235   5.998  1.1079 -1.2468  0.5870
14035TIP3   OH242026   6.592   0.697   7.240  0.1980  0.4888  0.1118
14035TIP3    H142027   6.669   0.670   7.289 -0.0886 -0.9327 -0.1849
14035TIP3    H242028   6.622   0.768   7.184  1.0985  0.4823  0.5755
14036TIP3   OH242029   2.519   7.153   5.497 -0.4238 -0.1392 -0.2984
14036TIP3    H142030   2.455   7.093   5.535 -0.2223 -0.9664 -1.2384
14036TIP3    H242031   2.602   7.131   5.540 -0.4672 -0.1396 -0.2154
14037TIP3   OH242032   2.161   6.989   4.195 -0.0461 -0.0454 -0.4693
14037TIP3    H142033   2.088   6.948   4.150  0.1792 -0.0691 -0.8109
14037TIP3    H242034   2.200   6.918   4.246  0.3070 -0.2376 -1.0139
14038TIP3   OH242035   1.914   6.438   6.268  0.0259  0.0546 -0.8271
14038TIP3    H142036   1.942   6.482   6.188  1.7487 -1.1109 -0.8835
14038TIP3    H242037   1.984   6.375   6.287 -1.4085 -1.2156  0.3803
14039TIP3   OH242038   6.990   1.993   7.196  0.4522  0.1339  0.4839
14039TIP3    H142039   7.026   1.966   7.111  0.0218 -0.3116  0.4426
14039TIP3    H242040   6.996   2.089   7.194 -1.7974  0.2785 -1.0550
14040TIP3   OH242041   6.281   1.110   6.379  0.1029  0.1061 -0.0674
14040TIP3    H142042   6.325   1.029   6.353 -1.1497 -0.1992 -1.3227
14040TIP3    H242043   6.352   1.171   6.398  1.0818 -0.5796 -1.4215
14041TIP3   OH242044   8.039   4.999   1.317  0.1175 -0.3058 -0.0916
14041TIP3    H142045   8.075   5.039   1.396  0.2436  0.3020 -0.4558
14041TIP3    H242046   7.951   5.036   1.310 -0.2294 -1.0511  0.2620
14042TIP3   OH242047   2.251   7.925   7.110  0.1745 -0.7472  0.7010
14042TIP3    H142048   2.322   7.874   7.151 -1.1609 -1.5444  2.0858
14042TIP3    H242049   2.256   8.011   7.151 -1.2131 -1.5688  2.6870
14043TIP3   OH242050   2.065   6.582   6.911  0.1703 -0.2757  0.0714
14043TIP3    H142051   2.119   6.661   6.905  1.9851 -1.3088  2.2358
14043TIP3    H242052   1.996   6.596   6.846 -0.4201  3.7325  1.4348
14044TIP3   OH242053   6.275   0.607   5.904  0.4805 -0.0167 -0.2255
14044TIP3    H142054   6.328   0.559   5.967  0.2837 -0.2700 -0.2516
14044TIP3    H242055   6.222   0.667   5.957  0.1712 -0.3697 -0.1355
14045TIP3   OH242056   5.852   0.288   4.542  0.1742  0.1160 -0.7070
14045TIP3    H142057   5.900   0.245   4.614 -1.9063 -1.6839 -0.3410
14045TIP3    H242058   5.897   0.372   4.530  2.3448 -0.7876  0.7525
14046TIP3   OH242059   8.031   2.787   1.517  0.1258  0.5369  0.0183
14046TIP3    H142060   8.073   2.873   1.511 -0.6483  0.9504  0.4885
14046TIP3    H242061   7.950   2.796   1.466  0.1288  0.0400 -0.0767
14047TIP3   OH242062   5.652   1.373   7.108 -0.0122  0.1419  0.1622
14047TIP3    H142063   5.592   1.445   7.091 -0.1345 -0.2280 -1.0296
14047TIP3    H242064   5.671   1.337   7.021 -1.1788 -2.2337  0.8317
14048TIP3   OH242065   4.557   1.406   6.512  0.4001 -0.2701 -0.5563
14048TIP3    H142066   4.576   1.470   6.580  3.5108 -1.3715 -0.3002
14048TIP3    H242067   4.505   1.339   6.555  1.5788 -0.5025  0.5074
14049TIP3   OH242068   2.097   5.896   6.894 -0.5984  0.3570  0.2001
14049TIP3    H142069   2.169   5.836   6.914 -0.1868  0.9093  0.4230
14049TIP3    H242070   2.045   5.899   6.974 -1.2468 -0.5491 -0.1826
14050TIP3   OH242071   1.992   8.059   6.196  0.1803 -0.5923  0.1999
14050TIP3    H142072   1.935   8.024   6.264  1.4442  0.6676  1.9733
14050TIP3    H242073   2.075   8.013   6.207  0.3236 -0.5583 -0.6546
14051TIP3   OH242074   2.051   7.626   6.740 -0.1419 -0.2515 -0.1826
14051TIP3    H142075   2.127   7.586   6.782  1.4144  0.9284 -1.8038
14051TIP3    H242076   2.084   7.707   6.701 -1.5960 -1.0832 -3.3135
14052TIP3   OH242077   1.914   7.987   6.438 -0.8421  0.1556 -0.6842
14052TIP3    H142078   1.980   8.013   6.502 -0.6417  0.6626 -1.0929
14052TIP3    H242079   1.830   8.005   6.480 -0.7763 -2.7119  0.7785
14053TIP3   OH242080   0.982   5.750   0.555  0.0595 -0.2155  0.0397
14053TIP3    H142081   0.962   5.738   0.462 -0.2414 -2.0695  0.3249
14053TIP3    H242082   1.033   5.831   0.558 -0.2863  0.0854 -1.6932
14054TIP3   OH242083   3.555   7.079   3.220 -0.2923 -0.4838 -0.1151
14054TIP3    H142084   3.585   7.115   3.303  0.6672 -0.6540 -0.3857
14054TIP3    H242085   3.491   7.143   3.188  0.4827  0.3675  0.0114
14055TIP3   OH242086   1.743   7.143   4.722 -0.2384  0.8955 -0.0339
14055TIP3    H142087   1.718   7.115   4.811 -1.1998 -0.0575 -0.5827
14055TIP3    H242088   1.730   7.238   4.722  0.9079  1.0602  1.1989
14056TIP3   OH242089   5.063   0.154   6.708  0.1794  0.4147 -0.2410
14056TIP3    H142090   5.043   0.227   6.767  1.1933  0.0514  0.5672
14056TIP3    H242091   5.022   0.178   6.625 -1.0351  1.0627  0.5318
14057TIP3   OH242092   3.317   8.375   6.737 -0.3640  0.4168 -0.0763
14057TIP3    H142093   3.246   8.342   6.793  0.6658  0.3813  1.2370
14057TIP3    H242094   3.397   8.359   6.788  0.7372 -0.8285 -2.1165
14058TIP3   OH242095   8.090   2.243   0.906 -0.4617  0.0801 -0.7879
14058TIP3    H142096   8.147   2.241   0.829  2.4007 -0.8423  1.2439
14058TIP3    H242097   8.099   2.156   0.945 -0.5976  0.9931  1.4047
14059TIP3   OH242098   8.223   5.345   0.141  0.3065 -0.8836  0.5405
14059TIP3    H142099   8.226   5.420   0.199  2.0506 -0.1640 -0.4397
14059TIP3    H242100   8.300   5.355   0.084  0.6272 -3.4567  0.4624
14060TIP3   OH242101   6.790   1.558   5.913  0.4818  0.1630 -0.1986
14060TIP3    H142102   6.721   1.501   5.880 -0.4701  2.1826 -1.7392
14060TIP3    H242103   6.811   1.616   5.840  0.0456  3.1225  1.9423
14061TIP3   OH242104   5.484   0.801   6.847 -0.0334 -0.3161 -0.0968
14061TIP3    H142105   5.564   0.843   6.879 -1.2238  1.1443  0.9829
14061TIP3    H242106   5.473   0.725   6.904 -0.6549  0.7579  1.2327
14062TIP3   OH242107   2.852   8.308   7.012 -0.8885 -0.3232  0.0675
14062TIP3    H142108   2.799   8.271   6.941 -0.5856 -1.7946  0.5855
14062TIP3    H242109   2.872   8.233   7.068  2.1010  0.1258 -0.3160
14063TIP3   OH242110   8.461   5.383   0.313 -0.8245  0.6998 -0.0590
14063TIP3    H142111   8.515   5.320   0.266 -2.5014  0.9745 -2.4580
14063TIP3    H242112   8.430   5.336   0.391  0.8921 -0.2050  0.0879
14064TIP3   OH242113   0.955   4.065   0.202  0.1514  0.4022 -0.4817
14064TIP3    H142114   1.007   3.986   0.189  2.1640  1.6618 -0.4027
14064TIP3    H242115   0.936   4.096   0.113  0.3463  0.4352 -0.5129
14065TIP3   OH242116   7.741   3.462   0.055  0.0164 -0.2716 -0.4722
14065TIP3    H142117   7.809   3.427   0.113 -0.3915 -0.3473 -0.0335
14065TIP3    H242118   7.786   3.530   0.004  0.1854  0.3815  0.5250
14066TIP3   OH242119   1.068   6.554   7.050 -0.1569 -0.4068 -0.0289
14066TIP3    H142120   0.989   6.606   7.040  1.4076  2.1954  0.7062
14066TIP3    H242121   1.129   6.590   6.986  1.4492 -0.3262  1.4965
14067TIP3   OH242122   2.041   6.685   6.488 -0.0209  0.6123 -0.6829
14067TIP3    H142123   2.042   6.778   6.508 -1.7780  0.5248 -0.0357
14067TIP3    H242124   1.996   6.679   6.403  0.3540  0.3647 -0.8687
14068TIP3   OH242125   3.985   0.581   4.796  0.4029 -0.3424  0.4098
14068TIP3    H142126   3.922   0.585   4.868  0.5369  0.8827  0.4790
14068TIP3    H242127   3.935   0.609   4.719  0.6144 -0.2988  0.2868
14069TIP3   OH242128   5.964   1.144   5.648  0.2137  0.0894 -0.5627
14069TIP3    H142129   5.996   1.186   5.568  0.1440 -0.5250 -0.9161
14069TIP3    H242130   6.011   1.060   5.652 -0.9891 -0.6140 -0.8375
14070TIP3   OH242131   4.431   8.258   4.702  0.4833  0.0259 -0.5938
14070TIP3    H142132   4.350   8.234   4.658 -0.7317  0.9231  1.0574
14070TIP3    H242133   4.418   8.229   4.793  1.9010  0.4125 -0.2587
14071TIP3   OH242134   5.974   0.906   6.687 -0.0115  0.1476 -0.1854
14071TIP3    H142135   5.891   0.869   6.655  1.2003 -1.4113 -1.5881
14071TIP3    H242136   6.039   0.880   6.622  1.2405  3.1510 -0.1984
14072TIP3   OH242137   2.980   7.264   5.480  0.6185  0.2925  0.1753
14072TIP3    H142138   3.061   7.314   5.477  0.0157  1.2903  0.2166
14072TIP3    H242139   3.002   7.185   5.530  2.3667 -0.9844 -2.5305
14073TIP3   OH242140   5.690   0.057   6.031  0.3516 -0.1094  0.6204
14073TIP3    H142141   5.685   0.152   6.034 -1.1890 -0.1277 -0.5469
14073TIP3    H242142   5.771   0.038   5.983 -1.2027  0.6826 -2.4524
14074TIP3   OH242143   4.603   7.433   5.248 -0.4852  0.8001  0.6118
14074TIP3    H142144   4.549   7.372   5.198 -0.2824  0.4094  0.8712
14074TIP3    H242145   4.606   7.512   5.193  0.9067 -0.1202 -0.6571
14075TIP3   OH242146   1.073   4.394   0.528  0.3729  0.5074 -0.2133
14075TIP3    H142147   0.989   4.368   0.567 -0.0954  0.2097 -1.3675
14075TIP3    H242148   1.134   4.397   0.601 -0.6930  0.8915  0.6752
14076TIP3   OH242149   8.605   5.056   0.835  0.2024  0.3715 -0.3212
14076TIP3    H142150   8.615   5.009   0.752  1.2918  0.4591 -0.2526
14076TIP3    H242151   8.520   5.028   0.868 -0.8028  1.3068 -2.0707
14077TIP3   OH242152   4.149   0.681   6.241 -0.0563  0.0528  0.2692
14077TIP3    H142153   4.089   0.694   6.168 -0.7475 -1.2164  0.6086
14077TIP3    H242154   4.172   0.770   6.269 -0.0237  0.5446 -1.2858
14078TIP3   OH242155   4.136   7.665   5.640 -0.3006  0.7872  0.5310
14078TIP3    H142156   4.157   7.695   5.551  0.2477 -0.7279  0.1363
14078TIP3    H242157   4.084   7.586   5.627 -0.7183  0.8817  1.5664
14079TIP3   OH242158   3.651   5.890   5.074  0.5133 -0.3672  0.4098
14079TIP3    H142159   3.673   5.940   4.995 -0.4346 -0.4816  0.0610
14079TIP3    H242160   3.593   5.947   5.123 -1.5316 -1.5672 -0.5660
14080TIP3   OH242161   8.234   2.829   0.761  0.0536  0.6214  0.1083
14080TIP3    H142162   8.318   2.825   0.809 -0.2461  1.4008  0.7150
14080TIP3    H242163   8.203   2.918   0.776 -0.6580  0.4777 -0.5167
14081TIP3   OH242164   2.579   7.801   6.397  0.5216  0.5667 -0.8366
14081TIP3    H142165   2.555   7.726   6.343  1.9935  0.5484 -1.4934
14081TIP3    H242166   2.495   7.845   6.416 -0.4262 -1.6500  0.2079
14082TIP3   OH242167   3.534   7.573   6.637 -0.2686 -0.1335  0.0534
14082TIP3    H142168   3.455   7.538   6.679 -0.6658 -0.0520 -0.6089
14082TIP3    H242169   3.514   7.666   6.624  0.0169 -0.0716  0.0643
14083TIP3   OH242170   4.847   7.415   5.532 -0.2232 -0.3580  0.4577
14083TIP3    H142171   4.848   7.495   5.478  0.2247 -0.1234  0.8067
14083TIP3    H242172   4.875   7.445   5.619  1.3365 -1.1457  0.2453
14084TIP3   OH242173   2.482   7.526   5.942  0.0707 -0.3061  0.0131
14084TIP3    H142174   2.483   7.430   5.940  1.5121 -0.2926 -0.4402
14084TIP3    H242175   2.557   7.551   5.888  0.4719  1.0661  1.2120
14085TIP3   OH242176   1.199   4.795   0.257 -0.5249 -0.4824 -0.0208
14085TIP3    H142177   1.222   4.880   0.295  1.1636 -0.8646 -0.1415
14085TIP3    H242178   1.145   4.753   0.324  0.5134 -0.2193  1.0035
14086TIP3   OH242179   7.883   4.054   1.535  0.7430 -0.0605  0.1627
14086TIP3    H142180   7.894   4.056   1.630 -0.2016  1.4934  0.2594
14086TIP3    H242181   7.810   3.994   1.521 -0.7753  1.6227  0.6291
14087TIP3   OH242182   5.505   0.432   6.744  0.0825  0.1613 -0.2644
14087TIP3    H142183   5.535   0.494   6.678  0.9815  1.7631  1.5836
14087TIP3    H242184   5.564   0.358   6.737 -0.2800 -0.0095 -1.7178
14088TIP3   OH242185   2.436   7.673   4.564 -0.3716  0.0127 -0.1702
14088TIP3    H142186   2.493   7.720   4.504  1.7223 -0.7146  1.2181
14088TIP3    H242187   2.363   7.734   4.580 -0.2959  0.7295 -2.3710
14089TIP3   OH242188   2.603   7.271   6.686  0.4948  0.0763 -0.3071
14089TIP3    H142189   2.676   7.324   6.718  1.9081 -1.6640 -0.5750
14089TIP3    H242190   2.567   7.228   6.764  2.1188 -1.9277 -0.6249
14090TIP3   OH242191   2.717   0.824   6.551 -0.4423  0.5277  0.7083
14090TIP3    H142192   2.715   0.818   6.455  1.2188  1.8701  0.5729
14090TIP3    H242193   2.810   0.822   6.573 -0.7755  1.1532  2.2391
14091TIP3   OH242194   7.741   0.629   4.475 -0.1397 -0.5209 -0.4847
14091TIP3    H142195   7.686   0.599   4.403 -0.9614 -0.9024  0.2850
14091TIP3    H242196   7.829   0.602   4.451 -0.4888 -1.1473 -1.0819
14092TIP3   OH242197   2.592   5.710   6.655  0.0713  0.0289 -0.2856
14092TIP3    H142198   2.585   5.621   6.621 -0.7133  0.5003 -1.3850
14092TIP3    H242199   2.525   5.714   6.723  1.6798 -0.9286  1.4137
14093TIP3   OH242200   2.571   6.585   5.883 -0.0869  0.0063 -0.0962
14093TIP3    H142201   2.525   6.509   5.918 -1.0005  0.2100 -0.8494
14093TIP3    H242202   2.517   6.660   5.908 -0.8256  0.1461 -2.0370
14094TIP3   OH242203   0.978   1.424   6.709 -0.3354  0.1884 -0.3773
14094TIP3    H142204   0.912   1.357   6.730 -0.2866 -0.7616 -3.0835
14094TIP3    H242205   1.060   1.387   6.741 -0.5203 -0.4456 -0.6118
14095TIP3   OH242206   0.242   6.707   6.954 -0.1088 -0.1498  0.0294
14095TIP3    H142207   0.248   6.691   7.049 -0.0499  1.0666  0.2426
14095TIP3    H242208   0.334   6.714   6.926 -0.1351 -0.0451 -0.0298
14096TIP3   OH242209   1.284   7.322   5.441  0.1510 -0.2257  0.0733
14096TIP3    H142210   1.322   7.323   5.353 -1.2247 -0.9604 -0.5373
14096TIP3    H242211   1.203   7.272   5.432  0.8675 -1.8066  2.1189
14097TIP3   OH242212   4.359   1.106   3.918  0.5935  0.0636  0.7435
14097TIP3    H142213   4.325   1.016   3.918  2.3260 -0.6273  1.8022
14097TIP3    H242214   4.284   1.160   3.945 -1.0283 -0.7848 -1.8599
14098TIP3   OH242215   3.931   8.136   6.438 -0.2686  0.1365  0.1943
14098TIP3    H142216   3.910   8.146   6.531 -1.4002  1.8640 -0.2108
14098TIP3    H242217   3.874   8.065   6.408  0.6251 -0.9182  0.9764
14099TIP3   OH242218   2.690   1.720   5.278 -0.1530 -0.4776 -0.0853
14099TIP3    H142219   2.630   1.664   5.327  1.4385  0.9150  3.6359
14099TIP3    H242220   2.774   1.675   5.283  0.0679 -0.2357 -1.4591
14100TIP3   OH242221   5.057   0.075   6.029  0.2242 -0.0781 -0.0980
14100TIP3    H142222   5.058   0.041   6.118  0.2314  0.9552  0.2907
14100TIP3    H242223   5.012   0.159   6.034  0.0892 -0.0739 -1.0925
14101TIP3   OH242224   3.881   0.983   6.288 -0.5566  0.4573 -0.4927
14101TIP3    H142225   3.930   1.033   6.222 -0.0002 -0.3476 -0.7075
14101TIP3    H242226   3.820   0.929   6.237 -0.2768 -0.0045 -0.3438
14102TIP3   OH242227   2.269   2.405   6.113 -0.4132 -0.1352  0.2744
14102TIP3    H142228   2.299   2.365   6.195 -0.0068 -0.2062  0.0914
14102TIP3    H242229   2.180   2.433   6.131 -0.3380 -0.1903  0.7305
14103TIP3   OH242230   8.457   4.925   0.250 -0.0995 -0.1394  0.3909
14103TIP3    H142231   8.378   4.912   0.197  0.2448 -1.3162  0.1640
14103TIP3    H242232   8.515   4.976   0.194  0.1705 -1.1755 -0.2814
14104TIP3   OH242233   4.962   5.433   5.629 -0.3154 -0.3158 -0.0257
14104TIP3    H142234   4.941   5.469   5.543  2.1453 -2.6370 -1.6710
14104TIP3    H242235   4.951   5.506   5.690 -1.1699  1.5992 -2.4427
14105TIP3   OH242236   4.801   0.265   5.636  0.0871  0.6803  0.3522
14105TIP3    H142237   4.758   0.331   5.580  1.3749  1.3330  0.1036
14105TIP3    H242238   4.893   0.270   5.611 -0.0115 -2.3655 -0.8066
14106TIP3   OH242239   4.126   8.305   0.837 -0.4110  0.4901  0.1628
14106TIP3    H142240   4.068   8.342   0.903 -1.7640 -1.5984  0.2126
14106TIP3    H242241   4.194   8.259   0.888 -0.3038  0.5826  0.1031
14107TIP3   OH242242   7.733   5.813   6.683 -0.3154 -0.2200 -0.4155
14107TIP3    H142243   7.772   5.813   6.770 -0.5894  0.4309 -0.2911
14107TIP3    H242244   7.742   5.903   6.652 -4.1342  0.6625  0.7297
14108TIP3   OH242245   1.875   5.481   4.822  0.2292 -0.0995  0.7517
14108TIP3    H142246   1.849   5.405   4.874  0.3327  0.9908  2.4461
14108TIP3    H242247   1.822   5.475   4.742 -2.5772  0.0713  2.5201
14109TIP3   OH242248   1.250   6.015   4.775 -0.2400  0.0325  0.7064
14109TIP3    H142249   1.162   5.980   4.774 -0.9616  1.7913  0.9055
14109TIP3    H242250   1.291   5.978   4.853 -0.8409 -0.6832  0.6764
14110TIP3   OH242251   4.519   7.305   5.519 -0.2459 -0.5488  0.1011
14110TIP3    H142252   4.488   7.379   5.572  3.3296 -1.0349  3.0295
14110TIP3    H242253   4.561   7.345   5.443  0.2293  0.3687  0.8482
14111TIP3   OH242254   0.635   5.141   5.655  0.3377  0.1706 -0.3667
14111TIP3    H142255   0.539   5.137   5.651  0.3795 -2.4833  0.0616
14111TIP3    H242256   0.664   5.061   5.610  2.2762 -0.0623  1.1928
14112TIP3   OH242257   1.494   6.847   4.998 -0.2607  0.4327  0.2434
14112TIP3    H142258   1.469   6.878   4.912 -0.1555 -0.8576 -0.2675
14112TIP3    H242259   1.412   6.820   5.039 -0.2074  0.1693  0.1807
14113TIP3   OH242260   3.088   7.249   4.005  0.2173  0.8677  0.1458
14113TIP3    H142261   3.057   7.167   4.044  1.0273  0.2705 -0.4418
14113TIP3    H242262   3.145   7.221   3.934 -1.5942  1.9322 -1.7723
14114TIP3   OH242263   4.431   0.628   4.123 -0.5459  0.4553 -0.0662
14114TIP3    H142264   4.448   0.616   4.029 -0.0821  1.3691 -0.1113
14114TIP3    H242265   4.338   0.646   4.129 -0.5659  0.4522 -0.3616
14115TIP3   OH242266   6.288   0.292   4.312  0.1290 -0.4882 -1.4912
14115TIP3    H142267   6.374   0.334   4.317 -0.3957  0.4847 -0.4322
14115TIP3    H242268   6.234   0.353   4.262 -0.6378  0.1135  0.0524
14116TIP3   OH242269   3.661   6.935   5.779  0.0107  0.1752 -0.2972
14116TIP3    H142270   3.580   6.901   5.817 -0.8479  0.5244 -1.7806
14116TIP3    H242271   3.714   6.959   5.855 -1.1219 -0.3813  0.7029
14117TIP3   OH242272   0.196   3.433   0.976  0.4994  0.5873  0.7360
14117TIP3    H142273   0.176   3.339   0.975  0.2189  0.6641 -1.4164
14117TIP3    H242274   0.114   3.475   0.947  0.3402  1.5653  2.5118
14118TIP3   OH242275   1.352   7.653   6.257 -0.3697  0.6595 -0.3521
14118TIP3    H142276   1.360   7.573   6.203 -0.1263  0.0947  0.5143
14118TIP3    H242277   1.344   7.621   6.346  3.5657  1.6738  0.4420
14119TIP3   OH242278   3.717   7.479   6.475  0.0860 -0.6784  0.3324
14119TIP3    H142279   3.668   7.532   6.538  0.2932 -0.9561  0.7310
14119TIP3    H242280   3.660   7.406   6.456 -0.0101 -0.5518  0.1363
14120TIP3   OH242281   5.255   1.055   5.724 -0.1852  0.0441 -0.1757
14120TIP3    H142282   5.341   1.095   5.710 -1.2164  1.7430 -1.9026
14120TIP3    H242283   5.273   0.974   5.771  2.4485 -0.0872 -1.3597
14121TIP3   OH242284   6.906   0.029   4.065  0.2720 -0.1285 -0.3450
14121TIP3    H142285   6.857   0.104   4.100 -1.3132 -0.5581 -1.5749
14121TIP3    H242286   6.973   0.068   4.009  0.3133  0.4224  0.0831
14122TIP3   OH242287   8.037   1.507   3.677 -1.0352 -0.3607  0.4603
14122TIP3    H142288   7.968   1.525   3.613  0.1942 -0.4922 -0.9266
14122TIP3    H242289   8.069   1.420   3.654 -1.3494 -0.8914  1.9803
14123TIP3   OH242290   5.046   7.938   6.112  0.6231  0.5817 -0.8047
14123TIP3    H142291   5.073   7.874   6.046  1.3367  1.2420 -1.1547
14123TIP3    H242292   4.959   7.966   6.084  0.8681  0.7607 -1.4000
14124TIP3   OH242293   4.198   7.312   4.820 -0.4131  0.4342 -0.3132
14124TIP3    H142294   4.271   7.255   4.796  0.3224  0.8114  0.9845
14124TIP3    H242295   4.152   7.264   4.889 -0.7219  0.7078 -0.3285
14125TIP3   OH242296   2.739   8.023   4.531  0.4250  0.1392  0.1427
14125TIP3    H142297   2.757   8.107   4.488  0.0975  0.5413  0.7969
14125TIP3    H242298   2.735   7.961   4.458 -0.9495  0.9535 -0.5002
14126TIP3   OH242299   7.552   0.252   5.082  0.0325 -0.1006  0.0074
14126TIP3    H142300   7.485   0.234   5.148  0.0598 -0.5330 -0.0809
14126TIP3    H242301   7.507   0.242   4.998  0.0160  0.3780 -0.0431
14127TIP3   OH242302   3.744   7.489   4.887  0.0844 -0.0554 -0.4543
14127TIP3    H142303   3.829   7.484   4.844  0.4884  0.6852  0.2352
14127TIP3    H242304   3.683   7.449   4.825  0.9763 -0.8350 -0.8407
14128TIP3   OH242305   5.894   0.250   5.182  0.1234  0.4738 -0.9892
14128TIP3    H142306   5.958   0.222   5.117  1.2945  0.6987  0.0569
14128TIP3    H242307   5.946   0.275   5.258 -1.3043 -0.9607  0.4811
14129TIP3   OH242308   8.486   1.237   4.493  0.1271  0.4410  0.1707
14129TIP3    H142309   8.452   1.298   4.427  0.4661  1.0741  0.5682
14129TIP3    H242310   8.433   1.158   4.483  1.2794 -0.0958 -1.9825
14130TIP3   OH242311   4.197   8.026   5.486 -0.8360 -0.0045 -0.2318
14130TIP3    H142312   4.194   8.074   5.403  0.2634  2.3040  1.0307
14130TIP3    H242313   4.289   8.001   5.495 -1.2798 -1.8346 -0.5567
14131TIP3   OH242314   7.762   1.679   3.919  0.1593  0.2687 -0.0961
14131TIP3    H142315   7.686   1.718   3.963  1.4376  1.7490  0.8608
14131TIP3    H242316   7.782   1.740   3.849 -0.7588 -1.1710 -1.6376
14132TIP3   OH242317   0.991   6.858   7.254 -0.0826 -0.4639  0.6208
14132TIP3    H142318   0.962   6.770   7.280  0.1314 -0.1761  1.8912
14132TIP3    H242319   0.930   6.884   7.185 -1.2866 -0.8760  1.5016
14133TIP3   OH242320   5.317   6.911   4.813 -0.1645  0.4479  0.0423
14133TIP3    H142321   5.332   6.955   4.896  0.6583 -0.5495  0.4360
14133TIP3    H242322   5.281   6.826   4.837 -0.4118  0.3567 -0.6476
14134TIP3   OH242323   5.022   7.617   6.735 -0.0591  0.9569  0.4644
14134TIP3    H142324   4.937   7.601   6.694  0.5140 -0.7145 -0.1136
14134TIP3    H242325   5.001   7.657   6.819 -1.4437  0.2527  0.4712
14135TIP3   OH242326   2.516   6.124   4.992 -0.5756 -0.2979 -0.4306
14135TIP3    H142327   2.522   6.156   4.902 -2.7307 -0.9505 -0.8493
14135TIP3    H242328   2.558   6.191   5.045  0.3766  0.2783 -1.8889
14136TIP3   OH242329   8.510   0.425   3.849  0.0029  0.6057 -0.2037
14136TIP3    H142330   8.469   0.456   3.768  2.2059 -0.2370 -1.6891
14136TIP3    H242331   8.549   0.503   3.887 -1.5094  1.1066  0.3402
14137TIP3   OH242332   7.058   1.010   7.188  0.4267  0.3839 -0.2240
14137TIP3    H142333   7.059   0.986   7.096  1.0735 -1.3589  0.2246
14137TIP3    H242334   7.032   0.931   7.234 -0.4935  1.4125  1.0518
14138TIP3   OH242335   7.874   1.672   5.445 -0.4365  0.8642  0.6819
14138TIP3    H142336   7.825   1.695   5.524  0.3293  1.2767  1.0453
14138TIP3    H242337   7.814   1.693   5.373 -0.2594  2.7378  1.0639
14139TIP3   OH242338   7.218   0.110   4.356 -0.0357 -0.2749 -0.2753
14139TIP3    H142339   7.288   0.173   4.373 -0.9085  0.3357  1.1973
14139TIP3    H242340   7.231   0.042   4.422 -0.3063 -0.6013 -0.5585
14140TIP3   OH242341   4.490   6.845   5.737 -0.0165  0.1147 -0.8689
14140TIP3    H142342   4.455   6.807   5.656  1.4906  0.3542 -1.6563
14140TIP3    H242343   4.447   6.930   5.744  0.6993  0.5727 -2.0277
14141TIP3   OH242344   4.753   6.824   6.277 -0.5855  0.5643 -0.3928
14141TIP3    H142345   4.749   6.908   6.231 -2.9153  0.7164  0.0172
14141TIP3    H242346   4.680   6.828   6.339  0.7264 -0.8179  1.2845
14142TIP3   OH242347   5.650   6.457   6.459  0.6582 -0.5028  0.2331
14142TIP3    H142348   5.598   6.386   6.421  0.6542 -0.5888  0.4002
14142TIP3    H242349   5.647   6.441   6.553 -0.0939  0.2328  0.3461
14143TIP3   OH242350   3.725   7.971   6.333 -0.1027  0.2145  0.7818
14143TIP3    H142351   3.661   8.042   6.324  0.3116  0.5479  0.4775
14143TIP3    H242352   3.693   7.902   6.275  0.7203  1.0370 -0.6884
14144TIP3   OH242353   6.347   0.447   5.336  0.1646 -0.6618 -0.1666
14144TIP3    H142354   6.368   0.450   5.429  1.6994 -0.6448 -0.4996
14144TIP3    H242355   6.431   0.429   5.293 -0.2133  1.0953 -1.6752
14145TIP3   OH242356   6.051   6.707   5.586  0.2414  0.3212 -0.1599
14145TIP3    H142357   6.143   6.733   5.597 -0.0976  0.7124  1.9362
14145TIP3    H242358   6.034   6.648   5.659 -0.9240 -0.4910 -1.0789
14146TIP3   OH242359   3.362   6.357   6.519  0.2849  0.0596  0.3724
14146TIP3    H142360   3.388   6.427   6.459 -0.3114  0.8561  1.0398
14146TIP3    H242361   3.345   6.282   6.461  0.9096  0.4603 -0.3454
14147TIP3   OH242362   4.090   6.968   5.647 -0.0528  0.1382 -0.1525
14147TIP3    H142363   4.005   6.941   5.611  1.1914 -2.0712 -1.5795
14147TIP3    H242364   4.150   6.966   5.572  1.7879 -0.8189  1.2960
14148TIP3   OH242365   6.842   1.374   4.712  0.0282  0.2098 -0.1171
14148TIP3    H142366   6.902   1.409   4.777 -0.7723  1.6250 -0.1130
14148TIP3    H242367   6.755   1.383   4.752 -0.3118 -0.6079 -0.6411
14149TIP3   OH242368   0.741   0.282   3.023 -0.4672  0.5739 -0.2353
14149TIP3    H142369   0.771   0.239   3.103 -2.8070  1.6899  1.2818
14149TIP3    H242370   0.815   0.275   2.963  1.1560 -0.7065  1.8529
14150TIP3   OH242371   1.459   7.927   5.700  0.3008  0.0699  0.4139
14150TIP3    H142372   1.387   7.984   5.728  0.6874  0.6512  0.2076
14150TIP3    H242373   1.430   7.893   5.615  0.1242  0.0456  0.4822
14151TIP3   OH242374   1.603   7.523   3.248  0.4723 -0.8756  0.3468
14151TIP3    H142375   1.651   7.492   3.172 -0.3345 -1.0146 -0.1143
14151TIP3    H242376   1.665   7.516   3.321  1.4229 -0.2124 -0.3938
14152TIP3   OH242377   7.335   0.779   3.533 -0.1803 -0.1004 -0.3582
14152TIP3    H142378   7.280   0.793   3.456  0.3885  0.6946 -0.6235
14152TIP3    H242379   7.349   0.867   3.569 -0.7888 -0.5046  0.8948
14153TIP3   OH242380   5.172   7.787   5.816 -0.3708  0.5624  0.1277
14153TIP3    H142381   5.150   7.700   5.783  3.7613  0.2583 -2.1260
14153TIP3    H242382   5.200   7.835   5.739  2.3076  2.2777  2.1004
14154TIP3   OH242383   6.794   0.187   4.324  0.0116  0.3798  0.1730
14154TIP3    H142384   6.820   0.212   4.413 -2.0401  1.4879  0.5165
14154TIP3    H242385   6.822   0.261   4.269  0.7835 -0.0542 -0.0256
14155TIP3   OH242386   7.244   0.781   4.874 -0.2501  0.0023 -0.7391
14155TIP3    H142387   7.201   0.768   4.958  1.3307  0.8841  0.2265
14155TIP3    H242388   7.282   0.695   4.853  1.6972  0.4469  0.8043
14156TIP3   OH242389   2.155   3.565   1.828  0.4438 -0.1319 -0.6115
14156TIP3    H142390   2.157   3.524   1.742 -1.4198 -0.3692 -0.5563
14156TIP3    H242391   2.196   3.651   1.814  0.2334 -0.2032 -1.7312
14157TIP3   OH242392   6.135   0.108   5.772  0.4249 -0.5949  0.2098
14157TIP3    H142393   6.153   0.023   5.809  2.5912  0.1135  0.8402
14157TIP3    H242394   6.205   0.122   5.707 -0.7779  0.0512 -0.9885
14158TIP3   OH242395   7.625   0.272   6.077 -0.4753  0.0025 -0.1290
14158TIP3    H142396   7.696   0.244   6.135 -2.2235 -1.5522  1.3364
14158TIP3    H242397   7.643   0.365   6.060  1.8681 -0.3617  0.2471
14159TIP3   OH242398   3.798   6.930   3.936  0.0728  0.6882 -0.2804
14159TIP3    H142399   3.774   7.020   3.917 -0.5534  0.6617  0.3496
14159TIP3    H242400   3.886   6.919   3.899  0.1035  1.5170 -0.4478
14160TIP3   OH242401   6.346   6.645   4.955 -0.1987  0.4486 -0.0555
14160TIP3    H142402   6.398   6.604   4.886  0.1954  0.4162  0.2638
14160TIP3    H242403   6.384   6.614   5.037  0.1134  1.4621  0.1912
14161TIP3   OH242404   3.252   8.149   4.811  0.5733  0.0030  0.3907
14161TIP3    H142405   3.190   8.133   4.740 -0.6897 -0.6941  1.6072
14161TIP3    H242406   3.292   8.064   4.828  1.6295  0.3890 -0.1835
14162TIP3   OH242407   6.766   1.023   6.115 -0.4597 -0.1229  0.3778
14162TIP3    H142408   6.857   1.050   6.107 -0.8666  0.8786 -1.2120
14162TIP3    H242409   6.764   0.967   6.192  1.4098  0.2053  0.6905
14163TIP3   OH242410   4.142   7.057   5.044 -0.6382  0.7134 -0.2339
14163TIP3    H142411   4.225   7.104   5.046 -0.5059  0.4429  0.7493
14163TIP3    H242412   4.159   6.975   5.090 -1.1099  0.0994 -1.1357
14164TIP3   OH242413   3.647   7.836   3.642  0.1264 -0.2529  0.3144
14164TIP3    H142414   3.653   7.895   3.717 -0.2987 -0.3176  0.4006
14164TIP3    H242415   3.664   7.892   3.566  2.5165 -0.5625  0.5922
14165TIP3   OH242416   3.728   7.927   4.825 -0.0379  0.4280 -0.5123
14165TIP3    H142417   3.713   7.985   4.900 -0.3535 -0.9489  0.5182
14165TIP3    H242418   3.641   7.900   4.797  0.1304 -0.1881 -0.4591
14166TIP3   OH242419   1.253   2.573   0.577  0.0959 -0.3120  0.0376
14166TIP3    H142420   1.283   2.517   0.649  0.3988 -0.8765 -0.5204
14166TIP3    H242421   1.179   2.622   0.613  1.2976  0.6439  1.2512
14167TIP3   OH242422   4.850   1.436   6.917 -0.1199  0.0453  0.1537
14167TIP3    H142423   4.831   1.516   6.965  4.1002  0.1454  1.9227
14167TIP3    H242424   4.808   1.367   6.968  0.0652  0.7016  1.2246
14168TIP3   OH242425   8.314   1.832   6.330  0.2082 -0.4123  0.0662
14168TIP3    H142426   8.357   1.783   6.260 -0.9216 -1.3382 -0.0037
14168TIP3    H242427   8.382   1.889   6.366  1.0339 -0.6086 -1.1691
14169TIP3   OH242428   5.471   6.691   6.986  0.3072  0.6823 -0.2071
14169TIP3    H142429   5.482   6.777   7.027 -1.4202  0.1743  1.3434
14169TIP3    H242430   5.390   6.699   6.936  0.4777  0.1382 -0.5683
14170TIP3   OH242431   6.431   0.240   5.140  0.3374 -0.1229  0.0501
14170TIP3    H142432   6.522   0.245   5.170  0.1740  0.7894  0.4232
14170TIP3    H242433   6.427   0.300   5.065 -0.1164  0.4031  0.4837
14171TIP3   OH242434   6.879   2.629   4.531 -0.5038 -0.1239 -0.3229
14171TIP3    H142435   6.833   2.671   4.459  0.9929  2.9828  0.4519
14171TIP3    H242436   6.840   2.668   4.610  0.8759 -0.2414  0.4267
14172TIP3   OH242437   0.501   0.951   4.676 -0.6513 -0.1285  0.9019
14172TIP3    H142438   0.420   0.973   4.631 -0.0262  2.2061  0.8592
14172TIP3    H242439   0.473   0.910   4.758 -1.8558  0.3786  0.7496
14173TIP3   OH242440   3.485   6.873   3.817  0.3734  0.1622  0.2537
14173TIP3    H142441   3.448   6.788   3.791  0.9818  0.1563 -0.6348
14173TIP3    H242442   3.531   6.903   3.739  1.0192  0.8409  0.8916
14174TIP3   OH242443   8.888   0.765   6.343  0.6172 -0.0935 -0.3409
14174TIP3    H142444   8.938   0.738   6.266  3.1081  1.3290  0.7394
14174TIP3    H242445   8.808   0.803   6.307  1.9552  0.9587 -2.2664
14175TIP3   OH242446   4.050   7.559   6.232 -0.2877  0.2105  0.0932
14175TIP3    H142447   4.135   7.600   6.217 -0.8955  2.2611  1.9190
14175TIP3    H242448   4.070   7.466   6.244  1.3189  0.1885 -2.4375
14176TIP3   OH242449   2.673   6.662   6.661 -0.1654  0.2334  0.4790
14176TIP3    H142450   2.745   6.662   6.599 -0.3763  1.7462  0.2021
14176TIP3    H242451   2.646   6.570   6.667  0.1600  0.0017 -1.3022
14177TIP3   OH242452   1.782   3.405   0.593 -0.3389 -0.2054 -0.3147
14177TIP3    H142453   1.782   3.484   0.647  0.1524  0.0350 -0.6661
14177TIP3    H242454   1.729   3.342   0.643 -1.0449  0.4599 -0.2202
14178TIP3   OH242455   7.067   0.464   5.262 -0.8363 -0.1598 -0.4311
14178TIP3    H142456   6.974   0.487   5.265 -0.7357  0.5129 -2.1260
14178TIP3    H242457   7.108   0.519   5.329 -1.4124  0.7288 -0.8032
14179TIP3   OH242458   4.118   7.507   5.876 -0.1418 -0.1596 -0.3791
14179TIP3    H142459   4.197   7.453   5.875  0.5675  0.8419  0.4384
14179TIP3    H242460   4.147   7.592   5.842 -0.6512  0.4988  0.8244
14180TIP3   OH242461   2.398   6.405   6.627  0.6456 -0.3754 -0.0665
14180TIP3    H142462   2.483   6.403   6.672  1.0946 -0.9801 -0.9273
14180TIP3    H242463   2.357   6.322   6.651 -0.3268  0.5291  1.5051
14181TIP3   OH242464   3.551   7.829   6.925  0.3081 -0.0307 -0.2412
14181TIP3    H142465   3.642   7.801   6.933  0.6596  0.9554 -0.7595
14181TIP3    H242466   3.540   7.847   6.831 -0.0522  1.0822  0.0108
14182TIP3   OH242467   7.431   1.003   4.888  0.0567  0.4147 -0.3037
14182TIP3    H142468   7.404   0.918   4.924  0.5019  0.9117  1.2355
14182TIP3    H242469   7.357   1.031   4.834 -0.4347 -0.5435 -0.1484
14183TIP3   OH242470   7.130   0.028   6.720 -0.5332 -0.4853 -0.1990
14183TIP3    H142471   7.194  -0.004   6.783 -0.4796 -1.9148 -0.9460
14183TIP3    H242472   7.048   0.035   6.769 -0.0599  0.2575  0.4815
14184TIP3   OH242473   5.090   7.546   6.292 -0.7372  0.3811 -0.0147
14184TIP3    H142474   5.090   7.480   6.361 -0.3325  0.0539 -0.3247
14184TIP3    H242475   5.052   7.624   6.333  0.8547  0.6431  1.0094
14185TIP3   OH242476   5.932   0.141   6.908  0.3269 -0.0706  0.1622
14185TIP3    H142477   5.948   0.196   6.984  2.0502 -0.9633  0.4645
14185TIP3    H242478   5.905   0.057   6.944 -1.2317  0.2063 -0.2816
14186TIP3   OH242479   3.437   6.602   3.233  0.2647 -0.3527 -0.2273
14186TIP3    H142480   3.464   6.597   3.141 -1.1953 -2.2251 -0.5745
14186TIP3    H242481   3.352   6.646   3.231  0.1325 -0.5910  0.2057
14187TIP3   OH242482   7.564   0.197   5.466 -0.2419 -0.0441 -0.1578
14187TIP3    H142483   7.505   0.183   5.540  1.3270 -0.2507  1.0955
14187TIP3    H242484   7.573   0.292   5.459  0.8964 -0.0541  0.9936
14188TIP3   OH242485   2.188   6.960   4.630 -0.2018 -0.2713 -0.2959
14188TIP3    H142486   2.231   7.014   4.564  1.4030 -0.5925  0.4686
14188TIP3    H242487   2.194   6.871   4.595  0.6709 -0.4448  0.2738
14189TIP3   OH242488   4.424   7.312   7.247  0.1156  0.1526  0.3454
14189TIP3    H142489   4.386   7.397   7.227 -1.2119 -1.0084 -2.2987
14189TIP3    H242490   4.350   7.253   7.259  1.0031 -1.0987 -0.0740
14190TIP3   OH242491   5.059   6.229   5.453 -0.4353 -0.2880  0.0924
14190TIP3    H142492   5.073   6.280   5.532  0.9018 -1.1252  0.4092
14190TIP3    H242493   4.995   6.162   5.478  0.4739 -0.9583  0.6595
14191TIP3   OH242494   4.517   6.765   5.428  0.1261 -0.6667  0.2915
14191TIP3    H142495   4.527   6.710   5.351 -1.2315 -1.4359  0.6531
14191TIP3    H242496   4.588   6.738   5.486  0.8964 -0.3749 -0.5024
14192TIP3   OH242497   8.101   0.529   3.865  0.3216 -0.0113  0.1847
14192TIP3    H142498   8.014   0.546   3.901  0.5784  1.2306  0.2373
14192TIP3    H242499   8.109   0.590   3.792  1.9993  1.4855  1.5575
14193TIP3   OH242500   4.426   7.353   3.814 -0.7844  0.0272 -0.3355
14193TIP3    H142501   4.495   7.321   3.871 -0.2924  0.5438 -0.6339
14193TIP3    H242502   4.399   7.436   3.853 -0.3741  0.4329 -0.9111
14194TIP3   OH242503   2.326   5.060   4.911  0.4535  0.8352  0.0606
14194TIP3    H142504   2.381   5.031   4.838  0.1440 -0.3029  0.2764
14194TIP3    H242505   2.241   5.078   4.872 -0.3388 -1.8195  0.4504
14195TIP3   OH242506   3.225   7.137   7.182 -0.1497 -0.4160  0.4058
14195TIP3    H142507   3.264   7.062   7.137  0.5029  0.8851 -1.2468
14195TIP3    H242508   3.252   7.212   7.130  0.0455  1.0738  2.6049
14196TIP3   OH242509   4.352   7.491   4.306 -0.1400  0.1399 -0.1475
14196TIP3    H142510   4.377   7.411   4.261 -1.8142  0.3199 -1.4405
14196TIP3    H242511   4.379   7.561   4.246  0.9974  0.5440  0.8171
14197TIP3   OH242512   2.352   8.116   4.110 -0.1418 -0.8407 -0.0901
14197TIP3    H142513   2.353   8.176   4.035  0.2926 -0.5543  0.1483
14197TIP3    H242514   2.262   8.083   4.112 -0.1152 -0.9651 -0.8335
14198TIP3   OH242515   7.010   1.208   6.462  0.6896 -0.4224 -0.6390
14198TIP3    H142516   6.958   1.258   6.525  0.5820 -1.3917  0.0500
14198TIP3    H242517   7.026   1.269   6.390  1.0111  0.7673  0.4305
14199TIP3   OH242518   3.966   6.840   6.491  0.0704 -0.1647  0.2764
14199TIP3    H142519   3.978   6.750   6.519  0.2424 -0.7669 -1.6686
14199TIP3    H242520   4.037   6.889   6.533  0.2085 -0.9950  1.0136
14200TIP3   OH242521   4.104   7.808   4.273 -0.1404  0.2951 -0.2132
14200TIP3    H142522   4.156   7.810   4.192 -0.5692  1.8891 -0.4795
14200TIP3    H242523   4.017   7.782   4.246  0.1527 -0.9847  0.0261
14201TIP3   OH242524   8.162   2.075   6.244  0.0869  0.4710 -0.2099
14201TIP3    H142525   8.185   1.987   6.271  0.5941  0.9258  0.8645
14201TIP3    H242526   8.122   2.115   6.321 -0.7129  0.9800 -0.8694
14202TIP3   OH242527   4.860   7.454   0.820  0.1724  0.3109 -0.6988
14202TIP3    H142528   4.899   7.373   0.852  0.9884  1.0486  0.2170
14202TIP3    H242529   4.813   7.490   0.896 -3.3562 -1.1574 -2.0990
14203TIP3   OH242530   3.456   7.879   4.240 -0.2503  0.1402  0.3964
14203TIP3    H142531   3.491   7.798   4.203 -0.0779  0.0085  0.8461
14203TIP3    H242532   3.381   7.901   4.185 -0.2757 -0.3088  0.2570
14204TIP3   OH242533   4.537   6.591   4.046 -0.3434 -0.3570  0.0922
14204TIP3    H142534   4.469   6.530   4.076 -1.7044  1.4391  0.7550
14204TIP3    H242535   4.550   6.651   4.120  0.1170  0.8686 -0.9639
14205TIP3   OH242536   1.242   3.630   0.298 -0.1561  0.3721 -0.9105
14205TIP3    H142537   1.157   3.615   0.339  0.0048 -1.9973 -1.3354
14205TIP3    H242538   1.284   3.544   0.299  1.6809  1.2338 -1.9303
14206TIP3   OH242539   7.399   0.382   4.466 -0.3673 -0.7290 -0.0860
14206TIP3    H142540   7.416   0.311   4.528 -0.8285 -0.7009  0.0722
14206TIP3    H242541   7.458   0.364   4.393 -1.3393 -1.9497 -0.5777
14207TIP3   OH242542   5.081   8.303   6.754 -0.4791  0.0992  0.2569
14207TIP3    H142543   5.125   8.320   6.671 -0.1625 -0.8499  0.2193
14207TIP3    H242544   5.076   8.389   6.797 -0.4771  0.5603 -0.6559
14208TIP3   OH242545   4.237   6.816   5.210 -0.1644  0.0503 -0.4979
14208TIP3    H142546   4.320   6.769   5.206  0.8110  1.5796  0.9129
14208TIP3    H242547   4.175   6.753   5.245  0.7116 -0.7387 -0.3580
14209TIP3   OH242548   7.954   0.959   5.642  0.0589  0.6537  0.2292
14209TIP3    H142549   7.975   0.918   5.559  2.4499  1.8836  0.1759
14209TIP3    H242550   7.869   0.922   5.667 -0.4740 -0.0470 -2.5121
14210TIP3   OH242551   2.959   7.765   3.772  0.4762  0.1193  0.0323
14210TIP3    H142552   3.036   7.710   3.754  0.9294  0.3885  1.1123
14210TIP3    H242553   2.971   7.841   3.715  1.6996  0.7848  1.1545
14211TIP3   OH242554   7.598   0.098   3.252  0.0285 -0.1440  0.0758
14211TIP3    H142555   7.629   0.034   3.316  0.6405  0.2023  0.1218
14211TIP3    H242556   7.503   0.084   3.248  0.1281 -0.8679  0.2862
14212TIP3   OH242557   4.481   8.144   3.497  0.1414 -0.1004 -0.2499
14212TIP3    H142558   4.397   8.157   3.542  0.6614 -0.0853  0.7490
14212TIP3    H242559   4.461   8.085   3.425 -0.7299 -0.1034 -0.0165
14213TIP3   OH242560   4.088   7.302   6.283 -0.1693 -0.2342 -0.1726
14213TIP3    H142561   4.183   7.301   6.293 -0.3618 -0.6986  1.9493
14213TIP3    H242562   4.056   7.249   6.356 -2.0923  0.7173 -0.2963
14214TIP3   OH242563   4.129   7.098   5.916  0.7391  0.1328 -0.0939
14214TIP3    H142564   4.127   7.035   5.843 -1.2426  1.4530 -1.2232
14214TIP3    H242565   4.095   7.179   5.878 -0.7784  0.7134  2.4327
14215TIP3   OH242566   7.796   0.474   5.737  0.1265 -0.6461  0.0279
14215TIP3    H142567   7.870   0.473   5.677  0.4473 -0.1656  0.4194
14215TIP3    H242568   7.766   0.383   5.739  2.1998 -1.3335  1.7099
14216TIP3   OH242569   5.297   0.431   4.556 -0.2849 -0.0671  0.3106
14216TIP3    H142570   5.248   0.416   4.475  0.5995  1.7894 -0.6099
14216TIP3    H242571   5.386   0.448   4.527  0.6376 -2.0516  1.8778
14217TIP3   OH242572   7.573   0.738   5.543  0.5018 -0.5194 -0.5164
14217TIP3    H142573   7.512   0.708   5.611 -0.7168  0.5603 -1.1192
14217TIP3    H242574   7.655   0.755   5.590 -0.6543  1.2848  0.8780
14218TIP3   OH242575   7.083   1.432   2.795  0.5208 -0.1117 -0.3094
14218TIP3    H142576   7.043   1.519   2.792  3.4805  1.2786 -1.2174
14218TIP3    H242577   7.107   1.414   2.704  2.2419 -0.7661  0.2665
14219TIP3   OH242578   3.587   7.532   5.116 -0.2220 -0.4139 -0.0240
14219TIP3    H142579   3.571   7.443   5.149 -0.2000 -0.5988 -0.5026
14219TIP3    H242580   3.658   7.522   5.053  1.3394  0.3052  1.5864
14220TIP3   OH242581   8.736   4.229   3.746 -0.0856 -0.0210  0.2352
14220TIP3    H142582   8.661   4.172   3.766  1.1787 -2.8729 -2.6043
14220TIP3    H242583   8.809   4.187   3.791  0.3578  1.0068  0.4715
14221TIP3   OH242584   4.504   6.231   6.596 -0.4826  0.2939 -0.4089
14221TIP3    H142585   4.522   6.193   6.510 -1.2805  0.3335 -0.5977
14221TIP3    H242586   4.551   6.315   6.596  0.1682 -0.0708 -0.5044
14222TIP3   OH242587   7.868   1.210   3.680 -0.6104 -0.5067  0.1193
14222TIP3    H142588   7.811   1.280   3.711  0.3956  0.7890 -0.8933
14222TIP3    H242589   7.828   1.129   3.713 -0.9046  0.6403  2.6634
14223TIP3   OH242590   7.481   0.088   5.756 -0.0097 -0.0279  0.2766
14223TIP3    H142591   7.476   0.005   5.803  1.3040  1.4038  3.0854
14223TIP3    H242592   7.442   0.152   5.815 -1.5948  1.2915 -2.1062
14224TIP3   OH242593   4.724   8.323   6.681 -0.0788  0.1782 -0.4274
14224TIP3    H142594   4.745   8.272   6.760 -0.5817 -0.3715 -0.6420
14224TIP3    H242595   4.762   8.272   6.609 -0.3622  0.2330 -0.6184
14225TIP3   OH242596   6.808   0.228   5.692  0.0709 -0.1973  0.4156
14225TIP3    H142597   6.803   0.239   5.597  1.1478 -2.4619  0.0638
14225TIP3    H242598   6.870   0.295   5.721  1.8599 -1.2467 -0.8608
14226TIP3   OH242599   2.262   7.519   3.964 -0.1422  0.0043 -0.2097
14226TIP3    H142600   2.352   7.486   3.970  0.1467  0.4592 -1.8567
14226TIP3    H242601   2.221   7.466   3.896 -0.8171  0.5197 -0.2121
14227TIP3   OH242602   6.072   7.215   4.364 -0.3001 -0.1613 -0.9696
14227TIP3    H142603   6.085   7.302   4.403 -0.5500 -1.1448  1.4125
14227TIP3    H242604   6.104   7.155   4.431  0.1259 -1.9054 -2.7170
14228TIP3   OH242605   4.292   7.477   5.038  0.0841 -0.1111  1.2319
14228TIP3    H142606   4.338   7.409   5.087  1.7798 -0.5582 -0.8991
14228TIP3    H242607   4.250   7.430   4.966 -0.5765  0.8154  1.0035
14229TIP3   OH242608   0.317   2.539   5.241 -0.1149 -0.3438  0.8021
14229TIP3    H142609   0.241   2.597   5.239  0.8158  0.8297 -2.4613
14229TIP3    H242610   0.362   2.554   5.158  2.2597 -2.9532  1.5268
14230TIP3   OH242611   7.343   0.202   3.084 -0.4200  0.0274  0.5783
14230TIP3    H142612   7.408   0.225   3.018 -2.9798  1.0891 -1.6611
14230TIP3    H242613   7.348   0.272   3.149 -1.0200  1.4309 -0.8674
14231TIP3   OH242614   4.922   4.659   5.340  0.3985 -0.6670 -0.0012
14231TIP3    H142615   4.918   4.591   5.273  0.8399 -0.5152 -0.1907
14231TIP3    H242616   4.857   4.723   5.313  0.5375 -0.6331 -0.2606
14232TIP3   OH242617   3.487   7.422   5.689  0.2597 -0.3019 -0.3578
14232TIP3    H142618   3.570   7.470   5.692 -0.8437  1.6177  0.4201
14232TIP3    H242619   3.507   7.339   5.732  2.0979 -0.3733 -1.3028
14233TIP3   OH242620   2.900   8.117   4.754  0.2167 -0.4843  0.0166
14233TIP3    H142621   2.816   8.103   4.712  0.0885 -0.7083  0.3415
14233TIP3    H242622   2.955   8.157   4.687  0.2104 -1.4224 -0.5526
14234TIP3   OH242623   3.813   8.163   5.217  0.0820  0.2900 -0.9310
14234TIP3    H142624   3.833   8.250   5.180 -0.8504  0.1650 -1.7706
14234TIP3    H242625   3.804   8.106   5.140  0.2828 -0.4599 -0.3988
14235TIP3   OH242626   4.631   8.109   4.529  0.1857 -0.3956 -0.5301
14235TIP3    H142627   4.617   8.015   4.517  0.8375 -0.6062  0.3223
14235TIP3    H242628   4.575   8.133   4.603  0.1842 -0.1556 -0.6086
14236TIP3   OH242629   4.191   7.991   4.466  0.1288 -0.0111 -0.2651
14236TIP3    H142630   4.156   7.932   4.400 -0.7090 -0.9165  0.9682
14236TIP3    H242631   4.134   7.979   4.542  0.0298  2.2866  0.0620
14237TIP3   OH242632   5.739   0.460   7.205  0.4205 -0.2721 -0.3357
14237TIP3    H142633   5.806   0.441   7.271 -0.9991 -1.8073  0.7160
14237TIP3    H242634   5.706   0.374   7.179  0.0665  0.3788 -2.1444
14238TIP3   OH242635   3.692   6.758   4.531  0.3158  0.0464 -0.1157
14238TIP3    H142636   3.757   6.751   4.601 -0.7344  0.5309  0.9168
14238TIP3    H242637   3.745   6.768   4.451  1.5495 -1.9544  0.3941
14239TIP3   OH242638   5.976   7.539   5.742 -0.6193  0.3099 -0.3014
14239TIP3    H142639   5.921   7.502   5.673 -1.9210 -0.5104  1.1477
14239TIP3    H242640   5.928   7.616   5.773 -0.4301  0.2217  0.2153
14240TIP3   OH242641   5.289   1.841   6.252 -0.3844 -0.0756  0.0521
14240TIP3    H142642   5.321   1.806   6.335 -0.1809  0.0029  0.0069
14240TIP3    H242643   5.287   1.936   6.266 -3.5683 -0.2605  1.1260
14241TIP3   OH242644   3.242   8.206   5.082 -0.0015 -0.0657  0.3564
14241TIP3    H142645   3.328   8.249   5.074  1.9747 -3.7290  0.9183
14241TIP3    H242646   3.220   8.179   4.993 -0.4947  0.7326  0.2364
14242TIP3   OH242647   6.498   1.640   7.045 -0.1197 -0.3215  0.6707
14242TIP3    H142648   6.424   1.652   6.986  0.3406  0.6367  0.2839
14242TIP3    H242649   6.480   1.699   7.118 -0.8571 -1.7464  1.6689
14243TIP3   OH242650   5.436   1.792   5.437 -0.3836 -0.3593  0.0579
14243TIP3    H142651   5.454   1.707   5.478  1.4016 -0.0240  0.0077
14243TIP3    H242652   5.498   1.797   5.364 -0.4602  0.9985  0.0763
14244TIP3   OH242653   4.589   6.927   3.591  0.5315  0.3224 -0.3340
14244TIP3    H142654   4.588   6.841   3.634 -1.6530 -0.5688 -2.0513
14244TIP3    H242655   4.609   6.907   3.500 -0.1188  1.6348 -0.7641
14245TIP3   OH242656   8.715   2.400   3.844  0.3959 -0.1407 -0.3954
14245TIP3    H142657   8.704   2.435   3.756  1.2392 -1.8693 -1.2011
14245TIP3    H242658   8.795   2.440   3.877  0.1964  0.3343 -0.4860
14246TIP3   OH242659   8.440   0.176   2.780 -0.2706 -0.1007  0.2644
14246TIP3    H142660   8.473   0.259   2.812  1.8058 -0.2367 -1.3971
14246TIP3    H242661   8.438   0.119   2.857 -0.1670  1.0097  1.0885
14247TIP3   OH242662   2.332   6.595   6.424  0.7340 -0.7323  0.7996
14247TIP3    H142663   2.238   6.581   6.439  0.7580 -0.1853  1.5034
14247TIP3    H242664   2.375   6.539   6.488  0.8974 -1.4763  0.0367
14248TIP3   OH242665   3.663   7.489   2.838 -1.0947 -0.1161  0.2512
14248TIP3    H142666   3.634   7.561   2.783  1.1259  3.4179  3.4635
14248TIP3    H242667   3.584   7.459   2.883 -1.6484  2.0370  0.7553
14249TIP3   OH242668   3.447   6.881   3.344 -0.5311  0.4121  0.1431
14249TIP3    H142669   3.408   6.831   3.272  1.5974 -0.4904 -0.4158
14249TIP3    H242670   3.484   6.958   3.303  1.1420 -0.3571  0.1821
14250TIP3   OH242671   5.467   5.333   3.534  0.1319  0.1094  0.1773
14250TIP3    H142672   5.388   5.280   3.549 -0.1245  1.2290  3.0047
14250TIP3    H242673   5.443   5.390   3.461 -0.7301 -1.3666 -0.7377
14251TIP3   OH242674   3.014   6.576   5.465  0.1707 -0.1581  0.1258
14251TIP3    H142675   2.951   6.506   5.477  1.1682 -0.9086  1.0556
14251TIP3    H242676   2.996   6.609   5.377 -1.7933 -0.0542  0.5431
14252TIP3   OH242677   6.278   0.473   6.968 -0.2025  0.3157  0.1441
14252TIP3    H142678   6.183   0.466   6.977 -0.0435  0.1061  1.6680
14252TIP3    H242679   6.308   0.382   6.964  0.2146  0.3274  2.6600
14253TIP3   OH242680   2.401   7.566   5.155 -0.3147 -0.0113  0.0811
14253TIP3    H142681   2.449   7.595   5.233  1.5283 -2.0905 -0.2209
14253TIP3    H242682   2.450   7.490   5.124 -1.1595  0.6343 -2.9925
14254TIP3   OH242683   7.321   1.009   3.314  0.0749  0.2033  0.1452
14254TIP3    H142684   7.342   1.037   3.225 -0.1990  0.5175  0.1820
14254TIP3    H242685   7.244   0.953   3.304  0.6899 -0.6384  0.0571
14255TIP3   OH242686   5.436   0.385   6.077  0.0055  0.0873 -0.1129
14255TIP3    H142687   5.357   0.359   6.125  0.1053 -0.2483 -0.1298
14255TIP3    H242688   5.413   0.470   6.039  0.1947  0.7392  1.1756
14256TIP3   OH242689   8.355   0.336   5.983  0.1990  0.0045 -0.0342
14256TIP3    H142690   8.381   0.389   6.058 -0.9576  1.9947 -0.9983
14256TIP3    H242691   8.259   0.337   5.984  0.1691 -0.4399 -1.1900
14257TIP3   OH242692   8.253   0.304   5.266  0.2859 -0.7492  0.5252
14257TIP3    H142693   8.226   0.219   5.301  1.1137 -0.5431  1.6992
14257TIP3    H242694   8.171   0.353   5.257 -0.3272 -2.0651 -1.2876
14258TIP3   OH242695   1.925   4.733   0.145  0.7755  0.7858  0.2156
14258TIP3    H142696   1.846   4.721   0.092  0.2139  1.2097  0.9480
14258TIP3    H242697   1.897   4.787   0.218  1.7753  1.0174  0.4343
14259TIP3   OH242698   7.426   2.315   5.573  0.4863  0.7800  0.0530
14259TIP3    H142699   7.397   2.246   5.514 -0.8814  0.4732  1.0442
14259TIP3    H242700   7.409   2.396   5.526  1.4021  0.4706 -0.8199
14260TIP3   OH242701   3.454   7.718   5.277  0.2015 -0.2909 -0.6451
14260TIP3    H142702   3.510   7.673   5.213 -1.5776 -0.1184 -2.3746
14260TIP3    H242703   3.407   7.647   5.321  0.5572 -0.3432 -0.3452
14261TIP3   OH242704   5.963   8.279   6.215  0.1795  0.8101 -0.0085
14261TIP3    H142705   6.058   8.276   6.226  0.1953  1.6389  0.0987
14261TIP3    H242706   5.944   8.206   6.155  1.1304  1.9302 -1.7262
14262TIP3   OH242707   6.972   1.143   4.356  0.0405 -0.1250  0.4690
14262TIP3    H142708   7.057   1.148   4.401 -0.4260  1.8096  1.1803
14262TIP3    H242709   6.991   1.171   4.267  0.7734 -2.9913 -0.3233
14263TIP3   OH242710   6.094   0.707   4.906  0.0710  0.5554  0.0360
14263TIP3    H142711   6.133   0.628   4.943  1.2051  0.5284 -1.1635
14263TIP3    H242712   6.116   0.776   4.968 -0.3845  0.0304  0.7784
14264TIP3   OH242713   4.740   8.318   4.038  0.1583  0.0373  0.0103
14264TIP3    H142714   4.738   8.316   3.942  0.5504  1.3971 -0.0245
14264TIP3    H242715   4.697   8.400   4.062 -2.3399 -1.5255  1.1027
14265TIP3   OH242716   4.834   7.595   5.327 -0.1671 -0.7150 -0.0770
14265TIP3    H142717   4.883   7.569   5.249 -1.6567 -1.2470 -0.8653
14265TIP3    H242718   4.821   7.689   5.317  0.3536 -0.6360 -0.0470
14266TIP3   OH242719   0.433   5.504   1.180 -0.0645  0.5691 -0.1062
14266TIP3    H142720   0.382   5.429   1.152  0.8971  0.2120 -0.9002
14266TIP3    H242721   0.513   5.501   1.127  0.6844  1.2471  0.9540
14267TIP3   OH242722   5.801   6.210   4.856 -0.0745  0.1454 -0.2656
14267TIP3    H142723   5.721   6.257   4.878  0.3426  0.7492 -0.0319
14267TIP3    H242724   5.788   6.180   4.766 -0.9498 -0.5821  0.0954
14268TIP3   OH242725   8.353   1.976   0.246 -0.3813 -0.1876 -0.5309
14268TIP3    H142726   8.282   1.915   0.262 -0.5866 -0.1137 -1.1511
14268TIP3    H242727   8.426   1.943   0.299 -0.5404 -0.8714 -0.7431
14269TIP3   OH242728   4.519   6.269   5.369  0.0695  0.7595  0.5412
14269TIP3    H142729   4.551   6.184   5.340  1.9618  1.6698 -0.1227
14269TIP3    H242730   4.506   6.259   5.464 -0.5981 -0.5246  0.3167
14270TIP3   OH242731   4.660   6.482   6.598  0.3926  0.7156  0.0403
14270TIP3    H142732   4.594   6.535   6.553 -0.8393 -0.1727  0.7667
14270TIP3    H242733   4.654   6.511   6.689  0.3219 -0.0459  0.2787
14271TIP3   OH242734   5.359   0.821   5.851 -0.3977 -0.2463  0.4673
14271TIP3    H142735   5.326   0.735   5.877  0.8580 -0.8930 -0.0312
14271TIP3    H242736   5.451   0.821   5.880  0.0158  0.3682 -0.8302
14272TIP3   OH242737   7.596   1.376   4.112  0.0090 -0.2237  0.3985
14272TIP3    H142738   7.501   1.382   4.124 -0.1212  0.1752 -0.7451
14272TIP3    H242739   7.632   1.391   4.199 -0.9405  1.1001  0.5890
14273TIP3   OH242740   4.100   8.209   4.935 -0.0842  0.3521 -0.0717
14273TIP3    H142741   4.174   8.179   4.989  0.9189  1.0036 -1.0522
14273TIP3    H242742   4.022   8.181   4.983  0.7852  1.0992  1.8260
14274TIP3   OH242743   5.385   8.232   5.218  0.2521 -0.2290  0.0442
14274TIP3    H142744   5.388   8.138   5.200 -0.0158 -0.1240 -0.5855
14274TIP3    H242745   5.323   8.241   5.290  1.4645 -0.6796  1.1508
14275TIP3   OH242746   8.049   3.809   5.458  0.6654 -0.5241 -0.4332
14275TIP3    H142747   8.122   3.868   5.477 -0.3905  0.7466 -0.2398
14275TIP3    H242748   8.003   3.850   5.385  0.1244 -1.2958 -0.5319
14276TIP3   OH242749   0.071   0.921   4.177  0.3009 -0.2429  0.1462
14276TIP3    H142750   0.121   0.941   4.256  2.3444 -1.5980 -0.7554
14276TIP3    H242751   0.055   0.827   4.183 -2.1627  0.1485  0.3816
14277TIP3   OH242752   5.201   3.283   5.597 -0.6277 -0.4367 -0.3990
14277TIP3    H142753   5.150   3.234   5.661 -1.3471  1.1030  0.2335
14277TIP3    H242754   5.213   3.370   5.637  1.8294 -0.5294 -0.8794
14278TIP3   OH242755   8.131   0.266   4.170 -0.3523 -0.2902 -0.1069
14278TIP3    H142756   8.163   0.291   4.083 -0.4190  3.2270  0.7858
14278TIP3    H242757   8.039   0.241   4.155 -0.1854 -0.3171 -1.1386
14279TIP3   OH242758   8.248   2.065   4.952 -0.3450  0.0208 -0.0971
14279TIP3    H142759   8.243   2.123   5.027 -0.2200  0.7075 -0.6107
14279TIP3    H242760   8.222   1.979   4.985 -0.6061  0.3903  0.6498
14280TIP3   OH242761   6.613   0.721   4.021  0.0322  0.0617 -0.1606
14280TIP3    H142762   6.692   0.705   4.073  0.6399  0.7701 -0.8546
14280TIP3    H242763   6.540   0.700   4.080  0.7077  0.8186  0.9561
14281TIP3   OH242764   4.289   6.174   4.333 -0.0044  0.6392  0.2617
14281TIP3    H142765   4.196   6.197   4.324 -0.0094  0.5298  0.0419
14281TIP3    H242766   4.294   6.085   4.298 -0.0970  0.0877  1.6130
14282TIP3   OH242767   4.465   8.185   4.327  0.0806  0.0554  0.2768
14282TIP3    H142768   4.380   8.214   4.359 -0.1869 -0.9615  0.4809
14282TIP3    H242769   4.524   8.199   4.401 -0.2039 -0.6682  0.6446
14283TIP3   OH242770   2.997   6.519   5.776  0.0517 -0.1293  0.4600
14283TIP3    H142771   3.073   6.481   5.819 -0.1889 -1.6245 -0.4227
14283TIP3    H242772   3.030   6.550   5.692 -1.0974 -4.6003 -1.7887
14284TIP3   OH242773   6.084   7.823   7.119  0.8363  0.0409  0.7684
14284TIP3    H142774   6.032   7.802   7.196 -1.1400  0.4560 -0.4219
14284TIP3    H242775   6.104   7.737   7.081 -1.6391 -0.0278 -0.4632
14285TIP3   OH242776   2.896   1.977   0.017 -0.0422  0.4299  0.1753
14285TIP3    H142777   2.888   2.064  -0.023  1.4459  1.0601  1.2106
14285TIP3    H242778   2.989   1.969   0.038  0.0413 -1.8833 -0.9190
14286TIP3   OH242779   6.805   0.902   5.579  0.5192 -1.0943  0.0752
14286TIP3    H142780   6.826   0.949   5.659 -0.9310  0.1424 -0.2429
14286TIP3    H242781   6.796   0.970   5.512 -1.2478 -1.8262 -0.4752
14287TIP3   OH242782   6.870   0.029   5.130  0.2184 -0.0639  0.7572
14287TIP3    H142783   6.833   0.021   5.043  4.0415  1.0666 -1.0845
14287TIP3    H242784   6.805   0.079   5.180 -1.7534 -0.2318 -1.5776
14288TIP3   OH242785   6.411   8.309   6.044 -0.0830  0.3935  0.2303
14288TIP3    H142786   6.348   8.339   5.979 -0.6836 -2.1462 -0.4126
14288TIP3    H242787   6.483   8.272   5.993  1.0627  1.4805  0.9938
14289TIP3   OH242788   4.740   7.467   4.911 -0.1838 -0.0097  0.1465
14289TIP3    H142789   4.706   7.452   4.823 -1.0101 -1.4126  0.6887
14289TIP3    H242790   4.676   7.525   4.953 -1.3491 -1.7137  0.7810
14290TIP3   OH242791   7.793   0.682   7.077  0.1557 -0.0048 -0.5981
14290TIP3    H142792   7.777   0.616   7.143 -0.9297 -0.0319 -0.8741
14290TIP3    H242793   7.735   0.755   7.101  1.5930  1.0041 -0.0862
14291TIP3   OH242794   0.251   0.729   3.793 -0.1916 -0.0480  0.4687
14291TIP3    H142795   0.237   0.801   3.731  2.0605  0.8812  1.0029
14291TIP3    H242796   0.267   0.652   3.737 -1.0603  0.1761 -0.0999
14292TIP3   OH242797   4.265   5.072   4.521  0.4096  0.1457  0.3123
14292TIP3    H142798   4.280   5.042   4.611  1.0114 -1.2286 -0.2334
14292TIP3    H242799   4.186   5.025   4.493  0.9847 -0.4540 -0.3245
14293TIP3   OH242800   2.599   6.638   5.444  0.2848  0.3102 -0.4146
14293TIP3    H142801   2.629   6.612   5.531 -1.3275 -0.3721 -0.0446
14293TIP3    H242802   2.643   6.721   5.427  0.6991  0.3953  1.0039
14294TIP3   OH242803   8.016   0.929   6.958  0.4038 -0.0329 -0.0811
14294TIP3    H142804   8.049   0.841   6.976  1.0983  0.4428  0.9895
14294TIP3    H242805   7.933   0.914   6.911  0.1865 -1.2590  0.6654
14295TIP3   OH242806   3.239   3.610   0.185  0.2008 -0.3333  0.3573
14295TIP3    H142807   3.293   3.540   0.149 -2.3458 -1.9585 -0.4803
14295TIP3    H242808   3.243   3.597   0.279  0.7483 -0.8226  0.2725
14296TIP3   OH242809   4.474   8.336   4.988 -1.0211 -0.6986 -0.2285
14296TIP3    H142810   4.426   8.333   5.071  0.5106  0.7977  0.7582
14296TIP3    H242811   4.545   8.272   4.999 -1.1572 -0.9103 -0.6038
14297TIP3   OH242812   1.521   7.654   2.986 -0.3648  0.1952  0.5534
14297TIP3    H142813   1.546   7.683   3.073 -0.0311  0.8744  0.2314
14297TIP3    H242814   1.603   7.623   2.947 -0.8735 -2.2020  1.2690
14298TIP3   OH242815   7.303   1.576   6.252  0.2068  0.2014  0.6944
14298TIP3    H142816   7.347   1.500   6.291  1.7672  0.5784 -0.2900
14298TIP3    H242817   7.283   1.549   6.163 -1.7342 -0.0073  1.1575
14299TIP3   OH242818   4.811   7.414   6.572  0.2316 -0.3244  0.2350
14299TIP3    H142819   4.752   7.340   6.554  0.5763  0.0012 -2.3792
14299TIP3    H242820   4.883   7.375   6.621  0.0292 -1.6047 -0.4534
14300TIP3   OH242821   0.766   4.917   0.471  0.1789 -0.4120  0.2220
14300TIP3    H142822   0.679   4.893   0.504 -0.6156 -0.6389 -1.9077
14300TIP3    H242823   0.827   4.867   0.524 -1.0827 -1.2891  0.8670
14301TIP3   OH242824   8.723   5.605   0.270 -0.6973 -0.6511  0.3996
14301TIP3    H142825   8.669   5.602   0.350  0.0180 -0.5382  0.8936
14301TIP3    H242826   8.674   5.662   0.211 -1.3899 -0.9860  0.6404
14302TIP3   OH242827   8.426   1.309   5.670  0.1508 -0.0567 -0.4562
14302TIP3    H142828   8.452   1.230   5.623 -0.0956 -1.3957  1.5810
14302TIP3    H242829   8.330   1.303   5.675  0.2672 -0.6881  1.4493
14303TIP3   OH242830   0.636   4.165   0.282 -0.4585 -0.0003 -0.2241
14303TIP3    H142831   0.634   4.074   0.314  0.3722  0.4513  1.1757
14303TIP3    H242832   0.631   4.218   0.362  1.6047  1.1837 -0.8397
14304TIP3   OH242833   5.873   1.179   6.265 -0.1771 -0.4199  0.1468
14304TIP3    H142834   5.854   1.094   6.306  0.8017 -0.7226 -0.0033
14304TIP3    H242835   5.800   1.193   6.205 -0.2775 -1.2282  0.0686
14305TIP3   OH242836   7.307   0.390   4.860  0.1564 -0.4023  0.4413
14305TIP3    H142837   7.363   0.468   4.858 -1.5874  0.8794  0.2052
14305TIP3    H242838   7.366   0.318   4.839  1.8024  0.8506  0.6276
14306TIP3   OH242839   6.527   0.676   5.694 -0.0243 -0.3521 -0.4944
14306TIP3    H142840   6.602   0.628   5.729  0.4405  0.2024 -0.7214
14306TIP3    H242841   6.454   0.652   5.751  0.2483 -1.1622 -0.4793
14307TIP3   OH242842   5.352   0.589   5.259  0.4088 -0.3502 -0.2204
14307TIP3    H142843   5.435   0.628   5.231 -0.2230  0.7675 -0.5787
14307TIP3    H242844   5.341   0.514   5.201  0.5017  0.3064 -1.1030
14308TIP3   OH242845   6.263   0.533   5.074  0.5302  0.3348  0.5706
14308TIP3    H142846   6.353   0.562   5.091  0.1921  0.8726  1.5245
14308TIP3    H242847   6.238   0.486   5.154 -0.5477  1.5066  0.9415
14309TIP3   OH242848   3.990   6.782   5.834 -0.3953  0.3897  0.0413
14309TIP3    H142849   3.904   6.778   5.793 -0.3969  0.7482  0.0039
14309TIP3    H242850   4.042   6.835   5.773  0.9845 -3.1093 -1.9446
14310TIP3   OH242851   5.523   6.949   7.068 -0.2472  0.6400  0.1262
14310TIP3    H142852   5.615   6.954   7.040 -0.3492 -1.4338 -0.6496
14310TIP3    H242853   5.482   7.027   7.028  0.4968 -0.1304 -2.2318
14311TIP3   OH242854   1.908   6.904   4.511  0.1786  0.2278 -0.1393
14311TIP3    H142855   1.911   6.966   4.438 -0.2407  1.5042  0.8924
14311TIP3    H242856   1.815   6.886   4.524  0.2480  0.0139  0.0652
14312TIP3   OH242857   3.310   7.054   6.551 -0.4095 -0.2047 -0.2869
14312TIP3    H142858   3.263   7.136   6.540  0.2764  0.3480  0.8090
14312TIP3    H242859   3.388   7.063   6.497  0.1266  0.2425  0.5511
14313TIP3   OH242860   0.532   0.905   4.060 -0.1159  0.3003  0.5178
14313TIP3    H142861   0.614   0.859   4.074  0.5236  1.8790  2.0374
14313TIP3    H242862   0.529   0.920   3.965  2.1596  1.6839  0.6382
14314TIP3   OH242863   3.228   6.450   5.909  0.2930 -0.0579  0.3902
14314TIP3    H142864   3.282   6.522   5.877  0.6608 -0.5155 -0.0122
14314TIP3    H242865   3.285   6.373   5.907 -1.0161 -1.0045 -2.1245
14315TIP3   OH242866   3.508   5.542   4.867  0.8010  0.1728  0.8861
14315TIP3    H142867   3.415   5.520   4.879  0.4023  0.9036 -0.6970
14315TIP3    H242868   3.540   5.558   4.955 -1.1237  2.0716  1.2910
14316TIP3   OH242869   0.036   7.232   0.803 -0.0620 -0.0348  0.0381
14316TIP3    H142870   0.080   7.305   0.759  0.8253 -0.8086 -0.3540
14316TIP3    H242871  -0.004   7.273   0.880  1.2178  0.7108  0.3316
14317TIP3   OH242872   3.841   7.762   4.184  0.4425 -0.4147  0.3307
14317TIP3    H142873   3.835   7.788   4.092 -2.4411 -1.7805  0.0559
14317TIP3    H242874   3.842   7.666   4.181  2.0695 -0.4404  1.6586
14318TIP3   OH242875   3.725   6.666   5.648 -0.1272  0.0393 -0.1654
14318TIP3    H142876   3.757   6.621   5.726 -0.4895 -1.2946 -0.7796
14318TIP3    H242877   3.630   6.672   5.662  0.0304  1.5206  0.3721
14319TIP3   OH242878   8.379   0.677   2.609  0.0355 -0.6468 -0.3577
14319TIP3    H142879   8.328   0.726   2.546 -0.9893 -1.2291  0.0195
14319TIP3    H242880   8.315   0.627   2.660  1.0785 -2.7644 -1.0418
14320TIP3   OH242881   4.310   7.293   3.565  0.4006 -0.3904  0.5232
14320TIP3    H142882   4.344   7.314   3.652  1.8010 -1.4382  0.2465
14320TIP3    H242883   4.227   7.247   3.581 -0.6238  1.6567  1.2188
14321TIP3   OH242884   4.005   7.312   5.336 -0.5391 -0.7002  0.2522
14321TIP3    H142885   4.089   7.272   5.360 -1.9606 -2.9388  1.7172
14321TIP3    H242886   3.985   7.276   5.249  0.8072  1.2065 -0.8916
14322TIP3   OH242887   1.259   5.631   0.369 -0.0227  0.0510  0.4885
14322TIP3    H142888   1.177   5.637   0.320  0.3185  1.6365  0.0889
14322TIP3    H242889   1.232   5.607   0.457 -0.8217 -0.6714  0.0543
14323TIP3   OH242890   6.634   0.584   5.432  0.0935  0.4318  0.0112
14323TIP3    H142891   6.572   0.627   5.491 -0.3527 -0.0989 -0.0658
14323TIP3    H242892   6.720   0.611   5.464 -0.1824  1.5658 -0.1816
14324TIP3   OH242893   6.799   0.577   6.289 -0.2528 -0.2982  0.0393
14324TIP3    H142894   6.860   0.567   6.362 -1.3219  0.5672  1.0701
14324TIP3    H242895   6.786   0.488   6.256  0.3029 -0.6822  0.8492
14325TIP3   OH242896   8.846   0.981   6.541 -0.2820  0.5017  0.3710
14325TIP3    H142897   8.808   0.945   6.460 -1.7983 -0.3402  1.4457
14325TIP3    H242898   8.932   0.939   6.546 -1.3160 -1.6618  0.6700
14326TIP3   OH242899   8.074   1.853   6.471 -0.2463  0.5955 -0.3554
14326TIP3    H142900   8.057   1.780   6.531  0.7223  1.1206  0.5777
14326TIP3    H242901   8.163   1.836   6.439 -0.8053  0.2551 -1.7376
14327TIP3   OH242902   5.522   6.385   5.570 -0.3206 -0.4915 -0.2361
14327TIP3    H142903   5.599   6.424   5.528  1.4580 -1.9333  1.5987
14327TIP3    H242904   5.461   6.457   5.581  1.5185  1.0581 -0.0611
14328TIP3   OH242905   2.407   3.546   0.056  0.3093  0.2752 -0.2328
14328TIP3    H142906   2.388   3.507   0.141  0.2933  0.4311 -0.1669
14328TIP3    H242907   2.323   3.546   0.010  0.0527  1.3944  0.2301
14329TIP3   OH242908   8.510   2.239   5.724 -1.1026  0.7735 -0.3344
14329TIP3    H142909   8.582   2.275   5.673  0.6860 -1.2494  0.6786
14329TIP3    H242910   8.434   2.247   5.668  0.3078  1.0788 -2.2375
14330TIP3   OH242911   8.835   1.413   5.674 -0.4561 -0.4059  0.7702
14330TIP3    H142912   8.817   1.319   5.667 -0.8863 -0.2555 -0.3819
14330TIP3    H242913   8.766   1.453   5.620  2.5282  0.2876 -2.7316
14331TIP3   OH242914   5.538   8.160   4.827  0.3374 -0.3023  0.0200
14331TIP3    H142915   5.613   8.162   4.768  0.4181  0.9625  0.1414
14331TIP3    H242916   5.504   8.071   4.821 -1.5638  0.5921 -4.2734
14332TIP3   OH242917   2.992   3.770   0.981  0.8017 -0.5174  0.2252
14332TIP3    H142918   2.996   3.688   0.931 -1.1823 -0.2373 -0.4574
14332TIP3    H242919   3.082   3.784   1.011  1.4044 -2.3410 -0.6131
14333TIP3   OH242920   0.020   2.741   3.701 -0.1014  0.6739 -0.2542
14333TIP3    H142921   0.024   2.721   3.608 -1.1379 -1.2798  0.0965
14333TIP3    H242922   0.029   2.656   3.744  2.1087  1.7251  1.4900
14334TIP3   OH242923   8.414   1.630   4.889 -0.1054  0.3674 -0.1662
14334TIP3    H142924   8.342   1.569   4.904  0.1153 -0.3948 -2.1007
14334TIP3    H242925   8.489   1.589   4.932 -0.5017  0.4844  0.6460
14335TIP3   OH242926   8.282   1.215   5.408  0.5830 -0.5489 -0.6113
14335TIP3    H142927   8.349   1.161   5.366  0.8636  3.0080 -5.0246
14335TIP3    H242928   8.209   1.215   5.347 -0.3290  2.1295  0.4259
14336TIP3   OH242929   4.983   7.436   4.489  0.0485  0.3345 -0.6745
14336TIP3    H142930   5.028   7.357   4.462  0.3890  0.3230 -0.0812
14336TIP3    H242931   4.892   7.409   4.501  0.3446 -0.1970  0.4703
14337TIP3   OH242932   5.078   6.297   5.001 -0.2852 -0.3891 -0.0857
14337TIP3    H142933   4.997   6.246   5.005 -0.6657  0.1098 -1.1517
14337TIP3    H242934   5.141   6.246   5.052 -0.9979 -1.2954 -0.0940
14338TIP3   OH242935   0.188   1.054   3.968  0.2116  0.2893  0.6093
14338TIP3    H142936   0.243   0.993   3.918  0.7968  0.8187  0.6055
14338TIP3    H242937   0.149   1.000   4.037 -0.7429 -0.4865 -0.5190
14339TIP3   OH242938   4.045   3.644   0.133 -0.2400  0.6779 -0.2746
14339TIP3    H142939   4.111   3.590   0.089 -0.0392  0.6751  0.0332
14339TIP3    H242940   3.969   3.586   0.141  0.3530  0.0779  1.0677
14340TIP3   OH242941   2.995   6.614   4.088  0.4833 -0.3472  0.4178
14340TIP3    H142942   2.965   6.543   4.031 -0.0348 -0.5038  0.8786
14340TIP3    H242943   2.946   6.601   4.169  0.8453  0.1745  0.7182
14341TIP3   OH242944   0.133   0.437   6.713  0.1831 -0.4178  0.0793
14341TIP3    H142945   0.176   0.517   6.744  0.8999 -0.5636 -0.5174
14341TIP3    H242946   0.049   0.435   6.759  0.7525 -0.0536  1.1504
14342TIP3   OH242947   4.933   6.613   6.233  0.7373 -0.4534  0.6619
14342TIP3    H142948   4.939   6.558   6.311 -2.6788 -1.6278  0.1824
14342TIP3    H242949   4.884   6.690   6.261  1.6342  0.2659  0.2579
14343TIP3   OH242950   8.502   1.272   3.243  0.0384  0.4012  0.3622
14343TIP3    H142951   8.407   1.282   3.236  0.2172  2.3647  0.5440
14343TIP3    H242952   8.514   1.207   3.313 -1.1639 -0.1383  0.0801
14344TIP3   OH242953   0.353   1.356   6.958 -1.1847 -0.1872 -0.5187
14344TIP3    H142954   0.391   1.279   7.001 -0.2936  0.9546  0.7711
14344TIP3    H242955   0.319   1.322   6.875 -2.3235 -2.3088  0.7636
14345TIP3   OH242956   0.528   0.061   2.710  0.3859 -0.6432  0.2114
14345TIP3    H142957   0.549   0.143   2.753  1.7316  0.5547 -2.6122
14345TIP3    H242958   0.445   0.077   2.666  0.1628 -1.1207  0.4479
14346TIP3   OH242959   6.089   6.491   5.096  0.0753 -0.0572 -0.6248
14346TIP3    H142960   6.120   6.472   5.184  1.6357 -0.6610 -1.2897
14346TIP3    H242961   6.139   6.568   5.068 -0.3660  0.0992 -1.0067
14347TIP3   OH242962   7.744   0.351   5.232  0.0342  0.9143 -0.0319
14347TIP3    H142963   7.689   0.328   5.158 -1.3159  3.2316  0.1837
14347TIP3    H242964   7.683   0.360   5.305  0.7487  2.9176  0.3512
14348TIP3   OH242965   7.937   2.255   4.670  0.2340  0.0684 -0.2883
14348TIP3    H142966   7.902   2.292   4.588  0.6747 -0.3834 -0.6836
14348TIP3    H242967   8.019   2.213   4.644  0.5274  0.1829  0.4454
14349TIP3   OH242968   7.793   1.072   4.710 -0.0560  0.2729  0.2038
14349TIP3    H142969   7.729   1.135   4.677 -0.0809 -0.5791 -1.4079
14349TIP3    H242970   7.761   0.987   4.680 -0.0329 -0.5344  2.3641
14350TIP3   OH242971   5.214   8.289   3.450 -0.4516 -0.0572  0.3718
14350TIP3    H142972   5.301   8.268   3.482 -0.6903  0.4637  1.3842
14350TIP3    H242973   5.156   8.273   3.524 -1.3337 -1.2412 -0.5590
14351TIP3   OH242974   4.841   7.970   4.821 -0.4724  0.1739 -0.0371
14351TIP3    H142975   4.831   7.875   4.813  2.7524 -0.2108 -0.1872
14351TIP3    H242976   4.855   8.001   4.732 -0.8529  0.7077  0.0855
14352TIP3   OH242977   8.647   0.621   3.551 -0.2924 -0.1390 -0.6365
14352TIP3    H142978   8.673   0.643   3.462  0.4562  0.0270 -0.3818
14352TIP3    H242979   8.641   0.705   3.596  0.0296 -0.2727 -0.3431
14353TIP3   OH242980   8.006   1.368   4.080 -0.5719  0.3291  0.3940
14353TIP3    H142981   8.088   1.322   4.062 -0.8330  0.3030 -0.8050
14353TIP3    H242982   7.938   1.301   4.075 -0.8320  0.6247 -0.2252
14354TIP3   OH242983   0.507   0.963   5.760 -0.0598  0.4775 -0.1945
14354TIP3    H142984   0.597   0.994   5.755  0.3661 -0.6247  0.4375
14354TIP3    H242985   0.494   0.914   5.678  0.1742 -0.0039  0.0500
14355TIP3   OH242986   5.613   8.123   5.415 -0.4994 -0.0753  0.4712
14355TIP3    H142987   5.546   8.149   5.478  0.7273  1.2979  1.2520
14355TIP3    H242988   5.675   8.196   5.415  0.7967 -1.1573 -0.4965
14356TIP3   OH242989   4.635   5.280   5.545 -0.6223  0.2911  0.1893
14356TIP3    H142990   4.728   5.273   5.525 -0.6057  0.7943  0.0746
14356TIP3    H242991   4.620   5.214   5.613  0.1659  1.3409  1.4067
14357TIP3   OH242992   5.167   7.264   4.305  0.0095 -0.0001  0.0677
14357TIP3    H142993   5.235   7.216   4.257 -0.6089  0.1530 -0.9510
14357TIP3    H242994   5.213   7.299   4.382  1.0137 -0.1704 -0.4446
14358TIP3   OH242995   7.274   1.102   3.985 -0.3793  0.8698  0.1158
14358TIP3    H142996   7.274   1.006   3.982 -0.9423  0.8694  0.1943
14358TIP3    H242997   7.301   1.123   4.074  4.0881  0.8185 -1.0871
14359TIP3   OH242998   0.023   2.322   5.153 -0.0207 -0.2418 -0.1375
14359TIP3    H142999   0.034   2.406   5.198  2.9359  0.1539 -1.4516
14359TIP3    H243000   0.069   2.259   5.208  0.8059 -0.3304 -0.9065
14360TIP3   OH243001   8.760   1.963   5.355  0.7420  0.0870  0.1486
14360TIP3    H143002   8.845   1.954   5.398  0.2243  2.2377  1.7148
14360TIP3    H243003   8.711   1.884   5.379  1.6643 -0.3231  0.6762
14361TIP3   OH243004   1.297   0.936   4.812 -0.6083  0.5082  0.8968
14361TIP3    H143005   1.347   1.009   4.849  1.1048  0.9614 -2.1887
14361TIP3    H243006   1.228   0.978   4.761  0.2946  0.0268 -0.7697
14362TIP3   OH243007   8.092  -0.003   7.243 -0.1976  0.0424  0.2943
14362TIP3    H143008   8.165   0.019   7.302 -0.8421  0.2565  1.0147
14362TIP3    H243009   8.076   0.077   7.194 -0.5500  0.2747  0.7848
14363TIP3   OH243010   3.318   8.236   3.738 -0.2493 -0.3357 -0.4814
14363TIP3    H143011   3.250   8.287   3.694  1.9960  0.3313 -3.3354
14363TIP3    H243012   3.339   8.286   3.817 -0.6036  1.2929 -1.3973
14364TIP3   OH243013   0.184   0.491   5.413 -0.2818 -0.0465 -0.0209
14364TIP3    H143014   0.179   0.530   5.500  1.0657 -0.6487  0.3350
14364TIP3    H243015   0.157   0.400   5.426 -0.1135 -0.1278 -0.2350
14365TIP3   OH243016   5.494   7.441   5.422 -0.1211 -0.0883 -0.1080
14365TIP3    H143017   5.417   7.401   5.382 -1.2551  1.2961  0.6327
14365TIP3    H243018   5.538   7.487   5.350 -1.4222  1.2830 -0.0515
14366TIP3   OH243019   4.454   7.913   7.096 -0.3673 -0.3438 -0.2487
14366TIP3    H143020   4.522   7.863   7.051  2.4812  1.2616  1.9976
14366TIP3    H243021   4.463   8.002   7.062  0.0046  0.2884  1.4154
14367TIP3   OH243022   1.026   1.282   4.844 -0.4605  0.6321  0.3342
14367TIP3    H143023   1.025   1.193   4.879 -1.0831  0.7556  0.6319
14367TIP3    H243024   1.024   1.338   4.921  2.1516  0.9361  0.2495
14368TIP3   OH243025   8.552   1.448   3.556  0.3304  0.0890 -0.2319
14368TIP3    H143026   8.644   1.428   3.538 -0.3692 -1.6011 -2.1004
14368TIP3    H243027   8.547   1.459   3.651  2.4401  0.1433 -0.1193
14369TIP3   OH243028   6.651   0.905   4.778  0.8412 -0.7421  0.3080
14369TIP3    H143029   6.702   0.955   4.842 -0.9463  0.8336  0.5508
14369TIP3    H243030   6.647   0.962   4.701  0.5934 -1.4293 -0.1872
14370TIP3   OH243031   5.459   8.393   4.935  0.2590 -0.5233 -0.1124
14370TIP3    H143032   5.474   8.396   5.030  0.1205  0.8849 -0.1314
14370TIP3    H243033   5.483   8.303   4.911  1.6050 -0.5043  1.0328
14371TIP3   OH243034   8.134   0.875   3.485 -0.2114 -0.3712  0.4932
14371TIP3    H143035   8.108   0.939   3.419 -1.7138 -0.8230  0.6249
14371TIP3    H243036   8.229   0.866   3.474  0.0095  1.8248  0.4513
14372TIP3   OH243037   7.484   0.074   6.387 -0.4921 -0.3597  0.4515
14372TIP3    H143038   7.574   0.053   6.360  0.7102  1.5183  2.8195
14372TIP3    H243039   7.454  -0.005   6.431  0.7495 -0.3115  1.4175
14373TIP3   OH243040   8.652   2.155   4.777 -0.1216  0.5214  0.0005
14373TIP3    H143041   8.564   2.127   4.751  0.8523 -0.8543 -1.8571
14373TIP3    H243042   8.664   2.240   4.734 -0.1320  0.2257 -0.5793
14374TIP3   OH243043   0.428   2.444   3.212 -0.2783  0.0727 -0.2220
14374TIP3    H143044   0.412   2.538   3.218  3.0249  0.5742  3.0911
14374TIP3    H243045   0.499   2.435   3.148 -0.1523 -0.0793 -0.0639
14375TIP3   OH243046   7.249   1.113   1.139 -0.0625  1.0660  0.0099
14375TIP3    H143047   7.340   1.099   1.164 -0.2283 -2.7371 -1.1924
14375TIP3    H243048   7.250   1.108   1.043 -1.5549  0.8768 -0.0044
14376TIP3   OH243049   8.509   2.773   4.795  0.2455 -0.0061  0.2837
14376TIP3    H143050   8.456   2.721   4.734  1.8941 -1.8988  0.3947
14376TIP3    H243051   8.480   2.745   4.882  0.6063 -0.1715  0.3504
14377TIP3   OH243052   3.836   8.299   4.625  0.5887 -0.1419  0.4411
14377TIP3    H143053   3.827   8.289   4.530 -1.1421  0.5699  0.5137
14377TIP3    H243054   3.929   8.285   4.642  1.6769  3.8113 -1.8682
14378TIP3   OH243055   5.988   7.771   4.284  0.5410  0.0423 -0.0690
14378TIP3    H143056   6.010   7.706   4.218 -0.3873 -0.5838  0.2283
14378TIP3    H243057   6.072   7.792   4.325  0.8545 -0.9556 -0.1773
14379TIP3   OH243058   4.038   6.317   6.153 -0.1000 -0.0220  0.0017
14379TIP3    H143059   3.994   6.233   6.162  1.5577 -0.9475 -0.4081
14379TIP3    H243060   4.077   6.333   6.239  0.5716 -0.2410 -0.2582
14380TIP3   OH243061   6.138   6.832   4.999  0.2147 -0.8659  0.3509
14380TIP3    H143062   6.211   6.800   4.947  0.5355  0.8897 -0.3327
14380TIP3    H243063   6.064   6.834   4.937  0.5229  0.9374  0.0219
14381TIP3   OH243064   6.050   8.221   6.757 -0.6564  0.0204 -0.0118
14381TIP3    H143065   6.059   8.272   6.676  1.3527 -0.0706  0.1248
14381TIP3    H243066   5.997   8.146   6.732 -2.1724  1.2548 -0.6321
14382TIP3   OH243067   6.281   7.369   3.951 -0.2247 -0.0318  0.1294
14382TIP3    H143068   6.209   7.328   3.999 -0.0561 -1.6250 -0.9555
14382TIP3    H243069   6.359   7.350   4.003 -0.3228  0.0351  0.3007
14383TIP3   OH243070   3.656   5.776   5.786 -0.3925 -0.2655  0.6095
14383TIP3    H143071   3.646   5.786   5.691 -2.5943 -0.6757  0.7618
14383TIP3    H243072   3.689   5.686   5.797 -1.0853 -0.5630  0.2781
14384TIP3   OH243073   4.965   7.539   5.043  0.0311 -0.6992  0.6415
14384TIP3    H143074   5.022   7.538   4.966 -1.5799  2.0635 -0.6763
14384TIP3    H243075   4.889   7.487   5.017  0.0253 -0.7685  0.7989
14385TIP3   OH243076   5.048   6.847   5.851 -0.1874  0.5725  0.4325
14385TIP3    H143077   5.140   6.859   5.875  0.0588 -1.0545  0.3972
14385TIP3    H243078   5.021   6.769   5.900 -0.7959 -0.4909 -1.5523
14386TIP3   OH243079   4.821   6.222   5.028 -0.3540 -0.4638  0.6721
14386TIP3    H143080   4.811   6.286   5.098  2.7544  1.7938 -0.8798
14386TIP3    H243081   4.759   6.250   4.960  0.7707  0.7665  0.1325
14387TIP3   OH243082   0.170   1.326   5.410 -0.2480 -0.2848  0.4879
14387TIP3    H143083   0.192   1.341   5.502  2.8998 -0.3804 -0.2157
14387TIP3    H243084   0.166   1.413   5.371  0.2294 -0.3356  0.3224
14388TIP3   OH243085   0.486   1.838   5.092 -0.3000  0.4659  0.0422
14388TIP3    H143086   0.486   1.782   5.014 -1.9059  0.4355  0.0406
14388TIP3    H243087   0.575   1.831   5.127 -0.0701 -0.9296 -0.7863
14389TIP3   OH243088   5.783   4.544   5.000 -0.0328 -0.0038 -0.5308
14389TIP3    H143089   5.733   4.560   5.081 -0.3808  0.9694 -0.9302
14389TIP3    H243090   5.858   4.603   5.006  0.5953 -0.8086 -0.3599
14390TIP3   OH243091   4.225   7.820   4.015  0.1968  0.3454 -0.0645
14390TIP3    H143092   4.289   7.891   4.023 -0.3959  0.8837 -0.1244
14390TIP3    H243093   4.174   7.843   3.938  0.0263 -0.1690 -0.1037
14391TIP3   OH243094   5.075   6.630   6.019 -0.4686 -0.2534 -0.0874
14391TIP3    H143095   5.089   6.542   5.984  1.4692 -0.1108  0.2784
14391TIP3    H243096   5.033   6.616   6.103  0.8033 -0.9037  0.4589
14392TIP3   OH243097   5.242   4.523   3.016  0.0344  0.1985 -0.0512
14392TIP3    H143098   5.284   4.607   3.003  0.6892  0.3430  2.7067
14392TIP3    H243099   5.291   4.482   3.087 -0.9325 -2.0567 -0.6344
14393TIP3   OH243100   6.229   0.204   3.953 -0.1068  0.0728 -0.0340
14393TIP3    H143101   6.301   0.174   3.898  0.5768  0.0610  0.8511
14393TIP3    H243102   6.210   0.130   4.011 -1.0857 -0.0595 -0.5057
14394TIP3   OH243103   7.634   6.810   3.104  0.0267 -0.3707 -0.2050
14394TIP3    H143104   7.709   6.767   3.146 -1.7510 -0.9620  2.4787
14394TIP3    H243105   7.673   6.879   3.051  2.6468 -2.3970 -1.0305
14395TIP3   OH243106   5.089   4.013   5.386 -0.3723 -0.0864 -0.5064
14395TIP3    H143107   5.097   4.072   5.312  0.6732 -0.6573 -0.8623
14395TIP3    H243108   5.167   3.957   5.381  0.0896  0.3241  1.4222
14396TIP3   OH243109   3.631   7.850   5.597 -0.2858 -0.1743 -0.1430
14396TIP3    H143110   3.716   7.809   5.588 -1.3905 -2.2634 -1.4835
14396TIP3    H243111   3.639   7.906   5.674  2.4079  0.0259 -0.5401
14397TIP3   OH243112   7.965   0.418   4.790  0.0030 -0.1945  0.3000
14397TIP3    H143113   7.871   0.434   4.779 -0.4032 -1.9067  1.0035
14397TIP3    H243114   7.996   0.492   4.842 -0.7550  0.9015 -0.7889
14398TIP3   OH243115   7.678  -0.001   3.751  0.0031 -0.0928 -0.0928
14398TIP3    H143116   7.610   0.051   3.708 -1.2421 -0.7727  0.9937
14398TIP3    H243117   7.749  -0.006   3.687 -0.3504  1.8863 -0.6809
14399TIP3   OH243118   8.022   2.300   3.644 -0.1163 -0.5010 -0.0610
14399TIP3    H143119   7.997   2.358   3.717 -1.1296  1.3636 -1.8423
14399TIP3    H243120   7.940   2.287   3.596  0.1368 -3.3369  0.2238
14400TIP3   OH243121   5.410   7.114   5.030 -0.5402  0.5510  0.2576
14400TIP3    H143122   5.326   7.160   5.028 -1.1791 -0.6304 -1.3521
14400TIP3    H243123   5.475   7.183   5.043 -1.6928  1.5768  0.6701
14401TIP3   OH243124   4.982   6.906   4.439 -0.0915  0.2640 -0.2492
14401TIP3    H143125   5.029   6.841   4.490 -0.2673 -0.2922 -0.7927
14401TIP3    H243126   5.050   6.966   4.407  0.0196  0.6034  0.6110
14402TIP3   OH243127   8.867   0.597   5.880  0.2198  0.3243  0.1874
14402TIP3    H143128   8.805   0.657   5.839 -0.3133  0.9033  1.7716
14402TIP3    H243129   8.827   0.575   5.964  0.3222 -2.4289 -0.4456
14403TIP3   OH243130   7.322   1.565   3.945  0.1636 -0.2305 -0.1788
14403TIP3    H143131   7.319   1.564   3.849  0.1258  2.0410 -0.2320
14403TIP3    H243132   7.297   1.476   3.971 -0.1338 -0.7787 -2.2634
14404TIP3   OH243133   6.085   7.984   6.471 -0.1834  0.4195  0.4832
14404TIP3    H143134   6.156   8.000   6.410 -1.3777 -0.0216 -1.0627
14404TIP3    H243135   6.105   7.899   6.511  2.2020  2.1100  3.0530
14405TIP3   OH243136   6.322   8.146   6.570  0.9176 -0.1178 -0.3860
14405TIP3    H143137   6.275   8.062   6.576  2.4115 -0.9584 -0.2595
14405TIP3    H243138   6.253   8.211   6.557 -0.4859 -1.0448  2.0749
14406TIP3   OH243139   5.776   6.541   7.280 -0.3174 -0.1013 -0.0801
14406TIP3    H143140   5.703   6.512   7.226  1.4069 -2.0462 -1.4491
14406TIP3    H243141   5.781   6.635   7.265 -0.4545 -0.4625 -2.6314
14407TIP3   OH243142   8.437   1.469   5.938  0.1738 -0.9945 -0.2502
14407TIP3    H143143   8.462   1.391   5.887  0.7892 -1.2575  0.4497
14407TIP3    H243144   8.364   1.440   5.992  0.5568 -1.1432  0.1811
14408TIP3   OH243145   8.638   1.549   7.244  0.0667  0.1654  0.0014
14408TIP3    H143146   8.629   1.642   7.220 -0.0952 -0.0914 -0.9514
14408TIP3    H243147   8.660   1.551   7.337 -0.9872  1.1275  0.2492
14409TIP3   OH243148   0.715   0.468   4.513 -0.3778  0.3427 -0.4414
14409TIP3    H143149   0.722   0.397   4.578  0.5532  0.6316 -0.2268
14409TIP3    H243150   0.758   0.542   4.555 -1.5452  1.1091 -0.5786
14410TIP3   OH243151   5.619   7.122   5.817  0.4435 -0.5843  0.0219
14410TIP3    H143152   5.546   7.166   5.861  0.4740 -0.7413  0.2251
14410TIP3    H243153   5.597   7.128   5.724  0.9654  0.8202 -0.0392
14411TIP3   OH243154   6.538   7.869   6.179  0.2382  0.0275 -0.0684
14411TIP3    H143155   6.592   7.947   6.194  1.6964 -0.5065 -2.3574
14411TIP3    H243156   6.515   7.873   6.086 -0.5558 -1.7173  0.0314
14412TIP3   OH243157   7.895   0.053   4.866  0.0020  0.1327  0.3029
14412TIP3    H143158   7.978   0.023   4.903 -0.0987 -0.3837  0.1162
14412TIP3    H243159   7.919   0.120   4.803  0.1241  1.7636  2.0122
14413TIP3   OH243160   6.336   7.253   6.784  0.5162 -0.3299 -0.2344
14413TIP3    H143161   6.375   7.209   6.860 -0.6811  0.4668  0.8667
14413TIP3    H243162   6.245   7.266   6.809  0.5192  1.4885 -1.1328
14414TIP3   OH243163   0.900   3.171   5.089 -0.4135 -0.2612  0.2063
14414TIP3    H143164   0.876   3.260   5.062  1.6709  0.4154  0.5084
14414TIP3    H243165   0.847   3.155   5.167 -0.2368  1.0269  0.6089
14415TIP3   OH243166   1.873   2.167   6.048 -0.2014 -0.2212  0.7399
14415TIP3    H143167   1.953   2.123   6.078 -0.0858 -1.0318 -0.6903
14415TIP3    H243168   1.815   2.166   6.124  0.8455 -0.3726  1.5471
14416TIP3   OH243169   4.004   7.519   3.996 -0.7348  0.6721  0.2319
14416TIP3    H143170   4.006   7.475   3.911 -2.4748 -0.4526  0.7353
14416TIP3    H243171   3.964   7.604   3.978  0.9269  1.3236 -0.4332
14417TIP3   OH243172   3.990   7.469   3.730 -0.2771  0.0335 -0.2872
14417TIP3    H143173   4.043   7.531   3.679 -3.9180  1.7605 -2.1795
14417TIP3    H243174   3.994   7.388   3.680  1.0109 -0.0080 -0.1303
14418TIP3   OH243175   6.731   1.020   4.294  0.4699 -0.3282  0.4054
14418TIP3    H143176   6.786   1.097   4.306  0.0356  0.5222 -2.5794
14418TIP3    H243177   6.786   0.959   4.244 -0.2318 -0.7083  0.0938
14419TIP3   OH243178   1.676   1.344   4.183 -0.2233  0.1061 -0.3093
14419TIP3    H143179   1.758   1.384   4.211 -1.5700  3.2104 -0.5471
14419TIP3    H243180   1.692   1.315   4.094  0.9632 -0.4153  0.0639
14420TIP3   OH243181   5.825   7.331   3.711  0.0236 -0.0673  0.0532
14420TIP3    H143182   5.846   7.396   3.644  0.4330 -1.8119 -1.5759
14420TIP3    H243183   5.886   7.349   3.782  1.0683  0.4692 -0.9616
14421TIP3   OH243184   6.140   7.402   6.167  0.4711 -0.2659 -0.1147
14421TIP3    H143185   6.201   7.350   6.220  0.1394 -0.4035  0.1285
14421TIP3    H243186   6.182   7.407   6.081  0.5269 -0.8986 -0.1275
14422TIP3   OH243187   8.247   0.433   3.405 -0.2773  0.0858  0.1971
14422TIP3    H143188   8.226   0.361   3.464 -0.4300  1.0161  1.3068
14422TIP3    H243189   8.162   0.459   3.369 -0.3593  0.3569  0.5756
14423TIP3   OH243190   0.429   0.852   6.123 -0.6260  0.2911  0.1369
14423TIP3    H143191   0.500   0.886   6.069  0.9319 -0.1004  1.8922
14423TIP3    H243192   0.447   0.886   6.210 -1.1880 -1.8795  1.1303
14424TIP3   OH243193   8.530   1.843   5.178  0.8609  0.2415  0.3696
14424TIP3    H143194   8.501   1.766   5.130  1.4410  0.3223 -0.1189
14424TIP3    H243195   8.450   1.889   5.202  0.5171 -0.4822  0.6175
14425TIP3   OH243196   5.846   5.939   5.206 -0.6831 -0.6759  0.1927
14425TIP3    H143197   5.864   5.959   5.114  0.9508 -1.7743  0.2532
14425TIP3    H243198   5.770   5.880   5.203 -1.3370  0.1826 -0.3752
14426TIP3   OH243199   8.638   0.391   5.314 -0.0433 -0.1298  0.3076
14426TIP3    H143200   8.554   0.437   5.316  0.7675  1.4123 -0.0917
14426TIP3    H243201   8.637   0.341   5.233  0.0048  1.0253 -0.4109
14427TIP3   OH243202   4.730   7.697   3.203  0.2802 -0.2565 -0.2024
14427TIP3    H143203   4.742   7.655   3.118  0.9087  1.2853 -0.8955
14427TIP3    H243204   4.649   7.748   3.193 -1.0755 -2.1511  0.9849
14428TIP3   OH243205   8.579   0.828   3.718  0.4353  0.3095 -0.9660
14428TIP3    H143206   8.515   0.895   3.744 -1.0391 -2.1144  1.9386
14428TIP3    H243207   8.593   0.776   3.797  4.3184 -0.6425 -2.1611
14429TIP3   OH243208   8.020   0.053   3.283  0.2934  0.4237  0.3297
14429TIP3    H143209   8.056  -0.012   3.344 -1.8123  0.5540  1.7672
14429TIP3    H243210   8.093   0.113   3.267  1.4925 -0.8120  1.0596
14430TIP3   OH243211   4.595   7.926   5.163  0.3905 -0.3221  0.0073
14430TIP3    H143212   4.671   7.948   5.217 -0.7449  1.3868  0.9834
14430TIP3    H243213   4.532   7.889   5.225 -0.7996  1.3536 -0.1618
14431TIP3   OH243214   8.131   0.838   5.859 -0.0239 -0.2696  0.1941
14431TIP3    H143215   8.196   0.773   5.833 -0.3522 -0.6629  0.3732
14431TIP3    H243216   8.096   0.871   5.775  0.7526  0.2943  0.0865
14432TIP3   OH243217   5.661   8.060   4.349 -0.5959  0.8443  0.2849
14432TIP3    H143218   5.643   7.969   4.372 -0.0404  0.8838  0.9047
14432TIP3    H243219   5.586   8.109   4.383 -2.2707  0.3067 -2.5124
14433TIP3   OH243220   4.357   7.632   3.898  0.2952  0.6347 -0.4633
14433TIP3    H143221   4.368   7.691   3.823 -2.3031  1.3352 -0.3247
14433TIP3    H243222   4.313   7.685   3.964  2.3083 -0.0657  1.4976
14434TIP3   OH243223   3.440   6.591   3.976  0.0706 -0.2545  0.5209
14434TIP3    H143224   3.443   6.574   3.882 -2.3207 -0.0935  0.3898
14434TIP3    H243225   3.410   6.509   4.014  0.7458 -0.2257  1.1335
14435TIP3   OH243226   8.184   1.244   3.014 -0.4654  0.9206  0.2401
14435TIP3    H143227   8.203   1.296   3.092  2.7198  3.7680 -2.2965
14435TIP3    H243228   8.246   1.171   3.018  0.7621  1.9040 -0.3250
14436TIP3   OH243229   5.057   6.931   6.416 -0.7205 -0.0474  0.5881
14436TIP3    H143230   5.100   6.899   6.337 -0.0249  0.7581  0.6306
14436TIP3    H243231   5.101   7.014   6.435 -1.9537  0.5290  0.9299
14437TIP3   OH243232   7.717   0.334   3.160 -0.2089  0.3548  0.2396
14437TIP3    H143233   7.800   0.324   3.208  1.3523 -0.6868 -2.5595
14437TIP3    H243234   7.665   0.259   3.187  1.0711 -0.8118 -0.4412
14438TIP3   OH243235   4.285   7.178   4.514  0.0719 -0.8240 -0.1020
14438TIP3    H143236   4.292   7.125   4.434 -1.5267  0.0240 -0.8285
14438TIP3    H243237   4.212   7.236   4.497 -0.2995 -0.6521  2.0232
14439TIP3   OH243238   5.951   7.632   5.340  0.6565 -0.6471 -0.1256
14439TIP3    H143239   5.888   7.570   5.302  0.1727 -0.4084  0.2842
14439TIP3    H243240   5.898   7.690   5.395  0.7652  1.5766 -2.2875
14440TIP3   OH243241   5.574   7.518   4.421 -0.1409  0.2127 -0.0338
14440TIP3    H143242   5.645   7.461   4.390 -1.0799 -0.6575 -0.5970
14440TIP3    H243243   5.611   7.606   4.417  0.3141 -0.0471 -2.0712
14441TIP3   OH243244   6.719   0.667   4.682 -0.1676 -0.1078  0.2123
14441TIP3    H143245   6.796   0.695   4.632  0.0001 -1.3945 -0.2911
14441TIP3    H243246   6.672   0.747   4.703  1.0573  0.6499  0.0878
14442TIP3   OH243247   7.468   0.108   3.605 -0.1076 -0.8348  0.0503
14442TIP3    H143248   7.377   0.125   3.631 -0.3861 -1.9344 -0.1506
14442TIP3    H243249   7.460   0.055   3.526  0.7137 -0.8798 -0.0035
14443TIP3   OH243250   7.665   3.507   6.055 -0.7270  0.3559  0.5516
14443TIP3    H143251   7.729   3.573   6.029  0.3692 -1.2362 -0.8557
14443TIP3    H243252   7.580   3.546   6.035 -0.0197  0.2961 -2.9204
14444TIP3   OH243253   3.393   7.975   3.877  0.0379  0.1917 -0.1617
14444TIP3    H143254   3.345   7.989   3.959  0.1896 -0.6195  0.0651
14444TIP3    H243255   3.344   8.025   3.812 -0.3611  0.4410  0.3291
14445TIP3   OH243256   8.409   1.388   4.299  0.0031  0.3868  0.5493
14445TIP3    H143257   8.331   1.403   4.245  0.3170 -0.4291 -0.1546
14445TIP3    H243258   8.455   1.471   4.298 -0.3577  0.5850  0.1281
14446TIP3   OH243259   1.139   3.030   5.107  0.1332  0.2204 -0.7191
14446TIP3    H143260   1.049   3.058   5.090 -0.8074 -2.1334  0.1964
14446TIP3    H243261   1.178   3.103   5.157 -1.9623  0.3092  0.8527
14447TIP3   OH243262   1.062   0.529   6.629 -0.0677  0.2572 -0.4225
14447TIP3    H143263   1.099   0.451   6.669 -0.4244 -0.4258 -1.4064
14447TIP3    H243264   1.071   0.597   6.695  0.5575 -0.5382  0.3096
14448TIP3   OH243265   8.378   0.052   2.227  0.5305  0.1712 -0.3640
14448TIP3    H143266   8.458   0.027   2.181  1.4978  0.7799  0.9627
14448TIP3    H243267   8.406   0.119   2.289 -1.2828  1.5091 -0.9540
14449TIP3   OH243268   8.865   2.127   5.618  0.3927 -0.2234 -0.2134
14449TIP3    H143269   8.807   2.051   5.623 -1.1025  0.8366 -0.9295
14449TIP3    H243270   8.928   2.105   5.549  0.8719 -1.3859  0.5729
14450TIP3   OH243271   4.740   7.312   4.291 -0.4988  0.1773 -0.3743
14450TIP3    H143272   4.694   7.356   4.220  1.0381  3.0718  0.3379
14450TIP3    H243273   4.830   7.304   4.261 -0.1322  0.2212  0.6734
14451TIP3   OH243274   7.905   3.006   6.125  1.1219  0.3948 -0.0971
14451TIP3    H143275   7.906   3.016   6.220 -3.8646 -0.5271  0.1623
14451TIP3    H243276   7.865   3.087   6.093  1.1197 -0.0703 -1.2628
14452TIP3   OH243277   5.963   6.367   5.769  0.0138 -0.1605 -0.2375
14452TIP3    H143278   5.968   6.362   5.864  1.7135 -1.0491 -0.3573
14452TIP3    H243279   5.900   6.299   5.744  2.3923 -2.5397  0.0252
14453TIP3   OH243280   5.822   8.347   5.163 -0.5378 -0.2628  0.3456
14453TIP3    H143281   5.814   8.262   5.119 -0.3695 -0.5174  0.8027
14453TIP3    H243282   5.907   8.381   5.134 -1.2734  0.4382 -1.0279
14454TIP3   OH243283   4.927   6.066   2.674 -0.1257  0.2888 -0.2335
14454TIP3    H143284   4.967   6.041   2.591 -0.8208  1.9066 -1.0690
14454TIP3    H243285   4.879   5.988   2.702  4.3054 -2.1074  1.3098
14455TIP3   OH243286   4.493   5.745   1.063  0.1629  0.0390  0.2249
14455TIP3    H143287   4.574   5.791   1.087  0.2116 -0.8360  1.8251
14455TIP3    H243288   4.487   5.755   0.968  1.6485  0.9306  0.2036
14456TIP3   OH243289   7.448   0.153   3.985  0.0559 -0.3185 -0.2296
14456TIP3    H143290   7.474   0.243   3.964  0.6349 -0.0390  1.5923
14456TIP3    H243291   7.460   0.105   3.904  0.9575  0.9958 -0.8858
14457TIP3   OH243292   4.630   7.640   3.446  0.0908  0.0625 -0.1531
14457TIP3    H143293   4.536   7.624   3.431  0.1759  0.4671 -1.1958
14457TIP3    H243294   4.670   7.622   3.361  1.1885 -1.8000  0.7508
14458TIP3   OH243295   6.188   5.981   6.150 -0.0151 -0.1669 -0.1270
14458TIP3    H143296   6.209   6.037   6.075  0.9711 -0.0194  0.2414
14458TIP3    H243297   6.208   5.893   6.120 -0.9721 -0.2537 -0.5034
14459TIP3   OH243298   5.289   6.182   4.463  0.4968 -0.2834 -0.4755
14459TIP3    H143299   5.370   6.169   4.514  0.4102  0.3287 -0.1756
14459TIP3    H243300   5.224   6.208   4.528  0.3150  0.2287 -0.8625
14460TIP3   OH243301   2.008   3.210   0.500  0.1275  0.2004  0.5915
14460TIP3    H143302   2.016   3.279   0.434 -0.3725  0.3485  0.6845
14460TIP3    H243303   1.928   3.232   0.548  0.9139  0.5340  1.7685
14461TIP3   OH243304   8.077  -0.008   3.780 -0.2777 -0.3490  0.1366
14461TIP3    H143305   8.007  -0.035   3.721  0.0387  1.2835 -1.0166
14461TIP3    H243306   8.033   0.048   3.844 -0.0740  0.5492 -0.4962
14462TIP3   OH243307   2.467   3.446   0.696  0.0173  0.2485 -0.5610
14462TIP3    H143308   2.491   3.378   0.758  1.0659  1.1330  0.0152
14462TIP3    H243309   2.413   3.507   0.746  0.9569  1.0219 -0.4882
14463TIP3   OH243310   4.805   7.879   5.313 -0.2672 -0.2397  0.0867
14463TIP3    H143311   4.824   7.852   5.403  2.2066 -0.8202 -0.5884
14463TIP3    H243312   4.829   7.972   5.310  0.4658 -0.4428 -0.2176
14464TIP3   OH243313   0.753   0.893   2.430 -0.5242  0.1147 -0.5136
14464TIP3    H143314   0.757   0.923   2.339 -1.3208  2.1287  0.0859
14464TIP3    H243315   0.794   0.963   2.480  0.6842 -1.3653  0.6101
14465TIP3   OH243316   8.288   0.600   6.445  0.5023  0.1222  0.1912
14465TIP3    H143317   8.305   0.510   6.474  3.3171  0.6821  0.4377
14465TIP3    H243318   8.295   0.596   6.350  0.2037  0.0125  0.1722
14466TIP3   OH243319   0.477   0.213   5.876  0.9239 -0.9244 -0.3272
14466TIP3    H143320   0.394   0.175   5.904  1.6008 -2.9435 -0.9565
14466TIP3    H243321   0.529   0.220   5.956 -0.3784  1.8417  0.3395
14467TIP3   OH243322   0.553   0.125   4.810 -0.0199  0.3706  0.1649
14467TIP3    H143323   0.485   0.173   4.856 -1.0597  0.5852 -1.5607
14467TIP3    H243324   0.561   0.043   4.859 -1.6901  0.2400  0.2595
14468TIP3   OH243325   7.044   8.400   6.961 -0.1046  0.1063 -0.1454
14468TIP3    H143326   7.024   8.318   7.005 -0.4919 -0.8406 -2.0258
14468TIP3    H243327   6.965   8.420   6.911  0.4741  0.9296 -0.7416
14469TIP3   OH243328   8.723   0.550   6.108  0.7257 -0.0938  0.5025
14469TIP3    H143329   8.792   0.528   6.171 -0.8752  1.4132  2.8448
14469TIP3    H243330   8.645   0.506   6.142 -0.1819  0.8082 -0.3967
14470TIP3   OH243331   8.160   1.336   5.754  0.3107  0.7575  0.2082
14470TIP3    H143332   8.171   1.275   5.827 -1.2583 -0.3998 -0.5085
14470TIP3    H243333   8.126   1.416   5.795  0.5657  0.5193  0.8916
14471TIP3   OH243334   5.385   7.957   4.186 -0.4866 -0.4559 -0.1426
14471TIP3    H143335   5.320   7.922   4.247 -0.6214  0.5678  0.3197
14471TIP3    H243336   5.445   8.008   4.241 -1.5172  1.8079 -1.0215
14472TIP3   OH243337   2.049   3.862   0.044  0.2205 -0.1685  0.0484
14472TIP3    H143338   2.094   3.840   0.125 -2.0169 -2.8532  0.6292
14472TIP3    H243339   2.090   3.806  -0.022  2.9802  2.9752 -1.0664
14473TIP3   OH243340   5.909   7.905   6.152 -0.2561 -0.6134  0.0686
14473TIP3    H143341   5.906   7.985   6.100  0.0632 -0.4265  0.3402
14473TIP3    H243342   5.994   7.907   6.196  0.0069 -1.3952 -0.3867
14474TIP3   OH243343   2.934   3.766   0.160  0.2669 -0.2781 -0.1052
14474TIP3    H143344   2.877   3.691   0.176  1.1678 -0.7759  0.7934
14474TIP3    H243345   3.018   3.728   0.136  0.0723  0.4545 -2.1138
14475TIP3   OH243346   8.169   0.589   2.772  0.3660  0.8045  0.1243
14475TIP3    H143347   8.135   0.627   2.853  1.3329 -0.8386  1.3257
14475TIP3    H243348   8.095   0.542   2.735  1.0061 -2.1082  2.3313
14476TIP3   OH243349   0.210   0.212   7.049  0.0240 -0.0093 -0.3731
14476TIP3    H143350   0.179   0.132   7.092 -0.3284  1.2492  1.7791
14476TIP3    H243351   0.230   0.185   6.959  1.3364 -2.8465  0.7115
14477TIP3   OH243352   7.877   0.046   3.025  0.1632  0.5601  0.0855
14477TIP3    H143353   7.782   0.044   3.041  0.0071 -1.9500 -0.9594
14477TIP3    H243354   7.915   0.062   3.112 -1.0882 -2.7201  1.3316
14478TIP3   OH243355   0.311   1.072   5.919 -0.0295 -0.7365 -0.0081
14478TIP3    H143356   0.313   0.990   5.969  0.5830 -1.3031 -0.9501
14478TIP3    H243357   0.367   1.055   5.843  0.1705  0.5935 -0.1606
14479TIP3   OH243358   5.724   7.257   4.390  0.7190 -0.4033  0.6287
14479TIP3    H143359   5.755   7.199   4.320  1.6993 -1.8049  2.1777
14479TIP3    H243360   5.661   7.203   4.439 -0.2497  0.6901  0.6081
14480TIP3   OH243361   6.059   8.081   2.766  0.1786 -0.0615  0.2561
14480TIP3    H143362   6.004   8.047   2.695 -1.0728  2.0649  0.1493
14480TIP3    H243363   6.036   8.027   2.842 -0.6366 -0.4466 -0.2507
14481TIP3   OH243364   8.354   1.701   5.448  0.0693 -0.1768  0.1721
14481TIP3    H143365   8.361   1.615   5.406  0.8942  0.4995 -1.1210
14481TIP3    H243366   8.371   1.684   5.540  2.0374 -1.1648 -0.3364
14482TIP3   OH243367   2.547   1.829   5.076 -0.0884  0.5738  0.1589
14482TIP3    H143368   2.570   1.779   5.155 -1.7881 -0.4193  0.0376
14482TIP3    H243369   2.632   1.855   5.039  0.7212  1.3723  2.4896
14483TIP3   OH243370   1.182   0.820   5.028  0.3073 -0.2767  0.9280
14483TIP3    H143371   1.260   0.824   5.084  0.4986  2.2856  0.5358
14483TIP3    H243372   1.214   0.843   4.941 -0.6462 -0.6319  0.4835
14484TIP3   OH243373   6.463   8.384   3.297 -0.6288  1.0527  0.3161
14484TIP3    H143374   6.497   8.463   3.340 -1.4855  1.3943  0.3815
14484TIP3    H243375   6.458   8.319   3.367 -3.4000  2.0281  1.1219
14485TIP3   OH243376   7.910   0.826   2.672 -0.3557  0.1362  0.3429
14485TIP3    H143377   7.979   0.892   2.660  0.5333 -1.0130 -1.0648
14485TIP3    H243378   7.829   0.876   2.676  0.5636  1.5376  2.2147
14486TIP3   OH243379   6.119   8.325   6.486  0.1710  0.0211  0.6133
14486TIP3    H143380   6.176   8.318   6.409 -2.0596 -1.3890 -0.9512
14486TIP3    H243381   6.063   8.401   6.467 -2.4155 -2.1075 -0.6024
14487TIP3   OH243382   5.871   7.317   5.864 -0.9920  0.3599  0.3905
14487TIP3    H143383   5.920   7.398   5.847 -0.9614  0.4189  0.7380
14487TIP3    H243384   5.899   7.257   5.796  0.8797 -0.1757  1.5799
14488TIP3   OH243385   5.081   7.793   4.673 -0.5141 -0.1742 -0.1095
14488TIP3    H143386   5.077   7.806   4.579 -1.8260  0.1817 -0.0144
14488TIP3    H243387   4.990   7.777   4.699 -0.1443 -0.4431  1.0682
14489TIP3   OH243388   5.129   6.221   4.705 -0.0996  0.9739  0.1991
14489TIP3    H143389   5.047   6.205   4.659  0.2707  0.9709 -0.4793
14489TIP3    H243390   5.120   6.176   4.788 -0.1092 -0.5376 -0.6017
14490TIP3   OH243391   5.128   6.712   4.598 -0.0951  0.0619  0.4596
14490TIP3    H143392   5.113   6.621   4.625  0.1012  0.1848  0.9868
14490TIP3    H243393   5.126   6.709   4.502  2.7778 -1.0056  0.3663
14491TIP3   OH243394   7.541   0.385   6.681  0.4740  0.2646  0.2066
14491TIP3    H143395   7.480   0.318   6.712  1.5153 -1.4756 -1.3700
14491TIP3    H243396   7.558   0.440   6.757 -1.5449 -0.3813  1.1509
14492TIP3   OH243397   5.939   7.938   4.933 -0.3943  0.1357  0.6340
14492TIP3    H143398   5.872   7.975   4.990 -2.5789  0.2372 -1.9074
14492TIP3    H243399   5.980   8.014   4.891  1.7958  0.1127  2.6152
14493TIP3   OH243400   2.968   2.703   2.061  0.0986 -0.2311 -0.3985
14493TIP3    H143401   3.039   2.682   2.122 -1.9386 -0.7890  1.8731
14493TIP3    H243402   2.978   2.796   2.043  1.3191 -0.2756  0.0134
14494TIP3   OH243403   3.610   6.918   4.171 -0.6130 -0.1676 -0.0934
14494TIP3    H143404   3.584   6.863   4.244  0.8372  0.3968  0.8692
14494TIP3    H243405   3.677   6.976   4.207  0.9046 -0.5903 -2.1048
14495TIP3   OH243406   5.005   7.007   5.624  0.1730  0.3627  0.1248
14495TIP3    H143407   5.037   6.973   5.708  1.1318  0.6849 -0.1087
14495TIP3    H243408   4.937   7.069   5.648 -0.6922 -0.7406  0.6029
14496TIP3   OH243409   8.775   0.599   4.867 -0.1439 -0.0107 -0.6687
14496TIP3    H143410   8.860   0.622   4.830  1.2833 -2.4000  1.0609
14496TIP3    H243411   8.724   0.567   4.793  0.9981 -0.0661 -1.4332
14497TIP3   OH243412   4.862   7.813   5.574  0.6919  0.7799 -0.6185
14497TIP3    H143413   4.934   7.753   5.592  0.7609  1.0809  0.1563
14497TIP3    H243414   4.885   7.892   5.623  0.5163  1.3709 -1.4833
14498TIP3   OH243415   6.392   7.652   3.136 -0.2926 -0.3599  0.1271
14498TIP3    H143416   6.319   7.650   3.198 -0.1506  0.3658  0.3173
14498TIP3    H243417   6.397   7.743   3.108 -1.0216 -0.8767 -1.7452
14499TIP3   OH243418   4.871   7.243   5.274  0.3053  0.0657 -0.1160
14499TIP3    H143419   4.817   7.312   5.314  2.4125  0.8673  1.4504
14499TIP3    H243420   4.941   7.291   5.229  1.7688 -0.9930  0.9572
14500TIP3   OH243421   6.635   7.110   3.953 -0.2607 -0.0487 -0.1233
14500TIP3    H143422   6.664   7.190   3.909  1.9843 -0.8652 -0.2250
14500TIP3    H243423   6.674   7.115   4.040 -0.3761 -0.8561 -0.0175
14501TIP3   OH243424   3.966   5.308   5.646  0.2290  0.0049  0.1491
14501TIP3    H143425   4.057   5.309   5.616  0.1656 -0.8504 -0.0920
14501TIP3    H243426   3.969   5.262   5.730  0.2142  1.2325  0.8446
14502TIP3   OH243427   3.683   3.914   1.586 -0.1402 -0.9310 -0.2067
14502TIP3    H143428   3.732   3.969   1.647 -0.5914 -0.3866 -0.3237
14502TIP3    H243429   3.606   3.887   1.634  0.9332 -2.9292  0.4395
14503TIP3   OH243430   8.255   2.107   3.909 -0.0948  0.2391  0.1549
14503TIP3    H143431   8.337   2.079   3.867  0.3584  0.2262  1.0276
14503TIP3    H243432   8.279   2.119   4.001 -1.3172 -0.7517  0.6169
14504TIP3   OH243433   4.899   8.297   7.162 -0.5771  0.3831  0.1036
14504TIP3    H143434   4.980   8.345   7.181  0.5280 -0.9299 -1.1881
14504TIP3    H243435   4.914   8.209   7.195 -1.3864  0.0474 -0.3913
14505TIP3   OH243436   6.020   3.987   6.838 -0.3262  0.3139 -0.0255
14505TIP3    H143437   6.009   4.064   6.782 -0.2512  0.1189 -0.3059
14505TIP3    H243438   6.020   3.913   6.778  0.9354  0.1860  0.1102
14506TIP3   OH243439   4.574   7.659   4.618 -0.4912  0.2186 -0.0769
14506TIP3    H143440   4.579   7.731   4.555 -1.2070  1.5953  1.4299
14506TIP3    H243441   4.492   7.614   4.597 -1.8712  2.0247  1.2715
14507TIP3   OH243442   7.039   0.323   4.285  0.3637 -0.1990  0.9900
14507TIP3    H143443   7.074   0.237   4.307  1.6772 -0.5008 -2.0188
14507TIP3    H243444   7.111   0.383   4.304  0.4193 -0.0996  0.4620
14508TIP3   OH243445   3.360   7.771   0.132 -0.9951 -0.0475 -0.1519
14508TIP3    H143446   3.319   7.812   0.056 -0.8856  2.4094  1.0859
14508TIP3    H243447   3.451   7.799   0.128 -0.8457 -0.4255  0.5469
14509TIP3   OH243448   8.304   1.144   6.251  0.3177 -0.5836 -0.1232
14509TIP3    H143449   8.296   1.082   6.179  0.2006 -1.2313  0.4300
14509TIP3    H243450   8.224   1.130   6.302  0.4800 -0.2594  0.2209
14510TIP3   OH243451   0.357  -0.010   2.919 -0.0677  0.1757  0.7971
14510TIP3    H143452   0.430   0.014   2.862 -0.1699 -0.0235  0.5831
14510TIP3    H243453   0.288   0.053   2.898 -0.8315 -1.1359 -0.7555
14511TIP3   OH243454   0.201   0.305   2.153  0.7564  0.2279 -0.0284
14511TIP3    H143455   0.229   0.396   2.140 -0.1731  0.8234  1.9876
14511TIP3    H243456   0.158   0.281   2.070  3.5844  0.6139 -1.6806
14512TIP3   OH243457   0.303   0.858   2.555  0.3898  0.3305  0.4384
14512TIP3    H143458   0.333   0.874   2.645 -1.9272  2.0102  0.9614
14512TIP3    H243459   0.335   0.933   2.506  0.5830  0.0386  0.1168
14513TIP3   OH243460   0.283   0.107   6.793  0.2401 -0.6209 -0.1638
14513TIP3    H143461   0.351   0.135   6.730  2.3756  1.4935  2.9177
14513TIP3    H243462   0.209   0.164   6.774  1.4012  1.0410  0.1756
14514TIP3   OH243463   7.973   0.515   5.509 -0.3678 -0.7045  0.3244
14514TIP3    H143464   7.964   0.467   5.427 -0.9167 -0.0853  0.0186
14514TIP3    H243465   7.993   0.605   5.482  0.9627 -0.8170  0.8959
14515TIP3   OH243466   6.451   7.875   3.445  0.0039 -0.2109 -0.1321
14515TIP3    H143467   6.498   7.793   3.463  2.6741  0.9424 -1.6828
14515TIP3    H243468   6.421   7.866   3.355 -0.9731 -0.0539  0.1710
14516TIP3   OH243469   5.147   6.597   3.811  0.7624 -0.0880  0.5817
14516TIP3    H143470   5.063   6.597   3.764  0.7946  2.1685  0.4764
14516TIP3    H243471   5.187   6.513   3.788 -0.6556 -0.3962 -0.8542
14517TIP3   OH243472   6.030   7.007   5.365 -0.1718  0.0582  0.2675
14517TIP3    H143473   6.037   7.096   5.399  0.1350 -0.5473  1.8537
14517TIP3    H243474   5.979   6.960   5.431  2.1865 -1.6542  0.9412
14518TIP3   OH243475   8.491   0.614   4.334 -0.4526  0.4382 -0.5587
14518TIP3    H143476   8.489   0.679   4.263  0.0272  0.1960 -0.8001
14518TIP3    H243477   8.415   0.559   4.319 -0.8932  0.9775 -0.3227
14519TIP3   OH243478   4.848   5.056   4.925 -0.2755 -0.4480  0.1188
14519TIP3    H143479   4.853   4.962   4.906  0.1615 -0.4554  0.2616
14519TIP3    H243480   4.818   5.095   4.844 -5.0257 -1.1939  1.3465
14520TIP3   OH243481   0.006   0.521   5.196  0.0029  0.2342 -0.3979
14520TIP3    H143482   0.074   0.465   5.234  0.0428  0.6296  0.1198
14520TIP3    H243483  -0.062   0.461   5.168  0.6895 -0.1903 -1.1757
14521TIP3   OH243484   8.796   1.593   2.067 -0.2214  0.0311  0.5688
14521TIP3    H143485   8.704   1.605   2.044 -0.3795 -3.6640 -1.1437
14521TIP3    H243486   8.840   1.583   1.982  1.7326  1.4524  1.3847
14522TIP3   OH243487   0.826   1.597   5.126 -0.0314 -0.1043  0.4637
14522TIP3    H143488   0.836   1.687   5.158  1.7390  0.4113 -1.4533
14522TIP3    H243489   0.754   1.602   5.064 -0.4345 -0.1812  0.9191
14523TIP3   OH243490   4.278   7.992   5.128  0.3999  0.9755 -0.0825
14523TIP3    H143491   4.300   8.053   5.198 -0.4003 -0.8092  1.7925
14523TIP3    H243492   4.315   7.908   5.158 -1.1628 -0.1084 -1.1392
14524TIP3   OH243493   6.548   5.483   5.012  0.1342 -0.1662 -0.0109
14524TIP3    H143494   6.523   5.403   4.965 -0.8931 -0.7204  1.4324
14524TIP3    H243495   6.623   5.456   5.065  1.4213  0.5100 -1.4908
14525TIP3   OH243496   8.823   1.544   2.500 -0.4193  0.0614 -0.0425
14525TIP3    H143497   8.891   1.483   2.470  0.1412  0.7186 -0.1392
14525TIP3    H243498   8.764   1.491   2.552  0.1585 -0.5339  0.0141
14526TIP3   OH243499   6.441   5.612   6.988  0.3457 -0.1131 -0.4558
14526TIP3    H143500   6.428   5.605   7.082  1.8190 -2.3600 -0.3792
14526TIP3    H243501   6.355   5.597   6.949  0.5136 -3.6470  0.3963
14527TIP3   OH243502   1.692   2.013   3.670 -0.0083 -0.3462 -0.3163
14527TIP3    H143503   1.611   2.040   3.713  0.1413  1.9295 -1.3851
14527TIP3    H243504   1.747   2.092   3.671  2.3835 -1.9884  0.8145
14528TIP3   OH243505   1.174   1.348   5.595 -0.0454  0.1260  0.4810
14528TIP3    H143506   1.097   1.291   5.593  0.7241 -0.9737  1.2749
14528TIP3    H243507   1.198   1.353   5.687  0.1479  1.4103  0.3684
14529TIP3   OH243508   0.168   0.035   5.274  0.0189  0.2696  0.2971
14529TIP3    H143509   0.167   0.019   5.179 -1.0798  0.8827  0.2023
14529TIP3    H243510   0.260   0.056   5.293  0.5058 -1.1688 -0.3993
14530TIP3   OH243511   1.603   1.075   4.225  0.6868  0.0554 -0.4913
14530TIP3    H143512   1.618   1.167   4.203 -2.1341  0.8282  0.5301
14530TIP3    H243513   1.567   1.078   4.314  0.2366 -2.0147 -0.5813
14531TIP3   OH243514   8.730   1.469   4.039 -0.0517 -0.5659  0.0009
14531TIP3    H143515   8.783   1.396   4.069 -0.2249 -0.4772  0.5222
14531TIP3    H243516   8.730   1.531   4.112  0.8186  0.3538 -0.7554
14532TIP3   OH243517   2.699   0.986   4.735  0.0686  0.3520  0.7415
14532TIP3    H143518   2.645   1.053   4.775 -0.5301  0.8847 -0.8978
14532TIP3    H243519   2.779   0.985   4.786 -0.6481  1.0360  1.8891
14533TIP3   OH243520   3.679   1.120   7.157  0.1953  0.0899 -0.0994
14533TIP3    H143521   3.682   1.135   7.062  0.0182  0.1544 -0.0965
14533TIP3    H243522   3.596   1.159   7.184 -0.2671 -0.8829 -0.0844
14534TIP3   OH243523   8.352   7.373   2.111  0.9748 -0.2629  0.2663
14534TIP3    H143524   8.366   7.355   2.018  1.8659  1.4563  0.0421
14534TIP3    H243525   8.421   7.436   2.134  1.2775 -1.2907  2.2900
14535TIP3   OH243526   8.319   5.903   4.403  0.1775 -0.1310  0.2666
14535TIP3    H143527   8.323   5.974   4.467  0.0107  2.2183 -2.2328
14535TIP3    H243528   8.225   5.883   4.396  0.1609 -0.1274  0.4667
14536TIP3   OH243529   0.776   1.700   4.465  0.2158  0.3220 -0.4984
14536TIP3    H143530   0.749   1.643   4.393  1.4660 -2.4244  1.1460
14536TIP3    H243531   0.869   1.682   4.478  0.0535  0.8855  1.7033
14537TIP3   OH243532   0.138   0.741   6.108 -0.0087  0.1212 -0.2906
14537TIP3    H143533   0.072   0.804   6.081  0.7384  0.7189 -0.7484
14537TIP3    H243534   0.221   0.782   6.083  0.6812  0.4253  2.3060
14538TIP3   OH243535   6.920   6.693   3.752  0.5741  0.1705 -0.1393
14538TIP3    H143536   6.990   6.751   3.782  1.7886 -0.8891 -0.8722
14538TIP3    H243537   6.952   6.605   3.772 -1.5531 -0.2686  1.6341
14539TIP3   OH243538   2.657   0.168   3.503  0.3331 -0.1243 -0.2105
14539TIP3    H143539   2.566   0.194   3.521  0.5105  1.1428 -1.0821
14539TIP3    H243540   2.673   0.094   3.562 -1.3952 -0.6234 -0.3309
14540TIP3   OH243541   8.484   0.985   5.703  0.0263 -0.5704 -0.2462
14540TIP3    H143542   8.488   0.975   5.798 -0.3769  0.7787 -0.0821
14540TIP3    H243543   8.391   0.974   5.682 -0.2063  1.1927 -0.2291
14541TIP3   OH243544   1.382   1.327   4.743 -0.3633  0.8517  0.2974
14541TIP3    H143545   1.289   1.310   4.732 -0.3310  0.7462  0.1813
14541TIP3    H243546   1.387   1.396   4.809 -0.5461  1.2926 -0.1479
14542TIP3   OH243547   2.001   2.217   4.166 -0.1703 -0.0330  0.1508
14542TIP3    H143548   2.002   2.126   4.195  2.3188  0.4778  1.7424
14542TIP3    H243549   2.011   2.211   4.071  1.1745 -1.3930  0.3520
14543TIP3   OH243550   1.773   0.140   3.148  0.1299  0.0537  0.5386
14543TIP3    H143551   1.709   0.098   3.206  1.0850 -1.1862  0.7125
14543TIP3    H243552   1.742   0.119   3.060 -0.1554  0.1593  0.6118
14544TIP3   OH243553   1.713   3.815   2.727 -0.0058 -0.3569 -0.8128
14544TIP3    H143554   1.797   3.788   2.691  0.4094 -1.3457  0.8467
14544TIP3    H243555   1.721   3.910   2.737  1.0519 -0.4828 -0.3498
14545TIP3   OH243556   4.810   7.695   4.739  0.4733 -0.1843  0.0558
14545TIP3    H143557   4.721   7.663   4.722 -0.1707  0.5714  1.8551
14545TIP3    H243558   4.858   7.617   4.768 -0.0580 -0.2701  0.7091
14546TIP3   OH243559   0.449   2.167   5.971 -0.2914 -0.1935 -0.4959
14546TIP3    H143560   0.384   2.228   5.936 -1.1960 -0.0413  1.3697
14546TIP3    H243561   0.525   2.221   5.989 -0.5899  0.1271 -0.1844
14547TIP3   OH243562   7.792   5.997   4.128 -0.7968  0.0354  0.0841
14547TIP3    H143563   7.861   6.013   4.063 -2.1380  1.8774 -0.9005
14547TIP3    H243564   7.712   6.028   4.087 -2.4959 -3.2749  0.7186
14548TIP3   OH243565   0.581   0.653   5.215  0.1119  0.2483  0.3783
14548TIP3    H143566   0.527   0.730   5.234 -0.1834  0.9471 -2.9409
14548TIP3    H243567   0.671   0.685   5.222  0.0005  0.6724 -0.0775
14549TIP3   OH243568   8.368   0.335   4.642  0.0857  0.2388  0.3164
14549TIP3    H143569   8.385   0.241   4.630  0.6616  0.4920 -0.9018
14549TIP3    H243570   8.284   0.350   4.599  0.1356  0.3402  0.2543
14550TIP3   OH243571   0.555   0.496   6.546  0.6039 -0.5306 -0.2523
14550TIP3    H143572   0.547   0.466   6.636  0.4804 -0.1241 -0.1275
14550TIP3    H243573   0.646   0.525   6.538 -0.2638  2.6200  0.7360
14551TIP3   OH243574   0.158   0.548   5.674 -0.0083 -0.1535 -0.3912
14551TIP3    H143575   0.091   0.571   5.738  0.8705  0.8593  0.1876
14551TIP3    H243576   0.182   0.458   5.697 -0.1545 -0.0191  0.3199
14552TIP3   OH243577   8.675   0.887   6.203 -0.3179 -0.0849  0.1661
14552TIP3    H143578   8.644   0.928   6.123  0.7473  1.4090  0.4977
14552TIP3    H243579   8.622   0.925   6.272  1.0061  1.1475  0.5303
14553TIP3   OH243580   0.571   7.968   3.465  0.1792 -0.1369 -0.2830
14553TIP3    H143581   0.592   8.030   3.396 -1.3783 -0.2691 -0.9041
14553TIP3    H243582   0.498   8.009   3.512 -0.9427 -1.5128 -0.7758
14554TIP3   OH243583   8.127   5.849   2.544  0.0329 -0.2204  0.0288
14554TIP3    H143584   8.130   5.760   2.511  0.2472  0.4426 -1.8211
14554TIP3    H243585   8.041   5.857   2.586 -0.1894 -1.1449 -0.2459
14555TIP3   OH243586   7.902   0.852   4.113  0.7923 -0.0426  0.2433
14555TIP3    H143587   7.971   0.803   4.156 -0.9988 -0.9765  2.1204
14555TIP3    H243588   7.846   0.883   4.184 -1.1325  0.0573 -1.2611
14556TIP3   OH243589   6.353   7.961   6.803 -0.1333  0.4978  0.4733
14556TIP3    H143590   6.348   8.002   6.889  1.4102 -3.2532  2.5179
14556TIP3    H243591   6.430   7.903   6.810 -1.5900 -1.8909 -2.4868
14557TIP3   OH243592   2.134   1.458   4.472  0.2925  0.2847  0.2846
14557TIP3    H143593   2.042   1.453   4.495  0.1739 -1.5797 -0.4778
14557TIP3    H243594   2.174   1.512   4.540 -0.7603 -1.6952  2.5171
14558TIP3   OH243595   1.481   1.099   3.008 -0.8543  0.2362 -0.2196
14558TIP3    H143596   1.431   1.017   3.018 -1.4452  0.5260 -0.7595
14558TIP3    H243597   1.572   1.070   2.998 -0.8637 -0.2861  1.0554
14559TIP3   OH243598   5.960   6.653   5.911  0.2784  0.0135 -0.0095
14559TIP3    H143599   5.912   6.612   5.983 -1.3996  0.9560 -0.5671
14559TIP3    H243600   5.960   6.746   5.931  0.0064  0.2622 -1.1154
14560TIP3   OH243601   3.488   1.820   2.514 -0.2365 -0.0707 -0.1217
14560TIP3    H143602   3.450   1.884   2.574  0.3194  0.5017 -0.3683
14560TIP3    H243603   3.517   1.748   2.569 -1.2316 -0.2898  0.1167
14561TIP3   OH243604   8.445   0.576   5.121  0.0932  0.3644  0.4453
14561TIP3    H143605   8.472   0.552   5.033  2.7374  0.2999  1.2221
14561TIP3    H243606   8.489   0.659   5.138 -0.5568  0.4826  1.6151
14562TIP3   OH243607   7.531   6.818   3.893  0.2018 -0.2227  0.3262
14562TIP3    H143608   7.543   6.746   3.832 -1.0346 -0.7743  0.7199
14562TIP3    H243609   7.438   6.841   3.885  0.7128  1.7479 -0.2652
14563TIP3   OH243610   0.120   0.343   4.690  0.3402 -0.7635 -0.0793
14563TIP3    H143611   0.204   0.370   4.726  0.7983 -1.6651 -0.4549
14563TIP3    H243612   0.130   0.351   4.595  0.1571 -1.3019 -0.1462
14564TIP3   OH243613   7.779   7.773   1.934 -0.3178  0.3803 -0.3545
14564TIP3    H143614   7.733   7.839   1.984 -0.7002 -1.7956  2.3052
14564TIP3    H243615   7.868   7.807   1.925 -0.5433  1.3095  0.8609
14565TIP3   OH243616   7.778   8.276   2.310 -0.1693 -0.7802 -0.4011
14565TIP3    H143617   7.810   8.224   2.236  0.2835 -2.3810  0.8863
14565TIP3    H243618   7.855   8.319   2.346  0.1536 -2.4639  1.0125
14566TIP3   OH243619   8.877   7.371   3.934 -0.3360  0.5861  0.4768
14566TIP3    H143620   8.815   7.304   3.906  1.1409 -0.6682  0.1000
14566TIP3    H243621   8.895   7.350   4.026  0.3560  0.2735  0.2732
14567TIP3   OH243622   2.080   8.079   4.158 -0.1904  0.1626  0.1299
14567TIP3    H143623   2.038   8.135   4.223 -0.1015 -1.0664  1.2570
14567TIP3    H243624   2.018   8.076   4.085 -0.8461  0.5340  0.6717
14568TIP3   OH243625   6.354   7.968   3.159 -0.1203 -0.1695  0.0871
14568TIP3    H143626   6.283   8.028   3.136  0.1837  0.0399 -0.3016
14568TIP3    H243627   6.422   7.984   3.093 -0.2483 -1.3038 -0.3309
14569TIP3   OH243628   7.045   7.823   3.862  0.3820  0.8887 -0.6438
14569TIP3    H143629   7.050   7.807   3.956  1.1810  0.8145 -0.6934
14569TIP3    H243630   7.098   7.901   3.848  0.1038  1.0155 -1.0079
14570TIP3   OH243631   7.378   7.531   3.983 -0.5609 -0.9091  0.1320
14570TIP3    H143632   7.471   7.533   4.006 -0.5362 -1.0457  0.0490
14570TIP3    H243633   7.355   7.439   3.987 -1.0296 -0.7380  1.4529
14571TIP3   OH243634   3.848   0.905   5.940  0.3094  0.1709 -0.6895
14571TIP3    H143635   3.761   0.889   5.904 -0.4026  0.3425  0.8945
14571TIP3    H243636   3.859   1.000   5.934  0.3745  0.1532 -0.8562
14572TIP3   OH243637   1.363   1.973   2.599 -0.6805  0.0406  0.3571
14572TIP3    H143638   1.312   1.909   2.649 -0.2880  0.9947  2.0310
14572TIP3    H243639   1.445   1.982   2.648  0.0854  0.3256 -0.9646
14573TIP3   OH243640   5.099   7.282   5.481 -0.0556  0.4741  0.0332
14573TIP3    H143641   5.119   7.192   5.504 -0.4502  0.7464  1.5062
14573TIP3    H243642   5.003   7.289   5.490 -0.0356  1.0170 -0.1202
14574TIP3   OH243643   0.401   1.794   4.732 -0.1542 -0.0744  0.5568
14574TIP3    H143644   0.341   1.803   4.806  0.5756  0.9160  1.0501
14574TIP3    H243645   0.398   1.879   4.689 -0.4528 -0.6004 -0.4622
14575TIP3   OH243646   1.940   0.832   3.146 -0.1912 -0.1281 -0.3112
14575TIP3    H143647   1.908   0.780   3.072  1.3152 -1.0377 -0.3557
14575TIP3    H243648   1.910   0.785   3.224 -0.6855  0.1283 -0.3470
14576TIP3   OH243649   8.638   1.954   5.654 -0.0267  0.4270 -0.5610
14576TIP3    H143650   8.564   1.996   5.610  0.0793  0.7073 -0.4756
14576TIP3    H243651   8.605   1.932   5.741 -0.0782  0.3459 -0.6014
14577TIP3   OH243652   5.934   8.315   3.270  0.6617  0.0750 -0.0606
14577TIP3    H143653   5.866   8.247   3.277  1.7267 -0.9080  0.9210
14577TIP3    H243654   5.922   8.368   3.349  0.5368  0.3667 -0.2775
14578TIP3   OH243655   1.003   1.059   5.010 -0.3280  0.1541 -0.6565
14578TIP3    H143656   1.069   0.999   5.045  0.7491  1.9203  0.4179
14578TIP3    H243657   0.967   1.102   5.087 -0.7539  1.2305 -1.4512
14579TIP3   OH243658   4.232   8.258   4.499 -0.2160  0.5433  0.2763
14579TIP3    H143659   4.171   8.301   4.559  1.2614  0.6386  1.7293
14579TIP3    H243660   4.201   8.168   4.494 -0.9512  0.7863  0.3617
14580TIP3   OH243661   8.892   7.519   1.766  0.0800 -0.4447 -0.2669
14580TIP3    H143662   8.820   7.467   1.731 -0.6130  0.9139 -0.9112
14580TIP3    H243663   8.960   7.513   1.699  0.1188 -0.7775 -0.1962
14581TIP3   OH243664   0.056   7.631   2.958  0.4772 -0.0242 -0.2183
14581TIP3    H143665  -0.019   7.599   2.908 -0.7500  0.6074  1.1801
14581TIP3    H243666   0.022   7.704   3.009  1.7382 -0.4756  1.3317
14582TIP3   OH243667   4.409   7.087   3.422  0.8658 -0.7879 -0.1185
14582TIP3    H143668   4.461   7.036   3.483  0.7968 -2.4999 -1.4663
14582TIP3    H243669   4.376   7.160   3.474  2.6148 -1.0033  1.3332
14583TIP3   OH243670   8.291   6.849   3.457 -0.6713 -0.4724  0.2935
14583TIP3    H143671   8.228   6.921   3.452 -0.2142  0.0141  1.3854
14583TIP3    H243672   8.296   6.816   3.367 -0.0923  1.5418 -0.4455
14584TIP3   OH243673   0.374   6.710   1.731 -0.4254 -0.6752  0.2881
14584TIP3    H143674   0.458   6.685   1.769  0.0894  1.0445  0.3290
14584TIP3    H243675   0.361   6.651   1.657  1.4407 -0.1049 -0.5091
14585TIP3   OH243676   0.381   7.551   4.542 -0.0719 -0.0171 -0.5326
14585TIP3    H143677   0.344   7.610   4.476 -2.3427  0.5235  1.1715
14585TIP3    H243678   0.475   7.570   4.541 -0.0798  0.0862 -3.4630
14586TIP3   OH243679   7.638   7.010   2.519  0.4294 -0.0454  0.4854
14586TIP3    H143680   7.597   7.028   2.604  0.4102  0.8681  0.2868
14586TIP3    H243681   7.571   6.962   2.471  0.8283 -1.5145  1.3582
14587TIP3   OH243682   6.016   8.012   3.212 -0.3235  0.1034 -0.5498
14587TIP3    H143683   5.970   8.045   3.289 -0.6475  0.6794 -0.9874
14587TIP3    H243684   6.096   8.066   3.206 -0.0516 -0.2752 -0.3253
14588TIP3   OH243685   5.705   7.762   4.324  0.1662  0.3443  0.0307
14588TIP3    H143686   5.799   7.759   4.340 -0.2506  0.0273  2.7381
14588TIP3    H243687   5.686   7.682   4.275  0.9052 -1.1780  2.1357
14589TIP3   OH243688   6.115   8.372   4.999  0.0680 -0.6513  0.1995
14589TIP3    H143689   6.080   8.386   4.911 -0.4179 -0.0511  0.4773
14589TIP3    H243690   6.207   8.396   4.992 -0.6367  2.4321  0.5495
14590TIP3   OH243691   1.571   0.845   4.084  0.0023 -0.0073  0.3454
14590TIP3    H143692   1.569   0.768   4.141  0.2987  0.2728  0.7333
14590TIP3    H243693   1.575   0.920   4.144  2.6305  0.2084 -0.0628
14591TIP3   OH243694   8.305   7.325   3.553  0.4682  0.6076  0.1419
14591TIP3    H143695   8.317   7.420   3.542 -1.3374  0.9515  0.9195
14591TIP3    H243696   8.219   7.307   3.514  2.0509 -1.2419 -2.6499
14592TIP3   OH243697   2.589   1.014   4.089  0.3508  0.2504 -0.4300
14592TIP3    H143698   2.496   1.025   4.070  0.2760  2.1426  0.7993
14592TIP3    H243699   2.631   1.088   4.046  1.0153  0.5775  0.7648
14593TIP3   OH243700   8.468   0.857   2.848  0.0521  0.0522  0.9586
14593TIP3    H143701   8.548   0.874   2.797 -0.2137  1.7081  1.0498
14593TIP3    H243702   8.420   0.793   2.796  0.7448  0.1838  0.1340
14594TIP3   OH243703   1.609   0.363   4.725 -0.1632  0.0435  0.6338
14594TIP3    H143704   1.586   0.339   4.815 -2.1162  0.1401  0.1905
14594TIP3    H243705   1.682   0.423   4.733  1.1918 -1.7437  2.0427
14595TIP3   OH243706   5.918   7.848   5.501 -0.2886  0.1978  0.0131
14595TIP3    H143707   5.911   7.855   5.596  0.0713  0.6859  0.0022
14595TIP3    H243708   6.006   7.878   5.480  0.0428 -1.0155 -0.3726
14596TIP3   OH243709   0.532   0.503   4.121  0.1371 -0.0130  0.3760
14596TIP3    H143710   0.480   0.489   4.041  0.8566 -0.3534 -0.0355
14596TIP3    H243711   0.473   0.550   4.179 -1.2978 -2.1036  0.6531
14597TIP3   OH243712   6.560   8.005   2.989  0.4172 -1.1136 -0.1207
14597TIP3    H143713   6.583   8.093   3.021 -0.5389 -0.8300 -0.1840
14597TIP3    H243714   6.640   7.954   2.998  1.2128 -0.0091 -0.8640
14598TIP3   OH243715   1.521   1.307   6.097  0.3835 -0.2581  0.9766
14598TIP3    H143716   1.530   1.298   6.002  0.6737  1.9392  0.7585
14598TIP3    H243717   1.446   1.252   6.119  0.0775 -0.5039 -0.5888
14599TIP3   OH243718   5.409   6.512   5.104  0.2778  0.7347 -0.2442
14599TIP3    H143719   5.500   6.491   5.123 -0.0746  0.5964  1.3849
14599TIP3    H243720   5.364   6.427   5.106 -0.0905  0.9398  0.1394
14600TIP3   OH243721   5.471   6.534   4.572  0.3878  0.0926 -0.1275
14600TIP3    H143722   5.545   6.473   4.576  0.1194 -0.3010 -1.0079
14600TIP3    H243723   5.417   6.502   4.499 -1.6534 -0.7470  1.6833
14601TIP3   OH243724   6.336   7.345   2.446  0.2604  0.3295  0.3349
14601TIP3    H143725   6.382   7.307   2.521 -0.5361  0.3579  0.8451
14601TIP3    H243726   6.280   7.275   2.413 -0.3841  0.7147  0.5973
14602TIP3   OH243727   4.045   1.085   1.879 -0.4721 -0.9053 -0.6036
14602TIP3    H143728   3.973   1.148   1.885 -1.4861 -1.9727 -1.2132
14602TIP3    H243729   4.124   1.136   1.898 -1.4463  0.1581  0.6811
14603TIP3   OH243730   6.552   5.976   5.545  0.1282 -0.5782  0.3056
14603TIP3    H143731   6.617   6.040   5.574  0.1520 -0.2469 -0.4667
14603TIP3    H243732   6.478   6.030   5.516  0.5140 -0.8762 -1.2334
14604TIP3   OH243733   4.960   7.302   4.140  0.0989 -0.1671  0.1932
14604TIP3    H143734   5.011   7.272   4.215  0.5602 -0.8449 -0.3905
14604TIP3    H243735   5.024   7.339   4.079 -0.2180 -0.0673 -0.0860
14605TIP3   OH243736   2.226   1.142   6.289 -1.0474 -0.5223 -0.7304
14605TIP3    H143737   2.164   1.118   6.221 -1.5541 -1.1876 -0.0267
14605TIP3    H243738   2.311   1.140   6.245 -1.3591 -1.0892 -1.3092
14606TIP3   OH243739   0.751   2.043   4.723  0.2970  0.0171  0.9835
14606TIP3    H143740   0.731   1.972   4.785 -1.0214  0.5371  1.1740
14606TIP3    H243741   0.786   2.113   4.777  2.2561 -0.7254  0.7077
14607TIP3   OH243742   1.093   1.024   4.623 -0.6287  0.3564  0.5625
14607TIP3    H143743   1.124   1.113   4.602 -1.1992  0.0191 -1.8413
14607TIP3    H243744   1.068   0.987   4.538 -1.8838 -1.5485  1.7383
14608TIP3   OH243745   4.982   0.845   4.377 -0.4878 -0.3188  0.0138
14608TIP3    H143746   4.985   0.780   4.448  0.0536  0.8030  1.0280
14608TIP3    H243747   4.898   0.889   4.389 -1.3838 -1.6031 -1.3877
14609TIP3   OH243748   3.333   0.313   3.683  0.4953  0.3439  0.2261
14609TIP3    H143749   3.257   0.370   3.673  0.3151 -0.3821 -3.2746
14609TIP3    H243750   3.407   0.373   3.687  0.0205  0.9467  0.0894
14610TIP3   OH243751   0.284   0.093   2.568  0.2086  0.2751  0.1002
14610TIP3    H143752   0.308   0.010   2.526 -1.4174  0.4952 -1.3173
14610TIP3    H243753   0.221   0.069   2.636  1.1130  0.1697  0.9152
14611TIP3   OH243754   8.264   0.017   2.990 -0.0077 -0.5998  0.4726
14611TIP3    H143755   8.177   0.017   2.950  0.3756  1.6211 -0.4464
14611TIP3    H243756   8.254   0.069   3.070  0.4775 -0.2248  0.2965
14612TIP3   OH243757   5.121   7.934   3.871 -0.2234 -0.0406 -0.3445
14612TIP3    H143758   5.088   7.892   3.951  0.2936 -0.9513 -0.6045
14612TIP3    H243759   5.203   7.976   3.898 -0.1642 -0.1543 -0.3483
14613TIP3   OH243760   2.110   6.827   5.287  0.2501 -1.0840 -0.0833
14613TIP3    H143761   2.125   6.894   5.353  2.3130 -1.2796 -0.3087
14613TIP3    H243762   2.170   6.756   5.311  0.9021 -1.2357 -2.0437
14614TIP3   OH243763   7.516   5.783   2.157 -0.1964  0.3082  0.8614
14614TIP3    H143764   7.564   5.736   2.089  0.0049  0.4942  0.8747
14614TIP3    H243765   7.481   5.860   2.112  1.0166  1.1066  1.2629
14615TIP3   OH243766   0.359   1.167   6.273  0.1339 -0.0182  0.5562
14615TIP3    H143767   0.418   1.092   6.282 -0.7918 -0.6258  1.7878
14615TIP3    H243768   0.282   1.142   6.324 -1.1386  0.7990 -0.9241
14616TIP3   OH243769   5.559   6.853   5.714  0.2204  0.5836 -0.4551
14616TIP3    H143770   5.624   6.785   5.732  2.0870  1.9356 -1.8557
14616TIP3    H243771   5.598   6.934   5.748 -1.2089  1.2644 -0.3586
14617TIP3   OH243772   0.588   6.780   3.882 -0.0089  0.8193  0.0948
14617TIP3    H143773   0.637   6.725   3.943 -0.2278 -0.1803 -0.6003
14617TIP3    H243774   0.572   6.723   3.806  2.0103  2.6234 -1.7608
14618TIP3   OH243775   6.803   7.107   4.171 -0.1783  0.7434 -0.2217
14618TIP3    H143776   6.877   7.054   4.141 -2.8994 -1.7234 -2.8354
14618TIP3    H243777   6.782   7.072   4.257  1.8251  1.6981  0.7103
14619TIP3   OH243778   7.851   1.768   4.563 -0.3646 -0.1165  0.4743
14619TIP3    H143779   7.921   1.831   4.581  0.7095 -1.8195  2.4117
14619TIP3    H243780   7.883   1.719   4.488 -0.5421  0.6232 -0.0990
14620TIP3   OH243781   6.798   6.517   0.815 -0.0990 -0.0291 -0.0494
14620TIP3    H143782   6.767   6.530   0.905  2.2154 -0.2895  0.8057
14620TIP3    H243783   6.873   6.459   0.823 -1.0246 -1.6248 -2.3666
14621TIP3   OH243784   6.469   6.896   1.057  0.0836 -0.0739 -0.1060
14621TIP3    H143785   6.550   6.904   1.107 -0.5860  0.3199  0.9422
14621TIP3    H243786   6.493   6.923   0.968  0.7272  1.6852  0.5637
14622TIP3   OH243787   6.388   7.155   0.143  0.1836  0.1563  0.0205
14622TIP3    H143788   6.455   7.106   0.190 -2.2012 -1.3247  1.9608
14622TIP3    H243789   6.415   7.247   0.152  1.7130 -0.3877  1.1118
14623TIP3   OH243790   2.763   2.745   6.252 -0.5933  0.3463  0.1864
14623TIP3    H143791   2.830   2.786   6.307  0.8678 -2.2316  0.4197
14623TIP3    H243792   2.799   2.658   6.231 -2.4819  0.0932 -2.2961
14624TIP3   OH243793   8.553   3.425   0.167 -0.1638 -0.3581  0.0708
14624TIP3    H143794   8.643   3.454   0.155  0.1618 -0.7395  1.5132
14624TIP3    H243795   8.560   3.330   0.175 -0.8757 -0.5507 -1.3595
14625TIP3   OH243796   6.851   5.480   0.971  0.0646 -0.0925 -0.5411
14625TIP3    H143797   6.765   5.447   0.942  0.2808 -1.6219  0.4606
14625TIP3    H243798   6.911   5.451   0.903  0.2302 -1.7126  0.2617
14626TIP3   OH243799   7.180   6.321   1.145  0.2605 -0.2019  0.3731
14626TIP3    H143800   7.205   6.229   1.135 -3.5018 -1.1682 -0.9249
14626TIP3    H243801   7.243   6.369   1.090  1.4874 -2.0841  0.0778
14627TIP3   OH243802   2.886   4.240   0.032 -0.1626  0.0707 -0.0153
14627TIP3    H143803   2.888   4.335   0.027  1.1903  0.1014  0.7359
14627TIP3    H243804   2.831   4.213  -0.041  0.1069  1.3957 -0.7212
14628TIP3   OH243805   7.756   5.332   0.963  0.2189  0.1498  0.4592
14628TIP3    H143806   7.666   5.328   0.997  0.4376 -0.8714  0.9516
14628TIP3    H243807   7.758   5.268   0.893  0.3354  0.7852 -0.1217
14629TIP3   OH243808   5.507   7.080   1.713 -0.4999 -0.3890 -0.4208
14629TIP3    H143809   5.497   7.053   1.804 -2.2604  0.0878 -0.4528
14629TIP3    H243810   5.557   7.010   1.672  0.3736 -0.5653  0.9281
14630TIP3   OH243811   7.869   1.929   5.027  0.1608 -0.2352 -0.1555
14630TIP3    H143812   7.891   2.010   4.980  0.5792  0.1461  0.6675
14630TIP3    H243813   7.884   1.859   4.964 -0.4031  0.3561 -0.9451
14631TIP3   OH243814   6.605   5.083   0.801 -0.8518  0.0600 -0.1548
14631TIP3    H143815   6.631   5.155   0.745  2.1835  0.2455  1.3958
14631TIP3    H243816   6.585   5.124   0.885 -2.2340 -0.5626 -0.1643
14632TIP3   OH243817   3.503   1.730   7.219 -0.3137  0.5866 -0.0323
14632TIP3    H143818   3.460   1.724   7.134  1.2753 -0.5643 -0.7762
14632TIP3    H243819   3.443   1.687   7.280 -0.5378 -0.3516 -0.9155
14633TIP3   OH243820   6.355   7.197   0.968  0.1106  0.5660 -0.0805
14633TIP3    H143821   6.421   7.136   0.935 -0.4699 -0.2991  0.3503
14633TIP3    H243822   6.342   7.260   0.897  2.7033  1.8217  0.4714
14634TIP3   OH243823   4.055   3.582   7.152  0.5099  0.1644 -0.2004
14634TIP3    H143824   4.139   3.592   7.110  0.6669 -0.8265 -0.1350
14634TIP3    H243825   4.074   3.532   7.232 -0.3281 -1.3066 -0.8963
14635TIP3   OH243826   7.714   5.956   1.233  0.5204 -0.0424  0.0494
14635TIP3    H143827   7.715   5.928   1.325 -0.8827  0.9370  0.3956
14635TIP3    H243828   7.709   6.052   1.238  0.0245 -0.0073 -1.0295
14636TIP3   OH243829   5.444   6.701   0.426  0.3186 -0.5481 -0.0346
14636TIP3    H143830   5.436   6.613   0.462  1.1632 -0.5113  0.2507
14636TIP3    H243831   5.453   6.688   0.332  1.3509 -0.8234  0.0946
14637TIP3   OH243832   6.348   6.943   2.436  0.2611  0.1229 -0.5269
14637TIP3    H143833   6.291   7.010   2.397 -0.0938 -0.1906 -0.5411
14637TIP3    H243834   6.316   6.932   2.525  0.1969 -0.1750 -0.5879
14638TIP3   OH243835   4.696   8.094   0.803 -0.0396 -0.2525  0.2125
14638TIP3    H143836   4.737   8.028   0.859 -0.9110 -0.6038  0.4521
14638TIP3    H243837   4.754   8.170   0.808 -0.4058 -0.0629  2.0901
14639TIP3   OH243838   8.755   7.035   1.098 -0.3564 -0.4197 -0.5396
14639TIP3    H143839   8.836   7.010   1.144 -1.6469 -0.1260  1.9880
14639TIP3    H243840   8.751   7.130   1.108 -0.8118 -0.3940 -0.9933
14640TIP3   OH243841   1.342   5.678   0.742 -0.7391  0.6344  0.4817
14640TIP3    H143842   1.333   5.585   0.760  0.0426  0.4027 -0.3200
14640TIP3    H243843   1.382   5.714   0.822  0.9762 -0.0843 -0.0310
14641TIP3   OH243844   8.293   8.060   1.478 -0.0836  0.1150 -0.3751
14641TIP3    H143845   8.362   8.007   1.438 -1.1376 -1.1984 -0.4754
14641TIP3    H243846   8.340   8.131   1.521  1.3681 -1.0006 -0.0745
14642TIP3   OH243847   1.127   5.044   1.451 -0.5123 -0.1053 -0.6023
14642TIP3    H143848   1.077   4.966   1.426 -1.4329  0.9193 -2.1305
14642TIP3    H243849   1.066   5.095   1.504  0.4746 -0.9408  1.3509
14643TIP3   OH243850   4.981   7.354   1.803  0.7737 -0.2169  0.0037
14643TIP3    H143851   5.028   7.360   1.886 -0.4021  1.0478  0.6084
14643TIP3    H243852   4.935   7.270   1.807  2.2533 -1.0420 -0.2122
14644TIP3   OH243853   5.588   2.999   6.575  0.4336  0.0857 -0.6260
14644TIP3    H143854   5.536   3.011   6.654 -0.4382 -0.5125 -1.1107
14644TIP3    H243855   5.595   2.905   6.564  1.4845  0.1547 -0.6625
14645TIP3   OH243856   1.981   4.389   1.059 -0.0377 -0.6031 -0.2633
14645TIP3    H143857   1.886   4.396   1.065  0.1132  1.3718  0.2245
14645TIP3    H243858   2.012   4.415   1.146  0.9278 -1.6992 -0.2748
14646TIP3   OH243859   1.368   5.308   1.204  0.5256 -0.5254  0.0498
14646TIP3    H143860   1.345   5.296   1.296  0.9652  1.3704  0.4091
14646TIP3    H243861   1.352   5.401   1.186  0.9342 -0.7567 -1.6573
14647TIP3   OH243862   1.477   5.641   2.560 -0.1548  0.6673 -0.2394
14647TIP3    H143863   1.495   5.694   2.482  0.0202 -1.2959 -1.5716
14647TIP3    H243864   1.441   5.559   2.525 -0.0857 -0.2363  1.7510
14648TIP3   OH243865   0.617   6.806   0.931  0.2579  0.0284  0.1340
14648TIP3    H143866   0.629   6.885   0.879  0.3776  1.0186  1.6591
14648TIP3    H243867   0.664   6.738   0.882 -0.3280  0.7562 -1.4712
14649TIP3   OH243868   0.396   7.857   2.918  0.5742  0.1477 -0.4773
14649TIP3    H143869   0.305   7.874   2.895  0.0893 -0.5625  0.8847
14649TIP3    H243870   0.392   7.788   2.984  2.0515  0.7174  0.2350
14650TIP3   OH243871   2.607   6.357   0.856  0.9437  0.2305 -0.9094
14650TIP3    H143872   2.682   6.352   0.914  0.1567 -0.2122  0.0881
14650TIP3    H243873   2.585   6.450   0.854 -0.5783 -0.0326  1.5518
14651TIP3   OH243874   1.592   7.503   0.224 -0.2034 -0.2489 -0.3075
14651TIP3    H143875   1.615   7.457   0.305  0.0718  0.1133 -0.1769
14651TIP3    H243876   1.536   7.575   0.253 -1.8334 -1.3504 -0.6631
14652TIP3   OH243877   1.953   6.584   1.748  0.2290  0.1739  0.5101
14652TIP3    H143878   2.041   6.547   1.757  0.0497 -0.0197  1.5489
14652TIP3    H243879   1.966   6.663   1.696  0.6573 -1.1635 -1.4561
14653TIP3   OH243880   4.533   2.969   6.921 -0.2720  0.2323  0.0500
14653TIP3    H143881   4.530   2.885   6.875  1.7897  0.9654 -1.4833
14653TIP3    H243882   4.619   3.004   6.901 -1.2393  2.8844  0.3999
14654TIP3   OH243883   6.819   3.425   5.825  0.0908 -0.1402 -0.1722
14654TIP3    H143884   6.828   3.444   5.918 -0.8664 -2.3583  0.3908
14654TIP3    H243885   6.869   3.345   5.811 -0.9853 -0.6377 -1.2744
14655TIP3   OH243886   0.468   4.441   2.581 -0.4039 -0.0831 -0.4875
14655TIP3    H143887   0.459   4.491   2.500 -2.6201  1.3184  0.5744
14655TIP3    H243888   0.498   4.506   2.645 -0.7698 -0.6927  0.3017
14656TIP3   OH243889   7.876   5.598   1.280  0.1147  0.6851 -0.6328
14656TIP3    H143890   7.814   5.650   1.229  1.0830  2.0100 -0.4906
14656TIP3    H243891   7.920   5.542   1.216 -0.7551  0.2236 -0.8256
14657TIP3   OH243892   1.702   7.836   2.429  0.2301 -0.6308  0.4846
14657TIP3    H143893   1.781   7.885   2.451 -0.5632  1.1981 -0.6676
14657TIP3    H243894   1.695   7.843   2.334 -2.0509  0.3683  0.7111
14658TIP3   OH243895   0.814   6.216   1.335 -0.3018 -0.1755 -0.1846
14658TIP3    H143896   0.771   6.258   1.260 -0.3421  1.0465  0.5070
14658TIP3    H243897   0.844   6.132   1.301 -2.3620 -0.6334 -0.9569
14659TIP3   OH243898   7.110   1.296   6.886  0.4590 -0.4106 -0.8621
14659TIP3    H143899   7.053   1.321   6.958  0.6426  0.8983 -1.1542
14659TIP3    H243900   7.193   1.341   6.904  0.6026 -0.3253 -1.7103
14660TIP3   OH243901   7.843   4.684   0.635  0.1425 -0.1042  0.0951
14660TIP3    H143902   7.750   4.693   0.613 -0.1413 -1.2829  0.7585
14660TIP3    H243903   7.872   4.773   0.654 -0.9416  0.2276  0.2296
14661TIP3   OH243904   1.405   7.894   2.896 -0.3427 -0.0986  0.3845
14661TIP3    H143905   1.440   7.820   2.945 -0.9811 -0.4507  0.3185
14661TIP3    H243906   1.348   7.854   2.831 -0.9238  0.4640  0.5449
14662TIP3   OH243907   3.221   2.469   7.019 -0.1462 -0.3124 -0.6444
14662TIP3    H143908   3.310   2.485   6.986  0.6654 -0.2885  1.4739
14662TIP3    H243909   3.227   2.488   7.113 -1.7970 -2.6005 -0.0384
14663TIP3   OH243910   6.599   3.040   7.008  0.0737 -0.0063  0.4380
14663TIP3    H143911   6.535   3.021   7.077  0.3360 -2.3804  0.0698
14663TIP3    H243912   6.548   3.043   6.927  0.3822 -1.5965  0.1824
14664TIP3   OH243913   1.729   5.215   1.965 -0.2429 -0.1536 -0.1556
14664TIP3    H143914   1.684   5.156   2.025 -0.5245  0.0563 -0.1547
14664TIP3    H243915   1.775   5.277   2.022 -2.0299  1.1973 -0.1232
14665TIP3   OH243916   6.384   0.205   6.998 -0.8241 -0.2639  0.0753
14665TIP3    H143917   6.340   0.121   6.987 -1.3562 -0.1322  1.1023
14665TIP3    H243918   6.434   0.196   7.079  0.6666 -0.2457 -0.8325
14666TIP3   OH243919   2.053   6.611   0.360 -0.2237 -0.1659 -0.9547
14666TIP3    H143920   2.137   6.566   0.356  0.2406  0.8157 -3.6698
14666TIP3    H243921   1.990   6.547   0.327 -0.3685 -0.5620  0.1045
14667TIP3   OH243922   8.122   5.567   0.301  0.0469  0.1541 -0.0589
14667TIP3    H143923   8.197   5.626   0.298 -0.0434  0.3043  0.5927
14667TIP3    H243924   8.110   5.548   0.394 -0.5331 -0.1089 -0.1854
14668TIP3   OH243925   8.577   5.989   0.746  0.2933 -0.1163 -0.6406
14668TIP3    H143926   8.635   5.984   0.823 -1.0320 -1.1657  0.3138
14668TIP3    H243927   8.510   6.053   0.771 -0.0818 -0.3829 -0.9669
14669TIP3   OH243928   7.949   6.203   0.182 -0.0510  0.6475 -0.2245
14669TIP3    H143929   7.901   6.261   0.241  1.0370 -0.4494  1.7871
14669TIP3    H243930   7.887   6.134   0.160 -0.0918  0.4224  0.5941
14670TIP3   OH243931   5.882   0.916   5.871  0.3501 -0.0869  0.1519
14670TIP3    H143932   5.968   0.938   5.906 -0.4926  1.7292  1.1383
14670TIP3    H243933   5.837   1.000   5.862 -1.3471 -1.0120 -0.2749
14671TIP3   OH243934   8.034   5.151   1.897  0.1381 -0.2045  0.2824
14671TIP3    H143935   8.005   5.186   1.813 -0.7957 -0.9063  0.3034
14671TIP3    H243936   8.083   5.072   1.875 -0.9667 -0.9469  0.4438
14672TIP3   OH243937   6.845   6.170   0.394 -0.2378 -0.5456 -0.6545
14672TIP3    H143938   6.775   6.201   0.451  0.6146  0.2488 -0.0465
14672TIP3    H243939   6.921   6.223   0.416  1.0644 -2.5893 -0.0507
14673TIP3   OH243940   8.143   7.026   1.804  0.2413  0.0996  0.5210
14673TIP3    H143941   8.203   6.978   1.747 -2.8055 -2.4424 -0.6649
14673TIP3    H243942   8.142   6.976   1.885 -2.4580 -1.5840 -0.4955
14674TIP3   OH243943   8.516   5.561   1.586  0.2783 -1.0576  0.2810
14674TIP3    H143944   8.445   5.611   1.626  1.0982  1.1390 -0.9338
14674TIP3    H243945   8.480   5.529   1.503  0.2861 -1.0772  0.2846
14675TIP3   OH243946   8.520   4.555   0.537  0.5793 -0.4737 -0.0249
14675TIP3    H143947   8.503   4.471   0.494 -0.3362 -0.1599 -0.3052
14675TIP3    H243948   8.509   4.537   0.630  0.6663 -0.7256 -0.0623
14676TIP3   OH243949   7.767   5.877   1.913 -0.0485 -0.0543  0.1500
14676TIP3    H143950   7.802   5.831   1.989 -0.9307  1.9550  1.8249
14676TIP3    H243951   7.792   5.968   1.927 -1.1857  0.5101 -1.4067
14677TIP3   OH243952   7.565   7.058   0.300 -0.0027 -0.2086  0.9469
14677TIP3    H143953   7.574   7.143   0.257  2.8085 -1.9424 -2.1735
14677TIP3    H243954   7.610   7.068   0.384 -0.9662  1.7421  1.2573
14678TIP3   OH243955   2.355   5.574   1.695 -0.4899 -0.7618 -0.8042
14678TIP3    H143956   2.309   5.654   1.671 -1.3774 -1.2209 -0.6550
14678TIP3    H243957   2.420   5.603   1.760 -0.6060 -0.1248 -0.9642
14679TIP3   OH243958   7.857   4.996   0.431  0.1786  0.3649 -0.0782
14679TIP3    H143959   7.776   4.961   0.392 -0.6314  0.7437  1.2546
14679TIP3    H243960   7.831   5.025   0.518  1.7713  0.4681  0.3679
14680TIP3   OH243961   8.845   6.277   0.426  0.5088 -0.5043 -0.2162
14680TIP3    H143962   8.857   6.310   0.515 -1.5195 -1.3208  0.3973
14680TIP3    H243963   8.788   6.201   0.436  0.7122 -0.9461 -2.1656
14681TIP3   OH243964   0.295   4.945   0.589 -0.0123  0.1244  0.1467
14681TIP3    H143965   0.203   4.928   0.610  0.0605 -0.0259  0.3453
14681TIP3    H243966   0.292   4.993   0.506 -0.3287  1.2107  0.7837
14682TIP3   OH243967   8.496   0.663   5.944  0.4930 -0.1581 -0.1506
14682TIP3    H143968   8.539   0.688   5.862  0.4888  0.3318  0.0006
14682TIP3    H243969   8.567   0.639   6.002  0.4941 -0.5361 -0.3066
14683TIP3   OH243970   8.016   4.747   0.366  0.0829  0.4478  0.0800
14683TIP3    H143971   7.929   4.713   0.386  0.5108 -0.8532 -0.2357
14683TIP3    H243972   8.047   4.783   0.449 -0.4854  0.2950  0.3595
14684TIP3   OH243973   7.856   7.210   2.275  0.5734  0.5895 -0.0824
14684TIP3    H143974   7.944   7.226   2.241  0.1993 -1.2558 -2.0842
14684TIP3    H243975   7.857   7.118   2.302  0.0524  1.3180  2.5508
14685TIP3   OH243976   7.832   6.970   2.055  0.3233 -0.2822 -0.1352
14685TIP3    H143977   7.883   6.893   2.030 -0.0212 -1.0436  1.4792
14685TIP3    H243978   7.838   6.973   2.150 -0.5304  1.0990 -0.1143
14686TIP3   OH243979   0.592   6.025   2.163  0.4616 -0.2155  0.1850
14686TIP3    H143980   0.522   5.961   2.172  2.7627 -2.6396  1.8522
14686TIP3    H243981   0.625   6.012   2.073  1.7296 -2.3538  0.9123
14687TIP3   OH243982   0.467   6.831   2.400  0.2832  0.3313 -0.0184
14687TIP3    H143983   0.494   6.743   2.373  0.3974  0.4319 -0.2281
14687TIP3    H243984   0.393   6.852   2.343  0.1524  0.3066  0.1411
14688TIP3   OH243985   8.349   6.866   1.640  0.1108 -0.3760 -0.7562
14688TIP3    H143986   8.442   6.848   1.628 -0.0080  0.5003 -3.3283
14688TIP3    H243987   8.304   6.796   1.592 -0.5311 -0.1134 -0.5467
14689TIP3   OH243988   1.664   6.626   2.431 -0.0883  0.3263  0.5711
14689TIP3    H143989   1.720   6.661   2.500  0.2716 -0.7823  0.8530
14689TIP3    H243990   1.600   6.572   2.477 -0.3148  0.1917  0.1005
14690TIP3   OH243991   7.246   5.797   3.003  0.1798  0.1407  0.8223
14690TIP3    H143992   7.245   5.841   2.918  1.5274  0.3516  0.9134
14690TIP3    H243993   7.309   5.726   2.993 -1.8768 -1.7318  0.7255
14691TIP3   OH243994   0.126   6.738   0.067 -0.5336  0.7856 -0.8842
14691TIP3    H143995   0.159   6.788   0.142  1.3591 -1.2779 -0.2923
14691TIP3    H243996   0.031   6.738   0.078 -0.2939  0.6032  1.4747
14692TIP3   OH243997   0.741   7.707   1.549  0.2033 -0.4795  0.4003
14692TIP3    H143998   0.825   7.745   1.524  0.3445 -0.9121  0.2015
14692TIP3    H243999   0.760   7.657   1.628  0.0503 -0.2429  0.5838
14693TIP3   OH244000   0.605   6.314   0.476  0.1062 -0.1995  0.2971
14693TIP3    H144001   0.680   6.341   0.424  1.5012 -2.1345  1.2133
14693TIP3    H244002   0.599   6.219   0.461 -1.2081 -0.3112  1.4315
14694TIP3   OH244003   6.721   0.996   6.890  0.2265  0.1611 -0.2557
14694TIP3    H144004   6.773   0.980   6.811  0.8147 -1.5412  0.4560
14694TIP3    H244005   6.690   1.086   6.880  2.3950  0.8478 -1.2323
14695TIP3   OH244006   0.037   3.833   2.995  0.7162 -0.2139 -0.2287
14695TIP3    H144007   0.062   3.925   2.999  0.9011 -0.2407 -0.7371
14695TIP3    H244008   0.046   3.801   3.085  1.7415 -0.0270 -0.2693
14696TIP3   OH244009   8.778   2.828   7.075  0.2682  0.3209  0.1310
14696TIP3    H144010   8.714   2.892   7.104  1.6159  1.7847 -0.0559
14696TIP3    H244011   8.840   2.822   7.148  0.7847  0.0909 -0.3202
14697TIP3   OH244012   2.941   5.467   0.187 -0.0623  0.6910  0.4457
14697TIP3    H144013   2.973   5.415   0.262 -0.9818 -0.0927  0.3055
14697TIP3    H244014   2.846   5.456   0.190 -0.4874  4.1804  1.7311
14698TIP3   OH244015   0.347   5.106   0.368  0.1587 -0.6374 -0.7918
14698TIP3    H144016   0.404   5.088   0.294  0.0420 -0.6523 -0.8791
14698TIP3    H244017   0.272   5.152   0.329  0.7014  0.5052 -0.4935
14699TIP3   OH244018   4.489   1.960   6.169 -0.6244  0.1429 -0.2612
14699TIP3    H144019   4.554   2.030   6.174 -0.9674  0.3820  1.0071
14699TIP3    H244020   4.409   1.999   6.205 -1.0886 -0.5924 -0.4822
14700TIP3   OH244021   4.811   0.645   6.418  0.2872 -0.0185 -0.3173
14700TIP3    H144022   4.800   0.739   6.406  0.3253 -0.1383 -1.3153
14700TIP3    H244023   4.903   0.634   6.440  0.1454  0.2378  0.4070
14701TIP3   OH244024   5.588   7.061   1.059  0.1661 -0.4371  0.1261
14701TIP3    H144025   5.576   7.145   1.015  0.7312 -0.4204  0.0051
14701TIP3    H244026   5.581   6.996   0.989 -1.6424 -0.5889  0.4170
14702TIP3   OH244027   6.577   3.140   6.717  0.9947  0.4695 -0.1543
14702TIP3    H144028   6.586   3.230   6.686  0.1911  0.2998 -0.9088
14702TIP3    H244029   6.667   3.109   6.727  1.2782  1.4908  0.5331
14703TIP3   OH244030   0.007   7.463   1.289 -0.0664 -0.1087  0.3640
14703TIP3    H144031   0.089   7.513   1.292  0.4522 -0.7295 -2.3757
14703TIP3    H244032  -0.042   7.502   1.217 -1.4759 -0.8522  0.9051
14704TIP3   OH244033   7.831   4.261   6.528 -0.0311 -0.1765 -0.4546
14704TIP3    H144034   7.835   4.321   6.453 -2.7924 -1.7485 -1.9246
14704TIP3    H244035   7.905   4.202   6.514 -0.6653 -0.6162 -2.0999
14705TIP3   OH244036   5.695   0.387   2.220 -0.2544  0.0433  0.2081
14705TIP3    H144037   5.761   0.409   2.154 -1.0121 -0.3572 -0.6815
14705TIP3    H244038   5.689   0.466   2.274 -0.1228  0.6289 -0.6116
14706TIP3   OH244039   0.175   4.556   0.275 -0.9502  0.0762  0.2855
14706TIP3    H144040   0.212   4.643   0.289  0.6737 -0.4779 -0.4694
14706TIP3    H244041   0.234   4.497   0.323  1.2948 -1.2095 -3.8541
14707TIP3   OH244042   8.677   3.731   1.253  0.4380  0.2468 -0.0022
14707TIP3    H144043   8.750   3.697   1.201  1.0770  1.5601  0.0162
14707TIP3    H244044   8.719   3.763   1.333 -0.3467 -0.2886  0.6290
14708TIP3   OH244045   4.126   0.751   7.102 -0.2539  0.0973  0.1140
14708TIP3    H144046   4.148   0.690   7.172 -1.3106 -0.3534  0.0616
14708TIP3    H244047   4.092   0.696   7.031 -1.4725  0.7692  0.1729
14709TIP3   OH244048   6.357   4.708   1.045 -0.1203 -0.1304  0.8283
14709TIP3    H144049   6.291   4.653   1.086  0.4358 -0.7966  0.8472
14709TIP3    H244050   6.308   4.766   0.988 -0.8789  0.6547  2.2606
14710TIP3   OH244051   2.987   3.203   1.823  0.2926 -0.2494  0.2167
14710TIP3    H144052   2.960   3.271   1.885  1.5971  0.6531 -0.1870
14710TIP3    H244053   2.945   3.227   1.740  1.2164  0.4095 -0.0730
14711TIP3   OH244054   4.527   2.747   6.760  0.2407  0.1241 -0.1133
14711TIP3    H144055   4.482   2.663   6.760 -1.3346  0.9430  0.7988
14711TIP3    H244056   4.512   2.782   6.672 -0.6553  0.2474  0.0819
14712TIP3   OH244057   3.745   1.828   7.170 -0.2710  0.0191 -0.6225
14712TIP3    H144058   3.789   1.859   7.249 -1.0002  3.7576 -1.6026
14712TIP3    H244059   3.657   1.805   7.198  0.5360 -2.0707  0.2788
14713TIP3   OH244060   6.140   7.338   0.150 -0.3320  0.0394  0.3427
14713TIP3    H144061   6.185   7.362   0.231  0.8377 -0.7401 -0.0655
14713TIP3    H244062   6.054   7.379   0.158 -0.1403  0.1787  1.8657
14714TIP3   OH244063   0.175   7.207   1.344  0.2159  0.0245 -0.1247
14714TIP3    H144064   0.149   7.152   1.270  0.5476  2.0106 -1.7909
14714TIP3    H244065   0.124   7.288   1.331 -0.3280  0.1006  2.2938
14715TIP3   OH244066   1.025   6.292   2.341  0.1894  0.3507 -0.1659
14715TIP3    H144067   0.965   6.362   2.315 -0.6300 -0.2998 -0.0475
14715TIP3    H244068   1.000   6.218   2.286  0.3435 -0.1719  0.4697
14716TIP3   OH244069   2.242   7.041   3.485  0.1663 -0.3253  0.2347
14716TIP3    H144070   2.169   6.978   3.483 -1.1410  1.1583  0.5140
14716TIP3    H244071   2.215   7.111   3.425  2.0532 -0.4773 -0.8367
14717TIP3   OH244072   4.465   6.472   0.071 -0.1940  1.1143  0.5339
14717TIP3    H144073   4.515   6.402   0.114 -1.2834  0.1186  0.1753
14717TIP3    H244074   4.419   6.429  -0.000 -0.7649  2.2317  0.2204
14718TIP3   OH244075   3.839   8.314   6.904 -0.0354 -0.0564 -0.4440
14718TIP3    H144076   3.852   8.241   6.844 -2.8266 -1.7631  0.9116
14718TIP3    H244077   3.788   8.378   6.854 -1.6089 -1.1043 -0.2290
14719TIP3   OH244078   0.192   6.442   2.331 -0.2898  0.0487  0.6006
14719TIP3    H144079   0.122   6.501   2.303 -0.5870 -0.7305 -0.3301
14719TIP3    H244080   0.223   6.402   2.250 -1.1017 -2.2053  1.3492
14720TIP3   OH244081   0.370   6.689   0.936 -0.3661 -0.0806 -0.3154
14720TIP3    H144082   0.316   6.740   0.996 -0.7541  1.0441 -1.5709
14720TIP3    H244083   0.453   6.737   0.933 -0.4470  0.0339 -0.8683
14721TIP3   OH244084   0.462   7.343   1.621 -0.3121 -0.0857  0.1580
14721TIP3    H144085   0.522   7.403   1.578 -0.2306  0.4467  1.0238
14721TIP3    H244086   0.407   7.309   1.549  2.2003 -2.0085 -0.9458
14722TIP3   OH244087   2.722   8.157   6.390 -0.2063  0.7123  0.5633
14722TIP3    H144088   2.803   8.165   6.441 -0.6341  2.1373  1.0410
14722TIP3    H244089   2.752   8.141   6.300  0.5864  0.2008  0.9141
14723TIP3   OH244090   0.197   6.809   2.763  0.2494  0.2055  0.1987
14723TIP3    H144091   0.135   6.860   2.711 -1.0489 -1.2805  0.2535
14723TIP3    H244092   0.260   6.874   2.796  0.4684  1.3097 -2.3214
14724TIP3   OH244093   0.650   7.449   0.713 -0.5323  0.4368  0.2754
14724TIP3    H144094   0.673   7.405   0.795 -0.6100 -1.5570 -0.7315
14724TIP3    H244095   0.734   7.471   0.674 -0.4087 -1.2236 -0.4500
14725TIP3   OH244096   8.310   7.622   1.395 -0.0366 -0.4687  0.0867
14725TIP3    H144097   8.332   7.593   1.307 -1.6870 -0.3753 -0.3700
14725TIP3    H244098   8.394   7.627   1.440  1.1721  2.3389 -2.3347
14726TIP3   OH244099   0.352   5.320   3.470  0.4238 -0.7477 -0.5262
14726TIP3    H144100   0.406   5.278   3.538  0.7038  0.8585  0.2681
14726TIP3    H244101   0.412   5.333   3.397  1.0147  0.5820  0.1748
14727TIP3   OH244102   8.064   5.895   0.076  0.0193 -0.1792  0.3226
14727TIP3    H144103   7.988   5.929   0.124 -0.8400 -2.2851  0.5171
14727TIP3    H244104   8.131   5.882   0.144  0.5812  1.6177  0.1597
14728TIP3   OH244105   4.990   3.080   7.213  0.6259  0.2718  0.5606
14728TIP3    H144106   5.011   2.988   7.230 -0.8456 -0.4997 -1.6071
14728TIP3    H244107   5.046   3.129   7.274  0.3870 -2.0778  2.7701
14729TIP3   OH244108   0.487   6.066   3.108  0.5419 -0.3121  0.4525
14729TIP3    H144109   0.403   6.066   3.062 -0.3582 -1.5863  2.0407
14729TIP3    H244110   0.466   6.097   3.196  1.6882 -0.8370  0.9156
14730TIP3   OH244111   0.443   4.050   0.938  0.0527  0.1954  0.2033
14730TIP3    H144112   0.381   4.075   1.007 -0.4163  0.8218 -0.4328
14730TIP3    H244113   0.512   4.003   0.984 -0.9089 -0.5382  0.9186
14731TIP3   OH244114   8.029   7.256   0.783 -0.4002 -0.0707 -0.3825
14731TIP3    H144115   8.122   7.234   0.787  0.0582  1.9312  1.5181
14731TIP3    H244116   7.983   7.176   0.808  0.9279 -0.5290  0.6507
14732TIP3   OH244117   7.940   6.566   0.130 -0.2661 -0.0490  0.1214
14732TIP3    H144118   7.919   6.651   0.168  0.1330  0.2597 -0.3402
14732TIP3    H244119   7.956   6.509   0.205 -1.1004  0.1350  0.4457
14733TIP3   OH244120   4.264   2.101   6.636 -1.1429 -0.2300  0.4669
14733TIP3    H144121   4.200   2.145   6.581 -0.2625 -1.2878 -1.4395
14733TIP3    H244122   4.308   2.171   6.684 -0.6226  0.8877 -1.6005
14734TIP3   OH244123   1.138   5.746   1.959  0.8145  0.5468 -0.2063
14734TIP3    H144124   1.047   5.732   1.987  0.7782 -0.4672 -0.8115
14734TIP3    H244125   1.132   5.756   1.864  1.4714 -0.7427 -0.3855
14735TIP3   OH244126   0.849   4.385   1.772 -0.1762 -0.0306 -0.7036
14735TIP3    H144127   0.899   4.465   1.756  0.3380 -0.2782 -0.3457
14735TIP3    H244128   0.876   4.357   1.860 -0.0460 -0.8192 -0.9902
14736TIP3   OH244129   8.785   6.214   1.427 -0.1627 -0.2146  0.5914
14736TIP3    H144130   8.866   6.242   1.469 -1.1309  1.9728  1.0448
14736TIP3    H244131   8.749   6.147   1.485  0.4506  0.0210  1.2399
14737TIP3   OH244132   7.250   6.923   1.939 -0.3553 -0.6710 -0.3048
14737TIP3    H144133   7.196   6.981   1.992 -0.7078  0.2125 -1.5937
14737TIP3    H244134   7.203   6.917   1.855  2.1052  1.0306 -1.8642
14738TIP3   OH244135   8.874   6.407   0.942 -0.5479 -0.5053 -0.7700
14738TIP3    H144136   8.902   6.498   0.945 -2.3258  0.0449 -0.8757
14738TIP3    H244137   8.887   6.375   1.032 -0.2831 -0.0602 -0.6480
14739TIP3   OH244138   5.732   8.060   7.239 -0.5903 -0.3202  0.0017
14739TIP3    H144139   5.795   8.091   7.174 -0.4949  1.6546  0.9832
14739TIP3    H244140   5.785   8.012   7.303 -0.2505  0.3036  0.1912
14740TIP3   OH244141   5.038   4.054   6.841 -0.2987  0.2048  0.1793
14740TIP3    H144142   5.036   4.127   6.780 -0.9799 -0.7837 -0.9893
14740TIP3    H244143   5.131   4.039   6.857 -0.0953  0.0551 -1.1165
14741TIP3   OH244144   6.674   8.380   7.064  0.1285  0.0708 -1.0441
14741TIP3    H144145   6.766   8.369   7.086  0.4165  0.5229 -2.0094
14741TIP3    H244146   6.631   8.395   7.148  1.2979  2.4621 -0.8235
14742TIP3   OH244147   2.001   6.704   0.622  0.4781  0.4382 -0.3623
14742TIP3    H144148   1.906   6.693   0.623  0.7181 -1.9785 -1.1279
14742TIP3    H244149   2.028   6.674   0.535  1.9959  0.5663  0.0472
14743TIP3   OH244150   1.831   6.460   0.799 -0.2548  0.3844 -0.0892
14743TIP3    H144151   1.804   6.425   0.883 -1.0510 -0.3111 -0.6268
14743TIP3    H244152   1.877   6.541   0.820 -0.4972  0.2367  1.0058
14744TIP3   OH244153   4.684   1.684   6.435 -0.5117  0.2613 -0.7959
14744TIP3    H144154   4.621   1.645   6.374 -1.3452  0.6130 -0.1827
14744TIP3    H244155   4.755   1.717   6.380 -1.3582  0.7626 -1.6027
14745TIP3   OH244156   0.128   6.208   0.840  0.0251  0.4571  0.3101
14745TIP3    H144157   0.187   6.184   0.912 -2.0411 -3.9906  0.7206
14745TIP3    H244158   0.067   6.270   0.880 -0.5238 -1.2329  2.2111
14746TIP3   OH244159   1.423   6.963   2.748 -0.0752  0.2371  0.0817
14746TIP3    H144160   1.413   7.028   2.818 -0.5241  0.2382  0.0125
14746TIP3    H244161   1.353   6.982   2.686  0.0141 -0.0839 -0.1205
14747TIP3   OH244162   6.228   3.308   6.522 -0.4119 -0.4190  0.0082
14747TIP3    H144163   6.276   3.379   6.480  0.4665 -0.7234  0.4870
14747TIP3    H244164   6.176   3.269   6.451 -0.4764  0.3432 -0.3672
14748TIP3   OH244165   1.211   8.251   1.564  0.4194  0.0967 -0.1491
14748TIP3    H144166   1.240   8.166   1.595 -2.6880 -0.9345  0.1390
14748TIP3    H244167   1.235   8.253   1.471  0.1822 -1.2815 -0.2515
14749TIP3   OH244168   1.823   5.976   1.080  0.0980 -0.2394  0.2321
14749TIP3    H144169   1.863   5.909   1.025  0.3952  0.4250 -0.3636
14749TIP3    H244170   1.885   6.048   1.080 -0.1412 -0.0215  1.0147
14750TIP3   OH244171   2.493   5.706   0.569  0.2358 -0.2118  0.1958
14750TIP3    H144172   2.445   5.746   0.496 -1.0047  1.7039  1.9938
14750TIP3    H244173   2.569   5.763   0.580 -0.2766  0.2831  1.2268
14751TIP3   OH244174   0.350   5.603   1.663 -0.1204 -0.1655  0.0397
14751TIP3    H144175   0.289   5.530   1.674  0.7466 -0.9593 -0.3408
14751TIP3    H244176   0.374   5.600   1.570  0.3919  0.2334  0.1605
14752TIP3   OH244177   1.852   7.529   0.852  0.2446  0.1904 -0.8013
14752TIP3    H144178   1.848   7.439   0.822  1.1685  0.4583 -1.7338
14752TIP3    H244179   1.760   7.553   0.867  0.0345 -1.0767  0.0132
14753TIP3   OH244180   1.413   7.105   0.246 -0.5552 -0.5238 -0.4334
14753TIP3    H144181   1.464   7.152   0.311  0.6699 -1.1354 -0.9366
14753TIP3    H244182   1.419   7.159   0.167 -3.2348  0.9628  0.3027
14754TIP3   OH244183   3.825   3.955   2.302 -0.4123  0.1207 -0.2508
14754TIP3    H144184   3.762   4.019   2.269 -0.9604 -0.6495 -0.7041
14754TIP3    H244185   3.910   3.986   2.270 -0.9311 -0.6293 -2.4326
14755TIP3   OH244186   1.068   6.953   0.438 -1.0371  0.4033  1.1514
14755TIP3    H144187   1.021   7.035   0.427 -1.0003  0.2610 -0.1347
14755TIP3    H244188   1.119   6.965   0.518 -0.9078  1.6874  0.8876
14756TIP3   OH244189   1.765   6.435   1.603 -0.3312  0.4657 -0.3439
14756TIP3    H144190   1.766   6.340   1.612 -1.9681  0.6109  1.5836
14756TIP3    H244191   1.839   6.466   1.656  1.2163  0.2247 -2.2647
14757TIP3   OH244192   8.807   1.754   7.108 -0.2546 -0.1334 -0.1947
14757TIP3    H144193   8.779   1.816   7.175 -0.8884 -0.6902  0.0564
14757TIP3    H244194   8.808   1.805   7.027 -0.2905  0.3303  0.0963
14758TIP3   OH244195   1.231   3.347   3.678  0.4727 -0.1557  0.2161
14758TIP3    H144196   1.292   3.407   3.637  0.5199 -0.4506 -0.1467
14758TIP3    H244197   1.185   3.305   3.605 -0.4085  0.3154  0.4919
14759TIP3   OH244198   4.190   8.337   7.009 -0.0105 -0.2640  0.0993
14759TIP3    H144199   4.182   8.243   7.020  1.3235 -0.3221  0.6837
14759TIP3    H244200   4.269   8.360   7.058  1.6391  0.6571 -2.8421
14760TIP3   OH244201   1.141   6.600   0.370 -0.1315 -0.0883  0.0221
14760TIP3    H144202   1.199   6.597   0.446  0.1224  2.2302 -0.0182
14760TIP3    H244203   1.154   6.516   0.326  2.6079  0.0372  0.4649
14761TIP3   OH244204   1.683   5.885   1.297  0.1317  0.8663 -0.6028
14761TIP3    H144205   1.605   5.845   1.259 -0.3082 -1.1068  2.1940
14761TIP3    H244206   1.746   5.887   1.226 -1.2938 -0.8568 -1.9684
14762TIP3   OH244207   1.009   5.977   1.532 -0.1533  0.7952 -0.3744
14762TIP3    H144208   0.960   6.055   1.503 -1.0282  0.3030 -0.2293
14762TIP3    H244209   1.032   5.932   1.451 -2.6497 -0.6103 -0.3391
14763TIP3   OH244210   8.742   0.990   4.376 -0.3233 -0.3803  0.4638
14763TIP3    H144211   8.807   0.936   4.421 -0.1493 -0.8347 -0.3314
14763TIP3    H244212   8.757   1.079   4.410  0.8083 -0.4555  0.1718
14764TIP3   OH244213   1.525   5.002   0.573  0.0703  0.2571  0.4206
14764TIP3    H144214   1.524   5.048   0.490  3.5170 -1.7203 -0.7926
14764TIP3    H244215   1.587   5.050   0.628 -2.6134  1.9043  2.1605
14765TIP3   OH244216   6.546   3.814   5.732  0.0769 -0.4419  0.0698
14765TIP3    H144217   6.592   3.898   5.729 -1.5914  0.6202  2.4669
14765TIP3    H244218   6.563   3.780   5.820  1.4316 -3.0639 -1.1672
14766TIP3   OH244219   3.137   6.409   1.041 -0.0632 -0.0167  0.2433
14766TIP3    H144220   3.088   6.433   1.120  0.6995 -1.6583  1.2314
14766TIP3    H244221   3.225   6.445   1.056 -0.3979  1.2068 -0.6565
14767TIP3   OH244222   0.483   7.054   0.061 -0.6084  0.7986  0.0395
14767TIP3    H144223   0.398   7.015   0.039  1.6462 -3.0381 -2.3517
14767TIP3    H244224   0.489   7.131   0.005 -2.1888  0.6663 -0.3342
14768TIP3   OH244225   5.372   2.819   6.037 -0.3533  0.6572  0.0254
14768TIP3    H144226   5.418   2.901   6.051  0.1845  0.6358 -1.4627
14768TIP3    H244227   5.371   2.808   5.942 -0.4861 -1.0070  0.1953
14769TIP3   OH244228   3.645   1.194   6.311 -0.2669 -0.2418  0.4051
14769TIP3    H144229   3.554   1.193   6.338 -0.2532 -1.3361  0.4283
14769TIP3    H244230   3.670   1.102   6.304  0.9234  0.0399  0.6918
14770TIP3   OH244231   7.086   3.839   7.219  0.4974 -0.2644  0.1421
14770TIP3    H144232   7.126   3.924   7.232  1.4415 -0.4260 -1.6032
14770TIP3    H244233   7.003   3.858   7.175  1.0897 -0.2968 -0.9992
14771TIP3   OH244234   2.725   7.466   1.114  0.3488  0.2497  0.0654
14771TIP3    H144235   2.640   7.509   1.121 -0.6565 -1.5335 -0.8424
14771TIP3    H244236   2.752   7.479   1.024  0.6192  0.0385  0.1135
14772TIP3   OH244237   0.247   3.627   5.842 -0.5794  0.1019  0.1684
14772TIP3    H144238   0.315   3.616   5.909  1.9541 -2.8501 -2.7328
14772TIP3    H244239   0.276   3.702   5.791  0.4843 -1.0432 -0.9544
14773TIP3   OH244240   2.297   3.152   1.956  0.0617 -0.2535 -0.1750
14773TIP3    H144241   2.236   3.134   1.884 -0.1607 -0.8189  0.1462
14773TIP3    H244242   2.382   3.122   1.923  0.4574  1.8816 -1.1767
14774TIP3   OH244243   2.063   7.459   0.455  1.0959  0.1304 -1.0457
14774TIP3    H144244   2.115   7.403   0.513  0.0998  1.7143  1.4427
14774TIP3    H244245   2.064   7.545   0.496  0.2147  1.2844 -3.3205
14775TIP3   OH244246   1.245   3.235   2.421  0.3633 -0.3400  0.2207
14775TIP3    H144247   1.286   3.158   2.461  1.0775  0.3475  0.8249
14775TIP3    H244248   1.212   3.285   2.495  0.7872  0.4387 -0.1132
14776TIP3   OH244249   4.162   3.229   1.374 -0.2255 -0.2022 -0.4601
14776TIP3    H144250   4.133   3.253   1.462  0.1429  1.5255 -0.7914
14776TIP3    H244251   4.082   3.227   1.322 -0.5603 -2.1395  0.1008
14777TIP3   OH244252   3.536   6.007   1.329  0.3236 -0.1854  0.2496
14777TIP3    H144253   3.530   6.089   1.280 -1.1303 -1.7860 -2.3352
14777TIP3    H244254   3.446   5.991   1.359  0.8901 -0.0853  2.0528
14778TIP3   OH244255   8.413   7.641   1.156 -0.3154 -0.4970 -0.1294
14778TIP3    H144256   8.455   7.568   1.110  0.1165 -0.3772  0.0723
14778TIP3    H244257   8.361   7.685   1.089  1.0914  0.2709 -0.7457
14779TIP3   OH244258   8.502   1.337   6.476 -0.1403  0.4800 -0.9055
14779TIP3    H144259   8.536   1.426   6.474  0.1988  0.3338 -3.2993
14779TIP3    H244260   8.411   1.346   6.446 -0.4749  0.1623  0.0029
14780TIP3   OH244261   0.103   5.660   2.281  0.7808 -0.4210  0.3444
14780TIP3    H144262   0.089   5.567   2.296 -0.1175 -0.3526 -0.0107
14780TIP3    H244263   0.126   5.696   2.366  1.9846 -1.1201  0.3119
14781TIP3   OH244264   7.724   1.411   6.379  0.1247 -0.3284 -0.1518
14781TIP3    H144265   7.718   1.502   6.350  0.3548 -0.2124  0.1725
14781TIP3    H244266   7.689   1.411   6.468  1.1651 -0.3622  0.2634
14782TIP3   OH244267   4.823   1.260   1.902 -0.5294  0.2453  0.1450
14782TIP3    H144268   4.826   1.257   1.997 -0.0159  0.4254  0.1372
14782TIP3    H244269   4.913   1.244   1.874 -0.0403  3.2085 -0.1964
14783TIP3   OH244270   0.534   6.891   2.656 -0.2638 -0.3478  0.1310
14783TIP3    H144271   0.505   6.885   2.565  0.4655  0.8478 -0.1918
14783TIP3    H244272   0.611   6.948   2.653  0.7044 -1.5554  1.2895
14784TIP3   OH244273   0.865   6.463   0.463  0.0685 -0.0945  0.3842
14784TIP3    H144274   0.897   6.545   0.426  0.2505  1.0767  3.0224
14784TIP3    H244275   0.924   6.396   0.428 -0.0588  0.8806 -1.7630
14785TIP3   OH244276   2.409   6.843   1.247  0.2663  0.2269  0.3241
14785TIP3    H144277   2.329   6.890   1.224 -0.8978 -2.0493 -0.4510
14785TIP3    H244278   2.472   6.869   1.180 -1.3316 -1.7365 -2.0204
14786TIP3   OH244279   7.639   2.616   6.113 -0.0886  0.1985  0.0171
14786TIP3    H144280   7.594   2.656   6.038  0.8396  0.5533 -0.3595
14786TIP3    H244281   7.672   2.532   6.079 -0.6902 -0.1815  0.3667
14787TIP3   OH244282   6.921   2.889   5.724  0.3126 -0.3279 -0.1524
14787TIP3    H144283   6.970   2.916   5.802  1.0321 -0.9448 -0.3763
14787TIP3    H244284   6.905   2.795   5.737 -0.5314 -0.1951 -0.2336
14788TIP3   OH244285   2.121   5.530   1.130  0.3134  0.6990  0.3054
14788TIP3    H144286   2.212   5.501   1.125  0.4765  1.1814  0.4282
14788TIP3    H244287   2.075   5.478   1.064  0.2661 -1.0873  1.7038
14789TIP3   OH244288   8.214   1.405   6.364  0.0206 -0.4174  0.3938
14789TIP3    H144289   8.190   1.313   6.370 -1.5642 -0.0749 -0.3057
14789TIP3    H244290   8.145   1.451   6.413  0.2591  0.4706 -0.0897
14790TIP3   OH244291   7.573   3.306   6.308 -0.3186 -0.0022  0.0160
14790TIP3    H144292   7.524   3.376   6.351  0.0176 -1.1386  2.3174
14790TIP3    H244293   7.662   3.339   6.302 -0.3900  0.2028  0.0945
14791TIP3   OH244294   2.136   5.273   3.849 -0.6950  0.1534  0.0086
14791TIP3    H144295   2.187   5.338   3.801 -0.6652  0.0209 -0.1404
14791TIP3    H244296   2.059   5.321   3.880  0.3225  0.7650  1.6475
14792TIP3   OH244297   8.686   0.783   5.706  0.3508  0.4458 -0.3048
14792TIP3    H144298   8.701   0.729   5.629  1.7895  0.1385  0.1875
14792TIP3    H244299   8.606   0.833   5.685 -1.1904 -2.0910 -0.6069
14793TIP3   OH244300   1.375   5.189   6.818  0.1590  0.6773  0.3991
14793TIP3    H144301   1.424   5.143   6.749 -1.5499 -1.0545  0.3102
14793TIP3    H244302   1.400   5.145   6.899 -2.6097 -1.5096  0.1552
14794TIP3   OH244303   2.054   1.772   6.748  0.3916  0.1644 -0.1215
14794TIP3    H144304   2.057   1.817   6.833 -2.0451  0.1602  0.0198
14794TIP3    H244305   1.986   1.818   6.699  1.9496  0.3279 -2.2002
14795TIP3   OH244306   1.234   3.413   6.380  0.6705 -0.0298  0.6207
14795TIP3    H144307   1.204   3.402   6.470 -0.5711 -2.0226  0.0025
14795TIP3    H244308   1.289   3.336   6.364 -1.0490 -0.9416 -1.0640
14796TIP3   OH244309   7.767   0.239   0.223 -0.1790 -0.2609  0.1218
14796TIP3    H144310   7.714   0.318   0.230 -0.8755 -0.8588  2.1530
14796TIP3    H244311   7.704   0.169   0.204  0.1474 -0.6411  0.4031
14797TIP3   OH244312   5.285   8.341   2.025  0.3811 -0.8272  0.1204
14797TIP3    H144313   5.345   8.373   2.093 -0.0451 -2.2082  1.1901
14797TIP3    H244314   5.339   8.283   1.972  0.0942 -1.8308  0.9000
14798TIP3   OH244315   3.860   8.063   1.383  0.4380 -0.2317  0.1630
14798TIP3    H144316   3.882   8.127   1.316 -1.0471  0.1887  0.0577
14798TIP3    H244317   3.843   7.982   1.334 -2.2245  0.4806 -0.1369
14799TIP3   OH244318   4.578   4.887   0.781 -0.2136 -0.3168  0.7405
14799TIP3    H144319   4.563   4.944   0.857 -3.9380 -1.1752  0.7544
14799TIP3    H244320   4.533   4.931   0.709  2.5168  0.0223 -0.8251
14800TIP3   OH244321   6.309   0.675   2.172 -0.4487  0.0336 -0.0736
14800TIP3    H144322   6.352   0.589   2.169 -2.2318 -0.9200  1.1180
14800TIP3    H244323   6.221   0.659   2.139 -1.6838  0.8411  2.7526
14801TIP3   OH244324   4.929   3.593   6.556 -0.1849 -0.1433  0.4512
14801TIP3    H144325   4.939   3.676   6.509  0.0207  0.7057  1.9495
14801TIP3    H244326   4.868   3.542   6.503 -1.9166  1.7763  0.5427
14802TIP3   OH244327   5.260   6.078   0.433 -0.7208 -0.8962 -0.1940
14802TIP3    H144328   5.272   5.997   0.384  2.1778 -1.2664  1.0512
14802TIP3    H244329   5.171   6.105   0.411 -1.0411 -3.3214 -2.2248
14803TIP3   OH244330   6.452   6.022   1.703  0.3815  0.3816 -0.1269
14803TIP3    H144331   6.405   5.975   1.772  0.0825  1.1028  0.1616
14803TIP3    H244332   6.421   6.112   1.710  1.9130  0.8979  0.1765
14804TIP3   OH244333   7.029   6.899   0.218  0.2265  0.7478  0.5864
14804TIP3    H144334   7.094   6.829   0.226  1.6601  2.0070  0.2674
14804TIP3    H244335   7.021   6.913   0.124  1.0166  1.9659  0.6902
14805TIP3   OH244336   0.905   0.048   1.487 -0.2460 -0.0913 -0.7219
14805TIP3    H144337   0.835  -0.013   1.463  0.9437 -1.8507  0.1621
14805TIP3    H244338   0.973  -0.008   1.524  0.5142  1.9000  0.9342
14806TIP3   OH244339   8.210   1.076   2.444 -0.4114  0.2049  0.7149
14806TIP3    H144340   8.206   1.150   2.384 -0.4479 -0.8194 -0.5658
14806TIP3    H244341   8.204   0.999   2.388 -0.1479 -0.7794  2.0075
14807TIP3   OH244342   8.684   6.390   1.180  0.0317  0.0136 -0.2865
14807TIP3    H144343   8.613   6.327   1.197 -0.5772  0.2502 -1.8371
14807TIP3    H244344   8.762   6.347   1.214 -0.3327 -1.7246 -1.5401
14808TIP3   OH244345   6.616   6.586   0.291 -0.1191 -0.2671 -0.0915
14808TIP3    H144346   6.673   6.538   0.351  0.0107 -0.6123 -0.4919
14808TIP3    H244347   6.624   6.540   0.208  0.4674  0.7964 -0.6347
14809TIP3   OH244348   7.920   7.914   0.084  0.0065 -0.0690 -0.0101
14809TIP3    H144349   7.998   7.967   0.103  1.0642 -1.3361 -0.7167
14809TIP3    H244350   7.940   7.828   0.123 -1.5531 -0.0503  0.8626
14810TIP3   OH244351   7.136   7.811   2.147  0.3245  0.1997 -0.4301
14810TIP3    H144352   7.149   7.864   2.226 -0.7105 -0.6274  0.3145
14810TIP3    H244353   7.068   7.857   2.099  0.9442  0.6957 -0.8379
14811TIP3   OH244354   4.554   3.319   4.564  0.2027  0.1166  0.6226
14811TIP3    H144355   4.636   3.277   4.538 -0.9515 -1.4397 -0.6057
14811TIP3    H244356   4.489   3.249   4.563 -0.6952  0.7839  4.0800
14812TIP3   OH244357   6.534   5.405   1.306 -0.2094 -0.3715  0.3302
14812TIP3    H144358   6.599   5.437   1.368  0.1326 -0.6565  0.1219
14812TIP3    H244359   6.523   5.313   1.329  1.0225 -0.8763 -0.9704
14813TIP3   OH244360   6.931   6.705   1.448  0.2521  0.1158 -0.4059
14813TIP3    H144361   6.986   6.707   1.526  1.0013  0.1570 -0.9301
14813TIP3    H244362   6.969   6.637   1.393 -1.1864 -0.9709 -0.0814
14814TIP3   OH244363   3.206   4.630   6.339  0.1556 -0.0694 -0.6504
14814TIP3    H144364   3.143   4.696   6.309 -1.3272 -1.0622  0.1889
14814TIP3    H244365   3.214   4.570   6.265 -1.0612 -0.7746 -0.2165
14815TIP3   OH244366   8.180   6.605   0.707  0.4000 -0.7722 -0.5716
14815TIP3    H144367   8.243   6.668   0.672 -0.2926  0.0280 -0.3936
14815TIP3    H244368   8.233   6.528   0.727  1.1600 -0.4689 -1.3500
14816TIP3   OH244369   6.236   2.083   7.161  0.0150 -0.0704 -0.6377
14816TIP3    H144370   6.163   2.141   7.181  1.5599  1.1602  1.7546
14816TIP3    H244371   6.209   1.997   7.192 -0.4567  0.3557  0.1319
14817TIP3   OH244372   5.925   5.560   1.848  0.0727  0.2121  0.9901
14817TIP3    H144373   6.017   5.577   1.828 -0.3702 -0.8960 -2.2487
14817TIP3    H244374   5.925   5.472   1.887  0.3593 -0.0404  0.4362
14818TIP3   OH244375   8.261   8.251   1.246  1.1084 -0.0081 -0.7127
14818TIP3    H144376   8.287   8.254   1.153 -1.9041 -1.9140 -1.6585
14818TIP3    H244377   8.251   8.158   1.265  0.5198  0.4360  1.2006
14819TIP3   OH244378   2.969   3.849   6.596 -0.1868  0.2760  0.3951
14819TIP3    H144379   2.900   3.827   6.658 -0.3125  0.6986  0.4031
14819TIP3    H244380   2.995   3.938   6.619 -0.9128  0.8080 -0.7886
14820TIP3   OH244381   5.575   8.313   3.021 -0.2493 -0.3664  1.4194
14820TIP3    H144382   5.480   8.308   3.007 -0.2612 -0.8693  1.6577
14820TIP3    H244383   5.612   8.310   2.932 -0.4897  0.7819  1.2740
14821TIP3   OH244384   0.848   1.288   1.351  0.0395 -0.3224  0.2497
14821TIP3    H144385   0.934   1.276   1.391  0.6889  3.1418  0.0787
14821TIP3    H244386   0.833   1.207   1.302  2.3310 -1.7746  1.8323
14822TIP3   OH244387   6.905   0.319   2.520 -0.3745  0.2477  0.4984
14822TIP3    H144388   6.810   0.329   2.527 -0.1112  2.3545  1.4011
14822TIP3    H244389   6.930   0.379   2.449  0.1634 -1.1609 -0.5320
14823TIP3   OH244390   6.836   8.175  -0.007  0.1131 -0.4388  0.1754
14823TIP3    H144391   6.877   8.241  -0.063 -2.1891  1.3699  0.5226
14823TIP3    H244392   6.835   8.215   0.081 -0.7196 -1.1912  0.5177
14824TIP3   OH244393   6.285   6.951   0.502  0.2481  0.3577 -0.1356
14824TIP3    H144394   6.351   6.994   0.556  1.2562  1.8398 -2.4865
14824TIP3    H244395   6.319   6.862   0.489  0.3016  0.1911  1.1470
14825TIP3   OH244396   7.809   0.232   1.059  0.0691 -0.0183  0.0663
14825TIP3    H144397   7.845   0.256   0.974 -0.2790  0.6716  0.1039
14825TIP3    H244398   7.798   0.316   1.104 -1.6983 -0.2079  0.0011
14826TIP3   OH244399   7.128   5.313   1.662 -0.3684 -0.1942  0.6218
14826TIP3    H144400   7.090   5.306   1.749 -0.0043 -1.8746  0.6632
14826TIP3    H244401   7.096   5.235   1.616 -0.2939  0.5082 -0.6445
14827TIP3   OH244402   6.294   7.955   0.895 -0.7578  0.1757 -0.9528
14827TIP3    H144403   6.373   7.987   0.940 -1.5554  0.8635 -0.0007
14827TIP3    H244404   6.325   7.925   0.810  0.5283  0.4772 -0.6030
14828TIP3   OH244405   4.435   7.515   0.925 -0.5003 -0.0573 -0.3224
14828TIP3    H144406   4.488   7.596   0.925  1.4831 -1.3173 -0.9417
14828TIP3    H244407   4.359   7.536   0.979  0.8033  1.7022  0.8748
14829TIP3   OH244408   0.430   0.481   0.748  0.4481 -0.0905  0.6779
14829TIP3    H144409   0.394   0.472   0.660  0.4629  1.2448  0.5374
14829TIP3    H244410   0.355   0.503   0.803  0.9362  2.1837  0.4707
14830TIP3   OH244411   7.817   7.752   2.814  0.6185  0.1203 -0.1640
14830TIP3    H144412   7.826   7.747   2.719  3.5135 -0.2579  0.0645
14830TIP3    H244413   7.783   7.667   2.840 -1.4761  0.7015 -0.9711
14831TIP3   OH244414   3.479   2.571   6.979  0.3488 -0.3188 -0.3056
14831TIP3    H144415   3.442   2.645   7.026  0.5308 -1.4463  1.6809
14831TIP3    H244416   3.569   2.597   6.960  0.5676 -0.2049  0.8303
14832TIP3   OH244417   6.758   2.162   6.966 -1.0236 -0.5636 -0.4641
14832TIP3    H144418   6.839   2.213   6.970  1.1648 -3.7559 -2.1178
14832TIP3    H244419   6.745   2.130   7.055 -0.0389 -0.6382 -0.3418
14833TIP3   OH244420   5.698   8.139   3.234 -0.1255 -0.2882  0.2266
14833TIP3    H144421   5.686   8.049   3.203  0.5036 -0.8887  1.6989
14833TIP3    H244422   5.640   8.191   3.178 -0.1232 -1.5414 -0.9687
14834TIP3   OH244423   0.954   8.226   0.074 -0.3687  0.1945 -0.0364
14834TIP3    H144424   1.005   8.289   0.024  0.8128 -0.6881  0.0184
14834TIP3    H244425   0.893   8.188   0.010  0.1712  0.0759 -0.4840
14835TIP3   OH244426   7.173   7.024   2.555 -0.2750 -0.2916  0.0585
14835TIP3    H144427   7.175   7.059   2.644  0.3215  0.1256 -0.1153
14835TIP3    H244428   7.098   7.067   2.515 -0.4110 -0.3076  0.2959
14836TIP3   OH244429   5.458   7.969   1.694  0.1293  0.5035 -0.5359
14836TIP3    H144430   5.494   7.927   1.615  1.8905  1.1571 -0.1080
14836TIP3    H244431   5.411   7.899   1.739  2.5936 -0.9413 -0.1079
14837TIP3   OH244432   0.340   4.254   7.171  0.0634  0.0838  0.0593
14837TIP3    H144433   0.338   4.323   7.104  0.9231 -0.2116 -0.2724
14837TIP3    H244434   0.379   4.297   7.247  0.9186 -0.1168 -0.2549
14838TIP3   OH244435   5.677   7.779   0.606  0.8907 -0.2444 -0.2211
14838TIP3    H144436   5.672   7.874   0.618 -0.6189 -0.2820 -0.4690
14838TIP3    H244437   5.588   7.748   0.623  1.7356 -1.8180  1.5175
14839TIP3   OH244438   8.515  -0.001   1.190 -0.3715 -0.6938 -0.8212
14839TIP3    H144439   8.512   0.095   1.186 -0.5780 -0.6194  0.6350
14839TIP3    H244440   8.604  -0.020   1.220 -1.3267 -0.7782  2.1502
14840TIP3   OH244441   8.487   5.036   1.611 -0.3212  0.2158  0.2299
14840TIP3    H144442   8.469   5.085   1.531  0.8218 -0.9676 -0.7771
14840TIP3    H244443   8.509   4.948   1.581  0.9993 -0.0102  1.7952
14841TIP3   OH244444   0.483   8.073   0.827  0.2224  0.1196  0.1388
14841TIP3    H144445   0.517   8.055   0.739  3.4829  1.5533  1.0327
14841TIP3    H244446   0.433   8.154   0.817  2.0026  1.2184 -0.1192
14842TIP3   OH244447   1.428   0.237   1.363  0.2575  0.2968  0.1864
14842TIP3    H144448   1.370   0.261   1.292  0.0906  1.4644  0.7137
14842TIP3    H244449   1.514   0.270   1.336  0.1613  0.8848  0.6063
14843TIP3   OH244450   3.202   2.850   6.591 -0.1452  0.1819 -0.1749
14843TIP3    H144451   3.262   2.833   6.663  0.0284  1.0894 -0.0983
14843TIP3    H244452   3.210   2.944   6.575  1.0991 -0.2862 -2.5275
14844TIP3   OH244453   8.095   7.526   1.535 -0.0205 -0.2502 -0.8563
14844TIP3    H144454   8.175   7.557   1.492  0.3534  0.3444  0.2585
14844TIP3    H244455   8.120   7.441   1.572  0.4145  0.4141  0.4020
14845TIP3   OH244456   5.929   5.278   1.175 -0.2283 -0.0081  0.0933
14845TIP3    H144457   5.960   5.208   1.231 -0.2105  1.1151  1.5274
14845TIP3    H244458   5.894   5.234   1.097 -0.6705 -1.6121  1.1791
14846TIP3   OH244459   7.654   7.961   0.965 -0.1682  0.0879 -0.0032
14846TIP3    H144460   7.561   7.941   0.980 -0.2513  1.4646  1.4674
14846TIP3    H244461   7.656   8.057   0.955  1.0969  0.0691 -0.0214
14847TIP3   OH244462   6.056   7.446   2.055  0.0822 -0.7708  0.2532
14847TIP3    H144463   6.041   7.431   1.962 -1.1526 -1.4481  0.5531
14847TIP3    H244464   5.969   7.446   2.094  0.7289 -4.1577  1.9363
14848TIP3   OH244465   2.051   1.635   7.115  0.1438  0.3340  0.0484
14848TIP3    H144466   2.107   1.592   7.180  1.4731  0.9658 -0.6375
14848TIP3    H244467   2.025   1.565   7.055 -1.0722 -0.2471  1.2297
14849TIP3   OH244468   6.537   7.865   2.717  0.0318 -0.5916 -0.0810
14849TIP3    H144469   6.455   7.907   2.744  1.2369  2.4303 -1.0165
14849TIP3    H244470   6.576   7.835   2.799 -0.8070  0.1614  0.6030
14850TIP3   OH244471   5.404   5.713   1.677 -0.1189 -0.1986 -0.5225
14850TIP3    H144472   5.424   5.802   1.648  0.0922 -0.5911 -1.5991
14850TIP3    H244473   5.489   5.678   1.705  0.3376 -1.0458 -2.8484
14851TIP3   OH244474   4.349   2.539   6.766  0.0663  0.4350  0.1664
14851TIP3    H144475   4.360   2.445   6.779 -0.3342  0.1584 -1.4451
14851TIP3    H244476   4.293   2.546   6.689 -0.5437  1.9872  0.7455
14852TIP3   OH244477   1.657   0.224   0.608  0.5658 -0.5594  0.6328
14852TIP3    H144478   1.600   0.279   0.663  2.2119  1.2915  0.5393
14852TIP3    H244479   1.596   0.172   0.556 -1.0402  0.0647  1.8349
14853TIP3   OH244480   1.879   1.993   5.707  0.3282 -0.0430  0.6371
14853TIP3    H144481   1.902   1.957   5.792  1.2092  1.8530  1.2257
14853TIP3    H244482   1.917   2.081   5.707 -2.6362  1.2999 -0.3495
14854TIP3   OH244483   0.929   7.385   1.425  0.0082  0.7255 -0.1682
14854TIP3    H144484   0.878   7.316   1.382 -0.1773  0.0461  1.1252
14854TIP3    H244485   0.921   7.460   1.366 -0.8677  0.0403 -0.9486
14855TIP3   OH244486   7.757   7.246   1.332 -0.3778 -0.6361 -0.1845
14855TIP3    H144487   7.676   7.196   1.348 -1.0447  0.5650  0.2031
14855TIP3    H244488   7.808   7.235   1.412 -0.7837 -0.2100  0.1345
14856TIP3   OH244489   3.548   3.591   5.979 -0.4606  0.3436 -0.2513
14856TIP3    H144490   3.643   3.580   5.972 -0.6736 -1.0611 -0.9365
14856TIP3    H244491   3.526   3.655   5.912 -0.0763  0.1959 -0.5210
14857TIP3   OH244492   5.416   7.684   0.630  0.2193  0.0497 -0.3888
14857TIP3    H144493   5.393   7.620   0.562 -1.4102 -1.2789  1.3778
14857TIP3    H244494   5.371   7.764   0.603 -1.6496 -0.8901 -0.0941
14858TIP3   OH244495   7.243   4.495   1.015  0.1636  0.3309  0.5044
14858TIP3    H144496   7.308   4.562   1.034 -0.9201  1.3274  0.7428
14858TIP3    H244497   7.160   4.541   1.016 -0.6220 -1.0629  0.8936
14859TIP3   OH244498   7.997   6.759   2.049  0.3705  0.5476 -0.2071
14859TIP3    H144499   8.018   6.786   2.139 -2.1841  0.7196  0.3758
14859TIP3    H244500   8.014   6.665   2.049 -0.1127  0.4500  0.6191
14860TIP3   OH244501   5.447   6.973   1.276 -0.3221 -0.0243  0.1044
14860TIP3    H144502   5.482   6.885   1.287 -0.0636 -0.0279 -0.7118
14860TIP3    H244503   5.479   7.001   1.190 -1.6541  0.2754 -0.3071
14861TIP3   OH244504   2.282   3.985   7.207  0.1717  0.0406  0.0289
14861TIP3    H144505   2.370   4.023   7.199  0.2049 -0.1802 -0.6969
14861TIP3    H244506   2.252   4.011   7.295  1.1625 -0.3089  0.4769
14862TIP3   OH244507   0.663   2.119   0.362  0.2965  0.5713 -0.3229
14862TIP3    H144508   0.661   2.117   0.267 -0.5564  0.0919 -0.2939
14862TIP3    H244509   0.573   2.103   0.389  1.3341 -4.6788  0.6570
14863TIP3   OH244510   8.878   1.141   0.560  0.1981  0.0030  0.1646
14863TIP3    H144511   8.797   1.094   0.543  0.6610 -0.5374 -0.5369
14863TIP3    H244512   8.854   1.205   0.628 -0.9627  0.2765 -0.4877
14864TIP3   OH244513   5.131   7.852   0.768 -0.2132  0.8844  0.1903
14864TIP3    H144514   5.132   7.764   0.730  1.9395  0.9100  0.1169
14864TIP3    H244515   5.223   7.880   0.766 -0.6588  2.5441  1.5776
14865TIP3   OH244516   8.676   7.243   3.558  0.1404 -0.2702 -0.5017
14865TIP3    H144517   8.727   7.177   3.511  0.2087 -1.1435  0.7673
14865TIP3    H244518   8.585   7.213   3.551  0.0415  0.1029 -0.8670
14866TIP3   OH244519   3.763   0.096   2.823  0.0622 -0.3408  0.1324
14866TIP3    H144520   3.854   0.103   2.851  0.4068  1.2041 -1.2885
14866TIP3    H244521   3.723   0.179   2.851 -0.7108 -0.6976  0.0941
14867TIP3   OH244522   0.572   5.808   2.482  0.0955 -0.5453 -0.4622
14867TIP3    H144523   0.548   5.899   2.500  0.0676 -0.6244 -0.1050
14867TIP3    H244524   0.528   5.757   2.550 -0.9997 -0.9620 -1.4704
14868TIP3   OH244525   5.990   7.904   0.073  0.1552  0.4514 -0.3603
14868TIP3    H144526   5.897   7.894   0.095  0.1562  2.6933  0.8411
14868TIP3    H244527   6.036   7.855   0.141 -0.1221  0.1472 -0.3907
14869TIP3   OH244528   0.341   8.251   2.548 -0.0079  0.0252 -0.0519
14869TIP3    H144529   0.356   8.345   2.553  1.3813 -0.0996 -1.2338
14869TIP3    H244530   0.347   8.231   2.454 -0.1161 -1.2593  0.2026
14870TIP3   OH244531   4.199   2.104   1.131  0.2471  0.1490  0.2438
14870TIP3    H144532   4.113   2.062   1.138  0.0370  0.5457  0.0161
14870TIP3    H244533   4.208   2.154   1.212 -0.0205  0.6432 -0.0317
14871TIP3   OH244534   7.215   7.669   1.842  0.5313 -0.6114 -0.0128
14871TIP3    H144535   7.306   7.697   1.852 -0.2327  2.4447 -1.2171
14871TIP3    H244536   7.214   7.619   1.760  1.0446 -0.3932 -0.1528
14872TIP3   OH244537   4.301   3.048   6.791 -0.2667  0.0681 -0.0190
14872TIP3    H144538   4.347   2.996   6.858 -0.3459 -1.0314 -0.7982
14872TIP3    H244539   4.368   3.069   6.727 -0.1481  1.2952  0.5050
14873TIP3   OH244540   5.463   7.259   1.501  0.8430 -0.1295 -0.0789
14873TIP3    H144541   5.551   7.241   1.468  0.4022 -0.6055 -1.0092
14873TIP3    H244542   5.443   7.185   1.558 -0.0936 -1.5402 -2.1710
14874TIP3   OH244543   6.603   7.010   0.569 -0.0640 -0.4967 -0.1079
14874TIP3    H144544   6.561   7.097   0.570 -1.5357 -1.1929  0.4553
14874TIP3    H244545   6.615   6.991   0.477  1.2057  0.7413 -0.2188
14875TIP3   OH244546   8.476   0.042   0.524 -0.2066 -0.7166  0.0168
14875TIP3    H144547   8.512   0.131   0.524 -1.6601 -0.1147  1.9498
14875TIP3    H244548   8.543  -0.011   0.567 -0.1409 -0.2132  0.5384
14876TIP3   OH244549   0.767   6.323   1.753  0.3152 -0.2632 -0.3361
14876TIP3    H144550   0.775   6.349   1.845 -0.3142  0.1280 -0.3930
14876TIP3    H244551   0.858   6.321   1.721  0.4087  1.8046 -0.3039
14877TIP3   OH244552   8.257   4.878   0.069 -0.2235  0.2903 -0.0571
14877TIP3    H144553   8.297   4.792   0.087 -0.9336  0.3703  1.9844
14877TIP3    H244554   8.217   4.868  -0.017 -0.8583 -1.6583  0.4354
14878TIP3   OH244555   0.814   1.396   1.786 -0.4628 -0.5212 -0.8078
14878TIP3    H144556   0.873   1.349   1.726 -0.6175  1.6020 -2.7116
14878TIP3    H244557   0.727   1.380   1.750 -0.7115 -0.6212 -0.1566
14879TIP3   OH244558   3.813   0.355   2.924 -0.0248 -0.4597  0.0566
14879TIP3    H144559   3.764   0.343   3.005  0.3007 -1.1066  0.1633
14879TIP3    H244560   3.903   0.334   2.948  0.0349 -0.8848 -0.5305
14880TIP3   OH244561   7.192   8.033   1.503  0.1121  0.2054  0.1515
14880TIP3    H144562   7.135   7.957   1.508  2.3432 -1.5136  0.4302
14880TIP3    H244563   7.192   8.057   1.410  1.3510 -1.7196 -0.3748
14881TIP3   OH244564   5.370   2.932   7.073  0.0124 -0.4782  0.0580
14881TIP3    H144565   5.368   2.966   7.162  3.0532  1.2282 -0.4345
14881TIP3    H244566   5.419   2.850   7.080 -0.1898 -0.5980  0.0538
14882TIP3   OH244567   4.697   1.896   7.193  0.0342  0.3379 -1.1788
14882TIP3    H144568   4.639   1.962   7.232 -0.4288 -0.1873 -0.9597
14882TIP3    H244569   4.783   1.938   7.191  0.0604  0.3952  0.3584
14883TIP3   OH244570   4.690   8.409   0.419 -0.0931 -0.6091  0.2128
14883TIP3    H144571   4.756   8.343   0.439 -0.2000 -0.0184  2.5723
14883TIP3    H244572   4.608   8.373   0.451 -0.5485 -0.3158 -0.5903
14884TIP3   OH244573   6.816   5.196   2.051 -0.6119 -0.0862 -0.4225
14884TIP3    H144574   6.726   5.188   2.019 -1.1949  0.1796  1.0956
14884TIP3    H244575   6.862   5.122   2.013 -1.7900 -0.9539 -0.1903
14885TIP3   OH244576   7.017   5.042   2.829 -0.1462 -0.0412  0.0416
14885TIP3    H144577   6.925   5.019   2.811 -0.5712  2.0358 -0.6114
14885TIP3    H244578   7.045   5.088   2.750  1.3341 -0.2788  0.4260
14886TIP3   OH244579   7.446   8.153   0.276  1.1084 -0.3002 -0.2635
14886TIP3    H144580   7.430   8.245   0.257  1.1375 -0.1530  0.3998
14886TIP3    H244581   7.537   8.149   0.305  0.9143 -0.4316  0.3425
14887TIP3   OH244582   7.922   8.160   0.379 -0.7096  0.1980 -0.1317
14887TIP3    H144583   7.945   8.229   0.441 -0.2663  0.8482 -1.0081
14887TIP3    H244584   7.897   8.207   0.299 -0.5682 -0.6510 -0.6813
14888TIP3   OH244585   8.642   0.266   1.120  0.3316  0.3555  0.2614
14888TIP3    H144586   8.626   0.313   1.038  0.2988 -1.2807 -0.7021
14888TIP3    H244587   8.737   0.250   1.120  0.4756  1.1799  1.0150
14889TIP3   OH244588   5.704   2.930   6.031 -0.2658  0.5295  0.5316
14889TIP3    H144589   5.634   2.905   6.092  1.2952  1.4073  2.7294
14889TIP3    H244590   5.726   2.848   5.986 -0.4064 -0.4801  2.2280
14890TIP3   OH244591   8.442   6.592   4.653  0.4041 -0.1761  0.2370
14890TIP3    H144592   8.506   6.620   4.587  0.4389  1.3590  0.9021
14890TIP3    H244593   8.376   6.661   4.652 -0.6316 -1.1606  0.4029
14891TIP3   OH244594   0.675   8.036   3.817 -0.5780  0.3242 -0.1978
14891TIP3    H144595   0.585   8.002   3.817  0.3379 -2.3951 -3.3771
14891TIP3    H244596   0.666   8.127   3.787 -2.3967  0.6106  1.1215
14892TIP3   OH244597   7.364   0.751   6.978 -0.3371  0.4891 -0.0095
14892TIP3    H144598   7.280   0.796   6.979 -0.1037  1.0079 -1.6717
14892TIP3    H244599   7.344   0.663   6.945  0.0157  1.2073 -2.2272
14893TIP3   OH244600   7.111   7.646   1.335  0.3196  0.0224  0.2577
14893TIP3    H144601   7.032   7.634   1.282 -0.7933  0.6157  1.7288
14893TIP3    H244602   7.159   7.564   1.324 -0.2762 -0.1777 -1.0108
14894TIP3   OH244603   7.818   6.157   0.991  0.3466  0.3346 -0.4342
14894TIP3    H144604   7.798   6.163   1.084  0.4033  1.8699 -0.5056
14894TIP3    H244605   7.896   6.102   0.986  0.1465 -0.0200  0.3958
14895TIP3   OH244606   2.006   0.256   0.578  0.7103 -0.1446  0.0747
14895TIP3    H144607   2.025   0.189   0.512  0.2399 -0.1623 -0.0491
14895TIP3    H244608   1.916   0.236   0.606 -0.5672  2.2049 -2.0954
14896TIP3   OH244609   7.943   4.183   0.359  0.1716  0.4942 -0.1145
14896TIP3    H144610   7.962   4.265   0.405 -0.7812  0.6521  0.0028
14896TIP3    H244611   7.961   4.114   0.424  4.3531  0.3652 -1.2388
14897TIP3   OH244612   0.767   7.991   2.675  0.0833 -0.0113  0.1549
14897TIP3    H144613   0.672   7.984   2.689  0.1508 -0.0791  0.5639
14897TIP3    H244614   0.803   8.014   2.760  0.5167 -0.7102  0.1644
14898TIP3   OH244615   5.049   2.810   7.197 -0.2927  0.6225 -0.1301
14898TIP3    H144616   5.083   2.737   7.249 -3.1614 -0.1335  0.7416
14898TIP3    H244617   5.052   2.780   7.107  0.0895  0.0646  0.0698
14899TIP3   OH244618   3.203   0.288   1.285 -0.0009  0.2070 -0.6424
14899TIP3    H144619   3.273   0.280   1.219  2.0176 -2.6305  1.7259
14899TIP3    H244620   3.228   0.364   1.337  1.0876 -0.4925 -0.1234
14900TIP3   OH244621   5.094   2.453   7.179  0.3972  0.5500  0.1224
14900TIP3    H144622   5.043   2.431   7.258  1.2833  1.2717  0.9057
14900TIP3    H244623   5.031   2.444   7.107 -1.1884  2.7123  1.1923
14901TIP3   OH244624   2.732   0.614   0.405 -0.1572 -0.0781 -0.5171
14901TIP3    H144625   2.693   0.573   0.328 -1.8676 -0.8779  0.7381
14901TIP3    H244626   2.657   0.642   0.457  0.9924  1.4182  0.3539
14902TIP3   OH244627   2.798   0.310   1.193 -0.2269  0.2682  0.0659
14902TIP3    H144628   2.855   0.359   1.135 -0.2865  0.8165  0.4646
14902TIP3    H244629   2.712   0.351   1.184  0.1426  1.4796  1.8334
14903TIP3   OH244630   3.696   1.449   0.487  0.4842 -0.0101  0.2896
14903TIP3    H144631   3.614   1.487   0.458  1.1001  1.6949  0.7133
14903TIP3    H244632   3.760   1.475   0.421  0.8783 -0.4929  0.4724
14904TIP3   OH244633   8.410   7.972   2.652 -0.1416 -0.3668  0.1789
14904TIP3    H144634   8.458   7.948   2.731 -0.6229  0.7731  0.8252
14904TIP3    H244635   8.459   7.930   2.581 -0.1664 -2.0798  1.1401
14905TIP3   OH244636   1.059   0.609   1.367  0.2189 -0.0746  0.2824
14905TIP3    H144637   1.148   0.581   1.386  0.3024  0.6475  0.9549
14905TIP3    H244638   1.004   0.562   1.430  0.5789  2.9810  2.9782
14906TIP3   OH244639   5.725   2.519   7.086  0.2583  0.0153 -0.1813
14906TIP3    H144640   5.792   2.477   7.031  0.0100  2.0227 -2.1284
14906TIP3    H244641   5.694   2.450   7.144  2.5375 -1.4813 -0.6789
14907TIP3   OH244642   8.283   5.642   0.890 -0.1799 -0.3022 -0.8213
14907TIP3    H144643   8.239   5.662   0.972 -0.4489 -3.7395 -0.0882
14907TIP3    H244644   8.264   5.718   0.834 -0.6084  1.7402  1.9921
14908TIP3   OH244645   8.651   8.271   2.052 -0.1862  0.3419  1.1357
14908TIP3    H144646   8.682   8.196   2.001 -0.1481 -0.0920  1.7959
14908TIP3    H244647   8.558   8.252   2.069 -0.6123  1.2261 -0.0951
14909TIP3   OH244648   8.061   4.198   0.621 -0.4238 -0.1269 -1.0940
14909TIP3    H144649   8.130   4.220   0.684 -1.5050 -0.9744  0.4098
14909TIP3    H244650   7.982   4.236   0.659 -0.8651  0.4760 -2.6018
14910TIP3   OH244651   1.967   1.096   0.058 -0.1790  0.2359  0.0956
14910TIP3    H144652   1.975   1.002   0.072 -0.1185  0.2499  0.1544
14910TIP3    H244653   1.910   1.105  -0.018  1.5505  0.1258 -1.2170
14911TIP3   OH244654   3.364   4.191   6.890  0.7721 -0.1141  0.1140
14911TIP3    H144655   3.376   4.110   6.840 -0.9838  0.1867 -0.8331
14911TIP3    H244656   3.309   4.164   6.964 -0.6047  0.3726 -0.7097
14912TIP3   OH244657   2.071   1.173   1.932  0.4363 -0.5613 -0.9099
14912TIP3    H144658   2.006   1.234   1.966 -0.4673 -2.1469  0.2915
14912TIP3    H244659   2.034   1.143   1.849  0.7836  0.3542 -1.4005
14913TIP3   OH244660   0.636   7.373   3.512 -0.4381 -0.1214  0.6179
14913TIP3    H144661   0.697   7.436   3.473 -0.0244 -0.1965  1.1381
14913TIP3    H244662   0.582   7.343   3.438  0.0145  0.1014  0.1936
14914TIP3   OH244663   2.031   5.881   2.207 -0.4231  0.1215  0.6801
14914TIP3    H144664   2.050   5.919   2.121 -3.3724 -0.4781 -0.2965
14914TIP3    H244665   1.936   5.888   2.215 -0.4050 -1.8622  2.9415
14915TIP3   OH244666   5.085   0.177   1.490 -0.0565  0.7571 -0.5001
14915TIP3    H144667   5.109   0.238   1.560  0.3012  1.8585 -1.5632
14915TIP3    H244668   5.087   0.230   1.410  0.2682 -0.6488 -1.4442
14916TIP3   OH244669   2.155   1.191   1.034 -0.0570 -0.0546 -0.2738
14916TIP3    H144670   2.208   1.122   1.075  0.3691  0.6938  0.4548
14916TIP3    H244671   2.068   1.180   1.071 -0.1044 -0.4896 -0.5090
14917TIP3   OH244672   5.333   5.233   7.092 -0.5110  0.4475  0.2042
14917TIP3    H144673   5.322   5.171   7.165 -0.3485 -2.0717 -1.8325
14917TIP3    H244674   5.409   5.199   7.044 -2.5821  0.1605 -2.9541
14918TIP3   OH244675   7.684   5.625   1.062  0.1604 -0.0251  0.7452
14918TIP3    H144676   7.710   5.691   0.998 -1.1974 -0.3761 -0.1991
14918TIP3    H244677   7.689   5.542   1.014 -1.1952 -0.2581  1.0038
14919TIP3   OH244678   0.820   7.354   2.747 -0.3561  0.6902 -0.1043
14919TIP3    H144679   0.752   7.310   2.799 -1.4285  2.1792 -0.2285
14919TIP3    H244680   0.781   7.362   2.660  0.8834 -0.5080 -0.7828
14920TIP3   OH244681   6.015   2.112   5.247 -0.2066  0.1657 -0.3337
14920TIP3    H144682   6.038   2.170   5.320  1.0908 -0.5002 -0.2036
14920TIP3    H244683   6.011   2.171   5.171 -0.1907  0.6448  0.0335
14921TIP3   OH244684   0.587   6.636   2.179 -0.2143  0.0981  0.0703
14921TIP3    H144685   0.583   6.712   2.120 -0.5395 -0.2652 -0.3753
14921TIP3    H244686   0.579   6.560   2.121 -1.8525 -0.2321  0.6957
14922TIP3   OH244687   5.006   6.162   0.344  0.7010 -0.2653  0.3234
14922TIP3    H144688   5.026   6.169   0.251 -0.0642 -1.2812  0.0790
14922TIP3    H244689   4.999   6.253   0.374  0.2050  0.0580 -0.7571
14923TIP3   OH244690   7.853   7.184   1.066  0.1033  0.3406  0.0060
14923TIP3    H144691   7.820   7.262   1.022 -1.3580 -0.0194  0.4417
14923TIP3    H244692   7.845   7.204   1.159  1.9936  0.6035  0.1423
14924TIP3   OH244693   8.759   5.530   3.618 -0.7175  0.1192 -0.1013
14924TIP3    H144694   8.838   5.516   3.566 -0.5729 -0.4188  0.2562
14924TIP3    H244695   8.691   5.482   3.572 -0.5399 -0.5491  0.3218
14925TIP3   OH244696   1.166   7.031   2.254  0.0930 -0.0575  0.4377
14925TIP3    H144697   1.194   7.120   2.232  0.1203 -0.2309 -0.2376
14925TIP3    H244698   1.247   6.986   2.278  0.0479  0.1655  1.0029
14926TIP3   OH244699   6.932   3.703   5.360 -0.1577 -0.4809  0.1696
14926TIP3    H144700   6.843   3.713   5.395 -0.8971  0.4584 -1.9080
14926TIP3    H244701   6.920   3.656   5.277  1.6141 -3.1063  1.3292
14927TIP3   OH244702   6.322   6.675   2.258  0.0106 -0.0549  0.2475
14927TIP3    H144703   6.238   6.661   2.215 -0.5910  0.3039  1.2774
14927TIP3    H244704   6.325   6.768   2.277  0.7564 -0.0247 -0.0217
14928TIP3   OH244705   8.532   8.012   1.365 -0.3103  0.5924  0.1857
14928TIP3    H144706   8.606   7.961   1.397  1.0930  3.0695  1.0634
14928TIP3    H244707   8.567   8.101   1.355 -2.3547  1.1887 -2.3354
14929TIP3   OH244708   7.975   2.404   3.185  0.4110 -0.2630  0.0702
14929TIP3    H144709   7.983   2.315   3.217  0.7860  0.1980  1.2779
14929TIP3    H244710   8.028   2.457   3.245  0.2261  0.7679 -0.6471
14930TIP3   OH244711   6.948   1.672   6.700  0.3259  0.0042  0.1648
14930TIP3    H144712   7.044   1.676   6.707  0.5034 -2.4360 -0.2306
14930TIP3    H244713   6.917   1.684   6.790  0.9688  1.5883  0.1753
14931TIP3   OH244714   0.102   5.938   0.197 -0.0093 -0.4888 -0.2910
14931TIP3    H144715   0.077   5.848   0.219  0.3703 -0.9121 -1.5979
14931TIP3    H244716   0.120   5.979   0.282  0.2810 -1.7764  0.2778
14932TIP3   OH244717   5.509   2.686   7.060  0.7035  0.0072 -0.1388
14932TIP3    H144718   5.583   2.626   7.049 -0.2716 -1.9014  3.2277
14932TIP3    H244719   5.432   2.631   7.047 -0.1837  1.0301  0.7437
14933TIP3   OH244720   6.048   7.474   0.901  0.7102 -0.3771 -0.4038
14933TIP3    H144721   5.979   7.526   0.860  1.3713 -1.0565 -2.4248
14933TIP3    H244722   6.001   7.406   0.950 -0.0876 -0.1450 -0.8427
14934TIP3   OH244723   7.485   4.620   1.106 -0.5000  0.6941  0.1763
14934TIP3    H144724   7.493   4.624   1.011 -2.2135 -1.8208 -0.0952
14934TIP3    H244725   7.571   4.648   1.138 -0.0043  1.8645 -2.0733
14935TIP3   OH244726   7.127   4.201   6.769  0.5297 -0.6364 -0.4863
14935TIP3    H144727   7.114   4.287   6.729 -0.0539  0.4783  2.0082
14935TIP3    H244728   7.136   4.141   6.694  0.5907  1.5129 -2.2622
14936TIP3   OH244729   8.538   7.594   1.533  0.3478 -0.5549  0.5250
14936TIP3    H144730   8.599   7.665   1.512 -1.0732  0.0225 -1.7947
14936TIP3    H244731   8.588   7.514   1.519  1.6602 -0.0523  2.1811
14937TIP3   OH244732   4.279   4.403   6.533  0.0477 -0.2910 -0.1061
14937TIP3    H144733   4.203   4.349   6.514 -0.9413  0.7042  0.9732
14937TIP3    H244734   4.258   4.489   6.496  1.7455 -0.6815 -2.0990
14938TIP3   OH244735   0.398   6.790   3.264  0.2683 -0.1940 -0.1355
14938TIP3    H144736   0.439   6.795   3.177  0.7536 -0.6947  0.0629
14938TIP3    H244737   0.462   6.745   3.318  0.4550  1.1540  0.7773
14939TIP3   OH244738   4.957   3.997   4.964  0.3613 -0.1345  0.0335
14939TIP3    H144739   5.021   4.057   5.003  0.1995  0.1791 -0.1791
14939TIP3    H244740   4.926   4.043   4.886 -1.1177  0.3002  0.8723
14940TIP3   OH244741   8.133   6.243   1.743 -0.4233 -0.2019  0.0680
14940TIP3    H144742   8.202   6.178   1.735 -0.3646 -0.2436  0.9030
14940TIP3    H244743   8.140   6.295   1.663 -0.8703 -1.5931 -0.8937
14941TIP3   OH244744   0.910   6.049   1.792 -0.0624  0.0654 -0.8925
14941TIP3    H144745   0.965   6.015   1.721  3.6377  1.2569  1.2816
14941TIP3    H244746   0.926   6.144   1.791 -2.4775  0.5073 -0.4686
14942TIP3   OH244747   1.487   0.655   2.400 -0.3416  0.3191 -0.2332
14942TIP3    H144748   1.576   0.637   2.371  0.3849  1.7587  1.0289
14942TIP3    H244749   1.481   0.751   2.398 -1.0981  0.3335  1.8798
14943TIP3   OH244750   8.305   5.026   1.835 -0.0144  0.7135  0.1718
14943TIP3    H144751   8.306   5.118   1.858 -1.1938  0.4262  1.4391
14943TIP3    H244752   8.347   5.022   1.749 -4.2817  3.0783 -2.2141
14944TIP3   OH244753   1.654   6.107   1.452  0.0239  0.1513 -0.2164
14944TIP3    H144754   1.612   6.034   1.497 -1.2538  1.4673  0.7905
14944TIP3    H244755   1.662   6.078   1.361  0.0748 -1.4561  0.2839
14945TIP3   OH244756   0.944   6.212   3.154 -0.5693  0.1834 -0.3582
14945TIP3    H144757   0.994   6.278   3.105 -1.8994  1.9035  0.5430
14945TIP3    H244758   0.915   6.150   3.087 -0.2107  1.1153 -1.3996
14946TIP3   OH244759   6.258   1.419   5.007 -0.2315  0.1856 -0.3308
14946TIP3    H144760   6.290   1.437   5.096 -3.0648 -0.6932  0.9076
14946TIP3    H244761   6.338   1.407   4.955  1.4832 -1.5905  2.5740
14947TIP3   OH244762   0.899   7.070   2.418 -0.3554 -0.3059 -0.0908
14947TIP3    H144763   0.980   7.032   2.383  0.5057  1.2537  0.1682
14947TIP3    H244764   0.899   7.160   2.385 -1.5649 -0.0432  0.6110
14948TIP3   OH244765   8.503   6.018   1.437 -0.3647  0.2347  0.0079
14948TIP3    H144766   8.558   6.025   1.515  0.3727  1.8145 -0.6391
14948TIP3    H244767   8.530   5.935   1.397  1.4187  0.8858 -0.1949
14949TIP3   OH244768   2.368   0.543   0.963 -0.3172 -0.1544 -0.2874
14949TIP3    H144769   2.410   0.543   1.049  0.3161  0.9900 -0.5804
14949TIP3    H244770   2.275   0.533   0.982 -0.3928  2.0212  0.6818
14950TIP3   OH244771   2.380   2.569   6.766 -0.0658  0.0238  0.0875
14950TIP3    H144772   2.362   2.612   6.682  0.3106  2.1900  1.0839
14950TIP3    H244773   2.475   2.556   6.766 -0.2042 -1.0449 -0.3066
14951TIP3   OH244774   1.027   7.026   3.950 -0.5856  0.2491  0.0472
14951TIP3    H144775   1.011   7.114   3.982 -0.3239  0.3588 -0.1222
14951TIP3    H244776   1.122   7.021   3.938 -0.6316  0.0554 -0.2603
14952TIP3   OH244777   0.396   7.977   0.362 -0.2649  0.7186 -0.1435
14952TIP3    H144778   0.308   8.002   0.390 -0.9571 -0.5178 -1.1560
14952TIP3    H244779   0.419   8.042   0.295 -0.4583  0.9571  0.0189
14953TIP3   OH244780   1.429   6.259   2.172 -0.4545 -0.2104  0.0342
14953TIP3    H144781   1.382   6.216   2.101 -0.3714  0.3434 -0.3555
14953TIP3    H244782   1.491   6.318   2.128 -2.0164  1.8813  0.5833
14954TIP3   OH244783   8.445   7.659   3.483 -0.6137 -0.1968 -0.0850
14954TIP3    H144784   8.528   7.674   3.528  0.4458 -0.7153 -1.8387
14954TIP3    H244785   8.432   7.737   3.430 -1.4753  0.0739  0.5116
14955TIP3   OH244786   3.010   0.863   6.595 -0.0783  0.5961  0.7970
14955TIP3    H144787   3.038   0.918   6.668  1.6507  0.0088  0.5933
14955TIP3    H244788   3.028   0.774   6.625 -1.4205  0.2124  0.5111
14956TIP3   OH244789   7.508   8.044   1.401  0.3692 -0.1986 -0.3424
14956TIP3    H144790   7.510   7.949   1.387 -1.5833 -0.5596  1.5401
14956TIP3    H244791   7.431   8.074   1.354  1.6209  0.6608 -1.8974
14957TIP3   OH244792   5.696   2.342   6.288 -0.2471  0.0372  0.1272
14957TIP3    H144793   5.757   2.399   6.240  1.6426 -0.6703  1.6394
14957TIP3    H244794   5.691   2.381   6.375 -0.0476 -1.2994  0.7431
14958TIP3   OH244795   5.627   7.422   1.248 -0.0562  0.2167 -0.3208
14958TIP3    H144796   5.597   7.481   1.317  0.7836  0.7755 -0.4225
14958TIP3    H244797   5.557   7.358   1.239  0.2622 -0.4533  1.7422
14959TIP3   OH244798   7.088   6.287   0.031 -0.3148  0.0556  0.2942
14959TIP3    H144799   7.181   6.292   0.010  0.3042 -1.2538  2.5616
14959TIP3    H244800   7.064   6.376   0.058  1.1486 -0.3746  3.0870
14960TIP3   OH244801   6.567   7.925   1.738  0.2553  0.0036  0.1028
14960TIP3    H144802   6.479   7.957   1.760 -1.6706 -3.5836 -2.0116
14960TIP3    H244803   6.590   7.867   1.811  0.3110 -0.1028 -0.0010
14961TIP3   OH244804   5.495   3.011   6.201  0.1200 -0.1701 -0.3520
14961TIP3    H144805   5.526   2.981   6.286  1.4179 -0.0014 -0.7500
14961TIP3    H244806   5.513   3.105   6.200  0.3130 -0.2070 -0.8901
14962TIP3   OH244807   1.659   0.974   2.113 -0.3064  0.1453  0.3711
14962TIP3    H144808   1.622   1.039   2.172 -0.4960  0.8399 -0.4916
14962TIP3    H244809   1.733   0.937   2.161  0.2568  1.5258  0.6122
14963TIP3   OH244810   7.575   5.582   1.741 -0.0217  0.0693  0.6835
14963TIP3    H144811   7.604   5.573   1.832  0.6623  2.7075  0.7579
14963TIP3    H244812   7.652   5.558   1.689  0.0259 -0.0362  0.8025
14964TIP3   OH244813   1.193   5.882   2.870  0.0009 -0.1833 -0.6659
14964TIP3    H144814   1.222   5.810   2.815  2.0578  1.5985 -1.9974
14964TIP3    H244815   1.142   5.938   2.811 -0.4092  0.1667  0.0066
14965TIP3   OH244816   7.984   8.072   4.362  0.2993  0.0753 -0.2991
14965TIP3    H144817   7.947   8.160   4.350 -0.7773 -0.3461 -0.0478
14965TIP3    H244818   8.069   8.088   4.403 -0.1637  0.9641  0.3461
14966TIP3   OH244819   6.413   2.037   6.499  0.2528  0.1442 -0.6610
14966TIP3    H144820   6.386   2.129   6.504  0.4404  0.0467  4.0528
14966TIP3    H244821   6.491   2.039   6.443  0.1303  2.8015 -0.8311
14967TIP3   OH244822   1.655   7.363   2.594  0.1700 -0.4565 -0.2835
14967TIP3    H144823   1.689   7.453   2.585 -0.1615 -0.4668 -1.6148
14967TIP3    H244824   1.617   7.362   2.682 -1.8354  1.3856 -1.0889
14968TIP3   OH244825   6.564   3.289   4.974  0.0495  0.4895  0.0966
14968TIP3    H144826   6.482   3.246   5.000  0.0103  0.1842 -0.5132
14968TIP3    H244827   6.537   3.359   4.915  0.3516 -0.7938 -1.5929
14969TIP3   OH244828   6.957   8.229   3.697 -0.1023  0.0583 -0.6515
14969TIP3    H144829   6.889   8.266   3.641 -1.0588 -0.3789  0.1867
14969TIP3    H244830   6.921   8.144   3.723 -0.0993  0.6473  1.3546
14970TIP3   OH244831   1.537   6.591   1.969  0.3914 -0.1641  0.4187
14970TIP3    H144832   1.620   6.544   1.962  0.2619 -0.3271 -0.0553
14970TIP3    H244833   1.477   6.542   1.913 -0.5596 -1.2017  2.3038
14971TIP3   OH244834   0.071   7.074   0.491 -0.1263  0.3728 -0.3106
14971TIP3    H144835   0.116   7.157   0.474  0.4473  0.0981 -0.1560
14971TIP3    H244836  -0.016   7.085   0.453  0.6166  0.3264 -2.0833
14972TIP3   OH244837   5.409   4.209   7.136  0.5115  0.5109 -0.0667
14972TIP3    H144838   5.377   4.168   7.216 -0.7101 -1.4654 -1.5324
14972TIP3    H244839   5.374   4.298   7.139  0.3285  0.4016  1.4890
14973TIP3   OH244840   2.656   0.605   2.626 -0.5356  0.4265 -0.4616
14973TIP3    H144841   2.612   0.543   2.568 -0.2321 -1.9640  1.7457
14973TIP3    H244842   2.706   0.662   2.568  1.2819 -3.0978 -2.5030
14974TIP3   OH244843   6.861   8.004   1.327 -0.7909 -0.6113 -0.1759
14974TIP3    H144844   6.774   7.993   1.365 -0.0119 -2.7060  1.0567
14974TIP3    H244845   6.916   7.940   1.372  2.0548  2.5414  1.0291
14975TIP3   OH244846   0.251   7.564   1.287 -0.3825 -0.4914 -0.3172
14975TIP3    H144847   0.311   7.523   1.225  1.0754  0.9222  0.1492
14975TIP3    H244848   0.222   7.643   1.242 -0.4716 -0.2247  0.2159
14976TIP3   OH244849   0.310   7.254   2.597 -0.6549  0.2159  0.3771
14976TIP3    H144850   0.312   7.349   2.588 -1.0049  0.2371  0.5172
14976TIP3    H244851   0.299   7.222   2.507 -1.2573  0.3324  0.4080
14977TIP3   OH244852   5.299   5.668   6.406 -0.0975 -0.2069 -0.4961
14977TIP3    H144853   5.338   5.599   6.459 -0.4375  0.2163  0.3053
14977TIP3    H244854   5.219   5.628   6.370 -0.7491  0.0446  0.6617
14978TIP3   OH244855   6.959   7.530   0.866  0.1852 -0.2380  0.3547
14978TIP3    H144856   7.033   7.490   0.820  0.7819  1.6813 -0.4468
14978TIP3    H244857   6.948   7.615   0.823 -0.1573  1.0369  2.8623
14979TIP3   OH244858   5.812   2.075   6.329  0.0070 -0.2542  0.1927
14979TIP3    H144859   5.875   2.088   6.400 -0.4718 -3.1133  1.2104
14979TIP3    H244860   5.756   2.153   6.332  1.2561  0.6175  1.5896
14980TIP3   OH244861   7.219   7.470   0.332  0.2332  0.0829  0.4713
14980TIP3    H144862   7.287   7.530   0.300  0.1499 -0.9811 -1.7656
14980TIP3    H244863   7.267   7.392   0.361  0.0453 -0.2242 -0.0511
14981TIP3   OH244864   2.671   0.964   0.239 -0.1676 -0.1707  0.1171
14981TIP3    H144865   2.643   1.050   0.268  0.6543 -0.2869  1.2979
14981TIP3    H244866   2.746   0.980   0.181  0.5240 -0.1244  1.0111
14982TIP3   OH244867   0.167   7.817   1.214 -0.4418 -0.4227  0.0361
14982TIP3    H144868   0.153   7.906   1.245 -0.3968 -0.5816  0.5130
14982TIP3    H244869   0.145   7.821   1.121  2.3249  0.7532 -0.6062
14983TIP3   OH244870   0.312   7.857   0.826 -0.3483 -0.7019  0.0638
14983TIP3    H144871   0.362   7.777   0.841 -0.0617 -0.4322  0.5919
14983TIP3    H244872   0.379   7.925   0.820 -0.5962 -0.4867 -0.2714
14984TIP3   OH244873   2.026   0.071   0.924 -0.1291 -0.1795 -0.0856
14984TIP3    H144874   2.047   0.007   0.992  0.6308 -0.0965 -0.2477
14984TIP3    H244875   1.966   0.132   0.966 -0.2651 -0.5645  0.2875
14985TIP3   OH244876   1.728   0.986   2.989 -0.5417  0.5036 -0.0646
14985TIP3    H144877   1.743   0.925   3.061 -2.8833  0.6038  0.5453
14985TIP3    H244878   1.760   1.070   3.022  3.0666 -0.3780 -1.0521
14986TIP3   OH244879   6.220   7.895   0.417  0.3969 -0.0834 -0.1267
14986TIP3    H144880   6.296   7.837   0.427 -0.7922 -1.4805  0.9220
14986TIP3    H244881   6.157   7.844   0.366  0.8936  1.7989 -2.6941
14987TIP3   OH244882   5.122   3.787   6.701  0.1104 -0.4577 -0.2251
14987TIP3    H144883   5.141   3.752   6.613  0.7451  1.9847 -1.1018
14987TIP3    H244884   5.107   3.880   6.687  1.8446  0.2893  2.4882
14988TIP3   OH244885   8.779   8.118   1.137 -0.7980  0.3705  0.3901
14988TIP3    H144886   8.688   8.126   1.107 -1.1021  0.1177  1.2335
14988TIP3    H244887   8.790   8.188   1.201 -0.1878  0.8289 -0.2092
14989TIP3   OH244888   7.457   7.271   1.104 -0.3481 -0.1188 -0.0468
14989TIP3    H144889   7.406   7.234   1.176 -0.7191  1.2706  0.4104
14989TIP3    H244890   7.405   7.345   1.073  0.8256  0.5987 -0.3326
14990TIP3   OH244891   5.112   3.326   6.214  0.2375  0.5080 -0.2329
14990TIP3    H144892   5.089   3.306   6.305 -0.3433  1.0349 -0.2621
14990TIP3    H244893   5.066   3.407   6.194  1.7621  1.3524 -0.4439
14991TIP3   OH244894   0.713   5.917   0.263  0.3115  0.3853 -0.4658
14991TIP3    H144895   0.640   5.922   0.325  1.9078  1.4619  1.4077
14991TIP3    H244896   0.680   5.959   0.184 -2.8342 -3.7261 -1.5152
14992TIP3   OH244897   7.925   5.782   1.715  0.4445 -0.0496  0.4669
14992TIP3    H144898   7.876   5.767   1.796 -2.1637  1.3523 -0.7744
14992TIP3    H244899   7.974   5.702   1.700 -0.9347 -1.2300  2.1566
14993TIP3   OH244900   6.441   2.136   5.595  0.0064  0.5029 -0.0099
14993TIP3    H144901   6.465   2.172   5.510 -0.0962 -1.1406 -0.7514
14993TIP3    H244902   6.367   2.078   5.577  0.1631 -0.0777  1.1535
14994TIP3   OH244903   5.904   3.310   4.624 -0.2572  0.2926 -0.5570
14994TIP3    H144904   5.891   3.355   4.541  1.4450  0.9723 -0.4719
14994TIP3    H244905   5.953   3.372   4.678  0.1088 -0.7776  0.3582
14995TIP3   OH244906   0.304   5.500   2.089  0.2694  0.3301 -0.0243
14995TIP3    H144907   0.302   5.545   2.173 -0.3993  0.5687 -0.1602
14995TIP3    H244908   0.216   5.462   2.081  0.0679  0.9642 -0.9580
14996TIP3   OH244909   0.831   5.411   2.122 -0.3544 -0.6665 -0.6867
14996TIP3    H144910   0.752   5.384   2.076 -1.2777 -0.2967  0.6694
14996TIP3    H244911   0.898   5.348   2.095 -1.7991 -2.6643  0.3213
14997TIP3   OH244912   0.142   6.821   0.425  0.2639 -0.4590 -0.4066
14997TIP3    H144913   0.108   6.908   0.443  0.7346 -0.4192  0.2986
14997TIP3    H244914   0.212   6.835   0.361  0.6357 -0.2665  0.0393
14998TIP3   OH244915   6.877   8.290   0.227  0.1880 -0.1754  0.0416
14998TIP3    H144916   6.863   8.286   0.322  0.9697  1.7499  0.2655
14998TIP3    H244917   6.972   8.298   0.217  0.0250  0.8374 -0.8390
14999TIP3   OH244918   8.396   7.283   1.860  0.8125  0.5255  0.0050
14999TIP3    H144919   8.425   7.274   1.769  2.4509 -2.8717  0.7995
14999TIP3    H244920   8.356   7.198   1.881  1.6483  0.7677  2.8458
15000TIP3   OH244921   4.552   3.833   7.163  0.3026  0.1550  0.3778
15000TIP3    H144922   4.581   3.875   7.082  0.7688  0.4798  0.7077
15000TIP3    H244923   4.471   3.879   7.186  0.0610 -0.0778 -0.0164
15001TIP3   OH244924   0.918   7.880   1.442 -0.1966  0.3252  0.3366
15001TIP3    H144925   0.943   7.883   1.535 -1.0519 -0.2020  0.5858
15001TIP3    H244926   0.984   7.933   1.398  0.7632 -0.1852  1.1290
15002TIP3   OH244927   0.130   6.369   3.344 -0.4002 -0.2911  0.2840
15002TIP3    H144928   0.098   6.428   3.412 -0.1449 -0.0780  0.2212
15002TIP3    H244929   0.148   6.287   3.390  0.2747  0.0127  0.5788
15003TIP3   OH244930   7.123   6.663   0.473  0.1443  0.2019 -0.4828
15003TIP3    H144931   7.028   6.653   0.476  0.3964 -2.3596  0.7039
15003TIP3    H244932   7.140   6.749   0.512 -1.6096  0.1731  0.3894
15004TIP3   OH244933   3.339   0.708   1.835  0.0913  0.2734  0.0286
15004TIP3    H144934   3.265   0.675   1.784  0.2510 -1.5607  0.9156
15004TIP3    H244935   3.305   0.785   1.880 -1.2607 -0.4773  0.3351
15005TIP3   OH244936   1.357   6.896   1.358  0.2650  0.0145  0.0481
15005TIP3    H144937   1.310   6.953   1.418 -0.7697  0.1901 -0.9264
15005TIP3    H244938   1.348   6.809   1.395 -1.3161 -0.0310 -0.4360
15006TIP3   OH244939   8.642   5.195   2.459 -0.6053 -0.6594  0.3706
15006TIP3    H144940   8.578   5.245   2.509 -0.3509 -1.4516  1.5352
15006TIP3    H244941   8.613   5.104   2.468  0.9940 -1.0935  1.4542
15007TIP3   OH244942   0.782   0.496   2.080  0.5965  0.3127 -0.5259
15007TIP3    H144943   0.758   0.536   1.996 -0.2612  1.3127  0.2009
15007TIP3    H244944   0.816   0.568   2.132  0.1411 -0.1152  0.3640
15008TIP3   OH244945   4.073   2.987   6.604  0.1674 -0.5350 -0.2582
15008TIP3    H144946   4.153   2.980   6.654 -0.1119  1.2274  0.4630
15008TIP3    H244947   4.086   3.063   6.547 -1.7686  1.0860  1.3785
15009TIP3   OH244948   1.011   1.062   3.925  0.1616 -0.1836  0.1415
15009TIP3    H144949   0.956   1.140   3.919  3.1308  1.9726 -0.0910
15009TIP3    H244950   1.031   1.039   3.835 -0.0714 -0.7488  0.2313
15010TIP3   OH244951   6.385   7.660   1.200  0.3782  0.0889  0.2319
15010TIP3    H144952   6.368   7.642   1.293  0.3034  0.9164  0.3808
15010TIP3    H244953   6.338   7.741   1.182  1.4181  0.6079 -0.2110
15011TIP3   OH244954   0.280   7.041   0.860 -0.0333 -0.4049  0.0434
15011TIP3    H144955   0.208   7.076   0.808  0.1047  1.7798  1.2266
15011TIP3    H244956   0.339   7.000   0.797 -1.1301 -0.0714 -1.2036
15012TIP3   OH244957   2.663   0.250   0.249 -0.4124  0.6148 -0.2323
15012TIP3    H144958   2.753   0.221   0.236 -0.2285  1.5257 -1.0659
15012TIP3    H244959   2.611   0.170   0.248  0.1597  0.2539 -1.7761
15013TIP3   OH244960   0.243   6.555   3.137 -0.2090  0.2035 -0.3173
15013TIP3    H144961   0.213   6.502   3.210  1.7169 -0.2777  0.1315
15013TIP3    H244962   0.220   6.645   3.162 -2.1796 -0.2301 -0.4531
15014TIP3   OH244963   5.894   3.659   5.649  0.4499 -0.2815  0.1823
15014TIP3    H144964   5.932   3.626   5.567  0.3608 -0.3057  0.1499
15014TIP3    H244965   5.956   3.631   5.717  1.6838  1.6673 -0.0960
15015TIP3   OH244966   0.468   7.113   0.386  0.8970 -0.2177  0.0774
15015TIP3    H144967   0.512   7.185   0.430  2.4688 -0.9991 -0.1816
15015TIP3    H244968   0.408   7.155   0.324 -1.3056  0.9010  2.8696
15016TIP3   OH244969   6.265   2.615   6.811 -0.3065  0.1359  0.3347
15016TIP3    H144970   6.241   2.540   6.865 -1.1652 -0.6612 -1.1094
15016TIP3    H244971   6.360   2.622   6.821 -0.4033 -0.2221  1.6350
15017TIP3   OH244972   7.713   6.989   0.546  0.3644 -0.6001  0.3500
15017TIP3    H144973   7.667   7.055   0.598  1.3936  0.3363  0.0944
15017TIP3    H244974   7.787   6.963   0.602  0.4040 -0.9673  0.1260
15018TIP3   OH244975   6.017   2.050   6.719  0.7169  0.1484  0.1822
15018TIP3    H144976   5.932   2.068   6.759  0.7372  1.2565 -0.2461
15018TIP3    H244977   6.077   2.039   6.793  0.4466  0.6310  0.4749
15019TIP3   OH244978   0.614   7.281   2.547  0.1820 -0.5076  0.2669
15019TIP3    H144979   0.522   7.286   2.570  0.1129 -2.3436  0.5069
15019TIP3    H244980   0.615   7.270   2.452  0.3552  3.9585 -0.3461
15020TIP3   OH244981   0.114   6.014   1.250 -0.0324 -0.4333 -0.2122
15020TIP3    H144982   0.077   5.928   1.269 -1.7364  0.0195 -1.4011
15020TIP3    H244983   0.208   5.998   1.238 -0.3631 -2.1420 -0.5631
15021TIP3   OH244984   0.499   0.141   3.688  0.0783 -0.5253 -0.0009
15021TIP3    H144985   0.444   0.074   3.649  0.1797 -0.7412  0.2224
15021TIP3    H244986   0.553   0.173   3.616  0.2090 -0.8632 -0.0565
15022TIP3   OH244987   1.460   0.324   1.999 -0.4812  0.6415 -0.2030
15022TIP3    H144988   1.475   0.340   1.906 -0.0781 -0.3253 -0.3097
15022TIP3    H244989   1.406   0.245   2.001 -2.6918  2.1076  0.3034
15023TIP3   OH244990   4.597   0.071   3.361  0.2780  0.0191 -0.3838
15023TIP3    H144991   4.617  -0.022   3.355 -0.3621 -0.1055 -0.5907
15023TIP3    H244992   4.502   0.075   3.369  0.2158  0.7055 -1.4197
15024TIP3   OH244993   2.644   1.013   3.363 -0.1407 -0.5967 -0.1484
15024TIP3    H144994   2.574   1.075   3.383  0.8335  1.5708 -3.0674
15024TIP3    H244995   2.724   1.058   3.389  0.4442 -1.4217 -0.5087
15025TIP3   OH244996   5.323   2.494   7.013 -0.4344  0.2395 -0.2510
15025TIP3    H144997   5.249   2.508   7.071 -1.2231  1.1534 -1.4475
15025TIP3    H244998   5.318   2.402   6.989 -2.4523  0.7556 -1.9712
15026TIP3   OH244999   7.712   8.225   1.211 -0.4541  0.5945 -0.3842
15026TIP3    H145000   7.716   8.306   1.262  1.0919  0.2437  0.0656
15026TIP3    H245001   7.731   8.156   1.273  1.9607  0.2013 -1.4979
15027TIP3   OH245002   5.205   3.581   6.453  1.0159  0.1656 -0.1693
15027TIP3    H145003   5.122   3.539   6.477  1.2642  0.1126  0.6041
15027TIP3    H245004   5.272   3.520   6.483  1.3472  0.4743 -0.2841
15028TIP3   OH245005   8.366   8.351   2.061 -0.3445 -0.1097  0.1844
15028TIP3    H145006   8.275   8.366   2.037 -0.5871 -0.0860  1.0864
15028TIP3    H245007   8.368   8.260   2.091  0.2211 -0.5455 -1.1530
15029TIP3   OH245008   4.461   0.203   0.634 -0.0656  0.1624  0.8430
15029TIP3    H145009   4.408   0.202   0.714  0.3578  1.9197  1.1611
15029TIP3    H245010   4.534   0.261   0.655  1.5850 -1.6036  0.1377
15030TIP3   OH245011   7.778   6.646   0.484 -0.1288  0.2370  0.0124
15030TIP3    H145012   7.686   6.664   0.506  0.0440 -1.3581  2.3489
15030TIP3    H245013   7.824   6.656   0.567  2.0378  2.1878 -1.3870
15031TIP3   OH245014   0.784   7.705   2.056 -0.4554  0.4575 -0.1126
15031TIP3    H145015   0.731   7.641   2.104  1.2110  0.3837  1.6802
15031TIP3    H245016   0.811   7.658   1.977 -1.6121 -0.0858 -0.2040
15032TIP3   OH245017   5.335   1.564   6.190 -0.1653  0.6251  0.0433
15032TIP3    H145018   5.411   1.579   6.245  1.4082 -1.0886 -1.6003
15032TIP3    H245019   5.305   1.652   6.167  1.3309  1.3234  0.6694
15033TIP3   OH245020   6.956   2.652   6.768  0.4931  0.3837 -0.2310
15033TIP3    H145021   6.949   2.624   6.860 -1.4771 -2.8945 -1.2619
15033TIP3    H245022   6.971   2.570   6.720 -0.0437  1.8494 -2.9629
15034TIP3   OH245023   4.426   1.340   1.396 -0.3653 -0.0864  0.0546
15034TIP3    H145024   4.441   1.433   1.413 -1.5599 -0.1817  1.7506
15034TIP3    H245025   4.338   1.336   1.358 -0.3889 -0.5412  0.1488
15035TIP3   OH245026   6.920   7.484   3.065  1.0840  0.1985 -0.2829
15035TIP3    H145027   6.938   7.416   3.000 -0.4379 -0.8241  0.3235
15035TIP3    H245028   6.918   7.565   3.015  0.1621 -0.5546 -1.4848
15036TIP3   OH245029   6.989   2.262   7.184 -0.1322 -0.2789 -0.2957
15036TIP3    H145030   6.916   2.297   7.235 -0.5278  0.6663 -1.4737
15036TIP3    H245031   7.064   2.314   7.212 -0.2880  0.0231 -0.4254
15037TIP3   OH245032   7.427   1.790   4.774 -0.4206  0.2290  0.4988
15037TIP3    H145033   7.481   1.770   4.698  0.3751  2.3663  0.4728
15037TIP3    H245034   7.358   1.848   4.741 -1.5590 -0.8667  0.9215
15038TIP3   OH245035   6.895   1.734   5.711  0.2251 -0.3988 -0.2468
15038TIP3    H145036   6.867   1.817   5.749 -1.5976 -2.1899  2.5789
15038TIP3    H245037   6.989   1.731   5.726  0.0487  0.4653  1.0812
15039TIP3   OH245038   6.245   7.478   3.437 -0.5395  0.0244 -0.4249
15039TIP3    H145039   6.221   7.454   3.348 -0.5704 -0.2662 -0.3358
15039TIP3    H245040   6.276   7.569   3.430 -0.8085  0.0945 -0.6826
15040TIP3   OH245041   0.006   7.999   2.429 -0.4575 -0.0665 -0.9073
15040TIP3    H145042   0.016   8.039   2.342 -1.1762  1.1532 -0.4276
15040TIP3    H245043   0.068   7.926   2.428  4.1659  3.6541 -0.2036
15041TIP3   OH245044   0.781   6.916   3.336 -0.2222  0.1170  0.0985
15041TIP3    H145045   0.725   6.858   3.285 -0.8137  0.5500  0.2551
15041TIP3    H245046   0.733   6.930   3.418 -0.3159  1.2442 -0.1491
15042TIP3   OH245047   4.929   1.275   5.337  0.2497 -0.6296 -0.6487
15042TIP3    H145048   5.006   1.331   5.343 -0.2034  0.1131 -1.5895
15042TIP3    H245049   4.928   1.226   5.419  1.0329  0.2448 -0.1108
15043TIP3   OH245050   7.882   6.487   1.291  0.5538  0.6993 -0.0698
15043TIP3    H145051   7.796   6.471   1.331  0.5524 -0.7848 -0.6300
15043TIP3    H245052   7.871   6.570   1.246 -0.4411  0.7909  0.3128
15044TIP3   OH245053   8.703   8.402   2.451  0.2445  0.2924 -0.3343
15044TIP3    H145054   8.722   8.438   2.365 -2.3672  0.3812 -0.9223
15044TIP3    H245055   8.683   8.309   2.434 -2.4467  0.8034 -0.1753
15045TIP3   OH245056   2.126   8.207   1.122 -0.9639  0.4833 -0.0673
15045TIP3    H145057   2.110   8.262   1.198  0.8953 -0.6778  1.1868
15045TIP3    H245058   2.181   8.260   1.065  2.7637 -0.7910  2.1598
15046TIP3   OH245059   5.779   2.063   6.850 -0.4099 -0.5569  0.1039
15046TIP3    H145060   5.769   1.968   6.851 -0.8807 -0.5121  1.3748
15046TIP3    H245061   5.718   2.093   6.783  0.3435 -1.2017 -0.8873
15047TIP3   OH245062   7.860   4.790   1.442  0.5598  0.0112  0.0183
15047TIP3    H145063   7.844   4.714   1.498  1.7266 -1.0295 -1.0225
15047TIP3    H245064   7.956   4.797   1.438  0.4621  1.8482  0.5054
15048TIP3   OH245065   8.853   6.966   0.133  0.1258 -0.2599  0.1439
15048TIP3    H145066   8.844   7.008   0.047 -0.1138  0.2436  0.4168
15048TIP3    H245067   8.764   6.946   0.160  0.2420 -1.0172 -0.0131
15049TIP3   OH245068   8.557   6.520   0.990  0.4605  0.1311  0.1640
15049TIP3    H145069   8.483   6.489   1.043  0.1058  1.4290  0.4577
15049TIP3    H245070   8.633   6.474   1.026 -0.2662 -1.5521 -0.4415
15050TIP3   OH245071   7.185   1.793   5.700  0.0797  0.1587 -0.0794
15050TIP3    H145072   7.195   1.886   5.680 -1.7247  0.0680 -1.5396
15050TIP3    H245073   7.244   1.749   5.639 -1.1492  0.2269 -1.3721
15051TIP3   OH245074   5.693   2.747   6.813  0.2833 -0.8050  0.4257
15051TIP3    H145075   5.637   2.769   6.888  0.9296 -0.8277  0.9127
15051TIP3    H245076   5.651   2.670   6.774  0.9431 -1.8842  1.8254
15052TIP3   OH245077   5.240   3.419   3.785  0.0402  0.5443  0.4707
15052TIP3    H145078   5.259   3.433   3.692  1.2381  1.5817  0.8753
15052TIP3    H245079   5.298   3.348   3.811  0.1225  0.6538  0.5820
15053TIP3   OH245080   1.880   0.449   2.223 -0.1155  0.3445  0.6239
15053TIP3    H145081   1.970   0.482   2.231 -1.2712  3.5015  1.6041
15053TIP3    H245082   1.865   0.443   2.129  1.3841 -0.9800  0.4600
15054TIP3   OH245083   3.631   1.499   2.844  0.4110 -0.0294  0.3963
15054TIP3    H145084   3.678   1.539   2.917  0.6850  0.7646 -0.2068
15054TIP3    H245085   3.694   1.441   2.803 -0.3450 -2.0220  1.9963
15055TIP3   OH245086   8.715   6.026   1.616  0.3017 -0.2397 -0.1049
15055TIP3    H145087   8.685   6.018   1.706 -2.3333 -1.9394 -1.0670
15055TIP3    H245088   8.802   5.987   1.616  0.5712  0.3222  1.8079
15056TIP3   OH245089   5.494   5.100   6.913 -0.1685  0.1730  0.0843
15056TIP3    H145090   5.517   5.011   6.939 -1.5220 -0.0220  0.6768
15056TIP3    H245091   5.549   5.118   6.837 -0.2002 -1.3322 -0.3137
15057TIP3   OH245092   8.353   6.859   2.624  0.4749 -0.3530  0.1626
15057TIP3    H145093   8.360   6.947   2.662  0.5289 -0.8077  1.2136
15057TIP3    H245094   8.438   6.818   2.641  0.0322 -1.0349  0.7628
15058TIP3   OH245095   6.623   5.194   6.882 -0.2327 -0.5757 -0.1634
15058TIP3    H145096   6.538   5.174   6.921  0.5976  0.4293  2.2891
15058TIP3    H245097   6.605   5.266   6.821 -0.7438  1.5835  2.4418
15059TIP3   OH245098   8.549   8.198   1.019 -0.8725 -0.5351  0.4265
15059TIP3    H145099   8.551   8.282   1.066 -3.0228 -0.7372  0.9187
15059TIP3    H245100   8.458   8.172   1.021 -0.7856 -1.2324 -2.7232
15060TIP3   OH245101   8.744   8.053   1.921 -1.0576 -0.1171  0.1435
15060TIP3    H145102   8.815   7.991   1.905  0.5466  1.3023  1.6301
15060TIP3    H245103   8.681   8.035   1.852  1.7444  0.0606 -2.5801
15061TIP3   OH245104   1.319   7.930   2.067  0.3894  0.0166 -0.0093
15061TIP3    H145105   1.246   7.990   2.058  0.6231  0.5749  1.6205
15061TIP3    H245106   1.394   7.977   2.031  0.4714  0.5259  0.8031
15062TIP3   OH245107   7.833   7.332   0.262 -0.2110  0.2456  0.1245
15062TIP3    H145108   7.883   7.384   0.199 -0.5753  1.6945  1.0123
15062TIP3    H245109   7.773   7.280   0.208  0.2381  0.6482 -0.7728
15063TIP3   OH245110   1.213   7.441   2.902  0.5862  0.1208  0.4796
15063TIP3    H145111   1.171   7.498   2.838  0.4987  0.6963  1.0378
15063TIP3    H245112   1.141   7.393   2.943  0.3888  1.5418  1.8551
15064TIP3   OH245113   7.415   7.513   0.638 -0.0979 -0.0668  0.0633
15064TIP3    H145114   7.400   7.444   0.574  0.5259 -0.0119 -0.1419
15064TIP3    H245115   7.509   7.513   0.653 -0.2807 -0.3020  1.2402
15065TIP3   OH245116   8.284   7.161   0.805  0.1304 -0.0470 -0.3947
15065TIP3    H145117   8.341   7.214   0.749  1.7281 -1.0646  0.2249
15065TIP3    H245118   8.337   7.144   0.883 -0.7310 -1.7150 -0.1578
15066TIP3   OH245119   0.103   6.512   1.369  0.4244 -0.1075  0.3981
15066TIP3    H145120   0.099   6.448   1.298  1.5575 -1.8537  1.8773
15066TIP3    H245121   0.014   6.513   1.404 -0.3352  1.3058 -1.4728
15067TIP3   OH245122   8.778   8.024   3.110  0.4173 -0.2970  0.0002
15067TIP3    H145123   8.757   7.931   3.122  2.0383 -0.6845 -0.0629
15067TIP3    H245124   8.874   8.028   3.114  0.4093  1.2451 -0.8838
15068TIP3   OH245125   0.367   0.554   0.455  0.0338 -0.4763  0.1835
15068TIP3    H145126   0.338   0.636   0.414  3.2693  0.4616 -0.3915
15068TIP3    H245127   0.325   0.485   0.403  0.1529  0.7785 -1.6303
15069TIP3   OH245128   6.822   3.531   6.317 -0.2396 -0.2746  0.3276
15069TIP3    H145129   6.775   3.614   6.327 -1.5249 -0.6877 -2.0484
15069TIP3    H245130   6.760   3.465   6.348  0.4460 -0.4466  1.3519
15070TIP3   OH245131   0.642   7.505   2.212  0.0712 -0.0409  0.0813
15070TIP3    H145132   0.647   7.411   2.231  1.8014 -0.4860 -2.3399
15070TIP3    H245133   0.561   7.534   2.255  0.9614 -2.0345  3.2537
15071TIP3   OH245134   8.849   6.137   0.087  0.2059 -0.2769  0.1530
15071TIP3    H145135   8.902   6.079   0.141 -1.7637 -1.4661  0.8536
15071TIP3    H245136   8.763   6.137   0.128 -0.8379  0.2239 -1.9363
15072TIP3   OH245137   8.759   7.372   1.498 -0.4698 -0.3568  0.0047
15072TIP3    H145138   8.821   7.412   1.437 -0.4960 -1.1847 -0.5679
15072TIP3    H245139   8.798   7.286   1.518 -0.8376 -0.3938  0.5715
15073TIP3   OH245140   1.288   0.344   1.139 -0.1925  0.3210  0.3535
15073TIP3    H145141   1.306   0.435   1.117  0.2804  0.0019 -0.5961
15073TIP3    H245142   1.193   0.335   1.133 -0.1811  0.5860 -0.1782
15074TIP3   OH245143   4.970   3.664   3.847  0.5271  0.2410  0.2916
15074TIP3    H145144   4.878   3.645   3.863  0.2510  1.8984  0.8413
15074TIP3    H245145   5.016   3.584   3.870 -0.5172  0.3338  2.8655
15075TIP3   OH245146   3.720   2.785   6.275 -0.1791 -0.3694 -0.0662
15075TIP3    H145147   3.654   2.839   6.321  0.4034 -0.6896  1.1767
15075TIP3    H245148   3.674   2.752   6.198 -1.4202 -0.4080  0.6650
15076TIP3   OH245149   6.006   2.642   5.139  0.3178  0.0118  0.0269
15076TIP3    H145150   6.076   2.614   5.080 -0.2942 -1.1914 -0.1428
15076TIP3    H245151   5.950   2.698   5.085  0.0102 -0.7211 -0.4308
15077TIP3   OH245152   7.770   6.621   1.040 -0.5285  0.3346  0.1686
15077TIP3    H145153   7.738   6.666   0.961 -1.2332 -1.9406 -0.8919
15077TIP3    H245154   7.846   6.571   1.010 -0.4510 -0.1015  1.0798
15078TIP3   OH245155   7.313   6.447   0.940 -0.0630  0.4592  0.3837
15078TIP3    H145156   7.352   6.389   0.875 -0.2192 -0.5412  1.1754
15078TIP3    H245157   7.311   6.533   0.897  0.2033 -0.1043 -0.7792
15079TIP3   OH245158   2.152   0.537   2.233  0.2702  0.1063  0.1582
15079TIP3    H145159   2.214   0.582   2.176  0.9271 -0.7378  0.1893
15079TIP3    H245160   2.203   0.466   2.272 -1.1312 -1.6578 -1.1341
15080TIP3   OH245161   7.405   3.477   7.238  0.2247  0.3374  0.3806
15080TIP3    H145162   7.311   3.496   7.228  0.2966  0.5352  0.0720
15080TIP3    H245163   7.428   3.516   7.322  0.3599  1.5845 -0.2221
15081TIP3   OH245164   8.846   6.959   0.832  0.2519 -0.1290  0.2492
15081TIP3    H145165   8.837   6.974   0.926  0.2181  1.1504  0.0456
15081TIP3    H245166   8.872   7.044   0.796  0.0454 -0.5512 -0.9260
15082TIP3   OH245167   5.760   3.000   7.197  0.7518 -0.0767 -0.0796
15082TIP3    H145168   5.770   2.925   7.139 -0.2349  0.0992 -0.4739
15082TIP3    H245169   5.810   3.071   7.155 -0.0961  0.0981 -0.7972
15083TIP3   OH245170   8.646   3.247   6.660  0.2089 -0.9418 -0.0380
15083TIP3    H145171   8.671   3.335   6.688  0.5880 -0.9590 -0.3234
15083TIP3    H245172   8.685   3.189   6.725  2.4709 -1.0873 -1.4887
15084TIP3   OH245173   6.805   3.234   6.965 -0.1104  0.1530 -0.7394
15084TIP3    H145174   6.728   3.178   6.959  1.5183 -2.5206  1.4161
15084TIP3    H245175   6.879   3.173   6.958  1.7835  2.3762 -0.8693
15085TIP3   OH245176   4.717   5.625   6.679  0.1913 -0.2124  0.1973
15085TIP3    H145177   4.718   5.577   6.762  0.4740  0.1173  0.3856
15085TIP3    H245178   4.732   5.557   6.613 -2.5001 -0.8589  0.2030
15086TIP3   OH245179   8.254   5.138   7.082 -0.5711 -0.1421 -0.2937
15086TIP3    H145180   8.160   5.129   7.068 -0.7281  1.3659 -0.2687
15086TIP3    H245181   8.290   5.152   6.994 -0.5658  0.8454 -0.1420
15087TIP3   OH245182   6.368   4.154   7.185  0.9776  0.2762 -0.0590
15087TIP3    H145183   6.370   4.125   7.094 -0.0805 -0.0752  0.0166
15087TIP3    H245184   6.450   4.123   7.223  0.3354 -1.6976 -0.2526
15088TIP3   OH245185   3.375   0.335   0.011 -0.6118 -0.6014 -0.3038
15088TIP3    H145186   3.377   0.384  -0.072 -0.2032 -1.9237 -1.0903
15088TIP3    H245187   3.418   0.392   0.074 -0.1143  0.0381 -1.2143
15089TIP3   OH245188   3.283   7.710   0.396  0.1128 -0.3442 -0.3897
15089TIP3    H145189   3.330   7.736   0.317  1.7994  0.0701  0.7146
15089TIP3    H245190   3.303   7.617   0.407  0.9543 -0.0963  0.2477
15090TIP3   OH245191   5.099   4.108   6.258  0.1999 -0.1749  0.0010
15090TIP3    H145192   5.172   4.046   6.259  0.2819 -0.1366  3.9464
15090TIP3    H245193   5.142   4.194   6.264 -0.1111 -0.0567  0.5113
15091TIP3   OH245194   7.578   2.234   7.005  0.2013 -0.0768 -0.6757
15091TIP3    H145195   7.550   2.325   7.014 -2.8635 -1.0074 -0.5805
15091TIP3    H245196   7.520   2.198   6.938  2.4420 -1.5662 -1.8811
15092TIP3   OH245197   0.300   7.640   0.271  0.3211  0.2620  0.4355
15092TIP3    H145198   0.249   7.561   0.288  0.3452  0.3831  1.0797
15092TIP3    H245199   0.249   7.688   0.205 -0.7099  0.6698  1.5022
15093TIP3   OH245200   6.156   2.372   6.930  0.4113  0.4532 -0.3199
15093TIP3    H145201   6.066   2.342   6.942  0.1141  0.7482 -1.7238
15093TIP3    H245202   6.202   2.296   6.896  0.2996  0.7701 -1.1980
15094TIP3   OH245203   5.641   2.310   7.239 -0.9711  1.0945 -0.2899
15094TIP3    H145204   5.650   2.219   7.210 -0.0050  1.4799 -1.2315
15094TIP3    H245205   5.690   2.314   7.321 -0.8390  0.8090 -0.3539
15095TIP3   OH245206   0.392   6.282   1.613 -0.3125  0.1679 -0.3256
15095TIP3    H145207   0.464   6.229   1.579 -1.1357 -0.0060 -1.8543
15095TIP3    H245208   0.384   6.257   1.705  1.5841  0.2094 -0.1317
15096TIP3   OH245209   2.058   8.265   0.163  0.0594  0.1357 -0.1156
15096TIP3    H145210   2.114   8.214   0.222 -1.9974 -1.1887  0.7292
15096TIP3    H245211   2.064   8.218   0.079  1.0974  0.6590 -0.3482
15097TIP3   OH245212   1.576   4.400   7.237  0.4282 -0.4653 -0.3212
15097TIP3    H145213   1.564   4.350   7.318  1.0373 -0.7631 -0.4116
15097TIP3    H245214   1.668   4.389   7.215  0.3049 -0.2549 -0.9711
15098TIP3   OH245215   6.932   3.932   6.305 -0.0123 -0.0987 -0.4599
15098TIP3    H145216   6.877   3.862   6.340 -1.0409  0.3521 -1.1317
15098TIP3    H245217   6.871   4.002   6.282  0.8648  0.5140 -0.9956
15099TIP3   OH245218   1.955   0.411   0.829 -0.2729  0.2267 -0.4603
15099TIP3    H145219   2.000   0.393   0.747  0.1493 -0.1593 -0.1491
15099TIP3    H245220   1.876   0.457   0.804  0.1957  0.7196 -1.0273
15100TIP3   OH245221   6.977   4.187   4.822  0.2078 -0.3083 -0.4477
15100TIP3    H145222   7.044   4.119   4.810  1.0219  0.0925  1.7020
15100TIP3    H245223   6.995   4.224   4.908 -2.0779  0.6102 -0.3294
15101TIP3   OH245224   6.527   0.382   1.561 -0.3520 -0.9119 -0.3267
15101TIP3    H145225   6.518   0.306   1.620  0.1562 -0.9082 -0.2442
15101TIP3    H245226   6.442   0.425   1.565 -0.3276 -0.9181  0.4071
15102TIP3   OH245227   4.406   4.127   6.342 -0.1259 -0.4798 -0.5447
15102TIP3    H145228   4.370   4.065   6.405 -0.3880 -1.1001 -1.2870
15102TIP3    H245229   4.484   4.163   6.385 -0.1451 -1.1013  0.0160
15103TIP3   OH245230   8.473   4.738   6.872 -0.6493  0.6010  0.3931
15103TIP3    H145231   8.476   4.678   6.797  0.5683  0.3985  0.5842
15103TIP3    H245232   8.565   4.757   6.890 -0.9011  0.1437  2.2414
15104TIP3   OH245233   8.501   4.791   6.591  0.1490 -0.2280  0.3369
15104TIP3    H145234   8.594   4.776   6.610 -0.3836  1.2587  4.7484
15104TIP3    H245235   8.463   4.703   6.587  1.5441 -0.8135 -0.4467
15105TIP3   OH245236   1.360   0.108   6.978 -0.0791 -0.2817 -0.1131
15105TIP3    H145237   1.276   0.064   6.966 -0.3811  0.1415  0.3789
15105TIP3    H245238   1.410   0.049   7.035 -1.0969  0.7437  1.9161
15106TIP3   OH245239   4.684   0.607   0.943  0.0909 -0.1179 -0.3175
15106TIP3    H145240   4.599   0.650   0.953  0.1108 -0.2694  0.4949
15106TIP3    H245241   4.748   0.674   0.968  0.2770  0.3554 -1.9831
15107TIP3   OH245242   7.072   3.024   7.156  0.3383  0.0708 -0.4260
15107TIP3    H145243   7.066   2.930   7.138  1.0115 -0.0776  0.0960
15107TIP3    H245244   7.072   3.066   7.070  1.9392 -0.5265 -0.7315
15108TIP3   OH245245   1.245   3.160   6.606 -0.3689  0.1065  0.1196
15108TIP3    H145246   1.261   3.098   6.534  2.4813  0.2149  0.6324
15108TIP3    H245247   1.155   3.191   6.590  0.0252 -0.2150 -3.1277
15109TIP3   OH245248   0.311   3.257   6.962  0.4415  0.4270 -0.3642
15109TIP3    H145249   0.273   3.280   7.047  1.9388  0.4310  0.3071
15109TIP3    H245250   0.351   3.171   6.976  1.7031  0.9391 -0.7371
15110TIP3   OH245251   8.711   8.296   1.634 -0.1661 -0.2389  0.0798
15110TIP3    H145252   8.703   8.380   1.680  2.7308  0.0416  0.1367
15110TIP3    H245253   8.784   8.252   1.677  0.8551 -1.1252 -2.4876
15111TIP3   OH245254   8.332   6.518   0.098 -0.3865  0.1973 -0.0089
15111TIP3    H145255   8.269   6.449   0.079 -0.0805 -0.2124  0.4555
15111TIP3    H245256   8.385   6.525   0.018  0.0340 -0.5995  0.1893
15112TIP3   OH245257   8.401   8.165   0.339 -0.2392 -0.7771 -0.1365
15112TIP3    H145258   8.442   8.246   0.370  0.3662 -1.6304  1.3411
15112TIP3    H245259   8.358   8.129   0.416  1.7405 -3.2399 -0.1204
15113TIP3   OH245260   3.329   0.108   0.128 -0.2834 -0.5434  0.3384
15113TIP3    H145261   3.344   0.193   0.087  1.5784  0.5489  3.1039
15113TIP3    H245262   3.353   0.044   0.061 -1.4974  1.0855 -1.7069
15114TIP3   OH245263   1.457   7.826   1.709  0.2015  0.1109  0.2914
15114TIP3    H145264   1.542   7.859   1.681 -0.3757  1.8907  0.6044
15114TIP3    H245265   1.464   7.731   1.700  2.0175  0.2852 -0.2387
15115TIP3   OH245266   3.921   0.282   1.321  0.5513 -0.2066 -0.0179
15115TIP3    H145267   3.956   0.291   1.410 -0.9393  1.1763  0.4469
15115TIP3    H245268   3.890   0.369   1.299  0.0325 -0.7702 -1.5364
15116TIP3   OH245269   8.156   3.564   6.459 -0.0639 -0.4510  0.2886
15116TIP3    H145270   8.216   3.550   6.533 -1.5391  0.2847  1.6674
15116TIP3    H245271   8.134   3.476   6.429 -0.5192 -0.8113  1.6408
15117TIP3   OH245272   5.014   0.195   1.816 -0.3830 -0.8490 -0.7318
15117TIP3    H145273   5.081   0.130   1.797 -0.5960 -0.7109 -2.0152
15117TIP3    H245274   4.972   0.165   1.897  1.4455 -0.7409  0.2718
15118TIP3   OH245275   7.812   1.934   4.193  0.4465 -0.0563 -0.5679
15118TIP3    H145276   7.829   2.014   4.143  1.2162 -0.8132 -1.5327
15118TIP3    H245277   7.717   1.928   4.197  0.3607 -0.2581 -2.4015
15119TIP3   OH245278   0.881   7.499   0.578 -0.1495 -0.0507 -0.1513
15119TIP3    H145279   0.924   7.435   0.521 -1.4519 -0.2956 -0.8620
15119TIP3    H245280   0.950   7.527   0.638  0.6670 -1.4207 -0.4381
15120TIP3   OH245281   1.450   6.854   0.584  0.5870  0.6954  0.6821
15120TIP3    H145282   1.406   6.883   0.504 -0.6523 -0.8736  0.7805
15120TIP3    H245283   1.543   6.858   0.562  0.2649  0.3639 -0.8237
15121TIP3   OH245284   4.819   0.155   1.549 -0.0997  0.2654  0.4123
15121TIP3    H145285   4.909   0.150   1.518 -0.3828  2.2195 -0.8122
15121TIP3    H245286   4.824   0.205   1.630  0.1348 -1.2594  1.3497
15122TIP3   OH245287   7.557   1.097   5.803  0.1878  0.3664 -0.4121
15122TIP3    H145288   7.541   1.191   5.795 -1.8155 -0.0580 -1.6761
15122TIP3    H245289   7.542   1.062   5.715  0.8880 -1.1642  0.0431
15123TIP3   OH245290   7.428   7.799   0.617  0.5315  0.4917 -0.0331
15123TIP3    H145291   7.430   7.710   0.583  1.0855 -0.0059  1.2956
15123TIP3    H245292   7.376   7.794   0.696 -0.1471  1.5171 -0.4077
15124TIP3   OH245293   6.913   3.959   6.596 -0.1776 -0.6124  0.2243
15124TIP3    H145294   6.992   3.982   6.548 -0.8029 -0.0014 -0.5200
15124TIP3    H245295   6.945   3.923   6.679  0.8741  3.1476  1.5753
15125TIP3   OH245296   5.869   0.326   2.905  0.4317 -0.1485  0.0004
15125TIP3    H145297   5.788   0.366   2.875  0.9270  0.3079 -0.7673
15125TIP3    H245298   5.926   0.328   2.828  1.1066 -0.6292  0.4808
15126TIP3   OH245299   7.947   2.485   5.940 -0.1580  0.2211 -0.1548
15126TIP3    H145300   7.914   2.415   5.997 -1.6613 -0.8613 -2.2727
15126TIP3    H245301   8.029   2.451   5.905 -0.9532 -0.5795 -1.2858
15127TIP3   OH245302   8.172   4.817   6.177 -0.4482 -0.4518 -0.2925
15127TIP3    H145303   8.141   4.768   6.101  0.0005 -1.1193 -0.0539
15127TIP3    H245304   8.190   4.750   6.243  2.4582 -0.2100 -0.7638
15128TIP3   OH245305   6.408   3.125   7.233  0.0989 -0.4298  0.4685
15128TIP3    H145306   6.370   3.136   7.146 -0.2333 -0.5796  0.5934
15128TIP3    H245307   6.389   3.207   7.278 -1.1709 -0.9928  0.9449
15129TIP3   OH245308   7.809   2.087   6.967 -0.2409  0.1937 -0.1082
15129TIP3    H145309   7.831   2.114   6.878 -0.6455 -1.1220 -0.6140
15129TIP3    H245310   7.734   2.141   6.991  2.3495  3.5293  1.0090
15130TIP3   OH245311   3.694   0.176   0.449 -0.3196  0.2739  0.1513
15130TIP3    H145312   3.704   0.129   0.365  0.8159  0.2489  0.2902
15130TIP3    H245313   3.765   0.141   0.504 -0.2429  1.2502  0.6750
15131TIP3   OH245314   7.300   2.771   7.235 -0.3819  0.1688  0.1366
15131TIP3    H145315   7.310   2.747   7.143  0.8172  0.1506  0.2717
15131TIP3    H245316   7.347   2.854   7.244  1.1771 -0.7956  1.1533
15132TIP3   OH245317   0.981   7.638   1.879 -0.4792  0.3205  0.1848
15132TIP3    H145318   1.056   7.624   1.937  0.0850  0.1641 -0.5897
15132TIP3    H245319   1.000   7.586   1.801 -0.7823  1.2923 -0.5503
15133TIP3   OH245320   1.204   7.326   0.132  0.0624 -0.0662  0.2090
15133TIP3    H145321   1.208   7.293   0.042 -0.9251  0.6727 -0.1201
15133TIP3    H245322   1.120   7.295   0.165  1.2239 -1.8994  1.5207
15134TIP3   OH245323   1.163   5.212   0.823 -0.8724  0.6356  0.3032
15134TIP3    H145324   1.191   5.292   0.779 -2.3287  0.8567 -0.2756
15134TIP3    H245325   1.244   5.167   0.847 -0.0505  1.8902 -0.0943
15135TIP3   OH245326   4.993   3.084   6.093 -0.1388  0.1182  0.1820
15135TIP3    H145327   4.990   3.177   6.115 -2.7271  0.1012  0.0386
15135TIP3    H245328   5.063   3.048   6.148  0.5440  2.0476  0.5935
15136TIP3   OH245329   5.965   3.242   6.219 -0.4506  0.3106  0.0397
15136TIP3    H145330   6.037   3.210   6.165 -0.3641  2.1050 -0.9430
15136TIP3    H245331   5.929   3.163   6.259  2.8057 -0.5355  1.5155
15137TIP3   OH245332   6.615   2.110   5.803  0.0680  0.0831  0.0090
15137TIP3    H145333   6.555   2.105   5.729  1.0034  0.1347 -0.7657
15137TIP3    H245334   6.601   2.197   5.839 -0.7646 -0.1324  0.2168
15138TIP3   OH245335   7.409   3.592   5.982  0.6333 -0.6040 -0.7343
15138TIP3    H145336   7.404   3.687   5.989  0.4260 -0.7181  0.8650
15138TIP3    H245337   7.375   3.572   5.895  1.1152  0.8137 -1.2530
15139TIP3   OH245338   0.413   2.598   6.516  0.0081  0.6689  0.4710
15139TIP3    H145339   0.415   2.661   6.588 -1.3607  0.2545  0.8864
15139TIP3    H245340   0.322   2.596   6.488  0.2521 -0.2774 -0.3013
15140TIP3   OH245341   6.335   3.017   6.619  0.8389  0.2702  0.1448
15140TIP3    H145342   6.249   3.059   6.616 -0.2735 -1.9486 -0.0471
15140TIP3    H245343   6.397   3.090   6.624 -0.9749  1.9667 -1.1507
15141TIP3   OH245344   7.607   3.316   5.216  0.0536 -0.1088 -0.5713
15141TIP3    H145345   7.642   3.308   5.305  0.4069  0.1931 -0.6833
15141TIP3    H245346   7.613   3.409   5.196 -1.9360  0.1469 -0.1389
15142TIP3   OH245347   0.933   7.374   1.708  0.1028 -0.2862 -0.5634
15142TIP3    H145348   1.026   7.355   1.700  0.1586 -0.2174 -0.0768
15142TIP3    H245349   0.902   7.378   1.618  1.0445  2.0383 -0.8152
15143TIP3   OH245350   5.338   2.194   0.083 -0.3920 -0.2267 -0.0784
15143TIP3    H145351   5.321   2.197  -0.011 -1.7833  1.7504  0.2021
15143TIP3    H245352   5.302   2.110   0.111  1.7910 -1.7271 -1.5980
15144TIP3   OH245353   1.195   7.365   1.268 -0.4213 -0.1482  0.7730
15144TIP3    H145354   1.184   7.276   1.236  0.8482 -0.1765  0.3577
15144TIP3    H245355   1.117   7.411   1.238  0.1227 -0.5065 -1.2830
15145TIP3   OH245356   0.039   7.593   0.177 -0.1247  0.2419 -0.3115
15145TIP3    H145357  -0.045   7.558   0.148 -0.0995  0.1235 -0.2412
15145TIP3    H245358   0.058   7.664   0.116 -0.8732  1.0815  0.4209
15146TIP3   OH245359   6.439   2.698   5.591 -0.4025  0.3489  0.2656
15146TIP3    H145360   6.505   2.671   5.654 -1.0285  0.0339  0.7851
15146TIP3    H245361   6.407   2.782   5.624 -1.9650 -0.6526  1.3015
15147TIP3   OH245362   3.551   0.472   1.200  0.3356 -0.1645 -1.1392
15147TIP3    H145363   3.601   0.506   1.274  0.3453  2.8769 -2.4748
15147TIP3    H245364   3.574   0.380   1.196  1.8836  0.0591  1.3980
15148TIP3   OH245365   0.004   3.624   5.720  0.2962  0.2219  0.3036
15148TIP3    H145366   0.085   3.608   5.769 -0.4360 -1.8345  0.8899
15148TIP3    H245367   0.004   3.557   5.652 -0.1627  1.2006 -0.6794
15149TIP3   OH245368   4.748   1.020   2.294 -0.4576  0.1054  0.2131
15149TIP3    H145369   4.742   0.943   2.236  1.8992  0.3318 -0.4058
15149TIP3    H245370   4.788   1.088   2.239  0.5190  0.7467  1.6875
15150TIP3   OH245371  -0.008   7.072   3.479  0.0655 -0.1345  0.0033
15150TIP3    H145372   0.021   7.095   3.567 -0.2826 -0.7392  0.2708
15150TIP3    H245373   0.073   7.069   3.428  0.1217  1.8923 -0.0944
15151TIP3   OH245374   7.732   1.813   5.265 -0.0104  0.4107  0.3287
15151TIP3    H145375   7.781   1.858   5.197 -0.4062  0.3469  0.0077
15151TIP3    H245376   7.659   1.771   5.220  1.4153 -2.1499  0.3026
15152TIP3   OH245377   5.416   2.497   4.815 -0.3959  0.4758 -0.1101
15152TIP3    H145378   5.332   2.517   4.773 -0.8276  3.2978  1.9872
15152TIP3    H245379   5.461   2.581   4.822  0.6387 -0.2417  2.8962
15153TIP3   OH245380   1.500   6.582   0.888 -0.2514  0.1123 -0.5110
15153TIP3    H145381   1.521   6.521   0.959  0.1371  0.7208 -0.0967
15153TIP3    H245382   1.509   6.530   0.808  0.3356 -0.3060 -0.1774
15154TIP3   OH245383   6.698   1.628   5.561  0.1383 -0.2539 -0.5197
15154TIP3    H145384   6.653   1.688   5.502 -0.8364 -0.3191  0.1414
15154TIP3    H245385   6.770   1.678   5.598 -0.4838  0.4185 -0.2096
15155TIP3   OH245386   8.444   2.092   4.316  0.0245 -0.1993 -0.5305
15155TIP3    H145387   8.492   2.059   4.393 -0.7545  1.4896  0.7098
15155TIP3    H245388   8.488   2.174   4.294 -0.4715 -0.1133 -1.1874
15156TIP3   OH245389   1.137   5.332   0.164 -0.1189 -0.2584 -0.2323
15156TIP3    H145390   1.171   5.268   0.226  0.4223 -1.5938 -1.8467
15156TIP3    H245391   1.140   5.286   0.079 -2.5764  0.8556 -0.9527
15157TIP3   OH245392   2.499   6.247   1.161 -0.4707  0.0944 -0.1111
15157TIP3    H145393   2.460   6.294   1.235  0.1327  0.1332  0.1913
15157TIP3    H245394   2.574   6.301   1.137 -0.3036 -0.2484 -0.3495
15158TIP3   OH245395   2.412   8.222  -0.023  0.3716 -0.4433 -0.0264
15158TIP3    H145396   2.373   8.284   0.038  0.1486 -0.3698 -0.2400
15158TIP3    H245397   2.432   8.145   0.030 -0.2652 -0.5650  0.0456
15159TIP3   OH245398   4.253   0.662   1.351 -0.3402 -0.3700  0.3205
15159TIP3    H145399   4.194   0.734   1.373  0.0110 -0.6513  2.2240
15159TIP3    H245400   4.217   0.586   1.397 -0.0236 -1.1540 -0.6952
15160TIP3   OH245401   6.578   3.191   6.016 -0.1905  0.3419 -0.3986
15160TIP3    H145402   6.578   3.271   6.067  2.0074  0.8171 -1.0904
15160TIP3    H245403   6.560   3.219   5.926  0.3064  0.0324 -0.5973
15161TIP3   OH245404   1.474   1.463   1.529  0.5197 -0.3566  0.9211
15161TIP3    H145405   1.530   1.421   1.594 -0.0957  0.2931  1.8984
15161TIP3    H245406   1.535   1.503   1.467  1.1065 -1.8956  0.4906
15162TIP3   OH245407   1.143   8.086   0.654 -1.1028 -0.5623  0.2852
15162TIP3    H145408   1.236   8.102   0.633 -0.3358 -0.6951  3.3602
15162TIP3    H245409   1.105   8.058   0.571  1.5136 -0.1047 -1.1476
15163TIP3   OH245410   8.040   4.619   7.164 -0.5204 -0.1582  0.3512
15163TIP3    H145411   8.021   4.525   7.164  0.0812 -0.2829  0.2371
15163TIP3    H245412   8.125   4.626   7.208  0.3158  0.1429 -1.2804
15164TIP3   OH245413   1.059   4.481   6.948  0.1953 -0.9655  0.3990
15164TIP3    H145414   0.989   4.527   6.902  0.7722 -0.0591  0.4196
15164TIP3    H245415   1.029   4.390   6.952 -0.9751 -0.5879  0.4037
15165TIP3   OH245416   6.739   1.070   0.845  0.2884  0.0951  0.0726
15165TIP3    H145417   6.728   1.048   0.752 -0.1291  0.9405 -0.0730
15165TIP3    H245418   6.665   1.127   0.866  1.5610  1.6516  0.3744
15166TIP3   OH245419   8.627   4.076   7.235 -0.2256  0.0816  0.1555
15166TIP3    H145420   8.665   4.162   7.222 -0.6145  0.3568  0.8000
15166TIP3    H245421   8.534   4.093   7.253  0.0982 -0.3129  2.3144
15167TIP3   OH245422   7.351   3.116   6.305 -0.0095  0.1294 -0.1039
15167TIP3    H145423   7.424   3.178   6.297 -0.8218  1.2168  0.7653
15167TIP3    H245424   7.298   3.151   6.377 -0.3540 -1.7025  0.5630
15168TIP3   OH245425   2.574   0.740   0.115  0.2756  0.4510  0.7665
15168TIP3    H145426   2.584   0.822   0.163 -1.5513  0.7920  0.6099
15168TIP3    H245427   2.623   0.753   0.035  0.6671  1.0862  1.1035
15169TIP3   OH245428   6.281   4.520   6.871 -0.5049  0.0509  0.1976
15169TIP3    H145429   6.206   4.506   6.930  0.7628  0.9776  2.0866
15169TIP3    H245430   6.357   4.494   6.923  0.6342  0.7503 -1.1032
15170TIP3   OH245431   7.753   4.248   6.980  0.5857 -0.1583 -0.8458
15170TIP3    H145432   7.728   4.285   6.895 -1.0305 -0.9992 -0.7381
15170TIP3    H245433   7.703   4.168   6.988 -0.8623  0.9442  1.8215
15171TIP3   OH245434   1.966   7.873   2.519  0.0912  0.1903 -0.4761
15171TIP3    H145435   1.995   7.784   2.534 -0.0722  0.4546  1.5484
15171TIP3    H245436   2.037   7.914   2.470  1.0859 -0.4793  0.3813
15172TIP3   OH245437   3.626   0.091   1.100 -0.2562  0.3738 -0.1178
15172TIP3    H145438   3.677   0.018   1.065 -1.2377 -0.6085  0.4417
15172TIP3    H245439   3.636   0.083   1.195 -1.6542 -0.0055  0.0145
15173TIP3   OH245440   3.459   2.357   4.061  0.1330 -0.4523  0.1400
15173TIP3    H145441   3.470   2.262   4.051  0.7557 -0.4327  0.6112
15173TIP3    H245442   3.444   2.370   4.154  1.9394  0.0852  0.3846
15174TIP3   OH245443   7.243   5.073   5.562  0.3581 -0.2952  0.1541
15174TIP3    H145444   7.222   5.012   5.492  1.5754  0.1729 -0.6384
15174TIP3    H245445   7.263   5.018   5.638 -0.0370 -0.8321 -0.1368
15175TIP3   OH245446   7.309   3.732   5.617  0.3086 -0.2293  0.0501
15175TIP3    H145447   7.293   3.698   5.529 -2.1255  0.0880  0.3417
15175TIP3    H245448   7.374   3.673   5.655 -0.4575 -1.8148 -1.0854
15176TIP3   OH245449   5.658   5.139   6.712  0.0986 -0.1757 -0.3844
15176TIP3    H145450   5.714   5.215   6.694 -0.2299  0.1505 -0.0527
15176TIP3    H245451   5.605   5.130   6.634 -0.7986  0.7711  0.1059
15177TIP3   OH245452   8.242   5.209   3.069 -0.6317 -0.9857  0.2968
15177TIP3    H145453   8.164   5.262   3.083  0.0265  0.2457 -0.6186
15177TIP3    H245454   8.309   5.251   3.124 -0.1401 -0.9425 -0.3360
15178TIP3   OH245455   7.080   1.735   6.337  0.7805 -0.5830 -0.2360
15178TIP3    H145456   7.159   1.680   6.345  0.1452 -1.7577 -1.7687
15178TIP3    H245457   7.111   1.824   6.355  1.6175 -1.5383  3.4372
15179TIP3   OH245458   5.944   4.824   7.137  0.1202  0.1497 -0.5033
15179TIP3    H145459   5.888   4.881   7.191  1.2217 -1.4225  2.4526
15179TIP3    H245460   5.907   4.736   7.149  1.3190 -0.4474 -1.0603
15180TIP3   OH245461   6.465   4.460   6.367 -0.1485  0.5338  0.2123
15180TIP3    H145462   6.518   4.463   6.446 -1.1882  1.1292  0.8983
15180TIP3    H245463   6.412   4.540   6.370 -0.8971  0.0850 -0.5874
15181TIP3   OH245464   7.372   3.159   4.077  0.1130  0.0008 -0.2399
15181TIP3    H145465   7.390   3.219   4.148  0.6909 -0.6849  0.1992
15181TIP3    H245466   7.447   3.167   4.018 -0.2583  0.4052 -0.6696
15182TIP3   OH245467   6.820   3.722   6.863 -0.6760  0.2387 -0.1615
15182TIP3    H145468   6.731   3.758   6.859 -0.3836  1.0101  0.2975
15182TIP3    H245469   6.807   3.627   6.858 -1.6314  0.2515  1.7054
15183TIP3   OH245470   0.882   3.789   1.039 -0.4778  0.8728  0.0130
15183TIP3    H145471   0.836   3.763   1.119 -0.7383 -0.9234 -0.6825
15183TIP3    H245472   0.967   3.821   1.069 -0.0540 -1.0397  0.9316
15184TIP3   OH245473   1.873   7.498   2.364  0.6206  0.2603  0.1008
15184TIP3    H145474   1.824   7.519   2.443 -1.8345 -0.0652 -1.2979
15184TIP3    H245475   1.964   7.519   2.386  0.0693 -0.3783  3.1740
15185TIP3   OH245476   7.135   2.713   4.677  0.0311 -0.1277  0.8124
15185TIP3    H145477   7.060   2.666   4.640  0.3562 -1.1561  1.4451
15185TIP3    H245478   7.206   2.649   4.677  1.3602  1.2760 -1.2077
15186TIP3   OH245479   7.889   4.612   6.469  0.4096  0.3976 -0.0013
15186TIP3    H145480   7.859   4.648   6.552 -0.5340 -0.1744 -0.0814
15186TIP3    H245481   7.835   4.655   6.403  1.1336  0.8287 -0.3138
15187TIP3   OH245482   3.081   7.646   1.124  0.3206 -0.1694  0.4903
15187TIP3    H145483   3.054   7.712   1.061 -0.8616 -1.1085 -0.0110
15187TIP3    H245484   3.174   7.630   1.104  0.1747  0.1463 -0.4694
15188TIP3   OH245485   0.496   7.788   1.238  0.3066  0.2206  0.6709
15188TIP3    H145486   0.539   7.870   1.213  0.4861 -0.2076 -0.4423
15188TIP3    H245487   0.403   7.804   1.223  0.1175  0.8931  2.3777
15189TIP3   OH245488   6.152   4.943   6.473  0.1672  0.3033  0.5558
15189TIP3    H145489   6.114   4.877   6.530  0.4105 -0.7460 -0.4832
15189TIP3    H245490   6.135   4.912   6.385 -1.0890  2.4198  0.0050
15190TIP3   OH245491   7.961   2.116   6.408 -0.2789  0.2755 -0.1104
15190TIP3    H145492   7.891   2.051   6.399 -0.4983  0.5660 -0.5697
15190TIP3    H245493   7.924   2.196   6.369  0.5581  0.2391 -0.9994
15191TIP3   OH245494   4.838   0.924   1.689 -0.3440 -0.1396  0.2199
15191TIP3    H145495   4.746   0.897   1.692 -0.6684  1.0121  0.9445
15191TIP3    H245496   4.837   1.006   1.640  0.2297  0.1125  0.6270
15192TIP3   OH245497   7.433   2.055   6.815 -0.0337  0.1011  0.7544
15192TIP3    H145498   7.391   2.138   6.792 -0.7867 -0.3554  0.4227
15192TIP3    H245499   7.500   2.042   6.747 -2.3567 -1.3194 -1.3942
15193TIP3   OH245500   2.812   8.195   1.887  0.1735  0.0028  0.2732
15193TIP3    H145501   2.850   8.283   1.893 -1.4472  0.6786  1.1316
15193TIP3    H245502   2.887   8.136   1.884  1.2806  1.3650  0.6945
15194TIP3   OH245503   0.204   4.848   6.545  0.2817 -0.1287  0.0952
15194TIP3    H145504   0.223   4.820   6.635  1.0122  1.1097  0.3299
15194TIP3    H245505   0.174   4.939   6.554  0.1634 -0.0620 -0.8979
15195TIP3   OH245506   7.522   2.455   6.835  0.0657 -0.0307  0.4342
15195TIP3    H145507   7.509   2.545   6.803 -2.0911 -0.8442 -1.1265
15195TIP3    H245508   7.516   2.401   6.756 -1.7577 -1.7997  1.7160
15196TIP3   OH245509   6.363   3.590   6.754  0.6295 -0.3147  0.4800
15196TIP3    H145510   6.330   3.680   6.765  2.3628  0.0714  2.9523
15196TIP3    H245511   6.441   3.587   6.809  0.5011 -3.3928  0.5500
15197TIP3   OH245512   0.845   8.057   2.942  0.2356 -0.0037  0.0487
15197TIP3    H145513   0.788   8.074   3.017  0.8685 -1.5068  0.8801
15197TIP3    H245514   0.856   7.962   2.941  0.3755  0.0071 -1.8571
15198TIP3   OH245515   3.934   0.419   0.436 -0.2447 -0.0887  0.3836
15198TIP3    H145516   4.015   0.470   0.437  1.1143 -2.2009  1.6865
15198TIP3    H245517   3.905   0.418   0.527 -1.1937 -0.1644  0.0787
15199TIP3   OH245518   0.745   5.613   1.395  0.2008  0.5788 -0.8689
15199TIP3    H145519   0.789   5.648   1.473 -2.2065 -0.8428  1.2254
15199TIP3    H245520   0.728   5.690   1.341  0.9523  1.7576  0.5181
15200TIP3   OH245521   1.127   7.801   0.674  0.2733 -0.5896  0.2208
15200TIP3    H145522   1.138   7.889   0.711  1.5080 -0.8857  0.5552
15200TIP3    H245523   1.081   7.816   0.591  0.9899  0.4214 -0.0008
15201TIP3   OH245524   5.007   5.587   6.392 -0.7974  0.5592  0.3447
15201TIP3    H145525   4.978   5.624   6.309 -1.2303 -0.3280  0.0974
15201TIP3    H245526   4.953   5.631   6.458 -0.5456  1.1648  0.1484
15202TIP3   OH245527   1.041   8.316   4.402  0.5071 -0.6520 -0.2867
15202TIP3    H145528   1.115   8.280   4.353 -0.4687 -1.6722 -1.0101
15202TIP3    H245529   1.082   8.366   4.473  1.8884 -1.9676 -0.1283
15203TIP3   OH245530   5.905   1.399   5.711  0.3345  0.1822 -0.5569
15203TIP3    H145531   5.908   1.435   5.800 -1.3975 -0.6532 -0.1286
15203TIP3    H245532   5.934   1.309   5.720 -2.8343 -0.8613 -0.2690
15204TIP3   OH245533   6.286   2.409   7.178  0.2799 -0.5422 -0.2427
15204TIP3    H145534   6.238   2.399   7.096  0.4828  0.9535 -0.5551
15204TIP3    H245535   6.251   2.488   7.218 -0.6077 -1.8590  1.6931
15205TIP3   OH245536   6.447   2.730   4.770  0.2234  0.6004  0.0381
15205TIP3    H145537   6.432   2.663   4.703  1.4217 -0.1021  0.4566
15205TIP3    H245538   6.359   2.757   4.797 -0.2668 -0.0637 -0.8707
15206TIP3   OH245539   0.297   6.186   1.046  0.1103 -0.1604  0.7512
15206TIP3    H145540   0.327   6.123   1.112  0.7224 -0.5475  0.1123
15206TIP3    H245541   0.365   6.253   1.046  1.0690 -1.1016 -0.7927
15207TIP3   OH245542   8.734   7.649   2.020 -0.5444  0.2740  0.1047
15207TIP3    H145543   8.678   7.645   1.942  0.6299  0.7320 -0.7697
15207TIP3    H245544   8.817   7.685   1.989  0.5308 -1.1651  1.2136
15208TIP3   OH245545   8.756   7.262   0.386 -0.4105  0.4808  0.5579
15208TIP3    H145546   8.716   7.344   0.415 -0.1589  1.5902 -2.0813
15208TIP3    H245547   8.845   7.287   0.360 -0.2858 -0.6739 -0.1347
15209TIP3   OH245548   5.363   0.069   1.330  0.1212  0.6740  0.0306
15209TIP3    H145549   5.448   0.028   1.314  0.0767  0.6382 -0.1147
15209TIP3    H245550   5.301  -0.004   1.333 -0.2306  0.8557 -2.0230
15210TIP3   OH245551   5.757   1.322   6.869  0.6745  0.3448 -0.2551
15210TIP3    H145552   5.814   1.397   6.885 -0.4456  1.4948 -1.5493
15210TIP3    H245553   5.805   1.268   6.807  0.6698  0.9533 -0.7936
15211TIP3   OH245554   5.377   5.516   6.965 -0.0018  0.5732 -0.0800
15211TIP3    H145555   5.369   5.432   7.011  0.1344  0.7060  0.1811
15211TIP3    H245556   5.468   5.519   6.937 -0.1651  0.3425 -0.6463
15212TIP3   OH245557   6.798   1.057   4.963 -0.2036 -0.0674  0.3408
15212TIP3    H145558   6.890   1.069   4.941  0.3693  0.1389  2.7642
15212TIP3    H245559   6.780   1.121   5.031 -1.3082 -2.1582  2.0914
15213TIP3   OH245560   1.154   7.648   0.991 -0.3815  0.8005  0.7723
15213TIP3    H145561   1.075   7.672   0.942 -1.0394 -0.2299  1.3241
15213TIP3    H245562   1.207   7.599   0.928 -0.1623  1.5004  0.3995
15214TIP3   OH245563   4.018   0.062   0.879  0.1159 -0.6263 -0.2555
15214TIP3    H145564   4.065   0.145   0.878  0.3221 -0.7368 -1.9246
15214TIP3    H245565   4.055   0.015   0.954  0.0907  0.7170  0.6206
15215TIP3   OH245566   0.613   8.107   2.236 -0.2282 -0.4016 -0.2597
15215TIP3    H145567   0.676   8.107   2.308  0.6599 -0.1783 -1.0166
15215TIP3    H245568   0.600   8.014   2.216 -1.3667 -0.5076  0.9359
15216TIP3   OH245569   3.717   7.212   1.001  0.3412 -0.2485  0.5753
15216TIP3    H145570   3.756   7.237   1.085 -0.8274 -0.7323  1.2670
15216TIP3    H245571   3.754   7.274   0.938  1.4422 -0.0549  1.3935
15217TIP3   OH245572   7.028   3.099   6.912  0.1352 -0.3127 -0.2759
15217TIP3    H145573   7.080   3.174   6.884 -1.1825  0.2142 -1.3930
15217TIP3    H245574   7.005   3.054   6.830  1.9620 -2.6592  0.4509
15218TIP3   OH245575   3.551  -0.013   0.608 -0.0052  0.1228  0.2842
15218TIP3    H145576   3.580   0.044   0.537  0.0731 -0.1568  0.0909
15218TIP3    H245577   3.559   0.040   0.687  3.7255 -0.8379  0.6197
15219TIP3   OH245578   0.781   7.739   1.219 -0.0856  0.5231  0.3417
15219TIP3    H145579   0.688   7.756   1.233 -0.3476 -0.4375 -0.1890
15219TIP3    H245580   0.824   7.774   1.297 -1.0182 -0.1534  1.1759
15220TIP3   OH245581   0.140   2.829   5.275  0.1705 -0.1455 -0.6640
15220TIP3    H145582   0.063   2.858   5.324  0.4983 -0.8685  0.2951
15220TIP3    H245583   0.105   2.777   5.203 -0.2665  0.0258 -0.5762
15221TIP3   OH245584   6.561   3.546   4.490 -0.2209 -0.3278 -0.1723
15221TIP3    H145585   6.534   3.634   4.514  0.2110 -0.3227  0.3097
15221TIP3    H245586   6.523   3.531   4.404  0.1168  0.5121 -0.4712
15222TIP3   OH245587   5.112   3.428   7.100 -0.0780  0.1287 -0.2520
15222TIP3    H145588   5.141   3.337   7.090  0.0507 -0.1974  2.7032
15222TIP3    H245589   5.034   3.422   7.155  0.3051  1.8746  0.4941
15223TIP3   OH245590   8.692   7.586   0.797 -0.2752  0.2518 -0.0026
15223TIP3    H145591   8.750   7.602   0.722  0.2870  0.5764  0.4901
15223TIP3    H245592   8.632   7.661   0.797 -0.7368 -0.1104 -0.5439
15224TIP3   OH245593   7.329   4.298   4.749  0.2943  0.0634 -0.3519
15224TIP3    H145594   7.307   4.220   4.799  0.5360 -0.7945 -1.5828
15224TIP3    H245595   7.378   4.266   4.673 -0.9360  1.2592 -1.6828
15225TIP3   OH245596   0.921   7.282   2.261 -0.5085 -0.8253 -0.6499
15225TIP3    H145597   0.933   7.285   2.166 -1.2208 -0.0115 -0.7186
15225TIP3    H245598   0.983   7.347   2.294 -0.4668 -0.9038 -0.5727
15226TIP3   OH245599   8.503   5.270   6.814 -0.8470  0.0384  0.6271
15226TIP3    H145600   8.447   5.208   6.768 -0.9381  0.1607  0.5727
15226TIP3    H245601   8.501   5.349   6.760 -1.4677  0.4036  1.1726
15227TIP3   OH245602   3.979   1.209   1.474  0.0184  0.6867  0.0644
15227TIP3    H145603   3.998   1.161   1.555 -1.7440 -0.7833 -0.3549
15227TIP3    H245604   3.891   1.243   1.487 -0.4664  0.0336 -1.4122
15228TIP3   OH245605   0.276   3.781   7.119  0.5779  0.5710  0.2672
15228TIP3    H145606   0.231   3.864   7.105 -0.2680  0.0812  0.0995
15228TIP3    H245607   0.234   3.720   7.059  2.8519  0.5984 -1.3946
15229TIP3   OH245608   1.938   7.819   0.174 -0.5158  0.2957 -0.3305
15229TIP3    H145609   1.884   7.878   0.121 -1.0425 -0.1271 -0.2738
15229TIP3    H245610   1.964   7.872   0.250 -1.0547  0.4313 -0.2376
15230TIP3   OH245611   0.651   7.461   0.276 -0.5539  0.0553 -0.3407
15230TIP3    H145612   0.725   7.446   0.217  0.4656  1.9578  0.4019
15230TIP3    H245613   0.600   7.531   0.234 -0.1318  1.0236  0.7403
15231TIP3   OH245614   6.879   4.186   5.575  0.2385  0.6046 -0.1635
15231TIP3    H145615   6.946   4.199   5.641  0.0617 -0.4150  0.2308
15231TIP3    H245616   6.870   4.091   5.567 -1.0461  0.7189 -0.3100
15232TIP3   OH245617   5.136   7.053   0.377 -0.5480 -0.1757  0.1579
15232TIP3    H145618   5.216   7.051   0.325 -0.6024  1.5615 -0.0184
15232TIP3    H245619   5.065   7.058   0.313 -0.7139  0.0414  0.3551
15233TIP3   OH245620   0.036   6.883   2.445  0.2782  0.0778 -0.5549
15233TIP3    H145621   0.118   6.908   2.402  0.7239 -0.8737 -0.2686
15233TIP3    H245622  -0.009   6.966   2.461  1.8757  0.7302  0.6355
15234TIP3   OH245623   8.648   4.437   6.475 -0.8082  0.2034 -0.2793
15234TIP3    H145624   8.565   4.422   6.430 -0.4234 -1.8816 -0.3227
15234TIP3    H245625   8.704   4.477   6.408 -1.9234  2.1084 -0.0971
15235TIP3   OH245626   1.834   3.157   7.099 -0.6612  0.7969  0.8569
15235TIP3    H145627   1.822   3.204   7.016  1.3557 -0.7586 -0.3520
15235TIP3    H245628   1.909   3.199   7.140 -1.2478  1.1240  1.6251
15236TIP3   OH245629   1.023   7.254   0.832 -0.3744  0.7554 -0.2533
15236TIP3    H145630   0.944   7.301   0.860  0.5572  1.8892  0.4916
15236TIP3    H245631   1.079   7.322   0.795  0.7613  0.1416  0.3301
15237TIP3   OH245632   2.396   7.919   1.416 -0.3514  0.5439 -0.2516
15237TIP3    H145633   2.393   7.824   1.423  1.0477  0.3880 -1.5688
15237TIP3    H245634   2.337   7.950   1.484 -1.5532 -1.2911 -0.4250
15238TIP3   OH245635   1.146   7.650   1.593  0.4144 -0.3293 -0.0088
15238TIP3    H145636   1.135   7.683   1.504  0.9507 -2.0145 -0.7265
15238TIP3    H245637   1.099   7.713   1.648 -2.2419 -0.7264 -1.7439
15239TIP3   OH245638   8.051   2.137   7.154 -0.0875  0.8147  0.3192
15239TIP3    H145639   7.960   2.160   7.136 -0.9624 -1.5543  1.5058
15239TIP3    H245640   8.083   2.097   7.073  0.1058  2.1781 -0.2935
15240TIP3   OH245641   0.097   6.207   1.616  0.3400 -0.5980  0.1185
15240TIP3    H145642   0.090   6.206   1.711  0.2958  0.6215  0.1383
15240TIP3    H245643   0.186   6.235   1.599 -0.7332  2.8605 -0.1868
15241TIP3   OH245644   0.135   8.129   1.319 -0.3578 -0.3390 -0.1770
15241TIP3    H145645   0.132   8.212   1.368 -0.3615 -0.9008  0.7856
15241TIP3    H245646   0.160   8.155   1.230 -1.0222  0.7678 -0.0549
15242TIP3   OH245647   7.343   4.942   6.034  0.2717  0.0632 -0.1261
15242TIP3    H145648   7.304   5.005   5.973  1.4662  0.6993 -0.2560
15242TIP3    H245649   7.291   4.863   6.023 -1.3918  1.0809  0.1945
15243TIP3   OH245650   6.609   4.173   6.112  0.0471 -0.4895  0.2010
15243TIP3    H145651   6.656   4.133   6.184 -1.5390 -1.5193  0.7080
15243TIP3    H245652   6.536   4.220   6.153 -0.0246  0.1435 -0.6255
15244TIP3   OH245653   8.426   3.348   6.031 -0.8007 -0.3570 -0.3027
15244TIP3    H145654   8.369   3.422   6.008 -0.6267 -0.4389 -1.0069
15244TIP3    H245655   8.515   3.383   6.024 -0.7731  0.2256  2.3526
15245TIP3   OH245656   0.474   7.026   2.137 -0.1016 -0.1875 -0.1808
15245TIP3    H145657   0.502   6.973   2.062 -1.1742 -0.4219 -0.4288
15245TIP3    H245658   0.403   6.975   2.177  1.4878 -0.8156  1.9260
15246TIP3   OH245659   0.059   6.898   4.021 -0.1158 -0.0266 -0.1883
15246TIP3    H145660   0.034   6.936   4.105  1.7940  0.6617  0.0796
15246TIP3    H245661   0.150   6.873   4.031 -0.1891 -1.0275 -1.6863
15247TIP3   OH245662   7.151   4.585   4.913 -0.2178 -0.0226  0.5914
15247TIP3    H145663   7.084   4.635   4.865  1.3175 -0.5855 -2.2112
15247TIP3    H245664   7.105   4.506   4.942 -1.6534  1.1867  1.7560
15248TIP3   OH245665   4.167   0.586   2.551 -0.5223  0.3718  0.1870
15248TIP3    H145666   4.108   0.515   2.525  0.8784 -0.8871  0.3823
15248TIP3    H245667   4.225   0.545   2.616  0.5419  1.6091  0.0148
15249TIP3   OH245668   3.050   0.226   1.001  0.4237 -0.1006  0.5825
15249TIP3    H145669   3.081   0.299   1.054  0.5599  0.6117 -0.4586
15249TIP3    H245670   3.074   0.249   0.911 -1.1594 -0.5586  0.0085
15250TIP3   OH245671   4.890   1.127   1.477 -0.0084 -0.0738 -0.4837
15250TIP3    H145672   4.818   1.156   1.421 -1.5980  0.0673  1.5883
15250TIP3    H245673   4.948   1.203   1.483  0.2121 -0.1094 -1.9656
15251TIP3   OH245674   4.087   1.607   1.303  0.3716 -0.3509  0.2383
15251TIP3    H145675   4.067   1.657   1.224  2.2392  1.0335  0.5973
15251TIP3    H245676   4.068   1.668   1.375  1.3563 -0.6213  0.7349
15252TIP3   OH245677   5.470   2.181   1.110 -0.1692  0.5857 -0.4254
15252TIP3    H145678   5.553   2.205   1.150  1.1075  1.4244 -3.4293
15252TIP3    H245679   5.437   2.262   1.071 -1.9610  0.0689 -0.0441
15253TIP3   OH245680   6.553   2.419   7.154 -0.0838 -0.3386 -0.2544
15253TIP3    H145681   6.549   2.434   7.060  0.1949 -2.3684 -0.6064
15253TIP3    H245682   6.463   2.403   7.180 -0.2721  1.0620 -0.0212
15254TIP3   OH245683   5.843   4.259   7.046  0.1540 -0.0738 -0.0103
15254TIP3    H145684   5.784   4.311   7.100  0.5342  0.3315  0.0160
15254TIP3    H245685   5.786   4.192   7.007 -0.1508 -0.2959  0.7829
15255TIP3   OH245686   7.649   8.140   0.703  0.1151 -0.2021 -0.1080
15255TIP3    H145687   7.583   8.126   0.770  3.0423 -4.0184  2.1902
15255TIP3    H245688   7.690   8.224   0.726 -1.2180  0.1953  0.8160
15256TIP3   OH245689   1.230   7.858   0.210 -0.1438 -0.2195  0.0589
15256TIP3    H145690   1.226   7.766   0.183  1.6387 -0.3632  0.1928
15256TIP3    H245691   1.208   7.908   0.131  1.5143 -0.7106 -0.7272
15257TIP3   OH245692   2.092   1.111   0.785  0.1004  0.3226 -0.3188
15257TIP3    H145693   2.007   1.082   0.817 -0.8855  1.5951 -1.6669
15257TIP3    H245694   2.133   1.156   0.859 -0.7903  0.4710  0.0817
15258TIP3   OH245695   8.663   8.254   1.367 -0.2800  0.5322 -0.5033
15258TIP3    H145696   8.706   8.245   1.452 -1.2690 -0.2181 -0.0632
15258TIP3    H245697   8.629   8.343   1.366 -1.3776  0.1449  0.4460
15259TIP3   OH245698   1.931   6.130   1.411 -0.1955  0.4695 -0.0483
15259TIP3    H145699   1.842   6.100   1.428  0.4888 -0.7745  1.4368
15259TIP3    H245700   1.940   6.125   1.316 -0.9918 -1.5400 -0.0429
15260TIP3   OH245701   8.179   2.554   6.336  0.0700 -0.1337 -0.5435
15260TIP3    H145702   8.264   2.599   6.340  0.1816 -0.3447 -0.5726
15260TIP3    H245703   8.174   2.520   6.247  0.1878 -0.5773 -0.3815
15261TIP3   OH245704   6.477   2.072   6.891  0.1002 -0.2170 -0.2309
15261TIP3    H145705   6.551   2.126   6.863 -0.3638 -0.2397 -1.5443
15261TIP3    H245706   6.494   2.054   6.984  0.8724  1.1865 -0.0797
15262TIP3   OH245707   8.758   6.490   1.521 -0.5654  0.4487  0.1677
15262TIP3    H145708   8.707   6.569   1.505 -0.2652  0.7854  0.8406
15262TIP3    H245709   8.719   6.424   1.463 -0.9798  1.0186 -0.2087
15263TIP3   OH245710   1.425   6.219   1.326 -0.0063  0.0999  0.4428
15263TIP3    H145711   1.509   6.218   1.371  0.9591 -2.5259 -1.3012
15263TIP3    H245712   1.384   6.136   1.350 -0.4469 -0.3243 -1.6693
15264TIP3   OH245713   4.273   0.355   1.022 -0.8433  0.0972 -0.2161
15264TIP3    H145714   4.222   0.363   0.942 -0.9204 -1.2534 -0.3057
15264TIP3    H245715   4.318   0.440   1.030 -2.4528  1.0083 -0.5613
15265TIP3   OH245716   8.106   0.829   6.432 -0.2265  0.0396  0.4282
15265TIP3    H145717   8.117   0.904   6.490 -0.1891  0.1751  0.2433
15265TIP3    H245718   8.177   0.770   6.455  0.8337  0.8641 -0.6868
15266TIP3   OH245719   5.044   4.709   7.238 -0.5043  0.1615 -0.4921
15266TIP3    H145720   5.102   4.651   7.288  0.1732  0.1703 -1.2495
15266TIP3    H245721   4.969   4.654   7.216 -1.2359  0.4120  1.2971
15267TIP3   OH245722   8.633   6.989   0.378 -0.1412 -0.1300  0.1976
15267TIP3    H145723   8.677   7.074   0.383 -0.9894  0.3144  0.2024
15267TIP3    H245724   8.601   6.984   0.288  1.8190 -1.4217 -0.4755
15268TIP3   OH245725   7.465   3.007   6.080 -0.1124  0.4242  0.2974
15268TIP3    H145726   7.485   3.085   6.027 -0.5113  0.1612 -0.2493
15268TIP3    H245727   7.418   3.042   6.156 -0.8406  0.6647 -0.2514
15269TIP3   OH245728   7.979   1.797   6.832  0.2131  0.5447  0.0280
15269TIP3    H145729   7.889   1.813   6.804  0.6191  0.8649 -1.1284
15269TIP3    H245730   8.022   1.760   6.754  1.0232  0.2006  0.6314
15270TIP3   OH245731   1.606   7.821   1.221 -0.1042 -0.1811 -0.0643
15270TIP3    H145732   1.698   7.806   1.198 -0.4123 -2.2608 -0.0378
15270TIP3    H245733   1.589   7.762   1.294 -1.4025  0.3815  0.1082
15271TIP3   OH245734   2.865   1.192   0.396 -0.4095  0.2715  0.2633
15271TIP3    H145735   2.799   1.193   0.327 -0.2217  1.6062  0.0984
15271TIP3    H245736   2.898   1.102   0.396  1.7321  0.9565 -3.4185
15272TIP3   OH245737   7.219   3.252   6.792 -0.1372  0.2583 -0.1419
15272TIP3    H145738   7.271   3.196   6.849 -0.0993 -0.7285 -1.1267
15272TIP3    H245739   7.271   3.260   6.712  1.3386  4.2593  1.0818
15273TIP3   OH245740   8.589   2.367   6.757  0.0792 -0.7134  0.0505
15273TIP3    H145741   8.567   2.439   6.817  1.1164  0.4799 -0.9686
15273TIP3    H245742   8.681   2.347   6.777  0.6145  0.1014 -1.5540
15274TIP3   OH245743   0.814   5.810   6.451 -0.0364  0.4066 -0.3955
15274TIP3    H145744   0.797   5.883   6.391  0.4035 -0.7879 -2.0073
15274TIP3    H245745   0.728   5.772   6.467 -0.0783  0.3526 -0.7512
15275TIP3   OH245746   6.354   2.377   5.712 -0.1849 -0.0616  0.4898
15275TIP3    H145747   6.383   2.307   5.653 -0.1359  0.6737 -0.3587
15275TIP3    H245748   6.347   2.334   5.798  0.1675 -1.0294  0.0418
15276TIP3   OH245749   2.117   6.141   0.099 -0.6630  0.2647 -0.0329
15276TIP3    H145750   2.112   6.211   0.034 -1.1454  0.7966  0.5745
15276TIP3    H245751   2.100   6.061   0.049 -1.7587  0.7424 -0.4392
15277TIP3   OH245752   0.039   5.379   6.903 -0.2749  0.1861  0.3666
15277TIP3    H145753   0.129   5.410   6.905 -0.1496 -0.1546 -0.0775
15277TIP3    H245754  -0.006   5.441   6.845 -0.1477 -0.1340 -0.0713
15278TIP3   OH245755   8.424   2.461   6.028  0.8346  0.1120  0.1424
15278TIP3    H145756   8.395   2.436   6.115  1.4776 -1.2732 -0.0259
15278TIP3    H245757   8.518   2.475   6.036  0.9228 -0.1572 -0.3566
15279TIP3   OH245758   2.610   7.813   0.644 -0.5720  0.3313 -0.1579
15279TIP3    H145759   2.518   7.814   0.617 -0.0936  1.1582 -1.8873
15279TIP3    H245760   2.609   7.849   0.732 -1.7960  1.5005 -0.6135
15280TIP3   OH245761   1.134   4.302   6.438 -0.9772 -0.0969 -0.2107
15280TIP3    H145762   1.217   4.261   6.417 -0.1645  0.5105  1.6329
15280TIP3    H245763   1.072   4.230   6.446 -0.1863 -0.7241  0.3050
15281TIP3   OH245764   4.719   7.581   1.344  0.3220  0.4597  0.1697
15281TIP3    H145765   4.633   7.539   1.342  0.3109  0.5188 -1.7271
15281TIP3    H245766   4.776   7.516   1.387 -0.6381  0.3698  1.3046
15282TIP3   OH245767   8.919   3.075   5.000 -0.6775 -0.1839 -0.5099
15282TIP3    H145768   8.877   2.996   4.967 -1.4397  0.7935 -1.8981
15282TIP3    H245769   8.847   3.128   5.035 -0.4788  0.9639 -1.8000
15283TIP3   OH245770   2.353   8.156   2.504 -0.0480  0.4594 -0.2361
15283TIP3    H145771   2.276   8.188   2.458 -0.0806  0.3887 -0.2306
15283TIP3    H245772   2.323   8.142   2.594  0.0999  0.9114 -0.1163
15284TIP3   OH245773   6.464   0.000   0.682  0.6931  0.6705 -0.2826
15284TIP3    H145774   6.468  -0.033   0.592  3.0915 -0.1412  0.1092
15284TIP3    H245775   6.489   0.092   0.674  1.5374  0.4343 -0.3671
15285TIP3   OH245776   8.540   3.730   6.212 -0.2338 -0.2285  0.0782
15285TIP3    H145777   8.542   3.675   6.134 -0.1936 -1.3441  0.8598
15285TIP3    H245778   8.452   3.719   6.248 -0.2272  0.2204  0.2380
15286TIP3   OH245779   0.094   4.527   6.232 -0.0750  0.0480 -0.3912
15286TIP3    H145780   0.149   4.605   6.223 -0.4460  0.3538 -0.0059
15286TIP3    H245781   0.005   4.557   6.210 -0.6039  0.2533  1.9367
15287TIP3   OH245782   4.915   0.635   0.417 -0.6928  0.1187 -0.0085
15287TIP3    H145783   4.852   0.603   0.482 -1.3501  0.3035 -0.5467
15287TIP3    H245784   4.908   0.572   0.345 -0.4328  0.2766 -0.1702
15288TIP3   OH245785   7.765   0.849   1.594 -0.4393 -0.1274 -0.4438
15288TIP3    H145786   7.850   0.878   1.627 -0.2811  0.8187 -1.6420
15288TIP3    H245787   7.706   0.922   1.612 -0.8908 -0.5791 -0.0730
15289TIP3   OH245788   1.468   2.659   5.344 -0.2182 -0.0698  0.5698
15289TIP3    H145789   1.432   2.639   5.257  0.5726 -1.6516  0.5948
15289TIP3    H245790   1.556   2.692   5.326 -0.0054 -0.5249  0.7752
15290TIP3   OH245791   1.900   8.169   0.509 -0.1581  0.7106  0.0029
15290TIP3    H145792   1.884   8.206   0.422 -0.8121  1.2635  0.3524
15290TIP3    H245793   1.927   8.243   0.562 -0.4226  0.4936  0.4428
15291TIP3   OH245794   5.962   0.678   3.552  0.4114 -0.0798  0.1180
15291TIP3    H145795   6.007   0.732   3.617 -0.2395 -0.2267  0.6910
15291TIP3    H245796   6.010   0.595   3.552  0.7560  0.1208  0.0097
15292TIP3   OH245797   0.520   3.816   7.237 -0.1189  0.7663  0.0040
15292TIP3    H145798   0.438   3.789   7.198 -0.7119  2.9644 -0.3225
15292TIP3    H245799   0.587   3.795   7.172 -0.2458 -2.0593  0.7233
15293TIP3   OH245800   7.066   5.324   5.976  0.2600 -0.2201  0.1612
15293TIP3    H145801   6.987   5.283   6.013 -0.3748  0.0356 -0.8905
15293TIP3    H245802   7.037   5.410   5.946  1.0337  0.0314  0.1320
15294TIP3   OH245803   8.508   3.069   5.942  0.4090  0.2407 -0.1394
15294TIP3    H145804   8.467   3.143   5.988 -0.8715 -0.3441 -0.3164
15294TIP3    H245805   8.597   3.066   5.977 -0.6023 -0.3519  2.5177
15295TIP3   OH245806   7.092   2.389   6.750 -0.3416  0.3055  0.1322
15295TIP3    H145807   7.112   2.440   6.671 -2.1683  0.9102  0.0380
15295TIP3    H245808   7.044   2.313   6.718  0.2629 -0.2542  0.5290
15296TIP3   OH245809   7.622   3.416   6.700  0.0901  0.4525  0.2803
15296TIP3    H145810   7.618   3.406   6.795 -0.1928 -1.9773  0.0369
15296TIP3    H245811   7.709   3.385   6.676 -0.9683 -2.0289 -0.5496
15297TIP3   OH245812   5.296   0.359   2.447 -0.3545 -0.0585 -0.4026
15297TIP3    H145813   5.254   0.315   2.520  1.5497  1.2277  1.5117
15297TIP3    H245814   5.389   0.339   2.456  0.0329  0.9365 -1.9025
15298TIP3   OH245815   7.275   5.101   6.686 -0.1490  0.3209  0.2338
15298TIP3    H145816   7.356   5.057   6.712  0.0542 -0.5145 -1.7855
15298TIP3    H245817   7.252   5.155   6.763  1.4240 -0.6695  1.4364
15299TIP3   OH245818   2.172   7.173   0.553 -0.2576 -0.0429 -0.0228
15299TIP3    H145819   2.119   7.100   0.520  0.5964 -0.7831  0.2129
15299TIP3    H245820   2.241   7.184   0.488 -0.3104  0.4719  0.0074
15300TIP3   OH245821   6.953   3.279   5.380  0.1950 -0.0802  0.0726
15300TIP3    H145822   6.955   3.194   5.336 -0.0969  0.1746 -0.4421
15300TIP3    H245823   6.860   3.300   5.387  0.2889  0.5669 -0.5318
15301TIP3   OH245824   1.488   7.291   1.526  0.5119  0.0975 -0.4900
15301TIP3    H145825   1.493   7.212   1.580  0.7768  0.6746  0.3372
15301TIP3    H245826   1.396   7.315   1.527  0.8901  1.5689  1.8496
15302TIP3   OH245827   8.592   3.858   6.448  0.0667  0.5381  0.8390
15302TIP3    H145828   8.586   3.823   6.359 -0.4294  1.4309  0.5177
15302TIP3    H245829   8.555   3.946   6.442 -0.5372  0.3785  2.0529
15303TIP3   OH245830   3.538   5.613   1.443  0.6204 -0.0403 -0.1920
15303TIP3    H145831   3.541   5.518   1.458  2.6762 -0.0209 -0.3822
15303TIP3    H245832   3.455   5.627   1.397 -0.8720 -1.4187  1.9659
15304TIP3   OH245833   2.942   5.746   0.169  0.6605 -0.1603  0.0832
15304TIP3    H145834   2.898   5.796   0.238 -0.6862  1.3345 -1.8194
15304TIP3    H245835   2.934   5.655   0.197  1.6061  0.5330  2.7237
15305TIP3   OH245836   7.156   2.236   4.899 -0.1166 -0.2686 -0.1787
15305TIP3    H145837   7.147   2.330   4.914  0.2484 -0.2405 -0.1306
15305TIP3    H245838   7.195   2.230   4.811  0.3835 -0.3587  0.0472
15306TIP3   OH245839   7.626   4.653   6.217 -0.0023 -0.5201  0.3592
15306TIP3    H145840   7.603   4.738   6.180 -1.6814 -1.2764 -0.3752
15306TIP3    H245841   7.554   4.595   6.192  0.8672 -2.0435  1.2838
15307TIP3   OH245842   6.724   1.707   6.241  0.4112  0.4473  0.0656
15307TIP3    H145843   6.764   1.752   6.315 -0.8683  1.7227  0.0049
15307TIP3    H245844   6.631   1.701   6.263 -0.1300  1.5497 -1.7708
15308TIP3   OH245845   7.495   4.016   6.397 -0.0496 -0.4291 -0.1800
15308TIP3    H145846   7.560   3.993   6.331  0.3691 -0.7418  0.3386
15308TIP3    H245847   7.512   3.956   6.470 -0.1287  0.3083  0.4487
15309TIP3   OH245848   1.942   6.229   1.123 -0.9536 -0.4856 -0.2737
15309TIP3    H145849   1.889   6.308   1.122  1.6775  1.3548 -0.9223
15309TIP3    H245850   2.005   6.241   1.052 -0.3126 -3.0208 -0.1837
15310TIP3   OH245851   8.441   3.725   4.960 -0.4063 -0.6040 -0.8805
15310TIP3    H145852   8.531   3.724   4.992 -1.0382 -0.0433  0.9973
15310TIP3    H245853   8.390   3.681   5.029 -1.5590 -0.9695 -1.9423
15311TIP3   OH245854   1.306   0.905   6.150 -0.3286 -0.3650  0.0085
15311TIP3    H145855   1.377   0.940   6.203 -2.1824  0.5142  2.0154
15311TIP3    H245856   1.313   0.810   6.160  1.6560 -0.3835 -1.3385
15312TIP3   OH245857   0.335   4.867   4.748 -0.1707 -0.1084  0.1921
15312TIP3    H145858   0.426   4.847   4.728 -0.0640  1.5708 -1.1021
15312TIP3    H245859   0.315   4.814   4.825  2.2932  0.4461  1.2664
15313TIP3   OH245860   0.980   4.758   6.513 -0.0179  0.5067  0.2607
15313TIP3    H145861   1.010   4.672   6.542 -2.8976 -0.2307  1.2942
15313TIP3    H245862   0.995   4.758   6.419  0.8862 -0.7562  0.3850
15314TIP3   OH245863   3.130   7.365   0.833 -0.2785  1.0487  0.4757
15314TIP3    H145864   3.089   7.444   0.798 -1.3786  0.6569  0.8654
15314TIP3    H245865   3.197   7.342   0.769  0.1250  2.3511  0.4101
15315TIP3   OH245866   7.560   3.237   5.992 -0.2321  0.2229 -0.1291
15315TIP3    H145867   7.528   3.326   6.005 -0.7912 -0.2698  2.0351
15315TIP3    H245868   7.648   3.238   6.031 -0.4012 -0.2616  0.2732
15316TIP3   OH245869   2.061   7.511   1.744 -0.1870 -0.3562 -0.3455
15316TIP3    H145870   2.013   7.567   1.805  1.2499  0.5558 -0.0512
15316TIP3    H245871   2.016   7.426   1.750 -0.9570  0.1196  0.8815
15317TIP3   OH245872   8.216   3.702   7.135  0.2930  0.0960  0.8763
15317TIP3    H145873   8.180   3.784   7.169 -0.4891  0.2402 -0.2729
15317TIP3    H245874   8.147   3.638   7.149 -0.1764  0.2337 -0.7330
15318TIP3   OH245875   3.745   7.989   0.760 -0.4187  0.0184 -0.4242
15318TIP3    H145876   3.778   7.999   0.849 -0.9501  0.8904 -0.3113
15318TIP3    H245877   3.650   7.980   0.771 -0.5802  0.9678 -0.9377
15319TIP3   OH245878   4.860   4.429   6.932  0.9244  0.2005 -0.4291
15319TIP3    H145879   4.953   4.407   6.938  1.0677  1.0719  0.6399
15319TIP3    H245880   4.817   4.345   6.912  1.5491 -0.9688  2.8314
15320TIP3   OH245881   8.222   2.842   5.616 -0.4778  0.1950  0.1102
15320TIP3    H145882   8.272   2.864   5.538 -1.2703 -0.1701 -0.5083
15320TIP3    H245883   8.284   2.796   5.672  0.3614  1.3003  0.1111
15321TIP3   OH245884   6.351   4.097   6.920 -0.3214  0.2334  0.2896
15321TIP3    H145885   6.385   4.107   6.831  0.2917  0.4680  0.5431
15321TIP3    H245886   6.273   4.043   6.910  0.5847 -1.0100 -0.2201
15322TIP3   OH245887   2.520   8.011   0.144  0.7501 -0.2558 -0.0934
15322TIP3    H145888   2.580   8.070   0.190  3.5141 -1.5875 -1.8675
15322TIP3    H245889   2.506   7.938   0.204  0.4629  0.3167  0.5409
15323TIP3   OH245890   7.499   4.148   4.565  0.4170 -0.4747  0.4885
15323TIP3    H145891   7.522   4.056   4.552  2.2262  0.1646 -1.0247
15323TIP3    H245892   7.454   4.173   4.484  2.3545  0.6892 -0.2496
15324TIP3   OH245893   7.841   5.474   5.961 -1.0957 -0.2768 -0.1604
15324TIP3    H145894   7.871   5.404   6.019  1.7366  0.8550 -0.1878
15324TIP3    H245895   7.817   5.546   6.020 -1.8382 -0.4639 -0.2310
15325TIP3   OH245896   8.039   2.966   4.429  0.0022 -0.0811 -0.5590
15325TIP3    H145897   8.053   2.909   4.505 -0.7172  0.0626 -0.3133
15325TIP3    H245898   7.981   3.035   4.462 -0.7309 -0.3004 -1.3814
15326TIP3   OH245899   0.870   2.490   6.315  0.5464 -0.1830  0.4948
15326TIP3    H145900   0.843   2.486   6.223  0.7326 -0.2777  0.4421
15326TIP3    H245901   0.840   2.407   6.352 -0.8726  0.4989  0.9018
15327TIP3   OH245902   8.125   4.055   6.092 -0.4069 -0.2224  0.1143
15327TIP3    H145903   8.159   4.025   6.008 -0.7401  0.3145 -0.2151
15327TIP3    H245904   8.031   4.039   6.087 -0.3231 -0.9202  0.6946
15328TIP3   OH245905   6.756   2.790   6.226  0.1900  0.2408  0.3792
15328TIP3    H145906   6.782   2.882   6.220 -0.5326  0.3310 -1.8897
15328TIP3    H245907   6.687   2.781   6.160 -0.3481 -1.7247  1.1910
15329TIP3   OH245908  -0.007   3.469   5.477 -0.3409  0.3837  0.3619
15329TIP3    H145909   0.047   3.528   5.424 -0.3320  0.6304  0.6490
15329TIP3    H245910   0.039   3.385   5.475 -0.4154  0.3486 -0.1461
15330TIP3   OH245911   7.396   4.250   6.109  0.2130 -0.6794  0.3355
15330TIP3    H145912   7.413   4.228   6.017 -3.4691 -3.3597  0.1844
15330TIP3    H245913   7.457   4.196   6.158 -0.4474 -2.1718 -0.4474
15331TIP3   OH245914   7.347   2.980   5.357  0.1329 -0.8586 -0.1708
15331TIP3    H145915   7.276   2.952   5.299 -0.4918  0.4690 -0.0832
15331TIP3    H245916   7.318   3.066   5.390  1.7438 -0.3296 -0.0809
15332TIP3   OH245917   8.708   2.658   6.366 -0.2910 -0.1340  0.0587
15332TIP3    H145918   8.684   2.743   6.404 -0.2482  0.4783 -1.2488
15332TIP3    H245919   8.706   2.597   6.440 -2.0808  0.6463  0.6665
15333TIP3   OH245920   6.681   4.783   5.826  0.3835 -0.4036  0.4464
15333TIP3    H145921   6.681   4.742   5.912 -1.1575 -0.7222  0.3117
15333TIP3    H245922   6.670   4.876   5.844  1.4486 -0.3075  0.6430
15334TIP3   OH245923   8.599   3.457   4.921  0.0458 -0.0287 -0.3146
15334TIP3    H145924   8.553   3.378   4.893 -0.4776 -0.1122  0.7746
15334TIP3    H245925   8.559   3.481   5.004  2.4442 -0.5083  1.0242
15335TIP3   OH245926   5.262   0.830   1.978 -0.1987 -0.1674 -0.6911
15335TIP3    H145927   5.174   0.829   1.942 -0.1085  2.1182 -1.0367
15335TIP3    H245928   5.320   0.839   1.902  0.3417 -1.5655 -0.4631
15336TIP3   OH245929   6.909   7.090   6.812  0.0496  0.4368 -0.0342
15336TIP3    H145930   7.004   7.083   6.827  0.2175 -0.4879 -1.4310
15336TIP3    H245931   6.891   7.184   6.815  1.9648  1.1143 -5.0935
15337TIP3   OH245932   7.378   4.511   6.182 -0.6802 -0.5846 -0.0390
15337TIP3    H145933   7.324   4.523   6.261  0.6242 -0.2990  0.8252
15337TIP3    H245934   7.360   4.422   6.154  0.4090 -1.4255  1.8116
15338TIP3   OH245935   7.884   3.385   6.328 -0.8766 -0.8537 -0.1764
15338TIP3    H145936   7.927   3.436   6.259 -0.9946 -1.1719 -0.4888
15338TIP3    H245937   7.950   3.324   6.357 -0.4756  0.0246  0.7751
15339TIP3   OH245938   7.439   1.131   6.945  0.3957  0.2466 -0.0629
15339TIP3    H145939   7.373   1.142   6.876  0.7782  0.3580 -0.4160
15339TIP3    H245940   7.396   1.160   7.025  0.3468  1.2831 -0.4549
15340TIP3   OH245941   2.343   8.010   0.460 -0.7014  0.7621  0.9272
15340TIP3    H145942   2.347   7.943   0.528  0.0916 -0.0538  0.0895
15340TIP3    H245943   2.423   7.998   0.409 -2.6275 -0.5989 -1.9510
15341TIP3   OH245944   6.874   0.376   0.474  0.1652 -0.0095  0.2987
15341TIP3    H145945   6.811   0.425   0.421 -0.2600 -2.6623 -1.7916
15341TIP3    H245946   6.936   0.441   0.504 -0.3677  1.8213 -2.3737
15342TIP3   OH245947   0.896   7.464   4.991 -0.0449  0.1304  0.3590
15342TIP3    H145948   0.843   7.400   5.038 -0.0142  0.1162  0.3740
15342TIP3    H245949   0.981   7.463   5.035  0.1528 -0.2579 -0.0179
15343TIP3   OH245950   5.525   0.497   1.505 -0.2896  0.5422 -0.3355
15343TIP3    H145951   5.485   0.458   1.427 -0.6685 -0.4221  0.3303
15343TIP3    H245952   5.452   0.533   1.555 -0.3134 -0.8142  0.6576
15344TIP3   OH245953   7.635   0.534   2.407 -0.1596 -0.0984 -0.2636
15344TIP3    H145954   7.605   0.616   2.447  1.2274 -0.0095  0.6286
15344TIP3    H245955   7.695   0.562   2.338  0.9461 -0.3675  0.5725
15345TIP3   OH245956   8.718   5.964   4.955  0.2957  0.4572 -0.3915
15345TIP3    H145957   8.807   5.936   4.977  0.1752 -1.8712 -2.6405
15345TIP3    H245958   8.685   6.005   5.035  3.1209  0.7255  0.6960
15346TIP3   OH245959   7.374   4.204   5.340  0.7024 -0.1489 -0.1415
15346TIP3    H145960   7.423   4.283   5.317  1.2637 -0.4048  0.1454
15346TIP3    H245961   7.325   4.182   5.261  1.9763 -0.5519 -0.8441
15347TIP3   OH245962   5.597   0.440   0.633 -0.1144 -0.1570  0.0804
15347TIP3    H145963   5.631   0.380   0.699 -1.2764 -0.2005  0.6486
15347TIP3    H245964   5.569   0.517   0.682  2.3761  1.3433 -0.7450
15348TIP3   OH245965   8.851   5.251   4.324 -0.0262  0.1097  0.1766
15348TIP3    H145966   8.800   5.302   4.386  1.1010  1.7917 -0.2424
15348TIP3    H245967   8.924   5.308   4.299 -0.2526 -0.6416 -2.4364
15349TIP3   OH245968   8.410   2.654   6.323 -0.3346  0.0571 -0.3892
15349TIP3    H145969   8.390   2.743   6.294  1.2004  0.4946 -0.1528
15349TIP3    H245970   8.493   2.633   6.281  0.3543 -0.4836  1.1878
15350TIP3   OH245971   6.439   6.880   4.543  0.6051  0.3038  0.4747
15350TIP3    H145972   6.354   6.838   4.553 -0.6503  1.9486 -2.5370
15350TIP3    H245973   6.426   6.970   4.572  0.9358  0.9293 -1.2588
15351TIP3   OH245974   8.103   3.272   5.948  0.1764 -0.1052  0.2120
15351TIP3    H145975   8.127   3.183   5.920  0.8013  0.1063  0.0501
15351TIP3    H245976   8.159   3.329   5.894  0.7319  0.3372  1.2489
15352TIP3   OH245977   6.244   1.706   0.537  0.0595 -0.4881 -0.7117
15352TIP3    H145978   6.198   1.779   0.578  1.7211 -0.3570  0.9560
15352TIP3    H245979   6.292   1.746   0.465  0.8420  0.0372  0.1014
15353TIP3   OH245980   4.427   1.329   2.097  0.0685  0.6091  0.6525
15353TIP3    H145981   4.441   1.237   2.122 -0.1837  0.9492  2.1500
15353TIP3    H245982   4.440   1.378   2.179 -3.0231  1.5732  0.6540
15354TIP3   OH245983   0.941   1.683   2.113 -0.0033  0.9720 -0.2569
15354TIP3    H145984   0.881   1.750   2.079 -0.2614  0.7642 -0.2083
15354TIP3    H245985   0.907   1.600   2.079  0.2969  0.8608 -0.2877
15355TIP3   OH245986   7.877   0.257   2.078  0.0386 -0.5516 -0.0382
15355TIP3    H145987   7.919   0.334   2.117 -0.3974 -1.3112  1.9650
15355TIP3    H245988   7.950   0.198   2.057  0.3110  0.0555 -0.8171
15356TIP3   OH245989   7.601   6.407   1.051 -0.3843  0.1109 -0.4906
15356TIP3    H145990   7.536   6.428   0.984  0.7474 -0.9149 -1.9378
15356TIP3    H245991   7.664   6.479   1.047 -1.0964  0.7907  0.4847
15357TIP3   OH245992   7.763   0.585   0.547 -0.0487 -0.6961  0.0861
15357TIP3    H145993   7.678   0.615   0.515 -1.0926 -2.1796  1.3695
15357TIP3    H245994   7.796   0.658   0.601 -0.9242 -0.4570  0.3085
15358TIP3   OH245995   8.723   1.777   2.830 -0.3725 -0.3393 -0.8228
15358TIP3    H145996   8.780   1.846   2.797 -1.2400  0.3221 -0.9552
15358TIP3    H245997   8.781   1.719   2.879  0.2334  0.9206 -0.0247
15359TIP3   OH245998   7.571   2.809   1.838 -0.4343  0.1172 -0.1992
15359TIP3    H145999   7.632   2.871   1.879  0.1744 -0.6851  0.1064
15359TIP3    H246000   7.608   2.723   1.855 -1.3108 -0.3450 -0.5847
15360TIP3   OH246001   3.971   8.332   0.174  0.2041 -0.2346 -0.3573
15360TIP3    H146002   4.025   8.361   0.100  0.8473 -0.0193  0.1909
15360TIP3    H246003   4.014   8.369   0.251 -1.1408  0.5309  0.0345
15361TIP3   OH246004   8.353   2.536   2.855 -0.2885  0.0354  0.3630
15361TIP3    H146005   8.405   2.573   2.783  1.4124 -0.6174  1.2147
15361TIP3    H246006   8.373   2.443   2.853 -0.4339 -0.0300  1.5173
15362TIP3   OH246007   6.320   0.833   0.486  0.0672 -0.1808  0.7883
15362TIP3    H146008   6.371   0.800   0.561 -1.6002 -2.1086  1.1286
15362TIP3    H246009   6.264   0.901   0.523 -1.0616 -1.4234  1.4198
15363TIP3   OH246010   8.666   1.343   3.028 -0.2133 -0.2511 -0.4231
15363TIP3    H146011   8.621   1.315   2.949 -0.3684  2.3743 -1.3383
15363TIP3    H246012   8.600   1.336   3.097 -0.9047  0.0094 -1.0530
15364TIP3   OH246013   6.605   1.487   1.875 -0.6620  0.5533  0.9165
15364TIP3    H146014   6.604   1.391   1.879  0.3544  0.5692  1.9766
15364TIP3    H246015   6.532   1.514   1.930 -0.5731  0.3949  1.1125
15365TIP3   OH246016   0.797   0.433   1.007  0.4615 -0.1092  0.1639
15365TIP3    H146017   0.804   0.349   0.962 -1.9233 -0.1362 -0.2397
15365TIP3    H246018   0.703   0.452   1.008  0.9432  2.5544  0.2301
15366TIP3   OH246019   1.541   0.741   0.279  0.2147 -0.1170  0.6725
15366TIP3    H146020   1.589   0.782   0.207 -0.8692 -0.0461 -0.0218
15366TIP3    H246021   1.539   0.807   0.348  0.1928  0.2649  0.3053
15367TIP3   OH246022   8.170   0.366   2.193  0.2236 -0.4336  0.0362
15367TIP3    H146023   8.145   0.294   2.251  0.6635 -1.2934 -0.8336
15367TIP3    H246024   8.240   0.411   2.240 -0.1562 -0.4727  0.6520
15368TIP3   OH246025   6.768   1.131   0.362  0.2861 -0.3477 -0.6731
15368TIP3    H146026   6.804   1.219   0.350  1.1185 -0.3535  1.5394
15368TIP3    H246027   6.842   1.077   0.389 -0.5343 -1.3351 -0.3282
15369TIP3   OH246028   6.450   0.122   1.887  0.1319 -0.0924 -0.0614
15369TIP3    H146029   6.425   0.111   1.795  1.1903  0.3980 -0.4155
15369TIP3    H246030   6.545   0.135   1.885  0.2885 -0.9265  1.1745
15370TIP3   OH246031   5.066   8.224   1.393 -0.3409  0.1874 -0.7058
15370TIP3    H146032   5.113   8.302   1.365  0.3564 -0.0285 -0.1561
15370TIP3    H246033   5.133   8.169   1.435 -0.8373 -0.6678 -1.0186
15371TIP3   OH246034   0.747   3.416   6.986 -0.2167 -0.5584  0.6135
15371TIP3    H146035   0.665   3.455   6.955  0.5660 -0.6569 -1.6952
15371TIP3    H246036   0.728   3.322   6.989 -0.7177 -0.4204  1.7670
15372TIP3   OH246037   5.901   7.942   2.272 -0.1966  0.4590  0.2902
15372TIP3    H146038   5.954   7.882   2.219  0.2935  1.4131 -0.3182
15372TIP3    H246039   5.816   7.900   2.279  0.5194 -0.9152  0.9407
15373TIP3   OH246040   6.502   0.140   1.054  0.0607 -0.2937 -0.4520
15373TIP3    H146041   6.512   0.206   0.985  0.2141 -0.6739 -0.7974
15373TIP3    H246042   6.543   0.178   1.131  1.1119 -0.4284 -0.9384
15374TIP3   OH246043   7.545   2.134   2.578 -0.6613  0.0496 -0.1180
15374TIP3    H146044   7.571   2.225   2.562 -0.4157 -0.3188 -2.0087
15374TIP3    H246045   7.508   2.134   2.666  0.0855  1.8199  0.2125
15375TIP3   OH246046   8.596   2.654   1.095 -0.2300  0.5998 -0.0341
15375TIP3    H146047   8.615   2.737   1.052  1.8364  0.1112 -0.1067
15375TIP3    H246048   8.612   2.670   1.187 -0.0078  0.3384 -0.0259
15376TIP3   OH246049   0.068   2.010   0.768  0.1283  0.4263  0.2929
15376TIP3    H146050   0.010   2.086   0.760  0.5938  0.9318  1.5692
15376TIP3    H246051   0.016   1.946   0.817  0.2823  0.4947  0.5447
15377TIP3   OH246052   6.149   0.310   0.957 -0.5772 -0.3582  0.0356
15377TIP3    H146053   6.201   0.293   0.878 -1.2499  1.3915 -0.8081
15377TIP3    H246054   6.126   0.223   0.990  0.3937 -1.1133 -1.2350
15378TIP3   OH246055   4.265   6.714   3.075  0.0614 -0.0669 -0.1382
15378TIP3    H146056   4.241   6.761   3.155 -2.4122 -0.7818 -0.4117
15378TIP3    H246057   4.326   6.646   3.105  0.9592  1.1058  0.7656
15379TIP3   OH246058   8.573   0.912   1.904 -0.0774  0.2262  0.1936
15379TIP3    H146059   8.646   0.897   1.963 -0.8799 -0.1572  1.1003
15379TIP3    H246060   8.552   1.005   1.915  0.4313  0.3994 -0.2621
15380TIP3   OH246061   4.282   2.042   0.465 -0.4771 -0.0761 -0.2795
15380TIP3    H146062   4.373   2.059   0.489  0.4502  0.1230 -3.6328
15380TIP3    H246063   4.272   1.948   0.474  0.3279 -0.2040 -0.6289
15381TIP3   OH246064   4.507   8.254   2.607 -0.2297  0.8248 -0.1607
15381TIP3    H146065   4.435   8.316   2.614  0.5714  1.4602  4.1159
15381TIP3    H246066   4.464   8.168   2.607 -1.1168  1.2587 -0.9770
15382TIP3   OH246067   8.782   0.850   2.070 -0.1824  0.5230  0.5921
15382TIP3    H146068   8.821   0.771   2.032  1.9366  1.8205 -0.0091
15382TIP3    H246069   8.846   0.881   2.133 -0.9066  1.8740  0.6817
15383TIP3   OH246070   6.417   1.512   2.061 -0.4535 -0.6034 -0.2916
15383TIP3    H146071   6.325   1.489   2.047 -0.7090  0.1740  0.0905
15383TIP3    H246072   6.455   1.436   2.106 -0.6506 -1.3604 -1.3853
15384TIP3   OH246073   6.850   7.589   1.925 -1.2849  0.3119  0.1069
15384TIP3    H146074   6.853   7.550   2.012  0.0129 -0.7516 -0.4138
15384TIP3    H246075   6.908   7.665   1.931 -0.4354 -0.3131 -0.0917
15385TIP3   OH246076   6.286   0.884   1.545  0.4568  0.5148  0.1802
15385TIP3    H146077   6.258   0.939   1.471 -0.2263  0.6561  0.5372
15385TIP3    H246078   6.379   0.903   1.556  1.0940 -1.0855 -2.0233
15386TIP3   OH246079   3.098   7.661   2.142  0.1774 -0.2816 -0.5992
15386TIP3    H146080   3.159   7.588   2.158 -0.2863 -0.8463 -1.3888
15386TIP3    H246081   3.011   7.620   2.143 -0.0891  0.2709 -1.0061
15387TIP3   OH246082   2.669   6.940   2.175 -0.0800  0.1307  0.0466
15387TIP3    H146083   2.733   7.003   2.142  0.1401  0.0279  0.2759
15387TIP3    H246084   2.714   6.855   2.168  0.8370  0.3579  2.7817
15388TIP3   OH246085   7.354   0.321   1.587 -0.2343 -0.0213 -0.0595
15388TIP3    H146086   7.446   0.298   1.604  0.1079  1.2580 -0.0884
15388TIP3    H246087   7.359   0.408   1.546 -1.3967 -0.4498 -1.1080
15389TIP3   OH246088   5.694   5.978   1.854 -0.0372 -0.1295  0.0890
15389TIP3    H146089   5.741   5.997   1.773 -1.6022  2.2233 -0.3202
15389TIP3    H246090   5.759   5.986   1.923  0.6932  0.6056 -0.6806
15390TIP3   OH246091   6.124   1.227   0.826  0.1487 -0.1603 -0.4298
15390TIP3    H146092   6.120   1.254   0.735  1.6247 -0.7707 -0.7008
15390TIP3    H246093   6.184   1.152   0.826 -0.1714 -0.4373  0.9699
15391TIP3   OH246094   7.939   1.243   3.156 -0.2969 -0.2811 -0.2688
15391TIP3    H146095   7.928   1.329   3.117 -0.7016  0.5351  1.5803
15391TIP3    H246096   7.874   1.240   3.226  0.7411 -1.4956  0.6688
15392TIP3   OH246097   6.930   1.104   2.133 -0.8263  0.7988  0.2506
15392TIP3    H146098   6.945   1.102   2.039 -0.5041  1.3598  0.2863
15392TIP3    H246099   6.966   1.022   2.165 -2.9313 -0.4118 -0.3976
15393TIP3   OH246100   0.730   2.108   1.446 -0.0223  0.1883 -0.6435
15393TIP3    H146101   0.746   2.158   1.526  0.3488  0.4460 -0.8781
15393TIP3    H246102   0.816   2.096   1.407 -0.2637  0.5671 -1.3075
15394TIP3   OH246103   7.178   7.840   0.741  0.2131 -0.0337  0.0061
15394TIP3    H146104   7.160   7.766   0.682  0.0385 -0.4249  0.5392
15394TIP3    H246105   7.106   7.837   0.805  1.5992 -0.9745  1.5590
15395TIP3   OH246106   6.627   7.957   1.470  0.1511  0.7906  0.2170
15395TIP3    H146107   6.630   7.929   1.562 -0.3338  0.5484  0.1610
15395TIP3    H246108   6.567   8.032   1.471 -0.3221  0.4168  0.0025
15396TIP3   OH246109   0.457   0.895   1.819  0.7256  0.5850 -0.2855
15396TIP3    H146110   0.408   0.974   1.841  0.3273 -0.3796  2.4685
15396TIP3    H246111   0.390   0.830   1.796  0.9241  0.3335 -0.1570
15397TIP3   OH246112   7.206   1.012   2.343  0.0899 -0.3036  0.2586
15397TIP3    H146113   7.245   1.085   2.296 -0.7801  0.1929  0.2992
15397TIP3    H246114   7.233   1.025   2.434 -1.2679  0.8067  0.5293
15398TIP3   OH246115   1.040   0.265   1.204 -0.0913 -0.0173  0.0799
15398TIP3    H146116   1.054   0.172   1.222 -0.2018 -0.0654 -0.0780
15398TIP3    H246117   0.948   0.270   1.180 -0.7181  0.5045  2.4671
15399TIP3   OH246118   7.566   1.415   2.797 -0.4771  0.4626  0.1499
15399TIP3    H146119   7.502   1.403   2.726 -1.7143  2.2677  0.9122
15399TIP3    H246120   7.630   1.477   2.761  0.5325 -0.8904 -0.4063
15400TIP3   OH246121   1.849   3.804   6.555  0.4597 -0.7692 -0.0115
15400TIP3    H146122   1.851   3.891   6.516 -0.2350 -0.4556  0.6642
15400TIP3    H246123   1.938   3.770   6.542  0.2241 -0.6996 -1.9408
15401TIP3   OH246124   0.336   1.355   0.279  0.1141  0.0617 -0.2272
15401TIP3    H146125   0.253   1.393   0.251 -0.4185 -1.1798 -0.3544
15401TIP3    H246126   0.317   1.262   0.292  1.0618  0.0710  1.4114
15402TIP3   OH246127   0.056   0.899   0.122 -0.0589 -0.2705  0.4298
15402TIP3    H146128  -0.009   0.871   0.058  1.0191 -1.7709 -0.0217
15402TIP3    H246129   0.055   0.995   0.116  0.8025 -0.4181 -2.6056
15403TIP3   OH246130   0.543   1.575   1.739 -0.0907  0.0483  0.0321
15403TIP3    H146131   0.491   1.507   1.696 -3.3352  2.7298 -0.5333
15403TIP3    H246132   0.592   1.616   1.667  0.5473 -0.5695  0.1122
15404TIP3   OH246133   2.091   1.456   1.015  0.3273 -0.3125 -0.6710
15404TIP3    H146134   2.109   1.362   1.009 -0.4541 -0.4302 -1.2465
15404TIP3    H246135   1.997   1.462   1.027  0.5302  0.3649  0.5935
15405TIP3   OH246136   8.208   1.493   1.480  0.4082 -0.6423 -0.3032
15405TIP3    H146137   8.210   1.431   1.552 -0.8092 -0.4999 -0.1387
15405TIP3    H246138   8.159   1.568   1.514 -0.8022 -0.8675 -1.4867
15406TIP3   OH246139   4.220   7.932   1.326  0.0957 -0.1387  0.4290
15406TIP3    H146140   4.200   7.942   1.233  1.1038 -0.2156  0.2044
15406TIP3    H246141   4.217   7.837   1.342 -1.1731 -0.0614  0.7273
15407TIP3   OH246142   0.441   0.131   1.311 -0.1402 -0.7581  0.0010
15407TIP3    H146143   0.416   0.049   1.353 -0.0652 -1.1533 -0.7157
15407TIP3    H246144   0.488   0.105   1.232  1.6719 -0.0179  0.8059
15408TIP3   OH246145   8.402   0.107   1.468 -0.0036 -0.1748 -0.1187
15408TIP3    H146146   8.307   0.100   1.470  0.0346 -0.4183  2.6271
15408TIP3    H246147   8.431   0.030   1.419 -1.1970 -0.0793 -1.0072
15409TIP3   OH246148   5.582   1.254   2.768 -0.7819  0.2266 -0.8019
15409TIP3    H146149   5.502   1.202   2.757 -0.6730 -0.1172 -0.0056
15409TIP3    H246150   5.552   1.335   2.810 -0.4529 -0.7193  1.3133
15410TIP3   OH246151   3.132   1.799   3.516  0.1917 -0.7460  0.5311
15410TIP3    H146152   3.079   1.867   3.556 -0.7443 -0.4186 -1.2138
15410TIP3    H246153   3.080   1.769   3.441  1.3255 -2.2103  0.3054
15411TIP3   OH246154   7.851   5.848   2.591  0.2260 -0.5183 -0.0331
15411TIP3    H146155   7.813   5.783   2.531 -0.2161  0.4332 -0.7878
15411TIP3    H246156   7.822   5.932   2.557  2.6319  0.2284 -0.3873
15412TIP3   OH246157   8.787   6.980   2.184 -0.3419 -0.2160  0.6584
15412TIP3    H146158   8.808   6.896   2.225 -0.4261  0.6856  2.5849
15412TIP3    H246159   8.830   7.045   2.240 -1.5337  1.1238  0.0357
15413TIP3   OH246160   0.389   2.073   1.454 -0.3075  0.2945 -0.3971
15413TIP3    H146161   0.407   2.165   1.436 -1.7356  0.9830  1.4657
15413TIP3    H246162   0.336   2.043   1.380 -0.8315  1.3026 -0.4282
15414TIP3   OH246163   0.469   0.349   1.506  0.0054 -0.3048  0.6187
15414TIP3    H146164   0.451   0.263   1.470  1.4841 -0.3539 -0.0363
15414TIP3    H246165   0.499   0.332   1.595  2.5957 -0.6610 -0.2921
15415TIP3   OH246166   0.395   1.266   2.590  0.1403 -0.2919 -0.6659
15415TIP3    H146167   0.323   1.208   2.614 -0.2660  0.3078 -0.3953
15415TIP3    H246168   0.395   1.333   2.659  3.3959 -2.3856  1.5313
15416TIP3   OH246169   1.368   0.879   3.151  0.0012  0.6472 -0.0836
15416TIP3    H146170   1.331   0.895   3.238  3.0607  1.2501  1.1630
15416TIP3    H246171   1.374   0.784   3.145  1.6889  0.6341  1.2606
15417TIP3   OH246172   1.195   0.691   2.462 -0.1953  0.2450  0.0095
15417TIP3    H146173   1.150   0.626   2.515  0.3209  1.0224  1.4144
15417TIP3    H246174   1.272   0.645   2.427 -0.7373 -0.3683 -0.3925
15418TIP3   OH246175   1.997   0.758   2.125 -0.1873  0.5391  1.0478
15418TIP3    H146176   2.000   0.663   2.113  0.7895  0.5452  1.1307
15418TIP3    H246177   1.953   0.791   2.047 -0.5944  0.0147  1.0519
15419TIP3   OH246178   6.145   7.178   1.565  0.6723  0.4633  0.3758
15419TIP3    H146179   6.229   7.178   1.520  0.1407 -0.8622 -0.6478
15419TIP3    H246180   6.084   7.141   1.501 -0.2641 -0.6676  1.9020
15420TIP3   OH246181   6.508   8.323   1.796  0.5649  0.0593 -0.0801
15420TIP3    H146182   6.478   8.400   1.747  0.7136 -0.8855 -1.6700
15420TIP3    H246183   6.458   8.327   1.878 -1.0246  0.6738 -1.0470
15421TIP3   OH246184   1.738   2.814   3.606 -0.0528 -0.3704  0.4775
15421TIP3    H146185   1.688   2.753   3.662 -1.7641  0.3972 -0.1747
15421TIP3    H246186   1.798   2.858   3.667  0.9687 -2.4368  1.0176
15422TIP3   OH246187   1.312   4.515   6.801 -0.4342  0.2491 -0.1198
15422TIP3    H146188   1.297   4.426   6.771  2.5046 -0.6648  0.9281
15422TIP3    H246189   1.257   4.524   6.878  1.5569 -1.7654  1.5988
15423TIP3   OH246190   1.431   1.570   0.280  1.1585  0.0738 -0.6556
15423TIP3    H146191   1.406   1.478   0.270 -0.8080  0.3150  1.4769
15423TIP3    H246192   1.386   1.615   0.209 -0.8974 -0.1337  0.4745
15424TIP3   OH246193   1.393   1.844   1.236  0.7425  0.5428  0.1250
15424TIP3    H146194   1.421   1.864   1.146  0.2792 -0.7533 -0.3183
15424TIP3    H246195   1.433   1.760   1.255 -0.7332 -0.1053  0.4191
15425TIP3   OH246196   5.819   6.072   1.634 -0.1550 -0.2064  0.3561
15425TIP3    H146197   5.911   6.067   1.607 -0.1824 -1.0117  0.4031
15425TIP3    H246198   5.770   6.075   1.551 -0.0771  0.4975  0.3307
15426TIP3   OH246199   2.478   5.171   6.261 -0.1148  0.3912 -0.0054
15426TIP3    H146200   2.547   5.228   6.226  0.0134  0.6347  0.6307
15426TIP3    H246201   2.397   5.207   6.227  0.1253 -0.3768 -1.4210
15427TIP3   OH246202   1.748   0.629   2.365  0.2225  0.9809 -0.0399
15427TIP3    H146203   1.761   0.582   2.448 -0.6904  1.1668  0.2143
15427TIP3    H246204   1.788   0.573   2.299 -0.6752 -0.0679  0.2868
15428TIP3   OH246205   1.870   2.815   2.163  0.1421  0.0602 -0.1631
15428TIP3    H146206   1.962   2.794   2.178  0.6910  0.7699 -2.3595
15428TIP3    H246207   1.870   2.906   2.135 -1.1599 -0.1546 -0.9198
15429TIP3   OH246208   1.670   0.317   1.395  0.0991 -1.1479  0.2589
15429TIP3    H146209   1.700   0.235   1.355  0.2581 -1.3078  0.7116
15429TIP3    H246210   1.741   0.342   1.454 -0.1611 -0.9311  0.4791
15430TIP3   OH246211   4.404   4.221   6.694 -0.1186  0.2596 -0.1585
15430TIP3    H146212   4.368   4.289   6.638  0.1105  0.0494 -0.5562
15430TIP3    H246213   4.391   4.140   6.645  0.0573  0.0734  0.1015
15431TIP3   OH246214   0.456   0.766   2.156 -0.2290 -0.4680 -0.2386
15431TIP3    H146215   0.531   0.771   2.098 -0.6817 -1.3174 -0.9124
15431TIP3    H246216   0.411   0.850   2.147  2.4200  1.3998  2.6562
15432TIP3   OH246217   3.466   5.186   7.148 -0.4801  0.3990  0.1655
15432TIP3    H146218   3.488   5.195   7.241 -0.0685  1.5318 -0.0397
15432TIP3    H246219   3.381   5.143   7.149 -0.9431  1.3007  1.1021
15433TIP3   OH246220   1.272   2.039   1.404 -0.3039 -0.4743  0.1574
15433TIP3    H146221   1.301   1.955   1.367  0.3269 -0.8729  1.5270
15433TIP3    H246222   1.193   2.017   1.454  0.4327 -0.4412  1.3523
15434TIP3   OH246223   0.494   2.421   2.187 -0.6491  0.1934  0.2809
15434TIP3    H146224   0.398   2.420   2.187 -0.6658  1.1853  0.6903
15434TIP3    H246225   0.518   2.460   2.103 -0.6297  0.7777  0.5504
15435TIP3   OH246226   8.336   1.691   2.485 -0.1203  0.7425  0.2867
15435TIP3    H146227   8.310   1.782   2.475 -1.1564  0.6251  1.8095
15435TIP3    H246228   8.372   1.685   2.574 -0.0626 -0.3333  0.2064
15436TIP3   OH246229   0.157   1.168   2.711  0.7832  0.0276  0.7774
15436TIP3    H146230   0.121   1.080   2.711 -1.1264  0.7703 -0.6548
15436TIP3    H246231   0.086   1.223   2.746  2.0735  0.9658  1.9961
15437TIP3   OH246232   0.594   2.762   0.722 -0.1953  0.0311  0.0002
15437TIP3    H146233   0.531   2.831   0.744  0.2202  0.1484  0.8505
15437TIP3    H246234   0.605   2.712   0.803 -2.2203 -2.4724 -1.2313
15438TIP3   OH246235   7.650   7.340   1.816  0.7010 -0.6611  0.0119
15438TIP3    H146236   7.736   7.362   1.780  1.5379 -1.3729  1.5293
15438TIP3    H246237   7.610   7.425   1.837  0.4624 -0.2630 -1.9376
15439TIP3   OH246238   6.722   2.318   0.502 -0.3632 -0.3663 -0.0107
15439TIP3    H146239   6.690   2.245   0.555  0.0928 -1.8547 -1.7565
15439TIP3    H246240   6.814   2.328   0.529 -0.3564 -0.5978  0.0600
15440TIP3   OH246241   8.302   8.326   0.657  0.4500  0.3751  0.2906
15440TIP3    H146242   8.397   8.319   0.667  0.5133 -1.3657 -1.1379
15440TIP3    H246243   8.275   8.238   0.629 -1.3297  1.3474 -1.1476
15441TIP3   OH246244   1.480   1.779   1.722  0.0216 -0.3926  0.5355
15441TIP3    H146245   1.470   1.840   1.795 -0.1928 -0.0544  0.2301
15441TIP3    H246246   1.500   1.695   1.763 -0.6766 -0.3309  1.0088
15442TIP3   OH246247   1.221   1.469   1.659  0.0043  0.5291 -0.1554
15442TIP3    H146248   1.212   1.505   1.747  2.2099 -1.1571  0.8454
15442TIP3    H246249   1.295   1.517   1.621 -0.1935  0.4538 -0.6366
15443TIP3   OH246250   8.654   1.460   2.721  0.6698 -0.2087  0.0437
15443TIP3    H146251   8.623   1.548   2.739  1.3263 -0.0614  0.4957
15443TIP3    H246252   8.576   1.410   2.698  0.3153  0.5164 -0.3182
15444TIP3   OH246253   1.689   2.436   1.632  0.2656 -0.1737 -0.0940
15444TIP3    H146254   1.753   2.445   1.562  1.6283 -0.6449  1.0644
15444TIP3    H246255   1.707   2.510   1.690 -0.8464  0.2072 -0.2291
15445TIP3   OH246256   1.993   1.107   3.390 -0.0204  0.0877  0.4251
15445TIP3    H146257   1.958   1.033   3.439 -0.3332  0.2524  0.4520
15445TIP3    H246258   2.055   1.148   3.451  0.9996 -0.8084  0.0046
15446TIP3   OH246259   5.977   8.202   2.407 -0.2164 -0.0248 -0.6884
15446TIP3    H146260   5.946   8.136   2.344 -1.4922  1.9398 -2.1916
15446TIP3    H246261   5.898   8.249   2.432  0.7689  1.3642 -0.1470
15447TIP3   OH246262   7.084   1.833   2.229  0.3483 -0.0918 -0.1376
15447TIP3    H146263   7.025   1.810   2.301 -1.0968  0.5620 -1.1016
15447TIP3    H246264   7.053   1.780   2.155  0.9764  0.2407 -0.6381
15448TIP3   OH246265   5.824   8.320   0.934 -0.5047  0.4752  0.4536
15448TIP3    H146266   5.916   8.345   0.942 -0.1035 -1.1909  1.2162
15448TIP3    H246267   5.803   8.277   1.016 -1.8568  0.4408  0.1114
15449TIP3   OH246268   0.795   2.557   2.435  0.2080 -0.0460 -0.3425
15449TIP3    H146269   0.747   2.477   2.455 -0.1851  0.2075 -0.2630
15449TIP3    H246270   0.746   2.626   2.481  1.3336  0.0517  0.7517
15450TIP3   OH246271   1.347   1.070   2.645  0.1097 -0.3604 -0.1953
15450TIP3    H146272   1.300   1.049   2.725  0.7180 -0.1767  0.2179
15450TIP3    H246273   1.328   1.162   2.629  2.4175  0.4533  1.4357
15451TIP3   OH246274   1.786   1.049   0.882  0.4781 -0.4152  0.1716
15451TIP3    H146275   1.832   0.983   0.830 -1.6248 -0.4961 -1.6520
15451TIP3    H246276   1.694   1.025   0.876  0.0065  0.6237  2.4993
15452TIP3   OH246277   7.873   8.349   0.176  0.1243 -0.0287 -0.0057
15452TIP3    H146278   7.790   8.337   0.129 -0.2271 -0.4747  0.7127
15452TIP3    H246279   7.939   8.354   0.107 -0.7422  2.5216 -0.6809
15453TIP3   OH246280   1.294   0.563   0.301  0.0713 -0.5305 -0.1256
15453TIP3    H146281   1.276   0.634   0.240 -1.2641  0.3663  1.2768
15453TIP3    H246282   1.240   0.490   0.269 -0.0660 -0.2940 -0.4361
15454TIP3   OH246283   0.015   0.316   2.707 -0.1172  0.1194 -0.0217
15454TIP3    H146284   0.102   0.353   2.724 -0.4547  0.9101 -0.0230
15454TIP3    H246285   0.022   0.225   2.738  0.7287  0.1593 -0.0764
15455TIP3   OH246286   5.854   7.205   1.701  0.1581 -0.5621 -0.3696
15455TIP3    H146287   5.921   7.153   1.656 -1.5638 -2.5912 -0.6207
15455TIP3    H246288   5.790   7.224   1.633  0.0175  0.6231  0.0891
15456TIP3   OH246289   7.595   8.225   0.972  0.4158  0.8061  0.2387
15456TIP3    H146290   7.584   8.319   0.955  0.8057  1.4937  3.3612
15456TIP3    H246291   7.630   8.221   1.061  1.8433 -2.2719 -0.3932
15457TIP3   OH246292   7.571   6.789   1.409 -0.1128  0.2057 -0.4271
15457TIP3    H146293   7.514   6.852   1.365 -1.5822 -1.3428 -0.8067
15457TIP3    H246294   7.568   6.815   1.502  0.6268  1.6707 -0.7954
15458TIP3   OH246295   5.164   7.047   1.742 -0.2204  0.1377  0.4940
15458TIP3    H146296   5.197   7.135   1.760  1.4372 -0.6990  1.6709
15458TIP3    H246297   5.145   7.010   1.828 -1.1049 -0.5915 -0.0001
15459TIP3   OH246298   6.606   7.491   3.130  0.1883  0.5373  0.6042
15459TIP3    H146299   6.523   7.539   3.140 -0.9121 -1.4686  1.5091
15459TIP3    H246300   6.632   7.507   3.040 -0.8359  1.7851  0.5172
15460TIP3   OH246301   1.038   1.958   2.101  0.0574  0.3570  0.3593
15460TIP3    H146302   1.067   1.888   2.158 -0.8829 -0.2486  0.1149
15460TIP3    H246303   1.118   2.000   2.071  0.7415 -1.9213 -1.1428
15461TIP3   OH246304   0.521   0.309   2.819  0.3320  0.0273  0.4851
15461TIP3    H146305   0.552   0.383   2.766 -1.2411  0.8667  0.7326
15461TIP3    H246306   0.581   0.307   2.894  0.5316  0.8877  0.3555
15462TIP3   OH246307   8.588   6.647   1.351 -0.1088  0.7716  0.0945
15462TIP3    H146308   8.496   6.671   1.361 -0.5053  0.6669 -2.8986
15462TIP3    H246309   8.587   6.560   1.313  1.2532  0.7041  0.1833
15463TIP3   OH246310   2.131   2.573   1.804 -0.3884  0.1447 -0.3032
15463TIP3    H146311   2.212   2.525   1.788 -0.7402 -0.5804  0.1045
15463TIP3    H246312   2.092   2.531   1.880 -0.3450  1.5237  0.4995
15464TIP3   OH246313   5.611   8.100   0.897 -0.8475  0.5307  0.3172
15464TIP3    H146314   5.599   8.177   0.842  1.1070 -0.0609 -0.9807
15464TIP3    H246315   5.684   8.053   0.858 -1.9142 -1.9462  1.1601
15465TIP3   OH246316   0.848   0.268   2.287 -0.3138 -0.3547 -0.4808
15465TIP3    H146317   0.765   0.308   2.313 -0.4938 -0.5338 -0.7769
15465TIP3    H246318   0.822   0.187   2.242  0.0264 -0.5041 -0.4090
15466TIP3   OH246319   4.586   4.724   6.993 -0.2366 -0.1307 -0.0437
15466TIP3    H146320   4.534   4.689   6.921 -1.4414 -0.6086  1.0403
15466TIP3    H246321   4.540   4.695   7.072  0.5868  1.1096  0.9070
15467TIP3   OH246322   6.656   1.876   2.397  0.0816 -0.3912  0.6009
15467TIP3    H146323   6.583   1.853   2.455 -1.0283  1.4918  0.0217
15467TIP3    H246324   6.686   1.961   2.430  0.0224  0.2690 -1.0290
15468TIP3   OH246325   0.360   1.043   0.872 -0.0378 -0.3552 -0.2941
15468TIP3    H146326   0.370   1.133   0.841  1.5597 -0.1884  0.6732
15468TIP3    H246327   0.265   1.030   0.875 -0.2868  1.2336 -0.6016
15469TIP3   OH246328   6.167   8.329   1.885 -0.0646 -0.6678 -0.0495
15469TIP3    H146329   6.232   8.362   1.946 -1.6357  2.2925  0.1271
15469TIP3    H246330   6.192   8.366   1.800  0.6687 -2.7035 -0.7605
15470TIP3   OH246331   7.660   6.223   1.250 -0.1165  0.5229 -0.5619
15470TIP3    H146332   7.676   6.313   1.223  0.1048  0.6679  0.0512
15470TIP3    H246333   7.568   6.221   1.274 -0.0089  0.6984 -0.1349
15471TIP3   OH246334   7.240   7.067   0.886 -0.0919 -0.4769 -0.2187
15471TIP3    H146335   7.235   7.131   0.957  1.5951  0.1112 -0.6141
15471TIP3    H246336   7.174   7.001   0.909  1.5237 -1.1541  2.7802
15472TIP3   OH246337   0.197   2.543   0.902  0.0579  0.3036  0.1633
15472TIP3    H146338   0.121   2.505   0.858 -0.4082 -0.7909  1.8639
15472TIP3    H246339   0.163   2.576   0.985  0.8979  2.4744 -0.3250
15473TIP3   OH246340   5.736   7.463   5.281 -0.6277 -0.2304  0.0234
15473TIP3    H146341   5.785   7.385   5.257  0.6745  0.5736 -0.0299
15473TIP3    H246342   5.718   7.507   5.198 -1.7439 -0.6915  0.0166
15474TIP3   OH246343   7.475   7.278   2.432  0.1045 -0.2888 -0.1865
15474TIP3    H146344   7.427   7.267   2.350 -0.8290 -0.0543  0.3294
15474TIP3    H246345   7.562   7.241   2.414 -0.6523 -1.8247 -0.7280
15475TIP3   OH246346   8.288   8.114   0.988 -0.0596  0.3742  0.2757
15475TIP3    H146347   8.357   8.067   0.941 -2.1097  0.0464 -2.4958
15475TIP3    H246348   8.251   8.048   1.047 -1.1595 -0.8204 -1.6975
15476TIP3   OH246349   2.286   1.987   2.615  0.0372 -1.0672 -0.3636
15476TIP3    H146350   2.284   1.899   2.654  0.1928 -0.6205  0.6674
15476TIP3    H246351   2.200   2.024   2.635 -0.1059 -1.0589 -0.9859
15477TIP3   OH246352   8.087   0.466   0.911  0.0229 -0.0377  0.4191
15477TIP3    H146353   8.173   0.501   0.889 -0.0499  0.6185  1.1330
15477TIP3    H246354   8.085   0.468   1.007 -0.1911 -1.5006  0.4561
15478TIP3   OH246355   0.627   2.606   0.940 -0.2146 -0.0332 -0.0516
15478TIP3    H146356   0.635   2.624   1.034  1.8688 -0.9282 -0.0402
15478TIP3    H246357   0.558   2.540   0.935 -1.7658  1.5004  0.6504
15479TIP3   OH246358   6.029   4.476   6.999 -0.4794  0.3707 -0.4194
15479TIP3    H146359   6.031   4.487   7.094  0.9376 -0.4588 -0.3381
15479TIP3    H246360   5.971   4.401   6.985  0.8656 -0.7426 -0.0726
15480TIP3   OH246361   1.160   0.394   3.417  0.3632  0.2491 -0.9387
15480TIP3    H146362   1.066   0.384   3.406  0.4632 -1.1684 -0.6301
15480TIP3    H246363   1.173   0.488   3.431 -1.2016  0.2336  0.7756
15481TIP3   OH246364   2.233   0.021   0.143  0.0879 -0.0879 -0.5955
15481TIP3    H146365   2.311  -0.033   0.148 -0.5653 -0.9684  0.1412
15481TIP3    H246366   2.208   0.038   0.234  0.5094  1.7942 -0.7995
15482TIP3   OH246367   8.110   0.186   1.471  0.0824 -0.0354  0.4861
15482TIP3    H146368   8.147   0.144   1.394 -0.2848 -2.9373  1.8424
15482TIP3    H246369   8.131   0.279   1.460  0.0991 -0.3845 -3.0464
15483TIP3   OH246370   4.985   8.042   2.548  0.0442 -0.2863  0.0766
15483TIP3    H146371   5.019   8.107   2.487 -1.1072  1.4438  1.2240
15483TIP3    H246372   5.035   8.056   2.628 -1.9285  0.9368  1.1326
15484TIP3   OH246373   7.133   1.022   0.546 -0.7680  0.1880 -0.3909
15484TIP3    H146374   7.125   1.107   0.591 -1.3575 -0.1341  0.1231
15484TIP3    H246375   7.052   0.976   0.568 -0.4584 -0.5016 -0.6904
15485TIP3   OH246376   0.813   6.818   0.047  0.5594 -0.3948 -0.2993
15485TIP3    H146377   0.850   6.800   0.133 -0.3761 -0.0716  0.1843
15485TIP3    H246378   0.796   6.731   0.009  1.0607 -0.5372 -0.1992
15486TIP3   OH246379   0.455   2.519   4.026  0.0787  0.3887 -0.4681
15486TIP3    H146380   0.394   2.504   3.954  0.6165 -1.1778 -0.6112
15486TIP3    H246381   0.429   2.605   4.062 -3.2985 -0.9576  0.5276
15487TIP3   OH246382   2.039   0.161   2.187 -0.2408 -0.3775  0.0155
15487TIP3    H146383   2.040   0.128   2.277 -2.3904 -0.5635 -0.0044
15487TIP3    H246384   1.954   0.133   2.152  0.7063 -0.6419 -2.2054
15488TIP3   OH246385   4.496   5.921   7.165 -0.2734  0.0949  0.3440
15488TIP3    H146386   4.517   5.916   7.072 -2.1720  0.8955 -0.1486
15488TIP3    H246387   4.566   5.974   7.203 -0.9669  2.0932 -1.1198
15489TIP3   OH246388   6.302   0.011   0.414 -0.2154 -0.4475  0.0138
15489TIP3    H146389   6.239  -0.047   0.455  1.5519 -1.2885  1.5772
15489TIP3    H246390   6.300   0.091   0.467  1.6673 -1.3289  1.4529
15490TIP3   OH246391   8.647   1.067   0.195 -0.6857  0.5179  0.2710
15490TIP3    H146392   8.575   1.072   0.132 -1.1366 -0.0092  0.7236
15490TIP3    H246393   8.726   1.067   0.142 -1.1192 -2.2935 -0.4619
15491TIP3   OH246394   1.530   0.659   3.589  0.5567 -0.0421  0.3282
15491TIP3    H146395   1.555   0.616   3.671  2.5309  0.3551 -0.0485
15491TIP3    H246396   1.506   0.748   3.615 -0.4060 -0.3972  0.6797
15492TIP3   OH246397   7.696   7.550   0.404  0.6540 -0.3463 -0.0987
15492TIP3    H146398   7.758   7.483   0.376 -1.2836 -1.7408 -1.1501
15492TIP3    H246399   7.687   7.536   0.499  0.7852 -1.1485 -0.2010
15493TIP3   OH246400   8.588   0.662   1.478  0.3140 -0.1017  0.5344
15493TIP3    H146401   8.497   0.636   1.494  0.7026 -0.9605  1.3963
15493TIP3    H246402   8.595   0.750   1.515 -0.2496  0.1007  0.1678
15494TIP3   OH246403   6.615   7.781   1.983  0.5190  0.4571  0.5560
15494TIP3    H146404   6.702   7.742   1.991 -0.0781 -0.7444  1.4015
15494TIP3    H246405   6.555   7.712   2.010 -0.8938  0.3911 -2.5413
15495TIP3   OH246406   8.012   0.172   0.312  0.1380  0.4733 -0.3609
15495TIP3    H146407   7.976   0.133   0.391 -0.3327  0.0473 -0.7900
15495TIP3    H246408   7.944   0.162   0.246  0.4654  0.9732 -0.7820
15496TIP3   OH246409   0.975   2.129   0.300 -0.3752 -0.3432 -0.2000
15496TIP3    H146410   1.034   2.111   0.226 -0.2213 -1.1909  0.1210
15496TIP3    H246411   0.888   2.134   0.260  0.0257  2.1432 -0.8599
15497TIP3   OH246412   8.859   6.703   3.190  1.2269  0.4526  0.2672
15497TIP3    H146413   8.835   6.711   3.282  1.8835  0.9600  0.4011
15497TIP3    H246414   8.897   6.789   3.167 -2.1525  1.5641 -1.4439
15498TIP3   OH246415   1.130   0.161   2.188  0.2547  0.4597  0.2429
15498TIP3    H146416   1.069   0.108   2.238 -1.0653 -0.8027 -2.5986
15498TIP3    H246417   1.075   0.222   2.139  1.1989 -0.6957 -2.3509
15499TIP3   OH246418   7.304   8.184   1.000 -0.7116 -0.3185 -0.2155
15499TIP3    H146419   7.388   8.227   0.984 -1.1334  0.9478  0.9088
15499TIP3    H246420   7.288   8.132   0.921  0.0093  1.2466 -1.4057
15500TIP3   OH246421   7.325   6.540   0.203 -0.4345 -0.0170 -0.0239
15500TIP3    H146422   7.315   6.568   0.294  0.1920  0.2503 -0.0357
15500TIP3    H246423   7.281   6.455   0.200 -0.2836 -0.1208  0.5818
15501TIP3   OH246424   8.552   7.052   0.846 -0.6773 -0.1159  0.3464
15501TIP3    H146425   8.646   7.068   0.851 -0.9027  1.0784  0.8666
15501TIP3    H246426   8.533   6.994   0.920  0.0300 -2.3202 -1.1539
15502TIP3   OH246427   7.723   1.907   1.661 -0.0696 -0.5827  0.0250
15502TIP3    H146428   7.660   1.882   1.593  0.2042 -0.4067 -0.2974
15502TIP3    H246429   7.796   1.947   1.613 -0.2399  0.2991  0.4960
15503TIP3   OH246430   5.311   7.415   1.208 -0.2049  0.4922  0.0985
15503TIP3    H146431   5.239   7.473   1.233  0.1895  0.3042  1.7455
15503TIP3    H246432   5.275   7.327   1.219  0.4708  0.3843  1.6338
15504TIP3   OH246433   7.593   8.159   1.892 -0.2032  0.0978  0.0314
15504TIP3    H146434   7.595   8.146   1.797  0.1438 -0.6623  0.1459
15504TIP3    H246435   7.506   8.196   1.908 -0.5727 -0.5269 -0.4825
15505TIP3   OH246436   8.153   7.561   0.581 -0.4956 -0.0672  0.3079
15505TIP3    H146437   8.134   7.484   0.529 -2.2181  0.2873  0.3821
15505TIP3    H246438   8.081   7.566   0.644  0.2296  0.9245  1.0831
15506TIP3   OH246439   4.341   5.383   6.644 -0.3944 -0.2417  0.1895
15506TIP3    H146440   4.353   5.437   6.566  2.6680 -1.0647  0.0314
15506TIP3    H246441   4.315   5.297   6.610 -1.1249 -0.0343  0.2106
15507TIP3   OH246442   2.633   0.784   3.224 -0.2285  0.0729  0.1866
15507TIP3    H146443   2.607   0.856   3.282 -0.8942 -1.0566  1.3465
15507TIP3    H246444   2.722   0.805   3.197 -0.4989  1.4346  0.3394
15508TIP3   OH246445   8.334   0.589   1.555  0.1719 -0.1352 -0.3118
15508TIP3    H146446   8.336   0.569   1.648 -1.7580  1.3923  0.0831
15508TIP3    H246447   8.245   0.567   1.527  0.5168  0.0805 -1.6356
15509TIP3   OH246448   7.610   2.479   1.541  0.1852  0.0201  0.2735
15509TIP3    H146449   7.572   2.555   1.495 -3.2900 -2.7885 -1.7677
15509TIP3    H246450   7.615   2.507   1.632 -1.2548  2.6334 -0.3716
15510TIP3   OH246451   0.307   0.182   0.446 -0.2556  0.4545 -0.2848
15510TIP3    H146452   0.375   0.177   0.379  0.4246  1.9872  0.2715
15510TIP3    H246453   0.248   0.251   0.416 -1.0265 -0.1876 -0.2676
15511TIP3   OH246454   2.544   2.721   1.321 -1.0677  0.0428 -0.0895
15511TIP3    H146455   2.575   2.657   1.385 -0.5220  0.2029 -0.1944
15511TIP3    H246456   2.494   2.670   1.258 -0.8323 -0.2481 -0.0435
15512TIP3   OH246457   0.647   0.404   0.001 -0.0142  0.7289  0.2822
15512TIP3    H146458   0.713   0.395   0.069  0.2440  0.1552 -0.0414
15512TIP3    H246459   0.594   0.324   0.008 -1.3905  1.6988  1.2950
15513TIP3   OH246460   8.180   0.214   0.108 -0.3958  0.6378  0.0684
15513TIP3    H146461   8.147   0.213   0.198 -0.8567  0.8784 -0.0937
15513TIP3    H246462   8.188   0.307   0.087 -1.3103  0.5931 -0.5044
15514TIP3   OH246463   7.649   7.430   3.389  0.0914 -0.4245 -0.2064
15514TIP3    H146464   7.728   7.483   3.404  0.5017 -0.2674 -2.8133
15514TIP3    H246465   7.671   7.375   3.314 -1.6945 -1.6057  0.1153
15515TIP3   OH246466   6.995   7.819   1.502 -1.0083  0.1982 -0.3518
15515TIP3    H146467   7.057   7.758   1.462 -1.6191 -0.3553 -0.4654
15515TIP3    H246468   6.947   7.766   1.565 -0.1707  1.0239  1.0076
15516TIP3   OH246469   3.695   5.824   6.314 -0.1503  0.3377  0.3920
15516TIP3    H146470   3.629   5.867   6.368  0.5151 -0.2338  1.6926
15516TIP3    H246471   3.717   5.745   6.362  0.0998 -0.4471 -0.9835
15517TIP3   OH246472   7.376   7.674   0.282  0.5271  0.2707  0.2978
15517TIP3    H146473   7.459   7.671   0.330  0.5754 -1.5062  0.1198
15517TIP3    H246474   7.403   7.684   0.190  0.6394 -2.2058  0.0248
15518TIP3   OH246475   7.554   7.107   1.441  0.1290 -0.0275 -0.0430
15518TIP3    H146476   7.569   7.037   1.505  0.4707  0.7788  0.7663
15518TIP3    H246477   7.467   7.141   1.463  0.0583 -0.0458 -0.2922
15519TIP3   OH246478   2.293   4.668   7.238  0.1200 -0.3377  0.1086
15519TIP3    H146479   2.225   4.722   7.279  0.1039  0.0578 -0.4210
15519TIP3    H246480   2.372   4.722   7.243  0.6613 -1.2703  1.7572
15520TIP3   OH246481   8.774   2.355   1.635 -0.5342  0.4121 -0.0222
15520TIP3    H146482   8.704   2.411   1.602 -2.0442 -1.3875  0.0619
15520TIP3    H246483   8.772   2.278   1.579  1.3568  0.3165  0.0142
15521TIP3   OH246484   6.627   7.515   1.729 -0.2573  0.2013  0.1678
15521TIP3    H146485   6.647   7.423   1.713 -0.8458  0.0830  0.1075
15521TIP3    H246486   6.699   7.545   1.785  0.6596  0.0706 -0.9174
15522TIP3   OH246487   0.506   2.129   2.172  0.2279  0.8026  0.0542
15522TIP3    H146488   0.562   2.075   2.229 -0.2967 -0.4098 -0.5647
15522TIP3    H246489   0.532   2.219   2.193  0.4221  0.3674  1.8208
15523TIP3   OH246490   2.223   2.315   0.993 -0.0911  0.0339 -0.0090
15523TIP3    H146491   2.191   2.227   0.976  1.3999 -0.9999  2.2775
15523TIP3    H246492   2.147   2.364   1.023 -0.3341 -1.2741  1.5086
15524TIP3   OH246493   0.123   0.416   0.949  0.2254 -0.4218 -0.2238
15524TIP3    H146494   0.157   0.453   1.030  0.3816 -0.6083 -0.2037
15524TIP3    H246495   0.088   0.330   0.974  0.3039 -0.4933 -0.3594
15525TIP3   OH246496   1.621   1.040   3.622 -0.4582  0.0931  0.2177
15525TIP3    H146497   1.538   0.996   3.644 -0.1261  0.0165  1.2977
15525TIP3    H246498   1.598   1.133   3.615 -0.6589  0.0542  0.3684
15526TIP3   OH246499   1.070   1.754   3.048 -0.1885  0.1383  0.5000
15526TIP3    H146500   1.051   1.787   3.136 -2.5712  1.2880 -0.4251
15526TIP3    H246501   1.071   1.659   3.058 -0.6004  0.2567  1.7334
15527TIP3   OH246502   0.418   2.928   0.839  0.2315  0.4109  0.2518
15527TIP3    H146503   0.392   3.017   0.814 -0.1267 -0.1330 -1.3594
15527TIP3    H246504   0.453   2.937   0.928  0.5418  2.2220 -0.0400
15528TIP3   OH246505   1.792   1.430   1.145 -0.0991  0.0626 -0.0701
15528TIP3    H146506   1.782   1.432   1.050 -1.9500  2.2231  0.1190
15528TIP3    H246507   1.814   1.521   1.168  0.0965 -0.3942  1.5837
15529TIP3   OH246508   4.291   5.948   6.885  0.3430 -0.0535  0.3763
15529TIP3    H146509   4.235   5.871   6.876  0.3820  0.0000 -0.4337
15529TIP3    H246510   4.380   5.915   6.876  0.2939  0.3093 -1.9029
15530TIP3   OH246511   4.679   7.578   0.110  0.3759 -0.2610  0.2591
15530TIP3    H146512   4.762   7.550   0.150  0.3006 -0.6283  0.1623
15530TIP3    H246513   4.704   7.614   0.025  0.5332  0.4924  0.6251
15531TIP3   OH246514   1.531   0.990   0.850 -0.6525 -0.1939  0.1272
15531TIP3    H146515   1.490   1.012   0.766 -2.0076  0.0142  0.8275
15531TIP3    H246516   1.481   1.039   0.915  0.3126 -0.4421  1.0792
15532TIP3   OH246517   8.382   6.174   0.347  0.0181  0.0235 -0.1710
15532TIP3    H146518   8.434   6.255   0.346 -0.8971  0.6234 -1.5055
15532TIP3    H246519   8.309   6.192   0.406 -0.7776  0.5790 -1.3014
15533TIP3   OH246520   0.375   1.187   1.797  0.3416 -0.0591  0.8798
15533TIP3    H146521   0.325   1.261   1.830  0.5413  0.6530 -0.3802
15533TIP3    H246522   0.309   1.125   1.765  0.2328  1.5803 -2.2852
15534TIP3   OH246523   3.756   0.681   2.368 -0.1363 -0.0095 -0.3130
15534TIP3    H146524   3.834   0.736   2.377 -0.7772  0.4605  2.8124
15534TIP3    H246525   3.767   0.613   2.434 -1.8760 -0.5766 -0.5736
15535TIP3   OH246526   1.836   0.039   0.714 -0.2543 -0.3474  0.2424
15535TIP3    H146527   1.896   0.063   0.784  1.6567  2.2175 -2.1317
15535TIP3    H246528   1.766   0.104   0.719  0.1446  0.1512 -0.4902
15536TIP3   OH246529   7.962   8.094   1.727 -0.4211  0.4417 -0.2619
15536TIP3    H146530   7.875   8.125   1.702 -0.6016 -0.0482 -0.2616
15536TIP3    H246531   7.998   8.163   1.783 -0.5433  0.9476 -0.8054
15537TIP3   OH246532   2.091   0.550   0.384  0.4353  0.3488 -0.0456
15537TIP3    H146533   2.117   0.531   0.474 -0.6855 -0.8749  0.0288
15537TIP3    H246534   2.145   0.492   0.330  0.1661  0.1258 -0.0777
15538TIP3   OH246535   1.622   0.078   2.919 -0.1032 -0.1489 -0.0358
15538TIP3    H146536   1.583   0.116   2.841 -2.4962 -1.0988  0.6616
15538TIP3    H246537   1.647  -0.011   2.894 -1.7455 -0.7820  0.5176
15539TIP3   OH246538   3.462   1.375   1.367 -0.0665 -0.7619  0.2302
15539TIP3    H146539   3.439   1.451   1.313  0.2482 -0.4465  0.5361
15539TIP3    H246540   3.412   1.388   1.448 -0.7515 -1.3737 -0.0822
15540TIP3   OH246541   8.161   7.832   0.482  0.5906  0.5969  0.1575
15540TIP3    H146542   8.067   7.818   0.493  0.5348 -0.2521 -1.3370
15540TIP3    H246543   8.202   7.765   0.537  0.3119  0.4412  0.1757
15541TIP3   OH246544   0.283   0.730   3.038 -0.3056  0.4618  0.4622
15541TIP3    H146545   0.325   0.731   2.952 -1.3160  0.1017 -0.0468
15541TIP3    H246546   0.284   0.822   3.066 -0.8186  0.7280 -0.3596
15542TIP3   OH246547   6.945   7.838   0.883 -0.2987  0.1673  0.1758
15542TIP3    H146548   6.856   7.803   0.881 -0.1302 -0.2293 -0.7444
15542TIP3    H246549   6.942   7.908   0.948 -1.2278  0.0181  0.3002
15543TIP3   OH246550   5.198   5.109   6.849 -0.1621  0.3480 -0.6343
15543TIP3    H146551   5.275   5.162   6.872 -0.6737  1.1908 -0.8332
15543TIP3    H246552   5.187   5.050   6.923  0.2800  0.6809 -0.2963
15544TIP3   OH246553   7.677   2.448   0.054  0.0440  0.2323 -0.7995
15544TIP3    H146554   7.716   2.383  -0.003 -2.9875  0.7195 -3.6062
15544TIP3    H246555   7.583   2.432   0.048 -0.5290  2.1492  1.8449
15545TIP3   OH246556   8.770   1.752   4.209  0.1138 -0.2503 -0.5850
15545TIP3    H146557   8.715   1.825   4.181  0.8299  0.3298 -0.5039
15545TIP3    H246558   8.852   1.793   4.236  0.2722 -1.0219  0.1368
15546TIP3   OH246559   5.305   7.441   1.775 -0.3835 -0.1555 -0.2679
15546TIP3    H146560   5.242   7.469   1.707 -0.4005 -0.1308 -0.2419
15546TIP3    H246561   5.250   7.408   1.846 -0.3433 -1.2717 -0.7473
15547TIP3   OH246562   1.884   0.486   1.214  0.4415 -0.2585 -0.4464
15547TIP3    H146563   1.843   0.573   1.217  2.6250  0.8786 -1.5894
15547TIP3    H246564   1.898   0.463   1.306 -1.4032 -0.0182 -0.0949
15548TIP3   OH246565   8.689   5.971   2.551 -0.2275  0.2874 -0.4859
15548TIP3    H146566   8.695   5.994   2.459 -1.8193  0.2837 -0.5987
15548TIP3    H246567   8.608   5.921   2.559  0.0645 -0.0070  0.8500
15549TIP3   OH246568   4.116   5.618   6.926 -0.2771 -0.2400 -0.0128
15549TIP3    H146569   4.041   5.574   6.886 -0.6180 -0.0639  0.4279
15549TIP3    H246570   4.097   5.711   6.917 -0.3181 -0.1967  0.4832
15550TIP3   OH246571   0.454   2.527   1.213 -0.1218  0.1154 -0.0225
15550TIP3    H146572   0.385   2.491   1.157  2.9240 -1.2515 -3.1930
15550TIP3    H246573   0.510   2.451   1.233  2.3692  1.7339 -0.5683
15551TIP3   OH246574   1.344   1.121   1.385  0.5424  0.1967  0.0099
15551TIP3    H146575   1.348   1.201   1.333 -0.4087 -0.2612 -0.7909
15551TIP3    H246576   1.303   1.147   1.467  0.2188  0.5271 -0.2570
15552TIP3   OH246577   7.776   3.775   1.852 -0.0390  0.8338 -0.1120
15552TIP3    H146578   7.865   3.790   1.883  1.3916  0.2778 -3.7165
15552TIP3    H246579   7.738   3.862   1.844  1.3257  1.2995 -1.6926
15553TIP3   OH246580   1.094   2.176   2.545 -0.2457  0.1465 -0.4047
15553TIP3    H146581   1.182   2.207   2.565 -0.2771 -0.2467  0.3152
15553TIP3    H246582   1.102   2.081   2.539 -0.3821  0.1913 -1.5359
15554TIP3   OH246583   8.308   0.469   2.998  0.0560 -0.5009 -0.2251
15554TIP3    H146584   8.281   0.486   2.908 -1.4389  1.5355  0.5680
15554TIP3    H246585   8.226   0.463   3.047  0.8540 -1.6504  0.9977
15555TIP3   OH246586   2.420   0.583   3.054 -0.0609  0.0535  0.8949
15555TIP3    H146587   2.426   0.623   2.967 -2.1802 -0.3245  0.5671
15555TIP3    H246588   2.380   0.498   3.039 -0.2745 -0.0875  2.2210
15556TIP3   OH246589   1.000   2.237   0.547  0.0133 -0.0330 -0.3658
15556TIP3    H146590   0.992   2.183   0.468  0.0242 -0.3631 -0.1447
15556TIP3    H246591   0.978   2.325   0.518  1.4833  0.1157 -1.0651
15557TIP3   OH246592   0.492   1.305   3.067  0.1684  0.1363  0.4130
15557TIP3    H146593   0.556   1.292   2.997 -1.7447  2.9938 -2.0405
15557TIP3    H246594   0.435   1.229   3.062  1.0416 -0.5077  0.0080
15558TIP3   OH246595   1.185   0.026   2.582  0.0037  0.0354 -0.0284
15558TIP3    H146596   1.105   0.016   2.530 -0.2999 -0.0520  0.4479
15558TIP3    H246597   1.165   0.095   2.645  0.0714 -0.4436  0.5269
15559TIP3   OH246598   5.028   7.684   0.500 -0.3627  0.1757  0.2009
15559TIP3    H146599   5.001   7.775   0.485 -0.8026  0.3167  1.7575
15559TIP3    H246600   4.948   7.639   0.526 -0.2023 -0.7449 -0.8270
15560TIP3   OH246601   1.793   1.225   1.536  0.2753 -0.2940 -0.2583
15560TIP3    H146602   1.739   1.274   1.598 -0.5603  0.7318 -1.7656
15560TIP3    H246603   1.873   1.205   1.586 -0.3271  0.5868  1.1213
15561TIP3   OH246604   2.487   0.345   0.808 -0.4262 -0.1777 -0.3970
15561TIP3    H146605   2.441   0.270   0.844 -0.3163 -0.2553 -0.4178
15561TIP3    H246606   2.440   0.421   0.842  0.8269 -0.2050  1.4615
15562TIP3   OH246607   1.289   1.581   2.501  0.4246 -0.2784 -0.2555
15562TIP3    H146608   1.355   1.605   2.565 -1.5869  0.2318  1.7205
15562TIP3    H246609   1.335   1.580   2.417  2.3623  2.5656  0.6897
15563TIP3   OH246610   0.941   0.269   1.973  0.2677  0.0162  0.6085
15563TIP3    H146611   0.874   0.326   2.010  0.4928  0.5608  0.1735
15563TIP3    H246612   0.893   0.208   1.917  0.2282  0.9588 -0.3871
15564TIP3   OH246613   7.060   7.632   0.614  0.3959  0.0347 -0.2337
15564TIP3    H146614   7.105   7.604   0.534 -0.0959 -1.6564  0.0684
15564TIP3    H246615   6.976   7.668   0.583  0.9245  0.9679 -0.6016
15565TIP3   OH246616   0.541   0.232   1.778  0.5072  0.5542 -0.2152
15565TIP3    H146617   0.544   0.294   1.851  0.9818  0.1484  0.1053
15565TIP3    H246618   0.455   0.247   1.738 -0.9613 -1.1639  2.1302
15566TIP3   OH246619   7.291   8.168   1.284  0.9004  0.5472 -0.1807
15566TIP3    H146620   7.289   8.263   1.293  0.0441  0.4724  0.4681
15566TIP3    H246621   7.287   8.152   1.190  0.4493  1.1313 -0.2599
15567TIP3   OH246622   5.159   7.783   2.490  0.0650  0.6478  0.4392
15567TIP3    H146623   5.112   7.703   2.470 -0.0097 -0.2048  3.6893
15567TIP3    H246624   5.090   7.849   2.501  0.1273  1.2021 -2.2235
15568TIP3   OH246625   7.246   8.045   0.105  0.1093 -0.2167 -0.3548
15568TIP3    H146626   7.197   7.971   0.140 -0.2828  0.5180  0.6746
15568TIP3    H246627   7.327   8.047   0.156  0.1639  0.0028 -0.4462
15569TIP3   OH246628   3.191   5.749   6.924  0.5630 -0.5817  0.7403
15569TIP3    H146629   3.196   5.841   6.950  0.8178 -0.7237  1.1928
15569TIP3    H246630   3.108   5.719   6.960  0.5118 -0.5524  0.6499
15570TIP3   OH246631   5.690   4.562   6.443 -0.0886 -0.0887  0.5714
15570TIP3    H146632   5.662   4.508   6.369  2.2486 -1.2160  0.4695
15570TIP3    H246633   5.784   4.572   6.431 -0.0235  1.5407  2.2291
15571TIP3   OH246634   2.240   2.464   0.677  0.0402 -0.6108  0.3128
15571TIP3    H146635   2.311   2.442   0.737 -0.3029  0.0012  0.9515
15571TIP3    H246636   2.280   2.461   0.590  0.1058 -3.3435  0.3935
15572TIP3   OH246637   4.700   3.731   6.055 -0.0517  0.4376  0.4302
15572TIP3    H146638   4.707   3.824   6.035 -3.3931  0.5370 -0.5320
15572TIP3    H246639   4.680   3.728   6.148  1.4039  0.5886  0.7637
15573TIP3   OH246640   1.916   0.347   0.162 -0.0904 -0.9019 -0.1315
15573TIP3    H146641   1.884   0.385   0.080  0.9676  2.0808  0.7662
15573TIP3    H246642   2.001   0.309   0.140  0.8607  1.1736 -0.1632
15574TIP3   OH246643   4.602   5.022   6.896  0.0697  0.1082  0.6138
15574TIP3    H146644   4.679   5.009   6.840  0.8124  0.9880  1.4124
15574TIP3    H246645   4.601   4.946   6.953  0.7328  0.4082  1.0330
15575TIP3   OH246646   6.035   5.620   6.299 -0.1489  0.1951  0.3938
15575TIP3    H146647   6.041   5.530   6.267 -0.9065  0.2585  0.0556
15575TIP3    H246648   6.052   5.613   6.392  2.9939  0.1238 -0.1319
15576TIP3   OH246649   7.042   7.243   0.677 -0.3615  0.2007 -0.2844
15576TIP3    H146650   7.018   7.259   0.586 -0.0308 -1.6604 -0.7032
15576TIP3    H246651   7.138   7.250   0.677 -0.5601  3.8554  0.6565
15577TIP3   OH246652   8.746   1.870   0.906  0.2479  0.1378 -0.5538
15577TIP3    H146653   8.658   1.894   0.878 -0.6214 -2.7940 -0.4492
15577TIP3    H246654   8.742   1.868   1.001  0.6970  0.8716 -0.5093
15578TIP3   OH246655   5.817   4.917   6.642  0.1578  0.2554  0.3555
15578TIP3    H146656   5.885   4.889   6.704 -0.8465 -0.5416  1.0921
15578TIP3    H246657   5.770   4.986   6.689 -0.6308 -0.3801  0.5107
15579TIP3   OH246658   4.812   0.515   0.149 -0.3963 -0.2406  0.2690
15579TIP3    H146659   4.808   0.437   0.093 -0.6605  0.3000 -0.4640
15579TIP3    H246660   4.875   0.573   0.106 -0.7858  0.2795  0.3973
15580TIP3   OH246661   2.183   0.743   0.635 -0.2746  0.2428 -0.0167
15580TIP3    H146662   2.220   0.763   0.549  1.3207  2.1355  1.0706
15580TIP3    H246663   2.166   0.649   0.632  1.7103 -0.1028 -1.6758
15581TIP3   OH246664   2.290   1.473   1.239  0.1559 -0.3765 -0.2655
15581TIP3    H146665   2.282   1.437   1.151  0.1720 -0.4423 -0.2403
15581TIP3    H246666   2.334   1.557   1.227  0.3139 -0.4653 -0.3015
15582TIP3   OH246667   4.137   0.226   1.583  0.0823  0.1030 -0.3749
15582TIP3    H146668   4.202   0.155   1.582  3.6292  3.2187 -1.4625
15582TIP3    H246669   4.127   0.247   1.676 -0.0023 -0.9260 -0.1376
15583TIP3   OH246670   2.536   1.793   0.818 -0.4925  0.0280 -0.4705
15583TIP3    H146671   2.595   1.863   0.790 -1.1617  1.4880  1.6773
15583TIP3    H246672   2.570   1.714   0.775  2.7187  0.9163  0.3189
15584TIP3   OH246673   8.846   7.708   0.603  0.3632  0.2707 -0.3976
15584TIP3    H146674   8.924   7.656   0.582  0.4814  0.7321 -1.1298
15584TIP3    H246675   8.881   7.790   0.639  0.2133  0.3358 -0.3989
15585TIP3   OH246676   1.130   1.457   0.789 -0.4089 -0.1701 -0.0939
15585TIP3    H146677   1.196   1.492   0.849  2.3766 -3.0258 -1.3163
15585TIP3    H246678   1.058   1.429   0.846  1.8435 -2.0982  1.9348
15586TIP3   OH246679   0.769   7.931   0.710 -0.3327  0.0941  0.2645
15586TIP3    H146680   0.714   7.987   0.655  0.0739  0.2533  0.0137
15586TIP3    H246681   0.721   7.848   0.714 -0.8701  0.4133  0.5245
15587TIP3   OH246682   2.588   0.782   1.842  0.3045  0.2169 -0.1793
15587TIP3    H146683   2.492   0.781   1.835  0.1219  0.8651  1.9185
15587TIP3    H246684   2.608   0.711   1.903  1.1471  0.2853 -0.3678
15588TIP3   OH246685   2.927   0.704   1.951  0.2269 -0.2850 -0.0839
15588TIP3    H146686   2.849   0.655   1.978  0.0114 -0.3513 -0.8234
15588TIP3    H246687   2.988   0.638   1.920  0.8689 -0.2988  1.2005
15589TIP3   OH246688   2.886   0.034   1.124  0.0197  0.0379 -0.5490
15589TIP3    H146689   2.878   0.108   1.184  0.6999  1.1527 -1.7988
15589TIP3    H246690   2.958   0.058   1.066 -1.4962 -0.3923 -2.6643
15590TIP3   OH246691   2.487   0.702   1.201 -0.1948 -0.2975  0.1032
15590TIP3    H146692   2.566   0.655   1.227 -0.3244 -0.2601  0.5706
15590TIP3    H246693   2.434   0.707   1.281 -1.4189 -1.8089 -0.5840
15591TIP3   OH246694   2.147   0.097   1.633 -0.3164  0.7544 -0.2457
15591TIP3    H146695   2.138   0.106   1.538 -0.1034  0.4967 -0.2908
15591TIP3    H246696   2.239   0.115   1.650  0.3046 -1.9543 -0.4257
15592TIP3   OH246697   2.344   2.008   1.355  0.1930 -0.4480  0.3850
15592TIP3    H146698   2.357   1.944   1.285 -0.1896  0.9594 -0.9958
15592TIP3    H246699   2.334   2.092   1.310 -0.4881  0.4235  2.0983
15593TIP3   OH246700   3.653   5.611   6.837  0.0543  0.1776  0.4766
15593TIP3    H146701   3.692   5.634   6.753 -0.9584  1.7103  0.3994
15593TIP3    H246702   3.713   5.548   6.876  0.9279  0.0613 -1.0482
15594TIP3   OH246703   7.868   7.938   1.109  0.0327 -0.1820 -0.1304
15594TIP3    H146704   7.782   7.947   1.067  0.0642 -0.1549 -0.1879
15594TIP3    H246705   7.850   7.948   1.202  0.1046  0.7240 -0.2094
15595TIP3   OH246706   2.446   0.879   2.591  0.0828 -0.3094  0.1925
15595TIP3    H146707   2.411   0.914   2.509  0.2927 -0.2030  0.1467
15595TIP3    H246708   2.414   0.789   2.595 -0.8267  0.0221  0.5260
15596TIP3   OH246709   6.230   5.240   5.906  0.0419 -0.1732  0.3947
15596TIP3    H146710   6.157   5.237   5.967 -1.1352  1.3160 -0.9152
15596TIP3    H246711   6.302   5.277   5.958 -1.4493  2.8601  0.4266
15597TIP3   OH246712   2.851   0.990   0.772  0.2786  0.1252  0.9681
15597TIP3    H146713   2.756   0.982   0.759  0.7362 -1.1312 -2.0051
15597TIP3    H246714   2.871   0.927   0.841 -0.6882 -1.6588 -0.3346
15598TIP3   OH246715   5.330   4.027   6.524  0.0296  0.1581  0.1111
15598TIP3    H146716   5.356   4.060   6.437 -1.3598 -0.1518 -0.4390
15598TIP3    H246717   5.353   3.934   6.522  0.9488  0.3681  0.4686
15599TIP3   OH246718   7.884   7.914   2.334 -0.3198  0.0039 -0.4513
15599TIP3    H146719   7.799   7.875   2.317 -1.0668  0.9512  0.9951
15599TIP3    H246720   7.928   7.915   2.249 -1.1955 -1.7563 -0.9556
15600TIP3   OH246721   6.679   5.944   4.845  0.5953 -0.2852  0.3401
15600TIP3    H146722   6.623   6.012   4.881  1.0422  0.5226 -0.4723
15600TIP3    H246723   6.767   5.967   4.876  0.4271 -1.8034  1.9985
15601TIP3   OH246724   4.740   3.773   4.810 -0.5170  0.9499 -0.3681
15601TIP3    H146725   4.672   3.839   4.823 -1.0275  0.8177 -2.1942
15601TIP3    H246726   4.816   3.808   4.856 -2.0647  0.6036  2.6032
15602TIP3   OH246727   5.114   4.186   5.126 -0.0150  0.7027  0.2071
15602TIP3    H146728   5.207   4.206   5.119 -0.0021  0.6206  0.1348
15602TIP3    H246729   5.070   4.269   5.109 -0.0134  0.2455 -2.1366
15603TIP3   OH246730   3.204   1.651   0.476  0.7196 -0.1869  0.4863
15603TIP3    H146731   3.190   1.594   0.400 -0.8573 -0.3351  0.8629
15603TIP3    H246732   3.126   1.639   0.529  1.4773  0.4936  1.7732
15604TIP3   OH246733   4.742   4.629   6.052  0.1171 -0.0418 -0.3830
15604TIP3    H146734   4.785   4.561   6.103  0.3941  1.0636  0.8897
15604TIP3    H246735   4.724   4.698   6.115 -0.2343  1.0356 -1.6420
15605TIP3   OH246736   2.985   1.678   1.067  0.2909 -0.8601 -0.2228
15605TIP3    H146737   2.902   1.722   1.080 -0.6749 -2.3880 -1.0220
15605TIP3    H246738   3.016   1.707   0.981  1.9402  1.7913  1.2122
15606TIP3   OH246739   2.146   0.783   1.378 -0.6787  0.3876 -0.8723
15606TIP3    H146740   2.115   0.838   1.450 -0.0180 -0.6328  0.2032
15606TIP3    H246741   2.233   0.753   1.405 -0.4674 -0.0961 -2.0395
15607TIP3   OH246742   7.451   4.646   6.967 -0.4106 -0.0447 -0.0221
15607TIP3    H146743   7.457   4.719   7.028 -0.8155 -0.2904  0.3194
15607TIP3    H246744   7.518   4.584   6.996 -0.2612  0.0644 -0.1354
15608TIP3   OH246745   5.964   2.404   5.944 -0.3400  0.2929 -0.8677
15608TIP3    H146746   6.052   2.370   5.932 -0.7963 -1.1899 -0.1049
15608TIP3    H246747   5.932   2.421   5.855 -0.0053 -1.0049 -1.2423
15609TIP3   OH246748   6.363   4.450   5.092 -0.5119  0.5184 -0.3961
15609TIP3    H146749   6.453   4.424   5.076 -0.5192 -0.3000  0.7993
15609TIP3    H246750   6.359   4.465   5.187 -1.9164 -0.5860 -0.2621
15610TIP3   OH246751   8.476   1.494   2.318 -0.0208 -0.4946 -0.0433
15610TIP3    H146752   8.518   1.434   2.380 -0.1408  0.1814  0.6997
15610TIP3    H246753   8.441   1.564   2.373 -0.5269 -0.1207 -0.8364
15611TIP3   OH246754   2.671   2.134   2.254 -0.3393  0.9703  0.0427
15611TIP3    H146755   2.727   2.192   2.306  1.3185 -3.3184  3.2909
15611TIP3    H246756   2.592   2.122   2.307 -1.0209  0.8258 -0.9738
15612TIP3   OH246757   6.663   7.110   3.596  0.3949  0.4525  0.0657
15612TIP3    H146758   6.645   7.022   3.629  1.6877 -0.1939 -0.8577
15612TIP3    H246759   6.584   7.160   3.615 -0.4249 -0.9529  0.4599
15613TIP3   OH246760   6.784   4.200   7.126  0.4875  0.4161 -0.5711
15613TIP3    H146761   6.736   4.273   7.165  1.2950  1.7364 -1.9713
15613TIP3    H246762   6.856   4.241   7.078  1.4718 -1.3601 -0.6822
15614TIP3   OH246763   5.194   6.217   6.826  0.0172 -0.6177  0.0305
15614TIP3    H146764   5.202   6.122   6.814  0.2424 -0.4285 -1.3397
15614TIP3    H246765   5.254   6.237   6.898  2.0300 -1.1312 -1.4454
15615TIP3   OH246766   5.076   6.925   5.383 -0.0836  0.5254 -0.3348
15615TIP3    H146767   5.051   6.939   5.475  0.9693  1.4960 -0.1818
15615TIP3    H246768   4.999   6.950   5.333 -0.3966  0.7532  0.2564
15616TIP3   OH246769   5.200   6.083   6.085  0.4238  0.2798  0.2599
15616TIP3    H146770   5.122   6.073   6.139 -0.6994  0.6627 -1.2320
15616TIP3    H246771   5.193   6.014   6.019  1.1883  0.4953 -0.0632
15617TIP3   OH246772   8.462   4.165   0.894  0.0243 -0.1665  0.3379
15617TIP3    H146773   8.443   4.098   0.960 -2.0673 -0.5964 -0.6465
15617TIP3    H246774   8.526   4.124   0.836  1.1567 -0.1303  1.5158
15618TIP3   OH246775   4.505   1.079   0.776  0.0206 -0.0961 -0.6581
15618TIP3    H146776   4.576   1.079   0.711  1.5129  0.8077  0.9199
15618TIP3    H246777   4.535   1.019   0.844 -1.5744 -1.1085 -0.8276
15619TIP3   OH246778   2.628   2.413   2.547 -0.3361  0.7749  0.3595
15619TIP3    H146779   2.594   2.485   2.600 -0.7969 -0.1718  1.3626
15619TIP3    H246780   2.551   2.378   2.502 -0.5813 -0.7437  1.8831
15620TIP3   OH246781   1.845   2.462   1.419 -0.1222 -0.6358  0.3488
15620TIP3    H146782   1.797   2.468   1.337 -0.1434  0.9554  0.4526
15620TIP3    H246783   1.936   2.447   1.393  0.1056  1.2724 -0.0440
15621TIP3   OH246784   0.098   0.584   1.244 -0.2187  0.1730  0.3937
15621TIP3    H146785   0.184   0.543   1.240 -1.5372 -2.6301 -0.4204
15621TIP3    H246786   0.052   0.536   1.313 -1.3940  1.1504  0.3086
15622TIP3   OH246787   4.858   5.699   6.180 -0.0076  0.6752  0.1497
15622TIP3    H146788   4.782   5.647   6.204  0.1314  0.7212  0.6840
15622TIP3    H246789   4.825   5.788   6.172 -0.4534  0.3782 -1.7224
15623TIP3   OH246790   3.383   1.707   1.300 -0.1138 -0.3347 -0.3518
15623TIP3    H146791   3.308   1.752   1.263  0.1208 -0.8203 -1.4360
15623TIP3    H246792   3.376   1.722   1.394  0.0565  2.0835 -0.7041
15624TIP3   OH246793   0.536   7.724   3.352  0.2242  0.5501  0.2894
15624TIP3    H146794   0.509   7.666   3.423  0.9764 -1.0335 -0.7011
15624TIP3    H246795   0.556   7.807   3.396  2.0560 -0.8197  2.1228
15625TIP3   OH246796   2.702   0.975   2.478  0.1339  0.3980 -0.0407
15625TIP3    H146797   2.650   0.923   2.417 -0.4973 -0.0819  0.9037
15625TIP3    H246798   2.640   1.006   2.543  0.6932  1.4649  0.0056
15626TIP3   OH246799   7.446   7.829   1.690  0.6264  1.0759  0.1345
15626TIP3    H146800   7.401   7.805   1.609 -1.5590 -0.5354  1.7814
15626TIP3    H246801   7.423   7.921   1.704 -2.6374  0.1532  1.2057
15627TIP3   OH246802   3.210   0.761   0.930 -0.2962 -0.2048 -0.2663
15627TIP3    H146803   3.280   0.728   0.987 -1.4787 -3.5206 -0.6143
15627TIP3    H246804   3.176   0.837   0.976  0.1685 -1.5732  2.4849
15628TIP3   OH246805   6.267   6.744   6.645 -0.2659 -0.3668 -0.1217
15628TIP3    H146806   6.229   6.696   6.571 -0.9038 -1.8973  1.1432
15628TIP3    H246807   6.303   6.675   6.701  1.4083  0.8607  0.3323
15629TIP3   OH246808   6.173   3.276   5.822 -0.2269 -0.1982 -0.3482
15629TIP3    H146809   6.239   3.344   5.836 -0.1991 -0.2512 -0.2240
15629TIP3    H246810   6.141   3.255   5.910  0.6436 -1.2131 -0.2648
15630TIP3   OH246811   1.948   0.857   0.697 -0.1019 -0.2785  0.0867
15630TIP3    H146812   1.900   0.790   0.649  0.5941 -0.5137 -0.2897
15630TIP3    H246813   2.040   0.840   0.676  0.1838 -0.1861  1.2535
15631TIP3   OH246814   1.200   0.920   2.927 -0.3615  0.1243 -0.3166
15631TIP3    H146815   1.232   0.936   3.016  1.5688  1.6086 -1.2495
15631TIP3    H246816   1.111   0.956   2.927 -0.5143 -0.2384  1.1243
15632TIP3   OH246817   2.201   0.448   0.597 -0.4551 -0.2226  0.5172
15632TIP3    H146818   2.140   0.376   0.579 -2.0610  1.2155  0.1207
15632TIP3    H246819   2.287   0.412   0.574 -1.3494 -1.6768 -0.6968
15633TIP3   OH246820   6.621   3.068   4.814  0.2506 -0.4794 -0.4090
15633TIP3    H146821   6.618   3.160   4.840 -0.7478 -0.6825  0.2253
15633TIP3    H246822   6.529   3.041   4.813  0.6726 -2.1044  1.7294
15634TIP3   OH246823   2.812   0.323   3.361  0.0075 -0.0182  0.2856
15634TIP3    H146824   2.783   0.309   3.271 -1.6516 -1.3320  0.9926
15634TIP3    H246825   2.743   0.283   3.414  1.0450  0.6147  2.1318
15635TIP3   OH246826   1.689   1.752   2.263 -0.4426 -0.2993 -0.2682
15635TIP3    H146827   1.603   1.717   2.239 -0.2304 -0.5873 -0.6194
15635TIP3    H246828   1.674   1.845   2.278 -0.4975  0.0008 -2.0214
15636TIP3   OH246829   4.845   4.470   6.240  0.2612 -0.6208 -0.0151
15636TIP3    H146830   4.918   4.511   6.287 -0.8440  0.3163  0.9248
15636TIP3    H246831   4.887   4.406   6.183  1.7553 -0.8938  1.3252
15637TIP3   OH246832   1.707   0.566   0.786  1.1125  0.0017 -0.3900
15637TIP3    H146833   1.667   0.608   0.862  0.2851 -0.9638 -0.2858
15637TIP3    H246834   1.641   0.571   0.718  1.4641 -0.0687 -0.7405
15638TIP3   OH246835   8.694   2.384   2.231  0.2201 -0.1363  0.2213
15638TIP3    H146836   8.617   2.338   2.197  0.4353 -0.7755  0.5800
15638TIP3    H246837   8.743   2.410   2.153 -0.8717  1.1876 -0.0490
15639TIP3   OH246838   1.304   1.558   1.265 -0.2993  0.9019  0.6482
15639TIP3    H146839   1.271   1.469   1.279 -0.5468  0.7282 -0.9806
15639TIP3    H246840   1.388   1.560   1.310 -0.4792 -0.0384  1.0341
15640TIP3   OH246841   3.567   4.899   6.289  0.5176 -0.4425 -0.4476
15640TIP3    H146842   3.476   4.912   6.316  0.3691  0.3767 -1.2936
15640TIP3    H246843   3.581   4.805   6.297 -0.6444 -0.6804 -1.0053
15641TIP3   OH246844   4.462   1.338   0.319  0.3610 -0.0631  0.0429
15641TIP3    H146845   4.377   1.377   0.299  0.8685  2.3526  2.2943
15641TIP3    H246846   4.442   1.265   0.376 -0.2824 -0.1458 -0.2836
15642TIP3   OH246847   4.001   0.316   2.602  0.0110  0.0547  0.3560
15642TIP3    H146848   4.056   0.322   2.680 -0.5024 -0.3080  0.7450
15642TIP3    H246849   4.021   0.229   2.566 -0.8078 -0.3481  0.8714
15643TIP3   OH246850   6.492   2.895   5.821 -0.2643  0.0616 -0.3274
15643TIP3    H146851   6.532   2.849   5.895  0.0111 -0.1701 -0.6229
15643TIP3    H246852   6.554   2.966   5.801 -0.4227  0.2297 -0.2263
15644TIP3   OH246853   8.064   7.739   1.337 -0.3387  0.0585 -0.3144
15644TIP3    H146854   8.044   7.798   1.410 -0.9682  0.3954 -0.7481
15644TIP3    H246855   8.149   7.702   1.359 -1.8576 -2.1817  2.1098
15645TIP3   OH246856   6.001   6.930   0.472 -0.2416  0.9146  0.0069
15645TIP3    H146857   6.096   6.941   0.477 -0.4262  2.3016  0.6855
15645TIP3    H246858   5.986   6.841   0.505  0.8211  0.6131 -0.2735
15646TIP3   OH246859   2.743   2.253   1.445  0.5997  0.3016 -0.2508
15646TIP3    H146860   2.761   2.295   1.529  0.7549 -0.9127  0.3447
15646TIP3    H246861   2.693   2.174   1.468  1.7291 -0.7076 -1.1831
15647TIP3   OH246862   3.093   1.732   3.110 -0.7979 -0.0716  0.7517
15647TIP3    H146863   3.088   1.638   3.126 -0.8023 -0.5977 -2.0667
15647TIP3    H246864   3.023   1.769   3.164 -1.2293 -1.7469  1.3691
15648TIP3   OH246865   0.314   0.423   1.215  0.2158 -0.5953 -0.2051
15648TIP3    H146866   0.378   0.402   1.148  2.1581  0.9026  1.0931
15648TIP3    H246867   0.348   0.381   1.295  0.2825  1.2521  0.7696
15649TIP3   OH246868   7.878   7.814   0.415 -0.1919 -0.3416 -0.2725
15649TIP3    H146869   7.818   7.888   0.421  1.4435  0.8827  1.7900
15649TIP3    H246870   7.845   7.751   0.479 -0.7892 -0.8101 -1.0371
15650TIP3   OH246871   5.275   4.716   6.991 -0.2979 -0.5149  0.1604
15650TIP3    H146872   5.186   4.752   6.984 -0.5638 -1.0067  0.9002
15650TIP3    H246873   5.322   4.780   7.045  0.3387  0.7040 -1.7797
15651TIP3   OH246874   3.807   4.180   5.384  0.0974  0.3950  0.1883
15651TIP3    H146875   3.768   4.228   5.311 -0.3257 -1.8507 -1.1001
15651TIP3    H246876   3.901   4.182   5.366  0.0008 -0.0868 -0.3903
15652TIP3   OH246877   1.578   7.329   1.279  0.3477 -0.1244  0.1611
15652TIP3    H146878   1.672   7.339   1.294  0.1300  1.1953  0.7270
15652TIP3    H246879   1.540   7.325   1.368 -0.0465 -1.6599 -0.0475
15653TIP3   OH246880   1.147   8.375   2.615 -0.2227 -0.4683 -0.3654
15653TIP3    H146881   1.225   8.418   2.652 -0.8069 -0.3783  0.7707
15653TIP3    H246882   1.181   8.293   2.578  0.2818 -0.8220  0.8671
15654TIP3   OH246883   8.468   7.923   1.120  0.3606 -0.0645  0.2532
15654TIP3    H146884   8.451   7.832   1.144  2.0622 -0.6430 -0.6227
15654TIP3    H246885   8.485   7.967   1.203 -0.4555 -0.5440  0.6829
15655TIP3   OH246886   0.131   7.430   0.655 -0.9225  0.3816 -0.3237
15655TIP3    H146887   0.153   7.402   0.566 -1.2137  0.4181 -0.4062
15655TIP3    H246888   0.161   7.521   0.660  0.9456 -0.2431  0.2677
15656TIP3   OH246889   5.131   4.230   5.573 -0.3561  0.0847 -0.2807
15656TIP3    H146890   5.100   4.315   5.543 -0.0866  0.5678  0.7813
15656TIP3    H246891   5.136   4.177   5.494  2.1357  1.8747 -1.3815
15657TIP3   OH246892   5.832   4.256   5.361 -0.1515  0.1806  0.5660
15657TIP3    H146893   5.917   4.285   5.328 -0.5952  1.9422  0.9088
15657TIP3    H246894   5.851   4.222   5.448  0.3345 -0.2626  0.2892
15658TIP3   OH246895   3.154   5.088   7.073 -0.1007  0.0763 -0.0055
15658TIP3    H146896   3.172   5.021   7.007  0.3222  0.8836 -0.7146
15658TIP3    H246897   3.124   5.039   7.150  0.3044 -0.9271 -0.4862
15659TIP3   OH246898   3.828   0.554   1.824  1.0184  0.3932  0.1612
15659TIP3    H146899   3.787   0.639   1.809  0.9127  0.3233  0.0516
15659TIP3    H246900   3.853   0.556   1.917 -1.9030 -0.6634  1.0346
15660TIP3   OH246901   4.169   3.503   2.662 -0.0029  0.5948  0.2861
15660TIP3    H146902   4.225   3.529   2.735  0.7082 -0.3427  0.0931
15660TIP3    H246903   4.225   3.447   2.608 -1.4452 -1.2470  0.6568
15661TIP3   OH246904   5.578   4.855   6.979  0.0522  0.1086  0.5541
15661TIP3    H146905   5.590   4.810   7.062 -0.6288  2.0659  1.7615
15661TIP3    H246906   5.602   4.791   6.913  2.6951 -0.8230  2.3181
15662TIP3   OH246907   0.029   8.150   0.922 -0.2508 -0.5284  0.6105
15662TIP3    H146908   0.024   8.233   0.874  0.7894 -0.6434  0.2862
15662TIP3    H246909  -0.039   8.158   0.989 -1.5446 -0.2591 -0.6967
15663TIP3   OH246910   5.152   4.958   7.118  0.5060 -0.0547 -0.3106
15663TIP3    H146911   5.214   4.906   7.170 -0.5559 -0.7099  0.3007
15663TIP3    H246912   5.097   5.001   7.183 -0.1601 -0.0486 -0.8820
15664TIP3   OH246913   5.291   3.982   6.978 -0.8964 -0.5488 -0.4490
15664TIP3    H146914   5.300   3.954   7.069 -1.7060  0.0117 -0.1858
15664TIP3    H246915   5.330   3.911   6.927  1.5509  0.0981  0.4152
15665TIP3   OH246916   1.349   0.149   0.632 -0.1989 -0.2701 -0.5385
15665TIP3    H146917   1.331   0.070   0.682 -1.7371  0.3300 -0.1192
15665TIP3    H246918   1.313   0.131   0.545 -0.5431 -0.0439 -0.4449
15666TIP3   OH246919   6.235   6.064   0.642 -0.7456  0.3592  0.0814
15666TIP3    H146920   6.323   6.064   0.605 -0.4504  0.9002  0.7983
15666TIP3    H246921   6.199   5.978   0.617  1.0617 -1.1252  2.3634
15667TIP3   OH246922   2.617   0.518   1.944  0.4017  0.1015 -0.0425
15667TIP3    H146923   2.612   0.457   1.871 -0.3329  0.7052 -0.4994
15667TIP3    H246924   2.643   0.464   2.019 -0.5626 -0.8298 -0.3697
15668TIP3   OH246925   2.507   2.086   1.026  0.1987 -0.2113 -0.1232
15668TIP3    H146926   2.557   2.133   0.959 -0.7271  0.8755 -0.0619
15668TIP3    H246927   2.444   2.150   1.059  0.7912 -0.6558  1.9700
15669TIP3   OH246928   3.489   3.280   6.811 -0.1076 -0.0216 -0.5293
15669TIP3    H146929   3.418   3.343   6.803 -0.1819 -0.1748 -1.0833
15669TIP3    H246930   3.567   3.333   6.825 -0.0900  0.2149 -1.5042
15670TIP3   OH246931   0.619   0.412   0.357  0.2077 -0.0644 -0.0839
15670TIP3    H146932   0.548   0.461   0.399  0.0551 -0.6562  0.3660
15670TIP3    H246933   0.687   0.477   0.339  0.1784  0.2433  0.8844
15671TIP3   OH246934   3.107   0.751   0.678  0.1121  0.1967  0.7867
15671TIP3    H146935   3.156   0.769   0.758 -0.0657  0.7496  0.7685
15671TIP3    H246936   3.113   0.832   0.627  0.4542 -0.2333  0.1200
15672TIP3   OH246937   0.401   8.217   1.614 -0.0504 -0.2962  0.4822
15672TIP3    H146938   0.477   8.275   1.613  1.2322 -1.9643  1.0016
15672TIP3    H246939   0.338   8.261   1.556  1.5226  0.7858 -0.4605
15673TIP3   OH246940   3.507   7.098   4.484  0.0412  0.1823  0.6355
15673TIP3    H146941   3.589   7.129   4.446 -0.0558 -2.6496 -2.1121
15673TIP3    H246942   3.492   7.013   4.443 -4.6860  0.9493  0.4361
15674TIP3   OH246943   4.440   1.788   2.605  0.2375 -0.2155 -0.0640
15674TIP3    H146944   4.438   1.853   2.675  3.2191  1.4511 -1.4241
15674TIP3    H246945   4.401   1.832   2.530  0.4294 -0.7191 -0.4652
15675TIP3   OH246946   2.706   1.025   1.191 -0.3814 -0.3161  0.7215
15675TIP3    H146947   2.629   1.036   1.247 -0.1916 -3.8878  1.8254
15675TIP3    H246948   2.669   1.002   1.105 -0.5821  1.0797  0.4214
15676TIP3   OH246949   4.560   4.003   6.908 -0.3742  0.0607 -0.4333
15676TIP3    H146950   4.582   4.003   6.815  0.0488  0.2424 -0.3337
15676TIP3    H246951   4.465   3.987   6.911 -0.1939 -1.1716 -0.8520
15677TIP3   OH246952   5.303   4.720   5.305 -0.2938  0.1760  0.1743
15677TIP3    H146953   5.338   4.631   5.301  2.9797  1.4793 -1.5947
15677TIP3    H246954   5.251   4.729   5.225 -0.8855 -0.2272  0.5084
15678TIP3   OH246955   1.566   0.340   2.259  0.2914  0.2310  1.3408
15678TIP3    H146956   1.575   0.346   2.164 -1.5397  1.0539  1.2007
15678TIP3    H246957   1.525   0.423   2.284  1.2710  0.2523  2.9185
15679TIP3   OH246958   0.214   7.710   0.575  0.2011 -0.0522  0.0327
15679TIP3    H146959   0.257   7.730   0.492 -1.2380  1.1713 -0.4287
15679TIP3    H246960   0.257   7.768   0.638  0.0856  0.2761 -0.1886
15680TIP3   OH246961   4.733   3.488   6.879  0.2212 -0.7854 -1.0584
15680TIP3    H146962   4.750   3.396   6.900  0.8845 -0.3010  0.5545
15680TIP3    H246963   4.740   3.534   6.962 -1.2308  0.5812 -1.6678
15681TIP3   OH246964   6.215   4.401   6.061  0.2369 -0.5441  0.4116
15681TIP3    H146965   6.167   4.357   5.991  0.8819  0.4009 -0.6419
15681TIP3    H246966   6.292   4.439   6.018  0.9180 -0.3932  1.7262
15682TIP3   OH246967   0.567   7.849   2.169 -0.0322  0.5269  0.3987
15682TIP3    H146968   0.604   7.831   2.256  0.8319  0.7378  0.0722
15682TIP3    H246969   0.633   7.817   2.108 -1.4134 -1.2534 -0.2022
15683TIP3   OH246970   0.381   7.297   1.866  0.6573 -0.7993 -0.3331
15683TIP3    H146971   0.397   7.332   1.778 -1.9524  0.0069 -0.5593
15683TIP3    H246972   0.328   7.219   1.852 -0.4422 -0.2295  0.5390
15684TIP3   OH246973   7.682   7.751   0.155 -0.7439  0.6046 -0.6536
15684TIP3    H146974   7.705   7.750   0.248 -1.5278  2.7564 -0.4185
15684TIP3    H246975   7.746   7.809   0.115 -0.8547  0.2478 -1.3573
15685TIP3   OH246976   4.888   6.847   7.089  0.3721 -0.2875  0.2486
15685TIP3    H146977   4.936   6.875   7.167  1.9959 -1.4577 -0.3069
15685TIP3    H246978   4.797   6.871   7.107  1.1247  1.8319  1.3810
15686TIP3   OH246979   2.916   2.297   0.254  0.1045  0.1569 -0.2938
15686TIP3    H146980   3.008   2.323   0.253  0.4149 -0.8458  0.7142
15686TIP3    H246981   2.879   2.336   0.176  1.5134  0.1476 -0.9827
15687TIP3   OH246982   0.162   8.087   3.250 -0.1711 -0.4324 -0.3195
15687TIP3    H146983   0.125   8.169   3.282 -1.1479 -0.8864 -0.2771
15687TIP3    H246984   0.213   8.111   3.173 -0.9518  0.1317 -0.6616
15688TIP3   OH246985   6.218   4.773   7.143 -0.3071 -0.3084  0.7986
15688TIP3    H146986   6.131   4.792   7.178 -0.4717  0.9389 -0.2294
15688TIP3    H246987   6.277   4.829   7.193 -0.0145 -1.5210  1.8388
15689TIP3   OH246988   0.040   2.974   0.099  0.2527  0.6001 -0.3260
15689TIP3    H146989   0.068   2.930   0.179  0.8516  0.8188 -0.4128
15689TIP3    H246990   0.095   2.937   0.030 -0.1538  0.5243 -0.6119
15690TIP3   OH246991   2.219   0.076   0.412 -0.1442  0.3896 -0.2846
15690TIP3    H146992   2.168   0.029   0.478  1.4812  1.2253  1.5824
15690TIP3    H246993   2.304   0.091   0.452  0.7760  1.2006 -2.4515
15691TIP3   OH246994   4.862   0.091   1.071 -0.6993  1.1423 -0.0813
15691TIP3    H146995   4.786   0.036   1.051 -1.5814  2.5037 -0.5682
15691TIP3    H246996   4.828   0.157   1.132  0.5090  0.7459  1.0342
15692TIP3   OH246997   5.835   3.705   7.067 -0.3461 -0.0194  0.2184
15692TIP3    H146998   5.742   3.692   7.051  0.0039 -2.0327 -0.2252
15692TIP3    H246999   5.879   3.648   7.004  1.1840  0.2901  0.9726
15693TIP3   OH247000   2.230   0.798   0.377 -0.2043 -0.0195 -0.0001
15693TIP3    H147001   2.175   0.727   0.343 -0.2012 -0.8040  1.5651
15693TIP3    H247002   2.188   0.878   0.345 -0.6238 -0.6965 -1.1807
15694TIP3   OH247003   0.140   1.316   1.572 -0.6328  0.4033 -0.4265
15694TIP3    H147004   0.121   1.230   1.609  1.5084 -0.4327 -1.1696
15694TIP3    H247005   0.171   1.368   1.646 -0.1898 -0.0332 -0.3039
15695TIP3   OH247006   0.143   3.572   1.740 -0.1550 -0.2106 -0.1964
15695TIP3    H147007   0.221   3.605   1.783  0.6587 -2.1702 -0.1218
15695TIP3    H247008   0.170   3.558   1.649 -0.9461  0.8068 -0.6051
15696TIP3   OH247009   7.602   6.306   6.882 -0.1622 -0.1492 -0.3232
15696TIP3    H147010   7.631   6.362   6.954  0.3839  0.0540 -0.6931
15696TIP3    H247011   7.662   6.326   6.810  0.3350 -1.5548 -0.3212
15697TIP3   OH247012   2.475   1.486   3.389  0.3007  0.3754  0.2740
15697TIP3    H147013   2.491   1.501   3.482 -0.3881  0.4197  0.3830
15697TIP3    H247014   2.439   1.397   3.384 -0.4761  0.6968  0.1356
15698TIP3   OH247015   2.123   0.500   1.032  0.2643  0.2079 -0.2513
15698TIP3    H147016   2.081   0.481   0.949 -3.1037  0.8328  1.2360
15698TIP3    H247017   2.053   0.492   1.097  2.2481  2.1727  2.2460
15699TIP3   OH247018   8.493   1.986   2.797  0.1310 -0.0417  0.4874
15699TIP3    H147019   8.558   2.018   2.736 -1.3513 -3.0090 -2.8514
15699TIP3    H247020   8.543   1.934   2.860  1.1087 -2.2562 -2.0093
15700TIP3   OH247021   1.333   1.637   0.556 -0.1829  0.0930 -0.4738
15700TIP3    H147022   1.327   1.634   0.460 -0.9232 -0.1461 -0.4170
15700TIP3    H247023   1.301   1.552   0.585  2.1466 -0.6960 -0.1111
15701TIP3   OH247024   2.892   0.710   1.247  0.1992  0.2874  0.2561
15701TIP3    H147025   2.944   0.781   1.285 -1.6365  2.3228 -0.8912
15701TIP3    H247026   2.842   0.675   1.321 -1.4850  2.5636  0.2750
15702TIP3   OH247027   4.434   3.559   7.251 -0.0922 -0.2215  0.1017
15702TIP3    H147028   4.400   3.610   7.177 -2.0178 -0.8939  0.4784
15702TIP3    H247029   4.507   3.611   7.284 -1.3552  1.8094 -0.1535
15703TIP3   OH247030   2.717   1.566   0.719 -0.1398  0.0567  0.0450
15703TIP3    H147031   2.810   1.581   0.699 -0.4745  1.1190 -0.7601
15703TIP3    H247032   2.717   1.527   0.806  1.2762 -3.1287 -1.3172
15704TIP3   OH247033   0.740   1.628   2.860  0.1123 -0.5810 -0.0294
15704TIP3    H147034   0.749   1.599   2.951  1.1668 -2.0708 -0.5696
15704TIP3    H247035   0.810   1.692   2.848 -0.1933 -0.1872  0.2751
15705TIP3   OH247036   2.292   0.975   1.161  0.0882  0.3185  0.5638
15705TIP3    H147037   2.373   0.981   1.212 -1.2144  1.6120  2.5207
15705TIP3    H247038   2.228   0.938   1.221 -1.3502  1.3504 -0.3068
15706TIP3   OH247039   2.212   1.063   2.784  0.2943 -0.0407  0.3555
15706TIP3    H147040   2.190   0.987   2.730 -2.4683  0.6658  0.3950
15706TIP3    H247041   2.199   1.033   2.874 -1.4312  0.5954  0.3534
15707TIP3   OH247042   3.730   1.677   0.692 -0.0111 -0.2322 -0.2264
15707TIP3    H147043   3.731   1.599   0.637 -1.0460 -1.0328  0.8776
15707TIP3    H247044   3.717   1.749   0.631 -1.5762 -1.1476 -1.0026
15708TIP3   OH247045   1.003   7.875   1.709  0.1225 -0.2810 -0.4506
15708TIP3    H147046   0.981   7.860   1.801 -0.5041  0.4940 -0.4742
15708TIP3    H247047   1.072   7.941   1.711 -0.0296 -0.1175 -0.5450
15709TIP3   OH247048   3.166   2.375   0.204  0.4647 -0.3507  0.2047
15709TIP3    H147049   3.226   2.447   0.223  1.0216 -0.6727 -0.3030
15709TIP3    H247050   3.149   2.382   0.110 -0.9238  0.2111  0.4827
15710TIP3   OH247051   2.950   0.620   0.852  0.2806 -0.1984  0.0155
15710TIP3    H147052   2.904   0.690   0.898 -1.4166 -0.7847 -0.7235
15710TIP3    H247053   2.998   0.664   0.783  0.8715  0.4391  0.8293
15711TIP3   OH247054   7.330   8.283   2.469  0.3170 -0.6372  0.1038
15711TIP3    H147055   7.245   8.301   2.507 -0.6959 -1.1551 -1.8444
15711TIP3    H247056   7.352   8.364   2.421  1.8616  0.2486  2.2104
15712TIP3   OH247057   2.869   1.908   1.310 -0.2577  0.1351  0.0963
15712TIP3    H147058   2.820   1.845   1.256 -0.4526  0.1471  0.2561
15712TIP3    H247059   2.825   1.992   1.294  0.2003  0.2868 -0.3586
15713TIP3   OH247060   2.679   1.823   3.356  0.0092 -0.2134  0.1578
15713TIP3    H147061   2.675   1.761   3.429  1.0037  0.6364  0.9592
15713TIP3    H247062   2.588   1.847   3.339 -0.1947  0.0124  1.4969
15714TIP3   OH247063   6.439   4.463   5.933  0.2748  0.0543 -0.0754
15714TIP3    H147064   6.463   4.458   5.840  2.8113  1.4193  0.4612
15714TIP3    H247065   6.510   4.513   5.973 -1.7679  1.1403  2.2817
15715TIP3   OH247066   4.116   1.313   2.766 -0.6591 -0.0967 -0.6067
15715TIP3    H147067   4.071   1.369   2.704 -1.8467  0.1645  0.4698
15715TIP3    H247068   4.188   1.367   2.799 -2.9692  1.5681  1.8997
15716TIP3   OH247069   6.171   8.218   3.102  0.6876  0.0505  0.1048
15716TIP3    H147070   6.219   8.271   3.039 -1.1271  0.3057 -1.1012
15716TIP3    H247071   6.114   8.280   3.146  0.7967 -0.4020  0.8871
15717TIP3   OH247072   2.179   2.457   0.053 -0.3525 -0.1449  0.1105
15717TIP3    H147073   2.134   2.524   0.105  0.8890  0.3461  0.5713
15717TIP3    H247074   2.241   2.506   0.000  0.8359 -0.9658  0.7317
15718TIP3   OH247075   7.173   7.310   2.333 -0.3917  0.3908 -0.1073
15718TIP3    H147076   7.207   7.228   2.298 -0.0479 -0.2205  1.6006
15718TIP3    H247077   7.177   7.371   2.260  1.8648 -0.4025 -0.6775
15719TIP3   OH247078   2.533   7.601   2.482 -0.2430  0.1248  0.1666
15719TIP3    H147079   2.577   7.609   2.566 -0.6575 -1.1217  0.5016
15719TIP3    H247080   2.458   7.544   2.499 -0.4678  0.0674 -0.9858
15720TIP3   OH247081   3.177   0.720   1.600  0.2396  0.5799 -0.3644
15720TIP3    H147082   3.240   0.742   1.531  0.6811  0.6081  0.0500
15720TIP3    H247083   3.117   0.657   1.558  1.1021 -0.1798 -0.4687
15721TIP3   OH247084   2.104   0.884   1.637 -0.5024  0.4591 -0.3554
15721TIP3    H147085   2.049   0.940   1.692  0.7563 -0.0355  1.4438
15721TIP3    H247086   2.087   0.795   1.667  1.2714  0.2963  0.2623
15722TIP3   OH247087   7.090   8.102   2.088  0.1136 -0.5416  0.1227
15722TIP3    H147088   7.152   8.165   2.126  0.0479 -1.3629  1.6146
15722TIP3    H247089   7.104   8.109   1.993  1.6756  0.1025  0.3840
15723TIP3   OH247090   7.250   4.260   7.022 -0.1698 -0.3131 -0.0130
15723TIP3    H147091   7.244   4.355   7.033  0.5800 -0.3740  0.9901
15723TIP3    H247092   7.225   4.245   6.931  0.6460  0.9347 -0.4531
15724TIP3   OH247093   3.879   5.748   5.609  0.4058  0.0509 -0.0881
15724TIP3    H147094   3.919   5.718   5.528 -0.7658 -0.3842 -0.5115
15724TIP3    H247095   3.815   5.813   5.582  0.7673  0.6922  0.5796
15725TIP3   OH247096   4.473   5.762   6.613  0.3317 -0.3885  0.0966
15725TIP3    H147097   4.525   5.697   6.660 -0.9696 -1.0849  0.6080
15725TIP3    H247098   4.529   5.839   6.608  1.5648 -1.2713  0.2435
15726TIP3   OH247099   5.595   5.997   6.937  0.2701  0.0132  0.1695
15726TIP3    H147100   5.533   5.928   6.958 -0.0673 -0.6201 -2.7035
15726TIP3    H247101   5.611   5.988   6.843  2.3143  2.1316  0.2478
15727TIP3   OH247102   2.617   1.616   1.586  0.5310 -0.1880 -0.0136
15727TIP3    H147103   2.628   1.533   1.539  0.5318 -0.2377  0.0739
15727TIP3    H247104   2.693   1.668   1.562  0.1632  0.0644 -0.6435
15728TIP3   OH247105   3.697   1.493   1.944  0.3645 -0.4171 -0.4912
15728TIP3    H147106   3.772   1.547   1.918 -0.1820  0.5968  0.0147
15728TIP3    H247107   3.736   1.421   1.994  0.8708  1.1462  1.4595
15729TIP3   OH247108   4.190   0.404   0.067  0.3539 -0.2331  0.5335
15729TIP3    H147109   4.198   0.380  -0.025  1.6784 -0.1308  0.6093
15729TIP3    H247110   4.139   0.486   0.067  0.2071 -0.3269 -0.0917
15730TIP3   OH247111   7.524   6.103   4.300 -0.0889  0.2825 -0.1968
15730TIP3    H147112   7.600   6.148   4.339 -0.4983  0.3592  0.5113
15730TIP3    H247113   7.457   6.171   4.293 -1.0024 -0.3866  1.6534
15731TIP3   OH247114   8.210   7.423   0.951  0.0203 -0.2122  0.1653
15731TIP3    H147115   8.160   7.451   0.874  0.8330  1.3363  0.1712
15731TIP3    H247116   8.163   7.346   0.984 -1.3326  0.1594 -0.8536
15732TIP3   OH247117   3.240   1.148   1.062  0.2266 -0.0512  0.2853
15732TIP3    H147118   3.301   1.150   0.988 -0.1928  0.3654 -0.0531
15732TIP3    H247119   3.231   1.240   1.087 -0.9068 -0.0183 -0.2030
15733TIP3   OH247120   6.675   5.588   6.842 -0.0582  0.2345  0.1411
15733TIP3    H147121   6.645   5.500   6.817 -0.7969  0.3813  0.4969
15733TIP3    H247122   6.615   5.615   6.911  0.0179  1.1269 -0.1387
15734TIP3   OH247123   5.606   7.743   6.940  1.0037  0.5079  0.6522
15734TIP3    H147124   5.562   7.805   6.999  0.8979  0.2620  0.8314
15734TIP3    H247125   5.596   7.782   6.853 -1.1751 -0.4437  0.4467
15735TIP3   OH247126   7.178   2.155   4.203 -0.3258 -0.0170 -0.4652
15735TIP3    H147127   7.177   2.229   4.264  1.3290 -0.0391 -0.3775
15735TIP3    H247128   7.163   2.078   4.258 -3.2941  0.3355 -0.7263
15736TIP3   OH247129   2.506   3.849   0.737 -0.1358  0.1392 -0.0436
15736TIP3    H147130   2.468   3.792   0.803 -0.0027 -1.2411 -1.1432
15736TIP3    H247131   2.480   3.937   0.764 -1.7302 -0.5600  0.7551
15737TIP3   OH247132   0.132   1.030   1.703 -0.4970  0.1473 -0.3361
15737TIP3    H147133   0.136   0.977   1.783 -0.3150 -1.1642 -1.1969
15737TIP3    H247134   0.095   0.972   1.637 -0.8474  1.2840 -1.1616
15738TIP3   OH247135   2.155   0.599   1.801  0.4787 -0.2032 -0.8013
15738TIP3    H147136   2.084   0.584   1.738 -1.5570 -0.9078  1.5635
15738TIP3    H247137   2.171   0.513   1.840  1.1315  0.3781  0.2349
15739TIP3   OH247138   0.824   7.364   0.987 -0.3263 -0.0857 -0.4187
15739TIP3    H147139   0.773   7.445   0.983  1.0714  0.7992 -0.6673
15739TIP3    H247140   0.839   7.350   1.081 -1.5599 -0.7045 -0.3028
15740TIP3   OH247141   4.944   4.653   5.609 -0.4120 -0.1090  0.3494
15740TIP3    H147142   4.889   4.577   5.627  0.0519 -0.3669  0.6609
15740TIP3    H247143   4.926   4.674   5.517 -1.8836  0.4954  0.7564
15741TIP3   OH247144   6.651   3.826   6.030 -0.1389  0.1798  0.9153
15741TIP3    H147145   6.731   3.774   6.026  0.0451  0.2547  3.0706
15741TIP3    H247146   6.681   3.917   6.028 -0.3867  0.2346 -1.5868
15742TIP3   OH247147   4.127   0.264   1.868 -0.1097 -0.7120  0.0933
15742TIP3    H147148   4.209   0.260   1.918 -1.2671  3.1736  2.5077
15742TIP3    H247149   4.062   0.229   1.929 -0.5511 -2.1218 -1.1718
15743TIP3   OH247150   3.020   1.299   0.131 -0.0872 -0.6256 -0.4386
15743TIP3    H147151   3.101   1.341   0.160 -0.9511  1.1662 -0.6078
15743TIP3    H247152   2.950   1.349   0.173 -1.1532 -1.8246 -0.7301
15744TIP3   OH247153   0.990   1.507   3.130 -0.4198 -0.3784 -0.7467
15744TIP3    H147154   0.896   1.502   3.148 -0.5838 -1.6591 -1.8141
15744TIP3    H247155   1.028   1.434   3.179 -0.0004  0.0898 -0.3790
15745TIP3   OH247156   5.440   0.855   1.755  0.3002 -0.5498  0.2801
15745TIP3    H147157   5.372   0.799   1.718  0.0202  0.3265 -0.5551
15745TIP3    H247158   5.489   0.887   1.679  0.6770  0.0632  0.7734
15746TIP3   OH247159   2.295   1.060   0.563  0.7104 -0.0398  0.2480
15746TIP3    H147160   2.223   1.049   0.624  0.6033  0.8263  0.2797
15746TIP3    H247161   2.259   1.033   0.478  0.1204  1.0901  0.1288
15747TIP3   OH247162   0.849   8.044   1.867  0.3027 -0.8484 -0.0437
15747TIP3    H147163   0.755   8.029   1.877 -0.3076  2.8282  0.4434
15747TIP3    H247164   0.862   8.056   1.773  0.0907 -0.2688 -0.0004
15748TIP3   OH247165   1.292   1.845   2.037 -0.5256  0.2395  0.3885
15748TIP3    H147166   1.349   1.793   2.093  0.2788 -1.4682 -1.9513
15748TIP3    H247167   1.346   1.920   2.010 -0.2692  0.0385  0.3452
15749TIP3   OH247168   3.657   0.205  -0.032  0.0536 -0.1919  0.2744
15749TIP3    H147169   3.626   0.182   0.056 -2.9508  1.8994 -0.1443
15749TIP3    H247170   3.721   0.274  -0.017  0.0959 -0.3520  0.8650
15750TIP3   OH247171   6.423   5.140   7.067  0.2069 -0.0228 -0.2261
15750TIP3    H147172   6.346   5.160   7.119 -0.5868  0.2851 -1.5095
15750TIP3    H247173   6.471   5.075   7.120  0.3095  1.5272  1.6687
15751TIP3   OH247174   3.362   0.651   2.379  0.8788  0.3622  0.7297
15751TIP3    H147175   3.290   0.699   2.338  1.7024  0.2203 -0.9430
15751TIP3    H247176   3.440   0.687   2.338  1.6438 -0.7791  1.1674
15752TIP3   OH247177   4.106   1.737   2.401  0.6661 -0.3147  0.1429
15752TIP3    H147178   4.075   1.709   2.487  1.7987  0.7801  0.9297
15752TIP3    H247179   4.042   1.802   2.372 -0.9346 -2.2803 -0.8510
15753TIP3   OH247180   8.427   7.224   1.585 -0.1345  0.3291  0.1024
15753TIP3    H147181   8.427   7.202   1.492 -0.5117  0.5516  0.0449
15753TIP3    H247182   8.512   7.194   1.617 -0.6606 -1.2739  0.0528
15754TIP3   OH247183   1.692   3.194   0.761  0.5412 -0.4468 -0.6921
15754TIP3    H147184   1.699   3.114   0.709 -1.0838  0.0253 -1.6575
15754TIP3    H247185   1.618   3.178   0.820  1.1646 -0.2280  0.1713
15755TIP3   OH247186   3.289   0.313   1.928 -0.1883 -0.2578  0.1592
15755TIP3    H147187   3.297   0.262   1.847  0.9136  3.0615 -1.8913
15755TIP3    H247188   3.379   0.319   1.961 -0.5878 -1.2816  1.4876
15756TIP3   OH247189   1.967   0.776   0.064 -0.0250  0.4137 -0.5501
15756TIP3    H147190   1.897   0.791   0.000 -2.5741 -1.7812  1.5733
15756TIP3    H247191   1.999   0.689   0.044 -0.4318 -0.0480  0.7402
15757TIP3   OH247192   4.788   5.157   7.111 -0.2672  0.2314  0.2216
15757TIP3    H147193   4.780   5.205   7.028 -0.1287  0.5503  0.3914
15757TIP3    H247194   4.804   5.066   7.084 -0.2890  0.3217 -0.1022
15758TIP3   OH247195   3.052   1.841   2.135  0.1496 -0.0186  0.0385
15758TIP3    H147196   3.061   1.869   2.044  2.1635 -0.7512 -0.0138
15758TIP3    H247197   3.138   1.856   2.174 -0.2615 -1.0840  1.4330
15759TIP3   OH247198   1.811   1.327   0.082  0.2868 -0.2060 -0.5657
15759TIP3    H147199   1.751   1.277   0.137 -0.5722  0.7357 -0.6281
15759TIP3    H247200   1.881   1.266   0.061 -0.2379 -1.0776  0.1796
15760TIP3   OH247201   6.048   6.571   7.205  0.0245  0.0343 -0.5193
15760TIP3    H147202   5.959   6.554   7.175 -0.1732  0.2223 -0.0368
15760TIP3    H247203   6.103   6.550   7.129 -0.3539 -1.0146 -0.5137
15761TIP3   OH247204   2.141   2.324   5.061 -0.3912  0.9605 -0.3899
15761TIP3    H147205   2.188   2.295   4.983  0.2037  1.0678 -0.0687
15761TIP3    H247206   2.082   2.252   5.082 -1.6377  1.5195 -1.8148
15762TIP3   OH247207   3.242   1.569   2.253 -0.2500 -0.1883  0.1718
15762TIP3    H147208   3.223   1.630   2.325  0.1565 -2.0936  1.9609
15762TIP3    H247209   3.325   1.601   2.216 -0.4224  0.7820  0.5988
15763TIP3   OH247210   2.805   6.218   7.032 -0.1541  0.1898 -0.6768
15763TIP3    H147211   2.853   6.149   6.985  0.8679 -0.0474  0.6583
15763TIP3    H247212   2.714   6.190   7.030  0.1066 -0.6482 -1.1061
15764TIP3   OH247213   5.381   5.828   6.207 -0.1335 -0.2587 -0.1391
15764TIP3    H147214   5.350   5.790   6.289  0.1786 -0.3853 -0.0777
15764TIP3    H247215   5.305   5.826   6.149 -0.9444  1.7149  0.7918
15765TIP3   OH247216   2.513   2.038   2.057  0.2634 -0.2788 -0.6283
15765TIP3    H147217   2.573   2.064   2.126 -0.1112 -0.7631 -0.1140
15765TIP3    H247218   2.427   2.034   2.100  0.1931 -1.6348 -0.8483
15766TIP3   OH247219   0.342   8.004   1.783 -0.1092  0.8379  0.4054
15766TIP3    H147220   0.389   7.933   1.741 -2.5956  0.5133 -1.9692
15766TIP3    H247221   0.358   8.081   1.727  0.0960  1.4358  1.2710
15767TIP3   OH247222   2.739   0.589   1.433  0.2825  0.4385  0.0876
15767TIP3    H147223   2.661   0.534   1.428 -0.6861  1.8323 -0.7046
15767TIP3    H247224   2.799   0.541   1.489 -0.4881 -1.4686 -0.6790
15768TIP3   OH247225   1.682   7.920   2.169  0.3331  0.3039 -0.2983
15768TIP3    H147226   1.620   7.971   2.116  1.2906  0.4535 -1.2904
15768TIP3    H247227   1.688   7.836   2.124  1.1894  0.4486 -0.4554
15769TIP3   OH247228   1.196   6.633   2.208 -0.0057 -0.2486  0.1752
15769TIP3    H147229   1.290   6.651   2.209  0.0702 -0.5807 -0.5723
15769TIP3    H247230   1.187   6.554   2.155 -0.8202  0.5232 -0.8584
15770TIP3   OH247231   3.270   1.034  -0.029 -0.6149  0.4438  0.3334
15770TIP3    H147232   3.234   0.970   0.032 -0.7637  1.2007  1.0563
15770TIP3    H247233   3.258   1.119   0.015  0.0175  0.9214 -0.3855
15771TIP3   OH247234   5.457   3.271   6.832  0.2961 -0.1637  0.8015
15771TIP3    H147235   5.450   3.314   6.917  0.1271 -0.2831  0.8478
15771TIP3    H247236   5.447   3.178   6.851  1.0166 -0.2538  0.7461
15772TIP3   OH247237   1.626   8.339   1.074 -0.5468 -0.2324  0.2993
15772TIP3    H147238   1.608   8.286   1.152 -0.8649 -1.1340 -0.3704
15772TIP3    H247239   1.554   8.401   1.070  0.2034  0.7454  1.4950
15773TIP3   OH247240   0.339   6.554   1.516  0.3314  0.3006 -0.5339
15773TIP3    H147241   0.372   6.465   1.526  1.4163  0.7694  0.1848
15773TIP3    H247242   0.255   6.544   1.472  0.0719 -1.1277  0.2776
15774TIP3   OH247243   2.557   1.404   0.068 -0.3545 -0.6706 -0.1918
15774TIP3    H147244   2.489   1.436   0.008 -0.0656  0.4009  0.0479
15774TIP3    H247245   2.569   1.475   0.131  2.1431 -0.1632 -1.1850
15775TIP3   OH247246   0.159   1.256   1.038  0.3361  0.0875  0.3577
15775TIP3    H147247   0.132   1.240   1.128  0.0656  1.5849  0.5521
15775TIP3    H247248   0.129   1.179   0.990  0.0368 -0.4868  1.4504
15776TIP3   OH247249   2.761   1.223   1.706 -0.4825 -0.7278 -0.2694
15776TIP3    H147250   2.729   1.172   1.780  1.0264 -1.2987  0.0077
15776TIP3    H247251   2.826   1.282   1.744  0.3052 -1.0338 -1.1358
15777TIP3   OH247252   5.859   6.007   7.070  0.5854  0.4084  0.2744
15777TIP3    H147253   5.778   6.024   7.021  0.5772 -1.7033 -0.4992
15777TIP3    H247254   5.853   6.065   7.146 -2.0955 -0.3249  0.6898
15778TIP3   OH247255   1.138   2.654   1.472  0.4392 -1.0206 -0.1661
15778TIP3    H147256   1.114   2.650   1.565 -1.0299  1.3973 -0.3830
15778TIP3    H247257   1.107   2.571   1.436  0.0925 -1.5539  1.3084
15779TIP3   OH247258   3.499   0.823   2.780  0.2033  0.8255 -0.0691
15779TIP3    H147259   3.511   0.905   2.733  2.6004  1.9207  2.2963
15779TIP3    H247260   3.584   0.778   2.772 -0.3993 -0.4284  0.4721
15780TIP3   OH247261   1.318   1.329   2.108 -0.3376 -0.1716 -0.9079
15780TIP3    H147262   1.238   1.341   2.158  0.9956  0.7642  1.0407
15780TIP3    H247263   1.357   1.416   2.104  0.4284 -0.5584 -2.1330
15781TIP3   OH247264   5.336   3.825   5.445  0.3794 -0.2373  0.2047
15781TIP3    H147265   5.386   3.752   5.481 -2.2111 -2.8826 -1.3084
15781TIP3    H247266   5.337   3.811   5.351 -2.7022 -0.1673  0.0815
15782TIP3   OH247267   2.113   2.483   4.030 -0.4265 -0.6055 -0.1553
15782TIP3    H147268   2.081   2.393   4.030  1.1127 -1.1670  1.1848
15782TIP3    H247269   2.135   2.501   4.121 -0.5206  1.0581 -0.4517
15783TIP3   OH247270   2.712   1.449   0.962  0.4879  0.2823  0.4300
15783TIP3    H147271   2.680   1.360   0.948 -0.8151  0.8420 -0.2529
15783TIP3    H247272   2.688   1.469   1.053  0.0046  0.2397  0.3156
15784TIP3   OH247273   3.506   0.626   1.435 -0.4186  0.2631  0.3309
15784TIP3    H147274   3.527   0.593   1.523 -1.4788  2.4517  1.4506
15784TIP3    H247275   3.413   0.607   1.424 -0.3067  0.0660 -0.3176
15785TIP3   OH247276   6.460   3.591   6.482 -0.1109 -0.6151 -0.3252
15785TIP3    H147277   6.445   3.575   6.576  0.0419 -0.0817 -0.2111
15785TIP3    H247278   6.523   3.523   6.457 -1.2416 -1.6604 -0.3724
15786TIP3   OH247279   6.718   4.793   6.685  0.1891  0.4164  0.3034
15786TIP3    H147280   6.688   4.839   6.763  1.0992 -0.0916  0.9596
15786TIP3    H247281   6.637   4.762   6.644 -0.3705  1.7209  0.3868
15787TIP3   OH247282   1.795   8.259   0.259 -0.5801  0.2021 -1.1483
15787TIP3    H147283   1.738   8.241   0.184  0.1320  0.4737 -1.7717
15787TIP3    H247284   1.882   8.270   0.220 -0.3972  1.4899 -0.3968
15788TIP3   OH247285   3.731   1.875   0.441  0.2044 -0.2412  0.5251
15788TIP3    H147286   3.638   1.896   0.430  0.2313  0.8774  2.3783
15788TIP3    H247287   3.773   1.910   0.362 -0.6161  1.4117  0.7969
15789TIP3   OH247288   6.232   2.894   5.903 -0.5812 -0.4658  0.1348
15789TIP3    H147289   6.310   2.928   5.859 -1.9591 -1.0875 -2.9228
15789TIP3    H247290   6.257   2.807   5.932  0.4058  0.0063  0.7154
15790TIP3   OH247291   6.177   6.173   7.235  0.0514  0.0854  0.3345
15790TIP3    H147292   6.185   6.218   7.320  0.5244 -0.2234  0.4561
15790TIP3    H247293   6.128   6.235   7.180 -2.1637 -0.6060  1.4663
15791TIP3   OH247294   4.579   2.451   1.231  0.1324 -0.0908 -0.1302
15791TIP3    H147295   4.621   2.467   1.146 -1.3848  0.3696 -0.8258
15791TIP3    H247296   4.487   2.474   1.216 -1.0543 -4.0706  0.4338
15792TIP3   OH247297   5.040   1.178   0.380  0.3139  0.1619  0.1632
15792TIP3    H147298   5.074   1.093   0.351  1.5710  0.4997  0.6060
15792TIP3    H247299   5.065   1.183   0.472  0.5443  1.1511  0.0507
15793TIP3   OH247300   8.117   5.579   5.470  0.0903 -0.0594  0.0290
15793TIP3    H147301   8.054   5.585   5.399  0.0670 -2.1692 -0.1589
15793TIP3    H247302   8.068   5.541   5.543  1.4381 -3.0912 -0.5627
15794TIP3   OH247303   6.563   4.802   6.284  0.1949  0.2846  0.2470
15794TIP3    H147304   6.515   4.867   6.233  2.1006  0.7178 -1.0526
15794TIP3    H247305   6.515   4.795   6.366 -1.9763  0.8161 -0.9361
15795TIP3   OH247306   3.885   0.459   0.718 -0.4249 -0.3131 -0.5284
15795TIP3    H147307   3.879   0.553   0.734  0.4186 -0.4208  0.5212
15795TIP3    H247308   3.804   0.423   0.753 -0.8308  0.0422 -1.0972
15796TIP3   OH247309   7.537   5.243   6.429 -0.0901 -0.4499 -0.9684
15796TIP3    H147310   7.550   5.287   6.345  1.3378 -0.8197 -0.9585
15796TIP3    H247311   7.443   5.248   6.445 -0.3771 -0.3984 -2.6028
15797TIP3   OH247312   3.708   0.667   0.990 -0.0185  0.3279 -0.5329
15797TIP3    H147313   3.700   0.615   1.070  0.4402  1.3094  0.1602
15797TIP3    H247314   3.663   0.749   1.011  2.2367  1.5734 -0.4167
15798TIP3   OH247315   5.440   4.691   5.677 -0.2430 -0.1731 -0.0592
15798TIP3    H147316   5.353   4.729   5.666  0.0294  0.6393  0.5162
15798TIP3    H247317   5.424   4.596   5.682 -1.1134 -0.0183  0.2742
15799TIP3   OH247318   5.641   0.253   1.530  0.5311 -0.0659  0.2902
15799TIP3    H147319   5.563   0.221   1.577 -0.3123 -1.7382 -2.1902
15799TIP3    H247320   5.618   0.343   1.507  0.1990  0.1575  1.4473
15800TIP3   OH247321   8.226   2.558   6.808 -0.0971 -0.1201 -0.0882
15800TIP3    H147322   8.277   2.568   6.888  1.3074  0.4717 -1.0408
15800TIP3    H247323   8.282   2.594   6.739 -2.0343  1.0702 -1.0735
15801TIP3   OH247324   3.558   1.105   1.546 -0.3762 -0.0561 -0.5161
15801TIP3    H147325   3.596   1.016   1.542 -1.4880 -0.5061 -1.1618
15801TIP3    H247326   3.532   1.124   1.456  0.8486  1.3783 -0.5821
15802TIP3   OH247327   2.097   1.025   0.342 -0.1451 -0.1342  0.0887
15802TIP3    H147328   2.077   1.092   0.276 -0.3001  0.4939  0.7612
15802TIP3    H247329   2.030   1.038   0.410 -0.6042 -1.4350 -0.1041
15803TIP3   OH247330   7.214   3.471   6.586  0.1827  0.2734 -0.1117
15803TIP3    H147331   7.240   3.449   6.676 -0.0692  1.8554  0.3735
15803TIP3    H247332   7.295   3.466   6.536  0.5798  0.6583  0.4777
15804TIP3   OH247333   5.561   3.909   7.186 -1.1955  0.2701  0.8956
15804TIP3    H147334   5.599   3.971   7.124 -2.3925 -0.8568 -1.0121
15804TIP3    H247335   5.619   3.833   7.184 -2.9173 -1.0661 -1.3089
15805TIP3   OH247336   4.914   5.058   6.267  0.0836  0.8918 -0.2291
15805TIP3    H147337   4.876   5.095   6.188 -1.0707 -0.2838 -0.2312
15805TIP3    H247338   4.898   5.124   6.335 -0.6010  1.0628 -0.5588
15806TIP3   OH247339   5.719   6.306   6.169  0.0774 -0.7575 -0.2002
15806TIP3    H147340   5.778   6.231   6.157 -0.4410 -0.9152 -1.7716
15806TIP3    H247341   5.634   6.275   6.138 -0.3652  0.1550  0.1031
15807TIP3   OH247342   8.291   4.063   6.976  0.0523  0.3527  0.3618
15807TIP3    H147343   8.277   4.158   6.982 -0.8439  0.1562  1.5205
15807TIP3    H247344   8.294   4.033   7.067  0.6907 -0.6822  0.0065
15808TIP3   OH247345   7.241   5.529   6.303 -0.2911  0.5885 -0.2122
15808TIP3    H147346   7.150   5.498   6.299 -0.1789  0.3215 -0.9095
15808TIP3    H247347   7.275   5.495   6.386 -0.7510  0.4554 -0.0797
15809TIP3   OH247348   8.759   4.315   7.108 -0.1009 -0.1647 -0.2104
15809TIP3    H147349   8.757   4.249   7.038 -0.5128 -0.1345 -0.2306
15809TIP3    H247350   8.809   4.388   7.071  0.7905 -0.6694 -0.0046
15810TIP3   OH247351   2.437   0.433   0.259 -0.0627  0.3464  0.1372
15810TIP3    H147352   2.512   0.374   0.256 -0.0932  0.2885  0.4853
15810TIP3    H247353   2.462   0.501   0.322  1.3743  2.6293 -2.7279
15811TIP3   OH247354   8.434   5.494   5.449  0.1887  0.4034  0.2732
15811TIP3    H147355   8.475   5.517   5.366 -0.2453  1.0742  0.2370
15811TIP3    H247356   8.341   5.511   5.435 -0.3064 -2.3189 -0.0615
15812TIP3   OH247357   5.936   4.332   6.258  0.0573  0.4057 -0.1322
15812TIP3    H147358   5.926   4.400   6.191 -0.4312  1.7638  1.2712
15812TIP3    H247359   5.937   4.381   6.341  0.2018 -1.2727  0.8749
15813TIP3   OH247360   6.467   4.452   5.660  0.1436  0.5443  0.2656
15813TIP3    H147361   6.529   4.524   5.649 -0.6812  0.9361 -1.9394
15813TIP3    H247362   6.385   4.484   5.623 -0.5309 -1.1274  0.2549
15814TIP3   OH247363   6.032   0.636   0.517 -0.1538  0.3770  0.0050
15814TIP3    H147364   6.023   0.724   0.553 -0.8473 -0.2422  1.3988
15814TIP3    H247365   6.001   0.578   0.587 -2.0459 -0.8413 -1.8012
15815TIP3   OH247366   7.227   4.545   6.435 -0.1094 -0.9105 -0.7634
15815TIP3    H147367   7.190   4.621   6.391 -0.4989 -1.3695 -1.2438
15815TIP3    H247368   7.168   4.528   6.508  0.6294 -0.0463  0.0412
15816TIP3   OH247369   7.252   2.827   6.133 -0.0761  0.5662  0.6112
15816TIP3    H147370   7.324   2.889   6.126 -0.4673  0.8391 -1.3759
15816TIP3    H247371   7.184   2.862   6.075 -1.2522 -0.4377  1.3358
15817TIP3   OH247372   3.905   7.227   5.096 -0.2911 -0.1286  0.7455
15817TIP3    H147373   3.952   7.171   5.034  0.5726  1.0352  0.3194
15817TIP3    H247374   3.827   7.256   5.048 -0.3820 -0.4152  0.7209
15818TIP3   OH247375   6.892   5.295   6.810 -0.1855  0.2738  0.0131
15818TIP3    H147376   6.955   5.302   6.882 -1.3730  0.2511  1.0792
15818TIP3    H247377   6.813   5.260   6.851 -1.1054  0.9163 -1.1827
15819TIP3   OH247378   4.595   4.218   4.987  0.5311  0.2434  0.6790
15819TIP3    H147379   4.644   4.232   5.069 -0.4638 -0.5279  1.4265
15819TIP3    H247380   4.621   4.131   4.958 -0.5872 -0.2828  1.2253
15820TIP3   OH247381   4.385   0.290   1.349 -0.0859 -0.1815  0.1020
15820TIP3    H147382   4.358   0.329   1.432 -0.7357  3.7653 -1.8676
15820TIP3    H247383   4.481   0.288   1.354 -0.1404 -0.6086  1.2108
15821TIP3   OH247384   3.839   2.277   0.477  0.7556  0.1842 -0.4636
15821TIP3    H147385   3.904   2.297   0.544  1.9088 -1.9759 -0.8697
15821TIP3    H247386   3.890   2.266   0.397 -0.3776  0.7282 -1.2666
15822TIP3   OH247387   5.672   4.626   6.810  0.0905  0.3570 -0.2061
15822TIP3    H147388   5.644   4.577   6.887 -0.5766  2.3646  0.8524
15822TIP3    H247389   5.731   4.566   6.764  2.8775  0.2194  3.4153
15823TIP3   OH247390   1.484   8.211   2.271 -0.5539 -0.0219  0.5919
15823TIP3    H147391   1.494   8.132   2.324 -0.6109 -0.4968 -0.0852
15823TIP3    H247392   1.390   8.228   2.270 -0.6005 -0.2820  0.2723
15824TIP3   OH247393   5.361   1.356   1.464 -0.0295  0.2914  0.3371
15824TIP3    H147394   5.278   1.322   1.430  1.4732 -3.8833  0.5496
15824TIP3    H247395   5.376   1.306   1.543  3.4806 -0.1939 -0.5839
15825TIP3   OH247396   2.410   0.872   2.107 -0.6259  0.2958 -0.0057
15825TIP3    H147397   2.427   0.943   2.046  1.0834 -0.5784 -0.5630
15825TIP3    H247398   2.354   0.812   2.058  0.0716 -0.0071 -0.4329
15826TIP3   OH247399   7.801   2.454   6.735 -0.1675  0.1005  0.3475
15826TIP3    H147400   7.725   2.483   6.785 -0.5212  6.4449 -3.3829
15826TIP3    H247401   7.874   2.507   6.768  0.8994 -0.1303 -1.5510
15827TIP3   OH247402   6.348   7.904   7.133  0.7509 -0.4095 -0.0622
15827TIP3    H147403   6.368   7.822   7.177 -0.2568  0.3172  1.8343
15827TIP3    H247404   6.255   7.898   7.113  1.7059 -1.8376 -4.6069
15828TIP3   OH247405   5.861   6.784   6.297 -0.3173 -0.2843 -0.2996
15828TIP3    H147406   5.770   6.801   6.320 -0.3959 -0.1765 -0.6965
15828TIP3    H247407   5.910   6.819   6.372 -0.4096  3.0222 -1.7018
15829TIP3   OH247408   6.932   4.497   7.174 -0.1722  0.3226 -0.8279
15829TIP3    H147409   6.890   4.583   7.174  2.0248  1.4101 -0.8469
15829TIP3    H247410   6.960   4.484   7.264 -1.8366 -1.0818 -0.4736
15830TIP3   OH247411   5.092   4.964   6.651 -0.1470 -0.2797 -0.7800
15830TIP3    H147412   5.167   4.948   6.594 -0.5971  0.4439 -1.5871
15830TIP3    H247413   5.128   5.012   6.726  0.1252  0.4143 -1.3557
15831TIP3   OH247414   5.418   4.683   5.985 -0.4605  0.1623 -0.2654
15831TIP3    H147415   5.377   4.600   5.960 -0.7418  0.1974  0.0846
15831TIP3    H247416   5.437   4.726   5.901 -0.6203 -0.1028 -0.4390
15832TIP3   OH247417   3.907   1.389   0.105 -0.4371 -0.1509 -0.4353
15832TIP3    H147418   3.930   1.298   0.086 -0.9675 -0.3664 -0.0676
15832TIP3    H247419   3.818   1.398   0.071 -1.0873 -0.3048  1.1556
15833TIP3   OH247420   2.020   4.203   0.435 -0.7838  0.0483  0.6130
15833TIP3    H147421   2.025   4.269   0.366 -0.0834  1.3104  1.8551
15833TIP3    H247422   1.964   4.241   0.502  0.1487 -0.3459  1.6314
15834TIP3   OH247423   6.796   7.122   7.045  0.6306  0.0317 -0.1707
15834TIP3    H147424   6.703   7.132   7.027  0.2985 -2.4856 -0.0783
15834TIP3    H247425   6.832   7.079   6.968  1.4973 -0.0381  0.2578
15835TIP3   OH247426   5.989   4.724   6.890  0.2764 -0.1149  0.2249
15835TIP3    H147427   5.964   4.633   6.876  0.9902 -0.2407 -0.2728
15835TIP3    H247428   5.972   4.739   6.983  1.2879 -1.1194  0.5873
15836TIP3   OH247429   0.496   5.197   4.708 -0.3349  0.5737  0.3708
15836TIP3    H147430   0.487   5.248   4.628  0.9763 -1.4107 -1.0770
15836TIP3    H247431   0.419   5.139   4.708  2.0264 -2.7336 -1.9600
15837TIP3   OH247432   5.304   6.127   6.477  0.3258 -0.8142 -0.2444
15837TIP3    H147433   5.264   6.205   6.517  0.7109 -0.7437  0.0011
15837TIP3    H247434   5.230   6.069   6.461  0.1459 -0.7763  0.4197
15838TIP3   OH247435   0.053   8.199   1.725  0.6352  0.1536 -0.4659
15838TIP3    H147436   0.105   8.273   1.691 -1.9956  2.8470  1.1729
15838TIP3    H247437   0.091   8.180   1.810  1.6018 -0.7218 -1.0799
15839TIP3   OH247438   8.093   8.256   3.172  0.3577 -0.3059 -0.0577
15839TIP3    H147439   8.094   8.206   3.091 -0.9624 -0.5596  0.0737
15839TIP3    H247440   8.001   8.278   3.186  0.3431 -1.6456  2.2276
15840TIP3   OH247441   6.142   0.367   0.467 -0.1002  0.4371  0.0503
15840TIP3    H147442   6.144   0.451   0.421 -0.6882  0.6496  0.4041
15840TIP3    H247443   6.055   0.331   0.447  0.4276 -0.4220 -0.7006
15841TIP3   OH247444   7.032   2.385   6.245 -0.1359  0.1513 -0.2212
15841TIP3    H147445   6.962   2.411   6.305 -0.4895  0.2203 -0.6649
15841TIP3    H247446   7.112   2.418   6.286 -0.4453  0.7516 -0.1035
15842TIP3   OH247447   6.842   5.203   5.550  0.5181 -0.3004 -0.0268
15842TIP3    H147448   6.841   5.196   5.646  0.9817  0.6632  0.0530
15842TIP3    H247449   6.903   5.274   5.532 -2.7453  2.4554 -0.8192
15843TIP3   OH247450   6.387   1.809   1.342  0.2039  0.3619 -0.0484
15843TIP3    H147451   6.374   1.748   1.269 -1.3451 -1.8101  1.9649
15843TIP3    H247452   6.472   1.848   1.325  1.5051 -2.7468 -1.1741
15844TIP3   OH247453   5.832   5.757   6.878  0.3395 -0.5433 -0.3720
15844TIP3    H147454   5.778   5.789   6.806 -1.8682 -1.7055  0.7387
15844TIP3    H247455   5.865   5.837   6.920 -0.2761  0.1742 -1.2413
15845TIP3   OH247456   0.155   8.080   0.469  0.1201 -0.4739 -0.6228
15845TIP3    H147457   0.071   8.068   0.424 -1.1804  2.7032  0.7736
15845TIP3    H247458   0.138   8.056   0.559  0.2839  1.4618 -0.0443
15846TIP3   OH247459   7.485   4.855   7.186  0.6757 -0.3179 -0.1476
15846TIP3    H147460   7.497   4.939   7.143  1.9289 -0.8420 -0.8503
15846TIP3    H247461   7.513   4.871   7.277 -2.0095  0.7918  0.5526
15847TIP3   OH247462   5.477   3.642   5.579 -0.1002  0.0420 -0.3308
15847TIP3    H147463   5.421   3.605   5.647  0.5943  0.5125  0.4930
15847TIP3    H247464   5.564   3.647   5.619  0.3353  0.2109 -1.2893
15848TIP3   OH247465   5.959   5.504   7.082  0.0729  0.0025  0.4310
15848TIP3    H147466   5.886   5.565   7.089  0.6240  0.5073  2.0647
15848TIP3    H247467   5.971   5.471   7.171  0.0868 -2.1358 -0.3560
15849TIP3   OH247468   4.959   6.454   7.242 -0.3799 -0.8081 -0.0017
15849TIP3    H147469   4.923   6.479   7.157 -0.3788  1.7681  0.7181
15849TIP3    H247470   5.015   6.527   7.267  2.8790 -3.3408  0.3921
15850TIP3   OH247471   8.015   7.402   1.261 -0.2790  0.3983  0.2452
15850TIP3    H147472   8.006   7.479   1.318  1.3514 -0.5185  1.7966
15850TIP3    H247473   7.940   7.348   1.281 -1.1533  1.3274 -0.4658
15851TIP3   OH247474   5.191   5.386   6.513 -0.0231 -0.0039 -0.4274
15851TIP3    H147475   5.149   5.470   6.494 -0.5877 -0.4722 -1.2794
15851TIP3    H247476   5.134   5.321   6.472 -0.2826 -0.9093  1.2917
15852TIP3   OH247477   8.575   4.591   6.164 -0.5148  0.4655  0.4730
15852TIP3    H147478   8.508   4.555   6.222 -0.6304 -0.1300 -0.0345
15852TIP3    H247479   8.539   4.582   6.076  1.3545 -2.3459 -0.0482
15853TIP3   OH247480   0.414   7.475   1.088 -0.2237 -0.8046 -0.7350
15853TIP3    H147481   0.470   7.516   1.021 -0.5767  0.4670 -0.2711
15853TIP3    H247482   0.419   7.381   1.069  1.6601 -0.6701 -1.0111
15854TIP3   OH247483   6.268   4.317   5.466 -0.2974  0.0468  0.3934
15854TIP3    H147484   6.331   4.382   5.434  1.4622 -2.5313 -1.5844
15854TIP3    H247485   6.191   4.328   5.409  0.7230 -0.8351 -1.1879
15855TIP3   OH247486   5.702   5.843   6.655 -0.4209 -0.1658  0.4263
15855TIP3    H147487   5.787   5.857   6.613 -0.4554  1.3615  0.8258
15855TIP3    H247488   5.649   5.918   6.628 -1.8693 -1.4420 -0.3502
15856TIP3   OH247489   6.123   4.322   5.021  1.0070 -0.2869 -0.0651
15856TIP3    H147490   6.198   4.382   5.018 -0.0746  1.1698  1.1817
15856TIP3    H247491   6.117   4.287   4.932  3.9156 -1.4026  0.0894
15857TIP3   OH247492   7.569   4.333   5.174  0.0391 -0.0947  0.3495
15857TIP3    H147493   7.611   4.298   5.095  0.1364  1.7476 -0.4532
15857TIP3    H247494   7.641   4.363   5.229 -0.0791 -0.1489  0.5337
15858TIP3   OH247495   5.110   4.335   6.981 -0.2415 -0.1652 -0.0868
15858TIP3    H147496   5.179   4.294   6.929 -0.0977  0.7978 -0.6617
15858TIP3    H247497   5.157   4.373   7.056 -0.2096  0.0611 -0.2215
15859TIP3   OH247498   6.996   4.065   6.972  0.4893 -0.1843  0.8919
15859TIP3    H147499   7.019   4.153   7.001  1.3893 -0.5023  1.1554
15859TIP3    H247500   7.049   4.052   6.893 -0.6539  0.0211  0.0770
15860TIP3   OH247501   1.222   1.798   1.560 -0.3389  0.4732  0.3998
15860TIP3    H147502   1.313   1.783   1.586  0.6821  2.1994 -1.9854
15860TIP3    H247503   1.182   1.842   1.636  0.3477 -1.7287  2.0749
15861TIP3   OH247504   7.196   4.770   6.276 -0.7612  0.3156  0.0535
15861TIP3    H147505   7.171   4.710   6.206  1.7482  0.5834 -1.1216
15861TIP3    H247506   7.138   4.846   6.264 -0.4870  0.2882 -1.6387
15862TIP3   OH247507   0.911   7.758   0.892 -0.1771  0.7422 -0.3208
15862TIP3    H147508   0.885   7.797   0.808  0.7334 -0.9776 -1.4539
15862TIP3    H247509   0.851   7.684   0.902  1.0627 -0.3107 -0.5131
15863TIP3   OH247510   3.760   2.012   0.189 -0.1583  0.2211 -0.0641
15863TIP3    H147511   3.781   1.988   0.098 -1.6641 -1.0990 -0.0781
15863TIP3    H247512   3.733   2.104   0.184  0.6061  0.4130 -0.8141
15864TIP3   OH247513   5.115   2.749   5.387  0.3006 -0.3209  0.0960
15864TIP3    H147514   5.065   2.670   5.408 -1.9082  0.9445 -0.1639
15864TIP3    H247515   5.082   2.775   5.301  1.0573  0.8243  0.1446
15865TIP3   OH247516   4.755   1.386   1.554 -0.0329  0.2552 -0.0197
15865TIP3    H147517   4.849   1.376   1.570 -0.2343 -0.5572  0.6719
15865TIP3    H247518   4.717   1.305   1.586 -0.8136 -0.0292 -1.5945
15866TIP3   OH247519   3.291   0.606   0.458  0.0581 -0.3375  0.0307
15866TIP3    H147520   3.331   0.527   0.495 -2.3083 -1.6377 -0.1109
15866TIP3    H247521   3.208   0.615   0.505 -1.3362  0.0585 -2.4208
15867TIP3   OH247522   4.033   1.673   0.551  0.2281  0.4943 -0.4335
15867TIP3    H147523   4.048   1.767   0.546  0.7055  0.3619 -1.8711
15867TIP3    H247524   3.943   1.664   0.583 -0.2677  1.4623 -1.5265
15868TIP3   OH247525   5.739   5.026   7.192  0.2754 -0.1712 -0.6410
15868TIP3    H147526   5.769   5.117   7.182 -4.0134  1.2956 -1.2296
15868TIP3    H247527   5.733   4.993   7.102  3.0335 -1.5647 -0.3819
15869TIP3   OH247528   4.230   1.271   1.927  0.1454 -0.2056  0.0225
15869TIP3    H147529   4.267   1.313   1.849  0.6655  0.1949  0.4814
15869TIP3    H247530   4.298   1.280   1.994  0.5687 -2.4762 -0.0773
15870TIP3   OH247531   6.166   0.822   0.814 -0.1975 -0.2168 -0.5257
15870TIP3    H147532   6.116   0.874   0.750  0.8382  1.0980 -0.2869
15870TIP3    H247533   6.247   0.871   0.826  1.3179 -2.5002 -1.1652
15871TIP3   OH247534   8.249   4.267   6.680  0.1331 -0.0817  0.2220
15871TIP3    H147535   8.159   4.286   6.656 -0.0403  0.4660  1.2941
15871TIP3    H247536   8.291   4.353   6.687 -0.3718 -0.0785  3.9946
15872TIP3   OH247537   7.611   4.456   7.077 -0.1188 -0.2516  0.0566
15872TIP3    H147538   7.658   4.454   7.160 -1.7345 -0.6766  0.9862
15872TIP3    H247539   7.663   4.400   7.019  1.6782  1.0256  0.4010
15873TIP3   OH247540   4.606   0.684   1.679 -0.2136  0.4851 -0.3073
15873TIP3    H147541   4.693   0.649   1.661 -0.3313  0.9070 -1.7860
15873TIP3    H247542   4.558   0.611   1.718  0.3493 -0.1883 -0.8695
15874TIP3   OH247543   3.812   1.613   0.276 -0.1403  0.5276 -0.7659
15874TIP3    H147544   3.865   1.569   0.210  0.8269 -0.9654  0.9901
15874TIP3    H247545   3.864   1.690   0.301  1.1979 -0.9029  0.9125
15875TIP3   OH247546   5.552   7.318   6.258 -0.0212  0.4692 -0.1311
15875TIP3    H147547   5.589   7.234   6.286 -0.7095  0.4955  0.9179
15875TIP3    H247548   5.575   7.326   6.166 -1.5543 -1.7534 -0.7487
15876TIP3   OH247549   6.294   5.490   7.243  0.7042  0.5337  0.5091
15876TIP3    H147550   6.302   5.582   7.271 -1.0308  0.9562 -0.2871
15876TIP3    H247551   6.239   5.494   7.164  1.8462 -1.0620 -0.3873
15877TIP3   OH247552   0.787   7.717   0.157  0.3941  0.7311  0.6391
15877TIP3    H147553   0.751   7.703   0.245 -1.9314  0.0013 -0.3772
15877TIP3    H247554   0.821   7.807   0.159  0.4080  0.7047  2.2948
15878TIP3   OH247555   7.390   5.578   6.748 -0.3083  0.0771 -0.3039
15878TIP3    H147556   7.363   5.640   6.816 -0.6179 -1.2307  0.8092
15878TIP3    H247557   7.439   5.511   6.796  0.4257 -0.2807 -1.5507
15879TIP3   OH247558   4.147   1.123   0.270  0.4225 -0.5481 -0.3056
15879TIP3    H147559   4.150   1.203   0.217  1.4630 -0.4416 -0.0931
15879TIP3    H247560   4.091   1.145   0.344  0.1528 -0.2283 -0.6066
15880TIP3   OH247561   5.760   4.453   5.704 -0.0602 -0.2286 -0.2124
15880TIP3    H147562   5.769   4.370   5.750  0.8511 -0.3881 -0.6727
15880TIP3    H247563   5.734   4.515   5.773 -1.2482 -0.9822  0.0339
15881TIP3   OH247564   3.567   6.519   5.229  0.0138 -0.4973  0.1253
15881TIP3    H147565   3.491   6.479   5.271 -0.5637 -1.0209 -1.3907
15881TIP3    H247566   3.539   6.608   5.207 -0.0568 -0.5867 -0.1469
15882TIP3   OH247567   8.015   3.950   7.189 -0.8513 -0.1794  0.4175
15882TIP3    H147568   8.068   4.022   7.153 -0.6679 -0.3217  0.3951
15882TIP3    H247569   7.935   3.951   7.136  0.2549 -1.6454 -1.3572
15883TIP3   OH247570   4.373   0.104   1.091 -0.0387  0.7385 -0.0321
15883TIP3    H147571   4.328   0.182   1.060 -2.5498  0.0243  1.6571
15883TIP3    H247572   4.358   0.103   1.186 -1.5392 -2.6467 -0.2046
15884TIP3   OH247573   5.085   4.608   6.285 -0.0104  0.1972 -0.8559
15884TIP3    H147574   5.042   4.684   6.325 -0.5170 -0.0917 -0.8486
15884TIP3    H247575   5.165   4.644   6.245  0.7456  0.4149  0.8062
15885TIP3   OH247576   3.570   2.883   1.823 -0.3391  0.5122 -0.9158
15885TIP3    H147577   3.558   2.925   1.738  1.1548 -0.7989 -1.7950
15885TIP3    H247578   3.481   2.861   1.852 -0.9687  2.3850 -1.3950
15886TIP3   OH247579   4.734   6.663   5.167  0.4809  0.1671  0.1138
15886TIP3    H147580   4.663   6.607   5.135  1.4254 -0.7182 -0.4562
15886TIP3    H247581   4.757   6.628   5.253  1.2142 -0.4731 -0.3329
15887TIP3   OH247582   6.305   4.175   6.507  0.3374 -0.0788  0.0529
15887TIP3    H147583   6.393   4.187   6.543  0.9357 -0.3017 -1.3125
15887TIP3    H247584   6.318   4.174   6.412 -1.2774  0.9814 -0.1902
15888TIP3   OH247585   6.051   3.859   7.084  0.0923 -0.2466  0.2155
15888TIP3    H147586   6.028   3.906   7.004  0.8188 -1.1045 -0.5058
15888TIP3    H247587   5.983   3.792   7.092 -0.6712  0.6039  0.9861
15889TIP3   OH247588   7.207   4.088   7.219  0.0600  0.2834  0.3874
15889TIP3    H147589   7.221   4.133   7.136 -3.7795  1.1656  0.0830
15889TIP3    H247590   7.208   4.159   7.285  0.5263 -0.0564  0.7465
15890TIP3   OH247591   6.526   0.639   0.991  0.3023  0.4546 -0.2402
15890TIP3    H147592   6.472   0.622   0.914  0.1090  0.3889 -0.0898
15890TIP3    H247593   6.493   0.578   1.058  0.6670  0.3018 -0.1981
15891TIP3   OH247594   3.631   0.315   0.733  0.6062 -0.3549  0.0168
15891TIP3    H147595   3.585   0.353   0.659  1.2367 -0.3685 -0.3887
15891TIP3    H247596   3.577   0.242   0.760  0.0579  0.0301 -0.0383
15892TIP3   OH247597   4.813   3.855   6.812 -0.6124  0.3767  0.8002
15892TIP3    H147598   4.766   3.908   6.748  0.7078  0.0543 -0.4711
15892TIP3    H247599   4.891   3.906   6.833 -0.1008 -0.3482  0.7132
15893TIP3   OH247600   5.193   3.152   7.009 -0.7858 -0.0339  0.1709
15893TIP3    H147601   5.272   3.098   7.001 -0.7460 -0.0974  0.9201
15893TIP3    H247602   5.131   3.095   7.055 -0.5624  0.7385  1.4698
15894TIP3   OH247603   5.490   3.398   5.711 -0.3448 -0.0914 -0.0936
15894TIP3    H147604   5.401   3.410   5.744 -0.0509  3.7528 -0.4475
15894TIP3    H247605   5.546   3.432   5.780  0.6267  1.4728 -1.6241
15895TIP3   OH247606   6.611   5.654   6.217 -0.5895 -0.1937 -0.6195
15895TIP3    H147607   6.664   5.590   6.171 -1.7337 -1.2744 -0.4513
15895TIP3    H247608   6.637   5.645   6.309 -1.1637 -0.8247 -0.5165
15896TIP3   OH247609   5.219   4.772   5.554 -0.7369  0.2589  0.5101
15896TIP3    H147610   5.147   4.711   5.542  0.1253 -0.8405  0.9466
15896TIP3    H247611   5.280   4.751   5.483 -1.0761  1.5452 -0.1875
15897TIP3   OH247612   5.837   0.441   1.133  0.2378  0.5535 -0.3069
15897TIP3    H147613   5.877   0.479   1.212  0.3033 -0.0169 -0.0626
15897TIP3    H247614   5.901   0.456   1.064  1.9291 -2.3351  0.5199
15898TIP3   OH247615   5.577   0.635   0.859 -0.3285  0.6530  0.1609
15898TIP3    H147616   5.649   0.690   0.889 -1.7651  2.4979  0.3186
15898TIP3    H247617   5.557   0.579   0.934  2.5612 -1.6979 -0.7056
15899TIP3   OH247618   6.357   5.000   6.245  0.4010 -0.3381 -0.3621
15899TIP3    H147619   6.346   4.969   6.335  2.2805 -4.4541 -1.4075
15899TIP3    H247620   6.272   5.037   6.222 -0.9878 -1.7468  2.2347
15900TIP3   OH247621   5.007   6.407   6.893  0.5801 -0.5435 -1.0319
15900TIP3    H147622   5.079   6.471   6.894 -0.3428  0.5149  0.4414
15900TIP3    H247623   5.045   6.329   6.852  2.1569  0.4604 -1.5415
15901TIP3   OH247624   5.345   4.940   6.501 -0.2813 -0.4628 -0.0292
15901TIP3    H147625   5.404   4.867   6.522 -1.4510 -1.4486 -0.1457
15901TIP3    H247626   5.307   4.917   6.417  0.0573  0.7588 -0.5342
15902TIP3   OH247627   7.653   2.643   2.443 -0.0917  0.2256 -0.5404
15902TIP3    H147628   7.697   2.673   2.364 -1.2366 -0.8485 -1.6016
15902TIP3    H247629   7.715   2.663   2.514  1.2446  0.5249 -1.7737
15903TIP3   OH247630   8.156   7.728   0.199 -0.3513 -0.7226 -0.2995
15903TIP3    H147631   8.230   7.779   0.166  0.6863 -1.8571  0.2323
15903TIP3    H247632   8.163   7.735   0.294  0.5358 -2.8452 -0.1810
15904TIP3   OH247633   4.789   2.452   0.063 -0.3216 -0.4881  0.2498
15904TIP3    H147634   4.862   2.394   0.038 -1.2355 -1.4911 -0.1305
15904TIP3    H247635   4.829   2.517   0.120  1.8678  2.0292 -3.9600
15905TIP3   OH247636   3.631   3.065   0.059  0.1974  0.4949 -0.4487
15905TIP3    H147637   3.643   2.980   0.101  2.1471  0.7325 -0.4936
15905TIP3    H247638   3.630   3.128   0.131  0.4765  0.5986 -0.5339
15906TIP3   OH247639   6.147   5.919   7.159  0.3063  0.1982  0.2986
15906TIP3    H147640   6.160   6.011   7.183 -0.6334  0.7554 -1.2124
15906TIP3    H247641   6.064   5.919   7.111  1.1434 -1.1545 -1.1850
15907TIP3   OH247642   7.451   4.808   6.385 -0.9364  0.2695 -0.1687
15907TIP3    H147643   7.459   4.880   6.323  0.2080 -0.7434 -1.2321
15907TIP3    H247644   7.365   4.770   6.367 -1.9906  1.9696  1.0997
15908TIP3   OH247645   5.184   6.162   4.194 -0.0651  0.4028 -0.1688
15908TIP3    H147646   5.100   6.207   4.191 -3.0456 -4.6667  1.0143
15908TIP3    H247647   5.214   6.174   4.284 -1.8847 -1.5660  0.7468
15909TIP3   OH247648   3.930   2.008   1.122  0.7288  0.1938  0.4227
15909TIP3    H147649   3.892   2.014   1.210 -2.1384 -0.9390 -0.6781
15909TIP3    H247650   3.926   1.915   1.101 -0.7657  0.7452 -1.8270
15910TIP3   OH247651   2.936   0.466   0.533  0.1220 -0.2886  0.1830
15910TIP3    H147652   2.865   0.516   0.493  1.2201  0.9149 -0.2927
15910TIP3    H247653   2.916   0.467   0.627 -0.4581  0.0950  0.0555
15911TIP3   OH247654   1.920   7.873   1.698  0.2705  0.1765  0.6188
15911TIP3    H147655   1.930   7.778   1.704 -0.8953 -0.1299 -1.6738
15911TIP3    H247656   1.980   7.898   1.627 -0.8603  0.8889 -0.0846
15912TIP3   OH247657   3.617   0.979   0.841  0.2120  0.2363 -0.4414
15912TIP3    H147658   3.613   0.970   0.746  0.5718  3.8373 -0.8614
15912TIP3    H247659   3.710   0.994   0.859 -0.0630  1.0888  0.3026
15913TIP3   OH247660   3.684   0.569   0.400 -0.4178 -0.7159  0.4120
15913TIP3    H147661   3.747   0.496   0.400  0.8895  0.3894  0.1688
15913TIP3    H247662   3.738   0.646   0.420 -1.5480  0.3849 -0.7711
15914TIP3   OH247663   6.880   5.803   6.351 -0.1114 -0.5902 -0.0098
15914TIP3    H147664   6.952   5.796   6.289 -1.1127  0.5232 -1.3558
15914TIP3    H247665   6.808   5.756   6.309 -0.3269 -1.2355  1.0709
15915TIP3   OH247666   6.039   6.184   4.520  0.2500  0.3032  0.3295
15915TIP3    H147667   5.990   6.266   4.525 -0.3617  0.0151 -0.8014
15915TIP3    H247668   5.984   6.121   4.567  0.5923  0.4790  0.9688
15916TIP3   OH247669   7.490   4.314   6.400 -0.1007  0.5419 -0.4742
15916TIP3    H147670   7.473   4.220   6.400  0.6041  0.4037 -1.4612
15916TIP3    H247671   7.404   4.354   6.416 -0.5772 -0.2325 -1.0700
15917TIP3   OH247672   3.593   0.011   1.664  0.3187  0.6850  0.0344
15917TIP3    H147673   3.655   0.084   1.665  0.0960  0.8898 -0.9659
15917TIP3    H247674   3.611  -0.037   1.745  1.2184  1.2109  0.1487
15918TIP3   OH247675   4.971   4.328   5.989  0.2783  0.5748 -0.7266
15918TIP3    H147676   4.985   4.249   5.937  1.5065  1.3665 -1.6291
15918TIP3    H247677   4.897   4.372   5.946  1.0181  1.0164 -1.5456
15919TIP3   OH247678   4.272   0.891   0.229 -0.4091 -0.3114  0.5055
15919TIP3    H147679   4.232   0.835   0.296 -2.6703  0.6028 -0.0152
15919TIP3    H247680   4.250   0.980   0.256 -0.2693  0.1242 -0.7686
15920TIP3   OH247681   2.904   7.786   0.624  0.0226 -0.3921  0.0747
15920TIP3    H147682   2.922   7.853   0.558  0.6217 -0.3160  0.3059
15920TIP3    H247683   2.809   7.788   0.636 -0.4803 -2.5080 -2.9762
15921TIP3   OH247684   5.579   4.361   6.599 -0.2782  0.4088 -0.0494
15921TIP3    H147685   5.614   4.407   6.523 -2.3092  0.3299 -1.0837
15921TIP3    H247686   5.605   4.414   6.674  1.6064  0.5871 -0.8029
15922TIP3   OH247687   6.572   4.547   7.015  0.5257 -0.3189  0.0166
15922TIP3    H147688   6.629   4.617   7.048  0.7308 -0.3190 -0.3347
15922TIP3    H247689   6.571   4.482   7.086  2.1536 -1.0024 -0.5572
15923TIP3   OH247690   5.036   0.016   0.593 -0.5191  0.2699 -0.1531
15923TIP3    H147691   4.954   0.063   0.607 -0.1817  0.6097  0.7498
15923TIP3    H247692   5.095   0.051   0.660  0.6761  0.7580 -1.4187
15924TIP3   OH247693   8.707   3.845   7.058  0.5324 -0.0028 -0.3758
15924TIP3    H147694   8.668   3.928   7.088 -0.9846 -1.1027  0.8369
15924TIP3    H247695   8.637   3.781   7.072  2.2088 -1.7457  0.1473
15925TIP3   OH247696   3.106   0.542   1.831  0.3466  0.1030 -0.3417
15925TIP3    H147697   3.152   0.459   1.842 -1.6606 -1.1578 -1.3648
15925TIP3    H247698   3.063   0.535   1.746 -2.7357  0.7575  1.0978
15926TIP3   OH247699   4.522   0.835   0.961 -0.0851 -0.3333 -0.1961
15926TIP3    H147700   4.607   0.865   0.929 -0.7406  0.3774 -1.2920
15926TIP3    H247701   4.526   0.851   1.055  0.6078  0.6750 -0.3774
15927TIP3   OH247702   3.707   0.115   1.365  0.0745 -0.0705  0.1478
15927TIP3    H147703   3.751   0.058   1.428  1.1098  0.1302 -0.3968
15927TIP3    H247704   3.774   0.179   1.339 -0.6585  0.5019 -0.3506
15928TIP3   OH247705   2.631   1.243   0.588 -0.1694  0.9994  0.1653
15928TIP3    H147706   2.640   1.172   0.652 -2.6812  0.5676  0.0944
15928TIP3    H247707   2.702   1.228   0.525  1.1711  0.3318  1.8039
15929TIP3   OH247708   4.670   2.414   1.481 -0.2683 -0.0141  0.2685
15929TIP3    H147709   4.644   2.487   1.537  1.0021  1.4632 -1.0206
15929TIP3    H247710   4.624   2.429   1.398  0.5713 -0.2701 -0.2502
15930TIP3   OH247711   6.690   6.306   6.882  0.1183 -0.2800 -0.4900
15930TIP3    H147712   6.626   6.299   6.812 -0.6063  0.2242  0.1180
15930TIP3    H247713   6.641   6.292   6.962  0.7511  0.1853 -0.0107
15931TIP3   OH247714   8.124   8.054   0.192 -0.2144  0.0968 -0.1031
15931TIP3    H147715   8.182   8.127   0.214 -0.0149  0.1564 -0.8141
15931TIP3    H247716   8.062   8.050   0.265 -1.3627  2.1504 -0.8964
15932TIP3   OH247717   7.419   5.400   4.844 -0.2747 -0.3486  0.4327
15932TIP3    H147718   7.394   5.491   4.863  0.0575 -0.0541 -0.5185
15932TIP3    H247719   7.378   5.350   4.914 -2.0053  0.3380 -0.0444
15933TIP3   OH247720   8.750   4.746   7.038  0.2988  0.3973  0.1341
15933TIP3    H147721   8.793   4.661   7.049  0.3129  0.5025  0.9543
15933TIP3    H247722   8.787   4.781   6.957 -0.5180 -0.8462 -0.7926
15934TIP3   OH247723   1.179   5.997   5.936  0.0448 -0.2169  0.1487
15934TIP3    H147724   1.130   5.915   5.926  1.8296 -0.8523 -4.1698
15934TIP3    H247725   1.261   5.970   5.977  0.0879 -0.3751 -0.0396
15935TIP3   OH247726   4.971   4.302   6.527 -0.1641  0.2575 -0.4405
15935TIP3    H147727   5.040   4.366   6.506  0.1806  0.2371  0.6380
15935TIP3    H247728   4.917   4.345   6.592 -1.0966  0.2085 -1.1691
15936TIP3   OH247729   6.618   5.040   5.848 -0.0213 -0.3735 -0.3809
15936TIP3    H147730   6.594   5.069   5.936  1.7845 -0.6390  0.2253
15936TIP3    H247731   6.540   5.054   5.796 -0.4757  1.7010  0.8145
15937TIP3   OH247732   6.604   4.041   7.268  0.2397 -0.1561  0.5229
15937TIP3    H147733   6.604   3.950   7.238 -0.9638  0.0498 -0.1372
15937TIP3    H247734   6.659   4.087   7.205  0.1527 -0.2756  0.3584
15938TIP3   OH247735   6.224   3.933   4.688  0.4907 -0.5062 -0.0261
15938TIP3    H147736   6.230   3.882   4.770  1.1857  0.6591  0.6620
15938TIP3    H247737   6.309   3.977   4.682  0.6068 -0.9381 -1.6249
15939TIP3   OH247738   8.658   7.510   0.442  0.8186  0.1621  0.3243
15939TIP3    H147739   8.590   7.521   0.508  0.9313 -0.9965  0.6420
15939TIP3    H247740   8.734   7.557   0.476  0.6511  0.1803  0.6712
15940TIP3   OH247741   5.016   0.650   0.024  0.0400 -0.1461  0.4469
15940TIP3    H147742   5.024   0.566  -0.020  0.1597 -0.2267  0.6198
15940TIP3    H247743   5.103   0.690   0.016 -0.9453  1.4917 -2.6995
15941TIP3   OH247744   7.179   6.965   7.053 -0.4122 -0.1549  0.1941
15941TIP3    H147745   7.150   7.052   7.025 -0.2476 -0.3930 -0.7458
15941TIP3    H247746   7.273   6.965   7.036 -0.4219 -0.5308  0.1282
15942TIP3   OH247747   7.342   5.200   6.165  0.3506 -0.4916  0.0629
15942TIP3    H147748   7.366   5.108   6.151 -0.0258 -0.2543 -2.2058
15942TIP3    H247749   7.248   5.203   6.150  0.2386  0.1455  0.8566
15943TIP3   OH247750   1.753   0.407   3.182 -0.3502 -0.1080  0.1277
15943TIP3    H147751   1.729   0.316   3.197 -2.1074  0.5220  1.2974
15943TIP3    H247752   1.713   0.455   3.255  1.0987  1.5200 -0.1053
15944TIP3   OH247753   6.473   3.829   7.117 -0.2690  1.1563  0.4563
15944TIP3    H147754   6.422   3.753   7.089  0.1835  1.2593 -0.6477
15944TIP3    H247755   6.408   3.886   7.160 -0.6720  0.3224  0.9738
15945TIP3   OH247756   5.303   4.251   6.803  0.0524  0.3568 -0.0910
15945TIP3    H147757   5.356   4.212   6.872  1.2499  0.6243 -0.8551
15945TIP3    H247758   5.351   4.330   6.778 -0.9017  0.8053 -0.5252
15946TIP3   OH247759   5.205   3.502   5.747  0.4906  0.1448 -0.2152
15946TIP3    H147760   5.230   3.474   5.835  0.9969  0.9673 -0.0991
15946TIP3    H247761   5.125   3.553   5.760 -1.2307 -2.3570 -0.5687
15947TIP3   OH247762   0.329   6.865   0.239 -0.1539 -0.4578  0.0375
15947TIP3    H147763   0.408   6.812   0.227 -0.7082 -0.9931 -1.3259
15947TIP3    H247764   0.362   6.954   0.249  0.6029 -0.6345 -0.8347
15948TIP3   OH247765   7.222   2.974   4.328 -0.2149  0.0002  0.1046
15948TIP3    H147766   7.180   3.046   4.376  0.6683 -1.5294  3.3339
15948TIP3    H247767   7.163   2.955   4.256 -2.3018  1.5199  1.3535
15949TIP3   OH247768   1.039   7.946   0.423  0.3440 -0.3511  0.0945
15949TIP3    H147769   1.102   7.936   0.351  0.6234 -1.8384  0.5357
15949TIP3    H247770   0.953   7.943   0.381  0.5243  1.3853 -0.4751
15950TIP3   OH247771   4.986   0.164   0.228  0.1856 -0.6845 -0.3130
15950TIP3    H147772   5.060   0.224   0.224  0.3330 -0.8842 -0.5676
15950TIP3    H247773   5.024   0.077   0.213 -0.0626 -0.8160 -0.1920
15951TIP3   OH247774   3.432   0.720   0.032  0.5657  0.1953  0.0927
15951TIP3    H147775   3.476   0.790   0.082 -0.7742 -0.2572  1.9319
15951TIP3    H247776   3.471   0.639   0.065  0.6795 -0.0397 -0.6138
15952TIP3   OH247777   4.746   0.902   0.837 -0.5988 -0.2553 -0.1991
15952TIP3    H147778   4.763   0.884   0.744  0.0607  2.0903 -0.5839
15952TIP3    H247779   4.829   0.883   0.881 -1.1550 -2.1739  0.0655
15953TIP3   OH247780   2.446   0.717   0.734 -0.2752  0.4718 -0.0889
15953TIP3    H147781   2.354   0.740   0.742 -0.2788  1.1251 -1.8022
15953TIP3    H247782   2.472   0.689   0.822 -1.3720  3.0500  1.1161
15954TIP3   OH247783   1.872   4.272   5.590 -0.0339 -0.1749  0.1186
15954TIP3    H147784   1.952   4.263   5.538 -0.3233  0.8794 -0.5124
15954TIP3    H247785   1.897   4.326   5.665 -0.3061  0.7001 -0.4164
15955TIP3   OH247786   2.922   1.970   0.992 -0.6696 -0.3644  0.1865
15955TIP3    H147787   2.851   1.934   0.939 -0.3483 -0.1444 -0.4047
15955TIP3    H247788   2.879   2.019   1.062 -1.1054 -1.2670  0.5587
15956TIP3   OH247789   3.713   1.721   3.006  0.4198 -0.2924 -0.2433
15956TIP3    H147790   3.778   1.788   3.025  2.0233 -1.8999  0.0086
15956TIP3    H247791   3.629   1.766   3.015  1.4995  2.3030 -2.5732
15957TIP3   OH247792   3.975   2.851   0.657 -0.3994 -0.2907  0.3396
15957TIP3    H147793   4.051   2.794   0.666  0.1343  0.5761  1.5239
15957TIP3    H247794   3.902   2.801   0.695 -0.5246 -1.2882 -1.1773
15958TIP3   OH247795   6.935   5.673   6.833 -0.4093  0.1068 -0.0449
15958TIP3    H147796   6.953   5.734   6.905  1.5870 -0.7604  0.2006
15958TIP3    H247797   6.844   5.646   6.848 -0.4719  1.0293  1.3435
15959TIP3   OH247798   7.211   4.544   7.078 -0.0033  0.2059  0.1386
15959TIP3    H147799   7.296   4.565   7.039  0.1376  1.1548  0.9416
15959TIP3    H247800   7.148   4.597   7.029 -0.2007 -0.7340 -0.6709
15960TIP3   OH247801   6.766   5.200   7.134  0.6391 -0.2131 -0.5178
15960TIP3    H147802   6.735   5.190   7.044 -1.2551  2.3679 -0.1963
15960TIP3    H247803   6.692   5.238   7.181  1.8826 -0.7657  1.9591
15961TIP3   OH247804   3.721   1.773   2.714  0.0883  0.8178  0.1497
15961TIP3    H147805   3.683   1.792   2.800 -1.8143  1.1632 -0.7217
15961TIP3    H247806   3.781   1.846   2.698  0.3204  0.8486  1.1094
15962TIP3   OH247807   6.361   5.161   5.204 -0.8211 -0.2196  0.6344
15962TIP3    H147808   6.432   5.205   5.251  0.6401  0.0975 -1.8086
15962TIP3    H247809   6.283   5.213   5.224  0.8591  3.5089 -2.1454
15963TIP3   OH247810   6.988   3.219   5.771  0.1458 -0.0404 -0.1144
15963TIP3    H147811   6.983   3.131   5.735 -0.3451  0.0587 -0.2971
15963TIP3    H247812   7.058   3.262   5.723  0.5691 -0.4213  0.1677
15964TIP3   OH247813   6.343   3.468   5.865  0.4798  0.6428 -0.0509
15964TIP3    H147814   6.408   3.485   5.798  1.2996 -0.0584  0.5541
15964TIP3    H247815   6.371   3.522   5.940  0.0725  0.7397  0.0349
15965TIP3   OH247816   5.342   4.529   6.780 -0.2860 -0.0379  0.5654
15965TIP3    H147817   5.364   4.611   6.824  1.4554 -0.1135 -0.1129
15965TIP3    H247818   5.254   4.543   6.745  0.4324  1.9742 -0.5305
15966TIP3   OH247819   5.782   3.458   6.341  0.2109  0.0166 -0.1223
15966TIP3    H147820   5.800   3.371   6.377 -2.3206 -0.2295  0.5986
15966TIP3    H247821   5.782   3.446   6.246 -1.3576 -1.0333 -0.0013
15967TIP3   OH247822   0.049   7.942   0.730 -0.0001 -0.1204 -0.0745
15967TIP3    H147823   0.131   7.923   0.776  0.2607  3.4440  1.0960
15967TIP3    H247824   0.007   8.010   0.782 -1.3391  1.6523 -3.2790
15968TIP3   OH247825   6.520   2.805   6.533  0.6088  0.6597  0.3122
15968TIP3    H147826   6.463   2.761   6.469  1.9195 -3.7211  1.9482
15968TIP3    H247827   6.460   2.852   6.591 -1.0589 -0.6186 -0.3356
15969TIP3   OH247828   7.078   3.522   4.890  0.8446 -0.4478 -0.3973
15969TIP3    H147829   7.055   3.433   4.915  1.5860 -0.6321 -0.3577
15969TIP3    H247830   7.109   3.514   4.800  1.2328 -0.2840 -0.2785
15970TIP3   OH247831   3.194   2.769   0.755 -0.2038  0.3796 -0.3242
15970TIP3    H147832   3.154   2.762   0.842 -0.0637  0.4134 -0.2565
15970TIP3    H247833   3.124   2.747   0.694 -0.7004  1.7686 -0.2710
15971TIP3   OH247834   5.259   4.842   6.260  0.6766 -0.4483 -0.4758
15971TIP3    H147835   5.206   4.887   6.194  0.2715 -1.8432 -1.1238
15971TIP3    H247836   5.349   4.856   6.232  0.5691  0.1347 -0.5458
15972TIP3   OH247837   8.596   8.274   0.747 -0.0877  0.1613 -0.0960
15972TIP3    H147838   8.630   8.343   0.804 -1.4323 -0.0430  0.9602
15972TIP3    H247839   8.576   8.202   0.806 -1.5976 -0.0096 -0.7992
15973TIP3   OH247840   3.585   2.744   1.282 -0.1636 -0.4419  0.0642
15973TIP3    H147841   3.590   2.825   1.333 -2.0535 -0.7506  0.7585
15973TIP3    H247842   3.596   2.773   1.191 -1.5560  0.6980  0.2372
15974TIP3   OH247843   5.112   2.629   0.428  1.1795  0.3606  0.1867
15974TIP3    H147844   5.139   2.560   0.489  0.5208  0.2434  0.3464
15974TIP3    H247845   5.131   2.710   0.474  2.0314  0.2964 -0.0321
15975TIP3   OH247846   5.211   1.502   0.713 -0.2827  0.2178  0.2208
15975TIP3    H147847   5.199   1.461   0.798 -2.6637  0.4347  0.0171
15975TIP3    H247848   5.166   1.586   0.720  2.0740  1.5745 -0.3019
15976TIP3   OH247849   5.716   1.114   1.826  0.1346  0.8922 -0.0037
15976TIP3    H147850   5.770   1.182   1.867  0.6301  0.3430  0.2460
15976TIP3    H247851   5.766   1.086   1.750 -0.3251  1.1947 -0.4216
15977TIP3   OH247852   4.652   4.824   5.820  0.1977 -0.4899 -0.4301
15977TIP3    H147853   4.575   4.847   5.872 -2.4321 -1.8951 -3.5126
15977TIP3    H247854   4.679   4.738   5.853  1.8969  0.9429  2.1257
15978TIP3   OH247855   4.593   1.090   1.604 -0.4499  0.0860 -0.0154
15978TIP3    H147856   4.516   1.141   1.628 -0.2227 -0.0151  0.9466
15978TIP3    H247857   4.605   1.107   1.510 -0.7181  1.3221  0.1743
15979TIP3   OH247858   7.981   4.355   7.127 -0.2848 -0.4578 -0.4196
15979TIP3    H147859   8.068   4.348   7.087 -0.0621  0.3565 -0.0953
15979TIP3    H247860   7.924   4.304   7.070  0.9416 -3.4901  0.9958
15980TIP3   OH247861   0.743   3.956   6.466  0.1542  0.6194  0.6788
15980TIP3    H147862   0.731   3.893   6.537  0.0310  0.1032  0.2106
15980TIP3    H247863   0.664   4.010   6.468 -0.4276 -0.1900  0.1604
15981TIP3   OH247864   1.321   6.863   6.987 -0.1107  0.1817 -0.1367
15981TIP3    H147865   1.411   6.894   6.980 -0.2770  0.5834 -0.5840
15981TIP3    H247866   1.285   6.910   7.062 -0.9356  2.5739 -1.9674
15982TIP3   OH247867   7.828   6.068   5.413 -0.2886 -0.5358 -0.1387
15982TIP3    H147868   7.880   6.136   5.453  0.4271 -1.4992  0.5895
15982TIP3    H247869   7.743   6.073   5.456 -0.3692  0.1574 -0.3824
15983TIP3   OH247870   8.620   5.280   5.534  0.0132 -0.0505  0.1024
15983TIP3    H147871   8.702   5.292   5.486 -0.3538 -0.9218 -0.7469
15983TIP3    H247872   8.625   5.190   5.567 -0.2895  0.1306  0.6411
15984TIP3   OH247873   6.707   2.267   0.778  0.0467  0.3118  0.1471
15984TIP3    H147874   6.672   2.184   0.810 -0.4745  0.1867 -0.7370
15984TIP3    H247875   6.705   2.325   0.854  0.8420 -0.6128  0.8905
15985TIP3   OH247876   8.567   5.031   7.045 -0.3006  0.0917  0.0872
15985TIP3    H147877   8.511   5.033   7.123 -1.1005  1.4860 -0.5005
15985TIP3    H247878   8.520   4.974   6.984 -1.1512  1.3270 -0.4365
15986TIP3   OH247879   0.758   4.355   6.041 -0.2827  0.2492 -0.0365
15986TIP3    H147880   0.849   4.354   6.012 -0.6396  2.6138 -1.3879
15986TIP3    H247881   0.763   4.341   6.135  1.5618  1.4005  0.0652
15987TIP3   OH247882   6.575   3.458   6.116 -0.3599 -0.3435 -0.1614
15987TIP3    H147883   6.508   3.513   6.156 -0.6464 -0.7417 -0.0919
15987TIP3    H247884   6.643   3.519   6.089 -1.0871  0.1539 -0.9203
15988TIP3   OH247885   6.074   0.029   0.989 -0.1042 -0.3524 -0.2812
15988TIP3    H147886   6.032   0.008   0.905  0.7228 -1.7040 -0.3795
15988TIP3    H247887   6.150  -0.029   0.992  1.8368  2.1016 -0.1621
15989TIP3   OH247888   6.503   1.263   0.839 -0.5381  0.2235 -0.2121
15989TIP3    H147889   6.527   1.336   0.896  0.9554 -1.4906  1.4223
15989TIP3    H247890   6.518   1.296   0.751 -0.2324  2.0115  0.4837
15990TIP3   OH247891   5.838   1.755   0.511  0.8910 -0.0009 -0.4556
15990TIP3    H147892   5.845   1.851   0.512  0.6378  0.0213  1.2696
15990TIP3    H247893   5.829   1.733   0.418  0.6283  1.6684 -0.8554
15991TIP3   OH247894   4.143   0.663   0.341 -0.3521  0.1462 -0.6306
15991TIP3    H147895   4.083   0.645   0.269 -0.4197  0.7740 -0.7263
15991TIP3    H247896   4.226   0.623   0.314 -0.0310  1.4583 -1.5992
15992TIP3   OH247897   8.697   7.208   3.827 -0.0253 -0.0402  0.1268
15992TIP3    H147898   8.720   7.220   3.735  3.1689  1.1431  1.0140
15992TIP3    H247899   8.697   7.113   3.839  0.1211 -0.1865 -0.9275
15993TIP3   OH247900   0.881   3.795   5.115  0.0247  0.1591  0.1065
15993TIP3    H147901   0.957   3.770   5.168 -1.8596 -0.8321  2.4614
15993TIP3    H247902   0.873   3.890   5.128  2.6064  0.7744 -2.5833
15994TIP3   OH247903   7.327   3.914   6.876 -0.0533 -0.3881 -0.1254
15994TIP3    H147904   7.379   3.919   6.796  0.9442 -1.0665  0.4591
15994TIP3    H247905   7.301   3.822   6.882  0.4285 -0.4858  0.6499
15995TIP3   OH247906   8.775   6.242   7.100  0.2278  0.5646 -0.1666
15995TIP3    H147907   8.759   6.312   7.036 -1.6298  1.3676  1.1268
15995TIP3    H247908   8.717   6.171   7.073  1.0471  0.0800 -0.6409
15996TIP3   OH247909   5.903   2.382   0.979 -0.3164 -0.2845 -0.4351
15996TIP3    H147910   5.937   2.310   0.927 -1.8059 -0.1732 -1.5950
15996TIP3    H247911   5.809   2.382   0.962 -0.2049  2.6990 -1.4516
15997TIP3   OH247912   7.293   0.512   0.348 -0.3556  0.3892 -0.3019
15997TIP3    H147913   7.231   0.478   0.412 -0.0726 -1.0668 -0.7740
15997TIP3    H247914   7.240   0.535   0.272 -0.5018  0.6646 -0.1187
15998TIP3   OH247915   5.144   1.238   0.618  0.3740  0.3562 -0.2245
15998TIP3    H147916   5.224   1.194   0.647  0.5331  0.4811 -0.4760
15998TIP3    H247917   5.161   1.331   0.630 -0.4534  0.3031  1.5760
15999TIP3   OH247918   8.497   2.826   5.773  0.6900  0.5722 -0.1131
15999TIP3    H147919   8.490   2.894   5.840  1.4617  1.1422 -0.6009
15999TIP3    H247920   8.456   2.749   5.812 -1.8489  1.7962 -0.2164
16000TIP3   OH247921   7.534   3.818   5.168 -0.4803 -0.5085 -0.3760
16000TIP3    H147922   7.606   3.845   5.112 -0.3877  0.9751  0.4521
16000TIP3    H247923   7.456   3.854   5.126 -0.4846 -0.0143  0.0551
16001TIP3   OH247924   7.942   5.330   6.179  0.2567  0.1759  0.1536
16001TIP3    H147925   7.916   5.369   6.262  4.1183 -0.6310  1.8591
16001TIP3    H247926   7.942   5.235   6.197 -1.7009 -0.2067 -1.6804
16002TIP3   OH247927   7.699   5.162   6.136  0.4452 -0.5870 -0.1350
16002TIP3    H147928   7.656   5.096   6.081 -0.8567  0.3942 -0.3083
16002TIP3    H247929   7.650   5.242   6.120  2.7771  0.7285 -0.8485
16003TIP3   OH247930   8.275   4.267   4.729  0.2505 -0.5241 -0.1220
16003TIP3    H147931   8.226   4.308   4.658  0.8015  0.1974 -0.0987
16003TIP3    H247932   8.268   4.329   4.802 -0.5126 -1.3686  0.5383
16004TIP3   OH247933   8.278   4.989   6.389  0.0671  0.0657 -0.2038
16004TIP3    H147934   8.253   4.940   6.310 -0.6645  1.1219 -0.6272
16004TIP3    H247935   8.259   4.929   6.461 -1.1018 -0.1646 -0.6991
16005TIP3   OH247936   0.258   4.654   7.078  0.0053  0.0358 -0.4071
16005TIP3    H147937   0.250   4.667   7.172 -1.2886 -0.1687 -0.4801
16005TIP3    H247938   0.320   4.721   7.050 -0.8322  1.1446  0.3520
16006TIP3   OH247939   7.460   3.445   3.398  0.3326 -0.1793  0.6015
16006TIP3    H147940   7.442   3.538   3.386 -0.2773 -0.0932  2.1667
16006TIP3    H247941   7.374   3.405   3.412  0.5151 -1.1004 -0.7638
16007TIP3   OH247942   3.167   7.948   0.453 -0.0577  0.7613  0.1709
16007TIP3    H147943   3.185   7.969   0.545  0.2731  0.2085  0.2353
16007TIP3    H247944   3.218   7.869   0.436 -2.3393 -0.8066  0.3408
16008TIP3   OH247945   5.643   3.638   6.669 -0.4821  0.3017  0.1637
16008TIP3    H147946   5.613   3.642   6.578  0.9204  0.0076 -0.3204
16008TIP3    H247947   5.716   3.577   6.668 -0.2650  0.5233  1.4407
16009TIP3   OH247948   7.879   3.372   6.611  0.0548 -0.2159  0.1868
16009TIP3    H147949   7.863   3.375   6.517 -0.6373 -0.8556  0.2766
16009TIP3    H247950   7.963   3.328   6.619  0.4567  0.4708 -0.1578
16010TIP3   OH247951   0.119   6.646   0.636 -0.0554  0.1435  0.4275
16010TIP3    H147952   0.204   6.668   0.673  0.2903 -1.8033  0.8164
16010TIP3    H247953   0.122   6.684   0.548  2.0386 -1.6565 -0.3360
16011TIP3   OH247954   4.812   0.786   1.406  0.7576 -0.3546  0.5971
16011TIP3    H147955   4.717   0.776   1.400  0.6185  0.4339  1.4134
16011TIP3    H247956   4.825   0.854   1.472  1.8574  0.3380 -0.3187
16012TIP3   OH247957   0.393   3.243   6.609 -0.1734 -0.3410 -0.3225
16012TIP3    H147958   0.298   3.249   6.607 -0.1134  0.1580 -2.3413
16012TIP3    H247959   0.411   3.149   6.614 -0.7703 -0.4357  0.0742
16013TIP3   OH247960   7.242   6.481   7.066  0.6972  0.0850 -1.0176
16013TIP3    H147961   7.284   6.395   7.062  0.5343  0.0071 -1.0616
16013TIP3    H247962   7.233   6.507   6.975 -0.0226 -0.2295 -1.0378
16014TIP3   OH247963   8.576   6.068   7.035  0.5469 -0.6173  0.1101
16014TIP3    H147964   8.571   6.040   6.944  0.6282  0.6024 -0.2855
16014TIP3    H247965   8.486   6.061   7.068  0.5497 -1.2213 -0.0192
16015TIP3   OH247966   3.661   7.672   1.498 -0.2764  0.2617  0.0148
16015TIP3    H147967   3.700   7.691   1.584  0.5227 -3.7173  0.6514
16015TIP3    H247968   3.730   7.690   1.435  0.7128 -1.2106  0.6488
16016TIP3   OH247969   6.850   4.591   6.790 -0.0631  0.4771  0.2033
16016TIP3    H147970   6.875   4.636   6.871 -0.0735 -0.3579  0.6795
16016TIP3    H247971   6.788   4.650   6.747 -1.3826  0.1693  1.6447
16017TIP3   OH247972   4.014   0.115   0.120 -0.0843 -0.3508 -0.0356
16017TIP3    H147973   4.107   0.135   0.110 -0.0247 -0.4955  0.2232
16017TIP3    H247974   4.011   0.049   0.189 -0.3524 -0.5999 -0.2833
16018TIP3   OH247975   0.666   5.059   7.158 -0.1268  0.6000 -0.0793
16018TIP3    H147976   0.679   5.102   7.243 -0.8572  2.0458 -0.6808
16018TIP3    H247977   0.688   5.127   7.093 -0.0856 -0.3279 -1.0448
16019TIP3   OH247978   6.775   4.139   6.780  0.2239 -0.4652 -0.4461
16019TIP3    H147979   6.846   4.096   6.733  0.5293  0.3051 -0.6942
16019TIP3    H247980   6.816   4.171   6.861  0.5711  1.4917 -1.3732
16020TIP3   OH247981   4.798   2.898   2.335 -0.6590  0.2036 -0.3432
16020TIP3    H147982   4.836   2.810   2.331  0.1516  0.5820 -1.2512
16020TIP3    H247983   4.874   2.957   2.331 -1.1691  0.9404  0.6408
16021TIP3   OH247984   8.040   5.662   6.697  0.9215 -0.4461  0.4688
16021TIP3    H147985   8.131   5.686   6.678  0.8134 -0.6947 -0.3986
16021TIP3    H247986   8.008   5.731   6.755  1.8563 -0.6955  1.2802
16022TIP3   OH247987   8.505   5.558   5.181 -0.1899  0.1160  0.5412
16022TIP3    H147988   8.502   5.653   5.179 -1.3133  0.0788  0.5070
16022TIP3    H247989   8.437   5.530   5.120  0.0267 -0.7171  0.6706
16023TIP3   OH247990   7.668   6.073   5.923  0.7200  0.2394 -0.3770
16023TIP3    H147991   7.699   5.984   5.906 -0.9682 -0.4339 -0.0060
16023TIP3    H247992   7.739   6.114   5.971  2.0829 -0.4750 -1.7184
16024TIP3   OH247993   5.786   1.699   1.243 -0.4179 -0.3713  0.1544
16024TIP3    H147994   5.848   1.728   1.310  1.3683  0.1278 -1.6851
16024TIP3    H247995   5.728   1.774   1.230 -1.1506 -0.6679  1.5211
16025TIP3   OH247996   3.877   0.721   0.513 -0.0694  0.5755  0.3597
16025TIP3    H147997   3.886   0.717   0.608 -0.3238 -0.8172  0.3425
16025TIP3    H247998   3.967   0.720   0.480  0.0002  0.1156  0.5628
16026TIP3   OH247999   8.279   6.396   7.077  0.1291  0.2762 -0.1524
16026TIP3    H148000   8.186   6.419   7.073 -0.2642 -0.8818  1.6292
16026TIP3    H248001   8.285   6.309   7.038  0.8325  1.2245 -2.2519
16027TIP3   OH248002   7.369   5.808   5.782 -0.5275  0.0927 -0.2795
16027TIP3    H148003   7.415   5.874   5.730  0.4878 -0.3610  0.0368
16027TIP3    H248004   7.362   5.846   5.869 -1.2226  0.3767 -0.4539
16028TIP3   OH248005   8.083   5.110   6.717  0.0646  0.1432  0.6275
16028TIP3    H148006   8.172   5.102   6.683 -0.3254  1.7759 -0.7825
16028TIP3    H248007   8.029   5.133   6.642 -1.8696 -2.4401  1.1277
16029TIP3   OH248008   7.126   3.894   4.576  0.6455  0.4939 -0.3831
16029TIP3    H148009   7.172   3.824   4.531 -0.9804 -1.6773  1.2138
16029TIP3    H248010   7.034   3.882   4.552  0.1555  1.1148  1.1130
16030TIP3   OH248011   8.016   5.882   5.287  0.1559  0.8776 -0.2216
16030TIP3    H148012   7.963   5.948   5.333 -0.8456 -0.7340  0.9761
16030TIP3    H248013   7.955   5.841   5.226  0.5133  0.3871 -0.2501
16031TIP3   OH248014   7.867   3.730   5.672 -0.1225  0.0708  0.2455
16031TIP3    H148015   7.885   3.649   5.720  0.4918  0.5531  0.8295
16031TIP3    H248016   7.913   3.720   5.589 -0.5516 -0.4380  0.0661
16032TIP3   OH248017   3.212   7.913   1.292 -0.0498  0.0701 -0.2665
16032TIP3    H148018   3.307   7.900   1.300 -0.3349 -2.7202 -0.9746
16032TIP3    H248019   3.174   7.859   1.362 -1.1124  1.9512  0.6568
16033TIP3   OH248020   1.210   8.211   0.974  0.0187  0.5949 -0.0128
16033TIP3    H148021   1.227   8.127   1.017  0.9788  0.3566 -0.8436
16033TIP3    H248022   1.145   8.190   0.906 -2.1972  1.1384  1.8784
16034TIP3   OH248023   0.300   4.672   6.772 -0.4077  0.3814  0.0007
16034TIP3    H148024   0.258   4.725   6.840 -2.8409  0.2896 -1.3571
16034TIP3    H248025   0.235   4.604   6.752  0.8914 -0.4949 -1.3334
16035TIP3   OH248026   8.169   6.779   3.201  0.2541 -0.1472 -0.1286
16035TIP3    H148027   8.182   6.865   3.161  2.5028  0.1833  1.2550
16035TIP3    H248028   8.208   6.718   3.138 -1.1240 -0.1712 -0.9923
16036TIP3   OH248029   6.246   6.661   5.924 -0.5286  0.1015 -0.2048
16036TIP3    H148030   6.298   6.648   6.003  1.2453  0.8544 -1.2186
16036TIP3    H248031   6.155   6.659   5.954  0.1562  2.2231  2.1533
16037TIP3   OH248032   3.860   2.026   2.213 -0.1617 -0.1378 -0.4682
16037TIP3    H148033   3.807   1.971   2.270 -1.4670 -1.6372 -3.0081
16037TIP3    H248034   3.919   2.073   2.272 -1.6043 -1.4268  2.0818
16038TIP3   OH248035   8.121   6.075   6.214 -0.1349  0.3334  0.1647
16038TIP3    H148036   8.184   6.138   6.250 -0.6280  0.8955  0.0451
16038TIP3    H248037   8.174   6.019   6.157  0.4213  0.2355  0.7673
16039TIP3   OH248038   7.735   4.767   5.011 -0.0483 -0.2579 -0.1919
16039TIP3    H148039   7.737   4.716   5.092 -0.2505 -0.7040 -0.4639
16039TIP3    H248040   7.792   4.720   4.951 -0.7602 -0.5406 -0.6589
16040TIP3   OH248041   5.819   2.087   1.099 -0.1762 -0.1402 -0.1058
16040TIP3    H148042   5.823   2.110   1.191 -0.5636 -1.5227  0.2640
16040TIP3    H248043   5.902   2.117   1.063 -0.6496  1.8085  0.3466
16041TIP3   OH248044   6.996   4.973   5.391 -0.0070  0.4771 -0.3179
16041TIP3    H148045   6.950   4.908   5.445 -0.9797  1.9691  0.6847
16041TIP3    H248046   6.966   5.057   5.425  1.3585  1.4554 -1.5087
16042TIP3   OH248047   6.678   3.784   6.365  0.3260 -0.0787 -0.0146
16042TIP3    H148048   6.589   3.815   6.346  0.3592 -0.3484 -0.6237
16042TIP3    H248049   6.683   3.783   6.460 -1.2788 -2.6710  0.0926
16043TIP3   OH248050   5.786   5.147   5.959  0.2504 -0.1032 -0.2823
16043TIP3    H148051   5.811   5.066   6.004 -0.8782 -0.1782  0.2248
16043TIP3    H248052   5.767   5.119   5.869 -1.2393 -0.5971  0.1758
16044TIP3   OH248053   7.753   3.946   7.041 -0.0538 -0.3110  0.5344
16044TIP3    H148054   7.790   3.927   6.955 -0.7453 -3.7128  0.9393
16044TIP3    H248055   7.670   3.991   7.022  0.4790  0.2594 -0.5100
16045TIP3   OH248056   6.384   3.466   0.691 -0.3103 -0.1899 -0.2210
16045TIP3    H148057   6.396   3.371   0.685  0.0405 -0.0626 -1.8640
16045TIP3    H248058   6.338   3.489   0.611 -0.8850  0.9609  0.4327
16046TIP3   OH248059   6.090   0.318   0.148  0.6833 -0.4132 -0.0100
16046TIP3    H148060   6.166   0.376   0.142  2.2739 -2.3336  0.8733
16046TIP3    H248061   6.106   0.250   0.083 -0.3469 -0.7740  0.1036
16047TIP3   OH248062   8.307   5.502   5.896 -0.0480 -0.1093  0.4497
16047TIP3    H148063   8.353   5.419   5.902  1.0807  0.6406  2.5812
16047TIP3    H248064   8.251   5.505   5.974 -0.9522  0.6300 -0.2003
16048TIP3   OH248065   7.809   6.079   6.752 -0.1468 -0.4242 -0.0855
16048TIP3    H148066   7.861   6.110   6.825 -1.3251 -0.2584  0.6951
16048TIP3    H248067   7.723   6.119   6.765 -0.9511 -1.9911 -0.4493
16049TIP3   OH248068   7.120   4.447   6.664 -0.0690  0.2144  0.0720
16049TIP3    H148069   7.203   4.480   6.697  0.2415 -0.4173 -0.0713
16049TIP3    H248070   7.053   4.501   6.707  0.4481  1.4710 -0.6531
16050TIP3   OH248071   6.862   1.241   2.391  0.1378  0.2798 -0.2817
16050TIP3    H148072   6.883   1.187   2.314 -0.7793 -0.8314  0.2215
16050TIP3    H248073   6.841   1.327   2.355  1.8946  0.3911 -1.0872
16051TIP3   OH248074   1.603   8.165   0.018  0.3963  0.4460  0.1284
16051TIP3    H148075   1.580   8.210  -0.064  1.0728 -0.7965 -0.7543
16051TIP3    H248076   1.519   8.149   0.060 -0.0892 -0.4624 -1.1569
16052TIP3   OH248077   6.316   4.160   5.183 -0.1063 -0.4838  0.1769
16052TIP3    H148078   6.243   4.202   5.139 -0.5134  0.1236  1.3997
16052TIP3    H248079   6.279   4.124   5.264  0.3631 -2.6576 -0.5309
16053TIP3   OH248080   5.848   4.938   6.128 -0.6393 -0.4230 -0.1264
16053TIP3    H148081   5.802   4.856   6.112 -2.1499  0.6912 -1.6363
16053TIP3    H248082   5.816   4.967   6.214 -0.9091 -0.8725 -0.0748
16054TIP3   OH248083   1.314   6.102   6.384  0.5449 -0.0027 -0.2994
16054TIP3    H148084   1.383   6.036   6.388 -1.0693 -1.5671  3.0633
16054TIP3    H248085   1.360   6.185   6.392  2.0272 -1.0685  3.2186
16055TIP3   OH248086   7.065   2.558   1.741  0.0679 -0.1722 -0.1555
16055TIP3    H148087   7.140   2.607   1.777 -1.9289  1.9611  1.2293
16055TIP3    H248088   7.054   2.593   1.652  0.6045 -0.3887 -0.3099
16056TIP3   OH248089   2.179   5.141   5.389  0.4083  0.1369 -0.3005
16056TIP3    H148090   2.216   5.079   5.453  0.9802 -0.8696 -1.5697
16056TIP3    H248091   2.162   5.087   5.311  0.2489  1.4442 -1.1828
16057TIP3   OH248092   7.465   3.479   6.495 -0.5603 -0.6135 -0.6973
16057TIP3    H148093   7.529   3.447   6.559  0.4927 -1.6465 -2.2384
16057TIP3    H248094   7.499   3.564   6.468 -1.2883  0.0700  0.4859
16058TIP3   OH248095   8.074   5.652   6.371 -0.2457  0.0113  0.2784
16058TIP3    H148096   8.010   5.722   6.385 -0.5782 -0.5507  1.6862
16058TIP3    H248097   8.159   5.696   6.374 -0.4773  0.4437  0.5496
16059TIP3   OH248098   5.659   1.362   1.579  0.1468 -0.3514 -0.6232
16059TIP3    H148099   5.645   1.427   1.511 -1.2775  0.8360  0.7837
16059TIP3    H248100   5.747   1.381   1.613  0.6723 -0.6606 -1.7970
16060TIP3   OH248101   0.030   4.803   4.529 -0.0822 -0.3682  0.3760
16060TIP3    H148102   0.100   4.827   4.468  1.0541 -0.7809  1.4822
16060TIP3    H248103   0.052   4.714   4.557 -0.8236 -0.3462  1.0535
16061TIP3   OH248104   6.137   7.073   4.627 -0.1047 -0.3864  0.4646
16061TIP3    H148105   6.222   7.116   4.620  0.0863 -0.7397  0.6555
16061TIP3    H248106   6.157   6.981   4.643 -0.5122  0.0781  4.0282
16062TIP3   OH248107   6.044   3.589   7.269  0.2859  0.1662  0.4081
16062TIP3    H148108   5.962   3.636   7.286 -0.7977 -1.6104  0.2839
16062TIP3    H248109   6.068   3.614   7.180 -0.4672  0.2127  0.2125
16063TIP3   OH248110   2.498   7.811   0.339 -0.4763  0.7554  0.3183
16063TIP3    H148111   2.410   7.798   0.302 -0.1717  1.4359 -0.6610
16063TIP3    H248112   2.526   7.723   0.364 -1.1043  0.4224 -0.1251
16064TIP3   OH248113   8.296   3.667   6.254 -0.5468  0.4003 -0.1940
16064TIP3    H148114   8.263   3.668   6.343  0.0198 -0.5033  0.0350
16064TIP3    H248115   8.245   3.598   6.210 -0.6066  0.6246 -0.4799
16065TIP3   OH248116   7.270   6.253   4.296 -0.9494  0.3654  0.2970
16065TIP3    H148117   7.239   6.343   4.304 -0.8730  0.5961 -1.8299
16065TIP3    H248118   7.220   6.217   4.222  1.5188 -0.2370 -1.1315
16066TIP3   OH248119   7.853   4.232   1.001 -0.3192 -0.1085 -0.2563
16066TIP3    H148120   7.761   4.208   1.010 -0.1522 -0.6986 -0.0656
16066TIP3    H248121   7.900   4.149   1.008  0.2640  0.2569  0.2878
16067TIP3   OH248122   6.287   2.779   2.215  0.1068  0.3308  0.3022
16067TIP3    H148123   6.334   2.698   2.200  0.4548  0.2406  1.7577
16067TIP3    H248124   6.196   2.759   2.194  0.3519 -0.1491 -0.3010
16068TIP3   OH248125   6.890   2.466   1.327 -0.3320  0.4018  0.1277
16068TIP3    H148126   6.823   2.467   1.259 -0.5851  0.4891  0.3768
16068TIP3    H248127   6.846   2.500   1.405 -0.1219  0.0457  0.4052
16069TIP3   OH248128   6.793   1.310   1.577 -0.0628  0.6167 -0.2966
16069TIP3    H148129   6.873   1.357   1.555 -0.9524  1.2606 -2.2693
16069TIP3    H248130   6.814   1.218   1.562  0.2884  0.7905 -0.8794
16070TIP3   OH248131   2.361   6.762   7.191 -0.3708 -0.3972  0.9313
16070TIP3    H148132   2.293   6.810   7.238 -1.3788 -1.1638  0.2664
16070TIP3    H248133   2.361   6.675   7.230  1.6331  0.1699  2.3056
16071TIP3   OH248134   7.205   7.766   3.161  0.3468  0.9895 -0.1655
16071TIP3    H148135   7.279   7.797   3.110 -0.0887  0.5707 -1.0711
16071TIP3    H248136   7.132   7.764   3.099  0.0196 -0.3830  0.2363
16072TIP3   OH248137   7.515   2.708   0.522 -0.8031  0.0957  0.1451
16072TIP3    H148138   7.562   2.669   0.449 -0.2330 -2.4295  1.7954
16072TIP3    H248139   7.579   2.765   0.564 -0.8301  0.7560 -0.6944
16073TIP3   OH248140   7.913   2.813   2.925 -0.6646  0.4527  0.1624
16073TIP3    H148141   7.879   2.796   2.837 -0.2601 -1.7032  0.4152
16073TIP3    H248142   7.986   2.752   2.936 -0.4619  0.9640  1.8595
16074TIP3   OH248143   6.843   1.497   1.129  0.3580 -0.7682  0.2237
16074TIP3    H148144   6.882   1.410   1.121  0.3689 -0.6983 -0.4957
16074TIP3    H248145   6.837   1.512   1.224  2.0988 -0.7659  0.3569
16075TIP3   OH248146   7.569   3.393   1.040  0.0428  0.4052 -0.1272
16075TIP3    H148147   7.605   3.334   1.106  1.6585  1.0476 -0.4229
16075TIP3    H248148   7.644   3.440   1.006 -0.7907  0.1845 -2.3576
16076TIP3   OH248149   7.432   1.865   2.667  0.0064 -0.4716 -0.3300
16076TIP3    H148150   7.470   1.808   2.600 -1.3389 -0.8720 -0.7786
16076TIP3    H248151   7.407   1.944   2.619  1.4506  0.3200  0.2052
16077TIP3   OH248152   5.781   1.887   2.927  0.1708  0.1859 -0.7255
16077TIP3    H148153   5.870   1.889   2.961  0.6251 -0.7642 -1.8272
16077TIP3    H248154   5.789   1.914   2.836 -0.3217 -2.1677 -1.5004
16078TIP3   OH248155   0.043   4.205   0.804  0.4965 -0.2831  0.4833
16078TIP3    H148156   0.077   4.117   0.788 -0.1676 -0.6596  1.0997
16078TIP3    H248157  -0.024   4.218   0.737  0.2181 -0.4639  0.7225
16079TIP3   OH248158   5.993   1.619   2.871 -0.3145  0.0725  0.5552
16079TIP3    H148159   5.962   1.657   2.789  2.0843  0.6923 -0.0885
16079TIP3    H248160   5.939   1.540   2.883 -2.3991  1.3462 -0.2833
16080TIP3   OH248161   8.110   2.094   0.226  0.0540  0.1390  0.3062
16080TIP3    H148162   8.082   2.040   0.300  0.7055  0.8183  1.0618
16080TIP3    H248163   8.206   2.088   0.227  0.0926  0.6345 -0.1242
16081TIP3   OH248164   0.133   1.364   0.499 -0.3902 -0.0270  0.1726
16081TIP3    H148165   0.126   1.274   0.529  0.3546 -0.3039 -0.4654
16081TIP3    H248166   0.072   1.413   0.555  0.4039 -0.6508  1.6208
16082TIP3   OH248167   0.228   6.853   6.696  0.2407 -0.3927  0.4980
16082TIP3    H148168   0.214   6.947   6.709 -0.5218 -0.2052 -1.5076
16082TIP3    H248169   0.267   6.823   6.779  0.0802  1.5900  1.3261
16083TIP3   OH248170   0.122   5.798   6.952 -0.2210  0.1674 -0.9564
16083TIP3    H148171   0.216   5.799   6.938  0.1037 -0.6485  0.9824
16083TIP3    H248172   0.097   5.891   6.951  1.0827  0.5878  1.4144
16084TIP3   OH248173   6.272   3.048   1.731  0.3248 -0.1024 -0.7772
16084TIP3    H148174   6.298   2.998   1.809 -0.4005  0.0952 -0.4132
16084TIP3    H248175   6.177   3.045   1.731  0.3356 -1.1197 -2.3244
16085TIP3   OH248176   0.068   2.492   1.149 -0.5470 -0.1448 -0.1882
16085TIP3    H148177   0.078   2.531   1.236 -0.0584  0.0759 -0.3379
16085TIP3    H248178   0.126   2.416   1.150 -0.8034 -0.3398 -0.2050
16086TIP3   OH248179   1.657   6.619   6.907 -0.6473 -0.0910  0.1972
16086TIP3    H148180   1.705   6.539   6.928 -1.2396 -0.7933 -1.1117
16086TIP3    H248181   1.724   6.679   6.874 -0.3285 -0.3287  0.4088
16087TIP3   OH248182   0.178   4.041   7.010  0.1465  0.1831 -0.4578
16087TIP3    H148183   0.148   4.087   6.932 -0.9873  2.3147  1.1774
16087TIP3    H248184   0.260   4.084   7.033 -0.9252  1.4341  1.0884
16088TIP3   OH248185   8.885   4.226   5.515  0.0060  0.2094 -0.1834
16088TIP3    H148186   8.859   4.310   5.477 -0.0214  0.4339  0.3349
16088TIP3    H248187   8.834   4.218   5.595 -1.5398 -1.2674 -1.2807
16089TIP3   OH248188   1.653   7.473   6.542  0.0479 -0.0389  0.2126
16089TIP3    H148189   1.679   7.544   6.484  1.5709  0.6751  1.7051
16089TIP3    H248190   1.645   7.514   6.628  0.9183 -1.6351  1.0924
16090TIP3   OH248191   5.465   1.254   2.197 -0.1154 -0.1354 -0.3037
16090TIP3    H148192   5.468   1.168   2.154 -1.0820 -0.2837 -0.0837
16090TIP3    H248193   5.419   1.238   2.279 -0.7812  0.7003 -0.5050
16091TIP3   OH248194   7.972   0.500   3.413 -0.0679 -0.1795 -0.4642
16091TIP3    H148195   7.980   0.571   3.477  0.7558  0.5778 -1.3906
16091TIP3    H248196   7.932   0.428   3.462  0.3596  0.4574  0.8524
16092TIP3   OH248197   5.143   0.962   0.209  0.0030  0.2706 -0.8775
16092TIP3    H148198   5.132   0.896   0.278  0.0512  1.1562 -0.0055
16092TIP3    H248199   5.065   0.953   0.154  0.2917 -0.9087 -1.1173
16093TIP3   OH248200   2.677   2.229   0.863  0.0121  0.0015 -0.2883
16093TIP3    H148201   2.769   2.207   0.852  0.3730  1.4449 -0.2925
16093TIP3    H248202   2.647   2.249   0.774 -0.0083  0.6380 -0.1391
16094TIP3   OH248203   5.684   1.562   1.853  0.2496 -0.5301 -0.1243
16094TIP3    H148204   5.779   1.557   1.866  0.8541 -1.1908 -3.9736
16094TIP3    H248205   5.648   1.571   1.941  3.8775 -0.1772  1.4371
16095TIP3   OH248206   7.844   4.068   0.126  0.0718 -0.2142 -0.1507
16095TIP3    H148207   7.879   4.117   0.200  0.1714  0.4262 -0.6186
16095TIP3    H248208   7.812   3.987   0.164 -0.5567  0.4289  0.7022
16096TIP3   OH248209   8.164   0.364   2.597  0.5260 -0.1529 -0.0944
16096TIP3    H148210   8.090   0.395   2.545  0.6823  0.3167 -0.0370
16096TIP3    H248211   8.124   0.330   2.677  0.1840 -1.9233 -0.9820
16097TIP3   OH248212   1.073   6.851   6.524  0.0596  0.6278 -0.4771
16097TIP3    H148213   1.008   6.877   6.459 -2.3236  0.8142  1.9258
16097TIP3    H248214   1.101   6.934   6.563 -1.5231  0.2418  1.5275
16098TIP3   OH248215   6.387   4.219   0.458 -0.1983 -0.4272 -0.2468
16098TIP3    H148216   6.375   4.308   0.425  0.2967 -0.6108 -0.9350
16098TIP3    H248217   6.439   4.175   0.391 -2.8401 -2.0517 -1.3229
16099TIP3   OH248218   1.979   7.066   6.920  0.5455 -0.1256  0.5605
16099TIP3    H148219   2.048   7.006   6.946  1.0416 -0.3558 -1.2480
16099TIP3    H248220   2.025   7.142   6.884 -0.1151  0.2676  0.5371
16100TIP3   OH248221   1.741   5.197   7.204  0.5603 -0.3142 -0.4248
16100TIP3    H148222   1.744   5.230   7.114  0.0390  0.6629 -0.0967
16100TIP3    H248223   1.787   5.113   7.201 -0.8292 -1.0610 -1.9378
16101TIP3   OH248224   7.883   2.310   0.665  0.2558 -0.1661  0.1288
16101TIP3    H148225   7.789   2.325   0.662  0.4116  0.7322 -0.2071
16101TIP3    H248226   7.894   2.242   0.732 -0.7143 -0.9556 -0.4979
16102TIP3   OH248227   1.588   6.004   5.744  0.5198  0.3599 -0.1962
16102TIP3    H148228   1.528   6.047   5.805  0.7639  0.0134  0.2916
16102TIP3    H248229   1.668   5.990   5.795  0.2445 -1.2066 -0.1708
16103TIP3   OH248230   6.541   2.348   1.185 -0.9947  0.1772  0.3694
16103TIP3    H148231   6.590   2.395   1.118  0.5504  0.1096  1.4223
16103TIP3    H248232   6.508   2.270   1.141 -0.4667  0.4193 -0.4577
16104TIP3   OH248233   7.316   1.633   0.903  0.0656  0.0812  0.8348
16104TIP3    H148234   7.353   1.714   0.867  0.2339 -0.0940  0.6121
16104TIP3    H248235   7.392   1.582   0.931  0.0281 -0.5002 -0.0903
16105TIP3   OH248236   0.956   7.561   5.256  0.4317 -0.0533  0.7914
16105TIP3    H148237   0.910   7.502   5.316  0.8140  1.1778  2.3106
16105TIP3    H248238   0.887   7.614   5.217  0.3087  0.0910  1.1971
16106TIP3   OH248239   1.958   4.631   6.012 -0.0422 -0.1642 -0.6808
16106TIP3    H148240   1.978   4.696   5.944  0.0961  0.8403  0.3141
16106TIP3    H248241   2.044   4.605   6.046 -0.1836  0.3880  0.0946
16107TIP3   OH248242   6.981   4.787   6.510 -0.3065  0.1094  0.0436
16107TIP3    H148243   6.905   4.821   6.556  0.6702  0.7514  1.2165
16107TIP3    H248244   7.056   4.822   6.559  0.7277 -1.9194 -0.0359
16108TIP3   OH248245   7.030   1.460   1.561  0.4877 -0.3290 -0.2449
16108TIP3    H148246   6.992   1.528   1.505  0.6825 -0.7406 -0.8762
16108TIP3    H248247   7.084   1.509   1.624 -1.7242  0.3249  1.1888
16109TIP3   OH248248   6.453   2.586   0.186  0.4542 -0.0441 -0.0468
16109TIP3    H148249   6.426   2.632   0.265 -0.5362  1.0595 -1.0035
16109TIP3    H248250   6.386   2.607   0.122  0.6374 -1.8420 -0.8793
16110TIP3   OH248251   6.511   0.799   0.676 -0.5623  0.1571  0.6454
16110TIP3    H148252   6.510   0.832   0.766 -0.7582 -0.5644  0.9168
16110TIP3    H248253   6.543   0.872   0.623  0.3099  0.3395  1.4043
16111TIP3   OH248254   7.417   4.043   1.153 -0.2144  0.2958 -0.3388
16111TIP3    H148255   7.379   3.957   1.135  0.3797 -0.2336  0.9157
16111TIP3    H248256   7.349   4.105   1.125 -0.5417 -0.5631 -1.4878
16112TIP3   OH248257   2.989   7.544   6.356  0.4580 -0.3164  0.3341
16112TIP3    H148258   2.967   7.469   6.300  1.6722 -0.8780  0.5886
16112TIP3    H248259   2.932   7.615   6.325 -0.4029 -1.2216 -0.1864
16113TIP3   OH248260   4.689   7.300   0.085 -0.0450 -0.6711 -0.5104
16113TIP3    H148261   4.723   7.312  -0.004  0.6671 -0.4868 -0.2150
16113TIP3    H248262   4.726   7.373   0.134 -1.6558  0.0804 -0.4091
16114TIP3   OH248263   0.696   2.135   0.097  0.3053  0.1966 -0.0570
16114TIP3    H148264   0.736   2.200   0.039  1.4788 -1.3046 -0.9816
16114TIP3    H248265   0.626   2.095   0.046  0.2788  0.0001  0.1277
16115TIP3   OH248266   0.928   7.350   5.802  0.2952 -0.2053  0.0880
16115TIP3    H148267   0.841   7.319   5.826  0.7412  0.5704  2.8778
16115TIP3    H248268   0.987   7.282   5.833  0.7432 -0.3406 -1.0583
16116TIP3   OH248269   7.621   2.966   0.066 -0.0448  0.2545 -0.2442
16116TIP3    H148270   7.622   3.051   0.021  1.0935 -0.2851 -1.2653
16116TIP3    H248271   7.619   2.989   0.159  3.8604  1.5266 -0.3450
16117TIP3   OH248272   8.849   2.896   0.787  0.0351 -0.2047 -0.0247
16117TIP3    H148273   8.907   2.887   0.862  2.3410  2.6900 -1.3240
16117TIP3    H248274   8.883   2.833   0.723 -0.1200 -0.6105  0.2894
16118TIP3   OH248275   8.814   6.265   6.749  0.5508 -0.2830 -0.3419
16118TIP3    H148276   8.746   6.284   6.684  1.6183 -0.5401 -1.5595
16118TIP3    H248277   8.790   6.318   6.825 -0.9821 -0.3382 -0.7664
16119TIP3   OH248278   8.166   1.425   1.956  0.0980  0.0519 -0.5706
16119TIP3    H148279   8.112   1.348   1.939 -0.3411  0.1293  0.4397
16119TIP3    H248280   8.252   1.390   1.979 -0.3158 -0.1760  0.6782
16120TIP3   OH248281   0.969   1.810   0.648  0.1071  0.0971  0.6457
16120TIP3    H148282   1.022   1.765   0.713 -0.0140 -0.4247  0.3868
16120TIP3    H248283   1.013   1.895   0.636  1.1976 -0.5397  0.0413
16121TIP3   OH248284   6.297   3.546   0.465 -0.5235  0.0966  0.4068
16121TIP3    H148285   6.245   3.611   0.513 -0.0301  0.2654  0.7097
16121TIP3    H248286   6.262   3.550   0.376 -0.2950  0.9905  0.3529
16122TIP3   OH248287   8.488   0.714   2.109 -0.1590 -0.8519  0.1111
16122TIP3    H148288   8.437   0.741   2.033 -0.2455 -2.0041 -0.2471
16122TIP3    H248289   8.579   0.731   2.084 -0.1324 -1.8850 -0.5349
16123TIP3   OH248290   0.991   0.236   0.504  0.7269  0.6356  0.3974
16123TIP3    H148291   0.954   0.149   0.516  2.0767  0.0227  0.2122
16123TIP3    H248292   0.925   0.296   0.541 -0.5241 -0.3976 -0.1264
16124TIP3   OH248293   6.870   2.560   1.965 -0.0833 -0.0245 -0.0366
16124TIP3    H148294   6.931   2.578   1.893 -0.5247  1.9267  0.0434
16124TIP3    H248295   6.917   2.587   2.043 -0.6756  0.5689  0.1208
16125TIP3   OH248296   6.990   1.094   1.811  0.3172  0.2694 -0.0015
16125TIP3    H148297   7.017   1.131   1.727  0.4960  0.6105  0.2066
16125TIP3    H248298   7.071   1.061   1.850  0.1320 -0.5364 -0.2784
16126TIP3   OH248299   1.419   1.034   4.457 -0.3682  0.0346  0.2616
16126TIP3    H148300   1.331   1.043   4.421 -0.6006 -0.1808  0.7641
16126TIP3    H248301   1.423   0.943   4.488  0.0373  0.0372  0.2190
16127TIP3   OH248302   5.877   2.341   1.737  0.1381 -0.3720 -0.4246
16127TIP3    H148303   5.821   2.330   1.814 -1.3931  1.2231 -1.2825
16127TIP3    H248304   5.905   2.252   1.715 -1.2703 -1.0777  0.5876
16128TIP3   OH248305   5.870   1.308   1.928  0.2519 -0.4344 -0.5592
16128TIP3    H148306   5.957   1.334   1.956 -0.1154  0.0375  0.1589
16128TIP3    H248307   5.816   1.315   2.007 -0.3812 -0.9532 -0.9419
16129TIP3   OH248308   5.733   0.675   2.192  0.0292  0.1037 -0.3742
16129TIP3    H148309   5.663   0.692   2.256 -0.4538  1.8353 -1.3134
16129TIP3    H248310   5.717   0.739   2.123  1.0262 -1.2205 -1.8431
16130TIP3   OH248311   7.644   1.157   1.991 -0.0034 -0.5383  0.1902
16130TIP3    H148312   7.685   1.195   2.068  2.3321 -3.0830  0.2965
16130TIP3    H248313   7.593   1.084   2.025  0.0033 -0.8868 -0.5311
16131TIP3   OH248314   7.250   2.181   0.887  0.3211  0.3152 -0.1919
16131TIP3    H148315   7.273   2.266   0.925  0.2427  0.8904 -1.4053
16131TIP3    H248316   7.161   2.192   0.852  0.2033 -0.3410 -0.1184
16132TIP3   OH248317   6.882   0.732   1.387 -0.1111  0.1761 -0.3411
16132TIP3    H148318   6.866   0.683   1.306  0.0652 -1.3595  0.5257
16132TIP3    H248319   6.813   0.701   1.447  0.8746 -0.0809  0.6739
16133TIP3   OH248320   6.677   1.505   0.595 -0.3023 -0.3956  0.1728
16133TIP3    H148321   6.605   1.556   0.633  0.2614  0.7470 -0.2514
16133TIP3    H248322   6.634   1.430   0.555 -1.1942 -0.0795  0.5021
16134TIP3   OH248323   1.673   1.207   1.931  0.0560 -0.4013 -0.2656
16134TIP3    H148324   1.675   1.134   1.993  1.4976  0.1666  0.3677
16134TIP3    H248325   1.586   1.201   1.891 -0.7627 -1.0233  1.5229
16135TIP3   OH248326   1.068   3.351   0.417  0.2265 -0.2699  0.3911
16135TIP3    H148327   1.009   3.332   0.490  1.2093 -3.2254  0.4814
16135TIP3    H248328   1.026   3.310   0.341 -0.1656  1.7139 -0.5119
16136TIP3   OH248329   7.392   2.268   1.789 -0.4649 -0.2113 -0.1566
16136TIP3    H148330   7.418   2.327   1.718 -0.6444 -0.6910 -0.6221
16136TIP3    H248331   7.435   2.186   1.768 -1.1659 -0.5877 -0.1460
16137TIP3   OH248332   4.363   8.284   6.534  0.2087 -0.8427  0.0663
16137TIP3    H148333   4.323   8.253   6.453 -0.4636 -0.4994  0.2620
16137TIP3    H248334   4.294   8.334   6.577  0.8464 -0.2415  0.4066
16138TIP3   OH248335   2.300   6.079   6.747 -0.2643  0.5108  0.1990
16138TIP3    H148336   2.392   6.057   6.764  0.1058  0.3706 -1.8353
16138TIP3    H248337   2.251   6.030   6.813  1.0697 -0.1341  0.7297
16139TIP3   OH248338   0.986   4.066   6.457  0.4269 -0.1873  0.6974
16139TIP3    H148339   0.897   4.032   6.443 -0.1524  0.3725  2.8880
16139TIP3    H248340   1.018   4.019   6.534  1.4095  0.8063  0.9077
16140TIP3   OH248341   2.136   7.879   6.671  0.3417  0.2644 -0.1259
16140TIP3    H148342   2.197   7.927   6.727  1.2252  0.4092 -1.1773
16140TIP3    H248343   2.053   7.925   6.680  1.2090  2.1123 -1.2222
16141TIP3   OH248344   7.840   6.027   0.749 -0.5476  0.0081  0.1090
16141TIP3    H148345   7.920   6.071   0.720 -0.7797 -0.5283 -1.4020
16141TIP3    H248346   7.798   6.090   0.808  0.3835  0.7751 -0.0274
16142TIP3   OH248347   8.725   2.179   0.778  0.6207 -0.4344 -0.2171
16142TIP3    H148348   8.678   2.172   0.861  1.2859 -0.5231  0.1487
16142TIP3    H248349   8.764   2.266   0.779  2.1944 -1.1289  0.3897
16143TIP3   OH248350   4.966   5.187   6.518 -0.4507  0.1139 -0.5573
16143TIP3    H148351   4.917   5.236   6.585 -0.8685 -0.3209 -0.5366
16143TIP3    H248352   5.004   5.113   6.566  0.4579  0.5976 -0.5236
16144TIP3   OH248353   7.058   2.844   2.548 -0.1632 -0.4872 -0.4240
16144TIP3    H148354   7.030   2.755   2.524  0.2203 -0.7384  0.0681
16144TIP3    H248355   7.020   2.900   2.480 -0.5718 -1.0055 -0.6237
16145TIP3   OH248356   2.470   6.267   7.134 -0.6122  0.1344 -0.2449
16145TIP3    H148357   2.539   6.256   7.199 -0.3676 -1.9426 -0.8206
16145TIP3    H248358   2.473   6.187   7.081 -2.4325  0.6883 -1.2545
16146TIP3   OH248359   5.014   5.616   5.983  0.5521  0.1702 -0.0942
16146TIP3    H148360   4.946   5.634   5.918  2.2057 -0.3774 -2.0192
16146TIP3    H248361   4.971   5.632   6.067 -1.6560  0.8146 -1.2974
16147TIP3   OH248362   6.654   8.256   1.584 -0.5198  0.7963 -0.4775
16147TIP3    H148363   6.588   8.197   1.547  0.1566 -1.3157  1.5497
16147TIP3    H248364   6.609   8.302   1.654 -0.2440  0.3889 -0.0244
16148TIP3   OH248365   0.299   2.734   3.135 -0.5186  0.4348  0.2634
16148TIP3    H148366   0.249   2.776   3.205 -1.2744 -1.3935  0.8429
16148TIP3    H248367   0.255   2.651   3.121  0.9378 -0.1565 -0.9001
16149TIP3   OH248368   0.213   2.080   2.910  0.1677 -0.1745  0.0104
16149TIP3    H148369   0.303   2.098   2.885 -0.0837  2.4760  0.7970
16149TIP3    H248370   0.204   2.119   2.997 -1.8472  0.0822 -0.2792
16150TIP3   OH248371   1.193   2.569   0.950  0.8584  0.2987 -0.2593
16150TIP3    H148372   1.132   2.544   1.019 -0.6373 -0.2157 -1.7370
16150TIP3    H248373   1.269   2.512   0.964 -0.2101 -1.1427 -0.1570
16151TIP3   OH248374   6.052   7.562   6.985  0.0648  0.0924  0.3575
16151TIP3    H148375   6.071   7.496   7.051 -0.2942  0.0634  0.4335
16151TIP3    H248376   5.958   7.551   6.967  0.2036 -0.0549 -0.3150
16152TIP3   OH248377   0.566   0.528   3.638  0.2321  0.0659 -0.1645
16152TIP3    H148378   0.644   0.481   3.670 -0.5992  0.3227  2.3776
16152TIP3    H248379   0.593   0.565   3.554  2.8822  0.1881  0.6950
16153TIP3   OH248380   1.039   1.793   1.301 -0.4557 -1.0351 -0.1182
16153TIP3    H148381   1.041   1.781   1.206 -0.8050  1.6903 -0.5017
16153TIP3    H248382   1.130   1.812   1.324 -0.5708 -0.5068 -0.0890
16154TIP3   OH248383   5.214   0.545   0.712  0.1809 -0.1981  0.3099
16154TIP3    H148384   5.161   0.617   0.746  1.1143  0.2581  0.8180
16154TIP3    H248385   5.276   0.526   0.782  2.6267  1.2561 -1.3802
16155TIP3   OH248386   8.517   3.390   2.603  0.2841 -0.0864  0.5759
16155TIP3    H148387   8.424   3.394   2.578  0.2613 -1.5770  0.3469
16155TIP3    H248388   8.529   3.464   2.662 -1.0779  0.0803  0.6661
16156TIP3   OH248389   3.121   7.240   6.790  0.1636 -0.3167 -0.4769
16156TIP3    H148390   3.069   7.181   6.844 -0.3315  0.0326 -0.5767
16156TIP3    H248391   3.084   7.231   6.702  0.7887 -0.6734 -0.7102
16157TIP3   OH248392   0.251   4.121   1.474 -0.1469  0.1945 -0.0280
16157TIP3    H148393   0.272   4.212   1.457 -0.6978  0.9438  3.0728
16157TIP3    H248394   0.174   4.104   1.420 -0.6106  1.8498  0.0814
16158TIP3   OH248395   2.723   1.743   1.140  1.0096 -0.1121  0.4796
16158TIP3    H148396   2.657   1.749   1.070  0.5961  0.0850  0.8823
16158TIP3    H248397   2.713   1.654   1.174  2.6320 -0.9158 -1.0915
16159TIP3   OH248398   0.542   1.229   2.212  0.1084  0.1919  0.5478
16159TIP3    H148399   0.596   1.286   2.267  2.6115  0.9897 -2.5885
16159TIP3    H248400   0.483   1.288   2.166  1.5155  0.1318 -1.3919
16160TIP3   OH248401   0.836   2.631   1.365 -0.2501 -0.0514 -0.1262
16160TIP3    H148402   0.767   2.654   1.303  0.7772  0.1394 -1.2042
16160TIP3    H248403   0.790   2.623   1.449 -1.6743 -0.4500 -0.9161
16161TIP3   OH248404   1.962   2.949   1.495  0.2474  0.0187 -0.3483
16161TIP3    H148405   2.044   2.936   1.447  0.2028  0.3582 -0.5156
16161TIP3    H248406   1.965   2.882   1.564  0.6542  0.0106 -0.3684
16162TIP3   OH248407   0.903   2.713   2.218 -0.0125  0.1707 -0.1095
16162TIP3    H148408   0.883   2.673   2.303  0.0910  0.5078  0.0743
16162TIP3    H248409   0.874   2.804   2.227 -0.9316 -0.0469 -0.7744
16163TIP3   OH248410   8.212   3.187   0.184  0.3274  0.3141  0.1082
16163TIP3    H148411   8.173   3.209   0.100  1.0916  0.3918 -0.2212
16163TIP3    H248412   8.236   3.094   0.176 -1.4132 -0.2346  0.9333
16164TIP3   OH248413   8.445   1.577   0.612 -0.5398  0.0648 -0.1531
16164TIP3    H148414   8.454   1.569   0.707  0.1607 -0.4656 -0.2552
16164TIP3    H248415   8.495   1.655   0.589  0.0946 -0.3487 -0.1928
16165TIP3   OH248416   1.281   1.320   2.663  0.1249 -0.8449  0.8931
16165TIP3    H148417   1.278   1.366   2.747 -1.0869 -1.9754  1.4851
16165TIP3    H248418   1.254   1.386   2.599  3.1137  0.6370  1.0896
16166TIP3   OH248419   7.374   2.679   1.690 -0.2684  0.0626  0.7869
16166TIP3    H148420   7.451   2.716   1.733 -0.4558  0.5495  0.7012
16166TIP3    H248421   7.397   2.676   1.597 -0.8318  1.3877  0.6011
16167TIP3   OH248422   7.973   3.438   2.426  0.2469  0.1099  0.4191
16167TIP3    H148423   7.956   3.360   2.479  1.2624 -0.8700 -0.6638
16167TIP3    H248424   7.972   3.510   2.488 -2.4671 -0.5472  1.1755
16168TIP3   OH248425   6.404   8.251   0.110  0.4443  0.0435 -0.2458
16168TIP3    H148426   6.456   8.234   0.188 -0.0204  1.4992  0.3836
16168TIP3    H248427   6.460   8.224   0.037  1.0981 -0.7686  0.5516
16169TIP3   OH248428   0.751   1.825   1.948  0.0618  0.5914 -0.4829
16169TIP3    H148429   0.759   1.787   1.860 -1.0029 -0.9396  0.0735
16169TIP3    H248430   0.661   1.855   1.953 -0.3059 -0.6294  0.5873
16170TIP3   OH248431   0.502   6.932   7.056  0.2460  0.8480 -0.1750
16170TIP3    H148432   0.524   7.015   7.013  0.6918  0.1214 -1.3690
16170TIP3    H248433   0.507   6.866   6.986  2.0862 -0.5167  1.1843
16171TIP3   OH248434   8.440   3.438   0.418 -0.1723 -0.5719 -0.4225
16171TIP3    H148435   8.354   3.478   0.411  0.1742  0.0096 -1.3773
16171TIP3    H248436   8.479   3.449   0.332  1.7651  1.2383  0.6620
16172TIP3   OH248437   1.621   1.117   1.350  0.2016 -0.0074 -0.5655
16172TIP3    H148438   1.672   1.162   1.418 -1.0358  1.1446 -0.3782
16172TIP3    H248439   1.534   1.107   1.388  0.3075 -2.0873 -0.8423
16173TIP3   OH248440   8.346   3.227   1.738  0.4316  0.0416 -0.3979
16173TIP3    H148441   8.260   3.245   1.778  0.8448  1.2734 -0.0367
16173TIP3    H248442   8.325   3.195   1.650 -0.3990  0.6033 -0.4130
16174TIP3   OH248443   2.159   5.556   6.785 -0.3539 -0.2947 -0.6227
16174TIP3    H148444   2.088   5.496   6.808 -1.9628  2.0912  0.8147
16174TIP3    H248445   2.132   5.595   6.702 -0.9839  0.9719  0.1647
16175TIP3   OH248446   4.877   5.395   6.215  0.6071 -0.2736 -0.1269
16175TIP3    H148447   4.918   5.456   6.277 -1.4416 -0.3743  1.4096
16175TIP3    H248448   4.788   5.430   6.203  0.3472 -1.3600 -1.4810
16176TIP3   OH248449   1.985   7.332   7.219 -0.1192 -0.1782 -0.7339
16176TIP3    H148450   2.032   7.248   7.218 -1.3058 -0.8675 -0.2003
16176TIP3    H248451   2.021   7.380   7.145  2.0394 -0.3380  0.1779
16177TIP3   OH248452   3.936   7.159   6.494 -0.2221  0.4591 -0.2767
16177TIP3    H148453   3.879   7.138   6.419  0.5698  0.1850 -0.8068
16177TIP3    H248454   3.937   7.078   6.546 -1.4891  0.9336  0.5115
16178TIP3   OH248455   8.370   2.295   0.091  0.1401 -0.1189  0.0329
16178TIP3    H148456   8.363   2.240   0.012 -4.1279  0.1181  0.1213
16178TIP3    H248457   8.423   2.243   0.151  0.5435 -1.8625 -1.7433
16179TIP3   OH248458   7.120   1.785   1.180  0.0838  0.4501  0.0630
16179TIP3    H148459   7.075   1.749   1.103 -0.0570 -0.9632  0.7959
16179TIP3    H248460   7.138   1.876   1.156 -1.4447  0.4970 -0.9916
16180TIP3   OH248461   0.240   2.499   2.735  0.6629 -0.1809  0.1618
16180TIP3    H148462   0.226   2.558   2.661  0.9292 -0.1552  0.1325
16180TIP3    H248463   0.329   2.517   2.765  0.2665  0.4035  1.0174
16181TIP3   OH248464   8.092   4.543   1.837 -0.4409 -0.2866 -0.3504
16181TIP3    H148465   8.097   4.601   1.914  0.7005 -1.1174  0.1992
16181TIP3    H248466   8.149   4.470   1.858 -0.7079 -0.8881 -1.6929
16182TIP3   OH248467   3.397   8.283   6.474 -0.3114  0.1603 -0.2932
16182TIP3    H148468   3.481   8.329   6.469  0.3777 -1.1202 -0.4629
16182TIP3    H248469   3.365   8.302   6.563  0.6034 -0.1380  0.1040
16183TIP3   OH248470   7.016   5.002   1.243 -0.0634  0.1280 -0.6242
16183TIP3    H148471   7.049   4.928   1.294  0.9555  0.8485 -0.2092
16183TIP3    H248472   7.088   5.024   1.183 -0.5274  0.4928 -1.0479
16184TIP3   OH248473   7.584   3.776   0.073  0.3078  0.7404  0.2639
16184TIP3    H148474   7.613   3.815   0.156  0.1694  1.7468 -0.1572
16184TIP3    H248475   7.614   3.838   0.006  1.4710 -0.6600 -0.5392
16185TIP3   OH248476   5.096   7.495   7.070 -0.6260 -0.4731  0.9515
16185TIP3    H148477   5.013   7.451   7.086 -1.1162  0.3416  0.7220
16185TIP3    H248478   5.071   7.587   7.054  0.4592  0.0868  2.4209
16186TIP3   OH248479   2.986   7.832   6.715  0.1619  0.0728 -0.3292
16186TIP3    H148480   3.003   7.739   6.701 -2.9478 -0.3234 -1.9414
16186TIP3    H248481   3.024   7.875   6.639  0.2490 -0.0388 -0.3489
16187TIP3   OH248482   1.192   0.597   2.804 -0.1544  0.4164  0.0413
16187TIP3    H148483   1.196   0.662   2.874 -1.0631 -0.5710  1.0255
16187TIP3    H248484   1.261   0.624   2.744  0.0923  1.7661  0.8874
16188TIP3   OH248485   0.352   3.277   2.339 -0.0468  0.5497  0.8191
16188TIP3    H148486   0.417   3.222   2.295  0.5828  0.7657  1.4574
16188TIP3    H248487   0.276   3.221   2.350 -0.9206  1.0681 -2.2614
16189TIP3   OH248488   2.649   6.254   5.707  0.1840 -0.2463  0.4003
16189TIP3    H148489   2.569   6.295   5.738  0.2293  0.4055 -0.3314
16189TIP3    H248490   2.640   6.161   5.730 -0.8062 -0.1875  0.2555
16190TIP3   OH248491   5.317   6.832   5.859 -0.1033  0.1253 -0.6427
16190TIP3    H148492   5.390   6.860   5.804  0.8971 -0.1316  0.5244
16190TIP3    H248493   5.311   6.738   5.844 -1.3055  0.4088 -2.0264
16191TIP3   OH248494   4.309   5.039   6.275  0.7643  0.0649 -0.4292
16191TIP3    H148495   4.324   5.094   6.198  2.0138  0.2682 -0.0482
16191TIP3    H248496   4.374   4.968   6.266  0.4983 -0.2483  0.1185
16192TIP3   OH248497   0.495   2.822   2.981 -0.1858  0.1908  0.0032
16192TIP3    H148498   0.564   2.812   3.046  0.7187 -1.6390 -1.1802
16192TIP3    H248499   0.415   2.795   3.026  0.2990 -0.2425  0.6228
16193TIP3   OH248500   1.344   0.578   1.398  0.5301 -0.0159  0.2061
16193TIP3    H148501   1.320   0.648   1.337 -1.5994 -0.0440  0.9630
16193TIP3    H248502   1.371   0.506   1.342 -0.2569  0.3654 -0.6878
16194TIP3   OH248503   2.622   2.508   0.630 -0.1980  0.4998  0.0563
16194TIP3    H148504   2.592   2.440   0.690  1.4998 -1.5852 -1.4241
16194TIP3    H248505   2.545   2.528   0.576 -2.0897  3.2115  3.5249
16195TIP3   OH248506   0.882   0.899   1.453  0.2401  0.3681  0.2102
16195TIP3    H148507   0.954   0.894   1.390 -1.3643 -0.4102 -1.6420
16195TIP3    H248508   0.804   0.876   1.401 -1.1469 -0.1696  2.4706
16196TIP3   OH248509   2.190   1.337   1.449 -0.0684  0.0988 -0.5059
16196TIP3    H148510   2.245   1.264   1.475  0.6892  0.7723 -0.1774
16196TIP3    H248511   2.241   1.383   1.382 -0.2327  0.7204 -0.2090
16197TIP3   OH248512   5.760   7.821   1.767  0.0803  0.0137 -0.5753
16197TIP3    H148513   5.803   7.769   1.699  0.7898 -1.1594  0.7477
16197TIP3    H248514   5.668   7.794   1.763  0.0059  0.3558 -1.4171
16198TIP3   OH248515   0.457   0.138   2.285 -0.1528 -0.2935  0.2987
16198TIP3    H148516   0.493   0.210   2.234  0.8137 -0.4803  0.7140
16198TIP3    H248517   0.531   0.080   2.301 -0.9659 -1.4840 -0.2042
16199TIP3   OH248518   7.243   2.958   0.918  0.1065  0.1238  0.4036
16199TIP3    H148519   7.301   2.882   0.931 -0.1701  0.0862  1.5000
16199TIP3    H248520   7.278   3.002   0.840 -0.0379 -1.4074 -0.5400
16200TIP3   OH248521   5.859   5.243   7.003  0.0089 -0.2203 -0.1981
16200TIP3    H148522   5.905   5.311   7.051 -0.5369 -0.4363  0.6409
16200TIP3    H248523   5.807   5.290   6.938  0.0837  0.1229 -0.0086
16201TIP3   OH248524   0.835   2.412   1.880  0.1845 -0.3394  0.1976
16201TIP3    H148525   0.748   2.384   1.908 -0.8706  1.7683 -0.8482
16201TIP3    H248526   0.895   2.348   1.919 -1.6756 -0.7655  2.4578
16202TIP3   OH248527   7.807   2.690   0.023  0.5105  0.1824  0.7296
16202TIP3    H148528   7.754   2.770   0.028 -0.2265 -0.1810 -0.8696
16202TIP3    H248529   7.746   2.619   0.044  0.4681 -0.1943 -0.6259
16203TIP3   OH248530   6.776   1.550   0.152  0.1509  0.3060  0.5626
16203TIP3    H148531   6.855   1.556   0.097 -1.6821  1.9558 -2.0152
16203TIP3    H248532   6.792   1.474   0.208  2.2757 -1.2826 -2.0324
16204TIP3   OH248533   8.882   1.332   0.755 -0.4494  0.3956  0.4534
16204TIP3    H148534   8.922   1.326   0.842  2.8785  0.7744 -0.9689
16204TIP3    H248535   8.827   1.410   0.759  1.2530  1.5849  1.6450
16205TIP3   OH248536   3.070   5.265   6.880  0.0668  0.2192  0.0294
16205TIP3    H148537   3.024   5.219   6.810  1.2115 -1.9702  0.6815
16205TIP3    H248538   3.106   5.196   6.935 -0.8499  1.8715  2.8400
16206TIP3   OH248539   3.159   6.248   5.536  0.4509  0.0825 -0.2411
16206TIP3    H148540   3.175   6.202   5.454  0.8132 -1.1916  0.5285
16206TIP3    H248541   3.077   6.295   5.523 -0.8988 -2.2555 -0.4260
16207TIP3   OH248542   8.646   4.356   0.919  0.2050  0.1909 -0.1930
16207TIP3    H148543   8.648   4.413   0.997  1.1184  1.0002 -0.7906
16207TIP3    H248544   8.581   4.290   0.940 -1.2786  1.7694  0.3164
16208TIP3   OH248545   2.592   2.221   0.589 -0.2813 -0.0536 -0.1273
16208TIP3    H148546   2.497   2.209   0.586 -0.5205  1.5959  0.3249
16208TIP3    H248547   2.621   2.208   0.498 -0.8505 -1.1506 -0.1582
16209TIP3   OH248548   4.691   4.234   6.827  0.2156  0.2328  0.2623
16209TIP3    H148549   4.657   4.171   6.891  1.2770 -2.1814 -1.4766
16209TIP3    H248550   4.620   4.245   6.763  0.9033 -1.0664 -0.7364
16210TIP3   OH248551   1.755   6.391   7.007 -0.2763  0.2120 -0.6716
16210TIP3    H148552   1.804   6.318   6.971 -0.3879  0.5684 -1.5526
16210TIP3    H248553   1.681   6.350   7.053  0.8990 -0.3268  0.7677
16211TIP3   OH248554   8.608   2.169   1.028  0.0277 -0.2573 -0.0270
16211TIP3    H148555   8.636   2.260   1.039 -0.8856  0.1753 -1.2209
16211TIP3    H248556   8.621   2.130   1.114 -0.3503  1.2157  0.7153
16212TIP3   OH248557   6.172   3.102   6.077  0.5046  0.0620  0.2379
16212TIP3    H148558   6.190   3.027   6.021  1.1006  0.3192  0.0756
16212TIP3    H248559   6.216   3.082   6.160  0.2991  0.0340  0.3389
16213TIP3   OH248560   3.257   6.908   6.096  0.0896  0.6232  0.7526
16213TIP3    H148561   3.231   6.840   6.158  1.0455 -0.5444 -0.1013
16213TIP3    H248562   3.345   6.883   6.068 -0.6941  0.5685 -1.8203
16214TIP3   OH248563   1.601   3.294   0.201 -0.4253  0.4307 -0.3525
16214TIP3    H148564   1.639   3.377   0.231 -0.5781 -0.2661  1.9078
16214TIP3    H248565   1.669   3.254   0.147  1.4762 -0.0199  2.2711
16215TIP3   OH248566   6.234   3.772   0.653  0.5133 -0.6320 -0.4124
16215TIP3    H148567   6.235   3.755   0.747  1.9363  0.0945 -0.2769
16215TIP3    H248568   6.240   3.868   0.646 -0.0625 -0.6500 -1.2390
16216TIP3   OH248569   4.151   0.470   6.678 -0.1465 -0.3013  0.2957
16216TIP3    H148570   4.138   0.520   6.598 -0.4394  2.1383  1.8137
16216TIP3    H248571   4.064   0.462   6.716  0.1587 -0.4094  0.9862
16217TIP3   OH248572   0.777   3.947   0.851 -0.1756 -0.7947  0.0921
16217TIP3    H148573   0.812   3.892   0.921  0.1139  1.1678  1.5246
16217TIP3    H248574   0.719   4.008   0.896 -2.2432 -1.3292 -1.7550
16218TIP3   OH248575   8.117   4.546   1.375  0.1789  0.3329 -0.2822
16218TIP3    H148576   8.138   4.510   1.288 -1.2986 -0.2153 -0.4304
16218TIP3    H248577   8.054   4.483   1.412 -0.9089  1.7153  0.2721
16219TIP3   OH248578   1.595   6.084   6.322  0.4173 -0.1870 -0.7325
16219TIP3    H148579   1.603   6.129   6.406 -0.1483 -0.5995 -0.4519
16219TIP3    H248580   1.643   6.002   6.334 -0.9818 -0.9519 -0.2945
16220TIP3   OH248581   0.754   1.422   1.086 -0.2183  0.0194  0.3959
16220TIP3    H148582   0.693   1.483   1.045  1.7806  1.6525 -0.2897
16220TIP3    H248583   0.737   1.431   1.180 -0.6486  0.8988  0.2434
16221TIP3   OH248584   8.896   1.705   0.552  0.0403 -0.3867  0.0969
16221TIP3    H148585   8.852   1.635   0.601 -0.3840 -1.1460 -1.3271
16221TIP3    H248586   8.862   1.696   0.463  2.0739 -0.0916 -0.7179
16222TIP3   OH248587   8.108   2.353   6.669 -0.0461  0.3195 -0.2718
16222TIP3    H148588   8.148   2.411   6.734 -0.5445  0.5049 -0.1243
16222TIP3    H248589   8.065   2.413   6.608 -0.9854  0.0938  0.1559
16223TIP3   OH248590   0.579   3.739   2.446 -0.4102  0.0610 -0.5855
16223TIP3    H148591   0.550   3.668   2.389  0.4157  0.1238 -1.0867
16223TIP3    H248592   0.640   3.790   2.393 -0.7496  0.9598 -0.1210
16224TIP3   OH248593   8.694   4.301   0.648 -0.2581  0.1531 -0.1362
16224TIP3    H148594   8.690   4.334   0.738 -0.7355 -3.7980  1.3815
16224TIP3    H248595   8.616   4.248   0.638  1.7081 -2.5701 -1.5857
16225TIP3   OH248596   6.914   2.720   0.264 -0.1854 -0.5236  0.0705
16225TIP3    H148597   6.956   2.805   0.278 -1.1398  0.1144 -0.8743
16225TIP3    H248598   6.884   2.723   0.173 -1.1390 -1.4594  0.3457
16226TIP3   OH248599   0.273   2.178   0.868  0.4735 -0.2730 -0.6496
16226TIP3    H148600   0.211   2.188   0.796  0.3952 -0.4328 -0.6067
16226TIP3    H248601   0.269   2.084   0.889  0.3705 -0.1983 -0.3295
16227TIP3   OH248602   8.179   5.128   2.185  0.3882  0.0548 -0.5974
16227TIP3    H148603   8.137   5.133   2.270  0.7699  1.4045 -0.4688
16227TIP3    H248604   8.124   5.181   2.127  2.5902  3.0431 -0.1008
16228TIP3   OH248605   2.775   7.097   5.552  0.2943 -0.4623 -0.2725
16228TIP3    H148606   2.777   7.153   5.474  2.4623  0.7206  0.5778
16228TIP3    H248607   2.776   7.008   5.518  0.4965  0.0428 -1.6122
16229TIP3   OH248608   3.226   7.962   6.258 -0.4933 -0.0279 -0.2115
16229TIP3    H148609   3.188   8.014   6.186  0.9408  1.6048  0.1666
16229TIP3    H248610   3.203   7.872   6.237  1.0800  0.2536 -3.5000
16230TIP3   OH248611   0.300   1.917   0.948 -0.0502 -0.0542  0.5568
16230TIP3    H148612   0.235   1.874   1.002 -0.9912 -0.9841 -1.2533
16230TIP3    H248613   0.376   1.929   1.005 -0.7475 -1.6745  1.8417
16231TIP3   OH248614   3.494   8.348   5.917  0.2488 -0.6309 -0.2786
16231TIP3    H148615   3.516   8.260   5.948  1.1789 -0.2440  0.1616
16231TIP3    H248616   3.506   8.404   5.993 -1.7229 -0.3041 -0.1678
16232TIP3   OH248617   1.432   5.765   1.265 -0.1672  0.3942 -0.0296
16232TIP3    H148618   1.394   5.696   1.211 -0.6362  0.8808 -0.3255
16232TIP3    H248619   1.448   5.723   1.350 -0.8664  0.0410 -0.0684
16233TIP3   OH248620   1.218   2.170   2.166 -0.5234  0.2126  0.0326
16233TIP3    H148621   1.273   2.124   2.230  1.5964  2.7869  0.1453
16233TIP3    H248622   1.162   2.226   2.220  0.9500  2.0444 -0.2907
16234TIP3   OH248623   7.961   2.323   0.405 -0.7858  0.1258  0.1115
16234TIP3    H148624   7.964   2.307   0.499 -1.2549 -1.4422 -0.1287
16234TIP3    H248625   8.009   2.250   0.366  0.7385  1.5727 -0.7943
16235TIP3   OH248626   2.045   6.954   6.527  0.1406  0.0261  0.0423
16235TIP3    H148627   1.979   7.022   6.538 -0.0519 -0.1056 -0.2805
16235TIP3    H248628   2.128   7.001   6.522  0.0229  0.2266 -0.0264
16236TIP3   OH248629   8.648   2.509   1.390 -0.0547  0.2535 -0.5286
16236TIP3    H148630   8.554   2.505   1.409  0.2026 -1.1223  0.4816
16236TIP3    H248631   8.684   2.566   1.457  0.1264 -0.8108  0.2899
16237TIP3   OH248632   1.812   7.162   6.527  0.4999 -0.5428  0.5839
16237TIP3    H148633   1.731   7.174   6.576  0.5355 -0.4053  0.6081
16237TIP3    H248634   1.858   7.245   6.535  0.0493 -0.1786 -0.5340
16238TIP3   OH248635   8.177   3.196   3.232 -0.8173  0.0081 -0.0540
16238TIP3    H148636   8.089   3.161   3.244 -0.3311 -0.9680  0.7612
16238TIP3    H248637   8.166   3.269   3.171 -2.1143 -0.4248 -0.3535
16239TIP3   OH248638   1.563   6.969   6.938  0.0500 -0.2007 -0.2601
16239TIP3    H148639   1.644   7.019   6.930 -0.0194 -0.0560 -0.0721
16239TIP3    H248640   1.522   6.973   6.852  1.0303 -1.6323 -0.8060
16240TIP3   OH248641   8.793   1.592   0.784 -0.3441 -0.0951 -0.4545
16240TIP3    H148642   8.706   1.589   0.824 -0.5446 -0.7622 -0.9332
16240TIP3    H248643   8.821   1.683   0.793 -1.3813  0.2722 -0.9185
16241TIP3   OH248644   2.108   3.355   0.283  0.0911  0.3884  0.1627
16241TIP3    H148645   2.050   3.422   0.246 -0.1856  0.1676  0.1934
16241TIP3    H248646   2.181   3.404   0.320 -0.6753  0.7593  1.2237
16242TIP3   OH248647   0.412   1.488   0.045  0.3094  0.4236  0.1016
16242TIP3    H148648   0.395   1.442   0.128 -0.6550  1.2315  0.3615
16242TIP3    H248649   0.428   1.417  -0.018  0.6426 -0.2102  0.8854
16243TIP3   OH248650   2.049   1.822   0.359  0.4962 -0.5089  0.5499
16243TIP3    H148651   2.075   1.738   0.396 -1.0347 -1.7894 -1.1531
16243TIP3    H248652   1.992   1.861   0.426 -0.0038 -1.5353  0.7413
16244TIP3   OH248653   2.855   7.309   7.156  0.4324  0.0476 -0.2199
16244TIP3    H148654   2.899   7.249   7.216 -0.2019  0.0990  0.3097
16244TIP3    H248655   2.925   7.346   7.102  0.9053 -0.6422 -0.0789
16245TIP3   OH248656   0.131   1.347   1.878  0.1002 -0.0936 -0.4061
16245TIP3    H148657   0.056   1.404   1.860 -0.3516 -0.4546  0.2788
16245TIP3    H248658   0.142   1.351   1.973 -0.0407 -1.2620 -0.3272
16246TIP3   OH248659   0.406   1.465   1.524 -0.2333 -0.5799 -0.3286
16246TIP3    H148660   0.494   1.468   1.486  0.1886 -1.9264  0.5156
16246TIP3    H248661   0.360   1.400   1.471 -1.5232  1.9149 -2.3782
16247TIP3   OH248662   1.689   2.967   1.094 -0.2350 -0.2625 -0.4780
16247TIP3    H148663   1.774   2.984   1.055  1.3912 -1.4692  2.4059
16247TIP3    H248664   1.679   2.872   1.091  0.0338 -0.4088  2.1636
16248TIP3   OH248665   8.010   2.464   1.260  0.4258  0.1074 -0.0752
16248TIP3    H148666   8.070   2.529   1.297  0.5179  0.1301 -0.2691
16248TIP3    H248667   8.066   2.404   1.212  0.2170  0.5506 -0.8867
16249TIP3   OH248668   1.517   4.768   1.974 -0.3255 -0.1142  0.2354
16249TIP3    H148669   1.473   4.707   2.033 -0.0334  0.4630  1.0694
16249TIP3    H248670   1.577   4.817   2.031  1.0020 -0.5252 -0.7921
16250TIP3   OH248671   8.776   0.766   1.286 -0.0246 -0.4020  0.1820
16250TIP3    H148672   8.720   0.689   1.298  0.7805 -1.1123 -0.5212
16250TIP3    H248673   8.856   0.731   1.245  0.0895  0.9093 -0.7431
16251TIP3   OH248674   8.155   2.782   1.118  0.0594  0.6530 -0.5828
16251TIP3    H148675   8.166   2.724   1.193  1.9490 -0.6781 -1.8503
16251TIP3    H248676   8.216   2.854   1.134 -0.7768  1.2566 -0.0355
16252TIP3   OH248677   4.240   7.193   5.384 -0.1647 -0.0422  0.1017
16252TIP3    H148678   4.288   7.196   5.302 -1.0826 -2.1441 -0.5645
16252TIP3    H248679   4.258   7.106   5.419 -0.0852  0.7011  1.9455
16253TIP3   OH248680   8.176   3.494   2.152  0.3444 -0.6431  0.5947
16253TIP3    H148681   8.118   3.523   2.081  2.0334 -0.9861 -0.9692
16253TIP3    H248682   8.123   3.434   2.204 -2.2303  2.7737  2.0816
16254TIP3   OH248683   0.914   2.704   0.343  0.2853 -0.2221  0.1587
16254TIP3    H148684   0.938   2.614   0.325  1.0337 -0.6768  3.1000
16254TIP3    H248685   0.824   2.699   0.377  0.1194  0.2075 -0.2066
16255TIP3   OH248686   7.869   3.445   0.366  0.3368 -0.3597  0.0676
16255TIP3    H148687   7.898   3.358   0.338 -0.3654  0.1655 -2.4026
16255TIP3    H248688   7.783   3.457   0.325 -0.5696  0.6367  2.1729
16256TIP3   OH248689   0.662   3.807   0.020 -0.0804 -0.0814  0.2222
16256TIP3    H148690   0.659   3.712   0.018  0.6102 -0.1009  0.0092
16256TIP3    H248691   0.753   3.828   0.042 -0.4468  0.5187  1.2034
16257TIP3   OH248692   7.410   0.906   0.694 -0.0669  0.0825  0.0622
16257TIP3    H148693   7.433   0.938   0.607 -0.5589  1.0381  0.2840
16257TIP3    H248694   7.413   0.811   0.686 -3.4308  0.0687 -1.9078
16258TIP3   OH248695   0.716   4.631   1.537  0.0018  0.4506 -1.1859
16258TIP3    H148696   0.667   4.666   1.463  1.4078  1.1681 -1.8108
16258TIP3    H248697   0.792   4.589   1.497 -0.3090 -1.0173 -0.2747
16259TIP3   OH248698   8.326   2.430   1.806 -0.2026  0.3201  0.2725
16259TIP3    H148699   8.247   2.387   1.837  0.4633 -2.0763 -1.2824
16259TIP3    H248700   8.293   2.504   1.754 -1.4814 -1.1114 -1.0378
16260TIP3   OH248701   3.566   7.298   6.773  0.2252 -0.0634  0.4079
16260TIP3    H148702   3.570   7.225   6.712  0.1369 -0.7584  1.2170
16260TIP3    H248703   3.573   7.377   6.718  0.7226 -0.6875 -0.4304
16261TIP3   OH248704   8.818   2.406   1.946  0.1155 -0.5014  0.3086
16261TIP3    H148705   8.911   2.404   1.970  0.3282  0.7319 -0.3813
16261TIP3    H248706   8.812   2.353   1.867  0.5111  0.6965 -0.5381
16262TIP3   OH248707   8.837   3.666   0.407 -0.0882 -0.3876  0.4415
16262TIP3    H148708   8.835   3.619   0.491  1.9206 -1.9889 -0.3771
16262TIP3    H248709   8.895   3.613   0.351 -0.0308  1.5819 -1.4046
16263TIP3   OH248710   2.105   2.748   1.038 -0.1422  0.0834 -0.0421
16263TIP3    H148711   2.152   2.775   0.958  0.6323 -1.3698 -0.0838
16263TIP3    H248712   2.175   2.728   1.100 -0.7137 -1.1495  0.2126
16264TIP3   OH248713   0.046   2.034   0.160 -0.1467 -0.3985 -0.1118
16264TIP3    H148714   0.057   2.052   0.254 -0.0178 -0.6573 -0.0769
16264TIP3    H248715   0.064   2.118   0.118  1.4788 -0.6903 -0.0178
16265TIP3   OH248716   8.287   0.997   3.078 -0.0968  0.2106  0.3876
16265TIP3    H148717   8.248   0.930   3.135  0.8898 -0.7422 -0.0205
16265TIP3    H248718   8.309   0.949   2.997  1.3867  0.8314  0.4072
16266TIP3   OH248719   7.303   1.722   1.386 -0.0689  0.0278 -0.0649
16266TIP3    H148720   7.325   1.629   1.383 -1.1185 -0.2230 -0.2857
16266TIP3    H248721   7.244   1.735   1.312 -2.4551  0.1783  1.8004
16267TIP3   OH248722   7.783   1.552   2.683  0.6277  0.2751 -0.4513
16267TIP3    H148723   7.722   1.589   2.619  0.9199  1.4572 -0.0677
16267TIP3    H248724   7.865   1.599   2.668  0.4165  1.3216  1.4480
16268TIP3   OH248725   3.391   8.049   7.009 -0.0418  0.2262  0.1465
16268TIP3    H148726   3.440   7.969   6.990  0.1989  0.4309 -0.1095
16268TIP3    H248727   3.301   8.019   7.023  0.0775 -0.1061  0.2181
16269TIP3   OH248728   1.398   3.099   0.854  0.7181 -0.2122 -0.6389
16269TIP3    H148729   1.305   3.081   0.842  0.2353  1.2087  0.7954
16269TIP3    H248730   1.426   3.039   0.922  0.7999 -0.4513 -0.8805
16270TIP3   OH248731   1.130   1.057   0.941  0.3207 -0.0789  0.0347
16270TIP3    H148732   1.054   1.029   0.889  1.5803  0.4455 -2.1453
16270TIP3    H248733   1.137   0.991   1.010 -1.7945 -0.4221 -0.0472
16271TIP3   OH248734   7.268   2.199   2.041 -0.3130 -0.3584 -0.0638
16271TIP3    H148735   7.293   2.107   2.031  0.4653 -0.3757  1.8925
16271TIP3    H248736   7.290   2.239   1.956 -0.8612 -2.0026 -0.9983
16272TIP3   OH248737   8.000   3.730   2.332 -0.2846 -0.2069 -0.1294
16272TIP3    H148738   7.936   3.753   2.399  0.3483  0.2055  0.3492
16272TIP3    H248739   7.999   3.635   2.329  0.1879 -0.2516  0.9731
16273TIP3   OH248740   1.006   6.593   6.655  0.2107  0.2519  0.0580
16273TIP3    H148741   0.984   6.685   6.639 -1.4087 -0.5595 -2.9159
16273TIP3    H248742   0.922   6.552   6.677  0.4332 -0.9910 -1.3155
16274TIP3   OH248743   0.821   2.555   0.736  0.0573  0.0033 -0.1660
16274TIP3    H148744   0.778   2.578   0.654  0.6717 -0.8774 -0.7439
16274TIP3    H248745   0.761   2.584   0.804 -1.5126 -1.3434 -0.9514
16275TIP3   OH248746   8.038   1.631   4.042 -0.0703  0.1866  0.4304
16275TIP3    H148747   8.032   1.536   4.037 -0.4941  0.2972 -1.3618
16275TIP3    H248748   7.958   1.663   4.002 -0.0859  1.3046  1.3231
16276TIP3   OH248749   0.135   4.546   2.837  0.1665  0.0491 -0.1937
16276TIP3    H148750   0.205   4.606   2.862 -0.2987  0.0681  1.0876
16276TIP3    H248751   0.090   4.590   2.764  1.0214  0.3672 -0.5310
16277TIP3   OH248752   1.407   3.805   0.084  0.1142  0.2627  0.4388
16277TIP3    H148753   1.447   3.754   0.014 -0.7774  0.1842 -0.0132
16277TIP3    H248754   1.359   3.741   0.136 -0.9399  0.6212 -0.0827
16278TIP3   OH248755   0.844   6.753   6.973  0.0427 -0.4494 -0.5376
16278TIP3    H148756   0.749   6.752   6.963  0.0516  1.5338 -1.1297
16278TIP3    H248757   0.876   6.799   6.896  1.3815  0.1145  0.3240
16279TIP3   OH248758   0.416   2.399   0.527  0.1421 -0.1352 -0.2158
16279TIP3    H148759   0.366   2.416   0.607  1.5111  0.4753  0.5459
16279TIP3    H248760   0.497   2.358   0.559 -0.3800 -2.2221 -1.5150
16280TIP3   OH248761   1.542   5.672   1.486  0.3605  0.0030 -0.2901
16280TIP3    H148762   1.514   5.617   1.559  0.5378 -0.5084 -0.6065
16280TIP3    H248763   1.625   5.635   1.458  0.1362 -0.0023 -0.9662
16281TIP3   OH248764   0.423   2.414   0.838  0.4670 -0.1397 -0.2488
16281TIP3    H148765   0.387   2.328   0.816  1.0527 -0.8475  1.4881
16281TIP3    H248766   0.349   2.463   0.874 -0.0702  0.3993 -2.0524
16282TIP3   OH248767   1.416   3.259   1.632 -0.3708 -0.0174  0.3278
16282TIP3    H148768   1.401   3.189   1.696 -0.2492  0.3135  0.7210
16282TIP3    H248769   1.418   3.214   1.548 -0.0347 -0.5276  0.6023
16283TIP3   OH248770   3.503   6.017   7.012  0.1686  0.5147  0.1997
16283TIP3    H148771   3.434   5.951   7.022 -1.1049  1.2300 -3.2784
16283TIP3    H248772   3.498   6.070   7.092 -0.7345 -1.7773  1.7026
16284TIP3   OH248773   1.038   2.537   1.193  0.5223  0.0998 -0.4919
16284TIP3    H148774   1.010   2.447   1.175  0.7416  0.2922 -1.8981
16284TIP3    H248775   0.964   2.578   1.236 -1.0919  0.3772 -3.4325
16285TIP3   OH248776   0.302   1.519   0.658 -0.2649  0.2666 -0.0863
16285TIP3    H148777   0.261   1.472   0.585 -0.5691 -0.4768  0.5588
16285TIP3    H248778   0.280   1.611   0.642  1.2445  0.3397 -1.9454
16286TIP3   OH248779   1.063   3.515   3.446  0.6908  0.4864 -0.4374
16286TIP3    H148780   1.097   3.497   3.358  2.6382 -0.3533  0.4615
16286TIP3    H248781   1.136   3.556   3.492 -0.3627  1.0489  0.7565
16287TIP3   OH248782   3.807   5.978   5.946  0.4420 -0.4575  0.4981
16287TIP3    H148783   3.893   5.977   5.905  0.3581 -1.4343  0.3278
16287TIP3    H248784   3.763   5.901   5.910 -0.7553  0.4306  0.0502
16288TIP3   OH248785   2.195   1.607   0.501  0.0363 -0.5646  0.0662
16288TIP3    H148786   2.206   1.614   0.596  0.0420  0.0957  0.0204
16288TIP3    H248787   2.143   1.527   0.489  0.1753 -0.7416  0.6126
16289TIP3   OH248788   0.573   2.106   0.887  0.1118 -0.4700 -0.1207
16289TIP3    H148789   0.601   2.107   0.978  0.9162  1.9420 -0.3631
16289TIP3    H248790   0.479   2.124   0.891  0.0602 -0.8205  0.2603
16290TIP3   OH248791   3.293   7.433   6.694  0.3821 -0.0264 -0.4200
16290TIP3    H148792   3.253   7.365   6.748 -0.3627  0.5973 -0.1890
16290TIP3    H248793   3.303   7.392   6.608  0.0440 -0.4638 -0.2537
16291TIP3   OH248794   8.477   1.955   0.868  0.2510 -0.6930  0.5386
16291TIP3    H148795   8.431   1.906   0.936  2.1284 -2.5477  0.5349
16291TIP3    H248796   8.492   2.041   0.906  0.1627 -1.3096  2.0092
16292TIP3   OH248797   3.075   1.068   1.811 -0.0610 -0.2365 -0.4999
16292TIP3    H148798   3.037   0.989   1.772 -1.8429  0.3334  0.0313
16292TIP3    H248799   3.168   1.062   1.790 -0.1056 -2.6365 -0.1949
16293TIP3   OH248800   4.685   6.345   7.088 -0.8618  0.1350 -0.0366
16293TIP3    H148801   4.718   6.261   7.055 -0.7705  0.9435 -2.1127
16293TIP3    H248802   4.591   6.331   7.100 -1.0404  0.0288 -1.4356
16294TIP3   OH248803   8.792   2.070   1.766 -0.5062 -0.2784 -0.5841
16294TIP3    H148804   8.713   2.104   1.806  0.8150  0.7693  1.1841
16294TIP3    H248805   8.790   2.103   1.676 -0.9714  1.5904  0.1058
16295TIP3   OH248806   1.307   1.515   0.971  0.2050 -0.5426 -0.4255
16295TIP3    H148807   1.278   1.562   1.048  2.1225  0.3250 -0.1914
16295TIP3    H248808   1.293   1.422   0.992 -2.2027 -0.1569 -0.3058
16296TIP3   OH248809   0.986   2.003   1.567  0.5791 -0.0787  1.0445
16296TIP3    H148810   0.943   1.932   1.519 -1.5114  0.6977  1.7283
16296TIP3    H248811   1.017   1.962   1.647  0.0452 -0.3876  1.0961
16297TIP3   OH248812   3.148   7.237   6.458  0.1574  0.2358 -0.2649
16297TIP3    H148813   3.172   7.323   6.426  0.3901 -0.2329 -1.3591
16297TIP3    H248814   3.060   7.222   6.424 -0.7462  0.9305  1.7091
16298TIP3   OH248815   2.180   4.468   0.664  0.0555  0.5994 -0.1171
16298TIP3    H148816   2.273   4.449   0.678 -0.0731  1.1604  1.5288
16298TIP3    H248817   2.167   4.553   0.705 -0.7288  1.4902 -2.1712
16299TIP3   OH248818   7.258   0.580   0.982 -0.2698 -0.1079 -0.2592
16299TIP3    H148819   7.184   0.633   0.954 -1.1841 -1.0322  0.3951
16299TIP3    H248820   7.226   0.490   0.980  0.4838 -0.4221  1.0922
16300TIP3   OH248821   7.744   1.293   2.217  0.3137 -0.3551  0.3440
16300TIP3    H148822   7.803   1.360   2.250 -0.3313  0.7667 -0.7625
16300TIP3    H248823   7.696   1.264   2.295  0.4575  0.5938  0.7979
16301TIP3   OH248824   3.437   1.484   1.848 -0.1542  0.2019  0.3849
16301TIP3    H148825   3.438   1.580   1.842 -0.6001  0.1748 -0.1209
16301TIP3    H248826   3.528   1.461   1.866  0.0642  0.6914 -0.0558
16302TIP3   OH248827   0.382   2.066   0.391  0.4616  1.0058 -0.3029
16302TIP3    H148828   0.332   2.143   0.364 -0.4086  0.9584  1.1181
16302TIP3    H248829   0.335   2.032   0.467  1.3970 -0.3588 -0.3078
16303TIP3   OH248830   8.345   1.223   0.267  0.5399  0.5283  0.1173
16303TIP3    H148831   8.411   1.255   0.328  0.1452 -2.7208  2.3682
16303TIP3    H248832   8.392   1.207   0.185  2.1284  0.0497  1.1197
16304TIP3   OH248833   7.647   0.376   3.894  0.1152 -0.2416  0.1950
16304TIP3    H148834   7.673   0.351   3.806 -0.4640  0.1188 -0.0805
16304TIP3    H248835   7.702   0.452   3.915  1.1598 -1.0984  0.6461
16305TIP3   OH248836   1.496   3.072   2.905 -0.4488 -0.4716  0.0851
16305TIP3    H148837   1.440   3.067   2.982 -1.1659 -0.1593 -0.4053
16305TIP3    H248838   1.468   2.999   2.850  2.4127 -2.8132  1.6334
16306TIP3   OH248839   1.569   1.203   1.107 -0.1419 -0.4979  0.4625
16306TIP3    H148840   1.596   1.165   1.190  1.1054  0.6157  0.5720
16306TIP3    H248841   1.583   1.297   1.117  0.3633 -0.3799 -1.1284
16307TIP3   OH248842   1.399   4.820   1.710  0.0186 -0.5349  0.3130
16307TIP3    H148843   1.311   4.854   1.722 -0.6339 -2.2291  0.3724
16307TIP3    H248844   1.434   4.810   1.799 -0.5436 -1.9421  0.3898
16308TIP3   OH248845   0.294   3.744   1.131  0.3966 -0.0492  0.2593
16308TIP3    H148846   0.250   3.803   1.192  0.0799  0.0023 -0.0194
16308TIP3    H248847   0.228   3.724   1.065  1.8885  2.9319 -2.1971
16309TIP3   OH248848   0.144   2.786   0.304  0.6622  0.0003 -0.6580
16309TIP3    H148849   0.152   2.723   0.232 -1.6762  0.3329 -1.2440
16309TIP3    H248850   0.114   2.734   0.378  1.3528 -0.0269 -0.3905
16310TIP3   OH248851   0.601   5.522   0.070  0.4591  0.1180  0.5938
16310TIP3    H148852   0.530   5.458   0.061  0.4866  0.0725  0.6938
16310TIP3    H248853   0.558   5.607   0.060  0.8969  0.0044 -2.5517
16311TIP3   OH248854   8.683   3.380   2.956  0.2661  0.3872 -0.6046
16311TIP3    H148855   8.719   3.332   2.882  0.0427  0.2638 -0.6330
16311TIP3    H248856   8.659   3.313   3.020 -1.6080  0.3316 -1.3243
16312TIP3   OH248857   0.703   2.981   0.604  0.2192 -0.5504 -0.0411
16312TIP3    H148858   0.656   2.905   0.639 -0.0545 -0.7998 -0.9475
16312TIP3    H248859   0.641   3.023   0.544  0.0939  0.8253  1.0055
16313TIP3   OH248860   0.925   1.353   2.303 -0.4699  0.0431  0.3687
16313TIP3    H148861   0.875   1.353   2.222  0.6325 -0.5940 -0.3276
16313TIP3    H248862   1.006   1.399   2.281 -0.2622  0.0680  1.1758
16314TIP3   OH248863   2.632   1.073   2.225 -0.0836  0.5582  0.3584
16314TIP3    H148864   2.690   1.012   2.179 -1.7329 -0.1950 -0.7783
16314TIP3    H248865   2.662   1.070   2.316  1.8823  0.4686 -0.2718
16315TIP3   OH248866   0.070   2.658   0.546  0.6395  0.2604  0.3064
16315TIP3    H148867   0.110   2.689   0.627  0.7649 -2.2654  1.2555
16315TIP3    H248868   0.013   2.586   0.573 -0.6319  0.5044 -1.6518
16316TIP3   OH248869   8.006   1.966   0.972  0.2005 -0.0009 -0.2554
16316TIP3    H148870   7.916   1.998   0.986  0.6513  1.1517  0.0464
16316TIP3    H248871   8.016   1.895   1.036 -0.0896  0.6774  0.5480
16317TIP3   OH248872   8.818   2.499   0.289 -0.0444  0.2918  0.3137
16317TIP3    H148873   8.883   2.494   0.219 -0.5372 -0.4544 -0.0887
16317TIP3    H248874   8.804   2.593   0.301  1.8397  0.5045  1.0842
16318TIP3   OH248875   4.637   3.899   6.324  0.6297  0.0107 -0.3384
16318TIP3    H148876   4.665   3.988   6.342 -0.0739  0.3750 -1.0445
16318TIP3    H248877   4.591   3.904   6.241 -0.2850 -0.8304  0.1026
16319TIP3   OH248878   1.184   0.812   1.582  0.0244  1.0310 -0.2409
16319TIP3    H148879   1.125   0.795   1.656  0.5106 -0.0596 -0.0888
16319TIP3    H248880   1.271   0.817   1.622  0.2136  1.1164 -0.6621
16320TIP3   OH248881   6.050   0.720   5.275 -0.0147  0.0023  0.4676
16320TIP3    H148882   6.078   0.787   5.212  2.3013 -1.0401  0.3139
16320TIP3    H248883   6.114   0.728   5.347 -0.1312 -1.5853  0.7536
16321TIP3   OH248884  -0.013   0.214   0.636  0.6305  0.3627  0.5144
16321TIP3    H148885  -0.033   0.283   0.700  1.1498  0.2643  0.7837
16321TIP3    H248886   0.049   0.255   0.576 -1.2588  1.0532 -1.0217
16322TIP3   OH248887   1.085   1.279   1.505 -0.5186 -0.4912  0.0922
16322TIP3    H148888   1.146   1.338   1.550  0.4371 -1.1275 -0.3362
16322TIP3    H248889   1.036   1.236   1.574  0.4360 -0.9296  0.5082
16323TIP3   OH248890   7.445   5.218   0.560  0.2015  0.3697 -0.1233
16323TIP3    H148891   7.449   5.309   0.530 -1.9253 -0.3571 -2.8413
16323TIP3    H248892   7.351   5.200   0.567  0.5728 -1.9093 -0.6239
16324TIP3   OH248893   3.625   7.250   7.060  0.0145  0.0156 -0.0789
16324TIP3    H148894   3.635   7.155   7.063 -0.8135 -0.0339  1.8010
16324TIP3    H248895   3.595   7.269   6.970 -0.0990 -1.5181 -0.3718
16325TIP3   OH248896   8.704   2.797   1.865 -0.3131 -0.0069 -0.5234
16325TIP3    H148897   8.663   2.724   1.913 -0.3984 -0.1038 -0.7428
16325TIP3    H248898   8.795   2.771   1.855  0.0020  0.5893  0.7118
16326TIP3   OH248899   3.701   1.162   0.546  0.3291  0.1690  0.4615
16326TIP3    H148900   3.656   1.247   0.541  0.4583  0.2759  1.1069
16326TIP3    H248901   3.763   1.172   0.618 -1.2381 -1.2372  2.0383
16327TIP3   OH248902   0.223   3.006   1.680 -0.5591 -0.5492 -0.3584
16327TIP3    H148903   0.206   3.004   1.586  0.9791  0.8239 -0.6820
16327TIP3    H248904   0.314   2.977   1.689 -0.7507 -0.8341  0.7166
16328TIP3   OH248905   3.264   4.534   0.785  0.5856  0.4362  0.2328
16328TIP3    H148906   3.298   4.534   0.874  1.3968  1.2223 -0.0708
16328TIP3    H248907   3.310   4.462   0.741 -0.1472 -0.2439  0.5657
16329TIP3   OH248908   3.165   1.214   2.328 -0.1441 -0.3272 -0.3858
16329TIP3    H148909   3.196   1.243   2.413 -2.3943  0.3697  0.2455
16329TIP3    H248910   3.087   1.162   2.347  0.3522 -1.6985 -1.9196
16330TIP3   OH248911   1.402   4.069   0.201 -0.4716  0.1378 -0.2334
16330TIP3    H148912   1.457   3.996   0.172 -0.6240  0.5709 -1.6668
16330TIP3    H248913   1.463   4.131   0.239  0.0244  0.4964 -1.5739
16331TIP3   OH248914   1.890   1.626   1.620  0.1345  0.3657 -0.0241
16331TIP3    H148915   1.961   1.640   1.558 -0.5084  0.4614 -0.7491
16331TIP3    H248916   1.913   1.545   1.665  1.2195  0.9477  0.4819
16332TIP3   OH248917   8.184   2.959   2.302  0.2695  0.3274 -0.4332
16332TIP3    H148918   8.140   2.881   2.267  0.8923  0.0479 -0.6078
16332TIP3    H248919   8.195   2.940   2.395  0.6526  0.0953 -0.5249
16333TIP3   OH248920   6.106   5.878   6.818  0.5329 -0.1427  0.1209
16333TIP3    H148921   6.124   5.792   6.857  0.1728  0.0665  0.7462
16333TIP3    H248922   6.158   5.878   6.737  1.3768 -0.5351  0.6532
16334TIP3   OH248923   2.381   7.653   6.621 -0.4022 -0.4718 -0.3274
16334TIP3    H148924   2.471   7.677   6.644 -1.0555  0.2071  1.5870
16334TIP3    H248925   2.378   7.660   6.525  2.2821 -3.0184 -0.6781
16335TIP3   OH248926   5.156   7.028   7.106  0.1227 -0.2909  0.8499
16335TIP3    H148927   5.199   6.966   7.047 -0.9868 -0.8461  0.6088
16335TIP3    H248928   5.206   7.022   7.187  1.9890  0.8590 -0.1661
16336TIP3   OH248929   0.657   2.301   1.221 -0.0710 -0.3672 -0.5111
16336TIP3    H148930   0.695   2.250   1.292  0.1659  0.1620 -0.2523
16336TIP3    H248931   0.730   2.317   1.161  0.0542  0.4228 -0.1484
16337TIP3   OH248932   4.148   3.287   0.272 -0.1212  0.1151 -0.1186
16337TIP3    H148933   4.056   3.306   0.253 -0.1242  0.9214  0.6630
16337TIP3    H248934   4.147   3.199   0.310 -0.7240  0.6204  1.0595
16338TIP3   OH248935   3.060   2.459   0.734  0.2362  0.5550  0.0816
16338TIP3    H148936   3.023   2.379   0.770  0.1911  0.9176  0.8345
16338TIP3    H248937   3.036   2.456   0.641  0.1410 -0.2432  0.1254
16339TIP3   OH248938   1.913   1.124   0.544 -0.9125  0.1799  0.0634
16339TIP3    H148939   1.852   1.186   0.584  0.0544  1.2534 -0.1022
16339TIP3    H248940   1.944   1.071   0.617  0.5265  1.8582  0.7032
16340TIP3   OH248941   5.317   5.086   5.868 -0.1484 -0.5593 -0.3664
16340TIP3    H148942   5.269   5.044   5.939 -1.2104  0.2706 -0.5797
16340TIP3    H248943   5.388   5.133   5.911 -0.2191 -0.8489  0.0652
16341TIP3   OH248944   3.365   7.491   6.122 -0.2245  0.3310  0.3160
16341TIP3    H148945   3.446   7.505   6.073  0.4297 -0.1320  1.2537
16341TIP3    H248946   3.309   7.442   6.062  0.4989 -0.0726 -0.0340
16342TIP3   OH248947   3.500   2.032   1.797 -0.1690 -0.6565 -0.2104
16342TIP3    H148948   3.483   2.124   1.777 -1.5427 -1.0510 -0.9413
16342TIP3    H248949   3.592   2.019   1.775  0.0209  0.5266 -0.1602
16343TIP3   OH248950   2.461   1.673   0.477 -0.3923 -0.3421 -0.5947
16343TIP3    H148951   2.366   1.658   0.472 -0.1235 -2.7701  0.5726
16343TIP3    H248952   2.474   1.760   0.440 -3.2171  0.5461  0.3590
16344TIP3   OH248953   4.998   7.963   6.746 -0.1277  0.3544 -0.1785
16344TIP3    H148954   5.037   7.947   6.660  0.6988  1.9528 -0.1156
16344TIP3    H248955   5.068   7.940   6.809 -0.1580  0.7780  0.0107
16345TIP3   OH248956   2.356   2.741   1.840 -0.1376 -0.1804  0.4603
16345TIP3    H148957   2.420   2.683   1.798 -1.3045  0.2065 -1.9575
16345TIP3    H248958   2.272   2.696   1.829 -0.9050  1.4575 -0.4918
16346TIP3   OH248959   3.742   3.217   0.295 -0.0210 -0.2311  0.4649
16346TIP3    H148960   3.682   3.268   0.349  0.5044  0.7875  0.0926
16346TIP3    H248961   3.814   3.193   0.353  2.3495  3.8985 -0.5853
16347TIP3   OH248962   1.912   1.849   1.785 -0.9990  0.1482 -0.0398
16347TIP3    H148963   1.878   1.783   1.725 -1.0661 -0.1252  0.2952
16347TIP3    H248964   1.911   1.930   1.735 -0.5216 -0.1822 -0.5906
16348TIP3   OH248965   8.124   5.036   0.394  0.4438 -0.4530 -0.3803
16348TIP3    H148966   8.031   5.017   0.400  0.0307  1.3018 -1.0258
16348TIP3    H248967   8.163   4.954   0.364 -1.2321 -0.4581 -2.6914
16349TIP3   OH248968   1.593   4.183   1.336  0.0165  0.9295  0.4236
16349TIP3    H148969   1.554   4.096   1.331 -0.2459  1.0669 -0.0007
16349TIP3    H248970   1.518   4.243   1.331  0.2236  1.1854  0.3681
16350TIP3   OH248971   5.178   7.185   6.516 -0.0411 -0.0403  0.7518
16350TIP3    H148972   5.227   7.254   6.472 -1.2014  0.2225 -0.1537
16350TIP3    H248973   5.124   7.231   6.580 -0.7543 -0.1066  0.2049
16351TIP3   OH248974   5.417   5.797   7.000 -0.2651  0.1509 -0.4289
16351TIP3    H148975   5.443   5.708   6.980  0.1806  0.5300 -1.5597
16351TIP3    H248976   5.361   5.789   7.077  0.9840 -0.9406  0.3772
16352TIP3   OH248977   0.691   1.240   0.911  0.1642  0.2497  0.1459
16352TIP3    H148978   0.617   1.208   0.962 -0.2403 -1.1020 -1.2677
16352TIP3    H248979   0.748   1.282   0.976 -0.1330 -1.8015  1.8017
16353TIP3   OH248980   1.816   3.852   1.249  0.4721  0.0830 -0.3194
16353TIP3    H148981   1.726   3.884   1.241  1.0434  1.6878 -0.5454
16353TIP3    H248982   1.833   3.807   1.167 -0.3364 -0.8094 -0.0101
16354TIP3   OH248983   5.484   6.793   6.090 -0.4482  0.0231  0.2662
16354TIP3    H148984   5.510   6.759   6.175  0.3326  1.1827  0.4954
16354TIP3    H248985   5.556   6.851   6.064 -1.1750  0.5111 -0.6893
16355TIP3   OH248986   2.605   2.039   1.524  0.5605 -0.7361  0.0768
16355TIP3    H148987   2.571   2.005   1.608 -0.1998 -2.2053 -0.7993
16355TIP3    H248988   2.533   2.025   1.462  1.0569  0.5024 -0.8006
16356TIP3   OH248989   5.475   6.501   7.195 -0.6685 -0.0746 -0.4287
16356TIP3    H148990   5.455   6.578   7.141 -1.0511 -0.5959 -1.0308
16356TIP3    H248991   5.424   6.431   7.156 -1.3971 -0.3299  0.9583
16357TIP3   OH248992   3.300   1.334   2.031 -0.0118 -0.1364 -0.2950
16357TIP3    H148993   3.350   1.394   1.977  1.1315  2.0379  2.9811
16357TIP3    H248994   3.345   1.250   2.022  1.4447  0.6968 -1.0303
16358TIP3   OH248995   4.164   3.001   0.337  0.3711  0.1021 -0.2765
16358TIP3    H148996   4.171   2.941   0.262 -2.0334  1.3189 -1.4993
16358TIP3    H248997   4.109   2.954   0.400 -1.1063  0.8070 -1.0319
16359TIP3   OH248998   0.975   0.924   0.203  0.4181 -0.0782 -0.5379
16359TIP3    H148999   0.887   0.919   0.166  1.4721 -0.4589 -3.0479
16359TIP3    H249000   0.972   0.868   0.280 -1.8389  0.8301  0.0713
16360TIP3   OH249001   6.191   5.635   6.025 -0.7881 -0.1342  0.1304
16360TIP3    H149002   6.132   5.615   6.098  0.8894  0.5255  1.7013
16360TIP3    H249003   6.133   5.645   5.950 -2.8553  2.0350  1.9223
16361TIP3   OH249004   4.450   6.655   6.966 -0.1228 -0.0424  0.0675
16361TIP3    H149005   4.508   6.686   6.897  0.0724 -2.3416 -0.8731
16361TIP3    H249006   4.392   6.593   6.921 -1.5066  0.1791  1.5216
16362TIP3   OH249007   2.812   7.463   6.741  0.1994  0.1408  0.1027
16362TIP3    H149008   2.759   7.541   6.720  0.9347  0.2319 -1.4768
16362TIP3    H249009   2.902   7.490   6.723  0.6471 -0.5247  1.2657
16363TIP3   OH249010   3.047   7.573   6.643 -0.4038 -0.1448  0.0805
16363TIP3    H149011   3.132   7.529   6.650 -0.0794  0.4385 -0.1106
16363TIP3    H249012   3.021   7.561   6.552 -0.8792 -0.9581  0.3203
16364TIP3   OH249013   4.254   6.216   6.767  0.6679  0.3844  0.3690
16364TIP3    H149014   4.278   6.134   6.809  0.4688 -0.2575 -0.7532
16364TIP3    H249015   4.329   6.238   6.712 -0.0336 -0.0207 -0.7638
16365TIP3   OH249016   4.334   6.835   7.179  0.2843  0.0555 -0.4732
16365TIP3    H149017   4.371   6.752   7.147 -0.0925 -0.1228 -0.4516
16365TIP3    H249018   4.241   6.831   7.155  0.7987  1.6392 -2.8588
16366TIP3   OH249019   0.305   0.559   2.092  0.0470  0.0452  0.2160
16366TIP3    H149020   0.351   0.631   2.135 -0.3498  0.6201 -0.3221
16366TIP3    H249021   0.214   0.588   2.086  0.1073  0.0065 -1.0758
16367TIP3   OH249022   1.441   5.338   0.704  0.0109  0.2683  0.2171
16367TIP3    H149023   1.384   5.312   0.631  0.3892 -0.3019  0.1238
16367TIP3    H249024   1.508   5.270   0.707 -0.1850  0.1195  1.3002
16368TIP3   OH249025   4.596   6.371   6.167 -0.1511 -0.3035  0.3644
16368TIP3    H149026   4.523   6.391   6.226  2.4463  0.8518  3.3488
16368TIP3    H249027   4.610   6.277   6.178  1.1173  0.0995  2.7001
16369TIP3   OH249028   2.288   2.061   0.006  0.1668 -0.3342  0.0051
16369TIP3    H149029   2.237   1.981   0.022 -3.2051  1.8775  0.8185
16369TIP3    H249030   2.266   2.119   0.079  1.3535  1.9055 -1.3573
16370TIP3   OH249031   4.034   6.653   7.003 -0.1857 -0.8557  0.1924
16370TIP3    H149032   4.019   6.649   6.909  0.3743 -0.2378  0.0675
16370TIP3    H249033   4.102   6.587   7.019 -0.0124 -0.7011  0.1022
16371TIP3   OH249034   0.619   2.535   1.588 -0.3218 -0.3251  0.1827
16371TIP3    H149035   0.615   2.631   1.588 -0.7254 -0.3363 -0.4044
16371TIP3    H249036   0.537   2.507   1.629 -0.2928 -0.4214  0.1759
16372TIP3   OH249037   6.347   5.835   6.662 -0.3360  0.0752 -0.1326
16372TIP3    H149038   6.370   5.912   6.611 -0.9734 -0.0020 -0.5363
16372TIP3    H249039   6.395   5.845   6.744 -0.7853  1.1312  0.0020
16373TIP3   OH249040   1.422   4.522   0.936  0.1325  0.2556 -0.0652
16373TIP3    H149041   1.365   4.563   0.871 -1.1241 -1.1054  0.1517
16373TIP3    H249042   1.428   4.430   0.908  1.7337  0.2544  0.2509
16374TIP3   OH249043   3.228   3.098   1.692 -0.0050  0.0006 -0.2900
16374TIP3    H149044   3.176   3.159   1.639  1.0098  1.3581  0.2440
16374TIP3    H249045   3.183   3.093   1.776  0.5726  1.0002  0.0934
16375TIP3   OH249046   2.616   4.769   1.029 -0.2239 -0.0481  0.4705
16375TIP3    H149047   2.553   4.757   0.958 -0.3417 -0.2222  0.6042
16375TIP3    H249048   2.565   4.756   1.109  0.0174 -0.3726  0.5754
16376TIP3   OH249049   0.295   3.849   0.731  0.1616 -0.1178  0.1473
16376TIP3    H149050   0.365   3.797   0.691  0.3134  0.7163 -0.6966
16376TIP3    H249051   0.326   3.940   0.724 -0.9924  0.2632 -0.2348
16377TIP3   OH249052   4.823   7.126   6.482 -0.7146  0.2209 -0.1140
16377TIP3    H149053   4.841   7.210   6.440  1.9900  0.4852  1.4503
16377TIP3    H249054   4.862   7.061   6.423  0.4206  0.3681  0.4545
16378TIP3   OH249055   1.447   3.966   1.505 -0.2942  0.2645 -0.1036
16378TIP3    H149056   1.451   4.049   1.553  0.4881 -0.0491  0.4001
16378TIP3    H249057   1.354   3.952   1.488 -0.2342  2.5627 -2.5458
16379TIP3   OH249058   2.186   3.478   0.690 -0.2165  0.4032 -0.2518
16379TIP3    H149059   2.102   3.477   0.735  0.8381 -1.2328  1.7765
16379TIP3    H249060   2.169   3.522   0.607 -2.7506  1.3227  0.7261
16380TIP3   OH249061   1.172   4.410   0.082  0.0885 -0.2148 -0.2285
16380TIP3    H149062   1.227   4.344   0.039  0.3103 -0.4599  0.4233
16380TIP3    H249063   1.115   4.442   0.013  2.5103  1.6157 -1.4471
16381TIP3   OH249064   6.582   2.817   0.013 -0.1567 -0.4514 -0.1003
16381TIP3    H149065   6.591   2.735   0.061  0.4118 -0.3751 -0.0724
16381TIP3    H249066   6.549   2.791  -0.073  0.1145 -0.7127 -0.1240
16382TIP3   OH249067   3.139  -0.012   1.457 -0.5289 -0.1282 -0.3051
16382TIP3    H149068   3.212   0.042   1.427 -1.4149  1.6099  0.5475
16382TIP3    H249069   3.061   0.037   1.430 -1.3768 -1.3894 -0.2023
16383TIP3   OH249070   2.237   2.619   1.312  0.1588 -0.4083  0.0040
16383TIP3    H149071   2.255   2.555   1.381  1.3433  1.0216  1.0607
16383TIP3    H249072   2.281   2.584   1.235 -1.1246 -1.9941 -0.0291
16384TIP3   OH249073   4.280   7.240   6.499 -0.7446  0.5410  0.0099
16384TIP3    H149074   4.279   7.306   6.568  0.2883 -0.2556  0.8110
16384TIP3    H249075   4.325   7.282   6.426 -0.2810  0.8104  0.4427
16385TIP3   OH249076   5.340   6.607   5.616  0.1507 -0.5476 -0.2178
16385TIP3    H149077   5.403   6.679   5.619 -0.7678  0.2513  0.2011
16385TIP3    H249078   5.299   6.615   5.529 -0.8782  0.2477  0.3301
16386TIP3   OH249079   0.391   3.273   1.726  0.0806 -0.5127 -0.1360
16386TIP3    H149080   0.339   3.284   1.806  0.5378  0.3755  0.0532
16386TIP3    H249081   0.401   3.362   1.692  2.6692 -0.4781  0.6036
16387TIP3   OH249082   0.910   3.170   0.557  0.5287 -0.8280 -0.3111
16387TIP3    H149083   0.854   3.093   0.564  0.2979 -0.4783  2.1158
16387TIP3    H249084   0.983   3.152   0.615  0.3425  0.8779  0.4957
16388TIP3   OH249085   8.203   1.915   0.799 -0.1609  1.0139 -0.1825
16388TIP3    H149086   8.286   1.948   0.832  0.1098 -1.5802  1.9445
16388TIP3    H249087   8.140   1.936   0.868 -0.6311  0.1690 -0.3414
16389TIP3   OH249088   1.421   2.838   0.523  0.4049 -0.0878 -0.2480
16389TIP3    H149089   1.456   2.917   0.483 -1.2925  1.4765  1.2500
16389TIP3    H249090   1.326   2.851   0.523  0.1299 -1.9123  0.4561
16390TIP3   OH249091   2.258   1.910   0.746  0.5434 -0.1176 -0.0218
16390TIP3    H149092   2.352   1.894   0.751  0.2593 -1.7093  0.9770
16390TIP3    H249093   2.219   1.822   0.741 -0.8485  0.5435 -1.4382
16391TIP3   OH249094   8.822   1.814  -0.012 -0.2504 -0.5362 -0.4441
16391TIP3    H149095   8.895   1.757   0.013 -0.1146  0.6374  1.9532
16391TIP3    H249096   8.830   1.890   0.045 -2.8235  0.0327 -0.7802
16392TIP3   OH249097   5.059   0.901   6.945 -0.0067  0.4715  0.2338
16392TIP3    H149098   5.048   0.851   7.026 -1.0784 -1.2123 -0.9380
16392TIP3    H249099   5.087   0.988   6.975  0.4007 -0.3580  2.3615
16393TIP3   OH249100   5.193   6.925   6.163  0.8195 -0.1587  0.3056
16393TIP3    H149101   5.192   7.005   6.111 -1.0783 -0.4628 -0.1571
16393TIP3    H249102   5.239   6.861   6.109 -1.3271 -0.5375 -1.1558
16394TIP3   OH249103   4.600   7.682   5.783  0.1029 -0.1605 -0.2900
16394TIP3    H149104   4.583   7.704   5.691 -0.5427  0.2820 -0.0700
16394TIP3    H249105   4.536   7.734   5.832  0.6945 -0.1085  0.4314
16395TIP3   OH249106   2.480   1.014   1.343 -0.6429  0.1683 -0.3680
16395TIP3    H149107   2.539   0.964   1.400 -0.7569 -1.3443 -1.5434
16395TIP3    H249108   2.409   1.041   1.401  0.2382  0.3400  0.6403
16396TIP3   OH249109   1.884   1.359   1.981 -0.1022 -0.5384 -0.2342
16396TIP3    H149110   1.837   1.431   2.023 -0.1573 -1.7568  1.8374
16396TIP3    H249111   1.817   1.293   1.965  0.4977 -1.4082  0.7763
16397TIP3   OH249112   2.884   5.477   6.105  0.7322  0.1337  0.6780
16397TIP3    H149113   2.849   5.566   6.104  0.5602  0.1316  3.0084
16397TIP3    H249114   2.975   5.487   6.078  0.7826  1.0702  1.1751
16398TIP3   OH249115   1.768   2.754   1.815  0.1608 -0.1537 -0.0245
16398TIP3    H149116   1.824   2.830   1.827 -0.2523 -0.0361  1.3019
16398TIP3    H249117   1.698   2.784   1.757  1.0739 -0.0962 -1.0989
16399TIP3   OH249118   4.972   4.824   6.401 -0.1575  0.1240  0.4544
16399TIP3    H149119   4.974   4.881   6.325 -2.7442  0.3059  0.4668
16399TIP3    H249120   4.997   4.880   6.475 -0.2578  0.6218  0.1092
16400TIP3   OH249121   3.209   2.391   1.241 -0.0053  0.4560 -0.2288
16400TIP3    H149122   3.182   2.326   1.307 -1.3017  1.0883 -0.1130
16400TIP3    H249123   3.167   2.472   1.270 -2.4087  0.2604 -3.0264
16401TIP3   OH249124   3.060   7.988   6.947  0.0400  1.5707  0.4453
16401TIP3    H149125   3.062   7.923   7.018  0.2536  0.6934 -0.3551
16401TIP3    H249126   3.062   7.936   6.867  0.4598  2.5815 -0.2081
16402TIP3   OH249127   1.448   4.736   0.705 -0.6025  0.3878  0.1323
16402TIP3    H149128   1.534   4.697   0.686 -0.9417 -0.5157  0.4417
16402TIP3    H249129   1.460   4.829   0.685 -0.3368 -0.1696 -2.5214
16403TIP3   OH249130   1.691   5.096   6.064  0.1023  0.0164 -0.0350
16403TIP3    H149131   1.699   5.093   5.969  2.2824 -1.8435  0.1759
16403TIP3    H249132   1.645   5.016   6.087 -1.0609  0.8059  0.4508
16404TIP3   OH249133   0.343   8.319   0.801 -0.3255 -0.7690 -0.0725
16404TIP3    H149134   0.413   8.384   0.811 -0.4056 -0.4584 -1.4475
16404TIP3    H249135   0.304   8.340   0.716 -1.2164 -1.7875  0.0920
16405TIP3   OH249136   0.503   4.967   0.207  0.1092  0.5005 -0.0293
16405TIP3    H149137   0.507   4.932   0.118 -0.4622  1.1383 -0.3076
16405TIP3    H249138   0.592   4.996   0.225 -0.2217  2.3322 -1.2004
16406TIP3   OH249139   1.715   2.922   1.379  0.3385  0.1451 -0.1772
16406TIP3    H149140   1.805   2.928   1.413 -0.2627  0.2279  1.4453
16406TIP3    H249141   1.720   2.958   1.290  1.7228  1.0471  0.2545
16407TIP3   OH249142   2.376   1.361   0.476 -0.2387  0.2814  0.7680
16407TIP3    H149143   2.373   1.270   0.507  0.4731 -0.5009 -1.3433
16407TIP3    H249144   2.333   1.359   0.391  1.6495  1.4848 -0.2631
16408TIP3   OH249145   3.760   2.245   3.488 -0.1465  0.2433  0.5531
16408TIP3    H149146   3.842   2.261   3.534  0.7727 -1.0603 -0.6204
16408TIP3    H249147   3.701   2.211   3.556 -0.0709  2.1824  1.6296
16409TIP3   OH249148   0.779   2.301   1.636 -0.7479  0.1794  0.2655
16409TIP3    H149149   0.700   2.350   1.613 -0.2668  0.7930 -0.1127
16409TIP3    H249150   0.786   2.311   1.731 -0.3251  1.3670  0.1200
16410TIP3   OH249151   6.985   2.301   1.835 -0.1744  0.4388  0.7683
16410TIP3    H149152   6.920   2.272   1.772 -1.4473  2.1135  1.2904
16410TIP3    H249153   7.029   2.375   1.793  1.1685 -0.4492  0.5662
16411TIP3   OH249154   1.433   2.781   0.150 -0.2604  0.5262  0.3858
16411TIP3    H149155   1.345   2.808   0.175 -0.0125  0.7691  1.0016
16411TIP3    H249156   1.421   2.732   0.068 -1.0518 -0.0662  0.8456
16412TIP3   OH249157   0.577   1.891   3.974 -0.3255 -0.1579 -0.1257
16412TIP3    H149158   0.633   1.969   3.973  0.9745 -1.0814  0.2533
16412TIP3    H249159   0.563   1.872   4.067 -0.9727 -0.1514 -0.2168
16413TIP3   OH249160   0.566   0.666  -0.008 -0.0537 -0.4968 -0.0540
16413TIP3    H149161   0.492   0.656   0.051  1.9190 -0.2623  2.5438
16413TIP3    H249162   0.603   0.579  -0.016  1.5241  0.0064  1.5657
16414TIP3   OH249163   2.049   3.656   0.476 -0.1542  0.5591  0.0598
16414TIP3    H149164   1.971   3.662   0.532  0.6466 -2.1255  1.5525
16414TIP3    H249165   2.114   3.710   0.520 -0.3077  0.5189  0.3389
16415TIP3   OH249166   1.617   1.110   0.416 -0.0773  0.6672  0.7162
16415TIP3    H149167   1.711   1.126   0.424  0.2703 -1.7971  1.9008
16415TIP3    H249168   1.599   1.120   0.322  1.5278  0.3392  0.3610
16416TIP3   OH249169   1.315   3.532   1.660  0.0124  0.1185 -0.0221
16416TIP3    H149170   1.377   3.459   1.665 -0.6757 -0.4172  0.8014
16416TIP3    H249171   1.367   3.609   1.681  0.2287 -0.4302  1.5222
16417TIP3   OH249172   4.585   7.660   5.021  0.4518  0.3761 -0.2562
16417TIP3    H149173   4.597   7.748   5.057  1.2008  1.0481 -2.0356
16417TIP3    H249174   4.492   7.655   5.001  0.4936  1.0071 -0.6652
16418TIP3   OH249175   6.048   6.144   6.871  0.0627  0.1065  0.4210
16418TIP3    H149176   6.035   6.145   6.776 -1.7251  2.2879  0.6380
16418TIP3    H249177   6.046   6.052   6.895  3.2602 -0.6627 -1.9898
16419TIP3   OH249178   1.234   5.041   0.356 -0.0839 -0.1212 -0.0589
16419TIP3    H149179   1.165   5.034   0.422 -1.2449  0.2511 -1.2188
16419TIP3    H249180   1.296   5.105   0.392 -0.4662 -0.2821  0.8818
16420TIP3   OH249181   0.756   3.128   2.722  0.0040  0.2731 -0.8254
16420TIP3    H149182   0.666   3.103   2.703 -0.1769  0.3022 -0.0403
16420TIP3    H249183   0.748   3.210   2.771  0.5574  1.4558 -2.6522
16421TIP3   OH249184   2.584   2.394   1.285  0.4998 -0.0569  0.0284
16421TIP3    H149185   2.646   2.427   1.220  1.7736  1.1877  1.8016
16421TIP3    H249186   2.637   2.339   1.343 -0.3188 -0.0056  0.8395
16422TIP3   OH249187   5.738   6.617   5.737 -0.1843 -0.5041  0.2906
16422TIP3    H149188   5.747   6.579   5.649 -0.3780 -1.0718  0.5148
16422TIP3    H249189   5.828   6.638   5.763 -0.1411 -0.1880 -0.1077
16423TIP3   OH249190   5.282   8.009   4.656  0.8061 -0.0938  0.0768
16423TIP3    H149191   5.193   7.978   4.638  1.5846 -2.0401 -0.4985
16423TIP3    H249192   5.276   8.048   4.743 -0.1229 -2.3411  1.0674
16424TIP3   OH249193   1.695   2.013   1.421 -0.1658 -0.5901  0.6656
16424TIP3    H149194   1.666   1.926   1.448  0.4731 -0.7904  0.7137
16424TIP3    H249195   1.769   2.033   1.478 -0.3022 -0.0145  0.6506
16425TIP3   OH249196   1.920   3.038   1.795 -0.4733 -0.0703 -0.0418
16425TIP3    H149197   1.976   2.960   1.795 -0.4858 -0.0825  1.2606
16425TIP3    H249198   1.946   3.086   1.716  1.0415 -0.3168  0.2980
16426TIP3   OH249199   2.438   1.219   2.721  0.2049  0.1924  0.1668
16426TIP3    H149200   2.417   1.252   2.634  0.9833  1.0540  0.2923
16426TIP3    H249201   2.374   1.150   2.737  0.6517 -0.6010 -1.4600
16427TIP3   OH249202   6.605   6.924   7.167 -0.1098  0.1467  0.2144
16427TIP3    H149203   6.626   6.858   7.234 -1.1984  0.7208  1.1483
16427TIP3    H249204   6.689   6.947   7.128  0.6908  0.6303  2.1851
16428TIP3   OH249205   0.613   1.017   1.415 -0.2088 -0.0322  0.1585
16428TIP3    H149206   0.568   0.934   1.401  0.3550 -0.0961 -1.3023
16428TIP3    H249207   0.550   1.083   1.386 -0.2991  0.0055  0.4384
16429TIP3   OH249208   3.200   1.437   1.061  0.1830 -0.5164  0.0313
16429TIP3    H149209   3.286   1.463   1.029  1.0680 -1.8410  1.2556
16429TIP3    H249210   3.154   1.520   1.077  0.1986  0.1705 -3.2783
16430TIP3   OH249211   0.666   2.567   0.122 -0.0797  0.1727 -0.2666
16430TIP3    H149212   0.606   2.575   0.047  0.8906 -1.0288 -1.1995
16430TIP3    H249213   0.611   2.583   0.198 -1.3714  0.1365 -1.1640
16431TIP3   OH249214   8.192   1.730   0.142  0.2134 -0.2948 -0.0012
16431TIP3    H149215   8.133   1.770   0.078 -0.0773 -0.4312  0.1768
16431TIP3    H249216   8.156   1.642   0.157  0.7519 -0.5623 -0.2663
16432TIP3   OH249217   1.733   4.648   0.656 -0.3133  0.1578 -0.1204
16432TIP3    H149218   1.783   4.669   0.735 -0.0093 -0.1776 -0.2203
16432TIP3    H249219   1.727   4.553   0.656  1.0078  0.0608 -1.2953
16433TIP3   OH249220   8.185   0.539   6.743 -0.0655 -0.3090  0.1615
16433TIP3    H149221   8.261   0.515   6.796  1.8499  1.1619 -1.8619
16433TIP3    H249222   8.206   0.625   6.708 -1.5865 -0.9544 -2.4724
16434TIP3   OH249223   2.223   0.328   0.124 -0.0148 -0.1676 -0.1134
16434TIP3    H149224   2.294   0.363   0.178  0.1456  0.2256 -0.5697
16434TIP3    H249225   2.236   0.234   0.125  0.3943 -0.1095 -0.0277
16435TIP3   OH249226   6.287   6.308   4.480 -0.1677 -0.0448  0.5724
16435TIP3    H149227   6.206   6.264   4.506 -0.4962 -0.0768 -0.4514
16435TIP3    H249228   6.355   6.242   4.490 -0.2274  0.0708  1.7227
16436TIP3   OH249229   0.729   1.100   0.398 -0.2110 -0.0858  0.2167
16436TIP3    H149230   0.752   1.124   0.308  2.0944  2.0363  1.3090
16436TIP3    H249231   0.671   1.170   0.427 -2.3598 -1.6719 -0.1414
16437TIP3   OH249232   2.500   1.994   1.758 -0.0490  0.2446  0.1749
16437TIP3    H149233   2.505   2.014   1.851 -1.5357 -2.2711  0.8298
16437TIP3    H249234   2.439   1.921   1.752  0.2212  0.1933 -2.7570
16438TIP3   OH249235   3.050   0.939   1.089 -0.0103 -0.1537 -0.1243
16438TIP3    H149236   3.082   1.024   1.061  1.0958 -0.2142  0.9028
16438TIP3    H249237   3.072   0.935   1.182 -0.3810 -1.4081 -0.0820
16439TIP3   OH249238   0.896   2.880   1.621  0.2298 -0.3834 -0.1958
16439TIP3    H149239   0.922   2.860   1.531 -0.8813 -0.7434 -0.4517
16439TIP3    H249240   0.804   2.852   1.626  0.3469 -0.5662  1.1159
16440TIP3   OH249241   6.376   6.129   6.287 -0.7517  0.1059  0.1353
16440TIP3    H149242   6.326   6.068   6.232 -0.7552  0.0814  0.1652
16440TIP3    H249243   6.402   6.199   6.228 -1.5162  0.5272  0.2995
16441TIP3   OH249244   3.959   4.474   5.710  0.4359 -0.1090 -0.0838
16441TIP3    H149245   4.048   4.503   5.732  1.7412 -2.9048 -1.3819
16441TIP3    H249246   3.939   4.519   5.628  1.3058 -0.6735 -0.6116
16442TIP3   OH249247   3.092   1.959   2.484  0.2931  0.1242 -0.3111
16442TIP3    H149248   3.106   1.915   2.400  0.8482  0.7076 -0.5291
16442TIP3    H249249   3.097   1.889   2.549 -1.8493 -0.6050 -0.8946
16443TIP3   OH249250   0.207   2.044   1.225  0.1532 -0.3914  0.5975
16443TIP3    H149251   0.155   2.064   1.304 -2.0367 -3.1199 -0.0925
16443TIP3    H249252   0.188   1.952   1.206  1.3846 -0.0462 -2.5941
16444TIP3   OH249253   3.545   7.255   5.976  0.0808  0.1740 -0.1041
16444TIP3    H149254   3.573   7.178   6.026  0.7038 -0.0853 -0.8488
16444TIP3    H249255   3.597   7.327   6.010 -0.5980  0.2985  0.6869
16445TIP3   OH249256   4.753   6.053   7.027 -0.3261  0.3017 -0.1512
16445TIP3    H149257   4.798   6.115   7.085 -1.0013 -1.1349  1.9834
16445TIP3    H249258   4.798   6.061   6.943  0.0616  3.1499  0.2647
16446TIP3   OH249259   1.703   3.294   1.417 -0.3899 -0.1661  0.5433
16446TIP3    H149260   1.700   3.388   1.432 -0.4983  0.4193 -2.7923
16446TIP3    H249261   1.616   3.272   1.383  0.3693 -1.0608 -0.8464
16447TIP3   OH249262   1.687   0.313   0.316  0.0024 -0.1380 -0.5269
16447TIP3    H149263   1.716   0.297   0.405  0.5705  0.7109 -0.5459
16447TIP3    H249264   1.768   0.322   0.266 -0.3115 -2.2710 -1.4465
16448TIP3   OH249265   7.407   1.156   6.511  0.6489  0.0730 -0.2204
16448TIP3    H149266   7.350   1.143   6.586  1.6897  0.0587  0.5915
16448TIP3    H249267   7.357   1.123   6.436  0.1267 -1.1786  0.6586
16449TIP3   OH249268   2.821   6.514   7.139  0.0361  0.1761 -0.3351
16449TIP3    H149269   2.779   6.430   7.120  0.7833 -0.2718 -0.0585
16449TIP3    H249270   2.756   6.580   7.116 -1.1310 -0.5155  0.9247
16450TIP3   OH249271   1.703   4.446   0.994  0.1887 -0.2099  0.0742
16450TIP3    H149272   1.697   4.386   0.919 -1.1212  1.8971 -1.5406
16450TIP3    H249273   1.619   4.493   0.994  0.0614 -0.3425  3.0329
16451TIP3   OH249274   5.357   8.295   6.284  0.6997  0.2101 -0.1654
16451TIP3    H149275   5.317   8.289   6.196 -0.0732  2.4441 -0.0081
16451TIP3    H249276   5.444   8.259   6.273  0.8223  0.9798 -2.0298
16452TIP3   OH249277   2.581   2.784   0.548  0.6428 -0.3962 -0.3425
16452TIP3    H149278   2.633   2.716   0.591  1.3977 -0.2238 -0.9596
16452TIP3    H249279   2.503   2.794   0.603  1.2045 -0.7491  0.5184
16453TIP3   OH249280   4.301   6.458   4.769 -0.2210 -0.0321 -0.2707
16453TIP3    H149281   4.277   6.533   4.824 -0.2307 -1.1562  1.2568
16453TIP3    H249282   4.362   6.495   4.704 -0.0062  1.2395  0.6456
16454TIP3   OH249283   4.622   6.117   5.879 -0.2816  0.1196 -0.1506
16454TIP3    H149284   4.568   6.102   5.957 -1.0687  0.1535 -0.6798
16454TIP3    H249285   4.662   6.202   5.894  0.1074 -0.1800  0.5280
16455TIP3   OH249286   0.358   5.408   0.338  0.4288 -0.4880  0.2893
16455TIP3    H149287   0.320   5.496   0.341  0.0734 -0.5965 -0.7238
16455TIP3    H249288   0.398   5.396   0.424 -0.8966  0.0418  1.0042
16456TIP3   OH249289   1.703   4.593   2.399  0.2696  0.0086 -0.5904
16456TIP3    H149290   1.651   4.628   2.327  0.8187 -1.5220 -1.7497
16456TIP3    H249291   1.793   4.616   2.376  0.1932  2.6492  1.3998
16457TIP3   OH249292   1.656   1.814   0.852  0.1291 -0.0470  0.0656
16457TIP3    H149293   1.707   1.876   0.904  2.8376  0.2129 -2.7434
16457TIP3    H249294   1.668   1.730   0.897  0.4026  0.5959  1.2107
16458TIP3   OH249295   2.444   4.309   0.417 -0.0592 -0.0273 -0.0057
16458TIP3    H149296   2.374   4.325   0.354 -3.2668 -2.3417  2.7723
16458TIP3    H249297   2.477   4.222   0.394  1.3237  0.6925 -0.7664
16459TIP3   OH249298   0.575   2.370   3.000  0.0153 -0.0073 -0.3333
16459TIP3    H149299   0.665   2.348   2.976 -0.2293 -1.1945 -0.1745
16459TIP3    H249300   0.525   2.291   2.980 -1.0747  0.8069 -0.8495
16460TIP3   OH249301   0.623   4.242   0.839 -0.3146  0.2921 -0.0243
16460TIP3    H149302   0.604   4.335   0.851  0.7973  0.5503 -0.2440
16460TIP3    H249303   0.565   4.198   0.902 -2.9451  0.9193 -1.9236
16461TIP3   OH249304   1.785   1.591   2.055  0.4392 -0.0319 -0.1717
16461TIP3    H149305   1.713   1.628   2.005 -0.3904 -1.0936  0.2211
16461TIP3    H249306   1.773   1.625   2.144  0.4657 -0.1410 -0.1253
16462TIP3   OH249307   2.588   3.110   0.517  0.6034  0.0428 -0.5885
16462TIP3    H149308   2.505   3.071   0.490  0.8593 -1.2776  0.4475
16462TIP3    H249309   2.630   3.137   0.436 -0.8868  0.8204 -1.1173
16463TIP3   OH249310   1.546   4.640   1.504 -0.3829 -0.4957 -0.2688
16463TIP3    H149311   1.488   4.711   1.531 -0.1698 -0.8073  1.0584
16463TIP3    H249312   1.629   4.682   1.482  0.6044 -0.5373  3.0572
16464TIP3   OH249313   5.723   8.331   5.971 -0.8452 -0.2570  0.0560
16464TIP3    H149314   5.647   8.296   6.017  0.3848 -0.9863  1.5693
16464TIP3    H249315   5.718   8.425   5.986 -1.9331 -0.1855 -0.6316
16465TIP3   OH249316   3.550   3.007   1.400 -0.0169  0.5086 -0.0707
16465TIP3    H149317   3.477   2.964   1.445  0.2059  0.0741 -0.1245
16465TIP3    H249318   3.518   3.095   1.380  0.2177  1.0287  1.7929
16466TIP3   OH249319   7.379   7.984   2.391 -0.2583  0.7260  0.1181
16466TIP3    H149320   7.334   8.004   2.309  0.1285 -1.5286 -0.6667
16466TIP3    H249321   7.448   8.051   2.397  0.5058  0.1781 -2.0365
16467TIP3   OH249322   7.636   5.663   7.259  0.1600  0.1707  0.1229
16467TIP3    H149323   7.637   5.748   7.304 -0.6042  0.4389 -0.3583
16467TIP3    H249324   7.660   5.683   7.169  1.9067 -0.4003  0.4443
16468TIP3   OH249325   5.178   6.146   5.218 -0.0883 -0.0524  0.1207
16468TIP3    H149326   5.124   6.068   5.212  0.8174 -0.7863  1.0779
16468TIP3    H249327   5.147   6.191   5.296 -0.3360  0.3246 -0.1951
16469TIP3   OH249328   1.941   2.039   1.571  0.2422 -0.2577 -0.1975
16469TIP3    H149329   1.958   2.129   1.600  1.9097  0.5498 -3.5203
16469TIP3    H249330   2.026   1.997   1.572 -0.1256 -1.0371 -1.1613
16470TIP3   OH249331   3.368   2.179   0.491 -0.3220 -0.1633  0.5303
16470TIP3    H149332   3.426   2.225   0.430 -1.4012 -1.4420 -1.5413
16470TIP3    H249333   3.368   2.232   0.570  1.4855  1.3104 -0.4334
16471TIP3   OH249334   0.722   1.036   2.189 -0.5679  0.0064  0.1024
16471TIP3    H149335   0.673   0.994   2.119 -0.2793 -0.4706  0.1817
16471TIP3    H249336   0.678   1.120   2.203 -0.5465  0.1582 -0.7370
16472TIP3   OH249337   1.503   1.570   1.894  0.1845 -0.6519  0.1595
16472TIP3    H149338   1.480   1.599   1.982 -3.4980 -3.4990  0.2564
16472TIP3    H249339   1.483   1.477   1.893  1.2529 -0.9207 -3.3707
16473TIP3   OH249340   2.685   1.355   2.390  0.1672  0.4961 -0.5159
16473TIP3    H149341   2.592   1.367   2.367  0.3282  2.3800 -0.2616
16473TIP3    H249342   2.687   1.362   2.485  0.5944  0.5700 -0.5316
16474TIP3   OH249343   1.101   1.740   1.037  0.1588 -0.2926  0.1931
16474TIP3    H149344   1.186   1.785   1.042  0.4664 -1.0003  1.4817
16474TIP3    H249345   1.055   1.784   0.966  1.6135  0.1023 -0.5205
16475TIP3   OH249346   2.215   2.245   3.240 -0.2195  0.5964 -0.4599
16475TIP3    H149347   2.250   2.303   3.307 -1.0559  2.5158 -1.6361
16475TIP3    H249348   2.265   2.266   3.161 -0.4221 -0.3846 -0.8513
16476TIP3   OH249349   1.986   1.223   2.903 -0.2198  0.0929 -0.1754
16476TIP3    H149350   1.974   1.161   2.975  2.4182 -1.7093 -1.1921
16476TIP3    H249351   2.013   1.304   2.946 -0.8062 -0.3170  0.9887
16477TIP3   OH249352   3.058   2.684   3.750  0.7256  0.1350  0.2325
16477TIP3    H149353   3.056   2.666   3.844  0.4413 -0.7854  0.0500
16477TIP3    H249354   3.009   2.612   3.711 -0.1292  1.1310 -0.5328
16478TIP3   OH249355   8.270   0.305   3.913 -0.1154  0.4346 -0.4016
16478TIP3    H149356   8.361   0.336   3.906  0.5060 -0.8966  1.4297
16478TIP3    H249357   8.218   0.385   3.920  1.4260  1.1882  3.9383
16479TIP3   OH249358   8.399   2.673   0.423 -0.0051 -0.5558  0.0416
16479TIP3    H149359   8.324   2.708   0.375  1.1689  1.5044 -0.3928
16479TIP3    H249360   8.433   2.603   0.366  0.1934  0.5474 -1.2339
16480TIP3   OH249361   2.868   6.155   6.168 -1.0457  0.3418  0.4608
16480TIP3    H149362   2.799   6.090   6.176 -0.6436 -0.1670 -0.2161
16480TIP3    H249363   2.860   6.188   6.078  0.1689 -0.3782  0.0817
16481TIP3   OH249364   1.149   3.795   2.181 -0.1061 -0.3031  0.2906
16481TIP3    H149365   1.239   3.819   2.159 -0.7513  1.3164 -0.6513
16481TIP3    H249366   1.147   3.798   2.277  1.0403 -1.1065  0.3495
16482TIP3   OH249367   2.350   3.416   1.964 -0.2805  0.4331 -0.6362
16482TIP3    H149368   2.265   3.442   1.929 -2.4305 -1.8023  2.6592
16482TIP3    H249369   2.342   3.322   1.980  3.1360 -0.0030 -1.0786
16483TIP3   OH249370   4.335   2.520   0.302 -0.0714  0.4037  0.2303
16483TIP3    H149371   4.378   2.452   0.354 -2.0608  0.2692  1.7286
16483TIP3    H249372   4.285   2.571   0.365 -2.2323  0.4908 -1.4981
16484TIP3   OH249373   5.991   6.541   6.818  0.0941  0.0671  0.3208
16484TIP3    H149374   6.050   6.561   6.745  1.3016  0.7104  1.4468
16484TIP3    H249375   5.931   6.475   6.784  1.9754 -1.1713 -0.6103
16485TIP3   OH249376   0.793   3.456   1.508 -0.2917 -0.0272 -0.6524
16485TIP3    H149377   0.746   3.447   1.425 -1.1041  1.3071 -0.3502
16485TIP3    H249378   0.770   3.377   1.558  2.6510 -2.3932 -2.8584
16486TIP3   OH249379   8.596   0.362   4.194 -0.8148  0.3266  0.5571
16486TIP3    H149380   8.533   0.298   4.160 -0.6534  0.2012  0.4888
16486TIP3    H249381   8.545   0.441   4.210 -0.1828  1.7486 -3.8182
16487TIP3   OH249382   2.472   4.402   0.651 -0.3289 -0.3470  0.3968
16487TIP3    H149383   2.535   4.334   0.673 -0.5925 -1.0583 -1.0493
16487TIP3    H249384   2.456   4.392   0.558 -2.3602  0.0235  0.6829
16488TIP3   OH249385   1.450   3.126   1.403 -0.0928  0.1679 -0.2722
16488TIP3    H149386   1.537   3.089   1.392 -0.6059 -1.2679  0.4203
16488TIP3    H249387   1.399   3.090   1.330 -0.5855 -0.4870  0.3841
16489TIP3   OH249388   2.776   3.094   1.159 -0.3957  0.0830  0.3109
16489TIP3    H149389   2.819   3.149   1.093 -0.8079 -0.7763 -0.6858
16489TIP3    H249390   2.732   3.157   1.217  1.2117  0.9211  0.6602
16490TIP3   OH249391   6.571   0.070   7.166 -0.1183 -0.3388  0.6890
16490TIP3    H149392   6.546   0.014   7.241 -2.7458  0.6586  0.5962
16490TIP3    H249393   6.554   0.015   7.089 -0.9810 -0.0557  0.6742
16491TIP3   OH249394   2.903   1.730   0.361  0.8167 -0.2395 -0.2632
16491TIP3    H149395   2.978   1.779   0.327  1.1242 -0.9454 -0.5947
16491TIP3    H249396   2.827   1.774   0.322  0.8689  2.2540  2.2682
16492TIP3   OH249397   1.443   3.013   1.784 -0.2398 -0.2309 -0.2590
16492TIP3    H149398   1.508   3.037   1.850 -0.6802 -1.3896  0.6030
16492TIP3    H249399   1.492   2.962   1.719 -0.0035  0.1013 -0.3417
16493TIP3   OH249400   3.684   1.787   1.477 -0.0713 -0.2403 -0.2122
16493TIP3    H149401   3.643   1.745   1.401  0.2076 -0.3971 -0.2762
16493TIP3    H249402   3.734   1.717   1.519 -0.7977 -0.3296  0.5211
16494TIP3   OH249403   3.412   2.722   0.970  0.4490  0.2040  0.0473
16494TIP3    H149404   3.387   2.797   1.024 -0.0452  0.0990 -0.0348
16494TIP3    H249405   3.365   2.734   0.888 -1.5433 -1.4439  0.9011
16495TIP3   OH249406   5.876   3.560   4.925 -0.5969 -0.1272 -0.0157
16495TIP3    H149407   5.847   3.569   5.016  0.3147 -0.5237  0.3201
16495TIP3    H249408   5.967   3.529   4.931 -0.3400  0.3892 -1.0559
16496TIP3   OH249409   2.510   1.260   2.085  0.6302 -0.2558  0.1419
16496TIP3    H149410   2.529   1.191   2.149  0.7280 -1.5929 -1.3039
16496TIP3    H249411   2.596   1.284   2.050  0.5789  0.4911  0.5351
16497TIP3   OH249412   3.948   1.686   3.249 -0.3720 -0.3824 -0.0594
16497TIP3    H149413   3.871   1.733   3.280 -0.5645 -0.0250 -1.0479
16497TIP3    H249414   3.992   1.748   3.191  0.4210 -0.7414  0.1578
16498TIP3   OH249415   8.362   1.991   2.038  0.3248 -0.0625  0.0137
16498TIP3    H149416   8.444   1.952   2.069  2.2322  2.1333 -2.0848
16498TIP3    H249417   8.347   1.950   1.953  0.7632  1.5404 -0.8549
16499TIP3   OH249418   3.605   1.364   0.940  0.0230  0.2410 -0.3108
16499TIP3    H149419   3.536   1.425   0.966 -0.2851 -0.2845  0.1201
16499TIP3    H249420   3.558   1.295   0.892  0.4318  0.5957 -1.2354
16500TIP3   OH249421   4.736   6.512   6.893  0.1246  0.5786 -0.0205
16500TIP3    H149422   4.721   6.464   6.974 -1.0116  0.8277 -0.0773
16500TIP3    H249423   4.823   6.483   6.864 -0.0137 -0.4886  0.5975
16501TIP3   OH249424   0.843   0.226   0.823  0.3892 -0.2016 -0.1241
16501TIP3    H149425   0.773   0.162   0.825 -0.4502  0.6978 -0.4583
16501TIP3    H249426   0.822   0.283   0.749  1.0828  0.5154  0.2198
16502TIP3   OH249427   7.562   2.178   1.501 -0.3702 -0.1074 -0.6370
16502TIP3    H149428   7.548   2.247   1.436  0.2285  1.2897  0.6927
16502TIP3    H249429   7.656   2.176   1.514 -0.3891 -1.1562 -0.6233
16503TIP3   OH249430   4.537   3.942   2.122 -0.2932  0.3325  0.3390
16503TIP3    H149431   4.482   3.905   2.052  0.0918  0.8732 -0.2543
16503TIP3    H249432   4.585   4.013   2.079 -0.5169  1.0781  1.3101
16504TIP3   OH249433   4.920   6.185   7.201 -0.5305  0.2614 -0.1129
16504TIP3    H149434   4.967   6.129   7.263 -0.8496 -0.4021 -0.4654
16504TIP3    H249435   4.935   6.274   7.233  0.9771  0.0605 -0.2427
16505TIP3   OH249436   8.839   3.444   0.126  0.2324  0.1123 -0.9589
16505TIP3    H149437   8.887   3.510   0.075 -0.0891  0.0866 -1.2935
16505TIP3    H249438   8.908   3.395   0.171  0.5437 -0.1883 -1.7533
16506TIP3   OH249439   1.005   3.627   0.465 -0.0782 -0.2493  0.0350
16506TIP3    H149440   1.060   3.666   0.532  1.5251 -0.6128 -1.0300
16506TIP3    H249441   0.966   3.551   0.507  2.0070 -1.2841  0.1945
16507TIP3   OH249442   6.648   8.268   1.027  0.2756  0.3612 -0.2449
16507TIP3    H149443   6.676   8.268   1.118  1.2680  0.5081 -0.5388
16507TIP3    H249444   6.728   8.290   0.978 -0.2755  0.3987 -1.1318
16508TIP3   OH249445   3.353   7.384   7.061 -0.0698 -0.4883  0.0767
16508TIP3    H149446   3.348   7.470   7.019 -0.2627 -1.3601 -1.7406
16508TIP3    H249447   3.443   7.355   7.045  0.2596 -0.2678  1.4504
16509TIP3   OH249448   1.870   2.028   0.864  0.1751  0.1646 -0.5275
16509TIP3    H149449   1.799   2.086   0.892 -0.0270 -0.4797  0.3020
16509TIP3    H249450   1.893   2.059   0.776  0.6446  2.0452  0.2209
16510TIP3   OH249451   1.236   4.082   1.285 -0.3593  0.2508  0.2978
16510TIP3    H149452   1.156   4.073   1.336 -0.8577  0.2894 -0.4700
16510TIP3    H249453   1.221   4.159   1.230  0.0879  0.0815 -0.0666
16511TIP3   OH249454   4.750   7.645   6.646  0.3288  0.1272 -0.0524
16511TIP3    H149455   4.773   7.556   6.619  0.4897  0.6225 -1.5854
16511TIP3    H249456   4.654   7.644   6.653  0.2867 -0.0094 -0.6487
16512TIP3   OH249457   2.085   2.605   3.115  0.2221  0.2037 -0.5551
16512TIP3    H149458   2.052   2.518   3.095 -0.5740  0.4182 -0.2176
16512TIP3    H249459   2.087   2.650   3.031 -3.4447  1.2175 -0.1947
16513TIP3   OH249460   1.323   3.333   0.212 -0.5211  1.1149 -0.2079
16513TIP3    H149461   1.411   3.294   0.219 -0.4985  1.4479  1.6568
16513TIP3    H249462   1.273   3.290   0.280 -1.6478  1.4036 -0.8502
16514TIP3   OH249463   7.836   1.588   7.096  0.1027  0.1140  0.0645
16514TIP3    H149464   7.844   1.557   7.186 -0.1155 -0.6694 -0.1763
16514TIP3    H249465   7.914   1.556   7.052 -0.7269 -1.2073 -0.4947
16515TIP3   OH249466   2.477   7.239   5.916  0.5552  0.2864  0.2821
16515TIP3    H149467   2.442   7.245   6.005  1.9699  0.5597  0.8337
16515TIP3    H249468   2.571   7.250   5.927  0.6783  0.9265 -1.3208
16516TIP3   OH249469   1.961   3.269   0.856  0.4680 -0.3295  0.4395
16516TIP3    H149470   2.018   3.194   0.836 -0.0100 -0.2390 -1.2743
16516TIP3    H249471   1.875   3.243   0.823  0.2576  0.9063 -0.0032
16517TIP3   OH249472   3.437   6.518   6.730  0.1417  0.0836 -0.0703
16517TIP3    H149473   3.397   6.451   6.674 -0.3033  0.5324 -0.2981
16517TIP3    H249474   3.403   6.499   6.818 -0.2041  0.1831 -0.1828
16518TIP3   OH249475   0.786   3.357   1.885 -0.1909  0.1066  0.3773
16518TIP3    H149476   0.877   3.354   1.855 -0.5463  0.1905 -0.7084
16518TIP3    H249477   0.772   3.448   1.911 -0.0213  0.1324  0.3775
16519TIP3   OH249478   7.542   0.915   6.836  0.3506  0.0505  0.2093
16519TIP3    H149479   7.489   0.844   6.873  0.1759 -0.3120 -0.7384
16519TIP3    H249480   7.499   0.995   6.866 -0.8501 -0.2451 -0.6964
16520TIP3   OH249481   7.561   0.822   7.158  0.0920  0.0103 -0.1922
16520TIP3    H149482   7.490   0.798   7.099  0.8326  0.8535 -1.4671
16520TIP3    H249483   7.521   0.824   7.245 -1.4851  0.6959 -0.9133
16521TIP3   OH249484   0.955   1.710   0.165  0.3865  0.0902 -0.0415
16521TIP3    H149485   0.873   1.757   0.179  0.6957  0.6801 -0.1854
16521TIP3    H249486   0.968   1.710   0.071 -0.0165 -0.9877 -0.0968
16522TIP3   OH249487   3.774   6.545   7.210 -0.3875  0.0459  0.6962
16522TIP3    H149488   3.849   6.552   7.269  1.2586 -0.8682 -1.2498
16522TIP3    H249489   3.802   6.483   7.143 -2.5852  0.3412 -0.5295
16523TIP3   OH249490   3.345   1.760   0.222 -0.1767  0.5620  0.4060
16523TIP3    H149491   3.363   1.848   0.189  1.3087  1.1088  2.5844
16523TIP3    H249492   3.431   1.721   0.235 -0.8077 -0.8555  0.4537
16524TIP3   OH249493   2.440   1.425   2.948  0.2061 -0.2519 -0.1120
16524TIP3    H149494   2.448   1.351   2.889 -0.2224 -1.6876  1.5926
16524TIP3    H249495   2.530   1.442   2.977  0.4512  0.6142 -1.3343
16525TIP3   OH249496   1.551   1.175   0.143  0.4744 -0.7116  0.0683
16525TIP3    H149497   1.536   1.112   0.072  1.8058 -0.9742 -0.0069
16525TIP3    H249498   1.497   1.251   0.120 -0.1233 -1.3115 -0.5372
16526TIP3   OH249499   8.040   4.472   1.126  0.1035  0.5882  0.0566
16526TIP3    H149500   7.978   4.400   1.116 -1.1065  1.1231  3.0604
16526TIP3    H249501   7.991   4.550   1.097  0.0487  0.7482  0.5823
16527TIP3   OH249502   1.370   0.611   1.078  0.2248 -0.0440 -0.0839
16527TIP3    H149503   1.435   0.679   1.065  1.1489 -0.7721  0.6368
16527TIP3    H249504   1.324   0.605   0.994  0.9633  0.5955 -0.5369
16528TIP3   OH249505   6.540   8.067   7.067 -0.7881  0.5266  0.2723
16528TIP3    H149506   6.480   7.996   7.087  0.2207 -0.5181 -0.3083
16528TIP3    H249507   6.603   8.066   7.139 -1.1585  1.2600  0.6034
16529TIP3   OH249508   5.769   7.193   7.060 -0.3196 -0.0020 -0.7485
16529TIP3    H149509   5.738   7.259   7.122  1.6981  1.3916 -1.1731
16529TIP3    H249510   5.740   7.224   6.974  0.3292  0.1567 -0.9134
16530TIP3   OH249511   4.162   5.030   6.048  0.2555 -0.7234  0.7319
16530TIP3    H149512   4.231   5.058   5.987 -0.5942  1.2041  0.5943
16530TIP3    H249513   4.153   4.936   6.034  1.2656 -0.5907 -0.8941
16531TIP3   OH249514   5.746   5.711   7.174  0.2637 -0.3765 -0.1680
16531TIP3    H149515   5.650   5.704   7.172  0.1262  1.0635  0.3989
16531TIP3    H249516   5.767   5.766   7.098  0.5177  0.4568  0.5026
16532TIP3   OH249517   4.797   7.997   6.000 -0.1546  0.1194 -0.2837
16532TIP3    H149518   4.724   7.943   5.970  0.9615 -0.8465 -1.2810
16532TIP3    H249519   4.827   8.042   5.921  1.5158 -0.9137 -0.2627
16533TIP3   OH249520   4.562   7.978   3.732  0.2127  0.0673 -0.2755
16533TIP3    H149521   4.633   7.946   3.676  2.0041  0.8615  1.4856
16533TIP3    H249522   4.544   8.067   3.701 -0.8719 -0.5543 -1.4933
16534TIP3   OH249523   2.390   2.760   0.326  0.5506  0.2128  0.5883
16534TIP3    H149524   2.453   2.796   0.388  1.2823 -0.0697  0.0134
16534TIP3    H249525   2.307   2.801   0.350  0.7839 -0.0481  1.8880
16535TIP3   OH249526   0.274   1.947   4.394 -0.3687  0.4650  0.3614
16535TIP3    H149527   0.348   1.945   4.454  0.4251 -0.4318 -0.6164
16535TIP3    H249528   0.198   1.928   4.448  0.3913 -0.7803  1.0211
16536TIP3   OH249529   5.262   6.804   6.890  0.5728  0.1346 -0.2175
16536TIP3    H149530   5.166   6.807   6.889  0.5463  0.2312  1.5274
16536TIP3    H249531   5.288   6.865   6.821 -0.6203  0.2802 -0.5542
16537TIP3   OH249532   2.985   1.569   2.064  0.7685 -0.5594 -0.1479
16537TIP3    H149533   3.057   1.630   2.081 -0.9014  1.0617  1.1754
16537TIP3    H249534   2.936   1.565   2.146 -1.0850 -1.0965 -1.2516
16538TIP3   OH249535   1.682   0.381   6.782  0.3524 -0.1380 -0.2567
16538TIP3    H149536   1.705   0.362   6.691 -1.1167  0.9846 -0.8906
16538TIP3    H249537   1.590   0.354   6.789 -0.4300  2.5324  0.0678
16539TIP3   OH249538   2.402   4.206   1.846 -0.1807 -0.1087  0.1133
16539TIP3    H149539   2.329   4.150   1.820 -0.4687  0.5443 -0.5237
16539TIP3    H249540   2.478   4.148   1.846 -0.1854 -0.1915 -2.1408
16540TIP3   OH249541   3.722   3.331   1.032  0.1542  0.7539 -0.4034
16540TIP3    H149542   3.714   3.406   0.973 -0.1899 -1.0978 -2.8392
16540TIP3    H249543   3.632   3.298   1.041  0.0861  1.4803  1.8546
16541TIP3   OH249544   5.338   3.255   1.679  0.4533 -0.0253  0.3274
16541TIP3    H149545   5.395   3.191   1.637 -0.7639  0.1603 -1.6828
16541TIP3    H249546   5.275   3.279   1.612 -0.9178  1.0976  1.9572
16542TIP3   OH249547   6.140   4.698   6.648 -0.6963 -0.3394  0.4308
16542TIP3    H149548   6.184   4.613   6.647  0.6352  0.3341  0.2341
16542TIP3    H249549   6.132   4.719   6.741 -0.9043 -0.6127  0.4765
16543TIP3   OH249550   2.781   1.875   2.158 -0.1364 -0.3814  0.0674
16543TIP3    H149551   2.814   1.963   2.179 -0.9403 -0.4556  1.7045
16543TIP3    H249552   2.858   1.819   2.161  0.9348  0.6769 -3.8543
16544TIP3   OH249553   4.152   2.592   0.632  0.3006  0.0363 -0.0217
16544TIP3    H149554   4.117   2.503   0.639  0.8795 -0.0245  2.6159
16544TIP3    H249555   4.215   2.599   0.704  1.6815  1.9570 -1.3534
16545TIP3   OH249556   3.476   2.362   2.596  0.1622  0.2795 -0.6223
16545TIP3    H149557   3.424   2.397   2.669  0.9183 -0.3338  0.2168
16545TIP3    H249558   3.468   2.429   2.528  0.7448  1.6281  0.5919
16546TIP3   OH249559  -0.006   5.480   6.644  0.0030 -0.4762  0.0390
16546TIP3    H149560   0.019   5.491   6.552  1.3063 -0.1034  0.4245
16546TIP3    H249561   0.054   5.414   6.677  0.9142  0.8753  1.1405
16547TIP3   OH249562   6.389   6.673   5.236 -0.1979 -0.4866  0.2945
16547TIP3    H149563   6.370   6.766   5.234  1.5150 -0.1481 -0.8647
16547TIP3    H249564   6.341   6.640   5.313 -1.6592  1.1314  0.0906
16548TIP3   OH249565   3.899   1.143   0.727  0.4398 -0.4318  0.3677
16548TIP3    H149566   3.906   1.092   0.808 -2.5490 -0.2423  0.7963
16548TIP3    H249567   3.937   1.228   0.749  0.6719 -0.7544  1.2267
16549TIP3   OH249568   2.737   1.849   1.875  0.9543 -0.6046 -0.3576
16549TIP3    H149569   2.647   1.818   1.869  0.2814  1.4063 -0.8487
16549TIP3    H249570   2.753   1.858   1.969  0.2508  0.1768 -0.3133
16550TIP3   OH249571   6.977   5.475   3.536  0.2261 -0.4674 -0.1400
16550TIP3    H149572   6.928   5.541   3.486 -0.8073  1.1240  2.8401
16550TIP3    H249573   7.060   5.518   3.555  0.2957 -0.7465  0.1828
16551TIP3   OH249574   3.290   2.093   0.200 -0.1296 -0.3747 -0.0226
16551TIP3    H149575   3.377   2.103   0.240 -0.9701 -0.5686  1.9231
16551TIP3    H249576   3.243   2.173   0.226 -0.6788 -0.4782 -0.6927
16552TIP3   OH249577   6.117   5.203   6.548  0.1200 -0.5384 -0.3035
16552TIP3    H149578   6.147   5.112   6.554  2.5495  0.2786  0.3349
16552TIP3    H249579   6.043   5.200   6.487  0.6545 -2.8120 -0.8726
16553TIP3   OH249580   1.561   3.047   0.329  0.1902 -0.0822 -0.4094
16553TIP3    H149581   1.563   3.142   0.318  0.7219  0.0678  0.8950
16553TIP3    H249582   1.622   3.014   0.264  0.1372  0.4831 -0.7521
16554TIP3   OH249583   7.534   5.039   6.806  0.3731 -0.4642 -0.1880
16554TIP3    H149584   7.523   5.071   6.896  3.4038  1.4443 -0.3979
16554TIP3    H249585   7.620   4.997   6.807  0.8073  0.3228 -2.3907
16555TIP3   OH249586   0.844   0.040   6.818 -0.0737  0.0965 -0.3780
16555TIP3    H149587   0.820   0.132   6.804  0.1012  0.4470  1.4794
16555TIP3    H249588   0.799   0.016   6.899  0.3537 -1.2925 -0.5426
16556TIP3   OH249589   6.010   7.510   6.705  0.0504  0.3014 -0.8083
16556TIP3    H149590   6.060   7.582   6.744  2.0997 -0.3249 -2.2003
16556TIP3    H249591   6.064   7.479   6.633 -1.2755 -1.9792 -0.8877
16557TIP3   OH249592   2.682   1.511   0.407 -0.2099  0.4115 -0.5745
16557TIP3    H149593   2.746   1.559   0.460  0.0721 -1.4381  0.8067
16557TIP3    H249594   2.736   1.453   0.352 -0.6155  0.4932 -1.0628
16558TIP3   OH249595   4.198   3.469   0.778 -0.5411 -0.2081 -0.3046
16558TIP3    H149596   4.237   3.524   0.711 -1.1055  0.9429  0.2804
16558TIP3    H249597   4.203   3.380   0.744  3.9228 -0.3338  0.3673
16559TIP3   OH249598   6.338   7.203   5.846  0.5394 -0.0483  0.1833
16559TIP3    H149599   6.401   7.185   5.777  0.7590 -0.5384  0.5122
16559TIP3    H249600   6.270   7.136   5.835  0.6288 -0.1931  0.5073
16560TIP3   OH249601   8.527   0.182   5.461 -0.2022 -0.2215  0.7013
16560TIP3    H149602   8.458   0.165   5.396  0.7149 -2.2319  0.1949
16560TIP3    H249603   8.572   0.260   5.428  1.3252 -2.1607 -2.0780
16561TIP3   OH249604   2.150   2.861   0.372  0.6395  0.3714 -0.3058
16561TIP3    H149605   2.135   2.937   0.317 -0.2069  1.1123  0.9205
16561TIP3    H249606   2.062   2.827   0.390  0.9235 -0.0480  0.3098
16562TIP3   OH249607   6.235   6.510   5.399  0.1728 -0.3949 -0.4535
16562TIP3    H149608   6.170   6.441   5.410  0.4848 -0.8532 -1.4648
16562TIP3    H249609   6.201   6.583   5.451 -0.6624 -0.9616 -0.2003
16563TIP3   OH249610   5.919   6.105   6.133 -0.0769 -0.3246  0.1686
16563TIP3    H149611   6.013   6.092   6.145 -0.1150 -1.2706 -0.4577
16563TIP3    H249612   5.882   6.016   6.136 -0.6964 -0.1563 -1.5426
16564TIP3   OH249613   0.247   6.456   6.745  0.3952  0.3178  0.5350
16564TIP3    H149614   0.176   6.521   6.744  0.6378  0.5977  1.3927
16564TIP3    H249615   0.323   6.504   6.779  0.9509 -0.0332 -0.2015
16565TIP3   OH249616   6.590   7.457   6.875  0.3751  0.4986 -0.2110
16565TIP3    H149617   6.546   7.377   6.843 -0.6553  0.9159  0.1331
16565TIP3    H249618   6.682   7.443   6.855 -0.2233  0.7386 -3.3709
16566TIP3   OH249619   6.731   7.667   7.134 -0.0248  0.0405  0.0392
16566TIP3    H149620   6.656   7.609   7.149 -0.4232  0.4183 -0.4736
16566TIP3    H249621   6.700   7.731   7.070  0.5225  0.6250  0.3546
16567TIP3   OH249622   3.420   1.190   0.819 -0.1196  0.2171  0.0509
16567TIP3    H149623   3.362   1.188   0.744 -2.7309  0.2324  1.9948
16567TIP3    H249624   3.455   1.101   0.826 -1.7853 -0.4314  0.2623
16568TIP3   OH249625   5.221   7.989   6.547  0.1592  0.7055 -0.0572
16568TIP3    H149626   5.260   8.075   6.537  1.2128  0.1363 -0.9651
16568TIP3    H249627   5.226   7.971   6.641 -3.1193  3.0039  0.6708
16569TIP3   OH249628   5.532   6.066   6.655 -0.1408 -0.2619  0.0486
16569TIP3    H149629   5.483   6.093   6.577 -0.3234 -0.6570  0.0237
16569TIP3    H249630   5.531   6.143   6.712  0.2268  0.1147 -0.4559
16570TIP3   OH249631   0.414   0.260   4.221 -0.1006  0.7929 -0.3205
16570TIP3    H149632   0.321   0.237   4.214 -0.1278  0.8904 -0.2870
16570TIP3    H249633   0.438   0.291   4.134  0.2368 -0.4569 -0.6855
16571TIP3   OH249634   6.188   6.951   5.826 -0.0528  0.1781  0.1999
16571TIP3    H149635   6.243   6.889   5.874 -0.1960  0.1924  0.3853
16571TIP3    H249636   6.109   6.959   5.880 -0.4606 -0.2447 -0.3279
16572TIP3   OH249637   3.043   4.383   0.315 -0.0171  0.0683 -0.5248
16572TIP3    H149638   2.967   4.334   0.347 -0.4816  0.4067 -1.1098
16572TIP3    H249639   3.088   4.411   0.395 -1.1992  0.9533 -0.1632
16573TIP3   OH249640   1.939   3.655   0.732 -0.9275 -0.3773 -0.0349
16573TIP3    H149641   1.948   3.680   0.824 -0.0723 -0.1540 -0.1774
16573TIP3    H249642   1.852   3.688   0.707 -1.2745 -0.6662  0.7534
16574TIP3   OH249643   3.127   0.094   0.320 -0.0265  0.0628  0.3805
16574TIP3    H149644   3.130   0.190   0.323 -2.5243  0.2478 -1.3030
16574TIP3    H249645   3.208   0.069   0.277  0.1203  1.5201 -0.2370
16575TIP3   OH249646   3.408   0.879   0.343  0.0890  0.0098  0.2733
16575TIP3    H149647   3.363   0.954   0.381  1.5491  1.4772 -0.7910
16575TIP3    H249648   3.431   0.823   0.417 -0.8931  0.6855  1.0875
16576TIP3   OH249649   7.307   5.778   6.978  0.1766 -0.0622 -0.0391
16576TIP3    H149650   7.254   5.843   6.932 -0.1673  0.3603  0.9466
16576TIP3    H249651   7.248   5.739   7.043  0.0460 -2.1928 -1.3784
16577TIP3   OH249652   3.680   3.973   0.450 -0.0741 -0.3217  0.6218
16577TIP3    H149653   3.729   4.050   0.478  0.8521 -0.4983 -0.4695
16577TIP3    H249654   3.706   3.904   0.511 -0.4602  0.0796  1.2398
16578TIP3   OH249655   6.754   6.480   7.249  0.0024  0.1557 -0.3616
16578TIP3    H149656   6.718   6.500   7.162  1.0445  0.7530 -0.6654
16578TIP3    H249657   6.835   6.433   7.230 -0.4598 -0.9217  0.3099
16579TIP3   OH249658   5.375   6.625   6.702  0.2690 -0.2435 -0.4282
16579TIP3    H149659   5.333   6.689   6.760  1.6820  1.0660 -0.8221
16579TIP3    H249660   5.332   6.639   6.617  0.5375  0.1469 -0.5005
16580TIP3   OH249661   2.504   0.087   1.051 -0.4865  0.2992  0.6462
16580TIP3    H149662   2.426   0.104   0.997 -0.6520  2.0038  1.3767
16580TIP3    H249663   2.577   0.093   0.989 -0.9237 -1.5314 -0.0871
16581TIP3   OH249664   4.681   5.386   4.610 -0.3787  0.2235 -0.2620
16581TIP3    H149665   4.733   5.463   4.586 -0.0397 -0.5682 -2.1376
16581TIP3    H249666   4.628   5.415   4.684  0.2615  2.0473 -0.4942
16582TIP3   OH249667   3.234   3.030   2.431 -0.0023 -0.6230  0.0643
16582TIP3    H149668   3.300   3.038   2.501  0.3981 -0.6055 -0.3110
16582TIP3    H249669   3.154   3.005   2.477  0.0378  0.2641  0.6362
16583TIP3   OH249670   8.398   4.766   1.132  0.1123  0.0633 -0.3481
16583TIP3    H149671   8.393   4.678   1.096  0.2612  0.3779 -1.1477
16583TIP3    H249672   8.326   4.814   1.090 -0.4787  0.1063  0.7012
16584TIP3   OH249673   6.653   5.596   7.199  0.7160  0.2577  0.0803
16584TIP3    H149674   6.660   5.690   7.214  1.8943  0.2733 -0.5115
16584TIP3    H249675   6.622   5.589   7.108  2.1751  0.0748 -0.4254
16585TIP3   OH249676   3.550   0.627   0.731  0.0957  0.0770 -0.5569
16585TIP3    H149677   3.570   0.701   0.674  0.5061  0.9475  0.7119
16585TIP3    H249678   3.603   0.641   0.809 -0.3570 -1.1832 -0.0082
16586TIP3   OH249679   3.103   0.277  -0.001  0.1356 -0.6649 -0.2636
16586TIP3    H149680   3.108   0.237   0.086 -1.3173  2.5599  1.4046
16586TIP3    H249681   3.186   0.324  -0.011  0.5729 -1.5547 -0.9352
16587TIP3   OH249682   6.069   7.649   6.281  0.0458 -0.3456  0.5177
16587TIP3    H149683   6.074   7.580   6.215  0.1958  0.5366 -0.4224
16587TIP3    H249684   6.161   7.670   6.300  0.0029  0.0612  0.2892
16588TIP3   OH249685   2.392   2.528   0.477 -0.0929  0.1189 -0.5273
16588TIP3    H149686   2.405   2.445   0.430  4.0655  0.6540 -0.5617
16588TIP3    H249687   2.388   2.594   0.408 -0.1409  0.2807 -0.3703
16589TIP3   OH249688   3.335   2.914   1.539  0.3670  0.3194 -0.4990
16589TIP3    H149689   3.297   2.979   1.598  1.1643 -0.7546  1.2461
16589TIP3    H249690   3.308   2.830   1.574 -0.5899 -0.3272 -2.6918
16590TIP3   OH249691   3.784   1.064   3.069  0.0755 -0.0815  0.3795
16590TIP3    H149692   3.850   1.003   3.036 -0.4294  0.0782 -0.9573
16590TIP3    H249693   3.829   1.149   3.072 -0.5368  0.3744 -2.1955
16591TIP3   OH249694   6.294   5.249   6.812 -0.4808  0.3632  0.2350
16591TIP3    H149695   6.318   5.215   6.898 -0.7829  1.4018  0.7345
16591TIP3    H249696   6.199   5.237   6.807 -0.0661 -2.6902 -1.2810
16592TIP3   OH249697   0.025   5.488   6.373  0.8889  0.5150 -0.0710
16592TIP3    H149698   0.060   5.417   6.319  1.1615  0.2811  0.4073
16592TIP3    H249699   0.041   5.567   6.322  1.1056  0.2919 -0.3524
16593TIP3   OH249700   3.985   2.359   0.696 -0.5206 -1.0761 -0.6873
16593TIP3    H149701   3.895   2.355   0.729 -0.8925 -0.9204 -1.6930
16593TIP3    H249702   4.037   2.318   0.766 -1.2207 -0.1579  0.4051
16594TIP3   OH249703   5.914   5.531   4.208 -0.0212 -0.3531 -0.5865
16594TIP3    H149704   5.922   5.508   4.115 -0.2950 -0.3209 -0.6157
16594TIP3    H249705   5.824   5.509   4.231 -0.4858  1.2872 -0.7757
16595TIP3   OH249706   2.402   4.769   0.037  0.2236  0.0630 -0.4695
16595TIP3    H149707   2.440   4.832   0.097 -0.2284  0.4461 -0.5819
16595TIP3    H249708   2.449   4.688   0.054 -0.7414 -0.1427  1.2523
16596TIP3   OH249709   4.695   3.321   0.776  0.0370 -0.3764 -0.4090
16596TIP3    H149710   4.692   3.372   0.856 -2.7686  0.7103 -1.1501
16596TIP3    H249711   4.725   3.382   0.709  0.5282 -0.7602 -0.5407
16597TIP3   OH249712   3.764   1.999   1.717  0.5733 -0.0866  0.2101
16597TIP3    H149713   3.842   1.956   1.750  0.3155 -1.4523 -0.8958
16597TIP3    H249714   3.741   1.950   1.638 -1.4419  0.2336  0.5634
16598TIP3   OH249715   5.570   5.451   5.858 -0.1165 -0.2242  0.6824
16598TIP3    H149716   5.620   5.469   5.778  0.1969  0.9493  1.1335
16598TIP3    H249717   5.499   5.514   5.857 -1.6761 -1.9292  0.0133
16599TIP3   OH249718   7.684   5.362   5.636  0.1560  0.0817 -0.1280
16599TIP3    H149719   7.678   5.266   5.637  1.0883  0.0243  0.1961
16599TIP3    H249720   7.603   5.391   5.678 -1.2722 -0.5053 -2.3215
16600TIP3   OH249721   1.154   1.616   7.219  0.2173  0.0170 -0.0432
16600TIP3    H149722   1.164   1.614   7.124 -3.4121 -2.2502 -0.4512
16600TIP3    H249723   1.091   1.686   7.235 -0.6890 -0.8997  0.4815
16601TIP3   OH249724   2.927   2.536   1.499 -0.0586  0.2156 -0.3002
16601TIP3    H149725   2.974   2.565   1.577 -0.8723  0.3451  0.1492
16601TIP3    H249726   2.837   2.567   1.512  0.2148  1.8911 -2.1491
16602TIP3   OH249727   5.132   6.168   0.103 -0.4763  0.4990 -0.4881
16602TIP3    H149728   5.183   6.089   0.120 -0.9314 -0.2796 -2.5903
16602TIP3    H249729   5.198   6.237   0.090 -0.0327  0.1054 -0.3348
16603TIP3   OH249730   4.870   6.279   0.693 -0.2310  0.2177 -0.1043
16603TIP3    H149731   4.825   6.363   0.700 -1.0309 -0.2014 -0.1102
16603TIP3    H249732   4.804   6.215   0.718 -0.0319 -0.5115 -1.3963
16604TIP3   OH249733   6.353   5.679   6.263  0.7303 -0.3321 -0.2759
16604TIP3    H149734   6.449   5.677   6.255  0.8456 -0.4526  0.9342
16604TIP3    H249735   6.321   5.666   6.174  1.8328 -1.0501 -0.5800
16605TIP3   OH249736   1.460   0.379   6.576 -0.2589  0.0291  0.1808
16605TIP3    H149737   1.423   0.306   6.624 -0.1651  0.3573  0.7526
16605TIP3    H249738   1.469   0.347   6.486 -0.3060 -0.6232  0.4107
16606TIP3   OH249739   3.872   2.595   0.293  0.3311  0.5186 -0.2810
16606TIP3    H149740   3.940   2.527   0.291  0.0586  0.2694 -1.0076
16606TIP3    H249741   3.816   2.569   0.367 -1.1044 -1.3438 -1.9702
16607TIP3   OH249742   6.075   7.275   6.860 -0.2639 -0.3431 -0.7503
16607TIP3    H149743   6.000   7.223   6.832 -0.5422 -1.7633  2.4175
16607TIP3    H249744   6.046   7.366   6.851 -2.0547 -0.8545 -0.3260
16608TIP3   OH249745   1.420   1.085   0.598 -0.2168  0.3181  0.2293
16608TIP3    H149746   1.492   1.118   0.544  1.1119 -0.7041  1.3215
16608TIP3    H249747   1.363   1.161   0.612  1.7579  1.6716  1.1050
16609TIP3   OH249748   6.318   6.778   5.662 -0.6370 -0.4878  0.3814
16609TIP3    H149749   6.311   6.750   5.753 -0.9653  0.0440  0.5174
16609TIP3    H249750   6.303   6.872   5.664  2.8495  0.1281  0.2377
16610TIP3   OH249751   6.077   5.096   6.089  0.3297 -0.1443 -0.4459
16610TIP3    H149752   6.118   5.020   6.047  1.0827 -0.7645  1.3722
16610TIP3    H249753   5.984   5.072   6.094  0.5639 -0.9851  0.1441
16611TIP3   OH249754   6.559   5.388   5.690  0.2365  1.0003 -0.7626
16611TIP3    H149755   6.539   5.459   5.751 -0.2630  1.2392 -1.2000
16611TIP3    H249756   6.592   5.431   5.612  0.3670  0.7243 -0.8601
16612TIP3   OH249757   5.144   7.637   5.252  0.8442  0.1267 -0.3624
16612TIP3    H149758   5.218   7.578   5.263  1.0672  0.3145 -0.8348
16612TIP3    H249759   5.088   7.593   5.187 -0.3146 -0.8342  1.2414
16613TIP3   OH249760   8.210   5.693   6.962  0.7427  0.3535  0.0904
16613TIP3    H149761   8.235   5.784   6.979  3.8416 -0.4061 -0.0832
16613TIP3    H249762   8.289   5.643   6.983 -0.0418 -2.0246 -2.4264
16614TIP3   OH249763   4.373   2.042   0.798  0.1817  0.2252  0.2995
16614TIP3    H149764   4.441   2.072   0.858 -0.7825  1.6971  0.6678
16614TIP3    H249765   4.308   2.111   0.799 -1.9534 -1.7341  0.9456
16615TIP3   OH249766   6.123   7.694   5.092 -0.0738  0.2011  0.0776
16615TIP3    H149767   6.040   7.689   5.140  1.1172 -1.2490  2.0825
16615TIP3    H249768   6.125   7.783   5.057 -2.0119  0.5809  0.8558
16616TIP3   OH249769   0.186   5.283   6.618 -0.1281 -0.1381 -0.4059
16616TIP3    H149770   0.244   5.348   6.579  0.0592 -0.4028 -0.5659
16616TIP3    H249771   0.244   5.227   6.669 -0.1286 -0.9617 -1.3095
16617TIP3   OH249772   2.305   2.912   0.600  0.0056 -0.1276  0.1870
16617TIP3    H149773   2.236   2.875   0.546 -1.4499 -2.3174  3.3584
16617TIP3    H249774   2.295   3.006   0.592 -2.1986 -0.4335 -0.8224
16618TIP3   OH249775   5.762   6.545   5.468 -0.1113 -0.4065 -0.2937
16618TIP3    H149776   5.762   6.625   5.415 -0.2804 -0.5697 -0.5353
16618TIP3    H249777   5.849   6.507   5.454  0.3830  0.3280  0.7042
16619TIP3   OH249778   3.196   2.374   0.955 -0.1307 -0.2062  0.1809
16619TIP3    H149779   3.169   2.452   0.905  1.4368  0.7745  0.8087
16619TIP3    H249780   3.196   2.403   1.046  3.0830 -0.0940  0.1929
16620TIP3   OH249781   3.565   3.777   0.944 -0.2765  0.2294  0.5977
16620TIP3    H149782   3.494   3.764   0.882 -0.6709  1.3245  0.8036
16620TIP3    H249783   3.522   3.801   1.025  0.3932  3.4294  0.0618
16621TIP3   OH249784   5.453   8.404   4.662  0.0322 -0.1795 -0.3563
16621TIP3    H149785   5.454   8.407   4.757  1.1675 -0.8815 -0.3269
16621TIP3    H249786   5.500   8.323   4.640 -0.5007 -0.1906 -1.4995
16622TIP3   OH249787   3.238   4.041   0.291 -0.0753  0.0426  0.0296
16622TIP3    H149788   3.154   4.012   0.325  1.1027 -1.2093  1.9702
16622TIP3    H249789   3.250   3.991   0.211  0.4475 -2.4812  1.6465
16623TIP3   OH249790   5.125   5.677   5.095  0.7811 -0.0590 -0.4046
16623TIP3    H149791   5.088   5.597   5.058  0.6887 -1.4310  2.5465
16623TIP3    H249792   5.214   5.681   5.060  0.7759 -1.4476 -0.5969
16624TIP3   OH249793   5.526   7.119   4.562  0.7724  0.1772  0.0705
16624TIP3    H149794   5.484   7.034   4.560  1.0183  0.0664 -0.8045
16624TIP3    H249795   5.583   7.116   4.639  0.4952 -0.3029  0.2593
16625TIP3   OH249796   2.314   2.156   0.560  0.2584  0.2521 -0.5526
16625TIP3    H149797   2.284   2.129   0.647  0.5066 -1.5296 -1.0054
16625TIP3    H249798   2.235   2.188   0.516  0.1107  1.0449  0.2857
16626TIP3   OH249799   7.531   6.044   6.158 -0.1645  0.3669 -0.0180
16626TIP3    H149800   7.562   6.070   6.072 -1.9021 -0.8498 -1.0367
16626TIP3    H249801   7.528   5.948   6.155  0.3163  0.2858  1.5869
16627TIP3   OH249802   1.977   4.292   0.160  0.0941 -0.5996  0.2035
16627TIP3    H149803   1.893   4.319   0.124 -0.7364 -2.2767  0.8760
16627TIP3    H249804   1.983   4.198   0.141  2.1898 -0.3442 -0.5816
16628TIP3   OH249805   3.347   2.569   0.308  0.4981 -0.3845 -0.0549
16628TIP3    H149806   3.352   2.552   0.402 -0.0905  1.6486  0.3882
16628TIP3    H249807   3.380   2.659   0.299  0.1523 -0.4176 -1.7267
16629TIP3   OH249808   3.682   2.514   0.497  0.4795 -0.0072  0.5875
16629TIP3    H149809   3.691   2.419   0.492  2.2357  0.1436  0.5555
16629TIP3    H249810   3.591   2.528   0.521 -0.0116 -1.6737 -0.2220
16630TIP3   OH249811   5.667   5.339   5.471  0.4349 -0.0429 -0.2275
16630TIP3    H149812   5.688   5.292   5.390  1.4232 -0.0479  0.0261
16630TIP3    H249813   5.749   5.381   5.497 -0.2866  1.3557 -0.1324
16631TIP3   OH249814   6.498   8.280   6.757  0.8385 -0.3337 -0.0554
16631TIP3    H149815   6.443   8.222   6.704  1.0029 -0.0713 -0.5184
16631TIP3    H249816   6.498   8.363   6.709  1.3926 -0.2403  0.1014
16632TIP3   OH249817   4.728   7.273   6.110 -0.1717 -0.3820  0.3792
16632TIP3    H149818   4.654   7.221   6.143  0.5680 -2.6822 -1.4715
16632TIP3    H249819   4.692   7.321   6.036 -0.4045  0.4068  0.9940
16633TIP3   OH249820   5.692   6.971   6.068  0.0588  0.5816  0.0577
16633TIP3    H149821   5.787   6.960   6.066 -0.0752 -0.5016 -1.5070
16633TIP3    H249822   5.674   7.041   6.006 -0.0532  1.7952  1.4458
16634TIP3   OH249823   2.354   0.637   0.028 -0.2839 -0.2369  0.5421
16634TIP3    H149824   2.320   0.574   0.092  0.1312 -1.0162 -0.0064
16634TIP3    H249825   2.422   0.685   0.076 -0.8480  0.0552  1.0686
16635TIP3   OH249826   6.490   6.904   3.886  0.2335 -0.7406 -0.0651
16635TIP3    H149827   6.406   6.926   3.927 -0.9235 -0.4575 -2.5381
16635TIP3    H249828   6.545   6.980   3.906 -0.2305 -0.6970  1.1420
16636TIP3   OH249829   4.186   2.233   0.892 -0.1974 -0.3617  0.1299
16636TIP3    H149830   4.117   2.176   0.858  0.7375 -1.2028 -0.4099
16636TIP3    H249831   4.209   2.194   0.977  0.8549 -1.1594 -0.5072
16637TIP3   OH249832   6.200   6.179   5.955 -0.0352 -0.4284  0.7487
16637TIP3    H149833   6.160   6.263   5.979 -0.7979 -0.3179 -0.8341
16637TIP3    H249834   6.285   6.202   5.920 -0.7853 -0.1894 -0.9387
16638TIP3   OH249835   0.542   0.149   6.649 -0.0612 -0.1738 -0.1466
16638TIP3    H149836   0.569   0.158   6.557 -0.0019  0.6538 -0.0541
16638TIP3    H249837   0.587   0.220   6.694 -0.2730 -0.4388  0.4817
16639TIP3   OH249838   5.969   7.326   6.391 -0.5764 -0.0974 -0.3502
16639TIP3    H149839   5.976   7.355   6.300  1.3350 -1.8490 -0.8227
16639TIP3    H249840   6.035   7.378   6.438  1.4487 -2.1590 -0.8210
16640TIP3   OH249841   7.207   8.141   7.141  0.2739  0.3419 -0.1460
16640TIP3    H149842   7.241   8.053   7.160 -1.0924 -0.0969  0.3074
16640TIP3    H249843   7.119   8.126   7.107 -1.7559  1.7104  4.1176
16641TIP3   OH249844   2.544   0.788   2.343  0.6073 -0.2138  0.0274
16641TIP3    H149845   2.518   0.818   2.255  1.7625  0.7017 -0.0104
16641TIP3    H249846   2.552   0.693   2.334 -4.0310 -0.7519  0.3731
16642TIP3   OH249847   6.678   6.050   6.138 -0.2659  0.6660  0.0621
16642TIP3    H149848   6.668   6.049   6.233 -2.0759 -0.9901 -0.1117
16642TIP3    H249849   6.621   5.979   6.107  0.9611  0.6045 -2.1900
16643TIP3   OH249850   5.848   7.147   5.641  0.3869 -0.0674  0.0904
16643TIP3    H149851   5.848   7.063   5.595  0.0913 -1.5314  2.6254
16643TIP3    H249852   5.778   7.138   5.706 -1.0968  2.9840 -1.0147
16644TIP3   OH249853   4.924   7.325   7.186  0.0243  0.5706  0.2668
16644TIP3    H149854   4.845   7.279   7.215  0.7667  1.0433  3.2825
16644TIP3    H249855   4.974   7.259   7.138 -0.5548 -0.7831  1.4676
16645TIP3   OH249856   4.925   6.674   5.633 -0.4783 -0.0823  0.0843
16645TIP3    H149857   4.847   6.680   5.689 -0.5869 -0.0346 -0.0738
16645TIP3    H249858   4.975   6.752   5.655 -0.8354  0.2764 -0.3624
16646TIP3   OH249859   3.729   2.303   0.796 -0.2975  0.5761  0.0519
16646TIP3    H149860   3.691   2.375   0.846  0.1808  0.7148  0.2169
16646TIP3    H249861   3.744   2.234   0.861 -1.3828  0.0685 -0.2192
16647TIP3   OH249862   4.685   0.320   1.807  0.5026  0.5067  0.1325
16647TIP3    H149863   4.614   0.356   1.860  0.5300  0.6702  0.0598
16647TIP3    H249864   4.731   0.259   1.865 -1.1389 -1.4025 -0.5405
16648TIP3   OH249865   3.116   3.222   0.347  0.3441  0.3514  0.2162
16648TIP3    H149866   3.201   3.251   0.313  0.7583  0.3558  1.2272
16648TIP3    H249867   3.113   3.129   0.327  0.8455  0.2301  0.6837
16649TIP3   OH249868   0.550   4.060   0.042 -0.4334  0.5459  0.5236
16649TIP3    H149869   0.592   4.094   0.121 -0.2408  0.5275  0.4281
16649TIP3    H249870   0.591   3.975   0.028  1.2592  1.5720 -0.9664
16650TIP3   OH249871   7.647   5.102   5.667  0.0458 -0.0267 -0.1580
16650TIP3    H149872   7.737   5.072   5.682 -0.1161 -0.0282  0.8543
16650TIP3    H249873   7.600   5.024   5.638  0.1296 -0.2829  0.3730
16651TIP3   OH249874   8.499   6.266   5.646  0.2542 -0.0759  0.0457
16651TIP3    H149875   8.528   6.285   5.735 -0.3180 -1.6149  0.5790
16651TIP3    H249876   8.404   6.282   5.647  0.7045  2.8560 -1.1119
16652TIP3   OH249877   4.183   1.539   0.399  0.2361  0.0555 -0.1466
16652TIP3    H149878   4.215   1.618   0.354  0.1515  0.1626 -0.0210
16652TIP3    H249879   4.125   1.573   0.467  0.4185 -0.1043  0.0877
16653TIP3   OH249880   4.686   2.421   0.329  0.8701 -0.1103 -0.0853
16653TIP3    H149881   4.695   2.511   0.358 -1.2729  0.3326 -0.6771
16653TIP3    H249882   4.676   2.427   0.234  0.3904 -0.9367 -0.0976
16654TIP3   OH249883   1.952   2.448   0.637  0.0412  0.5969  0.2269
16654TIP3    H149884   1.920   2.527   0.593  0.2293  1.3989  1.5180
16654TIP3    H249885   2.045   2.464   0.652  0.2793 -0.2465 -0.2979
16655TIP3   OH249886   3.160   0.784   0.225  0.6971 -0.0148 -0.2159
16655TIP3    H149887   3.239   0.778   0.279 -1.1222 -2.4615  2.3054
16655TIP3    H249888   3.170   0.716   0.159  0.1733 -1.1146  0.8332
16656TIP3   OH249889   0.462   6.119   5.838 -0.0109 -0.2783 -0.1418
16656TIP3    H149890   0.553   6.144   5.851 -0.1626  0.8933 -1.2243
16656TIP3    H249891   0.433   6.088   5.924  1.4243 -0.7696  0.1847
16657TIP3   OH249892   5.891   0.278   0.491 -0.4065 -0.9026  0.0133
16657TIP3    H149893   5.850   0.204   0.535 -2.8323  0.9456  0.9373
16657TIP3    H249894   5.824   0.311   0.431  1.0437 -0.1534 -1.2469
16658TIP3   OH249895   8.624   0.669   6.472  0.3242  0.3792 -0.6750
16658TIP3    H149896   8.633   0.634   6.384  0.3557  1.4557 -1.1150
16658TIP3    H249897   8.714   0.690   6.499  0.3849 -0.5397 -0.1290
16659TIP3   OH249898   5.400   7.169   6.970  0.3928 -0.2684 -0.4070
16659TIP3    H149899   5.356   7.207   6.894  1.4076 -0.4253 -1.0809
16659TIP3    H249900   5.399   7.238   7.036 -2.2951 -0.8089  0.1597
16660TIP3   OH249901   6.119   5.495   4.626  0.1306 -0.7513 -0.0333
16660TIP3    H149902   6.069   5.452   4.556  0.2903  1.1702 -1.3867
16660TIP3    H249903   6.060   5.496   4.701 -1.5411  0.6689 -1.3314
16661TIP3   OH249904   6.252   6.915   5.241  0.5712 -0.3263  0.0610
16661TIP3    H149905   6.207   6.888   5.161 -0.1187  1.8926 -0.3328
16661TIP3    H249906   6.186   6.964   5.290  2.0990  1.6187  0.1988
16662TIP3   OH249907   2.805   0.815   0.975  0.7991  0.5220  0.2899
16662TIP3    H149908   2.829   0.794   1.065 -0.5040 -2.5484 -0.0444
16662TIP3    H249909   2.710   0.827   0.977  0.9190  1.6942 -0.4617
16663TIP3   OH249910   5.401   6.143   5.615  0.3119  0.3112  0.0912
16663TIP3    H149911   5.481   6.196   5.615  0.4973  0.0330 -1.0106
16663TIP3    H249912   5.330   6.207   5.620  0.5928  0.5566  1.1834
16664TIP3   OH249913   0.559   5.557   4.275  0.6339  0.0106 -0.5100
16664TIP3    H149914   0.558   5.531   4.367 -0.3230 -1.0965 -0.8176
16664TIP3    H249915   0.598   5.644   4.275 -0.1283  0.3728  1.0433
16665TIP3   OH249916   0.421   5.349   5.487  0.4102  0.1642  0.1321
16665TIP3    H149917   0.412   5.385   5.575  0.9073 -0.5843  0.4926
16665TIP3    H249918   0.436   5.256   5.501 -1.1327 -0.2369 -0.8045
16666TIP3   OH249919   8.813   6.803   3.470 -0.1736 -0.3794 -0.3338
16666TIP3    H149920   8.734   6.797   3.525 -0.0655  0.1790 -0.1111
16666TIP3    H249921   8.850   6.888   3.492  0.4654 -0.6209 -0.4844
16667TIP3   OH249922   6.980   4.327   6.416  0.2641  0.1544  0.1590
16667TIP3    H149923   7.015   4.363   6.497  0.6680  0.6938 -0.2488
16667TIP3    H249924   7.039   4.254   6.395 -0.6663 -0.8817  1.0864
16668TIP3   OH249925   6.256   7.477   5.926 -0.5601 -0.3040  0.2438
16668TIP3    H149926   6.270   7.390   5.887  0.3384  0.1438 -0.4511
16668TIP3    H249927   6.283   7.538   5.858 -0.8539  0.5239  0.8635
16669TIP3   OH249928   8.441   5.529   7.004 -0.0086  0.4460 -0.0000
16669TIP3    H149929   8.516   5.586   7.020 -1.0337  1.6137  0.6672
16669TIP3    H249930   8.480   5.444   6.984  1.4641  0.7319  1.5594
16670TIP3   OH249931   6.718   6.703   3.957  0.3275 -0.1009 -0.7575
16670TIP3    H149932   6.641   6.736   3.911 -0.2050  2.4324  1.7829
16670TIP3    H249933   6.791   6.723   3.899 -0.5051  1.4092 -1.3154
16671TIP3   OH249934   5.994   5.705   5.821  0.6010 -0.3868  0.2601
16671TIP3    H149935   6.049   5.780   5.798 -0.7241  0.3676 -0.4582
16671TIP3    H249936   5.947   5.684   5.741 -0.0698 -1.1158  0.8405
16672TIP3   OH249937   8.277   6.901   4.081 -0.2199 -0.3655 -0.2254
16672TIP3    H149938   8.355   6.853   4.109  0.6661  0.7835 -0.7019
16672TIP3    H249939   8.233   6.924   4.163  1.4871  1.5269  0.1848
16673TIP3   OH249940   6.996   6.552   6.884  0.1186 -0.1725  0.2001
16673TIP3    H149941   7.025   6.605   6.958 -0.8638 -0.2986  0.6729
16673TIP3    H249942   6.901   6.562   6.883  0.1286 -0.1028 -1.0952
16674TIP3   OH249943   7.701   6.266   3.795 -0.4155 -0.5853  0.3220
16674TIP3    H149944   7.683   6.350   3.836 -1.2051 -1.0165  0.8564
16674TIP3    H249945   7.781   6.235   3.838  0.0950  0.0590 -0.1417
16675TIP3   OH249946   5.457   6.402   4.100 -0.1454 -0.2754 -0.2879
16675TIP3    H149947   5.496   6.315   4.087  1.0719 -0.2561  2.7706
16675TIP3    H249948   5.513   6.461   4.049  1.2465 -0.8481  0.5212
16676TIP3   OH249949   5.992   6.916   6.022  0.0981 -0.2622 -0.6534
16676TIP3    H149950   6.012   6.873   6.105 -0.1367  1.4431  0.3246
16676TIP3    H249951   6.002   7.010   6.041  0.0990  0.1515 -2.5667
16677TIP3   OH249952   3.583   1.164   0.041  0.2676 -0.1977  0.4180
16677TIP3    H149953   3.636   1.244   0.038  0.1376 -0.1236 -0.0411
16677TIP3    H249954   3.494   1.195   0.022  0.0299 -0.2930  1.3752
16678TIP3   OH249955   6.342   6.830   7.135 -0.5325  0.1673 -0.8097
16678TIP3    H149956   6.423   6.868   7.168 -0.9205  0.5553 -0.2941
16678TIP3    H249957   6.277   6.848   7.203 -1.7490  2.5127 -2.5085
16679TIP3   OH249958   7.016   3.230   0.849 -0.2733  0.3713  0.5101
16679TIP3    H149959   7.060   3.222   0.934 -1.1769 -0.8133  0.8890
16679TIP3    H249960   7.069   3.292   0.800  0.3000  1.0274  1.9238
16680TIP3   OH249961   1.063   0.270   4.401  0.5406 -0.6504 -0.5550
16680TIP3    H149962   1.056   0.277   4.497 -0.7810  1.4742 -0.7796
16680TIP3    H249963   1.029   0.183   4.381 -1.6789 -0.0893  0.6915
16681TIP3   OH249964   2.514   8.364   6.923  0.7564 -0.3245  0.5350
16681TIP3    H149965   2.537   8.287   6.871 -0.6464  0.4205 -1.2449
16681TIP3    H249966   2.452   8.413   6.868  1.1469  1.7629  1.8827
16682TIP3   OH249967   6.491   1.290   0.537 -0.5073  0.0848  0.5200
16682TIP3    H149968   6.442   1.372   0.540  0.4231  0.7641 -1.5286
16682TIP3    H249969   6.448   1.239   0.469  0.0162 -0.3805  0.5355
16683TIP3   OH249970   6.694   2.896   1.064  0.5419  0.0138  0.3317
16683TIP3    H149971   6.678   2.814   1.016 -0.1570  0.6716 -0.5676
16683TIP3    H249972   6.776   2.880   1.111 -0.3299 -1.7092  1.2988
16684TIP3   OH249973   0.839   6.270   6.509  0.9581  0.6346 -0.0909
16684TIP3    H149974   0.930   6.245   6.526 -0.2485 -3.6237  0.5944
16684TIP3    H249975   0.801   6.284   6.596 -0.0360 -1.5237 -0.1518
16685TIP3   OH249976   1.627   3.673   0.925  0.5495  0.4051 -0.3865
16685TIP3    H149977   1.558   3.614   0.957  1.3681 -0.5474 -0.3431
16685TIP3    H249978   1.594   3.705   0.841 -0.0803  0.1865 -0.2232
16686TIP3   OH249979   8.857   4.794   1.166 -0.1286 -0.1747  0.0096
16686TIP3    H149980   8.774   4.840   1.173  0.3863  0.5580  1.5133
16686TIP3    H249981   8.913   4.835   1.233  0.9948 -1.5846 -0.0484
16687TIP3   OH249982   8.356   0.506   6.951  0.3716 -0.2174 -0.0845
16687TIP3    H149983   8.376   0.423   6.995 -0.6290  0.4564  1.6832
16687TIP3    H249984   8.418   0.569   6.988 -0.0239  0.2046 -0.1271
16688TIP3   OH249985   6.781   4.297   1.239  0.0851 -0.4007  0.0916
16688TIP3    H149986   6.696   4.255   1.254 -0.0652  0.4099  1.5726
16688TIP3    H249987   6.843   4.224   1.232 -0.7853 -1.0165 -1.4248
16689TIP3   OH249988   1.442   2.019   1.893  0.1254 -0.5228 -0.8708
16689TIP3    H149989   1.413   2.096   1.844 -0.7515 -0.1579  0.1913
16689TIP3    H249990   1.533   2.036   1.915 -0.0230  0.1545 -0.7747
16690TIP3   OH249991   3.453   0.948   5.557 -0.2693  0.4653 -0.8791
16690TIP3    H149992   3.453   1.005   5.480  2.8622  0.5425 -0.8786
16690TIP3    H249993   3.487   0.865   5.525  0.1071  0.2053  0.1849
16691TIP3   OH249994   7.585   4.626   1.429  0.1148 -0.3004  0.7568
16691TIP3    H149995   7.540   4.542   1.431 -1.2149  0.4221  2.1984
16691TIP3    H249996   7.648   4.618   1.357 -1.3205 -1.8461 -0.3702
16692TIP3   OH249997   6.111   1.701   6.389 -0.0521 -0.3197  0.4447
16692TIP3    H149998   6.077   1.734   6.472  0.4895 -0.1804  0.6146
16692TIP3    H249999   6.162   1.623   6.413  0.5977  0.0648  0.3143
16693TIP3   OH250000   6.214   2.020   6.894 -0.4393  0.1565  0.6601
16693TIP3    H150001   6.295   2.021   6.842 -1.2651  3.0740 -0.6529
16693TIP3    H250002   6.242   2.046   6.982 -0.1044  2.2871 -0.0629
16694TIP3   OH250003   2.976   8.389   5.931 -0.0840  0.4441  0.0182
16694TIP3    H150004   3.030   8.437   5.867 -1.7902  2.0102 -0.2663
16694TIP3    H250005   3.010   8.300   5.928  1.4940  1.0627 -1.2789
16695TIP3   OH250006   8.627   4.936   1.133 -0.2290 -0.0947 -0.2176
16695TIP3    H150007   8.564   4.874   1.094  0.3264  0.5836 -2.2955
16695TIP3    H250008   8.573   4.997   1.182 -1.0475 -0.5580 -0.5220
16696TIP3   OH250009   7.772   4.682   1.199  0.5846  0.0726 -0.4805
16696TIP3    H150010   7.820   4.736   1.262  1.7684  0.2725 -1.5163
16696TIP3    H250011   7.825   4.687   1.119 -2.0411  1.6967 -2.2154
16697TIP3   OH250012   5.688   0.996   6.941  0.0980 -0.8200  0.1314
16697TIP3    H150013   5.760   0.945   6.977  1.1735  0.0819 -0.6853
16697TIP3    H250014   5.715   1.087   6.952 -1.1051 -0.4583  0.1835
16698TIP3   OH250015   0.081   3.927   1.221  0.5251  0.0207  0.9411
16698TIP3    H150016   0.026   3.961   1.292  0.3369  0.5456  0.5468
16698TIP3    H250017   0.019   3.909   1.150  1.0537  2.1257 -0.0820
16699TIP3   OH250018   5.084   0.678   6.788  0.4551 -0.1866 -0.0650
16699TIP3    H150019   5.067   0.748   6.852  0.1153  0.0251 -0.3851
16699TIP3    H250020   5.151   0.714   6.730 -0.6406  0.3675 -1.0039
16700TIP3   OH250021   3.453   7.887   6.646 -0.5119 -0.2514 -0.3858
16700TIP3    H150022   3.517   7.956   6.627  0.4743 -0.8214  0.7502
16700TIP3    H250023   3.438   7.844   6.562 -1.1331  1.3398 -1.0994
16701TIP3   OH250024   2.391   4.052   0.878 -0.1373  0.0845  0.3171
16701TIP3    H150025   2.449   4.104   0.934  0.8872  0.3950 -0.9971
16701TIP3    H250026   2.346   4.117   0.824  2.0426 -0.3941 -2.1924
16702TIP3   OH250027   6.585   5.047   2.227  0.1144 -0.5052  0.6844
16702TIP3    H150028   6.570   5.135   2.193 -0.7628 -1.0238 -0.2688
16702TIP3    H250029   6.631   5.061   2.310  0.1680  0.8396  0.4301
16703TIP3   OH250030   2.266   5.736   7.088 -0.2406 -0.1211  0.5543
16703TIP3    H150031   2.191   5.684   7.115 -0.4917  0.3025  0.6850
16703TIP3    H250032   2.309   5.761   7.170  1.5869 -2.5970  0.3925
16704TIP3   OH250033   5.243   2.235   6.933 -0.2555 -0.1704 -0.3282
16704TIP3    H150034   5.266   2.169   6.998  3.1748  0.6644 -0.5886
16704TIP3    H250035   5.148   2.242   6.938 -0.2769 -1.9503  2.7754
16705TIP3   OH250036   1.321   7.769   6.819 -0.0572 -0.3424 -0.0371
16705TIP3    H150037   1.343   7.862   6.824 -0.9373 -0.1035 -0.4840
16705TIP3    H250038   1.286   7.757   6.731 -1.3211 -0.7795  0.5155
16706TIP3   OH250039   5.714   0.049   6.316 -0.3262  0.2027  0.3921
16706TIP3    H150040   5.648  -0.014   6.344 -1.1814  1.1859  0.6295
16706TIP3    H250041   5.724   0.033   6.222 -0.1859 -0.5909  0.5371
16707TIP3   OH250042   5.718   4.279   0.018 -0.0667 -0.0015  0.4527
16707TIP3    H150043   5.766   4.256   0.098 -1.2157 -0.4826  1.0203
16707TIP3    H250044   5.763   4.231  -0.051  0.6450  0.0408  0.8748
16708TIP3   OH250045   6.702   0.473   6.613 -0.2592 -0.1768 -0.0472
16708TIP3    H150046   6.656   0.546   6.656 -1.0286  1.0313 -2.8176
16708TIP3    H250047   6.792   0.503   6.606 -0.5956  0.5893 -1.2818
16709TIP3   OH250048   1.368   3.821   1.753 -0.4942 -0.1852 -0.0796
16709TIP3    H150049   1.283   3.834   1.709 -0.2785 -2.3286 -1.1564
16709TIP3    H250050   1.420   3.897   1.727 -1.2971 -0.0491 -1.3336
16710TIP3   OH250051   0.279   4.795   0.353 -0.2838  0.0094 -0.3613
16710TIP3    H150052   0.302   4.858   0.285 -0.1556  0.0645 -0.2662
16710TIP3    H250053   0.308   4.835   0.435  2.5800 -1.4882 -0.5747
16711TIP3   OH250054   4.601   2.170   6.967  0.3585  0.0689 -0.2089
16711TIP3    H150055   4.657   2.098   6.941  0.1383 -0.8509  1.7514
16711TIP3    H250056   4.647   2.211   7.040 -0.8461  0.1582  0.5282
16712TIP3   OH250057   0.264   4.404   0.715 -0.1621 -0.3308  0.1832
16712TIP3    H150058   0.199   4.361   0.771 -0.9369  0.2762 -0.2282
16712TIP3    H250059   0.343   4.409   0.768 -1.5296  2.2675  2.0693
16713TIP3   OH250060   0.212   4.696   0.030 -0.2398 -0.7403  0.2162
16713TIP3    H150061   0.308   4.701   0.022 -0.1528 -2.2738  0.1047
16713TIP3    H250062   0.197   4.615   0.079 -1.3769  0.8934  2.6227
16714TIP3   OH250063   0.615   3.609   0.401 -0.3535  0.8973 -0.2922
16714TIP3    H150064   0.584   3.520   0.416  1.0458  0.7884  2.1059
16714TIP3    H250065   0.597   3.655   0.483  0.0252  2.5083 -1.0913
16715TIP3   OH250066   0.960   5.502   2.374  0.2674  0.0446  0.3600
16715TIP3    H150067   0.915   5.443   2.313  0.7902  1.4384 -1.4208
16715TIP3    H250068   0.907   5.581   2.374  1.8652  1.1466 -0.5906
16716TIP3   OH250069   8.720   4.197   0.287  0.2618 -0.1291  0.0047
16716TIP3    H150070   8.772   4.121   0.313 -0.8154 -0.7815  0.2514
16716TIP3    H250071   8.639   4.161   0.252 -0.2136  0.8960  0.0262
16717TIP3   OH250072   1.232   3.119   0.412  0.2182 -0.0474  0.8869
16717TIP3    H150073   1.181   3.040   0.434 -0.1284  0.0561  0.4628
16717TIP3    H250074   1.182   3.191   0.449  0.4383 -0.0079  1.1094
16718TIP3   OH250075   7.098   2.532   0.270  0.5076  0.2452 -0.6456
16718TIP3    H150076   7.093   2.504   0.179 -0.4240 -0.7587 -0.2961
16718TIP3    H250077   7.022   2.589   0.282  0.3629  0.0020 -0.3826
16719TIP3   OH250078   8.140   5.439   0.616  0.8005 -0.1572 -0.3924
16719TIP3    H150079   8.216   5.419   0.670 -0.0220 -1.3091  0.3696
16719TIP3    H250080   8.093   5.356   0.608 -2.4931  1.2755  2.5395
16720TIP3   OH250081   7.392   3.274   0.885 -0.1915  0.0080 -0.0215
16720TIP3    H150082   7.470   3.300   0.935 -0.8291 -1.6862  1.9254
16720TIP3    H250083   7.331   3.347   0.898  0.2166  0.2836  0.3706
16721TIP3   OH250084   8.176   7.043   0.585 -0.5999  0.2718 -0.8658
16721TIP3    H150085   8.197   7.079   0.671 -0.7385  1.4956 -1.3264
16721TIP3    H250086   8.224   6.961   0.580 -0.1437  0.4764  0.1553
16722TIP3   OH250087   7.441   2.041   1.201  0.5298 -0.1404  0.5974
16722TIP3    H150088   7.473   2.017   1.114  1.2997 -0.6055  1.0040
16722TIP3    H250089   7.349   2.014   1.201  0.5194 -0.1039 -0.0848
16723TIP3   OH250090   0.696   3.232   1.633  0.3307  0.1008 -0.1315
16723TIP3    H150091   0.631   3.164   1.652 -0.8292  1.6667  1.7787
16723TIP3    H250092   0.736   3.250   1.718  1.4805  0.9361 -0.8513
16724TIP3   OH250093   6.162   0.483   6.514  0.2843 -0.4176 -0.1661
16724TIP3    H150094   6.100   0.438   6.571  0.8731 -0.3766  0.5261
16724TIP3    H250095   6.144   0.450   6.427 -2.6182  1.6800 -0.4330
16725TIP3   OH250096   3.375   1.220   6.335 -0.6600  0.2996  0.3257
16725TIP3    H150097   3.332   1.278   6.273 -1.6652 -0.0276  0.6943
16725TIP3    H250098   3.304   1.188   6.391 -0.1567 -1.3327  0.0838
16726TIP3   OH250099   0.115   5.987   0.645 -0.2137 -0.3471  0.2504
16726TIP3    H150100   0.104   6.046   0.719 -0.4062 -1.4905  1.1489
16726TIP3    H250101   0.157   6.040   0.577  1.1317  0.3822  1.6270
16727TIP3   OH250102   4.790   7.917   6.329 -0.2000  0.7834  0.0049
16727TIP3    H150103   4.713   7.883   6.284 -1.9251  3.0494  1.1613
16727TIP3    H250104   4.789   7.874   6.414  0.9867 -0.6921 -0.6893
16728TIP3   OH250105   8.027   5.184   0.616 -0.2138 -0.4192 -0.1785
16728TIP3    H150106   7.975   5.113   0.652 -0.4315 -0.3137 -0.2876
16728TIP3    H250107   8.084   5.141   0.552  0.1875 -0.6071  0.3029
16729TIP3   OH250108   3.401   1.144   7.247 -0.4701 -0.4438  0.3600
16729TIP3    H150109   3.423   1.235   7.266  1.6337 -0.4539 -1.7876
16729TIP3    H250110   3.314   1.132   7.285 -0.8506  2.5071  0.5434
16730TIP3   OH250111   8.815   4.368   1.862  0.5624  0.7839 -1.0555
16730TIP3    H150112   8.796   4.377   1.769  0.4332  0.2304 -1.0868
16730TIP3    H250113   8.789   4.451   1.901 -1.4095  0.2395 -1.1834
16731TIP3   OH250114   1.070   2.692   0.719 -0.1385  0.3675 -0.2708
16731TIP3    H150115   1.127   2.659   0.789 -1.3205  1.4749  1.2375
16731TIP3    H250116   0.985   2.652   0.737 -0.6048  1.1516 -0.7109
16732TIP3   OH250117   1.200   7.465   6.676 -0.9597 -0.8034  0.4781
16732TIP3    H150118   1.191   7.412   6.597 -0.2708 -0.5944  0.2569
16732TIP3    H250119   1.266   7.418   6.728  0.2327  0.2459 -0.0646
16733TIP3   OH250120   2.613   7.837   6.035  0.3614  0.0128 -0.1297
16733TIP3    H150121   2.562   7.875   5.963  0.3492  0.9691  0.3774
16733TIP3    H250122   2.568   7.755   6.056 -0.9210  0.7959  0.2394
16734TIP3   OH250123   3.924   6.743   6.231  0.0696  0.3136  0.2705
16734TIP3    H150124   4.013   6.750   6.197 -0.0895 -1.6783 -0.5954
16734TIP3    H250125   3.932   6.761   6.325  1.8004 -2.3511  0.6843
16735TIP3   OH250126   7.595   4.545   1.699  0.0093  0.1464  0.3615
16735TIP3    H150127   7.647   4.586   1.768 -1.7722  0.0405  1.8046
16735TIP3    H250128   7.616   4.595   1.620  1.5123  0.7400  1.1158
16736TIP3   OH250129   6.079   0.183   6.674 -0.0053  0.7147  0.0438
16736TIP3    H150130   6.164   0.139   6.678  0.0397  0.8186  0.2116
16736TIP3    H250131   6.031   0.150   6.750 -0.5419 -0.2247 -0.6956
16737TIP3   OH250132   3.602   7.050   6.599 -0.3788 -0.3596 -0.1129
16737TIP3    H150133   3.664   7.010   6.537 -0.0002 -0.9849  0.6482
16737TIP3    H250134   3.559   6.975   6.641  0.6055 -0.0113  1.6123
16738TIP3   OH250135   2.102   7.262   6.783 -0.2867 -0.6760  0.5185
16738TIP3    H150136   2.085   7.226   6.696 -0.8301 -1.1404  0.8116
16738TIP3    H250137   2.186   7.306   6.775 -0.4450 -0.5142 -0.3075
16739TIP3   OH250138   7.932   2.922   0.999 -0.3040  0.3040 -0.3170
16739TIP3    H150139   7.885   2.886   0.923  0.1713  1.9850 -1.4344
16739TIP3    H250140   7.974   2.846   1.039 -0.7345 -0.6443 -1.6279
16740TIP3   OH250141   6.113   8.136   5.763  0.2441  0.0240  0.3823
16740TIP3    H150142   6.133   8.044   5.747  0.9355  0.2955 -0.3259
16740TIP3    H250143   6.062   8.164   5.687 -1.5551 -0.2463  1.4446
16741TIP3   OH250144   4.677   1.613   7.080  0.6582  0.4485 -0.7266
16741TIP3    H150145   4.645   1.701   7.097 -0.7872  0.2310 -2.1525
16741TIP3    H250146   4.604   1.569   7.035  1.5406 -1.3049 -0.5122
16742TIP3   OH250147   0.886   3.441   0.655 -0.0758  0.1433  0.1372
16742TIP3    H150148   0.811   3.383   0.657 -0.0856  0.1293 -0.5047
16742TIP3    H250149   0.946   3.406   0.721 -0.4239 -0.1194  0.3154
16743TIP3   OH250150   4.564   1.053   6.682  0.1110  0.2224 -0.5923
16743TIP3    H150151   4.528   1.001   6.754  0.3758  0.4243 -0.3127
16743TIP3    H250152   4.616   1.121   6.725 -0.2549  0.7362 -0.9564
16744TIP3   OH250153   0.517   6.433   7.032 -0.4290 -0.5575  0.7721
16744TIP3    H150154   0.520   6.514   6.980  2.3037 -1.4969 -0.6526
16744TIP3    H250155   0.602   6.428   7.074 -1.1486 -1.9251  2.1248
16745TIP3   OH250156   8.807   3.764   0.900  0.1629  0.1165  0.3040
16745TIP3    H150157   8.874   3.718   0.849  0.9965  0.1943  1.3201
16745TIP3    H250158   8.805   3.717   0.984 -0.1891  0.8870  0.7256
16746TIP3   OH250159   0.314   3.156   0.748  0.3046  0.3023  0.3615
16746TIP3    H150160   0.242   3.178   0.689 -1.0744  2.0742  2.6421
16746TIP3    H250161   0.383   3.218   0.725  0.8039 -0.7846 -1.1829
16747TIP3   OH250162   4.445   7.046   6.641  0.3556 -0.3721 -0.1206
16747TIP3    H150163   4.523   7.087   6.679  0.9064 -0.5508 -1.0324
16747TIP3    H250164   4.396   7.119   6.603 -0.0900 -0.2196  0.7395
16748TIP3   OH250165   8.129   3.615   0.205  0.5270  0.2246 -0.1471
16748TIP3    H150166   8.205   3.658   0.167  0.8153 -0.1141  0.0368
16748TIP3    H250167   8.134   3.525   0.173 -0.2731  0.4154 -0.8353
16749TIP3   OH250168   8.662   0.667   7.195 -0.0754 -0.2291 -0.0959
16749TIP3    H150169   8.655   0.575   7.171 -0.2009 -0.1693 -0.2886
16749TIP3    H250170   8.606   0.712   7.133 -0.8148 -0.1265  0.6321
16750TIP3   OH250171   6.348   7.976   5.973 -0.3438  0.5120  0.0668
16750TIP3    H150172   6.308   8.055   6.009 -0.9129  0.0997  0.3511
16750TIP3    H250173   6.307   7.966   5.887  0.2162  0.8951 -0.2449
16751TIP3   OH250174   8.159   0.711   4.538 -0.1681  0.5090 -0.0482
16751TIP3    H150175   8.108   0.781   4.578 -1.9344  0.1870 -1.6281
16751TIP3    H250176   8.218   0.681   4.607 -1.1676  1.8451  1.4146
16752TIP3   OH250177   2.778   5.372   1.218  0.1701  0.0522  0.0551
16752TIP3    H150178   2.807   5.362   1.127  1.9860 -0.0107  0.6149
16752TIP3    H250179   2.726   5.453   1.218  2.2579  1.4399 -0.5856
16753TIP3   OH250180   7.653   0.991   3.799  0.0664 -0.1607 -0.1729
16753TIP3    H150181   7.566   0.999   3.761 -0.6712 -0.0227  1.5148
16753TIP3    H250182   7.652   1.052   3.873  1.6246 -0.1049 -0.1798
16754TIP3   OH250183   1.977   8.234   5.142  0.0042  0.4802  0.2644
16754TIP3    H150184   2.002   8.312   5.092  1.2770 -0.6309 -0.9023
16754TIP3    H250185   1.948   8.172   5.075  0.7190 -0.6638  0.9985
16755TIP3   OH250186   4.689   7.462   7.153 -0.4593  0.0436 -0.4025
16755TIP3    H150187   4.780   7.434   7.162 -0.5380 -0.1235 -0.1369
16755TIP3    H250188   4.638   7.392   7.193 -0.6170  0.8370  0.8119
16756TIP3   OH250189   7.840   1.391   5.143  0.5391 -0.1194  0.1554
16756TIP3    H150190   7.898   1.425   5.211  1.0369 -0.4244 -0.1179
16756TIP3    H250191   7.820   1.302   5.172  0.8562 -0.2940 -0.1673
16757TIP3   OH250192   2.268   3.414   1.099 -0.0190  0.4735 -0.0264
16757TIP3    H150193   2.272   3.497   1.148  1.7495  0.0860  0.5119
16757TIP3    H250194   2.203   3.361   1.147  2.2352 -0.1982  2.4028
16758TIP3   OH250195   3.073   5.910   1.156 -0.2618  0.0613 -0.3397
16758TIP3    H150196   3.163   5.890   1.128 -0.5365 -1.6054 -0.1018
16758TIP3    H250197   3.024   5.919   1.075 -0.4886 -2.0279 -0.4559
16759TIP3   OH250198   8.507   0.079   5.710 -0.2757  0.8981 -0.6415
16759TIP3    H150199   8.525   0.150   5.771 -1.5396 -0.0692  0.8926
16759TIP3    H250200   8.516   0.119   5.623  1.8791  2.2038  0.1477
16760TIP3   OH250201   0.392   5.248   0.812  0.5115  0.1145  0.0147
16760TIP3    H150202   0.438   5.235   0.730 -1.7448 -0.3006 -1.2343
16760TIP3    H250203   0.409   5.339   0.836 -1.6493  1.3129 -2.7573
16761TIP3   OH250204   3.929   2.731   1.135 -0.1263  0.0174  0.5704
16761TIP3    H150205   3.866   2.698   1.071 -0.3597 -0.2352  0.9295
16761TIP3    H250206   3.932   2.825   1.121  0.9500 -0.2099 -0.8434
16762TIP3   OH250207   1.648   3.560   1.423  0.1258  0.2855 -0.4371
16762TIP3    H150208   1.602   3.588   1.344 -2.8499 -1.3496  0.5973
16762TIP3    H250209   1.664   3.641   1.471 -1.0577  1.0029 -1.2105
16763TIP3   OH250210   1.323   2.733   2.127 -0.0796  0.0904  0.5546
16763TIP3    H150211   1.323   2.767   2.217  1.8123  0.2466  0.5065
16763TIP3    H250212   1.294   2.642   2.136 -0.6067  0.3186  1.2294
16764TIP3   OH250213   1.289   3.828   1.210  0.2325  0.0217  0.3622
16764TIP3    H150214   1.261   3.809   1.299 -3.2541  1.0886 -0.4259
16764TIP3    H250215   1.269   3.921   1.198 -0.0592 -0.2793 -1.7335
16765TIP3   OH250216   8.256   1.264   4.035 -0.0445 -0.2500  0.4254
16765TIP3    H150217   8.335   1.315   4.015  0.4792 -1.0701  0.3923
16765TIP3    H250218   8.281   1.209   4.110 -0.3693 -1.0048 -0.0172
16766TIP3   OH250219   1.237   3.349   1.112  0.1336 -0.0524  0.3608
16766TIP3    H150220   1.143   3.360   1.097  0.2004  0.8327  0.6014
16766TIP3    H250221   1.244   3.319   1.203 -0.0057 -1.5705 -0.1095
16767TIP3   OH250222   4.852   7.788   7.208 -0.0152 -0.1481 -0.4128
16767TIP3    H150223   4.882   7.834   7.286 -1.4063 -0.8079  0.5362
16767TIP3    H250224   4.758   7.774   7.223 -0.7540  1.4963 -3.0702
16768TIP3   OH250225   3.040   4.135   0.878  0.0101  0.1589 -0.1331
16768TIP3    H150226   3.097   4.106   0.807 -0.7816 -0.4225 -0.5359
16768TIP3    H250227   2.977   4.193   0.836  0.6836  1.2876  0.4197
16769TIP3   OH250228   0.288   3.470   0.402 -0.1027  0.3418 -0.5452
16769TIP3    H150229   0.297   3.565   0.396  0.6961  0.2045 -1.6538
16769TIP3    H250230   0.350   3.436   0.337  2.6469 -1.0628  2.6582
16770TIP3   OH250231   4.180   8.163   6.350  0.3574 -0.7278 -0.1576
16770TIP3    H150232   4.090   8.160   6.380 -0.2712 -1.0869 -2.0263
16770TIP3    H250233   4.179   8.223   6.275  1.3866 -1.8323 -1.0755
16771TIP3   OH250234   0.015   3.628   1.161  0.8206 -0.2179 -0.2819
16771TIP3    H150235   0.089   3.623   1.221  0.9435 -2.3871 -0.5828
16771TIP3    H250236  -0.010   3.537   1.146 -1.5865  0.4577 -0.5925
16772TIP3   OH250237   1.614   6.244   1.895 -0.6427 -0.2427 -0.2295
16772TIP3    H150238   1.670   6.173   1.926 -1.0478  0.0459  1.1839
16772TIP3    H250239   1.671   6.321   1.895 -0.4363 -0.3905 -0.9498
16773TIP3   OH250240   2.750   4.480   1.334  0.0321  0.2211  0.5018
16773TIP3    H150241   2.826   4.538   1.341  1.7802 -1.7926 -1.2160
16773TIP3    H250242   2.753   4.428   1.414 -0.0653  0.7172  0.8357
16774TIP3   OH250243   2.775   5.041   0.160  0.6874 -0.6453 -0.0295
16774TIP3    H150244   2.683   5.022   0.176  0.3538  0.2891 -0.8418
16774TIP3    H250245   2.792   5.011   0.071  1.6514 -2.5286  0.7549
16775TIP3   OH250246   7.976   0.743   2.934 -0.4404 -0.0063  0.1069
16775TIP3    H150247   7.955   0.723   2.842 -0.3722 -0.2960  0.1525
16775TIP3    H250248   7.946   0.833   2.947  1.5921  0.8248 -0.8200
16776TIP3   OH250249   8.690   1.383   4.804 -0.4092  0.9719  0.4624
16776TIP3    H150250   8.690   1.451   4.872 -0.3723  0.3743  1.0616
16776TIP3    H250251   8.679   1.432   4.722 -0.8048  1.6736  0.9207
16777TIP3   OH250252   1.949   7.046   6.048  0.8380  0.0550  0.3730
16777TIP3    H150253   1.881   7.098   6.091 -0.9208 -0.9828 -1.0655
16777TIP3    H250254   1.981   6.988   6.117 -0.0985  0.1858  0.9367
16778TIP3   OH250255   2.284   4.097   0.602  0.0979  0.1253 -0.5945
16778TIP3    H150256   2.335   4.142   0.534  1.3613  1.7430  1.3379
16778TIP3    H250257   2.213   4.157   0.623  0.9685  0.6560  0.9951
16779TIP3   OH250258   8.568   5.238   1.063  0.3057  0.0056 -1.2391
16779TIP3    H150259   8.602   5.179   0.995  1.8928 -0.2483 -0.2374
16779TIP3    H250260   8.552   5.320   1.016  1.0787 -0.2618 -1.9924
16780TIP3   OH250261   6.688   1.465   6.477  0.3839  0.1130 -0.4661
16780TIP3    H150262   6.712   1.488   6.567 -1.5828 -2.3009  0.7324
16780TIP3    H250263   6.658   1.547   6.438 -0.8162  0.7919  1.7814
16781TIP3   OH250264   0.564   6.736   0.218  0.0342  0.4689 -0.2328
16781TIP3    H150265   0.606   6.796   0.156  1.6223  0.1898  0.5246
16781TIP3    H250266   0.621   6.739   0.295 -0.2321 -1.5060  0.0597
16782TIP3   OH250267   8.509   0.762   6.981  0.1970  0.0475 -0.2583
16782TIP3    H150268   8.431   0.817   6.975  1.4323  1.8183 -0.3899
16782TIP3    H250269   8.536   0.749   6.891 -0.1405 -0.8873 -0.2343
16783TIP3   OH250270   6.728   0.221   6.550  0.0502 -0.5698  0.0091
16783TIP3    H150271   6.702   0.311   6.570  0.3996 -0.4723  0.0406
16783TIP3    H250272   6.824   0.225   6.546 -0.0192 -0.4537 -2.2945
16784TIP3   OH250273   7.841   1.000   3.063 -0.3182  0.1500  0.2537
16784TIP3    H150274   7.749   1.018   3.045 -0.2587  1.1202  0.8711
16784TIP3    H250275   7.880   1.087   3.075  1.0735 -0.1281 -1.9036
16785TIP3   OH250276   2.470   4.875   0.453 -0.3114  0.7364 -0.4544
16785TIP3    H150277   2.489   4.870   0.547 -1.9399 -0.2398 -0.1611
16785TIP3    H250278   2.453   4.785   0.427 -0.6325  1.1008 -1.5293
16786TIP3   OH250279   8.584   0.552   4.590 -0.3598  0.2971  0.2626
16786TIP3    H150280   8.540   0.468   4.581  0.9548 -0.2727 -0.9659
16786TIP3    H250281   8.567   0.597   4.508  2.6456 -0.5808 -0.9203
16787TIP3   OH250282   0.856   4.031   0.452 -0.4783 -0.0707 -0.1781
16787TIP3    H150283   0.780   3.973   0.447  1.5975 -3.0438  0.7535
16787TIP3    H250284   0.873   4.056   0.361 -3.0208  1.3338 -0.3082
16788TIP3   OH250285   2.799   3.466   2.780 -0.2444 -0.3118  0.0130
16788TIP3    H150286   2.872   3.408   2.800 -0.0450 -0.4462 -1.1008
16788TIP3    H250287   2.838   3.539   2.733 -0.6539  0.2139  0.4830
16789TIP3   OH250288   8.507   1.649   4.548  0.4498 -0.0365 -0.3408
16789TIP3    H150289   8.440   1.658   4.616 -1.2138  0.0450 -1.9527
16789TIP3    H250290   8.460   1.664   4.466  2.3350 -0.5488 -1.5422
16790TIP3   OH250291   8.398   4.247   1.205 -0.2025  0.3488  0.4096
16790TIP3    H150292   8.354   4.200   1.275 -0.2408  0.5494  0.5185
16790TIP3    H250293   8.379   4.196   1.126 -0.0008  0.0178  0.5728
16791TIP3   OH250294   0.897   4.710   3.086  0.0652 -0.3815 -0.1515
16791TIP3    H150295   0.986   4.717   3.052  0.4203 -0.0847  0.7903
16791TIP3    H250296   0.899   4.633   3.143 -0.5393 -0.9289 -0.8648
16792TIP3   OH250297   6.462   1.718   6.357  0.4588 -0.7181 -0.4212
16792TIP3    H150298   6.385   1.698   6.412  1.2752 -0.9653  0.6521
16792TIP3    H250299   6.439   1.799   6.312 -0.9928 -1.5348 -1.1749
16793TIP3   OH250300   7.657   1.104   4.067  0.0655  0.3089  0.2496
16793TIP3    H150301   7.641   1.196   4.088 -2.4832  0.4234 -1.9697
16793TIP3    H250302   7.623   1.056   4.143  0.9814  1.1553  1.2120
16794TIP3   OH250303   3.164   4.033   0.655  0.2614 -0.1316  0.3149
16794TIP3    H150304   3.245   4.020   0.606 -0.1588 -1.4193 -0.0607
16794TIP3    H250305   3.099   3.980   0.608 -1.1951  2.2027 -0.3736
16795TIP3   OH250306   0.500   5.967   1.478  0.0087 -0.0046 -0.2054
16795TIP3    H150307   0.554   6.038   1.513  0.3153 -0.3667  0.0529
16795TIP3    H250308   0.462   5.925   1.555  0.4179 -0.5872 -0.3117
16796TIP3   OH250309   7.030   0.372   6.320 -0.6788 -0.1390  0.6377
16796TIP3    H150310   7.118   0.353   6.355  0.3120  2.8236 -0.0979
16796TIP3    H250311   7.011   0.298   6.263  1.4168 -0.7914  0.7269
16797TIP3   OH250312   0.459   6.043   2.513 -0.2564  0.1647 -0.2095
16797TIP3    H150313   0.437   6.090   2.593 -0.8328 -0.2379 -0.1238
16797TIP3    H250314   0.520   6.101   2.467 -0.0487  0.4649  0.4422
16798TIP3   OH250315   3.317   6.417   6.966 -0.1062 -0.1267 -1.1635
16798TIP3    H150316   3.225   6.389   6.958 -0.2723 -0.2064  0.7345
16798TIP3    H250317   3.323   6.454   7.054  1.7005 -0.1732 -1.2494
16799TIP3   OH250318   6.940   1.696   6.974 -0.4528 -0.1758 -0.0217
16799TIP3    H150319   7.015   1.693   7.033  0.2522 -0.7591 -0.9360
16799TIP3    H250320   6.897   1.611   6.984 -0.7313 -0.0143  0.1645
16800TIP3   OH250321   8.544   1.103   5.422  0.0889  0.7799 -0.9890
16800TIP3    H150322   8.589   1.088   5.505 -0.6399  1.6244 -0.4324
16800TIP3    H250323   8.580   1.038   5.362 -0.9361 -1.2511  0.5708
16801TIP3   OH250324   0.969   3.635   0.833 -0.1204 -0.0912  1.0768
16801TIP3    H150325   0.922   3.678   0.904 -0.0884 -1.0778  1.7025
16801TIP3    H250326   0.908   3.568   0.801  0.2297 -0.2779  0.7940
16802TIP3   OH250327   0.856   5.278   0.131  0.0594  0.5302  0.2679
16802TIP3    H150328   0.803   5.325   0.066  1.4423  1.5109 -0.1875
16802TIP3    H250329   0.939   5.325   0.132  0.8455 -0.8430  1.1388
16803TIP3   OH250330   8.306   0.673   6.125 -0.1290  0.6945  0.1972
16803TIP3    H150331   8.382   0.687   6.069 -0.6710 -1.0439 -1.0216
16803TIP3    H250332   8.262   0.758   6.128 -0.3977  0.7021 -2.4978
16804TIP3   OH250333   8.299   0.906   6.859  0.6275 -0.0768  0.9350
16804TIP3    H150334   8.299   0.871   6.770 -1.0344 -0.0709  0.9251
16804TIP3    H250335   8.249   0.842   6.910 -0.6825  1.2435  1.3347
16805TIP3   OH250336   3.442   3.487   0.040 -0.1559  0.0963  0.6709
16805TIP3    H150337   3.489   3.430  -0.021 -0.4639 -1.7718  2.1332
16805TIP3    H250338   3.509   3.516   0.102 -0.4385 -0.5279  1.2714
16806TIP3   OH250339   0.167   4.521   2.383  1.3062 -0.0514 -0.0096
16806TIP3    H150340   0.134   4.438   2.349  0.7457  0.5311 -0.9072
16806TIP3    H250341   0.227   4.553   2.316  0.6367  0.8208 -0.2064
16807TIP3   OH250342   2.132   4.076   1.068  0.1299  0.2646 -0.2875
16807TIP3    H150343   2.161   4.144   1.008 -0.7335 -0.0595 -1.0782
16807TIP3    H250344   2.037   4.072   1.055  0.0394 -0.3309  0.5481
16808TIP3   OH250345   6.553   0.061   6.418 -0.1121 -0.2237 -0.1544
16808TIP3    H150346   6.633   0.099   6.455 -0.1688 -0.7753  0.5481
16808TIP3    H250347   6.501   0.136   6.391  0.1806  0.1659  0.3641
16809TIP3   OH250348   3.369   2.834   0.272  0.0274  0.0333 -0.1902
16809TIP3    H150349   3.349   2.874   0.188  0.0502 -2.7066 -1.5437
16809TIP3    H250350   3.460   2.858   0.289  0.3982 -0.4050 -1.5251
16810TIP3   OH250351   6.720   1.273   6.829  0.2109  0.2591  0.1480
16810TIP3    H150352   6.796   1.286   6.772  0.3696 -0.6378  0.1548
16810TIP3    H250353   6.676   1.358   6.829  1.5483  0.9766  0.6291
16811TIP3   OH250354   0.606   4.868   1.027  0.4063 -0.0462  0.0703
16811TIP3    H150355   0.639   4.931   0.962  1.8385  2.3384  2.9999
16811TIP3    H250356   0.515   4.894   1.041  0.6519  0.6189  0.4190
16812TIP3   OH250357   8.463   0.450   6.194 -0.2599 -0.0403 -0.1620
16812TIP3    H150358   8.396   0.518   6.203  0.1706  0.2040  1.1912
16812TIP3    H250359   8.430   0.376   6.244  0.8283  0.3467  1.1543
16813TIP3   OH250360   5.211   7.865   7.108 -0.5516  0.2336  0.1778
16813TIP3    H150361   5.259   7.853   7.026  1.4942 -0.3558  1.4161
16813TIP3    H250362   5.233   7.953   7.137  1.8964 -0.9023  2.0090
16814TIP3   OH250363   2.930   4.672   0.296 -0.2686  0.0090 -0.3953
16814TIP3    H150364   2.906   4.671   0.389  1.1168  1.9364 -0.0007
16814TIP3    H250365   2.970   4.587   0.280 -0.0304 -0.1206  0.9062
16815TIP3   OH250366   2.963   3.486   0.050  0.2878 -0.0475  0.6909
16815TIP3    H150367   2.870   3.506   0.066  0.8049  3.1250  0.1498
16815TIP3    H250368   2.974   3.396   0.079 -2.5866  0.0981  2.3991
16816TIP3   OH250369   2.703   4.006   0.586 -0.1415  0.4066 -0.0538
16816TIP3    H150370   2.712   3.947   0.661  1.0898 -0.7867 -1.1052
16816TIP3    H250371   2.648   3.957   0.524  1.4882  0.0413 -1.2347
16817TIP3   OH250372   6.349   0.906   6.747  0.2222  0.9192  0.2668
16817TIP3    H150373   6.330   0.816   6.721 -0.4760  1.7383 -2.2643
16817TIP3    H250374   6.400   0.942   6.673  1.9335  2.1137  1.9693
16818TIP3   OH250375   0.512   6.432   0.721  0.4302 -0.9782 -0.1500
16818TIP3    H150376   0.568   6.478   0.783 -0.1520 -1.9271  1.0994
16818TIP3    H250377   0.571   6.401   0.653  1.4601 -2.2122  1.2993
16819TIP3   OH250378   0.591   1.795   7.026  0.3380 -0.0067 -0.3213
16819TIP3    H150379   0.660   1.860   7.011  0.0852  1.2592  3.3628
16819TIP3    H250380   0.635   1.723   7.071 -0.8122  1.2580  3.0049
16820TIP3   OH250381   1.799   1.146   4.475  0.6169  0.2303  0.0651
16820TIP3    H150382   1.732   1.186   4.531 -0.1503 -0.5020 -0.3203
16820TIP3    H250383   1.833   1.219   4.424  0.5066  0.7068  0.6694
16821TIP3   OH250384   3.963   5.268   0.828  0.2269 -0.2696  0.2286
16821TIP3    H150385   3.880   5.315   0.826  0.5684  0.3181 -0.2845
16821TIP3    H250386   3.968   5.232   0.916 -1.3332 -1.6848 -0.2426
16822TIP3   OH250387   2.623   3.034   2.858 -0.1644 -0.2338 -0.5358
16822TIP3    H150388   2.672   2.952   2.866  0.5826  0.3849  1.5845
16822TIP3    H250389   2.533   3.006   2.840  0.1111 -1.5172  0.0104
16823TIP3   OH250390   8.114   1.626   6.647 -0.3070 -0.3583  0.0313
16823TIP3    H150391   8.206   1.606   6.632  0.3434  2.5632 -0.0957
16823TIP3    H250392   8.067   1.583   6.576  1.3427  1.1934 -2.0433
16824TIP3   OH250393   0.301   4.250   0.289  0.1176  0.2672  0.7074
16824TIP3    H150394   0.386   4.244   0.243  0.9904 -2.3395  2.5908
16824TIP3    H250395   0.317   4.313   0.359  0.2902  0.2692  0.6673
16825TIP3   OH250396   3.126   3.751   1.389  0.2224 -0.0383 -0.0812
16825TIP3    H150397   3.089   3.817   1.448 -1.0947 -1.0617  0.2484
16825TIP3    H250398   3.128   3.794   1.303 -0.5995  0.4537  0.1417
16826TIP3   OH250399   8.326   0.343   6.537  0.4954 -0.2755 -0.3193
16826TIP3    H150400   8.238   0.323   6.569 -0.4062  0.5379 -2.1982
16826TIP3    H250401   8.351   0.266   6.485  1.3340 -0.9514  1.0712
16827TIP3   OH250402   0.913   2.476   0.199  0.0745  0.4740  0.2867
16827TIP3    H150403   0.828   2.495   0.158  0.2767 -1.5417 -1.1285
16827TIP3    H250404   0.890   2.446   0.287 -0.6423  0.5606  0.1338
16828TIP3   OH250405   8.718   0.211   6.002  0.7035 -0.0699  0.5875
16828TIP3    H150406   8.720   0.244   6.092  1.0410 -0.2029  0.6295
16828TIP3    H250407   8.690   0.287   5.950 -1.0464 -0.4282  0.9832
16829TIP3   OH250408   0.861   4.637   0.590  0.5281 -0.4550 -0.0155
16829TIP3    H150409   0.814   4.575   0.646 -0.0034 -0.1449 -0.1138
16829TIP3    H250410   0.893   4.705   0.651  1.1100 -0.8225  0.0920
16830TIP3   OH250411   0.136   5.158   0.770  0.0758 -0.3423  0.2594
16830TIP3    H150412   0.231   5.158   0.764  0.1219 -0.6717  1.0129
16830TIP3    H250413   0.116   5.106   0.848 -0.6723  0.8541  0.8910
16831TIP3   OH250414   2.693   4.751   0.179  0.0991 -0.4638  0.3506
16831TIP3    H150415   2.725   4.789   0.097 -1.2007 -0.0103  0.0327
16831TIP3    H250416   2.772   4.731   0.229  0.8572  1.7240  0.0911
16832TIP3   OH250417   3.067   6.634   6.094  0.2054  0.8335 -0.3777
16832TIP3    H150418   3.106   6.564   6.041  0.3895  0.6072  0.0503
16832TIP3    H250419   3.008   6.679   6.034  0.4447  0.6092 -0.7875
16833TIP3   OH250420   2.374   4.386   1.165  0.3993 -0.3116 -0.0681
16833TIP3    H150421   2.467   4.387   1.141  0.0870 -0.8329 -1.3276
16833TIP3    H250422   2.366   4.316   1.229  1.1237  0.6538  1.1001
16834TIP3   OH250423   1.532   4.657   0.434  0.1402  0.0547  0.0690
16834TIP3    H150424   1.599   4.619   0.491  0.4045 -1.4397 -1.2306
16834TIP3    H250425   1.479   4.710   0.493  1.0144 -0.6622  1.5371
16835TIP3   OH250426   1.049   5.084   0.586 -0.6448  0.6582  0.2103
16835TIP3    H150427   1.030   5.020   0.655  1.5602  1.5758  1.7239
16835TIP3    H250428   1.080   5.162   0.634 -1.8366  2.3371 -1.6703
16836TIP3   OH250429   1.227   3.694   0.886  0.0954  0.5918  0.4704
16836TIP3    H150430   1.284   3.626   0.921  0.3144  1.2941  1.4881
16836TIP3    H250431   1.143   3.651   0.873  0.2690  0.0937  0.9889
16837TIP3   OH250432   3.836   8.146   6.029  0.3189 -0.0326  0.5135
16837TIP3    H150433   3.741   8.133   6.020  0.3257  0.6276 -0.6366
16837TIP3    H250434   3.844   8.216   6.093 -0.1172  2.3396 -1.9247
16838TIP3   OH250435   1.144   2.752   0.196 -0.0368  0.5820 -0.3497
16838TIP3    H150436   1.094   2.711   0.125  0.1885  0.7415 -0.6054
16838TIP3    H250437   1.084   2.754   0.270 -0.1549  0.0819 -0.4301
16839TIP3   OH250438   1.948   6.675   0.926  0.6152 -0.7367 -0.0369
16839TIP3    H150439   1.995   6.640   1.001 -0.7635 -0.6107  0.8886
16839TIP3    H250440   2.018   6.702   0.865  1.7226 -1.3584  0.9379
16840TIP3   OH250441   8.771   0.603   5.492  0.2581  0.3439  0.6953
16840TIP3    H150442   8.751   0.567   5.405 -0.2054 -0.1186  0.9893
16840TIP3    H250443   8.867   0.605   5.495  0.3480 -2.4749  1.3075
16841TIP3   OH250444   1.815   3.846   0.552  0.0731  0.2664  0.1484
16841TIP3    H150445   1.828   3.845   0.457  1.6478 -1.7033  0.3564
16841TIP3    H250446   1.875   3.913   0.584  0.0685  0.4218 -0.1636
16842TIP3   OH250447   3.256   8.343   7.236 -0.1277 -0.9557  0.3067
16842TIP3    H150448   3.222   8.262   7.197 -0.1591 -0.5921 -0.4399
16842TIP3    H250449   3.351   8.331   7.234 -0.0705 -0.4294 -1.0480
16843TIP3   OH250450   6.370   8.167   3.779 -0.1085 -0.0314 -0.6798
16843TIP3    H150451   6.369   8.253   3.820  0.8435  0.7640 -2.2480
16843TIP3    H250452   6.281   8.154   3.748 -0.2272  0.4470 -0.5459
16844TIP3   OH250453   3.395   4.990   0.554  0.5237  0.3954 -0.1849
16844TIP3    H150454   3.328   4.956   0.613 -0.8602 -0.1711 -2.0377
16844TIP3    H250455   3.373   5.082   0.544  0.4804  0.3867 -0.1730
16845TIP3   OH250456   8.135   1.215   7.294  0.1529  0.2026  0.3894
16845TIP3    H150457   8.072   1.161   7.247 -1.8566  1.3344  1.7125
16845TIP3    H250458   8.172   1.273   7.227 -2.2178  1.3740  0.0584
16846TIP3   OH250459   0.456   3.662   0.893 -0.4487 -0.2098  0.3032
16846TIP3    H150460   0.489   3.636   0.979 -0.1578  0.4258  0.3865
16846TIP3    H250461   0.370   3.699   0.911  0.8992  2.9391  0.7728
16847TIP3   OH250462   8.074   0.337   5.968  0.3904 -0.1514 -0.7217
16847TIP3    H150463   8.082   0.351   5.873  1.1953 -0.8955 -0.7740
16847TIP3    H250464   8.034   0.417   6.001 -0.0518  0.0474 -1.7162
16848TIP3   OH250465   2.148   4.946   0.064 -0.2966 -0.0322  0.1577
16848TIP3    H150466   2.086   5.018   0.064 -0.4606 -0.1646 -1.3288
16848TIP3    H250467   2.095   4.868   0.085 -0.8839 -0.3326 -2.3104
16849TIP3   OH250468   2.227   2.035   2.135  0.7465  0.0756  0.2332
16849TIP3    H150469   2.249   2.012   2.045  1.7788 -1.6710  0.8982
16849TIP3    H250470   2.132   2.029   2.140  0.8342 -1.8571 -0.2300
16850TIP3   OH250471   0.367   1.171   4.163  0.2111 -0.0893 -0.3122
16850TIP3    H150472   0.318   1.138   4.087 -0.2675 -0.6765  0.2384
16850TIP3    H250473   0.457   1.146   4.147  0.0827 -0.3588 -0.6133
16851TIP3   OH250474   0.698   3.722   1.710 -0.9032  0.2398 -0.1387
16851TIP3    H150475   0.701   3.810   1.747  1.3180 -0.6208  1.8327
16851TIP3    H250476   0.751   3.728   1.630  0.9943  0.2250  1.0954
16852TIP3   OH250477   8.595   4.077   2.180  0.1147 -0.4773 -0.4183
16852TIP3    H150478   8.627   4.075   2.269  0.7485 -0.5089 -0.6472
16852TIP3    H250479   8.644   4.009   2.134 -2.3380 -2.5446 -0.0908
16853TIP3   OH250480   0.873   1.649   1.774 -0.4910  0.1414 -0.1841
16853TIP3    H150481   0.828   1.564   1.775 -2.4228  1.1401  0.3143
16853TIP3    H250482   0.910   1.656   1.686 -0.7422 -0.9907 -0.3930
16854TIP3   OH250483   4.739   8.328   5.923 -0.0073 -0.2681 -0.3205
16854TIP3    H150484   4.753   8.385   5.999 -2.0551  0.3763 -0.3803
16854TIP3    H250485   4.658   8.282   5.943  1.0120 -2.3193 -0.8194
16855TIP3   OH250486   0.194   1.054   7.115  0.2408  0.4806  0.0745
16855TIP3    H150487   0.191   0.985   7.182 -1.0688 -0.1985 -0.6572
16855TIP3    H250488   0.159   1.131   7.159 -0.7841 -0.0099  0.1382
16856TIP3   OH250489   4.372   5.293   0.295  0.2734  0.0642  0.4424
16856TIP3    H150490   4.377   5.205   0.257 -0.6577  0.2802 -0.1961
16856TIP3    H250491   4.337   5.348   0.225  1.8137  1.1558  0.5063
16857TIP3   OH250492   8.235   0.335   4.990  0.2182 -0.0809  0.2624
16857TIP3    H150493   8.186   0.416   4.998 -2.3538 -1.4562 -1.0064
16857TIP3    H250494   8.268   0.318   5.078  0.1315  1.8993  0.6986
16858TIP3   OH250495   4.623   7.666   5.507  0.7317 -0.1239 -0.4933
16858TIP3    H150496   4.658   7.611   5.437 -1.6560 -0.7205 -1.2665
16858TIP3    H250497   4.698   7.716   5.538  2.6652 -2.8099 -0.7104
16859TIP3   OH250498   5.965   7.864   5.776  0.0020 -0.1803  0.1721
16859TIP3    H150499   5.892   7.813   5.812  0.0119 -0.2409  0.1067
16859TIP3    H250500   6.004   7.907   5.852 -0.4587  0.3201  0.1275
16860TIP3   OH250501   6.853   1.439   6.255  0.0837  0.4941 -0.1738
16860TIP3    H150502   6.838   1.532   6.237 -0.8419  0.0999 -1.4800
16860TIP3    H250503   6.788   1.416   6.321  0.4186  0.8070  0.2687
16861TIP3   OH250504   2.258   5.096   0.976  0.2553 -0.0525  0.3591
16861TIP3    H150505   2.228   5.010   1.007 -0.7689 -0.0097 -0.4648
16861TIP3    H250506   2.320   5.125   1.042 -1.4469 -0.2046  2.0685
16862TIP3   OH250507   5.442   1.552   5.592 -0.1000 -0.4510 -0.2015
16862TIP3    H150508   5.382   1.508   5.531  1.5823 -3.0458 -0.0580
16862TIP3    H250509   5.398   1.547   5.677 -1.0881  0.4496 -0.6607
16863TIP3   OH250510   3.878   7.267   6.133  0.0276 -0.0584  0.0347
16863TIP3    H150511   3.971   7.263   6.156  0.2863  1.3791 -0.7084
16863TIP3    H250512   3.846   7.347   6.174 -0.7906 -0.3514 -0.0220
16864TIP3   OH250513   4.987   7.165   6.960 -0.0839  0.0797 -0.4153
16864TIP3    H150514   5.059   7.116   7.000  0.5687  1.8357  0.5847
16864TIP3    H250515   4.917   7.100   6.951  0.8130 -1.0862  0.7482
16865TIP3   OH250516   8.553   1.633   1.156 -0.0124 -0.2508  0.1549
16865TIP3    H150517   8.545   1.568   1.226 -0.3250 -0.3292  0.0486
16865TIP3    H250518   8.569   1.581   1.077 -1.9876 -0.3284 -0.2299
16866TIP3   OH250519   5.796   1.633   6.701  0.1974  0.0290 -0.8382
16866TIP3    H150520   5.774   1.601   6.613 -0.5763 -2.2060  0.1200
16866TIP3    H250521   5.882   1.672   6.691  0.0789 -0.0988 -2.6179
16867TIP3   OH250522   4.990   7.736   6.997 -0.5839 -0.2394 -0.1195
16867TIP3    H150523   5.066   7.781   7.033 -0.9307 -0.2366  0.6318
16867TIP3    H250524   4.924   7.741   7.067 -1.0774 -0.7329 -0.5414
16868TIP3   OH250525   3.547   7.288   6.402 -0.1357 -0.4664 -0.7263
16868TIP3    H150526   3.461   7.329   6.390  0.1812 -0.0162 -1.5405
16868TIP3    H250527   3.541   7.206   6.353 -0.7109 -1.3234  0.7564
16869TIP3   OH250528   1.980   5.082   1.938  0.0316  0.1338  0.3244
16869TIP3    H150529   1.940   5.003   1.976  1.0668  0.0139  1.1912
16869TIP3    H250530   1.909   5.146   1.934 -0.8614 -0.8865 -0.5302
16870TIP3   OH250531   3.619   1.390   7.204  0.3457  0.5345  0.5271
16870TIP3    H150532   3.691   1.451   7.221 -0.9110  2.3363 -0.4677
16870TIP3    H250533   3.593   1.409   7.114 -1.2489 -0.2461  0.8193
16871TIP3   OH250534   3.359   4.109   1.262 -0.4376  0.1003  0.1754
16871TIP3    H150535   3.444   4.066   1.258 -0.0995  0.6260  1.3630
16871TIP3    H250536   3.302   4.047   1.306 -0.6536 -0.2160 -0.5422
16872TIP3   OH250537   2.330   2.925   0.068 -0.2403  0.0669 -0.2027
16872TIP3    H150538   2.266   2.987   0.104 -1.0732 -0.3313 -0.9966
16872TIP3    H250539   2.346   2.864   0.140 -1.1329 -0.1259 -0.1593
16873TIP3   OH250540   2.214   7.684   5.965  0.2131  0.3975  0.4953
16873TIP3    H150541   2.206   7.661   5.873  0.6828  3.1389 -0.2642
16873TIP3    H250542   2.290   7.634   5.996 -0.0434 -0.6533 -0.5469
16874TIP3   OH250543   4.970   6.587   5.371 -0.7360  0.0463  0.6476
16874TIP3    H150544   5.064   6.599   5.384 -0.9249  1.0191  1.2417
16874TIP3    H250545   4.931   6.627   5.449 -1.6251 -0.6863  0.5816
16875TIP3   OH250546   1.924   3.207   1.566  0.2978  1.1682 -0.3803
16875TIP3    H150547   1.849   3.254   1.527 -1.1412  0.1758  1.1241
16875TIP3    H250548   1.910   3.116   1.542  2.5070  1.2960 -2.3598
16876TIP3   OH250549   3.603   6.700   6.444  0.5770 -0.2113  0.2640
16876TIP3    H150550   3.590   6.751   6.524  0.1488 -2.0005  1.3499
16876TIP3    H250551   3.639   6.617   6.474  1.4456 -0.4979 -1.5094
16877TIP3   OH250552   0.986   4.607   0.356  0.5288  0.5764 -0.0864
16877TIP3    H150553   0.956   4.609   0.447  1.1283  0.1691  0.1245
16877TIP3    H250554   0.907   4.595   0.304 -0.0811  2.9768  0.2383
16878TIP3   OH250555   5.136   6.696   6.561  0.3101 -0.3614  0.6697
16878TIP3    H150556   5.116   6.779   6.517 -0.1079 -1.0250 -0.4094
16878TIP3    H250557   5.108   6.710   6.651 -0.9973  0.2289  0.1929
16879TIP3   OH250558   1.027   5.724   0.272  0.1301  0.1098  0.5129
16879TIP3    H150559   0.961   5.727   0.202 -1.2087  0.0065  1.7483
16879TIP3    H250560   1.066   5.811   0.272  2.0099 -0.6952 -2.1157
16880TIP3   OH250561   5.166   8.118   5.723 -0.2055 -0.5010 -0.3449
16880TIP3    H150562   5.201   8.029   5.725 -0.4004 -0.5626  0.5769
16880TIP3    H250563   5.214   8.164   5.792  0.1555  0.2135 -1.0598
16881TIP3   OH250564   7.649   1.091   7.099  0.3020 -0.0749  0.1194
16881TIP3    H150565   7.621   1.006   7.132  0.5690 -0.8376 -1.5540
16881TIP3    H250566   7.584   1.114   7.033  0.9616  0.3799 -0.3859
16882TIP3   OH250567   4.529   8.185   6.175  0.0796  0.5511  0.7833
16882TIP3    H150568   4.622   8.171   6.192 -0.0072 -0.4096  0.5439
16882TIP3    H250569   4.485   8.128   6.238 -0.3269  0.5040  0.4564
16883TIP3   OH250570   7.247   0.484   5.954  0.4422  0.3278  0.1912
16883TIP3    H150571   7.312   0.554   5.959 -0.7712  1.4195  1.0344
16883TIP3    H250572   7.170   0.520   5.998 -1.2402 -0.3852 -2.1214
16884TIP3   OH250573   1.509   4.302   1.911  0.4394  0.5171 -0.2535
16884TIP3    H150574   1.516   4.383   1.861  0.6741 -0.6872 -2.2617
16884TIP3    H250575   1.545   4.323   1.997 -3.3191  3.6658  0.6976
16885TIP3   OH250576   1.475   2.435   0.758  0.0141  0.1015  0.3451
16885TIP3    H150577   1.494   2.435   0.852  1.2762  2.0375  0.1113
16885TIP3    H250578   1.484   2.526   0.732  3.6370 -0.9633 -2.4504
16886TIP3   OH250579   6.096   0.772   6.470  0.0902  0.0618 -0.2016
16886TIP3    H150580   6.173   0.721   6.498 -0.8717 -1.0294  0.5103
16886TIP3    H250581   6.119   0.803   6.382  1.0541 -0.8711 -0.2988
16887TIP3   OH250582   8.369   1.340   4.733  0.0997  0.3373 -0.2440
16887TIP3    H150583   8.293   1.369   4.682  0.1881 -3.1737 -2.5599
16887TIP3    H250584   8.440   1.335   4.669  0.8810 -1.6850  0.7403
16888TIP3   OH250585   1.802   5.008   1.454  0.2818 -0.3585 -0.4447
16888TIP3    H150586   1.730   4.950   1.480  0.2161 -0.3647 -0.6387
16888TIP3    H250587   1.784   5.090   1.499  0.3264 -0.4597 -0.2400
16889TIP3   OH250588   0.940   1.621   6.342 -0.1020 -0.6108  0.6949
16889TIP3    H150589   0.956   1.539   6.388 -0.2419 -0.3049  1.2997
16889TIP3    H250590   0.845   1.626   6.335 -0.0303 -1.4230 -1.0472
16890TIP3   OH250591   2.219   3.006   0.866 -0.8439  0.3384 -0.4740
16890TIP3    H150592   2.311   3.001   0.842 -0.4460 -0.2895  1.1377
16890TIP3    H250593   2.172   2.988   0.785  0.4543 -0.4170 -1.0686
16891TIP3   OH250594   2.897   3.228   0.083 -0.3176  0.1810 -0.2511
16891TIP3    H150595   2.971   3.174   0.056  1.7655  1.4470  2.6908
16891TIP3    H250596   2.833   3.217   0.012  1.8740 -2.4376 -1.9552
16892TIP3   OH250597   4.642   1.866   0.337  0.9563 -0.2184 -0.0390
16892TIP3    H150598   4.597   1.921   0.401  0.9804  0.9668 -1.0274
16892TIP3    H250599   4.674   1.792   0.388 -0.1019  0.0841  1.0963
16893TIP3   OH250600   4.175   4.866   1.496  0.1475 -0.3348 -0.1008
16893TIP3    H150601   4.205   4.874   1.587  1.0137 -0.5837 -0.3637
16893TIP3    H250602   4.182   4.772   1.476  1.2150 -0.0967 -0.8554
16894TIP3   OH250603   0.856   1.508   5.610  0.6475 -0.1385 -0.0599
16894TIP3    H150604   0.914   1.534   5.539  0.2701  0.4389 -0.1616
16894TIP3    H250605   0.888   1.555   5.686  0.0205  0.5643 -0.2230
16895TIP3   OH250606   6.582   7.453   4.105  0.2890  0.0891 -0.6453
16895TIP3    H150607   6.610   7.497   4.186  0.9328 -1.7260  0.1354
16895TIP3    H250608   6.524   7.383   4.135 -1.3766  0.8858 -1.9417
16896TIP3   OH250609   3.399   4.782   0.116  0.0586 -0.1483  0.5195
16896TIP3    H150610   3.376   4.816   0.203 -0.3281 -0.0146  0.3623
16896TIP3    H250611   3.386   4.687   0.124 -2.9121  0.1475 -0.2909
16897TIP3   OH250612   8.731   0.923   5.325  0.5726 -0.2088 -0.3224
16897TIP3    H150613   8.769   0.836   5.318  0.8640 -0.3224  2.2522
16897TIP3    H250614   8.804   0.984   5.311  1.0433 -0.4109  1.1882
16898TIP3   OH250615   2.711   4.301   0.239  0.5290 -0.0122 -0.0878
16898TIP3    H150616   2.778   4.256   0.188  0.6287  0.0967 -0.0544
16898TIP3    H250617   2.746   4.302   0.328  1.3434  1.6760 -0.4009
16899TIP3   OH250618   7.921   0.506   6.846 -0.0669  0.3836 -0.2369
16899TIP3    H150619   8.014   0.526   6.836 -0.1887  0.5969 -0.9919
16899TIP3    H250620   7.903   0.521   6.939  0.9867 -1.1108  0.2249
16900TIP3   OH250621   3.250   8.262   5.846  0.1136  0.2914  0.1544
16900TIP3    H150622   3.334   8.282   5.886  0.0441  1.9385 -0.4987
16900TIP3    H250623   3.270   8.200   5.776  0.9992  1.8192 -0.9677
16901TIP3   OH250624   3.400   4.003   0.543 -0.1232  0.8448  0.0934
16901TIP3    H150625   3.364   4.007   0.454 -2.1187 -0.2030  0.8279
16901TIP3    H250626   3.495   3.997   0.530 -0.4919 -1.3551 -2.0212
16902TIP3   OH250627   4.173   4.900   1.772 -0.7929  0.3238  0.4570
16902TIP3    H150628   4.127   4.862   1.847 -0.0572  1.3998  1.4776
16902TIP3    H250629   4.157   4.994   1.779 -0.4722  0.4641 -0.5772
16903TIP3   OH250630   0.992   0.846   5.904  0.1228 -0.3409  0.3475
16903TIP3    H150631   0.943   0.928   5.898 -0.3384 -0.5887  0.6537
16903TIP3    H250632   0.999   0.830   5.998  0.9132 -0.2393  0.3094
16904TIP3   OH250633   0.471   0.879   5.304  0.0336 -0.1765  0.2339
16904TIP3    H150634   0.533   0.914   5.368  0.4669  0.9436 -0.7944
16904TIP3    H250635   0.441   0.956   5.255  0.4616 -1.1667 -1.5898
16905TIP3   OH250636   0.165   0.446   5.983 -0.1771 -0.5245 -0.5179
16905TIP3    H150637   0.091   0.487   5.938  0.0850  1.1235  0.4855
16905TIP3    H250638   0.237   0.507   5.970  0.2650 -0.7195  0.8948
16906TIP3   OH250639   7.636   3.605   5.318  0.4807 -0.0980  0.1181
16906TIP3    H150640   7.598   3.623   5.404  0.7067 -1.1968  0.4453
16906TIP3    H250641   7.600   3.674   5.262  0.2061  0.5275  1.0480
16907TIP3   OH250642   8.353   2.283   6.240  0.6063  0.3209  0.5524
16907TIP3    H150643   8.294   2.208   6.239  0.7937  0.1761 -0.5882
16907TIP3    H250644   8.438   2.246   6.261  0.9837 -0.0183 -1.4884
16908TIP3   OH250645   4.022   4.886   0.063  0.2225  0.4866 -0.2233
16908TIP3    H150646   3.974   4.848  -0.010  0.5835  0.7928 -0.6267
16908TIP3    H250647   3.955   4.913   0.126  0.0389 -2.5104  0.9252
16909TIP3   OH250648   3.239   4.271   0.133  0.2613 -0.2190 -0.3134
16909TIP3    H150649   3.160   4.297   0.180 -0.0530 -1.7564  0.0501
16909TIP3    H250650   3.254   4.181   0.160  0.1267 -1.1274 -3.0373
16910TIP3   OH250651   4.656   4.965   0.482  0.0631  0.7034 -0.1671
16910TIP3    H150652   4.725   4.982   0.546 -0.2114  0.7482  0.1196
16910TIP3    H250653   4.658   5.040   0.423  0.9362  0.2146 -0.7665
16911TIP3   OH250654   6.230   8.274   6.237 -0.1286  0.1920 -0.0116
16911TIP3    H150655   6.302   8.307   6.183 -1.8221 -0.1716 -2.5308
16911TIP3    H250656   6.267   8.197   6.280  1.1184  0.2288 -0.9819
16912TIP3   OH250657   1.153   1.943   7.024 -0.5707 -0.0429  0.2692
16912TIP3    H150658   1.114   1.972   6.941 -2.1621 -1.4359  0.5076
16912TIP3    H250659   1.088   1.885   7.062  0.2748  0.3552  2.3873
16913TIP3   OH250660   3.648   6.826   6.210 -0.2245 -0.0867 -0.0659
16913TIP3    H150661   3.730   6.780   6.193 -0.7861 -0.6346 -1.3198
16913TIP3    H250662   3.607   6.777   6.282  1.2197  1.0630  1.5704
16914TIP3   OH250663   4.294   3.904   0.849 -0.2326  0.3511  0.3694
16914TIP3    H150664   4.342   3.956   0.913 -2.2676  1.9420  0.6671
16914TIP3    H250665   4.323   3.937   0.764 -0.4196  0.9585  0.5385
16915TIP3   OH250666   5.307   8.323   5.877 -0.1835 -0.4308  0.2019
16915TIP3    H150667   5.318   8.398   5.819  1.8523 -0.5305  0.4437
16915TIP3    H250668   5.263   8.359   5.954 -0.4095  0.2377 -0.2322
16916TIP3   OH250669   6.015   8.086   5.297 -0.4668 -0.1056 -0.1359
16916TIP3    H150670   5.922   8.069   5.279 -0.0925 -0.8124 -1.4396
16916TIP3    H250671   6.015   8.127   5.383 -2.0591  0.5663 -0.4319
16917TIP3   OH250672   0.117   1.827   6.433  0.0379 -0.2763  0.2074
16917TIP3    H150673   0.138   1.891   6.365 -0.9421 -1.5854 -1.3285
16917TIP3    H250674   0.163   1.748   6.407 -0.0473 -0.6865  1.2693
16918TIP3   OH250675   3.127   5.455   0.750  0.2070  0.0112  0.1602
16918TIP3    H150676   3.178   5.505   0.814 -1.1916 -0.6220  1.8266
16918TIP3    H250677   3.101   5.519   0.684  0.2655  1.0491  1.1197
16919TIP3   OH250678   8.412   1.974   5.487 -0.5706 -0.1526  0.2539
16919TIP3    H150679   8.413   1.879   5.477 -1.7923 -0.0360 -1.2206
16919TIP3    H250680   8.327   1.993   5.525  0.6105  0.1791  2.8189
16920TIP3   OH250681   0.942   1.297   6.101  0.2689 -0.0912  0.6233
16920TIP3    H150682   1.000   1.302   6.177  1.0954 -1.4118  0.1013
16920TIP3    H250683   0.936   1.388   6.070  0.9449  0.2684  1.5094
16921TIP3   OH250684   4.547   8.142   6.961 -1.1033 -0.6011  0.0534
16921TIP3    H150685   4.479   8.140   6.894 -1.8735 -3.5784  0.8679
16921TIP3    H250686   4.625   8.111   6.917 -0.3247  2.3812 -0.7615
16922TIP3   OH250687   1.845   0.524   4.702  0.3971 -0.2933 -0.2902
16922TIP3    H150688   1.856   0.581   4.626  1.0079  0.4207  0.3273
16922TIP3    H250689   1.856   0.582   4.778  0.5390 -1.1312  0.3393
16923TIP3   OH250690   4.197   5.598   5.466  0.7187 -0.4608 -0.1140
16923TIP3    H150691   4.180   5.612   5.559  0.9937 -3.7556  0.4936
16923TIP3    H250692   4.292   5.609   5.457  0.3696  2.7592 -0.6316
16924TIP3   OH250693   5.127   3.461   1.076  0.8169  0.4210  0.0738
16924TIP3    H150694   5.089   3.518   1.144  2.4034  0.3024  1.0765
16924TIP3    H250695   5.196   3.514   1.037  0.1672  0.3404 -1.2119
16925TIP3   OH250696   6.220   8.372   5.868 -0.2646  0.1740 -0.1274
16925TIP3    H150697   6.167   8.450   5.882 -1.2171 -0.0015 -2.4957
16925TIP3    H250698   6.160   8.308   5.830  0.9270 -1.1182  0.0982
16926TIP3   OH250699   0.871   0.714   5.288 -0.3510 -0.0133 -0.6178
16926TIP3    H150700   0.943   0.680   5.234  0.1941  0.2573 -0.0609
16926TIP3    H250701   0.860   0.649   5.357 -0.7860 -0.1602 -0.8234
16927TIP3   OH250702   3.374   2.977   1.089 -0.4251 -0.3878  0.0652
16927TIP3    H150703   3.298   3.010   1.137 -0.1813 -0.0486  0.2150
16927TIP3    H250704   3.358   3.003   0.999 -1.3899 -1.9180 -0.2314
16928TIP3   OH250705   5.842   6.974   5.159  0.0623 -0.1448  0.3868
16928TIP3    H150706   5.832   7.066   5.131  0.4407 -0.3867 -0.5826
16928TIP3    H250707   5.898   6.978   5.236  2.1052  0.2485 -1.0964
16929TIP3   OH250708   5.205   8.125   4.913 -0.3911 -0.1049  0.1091
16929TIP3    H150709   5.265   8.196   4.933  1.4132 -1.3758 -0.7194
16929TIP3    H250710   5.167   8.102   4.998 -2.2065  2.8456  0.1883
16930TIP3   OH250711   0.398   0.719   5.616  0.2010  0.6946 -0.4593
16930TIP3    H150712   0.326   0.665   5.649 -1.5284  2.1571 -1.7644
16930TIP3    H250713   0.476   0.665   5.630 -1.0031 -0.5065  1.8852
16931TIP3   OH250714   7.543   6.036   6.593 -0.5252 -0.5420 -0.2881
16931TIP3    H150715   7.488   6.108   6.625 -0.5205 -0.4439 -0.4985
16931TIP3    H250716   7.485   5.959   6.596  0.2388 -1.0425  2.3653
16932TIP3   OH250717   2.422   1.917   0.367  0.4889 -0.0666 -0.2635
16932TIP3    H150718   2.442   2.002   0.404 -0.6905  0.1054 -0.0106
16932TIP3    H250719   2.327   1.909   0.373  0.6410 -1.7240  0.4485
16933TIP3   OH250720   1.885   3.734   1.013 -0.0398 -0.6492 -0.6452
16933TIP3    H150721   1.796   3.709   0.988 -0.2995 -0.1259 -0.2581
16933TIP3    H250722   1.930   3.651   1.029 -1.2055 -0.8637  1.7258
16934TIP3   OH250723   3.152   0.175   2.271  0.4973 -0.1051  0.9130
16934TIP3    H150724   3.126   0.168   2.363  0.8337 -0.2323  0.9993
16934TIP3    H250725   3.232   0.229   2.273  2.1822 -2.5217  0.9916
16935TIP3   OH250726   0.487   6.216   1.915  0.7699  0.3900  0.3383
16935TIP3    H150727   0.557   6.150   1.913 -0.4799 -1.0028  1.2322
16935TIP3    H250728   0.407   6.165   1.926 -0.2614  2.0591  0.6869
16936TIP3   OH250729   3.067   0.952   3.387  0.6269 -0.4305  0.1928
16936TIP3    H150730   3.151   0.916   3.359  0.4437  0.9900 -2.3823
16936TIP3    H250731   3.006   0.924   3.318 -0.5237  0.4927  0.8198
16937TIP3   OH250732   4.333   1.909   2.337 -0.4690 -0.0743 -0.7183
16937TIP3    H150733   4.364   1.869   2.255 -2.0464 -0.2866 -1.2216
16937TIP3    H250734   4.273   1.844   2.373 -0.4061  0.3829  0.2033
16938TIP3   OH250735   1.492   0.328   1.736 -0.6423  0.4361 -0.2470
16938TIP3    H150736   1.478   0.243   1.695  2.6666 -0.0419 -0.5239
16938TIP3    H250737   1.506   0.388   1.663  0.1336  0.5933  0.0279
16939TIP3   OH250738   3.227   1.700   2.491 -0.0484  0.0012  0.0630
16939TIP3    H150739   3.248   1.636   2.559  2.4372  1.6194  0.8931
16939TIP3    H250740   3.312   1.738   2.467 -1.3100  1.9944 -1.3856
16940TIP3   OH250741   1.654   0.600   3.341  0.1742 -0.3233  0.1852
16940TIP3    H150742   1.595   0.633   3.408 -1.2908 -0.9549 -0.7525
16940TIP3    H250743   1.741   0.633   3.366 -0.7016  1.3415  1.1090
16941TIP3   OH250744   3.745   0.229   1.734 -0.1722  0.3325 -0.1974
16941TIP3    H150745   3.808   0.282   1.685  0.8911  1.0623  1.8582
16941TIP3    H250746   3.698   0.293   1.788 -0.4339 -0.5723  0.6523
16942TIP3   OH250747   1.741   7.430   4.773 -0.2871  0.3460  0.0017
16942TIP3    H150748   1.827   7.470   4.758 -0.7027  0.9290 -0.8336
16942TIP3    H250749   1.728   7.438   4.867  0.7920 -0.1894  0.2102
16943TIP3   OH250750   0.083   7.028   3.773  0.4852 -0.0569 -0.3752
16943TIP3    H150751   0.176   7.007   3.767  0.3100 -0.8797 -0.2690
16943TIP3    H250752   0.054   6.986   3.854 -0.8246 -3.1780 -2.3537
16944TIP3   OH250753   7.566   8.290   1.540  0.2557  0.2801 -0.7220
16944TIP3    H150754   7.533   8.203   1.520 -1.5479  0.5798  0.8554
16944TIP3    H250755   7.654   8.274   1.575  0.1718 -0.8421 -0.9981
16945TIP3   OH250756   1.934   0.332   1.499 -0.7103  0.2018  0.6076
16945TIP3    H150757   2.007   0.391   1.483 -0.9707 -0.0138 -1.4254
16945TIP3    H250758   1.972   0.244   1.495 -1.1121  0.0828 -0.6563
16946TIP3   OH250759   2.110   7.578   2.444  0.2929  0.3064  0.6664
16946TIP3    H150760   2.179   7.558   2.507  0.8282  1.4900  0.4606
16946TIP3    H250761   2.152   7.633   2.379  0.5192 -3.1840 -2.3236
16947TIP3   OH250762   8.505   7.437   3.022  0.3407  0.0272 -0.4746
16947TIP3    H150763   8.536   7.347   3.036  1.0421  0.0688 -1.6548
16947TIP3    H250764   8.527   7.483   3.103  1.3123 -0.5167 -0.4185
16948TIP3   OH250765   1.032   0.696   0.407 -0.4651 -0.1645  0.3062
16948TIP3    H150766   1.120   0.659   0.405  0.2707  1.5649 -0.2430
16948TIP3    H250767   1.027   0.740   0.491 -0.2984  0.9072 -0.2364
16949TIP3   OH250768   3.475   0.604   2.955 -0.6121  0.2051 -0.3604
16949TIP3    H150769   3.437   0.689   2.931  3.4653  2.5007  0.9463
16949TIP3    H250770   3.545   0.591   2.891  0.4965 -0.9477  1.0839
16950TIP3   OH250771   5.910   3.388   0.632  0.2656 -0.3548 -0.5369
16950TIP3    H150772   5.957   3.471   0.623  0.2585 -0.1730  0.9667
16950TIP3    H250773   5.817   3.412   0.627  0.2709 -0.3288 -0.5140
16951TIP3   OH250774   5.322   0.243  -0.023 -0.0167 -0.1877 -0.0719
16951TIP3    H150775   5.397   0.277   0.027 -1.3096  1.4090  0.8389
16951TIP3    H250776   5.301   0.160   0.018  0.7830 -0.2785  0.1616
16952TIP3   OH250777   7.578   8.263   2.688  0.7528 -0.2922  0.3174
16952TIP3    H150778   7.586   8.210   2.609  1.6702 -0.3283  0.4233
16952TIP3    H250779   7.523   8.337   2.663  0.3147 -0.7620 -0.1124
16953TIP3   OH250780   0.210   4.831   5.292  0.2743  0.3459  0.4972
16953TIP3    H150781   0.296   4.812   5.331  0.1774 -2.4863 -0.5790
16953TIP3    H250782   0.230   4.857   5.202 -0.0395 -1.1962 -0.0258
16954TIP3   OH250783   3.948   1.582   2.878  0.2944  0.2491 -0.0783
16954TIP3    H150784   4.021   1.626   2.921 -0.7318  0.3337  1.6568
16954TIP3    H250785   3.873   1.641   2.891 -0.6228 -0.9892  0.4030
16955TIP3   OH250786   2.789   0.173   1.526 -0.3558  0.2107  0.0801
16955TIP3    H150787   2.720   0.219   1.480  0.1847  0.2722 -0.6732
16955TIP3    H250788   2.864   0.175   1.466 -0.2052 -1.2773  0.1985
16956TIP3   OH250789   4.310   1.449   3.324 -0.0994  0.1282  0.2493
16956TIP3    H150790   4.392   1.431   3.279  0.0859  2.4648 -0.3781
16956TIP3    H250791   4.246   1.461   3.254 -0.2919  1.4746  0.6383
16957TIP3   OH250792   7.363   2.555   5.451 -0.3367 -0.4979  0.2655
16957TIP3    H150793   7.399   2.579   5.366 -0.4388 -1.0061  0.0716
16957TIP3    H250794   7.401   2.617   5.513  0.8566 -1.0047  0.0648
16958TIP3   OH250795   0.495   8.133   4.382 -0.2972  0.0248 -0.4493
16958TIP3    H150796   0.565   8.126   4.318 -0.2121  2.4855 -0.6601
16958TIP3    H250797   0.417   8.151   4.330 -0.8729 -1.3683 -0.1035
16959TIP3   OH250798   1.415   8.311   3.860  0.3341  0.5310  0.2013
16959TIP3    H150799   1.458   8.377   3.806 -0.0047  0.3969 -0.2400
16959TIP3    H250800   1.347   8.359   3.907 -0.6866  0.2890 -1.0099
16960TIP3   OH250801   7.026   5.461   6.995  1.2679 -0.0516  0.1227
16960TIP3    H150802   7.067   5.533   7.044  0.7927  0.8329 -0.7635
16960TIP3    H250803   7.010   5.497   6.908 -0.9064 -0.5669  0.2922
16961TIP3   OH250804   8.434   5.066   6.614 -0.0398 -0.7962 -0.4463
16961TIP3    H150805   8.396   5.030   6.695 -1.4526  0.4888 -0.5294
16961TIP3    H250806   8.433   4.993   6.553 -1.1368 -1.1340 -0.0301
16962TIP3   OH250807   3.868   0.519   1.215  0.1201  0.2572 -0.3131
16962TIP3    H150808   3.914   0.598   1.188 -0.5018  0.9932  0.7299
16962TIP3    H250809   3.861   0.466   1.136  0.2638  1.3926 -1.0881
16963TIP3   OH250810   7.133   4.121   6.275 -0.0448 -0.0751  0.1522
16963TIP3    H150811   7.074   4.052   6.244  0.5249 -0.2094 -0.6369
16963TIP3    H250812   7.150   4.175   6.198 -1.3925  1.6258  1.0008
16964TIP3   OH250813   0.886   7.086   1.725 -0.3809  0.0839 -0.1890
16964TIP3    H150814   0.870   7.157   1.663  0.5333  0.9272  0.5315
16964TIP3    H250815   0.904   7.130   1.808 -2.3838 -1.0508  0.8740
16965TIP3   OH250816   8.569   7.821   0.874  0.1275 -0.2295  0.1726
16965TIP3    H150817   8.522   7.841   0.955  2.8126  1.3188  1.4128
16965TIP3    H250818   8.541   7.889   0.813 -0.4608 -0.2677  0.4001
16966TIP3   OH250819   8.186   4.311   6.956 -0.3898  0.1767  0.4133
16966TIP3    H150820   8.234   4.394   6.962  0.3612 -0.1359 -0.9601
16966TIP3    H250821   8.188   4.290   6.862  1.1179 -2.4012  1.0151
16967TIP3   OH250822   2.953   5.295   3.052  0.7617 -0.2459 -0.2906
16967TIP3    H150823   3.037   5.277   3.009  0.3315  0.2927 -1.3782
16967TIP3    H250824   2.954   5.241   3.130  1.5340 -1.3009 -1.0195
16968TIP3   OH250825   7.823   2.092   2.646  0.1228 -0.0403 -0.2765
16968TIP3    H150826   7.874   2.037   2.587  1.2540  0.5730  0.1285
16968TIP3    H250827   7.732   2.070   2.626  0.4899  0.0596 -2.1467
16969TIP3   OH250828   0.313   2.798   2.407 -0.0668 -0.2662 -0.2239
16969TIP3    H150829   0.268   2.863   2.353 -0.1973 -0.2964 -0.1519
16969TIP3    H250830   0.404   2.803   2.379  0.0679  0.4976  0.3371
16970TIP3   OH250831   1.306   2.271   0.538 -0.0001  0.2160  0.0880
16970TIP3    H150832   1.272   2.223   0.462 -1.2635  2.7452 -0.9942
16970TIP3    H250833   1.254   2.239   0.612 -0.1070 -0.8255 -0.4266
16971TIP3   OH250834   0.498   1.828   3.667  0.0642  0.2666 -0.0183
16971TIP3    H150835   0.457   1.817   3.581 -0.8601  0.9414  0.3221
16971TIP3    H250836   0.472   1.916   3.694 -0.2020 -0.1854  1.2391
16972TIP3   OH250837   3.625   0.858   1.427  0.1882  0.1321  0.8427
16972TIP3    H150838   3.572   0.778   1.420  0.6727 -0.2104  1.0515
16972TIP3    H250839   3.710   0.828   1.460  0.3095  0.7636  1.1099
16973TIP3   OH250840   2.185   0.416   1.508 -0.2225  0.7137 -0.0758
16973TIP3    H150841   2.211   0.505   1.483  0.9303  0.0133 -1.4458
16973TIP3    H250842   2.267   0.368   1.514 -0.8765 -0.3843  0.1701
16974TIP3   OH250843   3.071   1.461   3.126  0.2009 -0.5658  0.5057
16974TIP3    H150844   3.079   1.373   3.088 -0.0291 -1.2552  2.0114
16974TIP3    H250845   3.059   1.445   3.220  0.5821  1.0992  0.8425
16975TIP3   OH250846   3.212   0.900   2.353 -0.4192  0.0742 -0.8315
16975TIP3    H150847   3.122   0.929   2.367 -0.9059 -1.5899 -0.4915
16975TIP3    H250848   3.262   0.945   2.421 -1.7379 -2.7259  2.0678
16976TIP3   OH250849   2.944   1.648   2.400 -0.0709  0.2011 -0.2727
16976TIP3    H150850   3.012   1.668   2.464 -0.2724  1.3578 -0.4111
16976TIP3    H250851   2.863   1.673   2.443 -0.3009 -0.0093 -0.5849
16977TIP3   OH250852   0.172   8.263   2.768 -0.4058 -0.6507  1.0031
16977TIP3    H150853   0.228   8.254   2.692 -0.2554  1.0834  0.8893
16977TIP3    H250854   0.222   8.225   2.840  0.0218 -1.0417  0.4985
16978TIP3   OH250855   3.542   1.214   3.758  0.5169 -0.9161 -0.6671
16978TIP3    H150856   3.562   1.126   3.790 -1.7269 -1.4603 -0.6854
16978TIP3    H250857   3.511   1.201   3.669  0.7423 -0.0323 -0.8801
16979TIP3   OH250858   2.583   0.370   2.371  0.6114 -0.2614  0.1947
16979TIP3    H150859   2.491   0.366   2.347  0.3207 -0.2398  1.3225
16979TIP3    H250860   2.623   0.298   2.322  0.0587 -0.0842 -0.5267
16980TIP3   OH250861   0.976   2.556   1.694 -0.0240 -0.1330  0.2710
16980TIP3    H150862   0.978   2.504   1.775 -0.3955  0.1475  0.4637
16980TIP3    H250863   0.884   2.583   1.686  0.2939  1.0587  0.5411
16981TIP3   OH250864   1.094   8.077   2.037 -0.9004 -0.5968 -0.1815
16981TIP3    H150865   1.015   8.083   1.983  0.2648  1.9497 -1.7294
16981TIP3    H250866   1.114   8.168   2.060  0.1406 -1.4397  2.3556
16982TIP3   OH250867   8.449   7.802   3.222 -0.3226  0.2507  0.0187
16982TIP3    H150868   8.378   7.767   3.169 -1.5445 -0.5954  2.1569
16982TIP3    H250869   8.454   7.895   3.197 -1.4150  0.0517 -0.9634
16983TIP3   OH250870   4.898   0.534   1.344  0.4856  0.4074 -0.1472
16983TIP3    H150871   4.867   0.566   1.429  0.3824  1.1017 -0.4409
16983TIP3    H250872   4.874   0.603   1.283  0.2985 -0.2258 -0.7883
16984TIP3   OH250873   3.785   1.194   1.938 -0.1836  0.3462 -0.6573
16984TIP3    H150874   3.797   1.226   2.027 -1.3786 -1.1104  0.0576
16984TIP3    H250875   3.697   1.157   1.938  0.6508 -1.6880 -1.8319
16985TIP3   OH250876   2.219   1.135   3.222  0.1777 -0.5074 -0.2998
16985TIP3    H150877   2.131   1.119   3.255  0.4966 -3.1304 -0.6511
16985TIP3    H250878   2.228   1.078   3.146  1.6916  0.8080 -1.1662
16986TIP3   OH250879   3.267   1.141   1.459  0.1554  0.5138 -0.2360
16986TIP3    H150880   3.292   1.192   1.537  0.6787  1.3649 -0.9595
16986TIP3    H250881   3.185   1.181   1.431 -0.1278  0.0872 -0.0199
16987TIP3   OH250882   3.609   3.602   1.338  0.3544 -0.3748 -0.3458
16987TIP3    H150883   3.548   3.564   1.402 -1.1004  0.5524 -1.1375
16987TIP3    H250884   3.657   3.527   1.303  0.9677 -0.9189  1.6041
16988TIP3   OH250885   3.519   0.425   3.172  0.6968 -0.5610  0.0554
16988TIP3    H150886   3.582   0.464   3.232  0.2445  0.8816 -0.3797
16988TIP3    H250887   3.513   0.488   3.100  1.4619 -2.3796 -1.6691
16989TIP3   OH250888   0.779   0.897   1.107 -0.2170  0.1892 -0.2269
16989TIP3    H150889   0.804   0.809   1.134 -1.0440 -0.3309 -1.1168
16989TIP3    H250890   0.827   0.911   1.025 -0.9260  0.1471 -0.6510
16990TIP3   OH250891   3.545   1.063   1.995  0.2777  0.1059  0.1713
16990TIP3    H150892   3.482   1.062   2.067  1.0364 -0.7219  0.8353
16990TIP3    H250893   3.549   0.972   1.965  0.7687  0.2540 -0.2130
16991TIP3   OH250894   2.019   1.293   1.677 -0.7194 -0.0927 -0.2071
16991TIP3    H150895   2.055   1.361   1.733 -0.7482 -0.0006 -0.3017
16991TIP3    H250896   2.062   1.305   1.593 -0.5266 -0.3566 -0.1482
16992TIP3   OH250897   1.570   1.586   1.290  0.1146  0.1282 -0.1867
16992TIP3    H150898   1.585   1.651   1.358  0.7671  1.3920 -1.5185
16992TIP3    H250899   1.640   1.601   1.226 -1.8357  0.5332 -2.3041
16993TIP3   OH250900   7.174   4.903   7.127 -0.6786 -0.5077  0.0178
16993TIP3    H150901   7.135   4.970   7.182  0.4562 -0.3844  0.6832
16993TIP3    H250902   7.268   4.907   7.147 -0.1202  0.0874 -2.4730
16994TIP3   OH250903   2.353   0.587   2.037  0.1780 -0.5740  0.4086
16994TIP3    H150904   2.447   0.585   2.024 -0.0826  2.0411 -2.2573
16994TIP3    H250905   2.317   0.550   1.957 -1.1252  1.5328 -0.0186
16995TIP3   OH250906   3.099   1.127   0.712 -0.3623 -0.3281 -0.1177
16995TIP3    H150907   3.024   1.078   0.745  0.8996 -1.5804  0.9603
16995TIP3    H250908   3.104   1.204   0.769 -1.3944  0.2733 -0.8144
16996TIP3   OH250909   3.553   2.483   3.630 -0.5104  0.0043 -0.4661
16996TIP3    H150910   3.540   2.534   3.550  0.1497  1.3665  0.2800
16996TIP3    H250911   3.501   2.529   3.697  1.3614  0.6309  0.5871
16997TIP3   OH250912   5.253   0.869   0.798 -0.5098 -0.1750  0.0357
16997TIP3    H150913   5.307   0.843   0.724 -0.3932  1.5322 -0.4864
16997TIP3    H250914   5.282   0.957   0.820 -0.5157 -0.6627  2.1366
16998TIP3   OH250915   2.336   1.007   2.338  0.5355  0.4941  0.0157
16998TIP3    H150916   2.378   0.954   2.270 -0.2921 -0.5969  0.3403
16998TIP3    H250917   2.258   1.043   2.296 -1.4058 -2.2700  1.0578
16999TIP3   OH250918   4.716   2.159   1.931 -0.2938 -0.2919  0.2754
16999TIP3    H150919   4.773   2.131   2.003 -0.8462 -0.3183  0.7049
16999TIP3    H250920   4.752   2.115   1.854 -0.8904 -1.8428  0.8621
17000TIP3   OH250921   2.630   0.274   1.777  0.2174 -0.6057 -0.4670
17000TIP3    H150922   2.621   0.307   1.688  1.5701 -0.1033 -0.4257
17000TIP3    H250923   2.714   0.229   1.778 -0.6841 -2.3068  0.0411
17001TIP3   OH250924   1.171   0.727   2.047 -0.6514 -0.2088  0.2502
17001TIP3    H150925   1.247   0.784   2.042 -0.9518  0.2250  0.5960
17001TIP3    H250926   1.103   0.780   2.089 -1.1641 -0.5676 -0.1056
17002TIP3   OH250927   1.506   1.416   0.749  0.1465  0.1805 -0.5433
17002TIP3    H150928   1.438   1.431   0.683 -0.2052  0.7064 -0.0670
17002TIP3    H250929   1.458   1.401   0.831  0.6258  1.6438  0.0128
17003TIP3   OH250930   3.931   3.184   2.850  0.1241 -0.3104 -0.2843
17003TIP3    H150931   3.989   3.183   2.774  0.6850 -1.1484  0.1383
17003TIP3    H250932   3.844   3.196   2.814  0.5121  0.5158 -0.9644
17004TIP3   OH250933   4.178   5.157   6.971  0.6790 -0.0438 -0.2922
17004TIP3    H150934   4.147   5.170   6.882 -0.5389 -0.5463  0.0510
17004TIP3    H250935   4.170   5.243   7.013 -1.5951 -0.4864  0.2048
17005TIP3   OH250936   2.644   1.456   1.213 -0.0719 -0.3982  0.5487
17005TIP3    H150937   2.602   1.458   1.299 -0.6375  0.2410  0.2616
17005TIP3    H250938   2.715   1.393   1.223 -0.2801 -0.5071  1.4177
17006TIP3   OH250939   0.563   7.526   1.434  0.2008 -0.3017 -0.1746
17006TIP3    H150940   0.640   7.569   1.471  0.1014 -0.4150  0.1660
17006TIP3    H250941   0.524   7.592   1.376 -0.1219  0.1825  0.5791
17007TIP3   OH250942   3.923   3.225   3.133 -0.1531  0.0411  0.0398
17007TIP3    H150943   3.954   3.219   3.042 -1.0601 -0.6957 -0.2309
17007TIP3    H250944   3.859   3.295   3.131  0.6399  0.7840  0.3574
17008TIP3   OH250945   0.044   6.291   1.183 -0.0987  0.0213 -0.1746
17008TIP3    H150946   0.024   6.207   1.225 -0.5965  1.2900  2.2146
17008TIP3    H250947   0.133   6.280   1.148  0.2410 -1.1714  1.0141
17009TIP3   OH250948   1.212   0.384   4.019  0.1421  0.4007 -0.2761
17009TIP3    H150949   1.208   0.431   3.936 -1.5803 -1.2877 -1.1756
17009TIP3    H250950   1.131   0.409   4.065 -0.5438 -1.2203 -0.5485
17010TIP3   OH250951   5.612   3.642   6.398  0.4983  0.4015  0.3003
17010TIP3    H150952   5.634   3.717   6.343 -1.0200 -0.1287 -1.0644
17010TIP3    H250953   5.676   3.575   6.374  0.4576  0.5066 -0.1050
17011TIP3   OH250954   4.653   6.676   7.221 -0.1624 -0.4061 -0.7359
17011TIP3    H150955   4.636   6.661   7.128  1.8008 -0.5052 -1.0968
17011TIP3    H250956   4.638   6.591   7.262 -1.5751 -0.2334 -0.8545
17012TIP3   OH250957   3.388   0.679   1.138  0.1361  0.2227  0.3177
17012TIP3    H150958   3.426   0.606   1.188  0.7887  0.8325  0.7320
17012TIP3    H250959   3.460   0.742   1.131 -0.3270  0.6818 -0.3221
17013TIP3   OH250960   0.974   8.051   0.902 -0.1389  1.2552  0.3202
17013TIP3    H150961   0.916   8.010   0.838 -2.0589  0.0194  2.7447
17013TIP3    H250962   1.038   7.982   0.923 -1.6811  0.3643  2.3177
17014TIP3   OH250963   3.251   7.990   0.738  0.4450 -0.4355 -0.6511
17014TIP3    H150964   3.310   8.062   0.760  1.5698 -1.1686 -1.1693
17014TIP3    H250965   3.189   7.985   0.810  0.4869  0.9215 -0.5233
17015TIP3   OH250966   4.954   2.375   4.172 -0.1778 -0.2468  0.1054
17015TIP3    H150967   5.019   2.353   4.239 -1.9169 -0.6534  1.7078
17015TIP3    H250968   5.003   2.372   4.090  1.5777 -1.6646  1.1423
17016TIP3   OH250969   2.012   1.884   2.378  0.7476  0.1082  1.0000
17016TIP3    H150970   2.050   1.865   2.292  0.4428 -0.0506  0.8993
17016TIP3    H250971   2.048   1.816   2.435  2.4461  1.3183  1.4267
17017TIP3   OH250972   3.328   7.461   2.172  0.4632 -0.1192  0.3919
17017TIP3    H150973   3.316   7.374   2.209 -1.6922 -0.8669 -1.9700
17017TIP3    H250974   3.397   7.450   2.106  1.7993  0.4675  1.6658
17018TIP3   OH250975   8.561   6.857   3.186 -0.0985 -0.6840  0.2300
17018TIP3    H150976   8.546   6.942   3.227  0.2393 -1.0045  1.0466
17018TIP3    H250977   8.528   6.794   3.250 -0.8921 -1.1427 -0.6327
17019TIP3   OH250978   1.651   8.321   1.575  0.2196  0.7170 -0.3769
17019TIP3    H150979   1.700   8.400   1.555  1.2390  0.2429  0.2357
17019TIP3    H250980   1.716   8.250   1.573 -1.0247 -0.4656 -3.1043
17020TIP3   OH250981   3.776   1.559   2.537 -0.2438  0.1878 -0.1122
17020TIP3    H150982   3.869   1.541   2.543 -0.5907 -1.7965 -0.4753
17020TIP3    H250983   3.755   1.607   2.617  0.8728 -0.3157  0.4815
17021TIP3   OH250984   3.500   1.962   0.806  0.3977  0.2149  0.6955
17021TIP3    H150985   3.584   1.994   0.772  0.6906 -0.5340  0.7138
17021TIP3    H250986   3.464   2.037   0.854  0.6743  0.7978  0.0005
17022TIP3   OH250987   8.220   5.853   0.300  0.1973  0.0396 -0.3521
17022TIP3    H150988   8.218   5.879   0.393  0.0393 -0.6022 -0.1780
17022TIP3    H250989   8.297   5.796   0.293  0.6464  0.6889 -0.7765
17023TIP3   OH250990   2.224   8.394   1.688 -0.1635 -0.2041 -0.5036
17023TIP3    H150991   2.241   8.299   1.687  2.3489  0.2207 -0.5499
17023TIP3    H250992   2.162   8.407   1.616  0.2915 -1.6717 -1.1946
17024TIP3   OH250993   8.649   2.825   0.416  0.3300 -0.5929 -0.8629
17024TIP3    H150994   8.574   2.766   0.425  0.4053 -0.5277  0.2406
17024TIP3    H250995   8.698   2.790   0.342 -1.3139 -0.0670 -2.2393
17025TIP3   OH250996   1.453   1.490   3.194 -0.5261 -0.0325 -0.1249
17025TIP3    H150997   1.436   1.525   3.281 -0.6179  0.1222 -0.2045
17025TIP3    H250998   1.490   1.403   3.209  1.4413  0.8010  0.1427
17026TIP3   OH250999   1.485   2.673   4.090 -0.1043  0.4627 -0.1275
17026TIP3    H151000   1.437   2.606   4.042  1.3158 -1.2631  0.7561
17026TIP3    H251001   1.495   2.636   4.178  0.3551  2.0203  0.4957
17027TIP3   OH251002   6.954   3.514   0.595 -0.2419  0.3394 -0.3608
17027TIP3    H151003   6.918   3.433   0.631  1.2883 -0.0529  0.3095
17027TIP3    H251004   6.879   3.573   0.590 -0.8200 -0.1463  1.9291
17028TIP3   OH251005   7.668   2.916   1.461  0.2105 -0.6276  0.2148
17028TIP3    H151006   7.740   2.929   1.522  2.6184 -2.2848 -2.1612
17028TIP3    H251007   7.702   2.945   1.377 -1.0130 -3.7084 -1.4134
17029TIP3   OH251008  -0.004   1.589   1.776  0.2751  0.1489  0.2015
17029TIP3    H151009   0.086   1.591   1.745  0.0851 -0.4547 -0.3819
17029TIP3    H251010  -0.057   1.599   1.697 -0.1520  1.6047  0.6639
17030TIP3   OH251011   1.258   2.946   1.981  0.0985 -0.5688  0.3425
17030TIP3    H151012   1.293   2.865   2.017  1.1023  0.8462  2.6602
17030TIP3    H251013   1.308   2.959   1.900 -0.6388 -2.6518 -0.4792
17031TIP3   OH251014   7.473   3.522   1.679 -0.4380 -0.1385 -0.0377
17031TIP3    H151015   7.420   3.448   1.711 -1.5426  0.2881 -0.8436
17031TIP3    H251016   7.538   3.536   1.748 -1.8418 -0.2037  1.3341
17032TIP3   OH251017   0.419   3.803   2.655  0.2136 -0.1119  0.0651
17032TIP3    H151018   0.417   3.710   2.674  1.8909 -0.0644  0.5282
17032TIP3    H251019   0.484   3.813   2.586 -0.2244  0.6654 -0.2459
17033TIP3   OH251020   8.286   1.545   0.902  0.1392  0.3020  0.5685
17033TIP3    H151021   8.270   1.550   0.997  0.9746  0.6093  0.7006
17033TIP3    H251022   8.200   1.563   0.863 -0.1767  0.3623  1.2652
17034TIP3   OH251023   8.486   1.673   2.714  0.3515 -0.3182 -0.1482
17034TIP3    H151024   8.558   1.721   2.756  0.4412 -0.6866  0.1155
17034TIP3    H251025   8.407   1.706   2.757  0.3753 -0.0356 -0.3196
17035TIP3   OH251026   1.864   6.154   6.641  0.0389  0.2861  0.1308
17035TIP3    H151027   1.807   6.103   6.584  1.6935 -1.9657  0.4218
17035TIP3    H251028   1.856   6.244   6.609 -2.5578 -0.2103 -0.7088
17036TIP3   OH251029   1.381   3.963   0.499  0.5907 -0.7912  0.2307
17036TIP3    H151030   1.353   4.005   0.581  0.7950 -1.5713  0.6995
17036TIP3    H251031   1.303   3.966   0.443  0.5145 -0.0609  0.3740
17037TIP3   OH251032   7.295   1.199   2.166  0.3550 -0.1715 -0.2412
17037TIP3    H151033   7.282   1.183   2.073 -2.2708 -2.3434  0.4334
17037TIP3    H251034   7.259   1.286   2.181 -1.4429 -0.7946 -0.8515
17038TIP3   OH251035   0.611   2.272   1.910  0.0452  0.5098 -0.1126
17038TIP3    H151036   0.625   2.220   1.989  1.0938 -0.5203 -0.9619
17038TIP3    H251037   0.551   2.220   1.857  2.3013 -0.6388 -1.6553
17039TIP3   OH251038   2.690   3.764   1.920  0.1897 -0.2986 -0.1164
17039TIP3    H151039   2.660   3.688   1.970 -0.0890 -1.5825 -2.1716
17039TIP3    H251040   2.615   3.823   1.917 -0.7816 -1.5880 -1.6090
17040TIP3   OH251041   3.343   0.870   1.440 -0.1891 -0.0119  0.0567
17040TIP3    H151042   3.324   0.962   1.423 -0.8413 -0.2362 -0.4613
17040TIP3    H251043   3.437   0.862   1.424 -0.7198 -0.1925 -3.5225
17041TIP3   OH251044   2.162   1.186   2.195  0.0710 -0.0409  0.6854
17041TIP3    H151045   2.115   1.153   2.118  0.5094 -0.0266  0.4115
17041TIP3    H251046   2.149   1.281   2.193  1.4183  0.1469 -0.2760
17042TIP3   OH251047   1.509   1.251   3.253  0.4351 -0.3786  0.6390
17042TIP3    H151048   1.479   1.185   3.191 -1.0771  0.4261  0.4801
17042TIP3    H251049   1.455   1.238   3.331 -2.9083  3.2533 -0.8488
17043TIP3   OH251050   8.464   0.096   3.451 -0.2194 -0.3157 -0.6946
17043TIP3    H151051   8.479   0.006   3.479  0.5603 -0.1969 -0.7214
17043TIP3    H251052   8.508   0.150   3.516 -1.2235  0.0739 -0.3294
17044TIP3   OH251053   3.212   3.282   0.606 -0.1541 -0.0739  0.6951
17044TIP3    H151054   3.194   3.372   0.635  2.0176  1.0908 -1.4365
17044TIP3    H251055   3.169   3.276   0.520  1.0803 -0.5299  0.1088
17045TIP3   OH251056   0.554   0.854   0.815  0.0928 -0.1323  0.0674
17045TIP3    H151057   0.474   0.896   0.847  0.0563 -0.4305  0.3641
17045TIP3    H251058   0.611   0.927   0.789  0.3033  0.1179  1.2274
17046TIP3   OH251059   2.996   2.562   2.318  0.4159 -0.3406 -0.5628
17046TIP3    H151060   2.967   2.578   2.408  0.9032  0.5673 -0.5697
17046TIP3    H251061   2.920   2.522   2.276 -0.1443  0.1496 -0.0254
17047TIP3   OH251062   2.164   2.103   3.009  0.1636  0.0591  0.2505
17047TIP3    H151063   2.181   2.154   3.088 -1.2851  1.8256 -0.5400
17047TIP3    H251064   2.160   2.012   3.040  2.0516  0.4770  1.7977
17048TIP3   OH251065   8.270   2.869   3.333 -0.1480  0.7172 -0.1592
17048TIP3    H151066   8.282   2.911   3.248  0.9998  0.9802  0.1221
17048TIP3    H251067   8.356   2.831   3.354 -0.1605  1.4623  1.3094
17049TIP3   OH251068   3.774   6.056   5.597  0.0418  0.5468  0.4543
17049TIP3    H151069   3.802   6.017   5.515 -0.8282  0.8110  0.0204
17049TIP3    H251070   3.853   6.096   5.633  0.4903  0.1723 -0.1080
17050TIP3   OH251071   3.463   1.604   0.543 -0.1427 -0.3160 -0.1719
17050TIP3    H151072   3.461   1.587   0.637  1.0334  1.5604  0.2293
17050TIP3    H251073   3.371   1.621   0.520 -0.3857 -0.3881  0.7132
17051TIP3   OH251074   8.505   1.112   1.121 -0.3930  0.6335 -0.1728
17051TIP3    H151075   8.465   1.095   1.036 -0.1351  0.5546 -0.2802
17051TIP3    H251076   8.462   1.051   1.181 -1.4762  1.5619  0.0084
17052TIP3   OH251077   6.958   5.353   7.259 -0.3647 -0.7280 -0.5064
17052TIP3    H151078   7.014   5.374   7.184  0.4932 -0.1858  0.2841
17052TIP3    H251079   6.879   5.315   7.219  0.1920 -0.6982 -1.6699
17053TIP3   OH251080   2.813   4.015   0.210 -0.1894  0.1767 -0.4788
17053TIP3    H151081   2.869   4.076   0.162  1.3782 -1.3239 -0.6479
17053TIP3    H251082   2.829   3.930   0.168 -2.1872 -0.3869 -0.1550
17054TIP3   OH251083   4.380   7.333   6.273 -0.5305  0.1539  0.4457
17054TIP3    H151084   4.395   7.398   6.204  1.4671 -1.9638 -1.1684
17054TIP3    H251085   4.454   7.273   6.266 -1.5819 -1.4967  2.8715
17055TIP3   OH251086   1.733   0.703   1.322 -0.3767  0.2880  0.2790
17055TIP3    H151087   1.650   0.668   1.354 -2.3991  1.5234 -3.2795
17055TIP3    H251088   1.707   0.778   1.268  2.9929 -0.0750 -1.9381
17056TIP3   OH251089   2.851   2.450   1.129 -0.1375 -0.1783 -0.3306
17056TIP3    H151090   2.904   2.511   1.180  1.2717 -0.9969 -0.7924
17056TIP3    H251091   2.836   2.494   1.046 -1.1802  0.5343  0.2193
17057TIP3   OH251092   2.854   2.899   1.517  0.3316  0.4185  0.1094
17057TIP3    H151093   2.863   2.868   1.427  0.8057 -0.3544  0.4127
17057TIP3    H251094   2.892   2.829   1.570 -0.5877  0.5467  0.9593
17058TIP3   OH251095   3.085   1.368   0.825  0.2587 -0.4769  0.3796
17058TIP3    H151096   3.131   1.349   0.908 -1.8881 -1.6902  1.3447
17058TIP3    H251097   3.024   1.438   0.847 -1.2670 -1.7261  0.1819
17059TIP3   OH251098   1.317   2.900   4.108  0.3658 -0.2180  0.4372
17059TIP3    H151099   1.365   2.819   4.127 -0.1908 -0.2547  1.7382
17059TIP3    H251100   1.226   2.874   4.102  0.2812  0.1737 -0.0446
17060TIP3   OH251101   1.475   2.156   1.539  0.1473  0.3044 -0.2195
17060TIP3    H151102   1.413   2.111   1.482  0.5264 -1.1394  0.4952
17060TIP3    H251103   1.561   2.130   1.507  0.3705  0.2753  0.3911
17061TIP3   OH251104   7.999   2.775   1.945  0.7926  0.3848  0.3127
17061TIP3    H151105   8.003   2.855   1.893  0.3420 -0.1454 -0.5513
17061TIP3    H251106   8.025   2.706   1.885 -1.0122 -0.4120  0.3933
   8.90000   8.39100   7.26682   0.00000   0.00000  -2.96667   0.00000  -2.96667  -4.19550
